A-SYNC WITH FASUDIL
35315
  121NASP     N    1   6.326   0.359   2.936 -0.1003 -0.1584  0.2017
  121NASP    H1    2   6.230   0.377   2.910  0.1889  3.5812  1.1153
  121NASP    H2    3   6.386   0.436   2.912 -2.1729  1.9720  1.4183
  121NASP    H3    4   6.333   0.357   3.037 -0.2618  1.1742  0.2622
  121NASP    CA    5   6.376   0.231   2.879  0.5477 -0.4286  0.1307
  121NASP    HA    6   6.484   0.243   2.873  0.5918 -0.5014  0.7033
  121NASP    CB    7   6.334   0.103   2.957 -0.2779 -0.1379 -0.2481
  121NASP   HB1    8   6.389   0.090   3.050  2.0206  1.9243 -1.2149
  121NASP   HB2    9   6.360   0.015   2.898  3.3122  1.2080 -0.9308
  121NASP    CG   10   6.187   0.106   2.989  0.0004  1.2119 -0.5518
  121NASP   OD1   11   6.142   0.011   3.063 -0.4474 -0.0401  0.1985
  121NASP   OD2   12   6.110   0.197   2.949 -0.1009 -0.0087  0.2083
  121NASP     C   13   6.344   0.224   2.728  0.0706 -0.5183 -0.0546
  121NASP     O   14   6.249   0.289   2.680  0.6260  0.2687  0.1952
  122ASN      N   15   6.420   0.148   2.651  0.1138 -0.2638 -0.5411
  122ASN      H   16   6.498   0.097   2.690  1.3597  1.9544  0.0035
  122ASN     CA   17   6.390   0.119   2.512 -0.1111  1.2583 -0.0890
  122ASN     HA   18   6.394   0.214   2.458 -0.6161  0.2476 -1.9702
  122ASN     CB   19   6.501   0.029   2.450  0.4234  0.1829 -0.5957
  122ASN    HB1   20   6.486  -0.074   2.482 -0.1203  0.3457 -0.3146
  122ASN    HB2   21   6.596   0.062   2.492 -0.7841  0.4685  2.1231
  122ASN     CG   22   6.497   0.033   2.300 -0.3259  0.7552  0.4914
  122ASN    OD1   23   6.516   0.135   2.233 -0.1333  0.1444 -0.0129
  122ASN    ND2   24   6.481  -0.084   2.244  0.7804 -0.0556  0.2657
  122ASN   HD21   25   6.491  -0.085   2.143  0.5447 -3.3961  0.1465
  122ASN   HD22   26   6.472  -0.169   2.298 -1.6864 -1.3333 -1.8612
  122ASN      C   27   6.256   0.052   2.497 -1.1210  0.3200 -0.3071
  122ASN      O   28   6.241  -0.045   2.573 -0.7527 -0.6252  0.2311
  123GLU      N   29   6.171   0.103   2.407 -0.3049 -0.6459 -0.1091
  123GLU      H   30   6.207   0.173   2.344 -1.8694  0.0984 -0.2377
  123GLU     CA   31   6.040   0.045   2.372  0.0152  0.0569 -0.3903
  123GLU     HA   32   5.968   0.063   2.452  1.3641 -1.8963  1.3629
  123GLU     CB   33   5.993   0.108   2.243 -0.3601 -0.2312  0.4899
  123GLU    HB1   34   5.934   0.039   2.183 -0.2555 -0.3165  0.4850
  123GLU    HB2   35   6.083   0.134   2.187 -0.6112  0.0812  0.2229
  123GLU     CG   36   5.908   0.237   2.255  0.3200  0.0319  0.2274
  123GLU    HG1   37   5.964   0.324   2.292  1.1970 -0.1329 -0.6922
  123GLU    HG2   38   5.820   0.212   2.314 -1.7684  1.2765 -2.1768
  123GLU     CD   39   5.844   0.283   2.125 -0.0948 -0.0029 -0.0084
  123GLU    OE1   40   5.779   0.389   2.121  0.5178 -0.3596 -0.4208
  123GLU    OE2   41   5.865   0.201   2.030  1.0495 -0.0428 -0.3933
  123GLU      C   42   6.053  -0.111   2.352  0.6302 -0.3641  0.2263
  123GLU      O   43   6.141  -0.157   2.276  0.2689  0.1698 -0.0327
  124ALA      N   44   5.964  -0.188   2.416  0.4228 -0.4009  0.9152
  124ALA      H   45   5.902  -0.136   2.477  0.9192  3.4841 -1.4933
  124ALA     CA   46   5.955  -0.331   2.399 -0.9687  0.1512 -0.3324
  124ALA     HA   47   6.040  -0.360   2.461  0.3448  1.0221 -1.6671
  124ALA     CB   48   5.821  -0.383   2.454  0.1444  0.4991  0.3668
  124ALA    HB1   49   5.809  -0.490   2.439 -0.3642  0.7776 -1.5546
  124ALA    HB2   50   5.729  -0.352   2.403 -1.0892  1.3105  2.9280
  124ALA    HB3   51   5.810  -0.369   2.561  2.5492 -1.7716  1.0083
  124ALA      C   52   5.987  -0.387   2.256 -0.8458 -0.3013 -0.4745
  124ALA      O   53   5.937  -0.330   2.158  0.0813 -0.0836  0.5222
  125TYR      N   54   6.063  -0.496   2.248  0.0749 -0.2541  0.0984
  125TYR      H   55   6.117  -0.520   2.330 -0.3828  2.0294  1.1247
  125TYR     CA   56   6.069  -0.567   2.119 -0.2685 -0.2849 -0.0007
  125TYR     HA   57   6.049  -0.496   2.040  1.6873  0.2440 -0.0625
  125TYR     CB   58   6.192  -0.652   2.099  0.1471  0.3975  0.3901
  125TYR    HB1   59   6.192  -0.692   1.998  0.1628  1.4764 -0.0513
  125TYR    HB2   60   6.191  -0.733   2.172  2.3932 -1.4983 -1.5070
  125TYR     CG   61   6.322  -0.573   2.119  0.3830  0.0735  0.1774
  125TYR    CD1   62   6.428  -0.636   2.191 -0.0448 -0.1003  0.1941
  125TYR    HD1   63   6.415  -0.734   2.234  0.9954 -0.9115 -1.2510
  125TYR    CE1   64   6.557  -0.578   2.198 -0.3080  0.3123 -0.5065
  125TYR    HE1   65   6.635  -0.626   2.255 -1.1001  0.9175  1.1433
  125TYR     CZ   66   6.579  -0.452   2.135 -0.4789 -0.2390  0.0625
  125TYR     OH   67   6.695  -0.379   2.147  0.4812 -0.2402 -0.4166
  125TYR     HH   68   6.766  -0.430   2.186  0.6414  0.3835  0.1342
  125TYR    CE2   69   6.474  -0.393   2.070 -0.0518 -0.2157 -0.0953
  125TYR    HE2   70   6.499  -0.292   2.040  0.6284 -0.4973 -0.5004
  125TYR    CD2   71   6.342  -0.448   2.056 -0.3554 -0.6960 -0.6370
  125TYR    HD2   72   6.261  -0.400   2.003 -0.1025  0.2861 -0.1431
  125TYR      C   73   5.944  -0.657   2.111  0.3267 -0.7251 -0.3114
  125TYR      O   74   5.878  -0.679   2.208  0.0069  0.2357 -0.4530
  126GLU      N   75   5.903  -0.701   1.989 -0.1152 -0.4690 -0.5558
  126GLU      H   76   5.956  -0.678   1.906 -2.0733 -0.6016 -1.9137
  126GLU     CA   77   5.792  -0.795   1.966  0.9190  0.6896 -0.5088
  126GLU     HA   78   5.706  -0.758   2.022 -0.3231 -0.1300 -1.8449
  126GLU     CB   79   5.754  -0.816   1.821  0.1930 -0.0247 -0.4912
  126GLU    HB1   80   5.845  -0.809   1.761 -1.0469  0.3691 -2.4152
  126GLU    HB2   81   5.701  -0.726   1.789 -0.1164 -0.4367 -1.1478
  126GLU     CG   82   5.676  -0.930   1.778  0.3131  0.8699 -0.1740
  126GLU    HG1   83   5.583  -0.928   1.836 -1.4304 -0.9076 -2.6930
  126GLU    HG2   84   5.737  -1.017   1.803  1.0902  1.4288 -0.1028
  126GLU     CD   85   5.650  -0.946   1.625  0.3560 -0.0907 -0.5339
  126GLU    OE1   86   5.535  -0.979   1.589 -1.0984 -0.1892  0.0783
  126GLU    OE2   87   5.745  -0.929   1.548 -0.1758 -0.3972 -0.1720
  126GLU      C   88   5.823  -0.929   2.040 -0.1928 -0.6779  0.3235
  126GLU      O   89   5.944  -0.963   2.054  0.1021  0.4132 -0.0850
  127MET      N   90   5.724  -0.999   2.082  0.0743  0.8982 -0.1495
  127MET      H   91   5.630  -0.967   2.064  0.0376  0.3004 -1.1028
  127MET     CA   92   5.737  -1.130   2.150 -0.4039  0.4500 -0.7447
  127MET     HA   93   5.826  -1.126   2.213  0.8390 -3.5730 -1.9013
  127MET     CB   94   5.608  -1.149   2.232 -0.6435 -0.0534  0.7765
  127MET    HB1   95   5.519  -1.178   2.175 -0.9063  0.1458  1.0848
  127MET    HB2   96   5.586  -1.049   2.267 -0.2466  1.4233 -2.7816
  127MET     CG   97   5.631  -1.241   2.356  0.8179 -0.2779 -0.4002
  127MET    HG1   98   5.611  -1.347   2.335 -0.0332 -0.0930 -0.5687
  127MET    HG2   99   5.547  -1.211   2.419  0.2795 -2.6734  0.1271
  127MET     SD  100   5.780  -1.220   2.462 -0.1539  0.1020 -0.3104
  127MET     CE  101   5.780  -1.047   2.489  0.1587  0.2570 -0.0715
  127MET    HE1  102   5.685  -1.016   2.531  1.5574  0.0623  3.5562
  127MET    HE2  103   5.815  -0.995   2.399 -2.6938  0.2409 -1.3008
  127MET    HE3  104   5.857  -1.024   2.562  1.5598  0.3108 -1.4979
  127MET      C  105   5.759  -1.243   2.045  0.7777 -0.1068 -0.2874
  127MET      O  106   5.673  -1.267   1.961  0.0181 -0.3714 -0.4652
  128PRO      N  107   5.860  -1.330   2.052  0.0412  0.0529 -0.3828
  128PRO     CD  108   5.960  -1.321   2.156  0.0119 -0.1167 -0.5115
  128PRO    HD1  109   5.903  -1.325   2.249  0.8840  0.2077  0.0450
  128PRO    HD2  110   6.007  -1.223   2.151 -1.7028  1.1348  3.9444
  128PRO     CG  111   6.058  -1.434   2.137 -0.0987  0.1592  0.0871
  128PRO    HG1  112   6.037  -1.511   2.211  0.8886  2.3416  2.8135
  128PRO    HG2  113   6.152  -1.384   2.159 -1.1775  2.4136 -0.1521
  128PRO     CB  114   6.035  -1.475   1.988  0.4764 -0.4857 -0.0315
  128PRO    HB1  115   6.089  -1.408   1.921 -0.3297 -0.2694 -0.4740
  128PRO    HB2  116   6.062  -1.580   1.973 -1.1079 -1.0929  1.0194
  128PRO     CA  117   5.882  -1.448   1.972  0.3451  0.0848 -0.6213
  128PRO     HA  118   5.857  -1.439   1.866 -0.1103  0.1468 -0.5105
  128PRO      C  119   5.815  -1.570   2.026 -0.6180  0.2264  0.5219
  128PRO      O  120   5.802  -1.669   1.953  0.3723  0.4693  0.1083
  129SER      N  121   5.777  -1.584   2.150 -0.4572  0.3197 -0.4790
  129SER      H  122   5.771  -1.507   2.214 -2.1446  0.8200 -1.1792
  129SER     CA  123   5.715  -1.707   2.211 -0.3374  0.5446 -0.2264
  129SER     HA  124   5.767  -1.797   2.177  3.1011  1.9230  0.9322
  129SER     CB  125   5.710  -1.694   2.366  0.5701  0.0904 -0.0302
  129SER    HB1  126   5.813  -1.688   2.402  0.8342  0.0340 -0.7598
  129SER    HB2  127   5.662  -1.781   2.409  0.0916  1.0293  1.4017
  129SER     OG  128   5.640  -1.580   2.395  0.1132  0.4762  0.5757
  129SER    HG1  129   5.676  -1.555   2.480 -1.9412 -1.1595  2.0035
  129SER      C  130   5.568  -1.726   2.160 -0.1895  0.6157 -0.2716
  129SER      O  131   5.499  -1.626   2.135  0.6754 -0.0581 -0.3724
  130GLU      N  132   5.516  -1.850   2.166 -0.1667  0.2870 -0.3162
  130GLU      H  133   5.563  -1.932   2.199 -1.4546 -0.4080 -0.1306
  130GLU     CA  134   5.374  -1.873   2.125 -0.1322 -0.7307 -0.0745
  130GLU     HA  135   5.349  -1.819   2.034 -0.1962 -1.4722 -0.5068
  130GLU     CB  136   5.350  -2.020   2.093  0.0134 -0.1652  0.4236
  130GLU    HB1  137   5.251  -2.023   2.047 -0.9376 -0.3153  2.3739
  130GLU    HB2  138   5.345  -2.080   2.184  0.7750 -0.1352  0.4952
  130GLU     CG  139   5.454  -2.091   2.005 -0.3333 -0.4166 -0.6701
  130GLU    HG1  140   5.548  -2.097   2.060 -0.5481  0.1295 -0.2199
  130GLU    HG2  141   5.478  -2.025   1.922 -1.0516  1.2698  0.3873
  130GLU     CD  142   5.401  -2.224   1.970  0.3001  0.1981  0.8483
  130GLU    OE1  143   5.341  -2.286   2.063  0.2730 -0.4286  0.5131
  130GLU    OE2  144   5.393  -2.267   1.854 -0.4348 -0.2182  0.7445
  130GLU      C  145   5.270  -1.830   2.227  0.1638  0.0736  0.1399
  130GLU      O  146   5.155  -1.812   2.187 -0.1838  0.1368 -0.0773
  131GLU      N  147   5.307  -1.821   2.359  0.1181  0.3393  0.2147
  131GLU      H  148   5.396  -1.865   2.374 -0.0906 -1.0355 -2.0488
  131GLU     CA  149   5.220  -1.774   2.470  0.2617 -0.0502  0.7032
  131GLU     HA  150   5.120  -1.813   2.452 -0.1982  0.4356  2.0851
  131GLU     CB  151   5.261  -1.829   2.604  0.0195 -0.2838 -0.4325
  131GLU    HB1  152   5.307  -1.926   2.584  2.3472  0.3368  1.4372
  131GLU    HB2  153   5.174  -1.860   2.662  0.2719  0.3012  0.2609
  131GLU     CG  154   5.353  -1.737   2.687  0.2793 -0.6361  0.0711
  131GLU    HG1  155   5.290  -1.654   2.721  1.3729  0.0669  0.4462
  131GLU    HG2  156   5.437  -1.690   2.636 -1.3963  1.4293 -0.9018
  131GLU     CD  157   5.407  -1.806   2.814  0.4610  0.4825 -0.6477
  131GLU    OE1  158   5.331  -1.864   2.892 -0.1669  0.1008  0.4263
  131GLU    OE2  159   5.527  -1.805   2.842  0.0782 -0.6476  0.0066
  131GLU      C  160   5.195  -1.615   2.470  0.5862 -0.0453 -0.2154
  131GLU      O  161   5.095  -1.577   2.539  0.3698 -0.4251 -0.3001
  132GLY      N  162   5.280  -1.535   2.402 -0.5407 -0.0051  0.0828
  132GLY      H  163   5.362  -1.581   2.366  1.1459  2.1161  1.0247
  132GLY     CA  164   5.286  -1.396   2.423  0.2870  0.1383  0.0913
  132GLY    HA1  165   5.183  -1.365   2.407  0.0432 -0.1935  0.9906
  132GLY    HA2  166   5.344  -1.350   2.343  0.1581 -0.0251 -0.0967
  132GLY      C  167   5.338  -1.349   2.561  0.2452  0.2413  0.9567
  132GLY      O  168   5.416  -1.408   2.630 -0.1339  0.4034  0.4083
  133TYR      N  169   5.288  -1.231   2.593  0.3720 -0.0729 -0.3449
  133TYR      H  170   5.227  -1.185   2.527  2.6507  1.3412 -1.6075
  133TYR     CA  171   5.339  -1.153   2.706  0.1626  0.2213 -0.5198
  133TYR     HA  172   5.441  -1.185   2.730  0.4612  2.0824  0.9822
  133TYR     CB  173   5.335  -1.005   2.669 -0.8789 -0.7753  0.2777
  133TYR    HB1  174   5.234  -0.970   2.649 -0.6850 -0.7745 -0.7855
  133TYR    HB2  175   5.388  -0.992   2.575 -0.3529  1.4396  0.8257
  133TYR     CG  176   5.396  -0.910   2.773  0.0880 -0.2463 -0.1353
  133TYR    CD1  177   5.326  -0.870   2.888 -0.2318  0.0653 -0.5770
  133TYR    HD1  178   5.226  -0.903   2.912 -0.6543  2.3412  1.1424
  133TYR    CE1  179   5.377  -0.771   2.971  0.7295 -0.1727 -0.5468
  133TYR    HE1  180   5.317  -0.748   3.058  1.3243 -1.0549  0.1006
  133TYR     CZ  181   5.506  -0.716   2.946  0.4204 -0.2490 -0.2945
  133TYR     OH  182   5.555  -0.618   3.025  0.1522  0.0991  0.3691
  133TYR     HH  183   5.495  -0.584   3.091  0.5264  0.5226  0.4983
  133TYR    CE2  184   5.573  -0.754   2.826  0.4285  0.4508 -0.6703
  133TYR    HE2  185   5.668  -0.716   2.791  1.1021 -1.9229 -1.6669
  133TYR    CD2  186   5.522  -0.856   2.745 -0.4871 -0.3710  0.0736
  133TYR    HD2  187   5.575  -0.896   2.660 -0.8193 -0.3324 -0.1528
  133TYR      C  188   5.243  -1.183   2.823  0.5753  0.0024 -0.4271
  133TYR      O  189   5.121  -1.196   2.800  0.1822  0.4511 -0.4756
  134GLN      N  190   5.297  -1.200   2.946 -0.8736  0.0810 -0.5565
  134GLN      H  191   5.395  -1.182   2.957 -0.2632 -2.2924 -1.5997
  134GLN     CA  192   5.223  -1.233   3.071  0.2354  0.4861 -1.2753
  134GLN     HA  193   5.131  -1.288   3.054  1.2313 -1.7227  0.0294
  134GLN     CB  194   5.305  -1.338   3.152  0.3505  0.3508 -0.3156
  134GLN    HB1  195   5.254  -1.356   3.246  1.7565 -0.9216  0.2508
  134GLN    HB2  196   5.404  -1.303   3.183  0.5970 -0.2357 -0.4367
  134GLN     CG  197   5.317  -1.474   3.078 -0.6283  0.0503  0.2352
  134GLN    HG1  198   5.383  -1.465   2.991  0.2225 -0.0401  0.8559
  134GLN    HG2  199   5.218  -1.506   3.045 -0.6642  0.4333 -0.0308
  134GLN     CD  200   5.392  -1.577   3.173  0.0368  0.1065 -0.5574
  134GLN    OE1  201   5.415  -1.546   3.290  0.2373  0.3505  0.0159
  134GLN    NE2  202   5.422  -1.698   3.135 -0.2999  0.1251 -0.2932
  134GLN   HE21  203   5.450  -1.762   3.208  0.9182  0.2713 -0.6130
  134GLN   HE22  204   5.391  -1.739   3.048 -0.9634 -0.2770  0.1173
  134GLN      C  205   5.194  -1.106   3.153 -0.0382 -0.5589  0.9122
  134GLN      O  206   5.281  -1.058   3.219 -0.3237 -0.4409  0.5913
  135ASP      N  207   5.076  -1.039   3.133 -0.5943  0.1424  0.5035
  135ASP      H  208   5.009  -1.089   3.075  0.6344 -0.5614 -0.3723
  135ASP     CA  209   5.040  -0.905   3.161  0.2103  0.3840  0.1736
  135ASP     HA  210   5.125  -0.842   3.137  1.1936  0.0911  2.5817
  135ASP     CB  211   4.923  -0.856   3.068  0.2150  0.6358 -0.3296
  135ASP    HB1  212   4.951  -0.850   2.963  0.3370  1.2148 -0.2659
  135ASP    HB2  213   4.892  -0.758   3.103  1.3033  0.3262  1.6891
  135ASP     CG  214   4.791  -0.932   3.067 -0.9555 -0.2342 -0.1586
  135ASP    OD1  215   4.703  -0.903   2.982 -0.0588 -0.0073 -0.6879
  135ASP    OD2  216   4.782  -1.030   3.149 -0.1600 -0.2161  0.6838
  135ASP      C  217   5.020  -0.878   3.312 -0.4750 -0.1518  0.3810
  135ASP      O  218   4.926  -0.811   3.353 -0.2620  0.0297 -0.2526
  136TYR      N  219   5.106  -0.934   3.397 -0.3378  0.1114  0.4226
  136TYR      H  220   5.193  -0.976   3.366 -0.3321  2.1259 -2.7710
  136TYR     CA  221   5.086  -0.925   3.546  0.4170  0.1402 -0.2275
  136TYR     HA  222   4.980  -0.943   3.566  0.1688  1.6543 -0.0586
  136TYR     CB  223   5.145  -1.043   3.618 -0.0745  0.8159  0.2619
  136TYR    HB1  224   5.119  -1.138   3.571  1.6413 -1.0548  2.7902
  136TYR    HB2  225   5.114  -1.051   3.722  1.6641 -2.0069  0.6745
  136TYR     CG  226   5.298  -1.034   3.619 -0.6590 -0.3618 -0.3735
  136TYR    CD1  227   5.362  -0.950   3.715  0.0709 -0.3029  0.5200
  136TYR    HD1  228   5.298  -0.897   3.784  1.0175  0.6465  0.6995
  136TYR    CE1  229   5.504  -0.927   3.717  0.6059 -0.2600 -0.4272
  136TYR    HE1  230   5.549  -0.860   3.790  0.6325  0.7899 -1.3797
  136TYR     CZ  231   5.588  -1.003   3.626  0.5068  0.2093 -0.1307
  136TYR     OH  232   5.722  -0.990   3.631 -0.1414 -0.0955 -0.0730
  136TYR     HH  233   5.758  -1.073   3.602 -0.6789 -0.3837  0.0583
  136TYR    CE2  234   5.524  -1.096   3.544 -0.0948 -0.0058  0.7599
  136TYR    HE2  235   5.581  -1.149   3.469  0.5812  1.3421  0.2984
  136TYR    CD2  236   5.383  -1.104   3.533  0.1286  0.1531 -1.1343
  136TYR    HD2  237   5.337  -1.176   3.467  0.7822 -1.4114  0.0745
  136TYR      C  238   5.121  -0.784   3.599 -0.1382  0.4576 -0.1065
  136TYR      O  239   5.200  -0.715   3.537  0.2679  0.0307  0.3188
  137GLU      N  240   5.053  -0.742   3.703 -0.5717  0.3274  1.0366
  137GLU      H  241   4.981  -0.806   3.735  0.8336 -0.7681  2.1481
  137GLU     CA  242   5.059  -0.615   3.770  0.7523  0.7236 -1.3387
  137GLU     HA  243   5.058  -0.536   3.695 -1.4073  1.7477 -0.3449
  137GLU     CB  244   4.943  -0.590   3.860 -0.3986 -0.0801 -0.3525
  137GLU    HB1  245   4.939  -0.492   3.907 -2.1773 -0.4875  0.4347
  137GLU    HB2  246   4.935  -0.676   3.926  0.1579  0.7587  0.8470
  137GLU     CG  247   4.816  -0.583   3.767 -0.0627 -0.1501 -0.0606
  137GLU    HG1  248   4.795  -0.680   3.723 -3.1264 -0.2201  1.3226
  137GLU    HG2  249   4.830  -0.513   3.684 -1.1732 -0.2664 -0.3532
  137GLU     CD  250   4.689  -0.544   3.846 -0.4167 -0.0096  0.5226
  137GLU    OE1  251   4.592  -0.493   3.780 -0.8280 -0.1739  0.0739
  137GLU    OE2  252   4.696  -0.557   3.970  0.1007 -0.0435  0.1116
  137GLU      C  253   5.184  -0.598   3.863  0.0458  0.5080 -0.1575
  137GLU      O  254   5.203  -0.682   3.955  0.2187  0.3840 -0.5202
  138PRO      N  255   5.276  -0.505   3.831 -0.3719 -0.2251 -0.1448
  138PRO     CD  256   5.269  -0.397   3.729  0.5760  0.4395 -0.3153
  138PRO    HD1  257   5.182  -0.337   3.753 -0.1080 -0.9636  0.8942
  138PRO    HD2  258   5.261  -0.434   3.627  2.5096 -1.5036  0.1524
  138PRO     CG  259   5.390  -0.313   3.749 -0.3530  0.6352  0.2293
  138PRO    HG1  260   5.370  -0.216   3.794 -0.3560 -0.2138  2.1892
  138PRO    HG2  261   5.436  -0.288   3.654  1.2147 -1.0460  0.4746
  138PRO     CB  262   5.490  -0.385   3.837 -0.0672  0.0022  0.8599
  138PRO    HB1  263   5.558  -0.450   3.781  2.1206  0.4851  2.8214
  138PRO    HB2  264   5.546  -0.319   3.903  1.8571  1.1937 -1.7418
  138PRO     CA  265   5.391  -0.477   3.919 -0.6626 -0.0806 -0.0309
  138PRO     HA  266   5.434  -0.569   3.956  0.9357  0.5130 -0.3480
  138PRO      C  267   5.353  -0.397   4.042 -0.2383  0.9437 -0.3207
  138PRO      O  268   5.260  -0.316   4.030 -0.3460  0.2712  0.1371
  139GLU      N  269   5.412  -0.423   4.159  0.8273  0.3460 -0.0400
  139GLU      H  270   5.492  -0.485   4.155 -0.4386 -1.3287 -2.4384
  139GLU     CA  271   5.379  -0.350   4.285  0.5785 -0.3366  0.0342
  139GLU     HA  272   5.284  -0.297   4.273  1.2193  0.7760 -0.3224
  139GLU     CB  273   5.355  -0.443   4.404  0.5401 -0.3645  0.2056
  139GLU    HB1  274   5.454  -0.488   4.415 -0.3088 -2.4191 -0.1120
  139GLU    HB2  275   5.286  -0.520   4.370 -3.1559  2.0219  1.6898
  139GLU     CG  276   5.306  -0.375   4.536  0.0372  0.3577  0.7022
  139GLU    HG1  277   5.219  -0.315   4.511 -1.2926 -1.7553  0.0077
  139GLU    HG2  278   5.373  -0.304   4.584  1.5162 -2.6962  3.5806
  139GLU     CD  279   5.266  -0.483   4.639 -0.2554  1.1833  0.4361
  139GLU    OE1  280   5.350  -0.571   4.660  0.8867  0.0991 -0.2681
  139GLU    OE2  281   5.150  -0.481   4.692 -0.1634  0.6262  0.8104
  139GLU      C  282   5.488  -0.249   4.317  0.2886  0.2572  0.2510
  139GLU      O  283   5.605  -0.276   4.289  0.1665 -0.4157  0.6066
  140CALA     N  284   5.446  -0.131   4.359 -0.1126  0.2009 -0.5825
  140CALA     H  285   5.346  -0.123   4.375 -0.1227 -1.5935  0.4429
  140CALA    CA  286   5.538  -0.033   4.432  0.3803  0.1619  0.8937
  140CALA    HA  287   5.638  -0.057   4.398  0.3590  0.1244  0.8584
  140CALA    CB  288   5.497   0.106   4.386 -0.3221 -0.6436 -0.1716
  140CALA   HB1  289   5.557   0.185   4.430 -1.1719  0.0960 -0.3048
  140CALA   HB2  290   5.392   0.124   4.407 -0.4741 -1.1066 -0.5167
  140CALA   HB3  291   5.507   0.107   4.277 -0.8266 -2.0191 -0.2529
  140CALA     C  292   5.526  -0.051   4.579  0.7077  0.8046 -0.0905
  140CALA   OC1  293   5.411  -0.024   4.627 -0.1605  0.2808  0.4842
  140CALA   OC2  294   5.622  -0.074   4.648  0.2354  0.1065  0.3142
  141FAS      C  295   5.716   4.958   3.084 -0.6841 -0.1101  0.2376
  141FAS     C1  296   5.800   4.912   3.206  0.4864 -0.2487  0.8012
  141FAS      N  297   5.847   5.026   3.298  0.5059  0.1140 -0.2215
  141FAS     C2  298   5.948   5.124   3.230 -0.2199  0.3624  0.0323
  141FAS     C3  299   5.894   5.234   3.135  0.6722 -0.7091  0.2443
  141FAS     N1  300   5.787   5.185   3.038  0.5424 -0.2691 -0.5134
  141FAS     C4  301   5.798   5.046   2.995 -0.0270 -0.9082 -0.3780
  141FAS      S  302   5.737   5.297   2.918 -0.2350 -0.0740  0.2601
  141FAS      O  303   5.811   5.254   2.803 -1.0607  0.2260  0.2458
  141FAS     O1  304   5.588   5.282   2.918 -0.4918 -0.2365 -0.3167
  141FAS     C5  305   5.793   5.460   2.974 -0.1666 -0.1673 -0.6781
  141FAS     C6  306   5.896   5.525   2.898 -0.6927 -0.5501 -0.5303
  141FAS     C7  307   5.953   5.648   2.945  0.7334  0.2933 -0.2663
  141FAS     C8  308   5.905   5.702   3.064  0.5149  0.1311 -0.5108
  141FAS     C9  309   5.806   5.633   3.141 -0.1273  0.6070  0.0661
  141FAS    C10  310   5.745   5.519   3.093  0.0618  1.0909 -1.1910
  141FAS    C11  311   5.637   5.465   3.167 -1.0842 -0.4652  0.3480
  141FAS    C12  312   5.592   5.538   3.272  0.0759 -0.6286 -0.5074
  141FAS     N2  313   5.644   5.652   3.316 -0.3498  0.3219 -0.3185
  141FAS    C13  314   5.752   5.701   3.249 -0.4386  0.0163 -0.1682
  141FAS      H  315   5.624   5.007   3.119 -0.6290  0.4122 -0.3495
  141FAS     H1  316   5.690   4.866   3.029  2.0309 -1.0649  0.4312
  141FAS     H2  317   5.886   4.860   3.164  0.0069  0.2515 -0.8744
  141FAS     H3  318   5.740   4.841   3.263 -0.5186 -0.7909 -0.8500
  141FAS     H4  319   5.765   5.083   3.326  0.5517  0.0997 -0.0576
  141FAS     H5  320   6.012   5.068   3.162 -1.6278 -1.4451  0.1006
  141FAS     H6  321   6.015   5.167   3.304 -0.1750  1.7395 -0.7639
  141FAS     H7  322   5.989   5.257   3.085 -0.8006  2.6298 -1.3276
  141FAS     H8  323   5.862   5.314   3.203 -0.2665 -0.0622 -0.9258
  141FAS     H9  324   5.901   5.008   2.991  0.7964  1.1884 -0.4026
  141FAS    H10  325   5.753   5.043   2.896  2.8395 -1.4538 -1.7578
  141FAS    H11  326   5.924   5.489   2.799 -0.4370 -1.4454 -0.1465
  141FAS    H12  327   6.032   5.700   2.890  1.3633 -0.4737 -0.0996
  141FAS    H13  328   5.942   5.799   3.095  1.3461  0.3695 -2.1511
  141FAS    H14  329   5.584   5.372   3.147 -1.0403 -0.3057 -0.5466
  141FAS    H15  330   5.504   5.499   3.323 -0.4557 -0.8647 -1.5709
  141FAS    H16  331   5.773   5.806   3.271 -2.8609  0.2630  1.2883
  141FAS    H17  332   5.877   4.992   3.390 -0.7782  0.2377  0.2699
  142SOL     OW  333   0.972   0.213   5.265  0.2414 -0.4071  0.1573
  142SOL    HW2  334   0.936   0.125   5.253 -0.7306  0.0283 -0.1834
  142SOL    HW3  335   0.910   0.257   5.323  2.2516 -0.8543  2.8292
  142SOL    MW4  336   0.959   0.207   5.271 -0.0659  0.6530 -0.5077
  143SOL     OW  337   1.662   5.898   1.645  0.2082 -0.3724 -0.6008
  143SOL    HW2  338   1.580   5.924   1.688  1.4254 -0.3033  1.8655
  143SOL    HW3  339   1.708   5.980   1.630  0.7678 -0.5388  0.1327
  143SOL    MW4  340   1.657   5.912   1.649 -0.1953  0.1349  0.4082
  144SOL     OW  341   4.226   5.750   0.180  0.3752 -0.6522  0.3853
  144SOL    HW2  342   4.221   5.667   0.132 -0.2757  0.2189 -1.1194
  144SOL    HW3  343   4.319   5.763   0.197  0.5053 -1.5455  0.4099
  144SOL    MW4  344   4.237   5.741   0.176 -0.3330 -0.3014 -0.1295
  145SOL     OW  345   1.559   2.287   1.188 -0.0020 -0.2631  0.2942
  145SOL    HW2  346   1.488   2.351   1.182 -0.3876 -0.6627  0.4515
  145SOL    HW3  347   1.616   2.320   1.256  0.9384  0.9888 -1.0471
  145SOL    MW4  348   1.557   2.300   1.196  0.0382 -0.4442  0.1058
  146SOL     OW  349   1.250   4.569   6.145  0.1219  0.3892  0.7123
  146SOL    HW2  350   1.323   4.558   6.205  2.0332  1.8528 -1.2038
  146SOL    HW3  351   1.280   4.634   6.082 -2.4538  0.2668 -0.7873
  146SOL    MW4  352   1.263   4.576   6.145 -0.3041 -0.5400  0.2570
  147SOL     OW  353   5.449   0.637   4.704 -0.0689 -0.3124 -0.3158
  147SOL    HW2  354   5.372   0.585   4.680 -0.4652 -0.3586  0.9718
  147SOL    HW3  355   5.417   0.698   4.770  0.4343  1.4458 -1.6021
  147SOL    MW4  356   5.435   0.638   4.709 -0.0205 -0.7944  0.1658
  148SOL     OW  357   0.862   5.103   2.923  0.5817 -0.2835  0.4893
  148SOL    HW2  358   0.918   5.067   2.855  1.0301  1.0790  0.1071
  148SOL    HW3  359   0.912   5.175   2.960 -1.3019  1.7558 -0.6575
  148SOL    MW4  360   0.876   5.108   2.919 -0.1837 -0.5105 -0.2047
  149SOL     OW  361   1.011   4.696   3.981 -0.2573 -0.8396 -0.1411
  149SOL    HW2  362   1.048   4.703   4.069  1.4083  0.1567 -0.8688
  149SOL    HW3  363   0.952   4.621   3.986  0.6791 -1.5193  1.5235
  149SOL    MW4  364   1.008   4.687   3.993  0.1886 -0.6466 -0.7950
  150SOL     OW  365   4.083   5.025   4.763 -0.5339 -0.1396 -0.2902
  150SOL    HW2  366   4.114   5.030   4.673  0.1498 -2.7213 -0.2604
  150SOL    HW3  367   4.150   5.071   4.814 -0.2479  0.1773 -0.9363
  150SOL    MW4  368   4.096   5.032   4.758  0.0317 -0.3538 -0.1746
  151SOL     OW  369   5.994   1.480   2.221  0.1496  0.2124 -0.1304
  151SOL    HW2  370   5.899   1.479   2.237  0.0769  3.1256  0.2223
  151SOL    HW3  371   6.023   1.563   2.258  2.9194 -0.7056 -0.0444
  151SOL    MW4  372   5.985   1.491   2.228 -0.1582  0.0691 -0.0583
  152SOL     OW  373   3.504   0.691   2.581  0.0168  0.2373  0.3410
  152SOL    HW2  374   3.414   0.678   2.551  0.3933 -1.0625 -0.3368
  152SOL    HW3  375   3.541   0.603   2.583  1.8437  0.8823 -1.2917
  152SOL    MW4  376   3.497   0.678   2.577  0.0213 -0.3846 -0.1086
  153SOL     OW  377   1.881   4.637   5.335 -0.2860  0.0570 -0.2605
  153SOL    HW2  378   1.819   4.653   5.406  0.2415 -0.2437  0.2743
  153SOL    HW3  379   1.830   4.593   5.268 -0.2163 -2.0755  1.0068
  153SOL    MW4  380   1.866   4.634   5.335  0.0719  0.1969  0.3550
  154SOL     OW  381   4.400   4.187   1.528 -0.5021 -0.6617 -0.0468
  154SOL    HW2  382   4.434   4.098   1.527 -0.9077 -0.8347  1.0746
  154SOL    HW3  383   4.477   4.242   1.537 -0.2550 -0.8840 -0.7045
  154SOL    MW4  384   4.414   4.183   1.529 -0.2054  0.5985 -0.3163
  155SOL     OW  385   1.787   2.552   6.320  0.3310  0.5517  0.4202
  155SOL    HW2  386   1.828   2.474   6.357  2.1229  0.4893 -1.4918
  155SOL    HW3  387   1.851   2.622   6.335 -0.6829  1.3848  0.9553
  155SOL    MW4  388   1.801   2.551   6.327 -0.5213  0.7866  0.3790
  156SOL     OW  389   5.452   1.079   4.202 -0.3205  0.3733 -0.2683
  156SOL    HW2  390   5.480   1.022   4.273 -0.4253 -0.0714 -0.5831
  156SOL    HW3  391   5.406   1.022   4.141 -1.1122  0.9279 -0.2083
  156SOL    MW4  392   5.450   1.064   4.204  0.2934  0.5615  1.1564
  157SOL     OW  393   5.179   4.823   0.233 -0.3506  0.1760 -0.1926
  157SOL    HW2  394   5.224   4.824   0.149 -0.7305 -0.7272 -0.4158
  157SOL    HW3  395   5.088   4.804   0.212 -0.7230  1.2779  0.3147
  157SOL    MW4  396   5.173   4.821   0.219  0.8911 -0.2524  0.2050
  158SOL     OW  397   4.788   5.147   3.053  0.1680 -0.8461 -0.2962
  158SOL    HW2  398   4.834   5.103   3.124 -0.3662 -0.2636  0.4305
  158SOL    HW3  399   4.782   5.238   3.082  0.7789 -0.3875 -1.5195
  158SOL    MW4  400   4.794   5.153   3.066 -0.1092  0.3958  0.1343
  159SOL     OW  401   1.522   2.307   1.603 -0.1568  0.1889 -0.2235
  159SOL    HW2  402   1.556   2.218   1.606  0.7641  0.5375  3.0221
  159SOL    HW3  403   1.599   2.363   1.605 -0.7256  0.9992  1.8180
  159SOL    MW4  404   1.536   2.303   1.604 -0.0790  0.3956 -0.3371
  160SOL     OW  405   5.819   2.172   5.011  0.0316  0.7107 -0.2092
  160SOL    HW2  406   5.809   2.082   4.981 -1.0876  0.6772  0.2054
  160SOL    HW3  407   5.866   2.216   4.940 -0.3086  0.0414 -0.8594
  160SOL    MW4  408   5.824   2.166   4.997 -0.2105  0.8902 -0.2479
  161SOL     OW  409   0.221   5.779   2.918  0.3290  0.5261 -0.2486
  161SOL    HW2  410   0.230   5.751   2.827 -0.1683 -0.8666  0.1185
  161SOL    HW3  411   0.257   5.868   2.918 -1.9452  1.5603 -2.3264
  161SOL    MW4  412   0.227   5.787   2.906 -0.0309  0.0724 -0.5732
  162SOL     OW  413   5.462   0.923   0.539  0.4543  0.3125 -0.9490
  162SOL    HW2  414   5.421   0.983   0.476  0.8020  2.1358  0.4880
  162SOL    HW3  415   5.388   0.882   0.584  0.2166  0.5812 -1.0877
  162SOL    MW4  416   5.446   0.925   0.536  0.7831  0.4458  0.0978
  163SOL     OW  417   5.466   3.541   5.787 -0.0569  0.3714  0.1738
  163SOL    HW2  418   5.552   3.504   5.807  0.7991  0.5012 -2.6926
  163SOL    HW3  419   5.473   3.633   5.812  1.7841  1.1169 -2.5504
  163SOL    MW4  420   5.478   3.548   5.793 -0.3897  0.3725 -0.0234
  164SOL     OW  421   1.818   4.357   1.518  0.7706 -0.5336  0.4421
  164SOL    HW2  422   1.809   4.433   1.461  1.7278 -0.8119 -0.1099
  164SOL    HW3  423   1.731   4.318   1.521 -0.1310  1.3684  1.9062
  164SOL    MW4  424   1.806   4.362   1.511 -0.2100 -0.4073 -0.2224
  165SOL     OW  425   2.978   5.979   3.254  0.2899 -0.8913  0.3650
  165SOL    HW2  426   2.971   5.987   3.159  0.1035 -2.5315  0.2082
  165SOL    HW3  427   2.956   6.066   3.288  0.5335 -0.2361 -1.0855
  165SOL    MW4  428   2.974   5.991   3.246  0.2615  0.2165  0.1650
  166SOL     OW  429   5.707   2.810   3.961  0.0281  0.2804  0.2470
  166SOL    HW2  430   5.792   2.767   3.969 -0.7158 -1.4508 -0.5744
  166SOL    HW3  431   5.657   2.752   3.903 -1.8101  1.0876  0.9629
  166SOL    MW4  432   5.712   2.796   3.955 -0.3351  0.0783  0.0530
  167SOL     OW  433   6.209   3.806   3.997  0.6248 -0.1552 -0.0541
  167SOL    HW2  434   6.290   3.818   4.046  0.0597 -0.8842  1.1037
  167SOL    HW3  435   6.144   3.858   4.044  0.1705 -0.4966 -0.2946
  167SOL    MW4  436   6.211   3.814   4.010 -0.5459  0.1061  0.2077
  168SOL     OW  437   3.775   0.104   2.541  0.1296 -0.0091 -0.1451
  168SOL    HW2  438   3.695   0.121   2.591 -0.5723  0.1293 -1.2530
  168SOL    HW3  439   3.758   0.020   2.497  0.8992 -0.3411  0.1683
  168SOL    MW4  440   3.762   0.095   2.542 -0.6562  0.0287  0.1766
  169SOL     OW  441   0.876   4.442   5.275 -0.7614  0.1686  0.3525
  169SOL    HW2  442   0.887   4.352   5.245 -0.1588  0.8181 -1.5196
  169SOL    HW3  443   0.800   4.475   5.227 -0.4175  0.9310  0.3131
  169SOL    MW4  444   0.868   4.435   5.265  0.9246  0.3219 -0.2767
  170SOL     OW  445   0.676   0.252   5.956  0.6354 -0.0291  0.1578
  170SOL    HW2  446   0.608   0.246   5.889 -2.0502  0.9350  2.5970
  170SOL    HW3  447   0.752   0.289   5.910 -1.2292  1.1326 -2.2144
  170SOL    MW4  448   0.677   0.256   5.941 -0.0365  0.6558 -0.1682
  171SOL     OW  449   1.391   2.030   4.466  0.2552 -0.2759 -0.1516
  171SOL    HW2  450   1.298   2.028   4.443  0.3591 -2.2079 -0.5635
  171SOL    HW3  451   1.437   2.025   4.382  0.7292  0.2155  0.0698
  171SOL    MW4  452   1.385   2.029   4.452  0.0535 -0.1795 -0.0112
  172SOL     OW  453   4.492   5.805   0.247  0.1432  0.1624  0.1349
  172SOL    HW2  454   4.580   5.800   0.286  0.8408 -1.2644 -1.4859
  172SOL    HW3  455   4.508   5.829   0.156 -1.2920  1.3171  0.1538
  172SOL    MW4  456   4.506   5.808   0.240  0.5207 -0.1277  0.6330
  173SOL     OW  457   4.439   3.114   0.896  0.5114  0.6405  0.7004
  173SOL    HW2  458   4.465   3.032   0.853  0.8018  1.4880 -0.7946
  173SOL    HW3  459   4.349   3.098   0.926  0.2154  0.0931 -0.4397
  173SOL    MW4  460   4.430   3.101   0.894 -0.2830  0.0827 -0.1058
  174SOL     OW  461   2.175   2.240   0.982  0.4532 -0.7087  0.4441
  174SOL    HW2  462   2.158   2.189   1.061 -1.7427  2.2936  2.0937
  174SOL    HW3  463   2.249   2.295   1.004  0.2367 -0.3083  0.1745
  174SOL    MW4  464   2.182   2.240   0.995 -0.0367 -0.1613 -0.0414
  175SOL     OW  465   3.131   2.293   5.726 -0.0084  0.6590 -0.1089
  175SOL    HW2  466   3.128   2.389   5.725  0.4430  0.6745 -0.2272
  175SOL    HW3  467   3.097   2.266   5.641  0.4601  0.7368 -0.3246
  175SOL    MW4  468   3.126   2.302   5.715 -0.3541 -0.1139  0.3058
  176SOL     OW  469   1.640   2.541   4.551  0.0338  0.2892 -0.2441
  176SOL    HW2  470   1.562   2.535   4.497  0.1923 -0.3947 -0.4059
  176SOL    HW3  471   1.711   2.509   4.495  0.1186 -0.9249  0.5173
  176SOL    MW4  472   1.639   2.536   4.537  0.3841 -0.0928  0.3338
  177SOL     OW  473   6.275   2.979   0.625  0.1388 -0.2001  0.5925
  177SOL    HW2  474   6.220   3.052   0.597  0.1914 -0.3413  0.1098
  177SOL    HW3  475   6.221   2.930   0.686  0.0338  0.1289  0.7680
  177SOL    MW4  476   6.261   2.982   0.630 -0.0438 -0.3174  0.1105
  178SOL     OW  477   1.571   1.863   1.154  0.2347  0.3048 -0.2167
  178SOL    HW2  478   1.647   1.916   1.178 -0.9536  1.5537  1.0428
  178SOL    HW3  479   1.511   1.925   1.112 -1.1931  0.0242  1.2741
  178SOL    MW4  480   1.573   1.878   1.152 -0.6612 -0.7763 -0.0329
  179SOL     OW  481   2.204   5.198   5.925  0.7255 -0.0129 -0.0901
  179SOL    HW2  482   2.280   5.159   5.882  0.4150 -1.9018  0.9438
  179SOL    HW3  483   2.139   5.210   5.855  1.7890  1.2528 -0.9043
  179SOL    MW4  484   2.205   5.194   5.910 -0.2163 -0.3286 -0.2901
  180SOL     OW  485   0.455   0.983   3.379  0.4756 -0.5164 -0.3403
  180SOL    HW2  486   0.396   1.006   3.450 -0.9547  1.3314 -2.0243
  180SOL    HW3  487   0.463   1.063   3.327  1.7335 -1.6981 -2.0820
  180SOL    MW4  488   0.448   0.997   3.381  0.3797  0.3103  0.0928
  181SOL     OW  489   4.857   2.435   4.616 -0.3457 -0.3156  0.0593
  181SOL    HW2  490   4.834   2.465   4.704 -0.0484  0.1792 -0.0292
  181SOL    HW3  491   4.864   2.515   4.564 -0.8001 -0.6207 -0.4857
  181SOL    MW4  492   4.855   2.449   4.620  0.5246  0.4538  0.2222
  182SOL     OW  493   2.783   2.268   4.923 -0.0175 -0.4162  0.3527
  182SOL    HW2  494   2.788   2.350   4.874 -1.1498 -0.2356  0.5060
  182SOL    HW3  495   2.789   2.200   4.856  2.1254 -0.2757  0.3253
  182SOL    MW4  496   2.784   2.270   4.908 -0.3509 -0.6376 -0.2887
  183SOL     OW  497   3.972   1.306   4.967  0.4123  0.1419  0.4472
  183SOL    HW2  498   3.935   1.302   5.055  0.2522 -0.6920  0.3452
  183SOL    HW3  499   3.989   1.215   4.944 -1.1265  0.1820 -1.0529
  183SOL    MW4  500   3.969   1.294   4.976 -0.4784 -0.6075  0.2162
  184SOL     OW  501   0.544   1.363   0.898  0.1449  0.1856  0.2113
  184SOL    HW2  502   0.465   1.311   0.884  0.2841  0.2671 -0.9216
  184SOL    HW3  503   0.615   1.310   0.862  0.6064  0.1739  1.1010
  184SOL    MW4  504   0.543   1.349   0.892  0.2280 -0.4504  0.5644
  185SOL     OW  505   0.122   1.668   1.075 -0.0189  0.4726  0.2156
  185SOL    HW2  506   0.151   1.642   1.162  0.1288  1.3306  0.4333
  185SOL    HW3  507   0.029   1.647   1.073 -0.4274  1.9727  1.2087
  185SOL    MW4  508   0.113   1.662   1.086  0.3599 -0.3809 -0.5391
  186SOL     OW  509   3.489   1.764   2.644 -0.0423  0.3217  0.1124
  186SOL    HW2  510   3.503   1.740   2.552  1.1763  0.8034  0.1455
  186SOL    HW3  511   3.448   1.850   2.640  1.1531  0.9127 -0.0055
  186SOL    MW4  512   3.486   1.772   2.631  0.2147 -0.1768  0.0140
  187SOL     OW  513   5.125   2.734   0.076 -0.4958 -0.3340 -0.4499
  187SOL    HW2  514   5.157   2.651   0.041  2.3891  0.1458  0.7641
  187SOL    HW3  515   5.057   2.709   0.138  1.5595 -2.0252  1.2639
  187SOL    MW4  516   5.120   2.720   0.079  0.5325  0.5880 -0.2066
  188SOL     OW  517   2.235   6.118   0.130 -0.4299  0.5689  0.0336
  188SOL    HW2  518   2.184   6.183   0.082  1.3937  1.2284 -1.1301
  188SOL    HW3  519   2.256   6.051   0.065 -0.1036  0.1397  0.5704
  188SOL    MW4  520   2.231   6.118   0.115  0.2890 -0.1338 -0.0329
  189SOL     OW  521   1.984   5.314   4.379  0.1137  0.0896  0.3505
  189SOL    HW2  522   1.969   5.289   4.470 -0.6471 -1.6955 -0.2305
  189SOL    HW3  523   1.997   5.409   4.382 -1.6888  0.3408  2.1191
  189SOL    MW4  524   1.984   5.323   4.391  0.2819 -0.2659 -0.0246
  190SOL     OW  525   1.917   4.864   5.909  0.5053  0.6119 -0.1151
  190SOL    HW2  526   1.919   4.930   5.977  2.3773  0.1643  0.3205
  190SOL    HW3  527   1.978   4.896   5.842  1.0035 -0.3674 -0.1542
  190SOL    MW4  528   1.925   4.877   5.909  0.5228 -0.0444  0.2660
  191SOL     OW  529   5.560   1.833   0.031  0.8019  0.6070  0.3161
  191SOL    HW2  530   5.632   1.798  -0.021  0.5080 -0.5731  0.6623
  191SOL    HW3  531   5.481   1.803  -0.014  0.4959 -2.2775  2.4746
  191SOL    MW4  532   5.559   1.824   0.018 -0.0683 -0.5841 -0.2656
  192SOL     OW  533   1.305   3.310   6.387 -0.1412  0.9516 -0.0440
  192SOL    HW2  534   1.238   3.377   6.378 -2.3799 -1.0867  0.3892
  192SOL    HW3  535   1.257   3.231   6.411  2.6286 -0.1841  2.4756
  192SOL    MW4  536   1.290   3.308   6.389 -0.1835 -0.3592  0.4126
  193SOL     OW  537   5.626   6.322   4.058 -0.4659  0.3261 -0.2690
  193SOL    HW2  538   5.548   6.371   4.083  0.7308  1.5302  1.3519
  193SOL    HW3  539   5.627   6.247   4.117 -0.5771  0.0967 -0.5527
  193SOL    MW4  540   5.616   6.319   4.069 -0.1248  0.1435 -0.0844
  194SOL     OW  541   5.099   4.078   1.868  0.0964 -0.2519 -0.2764
  194SOL    HW2  542   5.144   4.015   1.810  0.6152  1.4690 -1.8412
  194SOL    HW3  543   5.168   4.112   1.924 -0.1539 -0.9021  0.4509
  194SOL    MW4  544   5.114   4.074   1.868  0.1852 -0.0590  0.3055
  195SOL     OW  545   0.828   0.677   1.180  0.6279  0.1098  0.2122
  195SOL    HW2  546   0.912   0.710   1.148  0.7200 -1.6081 -1.5399
  195SOL    HW3  547   0.764   0.709   1.117  0.2397 -0.1362  0.4745
  195SOL    MW4  548   0.831   0.686   1.167 -0.6462  0.3280 -0.4167
  196SOL     OW  549   1.170   5.768   0.907  0.5329 -0.7609  0.2954
  196SOL    HW2  550   1.124   5.753   0.989 -3.4639  0.1669 -1.5230
  196SOL    HW3  551   1.140   5.698   0.849  2.6932 -1.0020 -0.6290
  196SOL    MW4  552   1.160   5.757   0.910  0.2913  0.2067 -0.1731
  197SOL     OW  553   4.666   1.771   1.625 -0.1513  0.4640  0.1411
  197SOL    HW2  554   4.638   1.680   1.617 -0.3289  0.6788 -2.3541
  197SOL    HW3  555   4.760   1.766   1.641 -0.2761 -0.1417  0.7459
  197SOL    MW4  556   4.675   1.758   1.626 -0.5997  0.1433  0.2753
  198SOL     OW  557   3.337   3.588   1.835 -0.0122  0.0144 -0.3462
  198SOL    HW2  558   3.310   3.679   1.821 -1.5123 -0.3370  0.1094
  198SOL    HW3  559   3.296   3.539   1.764  1.5064 -0.2161 -1.1029
  198SOL    MW4  560   3.328   3.593   1.824  0.6362  0.5856  0.2824
  199SOL     OW  561   4.475   3.101   3.809 -0.2953  0.5719  0.1146
  199SOL    HW2  562   4.559   3.056   3.822 -1.3598 -1.6927 -0.4004
  199SOL    HW3  563   4.487   3.152   3.729  0.5978  0.3509  0.0995
  199SOL    MW4  564   4.488   3.102   3.800 -0.3353 -0.1373 -0.5624
  200SOL     OW  565   5.115   5.759   1.876 -0.5005  0.2043 -0.1230
  200SOL    HW2  566   5.036   5.727   1.920 -0.2092  0.6420  0.7430
  200SOL    HW3  567   5.091   5.846   1.844 -0.4890  0.1778 -0.2040
  200SOL    MW4  568   5.101   5.767   1.877  0.3802  0.0910 -0.6149
  201SOL     OW  569   5.477   2.734   4.469 -0.1491  0.0202 -0.2707
  201SOL    HW2  570   5.455   2.826   4.463  2.2336  0.6223 -0.7656
  201SOL    HW3  571   5.395   2.688   4.451 -1.4691  1.9984  0.3652
  201SOL    MW4  572   5.463   2.740   4.466 -0.3438 -0.7209 -0.2515
  202SOL     OW  573   0.214   2.818   2.559  0.3045 -0.4981 -0.6562
  202SOL    HW2  574   0.161   2.770   2.494 -0.6019  1.4554 -1.4258
  202SOL    HW3  575   0.303   2.812   2.526  0.2024 -1.5508 -0.7828
  202SOL    MW4  576   0.219   2.811   2.546  0.0584  0.2887  0.1017
  203SOL     OW  577   2.072   5.022   0.922 -0.0734  0.1126  0.4413
  203SOL    HW2  578   2.017   4.971   0.862 -1.4741  2.4887 -0.4253
  203SOL    HW3  579   2.140   5.059   0.867 -0.2458  0.7724  0.6658
  203SOL    MW4  580   2.074   5.020   0.907 -0.3356 -0.2385  0.1880
  204SOL     OW  581   4.415   5.133   1.068 -0.4525 -0.0145 -0.3175
  204SOL    HW2  582   4.438   5.100   0.981  2.2062  1.9687 -0.4945
  204SOL    HW3  583   4.348   5.199   1.051  1.5955  1.9720 -1.2716
  204SOL    MW4  584   4.409   5.138   1.054  0.1094 -0.1546  0.8789
  205SOL     OW  585   0.306   2.615   0.073 -0.2413  0.0808 -0.0529
  205SOL    HW2  586   0.270   2.686   0.126  1.9442  1.5772 -0.4712
  205SOL    HW3  587   0.363   2.567   0.133 -1.0283 -0.8355 -0.0055
  205SOL    MW4  588   0.309   2.618   0.088  0.0434  0.1327 -0.1010
  206SOL     OW  589   4.866   4.334   3.263  0.2630 -0.4628  0.2175
  206SOL    HW2  590   4.908   4.376   3.188  1.9666 -0.8404  0.9050
  206SOL    HW3  591   4.801   4.275   3.224  0.5656 -0.0762 -0.9218
  206SOL    MW4  592   4.863   4.332   3.248 -0.3083 -0.0316 -0.4386
  207SOL     OW  593   3.422   2.867   2.721 -0.1000  0.1236 -0.0219
  207SOL    HW2  594   3.397   2.889   2.811  0.1207  1.0606 -0.1831
  207SOL    HW3  595   3.495   2.805   2.731 -1.1844 -1.1274  0.4390
  207SOL    MW4  596   3.429   2.862   2.734  0.4080  0.0574 -0.2408
  208SOL     OW  597   0.810   4.741   2.529 -0.3855 -0.3830  1.1693
  208SOL    HW2  598   0.789   4.675   2.464 -1.6815  0.5731  0.5792
  208SOL    HW3  599   0.750   4.814   2.510  0.9374  0.9374  1.8286
  208SOL    MW4  600   0.799   4.742   2.518 -0.2132 -0.3028 -0.0607
  209SOL     OW  601   4.606   4.768   5.804  0.3386 -0.3216 -0.3716
  209SOL    HW2  602   4.611   4.708   5.878 -0.2069  0.8018  0.6095
  209SOL    HW3  603   4.541   4.729   5.746 -1.3729  0.1501  1.1032
  209SOL    MW4  604   4.598   4.755   5.806  0.1551  0.5498 -0.7522
  210SOL     OW  605   0.930   4.677   0.133  0.4160  0.0796  0.2758
  210SOL    HW2  606   0.919   4.747   0.069 -0.6440 -0.0230  0.3268
  210SOL    HW3  607   0.860   4.615   0.113 -0.1850  0.2313  1.7684
  210SOL    MW4  608   0.920   4.678   0.122  0.1098  0.1606  0.3693
  211SOL     OW  609   1.369   0.731   6.057 -0.2415 -0.0576  0.6831
  211SOL    HW2  610   1.360   0.801   5.992 -0.9794  0.0826  0.9264
  211SOL    HW3  611   1.290   0.737   6.110  1.1628  1.0536  2.8076
  211SOL    MW4  612   1.358   0.741   6.055  0.1470 -0.0126 -0.1417
  212SOL     OW  613   5.218   2.948   5.888 -0.3894  0.4735  0.4742
  212SOL    HW2  614   5.149   3.012   5.905 -2.0655 -1.1281  0.1512
  212SOL    HW3  615   5.215   2.889   5.964  0.8727  0.5721  0.6137
  212SOL    MW4  616   5.208   2.949   5.900 -0.7096  0.4645 -0.0647
  213SOL     OW  617   5.096   0.227   2.250  0.0722 -0.4323 -0.3836
  213SOL    HW2  618   5.139   0.202   2.168  2.0709 -1.6602  0.9614
  213SOL    HW3  619   5.032   0.158   2.266  1.4500 -1.5650  0.3384
  213SOL    MW4  620   5.093   0.215   2.241 -0.5984 -0.0575 -0.3353
  214SOL     OW  621   1.137   5.012   2.696  0.4273  0.0012 -0.0603
  214SOL    HW2  622   1.184   4.960   2.761  0.0994  1.4304  1.3892
  214SOL    HW3  623   1.094   4.947   2.640  0.5952 -1.2931  1.2440
  214SOL    MW4  624   1.137   4.997   2.697 -0.6510 -0.0485  0.1508
  215SOL     OW  625   0.968   4.245   4.771 -0.5096 -0.2316 -0.7302
  215SOL    HW2  626   0.899   4.285   4.823 -0.0318 -0.2828 -0.0458
  215SOL    HW3  627   0.965   4.291   4.687 -0.6909  0.4746 -0.3436
  215SOL    MW4  628   0.959   4.256   4.767 -0.1022 -0.2316  0.3812
  216SOL     OW  629   5.260   5.117   1.216 -0.3678 -0.1121  0.7028
  216SOL    HW2  630   5.211   5.158   1.145 -0.4015  0.3018  0.9629
  216SOL    HW3  631   5.310   5.047   1.174 -0.8810 -0.2821  0.3751
  216SOL    MW4  632   5.261   5.113   1.201  0.1546 -0.1180  0.1182
  217SOL     OW  633   6.279   3.837   0.488 -0.0369  0.2865  0.2092
  217SOL    HW2  634   6.350   3.829   0.424  0.5210  0.6033  0.7870
  217SOL    HW3  635   6.323   3.843   0.572 -0.7758 -0.3783  0.6541
  217SOL    MW4  636   6.294   3.836   0.490 -0.0767  0.7410 -0.1751
  218SOL     OW  637   5.121   0.279   4.372  0.2291  0.1319 -0.3608
  218SOL    HW2  638   5.185   0.342   4.341 -0.1368 -0.1853 -1.8240
  218SOL    HW3  639   5.074   0.325   4.441  1.4714  0.6504  0.1704
  218SOL    MW4  640   5.123   0.293   4.377 -0.5081 -0.2488  0.3142
  219SOL     OW  641   2.674   3.737   4.119 -0.0451 -0.4766  0.2005
  219SOL    HW2  642   2.756   3.768   4.083 -0.2685 -2.0630 -1.8891
  219SOL    HW3  643   2.696   3.655   4.165 -0.1566  0.2483  1.6149
  219SOL    MW4  644   2.688   3.730   4.121  0.0780 -0.2582  0.6087
  220SOL     OW  645   0.520   2.984   1.639 -0.1468  0.4467 -0.7336
  220SOL    HW2  646   0.531   2.897   1.600 -0.2930  0.0004  0.1908
  220SOL    HW3  647   0.573   3.041   1.583 -1.0450 -0.0040 -2.1006
  220SOL    MW4  648   0.529   2.980   1.626 -0.0430  0.3436  0.1472
  221SOL     OW  649   5.944   0.736   1.038  0.1955  0.2524 -0.1231
  221SOL    HW2  650   5.947   0.804   1.106  0.4899  0.7766 -0.6527
  221SOL    HW3  651   5.926   0.783   0.957 -3.0193 -0.6514 -0.0538
  221SOL    MW4  652   5.942   0.751   1.036  0.3058 -1.0379 -0.0605
  222SOL     OW  653   1.340   4.237   5.721  0.2358  0.1201  0.6676
  222SOL    HW2  654   1.417   4.292   5.735  1.4086 -0.8563 -1.3219
  222SOL    HW3  655   1.314   4.208   5.808  2.1219  0.5039  1.4073
  222SOL    MW4  656   1.347   4.241   5.734  0.3666  0.0069 -0.3236
  223SOL     OW  657   1.744   0.243   3.015  0.7525  0.2362  0.1972
  223SOL    HW2  658   1.717   0.178   3.081  0.4471  0.3223  0.1598
  223SOL    HW3  659   1.702   0.213   2.934 -1.3348  1.7491  0.6548
  223SOL    MW4  660   1.735   0.230   3.013  0.2730  0.0143  0.3271
  224SOL     OW  661   4.174   4.683   4.439  0.2150 -0.0541 -0.0991
  224SOL    HW2  662   4.259   4.647   4.416 -0.0649 -3.0391  2.8147
  224SOL    HW3  663   4.194   4.770   4.473  2.1002 -0.6120  0.3388
  224SOL    MW4  664   4.188   4.690   4.441 -0.3504  0.3435 -0.2601
  225SOL     OW  665   2.595   3.588   3.229 -0.3173  0.6137 -0.4525
  225SOL    HW2  666   2.685   3.606   3.257 -0.4658  2.1287 -0.8177
  225SOL    HW3  667   2.557   3.536   3.299  1.0502 -0.6672 -0.6210
  225SOL    MW4  668   2.602   3.584   3.242  0.3780 -0.3699 -0.2685
  226SOL     OW  669   1.959   5.997   3.266  0.4976 -0.0465  0.4276
  226SOL    HW2  670   2.045   5.976   3.303  0.4634 -1.0929 -0.0777
  226SOL    HW3  671   1.898   5.938   3.310  0.5289 -1.7256 -1.6143
  226SOL    MW4  672   1.963   5.987   3.277 -0.0447  0.3493  0.0197
  227SOL     OW  673   3.434   4.068   0.085 -0.5154  0.0990  0.3504
  227SOL    HW2  674   3.523   4.093   0.109 -0.7983  0.8597  0.6229
  227SOL    HW3  675   3.434   3.972   0.090  0.1643  0.1146  0.7686
  227SOL    MW4  676   3.446   4.059   0.088  0.6345 -0.0285  0.7667
  228SOL     OW  677   5.061   4.574   6.106 -0.0046 -0.0252 -0.8349
  228SOL    HW2  678   5.003   4.512   6.062  0.7157 -1.1591 -0.2274
  228SOL    HW3  679   5.004   4.623   6.165 -0.2977 -1.4053  0.0607
  228SOL    MW4  680   5.046   4.572   6.108 -0.5584 -0.1370  0.4298
  229SOL     OW  681   2.881   5.576   1.600 -0.2988 -0.0661 -0.3483
  229SOL    HW2  682   2.954   5.621   1.558  2.2073 -2.0347  1.5518
  229SOL    HW3  683   2.902   5.577   1.693 -2.6676 -0.8701  0.2814
  229SOL    MW4  684   2.893   5.582   1.606  0.0996  0.5975 -0.1122
  230SOL     OW  685   0.025   4.059   0.154 -0.1056 -0.2007 -0.4123
  230SOL    HW2  686   0.072   4.140   0.137 -0.4067 -0.0327 -0.4456
  230SOL    HW3  687  -0.065   4.086   0.174 -0.4153 -0.5690 -1.2461
  230SOL    MW4  688   0.019   4.073   0.154  0.0184 -0.4064 -0.1402
  231SOL     OW  689   5.178   0.388   3.939  0.3561 -0.2939 -0.0390
  231SOL    HW2  690   5.110   0.437   3.893  0.1135  1.4640  2.0135
  231SOL    HW3  691   5.130   0.327   3.995  0.5793 -1.0457 -0.6572
  231SOL    MW4  692   5.163   0.386   3.940  0.1749  0.1927 -0.7228
  232SOL     OW  693   2.239   1.707   1.935  0.0111 -0.5799 -1.0543
  232SOL    HW2  694   2.272   1.779   1.989 -2.0931 -0.8901  0.8261
  232SOL    HW3  695   2.285   1.630   1.968  0.2272 -0.4851 -1.1322
  232SOL    MW4  696   2.249   1.706   1.947 -0.1011  0.4044 -0.0689
  233SOL     OW  697   0.974   0.603   5.036 -0.5441  0.1364 -0.1808
  233SOL    HW2  698   1.004   0.684   4.995 -2.6537  0.6877 -0.7819
  233SOL    HW3  699   0.970   0.623   5.129  0.3246  0.2349 -0.1587
  233SOL    MW4  700   0.977   0.616   5.043  0.5146  0.2905 -0.0760
  234SOL     OW  701   5.007   2.038   5.617  0.5247  0.4107 -0.1936
  234SOL    HW2  702   5.033   1.947   5.604 -0.3265 -0.2475  2.1123
  234SOL    HW3  703   5.033   2.083   5.537  4.1550 -1.1185 -0.0638
  234SOL    MW4  704   5.014   2.032   5.605  0.0791 -0.0923  0.0760
  235SOL     OW  705   0.634   4.039   4.390  0.0738  0.1674  0.2775
  235SOL    HW2  706   0.640   4.079   4.303 -3.1279 -0.3844 -0.3226
  235SOL    HW3  707   0.679   3.955   4.380  0.1468  0.3120 -0.7170
  235SOL    MW4  708   0.641   4.033   4.377  0.3166 -0.1842 -0.8386
  236SOL     OW  709   3.500   2.547   1.217 -0.0205 -0.3034 -1.0758
  236SOL    HW2  710   3.592   2.540   1.242 -0.1236 -0.2678 -0.6778
  236SOL    HW3  711   3.502   2.583   1.128  0.3532 -0.4973 -1.1476
  236SOL    MW4  712   3.512   2.551   1.208 -0.2290  0.4151  0.6981
  237SOL     OW  713   0.837   5.467   2.609 -0.0987 -0.8996  0.3292
  237SOL    HW2  714   0.823   5.374   2.631 -1.4678 -0.3784  1.8942
  237SOL    HW3  715   0.921   5.488   2.649 -0.0151 -1.3573  0.4024
  237SOL    MW4  716   0.846   5.457   2.617  0.4742 -0.0647  0.2300
  238SOL     OW  717   3.288   4.728   5.530 -0.1179  0.4531  0.1563
  238SOL    HW2  718   3.281   4.774   5.447 -1.3679  1.7731  0.9426
  238SOL    HW3  719   3.302   4.797   5.595  3.2811 -0.6969  0.8471
  238SOL    MW4  720   3.289   4.743   5.528 -0.7346 -0.1063 -0.4187
  239SOL     OW  721   2.235   0.442   4.072  0.3182 -0.0789  0.0538
  239SOL    HW2  722   2.197   0.463   4.158  2.1059 -0.1720  0.9131
  239SOL    HW3  723   2.242   0.527   4.029 -1.1568 -0.1007 -0.2768
  239SOL    MW4  724   2.231   0.456   4.078  0.1003  0.3187 -0.1274
  240SOL     OW  725   3.410   4.026   3.232 -0.2596  0.0658  0.1862
  240SOL    HW2  726   3.380   4.046   3.144 -2.4281 -0.2013  0.8037
  240SOL    HW3  727   3.414   4.111   3.276 -1.3203  0.0171  0.4173
  240SOL    MW4  728   3.406   4.040   3.226  0.1674 -0.3124  0.5269
  241SOL     OW  729   3.454   1.187   2.052 -0.3627  0.0439 -0.2993
  241SOL    HW2  730   3.362   1.162   2.062 -0.7618  1.8185  0.9332
  241SOL    HW3  731   3.454   1.251   1.981 -0.3297  1.1578  0.6852
  241SOL    MW4  732   3.442   1.192   2.044  0.2424 -0.2730  0.1861
  242SOL     OW  733   6.415   4.163   1.413  0.4570 -0.0744 -0.6074
  242SOL    HW2  734   6.326   4.179   1.381  0.6357 -0.3188 -1.2470
  242SOL    HW3  735   6.423   4.217   1.492  0.2136  1.0191 -1.3147
  242SOL    MW4  736   6.404   4.172   1.419 -0.1174  0.1281  0.2153
  243SOL     OW  737   4.537   2.618   6.181 -0.3705 -0.3338  0.3251
  243SOL    HW2  738   4.596   2.640   6.254 -0.9737 -2.6047  1.5959
  243SOL    HW3  739   4.595   2.594   6.109  0.2290  0.7045  0.4367
  243SOL    MW4  740   4.552   2.618   6.181  0.1096  0.3310  1.1077
  244SOL     OW  741   6.225   3.431   6.006 -0.2360  0.0764  0.3300
  244SOL    HW2  742   6.278   3.509   5.990  1.1127 -0.7695  0.5177
  244SOL    HW3  743   6.283   3.358   5.984 -1.4581 -0.8856  0.1884
  244SOL    MW4  744   6.239   3.432   6.001 -0.3295 -0.2616  0.3569
  245SOL     OW  745   1.820   5.572   5.674 -0.3249  0.5116  0.1127
  245SOL    HW2  746   1.889   5.561   5.739 -0.1345  1.8798  0.1691
  245SOL    HW3  747   1.799   5.665   5.675 -1.2103  0.3590 -0.8907
  245SOL    MW4  748   1.826   5.583   5.682  0.3242  0.7300  0.5060
  246SOL     OW  749   6.412   1.695   0.029 -0.4462  0.1732  0.2290
  246SOL    HW2  750   6.321   1.718   0.046  0.3111  3.1207  0.7730
  246SOL    HW3  751   6.431   1.732  -0.058  0.6254  0.9734  0.7792
  246SOL    MW4  752   6.402   1.703   0.020 -0.3623  0.5934  0.1437
  247SOL     OW  753   6.249   5.312   5.969  0.0771 -0.0291 -0.1315
  247SOL    HW2  754   6.334   5.276   5.996  0.1148 -0.3051 -0.6172
  247SOL    HW3  755   6.269   5.364   5.892  0.2381  2.1040  1.2633
  247SOL    MW4  756   6.263   5.314   5.963 -0.2032  0.1311 -0.3066
  248SOL     OW  757   0.211   3.443   1.152 -0.2598 -0.5186  0.2984
  248SOL    HW2  758   0.257   3.386   1.089 -2.2806 -1.8321 -0.0730
  248SOL    HW3  759   0.210   3.529   1.111 -1.5347 -1.3478 -1.5297
  248SOL    MW4  760   0.217   3.447   1.138  0.2737  0.0140 -0.5202
  249SOL     OW  761   4.593   5.498   3.331 -0.1019  0.1094 -0.5585
  249SOL    HW2  762   4.556   5.582   3.304  2.3473  1.7616  0.8103
  249SOL    HW3  763   4.655   5.475   3.262 -0.2663 -0.2573 -0.5908
  249SOL    MW4  764   4.596   5.506   3.319  0.1955 -0.2079 -0.1593
  250SOL     OW  765   2.282   6.068   2.241  0.0722 -0.4909  0.4786
  250SOL    HW2  766   2.199   6.115   2.236  0.6252  0.7452  1.8149
  250SOL    HW3  767   2.283   6.031   2.329  0.7511 -0.8310  0.3343
  250SOL    MW4  768   2.271   6.069   2.252 -0.1635  0.0160  0.2848
  251SOL     OW  769   4.417   2.538   4.227 -0.0861 -0.4955  0.0711
  251SOL    HW2  770   4.455   2.550   4.314 -0.9932 -0.7866  0.5267
  251SOL    HW3  771   4.420   2.444   4.212  0.4371 -0.4081 -0.3932
  251SOL    MW4  772   4.422   2.527   4.237  0.4662 -0.0852 -0.3489
  252SOL     OW  773   4.006   1.201   3.757 -0.1996  0.4972 -0.0895
  252SOL    HW2  774   4.089   1.242   3.733 -1.1859  1.8526 -1.2705
  252SOL    HW3  775   3.961   1.186   3.674 -1.3543  0.2170  0.5702
  252SOL    MW4  776   4.011   1.204   3.743  0.6879 -0.0820  0.0283
  253SOL     OW  777   0.795   3.452   4.825 -0.3637 -0.2785  0.3227
  253SOL    HW2  778   0.802   3.490   4.912 -0.1253  0.0176  0.1762
  253SOL    HW3  779   0.752   3.368   4.839  1.0366 -0.9269  0.9139
  253SOL    MW4  780   0.790   3.446   4.838 -0.1424 -0.2586 -0.2105
  254SOL     OW  781   1.319   0.647   2.601 -0.1708  0.0782 -0.4243
  254SOL    HW2  782   1.345   0.563   2.639  0.5279  0.8457  0.8532
  254SOL    HW3  783   1.225   0.636   2.583 -0.3002 -0.6841  0.5650
  254SOL    MW4  784   1.310   0.634   2.604 -0.0599  0.0556 -0.4699
  255SOL     OW  785   4.008   6.474   5.587  0.2929 -0.0104  0.4502
  255SOL    HW2  786   4.064   6.436   5.655  1.7007 -0.6080 -0.9942
  255SOL    HW3  787   3.919   6.459   5.619  0.9054 -0.5507  2.0108
  255SOL    MW4  788   4.003   6.467   5.600 -0.3978  0.0651  0.6445
  256SOL     OW  789   6.390   3.675   3.619  0.8285  1.1095 -0.2381
  256SOL    HW2  790   6.442   3.655   3.697  0.5036  0.3992 -0.1923
  256SOL    HW3  791   6.315   3.725   3.653 -0.4380 -0.9945  0.2552
  256SOL    MW4  792   6.387   3.679   3.634  0.0484  0.1946  0.6691
  257SOL     OW  793   4.303   1.390   1.798  0.3101  0.4750 -0.2210
  257SOL    HW2  794   4.398   1.398   1.785  0.8769 -3.7337 -0.1472
  257SOL    HW3  795   4.275   1.330   1.729 -2.1768  0.8586  0.3664
  257SOL    MW4  796   4.312   1.383   1.787  0.3625 -0.0579 -0.3267
  258SOL     OW  797   5.421   3.023   4.395 -0.3167 -0.0596 -0.3490
  258SOL    HW2  798   5.421   3.060   4.484 -0.4705  1.2777 -0.8765
  258SOL    HW3  799   5.490   3.071   4.350  0.3895 -1.3753 -0.7278
  258SOL    MW4  800   5.430   3.034   4.401  0.6544  0.0230 -0.1493
  259SOL     OW  801   0.610   2.740   0.083  0.1312  0.0453  0.1267
  259SOL    HW2  802   0.600   2.647   0.065  1.4212  0.2427 -1.8142
  259SOL    HW3  803   0.693   2.748   0.129 -0.3158  0.1873  0.9339
  259SOL    MW4  804   0.620   2.729   0.087 -0.2834 -0.3942  0.3167
  260SOL     OW  805   3.784   3.833   0.229  0.0174 -0.1267 -0.1140
  260SOL    HW2  806   3.766   3.832   0.323  0.2681 -0.4256 -0.0666
  260SOL    HW3  807   3.879   3.825   0.223 -0.0586 -0.9343 -0.4051
  260SOL    MW4  808   3.794   3.832   0.241  0.1585 -0.2354 -0.1793
  261SOL     OW  809   1.196   2.513   5.090  0.2127  0.0081 -0.1709
  261SOL    HW2  810   1.292   2.504   5.095  0.1572  0.1072  2.5707
  261SOL    HW3  811   1.181   2.562   5.009  2.5685  0.8959 -0.1522
  261SOL    MW4  812   1.207   2.519   5.080 -0.2152  0.0055  1.1218
  262SOL     OW  813   5.794   5.566   4.568  0.0142  0.0198  0.0107
  262SOL    HW2  814   5.723   5.623   4.599  1.1780  1.3191  0.3862
  262SOL    HW3  815   5.755   5.479   4.566 -1.2810  0.5172  1.2944
  262SOL    MW4  816   5.779   5.562   4.572  0.2631 -0.0426 -0.4196
  263SOL     OW  817   2.217   5.591   5.449  0.3338 -0.2826  0.3794
  263SOL    HW2  818   2.212   5.686   5.460  0.2934 -0.4007  1.4995
  263SOL    HW3  819   2.270   5.579   5.370 -0.9614  0.6773 -0.6791
  263SOL    MW4  820   2.223   5.602   5.440 -0.9029 -0.2213 -0.5234
  264SOL     OW  821   6.375   3.032   2.467  0.2414 -0.0066  0.3786
  264SOL    HW2  822   6.322   2.953   2.476  0.5791 -0.3240 -0.3729
  264SOL    HW3  823   6.429   3.033   2.545  1.8210 -1.7311 -0.6130
  264SOL    MW4  824   6.375   3.022   2.478  0.6435  0.4780 -1.0416
  265SOL     OW  825   3.456   2.312   0.542 -0.3463 -0.3213 -0.3226
  265SOL    HW2  826   3.471   2.229   0.586 -2.0240 -0.2368  0.5148
  265SOL    HW3  827   3.375   2.299   0.492  0.5407  0.1557 -1.9529
  265SOL    MW4  828   3.447   2.300   0.541  0.3606 -0.1272 -0.1963
  266SOL     OW  829   4.268   4.188   2.033 -0.0527  0.5039 -0.0157
  266SOL    HW2  830   4.246   4.206   1.941 -1.2977  0.2427  0.2130
  266SOL    HW3  831   4.345   4.242   2.050 -0.3714  1.2926 -0.9444
  266SOL    MW4  832   4.275   4.197   2.023  0.6417 -0.2418 -0.1410
  267SOL     OW  833   5.524   5.236   0.202  0.3788 -0.1870 -0.4314
  267SOL    HW2  834   5.477   5.270   0.278  2.4036 -0.2583  0.9302
  267SOL    HW3  835   5.456   5.220   0.137 -1.2587  1.2649  0.8259
  267SOL    MW4  836   5.509   5.238   0.203  0.1507  0.3515 -0.0991
  268SOL     OW  837   2.567   3.124   1.569 -0.4936  0.3248 -0.0536
  268SOL    HW2  838   2.571   3.057   1.501 -0.8234  0.1756  0.0715
  268SOL    HW3  839   2.546   3.076   1.649  0.9011  0.3564  0.3651
  268SOL    MW4  840   2.565   3.109   1.571 -0.1307  0.5909  0.0006
  269SOL     OW  841   3.026   0.544   5.937 -0.0688 -0.6644 -0.1390
  269SOL    HW2  842   3.054   0.623   5.891 -1.3684  1.1861  2.0010
  269SOL    HW3  843   3.077   0.473   5.897  0.5055  1.0836 -2.7656
  269SOL    MW4  844   3.037   0.545   5.926  0.4430 -0.0327 -0.6825
  270SOL     OW  845   5.190   6.116   1.155  0.0010  0.0890 -0.0263
  270SOL    HW2  846   5.120   6.144   1.213  1.3530  1.0296  1.2230
  270SOL    HW3  847   5.258   6.183   1.164  0.7964 -0.4132 -1.7310
  270SOL    MW4  848   5.190   6.128   1.164 -0.0723 -0.6125  0.5576
  271SOL     OW  849   1.630   5.405   5.549 -0.0031  0.2703 -0.8412
  271SOL    HW2  850   1.626   5.463   5.473 -0.1873  0.9698 -0.3021
  271SOL    HW3  851   1.682   5.453   5.613 -0.5928  0.0594 -0.1969
  271SOL    MW4  852   1.636   5.419   5.547 -0.4204 -0.0605 -0.1387
  272SOL     OW  853   3.817   0.996   1.873 -0.2037  0.1558  0.7556
  272SOL    HW2  854   3.803   0.909   1.836  1.4523  0.6797 -1.3149
  272SOL    HW3  855   3.868   0.982   1.952  0.4024 -0.7402  0.2131
  272SOL    MW4  856   3.822   0.983   1.878  0.1544 -0.1235 -0.0321
  273SOL     OW  857   1.569   1.085   2.014 -0.5192  0.1108  0.4873
  273SOL    HW2  858   1.562   1.021   2.085  0.2166 -0.2292  0.2595
  273SOL    HW3  859   1.565   1.170   2.059 -0.8297 -0.0940  0.8552
  273SOL    MW4  860   1.567   1.088   2.030  0.3440 -0.2366  0.4626
  274SOL     OW  861   1.074   0.757   1.059 -0.7536  0.0679  0.3971
  274SOL    HW2  862   1.129   0.759   1.138 -1.1466  1.4483  0.6718
  274SOL    HW3  863   1.038   0.846   1.053 -2.5489 -0.6416 -0.0546
  274SOL    MW4  864   1.077   0.769   1.069  0.4790 -0.4205 -0.0174
  275SOL     OW  865   0.820   1.173   6.274 -0.3685  0.1375 -0.0419
  275SOL    HW2  866   0.748   1.150   6.334  0.2270 -1.0598  0.2384
  275SOL    HW3  867   0.888   1.108   6.293  1.4626  2.2174  0.8558
  275SOL    MW4  868   0.819   1.161   6.284 -0.4306 -0.1812 -0.2279
  276SOL     OW  869   3.173   3.298   2.768  0.8312 -0.4277 -0.0131
  276SOL    HW2  870   3.225   3.310   2.847 -0.0855  2.9163  0.2157
  276SOL    HW3  871   3.091   3.260   2.798  0.5692  0.6330  0.6355
  276SOL    MW4  872   3.169   3.294   2.782 -0.4762 -0.0009 -0.2038
  277SOL     OW  873   4.402   2.922   5.839  0.0866  0.1152 -0.1543
  277SOL    HW2  874   4.477   2.947   5.785 -0.3038 -0.2917 -0.8955
  277SOL    HW3  875   4.329   2.973   5.804 -0.0272  0.3728  0.4462
  277SOL    MW4  876   4.403   2.932   5.827 -0.2191  0.1254  0.1449
  278SOL     OW  877   0.367   1.823   5.984 -0.2897  0.0286  0.2425
  278SOL    HW2  878   0.438   1.759   5.974 -0.3333  0.0477 -0.2136
  278SOL    HW3  879   0.384   1.888   5.915 -1.1001 -0.2957 -0.2760
  278SOL    MW4  880   0.379   1.823   5.973 -0.1916 -0.0790 -0.3875
  279SOL     OW  881   6.109   0.845   5.929  0.5934  0.0770 -0.5049
  279SOL    HW2  882   6.065   0.761   5.915  1.5105 -0.8530  1.6499
  279SOL    HW3  883   6.173   0.827   5.998 -0.2068  2.8936  1.1284
  279SOL    MW4  884   6.112   0.832   5.937 -0.0438  0.4497 -0.3665
  280SOL     OW  885   4.956   1.480   1.019 -0.1599 -0.4610 -0.2992
  280SOL    HW2  886   4.884   1.443   1.070 -0.6715 -0.2674 -0.8602
  280SOL    HW3  887   5.022   1.410   1.016 -0.8411 -1.1064 -0.8045
  280SOL    MW4  888   4.955   1.466   1.025  0.2496  0.2471 -0.0585
  281SOL     OW  889   6.099   4.130   5.858 -0.3139  0.3889 -0.5027
  281SOL    HW2  890   6.055   4.138   5.943  0.9023 -2.1624  0.4930
  281SOL    HW3  891   6.182   4.175   5.870  0.5721 -1.3677  0.3017
  281SOL    MW4  892   6.104   4.137   5.871  0.2647  0.2037 -0.1363
  282SOL     OW  893   3.259   2.781   6.013 -0.1717  0.0504 -0.0352
  282SOL    HW2  894   3.271   2.726   6.090 -1.2741 -1.0199 -0.5976
  282SOL    HW3  895   3.170   2.761   5.983  0.4692 -0.0849 -1.9757
  282SOL    MW4  896   3.249   2.771   6.019  0.2615  0.4279 -0.0176
  283SOL     OW  897   3.847   3.699   4.985 -0.3306 -0.0337  0.5662
  283SOL    HW2  898   3.755   3.727   4.985 -0.5088 -0.5073  1.9555
  283SOL    HW3  899   3.881   3.728   4.901 -1.9715 -0.5676 -0.3364
  283SOL    MW4  900   3.839   3.707   4.974 -0.2339  0.0693 -0.2892
  284SOL     OW  901   3.732   2.489   1.010  0.0973 -0.1933  0.0437
  284SOL    HW2  902   3.654   2.545   1.014  0.6853  0.5891  1.0347
  284SOL    HW3  903   3.762   2.497   0.920 -1.5128 -1.2845 -0.6257
  284SOL    MW4  904   3.725   2.498   0.999  0.7646 -0.1719 -0.4860
  285SOL     OW  905   2.424   1.568   4.838 -0.0407 -0.3850  0.1579
  285SOL    HW2  906   2.414   1.495   4.777  0.1646 -1.6448  1.5840
  285SOL    HW3  907   2.502   1.614   4.808  0.6069 -1.5445  0.0069
  285SOL    MW4  908   2.433   1.564   4.826  0.4797 -0.1944  0.1719
  286SOL     OW  909   3.792   5.885   0.242 -0.4757  0.7586 -0.1868
  286SOL    HW2  910   3.706   5.921   0.263 -0.2434  0.1120  2.1921
  286SOL    HW3  911   3.776   5.824   0.170 -1.9669  0.7933  0.0956
  286SOL    MW4  912   3.779   5.882   0.235  0.8203  0.7030 -0.0565
  287SOL     OW  913   1.539   4.596   0.793  0.2793 -0.3601  0.2972
  287SOL    HW2  914   1.491   4.622   0.872 -2.1582 -0.0013 -1.1769
  287SOL    HW3  915   1.588   4.674   0.768 -0.6133  0.2226  0.3222
  287SOL    MW4  916   1.539   4.610   0.800  0.6375 -0.3659 -0.3635
  288SOL     OW  917   0.586   2.332   2.816  0.1211 -0.4210  0.0108
  288SOL    HW2  918   0.621   2.244   2.828  1.0350 -0.3439 -1.6992
  288SOL    HW3  919   0.653   2.390   2.852  1.5973 -0.3034 -2.6650
  288SOL    MW4  920   0.600   2.328   2.822 -0.1042  0.3216  0.3490
  289SOL     OW  921   4.789   2.378   2.705 -0.5338  0.0624  0.1168
  289SOL    HW2  922   4.852   2.403   2.772  1.6076 -1.2503 -1.3119
  289SOL    HW3  923   4.737   2.458   2.690 -1.7604  0.1522  3.8963
  289SOL    MW4  924   4.790   2.392   2.711 -0.6320 -0.7695 -0.2204
  290SOL     OW  925   4.469   2.903   6.123 -0.4650  0.1636  0.4857
  290SOL    HW2  926   4.439   2.813   6.142 -0.8548 -0.1168 -1.3207
  290SOL    HW3  927   4.460   2.912   6.028 -0.1548  2.0337  0.6002
  290SOL    MW4  928   4.464   2.892   6.113 -0.1025  0.2934  0.0377
  291SOL     OW  929   6.116   6.153   3.503  0.3607  0.1712  0.7802
  291SOL    HW2  930   6.148   6.226   3.555  0.9389  2.5758 -2.5903
  291SOL    HW3  931   6.195   6.110   3.470  0.1946  1.4134 -1.4575
  291SOL    MW4  932   6.131   6.157   3.506  0.2547  0.0391 -0.0291
  292SOL     OW  933   2.798   2.726   1.965  0.0083  0.3701  0.1641
  292SOL    HW2  934   2.739   2.669   2.013  0.9105  0.7434  1.7874
  292SOL    HW3  935   2.853   2.767   2.032  2.1719 -0.0141 -1.2549
  292SOL    MW4  936   2.798   2.724   1.980  0.3352  0.3608 -0.4175
  293SOL     OW  937   4.714   2.160   1.807 -0.2245 -0.0412 -0.0267
  293SOL    HW2  938   4.672   2.245   1.818  0.8697  0.6399 -0.8515
  293SOL    HW3  939   4.642   2.098   1.797 -1.0321  0.8319  0.2671
  293SOL    MW4  940   4.699   2.163   1.807  0.1062  0.3742  0.3571
  294SOL     OW  941   2.610   1.588   1.897  0.2996 -0.2934  0.1194
  294SOL    HW2  942   2.555   1.664   1.880 -1.8518 -1.4774  1.4114
  294SOL    HW3  943   2.588   1.561   1.986  2.4869 -1.2667  0.4309
  294SOL    MW4  944   2.600   1.595   1.906  0.2782 -0.4518 -0.6675
  295SOL     OW  945   4.307   4.401   5.606 -0.3825  0.3005  0.2358
  295SOL    HW2  946   4.337   4.404   5.697  1.1946  0.4404 -0.2682
  295SOL    HW3  947   4.227   4.349   5.609  0.0623 -0.3329  1.5948
  295SOL    MW4  948   4.300   4.395   5.618 -0.0902 -0.0404  0.1080
  296SOL     OW  949   1.398   2.528   1.503  0.4876  0.2574 -0.1507
  296SOL    HW2  950   1.318   2.543   1.554 -0.3660 -1.9699 -0.6934
  296SOL    HW3  951   1.434   2.447   1.539  0.7484 -0.4786 -1.9633
  296SOL    MW4  952   1.392   2.519   1.514  0.0522  0.3588 -0.0689
  297SOL     OW  953   2.323   1.363   2.703 -0.5707 -0.7004 -0.4375
  297SOL    HW2  954   2.313   1.270   2.725  0.8604 -0.9347 -0.7179
  297SOL    HW3  955   2.368   1.363   2.618  1.2436  0.2395  0.4685
  297SOL    MW4  956   2.327   1.350   2.694 -0.2462  0.4507 -0.1738
  298SOL     OW  957   6.314   3.691   5.064  0.3254 -0.2024  0.5341
  298SOL    HW2  958   6.349   3.648   5.142  0.5877 -0.7571  0.1208
  298SOL    HW3  959   6.391   3.723   5.018  0.1009  1.2257  1.1148
  298SOL    MW4  960   6.329   3.689   5.068  0.3104  0.0261 -0.0222
  299SOL     OW  961   2.537   4.207   3.745  0.2690 -0.3370 -0.5288
  299SOL    HW2  962   2.630   4.186   3.740  0.4109  0.5074 -4.2780
  299SOL    HW3  963   2.493   4.122   3.748  1.1130 -0.7691 -0.1444
  299SOL    MW4  964   2.544   4.193   3.744  0.3239 -0.2846 -0.1547
  300SOL     OW  965   0.657   0.761   0.996  0.0093  0.1541 -0.3021
  300SOL    HW2  966   0.587   0.788   1.055 -0.9558 -1.9174 -0.4141
  300SOL    HW3  967   0.642   0.811   0.916  0.0412  1.3838  0.4307
  300SOL    MW4  968   0.646   0.771   0.993  0.3145  0.1759 -0.3244
  301SOL     OW  969   5.191   2.423   5.045 -0.7943  0.1829 -0.4072
  301SOL    HW2  970   5.239   2.489   4.995  0.3445 -0.1011  0.2652
  301SOL    HW3  971   5.170   2.466   5.128  0.3097 -0.3900  0.1982
  301SOL    MW4  972   5.194   2.437   5.050 -0.0948 -0.6309  0.6295
  302SOL     OW  973   0.745   2.570   2.434 -0.7211 -0.0564 -0.3788
  302SOL    HW2  974   0.661   2.593   2.393 -1.1987 -1.3496 -0.1837
  302SOL    HW3  975   0.811   2.593   2.369 -1.0369  2.7141  0.1626
  302SOL    MW4  976   0.742   2.576   2.420  0.8513  0.2217 -0.3655
  303SOL     OW  977   6.319   0.343   3.848 -0.6385  0.2854  0.2990
  303SOL    HW2  978   6.225   0.364   3.841 -0.8676 -0.0310  2.1204
  303SOL    HW3  979   6.346   0.382   3.931  0.3803 -1.3047  0.7504
  303SOL    MW4  980   6.310   0.351   3.858 -0.1785  0.4170 -0.3434
  304SOL     OW  981   0.460   5.741   1.318  0.0899  0.1482 -0.1780
  304SOL    HW2  982   0.379   5.743   1.268  0.1662  1.7288 -0.2813
  304SOL    HW3  983   0.435   5.710   1.405 -0.6524  0.7434 -0.1745
  304SOL    MW4  984   0.446   5.737   1.323 -0.0926  0.8037 -0.0832
  305SOL     OW  985   5.534   2.034   2.255 -0.3238  0.2234 -0.0871
  305SOL    HW2  986   5.548   2.104   2.319 -0.1733 -0.4803  0.6669
  305SOL    HW3  987   5.489   2.077   2.182  0.4944  1.2790 -0.0005
  305SOL    MW4  988   5.530   2.049   2.254  0.1686 -0.0371 -0.2615
  306SOL     OW  989   2.880   1.475   1.042  0.1391 -0.1693  0.8799
  306SOL    HW2  990   2.854   1.458   0.951 -0.0691 -0.0769  0.9193
  306SOL    HW3  991   2.909   1.390   1.075 -2.1260 -0.7877  1.4735
  306SOL    MW4  992   2.880   1.462   1.034 -0.5079  0.0525  0.2625
  307SOL     OW  993   4.028   4.964   2.724 -0.8801 -0.0201 -0.1781
  307SOL    HW2  994   3.953   4.982   2.666 -3.0877 -2.1433  1.7866
  307SOL    HW3  995   4.036   4.869   2.723  0.6347  0.0644  1.0920
  307SOL    MW4  996   4.019   4.954   2.716  0.2077 -0.0040  0.1168
  308SOL     OW  997   3.558   1.014   1.335 -0.2851  0.4927 -0.3088
  308SOL    HW2  998   3.526   0.998   1.246  0.5604 -0.5147 -0.4581
  308SOL    HW3  999   3.598   1.101   1.330 -0.3944  0.5184 -0.8776
  308SOL    MW4 1000   3.559   1.023   1.322 -0.2748 -0.3861  0.1331
  309SOL     OW 1001   5.072   1.068   3.967 -0.0880 -0.0995 -0.4530
  309SOL    HW2 1002   5.082   1.139   3.904 -0.7379 -0.1513 -0.6225
  309SOL    HW3 1003   5.161   1.035   3.980  0.5161  1.9135  1.0375
  309SOL    MW4 1004   5.085   1.073   3.960 -0.1282 -0.0629 -0.4254
  310SOL     OW 1005   2.462   0.254   5.520 -0.6130 -0.1962  0.1690
  310SOL    HW2 1006   2.533   0.195   5.494 -0.8268 -0.1778 -0.4857
  310SOL    HW3 1007   2.394   0.240   5.454 -0.0758  1.8607 -0.8880
  310SOL    MW4 1008   2.462   0.244   5.508 -0.2677 -0.3244 -0.2039
  311SOL     OW 1009   4.553   2.467   3.525 -0.2388 -0.3448  0.3388
  311SOL    HW2 1010   4.504   2.480   3.607  1.3944  3.0005  0.9498
  311SOL    HW3 1011   4.495   2.504   3.457 -0.2260 -0.0938  0.4643
  311SOL    MW4 1012   4.539   2.474   3.527  0.9040  0.4692  0.2594
  312SOL     OW 1013   3.464   6.352   1.985  0.9159 -0.4648 -0.3766
  312SOL    HW2 1014   3.452   6.389   1.898 -0.0408 -1.5133 -0.6996
  312SOL    HW3 1015   3.379   6.317   2.009  1.6436 -2.0108  0.1233
  312SOL    MW4 1016   3.451   6.352   1.977  0.2403  0.2258 -0.0840
  313SOL     OW 1017   2.912   5.015   5.518  0.1754  0.0961  0.0033
  313SOL    HW2 1018   2.965   4.943   5.552  0.2734 -0.1688 -0.7005
  313SOL    HW3 1019   2.975   5.080   5.489  0.0917  0.3097  0.2923
  313SOL    MW4 1020   2.927   5.014   5.518  0.1384 -0.2476 -0.2671
  314SOL     OW 1021   2.993   2.558   2.675 -0.3883  0.1640  0.2780
  314SOL    HW2 1022   3.048   2.593   2.745  0.0216 -1.0163  0.5706
  314SOL    HW3 1023   2.954   2.479   2.712 -1.5223  0.4517 -0.2641
  314SOL    MW4 1024   2.995   2.552   2.689 -0.1466  0.3903  0.2421
  315SOL     OW 1025   3.965   5.343   2.744  0.4412  0.7522 -0.4716
  315SOL    HW2 1026   3.878   5.306   2.738 -0.1136  1.8807  0.2748
  315SOL    HW3 1027   3.982   5.379   2.657  0.0795  0.7029 -0.5634
  315SOL    MW4 1028   3.956   5.343   2.732  0.2244  0.1436  0.6214
  316SOL     OW 1029   6.049   0.588   0.347 -0.4785  0.3655  0.1868
  316SOL    HW2 1030   6.004   0.590   0.263  0.5412 -1.1071 -0.4491
  316SOL    HW3 1031   5.979   0.596   0.412 -1.3468  0.9083 -0.7821
  316SOL    MW4 1032   6.034   0.589   0.345 -0.1046  0.3566 -0.1035
  317SOL     OW 1033   4.785   1.989   3.025  0.4840  0.2797  0.3990
  317SOL    HW2 1034   4.759   1.948   3.107  0.7474 -0.2044  0.2431
  317SOL    HW3 1035   4.844   1.925   2.984 -0.0003  0.3284 -0.3791
  317SOL    MW4 1036   4.790   1.975   3.030  0.5423  0.4405 -0.4753
  318SOL     OW 1037   0.881   2.125   3.540  0.0609 -0.2591 -0.4798
  318SOL    HW2 1038   0.931   2.180   3.479  0.6424 -1.4281 -1.0975
  318SOL    HW3 1039   0.800   2.174   3.556  0.3881  0.5852 -1.3149
  318SOL    MW4 1040   0.877   2.139   3.534 -0.4087  0.0342  0.3697
  319SOL     OW 1041   4.522   2.200   0.172 -0.4287  0.0994  0.1946
  319SOL    HW2 1042   4.538   2.147   0.094 -1.0322  0.3766 -0.1202
  319SOL    HW3 1043   4.527   2.290   0.142  2.3018  0.3416  1.0411
  319SOL    MW4 1044   4.525   2.205   0.158 -0.0598 -0.5499 -0.3122
  320SOL     OW 1045   5.231   4.566   3.841  0.0209 -0.0859  0.5656
  320SOL    HW2 1046   5.151   4.612   3.813 -0.3218 -0.2804  1.2130
  320SOL    HW3 1047   5.284   4.562   3.761 -0.1461  0.9900  0.3809
  320SOL    MW4 1048   5.227   4.571   3.827 -0.2692  0.4808  0.0386
  321SOL     OW 1049   5.553   1.677   5.339  0.4681  0.3601  0.3249
  321SOL    HW2 1050   5.613   1.682   5.413 -0.2265  1.0912  0.8405
  321SOL    HW3 1051   5.539   1.768   5.313  1.4234  0.0872 -1.2986
  321SOL    MW4 1052   5.559   1.689   5.345  0.7317 -0.5674  0.2635
  322SOL     OW 1053   0.351   0.902   6.204  0.1664 -0.4432  0.3691
  322SOL    HW2 1054   0.430   0.861   6.171 -1.1494 -2.5106 -0.4080
  322SOL    HW3 1055   0.318   0.842   6.271 -0.2917  0.8370  1.3645
  322SOL    MW4 1056   0.357   0.889   6.209  0.2272  0.0009 -0.3600
  323SOL     OW 1057   3.081   0.936   4.346 -0.3686 -0.2461  0.0687
  323SOL    HW2 1058   3.050   0.848   4.326 -0.5342 -0.3291  0.6548
  323SOL    HW3 1059   3.176   0.927   4.354 -0.4029 -0.4054  0.2972
  323SOL    MW4 1060   3.089   0.923   4.345 -0.5275  0.3349 -0.1854
  324SOL     OW 1061   3.295   3.894   6.256  0.0206  0.3473  0.5414
  324SOL    HW2 1062   3.263   3.980   6.228  1.5359  0.4039 -1.1877
  324SOL    HW3 1063   3.356   3.868   6.188 -1.3877 -2.7598  0.3063
  324SOL    MW4 1064   3.299   3.902   6.244  0.1433 -0.9521  0.2169
  325SOL     OW 1065   4.231   2.948   4.414 -0.0687 -0.1591 -1.0278
  325SOL    HW2 1066   4.209   2.977   4.503  1.4281 -1.6290 -0.1182
  325SOL    HW3 1067   4.152   2.903   4.384 -0.2319 -0.6079  0.0121
  325SOL    MW4 1068   4.218   2.945   4.422 -0.1502  0.2399  0.1127
  326SOL     OW 1069   2.577   5.815   0.729  0.5765 -0.1459  0.3729
  326SOL    HW2 1070   2.539   5.898   0.759 -1.8332  0.7523 -4.1782
  326SOL    HW3 1071   2.549   5.751   0.794 -2.9900  1.6845  0.8962
  326SOL    MW4 1072   2.568   5.818   0.741 -0.1326 -0.4465  0.3491
  327SOL     OW 1073   5.391   2.393   2.198  0.4028  0.0252  0.0530
  327SOL    HW2 1074   5.312   2.361   2.156  0.3067 -1.5057  1.3277
  327SOL    HW3 1075   5.361   2.462   2.257 -0.0141 -0.6533  0.6426
  327SOL    MW4 1076   5.377   2.398   2.200  0.4235 -0.7904 -0.5777
  328SOL     OW 1077   3.945   4.817   1.754  0.1645  0.2037  0.4630
  328SOL    HW2 1078   4.005   4.767   1.809  0.7323 -2.2298 -2.1099
  328SOL    HW3 1079   3.862   4.769   1.759  0.1630  0.0767 -0.5518
  328SOL    MW4 1080   3.942   4.804   1.762 -0.5087  0.3710  0.1713
  329SOL     OW 1081   1.244   4.123   4.827 -0.1918  0.0146 -0.1073
  329SOL    HW2 1082   1.206   4.200   4.870 -0.7681  0.2933 -1.0808
  329SOL    HW3 1083   1.204   4.122   4.740  2.3879  0.5958 -1.3801
  329SOL    MW4 1084   1.233   4.133   4.821 -0.1950  0.6253  0.4088
  330SOL     OW 1085   0.011   2.609   2.527  0.2151 -0.0564 -0.7720
  330SOL    HW2 1086  -0.071   2.643   2.492 -0.1286 -0.7560 -0.6655
  330SOL    HW3 1087   0.010   2.634   2.620  0.0057 -0.2672 -0.7154
  330SOL    MW4 1088   0.000   2.616   2.535 -0.5944  0.3852 -0.2435
  331SOL     OW 1089   2.453   0.642   5.555 -0.6526 -0.3533 -0.1626
  331SOL    HW2 1090   2.384   0.707   5.557 -0.2265  0.1010  1.5937
  331SOL    HW3 1091   2.436   0.591   5.476 -0.9862  1.8642 -1.6039
  331SOL    MW4 1092   2.442   0.644   5.545 -0.8888 -0.3328 -0.7964
  332SOL     OW 1093   1.929   0.613   3.573  0.5600 -0.3498  0.1175
  332SOL    HW2 1094   1.947   0.556   3.498 -0.7265 -0.5906 -0.0352
  332SOL    HW3 1095   1.932   0.554   3.649 -0.9158 -0.6910 -0.0548
  332SOL    MW4 1096   1.932   0.597   3.573  0.0420 -1.3667  0.2456
  333SOL     OW 1097   2.240   1.671   1.319 -0.0189 -0.3830  0.2812
  333SOL    HW2 1098   2.216   1.625   1.399  0.5427 -1.4507 -0.1289
  333SOL    HW3 1099   2.189   1.751   1.320 -0.1899 -0.4895  1.5872
  333SOL    MW4 1100   2.230   1.675   1.329 -0.3822  0.7695  0.3143
  334SOL     OW 1101   3.496   2.016   4.193 -0.2789  0.1227 -0.5934
  334SOL    HW2 1102   3.574   2.071   4.188 -0.2872  0.2518  0.3651
  334SOL    HW3 1103   3.448   2.051   4.268 -0.2473 -1.2257  0.0908
  334SOL    MW4 1104   3.500   2.028   4.202 -0.5814 -0.3950 -0.1758
  335SOL     OW 1105   4.572   6.404   1.197 -0.5544  0.4396 -0.0772
  335SOL    HW2 1106   4.564   6.315   1.230  0.4401 -0.3449 -1.8252
  335SOL    HW3 1107   4.491   6.447   1.226 -1.7439 -1.4394 -0.4009
  335SOL    MW4 1108   4.560   6.398   1.205 -0.1113  0.3420  0.0132
  336SOL     OW 1109   2.865   5.383   5.297  0.0736 -0.0842  0.4280
  336SOL    HW2 1110   2.821   5.448   5.244 -0.9633 -1.5708 -0.6221
  336SOL    HW3 1111   2.940   5.355   5.244 -0.0536 -0.4341  0.4257
  336SOL    MW4 1112   2.869   5.388   5.283 -0.3472  0.4645 -0.2983
  337SOL     OW 1113   4.532   3.576   1.617 -0.1271  0.3127 -0.3485
  337SOL    HW2 1114   4.595   3.645   1.633 -0.5018  0.5603  0.0811
  337SOL    HW3 1115   4.528   3.526   1.699 -0.5681  0.3675 -0.3329
  337SOL    MW4 1116   4.540   3.578   1.630 -0.0585  0.0660  0.0323
  338SOL     OW 1117   5.962   2.196   6.384 -0.8079  0.2015  0.0295
  338SOL    HW2 1118   6.007   2.225   6.305 -0.8206  0.7192  0.2109
  338SOL    HW3 1119   5.934   2.107   6.364 -0.4462  0.1781 -0.3967
  338SOL    MW4 1120   5.964   2.188   6.371 -0.0005 -0.2810  0.1736
  339SOL     OW 1121   3.724   0.575   0.675  0.2499  1.1143 -0.1005
  339SOL    HW2 1122   3.730   0.483   0.651 -1.9585  0.5821  1.1415
  339SOL    HW3 1123   3.783   0.620   0.613  2.2170 -1.1895 -0.0315
  339SOL    MW4 1124   3.733   0.569   0.664  0.5993 -0.2259  0.4145
  340SOL     OW 1125   6.115   2.297   4.063  0.4007  0.1290  0.1158
  340SOL    HW2 1126   6.095   2.349   3.986  0.3698  1.1800  0.8187
  340SOL    HW3 1127   6.049   2.228   4.063  0.3282  0.1831 -0.7169
  340SOL    MW4 1128   6.104   2.295   4.053  0.9315 -0.2887 -0.0708
  341SOL     OW 1129   0.150   6.067   5.834  0.2903 -0.3410 -0.4700
  341SOL    HW2 1130   0.118   5.978   5.817 -0.2339 -0.0485 -1.0070
  341SOL    HW3 1131   0.157   6.071   5.930 -1.0758 -0.4844 -0.3416
  341SOL    MW4 1132   0.147   6.055   5.845 -0.4608 -0.2697 -0.1774
  342SOL     OW 1133  -0.001   2.442   3.472 -0.3183 -0.1046 -0.2664
  342SOL    HW2 1134   0.063   2.476   3.535  0.3886  1.7715 -1.8920
  342SOL    HW3 1135   0.034   2.356   3.447  1.3656  0.6695 -0.7386
  342SOL    MW4 1136   0.012   2.435   3.477 -0.1730 -0.4190 -0.6421
  343SOL     OW 1137   4.823   4.259   1.783 -0.0797  0.0730  0.1428
  343SOL    HW2 1138   4.736   4.287   1.813  0.1194 -0.8847  1.7953
  343SOL    HW3 1139   4.878   4.264   1.862  0.2946 -3.4243  0.2758
  343SOL    MW4 1140   4.819   4.263   1.798  0.1966  0.3560 -0.3126
  344SOL     OW 1141   5.249   4.701   4.100 -0.0424 -0.0770 -0.4426
  344SOL    HW2 1142   5.235   4.682   4.008  1.0937  1.8917 -1.1021
  344SOL    HW3 1143   5.170   4.670   4.144 -1.7397  1.1712 -2.4245
  344SOL    MW4 1144   5.237   4.695   4.094 -0.2593 -0.0356  0.5408
  345SOL     OW 1145   0.509   3.052   3.112 -0.0746  0.0435 -0.4048
  345SOL    HW2 1146   0.413   3.045   3.111 -0.2837  2.1776  0.2149
  345SOL    HW3 1147   0.538   2.975   3.160 -1.5557 -0.0572  0.3798
  345SOL    MW4 1148   0.500   3.041   3.118  0.0239  0.2263 -0.2990
  346SOL     OW 1149   5.152   1.816   4.182 -0.4126 -0.1891 -0.7205
  346SOL    HW2 1150   5.070   1.768   4.193  0.1319 -1.0172 -0.1793
  346SOL    HW3 1151   5.188   1.823   4.270  1.4482 -2.3027 -1.2046
  346SOL    MW4 1152   5.146   1.811   4.195  0.1080 -0.0996  0.2533
  347SOL     OW 1153   1.415   5.265   2.585 -0.2000 -0.1819  0.3981
  347SOL    HW2 1154   1.431   5.267   2.679  1.4299 -0.5103  0.1577
  347SOL    HW3 1155   1.372   5.180   2.570 -1.8477  0.5157  1.0125
  347SOL    MW4 1156   1.412   5.254   2.595  0.0147  0.0206  0.5618
  348SOL     OW 1157   4.032   6.459   6.322  0.1027 -0.3794 -0.2427
  348SOL    HW2 1158   3.942   6.457   6.289  0.1784  1.0362 -0.5566
  348SOL    HW3 1159   4.051   6.367   6.341 -0.9132 -0.8874 -1.4887
  348SOL    MW4 1160   4.022   6.446   6.320  0.5179  0.0400 -0.3625
  349SOL     OW 1161   1.945   5.406   2.885  0.1152  0.1783  0.4839
  349SOL    HW2 1162   1.851   5.410   2.899  0.0805  1.5487  0.0602
  349SOL    HW3 1163   1.974   5.330   2.935 -1.4704 -1.4672 -1.0008
  349SOL    MW4 1164   1.937   5.397   2.894  0.4379 -0.3566 -0.0846
  350SOL     OW 1165   1.390   4.828   3.646 -0.0800 -0.2547 -0.4286
  350SOL    HW2 1166   1.367   4.852   3.556 -0.5678 -0.0580 -0.2572
  350SOL    HW3 1167   1.328   4.758   3.667  0.2202 -0.4939 -0.3420
  350SOL    MW4 1168   1.379   4.822   3.637  0.2088  0.2057 -0.1006
  351SOL     OW 1169   4.912   2.739   0.281  0.4665  0.1891 -0.3002
  351SOL    HW2 1170   4.891   2.829   0.257 -2.1989 -0.3930 -0.5105
  351SOL    HW3 1171   4.865   2.724   0.363  0.4599 -1.1226 -0.5154
  351SOL    MW4 1172   4.903   2.749   0.288  0.8431  0.1662  0.1959
  352SOL     OW 1173   2.041   6.147   3.996  0.5801 -0.5548  0.4698
  352SOL    HW2 1174   2.021   6.060   4.030 -0.2050 -0.5187  0.1125
  352SOL    HW3 1175   2.136   6.147   3.986  0.5773 -1.4209  0.3554
  352SOL    MW4 1176   2.051   6.135   3.999  0.0761  0.5863 -0.6618
  353SOL     OW 1177   2.547   2.764   4.254  0.3779 -0.4220 -0.1444
  353SOL    HW2 1178   2.486   2.802   4.317  0.7809 -0.7215  0.4371
  353SOL    HW3 1179   2.584   2.688   4.299  1.0164 -0.3762 -0.5680
  353SOL    MW4 1180   2.544   2.759   4.268  0.0031  0.6772 -0.2538
  354SOL     OW 1181   5.760   2.375   2.662  0.4832  0.0799  0.0953
  354SOL    HW2 1182   5.788   2.366   2.571  0.1710 -2.1564  0.1632
  354SOL    HW3 1183   5.687   2.437   2.660  1.1572  0.8613 -1.0046
  354SOL    MW4 1184   5.754   2.382   2.650  0.3487  0.6470  0.3737
  355SOL     OW 1185   4.539   4.553   1.615  0.4758 -0.0905  0.0641
  355SOL    HW2 1186   4.486   4.556   1.535  0.8262  0.9476 -0.1478
  355SOL    HW3 1187   4.523   4.466   1.652  1.2148 -1.0612 -1.7573
  355SOL    MW4 1188   4.530   4.542   1.609  0.2918 -0.0359  0.5990
  356SOL     OW 1189   1.900   2.752   2.186  0.1783 -0.1748 -0.5717
  356SOL    HW2 1190   1.826   2.715   2.138  0.4331 -2.3465  0.5892
  356SOL    HW3 1191   1.903   2.843   2.159 -3.1786  0.1050 -0.3597
  356SOL    MW4 1192   1.891   2.759   2.176 -0.1486 -0.1926  0.5688
  357SOL     OW 1193   2.088   0.753   5.246 -0.1021 -0.1004 -0.0302
  357SOL    HW2 1194   2.063   0.764   5.338  0.2880 -0.0994  0.0744
  357SOL    HW3 1195   2.132   0.835   5.223  2.7003 -1.2781  0.7184
  357SOL    MW4 1196   2.090   0.765   5.255  0.1959 -0.0750 -0.0650
  358SOL     OW 1197   0.703   0.686   5.006 -0.4211  0.4628  0.1265
  358SOL    HW2 1198   0.790   0.659   5.035 -0.9684 -0.7721  0.6909
  358SOL    HW3 1199   0.691   0.773   5.044  0.1676  0.2129  0.9153
  358SOL    MW4 1200   0.713   0.694   5.015 -0.0493 -0.4157  0.6188
  359SOL     OW 1201   1.172   5.707   2.379 -0.2493 -0.4019 -0.4446
  359SOL    HW2 1202   1.173   5.671   2.290  0.3735 -0.8062 -0.2847
  359SOL    HW3 1203   1.250   5.670   2.420  0.0733  0.6566 -0.0768
  359SOL    MW4 1204   1.182   5.697   2.372  0.1339 -0.0150  0.4591
  360SOL     OW 1205   5.443   4.476   5.773  0.0524 -0.4249  0.2062
  360SOL    HW2 1206   5.390   4.422   5.714 -1.0551  0.8045  0.0099
  360SOL    HW3 1207   5.405   4.462   5.860 -1.1500  1.0193 -0.0391
  360SOL    MW4 1208   5.431   4.467   5.777  0.0469  0.4541 -0.4349
  361SOL     OW 1209   0.749   2.184   0.075 -0.2495  0.4968  0.1480
  361SOL    HW2 1210   0.697   2.147   0.146  1.0005 -2.3218 -0.2787
  361SOL    HW3 1211   0.689   2.190   0.001 -0.2416 -1.9978 -0.1272
  361SOL    MW4 1212   0.734   2.180   0.074  0.3466  0.0780  0.0046
  362SOL     OW 1213   2.304   5.757   1.167  0.0880  0.2669 -0.4779
  362SOL    HW2 1214   2.261   5.756   1.253 -0.1685  1.2168 -0.5810
  362SOL    HW3 1215   2.319   5.850   1.149  1.4937 -0.0051 -0.8034
  362SOL    MW4 1216   2.300   5.769   1.176  0.2643 -0.2583 -0.0516
  363SOL     OW 1217   1.365   2.638   4.658  0.1967 -0.2386 -0.1587
  363SOL    HW2 1218   1.371   2.712   4.598 -1.0754  1.1913  1.3994
  363SOL    HW3 1219   1.455   2.626   4.690  0.6091 -0.0916 -1.2122
  363SOL    MW4 1220   1.378   2.646   4.654 -0.1001 -0.0939  0.1000
  364SOL     OW 1221   2.264   4.382   5.371 -0.1899  0.1546  0.4383
  364SOL    HW2 1222   2.317   4.372   5.450 -2.7904 -0.2561  2.2638
  364SOL    HW3 1223   2.257   4.294   5.335  0.6053  0.2688 -0.0312
  364SOL    MW4 1224   2.270   4.369   5.376 -0.2334  0.6884  0.0990
  365SOL     OW 1225   0.886   2.777   3.797 -0.2244  0.0736 -0.1618
  365SOL    HW2 1226   0.961   2.766   3.855 -0.9092  0.1755  0.7821
  365SOL    HW3 1227   0.882   2.870   3.778  2.6059 -0.3640 -4.0580
  365SOL    MW4 1228   0.895   2.788   3.802  0.2291 -0.4654 -0.2749
  366SOL     OW 1229   3.594   3.484   2.360  0.1158 -0.3896 -0.3782
  366SOL    HW2 1230   3.530   3.434   2.410 -0.7665  2.2331  1.3051
  366SOL    HW3 1231   3.544   3.525   2.290  0.7688 -1.5070 -1.5428
  366SOL    MW4 1232   3.579   3.483   2.357 -0.6141 -0.3245  0.2668
  367SOL     OW 1233   1.267   0.774   5.140  0.5856  0.4346 -0.1863
  367SOL    HW2 1234   1.193   0.789   5.080 -0.2066  1.4598  0.9920
  367SOL    HW3 1235   1.291   0.861   5.171  2.3678  0.1209 -0.5945
  367SOL    MW4 1236   1.260   0.787   5.136  0.0288  0.1145 -0.2878
  368SOL     OW 1237   3.386   4.300   5.940  0.0131  0.5094  0.6272
  368SOL    HW2 1238   3.389   4.366   5.872 -0.0803 -1.3385 -1.2652
  368SOL    HW3 1239   3.304   4.315   5.986 -0.0416  1.6266  0.1762
  368SOL    MW4 1240   3.376   4.310   5.937 -0.3940  0.2692  0.0800
  369SOL     OW 1241   0.182   0.236   0.921  0.3910 -0.1965  0.0405
  369SOL    HW2 1242   0.273   0.207   0.933  0.6785  0.4417 -0.5943
  369SOL    HW3 1243   0.174   0.313   0.978 -0.3096 -1.3196  1.5456
  369SOL    MW4 1244   0.193   0.242   0.930  0.0095 -0.0009  0.1058
  370SOL     OW 1245   0.121   1.651   3.522 -0.0605  0.6061  0.0276
  370SOL    HW2 1246   0.187   1.582   3.533  0.8204  1.5097  0.5831
  370SOL    HW3 1247   0.130   1.706   3.600 -2.2863  0.1155  0.7145
  370SOL    MW4 1248   0.131   1.649   3.534  0.4407 -0.0657 -0.1027
  371SOL     OW 1249   0.733   2.034   5.880 -0.9541  0.5792 -0.1146
  371SOL    HW2 1250   0.730   1.945   5.844 -1.3021  1.1560 -1.5933
  371SOL    HW3 1251   0.821   2.042   5.915 -0.9919 -0.4186  0.2673
  371SOL    MW4 1252   0.744   2.023   5.880 -0.2028 -0.8344  0.4913
  372SOL     OW 1253   3.744   1.854   2.774 -0.5523  0.6848  0.2767
  372SOL    HW2 1254   3.661   1.832   2.732  0.1278  0.6052 -1.0541
  372SOL    HW3 1255   3.792   1.771   2.779  0.7093  1.2069 -1.8608
  372SOL    MW4 1256   3.739   1.840   2.769 -0.0967  0.1770 -0.2140
  373SOL     OW 1257   0.316   3.158   1.308 -0.2624 -0.0943 -0.1845
  373SOL    HW2 1258   0.309   3.101   1.385  0.2761  1.3005  0.9407
  373SOL    HW3 1259   0.406   3.148   1.279 -0.0844  0.3897  0.1911
  373SOL    MW4 1260   0.327   3.149   1.314 -0.0965 -0.5147  0.1050
  374SOL     OW 1261   2.072   2.037   4.701  0.2270  0.2780  0.3728
  374SOL    HW2 1262   2.125   1.982   4.643  0.4587 -2.4080  2.8832
  374SOL    HW3 1263   2.132   2.105   4.732  0.9998 -0.2180 -0.0183
  374SOL    MW4 1264   2.087   2.039   4.697  0.5136 -0.5261 -0.4334
  375SOL     OW 1265   1.961   5.936   2.709 -0.6605 -0.1794 -0.2242
  375SOL    HW2 1266   1.874   5.934   2.747 -0.1637 -0.4567  0.9598
  375SOL    HW3 1267   2.018   5.963   2.781  0.1982  0.3133 -1.0551
  375SOL    MW4 1268   1.957   5.940   2.723 -0.2718 -0.2247  0.5856
  376SOL     OW 1269   1.766   4.705   6.213 -0.2759 -0.1224 -0.1977
  376SOL    HW2 1270   1.808   4.681   6.131 -0.7483 -0.2339 -0.4134
  376SOL    HW3 1271   1.800   4.643   6.277 -0.2972 -0.3653 -0.4221
  376SOL    MW4 1272   1.776   4.694   6.211  0.4509 -0.1302  0.2273
  377SOL     OW 1273   1.955   1.741   6.130  0.2958 -0.7012 -0.0987
  377SOL    HW2 1274   1.923   1.766   6.043 -0.1460  0.6617  0.4143
  377SOL    HW3 1275   2.048   1.763   6.128  0.7160 -2.4134 -0.8085
  377SOL    MW4 1276   1.963   1.747   6.118  0.0030 -0.1786  0.5129
  378SOL     OW 1277   2.459   3.460   4.080 -0.1629  0.0581  0.4755
  378SOL    HW2 1278   2.369   3.427   4.075 -0.5986  1.2861 -0.1406
  378SOL    HW3 1279   2.466   3.522   4.008  1.9055 -1.6528 -0.9148
  378SOL    MW4 1280   2.448   3.464   4.070 -0.0800  0.2192 -0.0427
  379SOL     OW 1281   4.094   0.439   0.531  0.2058  0.0741 -0.6038
  379SOL    HW2 1282   4.082   0.523   0.574 -2.0493 -0.3277 -0.3363
  379SOL    HW3 1283   4.056   0.451   0.444 -0.6202 -0.8030 -0.3758
  379SOL    MW4 1284   4.088   0.452   0.525 -0.0607  0.2455 -0.1190
  380SOL     OW 1285   4.135   0.165   5.257 -0.1478 -0.0289 -0.6673
  380SOL    HW2 1286   4.111   0.223   5.329 -0.2901  0.3614 -1.0202
  380SOL    HW3 1287   4.207   0.112   5.291 -0.0671  0.3059 -0.3118
  380SOL    MW4 1288   4.141   0.166   5.271  0.1319 -0.2082 -0.1632
  381SOL     OW 1289   3.225   2.233   0.367 -0.2255 -0.2774 -0.2416
  381SOL    HW2 1290   3.164   2.261   0.436 -0.3095  1.5801 -1.0261
  381SOL    HW3 1291   3.187   2.268   0.287  0.8147 -0.8875 -1.0142
  381SOL    MW4 1292   3.212   2.241   0.366 -0.0413 -0.3259  0.1336
  382SOL     OW 1293   5.918   6.397   1.267  0.3191  0.0460  0.2084
  382SOL    HW2 1294   5.926   6.470   1.329 -2.0134  0.7291 -0.1947
  382SOL    HW3 1295   5.899   6.321   1.322  1.4340 -0.0164  0.5317
  382SOL    MW4 1296   5.916   6.396   1.283  0.0598 -0.2128  0.5545
  383SOL     OW 1297   3.503   4.195   1.842  0.3871 -0.9806  0.1668
  383SOL    HW2 1298   3.595   4.209   1.863  0.0524  1.1609  0.4289
  383SOL    HW3 1299   3.463   4.171   1.925  0.1800  1.3335  0.8092
  383SOL    MW4 1300   3.510   4.193   1.856 -0.4302  0.2829 -0.3197
  384SOL     OW 1301   3.758   2.551   3.867 -0.3425  0.2618 -0.2010
  384SOL    HW2 1302   3.781   2.642   3.885 -0.7088  0.3798 -0.3170
  384SOL    HW3 1303   3.820   2.500   3.919 -1.0483  0.5874  1.0022
  384SOL    MW4 1304   3.769   2.556   3.877  0.2426 -0.3019 -0.3194
  385SOL     OW 1305   2.798   3.309   3.450 -0.1798 -0.6117  0.6298
  385SOL    HW2 1306   2.865   3.377   3.457 -0.2034 -0.6409  1.2656
  385SOL    HW3 1307   2.832   3.238   3.505  0.2603 -1.4610 -0.7105
  385SOL    MW4 1308   2.812   3.309   3.458 -0.2716  0.0699  0.0856
  386SOL     OW 1309   3.419   4.261   3.356  0.3520 -0.2554  0.9414
  386SOL    HW2 1310   3.326   4.275   3.373  0.3940 -0.6049  1.4889
  386SOL    HW3 1311   3.452   4.346   3.327 -0.4848 -0.5164 -0.9015
  386SOL    MW4 1312   3.411   4.274   3.354  0.1782 -0.2041  0.0784
  387SOL     OW 1313   5.818   2.373   6.165 -0.0444  0.1306  0.1100
  387SOL    HW2 1314   5.805   2.419   6.082  0.4544 -0.9679 -0.6027
  387SOL    HW3 1315   5.769   2.425   6.229 -2.3813 -0.2169 -1.2649
  387SOL    MW4 1316   5.810   2.386   6.162 -0.0350 -0.1097  0.1332
  388SOL     OW 1317   3.465   6.319   5.104  0.2813 -0.0116 -0.5779
  388SOL    HW2 1318   3.418   6.336   5.185  1.3180  1.6749 -0.2701
  388SOL    HW3 1319   3.482   6.225   5.104  1.5922  0.1430  1.9454
  388SOL    MW4 1320   3.461   6.309   5.115  0.3159  0.5634  0.0524
  389SOL     OW 1321   1.949   3.068   3.229  0.1429  0.0117  0.3646
  389SOL    HW2 1322   2.041   3.083   3.205  0.0679  0.0617  0.1086
  389SOL    HW3 1323   1.949   2.981   3.270  0.2978 -0.0059  0.3278
  389SOL    MW4 1324   1.961   3.059   3.232 -0.0906 -0.1497  0.1063
  390SOL     OW 1325   4.714   0.801   1.090 -0.1224 -0.0896  0.4077
  390SOL    HW2 1326   4.771   0.724   1.084 -0.6338 -0.5352  1.0750
  390SOL    HW3 1327   4.767   0.867   1.134  0.4722  0.1019 -0.5578
  390SOL    MW4 1328   4.728   0.799   1.095  0.0401  0.0099  0.1438
  391SOL     OW 1329   6.336   2.429   3.003  0.4944 -0.3082  0.1854
  391SOL    HW2 1330   6.242   2.421   3.018  0.5804 -2.3631 -0.1197
  391SOL    HW3 1331   6.347   2.416   2.909  1.1831 -1.4490  0.4075
  391SOL    MW4 1332   6.325   2.427   2.992 -0.2955  0.2321 -0.1739
  392SOL     OW 1333   0.838   2.703   4.406  0.2233 -0.4445 -0.5711
  392SOL    HW2 1334   0.856   2.617   4.367 -0.8361 -1.6103  1.3230
  392SOL    HW3 1335   0.906   2.713   4.473  2.5929  1.9416 -3.0717
  392SOL    MW4 1336   0.849   2.693   4.410 -0.1907  0.7131 -0.3578
  393SOL     OW 1337   3.092   0.605   1.066  0.1944 -0.2909 -0.0190
  393SOL    HW2 1338   3.090   0.517   1.028  0.5595 -0.4299  0.2843
  393SOL    HW3 1339   3.011   0.611   1.117  1.0891 -1.1710  1.5655
  393SOL    MW4 1340   3.081   0.594   1.068  0.0483  0.6138 -0.4049
  394SOL     OW 1341   4.724   2.241   0.982 -0.2554  0.2276 -0.1630
  394SOL    HW2 1342   4.640   2.278   0.955  0.0240 -0.7647 -2.6679
  394SOL    HW3 1343   4.710   2.215   1.073 -2.9886 -0.6588 -0.7237
  394SOL    MW4 1344   4.711   2.242   0.991 -0.8588  0.4848 -0.0666
  395SOL     OW 1345   3.459   4.935   4.404  0.4058  0.6004 -0.1424
  395SOL    HW2 1346   3.549   4.951   4.430  0.5256 -1.3900  0.8772
  395SOL    HW3 1347   3.465   4.868   4.336 -0.1689  2.8872 -2.6263
  395SOL    MW4 1348   3.471   4.928   4.398 -0.7100 -0.1696  0.2133
  396SOL     OW 1349   0.557   0.582   1.502 -0.0300 -0.5584  0.1916
  396SOL    HW2 1350   0.516   0.578   1.588  0.6250  1.4660  0.6503
  396SOL    HW3 1351   0.498   0.635   1.449 -0.4463 -1.8205 -0.6685
  396SOL    MW4 1352   0.544   0.588   1.506 -0.4731 -0.4677  0.3043
  397SOL     OW 1353   1.768   1.120   3.857  0.0421  0.0332 -0.1206
  397SOL    HW2 1354   1.746   1.085   3.943  2.6585  0.5111  0.8293
  397SOL    HW3 1355   1.727   1.207   3.855 -0.3936 -0.1552  0.4724
  397SOL    MW4 1356   1.760   1.127   3.868  0.5834 -0.4939 -0.8461
  398SOL     OW 1357   3.748   5.032   5.952 -0.1945 -0.1491 -0.1106
  398SOL    HW2 1358   3.787   5.077   5.878  3.2048 -0.6310  1.2003
  398SOL    HW3 1359   3.792   4.947   5.955 -2.8946 -1.6785  0.3807
  398SOL    MW4 1360   3.759   5.026   5.943  0.2133  0.4839 -0.3847
  399SOL     OW 1361   3.817   2.142   2.132 -0.2427 -0.2165 -0.2994
  399SOL    HW2 1362   3.862   2.075   2.185  0.6649  0.0521 -0.7050
  399SOL    HW3 1363   3.811   2.104   2.045  0.9872  0.5086 -0.7314
  399SOL    MW4 1364   3.822   2.128   2.128  0.2969 -0.2617  0.0119
  400SOL     OW 1365   1.877   6.360   1.956 -0.2005  0.4710  0.2653
  400SOL    HW2 1366   1.793   6.374   1.912  0.9903 -0.2200 -2.4276
  400SOL    HW3 1367   1.914   6.448   1.966 -0.8472  0.7013  0.7029
  400SOL    MW4 1368   1.871   6.374   1.952  0.6110 -0.5528  0.0076
  401SOL     OW 1369   5.391   0.075   6.019  0.5207  0.1572  0.7268
  401SOL    HW2 1370   5.435   0.149   5.979 -1.2285  0.5125 -0.6775
  401SOL    HW3 1371   5.318   0.113   6.067 -0.7323 -0.6358 -0.4720
  401SOL    MW4 1372   5.387   0.090   6.020 -0.1699  0.2431  0.0956
  402SOL     OW 1373   3.318   0.119   2.473 -0.3767 -0.1882 -0.1261
  402SOL    HW2 1374   3.311   0.045   2.534 -1.1909 -0.4461 -0.5155
  402SOL    HW3 1375   3.357   0.082   2.394  1.6089  0.3539  0.5531
  402SOL    MW4 1376   3.322   0.104   2.471 -0.3823 -0.0616 -0.5191
  403SOL     OW 1377   4.174   5.176   2.726 -0.4483 -0.1237  0.3397
  403SOL    HW2 1378   4.107   5.245   2.733  0.2704  0.4803  1.8198
  403SOL    HW3 1379   4.125   5.097   2.704 -2.0932 -0.2633  3.8404
  403SOL    MW4 1380   4.159   5.175   2.724 -0.0127  0.5296 -0.5634
  404SOL     OW 1381   0.236   3.528   6.036  0.0888  0.4939  0.3740
  404SOL    HW2 1382   0.330   3.543   6.039 -0.0358  1.5757 -0.4890
  404SOL    HW3 1383   0.213   3.541   5.944 -0.5094 -2.3676  0.0363
  404SOL    MW4 1384   0.245   3.532   6.024  0.4858 -0.0832 -0.3710
  405SOL     OW 1385   2.727   4.500   2.171 -0.3652 -0.0685 -0.1959
  405SOL    HW2 1386   2.801   4.483   2.228  0.1406 -1.0327 -1.0949
  405SOL    HW3 1387   2.703   4.591   2.188 -1.4010 -0.7865  2.8575
  405SOL    MW4 1388   2.733   4.509   2.180  0.1438  0.5157 -0.4713
  406SOL     OW 1389   5.935   0.485   5.355 -0.0265  0.6090 -0.0495
  406SOL    HW2 1390   5.964   0.509   5.444  0.6615  0.4167 -0.2149
  406SOL    HW3 1391   5.856   0.536   5.341 -1.0259 -0.4985  1.2664
  406SOL    MW4 1392   5.929   0.495   5.365 -0.0691 -0.1660 -0.2365
  407SOL     OW 1393   5.326   4.713   5.743 -0.2255  0.3616 -0.2827
  407SOL    HW2 1394   5.370   4.631   5.765 -0.2924  0.3826 -0.0716
  407SOL    HW3 1395   5.381   4.781   5.782 -1.4284  0.2989  1.6199
  407SOL    MW4 1396   5.339   4.711   5.751 -0.3303 -0.1878 -0.5994
  408SOL     OW 1397   0.805   3.856   4.624  0.0405 -0.4497  1.0997
  408SOL    HW2 1398   0.832   3.765   4.638  0.0056 -0.8903 -1.2436
  408SOL    HW3 1399   0.827   3.901   4.706  1.2754 -2.2888  1.8371
  408SOL    MW4 1400   0.811   3.850   4.637  0.2738 -0.1177  0.4978
  409SOL     OW 1401   3.245   3.430   0.191  0.1161 -0.6881  0.1308
  409SOL    HW2 1402   3.319   3.381   0.155  0.1218 -1.3961  1.0663
  409SOL    HW3 1403   3.263   3.435   0.285  0.2085  1.3036  0.0402
  409SOL    MW4 1404   3.257   3.424   0.199  0.0251  0.5449 -0.3730
  410SOL     OW 1405   1.064   5.475   4.115  0.0389 -0.3557 -0.5743
  410SOL    HW2 1406   1.001   5.403   4.117 -0.2563 -0.1931  3.1285
  410SOL    HW3 1407   1.146   5.434   4.089 -0.4945 -1.6829 -0.2660
  410SOL    MW4 1408   1.066   5.460   4.112  0.1961  0.1552  0.2814
  411SOL     OW 1409   3.337   1.628   1.483  0.1599  0.0741  0.0546
  411SOL    HW2 1410   3.281   1.680   1.541  1.1871  3.0195 -1.4146
  411SOL    HW3 1411   3.284   1.615   1.404  0.6390  0.7855 -0.3996
  411SOL    MW4 1412   3.322   1.633   1.480 -0.6584 -0.3737  0.3175
  412SOL     OW 1413   5.642   4.389   1.568 -0.8548 -0.2595  0.0626
  412SOL    HW2 1414   5.555   4.349   1.564 -1.1355  0.3710 -0.4346
  412SOL    HW3 1415   5.649   4.424   1.657 -0.5573 -1.4896  0.5398
  412SOL    MW4 1416   5.631   4.388   1.579 -0.5141 -0.5065 -0.5502
  413SOL     OW 1417   4.695   1.732   3.822 -0.4939  0.9180  0.2446
  413SOL    HW2 1418   4.769   1.681   3.854 -0.5086  0.4424 -0.4462
  413SOL    HW3 1419   4.618   1.680   3.846 -0.5545  1.0028  0.2346
  413SOL    MW4 1420   4.694   1.718   3.830  0.1860  0.2722 -0.4706
  414SOL     OW 1421   3.879   3.144   4.622 -0.9252 -0.2826 -0.1932
  414SOL    HW2 1422   3.906   3.162   4.531 -1.6084 -2.2151 -0.8272
  414SOL    HW3 1423   3.947   3.186   4.675 -0.4631  0.8353 -1.5799
  414SOL    MW4 1424   3.892   3.152   4.617 -0.6056  0.1308  0.5462
  415SOL     OW 1425   0.756   5.805   5.103 -0.1861  0.1459  0.0694
  415SOL    HW2 1426   0.829   5.859   5.133  1.0322 -0.3745 -1.7870
  415SOL    HW3 1427   0.759   5.727   5.158  1.2221 -0.2546 -0.5452
  415SOL    MW4 1428   0.766   5.802   5.114  0.2216 -0.1815 -0.3559
  416SOL     OW 1429   3.245   5.463   4.078  0.0012 -0.6132  0.0818
  416SOL    HW2 1430   3.182   5.534   4.073 -0.6955 -1.3114 -1.8746
  416SOL    HW3 1431   3.195   5.387   4.106  0.8517 -0.2863  2.7426
  416SOL    MW4 1432   3.230   5.462   4.081 -0.1518  0.3617  0.8614
  417SOL     OW 1433   3.221   2.425   2.567 -0.7701 -0.1101  0.4061
  417SOL    HW2 1434   3.262   2.420   2.653 -0.2061  1.0015  0.2266
  417SOL    HW3 1435   3.143   2.479   2.581 -0.3662  0.5592  0.1221
  417SOL    MW4 1436   3.216   2.432   2.580  0.4379 -0.2552  0.2401
  418SOL     OW 1437   5.223   0.702   3.810  0.0172 -0.1197  0.0974
  418SOL    HW2 1438   5.258   0.674   3.895 -0.8645 -0.6380  0.2999
  418SOL    HW3 1439   5.133   0.670   3.810 -0.3091  0.7794 -0.6164
  418SOL    MW4 1440   5.216   0.694   3.821  0.4896  0.0364 -0.3382
  419SOL     OW 1441   1.071   3.509   1.771 -0.2302  0.6061  0.3297
  419SOL    HW2 1442   1.081   3.545   1.859 -0.0409  0.9050  0.1898
  419SOL    HW3 1443   0.980   3.526   1.748 -0.4496 -0.0284  0.7051
  419SOL    MW4 1444   1.060   3.516   1.779  0.1736 -0.1628 -0.0182
  420SOL     OW 1445   0.767   4.803   1.480 -0.5686 -0.1511  0.0634
  420SOL    HW2 1446   0.849   4.754   1.486 -0.8701 -0.7924 -0.7581
  420SOL    HW3 1447   0.733   4.806   1.569  0.3720  0.1894  0.4303
  420SOL    MW4 1448   0.774   4.797   1.492  0.4377 -0.5349 -0.5619
  421SOL     OW 1449   3.776   2.360   3.292 -0.1242 -0.1159  0.6438
  421SOL    HW2 1450   3.816   2.404   3.367 -0.3708  0.6683  0.3258
  421SOL    HW3 1451   3.682   2.366   3.308 -0.1933  0.4829  0.0431
  421SOL    MW4 1452   3.769   2.367   3.304 -0.1604  0.2188 -0.3477
  422SOL     OW 1453   5.001   2.106   0.675  0.0529  0.4725  0.1464
  422SOL    HW2 1454   5.065   2.038   0.654 -1.5289 -0.8716 -0.5779
  422SOL    HW3 1455   5.021   2.131   0.765  0.0057 -1.7713  0.8280
  422SOL    MW4 1456   5.012   2.100   0.684  0.2105  0.3477  0.7573
  423SOL     OW 1457   4.671   6.050   5.746 -0.1427 -0.1826 -0.0490
  423SOL    HW2 1458   4.647   5.978   5.803  0.0003 -1.0464 -1.0546
  423SOL    HW3 1459   4.588   6.093   5.725 -0.2781 -0.3365  0.1709
  423SOL    MW4 1460   4.657   6.046   5.751  0.2322 -0.1827 -0.1212
  424SOL     OW 1461   1.120   4.277   1.173 -0.4489  0.4084 -0.8110
  424SOL    HW2 1462   1.210   4.292   1.202 -0.9841 -0.1712  1.3531
  424SOL    HW3 1463   1.127   4.264   1.079  1.4225  2.7465 -1.0860
  424SOL    MW4 1464   1.133   4.277   1.165 -0.2867  0.2100  0.0650
  425SOL     OW 1465   2.144   2.572   5.533 -0.2369 -0.2439  0.1287
  425SOL    HW2 1466   2.188   2.504   5.583 -0.4679  1.2122  2.4378
  425SOL    HW3 1467   2.123   2.640   5.597 -2.8928  0.5958 -1.4449
  425SOL    MW4 1468   2.147   2.572   5.548  0.8754  0.2190 -0.9225
  426SOL     OW 1469   5.308   4.448   1.260  0.7013 -0.0003  0.2164
  426SOL    HW2 1470   5.233   4.391   1.242  0.5338 -0.2223  1.5462
  426SOL    HW3 1471   5.308   4.460   1.355  2.6478 -0.4193  0.3219
  426SOL    MW4 1472   5.298   4.442   1.270  0.5825 -0.2537  0.1630
  427SOL     OW 1473   6.359   5.847   3.604  0.2442  0.4776  0.2342
  427SOL    HW2 1474   6.429   5.847   3.670  1.6804 -1.2801 -1.2026
  427SOL    HW3 1475   6.357   5.758   3.571  0.5180  1.5503 -3.0409
  427SOL    MW4 1476   6.368   5.835   3.608  0.1090 -0.2193 -0.1271
  428SOL     OW 1477   6.109   3.207   6.412 -0.1091  0.2709 -0.2061
  428SOL    HW2 1478   6.176   3.274   6.396 -0.1535  0.3854  0.0809
  428SOL    HW3 1479   6.112   3.192   6.507 -0.0791 -0.1539 -0.2710
  428SOL    MW4 1480   6.118   3.214   6.423  0.6569 -0.2818 -0.2356
  429SOL     OW 1481   3.604   6.322   4.609  0.0235  0.3025  0.7222
  429SOL    HW2 1482   3.577   6.413   4.593  0.2701 -0.1116 -2.7415
  429SOL    HW3 1483   3.699   6.325   4.605  0.0216 -0.1375  0.3101
  429SOL    MW4 1484   3.613   6.335   4.606 -0.3722 -0.0047 -0.5920
  430SOL     OW 1485   3.960   5.061   3.208 -0.0538 -0.0204  0.0471
  430SOL    HW2 1486   3.897   5.038   3.277 -2.8488  1.6749 -1.7204
  430SOL    HW3 1487   3.959   5.157   3.206 -0.9251  0.0132 -2.9366
  430SOL    MW4 1488   3.951   5.071   3.217 -0.1783 -0.2517 -0.0083
  431SOL     OW 1489   2.805   1.950   2.486  0.0439 -0.1565  0.0362
  431SOL    HW2 1490   2.800   1.973   2.579 -0.4424  0.8115 -0.2216
  431SOL    HW3 1491   2.887   1.989   2.455  0.6755 -1.2585  0.2506
  431SOL    MW4 1492   2.815   1.958   2.494  0.5169 -0.0224  0.2616
  432SOL     OW 1493   0.211   6.445   2.776 -0.5933 -0.2294 -0.4103
  432SOL    HW2 1494   0.270   6.502   2.824 -0.0764 -0.6098 -0.5898
  432SOL    HW3 1495   0.223   6.359   2.815 -0.9555 -0.3323 -0.5160
  432SOL    MW4 1496   0.220   6.441   2.788 -0.1698  0.5195  0.4905
  433SOL     OW 1497   5.504   1.095   6.266 -0.2111  0.1846  0.3023
  433SOL    HW2 1498   5.525   1.164   6.202 -0.5074 -0.0708 -0.0754
  433SOL    HW3 1499   5.422   1.124   6.306 -0.3328  0.0559  0.1477
  433SOL    MW4 1500   5.496   1.108   6.263 -0.2512 -0.3387  0.7370
  434SOL     OW 1501   0.799   4.277   2.464  0.2358 -0.1791  0.5206
  434SOL    HW2 1502   0.708   4.281   2.494  0.0253 -2.0584  0.2560
  434SOL    HW3 1503   0.851   4.283   2.544 -0.0998  0.7438  0.6891
  434SOL    MW4 1504   0.794   4.279   2.478  0.0076  0.1070  0.4735
  435SOL     OW 1505   4.640   3.420   3.890 -0.5480  0.1485 -0.1444
  435SOL    HW2 1506   4.616   3.513   3.888 -1.3771 -0.0589 -0.0245
  435SOL    HW3 1507   4.574   3.380   3.946  0.4569 -0.3317  0.7397
  435SOL    MW4 1508   4.628   3.427   3.897  0.3361  0.5121 -0.0023
  436SOL     OW 1509   2.149   5.038   0.345 -0.0206 -0.0313 -0.3872
  436SOL    HW2 1510   2.093   5.110   0.316  1.6857  0.9976 -1.2818
  436SOL    HW3 1511   2.200   5.015   0.267  1.6323 -0.1286  0.6738
  436SOL    MW4 1512   2.148   5.044   0.331 -0.1885 -0.2641 -0.2145
  437SOL     OW 1513   3.107   2.748   2.836 -0.3585 -0.1198  0.3070
  437SOL    HW2 1514   3.031   2.774   2.888 -0.0184  0.8129  0.3663
  437SOL    HW3 1515   3.174   2.814   2.857 -0.2467  0.3664 -1.3785
  437SOL    MW4 1516   3.106   2.760   2.846  0.6643  0.1082  0.1610
  438SOL     OW 1517   5.492   3.585   3.654  0.1035  0.1899 -0.2687
  438SOL    HW2 1518   5.499   3.517   3.721 -0.7925  1.1224  0.8291
  438SOL    HW3 1519   5.571   3.638   3.666 -0.3948  0.7735  0.5731
  438SOL    MW4 1520   5.503   3.583   3.665  0.2306  0.0328  0.3604
  439SOL     OW 1521   4.512   3.610   5.623 -0.0308 -0.2774 -0.4073
  439SOL    HW2 1522   4.423   3.594   5.653  0.0110 -0.4290 -0.3644
  439SOL    HW3 1523   4.561   3.533   5.650 -0.2690 -1.0254 -2.0209
  439SOL    MW4 1524   4.507   3.598   5.631 -0.2554 -0.2245  0.0179
  440SOL     OW 1525   2.483   1.424   4.056  0.0383 -0.3070  0.4550
  440SOL    HW2 1526   2.447   1.337   4.042 -1.1038  0.3056 -0.6216
  440SOL    HW3 1527   2.460   1.445   4.147  3.1753 -2.3412  1.9358
  440SOL    MW4 1528   2.475   1.415   4.066  0.4222 -0.0982  0.6379
  441SOL     OW 1529   3.166   3.727   4.908  0.5934 -0.1441  0.0289
  441SOL    HW2 1530   3.078   3.754   4.934  1.4978  2.6102  0.5740
  441SOL    HW3 1531   3.159   3.713   4.813 -0.4101  0.1037  0.0480
  441SOL    MW4 1532   3.153   3.729   4.899 -0.3574  0.2096  0.4847
  442SOL     OW 1533   4.065   3.980   0.688 -0.0772 -0.0528  0.4708
  442SOL    HW2 1534   4.079   3.905   0.629  0.1413  0.3029  0.0703
  442SOL    HW3 1535   3.999   3.949   0.751 -0.6419 -0.2849 -0.2268
  442SOL    MW4 1536   4.058   3.966   0.689 -0.6326 -0.1112  0.1446
  443SOL     OW 1537   0.610   2.483   0.329 -0.1081  0.3108  0.0902
  443SOL    HW2 1538   0.607   2.502   0.422  1.3032 -0.1699  0.2587
  443SOL    HW3 1539   0.534   2.427   0.313  0.2649 -0.5416  1.1929
  443SOL    MW4 1540   0.600   2.478   0.339  0.2585 -0.3518  0.2194
  444SOL     OW 1541   0.035   1.811   2.328 -0.0866  0.3397 -0.2365
  444SOL    HW2 1542   0.040   1.849   2.415  1.3707 -1.8789  0.7277
  444SOL    HW3 1543  -0.052   1.771   2.324  0.3465 -0.7159  0.7283
  444SOL    MW4 1544   0.024   1.811   2.339  0.1156 -0.1884 -0.3447
  445SOL     OW 1545   4.022   5.996   1.482  0.0542 -0.1509 -0.5329
  445SOL    HW2 1546   3.995   5.908   1.507  2.3985 -1.0757 -1.0766
  445SOL    HW3 1547   3.984   6.010   1.396 -1.6207  0.0437  0.1853
  445SOL    MW4 1548   4.014   5.986   1.474  0.5561  0.6670 -0.3806
  446SOL     OW 1549   0.244   0.338   2.581 -0.5452 -0.4433 -0.2913
  446SOL    HW2 1550   0.313   0.272   2.580 -0.8860 -0.8678  1.6295
  446SOL    HW3 1551   0.255   0.386   2.498  1.2522 -1.2978 -0.5742
  446SOL    MW4 1552   0.254   0.336   2.570  0.4770 -0.0113 -0.2117
  447SOL     OW 1553   5.372   5.033   4.528 -1.2600  0.5053 -0.1395
  447SOL    HW2 1554   5.334   4.948   4.549 -1.3018  0.7240  0.7348
  447SOL    HW3 1555   5.448   5.040   4.586  0.6466 -0.2746 -2.4199
  447SOL    MW4 1556   5.377   5.023   4.539  0.4477  0.0901 -0.6642
  448SOL     OW 1557   3.957   4.240   5.240  1.3535  0.7212 -0.1180
  448SOL    HW2 1558   3.992   4.151   5.235  0.6622  0.4836 -1.0193
  448SOL    HW3 1559   3.990   4.283   5.161 -0.8918  0.2795 -1.3799
  448SOL    MW4 1560   3.966   4.234   5.229  0.4007 -0.6487 -0.2603
  449SOL     OW 1561   4.191   5.605   3.326  0.2507  0.7695 -0.4673
  449SOL    HW2 1562   4.232   5.574   3.244 -0.9673 -0.9663 -0.4673
  449SOL    HW3 1563   4.258   5.661   3.365  1.5780  0.2029 -1.7799
  449SOL    MW4 1564   4.205   5.608   3.320 -0.3738  0.6319 -0.1212
  450SOL     OW 1565   6.153   5.068   5.872  0.4873  0.2331 -0.3436
  450SOL    HW2 1566   6.215   5.136   5.897 -1.7235  1.9143  0.8992
  450SOL    HW3 1567   6.091   5.063   5.945 -1.9288  0.0084 -2.2837
  450SOL    MW4 1568   6.153   5.076   5.885 -0.3458  0.3079 -0.1694
  451SOL     OW 1569   3.920   5.743   2.426  0.2080 -0.1519  0.3207
  451SOL    HW2 1570   3.853   5.675   2.434 -1.2155  1.0907 -0.3225
  451SOL    HW3 1571   3.961   5.747   2.512 -0.5735 -0.9497  0.7435
  451SOL    MW4 1572   3.916   5.735   2.439  0.4181 -0.6326 -0.0730
  452SOL     OW 1573   3.473   5.623   3.738 -0.2364 -0.4542  0.4294
  452SOL    HW2 1574   3.397   5.679   3.727 -0.9615 -1.6158 -0.8224
  452SOL    HW3 1575   3.467   5.590   3.828 -1.6170 -1.0568  0.1397
  452SOL    MW4 1576   3.463   5.626   3.748  0.5957 -0.1078 -0.7198
  453SOL     OW 1577   2.177   3.568   5.879  0.6576  0.1033  0.5386
  453SOL    HW2 1578   2.174   3.472   5.885  0.3886  0.0249 -0.6504
  453SOL    HW3 1579   2.176   3.586   5.786  0.8343  1.2763  0.7500
  453SOL    MW4 1580   2.177   3.557   5.868  0.1177 -0.2611 -0.3108
  454SOL     OW 1581   3.595   1.892   3.372  0.0617  0.3995 -0.2795
  454SOL    HW2 1582   3.601   1.798   3.355  2.1388  0.3239  0.5332
  454SOL    HW3 1583   3.509   1.918   3.337 -1.0157 -1.9701  0.4371
  454SOL    MW4 1584   3.584   1.883   3.365  0.2599 -0.3501  0.3181
  455SOL     OW 1585   2.944   3.789   6.416 -0.3570 -0.0537 -0.3490
  455SOL    HW2 1586   3.013   3.732   6.449  1.2533  1.7967 -0.3862
  455SOL    HW3 1587   2.965   3.803   6.324 -0.0919  1.4443 -0.0840
  455SOL    MW4 1588   2.956   3.784   6.409  0.3427 -0.1538 -0.0285
  456SOL     OW 1589   0.218   1.606   1.323 -0.2116 -0.3631 -0.1819
  456SOL    HW2 1590   0.260   1.521   1.312  0.2821 -0.0492 -0.8060
  456SOL    HW3 1591   0.136   1.587   1.368 -0.2539 -1.2051 -0.5991
  456SOL    MW4 1592   0.213   1.592   1.327  1.1151  0.0398  0.2668
  457SOL     OW 1593   5.486   0.803   5.880 -0.0969  0.0862 -0.5877
  457SOL    HW2 1594   5.560   0.777   5.935 -0.3217  1.5971  0.4874
  457SOL    HW3 1595   5.521   0.870   5.821  0.2921 -1.9313 -2.7953
  457SOL    MW4 1596   5.500   0.809   5.879 -0.1265 -0.6362 -0.2777
  458SOL     OW 1597   4.623   4.211   5.458  0.0738 -0.0483 -0.3393
  458SOL    HW2 1598   4.590   4.180   5.374  2.1049  0.3269 -1.3182
  458SOL    HW3 1599   4.615   4.306   5.454  0.2259 -0.0242 -0.1245
  458SOL    MW4 1600   4.618   4.219   5.447 -0.1218  0.4053  0.2227
  459SOL     OW 1601   5.686   5.422   5.642  0.0407 -0.1548  0.0601
  459SOL    HW2 1602   5.649   5.510   5.650  1.4611  0.3322  1.6921
  459SOL    HW3 1603   5.758   5.420   5.704  0.0450 -2.4994  0.0578
  459SOL    MW4 1604   5.690   5.433   5.651 -0.0426  0.0993 -0.0665
  460SOL     OW 1605   5.291   5.295   4.618 -0.1191 -0.1595  0.2426
  460SOL    HW2 1606   5.196   5.296   4.614 -0.1227 -0.9655  0.0453
  460SOL    HW3 1607   5.315   5.203   4.607  0.6913  0.0609  0.1047
  460SOL    MW4 1608   5.282   5.283   4.616 -0.0706  0.4739 -0.2186
  461SOL     OW 1609   4.352   6.394   4.399 -0.8129 -0.0999 -0.2358
  461SOL    HW2 1610   4.388   6.399   4.310  0.1129 -0.2361  0.1212
  461SOL    HW3 1611   4.265   6.434   4.392  0.0930  1.9145 -0.7728
  461SOL    MW4 1612   4.346   6.400   4.386  0.2350  0.2815 -0.3144
  462SOL     OW 1613   6.224   3.111   2.843 -0.0450  0.4421 -0.3098
  462SOL    HW2 1614   6.208   3.177   2.911  0.1894  1.2513 -1.0297
  462SOL    HW3 1615   6.311   3.132   2.809 -0.3234  0.2809 -1.1316
  462SOL    MW4 1616   6.234   3.122   2.848  0.2462  0.0398 -0.5056
  463SOL     OW 1617   3.977   3.684   2.015 -0.1308  0.1284  0.1023
  463SOL    HW2 1618   3.896   3.654   1.972  1.1876 -0.6626 -2.0104
  463SOL    HW3 1619   3.993   3.770   1.977  0.8729 -0.4312 -0.7883
  463SOL    MW4 1620   3.968   3.691   2.004  0.3927  0.1899  0.0886
  464SOL     OW 1621   0.267   2.682   2.806  0.8347 -0.3519  0.7577
  464SOL    HW2 1622   0.233   2.738   2.737  2.9968 -0.2501 -0.3075
  464SOL    HW3 1623   0.290   2.600   2.762  2.5445 -0.1738  1.2338
  464SOL    MW4 1624   0.266   2.678   2.791  0.0597  0.1503  0.8333
  465SOL     OW 1625   3.239   0.886   5.547 -0.4994 -0.1751 -0.1202
  465SOL    HW2 1626   3.220   0.805   5.595 -1.9157  0.6358  0.7435
  465SOL    HW3 1627   3.267   0.856   5.460 -0.6863 -1.5926  0.2834
  465SOL    MW4 1628   3.240   0.871   5.542 -0.5120  0.2794  0.1522
  466SOL     OW 1629   4.625   3.150   5.175 -0.5021 -0.5653 -0.3221
  466SOL    HW2 1630   4.664   3.083   5.231 -1.4065  0.4739  1.6545
  466SOL    HW3 1631   4.602   3.103   5.095  0.3296 -2.2551  0.3700
  466SOL    MW4 1632   4.627   3.135   5.172  0.0639 -0.4511  0.8977
  467SOL     OW 1633   1.020   6.328   4.017  0.0863 -0.6384  0.6162
  467SOL    HW2 1634   1.072   6.292   4.088 -0.5937 -2.6499  0.1491
  467SOL    HW3 1635   1.023   6.262   3.948 -1.7448 -0.1154 -0.0465
  467SOL    MW4 1636   1.027   6.315   4.017 -0.3852 -0.4699 -0.1649
  468SOL     OW 1637   1.179   4.332   5.036  0.5613 -0.5183  0.2067
  468SOL    HW2 1638   1.182   4.317   5.130 -1.2261  0.0414  0.3970
  468SOL    HW3 1639   1.267   4.361   5.013  1.0678 -0.8357  1.6751
  468SOL    MW4 1640   1.191   4.334   5.045  0.7013  0.3506 -0.2297
  469SOL     OW 1641   0.712   5.230   2.691 -0.3446 -0.2629 -0.0775
  469SOL    HW2 1642   0.733   5.166   2.622 -0.1181  0.8946 -1.1275
  469SOL    HW3 1643   0.768   5.206   2.764  0.8587 -0.3523 -1.0024
  469SOL    MW4 1644   0.722   5.218   2.691  0.0903 -0.1777  0.4148
  470SOL     OW 1645   6.010   3.427   3.888 -0.0199 -0.2399  0.1302
  470SOL    HW2 1646   6.071   3.456   3.956  1.3303 -2.2410 -0.1244
  470SOL    HW3 1647   6.033   3.336   3.873  1.6069  0.6689 -4.8358
  470SOL    MW4 1648   6.021   3.419   3.895  0.2303 -0.7368 -0.2675
  471SOL     OW 1649   6.350   5.918   0.240 -0.4511 -0.1838  0.3992
  471SOL    HW2 1650   6.404   5.986   0.280  1.2156  0.1137 -2.1145
  471SOL    HW3 1651   6.379   5.837   0.282  1.7184  0.0254 -0.5709
  471SOL    MW4 1652   6.361   5.917   0.251  0.1215 -0.6376  0.4016
  472SOL     OW 1653   0.516   4.947   0.180 -0.2676 -0.0561 -0.2127
  472SOL    HW2 1654   0.544   4.884   0.247  1.0955  0.1559 -0.5524
  472SOL    HW3 1655   0.436   4.985   0.215  0.8179  0.6152  1.6765
  472SOL    MW4 1656   0.509   4.944   0.194  0.2564 -0.5033 -0.4140
  473SOL     OW 1657   3.243   3.055   0.997  0.3857 -0.1506  0.9406
  473SOL    HW2 1658   3.204   3.004   0.927 -0.7292  1.2977  0.4439
  473SOL    HW3 1659   3.290   2.991   1.050  0.5004 -1.4124 -0.5988
  473SOL    MW4 1660   3.244   3.040   0.995  0.7885  0.1567 -0.9242
  474SOL     OW 1661   3.828   3.694   5.897 -0.4797  0.1774  1.1516
  474SOL    HW2 1662   3.767   3.766   5.880  0.2916  0.2727 -1.7195
  474SOL    HW3 1663   3.913   3.728   5.870 -0.0085 -1.6161  0.2215
  474SOL    MW4 1664   3.831   3.708   5.892  0.7625  0.2701 -0.4615
  475SOL     OW 1665   1.154   0.717   0.773 -0.0042 -0.9421  0.4470
  475SOL    HW2 1666   1.098   0.721   0.695 -0.7104 -2.2340  0.8642
  475SOL    HW3 1667   1.094   0.698   0.844  0.6919 -0.1647  1.2672
  475SOL    MW4 1668   1.139   0.715   0.772  0.0390  0.6139  0.4845
  476SOL     OW 1669   2.881   4.272   2.397 -0.4782 -0.1160 -0.7749
  476SOL    HW2 1670   2.865   4.184   2.431 -0.0035  0.0836 -0.0091
  476SOL    HW3 1671   2.955   4.262   2.338  1.2533  0.1610  1.2449
  476SOL    MW4 1672   2.889   4.259   2.394  0.7759 -0.3618 -0.1387
  477SOL     OW 1673   4.141   5.106   4.288 -0.2742 -0.1265 -0.0608
  477SOL    HW2 1674   4.048   5.083   4.279 -0.7826  2.1571 -1.6007
  477SOL    HW3 1675   4.140   5.184   4.344  0.4496  1.2573 -1.9038
  477SOL    MW4 1676   4.128   5.113   4.294  0.1007  0.2942  0.0068
  478SOL     OW 1677   3.813   6.031   3.905 -0.1207  0.6812 -0.0533
  478SOL    HW2 1678   3.893   5.984   3.882 -0.7544 -0.9674  0.9518
  478SOL    HW3 1679   3.761   6.029   3.825  1.2239  2.7549 -1.0772
  478SOL    MW4 1680   3.817   6.024   3.891  0.1886 -0.1068 -0.0798
  479SOL     OW 1681   6.057   2.436   5.343 -0.2183  0.2965  0.7138
  479SOL    HW2 1682   5.967   2.468   5.355 -1.0881 -0.8974 -1.8213
  479SOL    HW3 1683   6.097   2.502   5.286 -0.5944 -0.7914 -0.8661
  479SOL    MW4 1684   6.050   2.449   5.337  0.4188  0.4543 -0.4300
  480SOL     OW 1685   0.317   2.379   1.927  0.4575 -0.1462 -0.3334
  480SOL    HW2 1686   0.318   2.405   2.019  3.4880 -0.3312 -0.2134
  480SOL    HW3 1687   0.321   2.461   1.878 -0.4721 -0.0742 -0.3017
  480SOL    MW4 1688   0.317   2.393   1.932  0.2985 -0.6684  0.4133
  481SOL     OW 1689   0.206   6.329   4.745  0.2635  0.4601  0.2431
  481SOL    HW2 1690   0.297   6.312   4.718  1.0119  0.1527  2.7183
  481SOL    HW3 1691   0.186   6.259   4.808 -1.0805  1.5097  1.0457
  481SOL    MW4 1692   0.216   6.317   4.750 -0.2727  0.2783 -0.9430
  482SOL     OW 1693   2.799   2.910   1.732 -0.0474  0.0401  0.5660
  482SOL    HW2 1694   2.884   2.955   1.727 -0.5378  0.8599 -1.0890
  482SOL    HW3 1695   2.818   2.829   1.780  1.7799 -0.0027 -0.1310
  482SOL    MW4 1696   2.813   2.905   1.738 -0.1581 -0.0145 -0.1179
  483SOL     OW 1697   0.186   3.590   2.487  0.1766 -0.2549  0.0038
  483SOL    HW2 1698   0.269   3.616   2.449 -0.6502  1.4638 -0.7529
  483SOL    HW3 1699   0.179   3.643   2.567 -0.3426 -0.1014 -0.1370
  483SOL    MW4 1700   0.196   3.601   2.493 -0.3019  0.0496  0.0294
  484SOL     OW 1701   0.464   4.176   6.111  0.5973  0.2546  0.2826
  484SOL    HW2 1702   0.414   4.094   6.108 -0.8832  1.1030  0.7685
  484SOL    HW3 1703   0.444   4.214   6.196  1.6588  0.9022  0.2612
  484SOL    MW4 1704   0.455   4.170   6.122 -0.3403 -1.4216  0.1806
  485SOL     OW 1705   5.300   4.112   3.592 -0.5325  0.6851 -0.5141
  485SOL    HW2 1706   5.359   4.048   3.554 -1.3016 -2.1831  2.5925
  485SOL    HW3 1707   5.233   4.126   3.526  0.8163 -0.0418 -2.0957
  485SOL    MW4 1708   5.299   4.105   3.578 -0.1167 -0.2275 -0.0250
  486SOL     OW 1709   3.103   4.378   5.417 -0.3355 -0.6355  0.8164
  486SOL    HW2 1710   3.101   4.414   5.328 -1.1385  1.9673  1.7951
  486SOL    HW3 1711   3.011   4.372   5.442 -0.1170 -1.4321  1.4606
  486SOL    MW4 1712   3.090   4.382   5.409  0.1445  0.6473  0.0164
  487SOL     OW 1713   1.523   0.921   2.634 -0.4707 -0.3007 -0.3138
  487SOL    HW2 1714   1.440   0.922   2.587 -1.4167 -0.4823  1.2555
  487SOL    HW3 1715   1.554   1.011   2.631 -1.4730  0.0800  0.3105
  487SOL    MW4 1716   1.516   0.933   2.628 -0.5045 -0.2149 -0.1288
  488SOL     OW 1717   2.319   4.943   1.292 -0.2046 -0.1053 -0.2551
  488SOL    HW2 1718   2.271   4.916   1.214 -1.4364 -0.3333  0.5574
  488SOL    HW3 1719   2.267   5.015   1.329  0.5545  0.2436  0.1588
  488SOL    MW4 1720   2.306   4.949   1.287 -0.0269 -0.5624  1.0234
  489SOL     OW 1721   4.166   3.657   6.102  0.2946 -0.2411 -0.2232
  489SOL    HW2 1722   4.171   3.685   6.011  0.7563 -2.0704 -0.7941
  489SOL    HW3 1723   4.212   3.726   6.151  1.4044  0.0030 -1.5509
  489SOL    MW4 1724   4.173   3.670   6.097 -0.0545  0.4540 -0.1910
  490SOL     OW 1725   3.289   3.277   3.037 -0.8304  0.3711  1.0690
  490SOL    HW2 1726   3.373   3.233   3.049 -1.4755 -1.4267 -0.5838
  490SOL    HW3 1727   3.232   3.236   3.102 -0.9680  0.0502  0.7482
  490SOL    MW4 1728   3.293   3.265   3.048  0.1823 -0.1874  0.7619
  491SOL     OW 1729   3.795   5.850   1.020 -0.0119  0.2524 -0.0638
  491SOL    HW2 1730   3.771   5.757   1.024  1.1696 -0.0400  0.5031
  491SOL    HW3 1731   3.711   5.895   1.006 -0.8170 -0.7768  1.2021
  491SOL    MW4 1732   3.781   5.844   1.019  0.0506 -0.0353 -0.4527
  492SOL     OW 1733   0.376   0.238   0.045  0.1728  0.0840 -0.2197
  492SOL    HW2 1734   0.341   0.199   0.125 -3.5290  0.2339 -1.5623
  492SOL    HW3 1735   0.400   0.327   0.070  1.3943 -0.6130  1.1984
  492SOL    MW4 1736   0.374   0.244   0.059 -0.2211 -0.3431 -0.2552
  493SOL     OW 1737   3.280   0.994   0.653  0.5618 -1.1625 -0.0231
  493SOL    HW2 1738   3.372   1.013   0.672 -0.1081  0.0176  2.3117
  493SOL    HW3 1739   3.260   0.917   0.706  0.2102 -1.5278 -0.6690
  493SOL    MW4 1740   3.290   0.986   0.662 -0.6046  0.1176 -0.2529
  494SOL     OW 1741   4.995   4.728   4.612  0.3991 -0.3932  0.5841
  494SOL    HW2 1742   4.949   4.805   4.581 -0.4454 -0.4967  1.5194
  494SOL    HW3 1743   4.991   4.666   4.539  0.2404  0.0986  0.1741
  494SOL    MW4 1744   4.988   4.730   4.598 -0.2054  0.2927  0.0114
  495SOL     OW 1745   5.577   1.251   0.420 -0.2402 -0.0060  0.1932
  495SOL    HW2 1746   5.608   1.181   0.363 -0.9994  0.8631 -1.3240
  495SOL    HW3 1747   5.625   1.329   0.391  0.1452  0.2679  1.4608
  495SOL    MW4 1748   5.588   1.252   0.409 -0.1346 -0.4761 -0.0518
  496SOL     OW 1749   2.184   4.658   4.016  0.1449 -0.0216  0.1172
  496SOL    HW2 1750   2.112   4.705   4.057 -0.3052 -0.3622 -0.2762
  496SOL    HW3 1751   2.154   4.641   3.926  0.9760  0.4093 -0.2521
  496SOL    MW4 1752   2.171   4.662   4.009  0.4848 -0.0595 -0.3633
  497SOL     OW 1753   4.154   6.288   2.038 -0.3574  0.1911  0.5710
  497SOL    HW2 1754   4.122   6.264   2.125  0.3120  0.4603  0.9013
  497SOL    HW3 1755   4.205   6.212   2.009 -1.3550 -0.2862 -0.0044
  497SOL    MW4 1756   4.157   6.275   2.045 -0.6470 -0.6298 -0.1372
  498SOL     OW 1757   6.055   1.863   3.381 -0.1348 -0.4125  0.3796
  498SOL    HW2 1758   6.038   1.788   3.324 -0.8184 -0.5658  0.7763
  498SOL    HW3 1759   5.968   1.888   3.414  0.4163 -1.6509  3.0265
  498SOL    MW4 1760   6.041   1.856   3.378 -0.3482 -0.0541 -0.5451
  499SOL     OW 1761   1.082   5.666   6.420 -0.7001 -0.0292 -0.0177
  499SOL    HW2 1762   1.088   5.761   6.429 -0.3725 -0.1404  1.1486
  499SOL    HW3 1763   1.094   5.633   6.509  1.3794 -1.2641 -0.6770
  499SOL    MW4 1764   1.085   5.674   6.433  0.3711 -0.6252 -0.0858
  500SOL     OW 1765   1.124   2.328   5.309 -0.0266  0.0673 -0.5330
  500SOL    HW2 1766   1.131   2.404   5.252 -0.6380  1.8634  1.6852
  500SOL    HW3 1767   1.194   2.340   5.374 -0.7500 -0.7455  0.4257
  500SOL    MW4 1768   1.134   2.339   5.310  0.3306 -0.2227 -0.4310
  501SOL     OW 1769   5.897   4.301   1.628  0.2438 -0.7963  0.5064
  501SOL    HW2 1770   5.882   4.318   1.721  2.0961  2.7782  0.3054
  501SOL    HW3 1771   5.815   4.323   1.585  0.1440  0.0124  1.0964
  501SOL    MW4 1772   5.884   4.306   1.635 -0.3229 -0.2656  0.1263
  502SOL     OW 1773   4.445   2.626   0.314 -0.0958  0.3134  0.2880
  502SOL    HW2 1774   4.446   2.690   0.385  0.1242  0.1747  0.4120
  502SOL    HW3 1775   4.503   2.556   0.344  0.5499  0.5739 -0.3245
  502SOL    MW4 1776   4.452   2.625   0.327  0.3684  0.1692  0.3435
  503SOL     OW 1777   5.872   4.754   1.682  0.0447  0.3314 -0.8398
  503SOL    HW2 1778   5.843   4.769   1.772 -1.1756 -0.1749 -1.1203
  503SOL    HW3 1779   5.962   4.722   1.690 -0.0287  0.3569  0.1934
  503SOL    MW4 1780   5.880   4.752   1.695 -0.4531  0.0181 -0.4288
  504SOL     OW 1781   6.391   6.464   3.858 -0.1681  0.1644 -0.2051
  504SOL    HW2 1782   6.331   6.449   3.786 -0.8744 -0.8734  0.5692
  504SOL    HW3 1783   6.397   6.559   3.866 -0.8553  0.2790 -0.9741
  504SOL    MW4 1784   6.384   6.475   3.849 -0.3591 -0.0714 -0.3852
  505SOL     OW 1785   0.256   4.655   0.736  0.1580  0.4880  0.7507
  505SOL    HW2 1786   0.187   4.722   0.739 -0.2863  0.0822 -0.0928
  505SOL    HW3 1787   0.234   4.596   0.809 -0.5229  0.2480  0.3670
  505SOL    MW4 1788   0.244   4.656   0.746  0.2029  0.2128  0.1014
  506SOL     OW 1789   2.673   3.705   4.800  0.1715  0.5225 -0.3906
  506SOL    HW2 1790   2.704   3.671   4.717 -1.1224 -2.0273  0.0710
  506SOL    HW3 1791   2.593   3.754   4.779  0.0325  0.1695 -0.6806
  506SOL    MW4 1792   2.666   3.707   4.787  0.1246  0.1258 -0.2793
  507SOL     OW 1793   3.932   5.869   4.586  0.1243 -0.0634 -0.0307
  507SOL    HW2 1794   3.912   5.938   4.524  1.1357 -0.2757 -0.6207
  507SOL    HW3 1795   3.858   5.808   4.579 -1.3538  1.4796  1.3399
  507SOL    MW4 1796   3.920   5.870   4.577  0.5261  0.1175 -0.3955
  508SOL     OW 1797   5.538   2.884   6.268 -0.3400 -0.8770  0.0907
  508SOL    HW2 1798   5.495   2.968   6.282  0.8291 -0.2108 -0.2317
  508SOL    HW3 1799   5.572   2.860   6.354 -0.4634 -0.9062  0.1318
  508SOL    MW4 1800   5.537   2.892   6.281 -0.4059  0.0020 -0.1903
  509SOL     OW 1801   3.944   3.145   3.326 -0.2545 -0.1866 -0.1421
  509SOL    HW2 1802   3.974   3.232   3.302  1.8213 -1.1467 -1.2935
  509SOL    HW3 1803   3.978   3.088   3.257  0.8439 -2.2762  1.9704
  509SOL    MW4 1804   3.953   3.149   3.314  0.8809  0.0085  0.2490
  510SOL     OW 1805   0.222   3.813   1.943  0.0305 -0.1622  0.4079
  510SOL    HW2 1806   0.317   3.816   1.937 -0.0583 -0.0368 -1.7778
  510SOL    HW3 1807   0.192   3.828   1.853 -1.9995 -2.1127  0.6751
  510SOL    MW4 1808   0.231   3.815   1.930  0.5085 -0.0276  0.5899
  511SOL     OW 1809   4.240   4.769   1.041  0.3938  0.1347  0.0510
  511SOL    HW2 1810   4.282   4.819   1.112 -0.7257 -1.4816  1.9645
  511SOL    HW3 1811   4.279   4.682   1.047 -0.8075 -0.4496 -0.3228
  511SOL    MW4 1812   4.251   4.764   1.051  0.1138  0.0291  0.0844
  512SOL     OW 1813   6.298   1.711   2.038 -0.5127  0.0628  0.1489
  512SOL    HW2 1814   6.275   1.703   2.131 -0.5614  1.3724  0.2739
  512SOL    HW3 1815   6.393   1.697   2.036 -0.7682 -1.8729  0.1120
  512SOL    MW4 1816   6.308   1.708   2.050  0.4504  0.1079 -0.6490
  513SOL     OW 1817   3.446   4.784   4.846 -0.6221 -0.0129 -0.5374
  513SOL    HW2 1818   3.472   4.841   4.919 -1.7240  0.4587 -0.4895
  513SOL    HW3 1819   3.517   4.720   4.839 -0.4286  0.0094  0.8634
  513SOL    MW4 1820   3.459   4.783   4.855  0.4472  0.4182 -0.4813
  514SOL     OW 1821   4.499   5.329   4.213  0.0054 -0.4629  0.1329
  514SOL    HW2 1822   4.490   5.262   4.280 -1.1190 -0.4728 -0.0117
  514SOL    HW3 1823   4.448   5.297   4.139  0.8547 -0.2402 -0.5782
  514SOL    MW4 1824   4.491   5.316   4.212 -0.1153 -0.7107  0.5726
  515SOL     OW 1825   0.402   4.283   1.229 -0.4521 -0.2132  0.8166
  515SOL    HW2 1826   0.355   4.366   1.239 -2.7579 -1.4393  0.9067
  515SOL    HW3 1827   0.492   4.308   1.209 -1.3801  2.3168 -0.6273
  515SOL    MW4 1828   0.407   4.297   1.228  0.5187  0.4198  0.0859
  516SOL     OW 1829   1.814   0.561   4.031  0.5398  0.1964  0.0805
  516SOL    HW2 1830   1.806   0.489   4.093  1.7180 -0.1146 -0.1190
  516SOL    HW3 1831   1.862   0.524   3.957  0.6569  1.0288 -0.2679
  516SOL    MW4 1832   1.819   0.547   4.030  0.8251 -0.3173  0.1554
  517SOL     OW 1833   4.361   1.355   5.776  0.0160 -0.1609  0.2556
  517SOL    HW2 1834   4.298   1.358   5.848  0.9676  1.1259  1.0782
  517SOL    HW3 1835   4.326   1.417   5.712  0.0474 -0.0297  0.3656
  517SOL    MW4 1836   4.348   1.364   5.777 -1.0275 -0.0707 -0.4415
  518SOL     OW 1837   3.185   1.660   0.593  0.1999 -0.0275  0.0572
  518SOL    HW2 1838   3.268   1.612   0.595  0.7436  0.8712 -0.7197
  518SOL    HW3 1839   3.174   1.686   0.502 -1.6644 -1.3515 -0.1528
  518SOL    MW4 1840   3.195   1.657   0.582 -0.4507  0.1401 -0.3752
  519SOL     OW 1841   3.933   2.611   0.441  0.0156  0.2587 -0.0332
  519SOL    HW2 1842   4.011   2.586   0.392 -0.3862 -0.4910 -0.3178
  519SOL    HW3 1843   3.878   2.656   0.377  0.6243  1.6798  0.4151
  519SOL    MW4 1844   3.936   2.613   0.426 -0.2462  0.3084  0.4822
  520SOL     OW 1845   1.201   1.619   3.984 -0.9234 -0.7974  0.1892
  520SOL    HW2 1846   1.176   1.605   4.075 -0.1328 -0.1689  0.5181
  520SOL    HW3 1847   1.294   1.596   3.981 -0.2673  1.5404  0.1553
  520SOL    MW4 1848   1.210   1.614   3.996 -0.5859  0.2285  0.8272
  521SOL     OW 1849   5.660   1.182   3.992  0.1286 -0.8164  0.4210
  521SOL    HW2 1850   5.610   1.229   4.059 -0.3087 -0.8664  0.1365
  521SOL    HW3 1851   5.720   1.248   3.956 -0.6428 -0.4052 -0.1376
  521SOL    MW4 1852   5.661   1.197   3.996  0.4524  0.9708  0.4205
  522SOL     OW 1853   2.413   2.825   0.215  0.8421 -0.0860  0.5868
  522SOL    HW2 1854   2.464   2.745   0.199 -1.2289 -1.5026  0.5583
  522SOL    HW3 1855   2.367   2.840   0.132  0.1997  0.3502  1.0184
  522SOL    MW4 1856   2.414   2.816   0.202  0.6047  0.1083  0.1375
  523SOL     OW 1857   5.281   2.167   4.928  0.1599  0.3911 -0.4394
  523SOL    HW2 1858   5.264   2.249   4.975 -0.0871  0.6419 -0.9566
  523SOL    HW3 1859   5.376   2.162   4.922  0.1803  0.5404 -0.2223
  523SOL    MW4 1860   5.291   2.177   4.933 -0.0944  0.0679  0.0865
  524SOL     OW 1861   1.556   1.784   4.511  0.1864 -0.1659 -0.3171
  524SOL    HW2 1862   1.650   1.806   4.509  0.0316  0.5462 -0.1677
  524SOL    HW3 1863   1.512   1.869   4.507 -0.4637 -0.5241 -0.9310
  524SOL    MW4 1864   1.563   1.798   4.510  0.1680 -0.3683 -0.5555
  525SOL     OW 1865   3.712   2.527   0.729 -0.1029  0.3631 -0.0044
  525SOL    HW2 1866   3.748   2.452   0.683 -0.0321  0.3135  0.1311
  525SOL    HW3 1867   3.620   2.504   0.744  0.2501 -0.3149  1.2899
  525SOL    MW4 1868   3.705   2.514   0.725  0.4646  0.1341  0.5031
  526SOL     OW 1869   4.179   1.328   5.990  0.7443  0.3365  0.3683
  526SOL    HW2 1870   4.105   1.267   5.990  1.0919 -0.1000 -0.4248
  526SOL    HW3 1871   4.223   1.312   6.074  0.8252 -0.5061  0.1700
  526SOL    MW4 1872   4.175   1.318   6.001  0.0902 -0.0378  0.6170
  527SOL     OW 1873   2.748   1.170   1.685  0.1241 -0.2422 -0.1296
  527SOL    HW2 1874   2.773   1.091   1.636  0.0643  0.2819 -1.0220
  527SOL    HW3 1875   2.829   1.198   1.726  0.3644 -0.2238 -0.6052
  527SOL    MW4 1876   2.762   1.163   1.684 -0.5365 -0.4468  0.4973
  528SOL     OW 1877   0.116   2.018   2.717  0.6832  0.2043  0.5076
  528SOL    HW2 1878   0.162   2.087   2.668  1.8266 -0.2257  0.9394
  528SOL    HW3 1879   0.055   2.064   2.773 -1.4785  0.6951 -2.0504
  528SOL    MW4 1880   0.114   2.033   2.718 -0.5213  0.1482  0.3586
  529SOL     OW 1881   2.438   2.559   3.355 -0.3319 -0.0643 -0.0002
  529SOL    HW2 1882   2.396   2.630   3.404 -0.7937 -0.1428 -0.2805
  529SOL    HW3 1883   2.467   2.498   3.423  0.4188  0.5696  0.2696
  529SOL    MW4 1884   2.437   2.560   3.371  0.3120 -0.5903 -0.2892
  530SOL     OW 1885   2.109   1.527   2.618 -0.1545  0.3765  0.4397
  530SOL    HW2 1886   2.196   1.512   2.655  0.1706  1.6706  0.2393
  530SOL    HW3 1887   2.061   1.574   2.687 -0.7810 -0.5122  0.6329
  530SOL    MW4 1888   2.114   1.531   2.632 -0.2078  0.4613  0.2852
  531SOL     OW 1889   3.074   5.710   4.083 -0.0251 -0.7206  0.1904
  531SOL    HW2 1890   3.060   5.680   3.993  1.7220 -1.7086  0.1986
  531SOL    HW3 1891   3.129   5.788   4.074  2.0696 -2.0854  0.4106
  531SOL    MW4 1892   3.080   5.716   4.070 -0.1437 -0.2806  0.0078
  532SOL     OW 1893   5.619   4.975   3.441  0.8634 -0.3301  0.2749
  532SOL    HW2 1894   5.532   4.957   3.405  0.4268 -0.0731  1.1721
  532SOL    HW3 1895   5.601   5.016   3.526  1.8313  1.9552 -0.5500
  532SOL    MW4 1896   5.605   4.978   3.447 -0.1610 -0.4725  0.1318
  533SOL     OW 1897   2.319   6.220   0.411  0.0832  0.0591  0.4283
  533SOL    HW2 1898   2.414   6.226   0.394  0.2477  1.8404  1.7430
  533SOL    HW3 1899   2.285   6.175   0.333  1.7184  1.3784 -1.1624
  533SOL    MW4 1900   2.327   6.215   0.398 -0.3527 -0.0065 -0.7837
  534SOL     OW 1901   1.765   4.101   3.355  0.3271  0.1744 -0.2759
  534SOL    HW2 1902   1.699   4.055   3.304  0.2151  0.3955 -0.3329
  534SOL    HW3 1903   1.787   4.178   3.302  0.9833 -0.1447 -0.4845
  534SOL    MW4 1904   1.759   4.105   3.341 -0.4582  0.3058 -1.0892
  535SOL     OW 1905   1.930   0.796   2.054  0.0608 -0.3089  0.2964
  535SOL    HW2 1906   1.998   0.735   2.085  1.2840  0.9525  0.1981
  535SOL    HW3 1907   1.849   0.747   2.062  0.9354 -1.7504  0.7844
  535SOL    MW4 1908   1.929   0.781   2.059 -0.2174  0.4500 -0.3205
  536SOL     OW 1909   3.734   1.042   2.257  0.0969 -0.1294 -0.1378
  536SOL    HW2 1910   3.695   1.129   2.263  0.8377  0.2885 -1.0215
  536SOL    HW3 1911   3.685   0.988   2.319 -2.0850  0.2654 -1.4478
  536SOL    MW4 1912   3.723   1.046   2.266 -0.4825  0.7326  0.0515
  537SOL     OW 1913   0.592   5.623   6.096  0.4366 -0.5738  0.5321
  537SOL    HW2 1914   0.532   5.681   6.143  0.5185 -0.0829  0.0358
  537SOL    HW3 1915   0.653   5.681   6.052  1.4009 -1.0766  1.1782
  537SOL    MW4 1916   0.592   5.638   6.097  0.4263 -0.0272  0.3136
  538SOL     OW 1917   0.046   2.638   0.617  0.1306 -0.5179 -0.3531
  538SOL    HW2 1918   0.068   2.731   0.609  1.1584 -0.6945  0.1503
  538SOL    HW3 1919   0.123   2.593   0.582 -1.0073 -1.1906 -2.0449
  538SOL    MW4 1920   0.059   2.645   0.611 -0.5271 -0.1145 -0.3943
  539SOL     OW 1921   5.612   1.365   2.829 -0.2838 -0.2005 -0.4044
  539SOL    HW2 1922   5.608   1.276   2.795 -1.5594 -0.8122  1.2067
  539SOL    HW3 1923   5.520   1.387   2.848  0.2092  0.6746  1.1137
  539SOL    MW4 1924   5.599   1.356   2.827 -0.0083 -0.7818 -0.0113
  540SOL     OW 1925   1.167   5.935   4.989 -0.7448 -0.0855  0.1261
  540SOL    HW2 1926   1.123   5.900   4.912 -0.3624 -0.2022 -0.0438
  540SOL    HW3 1927   1.195   6.023   4.964  0.1359 -0.4396 -0.1721
  540SOL    MW4 1928   1.165   5.942   4.976 -0.3212  0.3460 -0.2537
  541SOL     OW 1929   2.848   1.978   2.113  0.3107  0.4678  0.3233
  541SOL    HW2 1930   2.933   2.020   2.123  1.8686 -2.1036 -0.8218
  541SOL    HW3 1931   2.820   2.003   2.025  0.8666 -0.1948 -0.0579
  541SOL    MW4 1932   2.856   1.987   2.102 -0.1789 -0.3775  0.2472
  542SOL     OW 1933   1.298   4.220   6.360  0.2402 -1.1355 -0.6298
  542SOL    HW2 1934   1.252   4.278   6.421 -1.3023 -2.3328 -0.5941
  542SOL    HW3 1935   1.258   4.134   6.374  3.3681 -2.6075  0.3438
  542SOL    MW4 1936   1.287   4.216   6.370  0.4909  0.0945  0.0225
  543SOL     OW 1937   4.183   4.510   1.271 -0.1842 -0.6757  0.7298
  543SOL    HW2 1938   4.273   4.526   1.299  1.1499  0.1332 -3.2544
  543SOL    HW3 1939   4.174   4.415   1.271  1.9175 -0.9965 -1.6694
  543SOL    MW4 1940   4.193   4.500   1.275  0.1239 -0.1933  0.1029
  544SOL     OW 1941   4.706   6.321   2.912  0.0913 -0.7394 -0.1787
  544SOL    HW2 1942   4.742   6.259   2.848  0.7410 -0.8158  0.2451
  544SOL    HW3 1943   4.773   6.390   2.917 -1.0552  0.5191 -1.3738
  544SOL    MW4 1944   4.720   6.322   2.904  0.5677  0.1331 -0.0415
  545SOL     OW 1945   6.031   1.574   2.722 -0.3212 -0.5048 -0.5709
  545SOL    HW2 1946   5.996   1.495   2.681 -0.8117  0.4978 -2.1979
  545SOL    HW3 1947   5.970   1.643   2.697  0.5426  0.5439  0.1102
  545SOL    MW4 1948   6.018   1.573   2.713  0.0977  0.1639  0.0548
  546SOL     OW 1949   5.174   2.382   4.442 -0.3536 -0.4297 -0.1930
  546SOL    HW2 1950   5.218   2.342   4.517  0.9281  1.8147  0.3266
  546SOL    HW3 1951   5.242   2.434   4.399 -1.4535 -0.4115 -2.0277
  546SOL    MW4 1952   5.189   2.383   4.446  0.0051  0.4963  0.0864
  547SOL     OW 1953   0.741   1.038   4.768  0.1285  0.0586  0.4415
  547SOL    HW2 1954   0.646   1.031   4.753 -0.0653  2.3413  0.2510
  547SOL    HW3 1955   0.780   0.987   4.697 -0.9143 -2.4562  1.5615
  547SOL    MW4 1956   0.733   1.031   4.757  0.3080 -0.2535  0.3062
  548SOL     OW 1957   0.819   0.484   5.619 -0.1096 -0.3047  0.0886
  548SOL    HW2 1958   0.784   0.417   5.561  0.4649 -1.5284  1.1195
  548SOL    HW3 1959   0.760   0.559   5.606 -1.9502 -1.6359  0.3453
  548SOL    MW4 1960   0.806   0.485   5.609 -0.1895 -0.2846 -0.3851
  549SOL     OW 1961   6.105   4.472   1.515  0.7060 -0.3344 -0.5348
  549SOL    HW2 1962   6.054   4.534   1.462 -0.4384 -0.9129 -0.1531
  549SOL    HW3 1963   6.051   4.392   1.516  0.8589 -0.4526  1.2132
  549SOL    MW4 1964   6.091   4.470   1.508 -0.5580 -0.4223 -0.5491
  550SOL     OW 1965   2.314   6.450   4.052  0.0580 -0.5088 -0.7684
  550SOL    HW2 1966   2.247   6.492   3.998  0.2457  0.7765 -0.0341
  550SOL    HW3 1967   2.268   6.429   4.134  0.6387  0.7911 -0.0865
  550SOL    MW4 1968   2.299   6.453   4.056  0.4139 -0.4640 -0.2862
  551SOL     OW 1969   1.559   6.202   1.778  0.5457  0.1174 -0.0300
  551SOL    HW2 1970   1.535   6.148   1.853  3.2456 -0.8566  0.2565
  551SOL    HW3 1971   1.485   6.196   1.718 -1.2054  0.0096  2.0373
  551SOL    MW4 1972   1.546   6.194   1.780  0.2680 -0.5254  0.2030
  552SOL     OW 1973   3.535   0.962   4.181 -0.7074 -0.0895 -0.8691
  552SOL    HW2 1974   3.468   0.957   4.250 -1.2107 -1.7133 -1.4502
  552SOL    HW3 1975   3.487   0.991   4.103 -0.1255  1.8142 -0.5699
  552SOL    MW4 1976   3.520   0.965   4.180 -0.6011  0.5846  0.1089
  553SOL     OW 1977   1.875   6.153   5.514 -0.2045 -0.4642 -0.3782
  553SOL    HW2 1978   1.784   6.175   5.494 -0.3819 -1.0228 -0.2011
  553SOL    HW3 1979   1.883   6.061   5.487  0.3169 -0.4050 -0.4255
  553SOL    MW4 1980   1.864   6.144   5.508  0.6392 -0.1521 -0.2561
  554SOL     OW 1981   4.231   3.451   3.935 -0.3308  0.0146  0.3830
  554SOL    HW2 1982   4.294   3.382   3.956 -0.4125 -0.7821 -1.7976
  554SOL    HW3 1983   4.201   3.482   4.021  0.4929 -1.9251  1.4406
  554SOL    MW4 1984   4.235   3.446   3.949  0.3843  0.9451 -0.3529
  555SOL     OW 1985   0.939   4.386   6.292  0.2624  0.9008 -0.3098
  555SOL    HW2 1986   0.992   4.369   6.371 -0.1669 -0.3738 -0.2710
  555SOL    HW3 1987   1.003   4.390   6.221  0.5683  1.0647 -0.0271
  555SOL    MW4 1988   0.955   4.384   6.293 -0.2649  0.2449 -0.1177
  556SOL     OW 1989   5.963   2.155   5.938 -0.9287 -0.2291 -0.4611
  556SOL    HW2 1990   6.000   2.211   5.870 -0.4336 -0.8695 -0.7295
  556SOL    HW3 1991   5.927   2.216   6.002  1.0178  0.4562  0.0556
  556SOL    MW4 1992   5.963   2.171   5.937  0.5104  0.1726 -0.1983
  557SOL     OW 1993   4.321   3.514   5.804 -0.2179 -0.5603 -0.6147
  557SOL    HW2 1994   4.233   3.495   5.774  0.0318 -0.6611 -1.2925
  557SOL    HW3 1995   4.360   3.429   5.820 -0.9989 -0.5166  1.9977
  557SOL    MW4 1996   4.315   3.501   5.802 -0.3779  0.3878  0.2163
  558SOL     OW 1997   5.603   2.211   0.705 -0.4182 -0.0804  0.3197
  558SOL    HW2 1998   5.693   2.206   0.673 -0.8038 -0.6987 -0.7154
  558SOL    HW3 1999   5.557   2.142   0.658 -1.6342  0.8015  0.1713
  558SOL    MW4 2000   5.609   2.201   0.695 -0.4254 -0.7616  0.4019
  559SOL     OW 2001   3.459   2.904   1.175 -0.3016  0.0173  0.1481
  559SOL    HW2 2002   3.396   2.847   1.219 -1.9873  2.0974  0.5962
  559SOL    HW3 2003   3.542   2.886   1.219 -0.8723 -1.6834  0.6070
  559SOL    MW4 2004   3.461   2.894   1.186  0.2317 -0.1687 -0.5415
  560SOL     OW 2005   4.549   2.718   3.682 -0.2034 -0.0283  0.0252
  560SOL    HW2 2006   4.504   2.783   3.628 -0.5551 -0.9489 -0.8236
  560SOL    HW3 2007   4.604   2.770   3.740 -1.3118  1.0703  0.1415
  560SOL    MW4 2008   4.550   2.733   3.682  0.5256  0.4963  0.1036
  561SOL     OW 2009   2.742   2.597   3.974  0.7323  0.1098 -0.3778
  561SOL    HW2 2010   2.687   2.674   3.986 -0.2039 -0.6174  0.0920
  561SOL    HW3 2011   2.785   2.584   4.058 -0.3242 -0.7818  0.0523
  561SOL    MW4 2012   2.740   2.605   3.987  0.2256 -0.1966 -0.1870
  562SOL     OW 2013   6.350   4.317   5.298  0.3570 -0.4818  0.4251
  562SOL    HW2 2014   6.323   4.408   5.307 -0.3609 -0.7043  0.6222
  562SOL    HW3 2015   6.275   4.267   5.332  1.3940 -1.1088  1.8596
  562SOL    MW4 2016   6.336   4.322   5.304 -0.3529 -0.1983  0.9961
  563SOL     OW 2017   3.320   5.132   4.298  0.5153  0.1391 -0.2291
  563SOL    HW2 2018   3.378   5.078   4.352 -1.4800 -0.7537  1.1085
  563SOL    HW3 2019   3.353   5.221   4.309  2.8690 -0.5286 -1.1954
  563SOL    MW4 2020   3.332   5.137   4.306  0.4297  0.1585 -0.5971
  564SOL     OW 2021   5.100   5.627   4.352 -0.2941  0.7180 -0.0035
  564SOL    HW2 2022   5.082   5.718   4.326  1.8805  1.0400 -0.5795
  564SOL    HW3 2023   5.139   5.587   4.274  0.1431 -0.2856  0.7157
  564SOL    MW4 2024   5.103   5.634   4.338  0.2852  0.2814  0.4496
  565SOL     OW 2025   0.678   5.389   1.166  0.6383  0.4544  0.1209
  565SOL    HW2 2026   0.683   5.469   1.114  1.3542 -0.6369 -1.5811
  565SOL    HW3 2027   0.723   5.410   1.247 -0.0684  2.0678  0.1273
  565SOL    MW4 2028   0.684   5.402   1.170 -0.3150  0.2174 -0.0285
  566SOL     OW 2029   0.309   0.071   4.138  0.1008  0.1847  0.1103
  566SOL    HW2 2030   0.307   0.068   4.234  2.0425  2.8345  0.3458
  566SOL    HW3 2031   0.282   0.160   4.116  0.0423 -0.2676 -1.7966
  566SOL    MW4 2032   0.305   0.082   4.148  0.0323 -0.1159 -0.5397
  567SOL     OW 2033   1.329   6.055   5.280 -0.2439  0.1635 -0.3627
  567SOL    HW2 2034   1.261   6.028   5.341  0.3075  0.1887  0.2820
  567SOL    HW3 2035   1.287   6.121   5.225 -0.8415 -0.0899 -0.2191
  567SOL    MW4 2036   1.315   6.060   5.281 -0.4612 -0.3939 -0.5012
  568SOL     OW 2037   6.230   2.168   4.752 -0.2547  0.1816 -0.3502
  568SOL    HW2 2038   6.134   2.172   4.748 -0.2450 -0.3636 -1.2729
  568SOL    HW3 2039   6.259   2.247   4.707 -0.2522  1.7931  2.2436
  568SOL    MW4 2040   6.221   2.179   4.746 -0.5550 -0.5706  0.4934
  569SOL     OW 2041   5.806   2.098   5.332  0.4122  0.0070  0.0881
  569SOL    HW2 2042   5.751   2.175   5.345  0.7858  0.1890  0.6643
  569SOL    HW3 2043   5.876   2.108   5.397  3.3889  1.8282 -3.0464
  569SOL    MW4 2044   5.808   2.110   5.342  0.5132  0.1010 -0.6385
  570SOL     OW 2045   2.412   4.257   2.688  0.6050 -0.7477  0.3148
  570SOL    HW2 2046   2.421   4.269   2.594 -1.2190  0.8594  0.3005
  570SOL    HW3 2047   2.360   4.178   2.698 -0.2930 -0.2125 -0.0810
  570SOL    MW4 2048   2.407   4.248   2.677  0.6663 -0.4504 -0.4808
  571SOL     OW 2049   1.019   2.125   4.689  0.2970  0.6448  0.2446
  571SOL    HW2 2050   0.973   2.155   4.768  2.3104 -0.5165  1.9509
  571SOL    HW3 2051   1.087   2.067   4.722 -0.4165 -2.0199 -2.5654
  571SOL    MW4 2052   1.022   2.121   4.704 -0.0343  0.0818  0.6749
  572SOL     OW 2053   2.222   3.081   3.214  0.4750 -0.1154  0.1707
  572SOL    HW2 2054   2.261   3.168   3.204  1.0152 -0.3960 -0.2335
  572SOL    HW3 2055   2.296   3.021   3.205  0.1650 -0.6073  0.8181
  572SOL    MW4 2056   2.237   3.085   3.212  0.6561 -0.0812 -0.2441
  573SOL     OW 2057   0.763   3.993   0.665 -0.5910  0.3044 -0.0780
  573SOL    HW2 2058   0.858   3.982   0.668 -0.7470 -1.8995 -1.3751
  573SOL    HW3 2059   0.731   3.954   0.746 -0.5298 -1.6253 -0.9211
  573SOL    MW4 2060   0.771   3.987   0.676  0.0927  0.2363  0.7631
  574SOL     OW 2061   0.983   1.022   1.058  0.4342  0.2488  0.4371
  574SOL    HW2 2062   1.059   1.068   1.022 -0.7648  0.3475 -2.1722
  574SOL    HW3 2063   0.981   1.049   1.150  3.7231 -0.0595  0.7386
  574SOL    MW4 2064   0.993   1.032   1.066  0.5592  0.1357 -0.1682
  575SOL     OW 2065   4.184   5.845   0.459 -0.5096 -0.1133  0.4029
  575SOL    HW2 2066   4.191   5.793   0.379  0.4008  1.0978 -0.3367
  575SOL    HW3 2067   4.248   5.806   0.518  0.2157  0.1788 -0.1712
  575SOL    MW4 2068   4.193   5.833   0.456  0.2225  0.0727 -0.2117
  576SOL     OW 2069   5.346   4.699   3.589 -0.0851 -0.1927 -0.0622
  576SOL    HW2 2070   5.329   4.790   3.563 -1.4330 -0.8804 -1.7575
  576SOL    HW3 2071   5.441   4.689   3.579  0.2755  1.2961  1.2464
  576SOL    MW4 2072   5.357   4.710   3.585 -0.1192  0.1660  0.0607
  577SOL     OW 2073   1.973   3.314   2.834  0.3279  0.2695  0.5372
  577SOL    HW2 2074   2.040   3.253   2.864 -0.0704 -0.1561  0.5626
  577SOL    HW3 2075   2.012   3.401   2.848  0.7580  0.0332  0.8199
  577SOL    MW4 2076   1.987   3.318   2.840 -0.3271  0.4781  0.0363
  578SOL     OW 2077   4.323   0.258   0.159 -0.4427 -0.1543  0.1808
  578SOL    HW2 2078   4.339   0.347   0.191 -0.6363 -0.2411  0.5278
  578SOL    HW3 2079   4.406   0.212   0.174  0.0015  0.2450 -0.9761
  578SOL    MW4 2080   4.336   0.263   0.166  0.0222  0.0221  0.4137
  579SOL     OW 2081   3.125   1.659   3.792  0.3393  0.4065  0.5026
  579SOL    HW2 2082   3.174   1.643   3.872  1.9583  2.8570  0.1117
  579SOL    HW3 2083   3.077   1.740   3.809 -2.8596 -1.3009  0.4623
  579SOL    MW4 2084   3.125   1.668   3.804 -0.1822  0.5951 -0.5480
  580SOL     OW 2085   2.681   0.654   3.687 -0.3439 -0.4833 -0.5518
  580SOL    HW2 2086   2.759   0.707   3.673 -0.0457 -1.2637 -2.0383
  580SOL    HW3 2087   2.688   0.624   3.778  0.9328 -0.2977 -0.5770
  580SOL    MW4 2088   2.692   0.657   3.697  0.1796 -0.4424  0.7420
  581SOL     OW 2089   5.820   4.366   1.317 -0.0995  0.0412 -0.2112
  581SOL    HW2 2090   5.732   4.402   1.317  0.1905  0.7923 -0.8192
  581SOL    HW3 2091   5.809   4.273   1.300 -0.6543  0.5588 -3.1856
  581SOL    MW4 2092   5.807   4.358   1.315 -0.0610  0.1698 -0.1434
  582SOL     OW 2093   6.239   0.783   1.441  0.0772  0.7112  0.9422
  582SOL    HW2 2094   6.295   0.820   1.372 -0.0828 -0.1022  0.3672
  582SOL    HW3 2095   6.207   0.701   1.405  0.5126 -0.0631  2.2430
  582SOL    MW4 2096   6.242   0.777   1.427 -0.2482 -0.2537 -0.2884
  583SOL     OW 2097   1.032   2.298   2.561 -0.4474 -0.4474  0.1124
  583SOL    HW2 2098   1.034   2.283   2.467 -0.8788 -3.3458  0.4864
  583SOL    HW3 2099   0.940   2.310   2.582 -0.2739  1.1344  0.0893
  583SOL    MW4 2100   1.020   2.298   2.552  0.4325 -0.3774 -0.1215
  584SOL     OW 2101   3.647   5.660   1.844  0.1754  0.1513  0.5421
  584SOL    HW2 2102   3.666   5.747   1.810  3.5887 -0.2382  1.1836
  584SOL    HW3 2103   3.669   5.664   1.937 -0.0661 -1.2671  0.6876
  584SOL    MW4 2104   3.652   5.672   1.852  0.1994 -0.3790  0.1218
  585SOL     OW 2105   3.095   3.580   0.549 -0.0229 -0.2914 -0.8851
  585SOL    HW2 2106   3.039   3.635   0.495  0.6800  1.0542 -0.2896
  585SOL    HW3 2107   3.119   3.636   0.624  2.1553 -0.7732 -1.1487
  585SOL    MW4 2108   3.091   3.595   0.552  0.2724 -0.1300 -0.3089
  586SOL     OW 2109   3.930   4.246   2.980 -0.2068 -0.3106 -0.4880
  586SOL    HW2 2110   3.925   4.252   2.885  2.3935 -0.2845 -0.6956
  586SOL    HW3 2111   3.887   4.163   3.002  0.6768 -1.1625 -1.8670
  586SOL    MW4 2112   3.923   4.236   2.971  0.0584  0.2810 -0.5307
  587SOL     OW 2113   0.309   0.704   3.543 -0.1536  0.4916  0.1668
  587SOL    HW2 2114   0.398   0.673   3.558 -0.5448  0.1149  1.9013
  587SOL    HW3 2115   0.270   0.710   3.631 -1.9662  0.2680 -0.5758
  587SOL    MW4 2116   0.315   0.701   3.557  0.1270  0.6299  0.0447
  588SOL     OW 2117   5.546   4.479   0.122  0.2480  0.1580  0.3912
  588SOL    HW2 2118   5.543   4.441   0.210  0.9369  0.4040  0.5232
  588SOL    HW3 2119   5.580   4.567   0.134  1.8823 -0.3285 -0.2682
  588SOL    MW4 2120   5.550   4.485   0.135 -0.1055  0.6968 -0.1396
  589SOL     OW 2121   0.168   4.618   4.767  0.3008 -0.3014  0.3770
  589SOL    HW2 2122   0.202   4.649   4.684 -1.0733  4.3948  1.2798
  589SOL    HW3 2123   0.085   4.575   4.745  1.3918 -1.9224 -0.8148
  589SOL    MW4 2124   0.161   4.616   4.753  0.2847  0.1716  0.3555
  590SOL     OW 2125   2.892   2.364   3.063 -0.1342 -0.0713 -0.8681
  590SOL    HW2 2126   2.822   2.415   3.023  0.4781  0.5800 -1.1177
  590SOL    HW3 2127   2.971   2.416   3.050  0.3035 -0.5067 -0.0475
  590SOL    MW4 2128   2.893   2.378   3.056 -0.3894 -0.5408 -0.0688
  591SOL     OW 2129   4.383   2.906   4.013 -0.3575 -0.5401 -0.1925
  591SOL    HW2 2130   4.399   2.964   3.939  0.1088 -0.8046 -0.2986
  591SOL    HW3 2131   4.294   2.873   4.000 -0.5936  0.0817 -0.1764
  591SOL    MW4 2132   4.374   2.909   4.002  0.3533 -0.1576 -0.1824
  592SOL     OW 2133   6.178   3.363   2.970 -0.0135  0.4302 -0.4024
  592SOL    HW2 2134   6.135   3.400   3.048 -0.4595  0.3028 -0.5832
  592SOL    HW3 2135   6.124   3.393   2.897 -1.0520 -1.4822 -0.4731
  592SOL    MW4 2136   6.165   3.372   2.971  0.1821 -0.6219 -0.6166
  593SOL     OW 2137   0.383   4.301   4.042 -0.2749 -0.2398 -0.4312
  593SOL    HW2 2138   0.352   4.221   4.086 -0.1972 -0.2186 -0.3378
  593SOL    HW3 2139   0.390   4.365   4.112 -2.6744  0.5675 -0.8416
  593SOL    MW4 2140   0.380   4.299   4.057  0.3609 -0.0855 -0.3436
  594SOL     OW 2141   0.443   1.182   1.967  0.1835  0.3480 -0.9159
  594SOL    HW2 2142   0.455   1.230   1.886 -0.4181  2.4971  0.1764
  594SOL    HW3 2143   0.452   1.248   2.036  3.7905 -1.8483  1.0251
  594SOL    MW4 2144   0.446   1.197   1.966  0.2166 -0.0653  0.2336
  595SOL     OW 2145   4.266   1.090   1.886 -0.5311  0.2572 -0.5712
  595SOL    HW2 2146   4.303   1.165   1.932 -0.0730  0.3702 -1.1079
  595SOL    HW3 2147   4.195   1.126   1.833  0.0120  0.4031 -1.2135
  595SOL    MW4 2148   4.262   1.105   1.885 -0.3328  0.0736 -0.4172
  596SOL     OW 2149   1.746   1.364   3.450 -0.1321  0.0948  0.5231
  596SOL    HW2 2150   1.793   1.375   3.368  0.2521  0.8043  0.8290
  596SOL    HW3 2151   1.712   1.451   3.470  1.2246  0.3399  1.9684
  596SOL    MW4 2152   1.748   1.377   3.442 -0.4174 -0.2791 -0.1095
  597SOL     OW 2153   3.874   6.204   1.035 -0.4273 -0.5602  0.6098
  597SOL    HW2 2154   3.853   6.165   0.950 -2.2215  0.5887  0.4622
  597SOL    HW3 2155   3.812   6.277   1.044  3.6349  3.4209  0.1373
  597SOL    MW4 2156   3.863   6.209   1.025  0.6529 -0.2922 -0.5311
  598SOL     OW 2157   3.147   3.860   5.547  0.4845 -0.6279 -0.3112
  598SOL    HW2 2158   3.158   3.828   5.458  1.8480  0.0717 -0.4222
  598SOL    HW3 2159   3.158   3.955   5.540 -0.7089 -0.4138  0.4194
  598SOL    MW4 2160   3.150   3.868   5.534  0.5424  0.5686 -0.1813
  599SOL     OW 2161   6.085   1.288   4.039 -0.3072 -0.0058  0.9902
  599SOL    HW2 2162   6.063   1.203   4.076 -0.7599  0.8594  2.8804
  599SOL    HW3 2163   6.126   1.336   4.112 -0.4998  1.5491  0.1350
  599SOL    MW4 2164   6.087   1.283   4.054  0.5513 -0.5392 -0.0695
  600SOL     OW 2165   6.136   0.515   2.584  0.3256  0.4380 -0.3753
  600SOL    HW2 2166   6.041   0.502   2.576 -0.0212  2.1642  0.3744
  600SOL    HW3 2167   6.170   0.430   2.612 -1.6005  0.7959  3.7728
  600SOL    MW4 2168   6.128   0.502   2.587  0.4554  0.5490 -0.3598
  601SOL     OW 2169   3.493   5.116   2.463  0.1772 -0.2593 -0.2191
  601SOL    HW2 2170   3.538   5.045   2.508  1.1415  0.8672  0.6587
  601SOL    HW3 2171   3.447   5.073   2.391  0.7485 -1.7588  0.2637
  601SOL    MW4 2172   3.493   5.101   2.459 -0.4649 -0.2205  0.2823
  602SOL     OW 2173   0.245   6.468   4.410 -0.3515  0.3480  0.0493
  602SOL    HW2 2174   0.302   6.474   4.486 -1.7615  0.4891  1.1318
  602SOL    HW3 2175   0.205   6.555   4.403 -0.7043  0.1516 -0.4705
  602SOL    MW4 2176   0.247   6.480   4.419  0.1293  1.0152 -0.0320
  603SOL     OW 2177   4.799   2.599   3.548 -0.0325  0.0982  0.1489
  603SOL    HW2 2178   4.800   2.656   3.625 -1.1219  0.3515 -0.0002
  603SOL    HW3 2179   4.709   2.565   3.545  0.3141 -0.7896 -0.3740
  603SOL    MW4 2180   4.787   2.602   3.557  0.1000  0.0270  0.5276
  604SOL     OW 2181   1.817   3.041   4.951 -0.2803  0.5184 -0.0038
  604SOL    HW2 2182   1.830   2.959   4.903  0.4411 -0.2959  1.4990
  604SOL    HW3 2183   1.769   3.015   5.030  0.5977  1.3996  0.8492
  604SOL    MW4 2184   1.812   3.027   4.955 -0.3592  0.2824  0.4954
  605SOL     OW 2185   0.100   2.888   5.930 -0.4794  0.1848  0.0043
  605SOL    HW2 2186   0.170   2.851   5.877 -0.8809  1.8632 -1.8155
  605SOL    HW3 2187   0.051   2.944   5.870 -1.9361  0.9417  1.7888
  605SOL    MW4 2188   0.103   2.891   5.915  0.3564 -0.4028  0.2897
  606SOL     OW 2189   3.044   2.750   3.817 -0.2913  0.3553 -0.1715
  606SOL    HW2 2190   3.014   2.807   3.888  0.1513  1.0178 -0.5072
  606SOL    HW3 2191   3.057   2.665   3.859 -1.1081  0.4557  0.3037
  606SOL    MW4 2192   3.042   2.746   3.832 -0.7507  0.2207  0.0992
  607SOL     OW 2193   2.582   0.213   0.295 -0.4385 -0.3426 -0.2381
  607SOL    HW2 2194   2.521   0.153   0.251  0.7335 -1.5262 -0.2890
  607SOL    HW3 2195   2.615   0.163   0.370  3.1357 -1.1575 -2.1341
  607SOL    MW4 2196   2.578   0.198   0.299  0.4418  0.0878 -0.4301
  608SOL     OW 2197   5.430   1.912   3.834  0.4584 -0.0600  0.6301
  608SOL    HW2 2198   5.465   1.886   3.919 -2.2852  0.5238  2.0329
  608SOL    HW3 2199   5.356   1.853   3.820  0.3226  0.4498 -0.9459
  608SOL    MW4 2200   5.425   1.901   3.843  0.1706 -0.5236 -0.5119
  609SOL     OW 2201   5.392   3.599   1.433  0.0210 -0.0518  0.0694
  609SOL    HW2 2202   5.307   3.643   1.424 -0.9722 -1.9396 -0.3750
  609SOL    HW3 2203   5.447   3.663   1.478 -2.4086  0.3065  2.8277
  609SOL    MW4 2204   5.388   3.613   1.437  0.2055 -0.1992  0.0967
  610SOL     OW 2205   2.292   0.270   1.791  0.4282  0.2938 -0.2180
  610SOL    HW2 2206   2.383   0.244   1.775  0.4903  0.7081 -0.5376
  610SOL    HW3 2207   2.299   0.354   1.836  0.2100  0.0710  0.2416
  610SOL    MW4 2208   2.305   0.277   1.795  0.2839 -0.3851 -0.0934
  611SOL     OW 2209   1.614   3.162   6.054  0.3081 -0.3117 -0.7903
  611SOL    HW2 2210   1.655   3.134   6.136  0.5250 -0.9055 -1.0973
  611SOL    HW3 2211   1.537   3.212   6.082  0.6171 -0.1402 -0.2208
  611SOL    MW4 2212   1.609   3.165   6.069 -0.4409 -0.5125 -0.1930
  612SOL     OW 2213   5.753   1.086   4.878  0.1487  0.1335 -0.0126
  612SOL    HW2 2214   5.728   1.167   4.924 -0.0015 -0.5842  1.2217
  612SOL    HW3 2215   5.715   1.016   4.932  1.2467 -0.8074 -0.4316
  612SOL    MW4 2216   5.745   1.088   4.891 -0.3356  0.3353  0.4149
  613SOL     OW 2217   5.807   2.213   2.908 -0.1439  0.0108 -0.2604
  613SOL    HW2 2218   5.753   2.252   2.839 -0.1518 -1.4472 -1.1405
  613SOL    HW3 2219   5.746   2.157   2.957  0.6273 -2.3667 -1.8249
  613SOL    MW4 2220   5.792   2.211   2.905 -0.5346  0.4854 -0.1419
  614SOL     OW 2221   0.555   6.070   4.743  0.6234 -0.0577  0.3387
  614SOL    HW2 2222   0.627   6.008   4.754 -0.1233 -0.7920  1.1916
  614SOL    HW3 2223   0.477   6.022   4.768 -0.3144  0.4503 -1.4037
  614SOL    MW4 2224   0.554   6.056   4.747 -0.1490 -0.3551 -0.3070
  615SOL     OW 2225   5.605   6.391   6.209 -0.4450  0.3279 -0.3063
  615SOL    HW2 2226   5.616   6.435   6.294 -1.8514 -0.0416  0.0813
  615SOL    HW3 2227   5.550   6.451   6.159  3.2822  2.3896 -2.3992
  615SOL    MW4 2228   5.599   6.405   6.214  0.2650 -0.3271 -0.1270
  616SOL     OW 2229   2.418   4.604   1.547 -0.1932  0.0180 -0.5961
  616SOL    HW2 2230   2.409   4.548   1.469  1.2957 -1.3200  0.1221
  616SOL    HW3 2231   2.363   4.563   1.613 -0.0100  0.0657 -0.4111
  616SOL    MW4 2232   2.410   4.591   1.545  0.9998 -0.2997 -0.1170
  617SOL     OW 2233   5.530   1.613   4.401  0.6741  0.2902 -0.1552
  617SOL    HW2 2234   5.595   1.543   4.396  1.0603  0.5873  0.5336
  617SOL    HW3 2235   5.581   1.693   4.387  0.5251  0.5503  0.7281
  617SOL    MW4 2236   5.545   1.614   4.399 -0.2763  0.2353  0.1142
  618SOL     OW 2237   4.243   4.360   6.108  0.3645  0.4514  0.2426
  618SOL    HW2 2238   4.159   4.351   6.062  1.2905 -3.4572 -1.0973
  618SOL    HW3 2239   4.226   4.424   6.177 -3.4609  0.4742 -0.4946
  618SOL    MW4 2240   4.230   4.367   6.111 -0.5648  0.4456  0.7802
  619SOL     OW 2241   3.540   0.638   5.447  0.3706  0.4133 -0.3531
  619SOL    HW2 2242   3.485   0.620   5.370  0.8180 -1.1431 -0.3386
  619SOL    HW3 2243   3.477   0.643   5.520  0.0187  1.1744 -0.6934
  619SOL    MW4 2244   3.524   0.636   5.447 -0.2325  0.2441  0.0820
  620SOL     OW 2245   5.782   5.840   0.177  0.2608  0.1539 -0.0023
  620SOL    HW2 2246   5.776   5.922   0.225  2.5190  0.1101  0.4651
  620SOL    HW3 2247   5.827   5.863   0.096 -0.9980 -0.2852 -0.8638
  620SOL    MW4 2248   5.787   5.854   0.172  0.5507 -0.3948  0.1807
  621SOL     OW 2249   2.329   3.313   3.124 -0.3335 -0.5462 -0.6552
  621SOL    HW2 2250   2.328   3.369   3.047  2.6754 -0.4450 -0.7483
  621SOL    HW3 2251   2.399   3.349   3.180  0.3464 -2.9501  0.2037
  621SOL    MW4 2252   2.338   3.325   3.121 -0.1992 -0.5706  0.4896
  622SOL     OW 2253   3.272   0.455   4.415 -0.8332 -0.5659  0.0705
  622SOL    HW2 2254   3.363   0.462   4.386 -0.7547 -0.6201  0.2967
  622SOL    HW3 2255   3.233   0.392   4.355 -1.0864  0.4698 -0.8819
  622SOL    MW4 2256   3.279   0.448   4.404  0.1952  0.1748 -0.4174
  623SOL     OW 2257   4.208   1.112   2.473  0.3665 -0.3093 -0.0358
  623SOL    HW2 2258   4.169   1.196   2.498  2.3338  0.4077  0.8874
  623SOL    HW3 2259   4.201   1.110   2.377  1.5148  1.6340 -0.2258
  623SOL    MW4 2260   4.202   1.123   2.464 -0.6565  0.4392  0.3884
  624SOL     OW 2261   1.190   5.062   2.374 -0.0421  0.5449 -0.0931
  624SOL    HW2 2262   1.119   5.006   2.405  1.1905 -0.7061  0.5442
  624SOL    HW3 2263   1.267   5.034   2.423  0.5043  3.3394  0.8484
  624SOL    MW4 2264   1.191   5.051   2.384  0.4787  0.0742 -0.3645
  625SOL     OW 2265   1.078   1.446   3.467 -0.9698  0.5453  0.6960
  625SOL    HW2 2266   1.170   1.424   3.450 -1.5801 -0.3282 -1.9655
  625SOL    HW3 2267   1.067   1.534   3.429 -1.4643  0.1996  0.0170
  625SOL    MW4 2268   1.089   1.455   3.460 -0.8249 -0.0560  0.4275
  626SOL     OW 2269   2.022   1.029   0.537  0.3253 -0.2422  0.1087
  626SOL    HW2 2270   2.094   1.087   0.561 -0.2145  0.0856  1.0018
  626SOL    HW3 2271   2.056   0.941   0.552  0.6993 -0.1110  0.0442
  626SOL    MW4 2272   2.036   1.025   0.542  0.1414 -0.4974 -0.3034
  627SOL     OW 2273   0.595   4.619   3.081  0.3688 -0.7607  0.2586
  627SOL    HW2 2274   0.619   4.616   3.173 -1.3944 -0.2005  0.7686
  627SOL    HW3 2275   0.582   4.712   3.062  1.0864 -0.8329 -0.6722
  627SOL    MW4 2276   0.596   4.631   3.090 -0.0939  0.0996  0.0329
  628SOL     OW 2277   3.895   4.177   4.769  0.5788  0.2111 -0.3020
  628SOL    HW2 2278   3.810   4.208   4.737  0.8986  1.4055 -0.0396
  628SOL    HW3 2279   3.959   4.220   4.712  1.0129 -0.6853 -0.4999
  628SOL    MW4 2280   3.892   4.187   4.757 -0.1573  0.0851  0.0923
  629SOL     OW 2281   1.226   6.164   4.599 -0.1541  0.4098 -0.0986
  629SOL    HW2 2282   1.140   6.184   4.562 -0.5302  1.4493  1.2746
  629SOL    HW3 2283   1.249   6.079   4.562 -1.8523  0.0275 -0.3255
  629SOL    MW4 2284   1.218   6.155   4.589 -0.0847  0.1009 -0.1449
  630SOL     OW 2285   1.218   2.720   4.891 -0.4252  0.0223  0.1507
  630SOL    HW2 2286   1.218   2.812   4.918  0.2534  0.3056 -0.7815
  630SOL    HW3 2287   1.271   2.718   4.811 -1.8666 -0.8814 -0.8273
  630SOL    MW4 2288   1.225   2.732   4.884 -0.0252 -0.3890 -0.0631
  631SOL     OW 2289   6.040   6.260   3.914 -0.1848  0.3255  0.0936
  631SOL    HW2 2290   5.999   6.309   3.986 -0.9530 -0.5699  0.2914
  631SOL    HW3 2291   5.968   6.209   3.877  0.9394 -2.2422  1.2291
  631SOL    MW4 2292   6.025   6.260   3.919  0.1392  0.0921  0.4571
  632SOL     OW 2293   5.722   4.680   5.032 -0.1191 -0.2633  0.1568
  632SOL    HW2 2294   5.793   4.729   5.071 -0.8919  0.7197  0.3611
  632SOL    HW3 2295   5.648   4.693   5.091 -0.9936  0.3170 -1.0287
  632SOL    MW4 2296   5.721   4.688   5.045 -0.3525  0.1805 -0.0981
  633SOL     OW 2297   4.684   1.725   1.965  0.2371  0.7137  0.1583
  633SOL    HW2 2298   4.630   1.798   1.935  1.2481  1.6191  0.4967
  633SOL    HW3 2299   4.671   1.722   2.060 -0.6059 -0.2388  0.0436
  633SOL    MW4 2300   4.675   1.734   1.974  0.0403 -0.1895  0.4197
  634SOL     OW 2301   0.892   1.825   6.357 -0.0074  0.2367 -0.2645
  634SOL    HW2 2302   0.904   1.802   6.449 -1.7927  1.1727  0.2607
  634SOL    HW3 2303   0.809   1.873   6.355  0.8906  1.8701 -2.0715
  634SOL    MW4 2304   0.883   1.828   6.369  0.1043  0.1844  0.0744
  635SOL     OW 2305   4.918   5.441   5.363 -0.3577 -0.6870  0.4962
  635SOL    HW2 2306   4.968   5.394   5.295  0.6808  0.0659  0.7121
  635SOL    HW3 2307   4.937   5.393   5.444 -0.2586 -0.6100  0.5194
  635SOL    MW4 2308   4.927   5.428   5.365 -0.2154 -0.1568 -0.1643
  636SOL     OW 2309   4.369   5.987   4.642  0.8346 -0.3404  0.0509
  636SOL    HW2 2310   4.365   6.082   4.654  0.2853 -0.5995  2.6501
  636SOL    HW3 2311   4.292   5.966   4.589 -0.4439  0.4927  1.4698
  636SOL    MW4 2312   4.358   5.997   4.637 -0.1993  0.3250 -0.6140
  637SOL     OW 2313   2.472   1.917   5.944  0.0975  0.1948  0.2605
  637SOL    HW2 2314   2.421   1.978   5.891  0.8549 -1.5175 -2.6528
  637SOL    HW3 2315   2.561   1.924   5.910  0.6048 -1.1228  1.2265
  637SOL    MW4 2316   2.477   1.926   5.933 -0.0405  0.2904 -0.1301
  638SOL     OW 2317   0.650   0.279   1.592  0.3174  0.0321  0.1021
  638SOL    HW2 2318   0.668   0.357   1.644  0.5520  0.0210  0.0368
  638SOL    HW3 2319   0.580   0.234   1.640  0.5221  0.0293  0.3998
  638SOL    MW4 2320   0.643   0.283   1.605  0.9974  0.3616 -0.3195
  639SOL     OW 2321   0.108   2.115   3.274 -0.2272  0.4745 -0.5320
  639SOL    HW2 2322   0.117   2.054   3.346 -0.2257  2.3238  1.1105
  639SOL    HW3 2323   0.118   2.061   3.195  1.9759 -1.2853  0.8303
  639SOL    MW4 2324   0.110   2.100   3.273  0.0883  0.1348 -0.1026
  640SOL     OW 2325   1.973   2.456   2.102 -0.1820  0.7644 -0.3502
  640SOL    HW2 2326   1.981   2.480   2.195 -1.0323  0.2319 -0.1299
  640SOL    HW3 2327   2.008   2.532   2.055 -0.5116  1.3906  0.3857
  640SOL    MW4 2328   1.979   2.469   2.108  0.3789 -0.1156 -0.8014
  641SOL     OW 2329   3.970   5.402   5.664 -0.2971  0.2436  0.2961
  641SOL    HW2 2330   3.933   5.315   5.674 -0.9778  0.5518  0.4687
  641SOL    HW3 2331   3.899   5.455   5.627  0.8331  0.1351 -2.2516
  641SOL    MW4 2332   3.956   5.398   5.660  1.1112  0.6250  0.6662
  642SOL     OW 2333   5.838   0.469   2.555 -0.0391  0.4183  0.0365
  642SOL    HW2 2334   5.815   0.380   2.526  2.4097  0.2268 -1.5582
  642SOL    HW3 2335   5.801   0.475   2.643 -3.3831 -0.8428 -1.1304
  642SOL    MW4 2336   5.830   0.458   2.563  0.7065  0.2506  0.6104
  643SOL     OW 2337   1.198   6.275   5.113  0.6988 -0.0211  0.2054
  643SOL    HW2 2338   1.165   6.266   5.024 -0.3780 -0.9581  0.6598
  643SOL    HW3 2339   1.256   6.350   5.111 -0.7312  1.1026 -0.8823
  643SOL    MW4 2340   1.201   6.284   5.101 -0.6823 -0.0019  0.7499
  644SOL     OW 2341   4.126   5.247   5.995  0.2646  0.0255  0.0152
  644SOL    HW2 2342   4.082   5.324   5.957 -1.3087 -0.8118  0.0336
  644SOL    HW3 2343   4.219   5.268   5.991 -0.0869  1.6320 -0.6342
  644SOL    MW4 2344   4.132   5.260   5.989 -0.3887 -0.2452 -0.4915
  645SOL     OW 2345   4.183   5.546   2.827  0.9545  0.3949  0.1140
  645SOL    HW2 2346   4.095   5.515   2.846  0.9792 -0.4873 -1.0843
  645SOL    HW3 2347   4.228   5.545   2.911 -0.0073  0.2985  0.6407
  645SOL    MW4 2348   4.177   5.542   2.840  0.2236  0.3871 -0.2914
  646SOL     OW 2349   0.752   6.341   4.871  0.4508 -0.3816  0.0255
  646SOL    HW2 2350   0.673   6.393   4.886  1.0739  0.5630  0.0809
  646SOL    HW3 2351   0.820   6.405   4.849  1.4008 -1.1039  0.7588
  646SOL    MW4 2352   0.750   6.356   4.870 -0.4792  0.4243 -0.1147
  647SOL     OW 2353   6.323   0.125   1.964 -0.2774 -0.4928 -0.0933
  647SOL    HW2 2354   6.230   0.142   1.947  0.0914  0.5791 -1.2049
  647SOL    HW3 2355   6.337   0.152   2.055 -1.2050 -1.3858  0.3263
  647SOL    MW4 2356   6.313   0.131   1.974 -0.4607 -0.3058 -0.7373
  648SOL     OW 2357   3.303   5.759   0.168  0.3518 -0.1641  0.4741
  648SOL    HW2 2358   3.369   5.728   0.107  0.2674 -0.8016  0.6913
  648SOL    HW3 2359   3.303   5.694   0.238 -2.4429 -1.7845 -0.8427
  648SOL    MW4 2360   3.312   5.746   0.169  0.4422  0.3292  0.1224
  649SOL     OW 2361   4.699   4.714   3.845  0.1084 -0.3096  0.1982
  649SOL    HW2 2362   4.638   4.758   3.785 -0.2802  0.5886  1.2170
  649SOL    HW3 2363   4.699   4.769   3.923  2.0079 -0.4687  0.3521
  649SOL    MW4 2364   4.691   4.727   3.847 -0.8066  0.4297 -0.6144
  650SOL     OW 2365   0.910   4.136   1.554  0.4969  0.4507  0.1151
  650SOL    HW2 2366   0.949   4.103   1.474  0.6531 -4.3921  1.8526
  650SOL    HW3 2367   0.816   4.124   1.542  0.5848 -1.2688  0.9488
  650SOL    MW4 2368   0.903   4.130   1.542 -0.2481 -0.1437  0.3315
  651SOL     OW 2369   0.620   1.851   2.755 -0.5723 -0.2781  0.2737
  651SOL    HW2 2370   0.530   1.820   2.761 -0.5500 -0.7003 -1.2230
  651SOL    HW3 2371   0.672   1.781   2.793 -0.6083 -1.7455 -2.1566
  651SOL    MW4 2372   0.615   1.838   2.761 -0.0957 -0.1329  0.1591
  652SOL     OW 2373   0.252   3.320   2.566  0.3660 -0.0737  0.0079
  652SOL    HW2 2374   0.211   3.253   2.510  0.3656 -0.8876  0.9552
  652SOL    HW3 2375   0.211   3.402   2.538 -1.5452 -0.7832  0.5276
  652SOL    MW4 2376   0.241   3.322   2.555  0.1868 -0.3650  0.1537
  653SOL     OW 2377   3.612   2.558   4.386 -0.2065  0.4553  0.0406
  653SOL    HW2 2378   3.573   2.513   4.311  0.4290  0.0891 -0.0804
  653SOL    HW3 2379   3.643   2.488   4.443  0.0388  0.7371  0.2598
  653SOL    MW4 2380   3.611   2.543   4.384 -0.0548 -0.3598  0.4183
  654SOL     OW 2381   1.999   0.980   0.253 -0.1827  0.2005 -0.4389
  654SOL    HW2 2382   2.009   0.990   0.348 -2.1180  1.0251 -0.2875
  654SOL    HW3 2383   2.081   1.013   0.217 -0.1274  1.5899  0.8746
  654SOL    MW4 2384   2.012   0.986   0.261  0.2856  0.2065 -0.1940
  655SOL     OW 2385   3.217   5.410   4.574 -0.3361 -0.4659 -0.1221
  655SOL    HW2 2386   3.275   5.464   4.628  2.2116 -1.2973 -1.8271
  655SOL    HW3 2387   3.174   5.471   4.515 -0.8379  0.1163  0.8251
  655SOL    MW4 2388   3.219   5.425   4.574 -0.0827 -0.1682 -0.2937
  656SOL     OW 2389   0.551   2.054   4.998 -0.9690  0.2449  0.2110
  656SOL    HW2 2390   0.498   2.105   5.058 -1.1810  0.6837 -0.3471
  656SOL    HW3 2391   0.489   1.997   4.953 -0.8438  0.0910  0.2319
  656SOL    MW4 2392   0.536   2.053   5.000  0.8971  0.1938  0.2834
  657SOL     OW 2393   4.583   3.193   1.316  0.0144 -0.0848 -0.4370
  657SOL    HW2 2394   4.512   3.170   1.375  1.2856 -0.8743  0.8321
  657SOL    HW3 2395   4.599   3.286   1.332 -0.0867 -0.1368 -0.0422
  657SOL    MW4 2396   4.575   3.202   1.326 -0.1895  0.1733  0.8721
  658SOL     OW 2397   2.739   4.327   5.815  0.3471  0.1066  0.3062
  658SOL    HW2 2398   2.729   4.241   5.775 -1.1638  0.5445 -0.3374
  658SOL    HW3 2399   2.834   4.344   5.813  0.7075 -1.6833  0.8177
  658SOL    MW4 2400   2.750   4.318   5.809 -0.5866 -0.6996 -0.3729
  659SOL     OW 2401   2.111   3.240   4.674 -0.1077  0.0313 -0.1130
  659SOL    HW2 2402   2.085   3.238   4.766 -0.6878 -1.7696 -0.2859
  659SOL    HW3 2403   2.128   3.333   4.656  0.4554  0.3602  1.9128
  659SOL    MW4 2404   2.110   3.252   4.683  0.1248  0.2485  0.1308
  660SOL     OW 2405   3.438   1.079   6.427 -0.3393  0.2414 -0.1918
  660SOL    HW2 2406   3.504   1.019   6.392 -0.7232  0.0949 -0.6694
  660SOL    HW3 2407   3.479   1.117   6.504 -0.0625 -0.5820  0.0758
  660SOL    MW4 2408   3.452   1.076   6.432 -0.5828  0.2282 -0.1491
  661SOL     OW 2409   0.980   6.120   3.790 -0.0670 -0.6845 -0.3020
  661SOL    HW2 2410   0.905   6.106   3.848 -0.0085 -0.6600 -0.2207
  661SOL    HW3 2411   0.948   6.094   3.704 -0.4663  0.2160 -0.4351
  661SOL    MW4 2412   0.966   6.114   3.786 -0.0504 -0.4179 -0.4663
  662SOL     OW 2413   5.997   5.630   4.243  0.7036 -0.2806  0.0105
  662SOL    HW2 2414   6.091   5.615   4.251  1.0360  0.6864 -1.6483
  662SOL    HW3 2415   5.989   5.714   4.197 -0.9678 -0.3692  0.0570
  662SOL    MW4 2416   6.008   5.639   4.238 -0.1444  0.3952 -0.2562
  663SOL     OW 2417   6.403   4.880   0.414 -0.2329  0.0632  0.3159
  663SOL    HW2 2418   6.376   4.919   0.331  1.6337  0.5750 -0.1080
  663SOL    HW3 2419   6.442   4.796   0.390 -1.8914 -0.9340  0.9649
  663SOL    MW4 2420   6.405   4.874   0.400 -0.3367 -0.3351 -0.2170
  664SOL     OW 2421   4.752   5.487   6.367  0.9929 -0.2502  0.3186
  664SOL    HW2 2422   4.725   5.425   6.434  1.5218 -0.3613  0.4338
  664SOL    HW3 2423   4.848   5.481   6.365  0.9628 -3.0436 -3.0668
  664SOL    MW4 2424   4.761   5.478   6.376 -0.3306 -0.7315  0.2292
  665SOL     OW 2425   1.702   5.048   2.351  0.5259 -0.1867  0.8106
  665SOL    HW2 2426   1.793   5.069   2.375  0.4729  1.3325 -0.1985
  665SOL    HW3 2427   1.666   5.130   2.320 -0.7022 -1.1458 -0.3884
  665SOL    MW4 2428   1.709   5.061   2.350 -0.3033  0.0913  0.0989
  666SOL     OW 2429   5.812   1.366   5.283 -0.8071  0.2713  0.0358
  666SOL    HW2 2430   5.783   1.299   5.344 -1.4658  0.4781 -0.0419
  666SOL    HW3 2431   5.740   1.375   5.221 -0.6102  0.8503 -0.1141
  666SOL    MW4 2432   5.799   1.359   5.283  0.2016  0.4913  0.5053
  667SOL     OW 2433   2.716   4.301   0.845 -0.5132  0.0370  0.3046
  667SOL    HW2 2434   2.768   4.369   0.804 -0.6386  0.3639  0.6824
  667SOL    HW3 2435   2.763   4.281   0.927 -1.1278  0.5357  0.7858
  667SOL    MW4 2436   2.729   4.307   0.850 -0.8377 -0.0267  0.3822
  668SOL     OW 2437   4.069   2.468   4.743 -0.0940 -0.4379  0.1292
  668SOL    HW2 2438   4.103   2.421   4.820  2.2607 -0.0991 -0.6240
  668SOL    HW3 2439   4.060   2.559   4.772  2.2219  0.0001 -0.3030
  668SOL    MW4 2440   4.073   2.474   4.757 -0.4702  0.1316 -0.0109
  669SOL     OW 2441   3.333   5.185   2.102  0.1127 -0.2531  0.2064
  669SOL    HW2 2442   3.307   5.257   2.159  0.5857 -0.8531  1.2061
  669SOL    HW3 2443   3.427   5.199   2.087  0.6369 -1.6530  1.9311
  669SOL    MW4 2444   3.342   5.196   2.107 -0.0623 -0.0438 -1.0708
  670SOL     OW 2445   4.245   2.496   4.533  0.0989  0.5912 -0.0648
  670SOL    HW2 2446   4.196   2.476   4.612 -2.0542  0.4575 -1.3610
  670SOL    HW3 2447   4.297   2.417   4.517 -1.2889 -0.3568 -0.0739
  670SOL    MW4 2448   4.246   2.483   4.541 -0.3774  0.5098 -0.2414
  671SOL     OW 2449   5.835   3.505   6.127  0.2196  0.2865 -0.2359
  671SOL    HW2 2450   5.767   3.531   6.189  0.5898 -1.3049  0.9051
  671SOL    HW3 2451   5.916   3.534   6.168  0.3663  0.5265 -0.6920
  671SOL    MW4 2452   5.837   3.512   6.141  0.0870 -0.2847 -0.1334
  672SOL     OW 2453   1.591   0.446   3.113  0.4592  0.3920  0.6727
  672SOL    HW2 2454   1.644   0.378   3.070  0.4323  1.0085 -0.3920
  672SOL    HW3 2455   1.596   0.521   3.053 -2.0658  0.3107  0.2284
  672SOL    MW4 2456   1.599   0.447   3.099  0.6032 -0.2847  0.3045
  673SOL     OW 2457   6.096   2.491   6.017 -0.3442  0.2150 -0.1653
  673SOL    HW2 2458   6.155   2.459   5.949 -1.0528 -3.0501  0.5518
  673SOL    HW3 2459   6.146   2.558   6.063  2.0555 -1.0323 -0.7765
  673SOL    MW4 2460   6.110   2.495   6.014  0.1584 -0.5352  0.0308
  674SOL     OW 2461   4.721   5.995   0.423 -0.4680 -0.6907 -0.1277
  674SOL    HW2 2462   4.631   6.025   0.423 -0.7678 -1.5255 -1.2163
  674SOL    HW3 2463   4.715   5.900   0.435  0.3519 -0.6091  1.2309
  674SOL    MW4 2464   4.708   5.986   0.424 -0.1159 -0.5875  0.0360
  675SOL     OW 2465   5.186   0.681   5.795 -0.1307  0.3702  0.3862
  675SOL    HW2 2466   5.197   0.659   5.888 -1.3960 -0.7935  0.2930
  675SOL    HW3 2467   5.276   0.692   5.763  0.3238  1.0676  1.7876
  675SOL    MW4 2468   5.200   0.680   5.803  0.6135 -0.6496  0.3603
  676SOL     OW 2469   0.609   6.331   5.700  0.1750 -0.4525  0.1711
  676SOL    HW2 2470   0.699   6.358   5.721  0.1936  0.0749 -0.5472
  676SOL    HW3 2471   0.558   6.354   5.778  0.8196 -1.6017  0.9517
  676SOL    MW4 2472   0.615   6.338   5.713  0.1086 -0.4333 -0.1689
  677SOL     OW 2473   3.570   3.212   1.813  0.3901  0.3412  0.4931
  677SOL    HW2 2474   3.559   3.158   1.734  3.1961 -0.8361  0.7925
  677SOL    HW3 2475   3.582   3.301   1.779 -0.5032  0.2003 -0.2472
  677SOL    MW4 2476   3.570   3.217   1.798  0.2444 -0.0670  0.4323
  678SOL     OW 2477   4.059   3.960   3.635  0.5450 -0.1074 -0.0699
  678SOL    HW2 2478   3.994   3.970   3.565 -0.2441  0.3345  0.6982
  678SOL    HW3 2479   4.141   3.938   3.590 -0.3772 -1.8917 -1.0028
  678SOL    MW4 2480   4.061   3.958   3.620 -0.1324  0.1763 -0.3554
  679SOL     OW 2481   2.029   0.980   1.136  0.0431  0.2551 -0.0242
  679SOL    HW2 2482   2.106   0.956   1.083  0.6466 -0.8473  1.2932
  679SOL    HW3 2483   2.056   1.061   1.179 -0.4912  1.2212 -1.4169
  679SOL    MW4 2484   2.043   0.988   1.134 -0.3405  0.1222  0.0705
  680SOL     OW 2485   3.760   2.094   5.509 -0.3532 -0.2223  0.2869
  680SOL    HW2 2486   3.811   2.063   5.435 -0.3627  0.5930 -0.0772
  680SOL    HW3 2487   3.674   2.055   5.498  0.4905 -2.6501  1.5983
  680SOL    MW4 2488   3.755   2.085   5.498 -0.1630  0.0458  0.5238
  681SOL     OW 2489   1.245   3.076   2.661 -0.3207  0.3183 -0.1138
  681SOL    HW2 2490   1.236   2.983   2.683 -2.5453  0.6742  0.7088
  681SOL    HW3 2491   1.301   3.077   2.584 -0.1355 -1.6916 -0.0606
  681SOL    MW4 2492   1.251   3.064   2.654 -0.3613 -0.1614 -0.1708
  682SOL     OW 2493   3.841   1.335   0.601  0.0377  0.7689 -0.5487
  682SOL    HW2 2494   3.837   1.353   0.507  0.2231 -0.6624 -0.8496
  682SOL    HW3 2495   3.798   1.251   0.611  2.0082 -0.1988  0.3303
  682SOL    MW4 2496   3.835   1.326   0.590 -0.4937 -0.0201 -0.0396
  683SOL     OW 2497   4.562   2.571   4.462  0.7336 -0.9079  0.0063
  683SOL    HW2 2498   4.501   2.635   4.500 -0.2138 -1.2464 -0.8936
  683SOL    HW3 2499   4.648   2.612   4.472  0.1267  0.7152 -0.9185
  683SOL    MW4 2500   4.565   2.585   4.468  0.3602 -0.1797  0.3929
  684SOL     OW 2501   5.753   1.632   6.278 -0.2305 -0.3789 -0.0934
  684SOL    HW2 2502   5.705   1.588   6.348 -1.1922  0.1807 -0.3747
  684SOL    HW3 2503   5.691   1.636   6.205 -0.0521  1.0733 -0.1966
  684SOL    MW4 2504   5.739   1.627   6.277  0.2800 -0.4339  0.0618
  685SOL     OW 2505   2.223   5.283   1.814 -0.3197 -0.0443  0.4579
  685SOL    HW2 2506   2.146   5.298   1.758 -0.2162 -0.8963  0.0569
  685SOL    HW3 2507   2.187   5.243   1.893 -0.2634 -0.9356  0.0553
  685SOL    MW4 2508   2.208   5.279   1.817  0.4439 -0.0618  0.1461
  686SOL     OW 2509   3.488   2.133   2.378 -0.3055  0.0502  0.0645
  686SOL    HW2 2510   3.563   2.158   2.431 -0.4313  0.1869  0.1779
  686SOL    HW3 2511   3.520   2.137   2.288 -0.8433  2.5098 -0.0720
  686SOL    MW4 2512   3.502   2.136   2.373  0.2404  0.7812  0.1153
  687SOL     OW 2513   1.583   0.708   3.627  0.3371  0.0307 -0.0393
  687SOL    HW2 2514   1.646   0.753   3.683 -0.6401  0.4789  0.7450
  687SOL    HW3 2515   1.629   0.695   3.544  0.9256  1.7762 -0.0333
  687SOL    MW4 2516   1.597   0.712   3.624  0.2624 -0.4321  0.1670
  688SOL     OW 2517   2.393   5.673   0.214  0.2446 -0.1138 -0.2086
  688SOL    HW2 2518   2.413   5.763   0.240  1.2721 -0.7471  1.3214
  688SOL    HW3 2519   2.300   5.675   0.189  0.3923  1.4623 -0.6932
  688SOL    MW4 2520   2.383   5.685   0.214 -0.2897 -0.7394 -0.2273
  689SOL     OW 2521   3.783   2.593   4.973  0.0532  0.2080  0.3758
  689SOL    HW2 2522   3.752   2.597   5.063 -0.0171 -1.6573  0.4697
  689SOL    HW3 2523   3.711   2.629   4.921 -1.4861 -2.0758  0.7792
  689SOL    MW4 2524   3.770   2.598   4.978 -0.0113 -0.4697 -0.1079
  690SOL     OW 2525   3.722   1.499   5.544 -0.2815 -0.0746 -0.1120
  690SOL    HW2 2526   3.698   1.483   5.453  0.6965 -0.8039 -0.2584
  690SOL    HW3 2527   3.714   1.594   5.555 -0.7528 -0.0246 -0.8535
  690SOL    MW4 2528   3.718   1.510   5.534 -0.4223  0.3174  0.1203
  691SOL     OW 2529   5.951   2.835   1.055 -0.6225  0.6153 -0.0225
  691SOL    HW2 2530   5.972   2.812   0.965 -3.1933  0.2005 -0.6125
  691SOL    HW3 2531   5.884   2.903   1.048 -0.2596  1.1946  1.5888
  691SOL    MW4 2532   5.945   2.841   1.042 -0.3315  0.4968 -0.0771
  692SOL     OW 2533   5.513   3.700   4.496  0.0480  0.0646 -0.1544
  692SOL    HW2 2534   5.498   3.723   4.588 -0.6431 -0.6915 -0.0648
  692SOL    HW3 2535   5.467   3.617   4.485  0.9528 -0.3511 -0.9299
  692SOL    MW4 2536   5.505   3.692   4.507 -0.2604 -0.5719  0.5473
  693SOL     OW 2537   3.632   0.444   2.596 -0.3574  0.0753 -1.0183
  693SOL    HW2 2538   3.658   0.417   2.508  0.4091 -0.2288 -0.7098
  693SOL    HW3 2539   3.712   0.435   2.648 -0.4579  1.5297 -0.5781
  693SOL    MW4 2540   3.646   0.439   2.591  0.3807  0.0389 -0.1560
  694SOL     OW 2541   2.998   2.479   0.942 -0.2904  0.1265  0.0036
  694SOL    HW2 2542   3.039   2.514   1.022 -0.7671 -1.5812  1.0604
  694SOL    HW3 2543   3.026   2.387   0.940 -0.6495  0.0360 -1.5775
  694SOL    MW4 2544   3.007   2.471   0.953  0.0135  0.0959 -0.3630
  695SOL     OW 2545   4.870   0.605   0.471  0.3226 -0.5474 -0.1767
  695SOL    HW2 2546   4.831   0.637   0.552  0.9438  0.0910 -0.1253
  695SOL    HW3 2547   4.876   0.510   0.484 -0.7781 -0.6081 -0.0104
  695SOL    MW4 2548   4.865   0.596   0.483 -0.0712 -0.3128  0.1039
  696SOL     OW 2549   3.523   0.406   3.849  0.0511 -0.0585  0.4602
  696SOL    HW2 2550   3.572   0.372   3.924 -0.6918 -0.4977  0.7632
  696SOL    HW3 2551   3.432   0.382   3.867 -0.2118  0.3037 -0.3254
  696SOL    MW4 2552   3.517   0.398   3.861  0.2349  0.4156  0.2618
  697SOL     OW 2553   2.465   1.852   2.351  0.6113 -0.4602 -0.2297
  697SOL    HW2 2554   2.499   1.789   2.416  3.3330 -0.4023 -1.4583
  697SOL    HW3 2555   2.535   1.916   2.341 -1.6749  2.3205  0.2391
  697SOL    MW4 2556   2.479   1.852   2.359 -0.0983  0.3313 -0.0237
  698SOL     OW 2557   4.093   5.308   3.064  0.2158  0.1061  0.4651
  698SOL    HW2 2558   4.011   5.304   3.015  0.5671  1.2295 -0.2848
  698SOL    HW3 2559   4.139   5.228   3.040 -0.3867 -0.2196  0.3768
  698SOL    MW4 2560   4.088   5.297   3.054  0.1173 -0.3232 -0.4356
  699SOL     OW 2561   6.390   3.761   2.844  0.8679 -0.1239 -0.1172
  699SOL    HW2 2562   6.420   3.796   2.928 -0.0423 -0.1501  0.2270
  699SOL    HW3 2563   6.434   3.676   2.837 -1.0300 -1.3636  1.6093
  699SOL    MW4 2564   6.400   3.754   2.855  0.4787 -0.0149  0.1542
  700SOL     OW 2565   0.938   3.674   2.832  0.0475  0.4721 -0.1573
  700SOL    HW2 2566   0.890   3.727   2.896  0.8426  0.7555  0.2196
  700SOL    HW3 2567   1.014   3.642   2.880  1.0294  1.2446 -1.1243
  700SOL    MW4 2568   0.942   3.677   2.847 -0.1575  0.4637  0.1563
  701SOL     OW 2569   0.743   4.003   5.334 -0.0291  0.6858  0.0199
  701SOL    HW2 2570   0.800   3.976   5.406  0.8759  0.2517 -0.8363
  701SOL    HW3 2571   0.694   4.077   5.370 -0.3372 -0.1463  1.4101
  701SOL    MW4 2572   0.744   4.010   5.349 -0.1122 -0.2559 -0.4268
  702SOL     OW 2573   2.566   0.714   5.909 -0.3026 -0.1420  0.8070
  702SOL    HW2 2574   2.652   0.678   5.887  0.3438 -0.0147  2.8759
  702SOL    HW3 2575   2.504   0.649   5.875  0.4899  0.2975 -1.6997
  702SOL    MW4 2576   2.569   0.700   5.902  0.1397 -0.5076  0.5247
  703SOL     OW 2577   5.671   3.236   5.965  0.2391 -0.3032 -0.1797
  703SOL    HW2 2578   5.681   3.291   6.042 -0.4212 -1.1311  0.5144
  703SOL    HW3 2579   5.707   3.151   5.990 -2.0492 -1.2749  0.0620
  703SOL    MW4 2580   5.677   3.232   5.978 -0.0832  0.4653 -0.1185
  704SOL     OW 2581   4.762   3.575   4.622 -0.0438  0.2355  0.0156
  704SOL    HW2 2582   4.802   3.580   4.535 -0.8338  1.5542 -0.3056
  704SOL    HW3 2583   4.695   3.506   4.614  1.7382 -1.6237  0.4145
  704SOL    MW4 2584   4.758   3.566   4.609 -0.1044  0.0392 -0.4689
  705SOL     OW 2585   5.114   4.768   6.351  0.3911 -0.2847 -0.1304
  705SOL    HW2 2586   5.019   4.775   6.349  0.4027 -0.2021 -0.4876
  705SOL    HW3 2587   5.141   4.779   6.259  0.5942 -2.4813 -0.3925
  705SOL    MW4 2588   5.105   4.770   6.338 -0.0435  0.2186  0.1936
  706SOL     OW 2589   4.778   2.182   5.243 -0.4501  0.6412 -0.1317
  706SOL    HW2 2590   4.841   2.174   5.171 -1.4020 -1.2032 -0.8286
  706SOL    HW3 2591   4.818   2.132   5.315 -0.5237  0.5796 -0.1336
  706SOL    MW4 2592   4.792   2.174   5.243  0.4459 -0.4318 -0.3242
  707SOL     OW 2593   5.908   2.542   1.775  0.0442  0.1823 -0.2380
  707SOL    HW2 2594   5.840   2.511   1.835 -1.3660  2.5262 -0.5163
  707SOL    HW3 2595   5.888   2.500   1.692  0.5347 -1.1377  0.2717
  707SOL    MW4 2596   5.896   2.533   1.772  0.0632 -0.2915 -0.1234
  708SOL     OW 2597   4.313   3.236   3.344 -0.1644  0.0267  0.1035
  708SOL    HW2 2598   4.367   3.253   3.266 -1.5393 -3.5028 -1.9001
  708SOL    HW3 2599   4.376   3.208   3.411  0.8937  1.3494 -0.2765
  708SOL    MW4 2600   4.329   3.234   3.342 -0.3691 -0.1023 -0.0318
  709SOL     OW 2601   3.229   4.882   5.301 -0.2999  0.2694 -0.0532
  709SOL    HW2 2602   3.148   4.933   5.294 -1.6135 -1.0825  3.0146
  709SOL    HW3 2603   3.229   4.825   5.224 -1.9213  0.7981 -0.4840
  709SOL    MW4 2604   3.218   4.881   5.290 -0.0225 -0.9464  0.9222
  710SOL     OW 2605   0.955   3.873   1.632 -0.1309 -0.3881  0.6330
  710SOL    HW2 2606   0.915   3.851   1.716 -1.4342 -2.8547 -0.5270
  710SOL    HW3 2607   0.928   3.964   1.616  0.2806  0.1901  2.8995
  710SOL    MW4 2608   0.946   3.882   1.641 -0.0289  0.1534 -0.2516
  711SOL     OW 2609   4.386   5.341   0.812 -0.2857 -0.4921 -0.2639
  711SOL    HW2 2610   4.350   5.259   0.777  1.8656 -1.7573  0.3203
  711SOL    HW3 2611   4.353   5.345   0.902 -1.4033 -0.0398 -0.6759
  711SOL    MW4 2612   4.377   5.331   0.819 -0.5542  0.2346 -0.3019
  712SOL     OW 2613   2.243   1.186   0.311  0.1684 -0.8940 -0.1621
  712SOL    HW2 2614   2.269   1.121   0.377  0.0652 -1.7162 -0.9061
  712SOL    HW3 2615   2.240   1.136   0.229 -1.8314 -0.4094 -0.4482
  712SOL    MW4 2616   2.246   1.171   0.309 -0.0984  0.4826  0.0440
  713SOL     OW 2617   4.512   4.268   4.811  0.5304  0.0958 -0.3155
  713SOL    HW2 2618   4.567   4.346   4.808  1.2271 -0.1877  2.2952
  713SOL    HW3 2619   4.561   4.206   4.866 -0.8497 -1.4759 -0.7653
  713SOL    MW4 2620   4.525   4.270   4.818 -0.0809 -0.4718  0.5997
  714SOL     OW 2621   2.129   5.451   3.500  0.3463  0.3162  0.1736
  714SOL    HW2 2622   2.072   5.401   3.442 -0.4566  0.6739  0.6505
  714SOL    HW3 2623   2.133   5.538   3.461 -1.6132  1.0818  1.5572
  714SOL    MW4 2624   2.122   5.456   3.487  0.1465 -0.4810  0.2825
  715SOL     OW 2625   3.376   4.381   0.881  0.3544  0.3067 -0.1068
  715SOL    HW2 2626   3.398   4.468   0.915 -0.0453  0.6956 -0.8155
  715SOL    HW3 2627   3.376   4.391   0.786 -1.0167 -0.1237 -0.1845
  715SOL    MW4 2628   3.379   4.394   0.873  0.4152 -0.0362 -0.0658
  716SOL     OW 2629   0.503   0.899   1.773  0.2633  0.2324  0.3118
  716SOL    HW2 2630   0.430   0.840   1.754 -1.0548  1.3319  1.7163
  716SOL    HW3 2631   0.514   0.950   1.692 -2.4043  1.9299  0.8981
  716SOL    MW4 2632   0.495   0.898   1.760 -0.7127 -0.9614 -0.4141
  717SOL     OW 2633   0.077   3.839   1.690 -0.3043 -0.6739  0.2928
  717SOL    HW2 2634   0.086   3.784   1.612  0.5302  0.4518 -0.4298
  717SOL    HW3 2635  -0.017   3.838   1.709 -0.5471 -0.7964 -0.8414
  717SOL    MW4 2636   0.066   3.831   1.683  0.5718 -0.2997 -0.1436
  718SOL     OW 2637   4.191   2.662   5.480 -0.4197  0.0243 -0.7890
  718SOL    HW2 2638   4.188   2.581   5.428 -1.1058  0.5020 -1.5144
  718SOL    HW3 2639   4.260   2.646   5.545  1.2045 -0.2186 -2.4823
  718SOL    MW4 2640   4.200   2.649   5.482  0.0908 -0.1462  0.0088
  719SOL     OW 2641   4.271   2.235   3.159  0.0403  0.2605 -0.0464
  719SOL    HW2 2642   4.192   2.283   3.185 -1.1989  0.1402 -3.1543
  719SOL    HW3 2643   4.327   2.302   3.119 -0.0313 -0.2010 -0.9461
  719SOL    MW4 2644   4.268   2.251   3.157  0.5466  0.1261 -0.2596
  720SOL     OW 2645   0.526   3.234   2.520  0.2707  0.3326  0.2795
  720SOL    HW2 2646   0.443   3.282   2.531  0.0676 -0.0413  0.4192
  720SOL    HW3 2647   0.561   3.265   2.437  1.2548  2.3630  1.4032
  720SOL    MW4 2648   0.519   3.244   2.511 -0.2141 -0.2152 -0.0158
  721SOL     OW 2649   5.761   2.102   3.232 -0.4940  0.2324  0.7532
  721SOL    HW2 2650   5.853   2.130   3.233 -0.8050  1.3216  0.3899
  721SOL    HW3 2651   5.712   2.184   3.237 -1.4684 -0.0930 -2.1788
  721SOL    MW4 2652   5.767   2.117   3.233 -0.0617  0.6215  0.0946
  722SOL     OW 2653   5.637   3.829   1.344 -0.6264  0.8141 -0.1210
  722SOL    HW2 2654   5.661   3.755   1.288 -1.0682 -0.1774  0.9669
  722SOL    HW3 2655   5.615   3.789   1.428 -0.5550  2.2220  0.5872
  722SOL    MW4 2656   5.637   3.814   1.347 -0.2057 -1.0515 -0.0906
  723SOL     OW 2657   3.368   5.979   4.547 -0.1937 -0.0257  0.2253
  723SOL    HW2 2658   3.435   5.942   4.605  0.3077 -0.1295 -0.4089
  723SOL    HW3 2659   3.416   6.034   4.486 -0.8649  1.1387  0.7075
  723SOL    MW4 2660   3.383   5.981   4.547  0.3834 -0.3345  0.1125
  724SOL     OW 2661   4.614   5.506   0.743 -0.4648 -0.0749 -0.4847
  724SOL    HW2 2662   4.545   5.442   0.757 -0.4400 -0.4383 -1.9152
  724SOL    HW3 2663   4.690   5.454   0.715 -0.3757  0.5414 -1.4280
  724SOL    MW4 2664   4.615   5.491   0.741 -0.2462  0.5886  0.2527
  725SOL     OW 2665   4.846   5.334   5.907  0.5011  0.2483  0.0251
  725SOL    HW2 2666   4.811   5.246   5.893 -1.6957  0.8503  1.2918
  725SOL    HW3 2667   4.860   5.368   5.819 -1.1330 -0.4497 -0.5449
  725SOL    MW4 2668   4.843   5.327   5.893  0.1635 -0.1339  0.0271
  726SOL     OW 2669   2.860   2.274   0.194 -0.2273  0.9684 -0.1982
  726SOL    HW2 2670   2.826   2.235   0.114 -0.7418  1.3861 -0.1887
  726SOL    HW3 2671   2.854   2.204   0.259  1.7560  0.0930 -0.8915
  726SOL    MW4 2672   2.855   2.260   0.192 -0.3419 -0.6883 -0.1788
  727SOL     OW 2673   5.820   4.834   0.144 -0.5565  0.4883  0.4438
  727SOL    HW2 2674   5.867   4.910   0.179 -0.3661  0.2963  0.5986
  727SOL    HW3 2675   5.821   4.848   0.049  0.7404 -0.0480  0.3575
  727SOL    MW4 2676   5.826   4.846   0.136  0.0329  0.4370  0.2925
  728SOL     OW 2677   5.531   2.806   2.314  0.3654 -0.0584  0.5253
  728SOL    HW2 2678   5.471   2.875   2.345 -2.1863 -1.6512 -0.5366
  728SOL    HW3 2679   5.507   2.793   2.222  1.7818 -1.3995  0.3012
  728SOL    MW4 2680   5.520   2.814   2.306 -0.3094  0.4798 -0.3141
  729SOL     OW 2681   5.617   3.900   6.053  0.1859 -0.5240  0.3234
  729SOL    HW2 2682   5.654   3.974   6.006 -0.4954  0.0865  0.7362
  729SOL    HW3 2683   5.523   3.917   6.057  0.2196 -0.5035  1.9552
  729SOL    MW4 2684   5.609   3.912   6.047 -0.2263  0.2189 -0.1992
  730SOL     OW 2685   4.879   1.128   5.466 -0.0181  0.8058  0.0815
  730SOL    HW2 2686   4.810   1.100   5.525 -0.8362  1.8581 -0.3379
  730SOL    HW3 2687   4.948   1.160   5.524  0.6308 -1.2807  0.5372
  730SOL    MW4 2688   4.879   1.129   5.482  0.4274 -0.1659  0.5549
  731SOL     OW 2689   2.551   5.085   4.137 -0.1804 -0.6121 -0.0621
  731SOL    HW2 2690   2.481   5.019   4.137 -1.6175  0.7561  2.4499
  731SOL    HW3 2691   2.514   5.160   4.092  0.2301 -0.3741 -0.0114
  731SOL    MW4 2692   2.537   5.086   4.131  0.3054  0.5277  0.1350
  732SOL     OW 2693   4.052   5.751   4.299  0.0468  0.0776  0.1367
  732SOL    HW2 2694   4.098   5.834   4.316  1.2122 -0.5367  0.0531
  732SOL    HW3 2695   3.999   5.737   4.378 -0.2689  0.9611  0.0955
  732SOL    MW4 2696   4.051   5.760   4.312  0.1779  0.0421 -0.2690
  733SOL     OW 2697   0.247   1.785   3.744 -0.0200  0.4042 -0.4435
  733SOL    HW2 2698   0.238   1.861   3.800 -0.1525  0.5805 -0.7007
  733SOL    HW3 2699   0.276   1.820   3.660 -0.7457  0.2550 -0.7678
  733SOL    MW4 2700   0.250   1.799   3.740  0.5996 -0.3195 -0.0306
  734SOL     OW 2701   5.940   1.527   5.510 -0.1912 -0.3879 -0.6288
  734SOL    HW2 2702   5.861   1.561   5.551 -0.1587 -2.0138  0.9079
  734SOL    HW3 2703   5.910   1.480   5.432 -1.1158 -2.9747  1.1483
  734SOL    MW4 2704   5.926   1.525   5.505 -0.0064 -0.0571  0.1363
  735SOL     OW 2705   3.944   0.185   2.944  0.6010  0.8083  0.1377
  735SOL    HW2 2706   3.903   0.253   2.890 -0.2764 -1.2953 -2.0301
  735SOL    HW3 2707   3.876   0.119   2.957  2.0081 -0.6945  0.2456
  735SOL    MW4 2708   3.930   0.185   2.938  0.3896  0.0763  0.2142
  736SOL     OW 2709   3.804   4.598   3.970 -0.2000  0.4385  0.1068
  736SOL    HW2 2710   3.844   4.592   3.883  1.4219 -1.6906  0.9280
  736SOL    HW3 2711   3.871   4.640   4.024 -0.3924 -0.1107  0.7817
  736SOL    MW4 2712   3.818   4.603   3.965 -0.0262  0.2006 -0.6248
  737SOL     OW 2713   5.672   0.222   2.524 -0.1124 -0.2043 -0.1788
  737SOL    HW2 2714   5.592   0.261   2.490 -0.8983 -2.2232 -0.7716
  737SOL    HW3 2715   5.647   0.186   2.609  0.3715 -0.1525 -0.0126
  737SOL    MW4 2716   5.658   0.223   2.530 -0.4533 -0.6260  0.6198
  738SOL     OW 2717   1.131   6.090   2.198  0.1877  0.0075  0.4406
  738SOL    HW2 2718   1.059   6.043   2.156  2.2118 -1.9875 -1.0305
  738SOL    HW3 2719   1.167   6.146   2.129  1.3888 -0.6644  0.5082
  738SOL    MW4 2720   1.126   6.092   2.183 -0.1333 -0.0110  0.3865
  739SOL     OW 2721   6.383   6.310   0.956 -0.4362  0.1151  0.0089
  739SOL    HW2 2722   6.291   6.309   0.930 -0.2404 -0.1285 -0.6870
  739SOL    HW3 2723   6.428   6.358   0.887 -0.2267  1.4773  1.0363
  739SOL    MW4 2724   6.377   6.316   0.944  0.1493 -0.2713 -0.7552
  740SOL     OW 2725   0.969   5.149   4.601  0.3013  0.2992 -0.7788
  740SOL    HW2 2726   1.050   5.104   4.575  0.3651  0.3298 -0.6369
  740SOL    HW3 2727   0.902   5.081   4.596  0.2570  0.3805 -1.3141
  740SOL    MW4 2728   0.971   5.134   4.597  0.1294  0.0091 -0.7777
  741SOL     OW 2729   2.014   0.307   6.326 -0.8300  0.0854  0.4477
  741SOL    HW2 2730   2.110   0.303   6.328 -0.6560  2.5450  2.4159
  741SOL    HW3 2731   1.986   0.216   6.322  1.5819 -0.6959 -0.1896
  741SOL    MW4 2732   2.023   0.295   6.326 -0.1628 -0.3795 -0.5707
  742SOL     OW 2733   3.207   5.904   5.888  0.4440  0.1734  0.1968
  742SOL    HW2 2734   3.299   5.929   5.891  0.3052  0.6063  1.0978
  742SOL    HW3 2735   3.159   5.983   5.914 -0.2276  0.1532 -0.9073
  742SOL    MW4 2736   3.213   5.918   5.891  0.5974  0.4529  0.5538
  743SOL     OW 2737   1.630   3.638   0.757 -0.7339 -0.1028  0.1331
  743SOL    HW2 2738   1.704   3.659   0.813 -0.7886  0.0461  0.1489
  743SOL    HW3 2739   1.559   3.616   0.817 -0.4819 -1.0038  0.1125
  743SOL    MW4 2740   1.630   3.638   0.772 -0.4155 -0.4668  0.3734
  744SOL     OW 2741   0.118   0.599   5.871  0.4325 -0.6050  0.8380
  744SOL    HW2 2742   0.163   0.584   5.954 -0.6510 -1.2090  1.3445
  744SOL    HW3 2743   0.107   0.512   5.834  1.4730 -0.2820 -0.2633
  744SOL    MW4 2744   0.122   0.586   5.877 -0.1713  0.1913 -0.5346
  745SOL     OW 2745   3.533   5.172   1.511 -0.1226 -0.1822 -0.2048
  745SOL    HW2 2746   3.474   5.246   1.522  0.7503  0.3801  0.9383
  745SOL    HW3 2747   3.556   5.173   1.418 -0.5698  0.6349 -0.3127
  745SOL    MW4 2748   3.529   5.182   1.500  0.1784  0.1047  0.3911
  746SOL     OW 2749   1.719   6.398   5.005 -0.0834  0.3413  0.1194
  746SOL    HW2 2750   1.691   6.309   5.026  0.9557  0.1026  0.5369
  746SOL    HW3 2751   1.814   6.397   5.016 -0.1670  1.7962  1.2441
  746SOL    MW4 2752   1.728   6.386   5.009  0.7053  1.1101  0.7544
  747SOL     OW 2753   0.077   3.860   3.087  0.3315 -0.1229 -0.3333
  747SOL    HW2 2754   0.025   3.939   3.104  1.3627  0.5447 -0.1461
  747SOL    HW3 2755   0.167   3.892   3.082  0.7162 -1.2281 -0.7673
  747SOL    MW4 2756   0.082   3.875   3.088 -0.0486  0.0541 -0.0217
  748SOL     OW 2757   6.384   1.816   5.424 -0.5109 -0.4838 -0.4203
  748SOL    HW2 2758   6.379   1.744   5.360  1.7695 -3.0963  2.0471
  748SOL    HW3 2759   6.476   1.841   5.425 -0.9916  1.4071 -0.0510
  748SOL    MW4 2760   6.396   1.810   5.416  0.0374 -0.3460 -0.0775
  749SOL     OW 2761   2.069   1.182   0.878  0.3124 -0.1291  0.4580
  749SOL    HW2 2762   2.044   1.092   0.902  0.0940  0.0075  0.7594
  749SOL    HW3 2763   2.143   1.172   0.819  0.3138 -0.5082  0.5224
  749SOL    MW4 2764   2.075   1.169   0.873 -0.3783  0.0862  0.1603
  750SOL     OW 2765   5.253   1.686   3.468  0.6869  0.5935  0.0562
  750SOL    HW2 2766   5.336   1.732   3.456  0.4137  0.9661 -0.4659
  750SOL    HW3 2767   5.201   1.709   3.391  0.6348 -0.8039 -0.3575
  750SOL    MW4 2768   5.257   1.695   3.456  0.4179 -0.3121 -0.1677
  751SOL     OW 2769   5.667   1.326   4.974  0.1652 -0.2696  0.1344
  751SOL    HW2 2770   5.662   1.343   4.880  0.9395 -1.1194 -0.0715
  751SOL    HW3 2771   5.663   1.413   5.014  1.2796  0.2198 -0.7630
  751SOL    MW4 2772   5.666   1.340   4.967 -0.2794  0.5470  0.9414
  752SOL     OW 2773   5.409   1.530   1.695 -0.1768  0.3705 -0.2959
  752SOL    HW2 2774   5.409   1.449   1.644  0.3253 -0.1846  0.5771
  752SOL    HW3 2775   5.477   1.518   1.760 -0.8344  1.0573  0.5452
  752SOL    MW4 2776   5.418   1.518   1.697  0.0148 -0.4808 -0.6534
  753SOL     OW 2777   2.076   3.775   5.282 -0.6913 -0.7279  0.1696
  753SOL    HW2 2778   2.158   3.727   5.296 -0.0750  0.3741  0.4840
  753SOL    HW3 2779   2.093   3.862   5.318 -1.9215 -0.4018 -0.0005
  753SOL    MW4 2780   2.089   3.780   5.288  0.0752  0.6424  0.1866
  754SOL     OW 2781   5.667   4.080   1.479  0.3172  0.0405 -0.7581
  754SOL    HW2 2782   5.641   4.001   1.431  1.0734 -0.4856 -0.3215
  754SOL    HW3 2783   5.641   4.152   1.422  1.9429 -0.5793 -2.3484
  754SOL    MW4 2784   5.660   4.079   1.465  0.0361  0.0474 -0.1398
  755SOL     OW 2785   6.104   3.177   0.532 -0.2126  0.0306  0.1199
  755SOL    HW2 2786   6.108   3.162   0.437  2.1047 -1.3716  0.3553
  755SOL    HW3 2787   6.144   3.264   0.543  0.8743 -0.4239 -0.1057
  755SOL    MW4 2788   6.110   3.187   0.521 -0.1666 -0.0765  0.2909
  756SOL     OW 2789   3.964   1.717   5.246  0.0500 -0.5746 -0.0084
  756SOL    HW2 2790   3.970   1.727   5.341  0.2757 -0.1503 -0.0617
  756SOL    HW3 2791   4.049   1.747   5.213 -1.0008  2.1282 -0.5411
  756SOL    MW4 2792   3.976   1.722   5.254 -0.2908 -0.1117  1.0488
  757SOL     OW 2793   3.867   0.827   6.155 -0.3415  0.1334 -0.2337
  757SOL    HW2 2794   3.886   0.896   6.218 -4.6138  0.6480  0.7833
  757SOL    HW3 2795   3.860   0.872   6.071  2.1045 -0.0562 -0.6312
  757SOL    MW4 2796   3.869   0.842   6.152 -0.1801  0.6429  0.1526
  758SOL     OW 2797   1.033   1.549   5.024  0.2571 -0.1689  0.0426
  758SOL    HW2 2798   0.942   1.568   5.002  0.6806  1.0214 -0.8148
  758SOL    HW3 2799   1.035   1.454   5.039 -1.0467 -0.2596 -0.2356
  758SOL    MW4 2800   1.021   1.539   5.023 -0.1725 -0.4895  0.5389
  759SOL     OW 2801   4.553   4.506   4.031  0.2959  0.0629 -0.0591
  759SOL    HW2 2802   4.550   4.584   3.976  0.5271  0.2357  0.1688
  759SOL    HW3 2803   4.496   4.443   3.987  1.2168 -0.1333 -1.0008
  759SOL    MW4 2804   4.545   4.508   4.018 -0.2420 -0.4371 -0.4047
  760SOL     OW 2805   3.739   5.703   4.806  0.5428 -0.8345 -0.0175
  760SOL    HW2 2806   3.789   5.625   4.782 -0.4115 -1.3264 -0.4709
  760SOL    HW3 2807   3.775   5.730   4.890  2.4067 -0.4389 -0.8984
  760SOL    MW4 2808   3.750   5.696   4.814 -0.4634 -0.1448 -0.1052
  761SOL     OW 2809   5.219   0.932   3.660 -0.0433  0.2871  0.7395
  761SOL    HW2 2810   5.310   0.943   3.632 -0.9593  0.5329 -2.5524
  761SOL    HW3 2811   5.219   0.851   3.712  1.4807 -2.2323 -2.7785
  761SOL    MW4 2812   5.231   0.922   3.663 -0.2406 -0.2913 -0.7636
  762SOL     OW 2813   3.958   0.109   3.482 -0.9319 -0.5756 -0.1904
  762SOL    HW2 2814   4.002   0.028   3.454  0.8118  0.5022 -0.7581
  762SOL    HW3 2815   3.897   0.129   3.412 -1.4428 -1.4327 -0.0049
  762SOL    MW4 2816   3.956   0.101   3.469  0.2166  0.3073 -0.5097
  763SOL     OW 2817   4.329   4.892   2.776  0.2781  0.6487  0.4037
  763SOL    HW2 2818   4.281   4.964   2.735 -1.0248 -1.2438 -1.6241
  763SOL    HW3 2819   4.405   4.878   2.720 -0.2903 -0.4847 -0.1208
  763SOL    MW4 2820   4.332   4.900   2.763 -0.1576 -0.8268 -0.1357
  764SOL     OW 2821   3.011   3.811   0.353 -0.1328  0.1563  0.5933
  764SOL    HW2 2822   2.925   3.772   0.334  0.2639 -0.5678  0.2543
  764SOL    HW3 2823   3.068   3.779   0.283  0.3164  0.9866  0.5630
  764SOL    MW4 2824   3.007   3.802   0.341  0.3118  0.5283  0.5427
  765SOL     OW 2825   1.324   2.601   3.614  0.4551  0.2084 -0.3029
  765SOL    HW2 2826   1.237   2.641   3.616  0.8325  1.0106  1.1732
  765SOL    HW3 2827   1.316   2.530   3.550 -1.2687  0.2978 -0.2327
  765SOL    MW4 2828   1.311   2.597   3.606 -0.5003  0.3578  0.0686
  766SOL     OW 2829   0.311   2.208   0.741 -0.3497  0.0611  0.4316
  766SOL    HW2 2830   0.321   2.286   0.796  0.6051 -0.2471  0.7116
  766SOL    HW3 2831   0.217   2.200   0.728 -0.5458  0.5347  1.4551
  766SOL    MW4 2832   0.300   2.217   0.746  0.5710  0.0025 -0.0187
  767SOL     OW 2833   0.543   1.123   2.360 -0.5772 -0.2702  0.2888
  767SOL    HW2 2834   0.537   1.066   2.283  1.8694 -1.9674  1.2309
  767SOL    HW3 2835   0.454   1.123   2.397 -1.0507 -2.0441 -0.7439
  767SOL    MW4 2836   0.530   1.115   2.355 -0.3259 -0.3308  0.2788
  768SOL     OW 2837   6.024   1.749   1.800 -0.5723 -0.1807 -0.0401
  768SOL    HW2 2838   5.982   1.799   1.730  0.4380 -1.4866 -1.6627
  768SOL    HW3 2839   6.086   1.810   1.840 -2.1741  1.0125  0.7298
  768SOL    MW4 2840   6.027   1.764   1.796 -0.2349 -0.5720 -0.0143
  769SOL     OW 2841   5.308   1.604   1.112  0.0263 -0.2348  0.3041
  769SOL    HW2 2842   5.296   1.530   1.172  0.1010  0.2804  0.9642
  769SOL    HW3 2843   5.296   1.682   1.166 -0.8405  0.2443 -0.5491
  769SOL    MW4 2844   5.305   1.604   1.127  0.0599 -0.1138 -0.0213
  770SOL     OW 2845   1.821   4.160   2.448  0.2749 -0.3224 -0.4386
  770SOL    HW2 2846   1.837   4.250   2.475 -0.0511 -0.3788 -0.0541
  770SOL    HW3 2847   1.745   4.165   2.389  1.0646 -0.1823 -1.4718
  770SOL    MW4 2848   1.813   4.172   2.444  0.3886  0.2168 -0.2076
  771SOL     OW 2849   3.507   4.936   5.061 -0.3368  0.6309 -0.5099
  771SOL    HW2 2850   3.588   4.977   5.091  0.9468 -0.8592 -1.7658
  771SOL    HW3 2851   3.495   4.860   5.117 -0.4767  0.4653 -0.7595
  771SOL    MW4 2852   3.516   4.932   5.072  0.1513  0.7810  0.3751
  772SOL     OW 2853   0.482   3.941   2.229  0.1701  0.4875  0.3826
  772SOL    HW2 2854   0.484   4.030   2.195 -0.9554  0.2640 -0.3351
  772SOL    HW3 2855   0.417   3.943   2.300 -3.3544 -0.6016 -2.4757
  772SOL    MW4 2856   0.474   3.953   2.234  0.2652  0.2094 -0.0773
  773SOL     OW 2857   5.269   5.543   5.156 -0.0575  0.6509 -0.0517
  773SOL    HW2 2858   5.285   5.451   5.177 -0.3247  0.4416 -0.7171
  773SOL    HW3 2859   5.255   5.543   5.061  0.4740  1.4551 -0.1341
  773SOL    MW4 2860   5.269   5.531   5.146  0.2719 -0.6026 -0.3280
  774SOL     OW 2861   3.054   3.418   0.866  0.6641 -0.1903  0.2555
  774SOL    HW2 2862   2.997   3.403   0.791  0.5443 -0.6849  0.4395
  774SOL    HW3 2863   3.024   3.355   0.931 -0.6801  1.6724  1.5404
  774SOL    MW4 2864   3.043   3.407   0.865  0.0416  0.5684 -0.5288
  775SOL     OW 2865   0.274   2.770   0.844  0.0571  0.7117  0.0054
  775SOL    HW2 2866   0.237   2.720   0.917 -0.0137  0.8245  0.0482
  775SOL    HW3 2867   0.323   2.706   0.793 -2.2484  0.0263 -1.4783
  775SOL    MW4 2868   0.276   2.755   0.847 -0.1446 -0.1405 -0.0744
  776SOL     OW 2869   4.168   3.698   1.200 -0.6326 -0.4426  0.1060
  776SOL    HW2 2870   4.211   3.714   1.116  1.2564 -0.1427  1.0672
  776SOL    HW3 2871   4.221   3.631   1.242 -0.3506  0.8012  1.8534
  776SOL    MW4 2872   4.181   3.691   1.194  0.1693 -0.1412 -0.0084
  777SOL     OW 2873   5.069   5.680   5.297 -0.3144  0.1779 -0.0539
  777SOL    HW2 2874   5.149   5.654   5.252 -0.7085  0.2271 -0.7848
  777SOL    HW3 2875   5.012   5.604   5.293  0.0427 -0.1930  1.3119
  777SOL    MW4 2876   5.072   5.667   5.291 -0.0302 -0.3714  0.5608
  778SOL     OW 2877   4.970   0.385   1.369 -0.0568 -0.3421  0.4709
  778SOL    HW2 2878   4.964   0.361   1.277 -0.4579 -0.6694  0.5781
  778SOL    HW3 2879   5.024   0.464   1.370 -0.8805  0.2439 -0.1492
  778SOL    MW4 2880   4.976   0.392   1.357 -0.4512 -0.0138  0.0317
  779SOL     OW 2881   3.292   5.598   5.789 -0.4468  0.7402  0.3788
  779SOL    HW2 2882   3.296   5.557   5.876 -1.2933  1.0758  0.5833
  779SOL    HW3 2883   3.271   5.526   5.730  1.7152  0.1819  0.1833
  779SOL    MW4 2884   3.290   5.583   5.793 -0.4375 -0.6234  0.0421
  780SOL     OW 2885   3.429   4.545   4.418  0.4753  0.0713  0.0595
  780SOL    HW2 2886   3.501   4.592   4.460  0.0990 -0.3184  1.1822
  780SOL    HW3 2887   3.450   4.452   4.432  1.9364 -0.2832 -3.3186
  780SOL    MW4 2888   3.441   4.539   4.425  0.1150 -0.3235  0.3553
  781SOL     OW 2889   4.607   2.154   5.701 -0.6318  0.3017 -0.0341
  781SOL    HW2 2890   4.555   2.117   5.773  0.5918  1.2078  1.3589
  781SOL    HW3 2891   4.584   2.247   5.701 -1.8389  0.0505 -1.9122
  781SOL    MW4 2892   4.597   2.161   5.711  0.1014 -0.1476 -0.8751
  782SOL     OW 2893   2.860   2.100   0.877  0.0065 -0.1026 -0.3246
  782SOL    HW2 2894   2.864   2.009   0.908  1.0624 -0.2539 -0.8581
  782SOL    HW3 2895   2.786   2.138   0.923  0.5766 -0.7656  1.2099
  782SOL    MW4 2896   2.851   2.093   0.887  0.5964  0.0694 -0.7063
  783SOL     OW 2897   3.879   0.958   0.137  0.5462 -0.1782 -0.2852
  783SOL    HW2 2898   3.835   1.000   0.063  0.2175 -0.1580 -0.0803
  783SOL    HW3 2899   3.972   0.964   0.116  0.4174 -0.9775 -1.1249
  783SOL    MW4 2900   3.886   0.964   0.124 -0.1781  0.3285 -1.2240
  784SOL     OW 2901   1.311   4.440   2.956  0.1499  0.4943  0.0406
  784SOL    HW2 2902   1.255   4.492   3.014  0.0356  0.8572 -0.3875
  784SOL    HW3 2903   1.399   4.475   2.971  0.6271 -1.3872  2.1871
  784SOL    MW4 2904   1.315   4.452   2.966 -0.6305 -0.1319  0.0778
  785SOL     OW 2905   3.352   4.045   0.647  0.3810  0.6950 -0.1640
  785SOL    HW2 2906   3.303   4.127   0.641  1.0920  1.1955  0.5477
  785SOL    HW3 2907   3.350   4.024   0.741 -3.0936 -2.1974 -0.6754
  785SOL    MW4 2908   3.345   4.053   0.659  0.1418 -0.5597  0.5392
  786SOL     OW 2909   3.286   0.267   3.195 -0.4608 -0.0286  0.1877
  786SOL    HW2 2910   3.259   0.353   3.228  0.0756  0.9684 -1.8484
  786SOL    HW3 2911   3.365   0.284   3.144  0.1370 -1.8755  0.4250
  786SOL    MW4 2912   3.293   0.280   3.193  0.3020  0.0445  0.1753
  787SOL     OW 2913   4.268   3.484   4.843  0.5544 -0.1991 -0.0930
  787SOL    HW2 2914   4.277   3.541   4.767 -3.6551 -1.1543 -1.6129
  787SOL    HW3 2915   4.221   3.537   4.908 -0.0155 -0.7504 -0.0375
  787SOL    MW4 2916   4.263   3.499   4.842 -0.3644  0.5892 -0.7261
  788SOL     OW 2917   4.453   1.435   3.253  0.1012 -0.0603  0.2742
  788SOL    HW2 2918   4.392   1.457   3.323 -0.4482 -1.6051  0.3319
  788SOL    HW3 2919   4.460   1.340   3.257  3.3043  0.1114  0.8922
  788SOL    MW4 2920   4.446   1.425   3.262  0.1496  0.3382 -0.3262
  789SOL     OW 2921   4.629   4.544   1.153 -0.0616  0.5966  0.5268
  789SOL    HW2 2922   4.670   4.609   1.096  0.1382  0.3390  0.3700
  789SOL    HW3 2923   4.628   4.464   1.100 -0.4688  0.5173  0.6502
  789SOL    MW4 2924   4.634   4.542   1.138 -0.1847  0.0279 -0.7719
  790SOL     OW 2925   4.573   3.833   5.309 -0.0848  0.1230 -0.4843
  790SOL    HW2 2926   4.507   3.769   5.333 -0.5324  0.4935 -0.7089
  790SOL    HW3 2927   4.618   3.795   5.234 -1.4140  0.7486 -1.6486
  790SOL    MW4 2928   4.570   3.820   5.302 -0.1878 -0.0353  0.4206
  791SOL     OW 2929   1.508   2.388   5.941 -0.1577  0.1880 -0.0349
  791SOL    HW2 2930   1.575   2.391   6.010 -0.0444 -1.2592 -0.0695
  791SOL    HW3 2931   1.533   2.315   5.885 -0.4970  1.0698 -1.3936
  791SOL    MW4 2932   1.520   2.379   5.943  0.5308  0.1217  0.5481
  792SOL     OW 2933   0.788   5.791   4.497 -0.5576  0.3107  0.1801
  792SOL    HW2 2934   0.805   5.738   4.575 -0.7544  0.8487  0.5946
  792SOL    HW3 2935   0.764   5.728   4.430 -0.8436 -0.1222  0.6813
  792SOL    MW4 2936   0.787   5.776   4.499  0.4534  0.7317  0.3406
  793SOL     OW 2937   2.664   5.840   3.511 -0.0163  0.0113  0.4512
  793SOL    HW2 2938   2.749   5.796   3.516 -0.3336 -0.6586  0.1846
  793SOL    HW3 2939   2.662   5.877   3.423 -0.5315 -1.1211 -0.0318
  793SOL    MW4 2940   2.675   5.839   3.500 -0.0686  0.5475  0.1572
  794SOL     OW 2941   2.551   6.114   0.122 -0.7630 -0.2315 -1.0251
  794SOL    HW2 2942   2.601   6.113   0.203  1.3289  0.5280 -2.2319
  794SOL    HW3 2943   2.484   6.181   0.136 -2.2243 -1.9828  0.9892
  794SOL    MW4 2944   2.549   6.123   0.134 -0.4561 -0.1361  0.5456
  795SOL     OW 2945   5.365   6.345   1.076  0.3935  0.2541  0.3585
  795SOL    HW2 2946   5.315   6.416   1.035  0.6382 -0.4779 -1.2733
  795SOL    HW3 2947   5.411   6.387   1.148  0.3628  1.7208 -0.4346
  795SOL    MW4 2948   5.364   6.360   1.080 -0.3109  0.1310  0.2857
  796SOL     OW 2949   4.770   1.866   1.211 -0.0994  0.1381 -0.3688
  796SOL    HW2 2950   4.712   1.791   1.197 -0.7473  0.7534 -1.1587
  796SOL    HW3 2951   4.828   1.866   1.135  0.0779  0.2682 -0.2339
  796SOL    MW4 2952   4.770   1.856   1.199 -0.4474  0.7084 -0.9135
  797SOL     OW 2953   4.785   4.402   6.305 -0.4839 -0.1312  0.3918
  797SOL    HW2 2954   4.807   4.385   6.213  1.3001 -1.2904  0.9944
  797SOL    HW3 2955   4.742   4.321   6.335  2.6768 -1.4956  1.6407
  797SOL    MW4 2956   4.782   4.389   6.297  0.3654  0.0781 -0.0895
  798SOL     OW 2957   1.371   5.058   5.737 -0.1428  0.3800 -0.2460
  798SOL    HW2 2958   1.356   5.150   5.759 -1.6675  0.1413 -0.1883
  798SOL    HW3 2959   1.428   5.061   5.660  0.9585  1.3263  0.5741
  798SOL    MW4 2960   1.377   5.070   5.730  0.5692 -0.2448 -0.7149
  799SOL     OW 2961   3.454   2.683   0.314  0.4196 -0.0525  0.7083
  799SOL    HW2 2962   3.364   2.667   0.344 -0.8369  1.7618 -1.6882
  799SOL    HW3 2963   3.480   2.763   0.360  1.6185 -1.5497  2.7956
  799SOL    MW4 2964   3.445   2.692   0.324 -0.4176 -0.0250  0.0875
  800SOL     OW 2965   1.646   1.637   6.415  0.2024  0.3555 -0.0456
  800SOL    HW2 2966   1.712   1.608   6.352  1.5970 -1.5815  2.1305
  800SOL    HW3 2967   1.692   1.697   6.472  0.2114 -1.1126  1.5795
  800SOL    MW4 2968   1.661   1.641   6.414 -0.0074 -0.1397 -0.1951
  801SOL     OW 2969   4.410   1.068   5.991 -0.3084  0.4710 -0.0985
  801SOL    HW2 2970   4.350   1.011   5.942 -0.4385  0.8705 -0.4176
  801SOL    HW3 2971   4.353   1.113   6.054 -0.4750  1.3455 -0.8475
  801SOL    MW4 2972   4.394   1.067   5.993  0.1805  0.0154  0.3386
  802SOL     OW 2973   0.766   5.585   0.271 -0.3536  0.2612  0.3032
  802SOL    HW2 2974   0.733   5.589   0.181  0.4502  1.1953  0.0233
  802SOL    HW3 2975   0.751   5.495   0.298  0.2749 -0.3204 -1.1398
  802SOL    MW4 2976   0.760   5.574   0.262 -0.3227 -0.4320  0.4110
  803SOL     OW 2977   4.002   0.621   5.902  0.2484  0.1452  0.0692
  803SOL    HW2 2978   4.041   0.554   5.959  0.2602  1.2550  1.3959
  803SOL    HW3 2979   3.908   0.602   5.904 -0.0448  1.4870  2.3066
  803SOL    MW4 2980   3.995   0.609   5.910  0.3075 -0.4727  0.1489
  804SOL     OW 2981   4.372   1.679   6.095  0.0058  0.0840 -0.4651
  804SOL    HW2 2982   4.367   1.759   6.147 -3.9199  0.8747 -1.6759
  804SOL    HW3 2983   4.451   1.689   6.043 -0.7198  3.6999 -1.1685
  804SOL    MW4 2984   4.382   1.691   6.095 -0.0203  0.3586 -0.5534
  805SOL     OW 2985   0.077   4.044   4.887 -0.0310  0.1036  0.2635
  805SOL    HW2 2986   0.016   3.978   4.855  0.0530 -0.1552  0.6242
  805SOL    HW3 2987   0.021   4.109   4.929 -0.0388 -0.3837  1.0365
  805SOL    MW4 2988   0.062   4.044   4.889 -0.2191 -0.1727  0.1189
  806SOL     OW 2989   2.610   3.646   6.187  0.5767 -0.3821  0.0128
  806SOL    HW2 2990   2.533   3.590   6.199  0.9501 -1.0811 -0.7605
  806SOL    HW3 2991   2.597   3.718   6.249 -0.9296 -0.2376 -0.4265
  806SOL    MW4 2992   2.598   3.648   6.196  0.0550  0.7716 -0.3506
  807SOL     OW 2993   3.803   6.137   0.511 -0.1941  0.3501  0.2464
  807SOL    HW2 2994   3.805   6.126   0.606 -0.3691  0.8532  0.3111
  807SOL    HW3 2995   3.884   6.097   0.480 -0.0593  0.3308  0.6238
  807SOL    MW4 2996   3.814   6.130   0.519  0.0968 -0.4235  0.2319
  808SOL     OW 2997   2.361   4.116   5.248 -0.0834 -0.3456  0.4640
  808SOL    HW2 2998   2.344   4.047   5.313  0.7368 -0.4482  0.5707
  808SOL    HW3 2999   2.367   4.069   5.165  1.1265 -0.4972  0.6210
  808SOL    MW4 3000   2.359   4.101   5.246  0.5524 -0.1621  0.6517
  809SOL     OW 3001   0.343   2.683   1.570  0.5902 -0.1909  0.1900
  809SOL    HW2 3002   0.342   2.692   1.666  0.3296  0.6184  0.1149
  809SOL    HW3 3003   0.255   2.708   1.543  0.6934 -0.3334 -0.2757
  809SOL    MW4 3004   0.331   2.687   1.579 -0.0710 -0.6767  0.0698
  810SOL     OW 3005   0.083   3.093   3.671 -0.4137  0.2045 -0.3614
  810SOL    HW2 3006   0.046   3.132   3.591  0.6538 -0.2320 -1.0913
  810SOL    HW3 3007   0.178   3.095   3.657 -0.2507 -0.7939  0.4610
  810SOL    MW4 3008   0.091   3.098   3.658 -0.4055 -0.0802  0.3386
  811SOL     OW 3009   3.507   0.709   0.770  0.2480 -0.2407  0.1139
  811SOL    HW2 3010   3.579   0.659   0.732  2.7221  1.5579  2.0963
  811SOL    HW3 3011   3.513   0.694   0.864 -1.3290  0.8111  0.4354
  811SOL    MW4 3012   3.517   0.701   0.777 -0.1118 -0.6180 -0.6075
  812SOL     OW 3013   1.510   2.781   1.411 -0.0258 -0.2425  0.7107
  812SOL    HW2 3014   1.460   2.719   1.463  1.2777 -0.8164  1.3119
  812SOL    HW3 3015   1.493   2.756   1.320 -2.2688  0.7332  0.7847
  812SOL    MW4 3016   1.501   2.770   1.406 -1.1371  0.0169 -0.0038
  813SOL     OW 3017   4.529   5.061   3.899 -0.5206 -0.4052  0.1615
  813SOL    HW2 3018   4.510   5.103   3.815  0.1365 -0.4850 -0.0302
  813SOL    HW3 3019   4.613   5.098   3.926 -0.3591 -0.9467  0.4157
  813SOL    MW4 3020   4.538   5.071   3.892 -0.0741  0.0851  0.8007
  814SOL     OW 3021   3.038   0.616   5.338 -0.1677 -0.7863 -0.4426
  814SOL    HW2 3022   3.043   0.711   5.341 -0.7960 -0.7925  1.5541
  814SOL    HW3 3023   3.128   0.588   5.319 -0.2176  0.1829 -2.4030
  814SOL    MW4 3024   3.051   0.625   5.336  0.6098  0.6002  0.1241
  815SOL     OW 3025   5.317   5.504   2.292  0.0620 -0.0678 -0.1465
  815SOL    HW2 3026   5.380   5.535   2.357 -1.9274  2.2585  0.8448
  815SOL    HW3 3027   5.370   5.480   2.216  2.2028  0.6282  1.0598
  815SOL    MW4 3028   5.332   5.505   2.290  0.2060  0.0035  0.3789
  816SOL     OW 3029   4.278   5.311   1.519  0.0047  0.1960  0.5209
  816SOL    HW2 3030   4.226   5.387   1.495 -1.1960 -0.4277  1.1023
  816SOL    HW3 3031   4.345   5.345   1.579  0.5889  1.0768 -0.5867
  816SOL    MW4 3032   4.280   5.325   1.523 -0.6046 -0.1564  0.7540
  817SOL     OW 3033   3.937   2.300   2.760 -0.0935  0.2144  0.4453
  817SOL    HW2 3034   3.965   2.238   2.828  1.2959 -0.7334 -0.9006
  817SOL    HW3 3035   3.880   2.361   2.805  2.0685  0.6313  2.8652
  817SOL    MW4 3036   3.933   2.300   2.775  0.7015  1.0742  0.0005
  818SOL     OW 3037   5.691   5.366   4.363  0.2559 -0.3594  0.1077
  818SOL    HW2 3038   5.723   5.448   4.327  1.5296 -1.1648 -0.6969
  818SOL    HW3 3039   5.600   5.360   4.332  1.0619 -0.6372 -2.4342
  818SOL    MW4 3040   5.683   5.376   4.354  0.0716 -0.4708  0.0717
  819SOL     OW 3041   0.142   1.620   2.077 -0.1943  0.4256  0.2615
  819SOL    HW2 3042   0.158   1.534   2.039 -0.7454  0.0847  0.7671
  819SOL    HW3 3043   0.163   1.609   2.170 -0.2937  0.8268  0.3324
  819SOL    MW4 3044   0.147   1.607   2.084  0.2466 -0.4816 -0.0942
  820SOL     OW 3045   0.054   3.301   4.513  0.1987 -0.0448 -0.1303
  820SOL    HW2 3046   0.040   3.340   4.599  0.2997 -1.7939  0.7146
  820SOL    HW3 3047   0.066   3.208   4.530  1.0019 -0.3258 -1.9674
  820SOL    MW4 3048   0.054   3.294   4.526 -0.1759  0.2709  0.3147
  821SOL     OW 3049   2.289   2.358   0.288  0.0822  0.0253 -0.0995
  821SOL    HW2 3050   2.369   2.366   0.339 -0.4411 -0.1452  0.7555
  821SOL    HW3 3051   2.243   2.283   0.327 -0.2926 -0.1503 -0.8602
  821SOL    MW4 3052   2.293   2.349   0.300  0.0264  0.4148 -0.1852
  822SOL     OW 3053   2.065   2.557   5.979  0.0307  0.0070 -0.3488
  822SOL    HW2 3054   1.977   2.525   5.999  0.1550 -0.5593 -0.7004
  822SOL    HW3 3055   2.100   2.495   5.916  0.8518 -0.0141  0.1109
  822SOL    MW4 3056   2.058   2.545   5.973  0.6872 -0.0936  1.1936
  823SOL     OW 3057   1.478   1.001   4.649  0.0619 -0.0279  0.2088
  823SOL    HW2 3058   1.429   1.003   4.731  2.1947 -0.8800  1.5951
  823SOL    HW3 3059   1.451   1.080   4.602 -0.7952  0.7758  1.9894
  823SOL    MW4 3060   1.468   1.012   4.654 -0.0869  0.0648  0.2559
  824SOL     OW 3061   1.272   1.459   0.316  0.0427 -0.2145  0.3045
  824SOL    HW2 3062   1.305   1.456   0.406 -0.8809  1.3602  0.7329
  824SOL    HW3 3063   1.337   1.511   0.269 -0.3469  0.4505  0.4857
  824SOL    MW4 3064   1.285   1.466   0.322  0.1793  0.1170 -0.0955
  825SOL     OW 3065   2.934   0.457   3.596  0.8319  0.0598 -0.2052
  825SOL    HW2 3066   2.934   0.437   3.502 -0.1154  0.0863 -0.2202
  825SOL    HW3 3067   2.850   0.422   3.627  0.0043  2.2468  0.1494
  825SOL    MW4 3068   2.923   0.449   3.587  0.1907 -0.6263 -0.6444
  826SOL     OW 3069   1.348   3.061   2.148  0.0779 -0.6390  0.0136
  826SOL    HW2 3070   1.277   3.119   2.122 -0.0020 -1.6898 -2.2992
  826SOL    HW3 3071   1.370   3.089   2.237 -0.8866  1.9719 -0.4914
  826SOL    MW4 3072   1.342   3.072   2.157  0.5427  0.7201 -0.6895
  827SOL     OW 3073   2.408   1.182   6.005  0.2241  0.4058 -0.4291
  827SOL    HW2 3074   2.339   1.240   5.972  0.9422  0.9582 -0.9960
  827SOL    HW3 3075   2.438   1.135   5.928 -0.6969 -1.1234  0.1122
  827SOL    MW4 3076   2.403   1.184   5.990 -0.1518 -0.6473 -0.0146
  828SOL     OW 3077   6.323   5.612   2.701  0.2374  0.6504 -0.3425
  828SOL    HW2 3078   6.336   5.637   2.792 -1.3513  1.5241 -0.3208
  828SOL    HW3 3079   6.301   5.519   2.705  0.9099  0.5009  0.0773
  828SOL    MW4 3080   6.322   5.603   2.713  0.2409 -0.2567 -0.4526
  829SOL     OW 3081   5.242   2.258   0.079 -0.8285 -0.8356 -0.2320
  829SOL    HW2 3082   5.218   2.322   0.011  1.9201  1.3544  0.6545
  829SOL    HW3 3083   5.196   2.288   0.157 -0.3853 -0.5445 -0.0753
  829SOL    MW4 3084   5.233   2.271   0.080  0.5040 -1.0396 -0.1575
  830SOL     OW 3085   4.054   2.815   1.149  0.5795 -0.0406 -0.3785
  830SOL    HW2 3086   4.025   2.724   1.139  0.4493 -0.1167  0.5732
  830SOL    HW3 3087   3.980   2.867   1.117  1.2846 -0.2530 -2.4900
  830SOL    MW4 3088   4.040   2.810   1.143  0.2864 -0.0564 -0.1775
  831SOL     OW 3089   4.335   3.561   4.570 -0.1637 -0.3295 -0.2607
  831SOL    HW2 3090   4.388   3.483   4.555  1.4095  0.6671 -0.1046
  831SOL    HW3 3091   4.395   3.634   4.558 -1.5550  0.8707 -0.2360
  831SOL    MW4 3092   4.350   3.560   4.566  0.0522  0.2733 -0.2869
  832SOL     OW 3093   4.974   1.298   5.080 -0.1097 -0.7075 -0.5646
  832SOL    HW2 3094   4.968   1.205   5.058  1.4885 -1.3655  1.4254
  832SOL    HW3 3095   4.897   1.314   5.134  1.3865 -1.9325  2.1489
  832SOL    MW4 3096   4.963   1.288   5.084 -0.8177  0.1923  0.1976
  833SOL     OW 3097   4.664   3.210   4.820 -0.1393  0.1019  0.2559
  833SOL    HW2 3098   4.568   3.201   4.823 -0.1112 -0.3583 -0.1945
  833SOL    HW3 3099   4.684   3.266   4.895 -0.5164 -2.0315  2.0736
  833SOL    MW4 3100   4.654   3.216   4.831 -0.9083  0.4705 -0.6368
  834SOL     OW 3101   0.338   5.097   1.298  0.8109  0.4670  0.4141
  834SOL    HW2 3102   0.417   5.070   1.345  0.7123 -1.0726 -0.2558
  834SOL    HW3 3103   0.370   5.139   1.218  0.9811 -1.1683 -0.4064
  834SOL    MW4 3104   0.352   5.099   1.293 -0.3499 -0.6496  0.2364
  835SOL     OW 3105   5.384   0.219   2.656 -0.1499  0.0066  0.0293
  835SOL    HW2 3106   5.396   0.273   2.579 -2.3198 -1.6956 -1.6376
  835SOL    HW3 3107   5.328   0.271   2.714  1.6779  1.3829  0.6344
  835SOL    MW4 3108   5.378   0.233   2.654  0.4429 -0.0913 -0.5985
  836SOL     OW 3109   4.619   5.295   0.422  0.2863 -0.8076  0.4749
  836SOL    HW2 3110   4.623   5.292   0.326  1.2214  1.0457  0.4046
  836SOL    HW3 3111   4.610   5.204   0.449 -3.4329 -1.1882 -1.4700
  836SOL    MW4 3112   4.618   5.283   0.413  0.2692  0.5197 -0.6426
  837SOL     OW 3113   2.306   2.097   5.733  0.2326  1.0875 -0.2274
  837SOL    HW2 3114   2.380   2.090   5.672 -0.2532 -0.0209 -0.7118
  837SOL    HW3 3115   2.233   2.057   5.686 -0.6963  2.1601  0.2399
  837SOL    MW4 3116   2.306   2.091   5.718 -0.2467 -0.1543  0.5873
  838SOL     OW 3117   1.899   1.080   5.890 -0.1065  0.9772 -0.0234
  838SOL    HW2 3118   1.880   1.009   5.828 -0.9915 -0.1405  1.4685
  838SOL    HW3 3119   1.987   1.061   5.922 -0.2740  0.6530  0.2446
  838SOL    MW4 3120   1.908   1.068   5.886 -0.4808  0.0448  0.3670
  839SOL     OW 3121   1.801   4.537   0.115 -0.0941 -0.9020  0.0263
  839SOL    HW2 3122   1.836   4.463   0.165 -0.3929 -0.5975  0.7053
  839SOL    HW3 3123   1.861   4.547   0.042  0.5987 -1.0906  0.5581
  839SOL    MW4 3124   1.813   4.528   0.112  0.8808  0.0768 -0.2153
  840SOL     OW 3125   0.847   5.646   4.743  0.0501  0.5754  0.4343
  840SOL    HW2 3126   0.821   5.558   4.771  0.8526  0.4765  0.9009
  840SOL    HW3 3127   0.786   5.704   4.788  0.6369  0.3489  1.5638
  840SOL    MW4 3128   0.835   5.642   4.753 -0.0183 -0.1954 -0.2943
  841SOL     OW 3129   6.156   5.727   5.579  0.6851  0.1838  0.0839
  841SOL    HW2 3130   6.092   5.789   5.614  0.3373  1.2028 -2.1903
  841SOL    HW3 3131   6.110   5.682   5.508  1.2205 -2.1137  1.0922
  841SOL    MW4 3132   6.142   5.729   5.574  0.2287 -0.0074 -0.7927
  842SOL     OW 3133   0.036   5.150   5.705  0.0426 -0.5194  0.3678
  842SOL    HW2 3134   0.101   5.122   5.769  0.3690 -0.4803  0.0531
  842SOL    HW3 3135   0.059   5.240   5.684  0.4180 -0.7851 -0.3989
  842SOL    MW4 3136   0.047   5.158   5.711  0.3283  0.7042  0.3068
  843SOL     OW 3137   0.044   5.353   1.756 -0.1732  0.1356 -0.4993
  843SOL    HW2 3138  -0.010   5.335   1.679 -1.5287 -1.9435  0.8194
  843SOL    HW3 3139  -0.004   5.421   1.803  0.6205  1.3574 -1.3748
  843SOL    MW4 3140   0.031   5.359   1.752 -0.6052 -0.2226 -0.5751
  844SOL     OW 3141   1.867   3.314   6.034  0.5648 -0.0009 -0.8703
  844SOL    HW2 3142   1.860   3.405   6.004  1.0834  0.8557  1.4164
  844SOL    HW3 3143   1.780   3.277   6.017 -1.4759  2.4983  2.7711
  844SOL    MW4 3144   1.854   3.321   6.028  0.4449  0.2358 -0.7714
  845SOL     OW 3145   6.295   1.299   5.741 -0.3798 -0.7819 -0.3591
  845SOL    HW2 3146   6.389   1.315   5.734 -0.7176  1.0568 -1.1892
  845SOL    HW3 3147   6.287   1.204   5.733  1.5749 -1.2649  2.1947
  845SOL    MW4 3148   6.306   1.288   5.739 -0.1788  0.2912  0.0420
  846SOL     OW 3149   1.656   4.856   0.693 -0.2057  0.0752 -0.1094
  846SOL    HW2 3150   1.690   4.895   0.773  0.4869  1.2124 -0.9239
  846SOL    HW3 3151   1.563   4.878   0.693 -0.9411 -2.4734  1.7976
  846SOL    MW4 3152   1.648   4.864   0.704 -0.0220  0.1116  0.0753
  847SOL     OW 3153   3.170   0.974   4.806  0.0574 -0.5198  0.2446
  847SOL    HW2 3154   3.145   0.959   4.897 -0.8482  2.6439  0.6528
  847SOL    HW3 3155   3.254   1.019   4.811  0.4124 -1.0657 -0.5645
  847SOL    MW4 3156   3.177   0.978   4.819  0.9072 -0.1902 -0.2844
  848SOL     OW 3157   4.349   3.680   3.657 -0.0419 -0.1789 -0.2846
  848SOL    HW2 3158   4.276   3.668   3.718  0.3610  0.7842  0.4189
  848SOL    HW3 3159   4.338   3.610   3.592 -2.1922  0.5851 -0.8259
  848SOL    MW4 3160   4.338   3.669   3.657  0.3562 -0.4998  0.0581
  849SOL     OW 3161   4.518   3.990   0.043 -0.1935 -0.3420 -0.1049
  849SOL    HW2 3162   4.592   4.045   0.017  1.1609 -1.7576  0.5315
  849SOL    HW3 3163   4.515   3.998   0.139 -2.9137  2.1192 -0.2681
  849SOL    MW4 3164   4.527   3.998   0.052 -0.1723  0.0059  0.1111
  850SOL     OW 3165   1.667   3.851   4.059  0.9162  0.3859  0.0785
  850SOL    HW2 3166   1.607   3.896   4.000 -0.1986 -0.6891  0.3466
  850SOL    HW3 3167   1.614   3.832   4.137  1.8681  0.2196  0.7067
  850SOL    MW4 3168   1.652   3.854   4.062 -0.2376 -0.4510  0.9384
  851SOL     OW 3169   4.710   6.193   1.000 -0.5559  0.4122 -0.4814
  851SOL    HW2 3170   4.659   6.166   1.077 -0.7143  1.1751 -0.3067
  851SOL    HW3 3171   4.781   6.246   1.037 -0.7193  0.9062 -0.8678
  851SOL    MW4 3172   4.712   6.196   1.015  0.3535  0.4759  0.3549
  852SOL     OW 3173   3.340   6.328   5.349  0.6899 -0.4783  0.8524
  852SOL    HW2 3174   3.326   6.423   5.352  1.1892 -0.4145  1.4373
  852SOL    HW3 3175   3.403   6.311   5.420  0.9925 -1.1787  0.4262
  852SOL    MW4 3176   3.347   6.338   5.359  0.0309  0.2165  0.7185
  853SOL     OW 3177   5.614   0.795   3.866  0.0532  0.3035  0.2514
  853SOL    HW2 3178   5.632   0.743   3.788  0.1316 -0.8116  0.9961
  853SOL    HW3 3179   5.672   0.759   3.933  2.2834  3.1973  0.1022
  853SOL    MW4 3180   5.624   0.784   3.865 -0.5729 -0.2087  0.2810
  854SOL     OW 3181   1.609   3.379   5.102  0.4008  0.1841  0.6384
  854SOL    HW2 3182   1.614   3.427   5.184 -0.1889  0.1042  0.7264
  854SOL    HW3 3183   1.561   3.299   5.124  0.8114 -0.1431  0.3570
  854SOL    MW4 3184   1.603   3.375   5.115  0.3884  0.1824  0.1702
  855SOL     OW 3185   2.195   5.582   0.760  0.5005 -0.2774  0.0356
  855SOL    HW2 3186   2.274   5.589   0.814  0.4356 -0.2033  0.1212
  855SOL    HW3 3187   2.155   5.669   0.763  1.3369  0.1957 -1.4326
  855SOL    MW4 3188   2.200   5.595   0.767 -0.1568  0.2560 -0.1580
  856SOL     OW 3189   6.244   4.542   3.360  0.3555  0.6273  0.2138
  856SOL    HW2 3190   6.284   4.456   3.371  1.1585  1.2501  2.9704
  856SOL    HW3 3191   6.162   4.525   3.314  0.9929 -1.4537 -0.2287
  856SOL    MW4 3192   6.238   4.529   3.355 -0.0848 -0.0026 -0.4621
  857SOL     OW 3193   6.402   4.807   2.418 -0.1814  0.2087 -0.4083
  857SOL    HW2 3194   6.363   4.799   2.331 -2.0259 -2.1571  0.5304
  857SOL    HW3 3195   6.328   4.829   2.475  0.4238 -1.2470  0.9860
  857SOL    MW4 3196   6.387   4.809   2.414 -0.2900  0.3668 -0.1683
  858SOL     OW 3197   2.528   4.206   4.151 -0.1930  0.3548 -0.3771
  858SOL    HW2 3198   2.504   4.252   4.071 -0.0601 -0.3325 -0.8256
  858SOL    HW3 3199   2.511   4.268   4.221 -1.1784  0.6517 -0.8660
  858SOL    MW4 3200   2.523   4.220   4.150  0.0319 -0.2536  0.0520
  859SOL     OW 3201   5.909   0.660   3.296 -0.1857 -0.2413  0.1259
  859SOL    HW2 3202   5.928   0.735   3.352  1.3927 -1.3051  1.0983
  859SOL    HW3 3203   5.936   0.687   3.208  0.4624  0.2994  0.4869
  859SOL    MW4 3204   5.915   0.673   3.292  0.3060  0.3891  0.1627
  860SOL     OW 3205   6.255   4.990   0.203  0.1649 -1.0111 -0.3771
  860SOL    HW2 3206   6.208   5.028   0.129  1.3036 -0.2743 -0.7327
  860SOL    HW3 3207   6.190   4.989   0.273  0.0968  1.8098 -0.2717
  860SOL    MW4 3208   6.240   4.995   0.202 -0.1052  0.1168 -0.1340
  861SOL     OW 3209   3.685   3.353   4.672  0.1907  0.1242  0.1229
  861SOL    HW2 3210   3.750   3.301   4.626 -0.3563 -0.1982 -0.2929
  861SOL    HW3 3211   3.725   3.370   4.758  0.7599 -0.1835 -0.0735
  861SOL    MW4 3212   3.699   3.348   4.677 -0.1256 -0.6920 -0.2004
  862SOL     OW 3213   1.712   4.824   1.393 -0.0012  0.0311  0.3462
  862SOL    HW2 3214   1.648   4.852   1.328 -0.3236 -0.3591  0.4931
  862SOL    HW3 3215   1.796   4.856   1.360 -0.2106  0.1474 -0.0748
  862SOL    MW4 3216   1.714   4.832   1.380 -0.0067  0.1745 -0.7300
  863SOL     OW 3217   2.799   1.160   3.114  0.0063  0.1750 -0.7150
  863SOL    HW2 3218   2.845   1.181   3.196 -1.8928  0.4986  0.3471
  863SOL    HW3 3219   2.866   1.168   3.046  2.0354 -1.5858  0.9308
  863SOL    MW4 3220   2.814   1.164   3.116 -0.3483  0.2313  0.2510
  864SOL     OW 3221   2.430   3.919   2.986 -0.3167  0.0076 -0.2422
  864SOL    HW2 3222   2.345   3.960   3.001 -1.0708 -0.5340 -2.5957
  864SOL    HW3 3223   2.421   3.876   2.901  1.7334 -1.6284  0.2834
  864SOL    MW4 3224   2.417   3.918   2.977 -0.1112 -0.0946  0.3086
  865SOL     OW 3225   0.277   3.041   1.557  0.1608  0.7176  0.0671
  865SOL    HW2 3226   0.219   2.966   1.571 -0.6875  1.4722  0.7585
  865SOL    HW3 3227   0.361   3.014   1.593  0.2514 -0.4006 -0.9474
  865SOL    MW4 3228   0.280   3.028   1.564 -0.5781 -0.0501 -0.4610
  866SOL     OW 3229   6.279   1.206   2.077 -0.3700  0.4621 -0.1603
  866SOL    HW2 3230   6.340   1.134   2.092 -0.3334  0.5827  0.2810
  866SOL    HW3 3231   6.243   1.189   1.990 -0.3263 -0.0648 -0.0792
  866SOL    MW4 3232   6.282   1.194   2.068 -0.4997 -0.0503 -0.1553
  867SOL     OW 3233   3.025   5.755   6.054  0.1192 -0.5509  0.0193
  867SOL    HW2 3234   2.934   5.763   6.024 -0.6932  2.4673  2.7848
  867SOL    HW3 3235   3.074   5.812   5.995 -0.3368  0.2317  0.3823
  867SOL    MW4 3236   3.019   5.764   6.042 -0.8095 -0.0351 -0.1753
  868SOL     OW 3237   5.362   4.472   6.324  0.0174 -0.3260  0.6910
  868SOL    HW2 3238   5.272   4.495   6.349  0.2692  0.5113  0.8789
  868SOL    HW3 3239   5.411   4.475   6.405  0.0403 -1.7741  0.7535
  868SOL    MW4 3240   5.357   4.476   6.338 -0.2588 -0.1576 -0.1257
  869SOL     OW 3241   6.058   4.091   1.693  0.2712  0.4001 -0.2724
  869SOL    HW2 3242   6.004   4.162   1.659  0.5311  0.1280 -1.2934
  869SOL    HW3 3243   6.011   4.060   1.771 -1.1170  0.0836 -1.1923
  869SOL    MW4 3244   6.045   4.096   1.699 -0.4623  0.0088  0.0682
  870SOL     OW 3245   4.053   3.315   4.772  0.0139  0.0758  0.0682
  870SOL    HW2 3246   3.975   3.349   4.817  0.4453 -0.4619  1.2726
  870SOL    HW3 3247   4.123   3.376   4.797  0.6547 -1.2495  1.7172
  870SOL    MW4 3248   4.052   3.328   4.781 -0.3133 -0.1910  0.5578
  871SOL     OW 3249   0.624   1.235   3.036  0.5924 -0.4157  0.2661
  871SOL    HW2 3250   0.582   1.149   3.026 -0.2454 -0.0749  0.7633
  871SOL    HW3 3251   0.667   1.250   2.952 -1.0428 -0.3887 -0.6018
  871SOL    MW4 3252   0.624   1.225   3.024  0.8831 -0.0978 -0.1907
  872SOL     OW 3253   1.572   6.392   4.785 -0.5948 -0.5039 -0.2064
  872SOL    HW2 3254   1.609   6.404   4.872 -0.2811  0.6351 -0.4753
  872SOL    HW3 3255   1.637   6.431   4.726 -1.6547  0.4776 -0.7798
  872SOL    MW4 3256   1.586   6.399   4.789  0.6113 -0.6173  0.4244
  873SOL     OW 3257   3.034   1.034   6.024 -0.2074  0.6136  0.0063
  873SOL    HW2 3258   3.011   0.942   6.032  1.1394  0.0935 -1.5751
  873SOL    HW3 3259   2.955   1.081   6.050 -1.8366 -1.0107 -1.7179
  873SOL    MW4 3260   3.021   1.028   6.029  0.0892  0.0566 -0.4541
  874SOL     OW 3261   4.409   2.848   2.900 -0.3574 -0.2003 -0.0902
  874SOL    HW2 3262   4.463   2.834   2.977 -0.8941  1.6742  0.6780
  874SOL    HW3 3263   4.360   2.766   2.889  1.1930 -1.2208  0.3172
  874SOL    MW4 3264   4.409   2.836   2.908  0.0127 -0.2233  0.4665
  875SOL     OW 3265   4.373   5.448   0.490 -0.6180  0.4663  0.0150
  875SOL    HW2 3266   4.455   5.400   0.481 -0.7054  0.5522 -1.5213
  875SOL    HW3 3267   4.318   5.391   0.543  0.7917  0.9264  2.0981
  875SOL    MW4 3268   4.377   5.434   0.496 -0.2168  0.2819  0.1956
  876SOL     OW 3269   0.393   0.392   3.215  0.6177 -0.0577  0.0239
  876SOL    HW2 3270   0.465   0.411   3.156 -1.2795  4.3860 -1.2880
  876SOL    HW3 3271   0.317   0.382   3.158 -0.6027  0.2251  1.5142
  876SOL    MW4 3272   0.392   0.393   3.200  0.4451  0.3846  0.3243
  877SOL     OW 3273   1.001   5.274   2.350  0.3694 -0.2118 -0.0816
  877SOL    HW2 3274   1.012   5.329   2.427 -0.6364  1.2625 -0.9542
  877SOL    HW3 3275   1.072   5.209   2.357  1.6582  1.2312  0.9150
  877SOL    MW4 3276   1.012   5.273   2.361 -0.6403 -0.1886 -0.0440
  878SOL     OW 3277   3.618   3.215   0.226  0.4582 -0.0109 -0.0668
  878SOL    HW2 3278   3.575   3.233   0.142 -0.1560 -1.5185 -0.1139
  878SOL    HW3 3279   3.595   3.290   0.282 -1.6006 -0.3922 -0.3463
  878SOL    MW4 3280   3.609   3.227   0.222  0.4899  0.1451  0.2048
  879SOL     OW 3281   2.497   6.115   1.416 -0.1116 -0.0939  0.1537
  879SOL    HW2 3282   2.551   6.150   1.345 -0.7138 -0.1833 -0.3595
  879SOL    HW3 3283   2.414   6.163   1.410  0.2660  0.8013  1.6129
  879SOL    MW4 3284   2.493   6.126   1.406 -0.2149 -0.2070  0.2774
  880SOL     OW 3285   1.242   4.271   0.898  0.3449  0.3656 -0.2518
  880SOL    HW2 3286   1.274   4.357   0.926  0.3803  0.0679  0.6564
  880SOL    HW3 3287   1.314   4.234   0.847  1.0518  0.1369  0.8854
  880SOL    MW4 3288   1.255   4.277   0.895  0.3639  0.1832 -0.4982
  881SOL     OW 3289   0.829   5.132   6.222  0.2340  0.2642  0.1687
  881SOL    HW2 3290   0.910   5.182   6.210 -1.1312  2.4271 -0.7274
  881SOL    HW3 3291   0.854   5.060   6.280  3.0799  0.0524 -1.1384
  881SOL    MW4 3292   0.843   5.129   6.228 -0.3773  0.6510 -0.0117
  882SOL     OW 3293   2.204   1.012   1.920  0.4620 -0.1096 -0.1610
  882SOL    HW2 3294   2.212   0.979   2.009 -0.9608  0.2525  0.1131
  882SOL    HW3 3295   2.117   0.984   1.891  0.2904  1.0863 -0.8833
  882SOL    MW4 3296   2.194   1.004   1.928 -0.0689 -0.4729 -0.3402
  883SOL     OW 3297   5.225   3.131   1.530  0.2393  0.5411 -0.5961
  883SOL    HW2 3298   5.154   3.168   1.477 -0.0701  3.0724  1.3526
  883SOL    HW3 3299   5.283   3.206   1.545  0.0600  0.1356  2.9086
  883SOL    MW4 3300   5.223   3.146   1.525 -0.2528  0.5534 -0.5319
  884SOL     OW 3301   4.067   5.434   1.145 -0.2259 -0.0914 -0.3504
  884SOL    HW2 3302   4.161   5.443   1.128 -0.3055  1.8065 -0.0493
  884SOL    HW3 3303   4.025   5.471   1.067 -0.7491 -1.4004 -0.7121
  884SOL    MW4 3304   4.074   5.440   1.132 -0.1639  0.8042 -0.4081
  885SOL     OW 3305   6.145   4.163   5.414 -0.3713 -0.1444  0.1196
  885SOL    HW2 3306   6.064   4.147   5.365 -1.0999  2.3152  0.4158
  885SOL    HW3 3307   6.125   4.135   5.503 -1.2150  1.2268  0.3809
  885SOL    MW4 3308   6.132   4.157   5.419  0.7328  0.3488  0.1512
  886SOL     OW 3309   4.445   2.627   5.046 -0.1476  0.1878  0.5273
  886SOL    HW2 3310   4.476   2.554   4.993 -1.4656 -0.4434  0.5951
  886SOL    HW3 3311   4.398   2.683   4.985 -0.8018 -0.0236  0.8293
  886SOL    MW4 3312   4.443   2.625   5.031  0.5807  0.1623 -0.2558
  887SOL     OW 3313   1.392   4.996   5.448  0.2867 -0.9437 -0.2251
  887SOL    HW2 3314   1.454   4.933   5.484 -1.2065 -3.2716 -1.4640
  887SOL    HW3 3315   1.442   5.045   5.383  1.0686 -2.1483 -0.5649
  887SOL    MW4 3316   1.407   4.994   5.444 -0.1867  1.0199  0.3639
  888SOL     OW 3317   3.782   5.812   5.614 -0.1849  0.2094 -0.6240
  888SOL    HW2 3318   3.737   5.730   5.595 -1.4957  0.8040 -0.2734
  888SOL    HW3 3319   3.734   5.878   5.564  0.5440  0.8263 -0.5275
  888SOL    MW4 3320   3.769   5.810   5.605 -0.2732  0.0773  0.1702
  889SOL     OW 3321   4.361   0.160   1.244  0.4876 -0.1278  0.7672
  889SOL    HW2 3322   4.301   0.161   1.169  1.4601 -1.9149 -0.0968
  889SOL    HW3 3323   4.306   0.175   1.320 -0.9426 -1.0495 -0.0564
  889SOL    MW4 3324   4.346   0.162   1.244  0.0961  0.4396 -0.0336
  890SOL     OW 3325   0.822   0.862   2.486 -0.0108  0.6382 -0.2569
  890SOL    HW2 3326   0.776   0.926   2.540 -0.0094 -0.1451  0.7010
  890SOL    HW3 3327   0.818   0.898   2.398 -1.6268  1.0544 -0.0438
  890SOL    MW4 3328   0.815   0.875   2.482 -0.4577  0.4510  0.4389
  891SOL     OW 3329   5.242   3.712   3.679  0.1113  0.1755  0.2727
  891SOL    HW2 3330   5.332   3.694   3.653  0.8093  1.9398  1.2813
  891SOL    HW3 3331   5.193   3.711   3.597  1.3072  0.5438 -0.4828
  891SOL    MW4 3332   5.248   3.710   3.665  0.0448  0.5543 -0.4090
  892SOL     OW 3333   5.829   0.910   5.849  0.0385 -0.1895 -0.0020
  892SOL    HW2 3334   5.847   0.950   5.934  0.1483 -1.6896  0.7114
  892SOL    HW3 3335   5.911   0.920   5.800  0.5487 -0.8192  0.7013
  892SOL    MW4 3336   5.842   0.916   5.854 -0.0969  0.5002  0.0391
  893SOL     OW 3337   1.081   0.448   2.810 -0.2670  0.5142 -0.2785
  893SOL    HW2 3338   1.163   0.433   2.857 -0.3025  0.2445 -0.3036
  893SOL    HW3 3339   1.096   0.413   2.723 -0.9861 -1.1269  0.2278
  893SOL    MW4 3340   1.094   0.442   2.805 -0.0729  0.1398  0.1292
  894SOL     OW 3341   4.477   0.552   1.501 -0.2099  0.1326 -0.3354
  894SOL    HW2 3342   4.496   0.472   1.452 -0.3308 -0.8549  1.1732
  894SOL    HW3 3343   4.386   0.573   1.477 -0.1149 -0.0490 -0.8837
  894SOL    MW4 3344   4.467   0.544   1.491  0.2219 -0.0000  1.0314
  895SOL     OW 3345   3.537   1.252   2.306 -0.2681 -0.5093 -0.0175
  895SOL    HW2 3346   3.563   1.343   2.298  0.0555 -0.4355  1.4875
  895SOL    HW3 3347   3.484   1.234   2.228 -0.3937  0.9712 -0.2896
  895SOL    MW4 3348   3.533   1.262   2.295 -0.1349 -0.1069 -0.2156
  896SOL     OW 3349   0.530   0.963   2.853  0.2640 -0.1223 -0.0945
  896SOL    HW2 3350   0.461   1.005   2.904 -1.1948 -0.9698 -1.2708
  896SOL    HW3 3351   0.594   0.933   2.918 -1.2222 -0.6527  1.1794
  896SOL    MW4 3352   0.529   0.965   2.868 -0.0127 -0.6345  0.0249
  897SOL     OW 3353   0.696   3.413   3.815 -0.6892 -0.7284 -0.3418
  897SOL    HW2 3354   0.619   3.368   3.852 -0.3429 -1.0922 -0.0535
  897SOL    HW3 3355   0.674   3.506   3.822 -0.9251 -0.8147  0.1444
  897SOL    MW4 3356   0.683   3.419   3.821  0.4068 -0.3386  0.2444
  898SOL     OW 3357   2.011   0.394   1.593 -0.3588 -0.1342  0.8129
  898SOL    HW2 3358   1.983   0.400   1.684 -2.9020 -0.6878  0.1408
  898SOL    HW3 3359   1.955   0.457   1.547  0.5572 -0.2000 -0.4417
  898SOL    MW4 3360   2.000   0.403   1.599 -0.0291 -0.3226  0.5353
  899SOL     OW 3361   2.234   2.671   0.352  0.1567  0.2958 -0.2708
  899SOL    HW2 3362   2.244   2.579   0.330 -1.2068  0.0973 -0.1163
  899SOL    HW3 3363   2.295   2.716   0.294  1.1250 -0.7199 -0.0704
  899SOL    MW4 3364   2.243   2.665   0.342  0.4513  0.2353  0.1820
  900SOL     OW 3365   2.211   3.389   0.491 -0.2634 -0.3850  0.1116
  900SOL    HW2 3366   2.229   3.483   0.495 -0.4851 -0.2604 -1.3506
  900SOL    HW3 3367   2.232   3.357   0.579  0.8005  0.8485  0.3384
  900SOL    MW4 3368   2.216   3.397   0.503 -0.3562 -0.1048 -0.1055
  901SOL     OW 3369   2.775   4.041   4.826  0.1201  0.0269 -0.2244
  901SOL    HW2 3370   2.784   4.122   4.776  0.6259 -0.2710 -0.6258
  901SOL    HW3 3371   2.771   3.973   4.759 -1.1473 -0.2150  0.0728
  901SOL    MW4 3372   2.775   4.043   4.811 -0.6786 -0.1206 -0.1851
  902SOL     OW 3373   1.083   2.754   3.995  0.0486  0.1141  0.0960
  902SOL    HW2 3374   1.030   2.801   4.059  0.2902  0.5775 -0.0370
  902SOL    HW3 3375   1.103   2.671   4.037  0.2781  0.4492  0.6626
  902SOL    MW4 3376   1.079   2.749   4.009  0.4567 -0.0204 -0.4851
  903SOL     OW 3377   3.367   6.165   0.824 -0.5437  0.2724 -0.4686
  903SOL    HW2 3378   3.414   6.232   0.873 -1.3419 -0.7449  1.8742
  903SOL    HW3 3379   3.275   6.185   0.839 -0.7973 -0.8599 -0.3834
  903SOL    MW4 3380   3.361   6.176   0.833 -0.1692 -0.2287  0.2254
  904SOL     OW 3381   3.195   0.528   3.281 -0.2376 -0.0492  0.1165
  904SOL    HW2 3382   3.198   0.593   3.210  0.6807  1.7493  1.7054
  904SOL    HW3 3383   3.127   0.560   3.340  0.2972 -0.4635  0.9782
  904SOL    MW4 3384   3.186   0.541   3.279 -0.1026 -0.0262  0.0425
  905SOL     OW 3385   5.892   1.847   3.987 -0.1012  0.0726 -0.2830
  905SOL    HW2 3386   5.836   1.875   3.915  0.8295 -0.8958 -1.4230
  905SOL    HW3 3387   5.978   1.833   3.948  0.4279 -0.5278  1.0034
  905SOL    MW4 3388   5.896   1.849   3.973 -0.0229  0.2028  0.3094
  906SOL     OW 3389   3.728   1.766   0.424  0.1806 -0.2099  0.3622
  906SOL    HW2 3390   3.763   1.840   0.475 -1.5259 -0.0980  1.4385
  906SOL    HW3 3391   3.663   1.726   0.481 -2.3673  0.3422 -1.9521
  906SOL    MW4 3392   3.724   1.771   0.438 -0.1465  0.2691 -0.1174
  907SOL     OW 3393   5.431   3.205   3.757  0.3536  0.1239 -0.0090
  907SOL    HW2 3394   5.343   3.238   3.737 -0.5338 -1.1245  1.6349
  907SOL    HW3 3395   5.464   3.173   3.673 -0.9547  0.1790 -0.5637
  907SOL    MW4 3396   5.424   3.205   3.743  0.7799 -0.3853 -0.0232
  908SOL     OW 3397   1.516   0.287   2.483 -0.1463 -0.1958  0.2268
  908SOL    HW2 3398   1.434   0.301   2.435 -0.6465  1.1201  1.3835
  908SOL    HW3 3399   1.571   0.361   2.460  0.1920 -0.3549  0.5019
  908SOL    MW4 3400   1.512   0.298   2.474 -0.3365  0.4853  0.4265
  909SOL     OW 3401   2.029   5.644   3.940  0.5898  0.1564  0.6657
  909SOL    HW2 3402   2.012   5.630   3.847 -0.3520 -0.9490  0.9798
  909SOL    HW3 3403   1.980   5.575   3.984  0.0211  1.3828  2.0576
  909SOL    MW4 3404   2.020   5.633   3.934 -0.0359  0.4887 -0.0711
  910SOL     OW 3405   3.727   1.547   5.263  0.6781 -0.3002  0.1327
  910SOL    HW2 3406   3.648   1.583   5.221  0.9374  1.2837  0.9354
  910SOL    HW3 3407   3.798   1.605   5.234  2.3818 -3.7932 -3.6323
  910SOL    MW4 3408   3.726   1.560   5.253 -0.2932 -0.0301 -0.6119
  911SOL     OW 3409   0.382   0.187   2.201  0.3530 -0.7361  0.4106
  911SOL    HW2 3410   0.413   0.097   2.213 -0.2343 -1.1249 -0.7676
  911SOL    HW3 3411   0.287   0.180   2.199  0.2274 -0.8712 -4.2100
  911SOL    MW4 3412   0.374   0.174   2.202  0.0617  0.0322 -0.3651
  912SOL     OW 3413   5.915   6.036   0.996 -0.5788 -0.0267  0.0507
  912SOL    HW2 3414   5.996   6.072   1.033  0.2203 -0.6190 -1.0564
  912SOL    HW3 3415   5.845   6.091   1.032  0.4206  1.2910  0.0540
  912SOL    MW4 3416   5.916   6.048   1.006  0.4975  0.1953 -0.5638
  913SOL     OW 3417   2.545   2.062   5.584  0.0079  0.2532 -0.1791
  913SOL    HW2 3418   2.518   1.982   5.539  0.2465  0.7514 -1.2375
  913SOL    HW3 3419   2.586   2.031   5.665 -1.0902 -0.6278  0.0653
  913SOL    MW4 3420   2.547   2.047   5.588 -0.3209 -0.2493  1.0381
  914SOL     OW 3421   4.567   1.420   0.969  0.2019 -0.0674 -0.3184
  914SOL    HW2 3422   4.607   1.383   1.048 -0.7575  1.9254  1.1917
  914SOL    HW3 3423   4.589   1.513   0.973 -2.0301  0.5500 -1.0185
  914SOL    MW4 3424   4.575   1.427   0.980  0.2370 -0.2028  1.1459
  915SOL     OW 3425   0.096   0.914   4.151  0.0743 -0.4474 -0.1676
  915SOL    HW2 3426   0.096   0.855   4.227 -0.0596 -0.5273 -0.2294
  915SOL    HW3 3427   0.184   0.908   4.116  0.2889 -0.0322  0.2778
  915SOL    MW4 3428   0.108   0.906   4.157 -0.2169 -0.2159 -0.5605
  916SOL     OW 3429   3.825   5.562   1.345  0.1638  0.1416 -0.5773
  916SOL    HW2 3430   3.808   5.570   1.251 -1.3153 -1.3004 -0.4830
  916SOL    HW3 3431   3.810   5.469   1.364  0.8351  0.3248  1.0269
  916SOL    MW4 3432   3.821   5.551   1.335 -0.0295 -0.1973 -0.7849
  917SOL     OW 3433   6.398   5.965   1.661  0.5013  0.3625 -0.5597
  917SOL    HW2 3434   6.455   6.038   1.686  2.5395 -1.2551 -0.1960
  917SOL    HW3 3435   6.312   6.005   1.649  1.6474  2.9078 -0.9772
  917SOL    MW4 3436   6.395   5.980   1.663  0.1887 -0.0684  0.1293
  918SOL     OW 3437   0.976   5.410   4.996  0.4217  0.2795 -0.2530
  918SOL    HW2 3438   1.008   5.324   4.970  0.7948 -0.0445  1.1905
  918SOL    HW3 3439   0.893   5.420   4.949  0.7415 -0.5334 -1.0217
  918SOL    MW4 3440   0.969   5.400   4.986 -0.0872  0.2882  0.6250
  919SOL     OW 3441   3.228   2.602   0.447 -0.1565 -0.2207  0.3031
  919SOL    HW2 3442   3.145   2.630   0.409 -0.5576 -1.4403  0.2166
  919SOL    HW3 3443   3.204   2.556   0.527  0.4124 -0.6969  0.2094
  919SOL    MW4 3444   3.214   2.599   0.452  0.4102 -0.2591 -0.1657
  920SOL     OW 3445   4.613   3.744   0.651 -0.5418 -0.2044 -0.0494
  920SOL    HW2 3446   4.676   3.727   0.722 -1.5615  0.2371  0.9870
  920SOL    HW3 3447   4.656   3.709   0.573 -0.4230 -2.9861  1.1506
  920SOL    MW4 3448   4.627   3.737   0.650 -0.1679  0.0182  0.4467
  921SOL     OW 3449   5.718   5.085   1.690  0.3295 -0.1819  0.0468
  921SOL    HW2 3450   5.699   5.113   1.780  1.6630 -1.2693  0.6991
  921SOL    HW3 3451   5.634   5.054   1.657  0.5337 -3.9911  2.4953
  921SOL    MW4 3452   5.705   5.085   1.698  0.1680 -0.1002 -0.1012
  922SOL     OW 3453   0.028   0.473   3.633 -0.0109  0.1340 -0.4220
  922SOL    HW2 3454   0.008   0.446   3.723  0.6424  1.1639  0.0575
  922SOL    HW3 3455   0.073   0.398   3.595  1.3805  0.3219  0.7359
  922SOL    MW4 3456   0.031   0.459   3.640  0.3615  0.0219 -0.4649
  923SOL     OW 3457   1.376   4.767   3.350 -0.7720 -0.2333  0.1445
  923SOL    HW2 3458   1.381   4.862   3.361 -1.3803 -0.4091  2.6121
  923SOL    HW3 3459   1.458   4.733   3.385 -1.8090 -0.7290  2.2907
  923SOL    MW4 3460   1.387   4.775   3.356 -0.7268  0.0015 -0.0576
  924SOL     OW 3461   4.593   1.246   5.217 -0.2042 -0.3224 -0.5568
  924SOL    HW2 3462   4.648   1.202   5.152  0.3492 -2.6878  1.3390
  924SOL    HW3 3463   4.654   1.281   5.282 -0.7975 -1.6721  0.7998
  924SOL    MW4 3464   4.608   1.244   5.217 -0.1198  0.0324  0.5445
  925SOL     OW 3465   1.151   6.467   5.636  0.3554  0.0226 -0.2575
  925SOL    HW2 3466   1.220   6.532   5.623  0.7001 -0.1689  0.5922
  925SOL    HW3 3467   1.069   6.516   5.625  0.6187  0.3713 -0.6835
  925SOL    MW4 3468   1.149   6.482   5.633 -1.1243  0.1452  0.0767
  926SOL     OW 3469   5.658   6.318   0.254  0.7263 -0.0209  0.3601
  926SOL    HW2 3470   5.599   6.318   0.329  0.8649  0.5383  0.4708
  926SOL    HW3 3471   5.606   6.278   0.184  0.1606  0.5827  0.4223
  926SOL    MW4 3472   5.643   6.313   0.254 -0.0700  0.0500  0.3268
  927SOL     OW 3473   5.222   1.104   1.965 -0.0988 -0.5209 -0.0591
  927SOL    HW2 3474   5.298   1.124   2.018  1.6618  0.1475 -2.6524
  927SOL    HW3 3475   5.156   1.167   1.992  1.4112  1.0934 -0.0156
  927SOL    MW4 3476   5.223   1.115   1.976  0.4127  0.2072 -0.7027
  928SOL     OW 3477   2.287   5.611   2.781 -0.0170 -0.2563 -0.2025
  928SOL    HW2 3478   2.360   5.670   2.765  1.6345 -1.9498  0.6840
  928SOL    HW3 3479   2.220   5.638   2.718  1.0972  1.7829 -0.5809
  928SOL    MW4 3480   2.288   5.622   2.770  0.3227  0.0250 -0.2960
  929SOL     OW 3481   1.087   5.946   6.160 -0.0510  0.5858  0.3933
  929SOL    HW2 3482   1.100   5.995   6.078  0.0867  1.6238  1.0247
  929SOL    HW3 3483   0.998   5.910   6.152  0.4575 -0.5320 -0.8123
  929SOL    MW4 3484   1.077   5.947   6.148  0.2257 -0.0999  0.0443
  930SOL     OW 3485   4.963   5.348   4.022  0.4982  0.2099 -0.0703
  930SOL    HW2 3486   5.041   5.389   4.059 -0.3173  0.4646  1.4268
  930SOL    HW3 3487   4.891   5.378   4.078 -0.7817  0.4697 -1.7565
  930SOL    MW4 3488   4.964   5.358   4.034  0.5069 -0.2047  0.3637
  931SOL     OW 3489   1.928   4.082   6.299 -0.0059  0.1476  0.3699
  931SOL    HW2 3490   1.873   4.035   6.237 -0.2717 -2.3045  2.2851
  931SOL    HW3 3491   1.907   4.042   6.384  0.7036  2.9562  1.9847
  931SOL    MW4 3492   1.918   4.070   6.302 -0.0103 -0.4723 -0.2221
  932SOL     OW 3493   0.220   5.013   4.335  0.1405 -0.6712  0.4178
  932SOL    HW2 3494   0.217   5.074   4.410 -0.4302 -0.0954 -0.0582
  932SOL    HW3 3495   0.143   5.036   4.283  2.0681  1.0509 -1.9709
  932SOL    MW4 3496   0.209   5.024   4.338 -0.8223  0.1893  0.0364
  933SOL     OW 3497   1.530   1.441   3.207 -0.3854  0.1610  0.0462
  933SOL    HW2 3498   1.608   1.395   3.174  0.3261  1.6036 -0.3466
  933SOL    HW3 3499   1.480   1.463   3.129 -0.1145  1.0890  0.1211
  933SOL    MW4 3500   1.534   1.438   3.193  0.1548  0.0979 -0.0838
  934SOL     OW 3501   5.712   3.014   3.418  0.4902 -0.6743  0.2091
  934SOL    HW2 3502   5.679   2.943   3.474 -0.1125  0.5819  1.5208
  934SOL    HW3 3503   5.803   3.025   3.444 -0.1193  0.7742  2.0058
  934SOL    MW4 3504   5.719   3.006   3.429 -0.9243  0.4897 -0.3845
  935SOL     OW 3505   2.257   3.171   4.298 -0.1403  0.2829 -0.2663
  935SOL    HW2 3506   2.250   3.208   4.211  0.9248  0.6152 -0.2291
  935SOL    HW3 3507   2.173   3.189   4.340 -1.0412 -0.7580 -1.5411
  935SOL    MW4 3508   2.245   3.178   4.292  0.2458  0.0784 -0.0511
  936SOL     OW 3509   5.312   2.920   0.179 -0.7120 -0.3113  0.9370
  936SOL    HW2 3510   5.243   2.866   0.141  1.3332 -4.0248  1.9701
  936SOL    HW3 3511   5.304   2.906   0.274  0.4318  0.5151  1.1707
  936SOL    MW4 3512   5.302   2.911   0.187  0.0888 -0.2570 -0.3520
  937SOL     OW 3513   2.271   2.980   2.200  0.9768 -0.0859 -0.2425
  937SOL    HW2 3514   2.257   3.073   2.221  1.1225  0.7454 -3.3204
  937SOL    HW3 3515   2.357   2.978   2.158  1.1218 -1.6967  0.0890
  937SOL    MW4 3516   2.280   2.992   2.198 -0.1185  0.4235  0.0033
  938SOL     OW 3517   0.453   0.112   1.664  0.0612  0.2348  0.3607
  938SOL    HW2 3518   0.365   0.120   1.628  0.7404 -0.3413 -1.5434
  938SOL    HW3 3519   0.496   0.047   1.608  2.0190  1.2462  0.5910
  938SOL    MW4 3520   0.447   0.104   1.652 -0.5218 -0.1310 -0.1970
  939SOL     OW 3521   1.543   0.462   3.768  0.1874 -0.0291 -0.3812
  939SOL    HW2 3522   1.633   0.437   3.749 -0.2261 -0.3027 -2.0875
  939SOL    HW3 3523   1.537   0.554   3.741 -0.2019 -0.1777 -0.7991
  939SOL    MW4 3524   1.554   0.471   3.762 -0.0559  0.3665 -0.4035
  940SOL     OW 3525   4.591   3.336   0.398  0.3769 -0.0250 -0.0454
  940SOL    HW2 3526   4.660   3.270   0.383  0.9560  0.4903  0.3053
  940SOL    HW3 3527   4.516   3.285   0.430  0.8205 -0.5126  0.2390
  940SOL    MW4 3528   4.590   3.320   0.400 -0.0899 -0.1166 -0.2298
  941SOL     OW 3529   4.099   4.953   6.279  0.3235 -0.3246 -0.4449
  941SOL    HW2 3530   4.083   5.025   6.340 -2.2641 -0.9673 -0.2317
  941SOL    HW3 3531   4.155   4.892   6.327 -0.2874 -0.0175  0.6862
  941SOL    MW4 3532   4.104   4.954   6.293 -0.3353 -0.0626  0.1660
  942SOL     OW 3533   2.863   2.065   0.373 -0.2909 -0.4478 -0.1064
  942SOL    HW2 3534   2.949   2.026   0.357 -0.1355 -0.3026  0.3464
  942SOL    HW3 3535   2.879   2.129   0.443 -0.4650  0.6662 -1.0445
  942SOL    MW4 3536   2.876   2.069   0.380  0.2088 -0.4512  0.0073
  943SOL     OW 3537   6.413   0.775   5.005 -0.1043  0.0215 -0.2174
  943SOL    HW2 3538   6.496   0.797   5.046 -0.2732  0.0583  0.1114
  943SOL    HW3 3539   6.357   0.851   5.021 -0.5930 -0.5049  0.6593
  943SOL    MW4 3540   6.417   0.788   5.012  0.1451 -0.1234  0.0578
  944SOL     OW 3541   2.478   1.689   0.311 -0.1893 -1.0630 -0.0046
  944SOL    HW2 3542   2.407   1.697   0.247  0.9569 -1.8245 -1.4534
  944SOL    HW3 3543   2.531   1.767   0.298 -1.2810  0.0651  1.8425
  944SOL    MW4 3544   2.476   1.700   0.301  0.2545  0.3103 -0.1707
  945SOL     OW 3545   2.647   4.734   1.156  0.2620 -0.5619  0.1445
  945SOL    HW2 3546   2.739   4.739   1.182  0.1216  0.1822  0.5163
  945SOL    HW3 3547   2.605   4.808   1.199 -0.4073 -0.5643 -0.4726
  945SOL    MW4 3548   2.654   4.744   1.165  0.1445 -0.2773 -0.2947
  946SOL     OW 3549   3.937   6.209   3.449  0.2861 -0.5661 -0.2118
  946SOL    HW2 3550   4.012   6.208   3.390  0.8798 -1.4123  0.5346
  946SOL    HW3 3551   3.907   6.118   3.452 -0.7333 -0.2552 -0.4412
  946SOL    MW4 3552   3.943   6.197   3.442  0.5954 -0.0891 -0.6602
  947SOL     OW 3553   1.270   2.300   6.008 -0.0742 -0.0880  0.3872
  947SOL    HW2 3554   1.363   2.324   6.011 -0.2470  0.6038  0.6433
  947SOL    HW3 3555   1.240   2.333   5.924  0.0575 -0.8819  0.0313
  947SOL    MW4 3556   1.278   2.308   5.998  0.3380 -0.3237  0.2394
  948SOL     OW 3557   4.290   4.770   6.363  0.0614  0.1145  0.4346
  948SOL    HW2 3558   4.337   4.756   6.445  2.8238 -2.4795 -1.3470
  948SOL    HW3 3559   4.251   4.685   6.343 -0.6751  0.7269 -0.8693
  948SOL    MW4 3560   4.291   4.757   6.371 -0.3630 -0.3283  0.3012
  949SOL     OW 3561   6.134   1.825   2.512  0.5061  0.4092  0.0393
  949SOL    HW2 3562   6.207   1.812   2.573 -0.9528 -0.5453  1.6411
  949SOL    HW3 3563   6.099   1.911   2.535  0.1844  0.2086  0.3012
  949SOL    MW4 3564   6.139   1.835   2.523 -0.0875  0.7779 -0.4400
  950SOL     OW 3565   3.739   3.814   1.248  0.1883 -0.2021  0.2118
  950SOL    HW2 3566   3.727   3.895   1.297  1.0174 -0.0097  0.1132
  950SOL    HW3 3567   3.689   3.827   1.167  2.5699  1.3929 -1.1078
  950SOL    MW4 3568   3.730   3.826   1.244 -0.6563 -0.4880 -0.2863
  951SOL     OW 3569   4.235   1.829   5.217 -0.0426  0.2469 -0.1211
  951SOL    HW2 3570   4.259   1.789   5.300  0.6113  0.5430 -0.1538
  951SOL    HW3 3571   4.259   1.921   5.227 -0.2238  0.3436 -0.5341
  951SOL    MW4 3572   4.241   1.836   5.229 -0.2557  1.1990  0.4623
  952SOL     OW 3573   4.153   2.569   1.700 -0.3648 -0.0846  0.1111
  952SOL    HW2 3574   4.212   2.588   1.627 -1.2582  0.2468 -0.5330
  952SOL    HW3 3575   4.081   2.631   1.689 -2.4151 -2.5275 -0.9312
  952SOL    MW4 3576   4.151   2.580   1.689  0.1779 -0.2590  0.0547
  953SOL     OW 3577   0.819   5.069   3.625 -0.3619 -0.1690  0.1202
  953SOL    HW2 3578   0.867   5.019   3.558  2.1775 -0.5251  2.0477
  953SOL    HW3 3579   0.826   5.015   3.704 -0.4231  1.6966  1.4628
  953SOL    MW4 3580   0.827   5.055   3.627  0.5220  0.1334 -0.0451
  954SOL     OW 3581   1.732   3.773   5.590 -0.3657 -0.1014 -1.0361
  954SOL    HW2 3582   1.709   3.801   5.679 -0.3372  0.4167 -1.1894
  954SOL    HW3 3583   1.693   3.686   5.582 -0.6860  0.0013 -0.6427
  954SOL    MW4 3584   1.724   3.765   5.601  0.2915 -0.0642  0.1857
  955SOL     OW 3585   5.000   0.823   2.343 -0.0319  0.0786 -0.9111
  955SOL    HW2 3586   4.915   0.807   2.302 -0.0939 -2.1809 -0.0682
  955SOL    HW3 3587   5.039   0.735   2.353  1.8391  0.9316 -0.1094
  955SOL    MW4 3588   4.994   0.809   2.339  0.2672  0.7149 -0.2085
  956SOL     OW 3589   3.783   3.334   4.291  0.4484 -0.5739 -0.5058
  956SOL    HW2 3590   3.764   3.349   4.198  0.8178 -0.5846 -0.5844
  956SOL    HW3 3591   3.701   3.299   4.327  0.3104 -0.5882 -0.8317
  956SOL    MW4 3592   3.770   3.331   4.283 -0.3739 -0.6416 -0.5812
  957SOL     OW 3593   0.384   2.696   1.854  0.0894 -0.0992  0.3663
  957SOL    HW2 3594   0.361   2.727   1.941  0.2248  0.8902  0.0590
  957SOL    HW3 3595   0.472   2.658   1.865 -0.3537 -1.0104  0.8783
  957SOL    MW4 3596   0.393   2.695   1.867 -0.7409  0.2686 -0.1188
  958SOL     OW 3597   3.891   2.187   3.860 -0.8006 -0.5360  0.2370
  958SOL    HW2 3598   3.817   2.218   3.808 -2.3024 -0.8761  2.0820
  958SOL    HW3 3599   3.962   2.176   3.796 -1.7242  1.6615 -1.2864
  958SOL    MW4 3600   3.891   2.190   3.845 -0.6293 -0.5221 -0.5120
  959SOL     OW 3601   0.169   4.331   2.255  0.5043 -0.7020 -0.3739
  959SOL    HW2 3602   0.166   4.283   2.338 -0.5881  0.0387  0.0317
  959SOL    HW3 3603   0.242   4.291   2.207  1.9948 -0.2951  1.4525
  959SOL    MW4 3604   0.178   4.319   2.260 -0.0008  0.0444 -0.1004
  960SOL     OW 3605   1.988   4.445   2.989  0.3206 -0.1745  0.4515
  960SOL    HW2 3606   1.925   4.403   3.048  0.0361 -0.5748 -0.1308
  960SOL    HW3 3607   1.935   4.506   2.938  0.5959  0.2943  0.7240
  960SOL    MW4 3608   1.972   4.448   2.990  0.2939  0.1774 -0.5054
  961SOL     OW 3609   4.982   4.083   3.638 -0.7538  0.6440 -0.5906
  961SOL    HW2 3610   4.958   4.044   3.722 -0.1715 -0.9060 -1.1075
  961SOL    HW3 3611   4.905   4.134   3.612 -1.7137 -0.4980 -0.0688
  961SOL    MW4 3612   4.969   4.085   3.646 -0.0475 -0.5594 -0.0207
  962SOL     OW 3613   3.395   4.945   6.168  0.0661 -0.3726 -0.3471
  962SOL    HW2 3614   3.342   4.866   6.168  0.0019 -0.3297 -0.7124
  962SOL    HW3 3615   3.332   5.017   6.178  0.2879 -0.4607  2.6119
  962SOL    MW4 3616   3.380   4.944   6.169  0.0771  0.0899 -0.5449
  963SOL     OW 3617   1.874   2.219   0.976  0.4033  0.1494 -0.0715
  963SOL    HW2 3618   1.874   2.310   1.006  2.0705 -0.0166  0.5143
  963SOL    HW3 3619   1.963   2.204   0.946  0.1017 -1.2521 -0.3064
  963SOL    MW4 3620   1.885   2.229   0.976  0.2516 -0.1006 -0.2370
  964SOL     OW 3621   6.195   5.657   1.697 -0.2708 -0.2163 -0.5666
  964SOL    HW2 3622   6.131   5.612   1.641 -1.4621  0.8186 -0.0799
  964SOL    HW3 3623   6.266   5.682   1.637 -1.4147  0.6666 -1.6060
  964SOL    MW4 3624   6.196   5.654   1.681  0.4460 -0.1615 -0.5132
  965SOL     OW 3625   0.571   2.925   5.681  0.2116 -0.0551  0.3670
  965SOL    HW2 3626   0.627   2.892   5.611  0.9496  1.1124  0.3660
  965SOL    HW3 3627   0.592   2.870   5.757 -0.5295 -1.2710 -0.2873
  965SOL    MW4 3628   0.581   2.914   5.682 -0.4052 -0.7200 -0.2744
  966SOL     OW 3629   5.792   3.609   2.842  0.4267  0.2103  0.0950
  966SOL    HW2 3630   5.852   3.614   2.917 -0.3701 -1.2653  0.8854
  966SOL    HW3 3631   5.796   3.696   2.802  1.3569  0.8435  1.4704
  966SOL    MW4 3632   5.801   3.621   2.847  0.4440 -0.6302 -0.0347
  967SOL     OW 3633   3.285   2.821   3.278 -0.3985  0.2687  0.2007
  967SOL    HW2 3634   3.343   2.745   3.277  1.6481  1.7480 -0.3253
  967SOL    HW3 3635   3.235   2.812   3.359  2.5027  0.2308  2.1566
  967SOL    MW4 3636   3.286   2.810   3.288  0.4063  0.2500 -0.0190
  968SOL     OW 3637   5.943   5.457   5.032 -0.2725  0.0685  0.0003
  968SOL    HW2 3638   5.869   5.461   4.971 -0.3638 -0.6593  0.0609
  968SOL    HW3 3639   5.980   5.370   5.020  0.7160  0.4985 -0.1784
  968SOL    MW4 3640   5.938   5.446   5.023 -0.4099 -0.1607 -0.0370
  969SOL     OW 3641   4.778   3.474   2.053  0.3581  0.0244 -0.4850
  969SOL    HW2 3642   4.722   3.397   2.066  0.6776 -0.1361 -0.0242
  969SOL    HW3 3643   4.860   3.438   2.019  0.7466  0.0767  0.3553
  969SOL    MW4 3644   4.781   3.459   2.051 -0.4132 -0.3943  0.5397
  970SOL     OW 3645   6.084   4.099   3.905  0.0480  0.0719 -0.1651
  970SOL    HW2 3646   6.101   4.169   3.967 -0.9619  1.8037 -1.7395
  970SOL    HW3 3647   6.058   4.024   3.959  3.4893  0.0632  1.7173
  970SOL    MW4 3648   6.083   4.098   3.920  0.0596  0.1605  0.8877
  971SOL     OW 3649   0.302   2.185   0.060  0.3333  1.0597 -0.4576
  971SOL    HW2 3650   0.326   2.156  -0.028  0.3711  1.4353 -0.5751
  971SOL    HW3 3651   0.278   2.105   0.107  0.2764  0.8634 -0.8212
  971SOL    MW4 3652   0.302   2.171   0.055  0.1908 -0.0633 -0.3747
  972SOL     OW 3653   5.167   3.563   4.297  0.6841  0.4026 -0.3246
  972SOL    HW2 3654   5.241   3.568   4.356  1.6802 -0.5643 -1.4417
  972SOL    HW3 3655   5.157   3.652   4.263  0.7241  0.7393  0.5280
  972SOL    MW4 3656   5.175   3.576   4.300 -0.3657  0.0969 -0.0045
  973SOL     OW 3657   6.044   3.477   0.344 -0.0578 -0.0795  0.1115
  973SOL    HW2 3658   5.961   3.429   0.343 -0.2177  0.2039 -0.7459
  973SOL    HW3 3659   6.018   3.569   0.358  0.1126  0.0054 -0.1278
  973SOL    MW4 3660   6.029   3.483   0.346 -0.5674 -0.0928 -0.1118
  974SOL     OW 3661   3.165   1.857   3.095  0.2829 -0.1529 -0.2419
  974SOL    HW2 3662   3.073   1.882   3.093  0.1149 -0.4797  1.7137
  974SOL    HW3 3663   3.191   1.853   3.003 -1.3404  1.0464 -0.7932
  974SOL    MW4 3664   3.157   1.860   3.083  0.0319  0.1470 -0.1418
  975SOL     OW 3665   2.845   2.404   1.309  0.2398 -0.0094  0.4685
  975SOL    HW2 3666   2.895   2.483   1.287 -0.0609  0.2804  0.8239
  975SOL    HW3 3667   2.852   2.396   1.404  2.3984 -1.8369  0.2456
  975SOL    MW4 3668   2.853   2.413   1.318 -0.3297 -0.1800  0.1932
  976SOL     OW 3669   3.418   4.806   0.747  0.4545  0.1140  0.1212
  976SOL    HW2 3670   3.409   4.887   0.697 -0.6187 -0.0741 -0.0131
  976SOL    HW3 3671   3.512   4.794   0.757  0.6233  1.6519  0.5916
  976SOL    MW4 3672   3.429   4.815   0.742 -0.4775 -0.2689 -0.0172
  977SOL     OW 3673   4.566   1.096   1.157  0.1637  0.7110  0.1308
  977SOL    HW2 3674   4.661   1.082   1.157  0.2176  0.9223  1.5888
  977SOL    HW3 3675   4.544   1.113   1.065  1.4146 -0.1078 -0.3420
  977SOL    MW4 3676   4.576   1.097   1.145 -0.2051  0.1284 -0.7513
  978SOL     OW 3677   5.334   2.956   5.252 -0.4082  0.3873  0.1195
  978SOL    HW2 3678   5.290   3.035   5.284 -0.1772 -0.1882  2.0103
  978SOL    HW3 3679   5.267   2.910   5.202 -0.3715  2.0276 -1.5627
  978SOL    MW4 3680   5.319   2.960   5.250  0.3370  0.2794 -0.0931
  979SOL     OW 3681   5.586   4.505   1.276 -0.4851  0.0566  0.2338
  979SOL    HW2 3682   5.544   4.590   1.281 -1.1362  0.0895 -3.4144
  979SOL    HW3 3683   5.515   4.444   1.257  0.1899 -1.1197  1.3072
  979SOL    MW4 3684   5.571   4.508   1.274  0.3511 -0.5066  0.2173
  980SOL     OW 3685   1.030   5.044   3.356  0.1750  0.1924 -0.1717
  980SOL    HW2 3686   1.045   5.137   3.339 -1.4047  0.8259  1.4820
  980SOL    HW3 3687   0.953   5.022   3.305  0.2612 -0.0751 -0.1883
  980SOL    MW4 3688   1.022   5.053   3.347  0.1598  0.2422 -0.3277
  981SOL     OW 3689   2.489   3.090   2.810 -0.2020 -0.2265  0.3163
  981SOL    HW2 3690   2.438   3.171   2.814 -0.2809 -0.1847 -1.1279
  981SOL    HW3 3691   2.424   3.021   2.805 -0.1343 -0.4157  1.5946
  981SOL    MW4 3692   2.474   3.092   2.810  0.4297 -0.8209  0.2134
  982SOL     OW 3693   0.660   2.202   3.780 -1.3103 -0.3839 -0.1954
  982SOL    HW2 3694   0.715   2.146   3.834 -1.2656 -0.9396 -0.8141
  982SOL    HW3 3695   0.587   2.147   3.754 -0.9159 -0.3651 -1.3739
  982SOL    MW4 3696   0.658   2.188   3.784  0.1207 -0.2436  0.8112
  983SOL     OW 3697   2.549   5.155   2.378  0.4416  0.2397  0.0713
  983SOL    HW2 3698   2.540   5.184   2.468 -0.8932  1.0908 -0.3076
  983SOL    HW3 3699   2.479   5.090   2.366  1.3741 -0.7683 -0.0123
  983SOL    MW4 3700   2.538   5.150   2.388  0.2115  0.1888 -0.1233
  984SOL     OW 3701   5.991   4.971   1.513  0.0183 -0.6736 -0.3378
  984SOL    HW2 3702   5.935   4.923   1.573  0.7828 -2.0724 -0.7157
  984SOL    HW3 3703   5.993   5.060   1.548 -0.1641 -1.2788  1.2694
  984SOL    MW4 3704   5.984   4.977   1.525 -0.0319 -0.8315  0.2963
  985SOL     OW 3705   1.412   3.434   1.181  0.0488  0.3779 -0.0110
  985SOL    HW2 3706   1.320   3.451   1.203 -0.0514  1.1267 -0.9308
  985SOL    HW3 3707   1.413   3.343   1.152 -0.4552  0.4164 -0.1689
  985SOL    MW4 3708   1.400   3.424   1.180 -0.2565 -0.0222 -0.0856
  986SOL     OW 3709   1.433   6.377   3.466 -0.0933  0.3196 -0.4113
  986SOL    HW2 3710   1.413   6.360   3.558 -1.5408  0.0811 -0.7421
  986SOL    HW3 3711   1.446   6.471   3.461 -1.0473  0.4798 -0.1241
  986SOL    MW4 3712   1.432   6.387   3.478  0.2452 -0.1388  0.3150
  987SOL     OW 3713   1.274   3.878   5.360  0.2865  0.5141 -0.4426
  987SOL    HW2 3714   1.360   3.909   5.388  0.6044 -1.1785  0.5615
  987SOL    HW3 3715   1.272   3.894   5.265  0.7778  2.6384 -0.1585
  987SOL    MW4 3716   1.285   3.884   5.351  0.1835  0.2785 -0.2595
  988SOL     OW 3717   1.668   4.753   4.369  0.7401 -0.5161  0.7029
  988SOL    HW2 3718   1.745   4.775   4.317  1.1454 -0.4713  1.3210
  988SOL    HW3 3719   1.614   4.700   4.310 -0.7156  2.7881 -1.1696
  988SOL    MW4 3720   1.671   4.749   4.354 -0.6051 -0.7124  0.3906
  989SOL     OW 3721   2.107   6.178   4.745 -0.2767 -0.0024 -0.1896
  989SOL    HW2 3722   2.132   6.157   4.835  2.2989  0.0523 -0.8199
  989SOL    HW3 3723   2.104   6.274   4.743 -1.3481 -0.0112  0.0383
  989SOL    MW4 3724   2.110   6.188   4.757  0.6294 -0.0414 -0.0794
  990SOL     OW 3725   1.865   4.003   5.950 -0.4832 -0.4821 -0.7069
  990SOL    HW2 3726   1.847   3.957   6.032 -0.2530  1.1100  0.2750
  990SOL    HW3 3727   1.943   3.959   5.915 -0.5547 -1.1501 -0.0588
  990SOL    MW4 3728   1.873   3.991   5.956  0.7345 -0.5487 -0.1174
  991SOL     OW 3729   3.266   5.543   1.398  0.5148  0.2450 -0.1467
  991SOL    HW2 3730   3.359   5.550   1.374  0.3964  1.6425 -0.2636
  991SOL    HW3 3731   3.227   5.491   1.328  0.5411  2.6848 -2.0988
  991SOL    MW4 3732   3.273   5.537   1.386  0.4372  0.0041  0.0008
  992SOL     OW 3733   2.351   3.552   6.277  0.2885  0.3501 -0.1136
  992SOL    HW2 3734   2.333   3.460   6.257 -0.4552  0.2545  0.8957
  992SOL    HW3 3735   2.322   3.599   6.199  2.8189 -0.4009 -1.6207
  992SOL    MW4 3736   2.345   3.546   6.264 -0.2351  0.1630  0.2916
  993SOL     OW 3737   2.271   1.308   5.155  0.3497 -0.0199  0.5988
  993SOL    HW2 3738   2.325   1.269   5.223 -0.9104 -0.7951  1.1904
  993SOL    HW3 3739   2.293   1.261   5.075 -1.0548 -1.9582  1.2712
  993SOL    MW4 3740   2.281   1.297   5.153  0.7255  0.3309 -0.1247
  994SOL     OW 3741   3.143   4.591   1.275  0.3698 -0.1404  0.2343
  994SOL    HW2 3742   3.230   4.557   1.255  0.4084  0.4347 -0.6848
  994SOL    HW3 3743   3.083   4.520   1.252  0.4937  0.1098 -0.9631
  994SOL    MW4 3744   3.147   4.577   1.269 -0.1047 -0.0034 -0.2839
  995SOL     OW 3745   5.971   4.664   1.363 -0.0267  0.1028  0.2072
  995SOL    HW2 3746   5.962   4.626   1.276 -1.4493  0.3406  0.2290
  995SOL    HW3 3747   5.883   4.665   1.398  0.2791  1.4719  1.0286
  995SOL    MW4 3748   5.959   4.659   1.356  0.5076  0.4943 -0.2902
  996SOL     OW 3749   3.896   3.670   4.695  0.2376  0.2075  0.0731
  996SOL    HW2 3750   3.953   3.621   4.635  0.1105 -0.0819  0.1871
  996SOL    HW3 3751   3.815   3.682   4.645  0.1032 -0.1023  0.2116
  996SOL    MW4 3752   3.893   3.665   4.680  0.2686 -0.0258 -0.2156
  997SOL     OW 3753   0.803   1.699   4.972 -0.0097 -0.3453 -0.0845
  997SOL    HW2 3754   0.829   1.777   5.020 -0.0072 -0.1115 -0.4685
  997SOL    HW3 3755   0.715   1.679   5.006  0.6540 -1.1875  1.2724
  997SOL    MW4 3756   0.795   1.706   4.983  0.2125 -0.3123 -0.1366
  998SOL     OW 3757   0.095   0.948   3.125 -0.6592  0.4449 -0.1483
  998SOL    HW2 3758   0.065   0.858   3.114 -0.7713  0.3939  0.4996
  998SOL    HW3 3759   0.094   0.962   3.220  0.7155  0.6662 -0.1393
  998SOL    MW4 3760   0.091   0.938   3.136  0.4380 -0.4012 -0.0873
  999SOL     OW 3761   5.503   4.435   0.415 -0.0349 -0.8250  0.0906
  999SOL    HW2 3762   5.485   4.341   0.423 -0.9940 -0.6903 -0.4039
  999SOL    HW3 3763   5.471   4.473   0.497 -1.8258 -0.6231 -0.6743
  999SOL    MW4 3764   5.497   4.428   0.427  0.2973  0.5068  0.6885
 1000SOL     OW 3765   1.001   2.689   5.197 -0.8410 -0.3852  0.0182
 1000SOL    HW2 3766   1.086   2.652   5.173 -2.0123 -4.2831  1.1912
 1000SOL    HW3 3767   0.954   2.698   5.115 -0.8547 -2.6840 -0.2773
 1000SOL    MW4 3768   1.006   2.685   5.183  0.4901 -0.1551 -0.2468
 1001SOL     OW 3769   0.603   0.917   5.129 -0.1637  0.2898  0.1000
 1001SOL    HW2 3770   0.630   0.986   5.190  2.5625 -0.8702  0.3619
 1001SOL    HW3 3771   0.549   0.858   5.182  1.4054 -0.2061  1.2421
 1001SOL    MW4 3772   0.599   0.918   5.144 -0.4128  0.1668 -0.0103
 1002SOL     OW 3773   0.352   2.354   0.273 -0.1505  0.1750  0.3464
 1002SOL    HW2 3774   0.383   2.285   0.331  0.8860  0.3474  0.0207
 1002SOL    HW3 3775   0.348   2.314   0.186  0.4879  0.5206  0.1499
 1002SOL    MW4 3776   0.356   2.340   0.269  0.0093  0.1811  0.7220
 1003SOL     OW 3777   1.760   5.766   3.798  0.2265  0.2188  0.0068
 1003SOL    HW2 3778   1.679   5.766   3.747  1.4235  1.0221 -2.0146
 1003SOL    HW3 3779   1.814   5.699   3.756  0.7669 -0.0623  1.1141
 1003SOL    MW4 3780   1.756   5.757   3.786  0.3601 -0.4223  0.0388
 1004SOL     OW 3781   0.883   6.113   2.982  0.4333 -0.1427 -0.4449
 1004SOL    HW2 3782   0.898   6.114   3.076  0.6839  0.7736 -0.4836
 1004SOL    HW3 3783   0.870   6.021   2.960  0.3642 -0.3585  0.4847
 1004SOL    MW4 3784   0.883   6.101   2.991  0.1597 -0.2647  0.2882
 1005SOL     OW 3785   4.924   3.350   4.745  0.2863 -0.2679 -0.0101
 1005SOL    HW2 3786   4.886   3.430   4.710  0.3379  0.2558  1.1089
 1005SOL    HW3 3787   4.891   3.281   4.688 -2.3034  0.1547  0.8394
 1005SOL    MW4 3788   4.915   3.351   4.733  0.1033  0.4006 -0.2072
 1006SOL     OW 3789   4.897   2.250   6.177  0.0493  0.2361  0.2166
 1006SOL    HW2 3790   4.935   2.163   6.167 -0.0362  0.3109 -0.8629
 1006SOL    HW3 3791   4.820   2.250   6.120 -0.2877  0.8297  0.6537
 1006SOL    MW4 3792   4.892   2.239   6.168 -0.0720 -0.1435  0.2942
 1007SOL     OW 3793   2.197   1.564   3.796 -0.2156  0.4347  0.0352
 1007SOL    HW2 3794   2.106   1.559   3.766  0.1708  1.2325 -1.3780
 1007SOL    HW3 3795   2.194   1.619   3.874 -0.9748  0.1858  0.1907
 1007SOL    MW4 3796   2.185   1.570   3.802 -0.0280  0.1573 -0.2271
 1008SOL     OW 3797   4.703   3.847   3.696 -0.2764  0.0735 -0.0989
 1008SOL    HW2 3798   4.757   3.854   3.617 -1.1022 -3.7659 -1.2290
 1008SOL    HW3 3799   4.630   3.907   3.681  1.3244  2.0093 -0.5723
 1008SOL    MW4 3800   4.701   3.856   3.684  0.1969  0.4360  0.0876
 1009SOL     OW 3801   0.890   3.102   3.783  0.2038  0.1748 -0.2053
 1009SOL    HW2 3802   0.808   3.099   3.733 -0.1638 -1.6935  0.4284
 1009SOL    HW3 3803   0.874   3.166   3.852 -0.5165  0.2683 -0.4521
 1009SOL    MW4 3804   0.877   3.110   3.785  0.1918  0.1113  0.5046
 1010SOL     OW 3805   1.776   5.295   1.066 -0.1384 -0.5223  0.1727
 1010SOL    HW2 3806   1.782   5.390   1.072 -1.2738 -0.5274  2.2688
 1010SOL    HW3 3807   1.853   5.263   1.112  0.8035 -0.6621 -1.4330
 1010SOL    MW4 3808   1.787   5.303   1.073  0.4822  0.2584 -0.3155
 1011SOL     OW 3809   0.475   4.407   0.929  0.6153 -0.1088 -0.3407
 1011SOL    HW2 3810   0.397   4.436   0.975  0.7695  1.1950 -0.8480
 1011SOL    HW3 3811   0.443   4.352   0.858  0.2979 -1.0619  0.5121
 1011SOL    MW4 3812   0.461   4.403   0.926 -0.6406 -0.1277 -0.5465
 1012SOL     OW 3813   2.657   1.699   5.137 -0.4297  0.1799 -0.0595
 1012SOL    HW2 3814   2.704   1.619   5.159 -2.3102 -0.4196  2.1498
 1012SOL    HW3 3815   2.695   1.766   5.195 -0.8692  0.1802  0.2316
 1012SOL    MW4 3816   2.668   1.697   5.148  0.3565  0.6481 -0.1597
 1013SOL     OW 3817   5.489   0.882   3.597 -0.6898 -0.1883  0.0549
 1013SOL    HW2 3818   5.506   0.793   3.565  1.5659 -0.0885  0.7417
 1013SOL    HW3 3819   5.547   0.937   3.544 -0.9043  0.6531  0.6861
 1013SOL    MW4 3820   5.499   0.877   3.586  0.2969 -0.8968  0.4218
 1014SOL     OW 3821   1.784   0.915   5.690 -0.5265 -0.1280  0.3196
 1014SOL    HW2 3822   1.854   0.887   5.631 -0.5023 -0.2220  0.3922
 1014SOL    HW3 3823   1.715   0.849   5.678 -0.3255 -0.4244  0.7565
 1014SOL    MW4 3824   1.784   0.903   5.680  0.1657  0.3605  0.7333
 1015SOL     OW 3825   6.147   3.267   3.589 -0.3552 -0.9516  0.4295
 1015SOL    HW2 3826   6.190   3.249   3.673  2.0460 -1.4473 -0.8318
 1015SOL    HW3 3827   6.066   3.312   3.613 -0.6125 -2.6021  3.0982
 1015SOL    MW4 3828   6.142   3.270   3.603  0.0065  0.0525 -0.1027
 1016SOL     OW 3829   4.028   2.809   3.308  0.1442 -0.6466 -0.7832
 1016SOL    HW2 3830   4.021   2.864   3.230  2.0065  1.1747  0.2173
 1016SOL    HW3 3831   3.938   2.791   3.333 -0.4902 -0.0866 -2.5540
 1016SOL    MW4 3832   4.015   2.814   3.301 -0.0183  0.5096 -0.5019
 1017SOL     OW 3833   3.757   2.812   4.412 -0.5165 -0.1396  0.4368
 1017SOL    HW2 3834   3.725   2.726   4.388  0.2270 -0.7123  1.4031
 1017SOL    HW3 3835   3.794   2.800   4.500 -1.1034  1.3346  0.9220
 1017SOL    MW4 3836   3.758   2.799   4.421 -0.5285  0.0897  0.6897
 1018SOL     OW 3837   4.676   1.112   5.655  0.0355 -0.5190  0.1085
 1018SOL    HW2 3838   4.663   1.030   5.704 -0.6138 -0.7196 -0.3955
 1018SOL    HW3 3839   4.616   1.106   5.581  0.3629  0.1873 -0.2251
 1018SOL    MW4 3840   4.667   1.100   5.652  0.1045 -0.0370  0.0361
 1019SOL     OW 3841   4.431   1.004   4.539  0.0079  0.1624 -0.4140
 1019SOL    HW2 3842   4.343   0.995   4.577 -0.7634  2.2228 -1.5624
 1019SOL    HW3 3843   4.421   0.975   4.449  0.6353 -0.0656 -0.4141
 1019SOL    MW4 3844   4.418   0.999   4.532 -0.3085  0.2926  0.0281
 1020SOL     OW 3845   1.294   1.166   3.448 -0.5347 -0.1993 -0.9780
 1020SOL    HW2 3846   1.348   1.110   3.392 -0.0859  1.1658 -1.9536
 1020SOL    HW3 3847   1.341   1.249   3.452 -2.1941  0.8147 -1.2882
 1020SOL    MW4 3848   1.307   1.169   3.441  0.0636  0.0236 -0.0335
 1021SOL     OW 3849   2.778   3.696   5.959 -0.1592  0.1307 -0.0239
 1021SOL    HW2 3850   2.706   3.663   6.013 -1.1432  0.3433 -1.1727
 1021SOL    HW3 3851   2.768   3.792   5.962  0.0567  0.1598 -0.2145
 1021SOL    MW4 3852   2.767   3.705   5.967  0.0548  0.0686  0.1278
 1022SOL     OW 3853   3.469   3.626   2.143 -0.6196  0.2248 -0.0360
 1022SOL    HW2 3854   3.422   3.581   2.072 -2.2233 -0.7111  1.5246
 1022SOL    HW3 3855   3.400   3.667   2.195  0.5194  0.9429  0.9629
 1022SOL    MW4 3856   3.453   3.625   2.141  0.0128 -0.0685 -0.6301
 1023SOL     OW 3857   1.469   4.431   2.626  0.2164 -0.1215 -0.1550
 1023SOL    HW2 3858   1.428   4.360   2.675  1.3431 -1.1216 -0.6154
 1023SOL    HW3 3859   1.442   4.416   2.535 -0.1601  0.4925 -0.1489
 1023SOL    MW4 3860   1.460   4.420   2.621 -0.4513 -0.3938 -0.9493
 1024SOL     OW 3861   3.411   0.975   1.075 -0.1460  0.0968  0.0633
 1024SOL    HW2 3862   3.435   0.884   1.059 -1.4330 -0.0943 -0.9130
 1024SOL    HW3 3863   3.330   0.988   1.026 -0.7533  1.3717  1.3202
 1024SOL    MW4 3864   3.404   0.965   1.067  0.0199  0.2136 -0.7942
 1025SOL     OW 3865   0.321   0.740   6.422  0.4562  0.2962 -0.1395
 1025SOL    HW2 3866   0.264   0.755   6.497  0.1582 -0.6383 -0.1674
 1025SOL    HW3 3867   0.353   0.650   6.434  2.0931  0.8617 -0.0010
 1025SOL    MW4 3868   0.318   0.730   6.434  0.6332 -0.3137 -0.3344
 1026SOL     OW 3869   3.107   1.000   2.555 -0.1844  0.0933  0.0391
 1026SOL    HW2 3870   3.025   0.977   2.511  0.0452 -0.4987 -0.0931
 1026SOL    HW3 3871   3.174   0.983   2.489  0.0176  0.8841  0.0390
 1026SOL    MW4 3872   3.105   0.994   2.540  0.4119 -0.2415  0.0950
 1027SOL     OW 3873   0.167   1.471   6.190 -0.0935  0.3075  0.5035
 1027SOL    HW2 3874   0.245   1.478   6.245  1.0041 -2.0318 -0.6125
 1027SOL    HW3 3875   0.094   1.468   6.252  0.9341 -0.2710  1.7168
 1027SOL    MW4 3876   0.167   1.472   6.205 -0.1931  0.0159 -0.3103
 1028SOL     OW 3877   3.145   1.863   5.439  0.4242  0.0818  0.0719
 1028SOL    HW2 3878   3.081   1.792   5.452 -0.4283  0.3505 -2.1570
 1028SOL    HW3 3879   3.192   1.869   5.522 -1.6314 -0.9636  1.3942
 1028SOL    MW4 3880   3.142   1.854   5.452  0.1379 -0.2367 -0.4200
 1029SOL     OW 3881   1.186   5.584   4.850  0.3162 -0.0922  0.1094
 1029SOL    HW2 3882   1.204   5.500   4.808 -0.9953 -0.5915  0.4886
 1029SOL    HW3 3883   1.115   5.565   4.912  0.4950  1.1463  0.7172
 1029SOL    MW4 3884   1.179   5.571   4.852 -0.7464  0.2058 -0.6312
 1030SOL     OW 3885   3.827   2.037   5.784  0.1928  0.3315 -0.4047
 1030SOL    HW2 3886   3.821   2.064   5.692  0.3642  1.4871 -0.0980
 1030SOL    HW3 3887   3.779   2.105   5.831 -0.1640 -0.4242  0.3391
 1030SOL    MW4 3888   3.820   2.050   5.778 -0.0688 -0.1782  0.0258
 1031SOL     OW 3889   3.606   3.973   2.725 -0.0770  0.5520 -0.1771
 1031SOL    HW2 3890   3.577   4.062   2.704  2.0353  1.0993 -0.9872
 1031SOL    HW3 3891   3.539   3.939   2.784 -1.1758  2.5001 -0.2412
 1031SOL    MW4 3892   3.593   3.980   2.730 -0.1521  0.8062 -0.4489
 1032SOL     OW 3893   3.108   0.876   5.074  0.2037  0.0906  0.3015
 1032SOL    HW2 3894   3.051   0.808   5.039 -0.2915 -0.0058  1.2566
 1032SOL    HW3 3895   3.048   0.937   5.118  0.9270 -1.0222  3.0360
 1032SOL    MW4 3896   3.092   0.875   5.075  0.1771  0.1984  0.1283
 1033SOL     OW 3897   0.787   1.671   2.905 -0.1194 -0.2954 -0.3092
 1033SOL    HW2 3898   0.874   1.633   2.896 -1.0522 -2.3475 -1.3372
 1033SOL    HW3 3899   0.771   1.672   2.999  0.6034 -0.8831 -0.1730
 1033SOL    MW4 3900   0.797   1.666   2.916  0.5824  0.0901 -0.2814
 1034SOL     OW 3901   0.713   6.078   4.475  0.4695 -0.3750 -0.2552
 1034SOL    HW2 3902   0.728   5.983   4.476  0.2289 -0.4316 -1.1792
 1034SOL    HW3 3903   0.741   6.107   4.562  1.6362 -1.1341 -0.3458
 1034SOL    MW4 3904   0.719   6.069   4.486  0.1480  0.1179  0.3462
 1035SOL     OW 3905   5.616   4.206   5.629  0.4848 -0.0435 -0.0559
 1035SOL    HW2 3906   5.550   4.195   5.698  1.5170 -0.8781  0.8272
 1035SOL    HW3 3907   5.699   4.181   5.670  1.4044  1.1927 -1.0784
 1035SOL    MW4 3908   5.618   4.201   5.643 -0.3426 -0.3358 -0.7111
 1036SOL     OW 3909   2.033   2.816   3.326  0.8831  0.4606  0.2139
 1036SOL    HW2 3910   2.021   2.725   3.296  1.5212 -0.7636  3.2694
 1036SOL    HW3 3911   2.128   2.829   3.324  0.8927  0.5741  0.9537
 1036SOL    MW4 3912   2.044   2.805   3.322 -0.1163  0.2430 -0.8788
 1037SOL     OW 3913   1.909   4.528   3.371 -0.5369  0.0528  0.3047
 1037SOL    HW2 3914   1.958   4.610   3.362  0.5319 -0.6035 -0.1160
 1037SOL    HW3 3915   1.976   4.462   3.391 -1.4626 -0.6044  1.3318
 1037SOL    MW4 3916   1.924   4.530   3.372 -0.2849 -0.0341 -0.0759
 1038SOL     OW 3917   0.081   4.655   1.147  0.2549  0.0152 -0.0965
 1038SOL    HW2 3918   0.029   4.656   1.227  0.6713 -1.2067  0.2090
 1038SOL    HW3 3919   0.136   4.733   1.152 -0.1743  0.2823  0.4952
 1038SOL    MW4 3920   0.081   4.665   1.158 -0.7687  0.1248 -0.7433
 1039SOL     OW 3921   0.324   1.038   1.077 -0.3529 -0.6683  0.3934
 1039SOL    HW2 3922   0.372   1.078   1.005 -1.3619 -1.6456 -0.8869
 1039SOL    HW3 3923   0.373   0.958   1.097  0.1383 -0.2067  1.0728
 1039SOL    MW4 3924   0.337   1.032   1.070 -0.1006  0.4968  0.1842
 1040SOL     OW 3925   1.958   5.219   5.764  0.0976 -0.2674  0.2828
 1040SOL    HW2 3926   1.896   5.199   5.694 -0.5879  0.6700  0.5913
 1040SOL    HW3 3927   1.906   5.217   5.844  0.3677  0.8682  0.5148
 1040SOL    MW4 3928   1.943   5.216   5.765  0.0397  0.0642 -0.0328
 1041SOL     OW 3929   4.923   1.441   0.725  0.0868 -0.8751 -0.1883
 1041SOL    HW2 3930   4.942   1.431   0.818 -0.4159 -1.1302 -0.1120
 1041SOL    HW3 3931   4.829   1.426   0.717 -0.2970  1.3117 -0.4219
 1041SOL    MW4 3932   4.913   1.438   0.736  0.0247 -0.4630  0.1033
 1042SOL     OW 3933   1.887   6.409   1.656  0.4161  0.0027  0.1959
 1042SOL    HW2 3934   1.920   6.448   1.737  1.7595 -0.5462 -0.0643
 1042SOL    HW3 3935   1.912   6.472   1.588 -0.5211  0.3587  0.1631
 1042SOL    MW4 3936   1.895   6.423   1.658  0.6720 -0.0664 -0.3138
 1043SOL     OW 3937   3.089   4.253   3.158 -0.1673 -0.0318 -0.2206
 1043SOL    HW2 3938   3.032   4.188   3.116 -0.3442  0.6388 -1.0340
 1043SOL    HW3 3939   3.172   4.245   3.110 -0.0616  0.0617 -0.0513
 1043SOL    MW4 3940   3.092   4.243   3.146 -0.0390  0.0957  0.2377
 1044SOL     OW 3941   1.817   5.934   0.638  0.8232 -0.2127 -0.0056
 1044SOL    HW2 3942   1.833   5.857   0.693  3.0326 -0.1017 -0.3859
 1044SOL    HW3 3943   1.794   5.898   0.552 -0.4028 -0.4012  0.3857
 1044SOL    MW4 3944   1.816   5.919   0.634  0.8718  0.1973  0.1451
 1045SOL     OW 3945   4.839   0.562   5.022  0.3724 -0.2120 -0.8220
 1045SOL    HW2 3946   4.780   0.625   4.981 -0.3157 -1.1122 -1.2618
 1045SOL    HW3 3947   4.859   0.599   5.107  0.9386  1.1748 -1.5277
 1045SOL    MW4 3948   4.834   0.575   5.028 -0.3447 -0.2500  0.0989
 1046SOL     OW 3949   2.023   1.128   3.711  0.0839  0.1387  0.5765
 1046SOL    HW2 3950   1.931   1.148   3.726 -0.0854 -0.4943  0.4262
 1046SOL    HW3 3951   2.035   1.140   3.617 -0.2483 -1.3025  0.3254
 1046SOL    MW4 3952   2.012   1.132   3.700 -0.5090  0.0855  0.2466
 1047SOL     OW 3953   5.489   0.646   1.705  0.2903 -0.1358 -0.2993
 1047SOL    HW2 3954   5.415   0.665   1.647  0.9025 -0.0462 -1.0514
 1047SOL    HW3 3955   5.557   0.708   1.679  0.5279 -0.0034  0.6054
 1047SOL    MW4 3956   5.488   0.657   1.694  0.0980 -0.1032 -0.3273
 1048SOL     OW 3957   2.651   6.455   3.943  0.4454  0.2160  0.5662
 1048SOL    HW2 3958   2.668   6.366   3.975 -0.1819 -0.4140 -0.7813
 1048SOL    HW3 3959   2.736   6.485   3.910  0.9684  0.6577  2.2086
 1048SOL    MW4 3960   2.665   6.447   3.943  0.1032  0.2396  0.6631
 1049SOL     OW 3961   6.329   5.653   3.916 -0.3244 -0.1868 -0.5971
 1049SOL    HW2 3962   6.243   5.656   3.873 -0.1046 -1.6924 -1.2036
 1049SOL    HW3 3963   6.350   5.560   3.919  0.0059 -0.0836  2.1573
 1049SOL    MW4 3964   6.320   5.641   3.911  0.1551 -0.2203 -0.1587
 1050SOL     OW 3965   0.015   2.248   6.154 -0.1086 -0.1792 -0.1088
 1050SOL    HW2 3966  -0.074   2.274   6.132  0.5948  0.9553 -1.8200
 1050SOL    HW3 3967   0.065   2.329   6.156  1.1210 -0.8950 -0.3490
 1050SOL    MW4 3968   0.010   2.262   6.151  0.1034 -0.2028 -0.1745
 1051SOL     OW 3969   2.437   2.315   2.811  0.5147  0.0508 -0.0399
 1051SOL    HW2 3970   2.477   2.391   2.852 -0.3654  0.7368 -0.4137
 1051SOL    HW3 3971   2.343   2.333   2.814  0.2316 -1.3784  0.5642
 1051SOL    MW4 3972   2.430   2.327   2.817  0.1467  0.0882 -0.6436
 1052SOL     OW 3973   4.575   5.612   2.216 -0.1563  0.5669  0.3726
 1052SOL    HW2 3974   4.542   5.698   2.242  2.4096  1.5051  0.8225
 1052SOL    HW3 3975   4.512   5.550   2.251 -1.2321  2.1919  1.4470
 1052SOL    MW4 3976   4.562   5.616   2.224 -0.4118 -0.2176  0.2601
 1053SOL     OW 3977   4.015   4.782   3.612 -0.1421 -0.2130  0.4279
 1053SOL    HW2 3978   4.094   4.775   3.665 -1.2824  0.2637  2.2611
 1053SOL    HW3 3979   4.039   4.739   3.529  2.0135 -0.0758  0.9077
 1053SOL    MW4 3980   4.029   4.775   3.608  0.0497 -0.0677  0.4576
 1054SOL     OW 3981   1.717   5.107   3.770 -0.1487 -0.4024 -0.0183
 1054SOL    HW2 3982   1.806   5.144   3.771 -0.1595 -0.3803  0.2449
 1054SOL    HW3 3983   1.660   5.184   3.767 -0.1469 -0.4360 -1.2988
 1054SOL    MW4 3984   1.721   5.122   3.770 -0.1117  0.0171  0.0879
 1055SOL     OW 3985   1.298   0.844   1.709  0.3608 -0.0320  0.6707
 1055SOL    HW2 3986   1.317   0.930   1.749 -0.2487  0.6206 -0.4063
 1055SOL    HW3 3987   1.225   0.810   1.761 -0.4783  0.8447  0.0893
 1055SOL    MW4 3988   1.291   0.851   1.721 -0.6014 -0.7260 -0.1351
 1056SOL     OW 3989   3.722   4.361   0.533  0.3646 -0.1686 -0.0175
 1056SOL    HW2 3990   3.642   4.335   0.488  0.1705 -1.9669  1.2843
 1056SOL    HW3 3991   3.781   4.286   0.523  1.3207  0.4963  0.4107
 1056SOL    MW4 3992   3.719   4.348   0.526  0.0009 -0.4666 -0.0404
 1057SOL     OW 3993   0.790   1.311   4.499  0.0569  0.5125  0.6908
 1057SOL    HW2 3994   0.716   1.250   4.494  0.1439  0.4334  0.3104
 1057SOL    HW3 3995   0.763   1.375   4.564 -0.5605  0.7602  0.2052
 1057SOL    MW4 3996   0.776   1.311   4.507 -0.0925  0.1545  0.6250
 1058SOL     OW 3997   2.025   6.104   0.325 -0.3404 -0.2176  0.1254
 1058SOL    HW2 3998   1.933   6.108   0.299  0.0513  0.0211 -1.2942
 1058SOL    HW3 3999   2.073   6.092   0.243  0.8798 -0.6451  0.8765
 1058SOL    MW4 4000   2.020   6.103   0.311  0.3282  0.2054 -0.0187
 1059SOL     OW 4001   1.107   3.529   3.222  1.0271 -0.4019  0.1939
 1059SOL    HW2 4002   1.131   3.532   3.130  1.6012 -0.0149  0.3568
 1059SOL    HW3 4003   1.101   3.435   3.242 -1.2265 -0.5265 -0.7743
 1059SOL    MW4 4004   1.109   3.517   3.213 -0.2148 -0.1531 -0.1666
 1060SOL     OW 4005   2.365   2.397   4.194  0.0860 -0.0358 -0.5479
 1060SOL    HW2 4006   2.302   2.386   4.265  0.1023  0.2129 -0.4959
 1060SOL    HW3 4007   2.446   2.425   4.237 -0.2792  1.4580 -0.7837
 1060SOL    MW4 4008   2.367   2.399   4.209 -0.3152  0.2782 -0.0678
 1061SOL     OW 4009   4.271   0.511   4.839  0.4591  0.0714 -0.5574
 1061SOL    HW2 4010   4.221   0.431   4.852 -0.2925  0.4639 -0.9786
 1061SOL    HW3 4011   4.212   0.581   4.868  1.1228  0.4759 -0.1559
 1061SOL    MW4 4012   4.257   0.510   4.845  0.2292  0.0611 -0.0833
 1062SOL     OW 4013   5.109   1.149   6.055 -0.3158  0.1372  0.1027
 1062SOL    HW2 4014   5.167   1.074   6.065 -0.8039 -0.2512  0.0665
 1062SOL    HW3 4015   5.025   1.111   6.029 -0.1345  0.8106 -1.5996
 1062SOL    MW4 4016   5.106   1.134   6.053  0.0465 -0.6184  0.0403
 1063SOL     OW 4017   6.207   0.425   6.187  0.0443 -0.6724  0.2084
 1063SOL    HW2 4018   6.221   0.408   6.281  1.8606 -0.2576  0.0459
 1063SOL    HW3 4019   6.238   0.345   6.144  1.4080  0.0169 -0.1369
 1063SOL    MW4 4020   6.213   0.412   6.194  0.3245 -0.0425 -0.1695
 1064SOL     OW 4021   2.743   3.812   3.055  0.7373 -0.3508  0.1036
 1064SOL    HW2 4022   2.771   3.742   3.114  0.3692  0.5986  1.4566
 1064SOL    HW3 4023   2.738   3.889   3.111 -1.0991  0.2686 -0.8375
 1064SOL    MW4 4024   2.746   3.813   3.071  0.3769  0.1531  0.4751
 1065SOL     OW 4025   1.524   1.998   4.217  0.1272 -0.2311 -0.3811
 1065SOL    HW2 4026   1.476   2.008   4.135 -0.4126 -0.3683 -0.0841
 1065SOL    HW3 4027   1.539   2.088   4.247 -1.3374 -0.1934  0.3238
 1065SOL    MW4 4028   1.520   2.011   4.210 -0.1160  0.2803  0.1490
 1066SOL     OW 4029   0.461   4.848   4.348 -0.2670 -0.2913  0.0089
 1066SOL    HW2 4030   0.510   4.854   4.430  1.3945 -0.5009 -0.9207
 1066SOL    HW3 4031   0.399   4.921   4.352  2.1016  1.8534  0.0135
 1066SOL    MW4 4032   0.459   4.859   4.359 -0.1346 -0.4945 -0.7063
 1067SOL     OW 4033   2.069   0.440   5.569 -0.2029  0.5426 -0.0462
 1067SOL    HW2 4034   2.008   0.366   5.564  1.2249 -0.7189  0.3829
 1067SOL    HW3 4035   2.088   0.461   5.478 -0.1781 -0.0093 -0.1752
 1067SOL    MW4 4036   2.063   0.433   5.556  0.4801  0.1005  0.2334
 1068SOL     OW 4037   5.598   0.383   3.857  0.2768  0.0865  0.3241
 1068SOL    HW2 4038   5.662   0.312   3.854 -0.4476 -0.5834  0.5585
 1068SOL    HW3 4039   5.576   0.392   3.950  0.5251  0.7745  0.3238
 1068SOL    MW4 4040   5.604   0.375   3.869  0.6535 -0.1150  0.0305
 1069SOL     OW 4041   5.939   0.798   1.467 -0.0975  0.4738 -0.5836
 1069SOL    HW2 4042   5.956   0.877   1.519  1.8697  1.5476 -2.6730
 1069SOL    HW3 4043   6.026   0.771   1.436 -1.0267 -1.0029 -2.0692
 1069SOL    MW4 4044   5.953   0.805   1.470  0.3346  0.4098 -0.1255
 1070SOL     OW 4045   4.698   5.196   5.078 -0.8348  0.6013 -0.4863
 1070SOL    HW2 4046   4.687   5.134   5.006 -0.5405  0.0809 -0.0907
 1070SOL    HW3 4047   4.739   5.145   5.148  2.1072  1.8672 -1.1131
 1070SOL    MW4 4048   4.702   5.181   5.078  0.0548 -0.1956 -0.1774
 1071SOL     OW 4049   1.147   5.335   0.125  0.6745 -0.2167 -0.5027
 1071SOL    HW2 4050   1.125   5.401   0.191  1.0452 -0.2347 -0.3581
 1071SOL    HW3 4051   1.195   5.383   0.058 -1.9042  0.3589 -2.0962
 1071SOL    MW4 4052   1.150   5.350   0.125 -0.2503  0.5716 -0.1686
 1072SOL     OW 4053   0.360   4.215   0.767 -0.1056 -0.0217  0.0183
 1072SOL    HW2 4054   0.445   4.209   0.723  0.4944  0.0423  1.1298
 1072SOL    HW3 4055   0.371   4.162   0.846 -1.0740  0.0741  0.2230
 1072SOL    MW4 4056   0.373   4.207   0.771  0.0387 -0.3033 -0.0730
 1073SOL     OW 4057   0.150   3.103   1.980  0.2981  0.4858 -0.3257
 1073SOL    HW2 4058   0.160   3.142   2.067 -0.9700  0.1600 -0.0147
 1073SOL    HW3 4059   0.240   3.083   1.953  0.8440  2.0610  0.2100
 1073SOL    MW4 4060   0.163   3.105   1.988  0.0713 -0.0716 -0.3777
 1074SOL     OW 4061   1.005   5.413   1.924 -0.1625  0.5086  0.0951
 1074SOL    HW2 4062   1.090   5.406   1.967 -0.4043 -0.7911  0.3920
 1074SOL    HW3 4063   0.944   5.434   1.994 -0.0103  2.1805 -0.2255
 1074SOL    MW4 4064   1.008   5.415   1.939 -0.2817 -0.0725 -0.3760
 1075SOL     OW 4065   0.383   2.531   5.807  0.1118 -0.3126 -0.1858
 1075SOL    HW2 4066   0.469   2.490   5.817  0.1715  0.1135  1.3621
 1075SOL    HW3 4067   0.334   2.501   5.884 -0.7286  0.3681 -0.4463
 1075SOL    MW4 4068   0.388   2.521   5.819  0.1005 -0.4031  0.0509
 1076SOL     OW 4069   3.956   6.447   1.215 -0.1165  0.3496 -1.1177
 1076SOL    HW2 4070   3.941   6.454   1.309  0.6923  0.2151 -0.9692
 1076SOL    HW3 4071   4.013   6.371   1.205  0.2174  0.6615 -1.6633
 1076SOL    MW4 4072   3.962   6.438   1.226  0.0364  1.1157 -0.0021
 1077SOL     OW 4073   3.958   2.071   0.239  0.3068 -0.1070  0.1899
 1077SOL    HW2 4074   3.963   2.041   0.329  1.6165 -2.1193 -0.4873
 1077SOL    HW3 4075   4.042   2.113   0.223 -0.2386  0.9797  0.1337
 1077SOL    MW4 4076   3.970   2.072   0.248 -0.3237  0.3475 -0.0332
 1078SOL     OW 4077   3.047   5.536   0.817 -0.4659  0.4587 -0.2042
 1078SOL    HW2 4078   3.009   5.466   0.869 -0.8301  1.1991  0.5574
 1078SOL    HW3 4079   2.996   5.614   0.842  0.5791  1.1793 -0.2701
 1078SOL    MW4 4080   3.035   5.537   0.827  0.0475  0.7552  0.4263
 1079SOL     OW 4081   5.987   2.582   0.047 -0.8679  0.4936 -0.7285
 1079SOL    HW2 4082   6.062   2.583  -0.012 -1.3630 -1.2901 -1.4573
 1079SOL    HW3 4083   5.933   2.656   0.018  0.7411  2.0447  0.0696
 1079SOL    MW4 4084   5.990   2.592   0.035 -0.2875  0.1529  0.0347
 1080SOL     OW 4085   1.337   0.106   4.734 -0.6295  0.3211 -0.5365
 1080SOL    HW2 4086   1.423   0.066   4.748 -1.4421 -1.0158  0.9531
 1080SOL    HW3 4087   1.340   0.186   4.786 -0.8755 -0.6585  1.0739
 1080SOL    MW4 4088   1.349   0.111   4.743 -0.3940 -0.5095  0.2082
 1081SOL     OW 4089   1.033   2.421   0.592 -0.4959  0.1059  0.5717
 1081SOL    HW2 4090   1.011   2.444   0.502 -0.8397  0.7830  0.8250
 1081SOL    HW3 4091   1.114   2.370   0.584  0.7312  2.0286  0.0356
 1081SOL    MW4 4092   1.041   2.417   0.579  0.3011  0.1185  0.3885
 1082SOL     OW 4093   0.670   3.843   0.876 -0.3748  0.4525 -0.6090
 1082SOL    HW2 4094   0.607   3.780   0.842  2.0399 -1.7251 -1.3949
 1082SOL    HW3 4095   0.745   3.789   0.902  1.1628  2.8892  0.2993
 1082SOL    MW4 4096   0.672   3.827   0.875  0.0290  0.8603 -0.1700
 1083SOL     OW 4097   3.971   5.701   3.010  0.0090  0.4872  0.1276
 1083SOL    HW2 4098   4.048   5.742   2.969  0.3373  0.0300  0.2769
 1083SOL    HW3 4099   3.964   5.744   3.096  1.1966 -0.7256  0.8664
 1083SOL    MW4 4100   3.980   5.712   3.016  0.2616  0.1950  0.5205
 1084SOL     OW 4101   5.320   2.094   5.290  0.4582  0.7263  0.3995
 1084SOL    HW2 4102   5.314   2.035   5.216 -0.3540  0.8717  0.3424
 1084SOL    HW3 4103   5.382   2.052   5.350 -0.4701 -0.4233  0.5800
 1084SOL    MW4 4104   5.327   2.081   5.288 -0.2809  0.7099  0.1272
 1085SOL     OW 4105   2.001   6.253   5.926 -0.1401  0.7307 -0.1164
 1085SOL    HW2 4106   1.905   6.245   5.928 -0.1118  0.5073  0.3370
 1085SOL    HW3 4107   2.030   6.216   6.009  0.5575 -1.9472 -1.4429
 1085SOL    MW4 4108   1.992   6.247   5.937 -0.2660 -0.8455  0.0755
 1086SOL     OW 4109   0.491   6.203   1.682  0.0219  0.5619  0.3036
 1086SOL    HW2 4110   0.440   6.151   1.620  2.4958 -0.4240 -1.0824
 1086SOL    HW3 4111   0.463   6.172   1.768 -2.2231  0.6818 -0.3274
 1086SOL    MW4 4112   0.481   6.192   1.685  0.3075 -0.6958  0.1926
 1087SOL     OW 4113   6.392   0.306   0.766 -0.3457 -0.2462 -0.2397
 1087SOL    HW2 4114   6.384   0.385   0.818  1.6778  0.5878 -1.0922
 1087SOL    HW3 4115   6.479   0.272   0.787 -0.9765 -1.9987 -0.2619
 1087SOL    MW4 4116   6.402   0.312   0.775  0.1173  0.3174  0.2641
 1088SOL     OW 4117   3.515   3.930   1.743 -0.4565  0.0758  0.2590
 1088SOL    HW2 4118   3.506   3.942   1.649  3.7952  1.0515 -0.1940
 1088SOL    HW3 4119   3.523   4.018   1.778  2.4536 -0.3135  0.8118
 1088SOL    MW4 4120   3.515   3.943   1.735  0.0412 -0.1357 -0.7464
 1089SOL     OW 4121   0.542   5.151   5.973  0.0560 -0.1388 -0.2932
 1089SOL    HW2 4122   0.629   5.130   5.939 -0.0086  1.1019 -1.3031
 1089SOL    HW3 4123   0.559   5.212   6.045  0.0015  0.4137 -0.7494
 1089SOL    MW4 4124   0.556   5.156   5.978  0.4902 -0.5701  0.0411
 1090SOL     OW 4125   3.226   4.175   6.256 -0.2562 -0.0806  0.6583
 1090SOL    HW2 4126   3.274   4.234   6.315  0.7103 -0.4147  0.2393
 1090SOL    HW3 4127   3.194   4.232   6.186  1.6759 -0.1624 -0.3692
 1090SOL    MW4 4128   3.228   4.190   6.255 -0.3818  0.1479 -0.0311
 1091SOL     OW 4129   5.320   2.534   4.276  0.0091  0.0596  0.5216
 1091SOL    HW2 4130   5.299   2.499   4.189 -3.1331 -0.0706  1.2447
 1091SOL    HW3 4131   5.416   2.528   4.280  0.1245 -2.0490 -2.0379
 1091SOL    MW4 4132   5.330   2.528   4.265  0.1903 -0.0132  0.2418
 1092SOL     OW 4133   0.674   1.575   0.252  0.1916  0.2379  0.0810
 1092SOL    HW2 4134   0.615   1.646   0.227 -2.4141 -1.1907  1.6031
 1092SOL    HW3 4135   0.699   1.595   0.342  2.1816  0.8549 -0.5726
 1092SOL    MW4 4136   0.669   1.587   0.261 -0.1121  0.2494 -0.4075
 1093SOL     OW 4137   4.978   1.113   3.364 -0.2564 -0.2897  0.3021
 1093SOL    HW2 4138   4.946   1.189   3.315 -1.2000 -0.5391  0.5193
 1093SOL    HW3 4139   5.023   1.059   3.299 -0.8493 -0.2540 -0.1382
 1093SOL    MW4 4140   4.980   1.116   3.349  0.2276 -0.4027 -0.1980
 1094SOL     OW 4141   2.496   3.387   0.675 -0.0298  0.2499 -0.7800
 1094SOL    HW2 4142   2.550   3.321   0.632  0.7281  0.8832 -0.8249
 1094SOL    HW3 4143   2.414   3.342   0.695  0.9400 -1.0946  0.3655
 1094SOL    MW4 4144   2.492   3.372   0.672  0.0525 -0.1662  0.5265
 1095SOL     OW 4145   4.167   4.156   5.579  0.0625  0.3460  0.0535
 1095SOL    HW2 4146   4.083   4.123   5.545  1.1315 -1.8894 -0.5756
 1095SOL    HW3 4147   4.191   4.094   5.648  1.3374  0.7788  0.0175
 1095SOL    MW4 4148   4.159   4.143   5.584 -0.4200  0.7636  0.0778
 1096SOL     OW 4149   6.354   4.482   6.185  0.2301  0.0035  0.2899
 1096SOL    HW2 4150   6.371   4.543   6.257  0.8661  0.5524 -0.3017
 1096SOL    HW3 4151   6.440   4.467   6.146 -0.2143  0.5189 -0.9725
 1096SOL    MW4 4152   6.368   4.488   6.189  0.3013  0.3278 -0.2916
 1097SOL     OW 4153   3.844   3.353   0.695  0.1947  0.2064  0.7644
 1097SOL    HW2 4154   3.896   3.305   0.631  1.3471  1.1657  0.9408
 1097SOL    HW3 4155   3.780   3.289   0.727  0.2382 -0.5642 -0.6034
 1097SOL    MW4 4156   3.842   3.338   0.691 -0.8318  0.2535  0.0959
 1098SOL     OW 4157   1.568   1.611   1.553  0.5087 -0.2823  0.6438
 1098SOL    HW2 4158   1.653   1.611   1.599 -0.3331 -1.9407  2.3322
 1098SOL    HW3 4159   1.570   1.531   1.500 -0.6563 -1.3684  2.1365
 1098SOL    MW4 4160   1.580   1.600   1.552 -0.2536  0.7532  0.4448
 1099SOL     OW 4161   4.981   4.430   3.037 -0.0355 -0.2770 -0.1016
 1099SOL    HW2 4162   5.024   4.514   3.026  1.4956 -0.9270  0.6974
 1099SOL    HW3 4163   5.052   4.368   3.053 -1.2766 -1.2951  1.8767
 1099SOL    MW4 4164   4.996   4.433   3.038  0.5152  0.4918 -0.1832
 1100SOL     OW 4165   5.033   4.842   2.075  0.2868 -0.4280 -0.1852
 1100SOL    HW2 4166   5.050   4.915   2.136  0.0618  0.9777 -1.7341
 1100SOL    HW3 4167   5.070   4.765   2.119  0.6815  0.6304  1.4402
 1100SOL    MW4 4168   5.040   4.842   2.089  0.5675  0.6619 -0.4411
 1101SOL     OW 4169   1.705   0.660   2.118 -0.5481  0.7510  0.4250
 1101SOL    HW2 4170   1.653   0.615   2.052 -1.0847  0.7057  0.8754
 1101SOL    HW3 4171   1.728   0.592   2.181  1.5552  0.3689 -0.6433
 1101SOL    MW4 4172   1.701   0.645   2.117  0.2994  0.2096  0.1355
 1102SOL     OW 4173   3.878   1.242   2.751 -0.1628  0.0394 -0.1863
 1102SOL    HW2 4174   3.934   1.231   2.828  0.3862 -0.8084 -0.6816
 1102SOL    HW3 4175   3.794   1.273   2.786  0.5461  1.1544  0.5871
 1102SOL    MW4 4176   3.874   1.245   2.766 -0.8311 -0.8402  0.0324
 1103SOL     OW 4177   3.675   4.348   4.670 -0.3168  0.0625  0.0315
 1103SOL    HW2 4178   3.754   4.366   4.619  1.2819 -1.8476  1.6284
 1103SOL    HW3 4179   3.611   4.318   4.606  0.3308  1.3555 -1.2777
 1103SOL    MW4 4180   3.677   4.347   4.655 -0.3901  0.4152  0.1912
 1104SOL     OW 4181   4.908   5.855   2.815 -1.0183  0.0260  0.5443
 1104SOL    HW2 4182   4.968   5.851   2.890 -0.2159  0.7027 -0.0442
 1104SOL    HW3 4183   4.939   5.787   2.756  1.6906  2.7762 -1.5261
 1104SOL    MW4 4184   4.920   5.846   2.817  0.2389  0.1989 -0.5844
 1105SOL     OW 4185   3.637   2.634   1.795  0.1502  0.0887  0.0447
 1105SOL    HW2 4186   3.595   2.554   1.765 -1.5886  0.7654  0.5237
 1105SOL    HW3 4187   3.718   2.605   1.838 -1.3262 -1.6132  1.8559
 1105SOL    MW4 4188   3.642   2.620   1.797 -0.3606 -0.3143  0.0980
 1106SOL     OW 4189   2.448   3.873   4.734 -0.0109  0.4549  0.4541
 1106SOL    HW2 4190   2.510   3.923   4.681  0.8207 -0.9307  0.0864
 1106SOL    HW3 4191   2.435   3.927   4.812 -2.2965  3.2062 -1.5925
 1106SOL    MW4 4192   2.454   3.887   4.737 -0.2386 -0.3537 -0.2062
 1107SOL     OW 4193   3.000   4.040   5.179 -0.4539  0.1418  0.3121
 1107SOL    HW2 4194   3.007   4.071   5.088 -1.8662  1.1616  0.5016
 1107SOL    HW3 4195   2.935   3.970   5.174 -0.3037 -0.0054  0.4805
 1107SOL    MW4 4196   2.992   4.035   5.166  0.6270  0.5295  0.6482
 1108SOL     OW 4197   0.722   2.355   3.399  0.2382 -0.1376  0.2449
 1108SOL    HW2 4198   0.746   2.427   3.341 -0.0455  0.5859  1.0099
 1108SOL    HW3 4199   0.651   2.310   3.352 -1.0219  1.3395  0.6804
 1108SOL    MW4 4200   0.716   2.358   3.385 -0.1016 -0.2669 -0.4279
 1109SOL     OW 4201   3.107   5.582   4.374 -0.6225  0.1259 -0.4552
 1109SOL    HW2 4202   3.094   5.595   4.280 -0.4766  1.1040 -0.3558
 1109SOL    HW3 4203   3.033   5.627   4.414  0.3184  1.3939 -0.0558
 1109SOL    MW4 4204   3.096   5.590   4.367  0.3399  0.1282  0.0200
 1110SOL     OW 4205   4.009   4.682   2.825  0.3228  0.2630 -0.6642
 1110SOL    HW2 4206   3.914   4.685   2.823  0.3379  1.3672 -0.3776
 1110SOL    HW3 4207   4.034   4.731   2.903  1.1131 -0.7870 -0.2240
 1110SOL    MW4 4208   4.000   4.689   2.835  0.3714  0.2462  0.1504
 1111SOL     OW 4209   2.732   2.214   2.619 -0.3206  0.0308 -0.1003
 1111SOL    HW2 4210   2.680   2.293   2.601 -0.3325  0.2066  0.6958
 1111SOL    HW3 4211   2.803   2.243   2.676  1.0806 -0.0748 -1.7092
 1111SOL    MW4 4212   2.734   2.228   2.624  0.1186  0.4125 -0.1780
 1112SOL     OW 4213   5.733   3.310   5.504 -0.0692  0.2560  0.4219
 1112SOL    HW2 4214   5.798   3.241   5.516 -0.4742 -0.3940 -0.9305
 1112SOL    HW3 4215   5.719   3.346   5.591  2.0849  0.3904  0.7602
 1112SOL    MW4 4216   5.740   3.306   5.517  0.3643 -0.2274  0.5683
 1113SOL     OW 4217   6.310   3.407   2.639 -0.5634  0.4559  0.3958
 1113SOL    HW2 4218   6.245   3.477   2.636  1.9416  2.9538  0.6282
 1113SOL    HW3 4219   6.375   3.437   2.702  0.3121 -2.4528  1.0288
 1113SOL    MW4 4220   6.310   3.420   2.647  0.5527 -0.4388  0.2398
 1114SOL     OW 4221   2.447   2.623   5.893 -0.5939 -0.0655  0.1907
 1114SOL    HW2 4222   2.536   2.638   5.861  0.2403 -1.7452  1.5377
 1114SOL    HW3 4223   2.432   2.529   5.879 -2.2663  0.2482 -0.2634
 1114SOL    MW4 4224   2.457   2.613   5.887  0.4519 -0.8154 -0.0547
 1115SOL     OW 4225   1.575   1.365   1.396  0.3932 -0.1881 -0.0982
 1115SOL    HW2 4226   1.640   1.376   1.327  1.6530 -2.0286  0.7250
 1115SOL    HW3 4227   1.609   1.295   1.451 -3.3301 -2.9892 -0.9171
 1115SOL    MW4 4228   1.588   1.357   1.394  0.2037 -0.1329  0.3000
 1116SOL     OW 4229   3.031   4.271   0.599  0.1910  0.5340 -0.1590
 1116SOL    HW2 4230   3.046   4.254   0.692  1.3555  0.1539 -0.4092
 1116SOL    HW3 4231   2.935   4.280   0.592  0.0692  0.3367  1.0265
 1116SOL    MW4 4232   3.020   4.270   0.611  0.2734  0.1076  0.4791
 1117SOL     OW 4233   4.772   1.353   1.201  0.0953  0.8250  0.5759
 1117SOL    HW2 4234   4.764   1.369   1.295  0.0162  1.2552  0.4969
 1117SOL    HW3 4235   4.816   1.268   1.195 -1.4729 -0.0599  1.0063
 1117SOL    MW4 4236   4.777   1.344   1.213 -0.4134  0.1659 -0.6043
 1118SOL     OW 4237   2.355   1.093   1.572  0.1231  0.3305 -0.0932
 1118SOL    HW2 4238   2.423   1.025   1.581  1.0378  1.2576  0.1533
 1118SOL    HW3 4239   2.273   1.043   1.564  0.8126 -0.8128 -0.3283
 1118SOL    MW4 4240   2.353   1.077   1.572  0.2667 -0.3281  0.1221
 1119SOL     OW 4241   4.411   4.550   2.632  0.2084 -1.1977  0.4318
 1119SOL    HW2 4242   4.456   4.498   2.565  0.4843 -0.3848 -0.0254
 1119SOL    HW3 4243   4.465   4.629   2.642 -0.5583 -0.6857  0.6309
 1119SOL    MW4 4244   4.424   4.554   2.625 -0.2242  0.3229  0.1213
 1120SOL     OW 4245   2.837   5.871   0.658  0.1323 -0.1547  0.1180
 1120SOL    HW2 4246   2.752   5.834   0.632 -1.0084  2.2191  0.2093
 1120SOL    HW3 4247   2.895   5.850   0.584 -0.6121 -1.4521 -0.1368
 1120SOL    MW4 4248   2.834   5.863   0.645  0.0869 -0.2036  0.7237
 1121SOL     OW 4249   5.677   1.956   6.103 -0.2205 -0.3334  0.5814
 1121SOL    HW2 4250   5.660   2.000   6.187  0.9266  0.1144  0.5964
 1121SOL    HW3 4251   5.658   2.022   6.037 -0.3827 -0.4381  0.5242
 1121SOL    MW4 4252   5.672   1.971   6.105 -0.3130  0.4090  0.0486
 1122SOL     OW 4253   1.079   4.214   3.819  0.1728  0.2592  0.0549
 1122SOL    HW2 4254   1.157   4.259   3.852  1.3274 -0.7169 -1.1895
 1122SOL    HW3 4255   1.092   4.210   3.724 -1.5442  0.3073 -0.2156
 1122SOL    MW4 4256   1.091   4.219   3.810 -0.4960 -0.6853 -0.2844
 1123SOL     OW 4257   4.692   5.206   0.999  0.6706 -0.2045 -0.4283
 1123SOL    HW2 4258   4.758   5.161   1.052  0.7445  0.9588  0.5141
 1123SOL    HW3 4259   4.610   5.190   1.044  0.7918  1.1549  0.3345
 1123SOL    MW4 4260   4.690   5.198   1.012  1.0615  0.3220  0.2377
 1124SOL     OW 4261   2.986   4.979   3.387  0.5187 -0.0057  0.7638
 1124SOL    HW2 4262   2.931   5.052   3.359  1.5732  0.6944  0.4276
 1124SOL    HW3 4263   2.943   4.945   3.466  0.0384  1.0177  0.9575
 1124SOL    MW4 4264   2.973   4.984   3.394  0.4762  0.0530  0.1923
 1125SOL     OW 4265   4.146   2.943   0.332  0.2728  0.3117 -0.0217
 1125SOL    HW2 4266   4.090   2.917   0.405 -1.2804 -0.2060 -1.3567
 1125SOL    HW3 4267   4.117   3.031   0.310  0.2248  0.1782 -0.4933
 1125SOL    MW4 4268   4.135   2.951   0.339  0.2513  0.4147 -0.3288
 1126SOL     OW 4269   4.194   2.241   4.377  0.2476 -0.1670  0.1945
 1126SOL    HW2 4270   4.240   2.230   4.294  0.0320 -0.2242  0.0822
 1126SOL    HW3 4271   4.226   2.170   4.433  1.3555  0.6164  0.5999
 1126SOL    MW4 4272   4.204   2.230   4.374  0.1742 -0.1856  0.4677
 1127SOL     OW 4273   4.383   3.516   1.214  0.3332  0.0832 -0.1246
 1127SOL    HW2 4274   4.470   3.488   1.244  0.4938  1.1428  0.4515
 1127SOL    HW3 4275   4.399   3.556   1.129  0.3794  0.0804 -0.1174
 1127SOL    MW4 4276   4.397   3.517   1.207  0.3527 -0.1974  0.0163
 1128SOL     OW 4277   4.040   0.444   2.169 -0.0685  0.6640 -0.4497
 1128SOL    HW2 4278   4.053   0.538   2.160 -0.2583  0.6509 -0.8938
 1128SOL    HW3 4279   4.061   0.408   2.082  0.1399  0.2818 -0.2458
 1128SOL    MW4 4280   4.044   0.451   2.156  0.2644 -0.1287  0.0037
 1129SOL     OW 4281   3.270   2.076   4.028 -0.1685 -0.2929 -0.1909
 1129SOL    HW2 4282   3.343   2.052   4.086 -0.5331  0.5880  0.6605
 1129SOL    HW3 4283   3.311   2.126   3.958  0.1096 -0.2346  0.0089
 1129SOL    MW4 4284   3.285   2.079   4.027  0.4142  0.2023  0.3999
 1130SOL     OW 4285   1.720   1.275   4.169  0.0083  0.7609 -0.2310
 1130SOL    HW2 4286   1.791   1.298   4.108  0.4210  0.1855  0.0356
 1130SOL    HW3 4287   1.747   1.193   4.209 -1.1499  0.1312 -0.6666
 1130SOL    MW4 4288   1.733   1.268   4.166 -0.1593 -0.3132 -0.4594
 1131SOL     OW 4289   5.246   1.649   4.988 -0.3397 -0.2841  0.0762
 1131SOL    HW2 4290   5.160   1.611   4.968  0.2780 -1.4446 -0.4931
 1131SOL    HW3 4291   5.301   1.626   4.913  0.4846  0.4297  0.4362
 1131SOL    MW4 4292   5.242   1.641   4.975  0.0083 -0.2593  0.1431
 1132SOL     OW 4293   6.246   2.994   4.282 -0.3155  0.0718 -0.6024
 1132SOL    HW2 4294   6.179   3.044   4.235 -1.9049 -0.3976  1.0588
 1132SOL    HW3 4295   6.249   3.033   4.369  1.5183  0.0013 -0.6064
 1132SOL    MW4 4296   6.237   3.006   4.287 -0.3794 -0.1604 -0.2390
 1133SOL     OW 4297   4.913   6.050   4.615 -0.1299 -0.6218  0.0511
 1133SOL    HW2 4298   4.935   6.143   4.623 -2.6342  0.1028 -0.7592
 1133SOL    HW3 4299   4.994   6.005   4.638  2.2124  1.7646 -2.6367
 1133SOL    MW4 4300   4.927   6.056   4.619  0.2777 -0.3473 -0.0576
 1134SOL     OW 4301   5.517   2.666   3.815 -0.3587 -0.1318 -0.7657
 1134SOL    HW2 4302   5.526   2.570   3.818 -0.3111 -0.1085  0.1495
 1134SOL    HW3 4303   5.443   2.685   3.872  1.4072  0.5603  1.4388
 1134SOL    MW4 4304   5.509   2.656   3.823 -0.7547 -0.1153  0.0750
 1135SOL     OW 4305   0.494   0.168   5.413  0.5628 -0.0969 -0.4141
 1135SOL    HW2 4306   0.464   0.083   5.446  1.1400  0.9755  3.3598
 1135SOL    HW3 4307   0.416   0.222   5.413  0.6764  0.0652 -0.3252
 1135SOL    MW4 4308   0.480   0.164   5.417 -0.4535  0.3891 -0.3694
 1136SOL     OW 4309   0.350   6.043   1.874 -0.3834  0.6318  0.6001
 1136SOL    HW2 4310   0.269   6.053   1.824 -0.3519 -2.3224 -0.2184
 1136SOL    HW3 4311   0.321   6.034   1.965 -1.3681 -2.9808  0.0761
 1136SOL    MW4 4312   0.336   6.043   1.880 -0.2280  0.0119 -0.2537
 1137SOL     OW 4313   4.829   3.299   5.023 -0.3616  0.0665 -0.2153
 1137SOL    HW2 4314   4.806   3.225   5.077  0.9274  0.8419  1.4909
 1137SOL    HW3 4315   4.875   3.261   4.948 -0.4993 -0.9020  0.1823
 1137SOL    MW4 4316   4.832   3.284   5.020 -0.4330  0.4691 -0.0330
 1138SOL     OW 4317   0.042   3.428   3.967  0.1576 -0.1018  0.3195
 1138SOL    HW2 4318  -0.032   3.454   4.022  1.4272  2.4379  1.0062
 1138SOL    HW3 4319   0.047   3.496   3.899  0.5660 -1.4212 -1.0243
 1138SOL    MW4 4320   0.033   3.441   3.965  0.5005 -0.5709  0.2879
 1139SOL     OW 4321   3.774   5.294   3.581  0.2387 -0.0782  0.3946
 1139SOL    HW2 4322   3.774   5.277   3.486  0.3189  2.4948 -0.1479
 1139SOL    HW3 4323   3.816   5.217   3.619 -1.4863 -2.0689 -1.4409
 1139SOL    MW4 4324   3.779   5.282   3.573  0.0939  0.1493  0.2128
 1140SOL     OW 4325   5.117   2.355   3.751  0.0668  0.5451  0.1786
 1140SOL    HW2 4326   5.022   2.351   3.741 -0.0861 -0.6993  1.8134
 1140SOL    HW3 4327   5.140   2.278   3.803  1.8160  1.5330  0.9901
 1140SOL    MW4 4328   5.108   2.344   3.756 -0.6582 -0.2478 -0.0693
 1141SOL     OW 4329   1.783   6.129   0.152  0.4871  0.4063  0.0638
 1141SOL    HW2 4330   1.693   6.106   0.177  0.4608  1.2498  0.8159
 1141SOL    HW3 4331   1.778   6.222   0.131  1.5589  0.9707  2.0837
 1141SOL    MW4 4332   1.771   6.138   0.153 -0.6065 -0.4894 -0.1257
 1142SOL     OW 4333   4.617   6.137   1.260 -0.0242  0.3253 -0.5657
 1142SOL    HW2 4334   4.523   6.129   1.245  0.1858  0.8478 -2.4520
 1142SOL    HW3 4335   4.651   6.049   1.248 -0.1715  0.2849 -0.6841
 1142SOL    MW4 4336   4.609   6.125   1.257 -0.1551 -0.0594 -0.1554
 1143SOL     OW 4337   5.679   2.558   1.068  0.0713 -0.6957  0.1582
 1143SOL    HW2 4338   5.613   2.614   1.109  0.7588  0.0756  0.2351
 1143SOL    HW3 4339   5.728   2.617   1.010  1.0871 -1.1164  0.5604
 1143SOL    MW4 4340   5.677   2.573   1.066  0.1593  0.3370  0.1139
 1144SOL     OW 4341   2.899   3.799   4.953 -0.4886 -0.4698 -0.3526
 1144SOL    HW2 4342   2.854   3.746   4.888 -0.5348 -0.6203 -0.1994
 1144SOL    HW3 4343   2.878   3.889   4.930  0.4970 -0.4528 -1.2853
 1144SOL    MW4 4344   2.891   3.804   4.941 -0.1772 -0.4352 -0.5708
 1145SOL     OW 4345   3.125   4.076   3.577 -0.2616  0.0534 -0.0973
 1145SOL    HW2 4346   3.119   4.161   3.533 -1.4307 -0.2052 -0.4567
 1145SOL    HW3 4347   3.041   4.034   3.559  0.2769 -1.1461  0.1560
 1145SOL    MW4 4348   3.113   4.082   3.569  0.1906 -0.1450 -0.3091
 1146SOL     OW 4349   2.382   4.244   1.576 -0.3332 -0.4562 -0.1206
 1146SOL    HW2 4350   2.461   4.270   1.624 -1.1788  0.2844  0.9174
 1146SOL    HW3 4351   2.357   4.160   1.614 -1.0598  0.1778  0.8461
 1146SOL    MW4 4352   2.389   4.236   1.587  0.4507  0.0405  0.0459
 1147SOL     OW 4353   4.561   3.372   4.567  0.0882 -0.0938 -0.2811
 1147SOL    HW2 4354   4.571   3.318   4.489 -0.2633 -0.7199  0.1059
 1147SOL    HW3 4355   4.577   3.313   4.640 -1.7999 -0.0801  0.2131
 1147SOL    MW4 4356   4.564   3.357   4.566 -0.3939  0.3607 -0.3393
 1148SOL     OW 4357   3.853   2.675   6.038 -0.4186  0.0398  0.2668
 1148SOL    HW2 4358   3.893   2.761   6.047  1.3954 -0.8187  1.1398
 1148SOL    HW3 4359   3.824   2.653   6.127  1.5484 -1.2752  0.6581
 1148SOL    MW4 4360   3.855   2.683   6.051 -0.1677  0.4500  0.3480
 1149SOL     OW 4361   4.524   2.446   0.043  0.1320  0.2725  0.0990
 1149SOL    HW2 4362   4.518   2.441  -0.052  0.8519  2.2151 -0.0873
 1149SOL    HW3 4363   4.456   2.509   0.068 -1.8130 -2.0922  1.1819
 1149SOL    MW4 4364   4.514   2.454   0.034  0.5624  0.6549 -0.3660
 1150SOL     OW 4365   2.307   2.134   4.096  0.3014 -0.5813 -0.1807
 1150SOL    HW2 4366   2.217   2.109   4.077  0.8015 -0.8510 -2.4166
 1150SOL    HW3 4367   2.303   2.228   4.113 -0.6326 -0.9106  1.6383
 1150SOL    MW4 4368   2.295   2.143   4.096 -0.3831 -0.1550 -0.0151
 1151SOL     OW 4369   2.205   5.075   4.338  0.2440  0.1215  0.5162
 1151SOL    HW2 4370   2.115   5.045   4.339  0.2171  0.2057  2.2257
 1151SOL    HW3 4371   2.213   5.132   4.415  1.6706  0.3615  0.2236
 1151SOL    MW4 4372   2.194   5.079   4.348 -0.1727  0.0475 -0.1958
 1152SOL     OW 4373   5.632   1.511   0.764 -0.1835  0.1823  0.0470
 1152SOL    HW2 4374   5.664   1.461   0.840  2.8446  3.4913  1.2307
 1152SOL    HW3 4375   5.540   1.528   0.783 -1.0047 -3.5863  0.2100
 1152SOL    MW4 4376   5.624   1.506   0.777 -0.4612 -0.0981  0.9121
 1153SOL     OW 4377   2.918   5.345   2.853  0.6827  0.0211 -0.4522
 1153SOL    HW2 4378   2.978   5.308   2.918  0.4582 -0.8648 -0.7275
 1153SOL    HW3 4379   2.831   5.317   2.882  0.6500 -1.2152 -1.6231
 1153SOL    MW4 4380   2.914   5.336   2.865  0.4761  1.1221 -0.1865
 1154SOL     OW 4381   1.749   2.070   4.610  0.1522  0.6658  0.3605
 1154SOL    HW2 4382   1.792   1.994   4.571 -1.9425 -1.4407  1.8542
 1154SOL    HW3 4383   1.690   2.033   4.675 -1.8177  3.5277  0.3821
 1154SOL    MW4 4384   1.747   2.055   4.613  0.2658 -0.0640 -0.0568
 1155SOL     OW 4385   0.067   5.813   4.297  0.4488 -0.1494 -0.2361
 1155SOL    HW2 4386  -0.015   5.853   4.267  0.4757 -0.4628 -0.7460
 1155SOL    HW3 4387   0.045   5.722   4.314  0.2078  0.2340  1.6829
 1155SOL    MW4 4388   0.053   5.806   4.295 -0.2904 -0.0856 -0.2497
 1156SOL     OW 4389   2.481   0.413   2.322  0.2483 -0.0908 -0.1380
 1156SOL    HW2 4390   2.429   0.477   2.372 -0.1906 -0.8227  0.3629
 1156SOL    HW3 4391   2.558   0.462   2.294 -0.2596  0.7629 -0.0830
 1156SOL    MW4 4392   2.484   0.428   2.325 -0.4105  0.5291  0.3109
 1157SOL     OW 4393   5.529   4.526   3.331  0.3078 -0.3543 -0.1117
 1157SOL    HW2 4394   5.472   4.459   3.370  0.0632  0.6140  1.2763
 1157SOL    HW3 4395   5.597   4.476   3.286  0.0622 -1.5373  0.7733
 1157SOL    MW4 4396   5.530   4.510   3.330 -0.1627  0.2207 -0.0528
 1158SOL     OW 4397   6.256   0.976   1.650 -0.2619 -0.3811  0.0416
 1158SOL    HW2 4398   6.251   0.918   1.574 -0.4212 -1.2507  0.7052
 1158SOL    HW3 4399   6.335   1.028   1.635 -0.2025 -0.6565 -0.6400
 1158SOL    MW4 4400   6.266   0.975   1.638 -0.4418 -0.4353 -0.0240
 1159SOL     OW 4401   3.104   4.901   2.342  0.1172  0.3219 -0.3610
 1159SOL    HW2 4402   3.058   4.967   2.290  1.4809  1.2314 -0.4720
 1159SOL    HW3 4403   3.069   4.911   2.430 -1.5027 -0.5587 -0.8598
 1159SOL    MW4 4404   3.093   4.911   2.347 -0.8025 -0.3250 -0.0532
 1160SOL     OW 4405   3.220   4.630   2.391 -0.2071  0.3087 -0.0167
 1160SOL    HW2 4406   3.195   4.707   2.340 -0.8766 -0.0656 -0.2673
 1160SOL    HW3 4407   3.156   4.626   2.462 -0.6438 -0.4381 -0.4380
 1160SOL    MW4 4408   3.209   4.640   2.394  0.1126 -0.4653  0.4578
 1161SOL     OW 4409   3.735   0.095   0.731  0.3301  0.0975 -0.0423
 1161SOL    HW2 4410   3.808   0.034   0.716  0.8538  0.0991  2.1034
 1161SOL    HW3 4411   3.767   0.153   0.801 -1.5048  0.4762  0.5298
 1161SOL    MW4 4412   3.749   0.094   0.738 -0.1280  0.4167  0.1578
 1162SOL     OW 4413   1.833   0.604   1.015  0.9135  0.5476 -0.4683
 1162SOL    HW2 4414   1.767   0.537   1.034  2.8155 -1.3243 -0.2101
 1162SOL    HW3 4415   1.783   0.675   0.975 -1.4750 -0.1927  0.9812
 1162SOL    MW4 4416   1.817   0.605   1.012  0.0086 -0.2666  0.4342
 1163SOL     OW 4417   6.198   2.359   1.375 -0.3588 -0.5174 -0.2804
 1163SOL    HW2 4418   6.181   2.265   1.378  1.4125 -0.8561  1.3700
 1163SOL    HW3 4419   6.292   2.366   1.392 -0.1850  1.5061 -1.7245
 1163SOL    MW4 4420   6.209   2.347   1.378  0.0162 -0.5887  0.2653
 1164SOL     OW 4421   1.486   0.084   0.919 -0.0360  0.2033 -0.4790
 1164SOL    HW2 4422   1.409   0.074   0.974 -0.3601  2.7600 -0.3524
 1164SOL    HW3 4423   1.530  -0.001   0.924 -1.2966 -0.4008  1.7867
 1164SOL    MW4 4424   1.482   0.072   0.927 -0.2434 -0.0393  0.3721
 1165SOL     OW 4425   4.327   6.462   0.548  0.1365 -0.1627  0.2612
 1165SOL    HW2 4426   4.338   6.555   0.568 -0.1157 -0.0472 -0.1417
 1165SOL    HW3 4427   4.416   6.432   0.527 -0.0078  0.3711 -1.2379
 1165SOL    MW4 4428   4.340   6.470   0.548  0.4315  0.4409  0.2154
 1166SOL     OW 4429   1.936   0.614   5.727 -0.3079 -0.4914 -0.2721
 1166SOL    HW2 4430   1.989   0.548   5.681 -0.3990 -0.8823  0.1807
 1166SOL    HW3 4431   1.973   0.617   5.815 -1.8717 -1.7457  0.4751
 1166SOL    MW4 4432   1.948   0.605   5.733  0.5785  0.4772 -1.0292
 1167SOL     OW 4433   0.707   5.678   1.624  0.1914 -0.1523 -0.5211
 1167SOL    HW2 4434   0.621   5.639   1.641 -0.7259  1.2190 -1.7820
 1167SOL    HW3 4435   0.733   5.716   1.707 -1.3786  1.1571 -0.5832
 1167SOL    MW4 4436   0.699   5.678   1.637 -0.2217  0.6508  0.0266
 1168SOL     OW 4437   1.417   3.086   2.444  0.7700  0.2474  0.1317
 1168SOL    HW2 4438   1.489   3.145   2.467  0.3655  0.2120  1.5531
 1168SOL    HW3 4439   1.460   3.012   2.401  1.6612 -0.0081  1.4073
 1168SOL    MW4 4440   1.432   3.084   2.441  0.0592 -0.2589 -0.2852
 1169SOL     OW 4441   0.986   3.242   3.011 -0.7123 -0.4473 -0.2455
 1169SOL    HW2 4442   1.001   3.158   2.968 -2.0389 -0.2450 -1.1593
 1169SOL    HW3 4443   0.894   3.238   3.039 -0.6929  0.5751 -0.0182
 1169SOL    MW4 4444   0.976   3.230   3.009  0.1309 -0.4728  0.4659
 1170SOL     OW 4445   0.978   5.948   5.186  0.2052  0.6644  0.1513
 1170SOL    HW2 4446   1.047   5.938   5.120 -0.8289 -0.5922 -0.8021
 1170SOL    HW3 4447   0.940   6.034   5.168  1.0472  1.0637  0.2338
 1170SOL    MW4 4448   0.982   5.958   5.175  0.4533  0.3358  0.4673
 1171SOL     OW 4449   4.882   3.545   4.371  0.1002 -0.4116 -0.5807
 1171SOL    HW2 4450   4.975   3.542   4.350  0.2173 -0.5371 -0.0420
 1171SOL    HW3 4451   4.839   3.555   4.286  0.6065 -0.2795 -0.8252
 1171SOL    MW4 4452   4.888   3.546   4.357 -0.2643 -0.4328  0.1046
 1172SOL     OW 4453   5.977   4.579   6.103 -0.2164 -0.5832  0.1650
 1172SOL    HW2 4454   5.978   4.511   6.170  2.2214 -0.0941  0.7129
 1172SOL    HW3 4455   6.047   4.555   6.043 -1.2861 -0.1281 -1.3194
 1172SOL    MW4 4456   5.986   4.567   6.104  0.3284 -0.4249 -0.8121
 1173SOL     OW 4457   5.371   2.849   2.689  0.2517 -0.2525 -0.7993
 1173SOL    HW2 4458   5.361   2.896   2.606 -0.1252  1.6884  0.2750
 1173SOL    HW3 4459   5.433   2.902   2.739  1.0772 -1.8004 -0.1006
 1173SOL    MW4 4460   5.378   2.862   2.685  0.1279  0.3741  0.1832
 1174SOL     OW 4461   4.134   3.081   5.828  0.4708  1.2277 -0.0917
 1174SOL    HW2 4462   4.101   3.075   5.739  0.7527 -0.8919 -0.0875
 1174SOL    HW3 4463   4.096   3.163   5.862 -2.7680  0.2102 -0.9045
 1174SOL    MW4 4464   4.125   3.091   5.821  0.3046 -0.0276  0.3274
 1175SOL     OW 4465   2.156   5.177   3.696 -0.5910 -0.7109  0.0902
 1175SOL    HW2 4466   2.109   5.162   3.613 -1.9912 -0.0764  0.7413
 1175SOL    HW3 4467   2.205   5.096   3.710  0.9414 -0.2486 -2.1403
 1175SOL    MW4 4468   2.156   5.164   3.687  0.0383 -0.3676  0.3256
 1176SOL     OW 4469   0.812   4.462   0.845  0.4554  0.1053  0.1276
 1176SOL    HW2 4470   0.763   4.421   0.916  0.0230  2.8091  1.5160
 1176SOL    HW3 4471   0.744   4.491   0.784  0.6608 -0.0091 -0.1559
 1176SOL    MW4 4472   0.796   4.460   0.846  0.5068 -0.0394 -0.2415
 1177SOL     OW 4473   0.940   4.911   3.829 -0.1070 -0.1269 -0.2006
 1177SOL    HW2 4474   0.961   4.840   3.890 -0.3946  0.4148  0.5402
 1177SOL    HW3 4475   0.929   4.867   3.745 -0.7875 -1.0333  0.3369
 1177SOL    MW4 4476   0.941   4.896   3.826  0.3867  0.2968  0.1520
 1178SOL     OW 4477   3.038   0.249   0.601 -0.3825  0.4769 -0.0334
 1178SOL    HW2 4478   2.989   0.217   0.525 -1.0197  1.8543 -0.2443
 1178SOL    HW3 4479   3.125   0.269   0.567 -0.0133 -0.8380  0.0759
 1178SOL    MW4 4480   3.043   0.247   0.587 -0.2226  0.1476  0.2716
 1179SOL     OW 4481   3.563   0.785   5.790 -0.3008  0.2603  0.2361
 1179SOL    HW2 4482   3.630   0.720   5.809 -0.6297 -0.8486 -2.0782
 1179SOL    HW3 4483   3.601   0.838   5.720 -2.4744 -1.7349 -2.6973
 1179SOL    MW4 4484   3.577   0.783   5.784 -0.8858 -0.3080  0.0957
 1180SOL     OW 4485   4.911   1.853   0.525  1.1283  0.1611 -0.8624
 1180SOL    HW2 4486   4.900   1.941   0.561  0.4648 -0.0054 -0.6294
 1180SOL    HW3 4487   5.000   1.828   0.548  0.6254 -0.0782  1.0138
 1180SOL    MW4 4488   4.921   1.861   0.533 -0.1640 -0.5897  0.3383
 1181SOL     OW 4489   5.160   0.097   6.178 -0.3590 -0.3685  0.4412
 1181SOL    HW2 4490   5.091   0.045   6.138  0.9071 -0.4049 -1.9038
 1181SOL    HW3 4491   5.192   0.044   6.251 -1.6109 -1.1412  0.4500
 1181SOL    MW4 4492   5.155   0.083   6.182 -0.5198  0.2987  0.1242
 1182SOL     OW 4493   3.718   2.288   5.838 -0.1608 -0.2957 -0.3478
 1182SOL    HW2 4494   3.710   2.317   5.747 -0.7831  0.7683  0.0254
 1182SOL    HW3 4495   3.652   2.339   5.885 -0.4909 -1.5291  0.5519
 1182SOL    MW4 4496   3.708   2.299   5.832  0.0542 -0.1910 -0.2133
 1183SOL     OW 4497   4.820   3.483   2.512  0.2838  0.6317 -0.1634
 1183SOL    HW2 4498   4.809   3.408   2.570 -1.4369  1.3988  0.5449
 1183SOL    HW3 4499   4.741   3.483   2.458  1.3882  0.5237 -1.8805
 1183SOL    MW4 4500   4.808   3.473   2.512 -0.0385  0.5951  0.2019
 1184SOL     OW 4501   4.845   2.358   3.682 -0.0573  0.3298 -0.0113
 1184SOL    HW2 4502   4.846   2.429   3.618  2.5425  1.1266  0.7542
 1184SOL    HW3 4503   4.815   2.399   3.763 -0.3562  0.0972 -0.0049
 1184SOL    MW4 4504   4.841   2.373   3.684  0.5344  0.2821 -0.1855
 1185SOL     OW 4505   0.434   4.872   2.152 -0.2408 -0.0925  0.5451
 1185SOL    HW2 4506   0.487   4.801   2.189 -1.9501 -1.2858  0.8279
 1185SOL    HW3 4507   0.404   4.921   2.228 -2.5593 -1.6780  0.7447
 1185SOL    MW4 4508   0.437   4.869   2.167  0.8495  0.2760  0.1675
 1186SOL     OW 4509   2.779   6.429   0.876 -0.4925  0.4722  0.2078
 1186SOL    HW2 4510   2.803   6.348   0.922 -2.1165  0.8816  1.8538
 1186SOL    HW3 4511   2.780   6.496   0.943  0.0971  1.7184 -1.0005
 1186SOL    MW4 4512   2.783   6.427   0.891 -0.5295 -0.0450  0.4977
 1187SOL     OW 4513   2.697   2.408   5.375 -0.2133 -0.1567  0.4216
 1187SOL    HW2 4514   2.731   2.319   5.366 -0.0192  0.0213 -0.8748
 1187SOL    HW3 4515   2.601   2.397   5.378 -0.3230 -0.3241 -1.8236
 1187SOL    MW4 4516   2.688   2.395   5.374  0.1204 -0.6507  0.2534
 1188SOL     OW 4517   1.621   2.343   5.518 -0.3526 -0.1072 -0.1900
 1188SOL    HW2 4518   1.702   2.391   5.536 -0.8332  0.1558  1.3898
 1188SOL    HW3 4519   1.649   2.254   5.496  0.3202 -0.3298  1.4847
 1188SOL    MW4 4520   1.635   2.338   5.517  0.9502  0.2470 -0.5242
 1189SOL     OW 4521   5.859   5.302   0.207  0.4823  0.7537 -0.5512
 1189SOL    HW2 4522   5.815   5.339   0.284 -0.8333  0.6804 -1.2534
 1189SOL    HW3 4523   5.946   5.341   0.209  0.4399  0.8280  0.9211
 1189SOL    MW4 4524   5.865   5.312   0.218  0.3237  0.0171  0.2630
 1190SOL     OW 4525   4.653   2.582   1.202 -0.2389 -0.1715  0.3209
 1190SOL    HW2 4526   4.731   2.532   1.226 -0.0509 -0.4191 -0.7468
 1190SOL    HW3 4527   4.685   2.648   1.141 -0.8450 -0.1991 -0.0353
 1190SOL    MW4 4528   4.667   2.584   1.197  0.5055  0.2693  0.3225
 1191SOL     OW 4529   1.492   4.549   6.285  0.5200 -0.1132  0.3410
 1191SOL    HW2 4530   1.445   4.528   6.365  1.2856  0.5922  0.9913
 1191SOL    HW3 4531   1.502   4.644   6.287 -1.2816  0.1819 -1.6386
 1191SOL    MW4 4532   1.487   4.558   6.296  0.2356  0.7324 -0.2132
 1192SOL     OW 4533   1.332   2.448   2.009  0.0716 -0.4228 -0.5797
 1192SOL    HW2 4534   1.415   2.408   2.035 -0.2868 -0.7402  0.1029
 1192SOL    HW3 4535   1.325   2.431   1.915  0.2326 -1.4061 -0.4240
 1192SOL    MW4 4536   1.342   2.441   2.000  0.3385  0.5755 -0.0717
 1193SOL     OW 4537   5.411   3.885   4.264  0.8538 -0.3074 -0.6128
 1193SOL    HW2 4538   5.445   3.799   4.243 -1.1710 -0.9829 -1.3935
 1193SOL    HW3 4539   5.374   3.876   4.352  1.9970  0.2201 -0.0589
 1193SOL    MW4 4540   5.410   3.873   4.273 -0.3186  0.8244 -1.0055
 1194SOL     OW 4541   3.383   5.874   3.048 -0.1576 -0.1300 -0.4626
 1194SOL    HW2 4542   3.466   5.858   3.092  0.2706 -0.2205 -1.2765
 1194SOL    HW3 4543   3.316   5.840   3.107  0.3513  0.3643  0.4066
 1194SOL    MW4 4544   3.385   5.868   3.061 -0.1482  0.3676 -0.0040
 1195SOL     OW 4545   0.855   5.180   5.473 -0.2347 -0.3760 -0.4901
 1195SOL    HW2 4546   0.883   5.270   5.487 -1.4130 -0.1663  0.7114
 1195SOL    HW3 4547   0.889   5.158   5.386  1.8924  0.4860  0.0476
 1195SOL    MW4 4548   0.863   5.189   5.463  0.4507  0.0281 -0.5216
 1196SOL     OW 4549   0.066   4.038   4.538  0.0029  0.3385  0.0368
 1196SOL    HW2 4550   0.141   3.986   4.507 -0.4605 -0.2904 -0.0377
 1196SOL    HW3 4551   0.106   4.106   4.592  0.8635  1.5924 -2.0590
 1196SOL    MW4 4552   0.081   4.040   4.541 -0.1903 -0.2313 -0.0243
 1197SOL     OW 4553   3.003   4.607   1.999  0.5137  0.3966  0.5125
 1197SOL    HW2 4554   2.951   4.678   2.036 -2.3408 -1.1356 -0.2683
 1197SOL    HW3 4555   3.013   4.545   2.071 -0.1487 -0.0351  0.2362
 1197SOL    MW4 4556   2.998   4.608   2.013  0.4129  0.2804  0.6094
 1198SOL     OW 4557   6.251   4.715   2.197 -0.1482  0.4093 -0.4718
 1198SOL    HW2 4558   6.197   4.692   2.122 -1.5998  0.0784  0.6442
 1198SOL    HW3 4559   6.322   4.651   2.195 -0.8094 -0.3322 -0.8896
 1198SOL    MW4 4560   6.254   4.704   2.186 -0.0425 -0.2088  0.0391
 1199SOL     OW 4561   3.426   3.979   3.646 -0.1671  0.7382 -0.2592
 1199SOL    HW2 4562   3.411   4.073   3.637 -1.6957  0.5111 -0.3866
 1199SOL    HW3 4563   3.371   3.940   3.578 -0.8218 -0.3175  0.8394
 1199SOL    MW4 4564   3.416   3.987   3.635 -0.5452 -0.5307  0.3289
 1200SOL     OW 4565   0.828   0.927   2.214 -0.3416  0.4716  0.1632
 1200SOL    HW2 4566   0.863   1.016   2.218 -1.1404  0.7697  0.8874
 1200SOL    HW3 4567   0.739   0.938   2.180 -0.4082 -0.0679  0.1497
 1200SOL    MW4 4568   0.821   0.940   2.210 -0.7798  0.5112  0.3223
 1201SOL     OW 4569   1.261   3.224   4.346  0.1613 -0.0918 -0.2342
 1201SOL    HW2 4570   1.263   3.276   4.427  3.3722 -2.9993  1.7897
 1201SOL    HW3 4571   1.336   3.255   4.296 -0.9622  0.6611 -1.5401
 1201SOL    MW4 4572   1.271   3.235   4.350 -0.3325  0.5978 -1.1761
 1202SOL     OW 4573   4.676   0.496   5.737  0.0056 -0.3988 -0.1140
 1202SOL    HW2 4574   4.737   0.461   5.802  0.9494  1.2397 -0.0487
 1202SOL    HW3 4575   4.673   0.429   5.669 -0.2221 -1.7005  1.1345
 1202SOL    MW4 4576   4.684   0.483   5.737 -0.0559  0.4122  0.4635
 1203SOL     OW 4577   4.611   6.155   1.552 -0.0526 -0.0758  0.5514
 1203SOL    HW2 4578   4.564   6.104   1.486  0.5616 -1.6061  1.2500
 1203SOL    HW3 4579   4.574   6.243   1.545  0.1979 -0.1025 -2.0275
 1203SOL    MW4 4580   4.600   6.160   1.543 -0.2488  0.4420  0.0973
 1204SOL     OW 4581   4.297   2.628   0.021 -0.2821  0.1529  0.2776
 1204SOL    HW2 4582   4.297   2.724   0.030 -2.1605  0.1418  0.8447
 1204SOL    HW3 4583   4.218   2.600   0.066  1.4320 -1.9173  2.2098
 1204SOL    MW4 4584   4.287   2.637   0.028 -0.0619 -0.2402  0.1021
 1205SOL     OW 4585   6.281   2.730   4.219  0.2150  0.4392 -0.0562
 1205SOL    HW2 4586   6.326   2.682   4.289  1.2612 -0.1164 -1.0696
 1205SOL    HW3 4587   6.289   2.822   4.244  4.3368  0.6425 -1.4119
 1205SOL    MW4 4588   6.288   2.736   4.231  0.1281  0.4170  0.4217
 1206SOL     OW 4589   1.683   3.336   0.917 -0.0447  0.3432 -0.1140
 1206SOL    HW2 4590   1.588   3.347   0.919  0.0012  1.1115 -1.2608
 1206SOL    HW3 4591   1.718   3.425   0.915  0.5956  0.0994 -2.1732
 1206SOL    MW4 4592   1.675   3.349   0.917  0.2515  0.2041  0.4088
 1207SOL     OW 4593   2.070   1.852   4.282 -0.3433  0.1293 -0.4673
 1207SOL    HW2 4594   2.101   1.769   4.248 -0.3181 -0.5523  1.1585
 1207SOL    HW3 4595   2.126   1.871   4.357  0.6406  2.3878 -1.6856
 1207SOL    MW4 4596   2.081   1.844   4.287  0.5506 -0.2398 -0.5834
 1208SOL     OW 4597   2.859   2.997   0.478 -0.0670  0.3921 -0.3010
 1208SOL    HW2 4598   2.861   2.960   0.567 -1.0296  0.7747 -0.1113
 1208SOL    HW3 4599   2.950   3.020   0.460  0.4948 -1.5628 -0.2202
 1208SOL    MW4 4600   2.872   2.995   0.488 -0.1161  0.1357  0.1390
 1209SOL     OW 4601   4.079   6.275   2.590  0.2561 -0.4481  0.6942
 1209SOL    HW2 4602   4.062   6.369   2.583  0.7784 -0.1848  2.3533
 1209SOL    HW3 4603   4.019   6.246   2.658  1.0993 -1.0153  1.2145
 1209SOL    MW4 4604   4.069   6.284   2.598 -0.1702  0.2167  0.3803
 1210SOL     OW 4605   2.644   4.619   0.186 -0.3936  0.3784 -0.4978
 1210SOL    HW2 4606   2.680   4.677   0.120  1.8937  0.9895  1.1682
 1210SOL    HW3 4607   2.650   4.532   0.148 -0.0686  0.8086 -1.4562
 1210SOL    MW4 4608   2.649   4.615   0.172 -0.0096  0.3204 -0.3877
 1211SOL     OW 4609   3.944   5.730   3.310 -0.2289 -0.0283  0.4939
 1211SOL    HW2 4610   3.896   5.684   3.379  0.5592  0.2235  1.2148
 1211SOL    HW3 4611   4.030   5.689   3.309  0.4007  1.2427  0.9738
 1211SOL    MW4 4612   3.949   5.718   3.319 -0.4265 -0.3838  0.1807
 1212SOL     OW 4613   2.527   2.476   0.398  0.3262  0.4396 -0.1704
 1212SOL    HW2 4614   2.573   2.554   0.429  1.1810 -0.2208  0.2817
 1212SOL    HW3 4615   2.581   2.403   0.428 -1.0324 -0.3761  0.3616
 1212SOL    MW4 4616   2.540   2.477   0.406 -0.3838  0.0638  0.4648
 1213SOL     OW 4617   5.995   1.812   0.468 -0.1777  0.7570 -0.5907
 1213SOL    HW2 4618   6.078   1.835   0.425 -0.4073 -0.6777 -1.8885
 1213SOL    HW3 4619   5.940   1.777   0.397 -0.3595 -2.2847  0.8862
 1213SOL    MW4 4620   5.999   1.810   0.453  0.4299 -0.1729 -0.2739
 1214SOL     OW 4621   2.644   3.240   4.002 -0.7127 -0.0824 -0.1635
 1214SOL    HW2 4622   2.595   3.309   4.045 -1.0759 -1.7397  2.3087
 1214SOL    HW3 4623   2.586   3.164   4.003 -0.3933 -0.4552 -2.9261
 1214SOL    MW4 4624   2.630   3.239   4.008  0.2701  0.0200 -0.7796
 1215SOL     OW 4625   2.446   0.287   4.693  0.7304 -0.3785  0.5899
 1215SOL    HW2 4626   2.374   0.313   4.635 -0.8692  0.4834  2.8018
 1215SOL    HW3 4627   2.459   0.194   4.676  2.2196  0.2908 -2.9855
 1215SOL    MW4 4628   2.438   0.278   4.683  0.2476 -0.8374 -0.1344
 1216SOL     OW 4629   5.418   4.363   3.700  0.3689 -1.2410 -0.0909
 1216SOL    HW2 4630   5.406   4.360   3.795 -1.5006 -0.9965 -0.2816
 1216SOL    HW3 4631   5.373   4.284   3.669  0.5785 -1.0778 -0.8160
 1216SOL    MW4 4632   5.411   4.352   3.709 -0.2603  0.0475 -0.8184
 1217SOL     OW 4633   5.120   1.379   4.111  0.2053  0.3452  0.1930
 1217SOL    HW2 4634   5.197   1.366   4.167 -1.2289 -2.6565  1.7142
 1217SOL    HW3 4635   5.147   1.345   4.026  0.6178 -0.5701  0.6741
 1217SOL    MW4 4636   5.134   1.373   4.107  0.2946  0.2108  0.0366
 1218SOL     OW 4637   6.105   1.584   6.401 -0.0879 -0.0319 -0.3586
 1218SOL    HW2 4638   6.047   1.625   6.464  1.4667  0.7918  0.6150
 1218SOL    HW3 4639   6.122   1.651   6.335 -1.2432 -0.6986 -1.3731
 1218SOL    MW4 4640   6.100   1.598   6.400  0.7451 -0.2271  0.4239
 1219SOL     OW 4641   4.684   4.142   3.151 -0.0229  0.1066  0.1833
 1219SOL    HW2 4642   4.639   4.225   3.134  0.7263  0.9560  2.0303
 1219SOL    HW3 4643   4.720   4.116   3.067 -0.4461  1.5606 -0.4773
 1219SOL    MW4 4644   4.683   4.150   3.138 -0.5730 -0.2485 -0.1737
 1220SOL     OW 4645   2.333   0.560   0.578  0.0009 -0.3117  0.1313
 1220SOL    HW2 4646   2.421   0.576   0.613  1.8975 -3.4341 -2.5617
 1220SOL    HW3 4647   2.313   0.470   0.606 -0.8784 -0.7947 -1.8919
 1220SOL    MW4 4648   2.342   0.550   0.587  0.2555  0.0429 -0.0278
 1221SOL     OW 4649   4.350   1.907   4.217 -0.0397  0.1436 -0.3751
 1221SOL    HW2 4650   4.373   1.993   4.181 -0.4642  0.6973  0.6367
 1221SOL    HW3 4651   4.431   1.874   4.256 -0.3810  1.1189  1.2491
 1221SOL    MW4 4652   4.364   1.914   4.217  0.0039  0.4952  0.4379
 1222SOL     OW 4653   3.811   1.506   0.313  0.3142 -0.6276 -0.6845
 1222SOL    HW2 4654   3.897   1.468   0.298  0.6271  0.7785 -2.8677
 1222SOL    HW3 4655   3.829   1.594   0.346 -0.3196 -0.7925  0.1287
 1222SOL    MW4 4656   3.824   1.513   0.315  0.4086  0.4449 -0.0701
 1223SOL     OW 4657   2.546   0.321   6.045 -0.0612  0.1658  0.7386
 1223SOL    HW2 4658   2.572   0.310   5.953  0.7332  0.1214  0.9550
 1223SOL    HW3 4659   2.464   0.273   6.053 -0.1275  0.1481  0.0585
 1223SOL    MW4 4660   2.539   0.314   6.034 -0.1346 -0.0010  0.4873
 1224SOL     OW 4661   6.158   0.208   4.386 -0.1923  0.2606 -0.0431
 1224SOL    HW2 4662   6.208   0.152   4.326  0.1763  0.8632 -0.3015
 1224SOL    HW3 4663   6.067   0.183   4.371 -0.0549 -0.0576 -0.3732
 1224SOL    MW4 4664   6.153   0.197   4.377  0.1186 -0.1503 -0.3929
 1225SOL     OW 4665   1.427   3.987   2.614  0.0660 -0.1282 -1.0617
 1225SOL    HW2 4666   1.387   4.067   2.650 -0.4053  0.7568 -3.3579
 1225SOL    HW3 4667   1.396   3.917   2.672 -0.4978  1.1944  0.3111
 1225SOL    MW4 4668   1.417   3.988   2.626  0.0918  0.1004 -0.3338
 1226SOL     OW 4669   3.540   5.921   2.716  0.2063  0.1234  0.2470
 1226SOL    HW2 4670   3.566   5.871   2.639 -2.5904 -0.1897 -0.6047
 1226SOL    HW3 4671   3.539   5.857   2.787  1.1945  0.0581  0.2244
 1226SOL    MW4 4672   3.543   5.906   2.715  0.3607  0.2622 -0.1961
 1227SOL     OW 4673   2.550   0.292   5.173  0.4705  0.2261  0.1916
 1227SOL    HW2 4674   2.600   0.338   5.240  0.3196  0.5148  0.1091
 1227SOL    HW3 4675   2.546   0.201   5.203 -1.1899  0.7012  1.5111
 1227SOL    MW4 4676   2.556   0.286   5.186 -0.0789 -0.3771  0.2926
 1228SOL     OW 4677   1.892   5.759   0.232  0.2070 -0.0513  0.5915
 1228SOL    HW2 4678   1.972   5.773   0.182 -0.2127 -2.8145 -1.0502
 1228SOL    HW3 4679   1.921   5.715   0.312  0.4077 -0.2319  0.4206
 1228SOL    MW4 4680   1.906   5.755   0.236 -0.3155  0.2885 -0.3753
 1229SOL     OW 4681   3.365   6.211   4.214 -0.6207  0.3092 -0.0248
 1229SOL    HW2 4682   3.434   6.169   4.265  0.0033  1.9328  0.5095
 1229SOL    HW3 4683   3.359   6.300   4.248 -3.5542  0.0189  0.5155
 1229SOL    MW4 4684   3.373   6.217   4.225 -0.3118  0.2422 -0.0951
 1230SOL     OW 4685   1.604   1.208   2.580 -0.2216 -1.3491 -0.2667
 1230SOL    HW2 4686   1.517   1.248   2.585  0.0770 -0.6742 -0.2202
 1230SOL    HW3 4687   1.625   1.207   2.487 -0.3330 -1.6298 -0.2881
 1230SOL    MW4 4688   1.595   1.213   2.569 -0.5409  0.6528 -0.0259
 1231SOL     OW 4689   5.522   2.562   3.131  0.4441 -0.3164  0.8185
 1231SOL    HW2 4690   5.570   2.598   3.056  0.0546 -1.2521  0.0989
 1231SOL    HW3 4691   5.430   2.578   3.110  0.3758  0.5644  1.7187
 1231SOL    MW4 4692   5.516   2.569   3.118  0.1660  1.0909  0.2703
 1232SOL     OW 4693   1.752   3.128   6.341 -0.2591 -0.6805 -0.1458
 1232SOL    HW2 4694   1.837   3.145   6.380 -0.4361  1.4602 -0.5716
 1232SOL    HW3 4695   1.697   3.099   6.414  0.2116  0.3218  0.6403
 1232SOL    MW4 4696   1.756   3.127   6.356  0.3643 -0.8080  0.1363
 1233SOL     OW 4697   1.108   3.945   2.371  0.0276  0.2281 -0.5495
 1233SOL    HW2 4698   1.101   3.858   2.411 -0.4417  1.2955  1.8676
 1233SOL    HW3 4699   1.182   3.938   2.310 -0.5305 -2.0594 -1.0500
 1233SOL    MW4 4700   1.117   3.933   2.368 -0.0686 -0.2817 -0.2137
 1234SOL     OW 4701   3.513   0.374   3.064 -0.7048  0.1220  0.1081
 1234SOL    HW2 4702   3.530   0.448   3.122  1.4411 -0.5305  0.3901
 1234SOL    HW3 4703   3.471   0.413   2.987  0.3827  1.6384  0.2421
 1234SOL    MW4 4704   3.510   0.389   3.061  0.1350 -0.3742 -0.7964
 1235SOL     OW 4705   4.669   0.658   2.895  0.2079 -0.1874 -0.1932
 1235SOL    HW2 4706   4.627   0.661   2.981  1.3844 -2.2909  0.5358
 1235SOL    HW3 4707   4.599   0.682   2.833 -0.7996  0.8340  1.2845
 1235SOL    MW4 4708   4.654   0.661   2.898 -1.0436  0.1882 -0.0977
 1236SOL     OW 4709   1.243   5.034   2.014 -0.0742  0.2768  0.1605
 1236SOL    HW2 4710   1.277   4.991   2.093 -1.7448  0.4305  1.0022
 1236SOL    HW3 4711   1.251   5.128   2.033  0.9816  0.3457 -0.5305
 1236SOL    MW4 4712   1.249   5.041   2.027 -0.0006 -0.5396  0.3190
 1237SOL     OW 4713   6.024   1.589   5.184  0.0961 -0.2109  0.1771
 1237SOL    HW2 4714   5.979   1.508   5.208 -3.2039  1.2306 -0.5983
 1237SOL    HW3 4715   5.995   1.607   5.095  1.8437  1.1557 -0.1665
 1237SOL    MW4 4716   6.014   1.581   5.176  0.1184 -0.0478 -0.0755
 1238SOL     OW 4717   1.434   2.788   6.079 -0.2924  0.2293  0.9439
 1238SOL    HW2 4718   1.525   2.785   6.110  0.5256 -1.1544 -1.3293
 1238SOL    HW3 4719   1.393   2.710   6.118 -0.4001  0.6346  1.6502
 1238SOL    MW4 4720   1.441   2.777   6.088  0.1612  0.1048  0.0200
 1239SOL     OW 4721   0.249   0.661   2.955  0.1701 -0.1953 -0.1450
 1239SOL    HW2 4722   0.163   0.667   2.998  0.1891  2.5637 -0.2783
 1239SOL    HW3 4723   0.307   0.714   3.011  1.3940 -0.6511 -0.9390
 1239SOL    MW4 4724   0.245   0.669   2.968 -0.0784  0.5239  0.2916
 1240SOL     OW 4725   0.125   3.480   5.492 -0.4295 -0.7676  0.0133
 1240SOL    HW2 4726   0.059   3.412   5.475 -0.2140 -1.1500  0.7031
 1240SOL    HW3 4727   0.111   3.504   5.583 -1.6370  1.3423 -0.6550
 1240SOL    MW4 4728   0.114   3.474   5.502 -0.6985 -0.4774  0.4988
 1241SOL     OW 4729   5.241   2.897   3.025 -0.0532 -0.0091 -0.3967
 1241SOL    HW2 4730   5.149   2.896   2.998 -0.4214  0.7041  0.7843
 1241SOL    HW3 4731   5.268   2.805   3.020 -1.4038 -0.5243  1.1298
 1241SOL    MW4 4732   5.233   2.885   3.021 -0.6824  0.2688 -0.9181
 1242SOL     OW 4733   1.638   0.545   2.813  0.6592  0.7666 -0.2547
 1242SOL    HW2 4734   1.612   0.626   2.857  0.2152  1.4435 -1.7204
 1242SOL    HW3 4735   1.731   0.535   2.835  0.1628  0.3523  1.8951
 1242SOL    MW4 4736   1.647   0.554   2.822 -0.1245 -0.7623  0.2108
 1243SOL     OW 4737   5.203   5.610   4.594 -0.0413  0.1983  0.3290
 1243SOL    HW2 4738   5.245   5.696   4.601 -1.3395  0.8091  1.0731
 1243SOL    HW3 4739   5.169   5.607   4.505 -0.2211  0.5810  0.3816
 1243SOL    MW4 4740   5.204   5.621   4.583  0.1855  0.2494  0.8312
 1244SOL     OW 4741   5.641   0.725   0.572 -0.0876 -0.4602 -0.3095
 1244SOL    HW2 4742   5.588   0.646   0.561  0.0389 -1.2486  3.3888
 1244SOL    HW3 4743   5.578   0.797   0.576 -0.8236 -1.1587  2.1050
 1244SOL    MW4 4744   5.626   0.724   0.571  0.3138 -0.6088  0.5091
 1245SOL     OW 4745   5.951   0.922   6.127  0.9714  1.1679  0.8175
 1245SOL    HW2 4746   5.930   0.843   6.177 -1.0849  0.1377 -1.4424
 1245SOL    HW3 4747   6.014   0.894   6.061 -0.8195  0.9527 -0.9049
 1245SOL    MW4 4748   5.956   0.908   6.125 -0.4341  0.2688  0.6538
 1246SOL     OW 4749   1.468   4.705   2.577 -0.1212 -0.1638  0.1584
 1246SOL    HW2 4750   1.457   4.611   2.587 -0.1268 -0.1730  0.0694
 1246SOL    HW3 4751   1.558   4.722   2.605  0.4984 -0.4614 -1.5456
 1246SOL    MW4 4752   1.478   4.695   2.582  0.3491  0.2953  0.2207
 1247SOL     OW 4753   2.642   5.858   0.404  0.6372 -0.1670 -0.3055
 1247SOL    HW2 4754   2.700   5.934   0.400 -0.7935  0.9075 -2.0752
 1247SOL    HW3 4755   2.559   5.892   0.436 -0.5030 -0.5656 -2.5839
 1247SOL    MW4 4756   2.639   5.872   0.407  0.2144 -0.1190 -0.5406
 1248SOL     OW 4757   1.545   1.873   5.173 -0.1186  0.2045  0.4080
 1248SOL    HW2 4758   1.585   1.960   5.174 -1.6472  0.9711  2.1390
 1248SOL    HW3 4759   1.612   1.815   5.208 -0.1786  1.3142  2.5130
 1248SOL    MW4 4760   1.559   1.877   5.178 -0.3568  0.1876 -0.0296
 1249SOL     OW 4761   0.623   4.774   1.729 -0.0852 -0.1474  0.2254
 1249SOL    HW2 4762   0.609   4.745   1.819 -0.8373 -2.1925 -0.4755
 1249SOL    HW3 4763   0.535   4.779   1.692  0.1229  1.8286 -0.1146
 1249SOL    MW4 4764   0.609   4.771   1.736 -0.0355 -0.7413  0.6542
 1250SOL     OW 4765   5.515   5.993   6.187  0.0708  0.4260 -0.0826
 1250SOL    HW2 4766   5.566   5.913   6.191  0.3145  0.5901  0.2056
 1250SOL    HW3 4767   5.580   6.063   6.192  0.0295  0.6826 -2.3674
 1250SOL    MW4 4768   5.530   5.992   6.188 -0.5328  0.2225 -0.1476
 1251SOL     OW 4769   6.187   4.851   4.145  0.3509 -0.5135  0.1411
 1251SOL    HW2 4770   6.094   4.831   4.151  0.3928 -0.3739  1.4002
 1251SOL    HW3 4771   6.220   4.841   4.234  1.2841  0.6524 -0.0515
 1251SOL    MW4 4772   6.179   4.847   4.157  0.1744 -0.2031 -0.2583
 1252SOL     OW 4773   5.628   3.841   3.980  0.3074  0.4713  0.9076
 1252SOL    HW2 4774   5.584   3.772   4.029  0.9164  1.0593  2.3095
 1252SOL    HW3 4775   5.571   3.917   3.990 -1.3854 -0.2042 -2.2278
 1252SOL    MW4 4776   5.614   3.842   3.987  0.1750  0.1782  0.4281
 1253SOL     OW 4777   2.564   2.134   0.216 -0.1800  0.3351  0.2501
 1253SOL    HW2 4778   2.568   2.158   0.123  1.2696  0.3191  0.2831
 1253SOL    HW3 4779   2.605   2.047   0.220 -0.2269  0.3386  0.8982
 1253SOL    MW4 4780   2.570   2.125   0.204  0.5891 -0.3243  0.6122
 1254SOL     OW 4781   1.089   5.051   0.048  0.2752  0.2637 -0.5404
 1254SOL    HW2 4782   1.174   5.064   0.006  0.2296  0.7701 -0.4836
 1254SOL    HW3 4783   1.088   5.116   0.119  0.3585 -0.5846  0.2536
 1254SOL    MW4 4784   1.100   5.062   0.052  0.0535  0.1183 -0.0328
 1255SOL     OW 4785   2.824   0.245   1.013 -0.2911 -0.3492  0.6204
 1255SOL    HW2 4786   2.896   0.294   0.974  1.1157 -1.4496  1.7219
 1255SOL    HW3 4787   2.754   0.309   1.022  0.7259  0.9041  0.0357
 1255SOL    MW4 4788   2.824   0.260   1.009 -0.1614  0.3444  0.6356
 1256SOL     OW 4789   4.528   5.034   0.437  0.1548  0.0199  0.2058
 1256SOL    HW2 4790   4.513   4.997   0.351 -0.7435 -0.5956  0.6177
 1256SOL    HW3 4791   4.470   4.985   0.495 -0.2118  1.2912  0.9486
 1256SOL    MW4 4792   4.518   5.023   0.433 -0.2036 -0.0660  0.3473
 1257SOL     OW 4793   5.687   6.268   5.984 -0.0434 -0.0465  0.2639
 1257SOL    HW2 4794   5.662   6.302   6.070 -0.6613  0.9972 -0.2988
 1257SOL    HW3 4795   5.640   6.185   5.977 -2.1840  1.1238 -0.1187
 1257SOL    MW4 4796   5.678   6.261   5.995  0.5997  0.2428 -0.0784
 1258SOL     OW 4797   3.683   1.255   1.393 -0.6880  0.1786 -0.2442
 1258SOL    HW2 4798   3.609   1.303   1.431 -0.5518  0.7256 -0.6575
 1258SOL    HW3 4799   3.748   1.322   1.372  1.4286 -0.5536  3.2561
 1258SOL    MW4 4800   3.682   1.270   1.395 -0.4399 -0.5156  0.0622
 1259SOL     OW 4801   0.481   3.269   5.317  0.6249 -0.2690 -0.3163
 1259SOL    HW2 4802   0.576   3.269   5.304  0.4331  0.2333 -1.7694
 1259SOL    HW3 4803   0.468   3.320   5.397  1.6039 -0.7780  0.1889
 1259SOL    MW4 4804   0.492   3.276   5.326 -0.5285 -0.3458  0.0479
 1260SOL     OW 4805   3.357   1.787   5.621  0.0656 -0.7039  0.4838
 1260SOL    HW2 4806   3.416   1.769   5.694 -0.4820  1.0794  1.4363
 1260SOL    HW3 4807   3.317   1.703   5.601 -0.5531 -1.0754  2.9678
 1260SOL    MW4 4808   3.360   1.773   5.628  0.0715 -0.2522  0.1538
 1261SOL     OW 4809   3.590   3.524   1.763 -0.1411  0.0712  0.3178
 1261SOL    HW2 4810   3.641   3.601   1.787 -1.1375  0.8556 -0.0330
 1261SOL    HW3 4811   3.499   3.548   1.783 -0.5711 -0.6474 -0.7033
 1261SOL    MW4 4812   3.584   3.537   1.769  0.2267  0.4107 -0.3787
 1262SOL     OW 4813   3.333   2.117   5.582  0.6958 -0.1096  0.0087
 1262SOL    HW2 4814   3.290   2.086   5.662  0.0901 -1.8967 -0.9572
 1262SOL    HW3 4815   3.349   2.210   5.598 -0.7363 -0.0892  1.6132
 1262SOL    MW4 4816   3.330   2.125   5.595  0.1133  0.2539  0.8611
 1263SOL     OW 4817   2.330   6.210   3.932  0.1188 -0.9242 -0.0615
 1263SOL    HW2 4818   2.329   6.294   3.977  1.0342 -1.6501  1.3568
 1263SOL    HW3 4819   2.340   6.233   3.839 -0.5842  0.5434  0.1995
 1263SOL    MW4 4820   2.331   6.224   3.925 -0.6110  0.4287 -0.5798
 1264SOL     OW 4821   3.265   3.799   0.560 -0.6913  0.2927  0.5965
 1264SOL    HW2 4822   3.205   3.807   0.487  0.7772 -2.1943 -1.0194
 1264SOL    HW3 4823   3.277   3.889   0.591 -2.5608  1.2383 -1.1839
 1264SOL    MW4 4824   3.259   3.812   0.555  0.0090  0.1666 -0.1299
 1265SOL     OW 4825   2.684   4.417   4.890 -1.1287  0.4841  0.1436
 1265SOL    HW2 4826   2.717   4.365   4.817  2.1767 -1.9680  3.0247
 1265SOL    HW3 4827   2.648   4.353   4.951  1.2154  1.5892  2.9570
 1265SOL    MW4 4828   2.684   4.402   4.889 -0.4992 -0.0154 -0.2332
 1266SOL     OW 4829   1.743   3.287   4.845 -0.0716 -0.1319  0.4863
 1266SOL    HW2 4830   1.700   3.323   4.923  0.8875 -0.4458  1.1793
 1266SOL    HW3 4831   1.772   3.200   4.871 -0.8009 -0.7173 -0.6199
 1266SOL    MW4 4832   1.742   3.281   4.859  0.0340  0.1896 -0.4686
 1267SOL     OW 4833   1.962   0.188   4.343 -0.0180  0.1414  0.2565
 1267SOL    HW2 4834   1.899   0.121   4.368  1.8197 -1.9254 -0.3685
 1267SOL    HW3 4835   2.041   0.166   4.392  2.1658 -1.1637 -3.4109
 1267SOL    MW4 4836   1.964   0.176   4.353  0.5491 -0.1271  0.8609
 1268SOL     OW 4837   1.536   2.697   1.123  0.2570 -0.2758  0.1828
 1268SOL    HW2 4838   1.451   2.729   1.093  0.9544  1.5516 -0.0051
 1268SOL    HW3 4839   1.523   2.604   1.140 -1.5372 -0.2175 -0.6920
 1268SOL    MW4 4840   1.523   2.689   1.121 -0.1692  0.0809 -0.2915
 1269SOL     OW 4841   3.943   4.585   0.447  0.1159  0.5216  0.1182
 1269SOL    HW2 4842   3.914   4.521   0.512  4.5608 -0.2490  1.6952
 1269SOL    HW3 4843   3.935   4.670   0.491 -1.1500  0.5283 -0.1034
 1269SOL    MW4 4844   3.938   4.588   0.461  0.1963 -0.3273 -0.0403
 1270SOL     OW 4845   3.844   3.080   3.879 -0.2553  0.5901  0.5532
 1270SOL    HW2 4846   3.912   3.101   3.815 -1.0386 -2.3826 -1.4258
 1270SOL    HW3 4847   3.877   3.115   3.961  1.3517  3.5405 -1.1851
 1270SOL    MW4 4848   3.857   3.088   3.881 -0.3831 -0.2875  0.2855
 1271SOL     OW 4849   3.862   3.957   2.189  0.2436  0.4139  0.4096
 1271SOL    HW2 4850   3.949   3.935   2.157  0.6027  0.6319  1.2158
 1271SOL    HW3 4851   3.856   3.914   2.274  0.6387  2.6552  1.6493
 1271SOL    MW4 4852   3.873   3.948   2.196  0.5117 -0.0355 -0.2472
 1272SOL     OW 4853   4.652   4.424   0.569 -0.0587 -0.1380  0.2617
 1272SOL    HW2 4854   4.594   4.420   0.493  0.2305 -1.2798  0.0725
 1272SOL    HW3 4855   4.603   4.380   0.639  0.6029 -1.2181  0.0664
 1272SOL    MW4 4856   4.638   4.418   0.568  0.6003 -0.2405 -0.0496
 1273SOL     OW 4857   3.307   0.986   2.335  0.2440 -0.2370 -0.5726
 1273SOL    HW2 4858   3.382   0.994   2.394  1.0864  1.4649 -1.7588
 1273SOL    HW3 4859   3.338   0.931   2.263  0.0291 -0.3484 -0.5809
 1273SOL    MW4 4860   3.321   0.980   2.333  0.0417 -0.0602  0.2538
 1274SOL     OW 4861   4.940   3.914   1.259  0.0947  0.4634  0.5404
 1274SOL    HW2 4862   4.869   3.977   1.273  0.1957  0.3147  1.8371
 1274SOL    HW3 4863   4.989   3.949   1.184 -2.3116 -0.3323 -1.5564
 1274SOL    MW4 4864   4.937   3.927   1.251 -0.0655 -0.4571  0.1558
 1275SOL     OW 4865   4.369   3.169   1.505  0.0374 -0.1800 -0.3025
 1275SOL    HW2 4866   4.349   3.085   1.465  0.2966 -0.5414  0.3188
 1275SOL    HW3 4867   4.286   3.217   1.503 -0.3535 -0.8319  0.2649
 1275SOL    MW4 4868   4.356   3.165   1.499 -0.2575 -0.3162 -0.5577
 1276SOL     OW 4869   1.209   2.803   1.842  0.1701  0.2190 -0.1267
 1276SOL    HW2 4870   1.303   2.801   1.858 -0.0369 -0.4726  1.0665
 1276SOL    HW3 4871   1.170   2.756   1.916 -1.0360 -0.6157 -1.2501
 1276SOL    MW4 4872   1.216   2.797   1.854  0.1368 -0.0046 -0.0046
 1277SOL     OW 4873   0.691   1.594   2.474  0.0711 -0.1334  0.2281
 1277SOL    HW2 4874   0.683   1.504   2.443  1.3910 -1.0879  2.3993
 1277SOL    HW3 4875   0.625   1.601   2.543  1.1917 -0.1162  1.3529
 1277SOL    MW4 4876   0.682   1.583   2.479 -0.4958 -0.0544 -0.2771
 1278SOL     OW 4877   2.214   0.455   5.052  0.7616 -0.1508 -0.1763
 1278SOL    HW2 4878   2.292   0.434   5.001 -0.8432 -0.8865 -2.5307
 1278SOL    HW3 4879   2.149   0.480   4.986 -0.7342  1.3447  1.7594
 1278SOL    MW4 4880   2.215   0.456   5.036 -0.2563  0.0281 -0.2911
 1279SOL     OW 4881   1.399   6.126   4.938 -0.1000 -0.0848  0.4479
 1279SOL    HW2 4882   1.378   6.212   4.901  1.1925 -0.5150 -1.4444
 1279SOL    HW3 4883   1.470   6.144   5.000  0.5890  0.1855 -0.3877
 1279SOL    MW4 4884   1.406   6.140   4.941  0.2678 -0.6688 -0.2084
 1280SOL     OW 4885   2.957   0.522   6.196  0.1821  0.5177  0.0146
 1280SOL    HW2 4886   2.972   0.530   6.102  1.3630 -1.6556 -0.0601
 1280SOL    HW3 4887   2.865   0.495   6.204  0.3764 -0.3751 -0.6197
 1280SOL    MW4 4888   2.947   0.519   6.185  0.4624 -0.1887 -0.3513
 1281SOL     OW 4889   2.651   2.677   4.551 -0.3181  1.0641 -0.3420
 1281SOL    HW2 4890   2.637   2.766   4.583 -1.9789  0.4205  0.8832
 1281SOL    HW3 4891   2.720   2.643   4.608 -1.2188  0.8888  0.6923
 1281SOL    MW4 4892   2.658   2.684   4.563 -0.2404 -0.0973 -0.0452
 1282SOL     OW 4893   3.900   1.383   3.963  0.5257  0.0230  0.1010
 1282SOL    HW2 4894   3.929   1.319   3.898 -0.9226  1.7758 -2.4389
 1282SOL    HW3 4895   3.977   1.437   3.981  0.7190  0.1377 -0.9818
 1282SOL    MW4 4896   3.914   1.381   3.957 -0.6016  0.3161  0.0359
 1283SOL     OW 4897   1.999   5.002   2.401  0.1538  0.3680 -0.0508
 1283SOL    HW2 4898   2.054   5.080   2.405  1.9297 -0.7949 -0.5684
 1283SOL    HW3 4899   2.018   4.955   2.481 -2.8697  1.6181  1.5433
 1283SOL    MW4 4900   2.009   5.006   2.412  0.1905 -0.7206 -1.0628
 1284SOL     OW 4901   3.375   1.220   5.400 -0.5784  0.1033  0.6419
 1284SOL    HW2 4902   3.430   1.153   5.358 -0.5442 -0.4268  1.5186
 1284SOL    HW3 4903   3.360   1.187   5.488 -1.1631  0.9161  0.8551
 1284SOL    MW4 4904   3.381   1.207   5.406 -0.2254  0.3578  0.4354
 1285SOL     OW 4905   4.363   0.600   6.077 -0.3087  0.9224 -0.1810
 1285SOL    HW2 4906   4.360   0.570   5.987 -1.4201 -4.8204  1.3952
 1285SOL    HW3 4907   4.276   0.637   6.093 -0.9798 -0.2835 -0.8999
 1285SOL    MW4 4908   4.351   0.601   6.068  0.3474  0.1071 -0.6888
 1286SOL     OW 4909   0.793   2.608   0.855  0.5994 -0.3604 -0.4004
 1286SOL    HW2 4910   0.775   2.667   0.929  1.1923 -0.5234 -0.1148
 1286SOL    HW3 4911   0.864   2.651   0.808  3.2600 -2.2566  1.5534
 1286SOL    MW4 4912   0.800   2.622   0.859  0.1208  0.2209 -0.5747
 1287SOL     OW 4913   1.168   3.947   6.382 -0.4549  0.2180  0.1049
 1287SOL    HW2 4914   1.224   3.893   6.437 -0.1423 -1.9006 -2.1209
 1287SOL    HW3 4915   1.078   3.925   6.408 -0.3157 -0.9872 -0.3865
 1287SOL    MW4 4916   1.163   3.937   6.392 -0.1577 -0.1320 -0.0432
 1288SOL     OW 4917   3.957   0.990   2.117 -0.1088  0.1047  0.2986
 1288SOL    HW2 4918   3.883   1.032   2.161 -0.4005 -1.1871  1.0915
 1288SOL    HW3 4919   4.031   1.047   2.137 -0.5532  0.4348  1.0555
 1288SOL    MW4 4920   3.957   1.003   2.126  0.1812  0.5816  0.2411
 1289SOL     OW 4921   3.719   5.952   2.990 -0.3984 -0.4811  0.0425
 1289SOL    HW2 4922   3.801   5.988   3.026 -0.2367 -0.5827 -0.2173
 1289SOL    HW3 4923   3.693   5.885   3.052 -1.7357  1.3612  1.5626
 1289SOL    MW4 4924   3.727   5.948   3.003 -0.0823 -0.5608  0.1660
 1290SOL     OW 4925   1.154   6.231   4.238  0.1337 -0.3060  0.4050
 1290SOL    HW2 4926   1.105   6.190   4.310 -0.1777  0.2177  0.4993
 1290SOL    HW3 4927   1.240   6.250   4.276 -0.5895  1.5881  1.2227
 1290SOL    MW4 4928   1.159   6.228   4.253  0.7040 -0.2083  0.1302
 1291SOL     OW 4929   6.262   5.109   4.059  0.0290  0.1463  0.0041
 1291SOL    HW2 4930   6.194   5.176   4.062  0.1327  0.3497 -1.5129
 1291SOL    HW3 4931   6.221   5.032   4.098 -0.8095  0.4856 -0.1877
 1291SOL    MW4 4932   6.248   5.108   4.065  0.1023  0.0519 -0.5075
 1292SOL     OW 4933   0.635   2.157   1.435 -0.2749 -0.3849 -0.1204
 1292SOL    HW2 4934   0.680   2.213   1.499 -0.4657 -1.2251  0.7752
 1292SOL    HW3 4935   0.553   2.134   1.478 -1.0228  0.1223 -1.2373
 1292SOL    MW4 4936   0.630   2.161   1.449  0.1599  0.1496 -0.1868
 1293SOL     OW 4937   2.360   6.152   2.744 -0.1817  0.1278 -0.1073
 1293SOL    HW2 4938   2.453   6.168   2.761 -0.4304  2.2969 -0.5505
 1293SOL    HW3 4939   2.358   6.105   2.661  0.4958  1.0133 -0.6401
 1293SOL    MW4 4940   2.372   6.148   2.736 -0.0232  0.0111 -0.6466
 1294SOL     OW 4941   6.194   2.840   2.934 -0.5520  0.0514  0.4800
 1294SOL    HW2 4942   6.277   2.794   2.935 -0.8169 -0.4315  1.5561
 1294SOL    HW3 4943   6.215   2.928   2.901  0.0913 -0.5595 -0.7876
 1294SOL    MW4 4944   6.208   2.846   2.929 -0.1202 -0.2848 -0.3613
 1295SOL     OW 4945   2.671   1.310   4.901 -0.0940  0.2946  0.1028
 1295SOL    HW2 4946   2.720   1.228   4.903 -1.0650 -0.3144  0.0044
 1295SOL    HW3 4947   2.711   1.364   4.969  1.2596  0.1693 -0.5659
 1295SOL    MW4 4948   2.683   1.307   4.910  0.1095 -0.1091  0.7000
 1296SOL     OW 4949   6.206   1.261   0.167  0.0132  0.1583 -0.2665
 1296SOL    HW2 4950   6.245   1.287   0.083  0.8793  0.0586  0.0967
 1296SOL    HW3 4951   6.260   1.305   0.233  0.7342 -1.5213  0.3230
 1296SOL    MW4 4952   6.219   1.270   0.164 -0.2920  0.9510  0.6510
 1297SOL     OW 4953   5.464   0.692   2.333 -0.0830  0.2160  0.7321
 1297SOL    HW2 4954   5.490   0.754   2.400  0.6368 -0.1827  0.8310
 1297SOL    HW3 4955   5.546   0.652   2.304 -0.5915 -1.1694  1.1473
 1297SOL    MW4 4956   5.478   0.695   2.338  0.3764 -0.0790 -0.4570
 1298SOL     OW 4957   2.268   5.812   4.486  0.2908  0.5355  0.2070
 1298SOL    HW2 4958   2.201   5.878   4.473 -1.9589 -1.1991  2.0560
 1298SOL    HW3 4959   2.305   5.831   4.572 -0.8377 -0.8771  1.0572
 1298SOL    MW4 4960   2.264   5.823   4.496 -0.0806  0.0708  0.4840
 1299SOL     OW 4961   0.546   2.875   5.219 -0.2441 -0.0788  0.0374
 1299SOL    HW2 4962   0.557   2.931   5.142  0.9086 -0.2166  0.0843
 1299SOL    HW3 4963   0.572   2.788   5.189 -0.8362 -0.3536  0.2976
 1299SOL    MW4 4964   0.550   2.871   5.205  0.4868  0.2095 -0.0615
 1300SOL     OW 4965   6.227   2.904   3.847 -0.2983 -0.4624 -0.2897
 1300SOL    HW2 4966   6.275   2.906   3.764 -1.6682 -1.2693 -1.1405
 1300SOL    HW3 4967   6.138   2.880   3.822 -1.4585  2.0404  1.1098
 1300SOL    MW4 4968   6.222   2.901   3.833  0.3208 -0.1748  0.0784
 1301SOL     OW 4969   5.698   3.402   6.366  0.2265  0.5688 -0.0896
 1301SOL    HW2 4970   5.735   3.317   6.341 -1.3991 -0.1664 -0.1306
 1301SOL    HW3 4971   5.623   3.413   6.309  0.9571  2.5278 -0.7453
 1301SOL    MW4 4972   5.693   3.392   6.355 -0.3135  0.5347 -0.5183
 1302SOL     OW 4973   4.263   4.014   4.150  0.3672  0.1234  0.1439
 1302SOL    HW2 4974   4.307   3.996   4.067  0.8955 -1.5191  0.7275
 1302SOL    HW3 4975   4.174   3.982   4.138  0.1683  0.7697 -0.0993
 1302SOL    MW4 4976   4.257   4.007   4.138 -0.0533 -0.5194  0.2397
 1303SOL     OW 4977   4.422   3.592   5.328 -0.1234 -0.1275  0.3799
 1303SOL    HW2 4978   4.382   3.512   5.295 -0.6380  0.1358  0.3633
 1303SOL    HW3 4979   4.419   3.583   5.423 -1.8730  0.6747  0.4409
 1303SOL    MW4 4980   4.417   3.580   5.336 -0.2975  0.1094  0.2547
 1304SOL     OW 4981   5.708   2.079   4.537  0.5940  0.3629  0.5805
 1304SOL    HW2 4982   5.698   2.008   4.473 -0.5898  1.0874 -0.0740
 1304SOL    HW3 4983   5.723   2.157   4.483 -1.5006  1.1710  1.0914
 1304SOL    MW4 4984   5.709   2.080   4.521  0.0243 -0.0342  0.4185
 1305SOL     OW 4985   4.800   4.496   0.153  0.2077  0.4559 -0.1005
 1305SOL    HW2 4986   4.710   4.515   0.124  0.0579 -0.2464 -0.1162
 1305SOL    HW3 4987   4.839   4.450   0.079  0.0320 -0.7586  0.5388
 1305SOL    MW4 4988   4.793   4.493   0.139  0.1990  0.0857  0.2808
 1306SOL     OW 4989   4.115   0.916   5.632 -0.2794  0.0338 -0.0177
 1306SOL    HW2 4990   4.167   0.875   5.563 -0.2427  0.6515 -0.3625
 1306SOL    HW3 4991   4.046   0.963   5.586 -0.7531 -0.2353  0.4105
 1306SOL    MW4 4992   4.113   0.916   5.617 -0.1605 -0.5976  0.5494
 1307SOL     OW 4993   2.348   0.639   4.250  0.2906  0.2393 -0.3401
 1307SOL    HW2 4994   2.415   0.659   4.185  2.5957 -0.2216  1.7279
 1307SOL    HW3 4995   2.342   0.543   4.249  0.4266  0.2227  0.1730
 1307SOL    MW4 4996   2.356   0.629   4.241 -0.5806  0.0116  0.1230
 1308SOL     OW 4997   0.246   4.063   1.650 -0.1368 -0.0785 -0.7986
 1308SOL    HW2 4998   0.190   3.985   1.653  0.1927 -0.2961  0.0828
 1308SOL    HW3 4999   0.254   4.083   1.556  0.3554 -1.5397 -1.1028
 1308SOL    MW4 5000   0.240   4.055   1.638 -0.0160 -0.1444  0.0602
 1309SOL     OW 5001   2.616   4.225   0.289 -0.1860 -0.5908 -0.4347
 1309SOL    HW2 5002   2.692   4.185   0.247  1.1952  0.2169  1.1710
 1309SOL    HW3 5003   2.569   4.267   0.217  0.8268 -1.1852 -1.4943
 1309SOL    MW4 5004   2.620   4.225   0.274  0.0994  0.2561 -0.0069
 1310SOL     OW 5005   2.679   1.296   5.774 -0.5556 -0.5279 -0.1108
 1310SOL    HW2 5006   2.714   1.265   5.857 -1.3222  0.0828  0.4483
 1310SOL    HW3 5007   2.656   1.387   5.790  0.1796 -0.1099 -1.2785
 1310SOL    MW4 5008   2.681   1.304   5.787 -0.2934  0.1103  0.2568
 1311SOL     OW 5009   4.245   4.608   0.501 -0.0009  0.2710  0.2051
 1311SOL    HW2 5010   4.172   4.669   0.495  0.4169  0.8772  1.0880
 1311SOL    HW3 5011   4.303   4.646   0.568  0.7363 -0.5952  0.0790
 1311SOL    MW4 5012   4.243   4.621   0.509  0.3163  0.0938 -0.0284
 1312SOL     OW 5013   1.992   3.565   3.178  0.2493  0.5720 -0.4144
 1312SOL    HW2 5014   1.907   3.569   3.222 -0.3289  0.0234 -1.4513
 1312SOL    HW3 5015   2.044   3.633   3.221 -0.6461  0.7868  0.3672
 1312SOL    MW4 5016   1.987   3.574   3.189 -0.0066  0.1053  0.3693
 1313SOL     OW 5017   5.119   4.194   4.234  0.3719  0.0873 -0.2026
 1313SOL    HW2 5018   5.117   4.255   4.161 -2.3112  1.5307  0.9572
 1313SOL    HW3 5019   5.184   4.230   4.294  1.7661 -0.5055 -1.2805
 1313SOL    MW4 5020   5.128   4.207   4.232  0.2080  0.3122  0.3407
 1314SOL     OW 5021   3.971   4.017   5.866 -0.3840 -0.2174 -0.1693
 1314SOL    HW2 5022   3.922   4.025   5.784  0.4848 -0.5090 -0.7380
 1314SOL    HW3 5023   3.907   4.035   5.934 -1.1118  0.1032 -0.9160
 1314SOL    MW4 5024   3.956   4.020   5.864  0.1139  0.1264 -0.6277
 1315SOL     OW 5025   3.223   1.822   2.801 -0.1594  0.1950 -0.3992
 1315SOL    HW2 5026   3.296   1.802   2.742 -0.7449  0.4666 -1.2413
 1315SOL    HW3 5027   3.145   1.796   2.751 -0.6089 -0.8482  0.7871
 1315SOL    MW4 5028   3.222   1.816   2.786  0.0596  0.8588 -0.4011
 1316SOL     OW 5029   4.023   2.986   3.103  0.1332 -0.1842 -0.0923
 1316SOL    HW2 5030   4.116   3.002   3.083 -0.4201  1.2176 -1.7026
 1316SOL    HW3 5031   3.977   3.002   3.021 -1.5810 -0.7292  0.7148
 1316SOL    MW4 5032   4.029   2.990   3.090  0.3132 -0.0964  0.1578
 1317SOL     OW 5033   5.510   5.770   2.153 -0.0468  0.2172 -0.2516
 1317SOL    HW2 5034   5.421   5.762   2.187  0.7861 -0.3691  1.9883
 1317SOL    HW3 5035   5.515   5.860   2.121 -1.0970  0.6522  0.7157
 1317SOL    MW4 5036   5.499   5.781   2.154 -0.1946  0.6242  0.0484
 1318SOL     OW 5037   2.983   4.325   1.267  0.5118 -0.6412 -0.2874
 1318SOL    HW2 5038   2.990   4.319   1.363  1.3579  0.7109 -0.2327
 1318SOL    HW3 5039   3.057   4.272   1.235  2.0700  1.2779 -0.0732
 1318SOL    MW4 5040   2.994   4.317   1.276 -0.2776  0.2564  0.0460
 1319SOL     OW 5041   4.349   5.853   3.804  0.2974 -0.1249  0.7210
 1319SOL    HW2 5042   4.444   5.861   3.807  0.3801 -0.6073 -0.1683
 1319SOL    HW3 5043   4.328   5.856   3.710 -0.4501 -1.1797  0.8339
 1319SOL    MW4 5044   4.358   5.854   3.792  0.3008  0.1071 -0.3409
 1320SOL     OW 5045   1.926   3.382   2.284 -0.3620 -0.0972  0.0361
 1320SOL    HW2 5046   1.956   3.471   2.269  0.1647 -0.4505 -1.1015
 1320SOL    HW3 5047   1.917   3.375   2.380 -2.4727  1.8272  0.0599
 1320SOL    MW4 5048   1.929   3.393   2.295 -0.0481  0.2573  0.3010
 1321SOL     OW 5049   3.972   3.046   5.274 -0.4550  0.2647 -0.0337
 1321SOL    HW2 5050   4.017   2.965   5.250  0.1693  0.6346 -0.1364
 1321SOL    HW3 5051   4.015   3.075   5.354  1.9435  2.4575 -1.9423
 1321SOL    MW4 5052   3.983   3.039   5.281  0.1607 -0.4480 -0.0733
 1322SOL     OW 5053   6.233   5.032   4.519  0.0476  0.3261 -0.8461
 1322SOL    HW2 5054   6.142   5.057   4.535  0.0406 -0.1442 -0.0999
 1322SOL    HW3 5055   6.256   5.076   4.437 -1.4920 -1.1661 -2.1554
 1322SOL    MW4 5056   6.224   5.041   4.510  0.4516 -0.1407  0.0813
 1323SOL     OW 5057   5.421   0.374   3.023  0.2547  0.0352  0.0654
 1323SOL    HW2 5058   5.509   0.359   3.057  0.1743  0.8818  0.6562
 1323SOL    HW3 5059   5.392   0.455   3.065  0.1417  1.1129 -1.9608
 1323SOL    MW4 5060   5.429   0.383   3.033 -0.0324  0.2604 -0.6457
 1324SOL     OW 5061   1.297   1.999   1.089  0.2361  0.5132 -0.4446
 1324SOL    HW2 5062   1.281   2.072   1.029 -0.2404 -1.3471 -2.7177
 1324SOL    HW3 5063   1.289   1.921   1.034 -0.4751 -1.3370  2.1389
 1324SOL    MW4 5064   1.294   1.998   1.073 -0.0964  0.4415  0.3341
 1325SOL     OW 5065   0.688   5.570   1.980 -0.1940  0.0310 -0.0413
 1325SOL    HW2 5066   0.726   5.494   2.024  0.9444  1.4529  1.5863
 1325SOL    HW3 5067   0.605   5.585   2.025 -0.9543 -0.8638 -1.1013
 1325SOL    MW4 5068   0.682   5.562   1.992  0.1926  0.7383 -0.0819
 1326SOL     OW 5069   4.027   1.257   3.037 -0.1850  0.4814  0.3130
 1326SOL    HW2 5070   4.030   1.353   3.043  0.1038  0.4526  0.5999
 1326SOL    HW3 5071   4.111   1.233   2.997  1.1912  0.1171  3.1799
 1326SOL    MW4 5072   4.038   1.267   3.032  0.3008 -0.4977  0.2897
 1327SOL     OW 5073   3.248   3.970   2.728  0.0688  0.4872 -0.6376
 1327SOL    HW2 5074   3.294   3.947   2.647 -0.5596 -0.6654 -0.6864
 1327SOL    HW3 5075   3.164   4.005   2.698 -0.7653 -1.2730 -0.5066
 1327SOL    MW4 5076   3.243   3.971   2.713 -0.0937  0.8004  0.1043
 1328SOL     OW 5077   4.802   3.387   5.985 -0.1878 -0.6517 -0.9312
 1328SOL    HW2 5078   4.766   3.328   5.919  1.4596 -0.0657 -2.4497
 1328SOL    HW3 5079   4.768   3.473   5.960 -1.1162 -0.6758  0.1830
 1328SOL    MW4 5080   4.793   3.391   5.973  0.0377  0.3561  0.4359
 1329SOL     OW 5081   3.765   0.832   3.856 -0.3325 -0.2559 -0.3028
 1329SOL    HW2 5082   3.745   0.809   3.947  0.2520  0.6193  0.0587
 1329SOL    HW3 5083   3.699   0.784   3.804 -0.1056 -1.4935  0.5009
 1329SOL    MW4 5084   3.754   0.822   3.861  0.2947  0.5618  0.4516
 1330SOL     OW 5085   4.294   2.743   3.182 -0.6227 -0.2521  0.5855
 1330SOL    HW2 5086   4.337   2.828   3.177 -0.9661  0.0961  2.6817
 1330SOL    HW3 5087   4.203   2.762   3.204 -0.8381 -1.1381  0.5226
 1330SOL    MW4 5088   4.288   2.757   3.185  0.2905  0.9460  0.1415
 1331SOL     OW 5089   0.659   0.663   3.862  0.2979 -0.2876  0.2379
 1331SOL    HW2 5090   0.753   0.662   3.845  0.1367  0.1723 -0.7103
 1331SOL    HW3 5091   0.641   0.751   3.894  0.1981 -0.4182  0.5546
 1331SOL    MW4 5092   0.669   0.674   3.864  0.1184 -0.0156 -0.7788
 1332SOL     OW 5093   5.139   0.392   5.051 -0.0751  0.0148  0.1490
 1332SOL    HW2 5094   5.150   0.311   5.002  0.4515  0.0004  0.2840
 1332SOL    HW3 5095   5.069   0.373   5.114 -1.2071  0.2415 -1.0162
 1332SOL    MW4 5096   5.131   0.379   5.053  0.5504 -0.0348 -0.0798
 1333SOL     OW 5097   3.482   0.121   6.058 -0.0634 -0.1190  0.6690
 1333SOL    HW2 5098   3.562   0.068   6.050  0.0135  0.0226  0.5048
 1333SOL    HW3 5099   3.415   0.059   6.088  0.2433 -0.1214  1.3736
 1333SOL    MW4 5100   3.484   0.106   6.061 -0.1503  0.6666  0.0206
 1334SOL     OW 5101   1.298   0.637   3.337  0.6791 -0.1127 -0.3364
 1334SOL    HW2 5102   1.392   0.651   3.349  0.7865 -0.5278 -0.6656
 1334SOL    HW3 5103   1.259   0.658   3.422  0.6626  3.3021 -1.0448
 1334SOL    MW4 5104   1.305   0.641   3.350  0.0496 -0.5969  0.1912
 1335SOL     OW 5105   2.293   4.383   5.051  0.0599 -0.1280 -0.0323
 1335SOL    HW2 5106   2.331   4.412   5.134 -1.2194  0.1396  0.4796
 1335SOL    HW3 5107   2.296   4.460   4.994  1.6678 -0.5227 -0.5368
 1335SOL    MW4 5108   2.298   4.397   5.054 -0.6519  0.3072  0.2154
 1336SOL     OW 5109   3.349   6.275   2.580  0.9913 -0.2857 -0.8900
 1336SOL    HW2 5110   3.277   6.244   2.525 -0.2561 -1.4300  1.2308
 1336SOL    HW3 5111   3.307   6.293   2.665  2.3992  3.4037 -0.7797
 1336SOL    MW4 5112   3.334   6.273   2.584  0.6907  0.2657 -0.0841
 1337SOL     OW 5113   2.707   1.474   4.664 -0.2062  0.3270  1.0206
 1337SOL    HW2 5114   2.678   1.403   4.721  1.5080 -1.8903 -0.6724
 1337SOL    HW3 5115   2.698   1.439   4.575  2.7144  1.3964  0.2064
 1337SOL    MW4 5116   2.702   1.460   4.660  0.1828  0.7612 -0.2154
 1338SOL     OW 5117   1.027   0.562   1.606  0.1726  0.1149 -0.1126
 1338SOL    HW2 5118   1.033   0.602   1.693 -1.0425  0.2954 -0.0809
 1338SOL    HW3 5119   0.960   0.615   1.561 -1.0884 -1.5171 -0.2507
 1338SOL    MW4 5120   1.019   0.574   1.611 -0.3645  0.1564  0.1842
 1339SOL     OW 5121   4.642   3.739   2.348 -0.0697  0.0898  0.2397
 1339SOL    HW2 5122   4.568   3.685   2.321 -0.9698  1.4675 -0.2132
 1339SOL    HW3 5123   4.716   3.707   2.296 -0.3165 -1.3328  0.7316
 1339SOL    MW4 5124   4.642   3.728   2.337 -0.5102  0.2733 -0.2210
 1340SOL     OW 5125   3.689   4.920   1.868 -0.4442 -0.2584  0.4978
 1340SOL    HW2 5126   3.642   4.837   1.879  0.1866 -0.4437  1.9920
 1340SOL    HW3 5127   3.701   4.928   1.773 -2.0247 -1.0065  0.2064
 1340SOL    MW4 5128   3.684   4.910   1.857  0.1300  0.4615 -0.0892
 1341SOL     OW 5129   5.544   2.573   2.679  0.4097 -0.4225 -0.1131
 1341SOL    HW2 5130   5.594   2.650   2.651 -3.1370  1.9154 -0.6788
 1341SOL    HW3 5131   5.505   2.600   2.762 -1.5525 -1.2688 -0.7295
 1341SOL    MW4 5132   5.546   2.587   2.686 -0.3044  0.3713 -0.0404
 1342SOL     OW 5133   1.119   4.530   0.258  0.4270 -0.2818 -0.3458
 1342SOL    HW2 5134   1.202   4.522   0.211  0.1165 -1.1937 -0.7599
 1342SOL    HW3 5135   1.066   4.589   0.203  0.0743 -1.3277 -1.1552
 1342SOL    MW4 5136   1.123   4.537   0.244  0.1443 -0.0828  0.4282
 1343SOL     OW 5137   5.712   0.361   0.846 -0.0310 -0.0016 -0.0029
 1343SOL    HW2 5138   5.643   0.296   0.857  1.7774 -2.3119 -1.5220
 1343SOL    HW3 5139   5.747   0.346   0.758  0.9531  2.5897 -0.1549
 1343SOL    MW4 5140   5.707   0.351   0.836  0.0095  0.4731  0.2078
 1344SOL     OW 5141   5.973   5.223   1.603  0.2574  0.1468 -0.3323
 1344SOL    HW2 5142   5.988   5.259   1.690  0.9600  2.0149 -1.1639
 1344SOL    HW3 5143   5.878   5.207   1.600  0.3187 -0.5592  0.9739
 1344SOL    MW4 5144   5.962   5.226   1.614  0.1884  0.1740 -0.3357
 1345SOL     OW 5145   1.125   2.138   3.204 -0.1195 -0.2927 -0.2647
 1345SOL    HW2 5146   1.165   2.063   3.247 -0.4607  0.9985  2.5423
 1345SOL    HW3 5147   1.042   2.104   3.170 -1.0804 -0.9499  2.4299
 1345SOL    MW4 5148   1.119   2.124   3.205 -0.6536  0.2822 -0.2185
 1346SOL     OW 5149   5.949   0.192   2.721  0.5310 -0.3751  0.5376
 1346SOL    HW2 5150   6.008   0.196   2.797  1.4116  1.1795 -0.1854
 1346SOL    HW3 5151   6.007   0.184   2.646 -0.2656 -0.5206 -0.0738
 1346SOL    MW4 5152   5.964   0.192   2.721 -0.2216  0.6530  0.1381
 1347SOL     OW 5153   4.096   0.735   4.827  0.6190  0.4130 -0.1068
 1347SOL    HW2 5154   4.019   0.785   4.799  1.5133  2.0669  0.2706
 1347SOL    HW3 5155   4.144   0.719   4.746 -0.5519 -1.4807 -0.4880
 1347SOL    MW4 5156   4.092   0.740   4.813  0.1592 -0.3829  0.5220
 1348SOL     OW 5157   1.226   5.088   4.004  0.4643  0.3301 -0.2201
 1348SOL    HW2 5158   1.195   5.076   3.915  2.3435  0.3592 -0.9259
 1348SOL    HW3 5159   1.269   5.173   4.004  1.1257  0.0221  0.4917
 1348SOL    MW4 5160   1.228   5.097   3.992 -0.9649  0.3679 -0.4869
 1349SOL     OW 5161   3.680   0.200   4.312  0.0096  0.1075  0.1660
 1349SOL    HW2 5162   3.636   0.237   4.235  0.0323 -0.3980 -0.0915
 1349SOL    HW3 5163   3.725   0.122   4.279  1.7593  1.0375  0.2549
 1349SOL    MW4 5164   3.680   0.195   4.297  0.0317  0.4404  0.4651
 1350SOL     OW 5165   4.121   4.363   0.557 -0.2851 -0.2007  0.2871
 1350SOL    HW2 5166   4.129   4.442   0.504 -0.3536 -0.6085 -0.3451
 1350SOL    HW3 5167   4.077   4.392   0.637  0.8813  0.6561  0.6488
 1350SOL    MW4 5168   4.116   4.377   0.560 -0.3358  0.2443 -0.1166
 1351SOL     OW 5169   2.117   4.165   2.641 -0.0106 -0.4968 -0.5870
 1351SOL    HW2 5170   2.102   4.197   2.730 -0.5953 -0.0709 -0.8332
 1351SOL    HW3 5171   2.083   4.076   2.642 -0.0055 -0.4987 -0.3886
 1351SOL    MW4 5172   2.111   4.157   2.653  0.3105 -0.4980  0.5636
 1352SOL     OW 5173   2.917   4.131   2.974  0.4852 -0.0980 -0.4090
 1352SOL    HW2 5174   2.836   4.134   2.922  0.4359 -0.0554 -0.3305
 1352SOL    HW3 5175   2.971   4.066   2.930  0.7964  0.5517 -1.0251
 1352SOL    MW4 5176   2.913   4.123   2.961  0.6036  0.1216  0.1320
 1353SOL     OW 5177   3.097   4.924   4.912 -0.1742 -0.1403 -0.3697
 1353SOL    HW2 5178   3.138   5.007   4.887  0.5750 -0.5355 -0.5096
 1353SOL    HW3 5179   3.033   4.907   4.843 -0.9953  0.7686  0.1451
 1353SOL    MW4 5180   3.094   4.933   4.899 -0.7333 -0.1578  0.1761
 1354SOL     OW 5181   1.699   4.360   0.738 -0.3631 -0.0352  0.4038
 1354SOL    HW2 5182   1.745   4.385   0.658 -1.3443 -0.8671 -0.4343
 1354SOL    HW3 5183   1.648   4.438   0.761  1.0941  0.7602  1.1218
 1354SOL    MW4 5184   1.699   4.374   0.731 -0.1984 -0.1378  0.1450
 1355SOL     OW 5185   2.352   1.920   2.103 -0.2563 -0.4431  0.1870
 1355SOL    HW2 5186   2.381   1.877   2.183  1.2103  0.6581  0.2939
 1355SOL    HW3 5187   2.280   1.976   2.131 -0.2870 -0.6787  0.5866
 1355SOL    MW4 5188   2.346   1.922   2.117 -0.2017  0.3446 -0.3237
 1356SOL     OW 5189   0.332   4.078   1.059  0.2253 -0.4203  0.0647
 1356SOL    HW2 5190   0.347   4.163   1.100  0.9078 -1.5385  2.3237
 1356SOL    HW3 5191   0.239   4.079   1.035  0.2716  1.0190 -0.1297
 1356SOL    MW4 5192   0.322   4.089   1.062  0.0707  0.0709  0.0968
 1357SOL     OW 5193   2.566   2.521   1.916 -0.4503  0.3901  0.0384
 1357SOL    HW2 5194   2.538   2.483   1.833  2.0448 -0.7174 -0.4132
 1357SOL    HW3 5195   2.581   2.445   1.973 -0.9502  1.0708  1.1162
 1357SOL    MW4 5196   2.565   2.506   1.913 -0.2897 -0.3780  0.2632
 1358SOL     OW 5197   4.610   5.240   2.331  0.1471 -0.3961  0.4302
 1358SOL    HW2 5198   4.599   5.220   2.239  0.1044  0.9359  0.1328
 1358SOL    HW3 5199   4.546   5.184   2.376 -1.2486  0.3911 -0.5094
 1358SOL    MW4 5200   4.600   5.230   2.325  0.0226 -0.1845  0.0680
 1359SOL     OW 5201   6.410   6.011   0.957  0.2031  0.1134 -0.0021
 1359SOL    HW2 5202   6.455   6.095   0.968 -1.1724  0.9065 -0.0847
 1359SOL    HW3 5203   6.448   5.973   0.879 -0.4227  1.5775 -1.0749
 1359SOL    MW4 5204   6.421   6.017   0.948 -0.0021 -0.3869  0.4014
 1360SOL     OW 5205   1.703   0.257   0.812  0.1312 -0.1048 -0.0868
 1360SOL    HW2 5206   1.696   0.301   0.727  0.3281  0.2734  0.0901
 1360SOL    HW3 5207   1.617   0.216   0.825 -0.6230  1.5856  0.4811
 1360SOL    MW4 5208   1.691   0.257   0.803  0.0918  0.6029  0.0719
 1361SOL     OW 5209   3.076   4.185   2.185  0.0348 -0.3246  0.2413
 1361SOL    HW2 5210   3.101   4.162   2.096 -0.4725 -0.7509  0.2026
 1361SOL    HW3 5211   3.102   4.110   2.238 -0.3880 -0.4194  0.3235
 1361SOL    MW4 5212   3.082   4.172   2.180 -0.4374 -0.2558 -0.1353
 1362SOL     OW 5213   5.398   1.318   0.614  0.4974  0.3118 -0.5643
 1362SOL    HW2 5214   5.472   1.293   0.559 -0.1240 -1.2540 -0.7335
 1362SOL    HW3 5215   5.327   1.258   0.589 -0.5129  1.0846  0.3189
 1362SOL    MW4 5216   5.398   1.307   0.604  0.1632  0.2478 -0.3532
 1363SOL     OW 5217   5.757   6.063   0.331  0.4377 -0.3726  0.0835
 1363SOL    HW2 5218   5.773   6.029   0.419  0.2167 -0.2678  0.1645
 1363SOL    HW3 5219   5.734   6.155   0.344 -1.1197 -0.7297  0.0561
 1363SOL    MW4 5220   5.756   6.071   0.344  0.2982 -0.3141  0.1609
 1364SOL     OW 5221   2.211   2.273   3.233  0.5684 -0.2814  0.4506
 1364SOL    HW2 5222   2.245   2.353   3.192 -0.1595 -0.5787 -0.7697
 1364SOL    HW3 5223   2.283   2.211   3.226  0.2800 -0.5051 -0.9473
 1364SOL    MW4 5224   2.225   2.276   3.226 -0.0415  0.2310  0.0697
 1365SOL     OW 5225   1.231   6.320   0.735  0.0666 -0.3266 -0.2926
 1365SOL    HW2 5226   1.213   6.266   0.657 -1.9520 -1.5346  0.9025
 1365SOL    HW3 5227   1.292   6.267   0.787 -2.4327 -1.9674  1.2008
 1365SOL    MW4 5228   1.236   6.306   0.731 -0.2192 -0.6205  0.5014
 1366SOL     OW 5229   6.334   1.031   0.321  0.3629 -0.1429 -0.1841
 1366SOL    HW2 5230   6.302   1.107   0.272 -1.1226 -0.4308  0.2819
 1366SOL    HW3 5231   6.255   0.990   0.356  1.2254 -1.2262  0.5741
 1366SOL    MW4 5232   6.319   1.036   0.319 -0.4053 -0.1920 -0.3520
 1367SOL     OW 5233   1.092   3.047   1.786  0.1603  0.1304 -0.0876
 1367SOL    HW2 5234   1.029   3.060   1.856  1.3891  0.2218  1.0466
 1367SOL    HW3 5235   1.125   2.958   1.800  0.1240 -0.0018 -0.8055
 1367SOL    MW4 5236   1.088   3.037   1.797  0.5443  0.7024  0.4723
 1368SOL     OW 5237   1.923   5.568   1.533  0.3197  0.2919  0.2543
 1368SOL    HW2 5238   1.962   5.550   1.447  0.9888  0.0832  0.5977
 1368SOL    HW3 5239   1.995   5.604   1.585  1.0414 -3.1513  1.9505
 1368SOL    MW4 5240   1.938   5.570   1.528 -0.1462 -0.1231  0.4121
 1369SOL     OW 5241   3.777   4.644   3.221 -0.0107 -0.1062 -0.4932
 1369SOL    HW2 5242   3.770   4.707   3.149  1.7301 -0.3536 -0.9156
 1369SOL    HW3 5243   3.854   4.672   3.271 -0.3680 -0.7566  0.4590
 1369SOL    MW4 5244   3.786   4.656   3.218 -0.6768 -0.6033  0.1073
 1370SOL     OW 5245   1.729   0.533   6.232  0.4882 -0.3429  0.4905
 1370SOL    HW2 5246   1.699   0.622   6.213  0.0108 -0.9140 -1.6770
 1370SOL    HW3 5247   1.672   0.503   6.303  0.0335  0.7424  0.6029
 1370SOL    MW4 5248   1.718   0.541   6.239  0.1260  0.1394 -0.2574
 1371SOL     OW 5249   5.124   3.052   0.514  0.5119  0.1140  0.3825
 1371SOL    HW2 5250   5.159   2.967   0.487 -0.6329  0.0755 -1.1206
 1371SOL    HW3 5251   5.115   3.101   0.432 -1.7172  0.5731  0.8365
 1371SOL    MW4 5252   5.128   3.047   0.500  0.1854 -0.1614  0.1211
 1372SOL     OW 5253   3.101   6.291   0.500  0.4546  0.4420 -0.3399
 1372SOL    HW2 5254   3.023   6.281   0.555  0.6602 -0.8849 -0.2503
 1372SOL    HW3 5255   3.172   6.306   0.562  0.3877  0.9209 -0.3761
 1372SOL    MW4 5256   3.100   6.292   0.516  0.0180 -0.1639  0.0617
 1373SOL     OW 5257   2.154   1.998   6.008  0.0512 -0.0610 -0.6441
 1373SOL    HW2 5258   2.128   1.945   5.933 -0.3396 -0.3512 -0.3091
 1373SOL    HW3 5259   2.181   1.933   6.074 -0.1074  0.1732 -0.3514
 1373SOL    MW4 5260   2.154   1.982   6.007 -0.3901  0.3114 -0.0251
 1374SOL     OW 5261   4.980   2.667   3.168  0.1142 -0.0844  0.7400
 1374SOL    HW2 5262   4.912   2.601   3.172 -0.1078  0.1988  2.0949
 1374SOL    HW3 5263   4.973   2.714   3.251  1.3989  0.5049  0.5396
 1374SOL    MW4 5264   4.970   2.665   3.180 -0.2914  0.1393  0.1052
 1375SOL     OW 5265   4.851   4.038   5.531  0.1138 -0.4127 -0.2290
 1375SOL    HW2 5266   4.879   4.027   5.440 -0.4363 -0.3826 -0.4069
 1375SOL    HW3 5267   4.775   4.095   5.525  0.5419  0.2328  0.3238
 1375SOL    MW4 5268   4.845   4.044   5.518 -0.6526 -0.0545  0.3809
 1376SOL     OW 5269   0.268   5.074   0.304  0.1365  0.1233  0.3374
 1376SOL    HW2 5270   0.200   5.045   0.244 -0.2198 -0.4244  0.9858
 1376SOL    HW3 5271   0.266   5.170   0.298 -1.3639  0.1688  1.0502
 1376SOL    MW4 5272   0.259   5.083   0.296  0.1197 -0.0405 -0.9491
 1377SOL     OW 5273   2.259   6.198   3.163 -0.8205  0.2223  0.0420
 1377SOL    HW2 5274   2.205   6.214   3.241 -0.1062  0.1357  0.5720
 1377SOL    HW3 5275   2.306   6.117   3.183 -2.7533 -1.4204 -1.6959
 1377SOL    MW4 5276   2.258   6.190   3.176 -0.4838  0.2902 -0.5436
 1378SOL     OW 5277   3.297   0.974   0.379  0.2618  0.4766  0.1331
 1378SOL    HW2 5278   3.373   0.918   0.364 -0.5764 -0.9740  1.0457
 1378SOL    HW3 5279   3.292   0.983   0.474  0.5797  2.4433 -0.0063
 1378SOL    MW4 5280   3.307   0.968   0.390 -0.4198  0.0857 -0.4482
 1379SOL     OW 5281   4.757   3.174   4.049  0.1224  0.5177 -0.3760
 1379SOL    HW2 5282   4.753   3.112   3.976 -0.5305  0.1842 -0.0668
 1379SOL    HW3 5283   4.803   3.127   4.118  0.8041  0.8594 -0.5936
 1379SOL    MW4 5284   4.762   3.159   4.049  0.1644  0.5099  0.3372
 1380SOL     OW 5285   5.760   1.320   4.432  0.2549 -0.5926 -0.4059
 1380SOL    HW2 5286   5.843   1.348   4.470 -0.5857 -0.7874  1.7853
 1380SOL    HW3 5287   5.763   1.224   4.433 -1.2335 -0.7576  3.0693
 1380SOL    MW4 5288   5.771   1.311   4.437 -0.0564 -0.3408  0.0884
 1381SOL     OW 5289   1.464   1.026   1.074 -1.3773  0.0672 -0.2947
 1381SOL    HW2 5290   1.496   1.028   0.983 -0.0895  1.3454  0.1398
 1381SOL    HW3 5291   1.379   1.071   1.070 -1.6895 -0.5596 -0.9729
 1381SOL    MW4 5292   1.457   1.032   1.061  0.1612  0.4501 -0.2050
 1382SOL     OW 5293   5.303   0.914   6.109 -0.0029  0.9178 -0.1262
 1382SOL    HW2 5294   5.349   0.891   6.029  0.5309  0.5709  0.2706
 1382SOL    HW3 5295   5.372   0.919   6.175 -0.5296  0.4221  0.4754
 1382SOL    MW4 5296   5.318   0.912   6.107 -0.3510 -0.3827 -0.2452
 1383SOL     OW 5297   3.969   3.014   4.918 -0.0294  0.0301 -0.5101
 1383SOL    HW2 5298   3.984   3.100   4.958 -0.6524  0.1639 -0.5627
 1383SOL    HW3 5299   3.876   3.013   4.897  0.1766 -0.2547 -1.4578
 1383SOL    MW4 5300   3.959   3.025   4.921 -0.3466 -0.7495  0.1849
 1384SOL     OW 5301   2.096   6.354   3.419 -0.4479 -0.1467 -0.3213
 1384SOL    HW2 5302   2.059   6.296   3.486 -2.6507 -1.1049 -2.2283
 1384SOL    HW3 5303   2.027   6.363   3.353  1.1607  1.7261 -1.9146
 1384SOL    MW4 5304   2.082   6.348   3.419 -0.0428 -0.0689  0.2968
 1385SOL     OW 5305   3.820   0.334   0.589  0.4070  0.5556 -0.3825
 1385SOL    HW2 5306   3.790   0.256   0.636 -0.1973  1.5288  0.9035
 1385SOL    HW3 5307   3.913   0.319   0.575  0.2983 -0.4029 -0.1777
 1385SOL    MW4 5308   3.828   0.322   0.593 -0.0729  0.2054 -0.2945
 1386SOL     OW 5309   5.217   1.015   5.739  0.4404  0.1764 -0.0628
 1386SOL    HW2 5310   5.269   0.974   5.670  0.9470  2.0400 -0.8343
 1386SOL    HW3 5311   5.139   0.960   5.745  0.2709  0.0786 -2.2802
 1386SOL    MW4 5312   5.214   1.002   5.731  0.3198  0.5371 -0.1283
 1387SOL     OW 5313   4.625   1.365   5.784  0.6630  0.1471 -0.5786
 1387SOL    HW2 5314   4.636   1.280   5.740  0.0947  0.4371 -1.2974
 1387SOL    HW3 5315   4.531   1.377   5.789  0.6355 -0.5933  2.1591
 1387SOL    MW4 5316   4.614   1.355   5.779 -0.0003 -0.1923 -0.5368
 1388SOL     OW 5317   5.571   3.981   4.891 -0.2020 -0.1066  0.0731
 1388SOL    HW2 5318   5.520   4.004   4.969  0.5669 -0.3425  0.6601
 1388SOL    HW3 5319   5.523   3.909   4.851 -1.7075  1.3372 -0.8290
 1388SOL    MW4 5320   5.558   3.974   4.896  0.4047  0.3925  0.1690
 1389SOL     OW 5321   3.702   2.571   2.110 -0.3193  0.2508 -0.0862
 1389SOL    HW2 5322   3.750   2.624   2.046 -1.4369  0.2960 -0.9199
 1389SOL    HW3 5323   3.768   2.512   2.147  0.1937 -0.4504 -2.0100
 1389SOL    MW4 5324   3.717   2.570   2.106  0.3445  0.4503  0.3379
 1390SOL     OW 5325   0.252   3.691   0.994  0.2456  0.5966  0.2553
 1390SOL    HW2 5326   0.251   3.750   1.069 -0.6742 -0.2256  0.9171
 1390SOL    HW3 5327   0.159   3.676   0.974  0.4159 -1.5431  0.8577
 1390SOL    MW4 5328   0.240   3.697   1.001  0.2247  0.1730  0.0805
 1391SOL     OW 5329   4.012   4.728   0.858 -0.0758 -0.2087  0.2771
 1391SOL    HW2 5330   4.092   4.733   0.911  0.6946 -0.2938 -0.8532
 1391SOL    HW3 5331   4.009   4.637   0.828  0.6493  0.3077 -1.5235
 1391SOL    MW4 5332   4.022   4.717   0.861  0.5921  0.2042 -0.4839
 1392SOL     OW 5333   3.009   1.714   4.807  0.0904  0.1450  0.0951
 1392SOL    HW2 5334   3.011   1.619   4.813 -0.1884  0.1388  0.0691
 1392SOL    HW3 5335   3.042   1.733   4.719 -0.3041  0.0539 -0.0725
 1392SOL    MW4 5336   3.014   1.704   4.796 -0.4357 -0.0553 -0.7086
 1393SOL     OW 5337   5.756   1.042   2.458  0.1390  0.6799  1.2220
 1393SOL    HW2 5338   5.707   1.005   2.384 -0.5432  3.3139  0.2346
 1393SOL    HW3 5339   5.827   0.979   2.474  0.1996 -0.0961 -1.5657
 1393SOL    MW4 5340   5.759   1.029   2.450 -0.2048  0.1319 -0.5877
 1394SOL     OW 5341   2.984   0.743   3.713  0.2932 -0.4381 -0.3111
 1394SOL    HW2 5342   3.001   0.653   3.685  3.8799  0.0483 -0.1653
 1394SOL    HW3 5343   3.071   0.782   3.723 -1.1027  3.1821 -0.7119
 1394SOL    MW4 5344   2.998   0.737   3.710  0.4401  0.6391 -0.0542
 1395SOL     OW 5345   2.618   5.993   2.969  0.3070 -0.0710 -0.0317
 1395SOL    HW2 5346   2.572   6.075   2.987  0.0653 -0.4866  1.3567
 1395SOL    HW3 5347   2.677   5.981   3.043  2.3497  0.1954 -1.5401
 1395SOL    MW4 5348   2.620   6.002   2.981 -0.0075 -0.1085  0.6618
 1396SOL     OW 5349   0.085   5.936   2.513 -0.4777  0.2174 -0.7490
 1396SOL    HW2 5350   0.034   5.993   2.456  0.2380  0.2378 -1.3761
 1396SOL    HW3 5351   0.043   5.945   2.599 -1.7011  0.0167 -1.3018
 1396SOL    MW4 5352   0.073   5.945   2.517  0.0135  0.0574 -0.2691
 1397SOL     OW 5353   3.679   4.442   2.573  0.5788 -0.6084  0.1901
 1397SOL    HW2 5354   3.674   4.499   2.650  0.1474  0.0145 -0.2851
 1397SOL    HW3 5355   3.639   4.494   2.503  0.2760 -1.4594 -0.2776
 1397SOL    MW4 5356   3.673   4.456   2.574 -0.7268  0.3002 -0.5979
 1398SOL     OW 5357   1.221   0.191   4.502  0.0815  0.2259  0.1389
 1398SOL    HW2 5358   1.132   0.222   4.521 -1.0821 -1.8991 -1.3989
 1398SOL    HW3 5359   1.251   0.151   4.584 -1.3357 -1.1008  0.0380
 1398SOL    MW4 5360   1.213   0.190   4.516  0.3852 -0.6888 -0.3071
 1399SOL     OW 5361   5.947   2.343   1.570  0.3461 -0.3621  0.1214
 1399SOL    HW2 5362   6.033   2.379   1.550  0.1405  0.3486  0.4796
 1399SOL    HW3 5363   5.887   2.389   1.512  0.3561 -1.8870 -1.1751
 1399SOL    MW4 5364   5.950   2.354   1.560  0.0524  0.1746  0.6009
 1400SOL     OW 5365   3.668   0.291   4.035  0.5335  0.0687  0.5840
 1400SOL    HW2 5366   3.752   0.313   4.075  0.3802  0.5482  0.6387
 1400SOL    HW3 5367   3.690   0.227   3.967  1.3155  2.1906 -1.2816
 1400SOL    MW4 5368   3.682   0.285   4.032  0.0895  0.8942  0.2131
 1401SOL     OW 5369   0.648   4.085   5.010 -0.8570 -0.3174 -0.3093
 1401SOL    HW2 5370   0.637   3.999   5.051 -0.4733 -1.1713 -1.8839
 1401SOL    HW3 5371   0.577   4.090   4.946 -0.0195 -0.1028 -1.2468
 1401SOL    MW4 5372   0.637   4.074   5.007 -0.5751  0.5165 -0.2713
 1402SOL     OW 5373   3.002   0.264   1.268 -0.5681 -0.2910 -0.2032
 1402SOL    HW2 5374   3.008   0.205   1.343 -1.3604 -0.9018 -0.6091
 1402SOL    HW3 5375   3.074   0.237   1.211  0.2910  0.4398  0.4970
 1402SOL    MW4 5376   3.013   0.253   1.270 -0.9397 -0.6075 -0.1780
 1403SOL     OW 5377   4.884   3.756   5.196 -0.2339  0.3775  0.3137
 1403SOL    HW2 5378   4.838   3.707   5.265 -1.9018  0.9994 -0.2996
 1403SOL    HW3 5379   4.885   3.697   5.121 -0.3906  0.5049  0.2095
 1403SOL    MW4 5380   4.878   3.742   5.195  0.1951  0.3638  0.1798
 1404SOL     OW 5381   2.281   0.962   5.295  0.6139 -0.1412 -0.7539
 1404SOL    HW2 5382   2.244   0.980   5.209 -0.3623 -0.4954 -0.4160
 1404SOL    HW3 5383   2.330   1.042   5.317 -2.2940  1.5973  0.0158
 1404SOL    MW4 5384   2.283   0.975   5.287 -0.0886 -0.2838 -0.2580
 1405SOL     OW 5385   5.017   5.095   0.581  0.1007  0.4048  0.2637
 1405SOL    HW2 5386   4.997   5.049   0.662  0.7004 -1.2347 -0.4786
 1405SOL    HW3 5387   5.097   5.054   0.549 -0.5732  0.4357 -1.5829
 1405SOL    MW4 5388   5.025   5.084   0.587 -0.0147  0.0152  0.2682
 1406SOL     OW 5389   2.818   4.703   4.447 -0.0536  0.1872  0.2751
 1406SOL    HW2 5390   2.735   4.656   4.448  0.5111 -0.8857  1.6806
 1406SOL    HW3 5391   2.866   4.666   4.373 -1.1982  1.5895 -1.2313
 1406SOL    MW4 5392   2.814   4.692   4.438 -0.4172 -0.1707 -0.0227
 1407SOL     OW 5393   2.821   5.859   5.585 -0.1162  0.0977 -0.3277
 1407SOL    HW2 5394   2.755   5.805   5.541  1.2636 -0.3908 -1.8846
 1407SOL    HW3 5395   2.876   5.797   5.631  0.4991  0.3063 -0.7715
 1407SOL    MW4 5396   2.819   5.844   5.585  0.2245  0.0981  0.4980
 1408SOL     OW 5397   2.859   0.700   0.823  0.4875 -0.2759 -0.3183
 1408SOL    HW2 5398   2.949   0.728   0.805  0.3542  1.0039  0.8463
 1408SOL    HW3 5399   2.864   0.604   0.826  2.1882 -0.2031  1.4041
 1408SOL    MW4 5400   2.872   0.691   0.821  0.0108 -0.4228 -0.5071
 1409SOL     OW 5401   4.631   1.654   3.165 -0.1694 -0.0799  0.0002
 1409SOL    HW2 5402   4.591   1.662   3.079  1.4022 -0.9359 -0.8505
 1409SOL    HW3 5403   4.583   1.583   3.208 -1.7574  1.1446  0.3476
 1409SOL    MW4 5404   4.619   1.646   3.160 -0.1887  0.0360  0.6116
 1410SOL     OW 5405   6.193   4.862   3.308  0.2348 -0.0909 -0.1214
 1410SOL    HW2 5406   6.127   4.885   3.373  2.1977  0.4895  1.7776
 1410SOL    HW3 5407   6.221   4.774   3.333  2.7941  1.0793  1.5231
 1410SOL    MW4 5408   6.188   4.853   3.320 -0.5479  0.0818  0.1612
 1411SOL     OW 5409   3.980   6.180   0.257 -0.4768  0.1528  0.3230
 1411SOL    HW2 5410   4.044   6.183   0.327 -0.6491  0.5148  0.4685
 1411SOL    HW3 5411   3.987   6.091   0.221  0.1604  0.2153  0.2802
 1411SOL    MW4 5412   3.989   6.168   0.261 -0.0764  1.1348 -0.6869
 1412SOL     OW 5413   3.117   1.814   4.554 -0.0347  0.5300 -0.8046
 1412SOL    HW2 5414   3.077   1.761   4.485 -0.6309 -1.2698  0.8738
 1412SOL    HW3 5415   3.081   1.902   4.539  0.5780  0.4499 -3.3242
 1412SOL    MW4 5416   3.107   1.819   4.543 -0.5750 -0.2928 -0.1873
 1413SOL     OW 5417   4.094   3.778   5.855  0.5316 -0.0589  0.0477
 1413SOL    HW2 5418   4.129   3.776   5.766 -0.3969  0.5379 -0.3508
 1413SOL    HW3 5419   4.049   3.862   5.861 -2.0938 -1.3631 -0.0104
 1413SOL    MW4 5420   4.093   3.788   5.844 -0.1488  0.0915  0.1675
 1414SOL     OW 5421   3.253   4.791   6.411  0.9414  0.0689 -0.1500
 1414SOL    HW2 5422   3.331   4.794   6.467  0.5985  0.2435  0.3172
 1414SOL    HW3 5423   3.198   4.723   6.449  0.7980  0.0444 -0.3971
 1414SOL    MW4 5424   3.256   4.783   6.423  0.0667  0.2056  0.1485
 1415SOL     OW 5425   1.625   5.039   6.177 -0.4798 -0.3617  0.4534
 1415SOL    HW2 5426   1.564   4.976   6.216 -0.8016 -1.0430 -1.1041
 1415SOL    HW3 5427   1.569   5.100   6.130 -0.0295 -0.3331 -0.0531
 1415SOL    MW4 5428   1.610   5.039   6.176  0.4991 -0.2318 -0.5543
 1416SOL     OW 5429   4.492   4.362   2.034  0.4234  0.0301  0.0461
 1416SOL    HW2 5430   4.568   4.309   2.059  0.9328  1.0738  0.7979
 1416SOL    HW3 5431   4.524   4.453   2.039 -0.4068  0.4171 -1.2614
 1416SOL    MW4 5432   4.506   4.367   2.038 -0.1972  0.3574 -0.5026
 1417SOL     OW 5433   3.583   5.415   3.231  0.1207 -0.8124 -0.1043
 1417SOL    HW2 5434   3.514   5.381   3.288 -1.7410  2.4834 -0.1580
 1417SOL    HW3 5435   3.637   5.468   3.289 -0.6610  1.0138 -0.9813
 1417SOL    MW4 5436   3.581   5.417   3.246 -0.3262  0.1525 -0.1307
 1418SOL     OW 5437   1.515   0.663   5.396  0.6403 -0.6838 -0.3353
 1418SOL    HW2 5438   1.596   0.642   5.348  0.6706 -0.2407 -0.4832
 1418SOL    HW3 5439   1.506   0.758   5.387 -0.4445 -0.8513 -1.1747
 1418SOL    MW4 5440   1.525   0.673   5.389 -0.1217  0.3102  0.1939
 1419SOL     OW 5441   5.781   6.237   5.552 -0.3673  0.3810 -0.0675
 1419SOL    HW2 5442   5.698   6.191   5.536 -0.9642  1.2749  0.3389
 1419SOL    HW3 5443   5.756   6.330   5.555  0.6861  0.6739 -0.1364
 1419SOL    MW4 5444   5.767   6.243   5.551  0.5008 -0.9826 -0.3522
 1420SOL     OW 5445   2.943   5.348   1.430  0.6549  0.2145 -0.1579
 1420SOL    HW2 5446   2.925   5.413   1.362 -1.0397 -0.4625 -0.4010
 1420SOL    HW3 5447   2.932   5.396   1.513  0.0028  0.3928 -0.3412
 1420SOL    MW4 5448   2.939   5.363   1.432 -0.2499  0.8441  0.5811
 1421SOL     OW 5449   4.862   4.880   0.461 -0.5819  0.1733  0.0852
 1421SOL    HW2 5450   4.908   4.956   0.498  0.9822 -1.2857  1.3334
 1421SOL    HW3 5451   4.771   4.892   0.488  0.0706  0.4114  2.4109
 1421SOL    MW4 5452   4.856   4.892   0.470  0.3489  0.0953  0.5058
 1422SOL     OW 5453   3.582   2.273   5.338 -0.1978  0.0905 -0.0914
 1422SOL    HW2 5454   3.641   2.260   5.413 -0.4899 -0.3028  0.0786
 1422SOL    HW3 5455   3.514   2.206   5.350 -0.5538  0.3914 -0.4064
 1422SOL    MW4 5456   3.581   2.262   5.350  0.2500  0.1334 -0.2839
 1423SOL     OW 5457   4.318   4.352   5.322 -0.0061  0.4869 -0.8141
 1423SOL    HW2 5458   4.334   4.440   5.289  2.5683  0.3546 -0.1053
 1423SOL    HW3 5459   4.328   4.359   5.417 -0.7267 -0.4112 -0.6558
 1423SOL    MW4 5460   4.321   4.364   5.330  0.1573  0.5660 -0.5311
 1424SOL     OW 5461   4.276   1.195   2.924 -0.5591 -0.6729  0.0103
 1424SOL    HW2 5462   4.355   1.143   2.938 -0.4793 -0.4774  0.3102
 1424SOL    HW3 5463   4.300   1.283   2.954 -0.6231 -0.4130 -0.6869
 1424SOL    MW4 5464   4.290   1.200   2.930  0.0404 -0.0585 -0.4067
 1425SOL     OW 5465   3.485   6.162   2.298 -0.3473  0.5016 -0.0388
 1425SOL    HW2 5466   3.473   6.070   2.274  2.5158  0.3896 -1.4652
 1425SOL    HW3 5467   3.396   6.197   2.305 -1.5341 -2.5221  1.3562
 1425SOL    MW4 5468   3.472   6.155   2.296 -0.2030 -0.6330  0.1311
 1426SOL     OW 5469   1.082   1.693   0.784 -0.4248  0.1858 -0.1667
 1426SOL    HW2 5470   1.011   1.640   0.820  1.2412 -0.6299  2.1640
 1426SOL    HW3 5471   1.054   1.783   0.798 -0.7437 -0.1215  1.3779
 1426SOL    MW4 5472   1.069   1.698   0.791 -0.2762  0.1231  0.1115
 1427SOL     OW 5473   0.394   4.757   3.583 -0.6233 -0.2863 -0.1196
 1427SOL    HW2 5474   0.385   4.851   3.567  0.9462 -0.3986 -2.0276
 1427SOL    HW3 5475   0.329   4.738   3.651 -0.6136  2.2446  0.6863
 1427SOL    MW4 5476   0.384   4.766   3.590 -0.4279 -0.0610  0.4920
 1428SOL     OW 5477   0.391   5.777   0.050  0.2034  0.5449  1.0480
 1428SOL    HW2 5478   0.302   5.790   0.081 -0.9840  1.4247 -2.2826
 1428SOL    HW3 5479   0.432   5.721   0.117 -2.6471  0.4955  2.9298
 1428SOL    MW4 5480   0.385   5.771   0.063 -0.0394 -0.0809 -0.3962
 1429SOL     OW 5481   5.936   4.262   4.878  0.3006 -0.1207 -0.0955
 1429SOL    HW2 5482   5.862   4.322   4.875  0.9245  0.6210 -1.1406
 1429SOL    HW3 5483   6.013   4.319   4.878  0.9030 -0.8999 -1.2135
 1429SOL    MW4 5484   5.936   4.277   4.878  0.4857  0.2849 -0.0397
 1430SOL     OW 5485   0.639   4.912   2.976  0.0362  0.3244  0.7425
 1430SOL    HW2 5486   0.729   4.942   2.963  0.7224 -2.2464 -1.1214
 1430SOL    HW3 5487   0.587   4.992   2.974  2.0802  1.7130 -0.1097
 1430SOL    MW4 5488   0.644   4.926   2.974 -0.3417 -0.3423 -0.0273
 1431SOL     OW 5489   3.381   5.113   0.651 -0.2086 -0.1232 -0.1566
 1431SOL    HW2 5490   3.292   5.131   0.682 -0.5099 -1.7397 -0.0158
 1431SOL    HW3 5491   3.433   5.185   0.686 -0.8709 -0.8687  2.5808
 1431SOL    MW4 5492   3.376   5.125   0.660 -0.1048 -0.1586 -0.0369
 1432SOL     OW 5493   1.514   2.646   5.857 -0.7054  0.1716  0.6896
 1432SOL    HW2 5494   1.516   2.551   5.868  0.2713  0.1041  0.0151
 1432SOL    HW3 5495   1.476   2.679   5.939 -1.3082 -0.8088  0.8192
 1432SOL    MW4 5496   1.509   2.638   5.869  0.0918 -0.1320 -0.3754
 1433SOL     OW 5497   4.021   6.461   3.758  0.0404  0.0668  0.0574
 1433SOL    HW2 5498   4.021   6.477   3.663  0.5987  1.4210  0.2565
 1433SOL    HW3 5499   4.045   6.546   3.796  0.1252 -0.5385  1.3988
 1433SOL    MW4 5500   4.024   6.474   3.750  0.2720 -0.4519 -0.0209
 1434SOL     OW 5501   3.079   6.420   3.550  0.1904  0.2804  0.0961
 1434SOL    HW2 5502   3.098   6.505   3.589  0.2239  0.5133 -0.4197
 1434SOL    HW3 5503   3.148   6.408   3.485  1.2348 -0.9354  1.3550
 1434SOL    MW4 5504   3.091   6.430   3.547 -0.2076  0.3406 -0.4055
 1435SOL     OW 5505   5.787   2.989   0.288  0.3069 -0.5938  0.7793
 1435SOL    HW2 5506   5.820   3.054   0.351 -0.6424 -0.4180  1.1066
 1435SOL    HW3 5507   5.756   2.917   0.343 -0.0160 -0.6788  0.4855
 1435SOL    MW4 5508   5.787   2.988   0.304 -0.3520  0.1518  0.0754
 1436SOL     OW 5509   5.215   2.932   1.166 -0.2164 -0.2047 -0.1456
 1436SOL    HW2 5510   5.127   2.945   1.200 -0.3752  0.8510 -0.9191
 1436SOL    HW3 5511   5.240   3.017   1.130  0.7450 -0.7372 -0.7824
 1436SOL    MW4 5512   5.207   2.945   1.166  0.5144  0.3403  1.2501
 1437SOL     OW 5513   3.063   3.339   3.303  0.0190  0.3442  0.3458
 1437SOL    HW2 5514   3.085   3.246   3.306 -0.8867  0.1589  1.7237
 1437SOL    HW3 5515   3.129   3.381   3.358  0.1092  0.4636  0.1498
 1437SOL    MW4 5516   3.075   3.332   3.310 -0.3680 -0.0612  0.5703
 1438SOL     OW 5517   1.569   6.108   0.692 -0.7177 -0.3014 -0.1729
 1438SOL    HW2 5518   1.490   6.081   0.739  0.0167 -2.0981  0.1276
 1438SOL    HW3 5519   1.631   6.036   0.706  1.8308  2.0240  1.5320
 1438SOL    MW4 5520   1.567   6.095   0.700 -0.4415 -0.1013  0.3394
 1439SOL     OW 5521   1.032   4.609   0.933 -0.0106  0.0002 -0.1898
 1439SOL    HW2 5522   1.033   4.659   0.851 -2.7584  1.2497  0.4446
 1439SOL    HW3 5523   0.962   4.545   0.920 -0.0522 -0.1972  0.9741
 1439SOL    MW4 5524   1.023   4.607   0.920 -0.3049 -0.7063  0.4409
 1440SOL     OW 5525   3.807   6.144   2.455  0.3363 -0.7644 -0.1172
 1440SOL    HW2 5526   3.758   6.144   2.537 -0.6721 -0.3487 -0.6956
 1440SOL    HW3 5527   3.774   6.221   2.408  2.7754  0.5425  0.1800
 1440SOL    MW4 5528   3.796   6.154   2.460  0.9781  0.7824 -0.5997
 1441SOL     OW 5529   5.029   5.972   3.031  0.4377  0.0438  0.1552
 1441SOL    HW2 5530   4.952   5.994   3.084  2.0247  1.2396  2.1188
 1441SOL    HW3 5531   5.077   5.908   3.084  1.9759  1.1097  0.1265
 1441SOL    MW4 5532   5.025   5.966   3.045  0.2134 -0.1324  0.6391
 1442SOL     OW 5533   4.330   5.469   2.591  0.5535  0.7097  0.4944
 1442SOL    HW2 5534   4.277   5.509   2.661  0.3194 -0.5247  1.0581
 1442SOL    HW3 5535   4.347   5.380   2.623 -0.5976 -0.3069 -1.5570
 1442SOL    MW4 5536   4.325   5.462   2.605  0.1146 -0.3262  0.3278
 1443SOL     OW 5537   4.261   3.857   3.470 -0.2338 -0.5910 -0.2386
 1443SOL    HW2 5538   4.310   3.804   3.534  1.2385  1.2945  0.3002
 1443SOL    HW3 5539   4.268   3.808   3.388  3.0943 -0.2388 -0.3134
 1443SOL    MW4 5540   4.269   3.843   3.468  0.3023  0.0691 -0.2584
 1444SOL     OW 5541   1.007   1.969   0.478 -0.9952  0.0455 -0.6398
 1444SOL    HW2 5542   0.952   1.908   0.527  0.7138 -0.8558  0.2514
 1444SOL    HW3 5543   0.955   2.049   0.471 -2.2638 -0.6435  0.4529
 1444SOL    MW4 5544   0.993   1.971   0.483  0.5472  0.0023  0.4444
 1445SOL     OW 5545   3.724   5.085   5.228  0.3298 -0.5022  0.2761
 1445SOL    HW2 5546   3.737   5.021   5.298  1.8428 -1.0542 -0.4733
 1445SOL    HW3 5547   3.782   5.057   5.158  0.4202  1.2256 -0.4069
 1445SOL    MW4 5548   3.733   5.073   5.228 -0.1334 -0.5688  0.4688
 1446SOL     OW 5549   2.986   5.701   3.073 -0.1497  0.0481 -0.4659
 1446SOL    HW2 5550   3.011   5.667   2.987 -1.0243 -0.6087 -0.4757
 1446SOL    HW3 5551   2.897   5.668   3.087 -0.9366  2.0676 -0.3215
 1446SOL    MW4 5552   2.978   5.692   3.064 -0.4062 -0.3205 -0.1586
 1447SOL     OW 5553   4.935   6.081   1.299  0.0821 -0.7472 -0.0215
 1447SOL    HW2 5554   4.863   6.037   1.254 -0.6778  1.4975 -1.1527
 1447SOL    HW3 5555   4.893   6.151   1.350  1.1585 -1.7238  2.3695
 1447SOL    MW4 5556   4.920   6.085   1.300 -0.2935  0.1992 -0.3583
 1448SOL     OW 5557   1.878   4.334   4.483 -0.3834 -0.1064 -0.0615
 1448SOL    HW2 5558   1.958   4.383   4.498 -0.5068  1.4395 -3.4929
 1448SOL    HW3 5559   1.908   4.249   4.451 -0.1360 -0.0458  0.0085
 1448SOL    MW4 5560   1.892   4.329   4.481  0.4227  0.0758 -0.4196
 1449SOL     OW 5561   1.630   0.789   6.186 -0.4562 -0.0652 -0.0675
 1449SOL    HW2 5562   1.542   0.774   6.150 -0.0039 -0.2189 -1.1807
 1449SOL    HW3 5563   1.615   0.820   6.275 -1.6817  1.2767 -0.6996
 1449SOL    MW4 5564   1.616   0.791   6.193 -0.2686 -0.2100 -0.1949
 1450SOL     OW 5565   5.934   1.286   5.936 -0.4594 -0.4316  0.6212
 1450SOL    HW2 5566   5.864   1.236   5.979  0.6269 -2.3072  0.2933
 1450SOL    HW3 5567   5.952   1.358   5.997 -2.6370  0.1101  0.7198
 1450SOL    MW4 5568   5.927   1.289   5.950 -0.0723 -0.1994 -0.3607
 1451SOL     OW 5569   5.453   3.422   1.902  0.6060 -0.0910  0.3101
 1451SOL    HW2 5570   5.426   3.511   1.881 -2.0543 -0.0861  3.0191
 1451SOL    HW3 5571   5.529   3.432   1.959  1.3814  0.2965 -0.7505
 1451SOL    MW4 5572   5.459   3.435   1.907 -0.1121  0.4319 -0.2047
 1452SOL     OW 5573   1.886   5.153   5.260  0.6207  0.1151 -0.4735
 1452SOL    HW2 5574   1.874   5.068   5.218 -0.5163 -0.6640  1.3231
 1452SOL    HW3 5575   1.980   5.157   5.280  0.5292 -1.1508  0.2770
 1452SOL    MW4 5576   1.897   5.142   5.257 -0.4654  0.7968 -0.6367
 1453SOL     OW 5577   1.271   5.308   2.063  0.6158 -0.2217  0.7704
 1453SOL    HW2 5578   1.355   5.329   2.023  0.4974 -0.2503  0.5024
 1453SOL    HW3 5579   1.292   5.286   2.154  0.8273  0.3383  0.8593
 1453SOL    MW4 5580   1.285   5.308   2.070 -0.1249  0.5595 -0.0474
 1454SOL     OW 5581   3.098   3.983   2.399  0.2838 -0.2703  0.1325
 1454SOL    HW2 5582   3.081   4.043   2.471 -0.6299  0.0934 -0.3759
 1454SOL    HW3 5583   3.074   3.897   2.434  0.0674 -0.1252  0.3460
 1454SOL    MW4 5584   3.092   3.979   2.413  0.3111  0.1265  0.0654
 1455SOL     OW 5585   1.196   4.090   4.543  0.8853 -0.5226 -0.1051
 1455SOL    HW2 5586   1.199   4.186   4.543  0.1496 -0.4295 -2.5837
 1455SOL    HW3 5587   1.253   4.065   4.470  2.2808 -2.0806  1.4487
 1455SOL    MW4 5588   1.204   4.100   4.533  0.1035  0.1396  0.6289
 1456SOL     OW 5589   5.393   3.537   5.517  0.6634 -0.1231 -0.2628
 1456SOL    HW2 5590   5.431   3.525   5.604 -1.4846 -0.4406  0.7041
 1456SOL    HW3 5591   5.446   3.605   5.476  1.4200  0.3908  1.4902
 1456SOL    MW4 5592   5.405   3.544   5.523  0.1628  0.0502  0.1013
 1457SOL     OW 5593   1.852   4.204   2.111  0.0555 -0.1415  0.2997
 1457SOL    HW2 5594   1.789   4.239   2.174  0.2967 -1.3396  1.2235
 1457SOL    HW3 5595   1.935   4.245   2.135 -0.3497  1.5742 -1.0266
 1457SOL    MW4 5596   1.855   4.214   2.122  0.6093  0.3716  0.2338
 1458SOL     OW 5597   2.856   4.025   0.140 -0.2262 -0.1066 -0.3072
 1458SOL    HW2 5598   2.914   3.957   0.105 -0.1048  0.3724 -1.0836
 1458SOL    HW3 5599   2.901   4.056   0.219 -0.2517 -0.8748  0.0141
 1458SOL    MW4 5600   2.870   4.020   0.146  0.2049  0.2701  0.3610
 1459SOL     OW 5601   3.432   4.475   3.763 -0.0301  0.1816  0.1878
 1459SOL    HW2 5602   3.427   4.480   3.859  2.0853  0.7505  0.3111
 1459SOL    HW3 5603   3.484   4.551   3.737  1.6080 -1.3057 -1.1547
 1459SOL    MW4 5604   3.438   4.485   3.772  0.2423  0.2627 -0.5725
 1460SOL     OW 5605   5.883   0.145   1.486  0.2050  0.0517 -0.5860
 1460SOL    HW2 5606   5.926   0.229   1.499 -0.1464  0.2075 -0.4313
 1460SOL    HW3 5607   5.802   0.151   1.537  0.3427 -0.5039 -0.2959
 1460SOL    MW4 5608   5.878   0.157   1.495 -0.0313 -0.2227  0.1636
 1461SOL     OW 5609   6.338   1.323   1.292 -0.0393  0.2371  0.2344
 1461SOL    HW2 5610   6.425   1.320   1.250  1.1964  3.6296  2.1408
 1461SOL    HW3 5611   6.276   1.321   1.219  1.5889 -1.7786 -1.2202
 1461SOL    MW4 5612   6.342   1.322   1.276 -0.1324  0.0173 -0.2185
 1462SOL     OW 5613   2.630   1.552   2.207 -0.5468  0.2168 -0.4728
 1462SOL    HW2 5614   2.658   1.632   2.250 -0.3492  0.1407 -0.4582
 1462SOL    HW3 5615   2.710   1.499   2.200 -0.7590 -0.1695 -0.0635
 1462SOL    MW4 5616   2.644   1.555   2.212  0.1765  0.1974 -0.0264
 1463SOL     OW 5617   2.473   0.173   2.170 -0.3512  0.8229  0.6106
 1463SOL    HW2 5618   2.455   0.246   2.229 -1.3285 -0.0337  1.3982
 1463SOL    HW3 5619   2.393   0.121   2.170  0.3599 -0.3140  0.1489
 1463SOL    MW4 5620   2.460   0.176   2.177 -0.3879 -1.1262  0.4935
 1464SOL     OW 5621   6.258   5.470   3.196 -0.2297 -0.6719 -0.3883
 1464SOL    HW2 5622   6.243   5.564   3.203  1.7549 -0.1588 -1.9902
 1464SOL    HW3 5623   6.251   5.438   3.286  0.6128  1.2850  0.4375
 1464SOL    MW4 5624   6.255   5.478   3.209  0.7668 -0.7045 -0.0802
 1465SOL     OW 5625   4.968   5.237   1.555 -0.3881 -0.2533  0.1821
 1465SOL    HW2 5626   4.964   5.307   1.620  0.1913 -0.5774  0.5698
 1465SOL    HW3 5627   4.969   5.156   1.606 -1.5000 -0.5799 -0.2720
 1465SOL    MW4 5628   4.968   5.236   1.570 -0.2850  0.1514 -1.0121
 1466SOL     OW 5629   5.304   2.881   3.354  0.6624  0.2071 -0.0938
 1466SOL    HW2 5630   5.295   2.877   3.259  1.1283  0.6408 -0.1592
 1466SOL    HW3 5631   5.287   2.792   3.384 -0.8885  0.3484 -0.4532
 1466SOL    MW4 5632   5.300   2.869   3.345  0.2173  0.0670 -0.2609
 1467SOL     OW 5633   2.516   0.751   4.049  0.1679 -0.1405  0.0481
 1467SOL    HW2 5634   2.550   0.834   4.015  0.5883 -0.1663  0.3875
 1467SOL    HW3 5635   2.578   0.685   4.017  0.3319 -0.2129  0.4970
 1467SOL    MW4 5636   2.529   0.753   4.040 -0.1230 -0.0289 -0.5921
 1468SOL     OW 5637   5.368   3.206   5.877  0.2728 -0.6545  0.8134
 1468SOL    HW2 5638   5.359   3.112   5.887  1.8183 -1.1223 -1.4017
 1468SOL    HW3 5639   5.461   3.223   5.888  0.1015  0.5384  0.6254
 1468SOL    MW4 5640   5.379   3.196   5.880 -0.1902 -0.3083 -0.0518
 1469SOL     OW 5641   1.898   4.887   5.110 -0.1583 -0.2728 -0.3641
 1469SOL    HW2 5642   1.829   4.844   5.160 -1.4526 -0.6631 -2.3660
 1469SOL    HW3 5643   1.976   4.880   5.166 -1.4401 -0.8650  1.4513
 1469SOL    MW4 5644   1.899   4.881   5.124  0.4268 -0.2443  0.2216
 1470SOL     OW 5645   4.053   1.400   0.340  0.3148 -0.2549  0.0199
 1470SOL    HW2 5646   4.076   1.327   0.282  1.3063 -0.7985  1.0561
 1470SOL    HW3 5647   4.136   1.444   0.356 -0.2696  1.0898 -0.5413
 1470SOL    MW4 5648   4.067   1.396   0.334 -0.0823 -0.0845 -0.2602
 1471SOL     OW 5649   5.147   0.975   0.258 -0.1304  0.1427  0.3476
 1471SOL    HW2 5650   5.123   0.924   0.335  1.4331  1.3944  1.7305
 1471SOL    HW3 5651   5.066   1.021   0.233 -0.9870 -1.2962  0.3848
 1471SOL    MW4 5652   5.133   0.974   0.265 -0.9338  0.1098  0.5781
 1472SOL     OW 5653   2.664   5.177   5.940 -0.8014 -0.0438  0.5024
 1472SOL    HW2 5654   2.607   5.118   5.989 -2.0532  0.5719 -0.1540
 1472SOL    HW3 5655   2.681   5.250   5.999 -2.2080  0.6419  0.0883
 1472SOL    MW4 5656   2.659   5.179   5.954 -0.0239 -0.4634  0.1844
 1473SOL     OW 5657   6.082   0.581   5.155  0.3928  0.4072 -0.1626
 1473SOL    HW2 5658   6.014   0.601   5.090 -0.1362 -1.8262 -0.3766
 1473SOL    HW3 5659   6.035   0.539   5.227  1.5159 -1.1217 -0.2830
 1473SOL    MW4 5660   6.067   0.578   5.156  0.4478  0.6902 -0.6683
 1474SOL     OW 5661   4.536   0.412   3.071  0.5169 -0.1098  0.0835
 1474SOL    HW2 5662   4.628   0.431   3.088  1.1535 -1.3570 -1.7321
 1474SOL    HW3 5663   4.533   0.382   2.981 -1.6013 -0.6483  0.2704
 1474SOL    MW4 5664   4.548   0.411   3.061  0.1224  0.2328 -0.0617
 1475SOL     OW 5665   1.207   1.671   5.969  0.0338 -0.3244  0.1705
 1475SOL    HW2 5666   1.276   1.689   5.905  0.2160 -1.2222  0.1078
 1475SOL    HW3 5667   1.128   1.659   5.916 -0.0560  0.0944  0.2021
 1475SOL    MW4 5668   1.206   1.672   5.953 -0.5672  0.5529  0.3762
 1476SOL     OW 5669   1.140   5.866   4.120  0.5843 -0.5527 -0.3594
 1476SOL    HW2 5670   1.049   5.873   4.090 -0.5305  2.2798  3.0222
 1476SOL    HW3 5671   1.134   5.829   4.208  2.3772  1.7551  0.8529
 1476SOL    MW4 5672   1.127   5.862   4.128  0.6799  0.2828 -0.4940
 1477SOL     OW 5673   3.535   5.638   1.372 -0.1189 -0.2253 -0.0539
 1477SOL    HW2 5674   3.540   5.702   1.443 -0.3988  0.3181 -0.5098
 1477SOL    HW3 5675   3.620   5.595   1.372 -0.5453 -1.1175  1.4097
 1477SOL    MW4 5676   3.547   5.641   1.381 -0.0033 -0.4445  0.6791
 1478SOL     OW 5677   1.289   2.874   3.428 -0.2553 -0.4235 -0.1573
 1478SOL    HW2 5678   1.293   2.894   3.521 -0.5003 -3.3328  0.5687
 1478SOL    HW3 5679   1.378   2.845   3.406 -0.4322 -0.6570 -0.5889
 1478SOL    MW4 5680   1.302   2.873   3.437 -0.3137 -0.7799  0.1790
 1479SOL     OW 5681   0.664   4.552   6.409 -0.0994 -0.0543 -0.3179
 1479SOL    HW2 5682   0.630   4.638   6.383 -0.2685 -0.2067 -0.6106
 1479SOL    HW3 5683   0.683   4.508   6.326  0.8580  0.0411 -0.1566
 1479SOL    MW4 5684   0.662   4.557   6.395 -0.5487  0.6933  0.1274
 1480SOL     OW 5685   2.814   2.260   3.746  0.6190  0.3600 -0.1716
 1480SOL    HW2 5686   2.745   2.269   3.811  1.1046  2.3180  0.1303
 1480SOL    HW3 5687   2.889   2.223   3.794  0.1626 -0.6830 -0.2430
 1480SOL    MW4 5688   2.815   2.256   3.761 -0.0773  0.1737  0.8754
 1481SOL     OW 5689   2.746   2.605   0.833  0.0498  0.2314  0.5514
 1481SOL    HW2 5690   2.817   2.577   0.891  2.4486  0.8016 -1.9180
 1481SOL    HW3 5691   2.719   2.524   0.789  0.1488  0.2505  0.4568
 1481SOL    MW4 5692   2.752   2.590   0.835 -0.0134 -0.0154 -0.9063
 1482SOL     OW 5693   0.709   1.669   5.340 -0.1688  0.1841  0.2020
 1482SOL    HW2 5694   0.671   1.621   5.266  0.8499  3.2981 -2.5610
 1482SOL    HW3 5695   0.802   1.644   5.339  0.0339  0.9124 -0.2228
 1482SOL    MW4 5696   0.716   1.659   5.330  0.0336 -0.0041 -0.6901
 1483SOL     OW 5697   0.390   5.509   2.526  0.2879  0.0786 -0.5691
 1483SOL    HW2 5698   0.352   5.435   2.573  1.1207  0.3784  0.6370
 1483SOL    HW3 5699   0.317   5.570   2.515  0.3445  0.6909  1.8032
 1483SOL    MW4 5700   0.375   5.507   2.531  0.6506  0.0673 -0.0770
 1484SOL     OW 5701   0.947   4.359   4.511  0.5007  0.0189 -0.2734
 1484SOL    HW2 5702   0.981   4.439   4.472 -0.9018  0.6930 -0.1603
 1484SOL    HW3 5703   0.956   4.293   4.442 -0.2904  0.7763 -1.1246
 1484SOL    MW4 5704   0.953   4.361   4.497  0.5206  0.1495 -0.2572
 1485SOL     OW 5705   2.410   2.643   4.062  0.1547 -0.8273  0.3107
 1485SOL    HW2 5706   2.452   2.690   4.133 -1.0482  2.1536 -0.7796
 1485SOL    HW3 5707   2.379   2.561   4.102  1.6036 -0.3542  2.5566
 1485SOL    MW4 5708   2.411   2.638   4.076 -0.6285 -0.2475 -0.2776
 1486SOL     OW 5709   6.236   2.652   2.289  0.3220  0.7322  0.5007
 1486SOL    HW2 5710   6.221   2.745   2.306 -0.8656  0.5641  0.4807
 1486SOL    HW3 5711   6.151   2.611   2.307  0.0463  0.0097 -2.0847
 1486SOL    MW4 5712   6.223   2.659   2.294 -0.0879  0.7033 -0.1653
 1487SOL     OW 5713   1.721   5.348   3.453 -0.4360  0.4057  0.4512
 1487SOL    HW2 5714   1.648   5.302   3.411  1.3749 -1.6672 -0.6577
 1487SOL    HW3 5715   1.799   5.310   3.412  1.3405  1.1785  2.9049
 1487SOL    MW4 5716   1.721   5.337   3.442 -0.0298  0.0366 -0.2827
 1488SOL     OW 5717   3.818   3.241   5.514  0.2041  0.2779  0.4616
 1488SOL    HW2 5718   3.855   3.233   5.426  0.6137  0.1637  0.6426
 1488SOL    HW3 5719   3.810   3.151   5.546 -0.2786  0.2969  0.4097
 1488SOL    MW4 5720   3.822   3.228   5.506  0.1900 -0.0881 -0.6469
 1489SOL     OW 5721   4.890   3.881   3.486 -0.2744  0.2693 -0.4278
 1489SOL    HW2 5722   4.967   3.828   3.465 -0.8412 -0.3855 -0.8862
 1489SOL    HW3 5723   4.926   3.959   3.528  0.4970 -1.1207  1.6628
 1489SOL    MW4 5724   4.905   3.885   3.489 -0.1715 -0.2774  0.5463
 1490SOL     OW 5725   1.334   5.656   1.734  0.3265  0.5901  0.3781
 1490SOL    HW2 5726   1.240   5.638   1.725  0.6071 -2.6671  2.1776
 1490SOL    HW3 5727   1.368   5.650   1.645 -1.0087  0.6754 -0.1584
 1490SOL    MW4 5728   1.326   5.653   1.721 -0.2806 -0.4112  0.1794
 1491SOL     OW 5729   4.799   2.501   0.146 -0.0531 -0.3080  0.0108
 1491SOL    HW2 5730   4.716   2.462   0.117 -1.4904  2.3233  0.3250
 1491SOL    HW3 5731   4.774   2.560   0.217  1.9858  1.1454 -0.3871
 1491SOL    MW4 5732   4.784   2.503   0.152  0.0692 -0.3279 -0.2980
 1492SOL     OW 5733   1.278   2.387   4.820  0.1464 -0.2073  0.0238
 1492SOL    HW2 5734   1.330   2.460   4.854 -1.0257  1.0672 -0.7841
 1492SOL    HW3 5735   1.334   2.346   4.754  0.2518  0.9918 -0.6688
 1492SOL    MW4 5736   1.292   2.391   4.815 -0.5977  0.5829 -0.1483
 1493SOL     OW 5737   6.130   4.793   6.233 -0.4442  0.6084  0.0232
 1493SOL    HW2 5738   6.183   4.849   6.176 -2.0360  1.1467 -0.9905
 1493SOL    HW3 5739   6.076   4.741   6.174 -1.2249  0.2435  1.0085
 1493SOL    MW4 5740   6.130   4.794   6.218 -0.0425  0.1883 -0.2130
 1494SOL     OW 5741   4.791   2.873   4.313 -0.1742 -0.1817 -0.1835
 1494SOL    HW2 5742   4.705   2.900   4.278 -0.2364 -0.9160 -0.6183
 1494SOL    HW3 5743   4.841   2.955   4.319 -1.4276  0.5149  1.6384
 1494SOL    MW4 5744   4.786   2.887   4.309 -0.4913 -0.2994  0.2575
 1495SOL     OW 5745   0.521   5.118   3.176  0.2535 -0.7844 -0.2582
 1495SOL    HW2 5746   0.587   5.057   3.210 -0.3683 -1.9467 -1.0522
 1495SOL    HW3 5747   0.493   5.168   3.252 -0.0731 -2.3190  0.6711
 1495SOL    MW4 5748   0.526   5.116   3.190 -0.7343  0.1512  0.1288
 1496SOL     OW 5749   4.650   4.096   4.311  0.2964 -0.1615  0.3614
 1496SOL    HW2 5750   4.692   4.014   4.339 -0.9327 -0.2389  2.1555
 1496SOL    HW3 5751   4.722   4.157   4.298  1.1255 -1.0452  0.7011
 1496SOL    MW4 5752   4.665   4.093   4.313 -0.5579 -0.0475  0.1145
 1497SOL     OW 5753   3.502   4.218   2.642 -0.0649  0.5891 -0.0917
 1497SOL    HW2 5754   3.582   4.266   2.618  0.7156  0.1272  1.5155
 1497SOL    HW3 5755   3.497   4.147   2.578  2.9229 -1.6570  1.9142
 1497SOL    MW4 5756   3.512   4.215   2.630  0.0677 -0.2785 -0.4392
 1498SOL     OW 5757   4.849   3.962   1.958  0.0285  0.1531  0.2283
 1498SOL    HW2 5758   4.939   3.988   1.938 -0.0454  0.6068  0.4815
 1498SOL    HW3 5759   4.829   4.005   2.042 -0.4218  0.0537  0.1761
 1498SOL    MW4 5760   4.858   3.971   1.967  0.0639 -0.1218  0.0583
 1499SOL     OW 5761   2.770   0.448   5.276 -0.7219 -0.4146 -0.0555
 1499SOL    HW2 5762   2.788   0.518   5.339  1.6167 -1.3881  0.4520
 1499SOL    HW3 5763   2.762   0.493   5.192  0.3746  0.5048  0.3109
 1499SOL    MW4 5764   2.771   0.463   5.274 -0.0173 -0.4319  0.7102
 1500SOL     OW 5765   3.888   1.532   4.789 -0.6084 -0.2904  0.5280
 1500SOL    HW2 5766   3.909   1.462   4.851  1.3889  1.8658  2.4907
 1500SOL    HW3 5767   3.844   1.598   4.842  1.1918  1.6542 -0.2541
 1500SOL    MW4 5768   3.885   1.531   4.804 -0.2698  0.0585 -0.2552
 1501SOL     OW 5769   6.054   6.367   0.995  0.2297  0.1851  0.3412
 1501SOL    HW2 5770   6.066   6.453   0.955  1.0641  0.1107  0.3962
 1501SOL    HW3 5771   5.994   6.381   1.068 -0.5946  0.4883 -0.3961
 1501SOL    MW4 5772   6.048   6.380   1.000  0.2625  0.3408  0.2415
 1502SOL     OW 5773   3.544   3.091   4.727 -0.2008 -0.2203  0.1522
 1502SOL    HW2 5774   3.588   3.171   4.699  0.1082  0.1931  1.6903
 1502SOL    HW3 5775   3.455   3.099   4.692  0.0788  0.3736 -0.4534
 1502SOL    MW4 5776   3.538   3.103   4.719 -0.1582  0.4710  0.0963
 1503SOL     OW 5777   4.904   4.983   5.232 -0.5682  1.1183 -0.0752
 1503SOL    HW2 5778   4.970   4.970   5.299  0.0773  2.4316 -0.4150
 1503SOL    HW3 5779   4.938   4.938   5.155  0.0118  1.9027 -0.2876
 1503SOL    MW4 5780   4.917   4.976   5.230  0.2218 -0.0241  0.5411
 1504SOL     OW 5781   0.790   2.126   4.400 -0.9287  0.1285  0.3486
 1504SOL    HW2 5782   0.751   2.195   4.347 -1.6765  0.1021  0.8503
 1504SOL    HW3 5783   0.716   2.071   4.427 -0.3289 -1.0237 -0.2534
 1504SOL    MW4 5784   0.775   2.128   4.397  0.2431  0.2022  0.2463
 1505SOL     OW 5785   3.766   5.542   5.302 -0.0480  0.5385  0.8127
 1505SOL    HW2 5786   3.707   5.594   5.248  0.5571  0.0016 -0.4002
 1505SOL    HW3 5787   3.755   5.453   5.271  2.6111  0.6187 -0.6513
 1505SOL    MW4 5788   3.757   5.537   5.291  0.1892  0.0062 -0.3427
 1506SOL     OW 5789   3.884   4.489   4.550 -0.2448 -0.7537  0.5940
 1506SOL    HW2 5790   3.969   4.490   4.594  0.7799  1.1092 -1.2352
 1506SOL    HW3 5791   3.900   4.438   4.470 -0.2147  1.3246 -0.7873
 1506SOL    MW4 5792   3.898   4.482   4.545  0.7809  0.0031  0.3427
 1507SOL     OW 5793   6.072   6.044   0.747 -0.2998 -0.2038  0.0939
 1507SOL    HW2 5794   6.144   5.991   0.713  2.1781  2.6333  0.5269
 1507SOL    HW3 5795   6.040   5.994   0.822  2.2172 -0.9205  0.7960
 1507SOL    MW4 5796   6.077   6.030   0.752 -0.2931  0.2850 -0.3225
 1508SOL     OW 5797   0.829   6.172   5.099 -0.7011  0.0093 -0.2850
 1508SOL    HW2 5798   0.852   6.243   5.160 -2.0929 -0.0489  0.3455
 1508SOL    HW3 5799   0.792   6.217   5.023  0.2085  0.0358 -0.7259
 1508SOL    MW4 5800   0.828   6.187   5.097  0.2093 -0.0127 -0.1474
 1509SOL     OW 5801   0.862   2.974   2.662  0.0186  0.0750 -0.5432
 1509SOL    HW2 5802   0.902   2.983   2.575 -0.9797  0.4792 -0.9715
 1509SOL    HW3 5803   0.873   2.882   2.684  0.8026  0.0890 -0.8271
 1509SOL    MW4 5804   0.869   2.963   2.653  0.0893 -0.1378 -0.1377
 1510SOL     OW 5805   5.285   0.366   1.390  0.0706 -0.2617  0.0389
 1510SOL    HW2 5806   5.319   0.294   1.443  0.6228  1.7753  2.6625
 1510SOL    HW3 5807   5.215   0.404   1.443 -1.1600  0.3451 -1.8871
 1510SOL    MW4 5808   5.280   0.361   1.404 -0.0058  0.2482  0.2635
 1511SOL     OW 5809   5.073   1.948   4.912 -0.2537  0.5249 -0.0961
 1511SOL    HW2 5810   5.015   1.886   4.868  0.7219 -0.3551 -0.2041
 1511SOL    HW3 5811   5.108   2.002   4.841 -0.7611  0.9086 -0.0573
 1511SOL    MW4 5812   5.070   1.947   4.897 -0.2255 -0.3934 -0.2862
 1512SOL     OW 5813   4.444   0.152   5.575  0.6133 -0.0079  0.3556
 1512SOL    HW2 5814   4.392   0.079   5.542 -0.7394 -0.0678  2.3801
 1512SOL    HW3 5815   4.517   0.111   5.621  0.3145 -0.0922  0.7685
 1512SOL    MW4 5816   4.447   0.137   5.577  0.1603  0.3001  0.3910
 1513SOL     OW 5817   1.775   1.433   3.065 -0.5928 -0.3674  0.2384
 1513SOL    HW2 5818   1.834   1.491   3.114 -1.1309 -0.5790  1.1545
 1513SOL    HW3 5819   1.800   1.345   3.093 -1.0834 -0.4752  0.3372
 1513SOL    MW4 5820   1.786   1.429   3.075 -0.5126  0.1333  0.3394
 1514SOL     OW 5821   0.500   5.898   0.437  0.6478  0.9068  0.0581
 1514SOL    HW2 5822   0.566   5.887   0.505 -0.4778 -0.0025  1.0605
 1514SOL    HW3 5823   0.539   5.960   0.375  1.9372  1.3167  1.2263
 1514SOL    MW4 5824   0.514   5.904   0.438  0.3109 -0.0871 -0.0413
 1515SOL     OW 5825   3.284   2.216   3.240 -0.4755  0.3590 -0.3179
 1515SOL    HW2 5826   3.196   2.251   3.254 -0.6405 -0.3859  0.6336
 1515SOL    HW3 5827   3.278   2.126   3.270  0.0778 -0.3567 -2.2206
 1515SOL    MW4 5828   3.271   2.209   3.246  0.0189 -0.6330  0.3065
 1516SOL     OW 5829   6.029   3.513   5.705  0.0468  0.4271 -0.4949
 1516SOL    HW2 5830   6.020   3.608   5.713  2.5459  0.6792  0.0269
 1516SOL    HW3 5831   6.042   3.482   5.794  1.2787 -0.1056 -0.8303
 1516SOL    MW4 5832   6.030   3.522   5.717  0.2150 -0.0086  0.2418
 1517SOL     OW 5833   0.109   5.486   4.242 -0.0613  0.0887  0.4645
 1517SOL    HW2 5834   0.014   5.486   4.231  0.0533 -1.7419 -1.1318
 1517SOL    HW3 5835   0.142   5.517   4.157  0.7811  0.7742  1.0308
 1517SOL    MW4 5836   0.101   5.490   4.229 -0.5574  0.1922  0.7896
 1518SOL     OW 5837   4.091   1.756   4.716 -0.2709 -0.1573  0.3562
 1518SOL    HW2 5838   4.165   1.720   4.668  1.4323  0.7609  2.1160
 1518SOL    HW3 5839   4.039   1.680   4.743 -0.2392 -0.7870 -1.2967
 1518SOL    MW4 5840   4.094   1.742   4.714 -0.0121 -0.4055 -0.6247
 1519SOL     OW 5841   4.416   2.343   2.948 -0.5512 -0.5171  0.3478
 1519SOL    HW2 5842   4.336   2.344   2.896  0.0806 -0.5033 -0.6539
 1519SOL    HW3 5843   4.480   2.296   2.893  0.9393  1.9122 -0.1710
 1519SOL    MW4 5844   4.414   2.337   2.934  0.6362  0.0979 -0.9397
 1520SOL     OW 5845   2.939   1.876   6.279  0.1230  0.0030 -0.2800
 1520SOL    HW2 5846   3.030   1.904   6.281  1.2226 -3.1707 -0.2070
 1520SOL    HW3 5847   2.926   1.830   6.362 -0.8296 -1.4549 -1.1768
 1520SOL    MW4 5848   2.949   1.873   6.290  0.4324  0.3251 -0.4555
 1521SOL     OW 5849   0.777   6.090   4.010 -0.2903 -0.2526  0.0868
 1521SOL    HW2 5850   0.690   6.058   3.987 -0.0983 -0.6204 -0.1532
 1521SOL    HW3 5851   0.804   6.033   4.082 -0.1180 -0.3554 -0.0579
 1521SOL    MW4 5852   0.769   6.078   4.017 -0.4615 -0.8375  0.0359
 1522SOL     OW 5853   5.484   4.560   0.656  0.4070 -0.0665 -0.5531
 1522SOL    HW2 5854   5.489   4.544   0.751  1.3868  2.4465 -0.1012
 1522SOL    HW3 5855   5.572   4.588   0.632 -0.2065  0.8465 -1.8742
 1522SOL    MW4 5856   5.496   4.562   0.666  0.1327  0.1894 -0.4106
 1523SOL     OW 5857   1.413   5.935   1.736 -0.4710  0.4812  0.0696
 1523SOL    HW2 5858   1.384   5.844   1.723  1.0517 -0.1034  0.4593
 1523SOL    HW3 5859   1.373   5.984   1.665 -0.3975 -0.7257 -0.8276
 1523SOL    MW4 5860   1.404   5.929   1.725  0.2610 -0.4693 -0.4917
 1524SOL     OW 5861   3.196   2.370   1.593  0.3814  0.2535  0.0604
 1524SOL    HW2 5862   3.238   2.412   1.668  0.2224 -0.1979  0.4070
 1524SOL    HW3 5863   3.154   2.292   1.629 -1.7015  1.2324 -0.0534
 1524SOL    MW4 5864   3.196   2.365   1.607 -0.3538  0.2700 -1.1635
 1525SOL     OW 5865   3.758   2.499   2.878 -0.4540  0.1729  0.5955
 1525SOL    HW2 5866   3.741   2.567   2.812 -1.6188  0.3344  1.0490
 1525SOL    HW3 5867   3.812   2.542   2.944  1.0653 -0.0977 -0.4250
 1525SOL    MW4 5868   3.763   2.513   2.878  0.7535  0.3539  0.1516
 1526SOL     OW 5869   1.015   6.394   3.539  0.0550  0.0451 -0.2527
 1526SOL    HW2 5870   1.051   6.456   3.475  0.0135 -1.4367 -1.7971
 1526SOL    HW3 5871   0.931   6.368   3.501 -0.2264 -0.4642  0.6899
 1526SOL    MW4 5872   1.008   6.399   3.525 -0.0967  0.8645  0.1770
 1527SOL     OW 5873   2.592   3.652   2.063 -0.0397 -0.1140  0.7714
 1527SOL    HW2 5874   2.562   3.688   1.980 -0.3334 -0.6447  0.6457
 1527SOL    HW3 5875   2.516   3.605   2.098  0.2223 -0.2857  1.1195
 1527SOL    MW4 5876   2.578   3.651   2.057  0.0007  0.2694 -0.2491
 1528SOL     OW 5877   3.370   2.733   1.585  0.7165  0.0433 -0.1207
 1528SOL    HW2 5878   3.281   2.739   1.620  0.1966 -0.3494 -1.3209
 1528SOL    HW3 5879   3.424   2.775   1.651 -0.6052  2.3052 -0.3609
 1528SOL    MW4 5880   3.365   2.739   1.598 -0.3775  0.1852 -0.1689
 1529SOL     OW 5881   1.211   4.160   5.963 -0.2963  0.4204  0.2824
 1529SOL    HW2 5882   1.165   4.086   6.004  0.0415  0.0036 -0.0734
 1529SOL    HW3 5883   1.287   4.174   6.020 -0.0823  0.1503  0.0689
 1529SOL    MW4 5884   1.215   4.152   5.976 -0.0798 -0.0151  0.2449
 1530SOL     OW 5885   1.810   2.808   2.466 -0.3312  0.1913  0.0018
 1530SOL    HW2 5886   1.854   2.768   2.391 -0.6416 -0.1897  0.0192
 1530SOL    HW3 5887   1.731   2.847   2.429  0.1499  1.1197 -0.0767
 1530SOL    MW4 5888   1.805   2.808   2.451 -0.2367  0.6923 -0.7459
 1531SOL     OW 5889   4.146   4.096   2.251  0.1711  0.1117  0.6348
 1531SOL    HW2 5890   4.168   4.136   2.168  0.8957 -1.6636 -0.0852
 1531SOL    HW3 5891   4.176   4.005   2.243 -4.4417 -1.6886  0.7910
 1531SOL    MW4 5892   4.153   4.089   2.239 -0.6890 -0.0554  0.4089
 1532SOL     OW 5893   5.730   2.497   4.841  0.3437  0.0078 -0.4067
 1532SOL    HW2 5894   5.812   2.524   4.883 -0.8819 -0.9248  2.8662
 1532SOL    HW3 5895   5.663   2.551   4.883 -1.0004 -0.8970 -1.3162
 1532SOL    MW4 5896   5.732   2.508   4.852 -0.3299  0.0223 -0.2536
 1533SOL     OW 5897   0.053   4.837   3.550 -0.0386 -0.1402  0.0410
 1533SOL    HW2 5898  -0.030   4.795   3.574  0.2291 -0.2956  0.7136
 1533SOL    HW3 5899   0.086   4.786   3.476 -0.2425 -0.4540  0.1664
 1533SOL    MW4 5900   0.046   4.825   3.543  0.1529 -0.1837 -0.1759
 1534SOL     OW 5901   6.052   3.986   0.600  0.1019 -0.4661 -0.6717
 1534SOL    HW2 5902   6.125   3.930   0.571  0.5559 -0.8584  1.0687
 1534SOL    HW3 5903   6.094   4.065   0.633  0.0281 -1.5050  2.2531
 1534SOL    MW4 5904   6.067   3.989   0.600  0.3488 -0.6127  0.0558
 1535SOL     OW 5905   4.590   2.823   3.103 -0.1115  0.1914  0.4727
 1535SOL    HW2 5906   4.678   2.841   3.071  0.2894 -0.3347  1.2582
 1535SOL    HW3 5907   4.578   2.729   3.092 -0.6999  0.3030  0.0781
 1535SOL    MW4 5908   4.600   2.813   3.098  0.2183  0.6345  0.4180
 1536SOL     OW 5909   6.409   0.145   5.069 -0.2680 -0.9947  0.3454
 1536SOL    HW2 5910   6.353   0.221   5.081  2.2204  1.7746 -3.4090
 1536SOL    HW3 5911   6.461   0.141   5.149 -1.3325  0.3859  1.1600
 1536SOL    MW4 5912   6.408   0.154   5.081  0.1956 -0.4461  0.1998
 1537SOL     OW 5913   4.258   1.155   5.584  0.2942  0.1508 -0.3447
 1537SOL    HW2 5914   4.229   1.069   5.615  2.2227 -0.3912  0.0996
 1537SOL    HW3 5915   4.279   1.203   5.664  1.4449  0.1872 -0.6549
 1537SOL    MW4 5916   4.257   1.150   5.598  0.4028  0.5934  0.3948
 1538SOL     OW 5917   1.935   0.885   4.780 -0.4876  0.2733 -0.4367
 1538SOL    HW2 5918   1.966   0.846   4.698 -0.6367 -0.3611 -0.1967
 1538SOL    HW3 5919   1.840   0.876   4.777 -0.4408 -0.5423  0.1880
 1538SOL    MW4 5920   1.927   0.879   4.769 -0.2725 -0.5353  0.0685
 1539SOL     OW 5921   1.761   3.731   1.990  0.0537 -0.2485  0.5792
 1539SOL    HW2 5922   1.697   3.752   1.922  1.5624  0.2885 -0.7569
 1539SOL    HW3 5923   1.779   3.638   1.977 -0.8545 -0.5445  1.3423
 1539SOL    MW4 5924   1.755   3.721   1.979 -0.5433 -0.3989  0.7180
 1540SOL     OW 5925   5.349   2.727   4.041  0.1536 -0.1863  0.0563
 1540SOL    HW2 5926   5.315   2.816   4.045  0.2290 -0.1729  0.3956
 1540SOL    HW3 5927   5.433   2.731   4.088  0.0472 -0.4860  0.2745
 1540SOL    MW4 5928   5.356   2.739   4.048  0.2405 -0.1330  0.2752
 1541SOL     OW 5929   1.001   1.350   2.978  0.5401 -0.1064 -0.4616
 1541SOL    HW2 5930   0.935   1.319   2.916  0.1343 -0.6147  0.2130
 1541SOL    HW3 5931   0.960   1.339   3.064  0.0927  2.8635 -0.1746
 1541SOL    MW4 5932   0.987   1.345   2.982 -0.4186  0.1262 -0.5704
 1542SOL     OW 5933   2.427   6.345   4.938 -0.1930  0.3643 -0.0513
 1542SOL    HW2 5934   2.483   6.333   5.015  1.2328  0.1763 -1.0793
 1542SOL    HW3 5935   2.357   6.403   4.969  0.9883  1.2642  1.0874
 1542SOL    MW4 5936   2.425   6.351   4.952 -0.5445 -1.2588 -0.3172
 1543SOL     OW 5937   4.652   6.323   5.470 -0.0081  0.4982 -0.1836
 1543SOL    HW2 5938   4.579   6.297   5.526  0.1669  1.5569  0.5714
 1543SOL    HW3 5939   4.630   6.413   5.443  0.7726  0.6454 -0.3568
 1543SOL    MW4 5940   4.639   6.332   5.474  0.5357 -0.5660  0.7088
 1544SOL     OW 5941   6.242   2.755   6.084 -0.1847 -0.3732  0.1425
 1544SOL    HW2 5942   6.245   2.849   6.072  0.1149 -0.3999 -0.0030
 1544SOL    HW3 5943   6.324   2.734   6.130 -0.2351 -0.5649  0.1458
 1544SOL    MW4 5944   6.254   2.764   6.089 -0.8221 -0.1058 -0.1156
 1545SOL     OW 5945   5.828   2.244   4.347  0.1120 -0.5555  0.2575
 1545SOL    HW2 5946   5.871   2.196   4.277  1.2888 -0.4003  0.8431
 1545SOL    HW3 5947   5.891   2.312   4.372 -0.5897 -0.1393  0.9535
 1545SOL    MW4 5948   5.842   2.247   4.341 -0.2500 -0.2092  0.1219
 1546SOL     OW 5949   5.024   3.462   4.089  0.4617 -0.1751 -0.4074
 1546SOL    HW2 5950   5.078   3.500   4.019 -0.6666  1.1367 -0.6106
 1546SOL    HW3 5951   5.057   3.501   4.169  1.4745 -1.3528 -0.2231
 1546SOL    MW4 5952   5.035   3.472   4.090  0.0982 -0.0183  0.2762
 1547SOL     OW 5953   6.173   1.285   1.082  0.9021  0.1123  0.0922
 1547SOL    HW2 5954   6.085   1.314   1.057  0.6839  0.0723  0.7976
 1547SOL    HW3 5955   6.216   1.265   0.999 -1.0356 -3.6074 -0.2223
 1547SOL    MW4 5956   6.167   1.286   1.068  0.5203  0.7267  0.0425
 1548SOL     OW 5957   3.421   4.050   2.075  0.2735 -0.2639  0.3379
 1548SOL    HW2 5958   3.336   4.011   2.096  0.2218 -0.0809  0.4698
 1548SOL    HW3 5959   3.481   3.975   2.075  0.1793 -0.3437  0.6162
 1548SOL    MW4 5960   3.418   4.035   2.078 -0.0287 -0.0838 -0.8028
 1549SOL     OW 5961   2.115   2.446   0.777 -0.1226  0.1175  0.4997
 1549SOL    HW2 5962   2.129   2.406   0.863  0.6006  1.2878  0.9511
 1549SOL    HW3 5963   2.202   2.449   0.738  0.1627  2.6197  1.1322
 1549SOL    MW4 5964   2.128   2.441   0.783  0.7291 -0.0573 -0.5133
 1550SOL     OW 5965   4.117   3.571   5.349 -0.2819  0.2172  0.2096
 1550SOL    HW2 5966   4.141   3.594   5.259 -1.0395  1.2884  0.2728
 1550SOL    HW3 5967   4.046   3.507   5.340 -1.0712  1.1046  0.0377
 1550SOL    MW4 5968   4.111   3.565   5.336  0.4496  0.3405  0.0866
 1551SOL     OW 5969   2.917   6.349   5.342 -0.2769 -0.0580 -0.0867
 1551SOL    HW2 5970   2.979   6.351   5.415 -0.8243 -1.2213  0.4345
 1551SOL    HW3 5971   2.886   6.440   5.335  2.1150  0.7675 -0.9550
 1551SOL    MW4 5972   2.921   6.361   5.351 -0.1188 -0.1869 -0.2070
 1552SOL     OW 5973   2.754   4.723   5.848  0.4815 -0.0516  0.0016
 1552SOL    HW2 5974   2.806   4.702   5.926 -1.1280  1.4227  1.5789
 1552SOL    HW3 5975   2.780   4.811   5.824 -0.1053  0.0823 -0.1734
 1552SOL    MW4 5976   2.764   4.732   5.855 -0.0433  0.0322 -0.3143
 1553SOL     OW 5977   3.340   6.449   0.059  0.0054 -0.0350  0.2444
 1553SOL    HW2 5978   3.414   6.388   0.050 -0.6965 -0.9361  0.4741
 1553SOL    HW3 5979   3.293   6.441  -0.024 -1.4130 -1.6116  1.1291
 1553SOL    MW4 5980   3.344   6.440   0.047  0.1410  0.2431 -0.3675
 1554SOL     OW 5981   4.452   3.219   5.536 -0.0226 -0.1845  0.3235
 1554SOL    HW2 5982   4.368   3.249   5.501  1.1313  0.9272 -1.7070
 1554SOL    HW3 5983   4.445   3.235   5.630 -1.1286  2.4938 -0.1085
 1554SOL    MW4 5984   4.440   3.225   5.544  0.2408 -0.3293  0.0065
 1555SOL     OW 5985   3.786   2.729   0.240  0.0057 -0.1443 -0.1703
 1555SOL    HW2 5986   3.723   2.659   0.226  1.0146 -0.7669 -1.9001
 1555SOL    HW3 5987   3.740   2.809   0.217 -0.4668 -0.4775 -0.3781
 1555SOL    MW4 5988   3.772   2.730   0.235  0.0609 -0.0779 -0.1674
 1556SOL     OW 5989   5.256   1.864   2.668 -0.4610 -0.1019  0.1892
 1556SOL    HW2 5990   5.259   1.956   2.639  0.8790  0.1734  1.1025
 1556SOL    HW3 5991   5.187   1.825   2.616 -1.8288  1.7003  0.5552
 1556SOL    MW4 5992   5.248   1.871   2.657  0.1008 -0.0519  0.3225
 1557SOL     OW 5993   5.661   2.814   2.049 -0.5819 -0.3172  0.3185
 1557SOL    HW2 5994   5.728   2.790   1.986 -0.3702 -1.1114  0.8281
 1557SOL    HW3 5995   5.632   2.901   2.022  1.8379  0.8148  1.0335
 1557SOL    MW4 5996   5.666   2.823   2.037  0.0139  0.2527 -0.1714
 1558SOL     OW 5997   4.027   4.645   3.351  0.1976  0.1501 -0.6192
 1558SOL    HW2 5998   4.029   4.556   3.386 -0.4707  0.9251  1.6011
 1558SOL    HW3 5999   4.120   4.669   3.341  0.4742  0.0487  1.2751
 1558SOL    MW4 6000   4.040   4.637   3.355  0.0268  0.4740  0.1445
 1559SOL     OW 6001   2.509   0.234   2.561 -0.2252 -0.3908  0.2345
 1559SOL    HW2 6002   2.515   0.298   2.490 -1.9449  0.4925  0.8272
 1559SOL    HW3 6003   2.460   0.278   2.630 -0.8600 -2.1004  0.9471
 1559SOL    MW4 6004   2.503   0.248   2.561 -0.1902 -0.5194 -0.2348
 1560SOL     OW 6005   6.366   0.785   3.922  0.7505  0.1710 -0.5664
 1560SOL    HW2 6006   6.386   0.858   3.981 -0.3508 -0.1989  0.3024
 1560SOL    HW3 6007   6.443   0.778   3.866  0.2139  3.1458 -1.8890
 1560SOL    MW4 6008   6.379   0.794   3.922  0.0581  0.1806  0.1302
 1561SOL     OW 6009   1.052   3.007   2.429  0.1644 -0.4373 -0.1065
 1561SOL    HW2 6010   1.111   3.044   2.495 -1.0340 -0.0875  0.8269
 1561SOL    HW3 6011   1.104   2.942   2.383  1.1506 -0.4385  0.9727
 1561SOL    MW4 6012   1.066   3.004   2.432  0.1535 -0.0812  0.2137
 1562SOL     OW 6013   5.403   1.639   2.768  0.6993  0.0558  0.0897
 1562SOL    HW2 6014   5.379   1.715   2.716  1.2501  0.3884  0.3119
 1562SOL    HW3 6015   5.403   1.566   2.706  1.4518  0.4628 -0.4092
 1562SOL    MW4 6016   5.400   1.639   2.753 -0.4752 -0.3483  0.0011
 1563SOL     OW 6017   0.613   5.324   4.170 -0.1079  0.0320  0.4016
 1563SOL    HW2 6018   0.704   5.305   4.146 -0.5256 -1.3480 -0.1879
 1563SOL    HW3 6019   0.588   5.397   4.113  0.9632  1.2043  1.3721
 1563SOL    MW4 6020   0.622   5.331   4.159 -0.3650 -0.2774  0.4646
 1564SOL     OW 6021   4.005   3.664   3.413 -0.3094  0.0935 -0.0135
 1564SOL    HW2 6022   4.056   3.596   3.457 -0.4844 -0.8790 -1.2744
 1564SOL    HW3 6023   4.070   3.729   3.387 -0.1417  0.4458  1.2075
 1564SOL    MW4 6024   4.020   3.664   3.416 -0.6553  0.5701 -0.5725
 1565SOL     OW 6025   4.654   6.362   4.009  0.4705 -0.5390  0.6132
 1565SOL    HW2 6026   4.730   6.420   4.016  0.3228 -0.2575 -0.0485
 1565SOL    HW3 6027   4.676   6.286   4.063  1.6564 -0.9283 -0.3647
 1565SOL    MW4 6028   4.667   6.360   4.017  0.4271  0.6606  0.6140
 1566SOL     OW 6029   0.051   4.837   0.782 -0.1322 -0.0682 -0.8229
 1566SOL    HW2 6030   0.091   4.902   0.839 -1.7645 -0.4922  0.9111
 1566SOL    HW3 6031  -0.001   4.888   0.720 -2.2135  0.3858  1.1512
 1566SOL    MW4 6032   0.049   4.852   0.781 -0.0118  0.7021  0.1285
 1567SOL     OW 6033   5.334   0.143   3.793  0.2075  0.4043  0.3429
 1567SOL    HW2 6034   5.322   0.238   3.783  0.5613  0.3997 -0.2005
 1567SOL    HW3 6035   5.247   0.106   3.781  0.2279  0.5901 -0.4662
 1567SOL    MW4 6036   5.321   0.151   3.790 -0.7549 -0.2835  0.3009
 1568SOL     OW 6037   1.534   6.049   3.582 -0.4307  0.1062  0.1926
 1568SOL    HW2 6038   1.501   5.959   3.577  1.6827 -0.6575 -1.8060
 1568SOL    HW3 6039   1.617   6.041   3.629  0.0040  0.9323 -0.4257
 1568SOL    MW4 6040   1.540   6.036   3.588  0.3824  0.3215 -0.2148
 1569SOL     OW 6041   3.708   2.361   4.847  0.0574 -0.5467 -0.4895
 1569SOL    HW2 6042   3.754   2.435   4.887 -0.7930 -0.9621  1.3529
 1569SOL    HW3 6043   3.759   2.284   4.873 -0.7621 -0.8625  0.2374
 1569SOL    MW4 6044   3.721   2.361   4.856 -0.3545 -0.0822  0.2547
 1570SOL     OW 6045   3.168   3.702   0.155  0.0253 -0.2811 -0.0709
 1570SOL    HW2 6046   3.181   3.607   0.159  0.5924 -0.2726 -1.2404
 1570SOL    HW3 6047   3.252   3.736   0.122 -0.1613  0.6321  0.3595
 1570SOL    MW4 6048   3.181   3.694   0.151  0.0145  0.1577 -0.4244
 1571SOL     OW 6049   3.172   2.944   1.904 -0.0326 -0.0960 -0.6750
 1571SOL    HW2 6050   3.122   2.922   1.826 -0.5186  1.3555 -0.8039
 1571SOL    HW3 6051   3.222   3.022   1.880 -1.8891  1.7879  1.0536
 1571SOL    MW4 6052   3.172   2.952   1.891  0.3025  0.1717 -0.1546
 1572SOL     OW 6053   5.436   4.763   1.284 -0.2366 -0.1165 -0.7470
 1572SOL    HW2 6054   5.341   4.766   1.272 -0.1363  0.6038 -1.4791
 1572SOL    HW3 6055   5.449   4.787   1.375 -0.8133 -1.4576 -0.2899
 1572SOL    MW4 6056   5.425   4.767   1.294  0.4696 -0.4284  0.2105
 1573SOL     OW 6057   5.801   3.079   1.357  0.3480 -0.4608  0.1125
 1573SOL    HW2 6058   5.865   3.093   1.428  1.9459  0.4635 -1.4174
 1573SOL    HW3 6059   5.716   3.083   1.400  1.0459  3.5405  1.5837
 1573SOL    MW4 6060   5.798   3.081   1.372  0.2131 -0.1208  0.1734
 1574SOL     OW 6061   2.588   2.706   2.483 -0.6688 -0.0778 -0.5218
 1574SOL    HW2 6062   2.505   2.752   2.469  0.2709  1.6825 -0.6052
 1574SOL    HW3 6063   2.640   2.726   2.405  1.7372  3.3420  1.6557
 1574SOL    MW4 6064   2.584   2.715   2.471 -0.6094  0.4921  0.0015
 1575SOL     OW 6065   0.823   6.018   1.681  0.3178 -0.1867  0.1684
 1575SOL    HW2 6066   0.794   5.965   1.756 -1.6318  1.5808  0.7524
 1575SOL    HW3 6067   0.750   6.077   1.664  1.9224  1.5105 -1.2179
 1575SOL    MW4 6068   0.809   6.019   1.689 -0.2599  0.1505 -0.7060
 1576SOL     OW 6069   6.110   4.888   3.783 -0.6906  0.5556 -0.6745
 1576SOL    HW2 6070   6.183   4.826   3.790  0.8629  2.4269  1.5519
 1576SOL    HW3 6071   6.056   4.869   3.860 -1.7929  0.1355 -1.5324
 1576SOL    MW4 6072   6.113   4.877   3.794 -0.3890  0.3254  0.1315
 1577SOL     OW 6073   3.380   0.416   1.470  0.2773 -0.1583  0.2253
 1577SOL    HW2 6074   3.374   0.483   1.402  2.2075  0.1297  0.2752
 1577SOL    HW3 6075   3.297   0.422   1.517  0.0245  1.5499 -0.3731
 1577SOL    MW4 6076   3.369   0.426   1.467  0.3375 -0.3936 -0.1047
 1578SOL     OW 6077   3.109   0.739   5.780 -0.3831 -0.2213 -0.4276
 1578SOL    HW2 6078   3.044   0.809   5.774  1.3300  1.4646 -0.2619
 1578SOL    HW3 6079   3.188   0.782   5.814  1.0128 -2.0539 -1.1725
 1578SOL    MW4 6080   3.111   0.754   5.784 -0.3525 -0.2553  0.0608
 1579SOL     OW 6081   2.006   1.330   1.228  0.1253  0.4014  0.0327
 1579SOL    HW2 6082   2.010   1.253   1.286 -1.1660 -0.9188 -1.5347
 1579SOL    HW3 6083   2.079   1.318   1.167 -0.4233  0.0885 -0.5729
 1579SOL    MW4 6084   2.016   1.318   1.228 -0.1715 -0.0705  0.2529
 1580SOL     OW 6085   4.500   0.691   5.086 -0.0143  0.3482  0.2339
 1580SOL    HW2 6086   4.462   0.606   5.063 -1.5016  0.6222  1.5144
 1580SOL    HW3 6087   4.429   0.753   5.071  1.5348  1.7021 -2.3726
 1580SOL    MW4 6088   4.486   0.688   5.081 -0.0781 -0.3868 -0.9363
 1581SOL     OW 6089   1.011   3.288   5.488 -0.1262  0.3313  0.2347
 1581SOL    HW2 6090   1.038   3.320   5.574 -1.7939 -1.3730  1.4537
 1581SOL    HW3 6091   1.092   3.259   5.447  0.4918 -0.7869  2.1071
 1581SOL    MW4 6092   1.025   3.289   5.494 -0.6297  0.3034 -0.6646
 1582SOL     OW 6093   5.697   3.481   5.285  0.3187  0.2740 -0.1517
 1582SOL    HW2 6094   5.705   3.416   5.354  1.2173  0.0821 -0.4193
 1582SOL    HW3 6095   5.711   3.432   5.204  0.0036  0.6198 -0.4187
 1582SOL    MW4 6096   5.700   3.466   5.283  0.1110 -0.2430 -0.1177
 1583SOL     OW 6097   0.296   3.358   4.337 -0.3621  0.4499  0.0395
 1583SOL    HW2 6098   0.353   3.416   4.388  0.9674 -2.0683  1.6095
 1583SOL    HW3 6099   0.218   3.347   4.391  0.2617 -0.7635  0.7351
 1583SOL    MW4 6100   0.293   3.364   4.351 -0.1385  0.1165  0.3992
 1584SOL     OW 6101   4.667   1.207   1.607  0.1698 -1.0185 -0.4783
 1584SOL    HW2 6102   4.745   1.187   1.658 -0.6055 -1.0825  0.7339
 1584SOL    HW3 6103   4.596   1.162   1.653 -1.1203  1.7634  0.4609
 1584SOL    MW4 6104   4.668   1.198   1.620  0.0787 -0.6308  0.6612
 1585SOL     OW 6105   0.150   0.689   2.142  0.8138 -0.6320  0.5133
 1585SOL    HW2 6106   0.168   0.734   2.225 -0.6245 -0.0273  0.5373
 1585SOL    HW3 6107   0.235   0.659   2.111  1.7636  1.6155  0.8024
 1585SOL    MW4 6108   0.163   0.691   2.149  0.7566  0.0816  0.3608
 1586SOL     OW 6109   2.803   4.785   5.193 -0.1887 -0.7224 -0.1512
 1586SOL    HW2 6110   2.744   4.813   5.122  0.4682 -1.1228 -0.8763
 1586SOL    HW3 6111   2.880   4.840   5.182  0.9420 -2.4301 -1.3183
 1586SOL    MW4 6112   2.805   4.796   5.182  0.0471 -0.0536 -0.5067
 1587SOL     OW 6113   2.869   5.123   0.348  0.5732  0.2064 -0.6393
 1587SOL    HW2 6114   2.778   5.151   0.345  0.3138 -0.3958  0.5818
 1587SOL    HW3 6115   2.865   5.035   0.386  1.6045 -0.1274 -1.2765
 1587SOL    MW4 6116   2.857   5.115   0.353  0.2008 -0.3610  0.3595
 1588SOL     OW 6117   0.263   0.393   1.415  0.0233 -0.5640  0.2605
 1588SOL    HW2 6118   0.350   0.376   1.379  0.6395 -0.5934  1.6901
 1588SOL    HW3 6119   0.234   0.308   1.449 -0.3836 -0.4638  0.1650
 1588SOL    MW4 6120   0.271   0.380   1.415  0.0869  0.1786  0.1599
 1589SOL     OW 6121   0.984   6.338   4.545  0.2938  0.0513  0.1613
 1589SOL    HW2 6122   0.968   6.398   4.618 -0.9575  1.1255 -0.9388
 1589SOL    HW3 6123   0.988   6.395   4.468  0.9626 -1.1144 -0.6986
 1589SOL    MW4 6124   0.982   6.353   4.544  0.1723  0.2279 -0.0056
 1590SOL     OW 6125   3.523   4.853   0.010 -0.4745 -0.1131  0.6564
 1590SOL    HW2 6126   3.502   4.899  -0.071 -1.7363  0.7355  1.4402
 1590SOL    HW3 6127   3.581   4.912   0.058 -1.1355  0.1565  1.1367
 1590SOL    MW4 6128   3.528   4.867   0.006  0.3512 -0.3486 -0.0258
 1591SOL     OW 6129   5.487   2.267   1.848 -0.4717  0.2086  0.0450
 1591SOL    HW2 6130   5.514   2.236   1.761  2.2805 -0.8522  1.1500
 1591SOL    HW3 6131   5.438   2.347   1.831  1.7951  1.2355 -2.4296
 1591SOL    MW4 6132   5.484   2.273   1.834  0.1800 -0.0547 -0.0329
 1592SOL     OW 6133   4.023   0.576   5.108 -0.2602 -0.4777 -0.0284
 1592SOL    HW2 6134   4.040   0.650   5.049  0.9035 -1.1172 -0.5359
 1592SOL    HW3 6135   4.006   0.617   5.193 -0.6116  0.4096 -0.5123
 1592SOL    MW4 6136   4.023   0.591   5.112  0.4447  0.3511  0.2815
 1593SOL     OW 6137   4.503   4.206   5.716 -0.3029  0.5160  0.0502
 1593SOL    HW2 6138   4.529   4.218   5.624 -0.4372 -0.9510 -0.2072
 1593SOL    HW3 6139   4.575   4.155   5.754 -0.7634  0.1580  0.4568
 1593SOL    MW4 6140   4.516   4.201   5.709  0.4785 -0.1302  0.3776
 1594SOL     OW 6141   0.501   0.444   6.051 -0.4881 -0.5260  0.1931
 1594SOL    HW2 6142   0.572   0.386   6.022  2.0072  3.2814 -2.2855
 1594SOL    HW3 6143   0.532   0.481   6.134 -0.1386  0.1963 -0.2515
 1594SOL    MW4 6144   0.514   0.442   6.058 -0.3236 -0.4568 -0.0916
 1595SOL     OW 6145   3.759   5.377   1.977  0.2442  0.1097  0.2302
 1595SOL    HW2 6146   3.844   5.335   1.988 -0.3830 -1.2826 -0.0337
 1595SOL    HW3 6147   3.741   5.372   1.884 -0.9632 -1.3778  0.4976
 1595SOL    MW4 6148   3.768   5.371   1.966  0.0866  0.1024 -0.0374
 1596SOL     OW 6149   3.006   2.963   5.690 -0.2010 -0.1680 -0.1610
 1596SOL    HW2 6150   2.932   2.998   5.640  0.1553 -0.4724 -0.9159
 1596SOL    HW3 6151   3.057   2.913   5.626 -0.4002 -1.6349  0.7822
 1596SOL    MW4 6152   3.003   2.961   5.675  0.3178  0.0061 -0.1669
 1597SOL     OW 6153   5.501   1.363   5.423  0.0130 -1.1145 -0.0808
 1597SOL    HW2 6154   5.448   1.390   5.497  2.0239  0.8136  0.7853
 1597SOL    HW3 6155   5.479   1.425   5.354  0.6453 -0.7068  0.0754
 1597SOL    MW4 6156   5.491   1.375   5.423  0.2967  0.5331 -0.4438
 1598SOL     OW 6157   5.013   5.273   4.610  0.0498  0.3541  0.2507
 1598SOL    HW2 6158   4.957   5.231   4.544 -0.0400  1.5148 -0.4293
 1598SOL    HW3 6159   4.955   5.331   4.658  0.5560  1.2252 -0.1588
 1598SOL    MW4 6160   4.998   5.275   4.608  0.1479  0.6594  0.5068
 1599SOL     OW 6161   2.648   0.836   6.358  0.4651 -0.3126  0.5396
 1599SOL    HW2 6162   2.656   0.922   6.400 -2.8497 -0.1556  1.0995
 1599SOL    HW3 6163   2.629   0.776   6.430 -0.2760 -0.9477 -0.1683
 1599SOL    MW4 6164   2.647   0.840   6.373 -0.0793 -0.1272 -0.9848
 1600SOL     OW 6165   4.038   3.978   5.294  0.1130 -0.2720 -0.0855
 1600SOL    HW2 6166   3.968   3.916   5.311 -0.8640  0.0074 -2.6483
 1600SOL    HW3 6167   4.114   3.923   5.275  0.0650 -0.6168  0.7080
 1600SOL    MW4 6168   4.039   3.962   5.294 -0.0351  0.6129 -0.1726
 1601SOL     OW 6169   1.079   3.938   1.013  0.0136  0.0234 -0.0100
 1601SOL    HW2 6170   0.988   3.953   1.038 -0.0812 -0.0529 -0.3058
 1601SOL    HW3 6171   1.079   3.943   0.917  0.7218  2.3367  0.0414
 1601SOL    MW4 6172   1.067   3.941   1.004  0.5357  0.3299 -0.4362
 1602SOL     OW 6173   1.622   0.358   2.180 -0.0580 -0.0835  0.0103
 1602SOL    HW2 6174   1.622   0.396   2.268 -1.0694 -0.1024  0.0252
 1602SOL    HW3 6175   1.709   0.319   2.171  0.1361  0.1212  0.9139
 1602SOL    MW4 6176   1.633   0.358   2.190 -0.2848  0.0463 -0.7446
 1603SOL     OW 6177   2.988   1.008   1.958  0.3329 -0.6943 -0.9978
 1603SOL    HW2 6178   3.017   0.969   1.876 -0.2063 -1.8117 -0.6822
 1603SOL    HW3 6179   2.915   0.952   1.986 -0.3062  0.4183 -0.3987
 1603SOL    MW4 6180   2.982   0.995   1.951  0.4960 -0.0900  0.1691
 1604SOL     OW 6181   3.435   0.837   2.086 -0.0564 -1.0542 -0.1736
 1604SOL    HW2 6182   3.476   0.905   2.034 -1.1820  0.2670  0.6074
 1604SOL    HW3 6183   3.499   0.815   2.153  0.2613 -0.6974 -0.3605
 1604SOL    MW4 6184   3.449   0.843   2.088  0.3195  0.4912  0.3461
 1605SOL     OW 6185   3.500   4.109   2.367 -0.7242  0.1876  0.1853
 1605SOL    HW2 6186   3.479   4.203   2.371  0.1066  0.4412 -0.8831
 1605SOL    HW3 6187   3.481   4.084   2.277 -3.6917 -1.4142  1.1321
 1605SOL    MW4 6188   3.495   4.118   2.356  0.1575  0.7130 -0.2850
 1606SOL     OW 6189   0.102   3.335   2.143  0.2550  0.4528  0.6993
 1606SOL    HW2 6190   0.145   3.380   2.070 -0.2126 -1.0335 -0.5543
 1606SOL    HW3 6191   0.009   3.347   2.126  0.0628 -2.1239 -0.5097
 1606SOL    MW4 6192   0.096   3.343   2.131 -0.9272 -0.6907 -0.1850
 1607SOL     OW 6193   5.046   2.127   5.361 -0.3240 -0.3363 -0.3925
 1607SOL    HW2 6194   5.139   2.116   5.343 -0.3783 -1.7527  0.0133
 1607SOL    HW3 6195   5.013   2.180   5.289  0.5672 -0.8536 -1.2031
 1607SOL    MW4 6196   5.054   2.132   5.349  0.5674 -0.5441  0.3033
 1608SOL     OW 6197   3.500   2.871   5.925 -0.3691 -0.2519 -0.3754
 1608SOL    HW2 6198   3.412   2.856   5.958 -0.5768  2.0076  0.3102
 1608SOL    HW3 6199   3.497   2.959   5.887  1.5154 -0.2067 -0.5434
 1608SOL    MW4 6200   3.488   2.881   5.924 -0.3442 -0.0088  0.6457
 1609SOL     OW 6201   1.615   1.752   4.890 -0.2982  0.1708  0.0559
 1609SOL    HW2 6202   1.591   1.771   4.981 -0.4293 -0.4135  0.1490
 1609SOL    HW3 6203   1.705   1.721   4.895 -0.3137  0.1157 -0.0116
 1609SOL    MW4 6204   1.624   1.750   4.903 -0.0251  0.1455  0.2177
 1610SOL     OW 6205   3.317   0.133   1.418  0.4733 -0.3336  0.4055
 1610SOL    HW2 6206   3.341   0.224   1.433  0.2424 -0.5299  2.1860
 1610SOL    HW3 6207   3.232   0.123   1.460  0.2262 -1.2337 -0.2766
 1610SOL    MW4 6208   3.309   0.144   1.425 -0.2690 -0.1252  0.1747
 1611SOL     OW 6209   2.569   5.430   2.916 -0.0443 -0.6641  0.9614
 1611SOL    HW2 6210   2.608   5.347   2.944  0.3770 -1.5792 -2.0191
 1611SOL    HW3 6211   2.478   5.409   2.894  0.2766 -0.5591 -0.5664
 1611SOL    MW4 6212   2.562   5.417   2.917 -0.1340 -0.2629 -0.5168
 1612SOL     OW 6213   5.287   0.744   4.236 -0.3995  0.5446  0.0615
 1612SOL    HW2 6214   5.265   0.773   4.325 -1.5194 -0.7867  0.2579
 1612SOL    HW3 6215   5.239   0.805   4.179 -0.2639  0.9532  0.3763
 1612SOL    MW4 6216   5.278   0.756   4.241 -0.4328 -0.1528  0.2901
 1613SOL     OW 6217   1.940   2.805   6.360  0.2147 -0.4682  0.2795
 1613SOL    HW2 6218   1.966   2.807   6.453  2.0133  0.6511 -0.1993
 1613SOL    HW3 6219   1.861   2.858   6.356 -0.3136 -1.1386  1.2706
 1613SOL    MW4 6220   1.933   2.812   6.372 -0.4250 -0.3928  0.5230
 1614SOL     OW 6221   5.575   1.978   4.093 -0.0188  0.0881  0.4118
 1614SOL    HW2 6222   5.507   2.045   4.100 -1.6885 -1.5620  0.7968
 1614SOL    HW3 6223   5.643   2.018   4.038 -1.0095  2.0146  0.5217
 1614SOL    MW4 6224   5.575   1.992   4.087 -1.1378 -0.5848  0.1205
 1615SOL     OW 6225   2.936   3.511   1.686  0.7446 -0.4708  0.0357
 1615SOL    HW2 6226   3.027   3.495   1.664 -0.1690 -3.0276 -2.4372
 1615SOL    HW3 6227   2.888   3.436   1.651 -2.4099  1.0802  0.5763
 1615SOL    MW4 6228   2.942   3.499   1.678 -0.5296  0.8439 -0.2621
 1616SOL     OW 6229   3.420   2.807   1.863 -0.4337  0.1355 -0.1446
 1616SOL    HW2 6230   3.474   2.728   1.858 -2.0320 -0.9379 -1.8059
 1616SOL    HW3 6231   3.338   2.777   1.903 -0.0673  1.6110  1.8448
 1616SOL    MW4 6232   3.417   2.793   1.867  0.1153 -0.1123 -0.3824
 1617SOL     OW 6233   4.300   4.387   4.967  0.1197  0.3742 -0.0579
 1617SOL    HW2 6234   4.369   4.345   4.916  0.2418  0.7888 -0.2331
 1617SOL    HW3 6235   4.317   4.481   4.959  1.0954  0.4488  2.0317
 1617SOL    MW4 6236   4.311   4.394   4.959 -0.1102 -0.0351  0.4985
 1618SOL     OW 6237   5.008   5.701   2.608 -0.0983  0.0377 -0.1816
 1618SOL    HW2 6238   5.046   5.726   2.523  0.7899  1.4446  0.5809
 1618SOL    HW3 6239   5.030   5.609   2.618  3.1714  0.7309  0.1560
 1618SOL    MW4 6240   5.016   5.692   2.598 -0.0184  0.3354  0.0964
 1619SOL     OW 6241   3.338   6.440   5.655 -0.3541  0.1002  0.1306
 1619SOL    HW2 6242   3.299   6.517   5.614 -1.3461 -1.9602 -3.2338
 1619SOL    HW3 6243   3.267   6.401   5.707 -1.0816 -0.5103 -1.2646
 1619SOL    MW4 6244   3.323   6.445   5.657  0.3937 -0.0624  0.4629
 1620SOL     OW 6245   2.995   1.514   3.345 -0.2811 -0.4299  0.6779
 1620SOL    HW2 6246   3.050   1.522   3.423 -1.2044 -1.9625  1.5411
 1620SOL    HW3 6247   3.056   1.513   3.272  0.8012 -1.5278  1.5723
 1620SOL    MW4 6248   3.010   1.515   3.346  0.3019 -0.2385 -0.6272
 1621SOL     OW 6249   2.292   1.016   1.282  0.4360 -0.0343  0.1896
 1621SOL    HW2 6250   2.326   0.927   1.278 -0.5393 -0.3895 -0.2953
 1621SOL    HW3 6251   2.338   1.055   1.357  1.7898 -0.5341 -0.3503
 1621SOL    MW4 6252   2.303   1.010   1.292 -0.4320  0.7112  0.0707
 1622SOL     OW 6253   4.067   3.813   0.246  0.4723  0.3938  0.1997
 1622SOL    HW2 6254   4.079   3.725   0.212  1.1850  0.1007  1.1866
 1622SOL    HW3 6255   4.075   3.805   0.341  0.1214  1.4515  0.3416
 1622SOL    MW4 6256   4.070   3.801   0.254  0.0243 -0.7988  0.2973
 1623SOL     OW 6257   2.168   5.230   4.090 -0.1976  0.1809 -0.2047
 1623SOL    HW2 6258   2.095   5.288   4.110 -1.1536 -1.2712  0.6611
 1623SOL    HW3 6259   2.185   5.183   4.172  0.2493 -1.0833 -0.9852
 1623SOL    MW4 6260   2.161   5.231   4.103 -0.0125  0.0027 -0.2801
 1624SOL     OW 6261   5.528   6.196   0.029 -0.1806 -0.3116  0.3832
 1624SOL    HW2 6262   5.451   6.243  -0.000 -0.7617 -1.2923  0.2856
 1624SOL    HW3 6263   5.579   6.182  -0.051  0.1328  0.3718  0.4539
 1624SOL    MW4 6264   5.525   6.200   0.014 -0.0144 -0.1185  0.1130
 1625SOL     OW 6265   4.846   2.445   5.220 -0.0847  0.6434  0.4072
 1625SOL    HW2 6266   4.871   2.436   5.128 -0.7293  1.3135  0.1543
 1625SOL    HW3 6267   4.819   2.357   5.246 -0.1927  0.5106 -0.1390
 1625SOL    MW4 6268   4.846   2.432   5.211 -0.3501  0.2276  0.5365
 1626SOL     OW 6269   2.925   1.410   1.376 -0.1014  0.4377 -0.0721
 1626SOL    HW2 6270   2.931   1.437   1.468  0.0617 -0.7053  0.2695
 1626SOL    HW3 6271   2.840   1.444   1.347 -1.4946 -1.5800  1.3582
 1626SOL    MW4 6272   2.914   1.418   1.385 -0.0110 -0.0071 -0.1973
 1627SOL     OW 6273   3.412   5.341   1.839 -0.0831  0.1654 -0.3275
 1627SOL    HW2 6274   3.406   5.434   1.858 -1.5546 -0.1955  1.2780
 1627SOL    HW3 6275   3.364   5.330   1.756 -1.0674  0.6753  0.1589
 1627SOL    MW4 6276   3.405   5.352   1.830  0.3894 -0.0821 -0.8223
 1628SOL     OW 6277   2.908   4.815   0.143  0.5208  0.2832  0.5090
 1628SOL    HW2 6278   2.938   4.899   0.109 -0.1000  0.2744 -0.0744
 1628SOL    HW3 6279   2.878   4.835   0.231  0.6347  0.6176  0.4756
 1628SOL    MW4 6280   2.908   4.829   0.150  0.3410  0.3498 -0.3549
 1629SOL     OW 6281   2.602   3.891   1.131  0.6853  0.0258 -0.3448
 1629SOL    HW2 6282   2.600   3.796   1.133  0.0423  0.0161 -1.1256
 1629SOL    HW3 6283   2.695   3.914   1.140  0.9069 -0.6829 -0.8116
 1629SOL    MW4 6284   2.614   3.882   1.133 -0.1370  0.1342 -0.4821
 1630SOL     OW 6285   5.827   4.851   0.759  0.1515  0.4364  0.1751
 1630SOL    HW2 6286   5.792   4.838   0.671  1.8985  1.4506 -0.7305
 1630SOL    HW3 6287   5.775   4.923   0.795 -0.6457 -0.0595  0.0343
 1630SOL    MW4 6288   5.815   4.859   0.752 -0.1308 -0.1526 -0.1157
 1631SOL     OW 6289   0.349   2.121   6.230  0.6897 -0.0334 -0.7413
 1631SOL    HW2 6290   0.280   2.143   6.168 -1.7039 -0.4772  1.5724
 1631SOL    HW3 6291   0.348   2.025   6.234  1.0719 -0.0233 -0.2631
 1631SOL    MW4 6292   0.340   2.111   6.222 -0.2080  0.0434 -0.7278
 1632SOL     OW 6293   4.940   1.647   2.283 -0.2481  0.4111 -0.1174
 1632SOL    HW2 6294   4.888   1.574   2.249 -0.9974  0.6644  0.4462
 1632SOL    HW3 6295   4.973   1.691   2.205 -1.7769  0.8664 -0.5508
 1632SOL    MW4 6296   4.937   1.643   2.268 -0.1121  0.3474 -0.3444
 1633SOL     OW 6297   4.181   0.947   0.114  0.0432 -0.0849  0.3162
 1633SOL    HW2 6298   4.237   0.869   0.106  0.4309 -0.0593  2.1524
 1633SOL    HW3 6299   4.233   1.017   0.075  0.7223 -0.3265  0.7484
 1633SOL    MW4 6300   4.195   0.946   0.108 -0.3445 -0.5761  0.3815
 1634SOL     OW 6301   3.386   2.387   5.556 -0.0917 -0.0115 -0.3297
 1634SOL    HW2 6302   3.332   2.429   5.623 -1.8167 -2.5531  0.0225
 1634SOL    HW3 6303   3.342   2.407   5.474  0.0282  0.2241 -0.3366
 1634SOL    MW4 6304   3.373   2.395   5.554 -0.5528  0.1728 -0.1355
 1635SOL     OW 6305   2.602   2.469   4.347 -0.3650 -0.4206 -0.3354
 1635SOL    HW2 6306   2.692   2.489   4.322 -0.9218  1.4220 -1.0545
 1635SOL    HW3 6307   2.596   2.497   4.439 -0.1742 -0.6517 -0.2531
 1635SOL    MW4 6308   2.613   2.476   4.356  0.1089 -0.0214 -0.5220
 1636SOL     OW 6309   2.638   0.071   2.960  0.5102  0.3785  0.4767
 1636SOL    HW2 6310   2.578   0.005   2.996  1.7553 -0.7503  0.5524
 1636SOL    HW3 6311   2.707   0.078   3.026  2.1041 -0.7006 -0.9852
 1636SOL    MW4 6312   2.639   0.063   2.974  0.2034  0.4235 -0.0058
 1637SOL     OW 6313   2.146   4.087   0.839  0.1231  0.6821  1.0916
 1637SOL    HW2 6314   2.221   4.082   0.899 -1.3065 -1.7975  2.8365
 1637SOL    HW3 6315   2.074   4.047   0.887 -1.9574  1.4772 -1.1480
 1637SOL    MW4 6316   2.146   4.081   0.853  0.3960  0.6323 -0.0900
 1638SOL     OW 6317   5.593   0.759   4.223 -0.3184 -0.1566 -0.0271
 1638SOL    HW2 6318   5.543   0.818   4.279 -0.4001 -0.4524  0.2176
 1638SOL    HW3 6319   5.649   0.710   4.283  1.0142  0.8602 -0.3792
 1638SOL    MW4 6320   5.594   0.760   4.238  0.1431  0.0991  0.1396
 1639SOL     OW 6321   2.815   5.776   4.151 -0.0052  0.8464 -0.2076
 1639SOL    HW2 6322   2.774   5.815   4.074  0.0203 -2.1667 -1.9163
 1639SOL    HW3 6323   2.906   5.762   4.125 -0.1778 -0.9367 -0.0282
 1639SOL    MW4 6324   2.822   5.779   4.138 -0.1372 -0.0646 -0.1476
 1640SOL     OW 6325   5.478   3.631   4.138 -0.2266  0.4281  0.4420
 1640SOL    HW2 6326   5.528   3.557   4.172 -0.4609 -0.0709 -0.2953
 1640SOL    HW3 6327   5.404   3.592   4.093 -1.1422  1.1511  1.2741
 1640SOL    MW4 6328   5.475   3.616   4.137  0.1292  0.4580 -0.0551
 1641SOL     OW 6329   1.104   6.207   4.860 -0.9148  0.2477 -0.2878
 1641SOL    HW2 6330   1.017   6.169   4.854 -0.5421 -0.6379 -0.3130
 1641SOL    HW3 6331   1.151   6.174   4.783  0.3342 -1.7575  1.2278
 1641SOL    MW4 6332   1.099   6.198   4.849 -0.0482  0.0616  0.1660
 1642SOL     OW 6333   2.854   2.890   4.919 -0.4848  0.1329 -0.5864
 1642SOL    HW2 6334   2.800   2.965   4.944  1.1565  1.2894 -0.3991
 1642SOL    HW3 6335   2.818   2.817   4.969 -2.6934  0.5495 -1.4480
 1642SOL    MW4 6336   2.842   2.890   4.929 -0.1655  0.2680 -0.0679
 1643SOL     OW 6337   5.505   5.251   3.884 -0.0052 -0.2231  0.2021
 1643SOL    HW2 6338   5.470   5.315   3.822  0.3217 -0.7376 -0.5266
 1643SOL    HW3 6339   5.538   5.303   3.957  1.2985  0.5320 -0.8825
 1643SOL    MW4 6340   5.505   5.266   3.886 -0.3987  0.1999 -0.4045
 1644SOL     OW 6341   1.150   0.544   0.281  0.0740 -0.0031 -0.4162
 1644SOL    HW2 6342   1.179   0.556   0.372  1.8400  1.0711 -1.0608
 1644SOL    HW3 6343   1.169   0.628   0.239 -0.4084 -0.5853 -1.8711
 1644SOL    MW4 6344   1.156   0.557   0.287 -0.4748  0.0490  0.5090
 1645SOL     OW 6345   5.578   2.302   3.198 -0.2110 -0.0209 -0.3268
 1645SOL    HW2 6346   5.504   2.246   3.174 -1.0624  0.0066  1.9219
 1645SOL    HW3 6347   5.555   2.388   3.164 -0.8566 -0.1856 -0.3266
 1645SOL    MW4 6348   5.565   2.306   3.191  0.4738 -0.3081 -0.3617
 1646SOL     OW 6349   2.266   3.847   2.133  0.4899 -0.3257  0.0527
 1646SOL    HW2 6350   2.329   3.914   2.161  0.7468  0.2129 -1.6720
 1646SOL    HW3 6351   2.246   3.871   2.042 -0.7984 -1.5685 -0.0125
 1646SOL    MW4 6352   2.272   3.859   2.125  0.3201  0.5958  0.1707
 1647SOL     OW 6353   1.039   1.919   1.145 -0.5703 -0.0788  0.2900
 1647SOL    HW2 6354   1.040   1.823   1.152  0.0764  0.0134  2.3835
 1647SOL    HW3 6355   1.132   1.944   1.147 -0.7589  0.6267  0.5614
 1647SOL    MW4 6356   1.052   1.910   1.146 -0.2755 -0.3087  0.1823
 1648SOL     OW 6357   1.442   2.270   3.892  0.3467 -0.4620 -0.6738
 1648SOL    HW2 6358   1.381   2.329   3.849 -1.5814 -0.6889  1.5808
 1648SOL    HW3 6359   1.462   2.312   3.976 -0.4312 -2.5202  0.6397
 1648SOL    MW4 6360   1.437   2.283   3.897  0.4838  0.0282 -0.0589
 1649SOL     OW 6361   5.623   1.993   2.537 -0.2948 -0.3494 -0.5619
 1649SOL    HW2 6362   5.613   1.898   2.531 -0.4920 -0.3349 -0.4559
 1649SOL    HW3 6363   5.702   2.012   2.486  0.2160 -0.6614  0.1060
 1649SOL    MW4 6364   5.632   1.983   2.529  0.1345  0.0290 -0.4259
 1650SOL     OW 6365   3.470   4.539   3.309 -0.0366 -0.0575 -0.0596
 1650SOL    HW2 6366   3.439   4.581   3.229 -0.1782 -1.0210 -0.5288
 1650SOL    HW3 6367   3.556   4.576   3.324 -0.4204  0.8813 -0.0875
 1650SOL    MW4 6368   3.477   4.550   3.300  0.4010 -0.2078 -0.4496
 1651SOL     OW 6369   3.588   3.632   1.505 -0.3001 -0.2427  0.4545
 1651SOL    HW2 6370   3.598   3.584   1.587 -0.1108 -1.9878 -0.5419
 1651SOL    HW3 6371   3.678   3.650   1.476 -0.3616  0.0814  0.4561
 1651SOL    MW4 6372   3.601   3.628   1.512 -0.1134 -0.0142  0.3285
 1652SOL     OW 6373   3.372   6.273   0.561 -0.1495  0.3322  0.2908
 1652SOL    HW2 6374   3.377   6.252   0.654 -0.0222  0.3593  0.2904
 1652SOL    HW3 6375   3.396   6.365   0.555  0.4498  0.1725  0.1667
 1652SOL    MW4 6376   3.376   6.282   0.572 -0.3878  0.6064  0.2113
 1653SOL     OW 6377   4.988   6.479   0.621  0.4555  0.0886 -0.3660
 1653SOL    HW2 6378   5.065   6.424   0.634  1.4838  1.2622 -1.1897
 1653SOL    HW3 6379   4.966   6.468   0.529  0.9711  1.3879 -0.6616
 1653SOL    MW4 6380   4.995   6.470   0.611 -0.2492  0.7722 -0.4296
 1654SOL     OW 6381   4.446   4.638   5.611  0.2852  0.1788  0.1448
 1654SOL    HW2 6382   4.411   4.688   5.537  0.7777 -0.0503 -0.2529
 1654SOL    HW3 6383   4.417   4.548   5.595  0.9826 -0.0041 -0.1601
 1654SOL    MW4 6384   4.438   4.632   5.599 -0.2797  1.0605 -0.0934
 1655SOL     OW 6385   3.896   4.178   2.048  0.4802 -0.1864 -0.1615
 1655SOL    HW2 6386   3.885   4.257   2.101 -2.2014 -0.2703 -0.4825
 1655SOL    HW3 6387   3.874   4.106   2.106  3.2352 -0.8297  0.2295
 1655SOL    MW4 6388   3.892   4.179   2.062  0.5924 -0.4376 -0.2119
 1656SOL     OW 6389   4.445   3.258   0.109 -0.6338 -0.2145 -0.3696
 1656SOL    HW2 6390   4.521   3.310   0.082 -0.9344  1.1798  1.3291
 1656SOL    HW3 6391   4.378   3.278   0.044  0.1146 -0.7253 -1.3381
 1656SOL    MW4 6392   4.446   3.267   0.097 -0.2366  0.0582 -0.4322
 1657SOL     OW 6393   0.466   2.034   4.253 -0.0666 -0.4855  0.7025
 1657SOL    HW2 6394   0.412   2.072   4.322 -1.3118 -1.7066  0.4414
 1657SOL    HW3 6395   0.514   1.964   4.296  1.6588  0.8190  1.0155
 1657SOL    MW4 6396   0.465   2.030   4.268  0.9561 -0.1212  0.3907
 1658SOL     OW 6397   3.491   1.369   4.265 -0.1491  0.1431 -0.1237
 1658SOL    HW2 6398   3.562   1.312   4.233  0.5756  0.9495  0.0050
 1658SOL    HW3 6399   3.474   1.428   4.192 -1.4890 -0.7523 -0.5682
 1658SOL    MW4 6400   3.498   1.369   4.251  0.3478  0.3040  0.4933
 1659SOL     OW 6401   4.100   3.358   3.200 -0.0373 -0.4361  0.0924
 1659SOL    HW2 6402   4.103   3.323   3.111 -0.9737 -2.9757  0.9397
 1659SOL    HW3 6403   4.179   3.323   3.242 -1.6002 -2.8470  1.3104
 1659SOL    MW4 6404   4.111   3.348   3.194 -0.0157 -0.0546 -0.4218
 1660SOL     OW 6405   1.262   0.793   0.473  0.7731 -0.0229 -0.0112
 1660SOL    HW2 6406   1.166   0.794   0.471  0.7749 -0.0238 -1.5238
 1660SOL    HW3 6407   1.287   0.883   0.493  0.4508  0.2001 -0.5917
 1660SOL    MW4 6408   1.253   0.805   0.475  0.0114  0.1657  0.0349
 1661SOL     OW 6409   1.681   3.102   0.751 -0.4977 -0.2374  0.3823
 1661SOL    HW2 6410   1.683   3.187   0.795 -0.3094  1.2392 -2.2430
 1661SOL    HW3 6411   1.759   3.056   0.783  1.4821  2.0944 -0.7234
 1661SOL    MW4 6412   1.692   3.107   0.761 -0.8910 -0.2604  0.3178
 1662SOL     OW 6413   1.893   1.988   4.892 -0.0100  0.1675 -0.4097
 1662SOL    HW2 6414   1.886   1.894   4.903  0.4425  0.1769 -0.0302
 1662SOL    HW3 6415   1.947   1.999   4.813 -0.9700  0.1128 -1.0925
 1662SOL    MW4 6416   1.899   1.977   4.883 -0.8440  0.2872 -0.5372
 1663SOL     OW 6417   5.536   4.342   4.406  0.0059 -0.6309 -0.3785
 1663SOL    HW2 6418   5.563   4.301   4.324 -1.2439  0.1916 -1.2383
 1663SOL    HW3 6419   5.440   4.342   4.402 -0.0835 -1.1349  1.3700
 1663SOL    MW4 6420   5.527   4.337   4.394 -0.1566  0.1534  0.0319
 1664SOL     OW 6421   5.070   5.701   1.593  0.8678  0.2082 -0.4252
 1664SOL    HW2 6422   5.140   5.655   1.547  1.5487  0.2959  0.4834
 1664SOL    HW3 6423   5.103   5.710   1.683 -0.8340 -0.8897  0.3588
 1664SOL    MW4 6424   5.084   5.696   1.599 -0.5807 -0.4495 -0.2012
 1665SOL     OW 6425   4.351   0.311   0.539  0.3057 -0.0959  0.3022
 1665SOL    HW2 6426   4.283   0.371   0.568 -0.4241 -0.6801 -0.1736
 1665SOL    HW3 6427   4.407   0.300   0.615  1.0302  1.9434  0.1182
 1665SOL    MW4 6428   4.349   0.317   0.553  0.3244 -0.3652  0.5009
 1666SOL     OW 6429   6.346   2.087   2.942 -0.5830  0.3618  0.2239
 1666SOL    HW2 6430   6.298   2.148   2.886 -0.9018 -0.0207  0.0809
 1666SOL    HW3 6431   6.292   2.079   3.020 -1.8476 -1.7074 -0.7989
 1666SOL    MW4 6432   6.333   2.094   2.945  0.5732 -0.4467 -0.0075
 1667SOL     OW 6433   0.048   0.934   1.326  0.2948 -0.2169 -0.0160
 1667SOL    HW2 6434   0.126   0.879   1.331  1.7084  1.5787 -1.0246
 1667SOL    HW3 6435   0.054   0.990   1.404  0.8355  0.8869 -0.8210
 1667SOL    MW4 6436   0.059   0.934   1.337  0.2045 -0.2238  0.1511
 1668SOL     OW 6437   6.190   3.216   5.618 -0.0288 -0.3940  0.0389
 1668SOL    HW2 6438   6.159   3.263   5.695  1.2102  1.8890 -0.7695
 1668SOL    HW3 6439   6.241   3.143   5.653  1.4006  1.1995  1.4410
 1668SOL    MW4 6440   6.192   3.213   5.633 -0.3661  0.4741  0.3292
 1669SOL     OW 6441   0.485   4.003   3.975  0.4409 -0.0905 -0.0273
 1669SOL    HW2 6442   0.472   3.914   4.009  0.6135 -1.1289 -2.4447
 1669SOL    HW3 6443   0.569   3.999   3.929  0.0732  1.0878 -0.8462
 1669SOL    MW4 6444   0.494   3.991   3.973  0.0317  0.5363 -0.5752
 1670SOL     OW 6445   1.086   1.513   1.557  0.2194 -0.2464  0.1094
 1670SOL    HW2 6446   1.168   1.559   1.577 -0.4105  0.8564  0.2381
 1670SOL    HW3 6447   1.026   1.582   1.529 -0.5234 -1.1057 -0.4821
 1670SOL    MW4 6448   1.089   1.528   1.556 -0.5130  0.5350  0.3314
 1671SOL     OW 6449   1.462   4.850   6.317  0.6582 -0.4131 -0.0627
 1671SOL    HW2 6450   1.494   4.886   6.399 -0.0418 -3.2376  1.5598
 1671SOL    HW3 6451   1.383   4.902   6.298  1.3287  0.8651  0.5085
 1671SOL    MW4 6452   1.456   4.862   6.325 -0.1593  0.0559 -0.0987
 1672SOL     OW 6453   5.073   3.411   2.413  0.1007  0.1144  0.0449
 1672SOL    HW2 6454   4.981   3.437   2.419  0.3423  0.7479  1.3715
 1672SOL    HW3 6455   5.098   3.431   2.323 -0.9182  0.3894 -0.1876
 1672SOL    MW4 6456   5.064   3.417   2.402  0.3048 -0.8035 -0.0732
 1673SOL     OW 6457   6.129   3.140   0.261  0.5472  0.0075 -0.5341
 1673SOL    HW2 6458   6.218   3.127   0.292 -0.4341 -0.7964  2.3186
 1673SOL    HW3 6459   6.106   3.057   0.218  0.1318 -1.2397  1.8658
 1673SOL    MW4 6460   6.137   3.127   0.260 -0.1155 -0.0638 -0.5052
 1674SOL     OW 6461   1.336   1.620   3.053 -0.6743  0.0686  0.3814
 1674SOL    HW2 6462   1.379   1.679   2.991  1.1465 -1.1365  0.4242
 1674SOL    HW3 6463   1.247   1.610   3.019 -0.0326  0.2598 -1.4730
 1674SOL    MW4 6464   1.330   1.626   3.040  0.0467  0.7377 -0.1103
 1675SOL     OW 6465   3.820   3.810   5.365  0.6197 -0.4676 -0.7712
 1675SOL    HW2 6466   3.731   3.846   5.373  1.3534  0.9271  3.9063
 1675SOL    HW3 6467   3.811   3.717   5.388  0.4684  0.0233  1.3408
 1675SOL    MW4 6468   3.807   3.802   5.369  0.4909 -0.4923  0.1047
 1676SOL     OW 6469   1.014   1.255   5.076  0.5328 -0.7306  0.4210
 1676SOL    HW2 6470   1.095   1.209   5.098 -0.5473 -3.4700 -0.8830
 1676SOL    HW3 6471   0.998   1.232   4.984  0.1307  2.7669 -0.5232
 1676SOL    MW4 6472   1.022   1.246   5.067  0.0113 -0.5821 -0.0167
 1677SOL     OW 6473   6.077   1.223   2.332  0.0138 -0.4320  0.3659
 1677SOL    HW2 6474   6.056   1.311   2.299  0.4896  0.0370  1.2794
 1677SOL    HW3 6475   6.172   1.217   2.326  0.2884  0.2749  3.0404
 1677SOL    MW4 6476   6.087   1.234   2.327  0.9155  0.2227  0.3689
 1678SOL     OW 6477   5.692   4.070   6.389  0.5581  0.2492 -1.2959
 1678SOL    HW2 6478   5.771   4.042   6.343  0.0742 -3.4045 -0.1875
 1678SOL    HW3 6479   5.634   3.994   6.387 -0.4273  0.6148  3.1944
 1678SOL    MW4 6480   5.695   4.056   6.383 -0.5770  0.7575 -0.5011
 1679SOL     OW 6481   0.260   0.609   3.291 -1.3237 -0.5794  0.1567
 1679SOL    HW2 6482   0.308   0.533   3.258  1.3130  1.0641 -0.1463
 1679SOL    HW3 6483   0.273   0.606   3.386 -0.4610 -0.0921  0.0681
 1679SOL    MW4 6484   0.268   0.599   3.299  0.0806 -0.6128 -0.0263
 1680SOL     OW 6485   3.045   5.326   0.398  0.1296  0.6126  0.2914
 1680SOL    HW2 6486   2.976   5.260   0.393 -0.7884  1.6310 -1.5674
 1680SOL    HW3 6487   3.127   5.277   0.386 -0.3826 -0.4027  0.8394
 1680SOL    MW4 6488   3.047   5.311   0.396 -0.1245 -0.3645 -0.5750
 1681SOL     OW 6489   4.610   1.488   5.484  1.1715  0.4105 -0.2556
 1681SOL    HW2 6490   4.657   1.572   5.491  1.6960  0.0878  0.1890
 1681SOL    HW3 6491   4.609   1.454   5.574  0.1447  0.3724 -0.2712
 1681SOL    MW4 6492   4.616   1.495   5.497  0.2374 -0.0461 -0.3755
 1682SOL     OW 6493   2.934   3.290   4.291  0.2890 -0.7155  0.1880
 1682SOL    HW2 6494   2.991   3.214   4.301  1.1358 -0.0725  0.3907
 1682SOL    HW3 6495   2.956   3.326   4.204  2.2558  1.1284  1.3339
 1682SOL    MW4 6496   2.944   3.285   4.281 -0.1390 -0.2327  0.5664
 1683SOL     OW 6497   5.460   1.286   3.638 -0.4526 -0.2023  0.2535
 1683SOL    HW2 6498   5.497   1.360   3.686 -0.8639  0.0173  0.2402
 1683SOL    HW3 6499   5.477   1.210   3.692  0.5735 -0.1957 -0.0479
 1683SOL    MW4 6500   5.467   1.286   3.651 -0.1074  0.6281 -0.2706
 1684SOL     OW 6501   3.412   4.453   4.051  0.4198  0.2271  0.3099
 1684SOL    HW2 6502   3.325   4.456   4.092 -0.9954  1.3512 -2.4566
 1684SOL    HW3 6503   3.426   4.360   4.031 -1.0537  0.1984 -0.8003
 1684SOL    MW4 6504   3.402   4.441   4.054  0.0777  0.1102  0.6160
 1685SOL     OW 6505   4.640   2.968   3.410 -0.0069 -0.4756  0.0317
 1685SOL    HW2 6506   4.622   3.044   3.354 -0.8719 -0.8155 -0.1500
 1685SOL    HW3 6507   4.554   2.938   3.440  0.1886 -2.3647 -1.1751
 1685SOL    MW4 6508   4.627   2.974   3.407 -0.0326  0.1252 -0.7425
 1686SOL     OW 6509   3.333   4.382   2.049  0.6372 -0.7282  0.3946
 1686SOL    HW2 6510   3.308   4.472   2.027  0.9568 -0.7204  0.0594
 1686SOL    HW3 6511   3.288   4.328   1.985  0.7572 -0.7775  0.3508
 1686SOL    MW4 6512   3.324   4.387   2.038  0.0309  0.2313 -0.3374
 1687SOL     OW 6513   1.224   5.889   1.999 -0.7397  0.3171 -0.5379
 1687SOL    HW2 6514   1.287   5.946   1.956 -1.6961  1.3919 -0.5793
 1687SOL    HW3 6515   1.210   5.929   2.085 -1.1470 -0.0589 -0.4246
 1687SOL    MW4 6516   1.230   5.902   2.005  0.1181 -0.2951 -0.1766
 1688SOL     OW 6517   2.725   0.712   5.571 -0.5029  0.1731  0.9339
 1688SOL    HW2 6518   2.754   0.659   5.646 -0.8985  0.2624  1.1480
 1688SOL    HW3 6519   2.633   0.689   5.560 -0.2778 -0.3590  0.0384
 1688SOL    MW4 6520   2.717   0.702   5.579  0.3263 -0.1095  0.3640
 1689SOL     OW 6521   5.371   2.241   0.888 -0.4392 -0.0358  0.0334
 1689SOL    HW2 6522   5.427   2.216   0.815  0.9596  0.2858  0.9498
 1689SOL    HW3 6523   5.313   2.307   0.852 -1.2089 -1.3755 -1.2972
 1689SOL    MW4 6524   5.371   2.246   0.874  0.2597  0.4321  0.4443
 1690SOL     OW 6525   0.828   5.226   0.998 -0.3308  0.4439  0.0986
 1690SOL    HW2 6526   0.761   5.211   0.930  0.0253 -2.8142  0.3307
 1690SOL    HW3 6527   0.779   5.266   1.070 -1.2478  1.5376 -1.0707
 1690SOL    MW4 6528   0.812   5.230   0.998  0.3237  0.3317  0.2018
 1691SOL     OW 6529   1.605   5.942   6.108 -0.0839  0.3090  0.0681
 1691SOL    HW2 6530   1.513   5.923   6.130 -0.3140 -0.5895 -1.4923
 1691SOL    HW3 6531   1.655   5.901   6.178 -0.8498  0.0778  0.5007
 1691SOL    MW4 6532   1.599   5.934   6.120 -0.4894  0.6050 -0.7013
 1692SOL     OW 6533   2.210   1.816   5.547  0.1338 -0.7206 -0.6114
 1692SOL    HW2 6534   2.160   1.852   5.620  0.5313 -0.1281 -0.6266
 1692SOL    HW3 6535   2.225   1.725   5.570 -0.0643 -0.6313 -0.1279
 1692SOL    MW4 6536   2.205   1.809   5.559 -0.1873  0.0699  0.6106
 1693SOL     OW 6537   2.872   1.747   3.299  0.3045 -0.1646 -0.3262
 1693SOL    HW2 6538   2.780   1.749   3.325  0.3924  0.8099 -0.0619
 1693SOL    HW3 6539   2.895   1.654   3.300 -0.9471 -0.5068 -1.3746
 1693SOL    MW4 6540   2.863   1.735   3.303 -0.3277 -0.0111  0.3046
 1694SOL     OW 6541   0.023   2.708   2.935  0.6010  0.2550 -0.4329
 1694SOL    HW2 6542   0.010   2.632   2.991  0.3963 -0.5420 -1.5244
 1694SOL    HW3 6543   0.112   2.697   2.901  0.3133  0.1034 -1.1581
 1694SOL    MW4 6544   0.033   2.697   2.938 -0.2379 -0.7502 -1.0142
 1695SOL     OW 6545   1.958   0.155   0.845 -1.0625 -0.1588  1.2810
 1695SOL    HW2 6546   1.876   0.201   0.829 -0.9790  0.2374  1.9256
 1695SOL    HW3 6547   1.979   0.113   0.762 -1.6793  0.1139  0.9791
 1695SOL    MW4 6548   1.950   0.156   0.832  0.0038 -0.1689  0.1448
 1696SOL     OW 6549   1.166   3.217   1.304  0.0545  0.1965  0.4100
 1696SOL    HW2 6550   1.118   3.143   1.341  0.3017 -0.2521 -0.1572
 1696SOL    HW3 6551   1.214   3.253   1.379 -0.2842 -0.0452  0.7486
 1696SOL    MW4 6552   1.166   3.212   1.319  0.2404 -0.7141 -0.0298
 1697SOL     OW 6553   4.860   0.109   0.874  0.6444  0.5685 -0.1476
 1697SOL    HW2 6554   4.766   0.127   0.877  0.9513  2.2744  0.3897
 1697SOL    HW3 6555   4.876   0.082   0.784  0.0218  2.8928 -1.0393
 1697SOL    MW4 6556   4.850   0.108   0.863  0.0036 -0.0496  0.7497
 1698SOL     OW 6557   4.716   0.182   1.650  0.6484 -0.4902  0.6381
 1698SOL    HW2 6558   4.809   0.190   1.626  0.8465 -0.0379  1.4990
 1698SOL    HW3 6559   4.695   0.266   1.690 -0.0783 -0.6722  0.6443
 1698SOL    MW4 6560   4.726   0.194   1.653  0.5139 -0.4776  0.3250
 1699SOL     OW 6561   3.534   0.501   4.252  1.0369 -0.0895 -0.1328
 1699SOL    HW2 6562   3.581   0.500   4.169  0.7153  0.9109 -0.3435
 1699SOL    HW3 6563   3.570   0.577   4.298  0.4144  0.0234  0.1701
 1699SOL    MW4 6564   3.545   0.511   4.247 -0.2518  0.3489 -0.0103
 1700SOL     OW 6565   3.923   2.408   1.609 -0.1044  0.3580 -0.6782
 1700SOL    HW2 6566   3.875   2.389   1.690 -0.2933 -1.1422 -1.1213
 1700SOL    HW3 6567   4.010   2.436   1.639  0.6770 -2.5882  0.0487
 1700SOL    MW4 6568   3.928   2.409   1.624 -0.2291 -0.1066 -0.2577
 1701SOL     OW 6569   5.668   5.839   0.977  0.4145  0.1984 -0.1495
 1701SOL    HW2 6570   5.756   5.877   0.970  0.6251  0.3440  2.5061
 1701SOL    HW3 6571   5.650   5.838   1.071 -1.0796 -2.9253 -0.3700
 1701SOL    MW4 6572   5.678   5.844   0.988  0.2965  0.2523 -0.0753
 1702SOL     OW 6573   5.973   1.333   1.957  0.2062  0.3296 -0.0131
 1702SOL    HW2 6574   6.044   1.348   1.895 -0.1141 -0.3083 -0.5490
 1702SOL    HW3 6575   6.008   1.361   2.042 -0.3558  4.1249 -0.8762
 1702SOL    MW4 6576   5.987   1.338   1.960  0.5971  0.1924  0.2140
 1703SOL     OW 6577   1.357   1.215   4.520 -0.5922 -0.7457  0.2011
 1703SOL    HW2 6578   1.330   1.197   4.430 -0.2434  0.5280 -0.1833
 1703SOL    HW3 6579   1.367   1.311   4.524  0.5083 -0.8693  1.2680
 1703SOL    MW4 6580   1.355   1.226   4.509 -0.2994 -0.0317 -0.1288
 1704SOL     OW 6581   2.441   6.428   5.874 -0.4262 -0.3200  0.4799
 1704SOL    HW2 6582   2.408   6.517   5.887  0.4256 -0.0248  0.6896
 1704SOL    HW3 6583   2.402   6.377   5.944  2.6430  0.8545  3.2850
 1704SOL    MW4 6584   2.431   6.433   5.885  0.3645  0.2593 -0.4607
 1705SOL     OW 6585   2.136   4.787   6.082  0.0988 -0.7652  0.1871
 1705SOL    HW2 6586   2.210   4.779   6.021 -0.7302  0.5804 -1.0736
 1705SOL    HW3 6587   2.063   4.816   6.027 -0.9955 -0.6470  1.6502
 1705SOL    MW4 6588   2.136   4.790   6.066 -0.2736 -0.3357  0.3045
 1706SOL     OW 6589   3.982   0.728   1.846  0.3946  0.2969 -0.5194
 1706SOL    HW2 6590   3.932   0.658   1.803 -1.5198  1.4685 -0.2900
 1706SOL    HW3 6591   4.073   0.713   1.818 -0.2744 -1.0393 -2.1192
 1706SOL    MW4 6592   3.988   0.717   1.837  0.0603  0.3953 -0.7000
 1707SOL     OW 6593   1.292   6.153   5.746  0.4417  0.1128  0.1577
 1707SOL    HW2 6594   1.290   6.172   5.652  0.8717  0.2749  0.1756
 1707SOL    HW3 6595   1.202   6.161   5.775  0.1054 -1.1003 -0.4680
 1707SOL    MW4 6596   1.280   6.156   5.737 -0.8851  0.2183 -0.2013
 1708SOL     OW 6597   4.842   3.754   4.116 -0.1739  0.0599 -0.3655
 1708SOL    HW2 6598   4.933   3.766   4.142  0.3418 -0.2123 -1.9087
 1708SOL    HW3 6599   4.846   3.737   4.022 -1.6769 -1.6771 -0.1931
 1708SOL    MW4 6600   4.854   3.753   4.107  0.8314  0.7451 -0.4594
 1709SOL     OW 6601   5.414   4.294   5.102 -1.0408 -0.0926  0.7677
 1709SOL    HW2 6602   5.397   4.200   5.095 -0.4142 -0.2851  1.6999
 1709SOL    HW3 6603   5.501   4.300   5.141 -0.0222  0.8697 -1.4648
 1709SOL    MW4 6604   5.423   4.282   5.106 -0.6499  0.3560  0.9695
 1710SOL     OW 6605   2.871   3.716   3.331  0.3362 -0.8541  0.4726
 1710SOL    HW2 6606   2.900   3.647   3.391  1.2982 -0.5410  0.3825
 1710SOL    HW3 6607   2.948   3.736   3.278 -0.2395 -0.4685 -0.2391
 1710SOL    MW4 6608   2.885   3.710   3.332 -0.6966  0.3123 -0.2362
 1711SOL     OW 6609   0.902   0.166   5.625  0.2311  0.0546  0.1545
 1711SOL    HW2 6610   0.854   0.199   5.549  0.0444  0.9606  0.6619
 1711SOL    HW3 6611   0.883   0.228   5.695  0.1541 -0.9363  1.0387
 1711SOL    MW4 6612   0.893   0.178   5.624 -0.3043  1.0137 -0.1027
 1712SOL     OW 6613   3.940   4.157   0.489 -0.1480 -0.5967  0.4814
 1712SOL    HW2 6614   4.002   4.229   0.498 -2.3173  1.3890  0.6461
 1712SOL    HW3 6615   3.968   4.092   0.553  0.8744  0.9015  1.6078
 1712SOL    MW4 6616   3.952   4.158   0.498 -0.3847 -0.0250 -0.2741
 1713SOL     OW 6617   0.428   5.638   1.622 -0.3647 -0.5376  0.1342
 1713SOL    HW2 6618   0.349   5.588   1.600 -0.8377  0.8912 -1.6886
 1713SOL    HW3 6619   0.408   5.677   1.708 -1.0718 -1.2969  0.3278
 1713SOL    MW4 6620   0.415   5.637   1.630 -0.3250 -0.1104  0.5212
 1714SOL     OW 6621   2.579   2.136   0.884  0.6904  0.1039 -0.6640
 1714SOL    HW2 6622   2.594   2.073   0.814 -2.2092 -0.3925 -0.9805
 1714SOL    HW3 6623   2.567   2.082   0.962  0.5641  0.4280 -0.4571
 1714SOL    MW4 6624   2.579   2.121   0.885  0.7608  0.1805 -0.2624
 1715SOL     OW 6625   2.492   3.036   5.223 -0.1076 -0.5503  0.3183
 1715SOL    HW2 6626   2.554   3.049   5.152  0.8869 -0.0316  1.2594
 1715SOL    HW3 6627   2.406   3.043   5.180  0.3623  2.8928 -0.4080
 1715SOL    MW4 6628   2.489   3.039   5.208  0.4958  0.6757  0.2030
 1716SOL     OW 6629   3.077   2.607   5.164 -0.0351 -0.8082 -0.5657
 1716SOL    HW2 6630   3.039   2.678   5.214 -0.2643 -0.5003 -1.1753
 1716SOL    HW3 6631   3.009   2.539   5.162  0.6791 -1.6566  1.2211
 1716SOL    MW4 6632   3.063   2.607   5.170 -0.2430 -0.0142 -0.2721
 1717SOL     OW 6633   1.647   2.467   5.246 -0.2307 -0.0466 -0.6939
 1717SOL    HW2 6634   1.632   2.412   5.322 -1.0352  1.9537  0.6691
 1717SOL    HW3 6635   1.662   2.555   5.281  0.1131  0.8114 -2.8000
 1717SOL    MW4 6636   1.647   2.472   5.260 -0.4996 -0.1382 -0.1592
 1718SOL     OW 6637   3.935   3.379   5.289 -0.6657  0.1638  0.1663
 1718SOL    HW2 6638   3.846   3.397   5.258 -0.5835  1.0097  0.3965
 1718SOL    HW3 6639   3.968   3.312   5.229 -1.4773 -0.2001  0.1170
 1718SOL    MW4 6640   3.927   3.372   5.277 -0.3822 -0.0166  0.4835
 1719SOL     OW 6641   3.640   4.367   5.365 -0.0335 -0.1347  0.2176
 1719SOL    HW2 6642   3.557   4.357   5.411  0.1202 -1.2550  0.2729
 1719SOL    HW3 6643   3.634   4.307   5.291  0.7336 -0.2426  0.2322
 1719SOL    MW4 6644   3.628   4.358   5.361  0.9119  0.1327 -0.1400
 1720SOL     OW 6645   6.065   5.022   6.408 -0.2637  0.1410 -0.0203
 1720SOL    HW2 6646   5.991   5.081   6.393 -0.1512  0.0705 -0.9331
 1720SOL    HW3 6647   6.048   4.947   6.352  1.5191  1.0576 -1.9368
 1720SOL    MW4 6648   6.053   5.020   6.399  0.4184  0.2275  0.4204
 1721SOL     OW 6649   2.774   5.131   5.026 -0.0491 -0.2183 -0.0684
 1721SOL    HW2 6650   2.797   5.143   4.934 -2.5613 -1.1613 -0.8999
 1721SOL    HW3 6651   2.727   5.048   5.029  1.9923 -1.4716  2.5294
 1721SOL    MW4 6652   2.771   5.122   5.014  0.3170 -0.8015  0.4750
 1722SOL     OW 6653   6.343   5.660   5.937 -0.4884 -0.1043  0.2200
 1722SOL    HW2 6654   6.365   5.651   6.030 -0.4077  0.1626  0.2271
 1722SOL    HW3 6655   6.362   5.752   5.917  2.7790 -0.9042 -0.9324
 1722SOL    MW4 6656   6.348   5.671   5.947  0.8267 -0.7730  0.3622
 1723SOL     OW 6657   0.445   3.228   6.238 -0.3904  0.7000 -0.1132
 1723SOL    HW2 6658   0.450   3.140   6.275 -0.5038  1.3027  1.4475
 1723SOL    HW3 6659   0.352   3.241   6.219 -0.3140  0.3346 -0.7336
 1723SOL    MW4 6660   0.433   3.218   6.241 -0.5725  0.1137 -0.1044
 1724SOL     OW 6661   3.301   3.051   6.428  0.6173  1.0094  0.0160
 1724SOL    HW2 6662   3.364   2.980   6.417  0.2974  0.5725  0.9276
 1724SOL    HW3 6663   3.272   3.072   6.339  1.2271  0.4753 -0.3155
 1724SOL    MW4 6664   3.306   3.045   6.414  0.0341  0.2621 -0.1888
 1725SOL     OW 6665   2.969   3.183   3.893  0.5021  0.2020 -0.0121
 1725SOL    HW2 6666   3.059   3.171   3.925  0.1094  0.5761  1.2960
 1725SOL    HW3 6667   2.935   3.256   3.944 -0.6272 -0.1001 -0.3068
 1725SOL    MW4 6668   2.976   3.191   3.904  0.3049 -0.4701  0.1664
 1726SOL     OW 6669   3.578   1.810   1.840  0.0004  0.0290  0.1269
 1726SOL    HW2 6670   3.521   1.823   1.916 -1.6100 -1.2021 -0.8025
 1726SOL    HW3 6671   3.635   1.737   1.864 -0.5978 -0.4463  0.1243
 1726SOL    MW4 6672   3.578   1.802   1.853  0.5787  0.2351 -0.2769
 1727SOL     OW 6673   3.616   6.197   2.695  0.0711  0.4415 -0.0124
 1727SOL    HW2 6674   3.536   6.223   2.649  0.4741  0.2914 -0.7943
 1727SOL    HW3 6675   3.612   6.101   2.699 -1.2672  0.5052  2.6140
 1727SOL    MW4 6676   3.605   6.188   2.690 -0.5148  0.5178 -0.2861
 1728SOL     OW 6677   3.104   1.683   0.319 -1.0237 -0.3376 -0.2586
 1728SOL    HW2 6678   3.145   1.612   0.268 -2.0836 -0.4922 -0.9232
 1728SOL    HW3 6679   3.027   1.642   0.358 -1.8282  0.5221 -0.9090
 1728SOL    MW4 6680   3.100   1.668   0.317  0.1884  0.3363  0.0551
 1729SOL     OW 6681   2.824   4.516   0.709 -0.6830 -0.1313  0.7466
 1729SOL    HW2 6682   2.860   4.573   0.778 -0.1470 -1.8958  2.0052
 1729SOL    HW3 6683   2.745   4.561   0.679  0.3845  1.8699  0.7861
 1729SOL    MW4 6684   2.818   4.530   0.714 -0.1544 -0.3795 -0.5746
 1730SOL     OW 6685   3.945   5.531   4.456 -0.9267 -0.0561 -0.2839
 1730SOL    HW2 6686   3.937   5.508   4.548  0.2643  1.2403  0.1803
 1730SOL    HW3 6687   3.869   5.585   4.438 -0.0616  1.5148  0.5709
 1730SOL    MW4 6688   3.934   5.535   4.466  0.1290  0.3824 -0.0964
 1731SOL     OW 6689   3.643   2.951   2.482  0.0027 -0.2264 -0.1406
 1731SOL    HW2 6690   3.646   2.897   2.561  1.0493  0.8725  0.6149
 1731SOL    HW3 6691   3.684   3.033   2.508 -1.6257  0.9760 -1.2351
 1731SOL    MW4 6692   3.649   2.954   2.496 -0.3639 -0.0577 -0.0845
 1732SOL     OW 6693   1.440   2.095   1.348 -0.2422  0.6513 -0.3429
 1732SOL    HW2 6694   1.400   2.033   1.288  1.8194 -0.4403 -0.6751
 1732SOL    HW3 6695   1.478   2.162   1.292  1.4811 -0.2449 -0.3068
 1732SOL    MW4 6696   1.439   2.096   1.333  0.8737  0.2632 -0.5923
 1733SOL     OW 6697   2.598   2.599   6.130  0.1313 -0.4760 -0.1197
 1733SOL    HW2 6698   2.528   2.594   6.065  0.1280  0.7400 -0.2425
 1733SOL    HW3 6699   2.552   2.614   6.213  0.2063 -0.3103 -0.1065
 1733SOL    MW4 6700   2.583   2.600   6.132 -0.2919  0.9996 -0.0595
 1734SOL     OW 6701   0.742   0.238   4.103 -0.1048  0.0330 -0.3502
 1734SOL    HW2 6702   0.751   0.236   4.198  0.2963  0.7626 -0.3595
 1734SOL    HW3 6703   0.673   0.175   4.083 -0.8662  0.5807  0.5066
 1734SOL    MW4 6704   0.734   0.229   4.113  0.9876 -0.2117  0.2559
 1735SOL     OW 6705   0.227   1.042   0.628 -0.7805 -0.0176  0.0059
 1735SOL    HW2 6706   0.200   0.955   0.658  0.8371 -0.6119 -0.1584
 1735SOL    HW3 6707   0.267   1.026   0.542 -0.6249  0.9212 -0.1030
 1735SOL    MW4 6708   0.229   1.028   0.620 -0.3002 -0.2196 -0.2115
 1736SOL     OW 6709   3.480   1.379   1.524  0.5274 -0.8648 -0.2980
 1736SOL    HW2 6710   3.426   1.300   1.522 -1.4443  0.3339  0.9820
 1736SOL    HW3 6711   3.418   1.449   1.502  2.0307  0.4051 -0.5988
 1736SOL    MW4 6712   3.464   1.378   1.520  0.1577  0.9042 -0.0580
 1737SOL     OW 6713   3.264   0.282   0.430  0.3104 -0.4144 -0.1848
 1737SOL    HW2 6714   3.202   0.280   0.358 -0.1167  0.4700  0.1438
 1737SOL    HW3 6715   3.294   0.373   0.434  0.1927 -0.4079  0.8560
 1737SOL    MW4 6716   3.260   0.293   0.421  0.2756 -0.6608 -0.4243
 1738SOL     OW 6717   0.408   2.996   0.961 -0.1491 -0.1846  0.3582
 1738SOL    HW2 6718   0.458   3.026   0.885  0.3196  0.1404  0.7946
 1738SOL    HW3 6719   0.362   2.918   0.929  0.4078 -0.3229 -0.1319
 1738SOL    MW4 6720   0.408   2.990   0.947  0.5972 -0.3124  0.1238
 1739SOL     OW 6721   3.881   4.309   4.029  0.0051 -0.0828 -0.0842
 1739SOL    HW2 6722   3.885   4.399   3.996  0.5291  0.0919  0.4272
 1739SOL    HW3 6723   3.961   4.268   3.994  0.3314 -0.0249  0.5761
 1739SOL    MW4 6724   3.892   4.316   4.020 -0.2499 -0.0912  0.2896
 1740SOL     OW 6725   5.560   1.926   1.450 -0.1231  0.0458  0.4339
 1740SOL    HW2 6726   5.560   1.935   1.355 -0.7030 -0.9529  0.3263
 1740SOL    HW3 6727   5.517   2.006   1.482  1.0674  0.9173 -0.0607
 1740SOL    MW4 6728   5.555   1.938   1.442 -0.5280 -0.2940 -0.2990
 1741SOL     OW 6729   4.575   5.577   3.942 -0.7788 -0.0302 -0.2323
 1741SOL    HW2 6730   4.526   5.564   3.862  0.0859  1.3799 -1.0419
 1741SOL    HW3 6731   4.602   5.669   3.939 -0.6373  0.0382  1.6253
 1741SOL    MW4 6732   4.572   5.588   3.931 -0.7358  0.1097  0.4119
 1742SOL     OW 6733   1.093   5.798   3.740  0.4414 -0.0059 -0.1274
 1742SOL    HW2 6734   1.026   5.844   3.690  0.8399  0.3336 -0.3580
 1742SOL    HW3 6735   1.162   5.864   3.755  1.0392 -0.5298 -0.5047
 1742SOL    MW4 6736   1.094   5.813   3.735  0.2062 -0.2252 -0.2013
 1743SOL     OW 6737   0.855   5.294   4.024  0.0988  0.1938 -0.5361
 1743SOL    HW2 6738   0.857   5.327   3.935 -1.1376  0.2173 -0.5648
 1743SOL    HW3 6739   0.910   5.216   4.022 -0.8861 -0.4951 -1.6133
 1743SOL    MW4 6740   0.863   5.288   4.012  0.7222 -0.7129  0.3362
 1744SOL     OW 6741   3.222   3.422   1.660  0.3291  0.0798  0.3072
 1744SOL    HW2 6742   3.223   3.347   1.719  0.8092  0.2175  0.4826
 1744SOL    HW3 6743   3.255   3.388   1.577 -1.1449 -0.3138 -0.1527
 1744SOL    MW4 6744   3.226   3.408   1.657 -0.2522 -0.0188 -0.1612
 1745SOL     OW 6745   0.322   1.228   1.540 -0.2057 -0.6272 -0.0038
 1745SOL    HW2 6746   0.343   1.271   1.622 -0.6173 -1.4026  0.5241
 1745SOL    HW3 6747   0.389   1.159   1.531 -0.1273 -0.5105 -0.3504
 1745SOL    MW4 6748   0.334   1.224   1.549  0.1750 -0.6221 -0.2420
 1746SOL     OW 6749   0.078   1.344   3.851  0.0789  0.1752  0.3230
 1746SOL    HW2 6750   0.070   1.407   3.922  0.7956  1.0822 -0.3780
 1746SOL    HW3 6751   0.170   1.349   3.824 -0.3519  0.4694 -1.2041
 1746SOL    MW4 6752   0.089   1.353   3.856 -0.0788 -0.0211  0.5534
 1747SOL     OW 6753   4.294   6.076   1.456 -0.1774  0.2928  0.0233
 1747SOL    HW2 6754   4.199   6.064   1.463 -0.1295 -0.6262 -0.7376
 1747SOL    HW3 6755   4.331   5.994   1.490  0.3016  0.1062 -0.9206
 1747SOL    MW4 6756   4.286   6.063   1.462  0.1200  0.2929  0.0403
 1748SOL     OW 6757   0.848   2.009   3.889  0.1185 -0.2235 -0.2164
 1748SOL    HW2 6758   0.935   1.982   3.918  0.4187  1.2816  0.3602
 1748SOL    HW3 6759   0.815   2.064   3.961 -1.1166 -0.3732 -0.6397
 1748SOL    MW4 6760   0.855   2.012   3.903  0.4430 -0.0360  0.0292
 1749SOL     OW 6761   1.479   3.955   3.844 -0.4554 -0.2656  0.3073
 1749SOL    HW2 6762   1.505   3.873   3.803 -0.2830 -1.1099  2.0325
 1749SOL    HW3 6763   1.383   3.950   3.850 -0.6168  0.4548 -1.1282
 1749SOL    MW4 6764   1.469   3.944   3.839  0.1347  0.0337  0.0159
 1750SOL     OW 6765   0.436   2.146   1.890  0.2697  0.3791  0.5219
 1750SOL    HW2 6766   0.386   2.225   1.913  0.0990  0.0643  1.2357
 1750SOL    HW3 6767   0.417   2.084   1.960  1.6046  0.2276  0.7773
 1750SOL    MW4 6768   0.427   2.148   1.902 -0.2311 -0.0703  0.0616
 1751SOL     OW 6769   0.324   1.441   3.520 -0.2887  0.2618 -0.5197
 1751SOL    HW2 6770   0.418   1.459   3.515  0.1516 -1.9277 -1.0701
 1751SOL    HW3 6771   0.298   1.422   3.430 -0.6147 -1.8815 -0.0211
 1751SOL    MW4 6772   0.333   1.441   3.508  0.1766  0.3709 -0.0230
 1752SOL     OW 6773   3.964   2.560   4.412  0.2382  0.1164 -0.4102
 1752SOL    HW2 6774   3.916   2.482   4.384  0.4865 -0.3775  0.5035
 1752SOL    HW3 6775   4.044   2.526   4.452  0.5532  0.8610 -0.3918
 1752SOL    MW4 6776   3.968   2.545   4.413 -0.1445  0.3480  0.2395
 1753SOL     OW 6777   4.838   1.151   2.232  0.1210  0.8964  0.9351
 1753SOL    HW2 6778   4.818   1.178   2.321 -0.7988 -1.0567  1.3565
 1753SOL    HW3 6779   4.933   1.138   2.232 -0.0954 -1.1968  2.3078
 1753SOL    MW4 6780   4.848   1.153   2.243  0.7398  0.2134 -0.4493
 1754SOL     OW 6781   4.472   1.232   1.382 -0.1616 -0.5146 -0.3595
 1754SOL    HW2 6782   4.499   1.192   1.300  0.8547 -1.0026  0.1981
 1754SOL    HW3 6783   4.536   1.201   1.446 -0.9245 -0.1288  0.6134
 1754SOL    MW4 6784   4.484   1.222   1.380  0.2613 -0.4909  0.2582
 1755SOL     OW 6785   3.054   0.825   0.481 -0.2887  0.5392  0.6258
 1755SOL    HW2 6786   2.988   0.894   0.485 -0.7194  0.2803 -1.0949
 1755SOL    HW3 6787   3.128   0.865   0.436 -0.6508 -0.1635 -0.6503
 1755SOL    MW4 6788   3.055   0.839   0.475  0.2907  0.4977  0.0080
 1756SOL     OW 6789   4.287   1.595   4.585 -0.0368  0.3096  0.2757
 1756SOL    HW2 6790   4.342   1.630   4.655 -0.5646  1.7208  0.0227
 1756SOL    HW3 6791   4.350   1.571   4.516  0.4163 -0.2740  0.8751
 1756SOL    MW4 6792   4.303   1.597   4.585  0.0669  0.0114  0.2673
 1757SOL     OW 6793   0.886   5.991   1.383 -0.1390  0.5924  0.9112
 1757SOL    HW2 6794   0.807   6.045   1.374 -0.7286  0.0468  2.4055
 1757SOL    HW3 6795   0.873   5.945   1.466  0.4285 -1.7134 -0.2025
 1757SOL    MW4 6796   0.874   5.992   1.393 -0.1866 -0.1667  0.0733
 1758SOL     OW 6797   3.190   4.496   2.783 -0.1415  0.3777  0.5731
 1758SOL    HW2 6798   3.203   4.435   2.711 -0.0429  0.7717  0.2502
 1758SOL    HW3 6799   3.114   4.462   2.830 -0.5133  0.3875 -0.0091
 1758SOL    MW4 6800   3.182   4.484   2.780 -0.1463  0.3504  0.1670
 1759SOL     OW 6801   0.611   0.923   3.952 -0.4305  0.0700  0.1799
 1759SOL    HW2 6802   0.703   0.944   3.967  0.0916 -1.7433 -0.2216
 1759SOL    HW3 6803   0.595   0.948   3.861 -0.5601  1.0369  0.4535
 1759SOL    MW4 6804   0.621   0.929   3.942  0.0656 -0.0989  0.3258
 1760SOL     OW 6805   5.421   2.769   1.808 -0.5339  0.2740 -0.0002
 1760SOL    HW2 6806   5.473   2.709   1.754 -0.9009  0.3626 -0.4556
 1760SOL    HW3 6807   5.429   2.734   1.897  0.5251  0.4389 -0.0139
 1760SOL    MW4 6808   5.429   2.756   1.813 -0.3341  0.2308 -0.2034
 1761SOL     OW 6809   5.692   5.807   5.930  0.5173 -0.7855  0.2407
 1761SOL    HW2 6810   5.689   5.783   6.023 -0.2627  0.3238  0.5251
 1761SOL    HW3 6811   5.780   5.843   5.918  0.7140 -1.1821  0.4812
 1761SOL    MW4 6812   5.704   5.809   5.941  0.3081 -0.2913 -0.1968
 1762SOL     OW 6813   4.087   3.092   5.550 -0.2233  0.2278  0.5487
 1762SOL    HW2 6814   4.110   3.181   5.522  1.9513  0.5726  2.9962
 1762SOL    HW3 6815   3.999   3.100   5.586 -0.4631  1.1505 -0.2119
 1762SOL    MW4 6816   4.078   3.105   5.551  0.6372 -0.0686 -0.3217
 1763SOL     OW 6817   4.170   0.434   0.939  0.7822  0.1923  0.0691
 1763SOL    HW2 6818   4.226   0.492   0.990 -0.7087  1.7504 -0.0066
 1763SOL    HW3 6819   4.125   0.380   1.004 -1.7765  2.7547  0.6522
 1763SOL    MW4 6820   4.172   0.434   0.954  0.3538  0.4450  0.2734
 1764SOL     OW 6821   5.643   5.022   3.747  0.1632  0.2957 -0.2248
 1764SOL    HW2 6822   5.591   5.087   3.793  0.5546  0.5250 -0.1061
 1764SOL    HW3 6823   5.722   5.012   3.800  0.1273 -0.2451 -0.2638
 1764SOL    MW4 6824   5.646   5.029   3.760 -0.3540  0.3854 -0.1471
 1765SOL     OW 6825   3.045   5.920   0.456 -0.2263  0.4336 -0.2782
 1765SOL    HW2 6826   3.115   5.972   0.415 -1.1113  1.5158 -0.4657
 1765SOL    HW3 6827   3.028   5.850   0.393 -0.9652  1.5747 -1.3974
 1765SOL    MW4 6828   3.052   5.918   0.442  0.1903 -0.0211 -0.8531
 1766SOL     OW 6829   3.914   2.446   5.307 -0.3247 -0.1143 -0.5464
 1766SOL    HW2 6830   3.846   2.440   5.374 -0.9254 -0.7327 -1.1887
 1766SOL    HW3 6831   3.885   2.386   5.239  0.2505  0.5230 -1.3765
 1766SOL    MW4 6832   3.901   2.438   5.307 -0.1301  0.0097 -0.2051
 1767SOL     OW 6833   1.427   1.797   1.384  0.2464 -0.0341  0.0825
 1767SOL    HW2 6834   1.481   1.730   1.426 -0.2169  0.3121  1.2664
 1767SOL    HW3 6835   1.465   1.806   1.297  1.1894 -0.8317  0.3822
 1767SOL    MW4 6836   1.439   1.789   1.378  0.4439 -0.7527 -0.6183
 1768SOL     OW 6837   0.887   0.385   3.508 -0.0244 -0.4384 -0.1970
 1768SOL    HW2 6838   0.806   0.410   3.464  0.3715 -0.8909 -1.2369
 1768SOL    HW3 6839   0.859   0.358   3.595 -0.7992  0.7948 -0.0321
 1768SOL    MW4 6840   0.872   0.384   3.514  0.1983 -0.2168 -0.4590
 1769SOL     OW 6841   2.126   1.455   3.004  0.2184  0.2269 -0.3215
 1769SOL    HW2 6842   2.084   1.518   2.945 -0.3122 -0.0085 -0.2081
 1769SOL    HW3 6843   2.088   1.371   2.979  0.8867 -0.0469 -0.4445
 1769SOL    MW4 6844   2.115   1.452   2.993  0.3898  0.2384  0.9146
 1770SOL     OW 6845   6.357   3.014   5.712  0.2338  0.0263 -0.2017
 1770SOL    HW2 6846   6.332   2.930   5.674 -1.8433  0.9163 -0.9509
 1770SOL    HW3 6847   6.403   3.060   5.642  0.2387  0.0067 -0.2110
 1770SOL    MW4 6848   6.360   3.009   5.698  0.0663  0.2827  0.4641
 1771SOL     OW 6849   5.128   5.520   0.762  0.1813  0.3154 -0.1736
 1771SOL    HW2 6850   5.174   5.590   0.810  1.6459 -0.0198 -1.0102
 1771SOL    HW3 6851   5.046   5.559   0.735  1.3452  2.0621 -1.4124
 1771SOL    MW4 6852   5.123   5.535   0.765 -0.3049 -0.6016  0.0840
 1772SOL     OW 6853   0.097   4.239   3.816 -0.0469 -0.2650  0.3347
 1772SOL    HW2 6854   0.098   4.317   3.760 -2.9545 -0.0876  0.3978
 1772SOL    HW3 6855   0.178   4.193   3.794 -0.3704  0.5082 -3.0010
 1772SOL    MW4 6856   0.108   4.244   3.806 -0.0157 -0.3623 -0.4189
 1773SOL     OW 6857   0.684   1.117   6.047 -0.0078  0.2613 -0.4345
 1773SOL    HW2 6858   0.737   1.151   6.119  0.8305  1.4483 -1.5662
 1773SOL    HW3 6859   0.608   1.176   6.044 -0.6000 -0.4633  0.1719
 1773SOL    MW4 6860   0.681   1.130   6.056  0.1904  0.2547  0.2183
 1774SOL     OW 6861   5.259   1.613   5.811  0.2362  0.3643  0.2581
 1774SOL    HW2 6862   5.213   1.664   5.745 -0.4704 -1.1491 -0.4662
 1774SOL    HW3 6863   5.200   1.541   5.832  1.4134 -0.4629  0.8632
 1774SOL    MW4 6864   5.246   1.610   5.805  0.5543  0.3004 -0.1288
 1775SOL     OW 6865   0.044   3.709   1.434 -0.4491 -0.6618 -0.0163
 1775SOL    HW2 6866   0.133   3.700   1.468 -0.2960  0.9601  0.0682
 1775SOL    HW3 6867   0.004   3.623   1.450  1.3516 -1.7339 -0.8777
 1775SOL    MW4 6868   0.051   3.696   1.441  0.1761  0.8840  0.1305
 1776SOL     OW 6869   4.487   0.998   4.826 -0.2643 -0.1145  0.0311
 1776SOL    HW2 6870   4.465   0.968   4.737 -1.9410 -2.4793  1.1303
 1776SOL    HW3 6871   4.571   0.957   4.845 -0.2893 -0.2737 -0.1938
 1776SOL    MW4 6872   4.495   0.989   4.816 -0.5286  0.3757  0.3883
 1777SOL     OW 6873   2.925   1.696   5.442  0.0384  0.2932  0.0129
 1777SOL    HW2 6874   2.962   1.638   5.375 -0.1000  1.2876 -0.9555
 1777SOL    HW3 6875   2.870   1.757   5.393  1.1729  2.0574  0.8305
 1777SOL    MW4 6876   2.922   1.697   5.427  0.0179  0.1331 -0.4336
 1778SOL     OW 6877   2.819   1.608   2.496  0.7392 -0.4782 -0.2302
 1778SOL    HW2 6878   2.885   1.671   2.525  0.5045 -0.7767  1.0342
 1778SOL    HW3 6879   2.736   1.654   2.507  0.5734 -0.9419  0.6155
 1778SOL    MW4 6880   2.817   1.622   2.501 -0.2267 -0.6237 -0.0848
 1779SOL     OW 6881   5.773   3.236   5.161  0.2258  0.3100  0.5981
 1779SOL    HW2 6882   5.683   3.214   5.138  0.1531  0.5064  0.6907
 1779SOL    HW3 6883   5.818   3.245   5.077 -0.1282  1.4007  0.5184
 1779SOL    MW4 6884   5.767   3.234   5.147 -0.4278 -0.2189 -0.3368
 1780SOL     OW 6885   4.256   0.223   1.509  0.0589 -0.2344 -0.0574
 1780SOL    HW2 6886   4.171   0.196   1.543  0.2075  0.0668  0.5628
 1780SOL    HW3 6887   4.237   0.297   1.451 -0.1695 -0.6031 -0.4551
 1780SOL    MW4 6888   4.243   0.229   1.506 -0.6138  0.1881  0.4934
 1781SOL     OW 6889   2.112   2.881   1.117  0.0959  0.3972  0.1924
 1781SOL    HW2 6890   2.024   2.863   1.085 -0.4230 -0.0825  1.8043
 1781SOL    HW3 6891   2.164   2.806   1.087 -0.5993 -0.5556  1.3016
 1781SOL    MW4 6892   2.107   2.869   1.109 -0.1901 -0.2891  0.1624
 1782SOL     OW 6893   2.616   6.117   3.933 -0.4708  0.1021 -0.4789
 1782SOL    HW2 6894   2.537   6.162   3.963  0.2000  1.0283 -0.0186
 1782SOL    HW3 6895   2.599   6.024   3.949 -1.2890  0.3273  0.0315
 1782SOL    MW4 6896   2.604   6.111   3.939  0.1681 -0.3331  0.7324
 1783SOL     OW 6897   1.046   6.211   1.927  0.8198  0.0981  0.5293
 1783SOL    HW2 6898   1.001   6.294   1.913  1.9461  0.6659  0.2225
 1783SOL    HW3 6899   0.975   6.149   1.946 -0.1247  0.9003 -0.2401
 1783SOL    MW4 6900   1.031   6.214   1.927 -0.9714 -0.3600  0.2660
 1784SOL     OW 6901   0.923   2.930   5.695  0.7169 -0.4958  0.2382
 1784SOL    HW2 6902   0.856   2.964   5.636  0.0379 -0.4725  0.9929
 1784SOL    HW3 6903   0.930   2.837   5.673 -2.8390 -1.6510  3.0051
 1784SOL    MW4 6904   0.915   2.922   5.684 -0.7451  0.1258 -0.7083
 1785SOL     OW 6905   3.617   0.323   1.200  0.3670 -0.1667 -0.0446
 1785SOL    HW2 6906   3.601   0.261   1.272  1.0304  0.5170  0.7116
 1785SOL    HW3 6907   3.530   0.346   1.168 -0.0126  0.3614  1.2927
 1785SOL    MW4 6908   3.603   0.318   1.206 -0.2580 -0.7091 -0.0958
 1786SOL     OW 6909   1.754   2.457   3.992  0.0248 -0.5634 -0.7242
 1786SOL    HW2 6910   1.704   2.406   3.928 -0.8719 -1.8781  0.9141
 1786SOL    HW3 6911   1.689   2.517   4.030  0.2695 -0.5776 -0.2789
 1786SOL    MW4 6912   1.739   2.458   3.989 -0.2971  0.5155 -0.0689
 1787SOL     OW 6913   3.721   3.187   2.569 -0.1814  0.3449  0.1864
 1787SOL    HW2 6914   3.752   3.197   2.479  1.0211 -1.2362  0.3777
 1787SOL    HW3 6915   3.801   3.172   2.620 -0.9622 -0.1270  1.3070
 1787SOL    MW4 6916   3.736   3.187   2.564 -0.0834 -0.2569  0.6356
 1788SOL     OW 6917   3.793   1.644   4.254 -0.8024 -0.5439 -0.0786
 1788SOL    HW2 6918   3.711   1.693   4.260 -0.6221 -0.3430  1.0092
 1788SOL    HW3 6919   3.784   1.574   4.319  0.2920  0.1266  0.8320
 1788SOL    MW4 6920   3.781   1.642   4.263  0.1295  0.0439 -0.0304
 1789SOL     OW 6921   0.817   2.865   2.162 -0.3990  0.7469 -0.3727
 1789SOL    HW2 6922   0.903   2.842   2.198 -0.8079 -0.3711 -0.0344
 1789SOL    HW3 6923   0.776   2.780   2.144 -1.9293  1.2235  0.6820
 1789SOL    MW4 6924   0.823   2.850   2.165  0.2302 -0.9956  0.1028
 1790SOL     OW 6925   2.828   4.419   2.603  0.5193 -0.4836 -0.0206
 1790SOL    HW2 6926   2.793   4.348   2.657  0.8826 -0.5018  0.1895
 1790SOL    HW3 6927   2.856   4.376   2.522 -1.8723 -0.1924 -1.0857
 1790SOL    MW4 6928   2.827   4.404   2.599 -0.6745  0.0537 -0.1740
 1791SOL     OW 6929   3.598   1.061   3.860 -0.1840  0.2287 -0.5955
 1791SOL    HW2 6930   3.659   0.998   3.822  0.1636  0.9771 -1.3064
 1791SOL    HW3 6931   3.540   1.085   3.789  0.5694  1.7533 -0.7372
 1791SOL    MW4 6932   3.598   1.056   3.846 -0.4546 -0.3425 -0.4038
 1792SOL     OW 6933   5.451   5.867   1.733 -0.2750 -0.2498 -0.3974
 1792SOL    HW2 6934   5.417   5.796   1.787  0.5882  0.6551  1.4161
 1792SOL    HW3 6935   5.521   5.826   1.682 -0.0731 -0.8025  0.3060
 1792SOL    MW4 6936   5.456   5.852   1.733 -0.0373 -0.1603 -0.2269
 1793SOL     OW 6937   1.543   5.594   3.249 -0.0328 -0.1267  0.0216
 1793SOL    HW2 6938   1.631   5.603   3.286 -0.7684 -0.2256  1.9041
 1793SOL    HW3 6939   1.512   5.684   3.240  0.0266 -0.1105 -0.0238
 1793SOL    MW4 6940   1.551   5.607   3.253 -0.3098  0.4359  0.8464
 1794SOL     OW 6941   4.017   4.704   4.183 -0.3801 -0.3544  0.0860
 1794SOL    HW2 6942   4.058   4.682   4.267  1.3200 -0.3217 -0.6859
 1794SOL    HW3 6943   3.981   4.792   4.196  2.2646  0.8351  0.0368
 1794SOL    MW4 6944   4.018   4.712   4.196  0.0155 -0.0210  0.3377
 1795SOL     OW 6945   1.782   2.024   1.263 -0.5799 -0.3815 -0.2374
 1795SOL    HW2 6946   1.838   2.052   1.336 -0.6443  0.0682 -0.3598
 1795SOL    HW3 6947   1.827   2.055   1.185 -0.9762 -0.0556 -0.3390
 1795SOL    MW4 6948   1.796   2.032   1.263  0.2762 -0.6780  0.0997
 1796SOL     OW 6949   5.394   5.960   0.172 -0.1855  0.2269  0.8262
 1796SOL    HW2 6950   5.440   6.034   0.132  2.2395 -1.3962  0.3848
 1796SOL    HW3 6951   5.457   5.888   0.169 -2.2835 -1.7818  1.5992
 1796SOL    MW4 6952   5.408   5.960   0.166 -0.3953  0.0063  0.0478
 1797SOL     OW 6953   4.417   2.275   4.834 -0.0839 -0.0433 -0.4212
 1797SOL    HW2 6954   4.337   2.295   4.883 -0.0852  0.3361 -0.5790
 1797SOL    HW3 6955   4.427   2.180   4.843 -0.1336  0.0069  0.2424
 1797SOL    MW4 6956   4.408   2.265   4.842  0.2832 -0.6216 -0.0448
 1798SOL     OW 6957   5.144   1.163   1.693  0.0396 -0.7727 -0.8882
 1798SOL    HW2 6958   5.143   1.143   1.787 -0.2512 -2.1622 -1.1602
 1798SOL    HW3 6959   5.089   1.241   1.684  1.5291  0.4934  0.2967
 1798SOL    MW4 6960   5.136   1.171   1.704 -0.1883 -0.3616 -0.0696
 1799SOL     OW 6961   4.982   0.693   4.538  0.0553  0.7279 -0.4901
 1799SOL    HW2 6962   5.061   0.723   4.494  1.0663 -1.7465 -0.4530
 1799SOL    HW3 6963   5.013   0.653   4.619 -1.5397  2.4746  1.1070
 1799SOL    MW4 6964   4.996   0.692   4.543  0.4447 -0.1690 -0.0430
 1800SOL     OW 6965   2.390   2.483   0.670 -0.2621 -0.0672 -0.4082
 1800SOL    HW2 6966   2.413   2.393   0.693  0.4159 -0.0850 -1.1083
 1800SOL    HW3 6967   2.414   2.492   0.578  1.8462  1.4890  0.1959
 1800SOL    MW4 6968   2.396   2.473   0.661  0.4534 -0.1914  0.2594
 1801SOL     OW 6969   5.438   6.442   3.557  0.4792 -0.4727  0.3936
 1801SOL    HW2 6970   5.512   6.389   3.585 -1.1874 -2.1536  1.8894
 1801SOL    HW3 6971   5.410   6.489   3.637 -1.2705 -1.4598  0.4234
 1801SOL    MW4 6972   5.444   6.441   3.572  0.3633 -0.1092  0.3267
 1802SOL     OW 6973   2.400   1.700   5.771  0.6382 -0.1306  0.1158
 1802SOL    HW2 6974   2.422   1.785   5.809  1.9972  0.8806 -2.6100
 1802SOL    HW3 6975   2.311   1.682   5.802  0.3413  2.2722  0.8598
 1802SOL    MW4 6976   2.391   1.709   5.780  0.2806 -0.4022 -0.5557
 1803SOL     OW 6977   0.462   1.575   0.679  0.2633  0.3122  0.3998
 1803SOL    HW2 6978   0.416   1.497   0.647  2.0320 -1.2576  1.5360
 1803SOL    HW3 6979   0.396   1.622   0.731 -1.0352  0.0210 -0.9045
 1803SOL    MW4 6980   0.447   1.571   0.682 -0.4798  0.3290  0.2200
 1804SOL     OW 6981   0.193   3.807   2.665  0.3349  0.1047  0.7595
 1804SOL    HW2 6982   0.251   3.849   2.728 -0.7486  2.2462  0.4085
 1804SOL    HW3 6983   0.107   3.806   2.708 -0.2348  0.7985 -0.3213
 1804SOL    MW4 6984   0.189   3.812   2.679 -0.0005  0.5262  0.2063
 1805SOL     OW 6985   1.612   3.678   5.829 -0.1924  0.2751 -0.1618
 1805SOL    HW2 6986   1.641   3.637   5.911  0.7234 -2.1551 -1.5838
 1805SOL    HW3 6987   1.541   3.622   5.797  0.3479  0.3782 -1.6538
 1805SOL    MW4 6988   1.607   3.665   5.835 -0.4043  0.3127  0.3077
 1806SOL     OW 6989   2.642   0.410   3.254 -0.8777 -0.1745 -0.0423
 1806SOL    HW2 6990   2.734   0.388   3.268 -1.2050 -1.3157  0.4580
 1806SOL    HW3 6991   2.596   0.327   3.264 -2.0814  0.5585  0.8242
 1806SOL    MW4 6992   2.648   0.396   3.257  0.1405 -0.1951 -0.3076
 1807SOL     OW 6993   3.936   6.411   0.403 -0.2554  0.3875  0.2482
 1807SOL    HW2 6994   4.008   6.454   0.357  0.9945  0.6070  2.2938
 1807SOL    HW3 6995   3.922   6.329   0.354  3.2819 -1.0032  1.2918
 1807SOL    MW4 6996   3.943   6.406   0.390  0.6166  0.1436 -0.4722
 1808SOL     OW 6997   2.879   3.375   3.026  0.1967  0.1324 -0.0338
 1808SOL    HW2 6998   2.950   3.401   3.085  1.1646  2.0097 -1.9001
 1808SOL    HW3 6999   2.910   3.296   2.984  1.3311  1.0540 -0.9844
 1808SOL    MW4 7000   2.892   3.368   3.029 -0.1350 -0.3009 -0.2612
 1809SOL     OW 7001   4.872   2.988   1.282  0.4729  0.1678 -0.2449
 1809SOL    HW2 7002   4.782   2.965   1.303  0.4931  0.4989  0.2165
 1809SOL    HW3 7003   4.872   3.002   1.188  0.4205 -1.5291 -0.5328
 1809SOL    MW4 7004   4.860   2.987   1.273 -0.6467  0.1059 -0.0485
 1810SOL     OW 7005   4.939   3.747   3.197 -1.0578 -0.3606  0.2383
 1810SOL    HW2 7006   5.005   3.770   3.131 -0.1834  0.3985  1.3443
 1810SOL    HW3 7007   4.916   3.831   3.237 -0.6814 -0.9292  1.7055
 1810SOL    MW4 7008   4.945   3.761   3.193  0.2452  0.0090  0.5307
 1811SOL     OW 7009   5.036   6.293   3.252 -0.6753  0.3166  0.7745
 1811SOL    HW2 7010   5.027   6.345   3.332 -0.6905  1.3560  0.1207
 1811SOL    HW3 7011   5.061   6.357   3.185 -1.0877 -0.4612 -0.1436
 1811SOL    MW4 7012   5.038   6.309   3.254  0.3433 -0.0170  0.2141
 1812SOL     OW 7013   1.590   2.600   2.803  0.1635 -0.1894 -0.2132
 1812SOL    HW2 7014   1.583   2.564   2.892 -1.2295 -0.2613 -0.3350
 1812SOL    HW3 7015   1.681   2.627   2.796  0.5507 -1.1308  0.8750
 1812SOL    MW4 7016   1.601   2.599   2.814 -0.2183  0.0912 -0.4236
 1813SOL     OW 7017   0.874   5.399   4.481  0.4480  0.0033 -0.2882
 1813SOL    HW2 7018   0.926   5.455   4.539 -2.1220 -1.1867  3.5670
 1813SOL    HW3 7019   0.911   5.312   4.492  0.4380 -0.1072 -1.0974
 1813SOL    MW4 7020   0.885   5.395   4.490 -0.0595  0.2985 -0.1658
 1814SOL     OW 7021   5.357   6.209   3.132 -0.7873 -0.0328 -0.7617
 1814SOL    HW2 7022   5.358   6.299   3.102 -1.8918  0.7733  1.3846
 1814SOL    HW3 7023   5.363   6.156   3.052  1.5206  1.8784 -1.9731
 1814SOL    MW4 7024   5.358   6.214   3.118 -0.3232 -0.4114 -0.2701
 1815SOL     OW 7025   2.287   0.532   1.914  0.2038  0.7196 -0.0909
 1815SOL    HW2 7026   2.245   0.579   1.842 -1.9350 -0.6517  0.1860
 1815SOL    HW3 7027   2.327   0.601   1.967 -0.4721  1.9754 -1.1477
 1815SOL    MW4 7028   2.287   0.547   1.912 -0.4941 -0.3545  0.2487
 1816SOL     OW 7029   5.131   1.366   5.362  0.5925 -0.0838  1.0647
 1816SOL    HW2 7030   5.142   1.277   5.328  0.7499  0.4285 -0.3067
 1816SOL    HW3 7031   5.036   1.377   5.370  0.5591 -0.2618  0.9238
 1816SOL    MW4 7032   5.120   1.355   5.359 -0.2356 -0.5107 -0.1370
 1817SOL     OW 7033   3.349   1.158   5.889 -0.3445  0.5218 -0.8491
 1817SOL    HW2 7034   3.271   1.212   5.878 -0.7691 -0.0740 -0.7869
 1817SOL    HW3 7035   3.366   1.159   5.983  0.3414  1.5001 -0.9680
 1817SOL    MW4 7036   3.341   1.166   5.900  0.3806 -0.3153  0.8147
 1818SOL     OW 7037   5.403   1.713   1.465  0.0972  0.6441  0.1713
 1818SOL    HW2 7038   5.410   1.686   1.557 -0.0670  0.9143  0.2649
 1818SOL    HW3 7039   5.451   1.795   1.461  1.0431  0.0956 -0.2261
 1818SOL    MW4 7040   5.410   1.720   1.477  0.1399 -0.5557  0.0616
 1819SOL     OW 7041   5.996   2.819   3.736 -0.1108  0.1119 -0.7894
 1819SOL    HW2 7042   5.941   2.746   3.710 -0.9847  0.1944  0.6754
 1819SOL    HW3 7043   5.980   2.886   3.670 -2.2540  0.3471 -0.1185
 1819SOL    MW4 7044   5.987   2.818   3.724  0.3800  0.0313  0.3190
 1820SOL     OW 7045   0.962   2.849   3.428 -0.4027 -0.4796 -0.2371
 1820SOL    HW2 7046   0.994   2.775   3.481  0.1978 -0.8771 -1.1340
 1820SOL    HW3 7047   1.041   2.884   3.386 -0.8641 -0.1414 -0.8326
 1820SOL    MW4 7048   0.977   2.844   3.430 -0.6722 -0.0686  0.8234
 1821SOL     OW 7049   2.286   0.563   2.452 -0.1850  0.5016 -0.1756
 1821SOL    HW2 7050   2.195   0.591   2.451  0.1482  1.6753 -0.8490
 1821SOL    HW3 7051   2.323   0.604   2.531  0.1573  1.5244 -0.8378
 1821SOL    MW4 7052   2.279   0.572   2.463  0.0527  0.0760  0.3234
 1822SOL     OW 7053   1.089   1.378   1.121 -0.1267  0.2484 -0.3349
 1822SOL    HW2 7054   1.024   1.429   1.073  0.8041  2.5930  0.7557
 1822SOL    HW3 7055   1.162   1.438   1.134  1.7306 -1.8736 -0.3192
 1822SOL    MW4 7056   1.090   1.393   1.117 -0.2421 -0.0780 -0.0707
 1823SOL     OW 7057   0.565   1.088   1.564 -0.0418 -0.0092  0.2682
 1823SOL    HW2 7058   0.607   1.039   1.493 -1.0333 -1.6246  0.7504
 1823SOL    HW3 7059   0.585   1.180   1.544  2.2568 -0.5851 -0.4324
 1823SOL    MW4 7060   0.573   1.094   1.552 -0.8555 -0.8431 -0.2070
 1824SOL     OW 7061   3.317   5.133   5.070  0.0795 -0.1725 -0.2213
 1824SOL    HW2 7062   3.368   5.209   5.042 -0.8573  0.3809 -0.4614
 1824SOL    HW3 7063   3.381   5.062   5.076  0.6196  0.1307 -1.9594
 1824SOL    MW4 7064   3.332   5.133   5.067 -0.1297  0.3485  0.4344
 1825SOL     OW 7065   0.659   1.923   5.233  0.7229  0.0631 -0.3882
 1825SOL    HW2 7066   0.607   1.935   5.153 -0.6820  0.5041  0.5628
 1825SOL    HW3 7067   0.663   1.828   5.244 -0.9855  0.0368  0.2033
 1825SOL    MW4 7068   0.653   1.912   5.224 -0.6057 -0.5319  0.0460
 1826SOL     OW 7069   1.303   4.743   5.193  0.2275  0.0505 -0.4235
 1826SOL    HW2 7070   1.278   4.807   5.259  0.5378  0.5678 -0.8015
 1826SOL    HW3 7071   1.330   4.666   5.243  2.5858  1.1720  0.1761
 1826SOL    MW4 7072   1.303   4.741   5.208 -0.2989  0.4073 -0.1551
 1827SOL     OW 7073   1.384   0.973   4.916 -0.2133 -0.7324 -0.7176
 1827SOL    HW2 7074   1.344   0.892   4.884 -1.9378  0.3703 -1.4969
 1827SOL    HW3 7075   1.326   1.001   4.987  1.0136 -0.7440  0.3174
 1827SOL    MW4 7076   1.371   0.966   4.921  0.1531  0.3459 -0.0108
 1828SOL     OW 7077   2.086   1.877   2.390 -0.4473  0.0733 -0.0102
 1828SOL    HW2 7078   2.138   1.938   2.444 -1.7393  0.9672  0.2617
 1828SOL    HW3 7079   2.144   1.802   2.377 -0.3923 -0.6641  3.4761
 1828SOL    MW4 7080   2.101   1.875   2.396 -0.5451 -0.1350 -0.4152
 1829SOL     OW 7081   3.465   3.196   2.380  0.0949  0.0718 -1.2127
 1829SOL    HW2 7082   3.502   3.109   2.363 -0.7651 -0.5345 -0.1332
 1829SOL    HW3 7083   3.453   3.234   2.293  0.4509 -0.9038 -1.7034
 1829SOL    MW4 7084   3.468   3.189   2.366  0.3473 -0.0871  0.1649
 1830SOL     OW 7085   0.181   3.873   6.378  0.2731 -0.3573 -0.1263
 1830SOL    HW2 7086   0.182   3.879   6.283 -0.1380 -1.7232 -0.2330
 1830SOL    HW3 7087   0.089   3.855   6.400  0.6859 -1.9861  0.3715
 1830SOL    MW4 7088   0.169   3.872   6.369 -0.3780  0.4573  0.1456
 1831SOL     OW 7089   0.079   5.345   0.261 -0.1079 -0.7899  0.1887
 1831SOL    HW2 7090   0.049   5.351   0.351 -0.4106 -0.6188  0.0810
 1831SOL    HW3 7091   0.159   5.398   0.258 -0.2263 -0.6029  0.3040
 1831SOL    MW4 7092   0.085   5.353   0.272 -0.0125  0.4039  0.5915
 1832SOL     OW 7093   4.443   0.328   4.705  0.0559 -0.3584  0.2133
 1832SOL    HW2 7094   4.436   0.235   4.727  1.5714 -0.4046  0.6146
 1832SOL    HW3 7095   4.397   0.337   4.621  1.4905 -1.8578 -0.7923
 1832SOL    MW4 7096   4.436   0.317   4.697 -0.2499  0.3966  0.5351
 1833SOL     OW 7097   5.197   2.012   2.250  0.3616  0.4144  0.2291
 1833SOL    HW2 7098   5.244   2.070   2.190 -1.0501 -0.4477 -1.8204
 1833SOL    HW3 7099   5.239   1.927   2.240 -0.5504  0.0144 -0.4148
 1833SOL    MW4 7100   5.208   2.008   2.241 -0.1712 -0.2834  0.5138
 1834SOL     OW 7101   4.435   3.624   2.101 -0.1640  0.2388 -0.0472
 1834SOL    HW2 7102   4.464   3.552   2.046  0.1472  1.0778 -1.0099
 1834SOL    HW3 7103   4.370   3.584   2.160 -0.9139 -0.5904 -1.3707
 1834SOL    MW4 7104   4.430   3.609   2.102  0.5353 -0.2566 -0.0410
 1835SOL     OW 7105   1.953   2.323   4.649 -0.1516 -0.1528 -0.3185
 1835SOL    HW2 7106   1.933   2.230   4.641 -0.8250 -0.0203 -0.2748
 1835SOL    HW3 7107   1.943   2.358   4.560  2.4663 -0.5408 -0.8358
 1835SOL    MW4 7108   1.949   2.315   4.636  0.2165 -0.1898 -0.4201
 1836SOL     OW 7109   3.476   1.128   3.629 -0.5358  0.0563  0.0240
 1836SOL    HW2 7110   3.387   1.143   3.598  0.1362 -0.4680 -2.3939
 1836SOL    HW3 7111   3.517   1.214   3.627 -0.5462  0.0516 -0.3964
 1836SOL    MW4 7112   3.470   1.141   3.625 -0.1113  0.2749  0.0910
 1837SOL     OW 7113   0.318   1.337   0.609 -0.1054  0.0675  0.4490
 1837SOL    HW2 7114   0.297   1.315   0.519 -1.1657 -0.3787  0.7802
 1837SOL    HW3 7115   0.379   1.270   0.637 -0.2627 -0.1599  0.2489
 1837SOL    MW4 7116   0.323   1.325   0.601 -0.1679 -0.4895  0.2715
 1838SOL     OW 7117   4.899   3.651   2.227 -0.0225 -0.7002 -0.5908
 1838SOL    HW2 7118   4.951   3.698   2.161 -1.4180 -0.4957 -1.5853
 1838SOL    HW3 7119   4.858   3.580   2.179 -1.5589 -0.1890 -0.1049
 1838SOL    MW4 7120   4.900   3.648   2.212 -0.0578 -0.1994 -0.3441
 1839SOL     OW 7121   3.683   5.415   1.714 -0.0953 -0.8225 -0.3671
 1839SOL    HW2 7122   3.603   5.364   1.700 -0.7183 -1.1143  3.1845
 1839SOL    HW3 7123   3.652   5.502   1.737  0.8178  0.0231 -2.1294
 1839SOL    MW4 7124   3.668   5.420   1.715 -0.1316  0.1379  0.0213
 1840SOL     OW 7125   0.252   2.486   6.071  0.2914  0.0650 -1.4338
 1840SOL    HW2 7126   0.315   2.526   6.131 -0.1034 -0.5753 -0.5636
 1840SOL    HW3 7127   0.180   2.548   6.067  0.6333  0.4487 -1.8401
 1840SOL    MW4 7128   0.251   2.499   6.078 -0.0214 -0.1448  0.0702
 1841SOL     OW 7129   3.555   3.683   5.038  0.3146  0.5506 -0.1894
 1841SOL    HW2 7130   3.527   3.760   5.087 -0.0694  1.0967 -1.2260
 1841SOL    HW3 7131   3.551   3.611   5.100  0.0926  1.2648  0.6364
 1841SOL    MW4 7132   3.551   3.684   5.053 -0.2229 -0.0042  0.5378
 1842SOL     OW 7133   2.119   5.227   5.373 -0.0447 -0.3765 -0.4264
 1842SOL    HW2 7134   2.055   5.275   5.425 -0.4089 -1.8173  0.4894
 1842SOL    HW3 7135   2.162   5.169   5.435  1.2675 -0.3601 -1.2772
 1842SOL    MW4 7136   2.117   5.226   5.388  0.2170 -0.1125 -0.5343
 1843SOL     OW 7137   2.985   6.353   2.901  0.0759 -0.1876  0.2330
 1843SOL    HW2 7138   2.955   6.346   2.811 -0.5457  1.1477  0.3040
 1843SOL    HW3 7139   2.977   6.264   2.937 -2.3757 -0.2079 -0.2175
 1843SOL    MW4 7140   2.980   6.340   2.894 -0.1348 -0.2723 -0.5054
 1844SOL     OW 7141   5.423   0.307   5.685 -0.1052 -0.1450  0.3651
 1844SOL    HW2 7142   5.398   0.336   5.597  0.7865  0.0143  0.1594
 1844SOL    HW3 7143   5.510   0.344   5.699 -0.1058 -0.4341  1.1970
 1844SOL    MW4 7144   5.431   0.316   5.675  0.3807  0.2169  0.1126
 1845SOL     OW 7145   3.704   0.742   1.704  0.2125  0.4543 -0.3174
 1845SOL    HW2 7146   3.630   0.797   1.681 -0.2842  0.4130  1.1429
 1845SOL    HW3 7147   3.678   0.697   1.784  2.3596  1.5257  1.0666
 1845SOL    MW4 7148   3.691   0.743   1.711  0.2205  0.4251  0.2289
 1846SOL     OW 7149   3.493   1.057   3.248  0.0415  0.2383 -0.4113
 1846SOL    HW2 7150   3.536   1.141   3.265  1.1989 -0.4725  0.2699
 1846SOL    HW3 7151   3.519   1.001   3.321 -1.2291 -0.5371 -0.5223
 1846SOL    MW4 7152   3.502   1.061   3.260 -0.1415  0.5159  0.1277
 1847SOL     OW 7153   4.342   4.711   0.201  0.1484  0.2313  0.2741
 1847SOL    HW2 7154   4.297   4.628   0.213  0.6165  0.1484  1.5796
 1847SOL    HW3 7155   4.285   4.776   0.243 -0.4836  0.6830 -1.2055
 1847SOL    MW4 7156   4.329   4.709   0.208 -0.2662  1.0541 -0.6330
 1848SOL     OW 7157   5.427   4.740   6.212 -0.2699 -0.1633  0.2617
 1848SOL    HW2 7158   5.522   4.748   6.202 -0.2384 -1.0736 -0.3986
 1848SOL    HW3 7159   5.414   4.652   6.249 -0.8490 -0.0792  0.2686
 1848SOL    MW4 7160   5.438   4.729   6.215 -0.4971  0.1024 -0.2352
 1849SOL     OW 7161   6.271   3.423   4.998  0.2010  0.3035  0.1360
 1849SOL    HW2 7162   6.294   3.512   5.023 -0.3370  0.8291 -1.1482
 1849SOL    HW3 7163   6.195   3.402   5.051 -0.4186  1.0785 -0.4215
 1849SOL    MW4 7164   6.264   3.432   5.008  0.2326  0.2803  0.4278
 1850SOL     OW 7165   0.747   2.553   1.467 -0.1300 -0.6969 -0.0361
 1850SOL    HW2 7166   0.821   2.492   1.461 -1.4743 -2.4434  0.2622
 1850SOL    HW3 7167   0.676   2.501   1.504 -1.2588  1.1850  0.6008
 1850SOL    MW4 7168   0.747   2.538   1.471 -0.3515  0.7109  0.3647
 1851SOL     OW 7169   2.270   2.360   2.272  0.0031 -0.0786 -0.5026
 1851SOL    HW2 7170   2.361   2.336   2.285 -0.3461 -0.4913  1.4639
 1851SOL    HW3 7171   2.232   2.285   2.225  0.2033 -0.8820  0.5925
 1851SOL    MW4 7172   2.277   2.347   2.267 -0.3475 -0.3573  0.4771
 1852SOL     OW 7173   5.294   2.896   3.687 -0.0263  0.7204  0.2642
 1852SOL    HW2 7174   5.223   2.942   3.642  0.7746 -0.7495 -2.7815
 1852SOL    HW3 7175   5.259   2.809   3.703  0.0602  0.9291  1.6818
 1852SOL    MW4 7176   5.280   2.891   3.683  0.7054  0.1123  0.6656
 1853SOL     OW 7177   1.327   0.301   0.140  0.4879  0.9976 -0.4648
 1853SOL    HW2 7178   1.394   0.274   0.077 -0.1633  1.6669 -1.4703
 1853SOL    HW3 7179   1.257   0.236   0.131  0.3679  1.1273 -0.4673
 1853SOL    MW4 7180   1.327   0.289   0.131 -0.5684  0.1445 -0.2374
 1854SOL     OW 7181   3.656   0.336   1.555 -0.1470 -0.6459 -0.1509
 1854SOL    HW2 7182   3.679   0.311   1.644  0.1076  0.0140 -0.0255
 1854SOL    HW3 7183   3.567   0.369   1.562  1.1991  3.3826  0.7025
 1854SOL    MW4 7184   3.647   0.337   1.568 -0.0210  0.3198  0.0925
 1855SOL     OW 7185   3.394   2.615   5.303  0.0111 -0.3008  0.3065
 1855SOL    HW2 7186   3.441   2.571   5.231 -1.0360  0.2871 -0.7656
 1855SOL    HW3 7187   3.309   2.572   5.306  0.0654 -0.3642  1.2664
 1855SOL    MW4 7188   3.389   2.603   5.294 -0.2537  0.0418 -0.0615
 1856SOL     OW 7189   4.832   4.433   5.203 -0.5311  0.2081  1.0924
 1856SOL    HW2 7190   4.880   4.351   5.207  1.8464  1.3456 -1.1544
 1856SOL    HW3 7191   4.867   4.484   5.276  1.4569  0.8216 -0.2012
 1856SOL    MW4 7192   4.843   4.429   5.213 -0.1380 -0.4963 -0.3906
 1857SOL     OW 7193   3.215   4.193   3.820  0.0386  0.1196  0.2841
 1857SOL    HW2 7194   3.306   4.196   3.852  0.0943  0.3829  0.0999
 1857SOL    HW3 7195   3.221   4.146   3.737  0.0285  0.2848  0.1905
 1857SOL    MW4 7196   3.228   4.187   3.814 -0.1848  0.2381  0.4167
 1858SOL     OW 7197   4.420   5.222   5.118  0.1208  0.2409 -0.6444
 1858SOL    HW2 7198   4.411   5.309   5.156  1.9978 -0.4052  1.5037
 1858SOL    HW3 7199   4.514   5.211   5.103 -0.2565 -0.7004 -2.7895
 1858SOL    MW4 7200   4.431   5.232   5.121  0.3242 -0.5349  0.3440
 1859SOL     OW 7201   0.954   1.058   1.334  0.2384  0.6873 -0.4976
 1859SOL    HW2 7202   0.957   1.151   1.358 -1.2836  0.0117  2.8151
 1859SOL    HW3 7203   1.032   1.020   1.375 -0.3923  0.1100  0.1735
 1859SOL    MW4 7204   0.965   1.066   1.342  0.5399  0.3664  0.0838
 1860SOL     OW 7205   4.153   4.253   4.651  0.1104 -0.7234  0.3077
 1860SOL    HW2 7206   4.197   4.179   4.693  0.2247 -2.1048 -2.0684
 1860SOL    HW3 7207   4.198   4.263   4.567 -2.0106 -0.0595 -0.8196
 1860SOL    MW4 7208   4.165   4.245   4.646  0.1177  0.8592 -0.5226
 1861SOL     OW 7209   0.631   3.405   6.366  0.3046  0.4579  0.0831
 1861SOL    HW2 7210   0.646   3.351   6.443  1.5931 -0.1280 -0.5482
 1861SOL    HW3 7211   0.555   3.365   6.323  0.6718 -0.2843  0.1160
 1861SOL    MW4 7212   0.623   3.393   6.371  0.2316 -0.1504 -0.0203
 1862SOL     OW 7213   5.270   0.899   0.991  0.0631 -0.2194 -0.1855
 1862SOL    HW2 7214   5.340   0.964   0.994  0.4827 -0.6452 -0.7090
 1862SOL    HW3 7215   5.273   0.864   0.903  0.0874 -1.2287  0.2030
 1862SOL    MW4 7216   5.279   0.903   0.980 -0.4735 -0.1117  0.2950
 1863SOL     OW 7217   2.989   4.814   2.862 -0.3233 -0.1156  0.5899
 1863SOL    HW2 7218   2.897   4.805   2.884 -0.6572  0.0881 -0.6575
 1863SOL    HW3 7219   2.990   4.830   2.768  0.8458  1.9827  0.8820
 1863SOL    MW4 7220   2.977   4.815   2.853  0.0396 -0.4861  0.3656
 1864SOL     OW 7221   6.234   2.925   2.227  0.1198  0.0270  0.0166
 1864SOL    HW2 7222   6.320   2.916   2.186  0.6019  0.2596  0.9587
 1864SOL    HW3 7223   6.246   2.990   2.296 -0.4586 -0.9712  1.1017
 1864SOL    MW4 7224   6.247   2.932   2.230 -0.2298  0.3534 -0.1438
 1865SOL     OW 7225   0.604   0.666   2.533 -0.1555  0.4797 -0.5102
 1865SOL    HW2 7226   0.594   0.670   2.628 -0.3238 -0.1305 -0.4986
 1865SOL    HW3 7227   0.661   0.740   2.512  1.3264 -0.3663  0.2693
 1865SOL    MW4 7228   0.610   0.676   2.543  0.1064 -0.3174  0.0306
 1866SOL     OW 7229   1.950   6.313   0.941  0.7068  0.1346 -0.1125
 1866SOL    HW2 7230   1.865   6.278   0.916  0.2478  0.8200  0.4342
 1866SOL    HW3 7231   1.950   6.403   0.907  1.4185 -0.0087 -0.5350
 1866SOL    MW4 7232   1.939   6.320   0.933  0.2851  0.4968 -0.2552
 1867SOL     OW 7233   2.345   5.066   4.779  0.1516  0.2052  0.1713
 1867SOL    HW2 7234   2.407   4.999   4.749  0.3931  0.1645  0.7398
 1867SOL    HW3 7235   2.261   5.021   4.781 -0.0256  0.4584 -1.2829
 1867SOL    MW4 7236   2.342   5.051   4.776  0.1412 -0.4259  0.0799
 1868SOL     OW 7237   2.263   1.765   4.738 -0.4809  0.7154 -0.5464
 1868SOL    HW2 7238   2.318   1.692   4.765  0.0522  0.4846 -2.1443
 1868SOL    HW3 7239   2.188   1.761   4.797  0.6386  0.3141  0.9038
 1868SOL    MW4 7240   2.260   1.755   4.749  0.1649 -0.3059  0.1706
 1869SOL     OW 7241   1.769   2.260   2.336 -0.2317 -0.1733  0.2231
 1869SOL    HW2 7242   1.818   2.268   2.418  0.7752  0.2468 -0.4040
 1869SOL    HW3 7243   1.830   2.218   2.275 -0.7654  0.0528 -0.4896
 1869SOL    MW4 7244   1.783   2.255   2.339  0.4066  0.0854  0.4039
 1870SOL     OW 7245   2.551   1.326   0.918 -0.3343 -0.1698  0.2236
 1870SOL    HW2 7246   2.481   1.389   0.898  0.0111  0.6841  1.5397
 1870SOL    HW3 7247   2.544   1.312   1.013 -0.3390 -2.0754 -0.0276
 1870SOL    MW4 7248   2.541   1.333   0.928  0.0935 -0.2797 -0.0817
 1871SOL     OW 7249   3.571   6.017   0.960 -0.9289 -0.2119 -0.1007
 1871SOL    HW2 7250   3.568   6.083   1.029  2.4914 -0.2125  0.2260
 1871SOL    HW3 7251   3.491   6.032   0.909 -1.1495  3.0264  0.9600
 1871SOL    MW4 7252   3.560   6.028   0.963  0.1032  0.5901 -0.1704
 1872SOL     OW 7253   5.867   2.403   3.943  0.2395  0.1558  0.4068
 1872SOL    HW2 7254   5.906   2.489   3.957  0.5796 -0.0343  0.6492
 1872SOL    HW3 7255   5.810   2.389   4.019 -2.3175  1.5021 -1.1206
 1872SOL    MW4 7256   5.864   2.412   3.955  0.1478 -0.8191 -0.5710
 1873SOL     OW 7257   0.022   2.607   4.411 -0.1114  0.0342  0.2347
 1873SOL    HW2 7258   0.059   2.664   4.479 -0.1409 -1.5806  1.6721
 1873SOL    HW3 7259   0.085   2.613   4.339  1.0734  0.1333  1.2378
 1873SOL    MW4 7260   0.035   2.616   4.411 -0.1269  0.1595  0.0923
 1874SOL     OW 7261   2.716   5.855   3.901  0.1929  0.1420  0.1382
 1874SOL    HW2 7262   2.785   5.903   3.855 -0.4540  0.6652 -0.3002
 1874SOL    HW3 7263   2.716   5.769   3.859  1.1320 -0.1461  0.7033
 1874SOL    MW4 7264   2.725   5.850   3.889 -0.3946  0.2396  0.6508
 1875SOL     OW 7265   3.439   0.118   0.561  0.2884 -0.1455 -0.1353
 1875SOL    HW2 7266   3.519   0.112   0.509  0.3497 -0.8239  0.0267
 1875SOL    HW3 7267   3.382   0.176   0.510  0.3029 -0.8841 -1.0152
 1875SOL    MW4 7268   3.442   0.125   0.547 -0.2881 -0.0783  0.7572
 1876SOL     OW 7269   3.586   0.700   3.660 -0.6490  0.0034 -0.2828
 1876SOL    HW2 7270   3.630   0.634   3.607  0.4804  0.5086 -0.0165
 1876SOL    HW3 7271   3.501   0.662   3.682 -1.0919 -0.2682 -2.3237
 1876SOL    MW4 7272   3.581   0.686   3.656  0.2106  0.2672  0.3863
 1877SOL     OW 7273   1.660   4.337   4.685  0.1328  0.2693  0.1204
 1877SOL    HW2 7274   1.682   4.411   4.741  1.3436 -1.0276  1.4576
 1877SOL    HW3 7275   1.732   4.331   4.623  0.9758 -0.7977  1.1446
 1877SOL    MW4 7276   1.672   4.346   4.684 -0.2820 -0.2952 -0.3885
 1878SOL     OW 7277   2.646   1.881   0.182 -0.1126 -0.2171 -0.4752
 1878SOL    HW2 7278   2.734   1.861   0.216 -1.1419 -2.4359  1.1043
 1878SOL    HW3 7279   2.641   1.834   0.099  0.3408  0.3100 -0.8073
 1878SOL    MW4 7280   2.657   1.872   0.175  0.5460 -0.0474  0.2287
 1879SOL     OW 7281   0.030   0.912   4.763  0.5635 -0.2921  0.3129
 1879SOL    HW2 7282   0.095   0.853   4.724  2.3466  1.2651  0.8359
 1879SOL    HW3 7283  -0.011   0.859   4.832  0.8454 -1.4641 -0.3776
 1879SOL    MW4 7284   0.033   0.897   4.767 -0.2308 -0.1076 -0.1487
 1880SOL     OW 7285   4.216   4.006   4.767 -0.4954  0.5349 -0.3864
 1880SOL    HW2 7286   4.176   3.995   4.853  1.3423 -2.0716  0.2698
 1880SOL    HW3 7287   4.151   3.971   4.706 -0.4432 -0.9069  0.3459
 1880SOL    MW4 7288   4.202   4.000   4.770 -0.1549 -0.6872  0.0163
 1881SOL     OW 7289   1.547   5.261   0.844  0.3762  0.1480 -0.1622
 1881SOL    HW2 7290   1.538   5.257   0.940  1.4770  0.7641 -0.0114
 1881SOL    HW3 7291   1.481   5.201   0.811 -0.3699  0.3151  0.9722
 1881SOL    MW4 7292   1.537   5.253   0.853 -0.4720  0.2320 -0.1535
 1882SOL     OW 7293   3.146   4.499   3.767  0.0459  0.3533  0.1015
 1882SOL    HW2 7294   3.220   4.439   3.778 -0.1362  0.0211 -0.4670
 1882SOL    HW3 7295   3.184   4.586   3.780  0.7263  0.2524 -1.0631
 1882SOL    MW4 7296   3.161   4.503   3.770  0.0230 -0.7219  0.0769
 1883SOL     OW 7297   2.142   1.825   0.840 -0.7721  0.0391  0.0526
 1883SOL    HW2 7298   2.088   1.754   0.874 -0.5931  0.0870  0.4453
 1883SOL    HW3 7299   2.224   1.819   0.891 -0.6488  0.3478 -0.1060
 1883SOL    MW4 7300   2.146   1.815   0.851  0.2855 -0.5655 -0.1333
 1884SOL     OW 7301   1.349   2.051   3.448 -0.6138 -0.1556  0.5960
 1884SOL    HW2 7302   1.404   1.979   3.416 -1.3132 -0.9222  1.0723
 1884SOL    HW3 7303   1.298   2.012   3.519 -0.2736  1.0940  1.5535
 1884SOL    MW4 7304   1.349   2.036   3.453  0.1040 -0.0415 -0.3567
 1885SOL     OW 7305   3.810   1.299   6.202  0.5739 -0.2241  0.2541
 1885SOL    HW2 7306   3.722   1.299   6.164  0.9720  0.9505 -0.7183
 1885SOL    HW3 7307   3.858   1.363   6.151  2.2593 -1.4717  0.1942
 1885SOL    MW4 7308   3.804   1.307   6.190  0.1877 -0.6143 -0.5448
 1886SOL     OW 7309   0.125   2.159   3.619 -0.2777 -0.2466  0.2722
 1886SOL    HW2 7310   0.157   2.077   3.581  0.6869 -0.6985  1.9110
 1886SOL    HW3 7311   0.184   2.226   3.586  0.3519 -0.5841  0.6827
 1886SOL    MW4 7312   0.137   2.157   3.610 -0.1745  0.7526  0.3259
 1887SOL     OW 7313   3.688   3.484   5.808 -0.2763 -0.1970 -0.5164
 1887SOL    HW2 7314   3.742   3.555   5.843 -1.7975  0.7036  0.0982
 1887SOL    HW3 7315   3.598   3.510   5.827 -0.8895 -2.4302 -0.0311
 1887SOL    MW4 7316   3.684   3.497   5.815  0.0548  0.0972 -0.0585
 1888SOL     OW 7317   4.632   1.809   0.332  0.2375 -0.1723 -0.4538
 1888SOL    HW2 7318   4.651   1.897   0.365 -2.1754  0.0129  0.7177
 1888SOL    HW3 7319   4.649   1.752   0.407 -0.0340 -0.4312 -0.5889
 1888SOL    MW4 7320   4.636   1.813   0.347 -0.5529  0.1269  0.3054
 1889SOL     OW 7321   3.326   5.425   0.829 -0.3071  1.2070 -0.7458
 1889SOL    HW2 7322   3.247   5.449   0.782 -0.8749  1.3736  0.2604
 1889SOL    HW3 7323   3.327   5.482   0.906 -0.4441 -0.3410  0.4768
 1889SOL    MW4 7324   3.316   5.435   0.833 -0.2711  0.1798 -0.6689
 1890SOL     OW 7325   2.865   3.387   0.635  0.3492  0.0852  0.2785
 1890SOL    HW2 7326   2.941   3.437   0.605 -1.2263  2.0873 -0.6754
 1890SOL    HW3 7327   2.836   3.339   0.558 -0.7332  1.2722 -0.1013
 1890SOL    MW4 7328   2.871   3.387   0.621  0.1919 -0.2678 -0.0430
 1891SOL     OW 7329   5.873   1.002   3.175  0.0443 -0.0092 -0.5972
 1891SOL    HW2 7330   5.965   0.983   3.188  0.4461  1.9719 -0.1324
 1891SOL    HW3 7331   5.861   1.002   3.080  0.4753 -0.4294 -0.6536
 1891SOL    MW4 7332   5.883   1.000   3.164  0.2691 -0.0904  0.5118
 1892SOL     OW 7333   4.671   6.472   3.616  0.5332 -0.1695 -0.0416
 1892SOL    HW2 7334   4.682   6.383   3.650 -0.8250  0.2839  1.7687
 1892SOL    HW3 7335   4.637   6.460   3.527 -1.4198 -1.5282  0.8246
 1892SOL    MW4 7336   4.668   6.459   3.609  0.3685  0.2436 -0.2754
 1893SOL     OW 7337   2.686   2.229   1.697  0.6256  0.5651  0.4164
 1893SOL    HW2 7338   2.762   2.267   1.654  0.0758  0.9065 -0.2976
 1893SOL    HW3 7339   2.697   2.250   1.790  1.4955  0.4297  0.3483
 1893SOL    MW4 7340   2.697   2.237   1.703 -0.4308  0.3839  0.0090
 1894SOL     OW 7341   3.858   4.298   0.168  0.2397 -0.3033  0.6048
 1894SOL    HW2 7342   3.898   4.373   0.212  0.1407 -0.5500  1.1280
 1894SOL    HW3 7343   3.922   4.227   0.179  0.5528 -0.1834 -0.3065
 1894SOL    MW4 7344   3.872   4.298   0.175  0.4325 -0.6903  0.2592
 1895SOL     OW 7345   0.638   0.851   6.132 -0.1690  0.1756 -0.0144
 1895SOL    HW2 7346   0.645   0.944   6.111 -0.7339  0.1342 -0.4401
 1895SOL    HW3 7347   0.689   0.807   6.064 -2.3263  0.0172 -1.6541
 1895SOL    MW4 7348   0.646   0.857   6.120  0.0402  0.1468 -0.7650
 1896SOL     OW 7349   5.977   1.711   3.671  0.4940  0.1484  0.0621
 1896SOL    HW2 7350   5.891   1.754   3.676  0.6574  0.5513 -0.4611
 1896SOL    HW3 7351   5.963   1.637   3.612  0.7101  0.7522 -0.7720
 1896SOL    MW4 7352   5.964   1.707   3.664 -0.1950 -0.2202  0.3024
 1897SOL     OW 7353   0.229   4.362   2.755  0.3925 -0.1567  0.2199
 1897SOL    HW2 7354   0.167   4.390   2.687 -0.1538  0.1423  0.8267
 1897SOL    HW3 7355   0.257   4.443   2.797 -0.3886 -0.4215  1.2968
 1897SOL    MW4 7356   0.224   4.376   2.752 -0.0024  0.7895 -0.3713
 1898SOL     OW 7357   6.116   0.582   3.956  0.4554  0.7021 -0.5034
 1898SOL    HW2 7358   6.090   0.664   3.913  0.0586  0.3240 -0.9926
 1898SOL    HW3 7359   6.211   0.587   3.960  0.4397  1.1607 -0.5899
 1898SOL    MW4 7360   6.125   0.594   3.951  0.2387 -0.1791 -0.1135
 1899SOL     OW 7361   1.680   4.034   1.774  0.6575 -0.1401 -0.2313
 1899SOL    HW2 7362   1.766   4.071   1.793 -0.4093  1.1788  2.5528
 1899SOL    HW3 7363   1.650   4.083   1.697  2.5449 -1.0499 -1.6474
 1899SOL    MW4 7364   1.687   4.045   1.766 -0.1456  0.4268 -0.0847
 1900SOL     OW 7365   2.713   5.639   3.110 -0.1239  0.2495  0.5028
 1900SOL    HW2 7366   2.757   5.600   3.185  1.8270 -0.0203 -0.6799
 1900SOL    HW3 7367   2.665   5.567   3.069 -1.5500  0.4905  1.6717
 1900SOL    MW4 7368   2.713   5.624   3.114 -0.0780  0.1863  0.5667
 1901SOL     OW 7369   2.429   5.049   5.151 -0.2973  0.5705 -0.0230
 1901SOL    HW2 7370   2.487   5.063   5.226  0.3262 -0.5330 -0.2723
 1901SOL    HW3 7371   2.414   5.136   5.116  1.0563  0.9110  0.1785
 1901SOL    MW4 7372   2.435   5.062   5.157  0.4528  0.0414  0.2836
 1902SOL     OW 7373   4.140   4.959   5.994  0.6441  0.9020  0.2343
 1902SOL    HW2 7374   4.146   4.925   6.083 -1.1180 -0.0845  0.0252
 1902SOL    HW3 7375   4.137   5.054   6.004  0.3365  0.7983  1.2502
 1902SOL    MW4 7376   4.140   4.967   6.007 -0.4954 -0.1743  0.3197
 1903SOL     OW 7377   6.089   2.450   1.152  0.2609  0.3446 -0.1595
 1903SOL    HW2 7378   6.091   2.545   1.149 -0.8461  0.3746 -0.0965
 1903SOL    HW3 7379   6.139   2.428   1.231  0.7828  0.8474 -0.3381
 1903SOL    MW4 7380   6.096   2.460   1.162  0.3211 -0.8339 -0.8267
 1904SOL     OW 7381   5.523   2.061   4.743  1.1286 -0.3195  0.0528
 1904SOL    HW2 7382   5.547   1.977   4.781  1.8202  0.1076  0.5905
 1904SOL    HW3 7383   5.575   2.067   4.663  0.0408 -1.0000 -0.7331
 1904SOL    MW4 7384   5.533   2.051   4.737  0.3860  0.3383 -0.5965
 1905SOL     OW 7385   4.819   3.118   4.620 -0.0212 -0.0866  0.1525
 1905SOL    HW2 7386   4.744   3.123   4.680 -0.9699 -2.5829 -0.6582
 1905SOL    HW3 7387   4.874   3.049   4.658  1.3621  0.9933  0.1615
 1905SOL    MW4 7388   4.816   3.109   4.633  0.2286 -0.2874 -0.0262
 1906SOL     OW 7389   0.387   6.122   1.210  0.6811 -1.1358  0.2729
 1906SOL    HW2 7390   0.335   6.191   1.252  0.1947 -1.3076 -0.0385
 1906SOL    HW3 7391   0.476   6.137   1.241  1.0895  1.1818 -1.7257
 1906SOL    MW4 7392   0.392   6.133   1.220 -0.0894  0.0154  0.0299
 1907SOL     OW 7393   6.305   4.595   5.314 -0.3730  0.1373 -0.2589
 1907SOL    HW2 7394   6.382   4.635   5.274  0.5482 -0.4948  0.8179
 1907SOL    HW3 7395   6.319   4.604   5.408 -0.8563 -1.3467 -0.0077
 1907SOL    MW4 7396   6.317   4.601   5.321 -0.1510  0.3111 -0.2490
 1908SOL     OW 7397   5.931   1.331   0.914  0.0156 -0.0649 -0.0945
 1908SOL    HW2 7398   5.881   1.255   0.945 -0.7151  0.9408  1.2887
 1908SOL    HW3 7399   5.900   1.404   0.967  1.4611  1.0206 -0.6675
 1908SOL    MW4 7400   5.920   1.330   0.925 -0.3148 -0.0777 -0.0033
 1909SOL     OW 7401   4.243   2.726   0.934 -0.2778 -0.1543  0.2434
 1909SOL    HW2 7402   4.226   2.773   0.852  0.0130 -1.3757 -0.5303
 1909SOL    HW3 7403   4.181   2.765   0.996  1.0821  2.4550  0.1314
 1909SOL    MW4 7404   4.232   2.737   0.931 -0.4810 -0.2494  0.9896
 1910SOL     OW 7405   2.794   0.823   2.027  0.2966 -0.4871 -0.2724
 1910SOL    HW2 7406   2.820   0.796   2.115 -2.0558  2.0324  1.3401
 1910SOL    HW3 7407   2.698   0.816   2.027  0.1339  0.9708 -2.1349
 1910SOL    MW4 7408   2.785   0.818   2.038 -0.5250 -0.2183 -0.3382
 1911SOL     OW 7409   5.452   6.473   5.021  0.2336  0.2953  0.0580
 1911SOL    HW2 7410   5.469   6.442   5.110  3.5927  0.3162 -0.4711
 1911SOL    HW3 7411   5.468   6.567   5.024  0.9097  0.2089 -0.6778
 1911SOL    MW4 7412   5.456   6.481   5.033  0.3811  0.0547  0.1170
 1912SOL     OW 7413   6.229   4.365   0.054  0.0697 -0.0457 -0.2732
 1912SOL    HW2 7414   6.224   4.291   0.115  0.6949  1.3262  1.5185
 1912SOL    HW3 7415   6.293   4.424   0.093 -1.6480  2.2553 -0.7425
 1912SOL    MW4 7416   6.237   4.363   0.067  0.5486 -0.3585  0.1402
 1913SOL     OW 7417   1.044   6.273   2.364  0.6366  0.2356 -0.1966
 1913SOL    HW2 7418   1.083   6.221   2.295  2.5138  0.7310  0.4326
 1913SOL    HW3 7419   1.006   6.209   2.424  2.3349 -0.4390  0.2262
 1913SOL    MW4 7420   1.044   6.258   2.363 -0.2111 -0.5263  0.4245
 1914SOL     OW 7421   3.359   6.090   1.719 -0.3166  0.3329 -0.0028
 1914SOL    HW2 7422   3.355   6.106   1.814  0.2237  3.6983 -0.4268
 1914SOL    HW3 7423   3.437   6.136   1.690  0.1882 -1.6109 -2.0022
 1914SOL    MW4 7424   3.369   6.098   1.728  0.0689  0.2610  0.1735
 1915SOL     OW 7425   2.722   2.148   3.070 -0.0369  0.8504  0.3047
 1915SOL    HW2 7426   2.780   2.224   3.067  0.1286  0.7060 -0.6484
 1915SOL    HW3 7427   2.712   2.123   2.978 -2.4003  1.4656  0.3459
 1915SOL    MW4 7428   2.729   2.155   3.057  0.0747 -0.2827  0.1176
 1916SOL     OW 7429   5.601   4.224   1.122  0.4323 -0.3504 -0.0163
 1916SOL    HW2 7430   5.584   4.145   1.069 -0.5305 -2.0082  2.5656
 1916SOL    HW3 7431   5.696   4.230   1.126  0.5513  0.0683 -2.1697
 1916SOL    MW4 7432   5.611   4.214   1.115  0.0485  0.0917  0.4311
 1917SOL     OW 7433   4.517   4.937   5.227  0.0983 -0.4664 -0.3317
 1917SOL    HW2 7434   4.563   5.013   5.261 -1.0788  1.8392 -3.3592
 1917SOL    HW3 7435   4.463   4.907   5.300  1.5562  0.7673  1.3484
 1917SOL    MW4 7436   4.516   4.943   5.241  0.3193 -0.1582  0.3558
 1918SOL     OW 7437   5.114   6.421   1.366 -0.0662  0.1155 -0.2835
 1918SOL    HW2 7438   5.154   6.488   1.310 -0.2042 -1.7629 -2.8190
 1918SOL    HW3 7439   5.027   6.407   1.327 -0.2583 -1.1121  0.5510
 1918SOL    MW4 7440   5.108   6.428   1.353  0.0514 -0.6612 -0.1701
 1919SOL     OW 7441   5.909   1.964   0.705  0.0061 -0.0095  0.2490
 1919SOL    HW2 7442   5.826   1.925   0.731 -0.0015  0.2430  0.6031
 1919SOL    HW3 7443   5.933   1.917   0.625 -0.3996 -0.1876  0.2293
 1919SOL    MW4 7444   5.901   1.952   0.698 -0.5397 -0.3354  0.1658
 1920SOL     OW 7445   0.939   4.819   3.550  0.5747  0.4079  0.3353
 1920SOL    HW2 7446   0.998   4.779   3.487  0.4853 -0.0212  0.5173
 1920SOL    HW3 7447   0.879   4.748   3.575  0.4273  0.6488  0.6796
 1920SOL    MW4 7448   0.939   4.804   3.545  0.2538 -0.3459  0.2271
 1921SOL     OW 7449   4.322   1.353   2.662 -0.1244 -0.1662 -0.2187
 1921SOL    HW2 7450   4.330   1.267   2.703 -3.0077  0.0845  1.0758
 1921SOL    HW3 7451   4.239   1.349   2.614 -1.1829  2.3615  1.2131
 1921SOL    MW4 7452   4.312   1.341   2.661 -0.1870  0.0699 -0.5307
 1922SOL     OW 7453   3.188   5.962   4.017  0.0823  0.5010 -0.1199
 1922SOL    HW2 7454   3.172   5.989   4.107 -2.4642  3.2563 -1.2184
 1922SOL    HW3 7455   3.283   5.945   4.013  0.1783 -0.2899  3.1212
 1922SOL    MW4 7456   3.199   5.963   4.028  0.0997 -0.1252 -0.1409
 1923SOL     OW 7457   2.607   4.813   0.388 -0.0095 -0.1869  0.2749
 1923SOL    HW2 7458   2.600   4.888   0.328  3.7282  0.8242  0.8282
 1923SOL    HW3 7459   2.605   4.736   0.331 -1.1406  0.4896 -0.6174
 1923SOL    MW4 7460   2.606   4.813   0.372  0.2576  0.1424 -0.6330
 1924SOL     OW 7461   1.943   5.633   0.463 -0.3793 -0.3069 -0.0071
 1924SOL    HW2 7462   1.995   5.561   0.427  0.4202 -0.5629  1.5623
 1924SOL    HW3 7463   2.002   5.709   0.459 -0.1295 -0.4188  1.0177
 1924SOL    MW4 7464   1.958   5.634   0.458  0.0845  0.5902 -0.2548
 1925SOL     OW 7465   4.381   2.227   5.470  0.3131  0.0485  0.5190
 1925SOL    HW2 7466   4.436   2.258   5.543  0.3005 -1.0684  1.0228
 1925SOL    HW3 7467   4.346   2.307   5.431  1.3709  0.7269  0.9212
 1925SOL    MW4 7468   4.384   2.242   5.475 -0.3910  0.2595 -0.8425
 1926SOL     OW 7469   0.024   5.016   2.121  0.1508 -0.3324 -0.8982
 1926SOL    HW2 7470   0.059   4.927   2.117  2.0995  0.4205 -1.7067
 1926SOL    HW3 7471   0.081   5.067   2.063 -2.3368  1.0149 -2.3616
 1926SOL    MW4 7472   0.036   5.011   2.113  0.0094  0.0974 -0.5325
 1927SOL     OW 7473   1.073   4.224   1.856  0.2220 -0.0666  0.4713
 1927SOL    HW2 7474   1.140   4.285   1.825 -1.4367  1.2197 -0.8013
 1927SOL    HW3 7475   1.006   4.225   1.788 -0.7496 -1.8925  1.3234
 1927SOL    MW4 7476   1.073   4.232   1.843  0.1575 -0.4126  0.2323
 1928SOL     OW 7477   3.767   3.510   5.544  0.0556 -0.0496  0.9794
 1928SOL    HW2 7478   3.733   3.502   5.633 -0.4896 -0.2686  0.7592
 1928SOL    HW3 7479   3.763   3.421   5.509 -3.0263  0.4956 -0.4172
 1928SOL    MW4 7480   3.762   3.497   5.551 -0.1873 -0.3564  0.2107
 1929SOL     OW 7481   2.824   3.313   2.070  0.2488  0.5132  0.2809
 1929SOL    HW2 7482   2.839   3.377   2.140  0.9098 -0.3330  0.9394
 1929SOL    HW3 7483   2.799   3.233   2.115 -2.8935  0.8464 -0.6316
 1929SOL    MW4 7484   2.823   3.311   2.085  0.3236 -0.4059  0.3508
 1930SOL     OW 7485   3.245   4.760   3.783  0.2340 -0.3628 -0.1530
 1930SOL    HW2 7486   3.208   4.847   3.797  1.7299  0.4947 -1.2628
 1930SOL    HW3 7487   3.275   4.761   3.692 -2.0897 -2.9841 -1.0745
 1930SOL    MW4 7488   3.244   4.772   3.773  0.3224  0.2695  0.0033
 1931SOL     OW 7489   5.530   3.507   6.146  0.0366 -0.3062 -0.1820
 1931SOL    HW2 7490   5.447   3.553   6.158 -0.0384 -0.6927  0.8367
 1931SOL    HW3 7491   5.541   3.504   6.051 -0.8205  0.2669 -0.3168
 1931SOL    MW4 7492   5.520   3.513   6.135 -0.3741  0.1364  0.7132
 1932SOL     OW 7493   0.693   2.082   1.078  0.4680 -0.4192  0.6485
 1932SOL    HW2 7494   0.636   2.153   1.107 -1.2902 -0.9701 -1.2742
 1932SOL    HW3 7495   0.762   2.126   1.028  0.2602  0.0631  0.7765
 1932SOL    MW4 7496   0.695   2.097   1.075 -0.0521  0.1080 -0.3114
 1933SOL     OW 7497   3.157   5.926   0.744 -0.1968 -0.1585 -0.5120
 1933SOL    HW2 7498   3.147   5.917   0.650  1.1912  2.8171 -1.0764
 1933SOL    HW3 7499   3.128   6.015   0.763  3.2144  0.8026  1.1198
 1933SOL    MW4 7500   3.152   5.936   0.734 -0.2771  0.6935  0.1773
 1934SOL     OW 7501   1.552   6.274   5.760 -0.1370 -0.8152 -0.1874
 1934SOL    HW2 7502   1.478   6.215   5.743 -0.1316 -0.8908  0.0469
 1934SOL    HW3 7503   1.515   6.344   5.814  0.5896 -2.4756  2.6902
 1934SOL    MW4 7504   1.537   6.275   5.765  0.0459  0.4701  0.1123
 1935SOL     OW 7505   3.091   3.410   1.289  0.3410  0.6181 -0.3226
 1935SOL    HW2 7506   3.148   3.475   1.247  3.2269 -0.8218  1.0386
 1935SOL    HW3 7507   3.022   3.461   1.331  0.5323  2.4695 -2.1122
 1935SOL    MW4 7508   3.090   3.425   1.289  0.4070 -0.2205  0.2630
 1936SOL     OW 7509   4.954   2.208   0.402 -0.0025 -0.1542  0.2278
 1936SOL    HW2 7510   4.957   2.196   0.497 -1.0349 -0.4534  0.2334
 1936SOL    HW3 7511   4.860   2.212   0.381  0.1214  3.3596 -0.3375
 1936SOL    MW4 7512   4.942   2.207   0.412  0.0405  0.5310  0.2511
 1937SOL     OW 7513   1.657   5.411   3.009 -0.1933  0.1061 -0.2462
 1937SOL    HW2 7514   1.615   5.468   3.073 -0.1515  0.4631 -0.5325
 1937SOL    HW3 7515   1.630   5.446   2.924  0.6410  0.3153 -0.4354
 1937SOL    MW4 7516   1.648   5.423   3.006  0.6557  0.0638  0.3010
 1938SOL     OW 7517   5.880   6.326   3.132 -0.3183  0.0438 -0.4807
 1938SOL    HW2 7518   5.958   6.371   3.100  0.7422  0.8674  2.9033
 1938SOL    HW3 7519   5.909   6.237   3.151 -0.6022 -0.0604 -0.5247
 1938SOL    MW4 7520   5.894   6.321   3.130  0.2060  0.7103  0.1518
 1939SOL     OW 7521   3.755   1.649   3.055  0.1523 -0.0858 -0.0099
 1939SOL    HW2 7522   3.766   1.744   3.042 -2.4798  0.2001 -0.7262
 1939SOL    HW3 7523   3.696   1.622   2.985 -0.5636 -1.9183  1.2219
 1939SOL    MW4 7524   3.748   1.658   3.044 -0.6455 -0.1784 -0.3020
 1940SOL     OW 7525   5.342   3.895   0.691 -0.3502 -0.7929 -0.0144
 1940SOL    HW2 7526   5.259   3.889   0.643 -0.9221 -1.0036  0.9723
 1940SOL    HW3 7527   5.352   3.989   0.708 -0.6407 -0.8133  0.2864
 1940SOL    MW4 7528   5.332   3.907   0.687 -0.0376 -0.0323  0.2821
 1941SOL     OW 7529   1.769   3.325   3.103 -0.1845 -0.1585 -0.4293
 1941SOL    HW2 7530   1.826   3.280   3.040 -1.3483 -0.9715 -0.9309
 1941SOL    HW3 7531   1.739   3.256   3.162  0.7098  0.5566  0.9181
 1941SOL    MW4 7532   1.773   3.310   3.102  0.4689  0.1144  0.2913
 1942SOL     OW 7533   1.356   2.400   0.489  0.2390 -0.3317 -0.1722
 1942SOL    HW2 7534   1.324   2.310   0.486  2.6383 -1.2413 -0.9727
 1942SOL    HW3 7535   1.400   2.407   0.574  1.6863 -0.5677 -0.8750
 1942SOL    MW4 7536   1.358   2.389   0.500  0.0846 -0.0492 -0.2097
 1943SOL     OW 7537   0.927   0.269   1.856 -0.1362  0.3579 -0.1784
 1943SOL    HW2 7538   0.978   0.276   1.775 -0.6874 -0.9433 -0.6708
 1943SOL    HW3 7539   0.844   0.312   1.836 -1.5883 -2.7594 -1.5142
 1943SOL    MW4 7540   0.923   0.276   1.843 -0.5745 -0.7800  0.4165
 1944SOL     OW 7541   1.260   5.312   3.678  0.1760 -0.5229  0.2531
 1944SOL    HW2 7542   1.350   5.283   3.664 -0.5818 -2.0632 -2.0615
 1944SOL    HW3 7543   1.220   5.241   3.728  0.1758  0.0423  1.0591
 1944SOL    MW4 7544   1.267   5.299   3.682  0.0153  0.3606  0.3663
 1945SOL     OW 7545   3.425   1.558   0.020 -0.2359 -0.1566  0.1289
 1945SOL    HW2 7546   3.501   1.516   0.060 -0.2366  0.0337  0.3318
 1945SOL    HW3 7547   3.415   1.641   0.067 -1.0856 -0.5603  0.6993
 1945SOL    MW4 7548   3.433   1.563   0.031 -0.2398 -0.9412 -0.2933
 1946SOL     OW 7549   3.106   3.126   0.441 -0.2116 -0.5853 -0.1170
 1946SOL    HW2 7550   3.183   3.171   0.477 -0.8657 -0.0100  0.6101
 1946SOL    HW3 7551   3.078   3.182   0.368 -1.1120  0.3109  0.8794
 1946SOL    MW4 7552   3.113   3.140   0.436 -0.1321 -0.0229  0.3763
 1947SOL     OW 7553   1.646   1.483   2.843 -0.4015 -0.3590  0.6933
 1947SOL    HW2 7554   1.704   1.499   2.769 -0.7519 -0.7780  0.3244
 1947SOL    HW3 7555   1.703   1.443   2.909 -0.4272 -1.5631  0.0209
 1947SOL    MW4 7556   1.661   1.479   2.842  0.1441  0.5393  0.0391
 1948SOL     OW 7557   0.837   2.882   1.003 -0.0702  0.8851  0.0314
 1948SOL    HW2 7558   0.841   2.968   1.043 -0.5216  1.3767 -0.9383
 1948SOL    HW3 7559   0.795   2.897   0.918  2.7572  0.2507 -1.6090
 1948SOL    MW4 7560   0.832   2.895   0.997 -0.6253  0.2930  0.1164
 1949SOL     OW 7561   0.201   0.318   4.023  0.4920  0.1401  0.1944
 1949SOL    HW2 7562   0.133   0.383   4.039  0.6823  0.7818 -1.4404
 1949SOL    HW3 7563   0.224   0.329   3.931  2.9718  0.1127  0.7407
 1949SOL    MW4 7564   0.195   0.328   4.013  0.5456  0.2862 -0.1365
 1950SOL     OW 7565   1.182   6.275   0.224  0.3384  0.5713 -0.1182
 1950SOL    HW2 7566   1.169   6.234   0.309 -1.4891 -0.5095 -0.8447
 1950SOL    HW3 7567   1.277   6.281   0.215  0.5731  0.7514  1.9855
 1950SOL    MW4 7568   1.193   6.270   0.234  0.3416 -0.0882  0.3254
 1951SOL     OW 7569   5.560   2.281   2.395  0.1093 -0.3097 -0.3313
 1951SOL    HW2 7570   5.549   2.335   2.473  0.6070  0.7409 -0.9614
 1951SOL    HW3 7571   5.498   2.317   2.331  1.5942  0.6158 -1.3057
 1951SOL    MW4 7572   5.550   2.293   2.397 -0.3268 -0.5836 -0.1216
 1952SOL     OW 7573   1.560   3.142   4.696  0.2606 -0.5484  0.1363
 1952SOL    HW2 7574   1.614   3.093   4.634  1.9857 -1.3770  2.1579
 1952SOL    HW3 7575   1.621   3.205   4.735 -0.7703 -0.0616  0.9969
 1952SOL    MW4 7576   1.575   3.144   4.693 -0.3390  0.0546  0.5037
 1953SOL     OW 7577   1.354   3.530   2.436 -0.2431  0.5379 -0.4555
 1953SOL    HW2 7578   1.283   3.466   2.437  0.3741 -0.1742  1.0727
 1953SOL    HW3 7579   1.401   3.513   2.355  0.4497 -1.6024  0.3199
 1953SOL    MW4 7580   1.350   3.519   2.425 -0.0481  0.2090 -0.7295
 1954SOL     OW 7581   5.579   3.832   6.331 -0.2123  0.3374  0.3676
 1954SOL    HW2 7582   5.596   3.851   6.239 -0.1873 -0.2107  0.2529
 1954SOL    HW3 7583   5.485   3.817   6.336  0.0464 -1.7439  0.0035
 1954SOL    MW4 7584   5.569   3.833   6.320 -0.3283  0.6075  0.5772
 1955SOL     OW 7585   5.194   1.095   5.156  0.2790 -0.4951 -0.3954
 1955SOL    HW2 7586   5.129   1.037   5.115  0.5554 -1.0852 -0.0256
 1955SOL    HW3 7587   5.249   1.125   5.083  0.6718 -1.4109 -0.4952
 1955SOL    MW4 7588   5.193   1.091   5.141 -0.4258 -0.5355 -0.1523
 1956SOL     OW 7589   0.637   2.555   4.527  0.3818 -0.2064  0.1676
 1956SOL    HW2 7590   0.670   2.628   4.474  0.9444 -0.6147 -0.0436
 1956SOL    HW3 7591   0.715   2.513   4.562  0.0233 -0.0077  1.2500
 1956SOL    MW4 7592   0.652   2.559   4.525 -0.5562  0.0830  0.4983
 1957SOL     OW 7593   2.620   3.021   6.011 -0.3991 -0.7048 -0.2546
 1957SOL    HW2 7594   2.561   2.986   5.944 -0.8612 -1.5608  0.5698
 1957SOL    HW3 7595   2.675   3.084   5.964 -1.6287 -0.2534 -1.1556
 1957SOL    MW4 7596   2.619   3.025   5.996  0.1288  0.4834  0.1085
 1958SOL     OW 7597   5.889   5.668   2.460 -0.2438  0.7367  0.0073
 1958SOL    HW2 7598   5.884   5.697   2.369 -0.5020  0.6252 -0.0145
 1958SOL    HW3 7599   5.970   5.706   2.493 -0.2090  0.8737 -0.2360
 1958SOL    MW4 7600   5.899   5.677   2.452 -0.2887  0.1732 -0.5022
 1959SOL     OW 7601   3.520   5.443   2.127 -0.2737  0.4184  0.6176
 1959SOL    HW2 7602   3.540   5.432   2.220 -0.4997 -0.1516  0.5988
 1959SOL    HW3 7603   3.600   5.418   2.082  0.3089  1.9949  0.6965
 1959SOL    MW4 7604   3.533   5.438   2.133 -0.5408  0.2704  0.1791
 1960SOL     OW 7605   1.681   5.067   2.777 -0.7707 -0.5395 -0.2683
 1960SOL    HW2 7606   1.604   5.119   2.757 -1.1564 -0.5045  1.2208
 1960SOL    HW3 7607   1.755   5.122   2.751 -1.2024 -0.9876 -2.7079
 1960SOL    MW4 7608   1.681   5.081   2.771 -0.1922  0.5758 -0.3201
 1961SOL     OW 7609   4.019   3.657   6.368 -0.2706  0.1106 -0.4096
 1961SOL    HW2 7610   4.010   3.752   6.361  0.3753  0.2303  0.2524
 1961SOL    HW3 7611   4.085   3.634   6.303 -0.9189  0.0154 -1.0496
 1961SOL    MW4 7612   4.026   3.667   6.359  0.3651  0.3053  0.0064
 1962SOL     OW 7613   5.548   2.726   0.109  0.6233  0.2151 -0.0488
 1962SOL    HW2 7614   5.497   2.657   0.151  2.3518  0.4145  2.6496
 1962SOL    HW3 7615   5.505   2.807   0.137  0.7899  0.3051 -0.0527
 1962SOL    MW4 7616   5.536   2.728   0.118  0.1029 -0.2035 -0.2752
 1963SOL     OW 7617   0.514   3.584   5.735 -0.0046 -0.1733  0.5790
 1963SOL    HW2 7618   0.483   3.665   5.695  0.7465 -0.4253 -0.5763
 1963SOL    HW3 7619   0.497   3.595   5.828 -1.0239  0.8045  0.2977
 1963SOL    MW4 7620   0.508   3.596   5.742  0.0707  0.4425 -0.0046
 1964SOL     OW 7621   6.326   2.386   0.989 -0.6624  0.7922 -0.3616
 1964SOL    HW2 7622   6.255   2.400   1.052 -1.4211 -0.2665 -0.9473
 1964SOL    HW3 7623   6.290   2.323   0.926  1.1058 -0.5556 -0.1163
 1964SOL    MW4 7624   6.312   2.379   0.989  0.5351  0.1958 -0.3720
 1965SOL     OW 7625   3.599   5.690   5.113  0.4470 -0.0442  0.6119
 1965SOL    HW2 7626   3.599   5.781   5.143  1.5654  0.4342 -0.7267
 1965SOL    HW3 7627   3.507   5.668   5.102  0.1276  0.6557  1.6887
 1965SOL    MW4 7628   3.587   5.699   5.115  0.1819 -0.1171  0.2133
 1966SOL     OW 7629   4.554   2.229   2.710  0.1537 -0.2617  0.0883
 1966SOL    HW2 7630   4.542   2.228   2.615  0.1580 -1.6930  0.0752
 1966SOL    HW3 7631   4.633   2.281   2.724 -1.2147  2.1081 -0.4653
 1966SOL    MW4 7632   4.563   2.236   2.699 -0.5592  0.2628  0.1461
 1967SOL     OW 7633   1.906   3.902   0.657 -0.0079 -0.2216  0.4038
 1967SOL    HW2 7634   1.846   3.945   0.596  3.3818  4.2125 -0.3249
 1967SOL    HW3 7635   1.980   3.874   0.604  1.1026 -0.3240  1.9267
 1967SOL    MW4 7636   1.908   3.904   0.642  0.1199  0.2691 -0.2520
 1968SOL     OW 7637   4.550   5.814   6.401 -0.2146 -0.0616 -0.0742
 1968SOL    HW2 7638   4.496   5.863   6.339  0.9818  2.3659  0.6718
 1968SOL    HW3 7639   4.640   5.830   6.372  0.3205  0.2966  1.6786
 1968SOL    MW4 7640   4.555   5.822   6.389 -0.3825  0.6799  0.1158
 1969SOL     OW 7641   2.637   0.542   2.960 -0.1110  0.3029  0.0841
 1969SOL    HW2 7642   2.614   0.528   3.052 -0.0152 -0.1061  0.0487
 1969SOL    HW3 7643   2.696   0.470   2.939 -1.1991 -0.3967 -0.6776
 1969SOL    MW4 7644   2.642   0.531   2.969 -0.1109  0.1261  0.2105
 1970SOL     OW 7645   2.641   3.427   2.565 -0.0469  0.1700 -0.1253
 1970SOL    HW2 7646   2.589   3.501   2.597  0.3623 -0.2804  1.7131
 1970SOL    HW3 7647   2.603   3.406   2.480 -1.8248  0.8976  0.4414
 1970SOL    MW4 7648   2.629   3.434   2.558  0.0356 -0.3758  0.2143
 1971SOL     OW 7649   0.079   2.035   2.143 -0.2592  0.4082 -0.1056
 1971SOL    HW2 7650   0.021   1.967   2.176 -0.2227  0.4855  0.1237
 1971SOL    HW3 7651   0.021   2.097   2.099 -0.2560  0.0755 -0.5786
 1971SOL    MW4 7652   0.064   2.035   2.142  0.0215 -0.2458 -0.3605
 1972SOL     OW 7653   3.885   3.433   1.848 -0.1092  0.1253 -0.4486
 1972SOL    HW2 7654   3.974   3.400   1.859 -0.4941 -1.2648 -1.2804
 1972SOL    HW3 7655   3.854   3.392   1.767 -1.1915  1.3020 -0.6668
 1972SOL    MW4 7656   3.893   3.424   1.838  0.1980  0.1086 -0.2281
 1973SOL     OW 7657   2.743   3.623   4.532 -0.3497 -0.3641  0.3190
 1973SOL    HW2 7658   2.797   3.545   4.542  1.2004 -0.0952 -3.8406
 1973SOL    HW3 7659   2.654   3.590   4.522  0.2292 -1.6460 -1.0005
 1973SOL    MW4 7660   2.739   3.609   4.532 -0.4327 -0.3940  0.1885
 1974SOL     OW 7661   1.277   3.466   0.620  0.4149 -0.4764 -0.7691
 1974SOL    HW2 7662   1.353   3.491   0.566  0.8102  2.4660  0.9433
 1974SOL    HW3 7663   1.315   3.421   0.695  0.1855 -1.2458 -1.0985
 1974SOL    MW4 7664   1.292   3.463   0.622  0.0794  0.3170  0.1676
 1975SOL     OW 7665   1.378   4.898   0.700 -0.1331 -0.2898 -0.0852
 1975SOL    HW2 7666   1.353   4.869   0.788  1.3854  0.2353  0.5568
 1975SOL    HW3 7667   1.362   4.992   0.700 -1.5353 -0.5042 -0.9039
 1975SOL    MW4 7668   1.373   4.906   0.712  0.1798  0.0319 -0.1879
 1976SOL     OW 7669   5.994   1.127   2.789  0.4395  0.0306 -0.0360
 1976SOL    HW2 7670   5.971   1.202   2.844 -1.1769 -0.3809 -0.1233
 1976SOL    HW3 7671   6.090   1.126   2.791  0.5184  2.1588 -0.1219
 1976SOL    MW4 7672   6.004   1.137   2.797  0.1231  0.3021 -0.5051
 1977SOL     OW 7673   3.074   5.290   5.145 -0.0916 -0.0425 -0.1368
 1977SOL    HW2 7674   3.154   5.240   5.130  0.5211  0.8724  0.0273
 1977SOL    HW3 7675   3.040   5.309   5.058 -1.2027 -2.0866 -0.1986
 1977SOL    MW4 7676   3.080   5.286   5.132 -0.3469 -0.5447  0.0286
 1978SOL     OW 7677   4.484   5.854   2.305 -0.0848  0.0285  0.2308
 1978SOL    HW2 7678   4.403   5.903   2.290 -0.3442 -0.3117  0.5039
 1978SOL    HW3 7679   4.547   5.920   2.333 -0.3022  0.2781  0.1410
 1978SOL    MW4 7680   4.481   5.869   2.306 -0.3472 -0.0300  0.0127
 1979SOL     OW 7681   3.024   6.079   4.823  0.2494 -0.0317 -0.1013
 1979SOL    HW2 7682   2.961   6.144   4.851  0.4190 -0.1970  0.6769
 1979SOL    HW3 7683   3.015   6.076   4.727 -2.1534 -1.3196  0.0977
 1979SOL    MW4 7684   3.015   6.087   4.814 -0.1868 -0.1730 -0.1833
 1980SOL     OW 7685   0.378   1.706   2.846  0.1212 -0.3344  0.3238
 1980SOL    HW2 7686   0.349   1.673   2.761  0.3703  0.6182 -0.1449
 1980SOL    HW3 7687   0.432   1.636   2.882  0.5143 -0.5073 -0.5773
 1980SOL    MW4 7688   0.381   1.692   2.839  0.0082  0.0997 -0.1472
 1981SOL     OW 7689   2.501   0.806   2.358 -0.7825 -0.4369  0.4251
 1981SOL    HW2 7690   2.490   0.894   2.322 -1.1388 -0.4834  0.4217
 1981SOL    HW3 7691   2.531   0.821   2.448  1.1572 -0.3190 -0.1817
 1981SOL    MW4 7692   2.504   0.820   2.365  0.1068  0.2381  0.1590
 1982SOL     OW 7693   5.658   3.440   2.071 -0.2963  0.3311  0.4426
 1982SOL    HW2 7694   5.706   3.393   2.140 -0.0711 -1.0728 -0.6121
 1982SOL    HW3 7695   5.666   3.532   2.095  1.3817  0.0183  1.2938
 1982SOL    MW4 7696   5.666   3.446   2.083  0.5216  0.4042  0.0722
 1983SOL     OW 7697   6.023   5.666   0.237  0.4746 -0.2863  0.6870
 1983SOL    HW2 7698   6.050   5.718   0.313 -0.1797  0.4095  0.4606
 1983SOL    HW3 7699   5.942   5.708   0.208  0.4735 -0.8323 -0.1125
 1983SOL    MW4 7700   6.016   5.679   0.244  0.0067  0.0144 -0.4595
 1984SOL     OW 7701   4.313   3.111   0.610  0.0501  0.2296  0.2395
 1984SOL    HW2 7702   4.350   3.105   0.522  1.2027  3.2728  0.3961
 1984SOL    HW3 7703   4.265   3.194   0.610  1.4715  1.1702  2.8681
 1984SOL    MW4 7704   4.312   3.121   0.598 -0.3228 -0.2323  0.1662
 1985SOL     OW 7705   1.443   1.254   1.656 -0.1555 -0.1508  0.0030
 1985SOL    HW2 7706   1.381   1.250   1.583 -0.0597 -1.3747 -0.0372
 1985SOL    HW3 7707   1.397   1.211   1.729 -0.3705  1.3259  0.7702
 1985SOL    MW4 7708   1.429   1.248   1.656 -0.2993 -0.4992  0.0535
 1986SOL     OW 7709   0.431   6.343   2.612  0.0997  0.0995  0.6808
 1986SOL    HW2 7710   0.450   6.420   2.558  1.1396 -0.9246 -0.4775
 1986SOL    HW3 7711   0.345   6.360   2.648 -0.1538  1.3388 -0.4248
 1986SOL    MW4 7712   0.422   6.355   2.609  0.1219  0.3290  0.1643
 1987SOL     OW 7713   1.730   0.965   4.539 -0.5211  0.1673  0.0146
 1987SOL    HW2 7714   1.740   0.871   4.553 -0.1849  0.6380  3.6627
 1987SOL    HW3 7715   1.641   0.984   4.568 -0.1038  1.1771  0.6756
 1987SOL    MW4 7716   1.719   0.955   4.544 -0.1050 -0.0883  0.5663
 1988SOL     OW 7717   2.062   1.855   0.565  0.1028 -0.2307 -0.1954
 1988SOL    HW2 7718   2.110   1.851   0.648 -1.1577  0.2423  0.6051
 1988SOL    HW3 7719   1.970   1.864   0.592 -0.2278  1.2125 -1.6237
 1988SOL    MW4 7720   2.056   1.856   0.580  0.2360  0.0961  0.2682
 1989SOL     OW 7721   0.546   4.533   3.490  0.0824 -0.2046 -0.0718
 1989SOL    HW2 7722   0.480   4.465   3.503 -0.3988  0.5678  1.7681
 1989SOL    HW3 7723   0.508   4.612   3.528  1.2245  0.7735 -0.8643
 1989SOL    MW4 7724   0.532   4.535   3.497 -0.5423 -0.3151  0.1861
 1990SOL     OW 7725   2.313   4.279   0.181  0.2689  0.2991  0.4497
 1990SOL    HW2 7726   2.269   4.197   0.202  1.9174 -0.2955  1.7949
 1990SOL    HW3 7727   2.270   4.345   0.235  0.0397  0.0165  0.6122
 1990SOL    MW4 7728   2.302   4.277   0.191 -0.0698  0.1727 -0.1280
 1991SOL     OW 7729   1.069   3.929   4.064  0.8970  0.4889  0.2109
 1991SOL    HW2 7730   1.101   3.859   4.121  0.3884 -0.1393 -0.2671
 1991SOL    HW3 7731   1.127   3.926   3.987 -0.6484 -1.1073 -0.9777
 1991SOL    MW4 7732   1.081   3.919   4.061 -0.2149 -0.0000  0.1458
 1992SOL     OW 7733   2.937   5.451   5.846 -0.3610  0.3262  0.2174
 1992SOL    HW2 7734   2.958   5.542   5.824 -0.6131  0.1617 -0.7450
 1992SOL    HW3 7735   3.012   5.401   5.813 -1.7452 -0.1709 -2.4480
 1992SOL    MW4 7736   2.950   5.456   5.838 -0.1282  0.0536 -0.4437
 1993SOL     OW 7737   4.270   4.168   2.937 -0.0594  0.1286 -0.2541
 1993SOL    HW2 7738   4.310   4.254   2.953 -1.2280  0.9902 -1.7007
 1993SOL    HW3 7739   4.266   4.161   2.841  0.5921 -1.8391 -0.1842
 1993SOL    MW4 7740   4.275   4.179   2.926  0.7244 -0.4810 -0.5513
 1994SOL     OW 7741   4.552   2.388   0.535  0.3365  0.2909  0.2370
 1994SOL    HW2 7742   4.468   2.343   0.525  0.4493  0.4714 -2.1451
 1994SOL    HW3 7743   4.536   2.455   0.601 -1.0243 -0.4643  0.7192
 1994SOL    MW4 7744   4.539   2.391   0.542  0.4029 -0.4702  0.2251
 1995SOL     OW 7745   1.151   1.757   5.625  0.4104  0.3550  0.1356
 1995SOL    HW2 7746   1.160   1.770   5.531  2.3127 -1.2228  0.0504
 1995SOL    HW3 7747   1.148   1.846   5.661  1.6108  1.0052 -1.2602
 1995SOL    MW4 7748   1.152   1.770   5.617  0.6591  0.1443  0.0950
 1996SOL     OW 7749   2.149   2.417   5.765 -0.3160 -0.6384 -0.3446
 1996SOL    HW2 7750   2.068   2.368   5.752 -1.6847  1.0827  1.1741
 1996SOL    HW3 7751   2.215   2.350   5.779 -1.7400 -2.0827 -0.2180
 1996SOL    MW4 7752   2.147   2.402   5.765  0.1754 -0.1594 -0.0054
 1997SOL     OW 7753   5.293   3.911   4.517  0.0241  0.2920  0.3243
 1997SOL    HW2 7754   5.313   3.977   4.582  1.3197  0.5276 -0.2886
 1997SOL    HW3 7755   5.292   3.828   4.566  0.2913  0.5399  0.7487
 1997SOL    MW4 7756   5.295   3.909   4.532 -0.5858 -0.4975 -0.0024
 1998SOL     OW 7757   1.347   5.384   4.390 -0.4492  0.1184 -0.2379
 1998SOL    HW2 7758   1.380   5.445   4.323  0.7399  0.0333  0.2425
 1998SOL    HW3 7759   1.269   5.345   4.350  2.0807 -2.5793 -3.1210
 1998SOL    MW4 7760   1.341   5.387   4.376  0.3006  0.1466 -0.1677
 1999SOL     OW 7761   1.465   2.732   3.198 -0.2409 -0.0428 -0.0228
 1999SOL    HW2 7762   1.508   2.734   3.283  0.6390  0.9175 -0.4807
 1999SOL    HW3 7763   1.490   2.647   3.161 -0.3886 -0.3404  0.5369
 1999SOL    MW4 7764   1.474   2.721   3.205 -0.1529  0.4466 -0.7926
 2000SOL     OW 7765   2.541   3.579   0.415 -0.0827  0.7615  0.0587
 2000SOL    HW2 7766   2.451   3.569   0.383  0.1526 -1.8299 -0.0040
 2000SOL    HW3 7767   2.535   3.564   0.509  0.4651 -1.1539 -0.1756
 2000SOL    MW4 7768   2.528   3.576   0.423  0.3065 -0.0680 -0.2981
 2001SOL     OW 7769   6.207   3.207   4.766  0.1065 -0.1056 -0.7901
 2001SOL    HW2 7770   6.205   3.165   4.680  1.2367  1.5349 -1.6596
 2001SOL    HW3 7771   6.160   3.290   4.753 -0.1029 -0.0379  0.2961
 2001SOL    MW4 7772   6.200   3.212   4.753  0.0341 -0.9618  0.0152
 2002SOL     OW 7773   3.180   1.150   6.421  0.0620  0.4774  0.6898
 2002SOL    HW2 7774   3.274   1.129   6.425  0.1663  0.4959 -0.8830
 2002SOL    HW3 7775   3.173   1.216   6.352 -1.0886  0.6112  0.9184
 2002SOL    MW4 7776   3.192   1.156   6.412 -0.0315 -0.2699 -0.7197
 2003SOL     OW 7777   6.119   5.286   6.215  0.0514  0.3299 -0.6230
 2003SOL    HW2 7778   6.171   5.314   6.140  1.9902 -2.0109 -0.2417
 2003SOL    HW3 7779   6.165   5.323   6.291 -1.9433  2.7561 -0.4494
 2003SOL    MW4 7780   6.132   5.295   6.215  0.1930  0.0554  0.7225
 2004SOL     OW 7781   5.317   5.402   5.915  0.3202  0.4792  0.0997
 2004SOL    HW2 7782   5.349   5.312   5.908  0.3242  0.3787  1.3412
 2004SOL    HW3 7783   5.279   5.420   5.829  0.1922 -0.7542 -0.1208
 2004SOL    MW4 7784   5.316   5.392   5.902  0.7112 -0.0567 -0.2167
 2005SOL     OW 7785   2.314   5.544   1.849 -0.4031 -0.0650 -0.0294
 2005SOL    HW2 7786   2.274   5.560   1.934 -0.6761 -0.6026 -0.0502
 2005SOL    HW3 7787   2.308   5.449   1.837 -0.9907  0.0778 -0.9494
 2005SOL    MW4 7788   2.308   5.534   1.859 -0.2638  0.0074 -0.0280
 2006SOL     OW 7789   0.024   1.282   4.585 -0.5796 -0.0957 -0.8609
 2006SOL    HW2 7790   0.040   1.374   4.562 -2.6483  0.4850 -0.2191
 2006SOL    HW3 7791   0.106   1.252   4.622  0.5007  1.1531 -2.1035
 2006SOL    MW4 7792   0.037   1.290   4.587  0.1203  0.1145 -0.9464
 2007SOL     OW 7793   4.606   1.446   4.707  0.4469  0.1096 -0.4390
 2007SOL    HW2 7794   4.693   1.406   4.698  0.2304 -0.2713 -0.8163
 2007SOL    HW3 7795   4.555   1.382   4.758  0.2361  0.1051 -0.6549
 2007SOL    MW4 7796   4.611   1.432   4.713 -0.0834  0.3648 -0.3017
 2008SOL     OW 7797   0.780   6.308   3.432  0.7919 -0.1298 -0.0432
 2008SOL    HW2 7798   0.830   6.244   3.381  1.8861 -0.0103  0.8409
 2008SOL    HW3 7799   0.730   6.256   3.494  0.5330 -0.2031 -0.3131
 2008SOL    MW4 7800   0.780   6.293   3.434 -0.0231  0.0429  0.4500
 2009SOL     OW 7801   2.842   6.248   3.700 -0.3933 -0.1302 -0.0896
 2009SOL    HW2 7802   2.870   6.225   3.789 -1.1481  0.3070  0.2777
 2009SOL    HW3 7803   2.856   6.169   3.649 -0.3516 -0.5219  0.5180
 2009SOL    MW4 7804   2.847   6.235   3.705  0.2019  0.5743 -0.4262
 2010SOL     OW 7805   1.270   3.327   4.609  0.3377  0.0804  0.2880
 2010SOL    HW2 7806   1.212   3.356   4.680  0.0521 -0.6788  0.3767
 2010SOL    HW3 7807   1.358   3.351   4.638  0.1523  0.4551  0.5499
 2010SOL    MW4 7808   1.274   3.334   4.622  0.5813 -0.7416  0.0827
 2011SOL     OW 7809   3.220   5.038   0.983 -0.7013 -0.0673 -0.1441
 2011SOL    HW2 7810   3.219   4.944   0.967  0.0882 -0.1939  0.4756
 2011SOL    HW3 7811   3.178   5.049   1.069  0.4577 -0.0163  0.4410
 2011SOL    MW4 7812   3.214   5.027   0.992  0.1756  0.5085  0.6459
 2012SOL     OW 7813   5.262   2.402   0.672  0.3716 -0.1855 -0.5248
 2012SOL    HW2 7814   5.199   2.460   0.629 -1.0752 -0.9226  0.5144
 2012SOL    HW3 7815   5.340   2.456   0.685 -1.0057  1.6123  0.6576
 2012SOL    MW4 7816   5.264   2.417   0.668 -0.0577 -0.1271  0.0840
 2013SOL     OW 7817   4.774   5.677   4.169  0.0978  0.4160  0.8444
 2013SOL    HW2 7818   4.841   5.710   4.229  1.7353 -0.4474 -0.4056
 2013SOL    HW3 7819   4.777   5.736   4.094  0.7010 -0.6018  0.0410
 2013SOL    MW4 7820   4.783   5.689   4.167  0.7742 -0.7405 -0.5137
 2014SOL     OW 7821   5.722   6.412   0.893  1.1358 -0.4570  0.0951
 2014SOL    HW2 7822   5.786   6.473   0.929 -0.7204  0.7908  1.5141
 2014SOL    HW3 7823   5.707   6.348   0.964  0.5473 -0.5060 -0.0652
 2014SOL    MW4 7824   5.729   6.411   0.907  0.2092  0.2739 -0.5454
 2015SOL     OW 7825   4.677   5.683   4.593  0.2112  0.0131 -0.4674
 2015SOL    HW2 7826   4.631   5.742   4.533 -0.0356 -1.5089 -1.8611
 2015SOL    HW3 7827   4.734   5.632   4.536 -1.0785 -2.4965  0.3505
 2015SOL    MW4 7828   4.678   5.684   4.578 -0.2507  0.1109  0.3803
 2016SOL     OW 7829   2.235   1.413   5.975  0.4228  0.3621 -0.2546
 2016SOL    HW2 7830   2.266   1.452   6.056  1.0596  3.0500 -1.6667
 2016SOL    HW3 7831   2.141   1.401   5.988  0.4866  0.9223  0.8033
 2016SOL    MW4 7832   2.227   1.417   5.987  0.3623 -0.2581  0.5934
 2017SOL     OW 7833   5.716   4.677   1.479  0.1753 -0.3145  0.0481
 2017SOL    HW2 7834   5.767   4.699   1.557  0.5112 -0.0886 -0.2332
 2017SOL    HW3 7835   5.703   4.582   1.485  2.3787 -0.7378 -0.9038
 2017SOL    MW4 7836   5.721   4.667   1.490 -0.1419 -0.3503  0.3578
 2018SOL     OW 7837   4.716   2.762   0.981  0.2959  0.1951  0.1767
 2018SOL    HW2 7838   4.740   2.678   0.942  0.1571 -0.1226  0.7652
 2018SOL    HW3 7839   4.799   2.808   0.993  0.5900 -0.7003  1.7498
 2018SOL    MW4 7840   4.730   2.757   0.977  0.1633  0.2299 -0.0874
 2019SOL     OW 7841   2.813   0.947   0.943  0.2075  0.5976  0.1264
 2019SOL    HW2 7842   2.789   1.011   0.877  0.3301  0.4284 -0.0856
 2019SOL    HW3 7843   2.821   0.865   0.894 -0.8923  0.2225  0.5450
 2019SOL    MW4 7844   2.811   0.944   0.928  0.0107 -0.3320  0.3872
 2020SOL     OW 7845   0.192   1.633   4.584  0.4126 -0.2232  0.2553
 2020SOL    HW2 7846   0.097   1.627   4.572  0.4222 -1.3708  0.6444
 2020SOL    HW3 7847   0.213   1.724   4.564 -0.4770 -0.4258 -1.8417
 2020SOL    MW4 7848   0.182   1.644   4.580 -0.1625  0.0487 -0.3037
 2021SOL     OW 7849   1.032   2.587   3.562  0.6694  0.7029 -0.1903
 2021SOL    HW2 7850   1.043   2.510   3.505 -1.4680  1.3752 -1.6498
 2021SOL    HW3 7851   0.946   2.575   3.602  1.6350  0.8460  2.0619
 2021SOL    MW4 7852   1.022   2.575   3.559  0.4725  0.1594  0.0514
 2022SOL     OW 7853   6.393   4.979   1.674  0.0898 -0.5635  0.0710
 2022SOL    HW2 7854   6.351   5.064   1.659  0.9942 -0.1084  0.0362
 2022SOL    HW3 7855   6.361   4.923   1.603  1.6518  0.5647 -1.6098
 2022SOL    MW4 7856   6.383   4.983   1.663 -0.1510 -0.1581 -0.4733
 2023SOL     OW 7857   4.760   3.224   1.815  0.8723 -0.7560 -0.5378
 2023SOL    HW2 7858   4.671   3.192   1.809  0.7468 -0.4729 -0.2327
 2023SOL    HW3 7859   4.785   3.245   1.724  0.6527 -0.8952 -0.6290
 2023SOL    MW4 7860   4.752   3.223   1.802 -0.0103  0.3110  0.3813
 2024SOL     OW 7861   1.776   5.210   6.349 -0.2049  0.4666  0.1555
 2024SOL    HW2 7862   1.735   5.293   6.373 -0.8444  0.2158 -0.0371
 2024SOL    HW3 7863   1.708   5.164   6.300  0.0932 -0.2298  0.3863
 2024SOL    MW4 7864   1.762   5.215   6.346  0.4137 -0.5080 -0.1777
 2025SOL     OW 7865   2.357   3.342   2.787  0.5789  0.5841 -0.0166
 2025SOL    HW2 7866   2.426   3.388   2.836  0.3364  0.7934  0.1314
 2025SOL    HW3 7867   2.309   3.412   2.742 -0.0998  0.5323  0.5982
 2025SOL    MW4 7868   2.360   3.357   2.788  0.0486 -0.1427  0.5452
 2026SOL     OW 7869   5.688   3.093   3.979  0.0589  0.0825 -0.3161
 2026SOL    HW2 7870   5.694   2.998   3.989  1.3829  0.2467  0.6858
 2026SOL    HW3 7871   5.616   3.106   3.917  0.1528 -1.5854 -0.8274
 2026SOL    MW4 7872   5.679   3.083   3.972  0.5046  0.4748  0.2441
 2027SOL     OW 7873   3.717   4.586   2.808  0.0850 -0.3610  0.3560
 2027SOL    HW2 7874   3.708   4.533   2.887  0.6607 -0.1593  0.5570
 2027SOL    HW3 7875   3.688   4.674   2.834  0.5348 -0.2288  0.4216
 2027SOL    MW4 7876   3.712   4.591   2.822  0.0612  0.6446 -0.3478
 2028SOL     OW 7877   5.300   3.815   6.400 -0.1746  0.0358  0.0491
 2028SOL    HW2 7878   5.331   3.903   6.423  1.4086  0.0821 -1.9542
 2028SOL    HW3 7879   5.303   3.766   6.482  0.1643  1.5057  0.9430
 2028SOL    MW4 7880   5.304   3.820   6.414 -0.2713  0.2510 -0.2205
 2029SOL     OW 7881   4.293   4.978   3.286 -0.0696  0.0948  0.0568
 2029SOL    HW2 7882   4.379   5.011   3.259 -0.1834  0.2778 -0.0765
 2029SOL    HW3 7883   4.232   5.012   3.221 -0.2111 -0.2350  0.0158
 2029SOL    MW4 7884   4.297   4.987   3.274  0.3333  0.6300 -0.3408
 2030SOL     OW 7885   3.179   2.815   3.556 -0.1572  0.3631 -0.1932
 2030SOL    HW2 7886   3.145   2.778   3.637  1.0516 -0.6062 -0.1127
 2030SOL    HW3 7887   3.204   2.905   3.579 -0.0365  0.1645  0.4501
 2030SOL    MW4 7888   3.178   2.822   3.569  0.0018  0.0566 -0.1826
 2031SOL     OW 7889   6.066   5.050   0.573  0.2394  0.1343  0.0135
 2031SOL    HW2 7890   6.055   5.099   0.491 -4.7317  0.8149  0.7527
 2031SOL    HW3 7891   6.065   4.959   0.546 -2.1389  0.3272 -0.7734
 2031SOL    MW4 7892   6.065   5.045   0.559 -0.1220  0.8387  0.4611
 2032SOL     OW 7893   2.840   2.492   6.040 -0.2821  0.0254 -0.0397
 2032SOL    HW2 7894   2.764   2.521   6.091 -0.4543  0.0247 -0.2942
 2032SOL    HW3 7895   2.826   2.398   6.028 -1.5246  0.4039 -2.1788
 2032SOL    MW4 7896   2.828   2.483   6.045  0.1242  0.7284  0.3319
 2033SOL     OW 7897   5.474   3.744   4.774 -0.3881  0.3126 -0.0791
 2033SOL    HW2 7898   5.379   3.757   4.771 -0.4725 -0.2460  0.0592
 2033SOL    HW3 7899   5.488   3.684   4.847  0.0403  0.0893 -0.3379
 2033SOL    MW4 7900   5.463   3.738   4.783  0.1073 -0.5564 -0.3333
 2034SOL     OW 7901   0.833   0.477   2.527 -0.0141  0.1559 -0.5146
 2034SOL    HW2 7902   0.746   0.507   2.553  0.0577 -0.6843  0.7743
 2034SOL    HW3 7903   0.892   0.546   2.558  0.3403 -1.8437  4.0552
 2034SOL    MW4 7904   0.829   0.490   2.535 -0.1367 -0.8367 -0.3301
 2035SOL     OW 7905   1.276   4.835   2.884  0.2225  0.2788  0.6764
 2035SOL    HW2 7906   1.229   4.832   2.967 -0.8026  1.6592  0.1839
 2035SOL    HW3 7907   1.254   4.752   2.841  0.3569 -0.2251  1.5467
 2035SOL    MW4 7908   1.267   4.824   2.889 -0.0100  0.2807  0.1511
 2036SOL     OW 7909   1.639   5.141   3.115 -0.1228 -0.2788  0.5677
 2036SOL    HW2 7910   1.658   5.229   3.083 -1.6401  0.1149  0.6695
 2036SOL    HW3 7911   1.590   5.099   3.044 -0.1865 -0.7223  0.8668
 2036SOL    MW4 7912   1.635   5.147   3.102  0.5247 -0.6537 -0.6855
 2037SOL     OW 7913   5.847   3.559   5.034  0.3335 -0.1882  0.3668
 2037SOL    HW2 7914   5.894   3.592   4.958 -0.2386 -0.2726 -0.0294
 2037SOL    HW3 7915   5.792   3.632   5.063  0.9734  0.0321  1.0526
 2037SOL    MW4 7916   5.846   3.573   5.028 -0.3237  0.1027  0.5057
 2038SOL     OW 7917   3.049   6.152   6.034 -0.0785  0.0349 -0.3483
 2038SOL    HW2 7918   2.966   6.145   5.987  0.0724 -0.6632 -0.5320
 2038SOL    HW3 7919   3.033   6.110   6.118  0.3209 -0.8856 -0.7194
 2038SOL    MW4 7920   3.036   6.145   6.039 -0.5724  0.2927 -1.1738
 2039SOL     OW 7921   2.125   2.632   1.415 -0.3071 -0.1431 -0.1956
 2039SOL    HW2 7922   2.144   2.550   1.368  1.0863  0.3142 -0.4641
 2039SOL    HW3 7923   2.180   2.697   1.373 -0.0690  0.5745  1.1722
 2039SOL    MW4 7924   2.135   2.630   1.403 -0.2291 -0.1522 -0.4401
 2040SOL     OW 7925   4.052   3.653   4.126 -0.1698 -0.0299  0.1149
 2040SOL    HW2 7926   4.062   3.746   4.110  0.4676 -0.4006 -1.8331
 2040SOL    HW3 7927   4.126   3.629   4.182  1.3306  0.1215 -1.7366
 2040SOL    MW4 7928   4.063   3.662   4.131  0.0330 -0.5894  0.4072
 2041SOL     OW 7929   5.623   4.413   5.454  0.0724 -0.4519  0.5239
 2041SOL    HW2 7930   5.604   4.342   5.516 -2.9258 -0.2633 -0.0318
 2041SOL    HW3 7931   5.626   4.369   5.369 -2.9929  0.0985  0.0238
 2041SOL    MW4 7932   5.621   4.398   5.451 -0.1882  0.0680 -0.0407
 2042SOL     OW 7933   0.647   5.349   0.367  0.5575  0.3831 -0.2158
 2042SOL    HW2 7934   0.554   5.331   0.382  0.1986  1.3071 -1.2456
 2042SOL    HW3 7935   0.687   5.339   0.453 -0.4822 -0.0974  0.2284
 2042SOL    MW4 7936   0.640   5.345   0.380 -0.6182 -0.1478  0.1843
 2043SOL     OW 7937   4.308   4.978   3.602 -0.4587 -0.1907 -0.3047
 2043SOL    HW2 7938   4.250   4.995   3.676  0.1334 -1.0186  0.3729
 2043SOL    HW3 7939   4.259   5.007   3.525 -1.4490 -0.1704  0.3269
 2043SOL    MW4 7940   4.294   4.984   3.601  0.1459 -0.0070  0.5613
 2044SOL     OW 7941   5.493   2.202   1.512 -0.4117  0.7424  0.3498
 2044SOL    HW2 7942   5.541   2.247   1.442 -1.5508  1.6692  0.1317
 2044SOL    HW3 7943   5.407   2.243   1.511 -1.2096 -0.8849  0.7303
 2044SOL    MW4 7944   5.488   2.214   1.503  0.0466  0.5233  0.7957
 2045SOL     OW 7945   1.549   4.013   5.492 -0.0334  0.1409  0.3335
 2045SOL    HW2 7946   1.618   3.948   5.478  1.1695  1.1529  1.2950
 2045SOL    HW3 7947   1.566   4.048   5.580 -2.6834 -0.6060  1.2218
 2045SOL    MW4 7948   1.561   4.009   5.502 -0.8350  0.1430  0.0650
 2046SOL     OW 7949   0.519   2.869   3.418  0.8525 -0.0027  0.2305
 2046SOL    HW2 7950   0.436   2.890   3.376  0.2070 -3.1562 -0.3556
 2046SOL    HW3 7951   0.580   2.855   3.346  1.3843  0.3788  0.5942
 2046SOL    MW4 7952   0.516   2.870   3.403  0.4780 -0.5002 -0.3963
 2047SOL     OW 7953   1.497   4.352   3.229 -0.1953  0.5895 -0.4656
 2047SOL    HW2 7954   1.406   4.379   3.223 -0.6363 -0.3660  1.1116
 2047SOL    HW3 7955   1.512   4.298   3.151 -1.5229 -0.6612  0.1093
 2047SOL    MW4 7956   1.487   4.348   3.218 -0.0298  0.7328  0.2597
 2048SOL     OW 7957   4.629   3.223   4.347  0.6088 -0.4258 -0.6803
 2048SOL    HW2 7958   4.723   3.209   4.337  0.6313 -0.0233 -1.0891
 2048SOL    HW3 7959   4.589   3.153   4.296  0.6622 -1.4977  0.7198
 2048SOL    MW4 7960   4.636   3.212   4.339 -0.2110 -0.7053  0.0769
 2049SOL     OW 7961   0.532   3.020   4.065  0.1039 -0.3084 -0.0380
 2049SOL    HW2 7962   0.475   3.032   4.141 -0.8960 -1.7746 -0.5307
 2049SOL    HW3 7963   0.503   3.087   4.003 -1.5298 -1.3839 -0.5073
 2049SOL    MW4 7964   0.521   3.031   4.067  0.1467 -0.0119  0.4582
 2050SOL     OW 7965   5.823   3.001   5.258  0.1532 -0.1242 -0.1788
 2050SOL    HW2 7966   5.867   3.018   5.341  1.7401 -2.6845 -0.4072
 2050SOL    HW3 7967   5.816   3.087   5.217  2.9426  0.7054  0.8714
 2050SOL    MW4 7968   5.828   3.015   5.264 -0.6335 -0.4427 -0.2507
 2051SOL     OW 7969   0.140   1.145   5.041 -0.5257 -0.0095  0.2253
 2051SOL    HW2 7970   0.226   1.183   5.061 -1.1941  1.0839  1.1650
 2051SOL    HW3 7971   0.144   1.125   4.947 -0.0342  2.2099 -0.2842
 2051SOL    MW4 7972   0.152   1.147   5.031  0.7652  0.0587 -0.0980
 2052SOL     OW 7973   0.201   2.025   1.420  0.1519  0.0199  1.3925
 2052SOL    HW2 7974   0.113   1.993   1.440 -0.2875  0.9413  0.9961
 2052SOL    HW3 7975   0.224   1.981   1.338 -1.5239  2.5391 -0.6194
 2052SOL    MW4 7976   0.192   2.015   1.411  0.4484 -0.2220 -0.1310
 2053SOL     OW 7977   0.609   6.460   1.920 -0.2794 -0.0957 -0.3731
 2053SOL    HW2 7978   0.551   6.465   1.844 -0.9401  0.1699  0.1387
 2053SOL    HW3 7979   0.589   6.376   1.960  1.2677 -1.0028 -1.4198
 2053SOL    MW4 7980   0.598   6.450   1.915  0.0387  0.6715  0.1504
 2054SOL     OW 7981   3.673   5.939   5.227  0.1482 -0.0928  0.5168
 2054SOL    HW2 7982   3.637   5.991   5.156  0.7650 -0.3151  0.0343
 2054SOL    HW3 7983   3.729   6.000   5.276  0.7869 -0.2681  0.0143
 2054SOL    MW4 7984   3.675   5.954   5.224  0.2027  0.0505  0.1265
 2055SOL     OW 7985   5.314   3.282   3.364 -0.1567 -0.3707 -0.1244
 2055SOL    HW2 7986   5.312   3.257   3.271  0.4701  2.4053 -1.0039
 2055SOL    HW3 7987   5.359   3.210   3.407 -0.5546 -1.7911 -1.9552
 2055SOL    MW4 7988   5.320   3.270   3.357 -0.0138  0.6051 -0.6467
 2056SOL     OW 7989   5.226   2.079   5.825  0.1079 -0.4355 -0.2948
 2056SOL    HW2 7990   5.194   2.034   5.747 -1.3915 -0.4818  0.3149
 2056SOL    HW3 7991   5.259   2.009   5.881  0.7970 -0.4420 -0.6974
 2056SOL    MW4 7992   5.226   2.064   5.822  0.0746  0.3946  0.2839
 2057SOL     OW 7993   1.499   6.355   3.117  0.3838  0.6546  0.0824
 2057SOL    HW2 7994   1.423   6.307   3.148  0.2015  1.2058  0.5172
 2057SOL    HW3 7995   1.507   6.332   3.025  1.3034 -1.5227  0.6455
 2057SOL    MW4 7996   1.490   6.346   3.109  0.3226 -0.3227  0.0386
 2058SOL     OW 7997   0.631   4.485   1.634  0.0929 -0.4918  0.4405
 2058SOL    HW2 7998   0.636   4.571   1.675 -0.1353 -0.3742  0.2196
 2058SOL    HW3 7999   0.722   4.454   1.631  0.0618 -0.7410  1.5472
 2058SOL    MW4 8000   0.644   4.492   1.639 -0.2021  0.1821  1.0400
 2059SOL     OW 8001   0.098   3.460   0.467 -0.2264  0.0839 -0.2722
 2059SOL    HW2 8002   0.069   3.455   0.376  0.5620 -1.5665 -0.4856
 2059SOL    HW3 8003   0.112   3.368   0.492  0.9571  0.5864  1.0428
 2059SOL    MW4 8004   0.096   3.447   0.458 -0.4143  0.1353 -0.1550
 2060SOL     OW 8005   3.821   4.364   2.260 -0.2777  0.0259  0.2070
 2060SOL    HW2 8006   3.819   4.315   2.342  0.9829 -0.1799  0.1367
 2060SOL    HW3 8007   3.895   4.424   2.270 -0.3693  0.2856 -0.6194
 2060SOL    MW4 8008   3.831   4.365   2.272  0.6296  0.0725  0.4795
 2061SOL     OW 8009   2.511   1.321   2.896 -0.1673  0.0966  0.2250
 2061SOL    HW2 8010   2.538   1.394   2.952  2.9121  0.4528 -1.4524
 2061SOL    HW3 8011   2.444   1.359   2.838 -0.7717  0.7147  1.2913
 2061SOL    MW4 8012   2.506   1.336   2.896  0.2869 -0.2399  0.2121
 2062SOL     OW 8013   6.043   1.310   5.096 -0.5640 -0.1963  0.6898
 2062SOL    HW2 8014   5.952   1.291   5.072 -0.6062  0.7042  0.0845
 2062SOL    HW3 8015   6.062   1.248   5.166 -1.6523 -0.3834  0.8500
 2062SOL    MW4 8016   6.033   1.299   5.102  0.0653  0.6151 -0.3343
 2063SOL     OW 8017   2.466   3.925   3.826 -0.5153  0.2249  0.5578
 2063SOL    HW2 8018   2.399   3.937   3.893  0.7492  0.2489  1.8444
 2063SOL    HW3 8019   2.419   3.885   3.753 -1.8242 -0.2752  1.6317
 2063SOL    MW4 8020   2.451   3.921   3.825 -0.5996 -0.3462  0.5708
 2064SOL     OW 8021   3.128   5.159   4.702 -0.3123  0.2949 -0.2109
 2064SOL    HW2 8022   3.139   5.252   4.685  0.5747  0.0027 -1.3543
 2064SOL    HW3 8023   3.214   5.120   4.682 -0.6709 -0.7668  0.2160
 2064SOL    MW4 8024   3.141   5.166   4.697 -0.3156 -0.2475  0.7277
 2065SOL     OW 8025   0.334   3.508   4.626 -0.3674  0.6590  0.2090
 2065SOL    HW2 8026   0.263   3.474   4.680 -1.3516  2.0132 -0.1686
 2065SOL    HW3 8027   0.383   3.565   4.685  0.1321  0.0895  0.3475
 2065SOL    MW4 8028   0.331   3.511   4.641 -0.0706  0.0934  0.1554
 2066SOL     OW 8029   0.005   1.943   4.089  0.1372  0.2511 -0.4017
 2066SOL    HW2 8030   0.100   1.933   4.086  0.1670  0.6680 -1.0473
 2066SOL    HW3 8031  -0.010   2.037   4.078 -0.3754  0.1027 -1.0115
 2066SOL    MW4 8032   0.015   1.954   4.087 -0.5204  0.2413 -0.3914
 2067SOL     OW 8033   0.179   1.381   5.354  0.4224  0.2280 -1.3483
 2067SOL    HW2 8034   0.111   1.386   5.286  0.4511 -0.2084 -1.4076
 2067SOL    HW3 8035   0.230   1.461   5.342 -0.2981  0.7517 -1.0717
 2067SOL    MW4 8036   0.177   1.393   5.344  0.7740  0.0966 -0.3956
 2068SOL     OW 8037   1.226   0.852   4.176 -0.0060  0.1526  0.4127
 2068SOL    HW2 8038   1.263   0.932   4.214  0.4180  0.9470 -1.5114
 2068SOL    HW3 8039   1.275   0.781   4.217  1.5467  1.0468  0.2077
 2068SOL    MW4 8040   1.238   0.854   4.186 -0.1871  0.3421  0.4815
 2069SOL     OW 8041   1.521   1.354   2.145 -0.3244  0.3750  0.6561
 2069SOL    HW2 8042   1.445   1.359   2.203 -0.3376 -0.5328  0.7270
 2069SOL    HW3 8043   1.496   1.408   2.070  0.4280  3.1408  2.2458
 2069SOL    MW4 8044   1.507   1.362   2.143 -0.2304 -0.5938  0.9640
 2070SOL     OW 8045   5.046   3.776   1.778 -0.1960 -0.3556 -0.3419
 2070SOL    HW2 8046   5.011   3.746   1.695  0.7391  1.7324 -1.5840
 2070SOL    HW3 8047   5.141   3.780   1.765  0.0679 -0.9247  1.1682
 2070SOL    MW4 8048   5.054   3.773   1.765  0.1570 -0.5503 -0.6933
 2071SOL     OW 8049   0.269   5.260   0.554  0.7291  0.1149  0.6333
 2071SOL    HW2 8050   0.200   5.227   0.496 -0.7282  2.3087  0.9752
 2071SOL    HW3 8051   0.298   5.183   0.603 -0.2650 -1.1973 -0.7439
 2071SOL    MW4 8052   0.264   5.246   0.553  0.0523  0.4486  0.5468
 2072SOL     OW 8053   4.636   2.158   3.773 -0.5249  0.2272  0.0107
 2072SOL    HW2 8054   4.682   2.240   3.754 -1.7421  0.6077 -1.5740
 2072SOL    HW3 8055   4.643   2.108   3.692 -1.4629 -0.3871  0.2966
 2072SOL    MW4 8056   4.643   2.163   3.759  0.0813  0.4347 -0.1987
 2073SOL     OW 8057   4.347   0.840   0.325  0.0743  0.8200  0.0932
 2073SOL    HW2 8058   4.259   0.873   0.310  0.0617  0.9038  0.3530
 2073SOL    HW3 8059   4.366   0.787   0.248 -0.6766 -0.2053  0.5855
 2073SOL    MW4 8060   4.338   0.837   0.313 -0.3086  0.6766 -0.1026
 2074SOL     OW 8061   4.009   4.449   0.800  0.3242 -0.3116  0.2675
 2074SOL    HW2 8062   3.916   4.435   0.817 -0.1088  0.8155 -0.9697
 2074SOL    HW3 8063   4.054   4.390   0.860 -1.2228 -3.2528 -1.2555
 2074SOL    MW4 8064   4.003   4.440   0.810 -0.1748 -0.5930  0.0841
 2075SOL     OW 8065   2.617   6.192   1.184  0.7761  0.0670 -0.0377
 2075SOL    HW2 8066   2.702   6.233   1.170  1.2240 -1.4281 -2.1539
 2075SOL    HW3 8067   2.556   6.243   1.131  0.0569  1.7431  2.2250
 2075SOL    MW4 8068   2.620   6.204   1.175  0.0799 -0.2310  0.5901
 2076SOL     OW 8069   0.895   0.702   5.274 -0.3632  0.0658 -0.3820
 2076SOL    HW2 8070   0.800   0.691   5.281 -0.7844  2.9361 -0.0823
 2076SOL    HW3 8071   0.929   0.664   5.355 -1.3092 -0.4699 -0.2131
 2076SOL    MW4 8072   0.887   0.696   5.286  0.1759  0.4621 -0.0331
 2077SOL     OW 8073   1.077   1.289   1.734  0.1631 -0.3162  0.1369
 2077SOL    HW2 8074   0.990   1.323   1.753  0.1580  0.7016 -1.5201
 2077SOL    HW3 8075   1.135   1.364   1.743  0.6200 -0.5866 -0.4451
 2077SOL    MW4 8076   1.073   1.303   1.738  0.4173 -0.5709 -0.2818
 2078SOL     OW 8077   6.262   5.228   1.996  0.0391  0.7779 -0.4264
 2078SOL    HW2 8078   6.309   5.152   2.030 -0.6185  0.5251 -0.0625
 2078SOL    HW3 8079   6.241   5.280   2.073 -2.7755 -0.5358 -0.1607
 2078SOL    MW4 8080   6.265   5.225   2.010 -0.4942 -0.3940 -0.0995
 2079SOL     OW 8081   5.237   4.522   3.398 -0.1115 -0.2248 -0.1921
 2079SOL    HW2 8082   5.155   4.560   3.429  0.5603  1.0861  0.0569
 2079SOL    HW3 8083   5.304   4.563   3.452  0.9340  0.7106 -2.0983
 2079SOL    MW4 8084   5.235   4.533   3.409  0.1084  0.0448  0.5889
 2080SOL     OW 8085   6.251   4.903   1.446 -0.5149 -0.3942  0.4630
 2080SOL    HW2 8086   6.261   4.811   1.420  0.2562  0.1662 -1.3588
 2080SOL    HW3 8087   6.158   4.912   1.468 -0.5104 -1.7018  1.1780
 2080SOL    MW4 8088   6.240   4.892   1.446  0.2120 -0.0580 -0.6126
 2081SOL     OW 8089   3.107   2.108   2.762 -0.7539 -0.0630  0.4589
 2081SOL    HW2 8090   3.172   2.039   2.779 -0.2213 -0.0942 -1.4092
 2081SOL    HW3 8091   3.075   2.088   2.674 -1.5639  1.3371  0.4214
 2081SOL    MW4 8092   3.112   2.096   2.753  0.4112 -0.1471  0.3097
 2082SOL     OW 8093   6.246   5.979   5.135 -0.0078 -0.6959 -0.5729
 2082SOL    HW2 8094   6.175   6.021   5.086 -0.4915 -0.7858  0.0289
 2082SOL    HW3 8095   6.201   5.924   5.199  0.5785  0.1087  0.5678
 2082SOL    MW4 8096   6.230   5.977   5.137 -0.3663 -0.3636  0.4456
 2083SOL     OW 8097   2.870   2.298   4.135  0.2936  0.4408  0.0908
 2083SOL    HW2 8098   2.928   2.269   4.065 -0.2938 -0.8414  0.1064
 2083SOL    HW3 8099   2.791   2.327   4.090  0.3473  0.6982  0.1605
 2083SOL    MW4 8100   2.867   2.298   4.120  0.3858  0.4124  0.0896
 2084SOL     OW 8101   3.240   6.111   0.058  0.2480  0.0900  0.1319
 2084SOL    HW2 8102   3.329   6.147   0.062  0.0811  0.5351 -0.0871
 2084SOL    HW3 8103   3.216   6.095   0.149  0.0351  1.2646  0.2974
 2084SOL    MW4 8104   3.249   6.114   0.071 -0.0722  0.0846 -1.4477
 2085SOL     OW 8105   0.268   1.729   3.258  0.4594  0.0182 -0.1658
 2085SOL    HW2 8106   0.243   1.804   3.204  0.2251 -0.4319 -0.6869
 2085SOL    HW3 8107   0.186   1.685   3.278  0.6430 -0.3603 -0.2428
 2085SOL    MW4 8108   0.254   1.733   3.254  0.2398  0.5830 -0.0875
 2086SOL     OW 8109   4.225   5.995   4.370 -0.0862 -0.0351  0.0153
 2086SOL    HW2 8110   4.175   6.060   4.321 -0.0379  1.2022  1.5358
 2086SOL    HW3 8111   4.316   6.010   4.344  0.1368  1.7106  1.5884
 2086SOL    MW4 8112   4.230   6.006   4.360 -0.2571  0.4130 -0.0348
 2087SOL     OW 8113   5.420   0.670   3.986  0.2503  0.1829  0.2164
 2087SOL    HW2 8114   5.488   0.719   3.940  0.3410  0.0496  0.2108
 2087SOL    HW3 8115   5.458   0.653   4.073  0.8316 -1.2317 -0.2925
 2087SOL    MW4 8116   5.434   0.675   3.992  0.4113 -0.2543 -0.1958
 2088SOL     OW 8117   5.799   2.950   5.739 -0.2885  0.3759  1.0220
 2088SOL    HW2 8118   5.810   2.869   5.689  2.1366 -0.5047  2.8106
 2088SOL    HW3 8119   5.704   2.965   5.739 -0.7174 -1.8873 -0.2196
 2088SOL    MW4 8120   5.788   2.941   5.733  0.0401 -0.0928  0.2461
 2089SOL     OW 8121   2.321   4.946   0.114 -0.2527  0.0556  0.0997
 2089SOL    HW2 8122   2.371   5.028   0.108  1.3036 -0.9313 -0.9892
 2089SOL    HW3 8123   2.259   4.951   0.041 -1.2428  0.9178  0.9643
 2089SOL    MW4 8124   2.320   4.958   0.103  0.2607 -0.4021 -0.4715
 2090SOL     OW 8125   2.750   4.050   2.121  0.2046 -0.2645  0.0225
 2090SOL    HW2 8126   2.808   3.996   2.067 -0.8613 -0.6441 -0.7730
 2090SOL    HW3 8127   2.804   4.126   2.146  0.3347  0.6789 -2.7983
 2090SOL    MW4 8128   2.765   4.053   2.117  0.2578  0.2369  0.0160
 2091SOL     OW 8129   1.015   0.969   5.301  0.6715 -0.1289 -0.0158
 2091SOL    HW2 8130   1.028   0.980   5.395  0.6664 -0.2738  0.0035
 2091SOL    HW3 8131   0.962   0.889   5.294  1.7417 -0.8377 -0.1990
 2091SOL    MW4 8132   1.009   0.960   5.312 -0.4064 -0.2262  0.0584
 2092SOL     OW 8133   4.009   6.244   5.823 -0.4812  0.5095  0.1923
 2092SOL    HW2 8134   3.958   6.308   5.873 -0.3702 -1.1435  2.5330
 2092SOL    HW3 8135   4.051   6.189   5.889  2.7170  0.4925 -1.6673
 2092SOL    MW4 8136   4.008   6.245   5.838 -0.5089  0.2975  0.0833
 2093SOL     OW 8137   0.108   6.164   6.100 -0.3898  0.0183  0.1617
 2093SOL    HW2 8138   0.187   6.154   6.153  0.9142 -2.6760 -2.0588
 2093SOL    HW3 8139   0.042   6.110   6.145  0.4697 -1.5911 -0.4241
 2093SOL    MW4 8140   0.110   6.155   6.113 -0.9773 -0.7070  0.1495
 2094SOL     OW 8141   3.947   0.992   1.176  0.5932  0.4133  0.9777
 2094SOL    HW2 8142   4.039   0.998   1.202  1.5051 -0.2213 -1.8078
 2094SOL    HW3 8143   3.904   0.948   1.249  2.2895  1.5099  2.7261
 2094SOL    MW4 8144   3.953   0.987   1.189 -0.0729 -0.4962 -0.0911
 2095SOL     OW 8145   0.823   5.776   1.127 -0.1193  0.2575  0.1077
 2095SOL    HW2 8146   0.913   5.744   1.129 -0.2589 -0.1718 -0.2996
 2095SOL    HW3 8147   0.820   5.844   1.194  0.2299 -0.4728  0.8855
 2095SOL    MW4 8148   0.834   5.781   1.136 -0.5358  0.2845 -0.1997
 2096SOL     OW 8149   3.822   0.482   2.351  0.2899 -0.4814  0.4538
 2096SOL    HW2 8150   3.873   0.453   2.275  0.4674  2.0992 -0.5303
 2096SOL    HW3 8151   3.882   0.470   2.425  1.2086 -0.4050 -0.2469
 2096SOL    MW4 8152   3.837   0.477   2.351  0.1085  0.0629 -0.3917
 2097SOL     OW 8153   6.411   0.539   4.342 -0.4728  0.0920 -0.1893
 2097SOL    HW2 8154   6.407   0.632   4.362  1.3947 -0.1287  1.5040
 2097SOL    HW3 8155   6.329   0.503   4.376 -1.7424  1.2374 -1.8994
 2097SOL    MW4 8156   6.400   0.546   4.349  0.4183  0.4973 -0.1255
 2098SOL     OW 8157   0.989   2.003   2.470 -0.1687  0.0111  0.1351
 2098SOL    HW2 8158   0.988   2.056   2.390  3.6269  0.0900 -0.0475
 2098SOL    HW3 8159   1.008   2.066   2.540  1.4617 -0.6559  0.3327
 2098SOL    MW4 8160   0.991   2.018   2.469 -0.3564  0.3631  0.2477
 2099SOL     OW 8161   2.484   3.491   0.081  0.3372  0.4821 -0.0192
 2099SOL    HW2 8162   2.570   3.531   0.066  0.1350  0.4796 -1.3782
 2099SOL    HW3 8163   2.441   3.496  -0.005 -0.3897 -0.9978  0.2366
 2099SOL    MW4 8164   2.490   3.497   0.067  0.4608  0.4088  0.1340
 2100SOL     OW 8165   3.571   5.881   4.701 -0.0072 -0.0680 -0.3774
 2100SOL    HW2 8166   3.631   5.814   4.733  0.2172  0.8688  1.3384
 2100SOL    HW3 8167   3.605   5.963   4.738 -0.5834  0.9334 -1.9424
 2100SOL    MW4 8168   3.583   5.883   4.710  0.6767 -0.1188 -0.0752
 2101SOL     OW 8169   0.504   3.481   5.022 -0.2356  0.1073 -0.1904
 2101SOL    HW2 8170   0.486   3.560   4.971  0.2022  0.6661  0.4952
 2101SOL    HW3 8171   0.420   3.460   5.063 -0.3636  0.1969 -0.4022
 2101SOL    MW4 8172   0.490   3.489   5.021 -0.3308  0.0702 -0.7137
 2102SOL     OW 8173   5.098   4.342   4.006 -0.2094 -0.0760  0.5440
 2102SOL    HW2 8174   5.025   4.290   3.972 -0.6198  0.8310  0.0072
 2102SOL    HW3 8175   5.088   4.427   3.964  0.0269  0.6851  1.9780
 2102SOL    MW4 8176   5.087   4.346   3.996  0.8960  0.8111 -0.1411
 2103SOL     OW 8177   2.846   0.520   1.222 -0.4674 -0.3483 -0.0102
 2103SOL    HW2 8178   2.844   0.553   1.312  0.5554  1.2070 -0.5060
 2103SOL    HW3 8179   2.875   0.429   1.231  0.5858  0.0566  1.1981
 2103SOL    MW4 8180   2.850   0.513   1.235 -0.3549 -0.2939  0.6177
 2104SOL     OW 8181   2.402   2.415   0.952 -0.0035  0.0215  0.3224
 2104SOL    HW2 8182   2.488   2.383   0.979  0.0031 -0.2269  0.0064
 2104SOL    HW3 8183   2.419   2.500   0.911  0.3400 -0.9001 -1.5563
 2104SOL    MW4 8184   2.416   2.422   0.950  0.6039 -0.8990  0.0757
 2105SOL     OW 8185   0.173   3.182   4.022  0.0530 -0.2894 -0.3126
 2105SOL    HW2 8186   0.101   3.180   4.085 -0.3444 -0.9949 -0.7797
 2105SOL    HW3 8187   0.171   3.271   3.986 -0.1485 -0.0962  0.1656
 2105SOL    MW4 8188   0.163   3.194   4.026  0.2734  0.4782  0.2028
 2106SOL     OW 8189   3.306   0.879   5.888  0.4095  0.3604  0.1511
 2106SOL    HW2 8190   3.388   0.853   5.847 -0.1977  0.8762 -1.4967
 2106SOL    HW3 8191   3.305   0.975   5.880 -0.8552  0.2949 -0.9811
 2106SOL    MW4 8192   3.316   0.888   5.881  0.0411  0.2559 -0.5695
 2107SOL     OW 8193   1.867   3.707   3.937 -0.5184  0.1622  0.5467
 2107SOL    HW2 8194   1.941   3.700   3.998  0.5939  4.0477 -0.0732
 2107SOL    HW3 8195   1.795   3.741   3.991 -0.1419  1.6161  0.1880
 2107SOL    MW4 8196   1.867   3.711   3.952  1.0574  0.4827  0.0362
 2108SOL     OW 8197   1.130   1.607   2.667  0.3413 -0.3074 -0.3944
 2108SOL    HW2 8198   1.079   1.647   2.596  1.6498  0.8075 -0.7628
 2108SOL    HW3 8199   1.219   1.604   2.633  0.6124 -1.8176  0.3952
 2108SOL    MW4 8200   1.135   1.612   2.653 -0.0700  0.2820 -0.1656
 2109SOL     OW 8201   4.887   4.215   5.757  0.1244 -0.4876 -0.0352
 2109SOL    HW2 8202   4.921   4.285   5.701  2.0170  0.0003  1.6104
 2109SOL    HW3 8203   4.863   4.145   5.695 -2.7873  1.8527 -1.8159
 2109SOL    MW4 8204   4.889   4.215   5.741 -0.4544  0.4090 -0.5559
 2110SOL     OW 8205   4.131   2.268   2.323  0.0721  0.2830 -0.0687
 2110SOL    HW2 8206   4.076   2.237   2.395  2.3996 -2.2348  0.8368
 2110SOL    HW3 8207   4.211   2.298   2.365  1.3344 -0.8694 -1.5002
 2110SOL    MW4 8208   4.135   2.268   2.338 -0.3509 -0.8377  0.3400
 2111SOL     OW 8209   5.265   3.487   2.636  0.1298  0.1618  0.1551
 2111SOL    HW2 8210   5.321   3.550   2.590  0.0313  1.3987  1.6420
 2111SOL    HW3 8211   5.190   3.476   2.577  0.4782  0.9134 -0.4537
 2111SOL    MW4 8212   5.262   3.494   2.622 -0.8385 -0.6179 -0.4859
 2112SOL     OW 8213   0.077   4.187   2.493  0.4570 -0.0764  0.1934
 2112SOL    HW2 8214   0.041   4.172   2.580 -1.1862  2.6479  0.0945
 2112SOL    HW3 8215   0.001   4.182   2.435  0.7827  2.1733 -0.5080
 2112SOL    MW4 8216   0.062   4.184   2.497  0.4622  0.0653  0.1051
 2113SOL     OW 8217   2.580   5.556   4.606 -0.2652 -0.1310  0.2878
 2113SOL    HW2 8218   2.527   5.484   4.572 -2.4308  1.0799  0.8928
 2113SOL    HW3 8219   2.610   5.603   4.528 -0.9902 -0.2284 -0.0518
 2113SOL    MW4 8220   2.577   5.553   4.591 -0.9150  0.2615 -0.2729
 2114SOL     OW 8221   2.743   5.743   0.184 -0.7958  0.0541 -0.0585
 2114SOL    HW2 8222   2.694   5.781   0.257 -0.9564  2.0885 -1.1593
 2114SOL    HW3 8223   2.678   5.696   0.133 -0.9141 -0.2920  0.4018
 2114SOL    MW4 8224   2.728   5.742   0.187  0.4003 -0.0623 -0.2134
 2115SOL     OW 8225   2.848   4.338   1.805 -0.3857  0.1854  0.4140
 2115SOL    HW2 8226   2.852   4.419   1.855 -1.6180 -0.2597  1.2885
 2115SOL    HW3 8227   2.888   4.360   1.721  0.0426  1.4591  0.9163
 2115SOL    MW4 8228   2.854   4.351   1.801  0.0821  0.3374  0.2569
 2116SOL     OW 8229   1.997   0.416   3.381  0.0893  0.2855 -0.5251
 2116SOL    HW2 8230   2.073   0.357   3.380  0.0388 -0.1086  3.0994
 2116SOL    HW3 8231   1.922   0.358   3.385 -0.3516  0.6780 -2.4652
 2116SOL    MW4 8232   1.997   0.401   3.381  0.2036 -0.1967 -0.7097
 2117SOL     OW 8233   0.072   2.425   1.732  0.0012 -0.1137  0.1852
 2117SOL    HW2 8234   0.162   2.399   1.748 -0.3888 -1.3479  0.4477
 2117SOL    HW3 8235   0.064   2.512   1.773  1.2296  0.3029 -0.4175
 2117SOL    MW4 8236   0.083   2.433   1.740  0.4699  0.5853 -0.0818
 2118SOL     OW 8237   6.308   6.303   0.046  0.6323  0.2313  0.5522
 2118SOL    HW2 8238   6.274   6.293  -0.043  0.2028 -0.2467  0.7639
 2118SOL    HW3 8239   6.344   6.217   0.068  2.1437  0.7709  0.2727
 2118SOL    MW4 8240   6.308   6.290   0.037  0.4797  0.4548  0.0801
 2119SOL     OW 8241   2.921   5.669   3.544  0.0081  0.2897  0.3013
 2119SOL    HW2 8242   2.908   5.619   3.625  0.6267 -0.0314  0.2107
 2119SOL    HW3 8243   2.979   5.613   3.491 -0.1498  0.6319 -0.2382
 2119SOL    MW4 8244   2.927   5.655   3.548  0.3930 -0.0929  0.6186
 2120SOL     OW 8245   2.414   3.725   2.380 -0.0616  0.2419 -1.0303
 2120SOL    HW2 8246   2.381   3.733   2.291  0.3980  0.3285 -1.1932
 2120SOL    HW3 8247   2.425   3.630   2.394  0.8202  0.2786 -1.4196
 2120SOL    MW4 8248   2.411   3.713   2.370  0.9891 -0.2539  0.0244
 2121SOL     OW 8249   3.456   5.869   3.462 -0.1652  0.3283 -1.0455
 2121SOL    HW2 8250   3.504   5.927   3.521 -0.5787  0.4477 -0.8172
 2121SOL    HW3 8251   3.411   5.928   3.402 -2.2072  0.3877  0.4276
 2121SOL    MW4 8252   3.456   5.884   3.462  0.5119 -0.1294  0.0854
 2122SOL     OW 8253   5.351   2.994   2.454 -0.0479  0.1128  0.0855
 2122SOL    HW2 8254   5.273   3.046   2.438 -0.4176 -0.5035 -0.1854
 2122SOL    HW3 8255   5.424   3.056   2.447 -0.5798  1.0355  1.9828
 2122SOL    MW4 8256   5.350   3.009   2.451  0.0033 -0.3556 -0.3233
 2123SOL     OW 8257   5.151   3.441   2.140  0.3293  0.2929 -0.1683
 2123SOL    HW2 8258   5.103   3.390   2.075 -0.4772  0.2645  0.4362
 2123SOL    HW3 8259   5.137   3.532   2.115 -0.4982  0.3037  0.3164
 2123SOL    MW4 8260   5.143   3.446   2.128  0.1456 -0.5482 -0.6766
 2124SOL     OW 8261   5.415   6.248   4.854 -0.1598 -0.4819  0.1185
 2124SOL    HW2 8262   5.425   6.298   4.773 -0.3343  0.2161  0.5249
 2124SOL    HW3 8263   5.439   6.309   4.924 -1.5309 -0.5923  0.7092
 2124SOL    MW4 8264   5.420   6.263   4.853 -0.1920  0.2045  0.2517
 2125SOL     OW 8265   3.685   4.203   5.881  0.4639  0.2084  0.0868
 2125SOL    HW2 8266   3.590   4.198   5.872  0.5023  0.1520 -0.3340
 2125SOL    HW3 8267   3.701   4.289   5.919  0.3060  0.7404 -0.9983
 2125SOL    MW4 8268   3.675   4.214   5.885  0.5024  0.1132 -0.4095
 2126SOL     OW 8269   5.555   2.292   0.063  0.9180  0.3884  0.8166
 2126SOL    HW2 8270   5.468   2.294   0.103  0.3461 -2.0549 -0.1555
 2126SOL    HW3 8271   5.546   2.344  -0.017  0.4023  0.3211  0.8272
 2126SOL    MW4 8272   5.542   2.299   0.058  0.0728  0.6347  0.3102
 2127SOL     OW 8273   0.242   3.236   3.088 -0.2476  0.0378 -0.2677
 2127SOL    HW2 8274   0.168   3.294   3.068 -1.1792 -1.1565 -0.4055
 2127SOL    HW3 8275   0.305   3.253   3.017 -0.7676  0.4362 -0.6476
 2127SOL    MW4 8276   0.241   3.246   3.076 -0.0840 -0.0750  0.1690
 2128SOL     OW 8277   4.611   5.798   1.829  0.1376  0.5114 -0.5169
 2128SOL    HW2 8278   4.587   5.839   1.912 -0.8528  0.6067 -0.8355
 2128SOL    HW3 8279   4.536   5.814   1.772 -0.2593 -1.6924 -0.6698
 2128SOL    MW4 8280   4.598   5.806   1.833 -0.0898  0.3605 -0.0029
 2129SOL     OW 8281   2.302   4.292   1.939 -0.0239 -0.2461  0.3172
 2129SOL    HW2 8282   2.293   4.355   1.867 -1.9135  0.4820  1.1293
 2129SOL    HW3 8283   2.388   4.309   1.975 -1.0143  3.0122  1.4804
 2129SOL    MW4 8284   2.312   4.302   1.934  0.3335  0.6966 -0.4102
 2130SOL     OW 8285   2.245   0.674   0.875 -0.4282 -0.5074  0.7867
 2130SOL    HW2 8286   2.209   0.665   0.787 -0.0391  1.6107  0.3670
 2130SOL    HW3 8287   2.311   0.605   0.880  0.0210 -0.2582 -0.8526
 2130SOL    MW4 8288   2.249   0.664   0.864  0.5506  0.4962 -0.4769
 2131SOL     OW 8289   5.176   5.186   4.234  0.3752 -0.1598 -0.1470
 2131SOL    HW2 8290   5.219   5.102   4.253 -1.1585 -1.2534 -1.2355
 2131SOL    HW3 8291   5.170   5.188   4.139 -3.8340 -1.1747 -0.1010
 2131SOL    MW4 8292   5.181   5.175   4.224  0.2353  0.5495  0.1904
 2132SOL     OW 8293   5.911   3.406   2.448 -0.1051 -0.4669  0.6562
 2132SOL    HW2 8294   5.946   3.320   2.424 -0.0701 -0.4311  0.5773
 2132SOL    HW3 8295   5.902   3.452   2.364 -1.4806 -0.9030  0.5402
 2132SOL    MW4 8296   5.914   3.401   2.434 -0.2627  0.2256 -0.1658
 2133SOL     OW 8297   0.670   1.538   4.296  0.0062 -0.3208 -0.3453
 2133SOL    HW2 8298   0.680   1.531   4.391 -1.5916 -1.2422 -0.2107
 2133SOL    HW3 8299   0.644   1.451   4.268 -3.2995  0.7674 -1.0820
 2133SOL    MW4 8300   0.668   1.526   4.305  0.1410  0.2015  0.2201
 2134SOL     OW 8301   1.572   0.459   6.007 -0.4053  0.1707  0.0942
 2134SOL    HW2 8302   1.553   0.366   5.994  1.9733 -0.4434  0.5977
 2134SOL    HW3 8303   1.635   0.461   6.079 -0.3965  2.1779  0.0856
 2134SOL    MW4 8304   1.578   0.447   6.015  0.5897  0.0156 -0.5506
 2135SOL     OW 8305   5.238   2.136   3.904  0.3683 -0.1069  0.2433
 2135SOL    HW2 8306   5.279   2.202   3.960 -0.3369  0.6699 -0.1330
 2135SOL    HW3 8307   5.311   2.089   3.865  0.8946  0.6289  0.3193
 2135SOL    MW4 8308   5.253   2.138   3.906  0.0676 -0.3381  0.0984
 2136SOL     OW 8309   3.523   2.076   5.025  0.8642  0.5766 -1.0633
 2136SOL    HW2 8310   3.444   2.111   5.065  0.0859 -0.8276 -1.2792
 2136SOL    HW3 8311   3.581   2.151   5.014  0.6847  1.1955  1.6610
 2136SOL    MW4 8312   3.520   2.090   5.029  0.0961 -0.5062 -0.2910
 2137SOL     OW 8313   0.070   2.842   1.635  0.0356  0.1189 -0.8492
 2137SOL    HW2 8314   0.053   2.776   1.702 -0.3849  1.0057 -0.0692
 2137SOL    HW3 8315  -0.009   2.895   1.632 -1.1215 -1.5651 -4.0644
 2137SOL    MW4 8316   0.058   2.840   1.644  0.3001 -0.1820  0.0925
 2138SOL     OW 8317   1.752   0.301   3.675  0.0113  0.1095  0.6279
 2138SOL    HW2 8318   1.729   0.285   3.583  2.6048 -0.2129 -0.0395
 2138SOL    HW3 8319   1.748   0.214   3.716  0.4614 -0.0148  0.4113
 2138SOL    MW4 8320   1.748   0.287   3.668  0.3847  0.2049  0.3908
 2139SOL     OW 8321   4.426   2.742   2.256  0.4925  0.0566  0.0094
 2139SOL    HW2 8322   4.378   2.747   2.339 -0.1926  0.9685 -0.4243
 2139SOL    HW3 8323   4.375   2.681   2.203  0.2383  0.4079 -0.1613
 2139SOL    MW4 8324   4.413   2.735   2.260  0.1621  0.5097  0.2705
 2140SOL     OW 8325   0.534   3.826   4.573 -0.4064  0.6738  0.0821
 2140SOL    HW2 8326   0.622   3.823   4.610 -0.5234  1.1489  0.4114
 2140SOL    HW3 8327   0.532   3.908   4.524  0.6240 -1.1095 -3.2708
 2140SOL    MW4 8328   0.545   3.836   4.572  0.2217  0.0067 -0.2763
 2141SOL     OW 8329   0.701   3.595   0.656  0.5636  0.2714  0.0873
 2141SOL    HW2 8330   0.765   3.587   0.727 -0.5805  0.4203  1.1834
 2141SOL    HW3 8331   0.617   3.606   0.701 -0.2520 -0.0160 -1.2995
 2141SOL    MW4 8332   0.698   3.595   0.671 -0.2816 -0.6576  0.5264
 2142SOL     OW 8333   5.341   2.540   4.817 -0.1636  0.3919 -0.3390
 2142SOL    HW2 8334   5.400   2.475   4.779  0.4074 -0.3332  1.6509
 2142SOL    HW3 8335   5.279   2.560   4.748  0.5252 -1.2099 -1.4644
 2142SOL    MW4 8336   5.341   2.534   4.803 -0.3014  0.2096 -0.4038
 2143SOL     OW 8337   4.252   2.806   2.491 -0.3701 -0.2594 -0.0680
 2143SOL    HW2 8338   4.317   2.813   2.560 -1.8269  0.0066  1.3365
 2143SOL    HW3 8339   4.208   2.891   2.490 -1.1397 -0.6481 -0.5125
 2143SOL    MW4 8340   4.255   2.818   2.500  0.2952 -0.1722 -0.3538
 2144SOL     OW 8341   4.052   1.526   6.405  0.1504  0.2597 -0.3454
 2144SOL    HW2 8342   3.975   1.492   6.358 -0.9482  1.1420  0.7369
 2144SOL    HW3 8343   4.126   1.500   6.351 -0.7761 -1.8405 -0.7350
 2144SOL    MW4 8344   4.052   1.518   6.392  0.7042  0.3590  0.3326
 2145SOL     OW 8345   5.746   2.690   4.433  0.0356  0.2720 -0.0048
 2145SOL    HW2 8346   5.776   2.627   4.498 -0.5855  1.8740  1.9269
 2145SOL    HW3 8347   5.652   2.698   4.448 -0.6535 -1.1886 -2.8509
 2145SOL    MW4 8348   5.737   2.683   4.443 -0.7722  0.2840  0.1049
 2146SOL     OW 8349   1.065   4.370   6.049 -0.7943  0.1691  0.2127
 2146SOL    HW2 8350   1.121   4.297   6.022 -1.5289  0.0039 -0.9283
 2146SOL    HW3 8351   1.126   4.442   6.066 -0.1687 -0.2664 -0.1518
 2146SOL    MW4 8352   1.081   4.370   6.048 -0.0438 -0.5257 -0.1447
 2147SOL     OW 8353   5.649   3.439   1.694  0.0073 -0.1088 -0.2657
 2147SOL    HW2 8354   5.566   3.441   1.741 -1.1532 -0.0559 -2.1822
 2147SOL    HW3 8355   5.695   3.517   1.724 -0.0503 -0.8014  1.7547
 2147SOL    MW4 8356   5.644   3.450   1.704 -0.0548 -0.2178 -0.1139
 2148SOL     OW 8357   5.581   1.770   4.699 -0.5246  0.1660 -0.4488
 2148SOL    HW2 8358   5.624   1.719   4.631 -0.7535 -0.4413 -0.1479
 2148SOL    HW3 8359   5.517   1.823   4.653  0.1719  0.6838 -0.8405
 2148SOL    MW4 8360   5.578   1.770   4.684  0.2344 -0.2207  0.2118
 2149SOL     OW 8361   0.065   2.152   0.658  0.5367 -0.1656  0.1184
 2149SOL    HW2 8362   0.021   2.138   0.574 -0.1603 -0.1762  0.4764
 2149SOL    HW3 8363  -0.005   2.182   0.717  0.7686 -1.2382  0.9890
 2149SOL    MW4 8364   0.050   2.154   0.655 -0.2151 -0.3244  0.0904
 2150SOL     OW 8365   4.392   2.515   3.302  0.3900  0.3702 -0.5829
 2150SOL    HW2 8366   4.351   2.591   3.262  0.5872  2.5108  2.9065
 2150SOL    HW3 8367   4.320   2.465   3.340  0.4744  0.3633 -0.4294
 2150SOL    MW4 8368   4.377   2.518   3.301  0.3186  0.3395  0.5628
 2151SOL     OW 8369   6.112   2.450   3.796  0.1022 -0.5872 -0.0026
 2151SOL    HW2 8370   6.178   2.381   3.795 -0.0593 -0.7953 -2.0168
 2151SOL    HW3 8371   6.148   2.517   3.853  2.4940 -0.3398 -1.6419
 2151SOL    MW4 8372   6.126   2.450   3.803 -0.1525  0.7139  0.0213
 2152SOL     OW 8373   3.346   2.459   1.792  0.2031  0.1336 -0.4996
 2152SOL    HW2 8374   3.398   2.453   1.872 -0.0386  2.0344 -0.1570
 2152SOL    HW3 8375   3.269   2.510   1.817 -0.7819 -0.7832 -1.5274
 2152SOL    MW4 8376   3.343   2.465   1.806  0.2547  0.0843  0.3718
 2153SOL     OW 8377   0.616   2.878   1.365  0.6166 -0.3506  0.2074
 2153SOL    HW2 8378   0.554   2.820   1.320  0.5557 -0.0664 -0.0784
 2153SOL    HW3 8379   0.607   2.962   1.321  2.5020 -0.7468 -1.0670
 2153SOL    MW4 8380   0.607   2.881   1.353  0.1753  0.8725 -0.3598
 2154SOL     OW 8381   2.603   3.275   0.214  1.2084 -0.5986  0.1269
 2154SOL    HW2 8382   2.568   3.246   0.298 -0.9082 -2.3890 -1.2335
 2154SOL    HW3 8383   2.553   3.354   0.193  0.2575 -1.3075 -0.3364
 2154SOL    MW4 8384   2.592   3.282   0.222  0.2451 -0.0615  0.6469
 2155SOL     OW 8385   3.109   5.014   1.516 -0.4339 -0.5032 -0.1421
 2155SOL    HW2 8386   3.201   4.996   1.536  0.8347  2.1530 -2.6611
 2155SOL    HW3 8387   3.091   5.096   1.562 -1.1038 -0.3271 -0.7072
 2155SOL    MW4 8388   3.119   5.023   1.525  0.3905 -0.7981  0.1378
 2156SOL     OW 8389   1.138   0.462   2.261 -0.1654 -0.8388 -0.1514
 2156SOL    HW2 8390   1.098   0.549   2.258  2.1405  0.2677 -1.7559
 2156SOL    HW3 8391   1.099   0.416   2.187  0.2099 -0.3745 -0.6482
 2156SOL    MW4 8392   1.128   0.468   2.251 -0.4202 -0.6206  0.1803
 2157SOL     OW 8393   5.470   1.844   0.692 -0.6428 -0.4415  0.1086
 2157SOL    HW2 8394   5.443   1.899   0.766  0.9639  0.8266 -0.2055
 2157SOL    HW3 8395   5.543   1.792   0.725 -0.2237 -0.2143 -0.4446
 2157SOL    MW4 8396   5.476   1.845   0.706 -0.1332 -0.0694  0.1907
 2158SOL     OW 8397   2.074   6.057   4.490 -0.4191  0.7368 -0.1790
 2158SOL    HW2 8398   2.071   6.094   4.578 -1.7616  1.0323 -0.3327
 2158SOL    HW3 8399   1.998   5.998   4.486  0.2473 -0.1175 -0.7854
 2158SOL    MW4 8400   2.064   6.054   4.501 -0.4880  0.2802  0.2560
 2159SOL     OW 8401   2.159   0.138   0.223  0.2544 -0.0208  0.2282
 2159SOL    HW2 8402   2.129   0.052   0.195  0.7603 -0.5019  1.1099
 2159SOL    HW3 8403   2.183   0.126   0.315  0.9408  0.8981  0.1820
 2159SOL    MW4 8404   2.159   0.125   0.231  0.3933 -0.1329  0.1147
 2160SOL     OW 8405   0.507   0.947   5.636  0.2817  0.2630 -0.2464
 2160SOL    HW2 8406   0.484   1.039   5.620  0.5402  0.2925 -0.4618
 2160SOL    HW3 8407   0.432   0.911   5.683  0.1053  0.5411 -0.3132
 2160SOL    MW4 8408   0.494   0.954   5.640 -0.0823 -0.8665  0.2437
 2161SOL     OW 8409   0.868   6.124   4.722 -0.2102 -0.0301  0.3242
 2161SOL    HW2 8410   0.808   6.173   4.778  0.4817 -0.6725  1.6836
 2161SOL    HW3 8411   0.908   6.190   4.665 -0.9598  0.6353  0.5577
 2161SOL    MW4 8412   0.865   6.139   4.722  0.8912  0.0077 -0.8373
 2162SOL     OW 8413   2.904   2.974   4.659 -0.2726  0.0549  0.4531
 2162SOL    HW2 8414   2.875   2.947   4.746 -0.3385 -1.9450 -0.1299
 2162SOL    HW3 8415   2.969   2.908   4.634 -2.1163 -1.0418 -2.0197
 2162SOL    MW4 8416   2.909   2.962   4.667 -0.0986 -0.3580 -0.3776
 2163SOL     OW 8417   6.025   3.101   5.864  0.2132  0.1850 -0.1284
 2163SOL    HW2 8418   5.952   3.045   5.837  0.9969  0.6315 -3.5990
 2163SOL    HW3 8419   5.985   3.185   5.885 -0.3864  0.0801 -0.8296
 2163SOL    MW4 8420   6.010   3.104   5.863  0.5094  0.1512  0.3693
 2164SOL     OW 8421   3.958   5.735   6.265  0.1226 -0.5872  0.3016
 2164SOL    HW2 8422   3.954   5.731   6.169 -0.6311  1.3006  0.2054
 2164SOL    HW3 8423   3.898   5.806   6.288  0.3456 -0.9615  2.1828
 2164SOL    MW4 8424   3.949   5.744   6.255 -0.0926  0.6289  0.1679
 2165SOL     OW 8425   6.046   3.834   6.083  0.0237  0.7104  0.0403
 2165SOL    HW2 8426   6.018   3.768   6.146  1.4915 -1.4582 -1.4292
 2165SOL    HW3 8427   6.138   3.849   6.103  0.3495  0.4302 -1.1715
 2165SOL    MW4 8428   6.054   3.827   6.094  0.1817 -0.0991  0.0882
 2166SOL     OW 8429   3.065   3.656   5.909 -0.3059  0.6959 -0.3868
 2166SOL    HW2 8430   2.977   3.680   5.937 -0.0526  1.3453 -0.1128
 2166SOL    HW3 8431   3.107   3.621   5.988 -1.2642 -2.5984 -1.1682
 2166SOL    MW4 8432   3.059   3.655   5.923  0.1287  0.6200 -0.2543
 2167SOL     OW 8433   2.246   3.702   3.923 -0.9268  0.2490 -0.3069
 2167SOL    HW2 8434   2.203   3.728   3.841 -2.3804 -0.8193  0.0604
 2167SOL    HW3 8435   2.184   3.729   3.991  1.0478  2.7475  0.6521
 2167SOL    MW4 8436   2.232   3.709   3.921 -0.4566 -0.0035  0.8906
 2168SOL     OW 8437   4.398   2.199   6.090  0.3147 -0.2327 -0.2144
 2168SOL    HW2 8438   4.329   2.262   6.068 -0.2620 -0.0246  1.9108
 2168SOL    HW3 8439   4.479   2.238   6.056 -0.6268 -1.0034 -3.7686
 2168SOL    MW4 8440   4.400   2.212   6.083 -0.1961  0.2274 -0.0527
 2169SOL     OW 8441   5.799   1.619   4.096  0.0245 -0.0054 -0.0568
 2169SOL    HW2 8442   5.802   1.709   4.063 -0.2514 -0.0901 -0.3195
 2169SOL    HW3 8443   5.810   1.564   4.018 -1.6350 -0.2240 -0.1719
 2169SOL    MW4 8444   5.801   1.623   4.082 -0.4440  0.1753  0.3342
 2170SOL     OW 8445   5.364   0.442   3.724  0.0426  0.6739  0.3276
 2170SOL    HW2 8446   5.312   0.479   3.795 -0.8947 -2.1263  1.2255
 2170SOL    HW3 8447   5.450   0.425   3.762  1.0696  3.3693 -0.5791
 2170SOL    MW4 8448   5.368   0.444   3.738 -0.0327 -0.1459  0.2183
 2171SOL     OW 8449   2.812   5.189   3.341  0.3736  0.0687  0.1287
 2171SOL    HW2 8450   2.778   5.139   3.267 -1.8466  0.8826  0.5134
 2171SOL    HW3 8451   2.744   5.181   3.408  1.7720  0.3542  1.6420
 2171SOL    MW4 8452   2.798   5.181   3.340 -0.9569  0.1954  0.4366
 2172SOL     OW 8453   1.756   5.516   2.055  0.2357  0.1634  0.3489
 2172SOL    HW2 8454   1.757   5.562   2.139 -1.3396  0.5980  0.1759
 2172SOL    HW3 8455   1.708   5.574   1.996 -0.8834 -1.1950 -0.1623
 2172SOL    MW4 8456   1.750   5.530   2.058 -0.6600  0.2187  0.1618
 2173SOL     OW 8457   1.379   2.808   4.254 -0.3059  0.4118  0.3970
 2173SOL    HW2 8458   1.309   2.869   4.232 -0.1821 -0.1851 -1.9670
 2173SOL    HW3 8459   1.334   2.727   4.280 -0.5956 -0.1401 -1.6069
 2173SOL    MW4 8460   1.364   2.805   4.254 -0.4229  0.6054  0.4289
 2174SOL     OW 8461   3.464   0.140   4.562 -0.4558  0.1966  0.1238
 2174SOL    HW2 8462   3.415   0.199   4.620  0.7885  0.4365  0.9853
 2174SOL    HW3 8463   3.533   0.195   4.526  0.0117 -0.4572  0.0104
 2174SOL    MW4 8464   3.467   0.155   4.565 -0.4095  0.1185 -0.2337
 2175SOL     OW 8465   2.758   4.661   5.464 -0.2922  0.0836  0.0420
 2175SOL    HW2 8466   2.834   4.708   5.500  0.2716  1.1235 -2.2859
 2175SOL    HW3 8467   2.744   4.702   5.379 -1.8631 -1.8712 -0.6933
 2175SOL    MW4 8468   2.766   4.673   5.458  0.1197 -0.0069 -0.3825
 2176SOL     OW 8469   3.142   5.929   2.404 -0.5898  0.1040 -0.2608
 2176SOL    HW2 8470   3.187   5.881   2.473  1.3243  1.0741 -0.7648
 2176SOL    HW3 8471   3.089   5.993   2.449 -1.0368 -0.6785  0.3445
 2176SOL    MW4 8472   3.141   5.931   2.419  0.1428  0.1748 -0.0929
 2177SOL     OW 8473   5.367   0.163   3.306  0.3002  0.0084  0.1574
 2177SOL    HW2 8474   5.440   0.201   3.259 -0.8253  0.2995 -1.4245
 2177SOL    HW3 8475   5.407   0.119   3.382  2.0324  0.5281 -0.4189
 2177SOL    MW4 8476   5.382   0.162   3.310  0.2624  0.0420 -0.1468
 2178SOL     OW 8477   0.250   4.920   2.388  0.4515  0.5280 -0.2183
 2178SOL    HW2 8478   0.160   4.890   2.391  0.2313  1.2045  0.0469
 2178SOL    HW3 8479   0.245   5.010   2.358  1.0368  0.5746 -0.1962
 2178SOL    MW4 8480   0.238   4.928   2.384  0.1273  0.4279  0.5075
 2179SOL     OW 8481   5.853   1.064   0.400 -0.2325  0.5133 -0.1486
 2179SOL    HW2 8482   5.790   1.003   0.362 -2.5788  2.9030 -0.4120
 2179SOL    HW3 8483   5.878   1.120   0.327  0.1901  1.1982  0.5172
 2179SOL    MW4 8484   5.848   1.063   0.385 -0.4992 -0.0056 -0.2764
 2180SOL     OW 8485   4.466   1.462   0.020 -0.1151  0.5105  0.1940
 2180SOL    HW2 8486   4.470   1.530   0.087  1.1216  1.1704 -0.5227
 2180SOL    HW3 8487   4.530   1.489  -0.046  0.0830 -1.1192 -0.3218
 2180SOL    MW4 8488   4.475   1.475   0.020  0.0874  0.0906 -0.0786
 2181SOL     OW 8489   4.678   3.164   5.870 -0.3135 -0.5448 -0.3304
 2181SOL    HW2 8490   4.741   3.143   5.801 -0.8774 -1.3439 -0.6187
 2181SOL    HW3 8491   4.697   3.101   5.940 -0.3894 -0.3773 -0.1561
 2181SOL    MW4 8492   4.689   3.153   5.871 -0.4061 -0.3807 -0.2579
 2182SOL     OW 8493   2.541   3.149   2.225 -0.2934 -0.7227 -0.1261
 2182SOL    HW2 8494   2.537   3.067   2.176 -0.6655 -0.5294 -0.4206
 2182SOL    HW3 8495   2.552   3.217   2.158  1.3322 -0.6261  0.1810
 2182SOL    MW4 8496   2.542   3.147   2.210  0.2556 -0.0889  0.0092
 2183SOL     OW 8497   4.358   6.142   1.208 -0.0925  0.4358  0.2570
 2183SOL    HW2 8498   4.316   6.112   1.288 -1.7459  0.3284 -0.5983
 2183SOL    HW3 8499   4.291   6.194   1.164  0.4452 -0.2610 -1.4794
 2183SOL    MW4 8500   4.344   6.145   1.213  0.1718 -0.8515  0.6054
 2184SOL     OW 8501   6.323   1.196   3.476  0.0760 -0.2723  1.0333
 2184SOL    HW2 8502   6.344   1.287   3.497  1.0188 -0.5290  1.2170
 2184SOL    HW3 8503   6.251   1.174   3.534  0.4751  0.0583  1.6600
 2184SOL    MW4 8504   6.316   1.205   3.486  0.1349 -0.2474  0.0173
 2185SOL     OW 8505   4.200   5.403   0.286  0.3760  0.5897  0.0338
 2185SOL    HW2 8506   4.228   5.441   0.202  2.5770 -1.4977 -0.2922
 2185SOL    HW3 8507   4.261   5.438   0.350 -0.5984  1.2861  0.6104
 2185SOL    MW4 8508   4.211   5.412   0.283  0.1650  0.5310 -0.0555
 2186SOL     OW 8509   1.397   1.476   5.162 -0.8071  0.1712 -0.2336
 2186SOL    HW2 8510   1.396   1.530   5.240  0.2736 -1.6629  1.1291
 2186SOL    HW3 8511   1.361   1.392   5.190  0.6834 -0.9101 -1.3570
 2186SOL    MW4 8512   1.392   1.472   5.176 -0.2651  0.2143  0.1463
 2187SOL     OW 8513   4.416   4.903   1.251  0.1626 -0.4415 -0.5543
 2187SOL    HW2 8514   4.487   4.919   1.314  0.2198  1.0950 -0.9832
 2187SOL    HW3 8515   4.419   4.977   1.192 -3.1850  0.8952  0.6997
 2187SOL    MW4 8516   4.425   4.915   1.252 -0.5246  0.3507  0.2604
 2188SOL     OW 8517   1.684   1.538   4.021  0.2169  0.3976  0.2723
 2188SOL    HW2 8518   1.619   1.588   4.070 -0.8042 -0.8863  0.3045
 2188SOL    HW3 8519   1.736   1.493   4.088 -0.2254 -0.2014  0.2235
 2188SOL    MW4 8520   1.682   1.539   4.036 -0.0543 -0.0342 -0.3736
 2189SOL     OW 8521   2.367   4.848   4.099  0.2830 -0.1141 -0.2319
 2189SOL    HW2 8522   2.438   4.787   4.078  0.6766 -0.5297  2.0642
 2189SOL    HW3 8523   2.290   4.810   4.055  0.7591 -1.6502  0.1958
 2189SOL    MW4 8524   2.366   4.835   4.090  0.2529 -0.0017 -0.1336
 2190SOL     OW 8525   2.185   3.979   1.636 -0.2000  0.2302  0.3622
 2190SOL    HW2 8526   2.189   3.899   1.584  2.0266  0.7747 -0.4146
 2190SOL    HW3 8527   2.126   4.036   1.586  0.9165  0.2951 -0.9337
 2190SOL    MW4 8528   2.178   3.976   1.623 -0.3704  0.2345 -0.0080
 2191SOL     OW 8529   3.338   5.297   3.840  0.2585  0.3960 -0.1399
 2191SOL    HW2 8530   3.308   5.369   3.896  0.1481 -1.0490  1.8034
 2191SOL    HW3 8531   3.433   5.310   3.833 -0.0511  2.1599 -2.0761
 2191SOL    MW4 8532   3.347   5.308   3.847  0.1852 -0.0142 -0.2158
 2192SOL     OW 8533   4.875   0.460   0.838 -0.2228  0.4108  0.0253
 2192SOL    HW2 8534   4.865   0.400   0.764  0.8997 -1.2012  1.1120
 2192SOL    HW3 8535   4.966   0.489   0.833 -0.3348  0.8312  0.3955
 2192SOL    MW4 8536   4.885   0.456   0.827  0.0636 -0.0895 -0.4019
 2193SOL     OW 8537   5.407   5.757   4.896 -0.1749 -0.2619 -0.0101
 2193SOL    HW2 8538   5.397   5.794   4.809 -0.5876 -0.8647 -0.2272
 2193SOL    HW3 8539   5.354   5.677   4.894  1.8918 -1.6955 -0.0358
 2193SOL    MW4 8540   5.399   5.751   4.885  0.0340  0.4074  0.4483
 2194SOL     OW 8541   2.184   5.713   3.576 -0.0671  0.6161  0.4781
 2194SOL    HW2 8542   2.206   5.772   3.647  1.5816  1.2733 -0.5221
 2194SOL    HW3 8543   2.267   5.696   3.532 -0.8644 -0.6759 -0.6048
 2194SOL    MW4 8544   2.198   5.719   3.579 -0.0339  0.1178 -0.1902
 2195SOL     OW 8545   3.506   6.416   0.858  0.2980  0.0040 -0.0768
 2195SOL    HW2 8546   3.576   6.436   0.795 -0.2633  1.2405 -0.3390
 2195SOL    HW3 8547   3.541   6.443   0.943  0.3785  0.0274 -0.1172
 2195SOL    MW4 8548   3.520   6.422   0.861 -0.3692  0.0753  0.1889
 2196SOL     OW 8549   2.184   5.869   5.408  0.3168  0.1175 -0.2159
 2196SOL    HW2 8550   2.196   5.932   5.479 -0.9730  0.9456 -0.6857
 2196SOL    HW3 8551   2.250   5.892   5.343  1.8695 -0.9911  0.9112
 2196SOL    MW4 8552   2.194   5.881   5.409 -0.4778  0.1635  0.6092
 2197SOL     OW 8553   5.724   1.478   2.585  0.4817  0.0251 -0.4362
 2197SOL    HW2 8554   5.811   1.439   2.593  0.6762  0.4705 -0.3366
 2197SOL    HW3 8555   5.686   1.470   2.673  0.0681 -0.9768 -0.6968
 2197SOL    MW4 8556   5.730   1.472   2.598  0.2812 -0.0665 -0.0717
 2198SOL     OW 8557   1.618   4.944   0.108  0.0503 -0.0791 -0.1658
 2198SOL    HW2 8558   1.596   4.853   0.127 -0.5192 -0.0461 -0.6438
 2198SOL    HW3 8559   1.696   4.940   0.054 -0.9174 -0.3720 -1.5964
 2198SOL    MW4 8560   1.625   4.932   0.104  0.1569  0.8628  0.0198
 2199SOL     OW 8561   1.871   1.856   3.324  0.1232 -0.6282 -0.2617
 2199SOL    HW2 8562   1.947   1.899   3.285  0.1097  1.4153  1.7617
 2199SOL    HW3 8563   1.840   1.917   3.392 -2.6158 -1.9139 -0.1943
 2199SOL    MW4 8564   1.877   1.869   3.328  0.0149 -0.1061 -0.1107
 2200SOL     OW 8565   1.169   4.114   5.491  0.4886  0.0304  0.0754
 2200SOL    HW2 8566   1.201   4.044   5.433  0.6936  2.3403 -2.8356
 2200SOL    HW3 8567   1.241   4.129   5.552  0.8350 -1.5954  0.1172
 2200SOL    MW4 8568   1.183   4.106   5.491  0.0446 -0.1936  0.0858
 2201SOL     OW 8569   5.821   6.030   1.799  0.4450  0.0385 -0.0603
 2201SOL    HW2 8570   5.876   6.106   1.817 -0.8932  0.8361  0.8191
 2201SOL    HW3 8571   5.883   5.959   1.781  1.7286  1.1431 -0.1375
 2201SOL    MW4 8572   5.836   6.030   1.799  0.0823  0.2030  0.4524
 2202SOL     OW 8573   0.619   5.566   3.988 -0.1568 -0.1059  0.6505
 2202SOL    HW2 8574   0.592   5.503   3.921 -0.4594 -0.3765  1.0180
 2202SOL    HW3 8575   0.661   5.636   3.939 -1.7131  0.4311  0.0084
 2202SOL    MW4 8576   0.621   5.567   3.973  0.7148  0.1986 -0.3782
 2203SOL     OW 8577   6.123   3.739   2.680 -0.0038  0.1629  0.3321
 2203SOL    HW2 8578   6.091   3.651   2.698  1.3532 -0.1727  1.2042
 2203SOL    HW3 8579   6.189   3.755   2.747 -0.0664  1.7639  0.0428
 2203SOL    MW4 8580   6.127   3.729   2.691  0.0563 -0.1726  0.0238
 2204SOL     OW 8581   6.273   0.786   0.593 -0.3483  0.0112 -0.1706
 2204SOL    HW2 8582   6.196   0.835   0.565 -0.9209 -0.4806  0.5104
 2204SOL    HW3 8583   6.264   0.701   0.550  1.3562  0.8920 -2.4947
 2204SOL    MW4 8584   6.262   0.781   0.583  0.2899  0.6653  0.2403
 2205SOL     OW 8585   3.412   0.659   4.995  0.3938 -0.7311  0.2958
 2205SOL    HW2 8586   3.352   0.734   4.994 -0.9515 -1.7246  1.5901
 2205SOL    HW3 8587   3.498   0.698   5.009  0.4915  0.9150 -3.5416
 2205SOL    MW4 8588   3.416   0.674   4.997 -0.5739  0.4367 -0.2431
 2206SOL     OW 8589   5.523   5.677   0.248  0.1275 -0.0937 -0.2050
 2206SOL    HW2 8590   5.613   5.708   0.258 -1.0705  3.5969  0.5720
 2206SOL    HW3 8591   5.495   5.656   0.338  0.1544 -1.2322 -0.4442
 2206SOL    MW4 8592   5.531   5.678   0.262  0.1669  0.3840 -0.2291
 2207SOL     OW 8593   3.845   6.094   4.445 -0.0267  0.2890  0.1053
 2207SOL    HW2 8594   3.864   6.137   4.362 -1.3047  1.1400  0.2285
 2207SOL    HW3 8595   3.863   6.161   4.511  0.6838 -0.2848  0.5072
 2207SOL    MW4 8596   3.850   6.109   4.443 -0.4160 -0.2183 -0.1133
 2208SOL     OW 8597   4.779   2.614   2.301  0.2002 -0.4859  0.0685
 2208SOL    HW2 8598   4.742   2.533   2.337  2.4815 -1.7286 -0.1501
 2208SOL    HW3 8599   4.741   2.621   2.214 -1.5380 -0.2019  0.8143
 2208SOL    MW4 8600   4.769   2.604   2.294 -0.1261 -0.1514  0.0761
 2209SOL     OW 8601   0.472   5.185   4.637 -0.2190  0.0180  0.4160
 2209SOL    HW2 8602   0.382   5.184   4.606 -0.2703  0.1019  0.5609
 2209SOL    HW3 8603   0.522   5.225   4.566 -0.4382  0.8360  0.7063
 2209SOL    MW4 8604   0.467   5.190   4.624  0.6219 -0.3226 -0.2054
 2210SOL     OW 8605   5.872   2.207   0.319  0.0210  0.3004 -0.6525
 2210SOL    HW2 8606   5.854   2.144   0.249 -0.8066 -0.6726  0.4013
 2210SOL    HW3 8607   5.861   2.293   0.278  0.2718 -0.2399 -1.8842
 2210SOL    MW4 8608   5.868   2.210   0.305 -0.0289 -0.4359 -0.0081
 2211SOL     OW 8609   0.033   3.174   2.713  0.1641 -0.0927 -0.5679
 2211SOL    HW2 8610   0.128   3.187   2.710  0.7343 -3.4046 -0.8693
 2211SOL    HW3 8611  -0.003   3.254   2.675  2.6725  2.1291  1.3287
 2211SOL    MW4 8612   0.041   3.186   2.707  0.0855 -0.0410  0.1043
 2212SOL     OW 8613   6.116   1.768   6.203 -0.1129 -0.4899  0.2242
 2212SOL    HW2 8614   6.185   1.726   6.150 -0.1491 -0.1582 -0.0868
 2212SOL    HW3 8615   6.054   1.801   6.139  0.8675  1.7811  0.3336
 2212SOL    MW4 8616   6.117   1.767   6.187  0.3506  0.0703  0.1542
 2213SOL     OW 8617   0.781   2.939   1.740 -0.4145 -0.1807 -0.2905
 2213SOL    HW2 8618   0.694   2.932   1.702  0.2214  0.0665 -1.8825
 2213SOL    HW3 8619   0.829   2.864   1.703  0.7751  1.1390 -1.5581
 2213SOL    MW4 8620   0.776   2.928   1.730  0.2749 -0.6452  0.3858
 2214SOL     OW 8621   2.994   5.308   0.990  0.5700  0.7163 -0.0394
 2214SOL    HW2 8622   2.900   5.294   0.980  0.7663 -0.1823 -0.7819
 2214SOL    HW3 8623   3.034   5.258   0.918  1.7678 -1.3874  1.9298
 2214SOL    MW4 8624   2.987   5.299   0.979  0.3458 -0.1811 -0.4580
 2215SOL     OW 8625   0.270   5.196   5.322  0.2786 -0.2429  0.2971
 2215SOL    HW2 8626   0.338   5.140   5.360 -0.0224 -0.6952  0.1692
 2215SOL    HW3 8627   0.303   5.220   5.236  0.6357  0.1934  0.5509
 2215SOL    MW4 8628   0.283   5.192   5.316  0.0716 -1.0411  0.6073
 2216SOL     OW 8629   0.253   4.983   4.978 -0.0613 -0.0150  0.1765
 2216SOL    HW2 8630   0.294   5.065   5.007  0.4006 -0.2415  0.1603
 2216SOL    HW3 8631   0.302   4.914   5.022 -0.0750 -0.3119 -0.2727
 2216SOL    MW4 8632   0.265   4.985   4.988 -0.1405 -0.7707 -0.7553
 2217SOL     OW 8633   6.108   1.230   1.428 -0.4829 -0.1283 -0.0557
 2217SOL    HW2 8634   6.189   1.207   1.382  0.1055  0.9811  0.3873
 2217SOL    HW3 8635   6.069   1.299   1.376 -0.0046  0.8745  0.8758
 2217SOL    MW4 8636   6.113   1.236   1.415  0.2600  0.5074 -0.0753
 2218SOL     OW 8637   3.660   3.635   2.784 -0.7699 -0.2509 -0.2059
 2218SOL    HW2 8638   3.618   3.674   2.707  0.4315 -0.8003 -1.1796
 2218SOL    HW3 8639   3.593   3.576   2.820 -1.2752 -0.1729 -0.9730
 2218SOL    MW4 8640   3.645   3.632   2.778 -0.4323 -0.1716 -0.3577
 2219SOL     OW 8641   3.244   4.237   4.595  0.1253  0.2719  0.0730
 2219SOL    HW2 8642   3.179   4.297   4.559  0.2280  0.1241 -0.3590
 2219SOL    HW3 8643   3.203   4.150   4.590 -0.1387  0.3316  0.9618
 2219SOL    MW4 8644   3.230   4.233   4.590  0.2962 -0.1336 -0.3594
 2220SOL     OW 8645   0.887   5.426   3.760 -0.6763 -0.3380 -0.3002
 2220SOL    HW2 8646   0.923   5.498   3.811 -0.4843 -1.1488  0.7484
 2220SOL    HW3 8647   0.952   5.411   3.691 -0.3980  0.0599 -0.1269
 2220SOL    MW4 8648   0.901   5.433   3.757 -0.1011  0.6163  0.0190
 2221SOL     OW 8649   1.144   5.601   2.108 -0.1873  0.1404  0.3166
 2221SOL    HW2 8650   1.208   5.532   2.127 -0.6022 -1.4153 -3.1298
 2221SOL    HW3 8651   1.193   5.665   2.057 -1.1474 -0.8830 -2.0281
 2221SOL    MW4 8652   1.159   5.600   2.104 -0.0258  0.6203  0.1758
 2222SOL     OW 8653   1.376   4.801   1.907 -0.2080 -0.2564 -0.1066
 2222SOL    HW2 8654   1.347   4.747   1.832  0.2138  0.6661 -0.9542
 2222SOL    HW3 8655   1.337   4.886   1.891 -0.9547 -0.3156  1.2884
 2222SOL    MW4 8656   1.367   4.805   1.895  0.7469  0.2528 -0.2273
 2223SOL     OW 8657   4.912   2.810   2.719  0.0556  0.5783 -0.0144
 2223SOL    HW2 8658   4.884   2.824   2.810  0.4368 -0.5885  0.3025
 2223SOL    HW3 8659   4.986   2.749   2.726 -1.6168 -1.7131 -1.2552
 2223SOL    MW4 8660   4.918   2.804   2.732 -0.9565 -0.3962  0.0609
 2224SOL     OW 8661   5.643   1.866   4.344 -0.1522 -0.3935  0.5404
 2224SOL    HW2 8662   5.620   1.901   4.258 -0.1861 -1.6883 -0.0053
 2224SOL    HW3 8663   5.738   1.865   4.346 -0.1157  1.3322  1.2624
 2224SOL    MW4 8664   5.652   1.870   4.333  0.0004 -0.3292 -0.8447
 2225SOL     OW 8665   0.116   1.014   2.857  0.7729 -0.5747 -0.1918
 2225SOL    HW2 8666   0.128   0.993   2.949 -1.7868 -1.7409 -0.0285
 2225SOL    HW3 8667   0.172   0.951   2.811  0.9006 -1.0056  0.5376
 2225SOL    MW4 8668   0.125   1.003   2.863 -0.1201  0.4238  1.1418
 2226SOL     OW 8669   4.472   1.490   4.395  0.4668  0.3276 -0.8226
 2226SOL    HW2 8670   4.540   1.494   4.328  0.7595 -1.5610 -0.6914
 2226SOL    HW3 8671   4.490   1.408   4.442  0.5288  1.7378  1.8385
 2226SOL    MW4 8672   4.484   1.480   4.393  0.0363  0.7275 -0.3045
 2227SOL     OW 8673   4.512   3.711   4.148 -0.1110  0.0718  0.0602
 2227SOL    HW2 8674   4.590   3.663   4.177 -0.3901 -1.0660 -1.0111
 2227SOL    HW3 8675   4.525   3.722   4.054 -0.5278  1.2624  0.1262
 2227SOL    MW4 8676   4.524   3.707   4.139 -0.4960  0.0992 -0.1845
 2228SOL     OW 8677   3.517   1.048   2.497  0.3613 -0.0758 -0.3787
 2228SOL    HW2 8678   3.538   1.128   2.450  1.3280 -1.4206 -2.3531
 2228SOL    HW3 8679   3.595   1.030   2.550 -0.1452  0.6289  0.6558
 2228SOL    MW4 8680   3.530   1.056   2.498  0.4458 -0.3062  0.8872
 2229SOL     OW 8681   2.749   1.459   0.772 -0.2849  0.4254  0.2960
 2229SOL    HW2 8682   2.699   1.401   0.830  0.5221 -0.7251 -0.1189
 2229SOL    HW3 8683   2.711   1.445   0.685  0.3454  0.0066  0.0825
 2229SOL    MW4 8684   2.738   1.450   0.768 -0.1689  0.5060 -0.1672
 2230SOL     OW 8685   5.858   1.407   3.881  0.3048 -0.1926  0.5481
 2230SOL    HW2 8686   5.856   1.359   3.798  0.0227 -0.9430  0.9785
 2230SOL    HW3 8687   5.941   1.382   3.921  0.2738 -0.1182  0.6598
 2230SOL    MW4 8688   5.869   1.397   3.875 -0.6483  0.4650 -0.0488
 2231SOL     OW 8689   5.119   4.247   4.680 -0.1041 -0.6223  0.2370
 2231SOL    HW2 8690   5.124   4.318   4.744 -0.0477 -0.3955 -0.0142
 2231SOL    HW3 8691   5.026   4.244   4.655 -0.1833 -0.9341  0.5803
 2231SOL    MW4 8692   5.107   4.256   4.685 -0.0265  0.5830 -0.1254
 2232SOL     OW 8693   3.427   2.992   2.086 -0.3257  0.2801  0.3974
 2232SOL    HW2 8694   3.395   2.952   2.167  2.7300 -0.4382  1.3702
 2232SOL    HW3 8695   3.424   2.921   2.022 -1.2757  0.4157  0.2802
 2232SOL    MW4 8696   3.423   2.977   2.088  0.2802  0.0411  0.1477
 2233SOL     OW 8697   1.481   0.941   5.382 -0.0747 -0.7193 -0.4385
 2233SOL    HW2 8698   1.539   0.992   5.327 -0.7136 -0.3018 -0.7281
 2233SOL    HW3 8699   1.476   0.990   5.464  2.5597 -2.3730  0.8764
 2233SOL    MW4 8700   1.488   0.954   5.386  0.0931 -0.3341  0.7890
 2234SOL     OW 8701   2.154   0.939   5.965  0.0671 -0.2032 -0.2501
 2234SOL    HW2 8702   2.191   0.945   6.053  0.3671  1.0231 -0.4426
 2234SOL    HW3 8703   2.167   0.847   5.940  0.9851 -0.3104  0.5556
 2234SOL    MW4 8704   2.161   0.927   5.973  0.2683 -0.0668  0.3567
 2235SOL     OW 8705   2.874   6.183   4.004  0.3588 -0.1966 -0.2474
 2235SOL    HW2 8706   2.872   6.147   4.092  0.1812 -1.1867 -0.6394
 2235SOL    HW3 8707   2.787   6.167   3.969  0.4508  0.1167 -0.6302
 2235SOL    MW4 8708   2.862   6.176   4.011 -0.4454 -0.2249 -0.1080
 2236SOL     OW 8709   1.155   1.233   3.792  0.4446  1.0589 -0.3102
 2236SOL    HW2 8710   1.093   1.249   3.721  0.6448  0.7898 -0.5474
 2236SOL    HW3 8711   1.150   1.138   3.808  0.0115  1.1906  0.3951
 2236SOL    MW4 8712   1.146   1.222   3.785  0.4220  0.1825  0.0544
 2237SOL     OW 8713   4.263   4.990   0.550  0.0890  0.1679 -0.6139
 2237SOL    HW2 8714   4.247   4.975   0.457  1.1731  0.2054 -0.8188
 2237SOL    HW3 8715   4.257   5.085   0.560  0.0738  0.1719 -0.6617
 2237SOL    MW4 8716   4.260   5.001   0.539  0.0558  0.3550 -0.2886
 2238SOL     OW 8717   5.626   6.346   3.758  0.1628 -0.2384 -0.0842
 2238SOL    HW2 8718   5.661   6.432   3.780 -0.4204  0.0076 -0.1090
 2238SOL    HW3 8719   5.568   6.324   3.830  0.6321 -0.8067  0.1361
 2238SOL    MW4 8720   5.623   6.354   3.770 -0.0994  0.1572  0.2498
 2239SOL     OW 8721   2.302   6.434   2.789  0.2526  0.8090 -0.0647
 2239SOL    HW2 8722   2.324   6.341   2.792 -0.0160  0.6806 -1.4511
 2239SOL    HW3 8723   2.376   6.478   2.831  0.1044 -0.0562  1.1406
 2239SOL    MW4 8724   2.315   6.428   2.795 -0.1085 -0.3198  0.5540
 2240SOL     OW 8725   1.087   4.440   2.516 -0.0418  0.2406  0.5060
 2240SOL    HW2 8726   1.070   4.492   2.437 -1.7271  1.1115  1.3818
 2240SOL    HW3 8727   1.107   4.352   2.483 -1.1883  0.4626 -0.8782
 2240SOL    MW4 8728   1.087   4.435   2.501 -0.2314  0.1785  0.3377
 2241SOL     OW 8729   0.290   6.275   0.900 -0.2111 -0.0277 -0.3672
 2241SOL    HW2 8730   0.310   6.363   0.931  0.3402 -0.3709  0.2800
 2241SOL    HW3 8731   0.343   6.217   0.956 -2.4066 -0.9357  0.8818
 2241SOL    MW4 8732   0.300   6.279   0.912  0.1910  0.1680 -0.3081
 2242SOL     OW 8733   1.336   1.306   6.295  0.0887 -0.1410 -0.3658
 2242SOL    HW2 8734   1.329   1.221   6.252 -0.9001  0.4257 -1.3722
 2242SOL    HW3 8735   1.384   1.361   6.233  1.1039 -0.0728  0.4621
 2242SOL    MW4 8736   1.341   1.302   6.281  0.1228  0.1977 -0.1380
 2243SOL     OW 8737   2.650   2.907   3.449  0.1272 -0.2209 -0.3725
 2243SOL    HW2 8738   2.699   2.883   3.527  0.0981  0.0824 -0.2588
 2243SOL    HW3 8739   2.593   2.979   3.477 -1.4593 -1.5148 -0.1186
 2243SOL    MW4 8740   2.649   2.913   3.463  0.5950  0.5939  0.2898
 2244SOL     OW 8741   1.017   1.079   4.836 -0.0713  0.1550  0.6019
 2244SOL    HW2 8742   0.923   1.066   4.836  0.1573 -1.7018  0.2491
 2244SOL    HW3 8743   1.040   1.088   4.743  0.4651 -2.9305  0.3172
 2244SOL    MW4 8744   1.008   1.079   4.824  0.5444  0.2686 -0.7234
 2245SOL     OW 8745   3.687   3.369   3.237 -0.2353 -0.3808  0.3329
 2245SOL    HW2 8746   3.690   3.338   3.328  1.0242 -0.3234  0.3262
 2245SOL    HW3 8747   3.755   3.436   3.233 -0.0507 -0.6253 -0.7453
 2245SOL    MW4 8748   3.696   3.374   3.249  0.2210 -0.4984  0.0233
 2246SOL     OW 8749   1.787   5.708   2.254 -0.2541 -0.1137  0.0811
 2246SOL    HW2 8750   1.754   5.796   2.235  1.2911  0.4353 -0.1621
 2246SOL    HW3 8751   1.763   5.694   2.346  0.1100  0.8555  0.3395
 2246SOL    MW4 8752   1.779   5.718   2.264  0.2856 -0.2719  0.1787
 2247SOL     OW 8753   5.782   5.528   4.055  0.0652 -0.3940 -0.6751
 2247SOL    HW2 8754   5.830   5.562   4.130 -0.2741 -0.4170 -0.4411
 2247SOL    HW3 8755   5.847   5.521   3.985  0.3455 -0.2019 -0.4362
 2247SOL    MW4 8756   5.797   5.531   4.056  0.3377  0.0290  0.3303
 2248SOL     OW 8757   1.926   3.508   4.773  0.4073 -0.5562  0.0495
 2248SOL    HW2 8758   1.899   3.418   4.754 -0.3223 -0.2941 -0.2177
 2248SOL    HW3 8759   1.844   3.554   4.790  0.7145  0.1987 -0.4500
 2248SOL    MW4 8760   1.912   3.502   4.773  0.2449 -0.8619 -0.0859
 2249SOL     OW 8761   5.104   2.427   5.815  0.0597 -0.2169 -0.5098
 2249SOL    HW2 8762   5.025   2.375   5.797  0.8221 -2.2387  1.5016
 2249SOL    HW3 8763   5.098   2.501   5.754 -2.6682 -1.0188 -1.3785
 2249SOL    MW4 8764   5.092   2.430   5.804  1.0217  0.3490  0.2671
 2250SOL     OW 8765   1.508   4.166   0.772  0.2943  0.0744  0.8512
 2250SOL    HW2 8766   1.578   4.231   0.781  0.8719 -0.5936  1.1801
 2250SOL    HW3 8767   1.544   4.099   0.714 -1.2843  1.3828 -1.8750
 2250SOL    MW4 8768   1.522   4.166   0.765 -0.1265 -0.6759 -0.9025
 2251SOL     OW 8769   0.896   2.367   5.679  0.4288 -0.5411  0.1863
 2251SOL    HW2 8770   0.934   2.304   5.617  0.5059 -0.4598  0.1517
 2251SOL    HW3 8771   0.811   2.329   5.703  0.4829 -0.6678  0.1785
 2251SOL    MW4 8772   0.890   2.353   5.674  0.2201 -0.1072  0.0708
 2252SOL     OW 8773   3.834   3.414   4.885  0.0025 -0.0014 -0.5711
 2252SOL    HW2 8774   3.823   3.509   4.891  1.6520  0.1572  0.8799
 2252SOL    HW3 8775   3.790   3.380   4.963  1.0201 -0.2090 -0.0575
 2252SOL    MW4 8776   3.827   3.422   4.896 -0.2820 -0.5403 -0.1078
 2253SOL     OW 8777   5.644   3.816   5.672  0.0003 -0.0498  0.2708
 2253SOL    HW2 8778   5.554   3.818   5.706  0.1392 -0.1546  0.6567
 2253SOL    HW3 8779   5.687   3.748   5.724  0.4169  0.2886  0.3731
 2253SOL    MW4 8780   5.638   3.807   5.684 -0.1204  0.3061  0.5957
 2254SOL     OW 8781   3.303   4.645   5.927 -0.2374  0.1597  0.0603
 2254SOL    HW2 8782   3.290   4.610   6.015 -1.3919  2.0992  0.6994
 2254SOL    HW3 8783   3.360   4.580   5.884  2.0021  0.1030  2.8030
 2254SOL    MW4 8784   3.309   4.631   5.933  0.1891 -0.5461 -0.6688
 2255SOL     OW 8785   3.974   0.936   3.715  0.2264 -0.4559 -0.2088
 2255SOL    HW2 8786   3.996   1.026   3.736  0.2136 -0.5225  0.0945
 2255SOL    HW3 8787   3.905   0.912   3.777  0.3933 -0.7480 -0.1305
 2255SOL    MW4 8788   3.968   0.944   3.726 -0.3194 -0.1137  0.0051
 2256SOL     OW 8789   0.298   3.852   5.827  0.4408 -0.0099 -0.2371
 2256SOL    HW2 8790   0.229   3.910   5.793 -0.8815 -1.2627  0.2202
 2256SOL    HW3 8791   0.376   3.878   5.778 -0.1575  1.9552 -0.2450
 2256SOL    MW4 8792   0.299   3.863   5.816  0.0891 -0.5052  0.1953
 2257SOL     OW 8793   0.988   6.417   1.429 -0.2389 -0.2694  0.1282
 2257SOL    HW2 8794   1.049   6.487   1.406  0.8837 -0.0094  3.3720
 2257SOL    HW3 8795   0.930   6.455   1.495  0.1027 -2.2076  1.6572
 2257SOL    MW4 8796   0.988   6.431   1.435 -0.0032 -0.6435 -0.2063
 2258SOL     OW 8797   1.552   1.005   0.481 -0.2499  0.2846 -0.1714
 2258SOL    HW2 8798   1.618   0.936   0.473  1.5550  1.6713  1.6090
 2258SOL    HW3 8799   1.490   0.973   0.546 -0.3329 -0.2828 -0.5243
 2258SOL    MW4 8800   1.553   0.992   0.488 -0.0637  0.0419 -0.2258
 2259SOL     OW 8801   5.512   0.920   1.439 -0.0895  0.0488  0.6176
 2259SOL    HW2 8802   5.441   0.923   1.375  0.2577 -2.3569  0.0401
 2259SOL    HW3 8803   5.591   0.903   1.388  0.4625 -0.1895  1.5128
 2259SOL    MW4 8804   5.513   0.918   1.424  0.6909 -0.5057 -0.1244
 2260SOL     OW 8805   3.008   1.722   2.666  0.2109  0.3366  0.7040
 2260SOL    HW2 8806   3.006   1.638   2.712  0.1476  0.1450  0.3486
 2260SOL    HW3 8807   2.933   1.770   2.700 -1.6566 -0.9494 -1.3917
 2260SOL    MW4 8808   2.998   1.717   2.677 -0.0518  0.1330 -0.1245
 2261SOL     OW 8809   1.937   5.255   0.720  0.3638  0.1596  0.0998
 2261SOL    HW2 8810   1.940   5.332   0.777 -0.9276 -0.5620  1.1872
 2261SOL    HW3 8811   1.924   5.181   0.779  1.4628 -0.9128 -0.9338
 2261SOL    MW4 8812   1.936   5.255   0.735 -0.3490 -0.4260 -0.3071
 2262SOL     OW 8813   3.370   5.442   3.534  0.7860  0.1996 -0.0481
 2262SOL    HW2 8814   3.358   5.358   3.579 -1.4231  0.5802  0.1956
 2262SOL    HW3 8815   3.397   5.502   3.603 -1.1909  0.4601  0.5502
 2262SOL    MW4 8816   3.372   5.439   3.549  0.2817  0.4982 -0.3849
 2263SOL     OW 8817   4.328   3.714   0.655 -0.1773  0.3258 -0.2467
 2263SOL    HW2 8818   4.311   3.639   0.712  0.8085  2.0652  2.5236
 2263SOL    HW3 8819   4.424   3.719   0.650 -0.1956  2.0714  0.6184
 2263SOL    MW4 8820   4.338   3.705   0.662  0.1601  0.1681 -0.1392
 2264SOL     OW 8821   3.906   1.834   4.447 -0.2308 -0.2039  0.2654
 2264SOL    HW2 8822   3.863   1.765   4.395 -0.5045  0.0527  0.1485
 2264SOL    HW3 8823   3.996   1.803   4.457 -0.6734 -1.2447  1.3720
 2264SOL    MW4 8824   3.912   1.821   4.441  0.4240 -0.7183 -0.3788
 2265SOL     OW 8825   4.501   5.719   3.187 -0.0250 -0.0206  0.1366
 2265SOL    HW2 8826   4.524   5.811   3.195  1.0602 -0.1873 -0.8806
 2265SOL    HW3 8827   4.541   5.691   3.105  0.5487 -1.6641  0.9460
 2265SOL    MW4 8828   4.509   5.727   3.178 -0.1157 -0.2990 -0.3207
 2266SOL     OW 8829   0.749   2.623   5.726 -0.2560 -0.7259  0.0173
 2266SOL    HW2 8830   0.793   2.549   5.686  1.2193  1.2208 -2.2298
 2266SOL    HW3 8831   0.804   2.647   5.800  0.2746 -0.7542 -0.3664
 2266SOL    MW4 8832   0.762   2.617   5.731 -0.0901 -0.0049 -0.1212
 2267SOL     OW 8833   4.495   4.139   5.228 -0.1226  0.1869 -0.2415
 2267SOL    HW2 8834   4.433   4.212   5.222  0.1020  0.3385 -0.6999
 2267SOL    HW3 8835   4.447   4.072   5.277 -0.9714 -0.0314 -1.3309
 2267SOL    MW4 8836   4.481   4.140   5.234 -0.5050 -0.2527 -0.6099
 2268SOL     OW 8837   4.467   2.326   0.904 -0.0487  0.2468 -0.1222
 2268SOL    HW2 8838   4.404   2.363   0.966 -0.0349  0.5677 -0.2997
 2268SOL    HW3 8839   4.433   2.238   0.885 -2.0000  1.3494 -2.3276
 2268SOL    MW4 8840   4.454   2.319   0.910  0.3618 -0.0453  0.0870
 2269SOL     OW 8841   3.911   5.749   1.537 -0.5340 -0.0212 -0.1858
 2269SOL    HW2 8842   3.890   5.707   1.620 -0.8746  1.3327  0.4388
 2269SOL    HW3 8843   3.886   5.685   1.470  1.1726 -1.7694  0.7459
 2269SOL    MW4 8844   3.905   5.735   1.539  0.2997  0.1472  0.6500
 2270SOL     OW 8845   2.924   6.043   3.550  0.3923  0.1597  0.1323
 2270SOL    HW2 8846   2.922   5.973   3.484  2.0404  0.2913 -0.0893
 2270SOL    HW3 8847   2.967   6.003   3.626 -1.0329  0.1631  0.9712
 2270SOL    MW4 8848   2.929   6.028   3.552 -0.1414 -0.0492 -0.2259
 2271SOL     OW 8849   1.775   6.134   3.918  0.3332  0.2207 -0.1704
 2271SOL    HW2 8850   1.784   6.126   3.823  1.9684 -1.1670  0.0555
 2271SOL    HW3 8851   1.857   6.172   3.947  0.6233 -1.1072  0.8431
 2271SOL    MW4 8852   1.787   6.138   3.909 -1.0298  0.2594 -0.3377
 2272SOL     OW 8853   0.364   3.120   3.637 -0.6313 -0.7048 -0.8408
 2272SOL    HW2 8854   0.366   3.126   3.542 -1.0071 -1.1142 -0.8792
 2272SOL    HW3 8855   0.420   3.046   3.658 -2.1477 -1.9132 -0.8858
 2272SOL    MW4 8856   0.372   3.111   3.627 -0.6528  0.2901  0.2561
 2273SOL     OW 8857   4.807   5.787   1.562 -0.0749 -0.0926  0.3928
 2273SOL    HW2 8858   4.808   5.859   1.624  1.3871  0.2819 -0.0503
 2273SOL    HW3 8859   4.898   5.760   1.553  0.0128  0.8621 -2.7334
 2273SOL    MW4 8860   4.819   5.793   1.569 -1.1742 -0.4117  0.2834
 2274SOL     OW 8861   2.731   2.270   2.000  0.1339 -0.0288 -0.3937
 2274SOL    HW2 8862   2.744   2.312   2.085 -2.3043  1.0171 -0.4569
 2274SOL    HW3 8863   2.651   2.217   2.012  2.3326 -3.7922 -0.6939
 2274SOL    MW4 8864   2.722   2.268   2.013  0.1602  0.1528  0.6352
 2275SOL     OW 8865   5.300   2.482   1.750 -0.1632 -0.3683 -0.1571
 2275SOL    HW2 8866   5.223   2.540   1.752  0.4695  0.4927 -0.1113
 2275SOL    HW3 8867   5.271   2.406   1.700 -1.0869 -0.1142 -0.0358
 2275SOL    MW4 8868   5.286   2.480   1.743  0.5825  0.5558 -0.1359
 2276SOL     OW 8869   0.650   1.168   0.493  0.7252  0.4759  0.3474
 2276SOL    HW2 8870   0.710   1.101   0.460 -1.1924 -1.0544 -0.2440
 2276SOL    HW3 8871   0.618   1.212   0.415  0.2501  0.5261  0.5685
 2276SOL    MW4 8872   0.654   1.165   0.478  0.8390  0.5877 -0.0537
 2277SOL     OW 8873   4.588   2.483   4.845  0.0926 -0.2158 -0.4881
 2277SOL    HW2 8874   4.534   2.407   4.865 -0.5160  0.3452  0.0396
 2277SOL    HW3 8875   4.670   2.468   4.894  0.8634 -1.5714 -2.1208
 2277SOL    MW4 8876   4.592   2.471   4.854 -0.2972  0.0714 -0.1468
 2278SOL     OW 8877   5.197   2.872   4.584  0.6670 -0.3978 -0.2197
 2278SOL    HW2 8878   5.108   2.894   4.613  1.2774  1.8039  0.1644
 2278SOL    HW3 8879   5.193   2.875   4.489  0.4822  0.4825 -0.1927
 2278SOL    MW4 8880   5.185   2.875   4.575  0.2219  0.0467 -0.0151
 2279SOL     OW 8881   4.681   0.161   5.256  0.7028  0.1257  0.0932
 2279SOL    HW2 8882   4.701   0.223   5.185  0.3377  1.1331  0.8353
 2279SOL    HW3 8883   4.612   0.106   5.220 -1.7960  2.6508  0.6258
 2279SOL    MW4 8884   4.674   0.162   5.242  0.0243  0.5387 -0.6771
 2280SOL     OW 8885   3.400   1.110   4.880  0.3949 -0.4396 -0.0945
 2280SOL    HW2 8886   3.452   1.188   4.863  0.5749 -0.8452 -1.5370
 2280SOL    HW3 8887   3.348   1.132   4.957  1.6980  0.4609  0.5657
 2280SOL    MW4 8888   3.400   1.123   4.888  0.0886  0.0925 -0.0992
 2281SOL     OW 8889   4.409   3.292   3.105 -0.2104 -0.6732  0.0652
 2281SOL    HW2 8890   4.393   3.355   3.035  0.3711  2.7214  2.7247
 2281SOL    HW3 8891   4.505   3.287   3.111 -0.2546 -1.2629  0.3511
 2281SOL    MW4 8892   4.420   3.300   3.097  0.0935 -0.6232  0.4812
 2282SOL     OW 8893   0.241   1.256   2.759  0.0201 -0.1474  0.1853
 2282SOL    HW2 8894   0.198   1.181   2.800  0.4412  0.7907  2.4888
 2282SOL    HW3 8895   0.236   1.325   2.825 -0.0794  1.7916 -1.7367
 2282SOL    MW4 8896   0.234   1.255   2.773 -0.1679  0.2453 -0.1628
 2283SOL     OW 8897   1.064   6.089   5.920 -0.7128 -0.0837  0.0524
 2283SOL    HW2 8898   1.045   6.002   5.884 -1.3682 -0.1076  0.4445
 2283SOL    HW3 8899   0.978   6.128   5.937 -0.4293  0.8567 -0.6166
 2283SOL    MW4 8900   1.050   6.083   5.918 -0.0820  0.7283 -0.2667
 2284SOL     OW 8901   3.718   5.337   2.968 -0.2965  0.1601 -0.5988
 2284SOL    HW2 8902   3.752   5.248   2.962 -0.4657  0.1044 -0.7506
 2284SOL    HW3 8903   3.690   5.346   3.059 -0.0856  0.1311 -0.5293
 2284SOL    MW4 8904   3.719   5.326   2.979 -0.1239 -0.0221 -0.3136
 2285SOL     OW 8905   6.356   2.287   3.783  0.3077 -0.4048 -0.0373
 2285SOL    HW2 8906   6.409   2.339   3.843 -0.2801 -0.8780  0.9126
 2285SOL    HW3 8907   6.419   2.252   3.720  0.6851  1.6628 -0.8878
 2285SOL    MW4 8908   6.372   2.289   3.783 -0.5085  0.2108  0.1657
 2286SOL     OW 8909   5.791   4.897   6.283  0.0700 -0.3484  0.5324
 2286SOL    HW2 8910   5.720   4.952   6.316 -0.6556  0.5308 -2.1857
 2286SOL    HW3 8911   5.752   4.811   6.270 -0.2035 -0.1630  0.1068
 2286SOL    MW4 8912   5.777   4.893   6.285  0.8697 -0.2473 -0.3480
 2287SOL     OW 8913   1.606   5.068   1.501 -0.1932  0.5842  0.5402
 2287SOL    HW2 8914   1.596   5.123   1.423 -0.5279  0.6858  0.6523
 2287SOL    HW3 8915   1.618   4.980   1.467 -0.9836  0.5287  0.3818
 2287SOL    MW4 8916   1.607   5.064   1.486 -0.1926  0.4896  0.6796
 2288SOL     OW 8917   1.427   3.623   0.954 -0.0609 -0.5023  0.1096
 2288SOL    HW2 8918   1.423   3.575   1.037  0.1434  0.7964  0.8866
 2288SOL    HW3 8919   1.365   3.695   0.964  0.0971 -0.2234 -0.8007
 2288SOL    MW4 8920   1.418   3.626   0.966  0.0966 -0.0113  0.0133
 2289SOL     OW 8921   3.668   4.137   5.210  0.1579  0.3696  0.3342
 2289SOL    HW2 8922   3.654   4.124   5.116  1.0988 -0.4272  0.2975
 2289SOL    HW3 8923   3.758   4.167   5.218 -0.6523  2.9161  0.7962
 2289SOL    MW4 8924   3.678   4.139   5.199  0.1612  0.1269 -0.2064
 2290SOL     OW 8925   0.365   2.429   2.687  0.4176  0.0384 -0.2269
 2290SOL    HW2 8926   0.334   2.344   2.655 -0.0763  0.8085 -1.8457
 2290SOL    HW3 8927   0.442   2.407   2.739  0.2563 -1.4150 -0.5521
 2290SOL    MW4 8928   0.371   2.415   2.690  0.1786  0.1621  0.3770
 2291SOL     OW 8929   5.261   4.405   3.118 -0.1441 -0.3413 -0.2565
 2291SOL    HW2 8930   5.266   4.473   3.184  1.8428 -0.5035 -0.1885
 2291SOL    HW3 8931   5.296   4.445   3.039 -2.1915 -0.2472 -1.1939
 2291SOL    MW4 8932   5.266   4.419   3.116  0.4452  0.1570 -0.4371
 2292SOL     OW 8933   6.235   5.333   2.702  0.0090 -0.3279  0.3306
 2292SOL    HW2 8934   6.257   5.337   2.795  0.0336  3.7581  0.3091
 2292SOL    HW3 8935   6.315   5.299   2.660  0.8871  0.1120  1.5937
 2292SOL    MW4 8936   6.249   5.329   2.708  0.1884  0.0982  0.0084
 2293SOL     OW 8937   5.423   4.993   1.972 -0.2048  0.3431  0.2407
 2293SOL    HW2 8938   5.433   4.912   2.022 -0.8829 -0.2348 -0.5452
 2293SOL    HW3 8939   5.512   5.024   1.958  0.0595 -0.2940  0.5022
 2293SOL    MW4 8940   5.436   4.986   1.977  0.5718 -0.1456  0.1262
 2294SOL     OW 8941   0.009   3.248   5.936  0.2900 -0.2118  0.1594
 2294SOL    HW2 8942   0.070   3.262   6.008 -0.6261  0.1539  0.9011
 2294SOL    HW3 8943   0.062   3.256   5.857  1.0703  0.7916  0.7570
 2294SOL    MW4 8944   0.024   3.251   5.935  0.0134 -0.4908  0.3273
 2295SOL     OW 8945   4.536   1.920   1.849  0.4812 -0.1762  0.3403
 2295SOL    HW2 8946   4.509   1.880   1.767 -0.8862 -0.2883  0.8221
 2295SOL    HW3 8947   4.460   1.910   1.907  1.3328  0.1039  1.5441
 2295SOL    MW4 8948   4.522   1.913   1.846  0.0509 -0.5742 -0.2830
 2296SOL     OW 8949   0.637   2.734   0.543  0.1270 -0.1214  0.9050
 2296SOL    HW2 8950   0.590   2.694   0.616 -1.1197 -0.9718 -0.2962
 2296SOL    HW3 8951   0.572   2.792   0.502  1.0494  0.9714  0.9361
 2296SOL    MW4 8952   0.622   2.736   0.547 -0.1831  0.2494  0.1089
 2297SOL     OW 8953   2.600   2.878   2.982  0.5162  0.1426 -0.0445
 2297SOL    HW2 8954   2.569   2.901   3.070 -0.3956  0.3107 -0.4022
 2297SOL    HW3 8955   2.561   2.943   2.924  0.0558 -0.7154 -0.7319
 2297SOL    MW4 8956   2.591   2.889   2.986  0.0388  0.0741 -0.5732
 2298SOL     OW 8957   2.567   2.430   2.549 -0.2360  0.1592  0.1475
 2298SOL    HW2 8958   2.556   2.516   2.508 -0.2408  0.4663  0.7925
 2298SOL    HW3 8959   2.498   2.426   2.615  0.6374  0.2385  1.0920
 2298SOL    MW4 8960   2.556   2.441   2.552 -0.3565  0.0424 -0.3660
 2299SOL     OW 8961   2.829   1.172   0.738  0.5000 -0.3286  0.0415
 2299SOL    HW2 8962   2.826   1.267   0.751  1.3957 -0.6130  3.5669
 2299SOL    HW3 8963   2.913   1.145   0.776 -0.1474 -2.6032  0.0307
 2299SOL    MW4 8964   2.840   1.181   0.745 -0.3333  0.3252  0.6988
 2300SOL     OW 8965   5.505   0.378   2.135  0.5024  0.0142  0.2976
 2300SOL    HW2 8966   5.458   0.443   2.084  0.1822 -0.5077 -0.0790
 2300SOL    HW3 8967   5.596   0.406   2.133  0.6765 -0.5570 -1.4518
 2300SOL    MW4 8968   5.510   0.390   2.128  0.3206 -0.2590  0.5254
 2301SOL     OW 8969   1.231   3.593   1.503  0.9216  0.7115 -0.2949
 2301SOL    HW2 8970   1.166   3.596   1.573 -1.0534 -0.9830 -1.9400
 2301SOL    HW3 8971   1.196   3.651   1.436  1.6066  0.5002 -0.8457
 2301SOL    MW4 8972   1.218   3.601   1.504  0.1473 -0.0906  0.2601
 2302SOL     OW 8973   0.571   2.134   0.298 -0.0415  0.0444  0.1785
 2302SOL    HW2 8974   0.545   2.047   0.269  0.9006 -0.2517  0.1613
 2302SOL    HW3 8975   0.653   2.119   0.346 -0.2065  0.8450  0.7309
 2302SOL    MW4 8976   0.579   2.121   0.301 -0.4451  0.3789 -0.1190
 2303SOL     OW 8977   3.789   0.832   1.369 -0.1201 -0.0890  0.2533
 2303SOL    HW2 8978   3.757   0.749   1.333  0.0598 -0.0754  0.0643
 2303SOL    HW3 8979   3.716   0.893   1.357  0.1479  0.0729 -0.6328
 2303SOL    MW4 8980   3.775   0.829   1.363  0.7494  0.9122  0.5256
 2304SOL     OW 8981   0.776   1.295   4.912 -0.1964  1.0930 -0.0673
 2304SOL    HW2 8982   0.746   1.215   4.868 -1.1956 -0.2350  2.7844
 2304SOL    HW3 8983   0.845   1.329   4.855  0.5983 -2.0767 -1.2107
 2304SOL    MW4 8984   0.781   1.289   4.899  0.2192 -0.3741  0.1728
 2305SOL     OW 8985   1.621   0.160   2.735  0.1622 -0.1374  0.4454
 2305SOL    HW2 8986   1.653   0.142   2.646  2.9287  0.7561  1.1578
 2305SOL    HW3 8987   1.533   0.196   2.722 -1.2438 -3.7699 -1.6327
 2305SOL    MW4 8988   1.613   0.162   2.721  0.5201 -0.0661 -0.3949
 2306SOL     OW 8989   1.004   2.081   5.969  0.0345  0.0363 -0.2365
 2306SOL    HW2 8990   0.988   2.151   6.032 -0.5401 -0.4989  0.2130
 2306SOL    HW3 8991   1.006   2.001   6.022 -0.0811 -0.3736 -0.8471
 2306SOL    MW4 8992   1.002   2.080   5.984 -0.7879  0.6368  0.1196
 2307SOL     OW 8993   1.026   5.256   1.518 -0.6756 -0.1058 -0.2923
 2307SOL    HW2 8994   0.965   5.188   1.488  0.2311 -0.8118 -0.5723
 2307SOL    HW3 8995   0.972   5.315   1.570 -1.5799 -0.7787 -0.4405
 2307SOL    MW4 8996   1.011   5.255   1.521  0.0171  0.3298 -0.6236
 2308SOL     OW 8997   1.726   2.752   5.318 -0.0410  0.8448 -0.1662
 2308SOL    HW2 8998   1.780   2.750   5.397 -0.9419 -1.2003  0.4664
 2308SOL    HW3 8999   1.723   2.845   5.293  3.1468  1.1458  0.1458
 2308SOL    MW4 9000   1.733   2.764   5.325 -0.2774 -0.1316  0.0919
 2309SOL     OW 9001   3.211   5.970   1.499  0.0759 -0.5380 -0.1961
 2309SOL    HW2 9002   3.287   5.976   1.441 -0.2855  0.3383 -0.5964
 2309SOL    HW3 9003   3.245   5.992   1.586 -0.1565  2.4046 -0.7612
 2309SOL    MW4 9004   3.225   5.974   1.503  0.2543 -0.0102 -0.5231
 2310SOL     OW 9005   0.136   2.622   1.050 -0.0763 -0.6879  0.2549
 2310SOL    HW2 9006   0.135   2.625   1.146  1.5232 -1.0698  0.3144
 2310SOL    HW3 9007   0.043   2.624   1.025 -0.5039  0.7692  1.7472
 2310SOL    MW4 9008   0.123   2.623   1.060  0.1370  0.2433 -0.4242
 2311SOL     OW 9009   0.141   1.205   0.014 -0.0729 -0.4129  0.2729
 2311SOL    HW2 9010   0.081   1.279   0.012  0.3046 -0.0095  1.9659
 2311SOL    HW3 9011   0.084   1.128   0.022 -0.4197 -0.0188  2.0830
 2311SOL    MW4 9012   0.125   1.204   0.015 -0.4896  0.4287 -0.0094
 2312SOL     OW 9013   3.976   3.907   1.158  0.2212 -0.1246  0.6154
 2312SOL    HW2 9014   4.043   3.854   1.201  0.1281  0.0916  1.0292
 2312SOL    HW3 9015   3.894   3.861   1.176  0.3844 -1.1373 -1.0339
 2312SOL    MW4 9016   3.974   3.894   1.166 -0.0987  0.0847  0.6010
 2313SOL     OW 9017   5.559   0.626   0.874 -0.0939 -0.0992 -0.0593
 2313SOL    HW2 9018   5.501   0.644   0.800 -1.9249 -1.8417  0.8706
 2313SOL    HW3 9019   5.617   0.557   0.843 -0.4805 -0.4205 -0.0811
 2313SOL    MW4 9020   5.559   0.619   0.860  0.0586 -0.2979  0.0802
 2314SOL     OW 9021   2.303   2.690   1.077  0.2969  0.0251 -0.1868
 2314SOL    HW2 9022   2.348   2.638   1.144  0.5601  1.6673  0.9670
 2314SOL    HW3 9023   2.372   2.711   1.014  0.8113  1.0631  0.6749
 2314SOL    MW4 9024   2.318   2.686   1.078  0.1957 -0.2522  0.4324
 2315SOL     OW 9025   6.062   1.960   1.597 -0.0816 -0.0219 -0.0996
 2315SOL    HW2 9026   6.093   1.992   1.513  0.0371  2.5340  0.8195
 2315SOL    HW3 9027   5.996   2.023   1.624 -1.4827 -1.8170  0.9122
 2315SOL    MW4 9028   6.058   1.973   1.590  0.1253  0.9014  0.7229
 2316SOL     OW 9029   3.780   5.161   0.628 -0.0789  0.4451 -0.2849
 2316SOL    HW2 9030   3.702   5.213   0.647 -1.0970 -1.5566  1.5286
 2316SOL    HW3 9031   3.748   5.086   0.578  0.9012  0.2351 -0.6261
 2316SOL    MW4 9032   3.765   5.158   0.624  0.3454 -0.1646  0.1375
 2317SOL     OW 9033   4.072   0.268   0.034 -0.0682 -0.4514 -0.2137
 2317SOL    HW2 9034   4.158   0.254   0.073 -1.4137 -2.3334  2.4024
 2317SOL    HW3 9035   4.056   0.188  -0.017 -0.2844 -0.1518 -0.6131
 2317SOL    MW4 9036   4.081   0.255   0.033 -0.1376  0.2369  0.8011
 2318SOL     OW 9037   4.659   4.796   6.419 -0.0898 -0.5171 -0.3492
 2318SOL    HW2 9038   4.733   4.792   6.480 -0.1983 -0.6320 -0.2246
 2318SOL    HW3 9039   4.604   4.721   6.444 -0.8461  0.2545  0.3323
 2318SOL    MW4 9040   4.662   4.785   6.430  0.0840  0.0407  0.5807
 2319SOL     OW 9041   1.515   5.646   0.583 -0.7340 -0.2344 -0.4175
 2319SOL    HW2 9042   1.471   5.697   0.650 -0.9435  1.1844 -1.5856
 2319SOL    HW3 9043   1.467   5.563   0.580 -0.6515 -0.3676  1.2130
 2319SOL    MW4 9044   1.503   5.641   0.591  0.5420  0.2366  0.5596
 2320SOL     OW 9045   4.047   5.941   0.077  0.5166 -0.5780 -0.2551
 2320SOL    HW2 9046   4.123   5.888   0.103  0.2254 -1.8954 -1.9130
 2320SOL    HW3 9047   3.972   5.889   0.105  0.1406  0.8806  1.6978
 2320SOL    MW4 9048   4.047   5.927   0.084  0.2081  0.2431  0.4132
 2321SOL     OW 9049   1.670   5.279   5.105  0.4107 -0.7671  0.1793
 2321SOL    HW2 9050   1.668   5.374   5.094 -0.9121 -0.9093 -1.1955
 2321SOL    HW3 9051   1.735   5.263   5.173  0.3796  1.1443  0.6861
 2321SOL    MW4 9052   1.678   5.289   5.112 -0.0148 -0.1630 -0.5865
 2322SOL     OW 9053   3.322   0.411   2.082 -0.0269  0.2139 -0.3342
 2322SOL    HW2 9054   3.414   0.395   2.103 -0.2290 -1.6020 -0.6871
 2322SOL    HW3 9055   3.279   0.327   2.098 -1.5259  0.8931 -0.6773
 2322SOL    MW4 9056   3.329   0.398   2.087  0.2150 -0.1062  0.2152
 2323SOL     OW 9057   1.222   1.062   5.146 -0.3276 -0.3922  0.3907
 2323SOL    HW2 9058   1.287   1.105   5.201 -0.3360 -0.2251  0.2701
 2323SOL    HW3 9059   1.166   1.015   5.208  0.2436 -0.9981  0.4524
 2323SOL    MW4 9060   1.223   1.062   5.162 -0.2328  0.0632 -0.1761
 2324SOL     OW 9061   4.271   2.919   0.075  0.5204 -0.4898  0.3995
 2324SOL    HW2 9062   4.212   2.928   0.150 -0.4498 -0.2781 -0.3783
 2324SOL    HW3 9063   4.359   2.925   0.113  0.0466  1.5430  1.2989
 2324SOL    MW4 9064   4.275   2.921   0.090  0.0988  0.2772 -0.1267
 2325SOL     OW 9065   2.646   2.578   3.177 -0.4083 -0.0655  0.0238
 2325SOL    HW2 9066   2.729   2.588   3.224  0.3447  0.0664 -1.2800
 2325SOL    HW3 9067   2.581   2.565   3.246  0.7589 -0.6729  1.0636
 2325SOL    MW4 9068   2.649   2.578   3.192  0.1910 -0.1070  0.4940
 2326SOL     OW 9069   5.875   4.096   1.263  0.4362  0.7302  0.1515
 2326SOL    HW2 9070   5.848   4.025   1.204  0.7874  0.2269  0.5927
 2326SOL    HW3 9071   5.874   4.056   1.350 -0.6565  1.6298  0.5739
 2326SOL    MW4 9072   5.871   4.081   1.266 -0.1560  0.2355  0.3154
 2327SOL     OW 9073   3.279   0.114   4.011  0.3627 -0.3707  0.0759
 2327SOL    HW2 9074   3.241   0.026   4.004  0.2376 -0.4467  1.5332
 2327SOL    HW3 9075   3.373   0.099   4.020  0.1437 -0.5497  2.9468
 2327SOL    MW4 9076   3.286   0.100   4.011 -0.2019 -0.8465 -0.1349
 2328SOL     OW 9077   5.208   2.150   4.651 -1.0161  0.3846 -0.6930
 2328SOL    HW2 9078   5.258   2.152   4.733 -1.2229 -1.2979 -0.5001
 2328SOL    HW3 9079   5.120   2.180   4.676 -0.4295  2.3514 -0.8348
 2328SOL    MW4 9080   5.203   2.154   4.665  0.8202 -0.6259 -0.2341
 2329SOL     OW 9081   5.586   1.655   1.154 -0.3642  0.9164  0.4077
 2329SOL    HW2 9082   5.590   1.608   1.238 -0.8817  0.0515 -0.0456
 2329SOL    HW3 9083   5.513   1.615   1.107  0.3249  0.9462 -0.7282
 2329SOL    MW4 9084   5.577   1.644   1.159 -0.7635 -0.3898 -0.3204
 2330SOL     OW 9085   2.278   2.771   5.391 -0.8237  0.8786 -0.4472
 2330SOL    HW2 9086   2.304   2.836   5.457 -0.1837  0.3553 -0.1608
 2330SOL    HW3 9087   2.261   2.691   5.441 -1.5895  0.8170 -0.7947
 2330SOL    MW4 9088   2.279   2.769   5.406  0.2809 -0.3959  0.5574
 2331SOL     OW 9089   2.347   2.188   6.130  0.0960 -0.4704 -0.3816
 2331SOL    HW2 9090   2.309   2.116   6.079 -0.2033 -0.8464  0.3505
 2331SOL    HW3 9091   2.273   2.246   6.148  0.4246  0.3088 -1.3942
 2331SOL    MW4 9092   2.332   2.186   6.126 -0.1830  0.0297  0.4868
 2332SOL     OW 9093   1.220   5.735   0.467  0.1752 -0.7803 -0.6074
 2332SOL    HW2 9094   1.138   5.779   0.487  1.0129  0.5481  0.0086
 2332SOL    HW3 9095   1.285   5.805   0.460  1.4311 -1.8536 -0.2387
 2332SOL    MW4 9096   1.218   5.750   0.469  0.2288  0.4993  0.3193
 2333SOL     OW 9097   4.956   1.398   3.549 -1.0102 -0.0922 -0.3482
 2333SOL    HW2 9098   4.935   1.486   3.518 -0.2923  0.4067  0.5098
 2333SOL    HW3 9099   5.049   1.388   3.530 -0.3984  0.4414  1.9974
 2333SOL    MW4 9100   4.966   1.408   3.542  0.0991 -0.3580  0.1743
 2334SOL     OW 9101   1.185   2.626   4.423 -0.4208  0.1773 -0.2185
 2334SOL    HW2 9102   1.155   2.657   4.508  1.1133 -0.4004  0.5770
 2334SOL    HW3 9103   1.263   2.575   4.443  0.8578  1.2904 -2.1228
 2334SOL    MW4 9104   1.191   2.623   4.437  0.3938 -0.1378 -0.0715
 2335SOL     OW 9105   3.237   3.107   3.316  0.3699  0.5467 -0.1747
 2335SOL    HW2 9106   3.309   3.170   3.330  0.1684  0.4854  1.2964
 2335SOL    HW3 9107   3.280   3.022   3.314  0.3242  0.4794  1.0679
 2335SOL    MW4 9108   3.252   3.104   3.318 -0.4787  0.2344  0.0570
 2336SOL     OW 9109   4.792   5.903   6.338 -0.1678 -0.0514 -0.5719
 2336SOL    HW2 9110   4.868   5.875   6.389 -0.2153 -1.3819 -1.2164
 2336SOL    HW3 9111   4.815   5.885   6.247 -0.5961  1.1251 -0.9439
 2336SOL    MW4 9112   4.805   5.897   6.333  1.1435 -0.5889  0.0090
 2337SOL     OW 9113   3.783   1.270   1.919 -0.3651 -0.4537 -0.2667
 2337SOL    HW2 9114   3.794   1.271   1.824 -1.6626  0.1836 -0.4351
 2337SOL    HW3 9115   3.793   1.178   1.944  1.7612 -0.4122 -0.7578
 2337SOL    MW4 9116   3.786   1.258   1.910 -0.0701  0.3448  0.6983
 2338SOL     OW 9117   2.800   1.184   6.011 -0.3509 -0.8712  0.8079
 2338SOL    HW2 9118   2.759   1.098   6.004  0.8453 -1.3651 -0.9625
 2338SOL    HW3 9119   2.751   1.229   6.080 -0.8218 -3.0571  1.9847
 2338SOL    MW4 9120   2.788   1.178   6.019 -0.1059  0.1713  0.2011
 2339SOL     OW 9121   0.965   1.937   0.870  0.3264 -0.6957  0.0331
 2339SOL    HW2 9122   0.988   2.021   0.831  1.3890 -0.5163  1.0312
 2339SOL    HW3 9123   0.970   1.951   0.964  1.9591 -2.2377  0.2340
 2339SOL    MW4 9124   0.968   1.950   0.877  0.2928  0.4995 -0.2955
 2340SOL     OW 9125   0.030   1.984   4.819  1.0989  0.3576  0.5043
 2340SOL    HW2 9126  -0.005   1.900   4.790  1.9168  0.5342 -1.0607
 2340SOL    HW3 9127  -0.033   2.049   4.787  2.2196  0.5875 -1.3834
 2340SOL    MW4 9128   0.017   1.982   4.811  0.1192 -0.3992 -0.1446
 2341SOL     OW 9129   4.751   2.055   0.773 -0.4525 -0.6433  0.4192
 2341SOL    HW2 9130   4.843   2.053   0.747 -0.2521 -1.1165  1.1465
 2341SOL    HW3 9131   4.747   2.120   0.843 -0.8011 -0.1245 -0.0756
 2341SOL    MW4 9132   4.763   2.063   0.779  0.0741 -0.2503 -0.1416
 2342SOL     OW 9133   4.693   0.508   2.335 -0.2801  0.3155 -0.1789
 2342SOL    HW2 9134   4.710   0.587   2.385  0.6383  0.4319 -0.6626
 2342SOL    HW3 9135   4.740   0.520   2.253 -0.6657 -0.4496 -0.5259
 2342SOL    MW4 9136   4.701   0.520   2.331 -0.0651  0.2295  0.0762
 2343SOL     OW 9137   5.320   2.997   3.978 -0.2508 -0.2189 -0.4739
 2343SOL    HW2 9138   5.322   3.091   3.996  0.2726 -0.3513  0.1826
 2343SOL    HW3 9139   5.335   2.990   3.884  0.0712  0.3367 -0.4647
 2343SOL    MW4 9140   5.322   3.009   3.968 -0.0313  0.0444 -0.2129
 2344SOL     OW 9141   3.350   5.980   6.195  0.4028 -0.0010  0.4893
 2344SOL    HW2 9142   3.266   6.025   6.200  0.8852  0.8721  1.0567
 2344SOL    HW3 9143   3.380   5.996   6.105  0.3002  0.3277  0.5118
 2344SOL    MW4 9144   3.343   5.988   6.184 -0.2107  0.2412  0.4453
 2345SOL     OW 9145   4.183   1.428   3.777  0.1870  0.3977  0.4540
 2345SOL    HW2 9146   4.229   1.508   3.751  0.3174  0.1892  0.0309
 2345SOL    HW3 9147   4.159   1.443   3.868  0.2537  0.9013  0.3945
 2345SOL    MW4 9148   4.186   1.441   3.785 -0.3530 -0.3655 -0.0758
 2346SOL     OW 9149   2.498   0.744   5.114  0.6735  0.2247 -0.1660
 2346SOL    HW2 9150   2.570   0.690   5.084  0.9805  0.9535 -0.7643
 2346SOL    HW3 9151   2.460   0.695   5.188  1.6780 -0.2234  0.0637
 2346SOL    MW4 9152   2.502   0.730   5.120 -0.3042 -0.4733  0.3394
 2347SOL     OW 9153   5.755   6.126   6.248 -0.4471  0.3024  0.5396
 2347SOL    HW2 9154   5.808   6.128   6.168 -0.9305 -0.0678  0.2061
 2347SOL    HW3 9155   5.790   6.197   6.302  1.4805 -0.9307  1.0196
 2347SOL    MW4 9156   5.767   6.135   6.245 -0.0822  0.2757  0.1865
 2348SOL     OW 9157   1.039   5.269   6.115 -0.1938  0.6298  0.1110
 2348SOL    HW2 9158   1.072   5.271   6.026 -1.9020 -2.4883 -0.7267
 2348SOL    HW3 9159   1.115   5.247   6.169  0.6634  1.6694 -0.6335
 2348SOL    MW4 9160   1.053   5.266   6.111 -0.5990  0.1051  0.1007
 2349SOL     OW 9161   2.030   1.376   0.259  0.0756 -0.2858  0.2719
 2349SOL    HW2 9162   2.113   1.332   0.278 -0.1296  0.6441  4.0195
 2349SOL    HW3 9163   2.055   1.459   0.220  1.0639  0.3333  2.0904
 2349SOL    MW4 9164   2.044   1.381   0.256  0.2874  0.4080  0.6047
 2350SOL     OW 9165   4.000   0.913   0.425 -0.2290  0.3406  1.0334
 2350SOL    HW2 9166   4.018   0.999   0.463  1.3201  1.7081 -2.3595
 2350SOL    HW3 9167   3.995   0.929   0.331  1.0022 -3.4213  0.1533
 2350SOL    MW4 9168   4.002   0.927   0.418 -0.8267 -0.0941  0.0876
 2351SOL     OW 9169   4.999   6.151   4.068  0.1986  0.1453 -0.0043
 2351SOL    HW2 9170   5.088   6.137   4.034  0.6606  2.2230  0.2219
 2351SOL    HW3 9171   4.943   6.146   3.990  0.4358 -1.4639 -0.1107
 2351SOL    MW4 9172   5.004   6.149   4.053  0.1904 -0.1871  0.1761
 2352SOL     OW 9173   3.520   4.125   6.149 -0.1743  0.1480 -0.4386
 2352SOL    HW2 9174   3.461   4.155   6.079 -0.7976 -0.5214 -0.2087
 2352SOL    HW3 9175   3.467   4.129   6.228  0.4243  0.5663 -0.0498
 2352SOL    MW4 9176   3.505   4.130   6.150  0.7786  0.0810 -0.4454
 2353SOL     OW 9177   5.249   4.081   2.297  0.2421  0.1418  0.1804
 2353SOL    HW2 9178   5.293   4.097   2.213 -1.3827 -0.8774 -0.9248
 2353SOL    HW3 9179   5.158   4.106   2.282 -0.2879 -0.9665  1.3357
 2353SOL    MW4 9180   5.243   4.086   2.284  1.0066  0.0748  0.0558
 2354SOL     OW 9181   0.343   2.213   4.052 -0.1307 -0.5374 -0.1385
 2354SOL    HW2 9182   0.401   2.140   4.072 -0.4213 -0.6988  0.1259
 2354SOL    HW3 9183   0.361   2.278   4.121  0.0644 -0.3957 -0.3220
 2354SOL    MW4 9184   0.353   2.212   4.064 -0.2439  0.2433 -0.2531
 2355SOL     OW 9185   0.548   5.051   4.090 -0.2956 -0.5142  0.3801
 2355SOL    HW2 9186   0.585   5.130   4.129  0.3499 -1.0892  0.9587
 2355SOL    HW3 9187   0.587   4.979   4.140 -1.6132 -1.1729  0.5053
 2355SOL    MW4 9188   0.558   5.052   4.102 -0.5710  0.0233  0.0847
 2356SOL     OW 9189   5.910   0.581   1.954  0.0546 -0.5315  0.1232
 2356SOL    HW2 9190   5.864   0.570   1.871  0.4850 -0.7429 -0.0874
 2356SOL    HW3 9191   5.856   0.533   2.018 -0.0018 -0.7981 -0.1255
 2356SOL    MW4 9192   5.897   0.573   1.952 -0.1456  0.4173  0.3049
 2357SOL     OW 9193   4.701   1.540   4.194  0.3915  0.5381 -0.0178
 2357SOL    HW2 9194   4.673   1.626   4.225 -0.3399  0.1636  0.3856
 2357SOL    HW3 9195   4.628   1.508   4.142  0.1890 -0.3040  0.7514
 2357SOL    MW4 9196   4.688   1.547   4.191 -0.8027 -0.2736  0.1945
 2358SOL     OW 9197   2.410   5.370   0.251  0.3081  0.3729 -0.5030
 2358SOL    HW2 9198   2.504   5.384   0.247  0.0659  1.7931 -1.7030
 2358SOL    HW3 9199   2.373   5.455   0.273 -0.5504 -0.8057  3.4736
 2358SOL    MW4 9200   2.417   5.383   0.254  0.3785 -0.1022  0.4981
 2359SOL     OW 9201   6.396   0.455   0.092 -0.2502  0.4383  0.0957
 2359SOL    HW2 9202   6.305   0.426   0.096 -0.2470  0.2048 -1.0920
 2359SOL    HW3 9203   6.390   0.550   0.094 -0.5544  0.4336 -0.4335
 2359SOL    MW4 9204   6.383   0.464   0.093 -0.2881 -0.2042  0.3869
 2360SOL     OW 9205   1.504   2.143   0.730 -0.1908  0.3076 -0.3463
 2360SOL    HW2 9206   1.547   2.123   0.813 -0.7012 -2.4013 -0.6344
 2360SOL    HW3 9207   1.455   2.224   0.747 -0.1093 -0.0527  1.9017
 2360SOL    MW4 9208   1.503   2.151   0.743 -0.3237 -0.4868 -0.5434
 2361SOL     OW 9209   4.945   6.331   1.064  0.3860 -0.2900 -1.2825
 2361SOL    HW2 9210   4.927   6.406   1.008  3.8912  2.0501  0.3538
 2361SOL    HW3 9211   5.027   6.295   1.030  0.1648 -1.7164 -0.3974
 2361SOL    MW4 9212   4.954   6.336   1.052 -0.4040 -0.3305 -0.6649
 2362SOL     OW 9213   1.905   4.424   2.506  0.2580  0.0957  0.2583
 2362SOL    HW2 9214   1.993   4.437   2.472  0.0803  0.0561 -0.2269
 2362SOL    HW3 9215   1.856   4.501   2.476 -0.0235 -0.1806 -0.0063
 2362SOL    MW4 9216   1.910   4.436   2.498 -0.0221 -0.0726 -0.8297
 2363SOL     OW 9217   0.218   1.736   0.358 -0.4523 -0.4040  0.1675
 2363SOL    HW2 9218   0.292   1.729   0.418 -0.6258 -0.5723  0.3625
 2363SOL    HW3 9219   0.141   1.742   0.414 -0.6438 -0.8801 -0.0386
 2363SOL    MW4 9220   0.218   1.736   0.373 -0.2874 -0.2259  0.6978
 2364SOL     OW 9221   6.203   6.056   3.990 -0.0674  0.4076  0.5349
 2364SOL    HW2 9222   6.156   6.136   3.966  0.0440  1.1882  2.6646
 2364SOL    HW3 9223   6.138   5.987   3.982  0.0569  0.5214 -2.1639
 2364SOL    MW4 9224   6.188   6.058   3.986 -0.6490 -0.0447  0.1926
 2365SOL     OW 9225   3.539   2.911   0.804  0.3239  0.9972  0.1730
 2365SOL    HW2 9226   3.545   3.006   0.805  1.5263  0.9537 -0.4802
 2365SOL    HW3 9227   3.624   2.882   0.771  0.9226 -0.3944  2.6546
 2365SOL    MW4 9228   3.551   2.919   0.800  0.0406  0.0786  0.2237
 2366SOL     OW 9229   1.674   4.089   5.772 -0.1771 -0.1697 -0.6267
 2366SOL    HW2 9230   1.641   4.175   5.797 -1.5232 -0.9835  0.5306
 2366SOL    HW3 9231   1.739   4.068   5.840  1.1398  0.4531 -1.6393
 2366SOL    MW4 9232   1.678   4.097   5.784 -0.2053  0.1868  0.4272
 2367SOL     OW 9233   5.384   1.572   0.112 -0.2439 -0.0663 -0.1710
 2367SOL    HW2 9234   5.344   1.498   0.158 -2.2899  0.1139 -1.5221
 2367SOL    HW3 9235   5.389   1.641   0.177  0.5176 -0.9943  0.7789
 2367SOL    MW4 9236   5.379   1.571   0.126  0.0640  0.0959 -0.0149
 2368SOL     OW 9237   5.673   5.798   4.935 -0.3170  0.4661 -0.0121
 2368SOL    HW2 9238   5.680   5.893   4.928 -0.7997  0.5687  0.8558
 2368SOL    HW3 9239   5.579   5.780   4.928 -0.1703 -0.0196 -0.9354
 2368SOL    MW4 9240   5.662   5.808   4.933 -0.3307  0.2495  0.5584
 2369SOL     OW 9241   2.274   1.837   5.107  0.5850  0.3215  0.4836
 2369SOL    HW2 9242   2.294   1.744   5.091  0.0638  0.0688  1.2590
 2369SOL    HW3 9243   2.353   1.870   5.151  0.6764  0.1875  0.4242
 2369SOL    MW4 9244   2.287   1.829   5.111  0.4406  0.1032 -0.3589
 2370SOL     OW 9245   0.459   2.614   4.978  0.6384  0.0348 -0.7314
 2370SOL    HW2 9246   0.530   2.626   5.041 -0.3930  1.5202  0.1971
 2370SOL    HW3 9247   0.431   2.703   4.956 -2.1776 -0.4890  0.3914
 2370SOL    MW4 9248   0.465   2.627   4.983  0.2239 -0.7782 -0.2958
 2371SOL     OW 9249   2.493   5.070   3.238 -0.0547  0.5601 -0.2966
 2371SOL    HW2 9250   2.564   5.048   3.179 -0.2665  0.9210 -0.6996
 2371SOL    HW3 9251   2.479   4.992   3.291  2.3907  1.3162  1.6318
 2371SOL    MW4 9252   2.500   5.057   3.237 -0.3501 -0.4254  0.3959
 2372SOL     OW 9253   1.554   0.858   4.009  0.0347  0.7002  0.7144
 2372SOL    HW2 9254   1.540   0.893   4.097  1.0149 -1.3010  1.7489
 2372SOL    HW3 9255   1.538   0.764   4.018  1.5652  0.2362 -0.9068
 2372SOL    MW4 9256   1.550   0.850   4.022  0.8236 -0.2039  0.0439
 2373SOL     OW 9257   0.781   2.274   1.641 -0.3107 -0.0925  0.4681
 2373SOL    HW2 9258   0.874   2.266   1.618  0.0048  0.6447  1.3923
 2373SOL    HW3 9259   0.761   2.192   1.686  0.1670  0.1172  1.0926
 2373SOL    MW4 9260   0.791   2.262   1.644  0.0716  0.0236  0.2293
 2374SOL     OW 9261   1.392   1.654   2.605  0.3095 -0.3461  0.1164
 2374SOL    HW2 9262   1.354   1.740   2.585  0.7847 -0.0622  0.4100
 2374SOL    HW3 9263   1.440   1.631   2.526  1.4280  0.3588  0.5602
 2374SOL    MW4 9264   1.394   1.662   2.592 -0.2943  0.4166 -0.3033
 2375SOL     OW 9265   0.195   0.153   5.273  0.1540 -0.0462 -0.6587
 2375SOL    HW2 9266   0.213   0.066   5.238  1.9100 -0.5717  1.3923
 2375SOL    HW3 9267   0.249   0.212   5.220  1.0002 -0.5395 -0.3570
 2375SOL    MW4 9268   0.204   0.150   5.261  0.4668 -0.4157 -0.5512
 2376SOL     OW 9269   4.371   5.331   3.950 -0.2171  0.4458 -0.0420
 2376SOL    HW2 9270   4.276   5.337   3.945 -0.1205  2.3570 -0.3825
 2376SOL    HW3 9271   4.399   5.310   3.861 -0.3374 -1.6573  0.3443
 2376SOL    MW4 9272   4.362   5.329   3.938 -0.1714 -0.1924  0.1895
 2377SOL     OW 9273   0.601   1.642   5.590 -0.1990  0.3986 -0.1006
 2377SOL    HW2 9274   0.644   1.673   5.510  1.6906 -0.8282  0.3525
 2377SOL    HW3 9275   0.508   1.654   5.575 -0.0737 -1.5770 -3.3157
 2377SOL    MW4 9276   0.595   1.648   5.578 -0.2143  0.2628  0.4282
 2378SOL     OW 9277   5.021   4.783   5.029  0.4597  0.3127 -0.2735
 2378SOL    HW2 9278   5.089   4.827   4.978  0.1743 -0.7895 -1.6571
 2378SOL    HW3 9279   4.975   4.728   4.966 -0.2644 -0.6903  1.0693
 2378SOL    MW4 9280   5.024   4.781   5.014  0.0265  0.4574 -0.1460
 2379SOL     OW 9281   0.430   1.195   5.586  0.1454  0.7412  0.9786
 2379SOL    HW2 9282   0.341   1.179   5.556  0.5043 -0.8956  0.6960
 2379SOL    HW3 9283   0.480   1.207   5.505  0.6569 -1.1562  0.9701
 2379SOL    MW4 9284   0.425   1.195   5.571 -0.3804 -0.5174 -0.6295
 2380SOL     OW 9285   0.328   1.981   2.936 -0.4157  0.2202  0.1116
 2380SOL    HW2 9286   0.315   1.887   2.926 -0.5681  0.3850 -1.5989
 2380SOL    HW3 9287   0.276   2.020   2.865  0.6609  1.5105 -0.0060
 2380SOL    MW4 9288   0.319   1.974   2.925  0.0521 -0.2631 -0.1257
 2381SOL     OW 9289   0.445   4.194   2.720  0.8641  0.5327  0.1490
 2381SOL    HW2 9290   0.368   4.251   2.719  0.7555  0.3820 -0.6800
 2381SOL    HW3 9291   0.515   4.250   2.755  1.0536  1.5917 -1.7904
 2381SOL    MW4 9292   0.444   4.209   2.724  0.3843 -0.0718 -0.5342
 2382SOL     OW 9293   4.257   2.548   2.125  0.8935 -0.2942  1.0782
 2382SOL    HW2 9294   4.227   2.491   2.055  3.0756  0.6392 -0.7371
 2382SOL    HW3 9295   4.179   2.593   2.155 -0.1228 -0.8625 -0.6292
 2382SOL    MW4 9296   4.243   2.546   2.120 -0.2324 -0.5951  0.5392
 2383SOL     OW 9297   3.463   1.771   1.235  0.0613  0.0251 -0.3008
 2383SOL    HW2 9298   3.400   1.840   1.214  0.6264  0.5793 -0.2029
 2383SOL    HW3 9299   3.455   1.759   1.330  1.1034  1.1092 -0.0559
 2383SOL    MW4 9300   3.453   1.778   1.245  0.1168  0.0468  0.3777
 2384SOL     OW 9301   4.013   6.326   3.034  0.1491 -0.2062 -0.2394
 2384SOL    HW2 9302   3.976   6.362   2.953 -0.6220  2.0723  1.0314
 2384SOL    HW3 9303   4.099   6.293   3.009 -0.0188  0.5626 -1.9559
 2384SOL    MW4 9304   4.019   6.327   3.020 -0.2021 -0.5587  0.2531
 2385SOL     OW 9305   3.843   0.315   6.081  0.2105 -0.2846 -0.0903
 2385SOL    HW2 9306   3.929   0.355   6.094  0.1583  0.0304 -0.6761
 2385SOL    HW3 9307   3.786   0.359   6.145 -0.0602  1.2836 -1.3580
 2385SOL    MW4 9308   3.847   0.326   6.091  0.4897 -1.0985  0.0092
 2386SOL     OW 9309   6.343   1.355   1.626 -0.2712 -0.3655  0.6412
 2386SOL    HW2 9310   6.316   1.350   1.535  2.3816 -0.1586 -0.2510
 2386SOL    HW3 9311   6.362   1.448   1.640  2.1517 -0.7585  0.4156
 2386SOL    MW4 9312   6.342   1.367   1.616  0.1560  0.0435 -0.5685
 2387SOL     OW 9313   1.375   4.640   1.659 -0.6027 -0.7835 -0.8178
 2387SOL    HW2 9314   1.464   4.605   1.662 -0.1451  0.2993 -1.2822
 2387SOL    HW3 9315   1.320   4.567   1.688  0.4446 -1.3949 -0.2991
 2387SOL    MW4 9316   1.380   4.626   1.663  0.2281 -0.8778 -0.5150
 2388SOL     OW 9317   0.988   0.468   4.208  0.4727 -0.0364  0.2450
 2388SOL    HW2 9318   1.083   0.476   4.223  0.5036 -0.1404  0.1026
 2388SOL    HW3 9319   0.979   0.390   4.153  0.0715 -1.7411  2.5923
 2388SOL    MW4 9320   0.999   0.459   4.203 -0.0679 -0.0090 -0.3735
 2389SOL     OW 9321   5.588   1.883   5.008 -0.3256 -0.2828 -0.3459
 2389SOL    HW2 9322   5.532   1.805   5.010 -0.6533 -0.0315  1.0936
 2389SOL    HW3 9323   5.556   1.937   5.080 -0.0234  1.1435 -1.2477
 2389SOL    MW4 9324   5.576   1.880   5.017 -0.3353 -0.2169 -0.2892
 2390SOL     OW 9325   5.055   6.089   6.045 -0.0016 -0.3356 -0.1453
 2390SOL    HW2 9326   5.056   6.097   6.140  0.0016 -2.9244  0.1391
 2390SOL    HW3 9327   5.125   6.148   6.016  0.9655 -0.5446  1.5796
 2390SOL    MW4 9328   5.065   6.098   6.054 -0.2137  0.3317  0.0126
 2391SOL     OW 9329   0.540   4.298   3.302 -0.7596  0.5986 -0.5780
 2391SOL    HW2 9330   0.548   4.226   3.364 -0.5425  1.9142  1.0124
 2391SOL    HW3 9331   0.573   4.263   3.220 -1.0787 -1.2277  0.0302
 2391SOL    MW4 9332   0.545   4.284   3.300  0.4605  0.1845 -0.6363
 2392SOL     OW 9333   2.176   4.466   4.549  0.4069  0.4444  0.2180
 2392SOL    HW2 9334   2.233   4.402   4.506  0.4717 -0.6807  1.8789
 2392SOL    HW3 9335   2.180   4.443   4.642 -2.1672  0.8088  0.4837
 2392SOL    MW4 9336   2.184   4.455   4.555 -0.1075 -0.1805  0.3756
 2393SOL     OW 9337   5.494   3.234   0.638  0.7134  0.4131 -0.0124
 2393SOL    HW2 9338   5.417   3.199   0.683  1.1309 -1.3831 -0.6384
 2393SOL    HW3 9339   5.556   3.253   0.708  0.6626 -0.5927  0.3126
 2393SOL    MW4 9340   5.492   3.232   0.653  0.3634  0.1830  0.2394
 2394SOL     OW 9341   4.741   0.956   3.229 -0.1457  0.6086  0.0720
 2394SOL    HW2 9342   4.714   0.888   3.291  1.7300 -1.8811 -1.6659
 2394SOL    HW3 9343   4.816   0.998   3.270  0.3695 -0.2341  0.0015
 2394SOL    MW4 9344   4.747   0.952   3.243  0.2676  0.1577 -0.4668
 2395SOL     OW 9345   2.844   3.077   5.484 -0.2186  0.4939 -0.0640
 2395SOL    HW2 9346   2.766   3.029   5.456  0.1553 -0.3808  0.3663
 2395SOL    HW3 9347   2.897   3.085   5.405 -0.4910  0.6219 -0.2374
 2395SOL    MW4 9348   2.841   3.072   5.470  0.5988 -0.0821 -0.2265
 2396SOL     OW 9349   0.308   4.234   5.882 -0.2710 -0.6822 -0.1747
 2396SOL    HW2 9350   0.249   4.166   5.914 -0.0840 -0.2215  1.1967
 2396SOL    HW3 9351   0.385   4.227   5.938 -0.7414  1.4483  0.7922
 2396SOL    MW4 9352   0.311   4.224   5.893 -0.0975  0.2030  0.2909
 2397SOL     OW 9353   6.227   3.454   0.535  0.1791 -0.5157  0.1862
 2397SOL    HW2 9354   6.175   3.463   0.456  1.1393 -0.4289 -0.4563
 2397SOL    HW3 9355   6.315   3.484   0.510 -0.1627  2.5015  2.1024
 2397SOL    MW4 9356   6.232   3.459   0.521  0.0862  0.5509  0.1252
 2398SOL     OW 9357   6.393   4.397   3.062  0.5370  0.0434 -0.6414
 2398SOL    HW2 9358   6.463   4.335   3.045 -0.1555 -1.0402  0.3106
 2398SOL    HW3 9359   6.383   4.398   3.157 -1.7988 -1.1146 -0.7884
 2398SOL    MW4 9360   6.401   4.389   3.072  0.0424  0.1031 -0.1462
 2399SOL     OW 9361   3.852   4.216   5.488  0.2297  0.0140  0.3366
 2399SOL    HW2 9362   3.889   4.201   5.401  1.7609  0.6926  0.8406
 2399SOL    HW3 9363   3.783   4.281   5.474  0.2750 -0.0888 -0.4017
 2399SOL    MW4 9364   3.848   4.222   5.475  0.0017  0.1455  0.2854
 2400SOL     OW 9365   4.743   4.209   0.302 -0.0072 -0.2620  0.3916
 2400SOL    HW2 9366   4.739   4.292   0.255  0.0425 -0.1072  0.6631
 2400SOL    HW3 9367   4.718   4.230   0.392  2.7664 -0.0217  1.1772
 2400SOL    MW4 9368   4.739   4.222   0.308  0.7128  0.0782 -0.4618
 2401SOL     OW 9369   4.567   0.268   4.369 -0.4475  0.0817  0.5758
 2401SOL    HW2 9370   4.561   0.304   4.280 -0.0394 -0.7005  0.2211
 2401SOL    HW3 9371   4.480   0.231   4.386 -0.6126  0.4818  0.6186
 2401SOL    MW4 9372   4.555   0.268   4.359  0.2370  0.2398  0.0478
 2402SOL     OW 9373   3.425   2.000   0.560  0.1239 -0.2627 -0.4022
 2402SOL    HW2 9374   3.342   2.016   0.604  0.8256 -1.5774  1.5531
 2402SOL    HW3 9375   3.403   1.939   0.489 -0.8674  1.0861 -1.3129
 2402SOL    MW4 9376   3.411   1.994   0.556 -0.7227  0.1358  0.0387
 2403SOL     OW 9377   5.526   4.241   2.763 -0.8285  0.0759  0.0232
 2403SOL    HW2 9378   5.519   4.217   2.855  0.2516 -0.3494  0.0094
 2403SOL    HW3 9379   5.576   4.323   2.764 -1.1102  0.2498 -0.1640
 2403SOL    MW4 9380   5.532   4.249   2.775  0.3178 -0.3165  0.3610
 2404SOL     OW 9381   5.079   4.643   5.838  0.3546 -0.0217 -0.4042
 2404SOL    HW2 9382   5.097   4.639   5.932  0.6222  1.5721 -0.3585
 2404SOL    HW3 9383   5.157   4.682   5.800 -0.3708  0.8666 -1.0576
 2404SOL    MW4 9384   5.091   4.648   5.846 -0.2388  0.2558 -0.9157
 2405SOL     OW 9385   5.320   3.591   3.180 -0.4428  0.3196 -0.1505
 2405SOL    HW2 9386   5.394   3.574   3.121  0.5405  1.8900  0.5580
 2405SOL    HW3 9387   5.249   3.539   3.145  1.5289 -3.0097  0.3415
 2405SOL    MW4 9388   5.321   3.582   3.168  0.2249  0.3669 -0.4371
 2406SOL     OW 9389   0.509   3.897   5.156 -0.6595 -0.1701  0.3259
 2406SOL    HW2 9390   0.414   3.884   5.160 -0.7160 -0.2398 -0.8670
 2406SOL    HW3 9391   0.545   3.809   5.149 -0.5685 -0.0925 -0.2000
 2406SOL    MW4 9392   0.501   3.884   5.156  0.4496 -0.6028  0.1779
 2407SOL     OW 9393   4.727   0.378   2.807  0.4468 -0.3619 -0.7104
 2407SOL    HW2 9394   4.704   0.461   2.848  2.4922 -0.0314 -0.0950
 2407SOL    HW3 9395   4.658   0.363   2.742 -2.5833 -0.6050  2.3167
 2407SOL    MW4 9396   4.715   0.387   2.804 -0.1089 -0.6027 -0.0952
 2408SOL     OW 9397   6.383   4.145   2.747 -0.0880 -0.6668  0.3566
 2408SOL    HW2 9398   6.301   4.192   2.730 -0.1864 -0.0446  2.2568
 2408SOL    HW3 9399   6.372   4.061   2.703  0.5053  1.3023 -4.1069
 2408SOL    MW4 9400   6.371   4.140   2.739  0.4038  0.2859  0.1098
 2409SOL     OW 9401   1.497   0.952   4.281 -0.3754  0.0925  0.2573
 2409SOL    HW2 9402   1.565   1.019   4.283 -0.0088 -0.2275 -0.8159
 2409SOL    HW3 9403   1.535   0.878   4.328  0.3106 -0.3219 -0.8952
 2409SOL    MW4 9404   1.511   0.951   4.287  0.1578  0.0129  0.6434
 2410SOL     OW 9405   3.351   0.302   1.098  0.3902  0.4799  0.1810
 2410SOL    HW2 9406   3.274   0.246   1.086  0.7414  0.0339 -0.0226
 2410SOL    HW3 9407   3.384   0.315   1.010 -0.9297  2.8199 -0.0412
 2410SOL    MW4 9408   3.345   0.296   1.085 -0.1346  0.1028  0.4241
 2411SOL     OW 9409   6.221   4.450   1.173 -0.3232 -0.5512 -0.1813
 2411SOL    HW2 9410   6.132   4.483   1.157  0.0497  0.3735 -0.4256
 2411SOL    HW3 9411   6.277   4.510   1.124  0.3719 -1.8374 -1.0139
 2411SOL    MW4 9412   6.216   4.462   1.164 -0.3230  0.3712  1.0402
 2412SOL     OW 9413   2.556   5.924   6.317  0.4633  0.6082 -0.6511
 2412SOL    HW2 9414   2.581   5.983   6.388  0.3000  1.4438 -1.2759
 2412SOL    HW3 9415   2.581   5.837   6.348 -1.3115  0.6977  1.2360
 2412SOL    MW4 9416   2.563   5.920   6.330 -0.4488 -0.4566 -0.4398
 2413SOL     OW 9417   3.962   5.476   3.735 -0.5057 -0.0531  0.1730
 2413SOL    HW2 9418   3.898   5.411   3.708 -0.8112  0.3396 -0.0538
 2413SOL    HW3 9419   4.037   5.463   3.677 -0.3054 -0.6333  0.5590
 2413SOL    MW4 9420   3.963   5.466   3.724 -0.0124  0.5434  0.5461
 2414SOL     OW 9421   5.618   6.411   5.751  0.0060 -0.0486  0.3951
 2414SOL    HW2 9422   5.523   6.400   5.762 -0.3041  1.0484 -0.9162
 2414SOL    HW3 9423   5.656   6.341   5.803 -1.6287 -3.2985 -2.3535
 2414SOL    MW4 9424   5.610   6.400   5.759 -0.2143 -0.0498  0.3091
 2415SOL     OW 9425   1.839   1.738   2.385  0.5566 -0.1711  0.0700
 2415SOL    HW2 9426   1.917   1.790   2.406 -0.5442  1.4693  0.2240
 2415SOL    HW3 9427   1.816   1.765   2.296 -0.0493 -0.3909  0.1598
 2415SOL    MW4 9428   1.846   1.748   2.376 -0.1570 -0.0152 -0.0938
 2416SOL     OW 9429   3.382   1.479   0.655  0.2454  0.3895  1.0460
 2416SOL    HW2 9430   3.387   1.436   0.740  0.1349  0.4840  1.1004
 2416SOL    HW3 9431   3.367   1.407   0.593  0.2193  0.3324  1.1185
 2416SOL    MW4 9432   3.381   1.464   0.658  0.2591  0.3544  0.3571
 2417SOL     OW 9433   3.166   1.935   3.555 -0.7321 -0.4220 -0.2194
 2417SOL    HW2 9434   3.078   1.901   3.542 -0.9191 -0.9812  2.0839
 2417SOL    HW3 9435   3.219   1.858   3.574  0.4551 -0.1785 -2.2393
 2417SOL    MW4 9436   3.161   1.920   3.556  0.4605 -0.1231 -0.2749
 2418SOL     OW 9437   4.760   5.899   1.187 -0.7862  0.5507 -0.2530
 2418SOL    HW2 9438   4.812   5.821   1.205  0.0366  1.4680  1.6087
 2418SOL    HW3 9439   4.708   5.876   1.110 -0.4101 -1.7411  0.1018
 2418SOL    MW4 9440   4.760   5.886   1.179 -0.1708  0.5438 -0.0380
 2419SOL     OW 9441   4.886   4.389   2.781  0.2407 -0.3571 -0.0718
 2419SOL    HW2 9442   4.925   4.388   2.868 -0.8435  0.2326  0.4474
 2419SOL    HW3 9443   4.943   4.333   2.728 -0.1148 -2.3076  1.4782
 2419SOL    MW4 9444   4.899   4.381   2.785  0.3195 -0.2712  1.1192
 2420SOL     OW 9445   3.065   2.470   0.637 -0.0880 -0.3064  0.0351
 2420SOL    HW2 9446   3.040   2.479   0.729  0.4145 -0.7277  0.2146
 2420SOL    HW3 9447   3.024   2.545   0.594 -1.2738 -0.7243  0.3997
 2420SOL    MW4 9448   3.056   2.481   0.643  0.3745 -0.1388  0.3835
 2421SOL     OW 9449   4.166   0.124   5.909  0.3178  0.1936  0.3419
 2421SOL    HW2 9450   4.072   0.110   5.897  0.7137 -1.4504 -1.2981
 2421SOL    HW3 9451   4.187   0.197   5.851  0.5400 -1.4940 -1.8201
 2421SOL    MW4 9452   4.156   0.132   5.900  0.3006 -0.0623  0.0754
 2422SOL     OW 9453   5.169   0.799   0.527  0.0533 -0.3347  0.5580
 2422SOL    HW2 9454   5.180   0.739   0.453  0.6795 -0.0039  0.3769
 2422SOL    HW3 9455   5.079   0.784   0.556 -0.5580  0.2604 -0.9113
 2422SOL    MW4 9456   5.158   0.789   0.521 -0.4719 -0.2027 -0.6405
 2423SOL     OW 9457   3.633   0.906   6.312 -0.5321 -0.0199  0.6647
 2423SOL    HW2 9458   3.556   0.873   6.266  0.5935  1.0508 -2.1706
 2423SOL    HW3 9459   3.701   0.840   6.296 -0.2481  0.1090  1.2974
 2423SOL    MW4 9460   3.632   0.893   6.304  0.3993  0.1888 -0.4013
 2424SOL     OW 9461   3.239   3.072   1.496 -0.1716  0.0419  0.7652
 2424SOL    HW2 9462   3.315   3.070   1.555 -0.6849  0.4234  1.4518
 2424SOL    HW3 9463   3.255   3.148   1.440 -0.4929  0.6845  1.5284
 2424SOL    MW4 9464   3.251   3.082   1.496  0.4835  0.5796 -0.2702
 2425SOL     OW 9465   2.285   0.427   1.521  0.8815 -0.0682  0.0739
 2425SOL    HW2 9466   2.334   0.350   1.550 -1.6349 -2.2424 -1.0548
 2425SOL    HW3 9467   2.194   0.409   1.545 -0.2861  1.1071 -2.9611
 2425SOL    MW4 9468   2.279   0.415   1.528 -0.0962 -0.5730 -0.2246
 2426SOL     OW 9469   1.975   0.790   5.520  0.4050 -0.3276 -0.0755
 2426SOL    HW2 9470   2.057   0.829   5.549  0.5961 -0.6870 -0.1209
 2426SOL    HW3 9471   1.958   0.721   5.585  0.6765 -0.9354 -0.6374
 2426SOL    MW4 9472   1.983   0.786   5.533  0.6150 -0.1413  0.1820
 2427SOL     OW 9473   0.258   1.943   1.142 -0.4474 -0.2178  0.2215
 2427SOL    HW2 9474   0.348   1.954   1.111 -0.3359  0.2169  0.6953
 2427SOL    HW3 9475   0.235   1.853   1.117  0.4171 -0.6220  0.8367
 2427SOL    MW4 9476   0.267   1.932   1.135  0.8795  0.3860  0.3447
 2428SOL     OW 9477   4.799   3.250   2.704  0.3368  0.0398 -0.0869
 2428SOL    HW2 9478   4.870   3.207   2.657  0.0549  0.2519 -0.7213
 2428SOL    HW3 9479   4.720   3.204   2.675  0.2673 -0.6505  1.1297
 2428SOL    MW4 9480   4.798   3.238   2.694  0.2732  0.3455  0.7788
 2429SOL     OW 9481   1.615   4.692   5.054 -0.2323 -0.3953  0.1305
 2429SOL    HW2 9482   1.628   4.747   4.977  2.9874  0.0902  0.9040
 2429SOL    HW3 9483   1.634   4.749   5.128 -0.4452 -1.5930  1.1413
 2429SOL    MW4 9484   1.619   4.707   5.053 -0.1131 -0.4997 -0.0447
 2430SOL     OW 9485   2.881   0.130   3.384  0.5313  0.2096 -0.4452
 2430SOL    HW2 9486   2.960   0.106   3.434  0.4356  2.5209  0.9637
 2430SOL    HW3 9487   2.810   0.086   3.430  0.7756 -0.2550 -0.5025
 2430SOL    MW4 9488   2.882   0.121   3.397  0.0230  0.2859 -0.3787
 2431SOL     OW 9489   2.431   2.508   1.253 -0.2649  0.1164  0.3308
 2431SOL    HW2 9490   2.500   2.460   1.207 -1.4107 -0.8062 -0.4918
 2431SOL    HW3 9491   2.360   2.445   1.262 -0.6382  0.7381  2.0853
 2431SOL    MW4 9492   2.431   2.494   1.248  0.6484 -0.8206  0.2985
 2432SOL     OW 9493   2.024   2.565   3.174  0.0111 -0.5653 -0.1869
 2432SOL    HW2 9494   1.965   2.608   3.111  0.4830  0.9517  0.3549
 2432SOL    HW3 9495   1.988   2.477   3.184 -2.3180  0.3508  0.2721
 2432SOL    MW4 9496   2.011   2.559   3.167 -0.1444  0.3559  0.3820
 2433SOL     OW 9497   0.402   5.282   0.066  0.1119  0.1521  0.1776
 2433SOL    HW2 9498   0.492   5.248   0.064  0.0320 -0.0274 -0.6752
 2433SOL    HW3 9499   0.402   5.356   0.006 -0.7496 -1.0303 -1.3749
 2433SOL    MW4 9500   0.414   5.287   0.058 -0.3466  0.1647  0.3686
 2434SOL     OW 9501   2.505   0.769   1.983  0.0190  0.2376 -0.2269
 2434SOL    HW2 9502   2.510   0.862   1.963 -3.1011  0.1625 -1.9606
 2434SOL    HW3 9503   2.528   0.725   1.901  0.3727 -0.5145  0.2585
 2434SOL    MW4 9504   2.509   0.775   1.970  0.0685  0.6610  0.2850
 2435SOL     OW 9505   5.821   3.675   4.468 -0.2862 -0.5960 -0.0726
 2435SOL    HW2 9506   5.863   3.657   4.384 -0.4657 -3.6749  0.3591
 2435SOL    HW3 9507   5.731   3.695   4.446  0.0173  0.1516 -0.6823
 2435SOL    MW4 9508   5.815   3.675   4.454 -0.0764  0.0312  0.3851
 2436SOL     OW 9509   3.733   6.436   6.280  0.4778  0.0531  0.2287
 2436SOL    HW2 9510   3.699   6.390   6.203 -0.0342 -0.2262  0.6116
 2436SOL    HW3 9511   3.756   6.366   6.342  1.5626  0.2486  0.0641
 2436SOL    MW4 9512   3.731   6.421   6.278 -0.3598 -0.1377 -0.2327
 2437SOL     OW 9513   1.142   4.211   2.349 -0.0957  0.0213 -0.4958
 2437SOL    HW2 9514   1.131   4.118   2.372 -1.5312  0.2288 -0.2272
 2437SOL    HW3 9515   1.079   4.226   2.278 -1.5306  1.2828  0.9594
 2437SOL    MW4 9516   1.132   4.200   2.343  0.2267  0.1802  0.6343
 2438SOL     OW 9517   0.832   1.547   3.712 -0.6030  0.5520 -0.2783
 2438SOL    HW2 9518   0.787   1.610   3.769  0.8501  1.2875  0.0922
 2438SOL    HW3 9519   0.888   1.497   3.771 -0.7096 -0.1674 -0.7740
 2438SOL    MW4 9520   0.833   1.549   3.728  0.3568 -0.9462 -0.1583
 2439SOL     OW 9521   2.181   1.683   3.176  0.5295 -0.4140  0.4444
 2439SOL    HW2 9522   2.118   1.611   3.166  1.3427 -0.9649 -1.0087
 2439SOL    HW3 9523   2.195   1.715   3.087  1.4825  0.4288  0.8769
 2439SOL    MW4 9524   2.174   1.678   3.163  0.0687  1.1034  0.2861
 2440SOL     OW 9525   4.673   2.434   1.834 -0.1853 -0.0489  0.6577
 2440SOL    HW2 9526   4.601   2.444   1.771  0.8737 -0.7823 -0.7168
 2440SOL    HW3 9527   4.629   2.408   1.915 -1.7251  2.2867  0.6803
 2440SOL    MW4 9528   4.657   2.432   1.836 -0.0684  0.0655  0.8005
 2441SOL     OW 9529   3.106   5.738   6.388  0.2146 -0.4060  0.1376
 2441SOL    HW2 9530   3.154   5.750   6.470 -1.3543 -0.4098  1.0997
 2441SOL    HW3 9531   3.174   5.733   6.320  1.5044  2.3192  1.0674
 2441SOL    MW4 9532   3.122   5.739   6.390  0.2352  0.6303 -0.2092
 2442SOL     OW 9533   1.903   6.463   6.258 -0.4019  0.1159 -0.1600
 2442SOL    HW2 9534   1.823   6.412   6.245 -0.0262 -0.2326 -1.2274
 2442SOL    HW3 9535   1.935   6.481   6.169 -0.2702  1.8225  0.2003
 2442SOL    MW4 9536   1.897   6.458   6.245 -0.3733  1.0301 -0.2769
 2443SOL     OW 9537   4.114   4.203   1.245  0.1063 -0.0975 -0.0715
 2443SOL    HW2 9538   4.019   4.214   1.243  0.2735  2.3411  1.3974
 2443SOL    HW3 9539   4.131   4.157   1.327  0.2792  1.3500  0.7352
 2443SOL    MW4 9540   4.104   4.198   1.255  0.3318  0.8138 -0.0355
 2444SOL     OW 9541   2.419   4.459   2.875 -0.6181 -0.0671  0.3890
 2444SOL    HW2 9542   2.405   4.388   2.812 -2.6502  0.1548  0.5183
 2444SOL    HW3 9543   2.434   4.537   2.821 -0.5816 -0.1955  0.2128
 2444SOL    MW4 9544   2.419   4.460   2.860  0.1582 -0.3008  0.2218
 2445SOL     OW 9545   4.846   5.540   2.231  0.3551  0.1873 -0.0969
 2445SOL    HW2 9546   4.753   5.563   2.235  0.6565  1.3566  0.6204
 2445SOL    HW3 9547   4.851   5.473   2.163 -0.9572  0.3772 -0.4078
 2445SOL    MW4 9548   4.834   5.534   2.223 -0.2645  0.3820 -0.0779
 2446SOL     OW 9549   0.379   1.158   6.311  0.0893  0.5284  0.3850
 2446SOL    HW2 9550   0.371   1.066   6.286  0.1750  0.6000  0.0883
 2446SOL    HW3 9551   0.291   1.183   6.342 -0.4772  0.8962 -1.4266
 2446SOL    MW4 9552   0.366   1.149   6.312 -0.3397 -0.1413  0.2373
 2447SOL     OW 9553   0.007   0.779   3.600 -0.4435 -0.1986  0.2644
 2447SOL    HW2 9554  -0.078   0.809   3.632  0.0216  0.5004  0.8772
 2447SOL    HW3 9555   0.012   0.687   3.629  0.2041  0.5608  2.8297
 2447SOL    MW4 9556  -0.003   0.771   3.608 -0.0146  0.2457 -0.4210
 2448SOL     OW 9557   2.889   5.270   4.408 -0.1403 -0.5387  0.4882
 2448SOL    HW2 9558   2.797   5.287   4.386  0.2210  0.0165 -0.6746
 2448SOL    HW3 9559   2.895   5.175   4.416 -0.5911 -0.6683 -0.5536
 2448SOL    MW4 9560   2.878   5.260   4.406 -0.2736  0.0012  0.1174
 2449SOL     OW 9561   1.648   1.357   4.809  0.1838  0.5776  0.4139
 2449SOL    HW2 9562   1.562   1.399   4.803 -0.4604 -0.7520 -0.4871
 2449SOL    HW3 9563   1.659   1.336   4.901 -1.0388 -0.3035  0.3857
 2449SOL    MW4 9564   1.638   1.359   4.820 -0.3061  0.3098  0.5403
 2450SOL     OW 9565   1.460   3.424   2.212  0.3292  0.1438  0.3575
 2450SOL    HW2 9566   1.484   3.455   2.124  1.5303  0.3022  0.7190
 2450SOL    HW3 9567   1.402   3.350   2.196 -0.2397  0.7629 -0.5526
 2450SOL    MW4 9568   1.456   3.418   2.198 -0.0927 -0.1170  0.7375
 2451SOL     OW 9569   0.592   1.934   6.347  0.0621  0.0254  0.0765
 2451SOL    HW2 9570   0.520   1.882   6.313  0.3285 -0.0899 -0.3189
 2451SOL    HW3 9571   0.599   1.908   6.439 -1.0632  0.7978  0.4062
 2451SOL    MW4 9572   0.584   1.924   6.355 -0.2584 -0.7862  0.3404
 2452SOL     OW 9573   3.737   1.079   0.627 -0.3485  0.4366 -0.1889
 2452SOL    HW2 9574   3.793   1.011   0.665 -0.9756 -0.3522 -0.6377
 2452SOL    HW3 9575   3.659   1.080   0.683 -0.8364 -0.0290 -0.8456
 2452SOL    MW4 9576   3.734   1.070   0.639 -0.1683  0.6542 -0.3800
 2453SOL     OW 9577   2.082   0.456   4.319 -0.4218  0.0432  0.2302
 2453SOL    HW2 9578   2.048   0.367   4.314 -0.7716  0.0153  2.3205
 2453SOL    HW3 9579   2.006   0.511   4.295 -0.4328 -0.1769 -0.2581
 2453SOL    MW4 9580   2.067   0.452   4.315 -0.1967 -0.2813  0.0965
 2454SOL     OW 9581   2.539   4.801   0.905 -0.4445 -0.3352  0.1863
 2454SOL    HW2 9582   2.500   4.887   0.919  1.5030  0.9968 -1.7107
 2454SOL    HW3 9583   2.605   4.793   0.974 -1.1006 -0.6230  0.7815
 2454SOL    MW4 9584   2.543   4.812   0.916  0.2601  0.1381  0.3638
 2455SOL     OW 9585   6.198   6.356   3.689  1.4493  0.1649  0.1758
 2455SOL    HW2 9586   6.125   6.339   3.749  0.8419  0.4172 -0.4835
 2455SOL    HW3 9587   6.163   6.418   3.626  1.0321 -2.4626 -2.3669
 2455SOL    MW4 9588   6.184   6.362   3.689 -0.2271  0.5508 -0.0712
 2456SOL     OW 9589   0.056   1.044   2.418  0.2954  0.2468  0.0499
 2456SOL    HW2 9590   0.045   1.013   2.328 -0.1436 -0.8045  0.4514
 2456SOL    HW3 9591  -0.028   1.027   2.461 -0.0957  2.3168  0.2394
 2456SOL    MW4 9592   0.044   1.038   2.412 -0.1322 -0.4738 -0.1490
 2457SOL     OW 9593   2.695   2.668   4.994  0.0772 -0.6449 -0.4570
 2457SOL    HW2 9594   2.615   2.687   5.043  0.2067  0.5392 -0.6584
 2457SOL    HW3 9595   2.750   2.618   5.054 -0.3279 -0.4095  0.1160
 2457SOL    MW4 9596   2.692   2.664   5.008  0.1935  0.1142 -0.8303
 2458SOL     OW 9597   4.060   4.965   5.717 -0.2890  0.4360  0.0823
 2458SOL    HW2 9598   4.083   4.952   5.808 -0.4394  0.8398  0.1812
 2458SOL    HW3 9599   4.002   4.891   5.696 -1.8804  1.3788  0.8956
 2458SOL    MW4 9600   4.055   4.953   5.726  0.1010  0.2554 -0.2387
 2459SOL     OW 9601   4.574   3.717   5.052  0.0029  0.0992 -0.0818
 2459SOL    HW2 9602   4.530   3.713   4.967  1.5982 -1.3535 -0.9089
 2459SOL    HW3 9603   4.665   3.695   5.032  0.5527  0.3643  1.9371
 2459SOL    MW4 9604   4.581   3.714   5.038  0.0029  0.4365  0.3339
 2460SOL     OW 9605   2.866   2.112   1.297  0.8921 -0.2408 -0.2688
 2460SOL    HW2 9606   2.868   2.095   1.391 -0.6276 -0.0180 -0.1578
 2460SOL    HW3 9607   2.830   2.201   1.289  1.9192  0.1329 -1.0444
 2460SOL    MW4 9608   2.861   2.122   1.308 -0.4041  0.3029  0.2211
 2461SOL     OW 9609   4.307   3.866   2.343 -0.0132  0.1483 -0.1238
 2461SOL    HW2 9610   4.288   3.772   2.345  0.9615 -0.0808 -0.6596
 2461SOL    HW3 9611   4.324   3.889   2.435  2.7706 -0.9073 -0.2504
 2461SOL    MW4 9612   4.307   3.857   2.356 -0.2076  0.7791 -0.0182
 2462SOL     OW 9613   5.237   6.097   1.990  0.7094  0.2853  0.2164
 2462SOL    HW2 9614   5.223   6.071   1.899 -0.6280  1.7611 -0.0261
 2462SOL    HW3 9615   5.152   6.129   2.020  1.1010 -0.2107  2.0287
 2462SOL    MW4 9616   5.224   6.098   1.982  0.0278  0.1712 -0.0551
 2463SOL     OW 9617   2.475   6.052   0.867  0.1039 -0.7671  0.7220
 2463SOL    HW2 9618   2.429   6.053   0.951 -1.4299  0.3625 -0.0758
 2463SOL    HW3 9619   2.427   6.115   0.813  2.3470  0.1121 -0.3345
 2463SOL    MW4 9620   2.462   6.060   0.871 -0.6514  0.5805  0.3640
 2464SOL     OW 9621   4.979   6.372   2.275 -0.1932 -0.4869 -0.5360
 2464SOL    HW2 9622   4.929   6.351   2.353 -0.5044 -1.6878 -1.0267
 2464SOL    HW3 9623   5.070   6.375   2.304 -0.1403 -2.3836 -0.3500
 2464SOL    MW4 9624   4.984   6.370   2.289 -0.4355 -0.4660  0.2775
 2465SOL     OW 9625   2.717   1.942   5.798 -0.1240 -0.3264  0.1328
 2465SOL    HW2 9626   2.759   1.864   5.761 -0.2691 -0.1545 -0.4070
 2465SOL    HW3 9627   2.788   2.005   5.809 -0.2681  0.1020 -1.1410
 2465SOL    MW4 9628   2.732   1.940   5.794  0.6378  0.0330  0.1978
 2466SOL     OW 9629   0.538   4.901   4.628  0.3354 -0.1703  0.7003
 2466SOL    HW2 9630   0.552   4.859   4.713 -0.1059  1.7181  1.7615
 2466SOL    HW3 9631   0.502   4.987   4.649 -1.7161 -0.3928 -1.4847
 2466SOL    MW4 9632   0.535   4.907   4.642  0.1931 -0.2606 -0.2728
 2467SOL     OW 9633   4.251   1.123   3.945  0.0820 -0.3524 -0.0824
 2467SOL    HW2 9634   4.285   1.171   4.021 -1.0817  2.3894 -1.1589
 2467SOL    HW3 9635   4.326   1.114   3.887  0.4279 -0.3029  0.3463
 2467SOL    MW4 9636   4.265   1.128   3.948 -0.1328  0.9510 -0.1446
 2468SOL     OW 9637   1.457   5.603   4.233 -0.8178  0.1720  0.1759
 2468SOL    HW2 9638   1.421   5.685   4.267 -2.9215 -1.2654  1.6728
 2468SOL    HW3 9639   1.481   5.624   4.142 -1.1699  2.4525  0.5293
 2468SOL    MW4 9640   1.455   5.617   4.225 -0.9841  0.0296 -0.0168
 2469SOL     OW 9641   5.618   1.360   1.014 -0.0563 -0.2345 -0.7491
 2469SOL    HW2 9642   5.633   1.391   1.104 -0.9996  2.2040 -1.3314
 2469SOL    HW3 9643   5.648   1.269   1.014 -1.5053 -0.8498  2.4484
 2469SOL    MW4 9644   5.624   1.352   1.026  0.2314  0.2723  0.3007
 2470SOL     OW 9645   5.219   1.171   0.447  0.3888 -0.2015 -0.1046
 2470SOL    HW2 9646   5.138   1.186   0.496  0.5156  0.8757 -0.2089
 2470SOL    HW3 9647   5.197   1.102   0.385  0.2658 -1.7215  1.5394
 2470SOL    MW4 9648   5.206   1.164   0.445  0.0591  0.0051  0.1247
 2471SOL     OW 9649   4.538   1.417   3.653 -0.1300  0.2945 -0.3663
 2471SOL    HW2 9650   4.620   1.408   3.701 -0.3623 -2.5325 -0.3526
 2471SOL    HW3 9651   4.556   1.483   3.586  2.2299 -0.3860 -0.4775
 2471SOL    MW4 9652   4.551   1.425   3.650 -0.1894  0.0360  0.1698
 2472SOL     OW 9653   5.241   1.958   0.054 -0.2355 -0.5279 -0.5396
 2472SOL    HW2 9654   5.148   1.950   0.031  0.4424 -1.6813 -3.3237
 2472SOL    HW3 9655   5.254   2.051   0.068 -1.6853 -0.2644 -0.7681
 2472SOL    MW4 9656   5.230   1.969   0.053  0.1560  0.3824 -0.1894
 2473SOL     OW 9657   0.354   5.368   4.802  0.1710 -0.0393  0.3213
 2473SOL    HW2 9658   0.400   5.296   4.758 -0.6154 -0.8297  0.7530
 2473SOL    HW3 9659   0.276   5.382   4.750  0.0032  0.0657  0.5985
 2473SOL    MW4 9660   0.350   5.360   4.790  0.2072  0.4656  0.9064
 2474SOL     OW 9661   3.126   2.412   3.568 -0.2648  0.1296 -0.0383
 2474SOL    HW2 9662   3.159   2.331   3.608 -0.6917  0.2531  0.5756
 2474SOL    HW3 9663   3.198   2.474   3.577 -0.5586  0.3314  1.1009
 2474SOL    MW4 9664   3.140   2.409   3.575  0.3363 -0.0204 -0.7441
 2475SOL     OW 9665   1.940   1.404   0.750  0.0637  0.1791  0.7279
 2475SOL    HW2 9666   1.959   1.457   0.827  0.8201  0.3541  0.4279
 2475SOL    HW3 9667   1.978   1.318   0.770  0.8753  0.4272  0.2674
 2475SOL    MW4 9668   1.947   1.400   0.763 -1.0306 -0.1831 -0.3215
 2476SOL     OW 9669   5.951   6.317   4.900  0.2620 -0.3517  0.2533
 2476SOL    HW2 9670   5.863   6.350   4.919  0.8502  1.2382  0.3753
 2476SOL    HW3 9671   6.002   6.395   4.880  1.1912 -1.4006 -1.8179
 2476SOL    MW4 9672   5.946   6.331   4.900  0.3682 -0.0997  0.1372
 2477SOL     OW 9673   4.832   2.234   0.031 -0.2523 -0.3432 -0.5249
 2477SOL    HW2 9674   4.858   2.315   0.075 -1.6053 -0.4791  0.5852
 2477SOL    HW3 9675   4.851   2.250  -0.061 -0.8527  1.3975 -0.3792
 2477SOL    MW4 9676   4.838   2.247   0.025 -0.0548 -0.6038  0.0178
 2478SOL     OW 9677   6.309   5.083   0.721  0.0940 -0.0484  0.0776
 2478SOL    HW2 9678   6.216   5.079   0.700 -0.0960 -0.3031  0.9396
 2478SOL    HW3 9679   6.312   5.100   0.815  0.9190 -0.0823  0.0660
 2478SOL    MW4 9680   6.297   5.084   0.731 -0.1916  0.2419  0.0182
 2479SOL     OW 9681   3.393   3.904   2.512  0.2378  0.3908 -0.3180
 2479SOL    HW2 9682   3.428   3.969   2.451 -0.0227 -1.3212 -2.3949
 2479SOL    HW3 9683   3.462   3.840   2.522 -0.4281 -0.3586 -0.3959
 2479SOL    MW4 9684   3.407   3.904   2.505  0.8262 -0.2475 -0.0658
 2480SOL     OW 9685   5.673   3.992   5.197 -0.3861 -0.6379 -0.2236
 2480SOL    HW2 9686   5.765   4.019   5.189 -0.7377  0.7631  0.2391
 2480SOL    HW3 9687   5.677   3.897   5.206  1.0284 -0.5808  0.0048
 2480SOL    MW4 9688   5.686   3.983   5.197  0.2090 -0.0258  0.2927
 2481SOL     OW 9689   4.073   3.954   1.973 -0.4254 -0.0278 -0.2482
 2481SOL    HW2 9690   4.054   4.047   1.982 -1.0786 -0.1175 -0.6749
 2481SOL    HW3 9691   4.136   3.949   1.901  1.6088  0.2991  1.3853
 2481SOL    MW4 9692   4.079   3.966   1.965 -0.5429  0.2063  0.1242
 2482SOL     OW 9693   3.053   1.424   0.594  0.8036 -0.0579  0.3866
 2482SOL    HW2 9694   3.015   1.382   0.517 -0.9904  1.2895  0.4764
 2482SOL    HW3 9695   3.092   1.504   0.560  1.5825 -0.3158  0.6473
 2482SOL    MW4 9696   3.053   1.429   0.579  0.1938 -0.4342  0.2809
 2483SOL     OW 9697   2.108   1.615   4.100 -0.0872  0.3949  0.4326
 2483SOL    HW2 9698   2.096   1.522   4.082 -0.4887  0.7875 -1.5636
 2483SOL    HW3 9699   2.029   1.656   4.066  1.4263  1.7632 -1.7166
 2483SOL    MW4 9700   2.096   1.608   4.093  0.0107  0.2163  0.0643
 2484SOL     OW 9701   0.481   1.428   2.092 -0.0117 -0.1544  0.0107
 2484SOL    HW2 9702   0.542   1.399   2.161 -0.7969 -0.0682  0.7525
 2484SOL    HW3 9703   0.535   1.433   2.013  1.2933  1.3339  0.9384
 2484SOL    MW4 9704   0.496   1.425   2.091 -0.3193 -0.1794  0.3142
 2485SOL     OW 9705   0.430   6.328   5.502 -0.0865  0.1753  0.4977
 2485SOL    HW2 9706   0.346   6.343   5.546 -0.8043 -1.9180 -0.0247
 2485SOL    HW3 9707   0.495   6.332   5.571 -0.6185  1.6121  0.9505
 2485SOL    MW4 9708   0.427   6.331   5.517 -0.2098 -0.4611  0.8824
 2486SOL     OW 9709   6.263   5.505   4.287 -0.1519 -0.3338  0.3617
 2486SOL    HW2 9710   6.215   5.422   4.293 -2.0835  0.5650 -1.4040
 2486SOL    HW3 9711   6.278   5.530   4.379  0.7954 -2.7242  0.9561
 2486SOL    MW4 9712   6.259   5.497   4.300 -0.2867  0.8841 -0.1966
 2487SOL     OW 9713   4.667   4.948   2.101 -0.5441 -0.6695  0.4503
 2487SOL    HW2 9714   4.670   5.037   2.065 -0.7129 -1.3478 -1.3036
 2487SOL    HW3 9715   4.759   4.922   2.108 -0.4866 -0.3109  1.1325
 2487SOL    MW4 9716   4.679   4.956   2.097  0.0026  0.3781  0.7505
 2488SOL     OW 9717   5.291   0.813   1.280 -0.0385  0.1657 -0.4914
 2488SOL    HW2 9718   5.273   0.828   1.188  1.9418  2.0926 -0.6360
 2488SOL    HW3 9719   5.252   0.889   1.325  0.5606  0.1641  0.0494
 2488SOL    MW4 9720   5.283   0.825   1.274 -0.1510  1.1637 -0.8977
 2489SOL     OW 9721   6.006   5.895   5.875  0.3774 -0.2339 -0.3152
 2489SOL    HW2 9722   5.979   5.893   5.784  0.8232 -1.7710 -0.4374
 2489SOL    HW3 9723   6.010   5.803   5.901  1.1390  0.1415  0.9863
 2489SOL    MW4 9724   6.003   5.883   5.867 -0.5190 -0.6125 -0.4473
 2490SOL     OW 9725   5.678   4.686   5.338 -0.4774 -0.4130 -0.1871
 2490SOL    HW2 9726   5.754   4.722   5.383 -0.9141  1.0875 -0.5882
 2490SOL    HW3 9727   5.662   4.602   5.380 -0.2791  0.4959  1.8126
 2490SOL    MW4 9728   5.686   4.680   5.349  0.2029 -0.5063  0.1321
 2491SOL     OW 9729   6.059   2.932   2.006  0.0876  0.2052 -0.0014
 2491SOL    HW2 9730   6.120   2.918   2.078 -0.9594  1.8424  1.2808
 2491SOL    HW3 9731   6.093   3.009   1.961  0.0195 -0.0402 -0.4801
 2491SOL    MW4 9732   6.072   2.940   2.009  0.1340  0.1649  0.4441
 2492SOL     OW 9733   3.987   2.718   4.840  0.2558 -0.1788  0.4201
 2492SOL    HW2 9734   3.923   2.680   4.900 -0.0907  0.7760  0.6701
 2492SOL    HW3 9735   3.937   2.778   4.785  0.8667  0.3289  0.3955
 2492SOL    MW4 9736   3.972   2.721   4.841 -0.3470  0.4048 -0.4721
 2493SOL     OW 9737   1.249   1.072   0.412 -0.1740  0.4826 -0.1766
 2493SOL    HW2 9738   1.281   1.043   0.327  1.5794  0.8342  0.3225
 2493SOL    HW3 9739   1.311   1.139   0.440 -0.0644 -0.3770  1.8648
 2493SOL    MW4 9740   1.261   1.077   0.405  0.1347  0.5692  0.3606
 2494SOL     OW 9741   5.743   0.824   0.321 -0.1098  0.2117  0.2437
 2494SOL    HW2 9742   5.699   0.788   0.398  2.1629  0.0436  1.5533
 2494SOL    HW3 9743   5.672   0.860   0.267 -2.0883 -2.5064  0.8424
 2494SOL    MW4 9744   5.728   0.824   0.324 -0.3337  0.3624 -0.5602
 2495SOL     OW 9745   5.897   2.797   2.248  0.0216 -0.1544  0.1508
 2495SOL    HW2 9746   5.948   2.877   2.237 -0.5154  0.0081 -1.3841
 2495SOL    HW3 9747   5.809   2.820   2.217  0.3988 -1.9158 -2.5432
 2495SOL    MW4 9748   5.892   2.811   2.243 -0.9704 -0.1609  0.0893
 2496SOL     OW 9749   0.597   3.321   6.031 -0.5688 -0.5819  0.7763
 2496SOL    HW2 9750   0.545   3.276   6.097 -0.2337  0.1096  1.5162
 2496SOL    HW3 9751   0.579   3.273   5.950  0.3194 -2.5089  1.6571
 2496SOL    MW4 9752   0.588   3.309   6.029 -0.9999 -0.2348  0.2490
 2497SOL     OW 9753   4.632   1.681   3.566 -0.1099  0.2115 -0.6123
 2497SOL    HW2 9754   4.698   1.677   3.497 -0.6260 -3.8468 -1.0969
 2497SOL    HW3 9755   4.683   1.690   3.647  1.2051 -2.8837 -0.9648
 2497SOL    MW4 9756   4.648   1.682   3.567  0.1859  0.2640  0.2443
 2498SOL     OW 9757   1.223   3.686   5.555  0.2809  0.3089 -0.0726
 2498SOL    HW2 9758   1.133   3.655   5.548  0.2423  0.5254 -0.5438
 2498SOL    HW3 9759   1.232   3.753   5.487  0.7454  0.4147  0.0833
 2498SOL    MW4 9760   1.213   3.691   5.545  0.2695 -0.2396  0.5064
 2499SOL     OW 9761   2.836   3.874   4.618  0.3413  0.1453  0.8939
 2499SOL    HW2 9762   2.835   3.791   4.570 -0.7663  1.0774 -0.8201
 2499SOL    HW3 9763   2.927   3.904   4.613  0.3624 -0.0683 -0.1663
 2499SOL    MW4 9764   2.848   3.867   4.611  0.8344  0.6326 -0.3318
 2500SOL     OW 9765   3.023   5.031   4.076  0.5772  0.1735  0.4452
 2500SOL    HW2 9766   3.084   4.967   4.113  1.6851  0.6774 -0.4447
 2500SOL    HW3 9767   2.943   4.981   4.059  1.2032 -0.8273  0.3602
 2500SOL    MW4 9768   3.020   5.016   4.079  0.1759 -0.0547 -0.1148
 2501SOL     OW 9769   1.339   0.677   4.476 -0.0954  0.8295 -0.4757
 2501SOL    HW2 9770   1.429   0.708   4.475 -0.5179  2.1730  0.1616
 2501SOL    HW3 9771   1.286   0.757   4.473 -1.2683  0.0579 -1.0588
 2501SOL    MW4 9772   1.344   0.692   4.476 -0.1579 -0.5743 -0.2614
 2502SOL     OW 9773   4.913   6.237   2.025 -0.1467  0.2779  0.0245
 2502SOL    HW2 9774   4.875   6.306   1.970 -1.5477 -1.0137 -0.6992
 2502SOL    HW3 9775   4.923   6.279   2.111  0.0037  1.6763 -0.6469
 2502SOL    MW4 9776   4.909   6.252   2.029  0.1543 -0.1537  0.0162
 2503SOL     OW 9777   1.822   4.483   0.500 -0.0209  0.3258  0.0379
 2503SOL    HW2 9778   1.787   4.571   0.488  0.1836  0.4421  0.2863
 2503SOL    HW3 9779   1.912   4.497   0.531 -0.3030  0.0340  1.0167
 2503SOL    MW4 9780   1.829   4.497   0.502 -0.3718 -0.6504  0.0004
 2504SOL     OW 9781   0.425   3.618   3.113 -0.2446  0.1673  0.0033
 2504SOL    HW2 9782   0.455   3.676   3.183  0.8363 -1.2851  0.7960
 2504SOL    HW3 9783   0.500   3.562   3.094 -1.6134 -1.8623  0.2256
 2504SOL    MW4 9784   0.439   3.619   3.120  0.1795  0.3317 -0.4303
 2505SOL     OW 9785   6.049   3.502   1.428  0.4379 -0.2628  0.4426
 2505SOL    HW2 9786   6.014   3.483   1.340  2.2022 -0.3973 -0.2793
 2505SOL    HW3 9787   6.046   3.597   1.435  2.0545 -0.0916 -0.5965
 2505SOL    MW4 9788   6.044   3.512   1.417 -0.0062  0.0093 -0.4602
 2506SOL     OW 9789   5.536   2.389   0.373 -0.4735 -0.2492 -0.0256
 2506SOL    HW2 9790   5.511   2.317   0.430 -0.1637 -0.0991  0.3069
 2506SOL    HW3 9791   5.622   2.364   0.338  0.0165  0.3200  0.7356
 2506SOL    MW4 9792   5.544   2.376   0.376 -0.5847  0.0089 -0.2183
 2507SOL     OW 9793   2.059   1.208   6.244  0.1411  0.2155 -0.4736
 2507SOL    HW2 9794   2.021   1.210   6.332 -2.2475 -0.8104 -1.4032
 2507SOL    HW3 9795   2.116   1.131   6.245 -1.8808 -1.3584 -0.5217
 2507SOL    MW4 9796   2.061   1.198   6.256  0.1575  0.1692 -0.1301
 2508SOL     OW 9797   4.530   4.688   3.418  0.4870  0.5884  0.1282
 2508SOL    HW2 9798   4.442   4.695   3.382 -0.2464 -1.7071  1.2844
 2508SOL    HW3 9799   4.519   4.706   3.512  1.0571 -0.6984  0.4578
 2508SOL    MW4 9800   4.517   4.692   3.426 -0.0036  0.4312 -0.0625
 2509SOL     OW 9801   2.546   3.818   1.573 -0.4570 -0.0947 -0.0743
 2509SOL    HW2 9802   2.489   3.889   1.542 -0.6828 -0.0093  0.5084
 2509SOL    HW3 9803   2.544   3.753   1.503 -0.4756  0.3512 -0.4927
 2509SOL    MW4 9804   2.538   3.819   1.560  0.1822  0.0852 -0.0071
 2510SOL     OW 9805   4.060   3.231   5.055  0.0299  0.4341  0.9588
 2510SOL    HW2 9806   4.098   3.151   5.092  0.8678  0.6983  0.7044
 2510SOL    HW3 9807   4.118   3.253   4.982 -1.3400  0.1697 -0.2448
 2510SOL    MW4 9808   4.073   3.224   5.050  0.2076  0.0224  0.0792
 2511SOL     OW 9809   2.723   0.112   1.548  0.0214  0.4343  0.7760
 2511SOL    HW2 9810   2.729   0.070   1.463 -0.5255 -0.7198  1.2885
 2511SOL    HW3 9811   2.663   0.186   1.534  0.3040  0.5301  0.0592
 2511SOL    MW4 9812   2.716   0.116   1.535  0.1105  0.5199  0.5469
 2512SOL     OW 9813   4.285   3.053   3.063 -0.4922  0.3401 -0.2314
 2512SOL    HW2 9814   4.336   3.000   3.002 -2.1088 -2.3204  0.5805
 2512SOL    HW3 9815   4.338   3.131   3.077  2.0808 -1.0707 -1.4449
 2512SOL    MW4 9816   4.298   3.056   3.057 -0.1744  0.2066 -0.7102
 2513SOL     OW 9817   4.569   1.506   5.118  0.0497 -0.3332 -0.1769
 2513SOL    HW2 9818   4.658   1.535   5.097  0.5836  0.4488  2.6895
 2513SOL    HW3 9819   4.577   1.411   5.127  0.3992 -0.3612 -0.7058
 2513SOL    MW4 9820   4.582   1.498   5.117 -0.1485  0.5696 -0.8177
 2514SOL     OW 9821   4.404   5.770   5.529  0.2986 -0.4613 -0.6735
 2514SOL    HW2 9822   4.378   5.829   5.600  2.0822  2.2243 -2.0868
 2514SOL    HW3 9823   4.472   5.715   5.567  0.4644  0.1944 -0.0046
 2514SOL    MW4 9824   4.409   5.770   5.543  0.3929  0.2814  0.1427
 2515SOL     OW 9825   5.136   3.229   2.811 -0.4253 -0.4299  0.2590
 2515SOL    HW2 9826   5.229   3.214   2.797 -0.5669 -1.0396 -0.0853
 2515SOL    HW3 9827   5.094   3.150   2.778 -1.1468  0.2976 -0.6056
 2515SOL    MW4 9828   5.142   3.216   2.805  0.2567 -0.4361 -0.0797
 2516SOL     OW 9829   4.247   2.992   5.104 -0.0984 -0.5324  0.5202
 2516SOL    HW2 9830   4.322   3.046   5.082 -1.6638  1.5911  0.0226
 2516SOL    HW3 9831   4.267   2.955   5.190  1.1540  0.6330  0.7538
 2516SOL    MW4 9832   4.259   2.994   5.112  0.5862  0.0771  0.5188
 2517SOL     OW 9833   0.074   3.884   4.035  0.1057 -0.4361  0.1106
 2517SOL    HW2 9834   0.114   3.967   4.061 -0.3106 -0.6702  1.6511
 2517SOL    HW3 9835   0.089   3.826   4.110  0.4498 -1.7894 -0.9544
 2517SOL    MW4 9836   0.081   3.887   4.049 -0.3192 -0.0708 -0.6977
 2518SOL     OW 9837   1.682   1.388   3.778  0.1120 -0.2335  0.4490
 2518SOL    HW2 9838   1.681   1.444   3.856 -0.3177  1.2501 -0.5834
 2518SOL    HW3 9839   1.751   1.424   3.724  0.7700 -1.5951  0.3514
 2518SOL    MW4 9840   1.691   1.400   3.781 -0.4956 -0.4437 -0.3187
 2519SOL     OW 9841   1.856   2.831   3.552  0.1808 -0.1582  0.4965
 2519SOL    HW2 9842   1.920   2.878   3.606  2.1872  0.6367 -2.2923
 2519SOL    HW3 9843   1.903   2.813   3.470 -2.5256 -1.5387 -0.8966
 2519SOL    MW4 9844   1.871   2.835   3.548 -0.9139  0.3096  0.1710
 2520SOL     OW 9845   6.128   5.784   2.550  0.6597  0.5546 -0.3034
 2520SOL    HW2 9846   6.187   5.725   2.596 -2.2995 -2.3609  0.1534
 2520SOL    HW3 9847   6.089   5.837   2.620 -1.6580 -1.8505  0.4182
 2520SOL    MW4 9848   6.130   5.783   2.566 -0.6225  0.0111  0.1416
 2521SOL     OW 9849   0.813   3.382   5.747 -0.0416 -0.3353 -0.8942
 2521SOL    HW2 9850   0.771   3.438   5.682  0.4525  0.0494 -0.8838
 2521SOL    HW3 9851   0.747   3.314   5.766 -1.1496  0.9663  0.0721
 2521SOL    MW4 9852   0.798   3.380   5.741 -0.3326 -0.4285  0.1992
 2522SOL     OW 9853   1.404   3.982   2.332 -0.1361  0.2217  0.1797
 2522SOL    HW2 9854   1.487   3.937   2.318 -1.2135 -1.9459  0.4025
 2522SOL    HW3 9855   1.401   4.000   2.426 -0.0135  0.1006  0.2059
 2522SOL    MW4 9856   1.414   3.978   2.342  0.2116 -0.1266 -0.0529
 2523SOL     OW 9857   0.135   3.873   2.213 -0.0362 -0.1434 -0.3319
 2523SOL    HW2 9858   0.189   3.872   2.134 -0.4354 -0.0852 -0.6096
 2523SOL    HW3 9859   0.197   3.884   2.285  1.0955 -5.7691 -0.0178
 2523SOL    MW4 9860   0.150   3.874   2.212 -0.1326 -0.3451 -0.5173
 2524SOL     OW 9861   3.963   4.317   1.576  0.6626 -0.3103  0.3204
 2524SOL    HW2 9862   3.941   4.225   1.590 -0.6266  0.1550  1.6540
 2524SOL    HW3 9863   3.895   4.349   1.517  1.0996 -0.2017 -0.1288
 2524SOL    MW4 9864   3.951   4.309   1.570 -0.1769 -0.2240 -0.8333
 2525SOL     OW 9865   1.314   2.704   2.961 -0.0874  0.3416  0.3315
 2525SOL    HW2 9866   1.306   2.772   3.028  0.1495 -0.2038  0.9190
 2525SOL    HW3 9867   1.395   2.727   2.914 -0.9988  1.5586 -0.7493
 2525SOL    MW4 9868   1.324   2.716   2.963 -0.1535 -0.2048  0.2328
 2526SOL     OW 9869   1.590   2.343   3.298 -0.0108  0.3758 -0.3099
 2526SOL    HW2 9870   1.602   2.251   3.276 -0.0837  0.5532 -1.1072
 2526SOL    HW3 9871   1.665   2.365   3.353 -1.1606 -0.7621  1.8593
 2526SOL    MW4 9872   1.601   2.334   3.303 -0.2502 -0.2030 -0.3710
 2527SOL     OW 9873   2.938   0.234   5.266 -0.0507 -0.6733  0.2244
 2527SOL    HW2 9874   3.014   0.274   5.224  0.2973  0.7283  2.0869
 2527SOL    HW3 9875   2.872   0.303   5.267 -0.1897 -0.8039  1.5589
 2527SOL    MW4 9876   2.939   0.248   5.261  0.4760 -0.8356  0.3521
 2528SOL     OW 9877   6.144   5.633   5.038 -0.4534  0.4283  0.1117
 2528SOL    HW2 9878   6.205   5.588   5.096  0.4521 -0.7496 -1.6606
 2528SOL    HW3 9879   6.061   5.587   5.050 -0.4494  0.6003  0.8847
 2528SOL    MW4 9880   6.141   5.621   5.047 -0.1715  0.5010  0.0165
 2529SOL     OW 9881   5.667   3.157   1.714 -0.4303  0.7641  0.0516
 2529SOL    HW2 9882   5.645   3.250   1.709 -3.1194  0.2578  0.7849
 2529SOL    HW3 9883   5.651   3.134   1.806  1.4976 -0.1841  0.1943
 2529SOL    MW4 9884   5.662   3.166   1.726 -0.0985  0.3739 -0.1963
 2530SOL     OW 9885   0.728   5.393   5.847 -0.1359 -0.0803  0.1957
 2530SOL    HW2 9886   0.655   5.409   5.907  0.6435  0.1004  1.1229
 2530SOL    HW3 9887   0.692   5.335   5.780 -0.5400 -1.9832  1.9363
 2530SOL    MW4 9888   0.714   5.387   5.846  0.0902  0.0420  0.1418
 2531SOL     OW 9889   1.818   2.530   5.595 -0.4616 -0.2225 -0.4102
 2531SOL    HW2 9890   1.850   2.462   5.654 -0.2264 -0.2678 -0.5887
 2531SOL    HW3 9891   1.895   2.584   5.576 -0.5226 -0.2425 -0.7203
 2531SOL    MW4 9892   1.832   2.529   5.600  0.2273  0.2821 -0.4201
 2532SOL     OW 9893   4.454   3.622   0.958  0.3504  0.3294 -0.3539
 2532SOL    HW2 9894   4.483   3.555   0.896  0.0247  0.3184 -0.4971
 2532SOL    HW3 9895   4.383   3.667   0.913  0.9862  1.2019 -0.5277
 2532SOL    MW4 9896   4.449   3.619   0.944 -0.1657  0.0582 -0.4889
 2533SOL     OW 9897   3.979   5.280   0.389 -0.5489 -0.0674  0.4309
 2533SOL    HW2 9898   4.041   5.326   0.332  1.9508 -3.0238  0.4763
 2533SOL    HW3 9899   3.965   5.340   0.462 -0.4424  2.0642 -1.1884
 2533SOL    MW4 9900   3.986   5.294   0.391 -0.1957  0.4294  0.6260
 2534SOL     OW 9901   3.268   0.746   3.680 -0.6129  0.0912 -0.0223
 2534SOL    HW2 9902   3.278   0.655   3.654 -0.6596  0.0397  0.1363
 2534SOL    HW3 9903   3.279   0.796   3.599 -0.7697 -0.0656 -0.1409
 2534SOL    MW4 9904   3.270   0.741   3.666  0.3114 -0.0679  0.0084
 2535SOL     OW 9905   6.346   0.624   2.278  0.4039  0.2365 -0.6451
 2535SOL    HW2 9906   6.428   0.643   2.234  1.0975 -1.9756 -0.4214
 2535SOL    HW3 9907   6.279   0.664   2.222  1.5782  1.8554 -0.9599
 2535SOL    MW4 9908   6.348   0.632   2.265  0.2077 -0.0966  0.0610
 2536SOL     OW 9909   4.693   3.069   6.146  0.2231 -0.4731  0.4428
 2536SOL    HW2 9910   4.609   3.024   6.156  0.5240 -1.1634 -0.0745
 2536SOL    HW3 9911   4.670   3.162   6.146 -0.7321 -0.6682 -1.2595
 2536SOL    MW4 9912   4.679   3.076   6.147  0.2764  0.2197  0.1175
 2537SOL     OW 9913   2.640   5.378   2.230  0.8579  0.2618  0.1067
 2537SOL    HW2 9914   2.592   5.300   2.259  1.3505 -0.6656 -1.3983
 2537SOL    HW3 9915   2.573   5.437   2.198  0.6116 -0.7229 -1.3059
 2537SOL    MW4 9916   2.625   5.375   2.229 -0.7523  0.0353  0.6053
 2538SOL     OW 9917   1.272   4.041   0.406 -0.3408 -0.4787  0.2944
 2538SOL    HW2 9918   1.200   4.072   0.351  1.4538  0.8603 -1.4194
 2538SOL    HW3 9919   1.314   4.120   0.439  1.5045 -1.1289 -0.3312
 2538SOL    MW4 9920   1.268   4.055   0.403  0.4754  0.0991  0.2774
 2539SOL     OW 9921   3.820   4.048   4.289 -0.6263  0.4067  0.1515
 2539SOL    HW2 9922   3.841   3.997   4.367  1.0158 -0.3254 -0.7185
 2539SOL    HW3 9923   3.858   4.135   4.306 -0.1105  0.1935  0.1084
 2539SOL    MW4 9924   3.828   4.053   4.301  0.0724 -0.3494 -0.5573
 2540SOL     OW 9925   0.226   3.318   1.597  0.3970  0.6309 -0.7095
 2540SOL    HW2 9926   0.278   3.358   1.528  3.1770  0.7311  1.2465
 2540SOL    HW3 9927   0.240   3.224   1.587 -0.8515  0.5209 -1.4709
 2540SOL    MW4 9928   0.235   3.311   1.587 -0.0654 -0.0060 -0.7406
 2541SOL     OW 9929   6.386   3.236   1.793  0.6076 -0.4736 -0.3928
 2541SOL    HW2 9930   6.411   3.311   1.741  1.1914 -1.6533 -1.8813
 2541SOL    HW3 9931   6.468   3.202   1.829  0.5404 -1.2541 -0.9506
 2541SOL    MW4 9932   6.400   3.241   1.791  0.4771  0.1783  0.7245
 2542SOL     OW 9933   1.996   4.594   1.577 -0.7008  0.0480  0.4067
 2542SOL    HW2 9934   2.006   4.589   1.482 -0.5309  1.4695  0.3220
 2542SOL    HW3 9935   1.958   4.681   1.593 -0.2523  0.0454  1.6667
 2542SOL    MW4 9936   1.993   4.605   1.567  0.1261 -0.4459  0.2310
 2543SOL     OW 9937   5.067   2.572   0.555 -0.8421 -0.0153  0.0605
 2543SOL    HW2 9938   4.989   2.516   0.548 -0.9147  0.2076 -1.0553
 2543SOL    HW3 9939   5.053   2.621   0.637 -1.4341 -0.6351  0.3440
 2543SOL    MW4 9940   5.055   2.571   0.565 -0.5500 -0.1681 -0.2021
 2544SOL     OW 9941   1.033   6.116   1.041 -0.5255 -0.2144  0.7312
 2544SOL    HW2 9942   0.991   6.185   1.091 -0.5828 -0.5680  1.1709
 2544SOL    HW3 9943   1.120   6.106   1.081  0.5909  1.4949 -1.0393
 2544SOL    MW4 9944   1.039   6.124   1.053 -0.9351  0.2073  0.5534
 2545SOL     OW 9945   3.741   3.019   0.475  0.0673  0.3618  0.2455
 2545SOL    HW2 9946   3.799   2.944   0.471  1.6749  1.5741 -0.4748
 2545SOL    HW3 9947   3.655   2.985   0.449  0.6706 -1.2646  0.2803
 2545SOL    MW4 9948   3.737   3.005   0.471 -0.0938  0.3034  0.0375
 2546SOL     OW 9949   1.057   4.291   0.116  0.1463  0.3195 -0.6404
 2546SOL    HW2 9950   1.024   4.233   0.185 -0.8674  2.2485  0.5917
 2546SOL    HW3 9951   1.093   4.366   0.163  2.8385  0.0839 -2.1110
 2546SOL    MW4 9952   1.058   4.293   0.131 -0.0021  0.2136  0.0686
 2547SOL     OW 9953   0.235   3.539   3.318 -0.6534  0.1891 -0.1745
 2547SOL    HW2 9954   0.306   3.552   3.256  0.3735 -1.7306  0.4766
 2547SOL    HW3 9955   0.240   3.445   3.340 -0.4010  0.8784  3.3665
 2547SOL    MW4 9956   0.245   3.528   3.313 -0.0930  0.0531 -0.3429
 2548SOL     OW 9957   0.238   2.206   5.954 -0.2061  0.5647 -0.3430
 2548SOL    HW2 9958   0.239   2.297   5.981  1.0345  0.3922  0.2545
 2548SOL    HW3 9959   0.146   2.182   5.954 -0.4080  1.1554  1.7948
 2548SOL    MW4 9960   0.226   2.215   5.958 -0.6779 -0.0252 -0.2587
 2549SOL     OW 9961   0.785   4.967   4.532 -0.3956 -0.4331 -0.2634
 2549SOL    HW2 9962   0.838   4.889   4.549 -0.8177 -0.8866 -0.9656
 2549SOL    HW3 9963   0.704   4.952   4.581  0.0891  0.2400  0.7754
 2549SOL    MW4 9964   0.781   4.955   4.540  0.2239 -0.2245  0.0058
 2550SOL     OW 9965   1.596   2.651   4.151 -0.4588 -0.3574 -0.0872
 2550SOL    HW2 9966   1.525   2.710   4.179 -0.8647 -0.3450 -1.0945
 2550SOL    HW3 9967   1.675   2.705   4.158 -0.9085  0.5918 -1.6861
 2550SOL    MW4 9968   1.597   2.666   4.155  0.6423 -0.1137  0.5240
 2551SOL     OW 9969   4.107   2.289   1.238 -0.2984  0.0753  0.1326
 2551SOL    HW2 9970   4.038   2.259   1.298 -0.1536 -0.1944  0.1650
 2551SOL    HW3 9971   4.189   2.262   1.279 -0.1730  0.3582  0.0725
 2551SOL    MW4 9972   4.109   2.281   1.251 -0.3932  0.6400  0.4055
 2552SOL     OW 9973   5.914   3.757   0.705 -0.2060 -0.1213 -0.3609
 2552SOL    HW2 9974   5.987   3.695   0.709  0.1108  0.2737  0.1210
 2552SOL    HW3 9975   5.955   3.840   0.680 -0.5524  0.0054 -0.5113
 2552SOL    MW4 9976   5.929   3.760   0.702 -0.4503  0.5095 -0.3096
 2553SOL     OW 9977   0.442   1.135   0.763  0.5759  0.1828 -0.4264
 2553SOL    HW2 9978   0.382   1.077   0.717 -0.6277  0.3371  0.8819
 2553SOL    HW3 9979   0.525   1.087   0.763 -0.4443 -1.7344  0.8556
 2553SOL    MW4 9980   0.445   1.121   0.757  0.1178  0.0952 -0.2258
 2554SOL     OW 9981   4.087   3.942   3.218 -0.1494  0.0684  0.6509
 2554SOL    HW2 9982   4.078   4.036   3.200 -1.9049 -0.0567  0.7981
 2554SOL    HW3 9983   4.155   3.913   3.157  0.2904  1.3805  0.4731
 2554SOL    MW4 9984   4.095   3.951   3.208  0.1754 -0.8788  0.4906
 2555SOL     OW 9985   2.933   2.575   1.792  0.0733 -0.2110 -0.3096
 2555SOL    HW2 9986   2.934   2.490   1.835 -2.4363  0.3738  1.0723
 2555SOL    HW3 9987   2.881   2.631   1.849 -0.1596  1.6758 -2.2217
 2555SOL    MW4 9988   2.926   2.571   1.805 -0.0085  0.0199  0.4227
 2556SOL     OW 9989   3.056   4.471   2.223  0.3744  0.4890 -0.4284
 2556SOL    HW2 9990   3.119   4.504   2.288  1.9636 -1.2191 -1.0006
 2556SOL    HW3 9991   3.084   4.381   2.207 -0.6423  0.5245 -2.6958
 2556SOL    MW4 9992   3.068   4.463   2.230 -0.2032 -0.0075 -0.0321
 2557SOL     OW 9993   3.583   1.527   1.192 -0.5903  0.3221  0.3133
 2557SOL    HW2 9994   3.557   1.618   1.207 -1.0421  0.5938 -1.7854
 2557SOL    HW3 9995   3.669   1.520   1.234 -1.4016  1.1299  2.1893
 2557SOL    MW4 9996   3.591   1.538   1.199 -0.2359  0.0923 -0.0485
 2558SOL     OW 9997   4.988   2.799   6.269  0.3608 -0.2693  0.1486
 2558SOL    HW2 9998   5.038   2.868   6.227  0.1213  0.0464  0.3768
 2558SOL    HW3 9999   5.046   2.768   6.340 -0.4745  1.3895  1.6423
 2558SOL    MW410000   5.002   2.804   6.273 -0.1220 -0.2015  0.4984
 2559SOL     OW10001   0.509   5.502   5.094 -0.2566 -0.0816  0.0810
 2559SOL    HW210002   0.479   5.416   5.064 -2.2730  0.3562  0.7029
 2559SOL    HW310003   0.437   5.561   5.071  0.5824  1.2316  0.7438
 2559SOL    MW410004   0.495   5.498   5.087  0.1176  0.0317  0.9543
 2560SOL     OW10005   5.411   5.451   2.030  0.3174 -0.3549  0.6077
 2560SOL    HW210006   5.406   5.514   1.958  2.1925  0.2135  0.9020
 2560SOL    HW310007   5.371   5.372   1.995 -0.8962  0.5926 -0.2425
 2560SOL    MW410008   5.405   5.449   2.016  0.1829  0.3609  0.2597
 2561SOL     OW10009   4.121   6.141   0.772  0.7880 -0.1273  0.2733
 2561SOL    HW210010   4.059   6.210   0.749  0.2880  0.1274  2.2149
 2561SOL    HW310011   4.203   6.188   0.790  0.9880 -0.2566 -0.2677
 2561SOL    MW410012   4.124   6.157   0.771 -0.5450 -0.3674  0.0979
 2562SOL     OW10013   2.052   1.887   5.759 -0.0154  0.1417 -0.2322
 2562SOL    HW210014   1.992   1.816   5.782  0.4816 -0.9332 -2.0411
 2562SOL    HW310015   1.997   1.965   5.758 -0.7943 -0.3610  0.7705
 2562SOL    MW410016   2.037   1.888   5.762 -0.3103 -0.3004  0.3585
 2563SOL     OW10017   0.719   2.330   2.562 -0.0269 -0.1294  0.0574
 2563SOL    HW210018   0.685   2.341   2.651  1.3810 -1.3031  0.7854
 2563SOL    HW310019   0.723   2.419   2.526 -0.3118  0.3989  1.2934
 2563SOL    MW410020   0.715   2.343   2.569  0.0275 -0.0263 -0.1824
 2564SOL     OW10021   1.890   3.347   0.457 -0.7578  0.2388 -0.2781
 2564SOL    HW210022   1.954   3.365   0.388  1.3106 -2.3829  0.7897
 2564SOL    HW310023   1.829   3.285   0.417 -1.1131  0.7265 -0.5043
 2564SOL    MW410024   1.890   3.341   0.442  0.9539  0.1231  0.0808
 2565SOL     OW10025   5.843   2.974   4.796 -0.2541 -1.1112 -0.3502
 2565SOL    HW210026   5.758   2.946   4.830 -0.5948 -1.5721 -1.5181
 2565SOL    HW310027   5.906   2.918   4.841 -0.3683  0.4376  1.8643
 2565SOL    MW410028   5.840   2.963   4.807 -0.4409  0.6491 -0.2272
 2566SOL     OW10029   6.347   0.524   5.502  0.1413  0.5378  0.5875
 2566SOL    HW210030   6.309   0.557   5.583 -1.7796  0.4736 -0.2320
 2566SOL    HW310031   6.317   0.585   5.435 -0.6760 -0.9484 -0.4660
 2566SOL    MW410032   6.338   0.537   5.504  0.6200 -0.4238  0.4537
 2567SOL     OW10033   1.999   0.585   0.372 -0.7235  0.4471 -0.6406
 2567SOL    HW210034   2.066   0.545   0.316 -0.6657 -3.4800  1.8195
 2567SOL    HW310035   1.919   0.583   0.319 -0.3260 -1.6004 -1.2781
 2567SOL    MW410036   1.997   0.579   0.358  0.1552  0.4741 -0.5647
 2568SOL     OW10037   4.671   6.236   3.779 -0.8716  0.0700  0.3108
 2568SOL    HW210038   4.631   6.149   3.784  0.4824 -0.6131 -0.0677
 2568SOL    HW310039   4.646   6.279   3.861  0.9598 -1.8509  1.9908
 2568SOL    MW410040   4.662   6.230   3.790  0.3334 -0.5192 -0.2217
 2569SOL     OW10041   1.389   6.041   4.023 -0.0804 -1.0222 -0.1965
 2569SOL    HW210042   1.318   5.998   4.069  0.2874  0.3059  1.7630
 2569SOL    HW310043   1.457   6.054   4.090  0.2685  1.4943 -0.9255
 2569SOL    MW410044   1.389   6.037   4.038 -0.3082  0.1558  0.2147
 2570SOL     OW10045   1.169   6.449   2.161 -0.0973 -0.2057 -0.2980
 2570SOL    HW210046   1.132   6.530   2.126  1.1944  1.3738  1.7291
 2570SOL    HW310047   1.147   6.451   2.254  1.6269 -1.2004  0.1877
 2570SOL    MW410048   1.161   6.460   2.169  0.3392 -0.2873 -1.0558
 2571SOL     OW10049   4.123   0.304   3.298  0.6500  0.1062 -0.1863
 2571SOL    HW210050   4.105   0.255   3.378 -1.5821  0.7404 -0.2287
 2571SOL    HW310051   4.180   0.246   3.246  0.5750 -1.1189  1.0426
 2571SOL    MW410052   4.128   0.290   3.301 -0.3946 -0.2426 -0.0388
 2572SOL     OW10053   4.082   4.468   2.994  0.7781  0.3319  0.0483
 2572SOL    HW210054   4.062   4.536   2.931  1.2178  1.7414  1.3754
 2572SOL    HW310055   4.011   4.405   2.985 -1.1140  2.2846  0.6201
 2572SOL    MW410056   4.070   4.468   2.984  0.5710 -0.2943  0.1576
 2573SOL     OW10057   1.000   3.766   5.925 -0.2789 -0.1532 -0.1673
 2573SOL    HW210058   1.077   3.791   5.873 -0.3311  0.1870 -0.0813
 2573SOL    HW310059   0.927   3.811   5.882 -0.2864  0.3322  0.3531
 2573SOL    MW410060   1.001   3.775   5.912 -0.1581 -0.5287 -0.6097
 2574SOL     OW10061   3.231   1.750   2.500  0.5667  0.2506 -0.0407
 2574SOL    HW210062   3.144   1.745   2.539  0.7527  0.0447  0.3549
 2574SOL    HW310063   3.261   1.659   2.496  0.4467  0.2402 -0.9179
 2574SOL    MW410064   3.223   1.737   2.505 -0.1394  0.9204  0.2923
 2575SOL     OW10065   3.678   3.292   5.092  0.2994 -0.1740 -0.2815
 2575SOL    HW210066   3.672   3.201   5.119  0.4516 -0.0792  0.0798
 2575SOL    HW310067   3.609   3.303   5.027 -0.9106 -0.0770  0.9902
 2575SOL    MW410068   3.668   3.282   5.087  0.3619 -0.4248  0.1227
 2576SOL     OW10069   5.878   2.770   6.054 -0.4034 -0.0381  0.3142
 2576SOL    HW210070   5.950   2.783   6.117  0.7073 -4.3938  0.3037
 2576SOL    HW310071   5.922   2.762   5.970 -1.5866  2.5597 -0.6425
 2576SOL    MW410072   5.893   2.770   6.052  0.4254  0.3973 -0.4304
 2577SOL     OW10073   0.194   2.185   5.658  0.0673 -0.4692  0.7831
 2577SOL    HW210074   0.198   2.279   5.642  1.7265 -0.7504 -0.7237
 2577SOL    HW310075   0.199   2.177   5.753 -3.2383  1.0249  1.2212
 2577SOL    MW410076   0.195   2.196   5.669 -0.1186  0.0937 -0.9405
 2578SOL     OW10077   3.891   4.029   3.408  0.2921 -0.1639 -0.0192
 2578SOL    HW210078   3.970   4.016   3.356  0.2053  1.9609 -0.7823
 2578SOL    HW310079   3.822   3.987   3.357  0.6869 -0.7666 -0.0678
 2578SOL    MW410080   3.892   4.022   3.395 -0.5141 -0.3563  0.2989
 2579SOL     OW10081   2.795   2.516   4.775  0.0485 -0.0140  0.2781
 2579SOL    HW210082   2.891   2.515   4.775  0.3565  3.8214 -3.0164
 2579SOL    HW310083   2.772   2.583   4.840 -0.8713 -3.1561  3.5634
 2579SOL    MW410084   2.805   2.525   4.784 -0.8774  0.5035 -0.3423
 2580SOL     OW10085   6.002   3.132   2.377  0.2127  0.2515  0.2296
 2580SOL    HW210086   6.070   3.142   2.310  0.2803 -0.1496  0.2380
 2580SOL    HW310087   6.050   3.103   2.455 -0.2491 -2.7195 -0.4586
 2580SOL    MW410088   6.018   3.129   2.379 -0.4181  0.1107 -0.0560
 2581SOL     OW10089   5.398   3.687   1.863  0.5202  0.1146 -0.8387
 2581SOL    HW210090   5.392   3.742   1.941  2.4948  1.1557 -1.3683
 2581SOL    HW310091   5.374   3.746   1.791  0.6291 -0.2963 -1.2145
 2581SOL    MW410092   5.394   3.702   1.864 -0.3376 -0.5573  0.2646
 2582SOL     OW10093   3.800   2.672   6.343 -0.3922 -0.5955 -0.3294
 2582SOL    HW210094   3.732   2.629   6.394 -0.3072  0.7535  0.9963
 2582SOL    HW310095   3.881   2.653   6.391 -0.2694  0.4361 -0.1087
 2582SOL    MW410096   3.802   2.664   6.356  0.2247 -0.5879  0.0937
 2583SOL     OW10097   2.707   5.031   2.169 -0.0729  0.1995  0.0293
 2583SOL    HW210098   2.803   5.033   2.174 -0.0384 -0.1151 -0.4645
 2583SOL    HW310099   2.678   5.080   2.246  0.4935  0.9608 -0.2365
 2583SOL    MW410100   2.716   5.038   2.180  0.1387 -0.4323 -0.3249
 2584SOL     OW10101   0.032   5.452   0.744  0.0722  0.3242 -0.3698
 2584SOL    HW210102   0.075   5.408   0.818 -0.6642  0.7342  0.3141
 2584SOL    HW310103  -0.051   5.483   0.779  0.5265  2.2036 -0.8322
 2584SOL    MW410104   0.027   5.450   0.758  0.2157  0.1491 -0.2141
 2585SOL     OW10105   3.129   4.950   5.877 -0.0233  0.0275 -0.3438
 2585SOL    HW210106   3.036   4.934   5.868 -0.4424  0.5057  2.3917
 2585SOL    HW310107   3.155   4.899   5.954  1.5647  1.2804  0.0107
 2585SOL    MW410108   3.121   4.941   5.886  0.2872 -0.1345  0.2663
 2586SOL     OW10109   4.048   4.747   4.859 -0.0591  0.0464 -0.5325
 2586SOL    HW210110   4.102   4.825   4.848  1.7067 -0.8717  0.9404
 2586SOL    HW310111   4.077   4.687   4.790 -1.0256  0.4687 -1.3209
 2586SOL    MW410112   4.059   4.749   4.849 -0.6474  0.0109 -0.0422
 2587SOL     OW10113   4.742   4.593   2.404  0.2591  0.4181  0.1974
 2587SOL    HW210114   4.789   4.590   2.488  1.5092 -1.1831 -0.4997
 2587SOL    HW310115   4.670   4.532   2.415  1.2398 -0.8875 -0.2966
 2587SOL    MW410116   4.739   4.585   2.416 -0.6851 -0.0079  0.0971
 2588SOL     OW10117   1.679   3.808   1.012  0.4519  0.4056 -0.1202
 2588SOL    HW210118   1.591   3.844   1.023  1.3537  2.8036 -0.1593
 2588SOL    HW310119   1.692   3.753   1.089 -0.5549  1.1576  0.6095
 2588SOL    MW410120   1.669   3.805   1.024  0.2633  0.1220 -0.0099
 2589SOL     OW10121   3.421   2.481   0.769  0.6289  0.2426 -0.5406
 2589SOL    HW210122   3.372   2.549   0.722  1.0134  0.8986 -0.0165
 2589SOL    HW310123   3.422   2.407   0.709 -1.3643  0.0489 -0.4194
 2589SOL    MW410124   3.414   2.480   0.755 -0.0276 -0.6364 -0.1642
 2590SOL     OW10125   0.123   4.045   5.730 -0.1680 -0.3079  0.2836
 2590SOL    HW210126   0.041   3.997   5.741 -0.1659 -0.1363  1.0637
 2590SOL    HW310127   0.099   4.118   5.671  0.0252 -1.7050 -1.6378
 2590SOL    MW410128   0.109   4.048   5.723 -0.0270 -1.1401  0.1074
 2591SOL     OW10129   2.131   5.650   1.675  0.1526  0.5038 -0.1650
 2591SOL    HW210130   2.139   5.744   1.687 -0.5668  0.7834 -1.6620
 2591SOL    HW310131   2.195   5.612   1.736  1.3291  1.9873 -0.4323
 2591SOL    MW410132   2.140   5.657   1.685  0.0757 -0.0713 -0.0122
 2592SOL     OW10133   3.271   4.912   0.305 -0.0089 -0.2328 -0.0870
 2592SOL    HW210134   3.231   4.848   0.364  1.1214 -2.2329 -1.3529
 2592SOL    HW310135   3.258   4.996   0.349 -0.5173 -1.4361  2.2721
 2592SOL    MW410136   3.264   4.914   0.319 -0.2508 -0.3619 -0.1002
 2593SOL     OW10137   2.130   2.288   3.906 -0.1645  0.1285 -0.0246
 2593SOL    HW210138   2.098   2.365   3.952  0.1026  0.3084 -0.1386
 2593SOL    HW310139   2.207   2.318   3.858 -0.9697  0.1686 -1.3326
 2593SOL    MW410140   2.136   2.302   3.905 -0.5346 -0.6516 -0.3873
 2594SOL     OW10141   2.200   2.415   6.177 -0.0320  0.8960 -0.3679
 2594SOL    HW210142   2.254   2.472   6.231  0.6340  0.1624 -0.2406
 2594SOL    HW310143   2.146   2.474   6.126  0.9370  1.6525 -0.5415
 2594SOL    MW410144   2.200   2.430   6.178 -0.6818 -0.0783 -0.0842
 2595SOL     OW10145   5.494   2.448   6.261  0.0141 -0.0664  0.2210
 2595SOL    HW210146   5.524   2.421   6.174  0.1188  1.0471 -0.1034
 2595SOL    HW310147   5.560   2.511   6.290  0.3017 -0.8714  1.3794
 2595SOL    MW410148   5.507   2.453   6.253 -0.2938  0.9013 -0.4021
 2596SOL     OW10149   6.206   4.100   4.717  0.5401  0.0371 -0.2621
 2596SOL    HW210150   6.225   4.023   4.664  2.2515  0.9267 -1.0345
 2596SOL    HW310151   6.198   4.067   4.806  3.4789 -0.8196 -0.2269
 2596SOL    MW410152   6.208   4.086   4.722 -0.0076  0.6090  0.6357
 2597SOL     OW10153   5.136   5.534   1.195 -0.4399 -1.0856  0.0458
 2597SOL    HW210154   5.084   5.485   1.131 -1.4009 -0.6530  0.4770
 2597SOL    HW310155   5.150   5.473   1.267  0.1928 -1.4028 -0.3367
 2597SOL    MW410156   5.131   5.519   1.196  0.3632 -0.6616  0.4690
 2598SOL     OW10157   4.926   4.090   2.271  0.4497  1.2514  0.3796
 2598SOL    HW210158   4.916   4.174   2.315  0.3361  0.9031  1.0401
 2598SOL    HW310159   4.897   4.025   2.336  1.8966  0.6022  0.4190
 2598SOL    MW410160   4.921   4.092   2.285  0.5242  0.1577  0.0343
 2599SOL     OW10161   6.372   1.344   0.369 -0.3558 -0.2151  0.1201
 2599SOL    HW210162   6.416   1.417   0.325 -2.3891  0.6189 -0.6848
 2599SOL    HW310163   6.311   1.386   0.430  1.9277 -1.3373  3.4744
 2599SOL    MW410164   6.370   1.359   0.371 -0.0335 -0.0527 -0.2920
 2600SOL     OW10165   2.563   3.978   3.498 -0.1430 -0.1145  0.1271
 2600SOL    HW210166   2.655   4.003   3.486 -0.1699  0.4442  0.9780
 2600SOL    HW310167   2.533   3.953   3.411  1.0970 -1.2788  0.0012
 2600SOL    MW410168   2.571   3.978   3.485  0.1791  0.3915  0.4428
 2601SOL     OW10169   2.824   2.132   3.511 -0.2140 -0.5177  0.7966
 2601SOL    HW210170   2.814   2.185   3.590  1.2311  1.1093 -0.0476
 2601SOL    HW310171   2.861   2.191   3.447 -1.7974 -1.6549 -1.3028
 2601SOL    MW410172   2.827   2.147   3.513  0.2992 -0.4568  0.4744
 2602SOL     OW10173   5.513   2.567   3.411  0.1532  0.6336 -0.0358
 2602SOL    HW210174   5.553   2.578   3.324  1.7266 -0.1601  0.5411
 2602SOL    HW310175   5.546   2.641   3.462  1.0138 -0.0727  0.4701
 2602SOL    MW410176   5.523   2.578   3.406  0.0489 -0.2759 -0.0850
 2603SOL     OW10177   1.126   4.558   3.105 -0.4123  0.4049 -0.1102
 2603SOL    HW210178   1.132   4.619   3.179  0.5150  0.1642  0.0296
 2603SOL    HW310179   1.046   4.584   3.059 -1.6591 -0.1712  1.6186
 2603SOL    MW410180   1.116   4.570   3.109  0.0134  0.7580  0.3975
 2604SOL     OW10181   4.485   5.535   5.984  0.0858  0.4742 -0.1051
 2604SOL    HW210182   4.402   5.583   5.986 -1.6742 -2.3395  0.5265
 2604SOL    HW310183   4.483   5.487   5.902  0.7337 -0.1644  0.2411
 2604SOL    MW410184   4.474   5.535   5.974 -0.0235  0.6294  1.0129
 2605SOL     OW10185   5.496   3.517   4.941  0.2835  0.5661 -0.2360
 2605SOL    HW210186   5.542   3.577   5.000  0.2242  1.0105 -0.6291
 2605SOL    HW310187   5.448   3.458   4.999  0.3208  0.9180  0.1595
 2605SOL    MW410188   5.496   3.517   4.956  0.2015  0.0035 -0.1384
 2606SOL     OW10189   4.056   0.731   2.676 -0.6083 -0.1157 -0.7585
 2606SOL    HW210190   3.998   0.793   2.631 -1.0849 -1.7229 -2.4880
 2606SOL    HW310191   4.135   0.728   2.621 -0.9200 -1.6102 -1.1546
 2606SOL    MW410192   4.059   0.739   2.663 -0.5735 -0.2090 -0.3839
 2607SOL     OW10193   2.494   4.573   4.745  0.0741  0.2495  0.5868
 2607SOL    HW210194   2.544   4.506   4.793 -2.2593 -1.9356  0.1371
 2607SOL    HW310195   2.526   4.566   4.655  0.4630  0.4031  0.7074
 2607SOL    MW410196   2.505   4.563   4.740  0.3067  0.0621  0.0650
 2608SOL     OW10197   1.102   1.900   3.929  0.2146 -0.1379 -0.0027
 2608SOL    HW210198   1.181   1.941   3.965  0.6860 -1.8275  0.9953
 2608SOL    HW310199   1.110   1.807   3.951 -1.6405 -0.5110 -0.6577
 2608SOL    MW410200   1.113   1.893   3.936  0.2945 -0.1107 -0.0635
 2609SOL     OW10201   5.425   5.224   1.664 -0.2856  0.7614 -0.4215
 2609SOL    HW210202   5.445   5.168   1.589 -0.6945 -0.0487  0.0511
 2609SOL    HW310203   5.470   5.306   1.646  1.9791 -0.3428 -0.2545
 2609SOL    MW410204   5.434   5.227   1.652  0.5742  0.1342 -0.2419
 2610SOL     OW10205   1.042   2.691   0.740 -0.0807  0.2589  0.2621
 2610SOL    HW210206   1.077   2.636   0.670 -1.3436 -0.1610 -0.0639
 2610SOL    HW310207   1.082   2.777   0.725  1.1788 -0.3139  0.2152
 2610SOL    MW410208   1.052   2.695   0.729 -0.7269 -0.0903  0.0305
 2611SOL     OW10209   0.375   4.114   4.434 -0.4464  0.3071 -0.1636
 2611SOL    HW210210   0.463   4.089   4.407  0.3258  0.2914  2.1795
 2611SOL    HW310211   0.383   4.205   4.462 -0.9693  0.0487  0.8655
 2611SOL    MW410212   0.388   4.123   4.434 -0.5745  0.4995  0.3972
 2612SOL     OW10213   4.606   3.331   6.161 -0.5097  0.1985 -0.0694
 2612SOL    HW210214   4.682   3.366   6.114  0.0653  2.3556  2.2822
 2612SOL    HW310215   4.628   3.340   6.253 -1.8596 -3.2788  0.7268
 2612SOL    MW410216   4.619   3.337   6.167  0.1170  0.5228 -0.1327
 2613SOL     OW10217   5.622   1.570   5.079 -0.1768 -0.3496  0.1193
 2613SOL    HW210218   5.682   1.638   5.051  0.0152 -0.8763 -0.7828
 2613SOL    HW310219   5.608   1.587   5.172  0.0990  0.7326 -0.0257
 2613SOL    MW410220   5.628   1.581   5.088 -0.2440  0.3421  0.1883
 2614SOL     OW10221   5.163   1.830   1.206  0.0165 -0.5282 -0.2220
 2614SOL    HW210222   5.107   1.823   1.128 -1.3345 -1.5670  0.7997
 2614SOL    HW310223   5.197   1.919   1.202 -1.5980  0.1101 -0.9953
 2614SOL    MW410224   5.160   1.841   1.195 -0.7289  0.2686  0.2576
 2615SOL     OW10225   5.204   5.854   2.126 -0.4498  0.0269  0.0293
 2615SOL    HW210226   5.192   5.945   2.099  0.8573  0.1757 -0.1288
 2615SOL    HW310227   5.169   5.802   2.053 -0.9903  0.4008  0.0193
 2615SOL    MW410228   5.198   5.859   2.113 -0.0343 -0.1861  0.5999
 2616SOL     OW10229   6.019   5.217   5.670 -0.3217 -0.4810 -0.4835
 2616SOL    HW210230   6.071   5.258   5.601 -0.9488  1.3682  0.0847
 2616SOL    HW310231   6.081   5.160   5.716  0.8235  0.4958 -0.7799
 2616SOL    MW410232   6.034   5.215   5.667  0.3189  0.3660 -0.6204
 2617SOL     OW10233   2.588   3.298   5.373  0.0911  0.3664  0.1957
 2617SOL    HW210234   2.559   3.212   5.341  0.2739  0.6090 -0.6438
 2617SOL    HW310235   2.679   3.305   5.344  0.6043  0.1561  1.6925
 2617SOL    MW410236   2.596   3.288   5.365  0.3174  0.2289 -0.4222
 2618SOL     OW10237   4.116   0.740   1.057  0.2820 -0.4341  0.4852
 2618SOL    HW210238   4.118   0.832   1.086  1.2592 -0.3032  0.0284
 2618SOL    HW310239   4.096   0.691   1.137  1.2651  0.0656  1.0584
 2618SOL    MW410240   4.114   0.746   1.072  0.2422  0.4987  0.8984
 2619SOL     OW10241   1.748   2.171   2.931 -0.0569 -0.3101 -0.5686
 2619SOL    HW210242   1.667   2.155   2.882  0.4099  0.1392 -1.5261
 2619SOL    HW310243   1.766   2.265   2.918  1.1584 -0.6120 -1.2656
 2619SOL    MW410244   1.740   2.182   2.923  0.3738  0.0023  0.8731
 2620SOL     OW10245   0.202   3.822   1.214  0.4885 -0.2380  0.0228
 2620SOL    HW210246   0.138   3.779   1.270  0.6328 -1.4998 -0.7464
 2620SOL    HW310247   0.154   3.891   1.169  0.1671  0.1892  1.0037
 2620SOL    MW410248   0.187   3.826   1.216 -0.2262 -0.1230  0.2494
 2621SOL     OW10249   2.817   0.083   4.401 -0.2885  0.3967 -0.4702
 2621SOL    HW210250   2.842  -0.004   4.432  1.1731  0.5838 -1.0313
 2621SOL    HW310251   2.725   0.074   4.374 -0.5066 -0.6577  0.5647
 2621SOL    MW410252   2.808   0.071   4.401 -0.3638 -0.7591 -0.3324
 2622SOL     OW10253   3.229   4.123   5.481  0.4433 -0.2936 -0.5180
 2622SOL    HW210254   3.234   4.129   5.576 -0.1932  0.0849 -0.4999
 2622SOL    HW310255   3.167   4.193   5.456 -0.8899 -1.6046 -1.0421
 2622SOL    MW410256   3.221   4.133   5.490 -0.3534  0.0887 -0.1803
 2623SOL     OW10257   0.668   3.455   3.142 -0.5111  0.6839  0.2539
 2623SOL    HW210258   0.736   3.521   3.157 -1.1282  1.5824 -0.8185
 2623SOL    HW310259   0.632   3.438   3.230 -0.2895  1.7231  0.5637
 2623SOL    MW410260   0.672   3.462   3.156  0.4049  0.3851  0.3221
 2624SOL     OW10261   0.543   6.091   6.082  0.0730 -0.0236  0.0192
 2624SOL    HW210262   0.580   6.022   6.027  0.8225  0.1778  0.2603
 2624SOL    HW310263   0.499   6.149   6.020 -2.1218 -1.6244 -0.0298
 2624SOL    MW410264   0.542   6.090   6.067  0.1286  0.3094 -0.3808
 2625SOL     OW10265   0.735   1.172   1.797  0.2418 -0.3266  0.1891
 2625SOL    HW210266   0.713   1.146   1.707  0.2320 -0.2398  0.1664
 2625SOL    HW310267   0.777   1.095   1.835 -0.5264 -0.6593  0.3788
 2625SOL    MW410268   0.738   1.158   1.790 -0.0769 -0.1021 -0.1039
 2626SOL     OW10269   3.683   3.931   3.255 -0.2894  0.0557  0.0646
 2626SOL    HW210270   3.715   3.922   3.165 -1.4380 -0.6917 -0.2874
 2626SOL    HW310271   3.593   3.961   3.246 -0.7795 -1.0962  0.9243
 2626SOL    MW410272   3.675   3.934   3.242 -0.1395  0.4437  0.4043
 2627SOL     OW10273   4.657   0.759   4.878 -0.1481  0.5288  0.3782
 2627SOL    HW210274   4.592   0.730   4.813 -2.7224  2.4689  1.9143
 2627SOL    HW310275   4.616   0.740   4.963  1.3302  1.8045  1.4223
 2627SOL    MW410276   4.643   0.752   4.881 -0.6506  0.2456  0.2756
 2628SOL     OW10277   3.188   1.039   2.824 -0.5064  0.0178 -0.4030
 2628SOL    HW210278   3.164   1.013   2.735  2.7864 -0.6242 -1.2361
 2628SOL    HW310279   3.211   0.957   2.868 -0.3096  0.5090  0.4381
 2628SOL    MW410280   3.188   1.025   2.818 -0.6275  0.1873 -0.1541
 2629SOL     OW10281   5.472   1.060   1.127 -0.0066  0.3699 -0.0389
 2629SOL    HW210282   5.564   1.035   1.117  0.1148 -0.5020  2.5358
 2629SOL    HW310283   5.471   1.116   1.205 -1.5468  1.1487 -0.5723
 2629SOL    MW410284   5.484   1.064   1.136  0.3367 -0.0700  0.3010
 2630SOL     OW10285   0.133   6.158   1.759  0.2003  0.9638 -0.0289
 2630SOL    HW210286   0.117   6.194   1.672 -3.1595  0.2471  0.1721
 2630SOL    HW310287   0.095   6.222   1.819 -0.2674  0.0168  0.7110
 2630SOL    MW410288   0.126   6.171   1.756  0.1611 -0.5316  0.1658
 2631SOL     OW10289   3.232   2.436   4.013  0.1259 -0.2331 -0.1715
 2631SOL    HW210290   3.302   2.414   3.951 -0.9538 -0.7059 -1.2648
 2631SOL    HW310291   3.156   2.454   3.957 -0.9731 -0.9972  1.0388
 2631SOL    MW410292   3.231   2.436   3.997  0.0882 -0.2609 -0.1514
 2632SOL     OW10293   0.405   6.319   0.136 -0.1056  0.3152 -0.6240
 2632SOL    HW210294   0.314   6.336   0.111 -0.6828  3.0712  2.5532
 2632SOL    HW310295   0.398   6.270   0.218  1.4050 -1.1258 -1.2982
 2632SOL    MW410296   0.392   6.314   0.144  0.4797 -0.3146 -0.0918
 2633SOL     OW10297   2.769   1.471   0.138  0.1151  0.3412 -0.3088
 2633SOL    HW210298   2.775   1.526   0.215  0.8931  0.7218 -0.6244
 2633SOL    HW310299   2.679   1.480   0.108 -0.3947 -0.3871  0.9601
 2633SOL    MW410300   2.758   1.479   0.144 -0.2764 -0.3939  0.0276
 2634SOL     OW10301   0.195   1.144   4.750 -0.4111  0.3689  0.0889
 2634SOL    HW210302   0.281   1.113   4.780 -0.6984  1.1869  1.9234
 2634SOL    HW310303   0.140   1.066   4.751 -0.2087  0.2247  1.0199
 2634SOL    MW410304   0.199   1.130   4.754 -0.1478  0.4225 -0.0344
 2635SOL     OW10305   0.486   0.831   1.226 -0.1342  0.7748 -0.5410
 2635SOL    HW210306   0.419   0.821   1.294  0.5847  0.1682  0.0858
 2635SOL    HW310307   0.563   0.862   1.273  0.7417 -0.8321 -0.8650
 2635SOL    MW410308   0.487   0.834   1.241  0.2645 -0.0638 -0.1218
 2636SOL     OW10309   0.510   4.292   2.455 -0.3706 -0.0097  0.7680
 2636SOL    HW210310   0.490   4.377   2.494 -0.1655  0.3475  0.1080
 2636SOL    HW310311   0.480   4.228   2.520 -0.9965  0.5547  1.0486
 2636SOL    MW410312   0.503   4.294   2.469 -0.2580 -0.5548  0.0128
 2637SOL     OW10313   5.800   3.052   3.155  0.5648  0.5234 -0.4290
 2637SOL    HW210314   5.885   3.009   3.160  1.1081  1.5831 -0.2058
 2637SOL    HW310315   5.751   3.018   3.230  0.7926 -0.0692 -0.5426
 2637SOL    MW410316   5.805   3.042   3.165 -0.5152 -0.3952 -0.2787
 2638SOL     OW10317   1.764   5.563   0.998  0.2830  0.2538  0.8528
 2638SOL    HW210318   1.740   5.521   0.916  1.6770 -1.5939  1.3099
 2638SOL    HW310319   1.855   5.592   0.985 -0.1991  1.9697  1.0288
 2638SOL    MW410320   1.773   5.561   0.986  0.0252  0.4072  0.6470
 2639SOL     OW10321   1.982   3.303   4.168 -0.4983  0.0061  0.1454
 2639SOL    HW210322   1.902   3.265   4.203 -1.7792  2.5966  0.2791
 2639SOL    HW310323   2.004   3.374   4.229  0.8904  0.4920 -0.8479
 2639SOL    MW410324   1.975   3.307   4.181  0.1682  0.6099 -0.2910
 2640SOL     OW10325   1.104   2.622   1.290  0.3867  0.2592  0.0490
 2640SOL    HW210326   1.083   2.548   1.348  0.5418  1.6914  2.0586
 2640SOL    HW310327   1.019   2.657   1.265  0.3199 -0.2892 -0.5203
 2640SOL    MW410328   1.090   2.617   1.295 -0.0824 -0.0650  0.2287
 2641SOL     OW10329   2.321   1.766   4.008  0.0072 -0.8880 -0.0004
 2641SOL    HW210330   2.253   1.724   4.060  0.5835 -0.4843  1.0998
 2641SOL    HW310331   2.403   1.745   4.052  0.3904  0.6592  0.1112
 2641SOL    MW410332   2.323   1.758   4.021 -0.3208  0.2056  0.2895
 2642SOL     OW10333   1.001   4.843   0.347 -0.5474  0.8936  0.1735
 2642SOL    HW210334   1.083   4.817   0.390 -1.0927  2.3566  2.2505
 2642SOL    HW310335   0.985   4.774   0.283  1.4011 -0.3475  0.9199
 2642SOL    MW410336   1.010   4.830   0.344  0.6462 -0.4332 -0.0082
 2643SOL     OW10337   1.292   6.312   2.505  0.1564 -0.4970  0.1589
 2643SOL    HW210338   1.203   6.312   2.469 -0.5037 -0.3719  1.7033
 2643SOL    HW310339   1.296   6.391   2.558  0.6737 -1.2567  1.2929
 2643SOL    MW410340   1.281   6.322   2.507  0.1795 -0.3812 -0.0293
 2644SOL     OW10341   1.535   0.603   4.118 -0.7659 -0.0828  0.4417
 2644SOL    HW210342   1.465   0.560   4.069  1.5862 -0.8958 -2.4844
 2644SOL    HW310343   1.614   0.583   4.069  1.3673  2.0573  2.7402
 2644SOL    MW410344   1.536   0.594   4.105  0.0174  0.2237 -0.4658
 2645SOL     OW10345   4.237   5.401   5.595  0.1617  0.4717  0.0535
 2645SOL    HW210346   4.236   5.326   5.536  1.1851 -0.1306  0.7609
 2645SOL    HW310347   4.153   5.398   5.640  0.5252 -0.7823  0.6902
 2645SOL    MW410348   4.226   5.391   5.593  0.0077 -0.1607  0.7075
 2646SOL     OW10349   0.884   3.580   4.604  0.1428  0.1515 -0.2179
 2646SOL    HW210350   0.979   3.570   4.609  0.1971 -0.4175 -1.7055
 2646SOL    HW310351   0.850   3.532   4.680  0.9965 -0.7348 -0.3767
 2646SOL    MW410352   0.892   3.572   4.614 -0.1355 -0.0068  0.7392
 2647SOL     OW10353   3.516   1.812   1.568  0.8145 -0.3412 -0.1118
 2647SOL    HW210354   3.459   1.744   1.534  1.8598 -0.5731 -1.4985
 2647SOL    HW310355   3.505   1.807   1.663 -0.9569 -0.7877 -0.3107
 2647SOL    MW410356   3.507   1.802   1.576 -0.4709 -0.3166 -0.5220
 2648SOL     OW10357   3.950   3.196   0.486 -0.3532  0.1728  0.1871
 2648SOL    HW210358   3.871   3.142   0.485 -0.9173  0.9239  1.3234
 2648SOL    HW310359   3.948   3.244   0.403 -0.6558 -0.4018 -0.1459
 2648SOL    MW410360   3.939   3.195   0.475 -0.2639 -0.0441 -0.0966
 2649SOL     OW10361   1.660   2.228   4.348 -0.0102 -0.0835 -0.0188
 2649SOL    HW210362   1.691   2.183   4.427  0.8549  0.5274  0.0001
 2649SOL    HW310363   1.738   2.268   4.311 -0.4443 -0.2174 -1.1035
 2649SOL    MW410364   1.674   2.227   4.354  0.2983  0.0644  0.1863
 2650SOL     OW10365   6.252   0.512   0.532 -0.1657  0.1884 -0.0165
 2650SOL    HW210366   6.278   0.423   0.553  0.3776  0.1259 -0.9169
 2650SOL    HW310367   6.186   0.503   0.463  1.8979  0.5270 -2.1592
 2650SOL    MW410368   6.247   0.499   0.526 -0.0139  0.6226 -0.1515
 2651SOL     OW10369   0.992   0.269   3.979  0.5119  0.2162 -0.6021
 2651SOL    HW210370   0.906   0.237   4.004  0.1802  0.1782 -1.7281
 2651SOL    HW310371   1.053   0.206   4.016  0.1357  0.8121  1.1081
 2651SOL    MW410372   0.989   0.257   3.987 -0.1730  0.4335  0.0873
 2652SOL     OW10373   0.407   3.710   4.851 -0.2235  0.1016 -0.1825
 2652SOL    HW210374   0.437   3.776   4.787  2.3920  1.2195  1.9797
 2652SOL    HW310375   0.312   3.709   4.841 -0.1899  2.5685 -1.8702
 2652SOL    MW410376   0.399   3.719   4.841  0.4976 -0.2175  0.1500
 2653SOL     OW10377   6.358   3.481   1.157 -0.4533  0.3800  0.5075
 2653SOL    HW210378   6.450   3.452   1.161  0.1225  2.0673  0.1064
 2653SOL    HW310379   6.344   3.525   1.240 -0.6953  0.7101  0.2918
 2653SOL    MW410380   6.369   3.483   1.169  0.2704  0.5121  0.0470
 2654SOL     OW10381   1.609   0.081   5.293 -0.2760  0.6839  0.0064
 2654SOL    HW210382   1.521   0.074   5.256 -0.2049 -2.0492  0.1869
 2654SOL    HW310383   1.668   0.068   5.219 -0.0960 -1.0577  0.4249
 2654SOL    MW410384   1.605   0.078   5.278  0.4235  0.1501  0.3527
 2655SOL     OW10385   6.239   2.784   5.600  0.3752 -0.3510 -0.3224
 2655SOL    HW210386   6.168   2.809   5.659  0.8823  0.3501  0.0011
 2655SOL    HW310387   6.199   2.788   5.513 -0.4305 -1.5975 -0.0301
 2655SOL    MW410388   6.224   2.788   5.596  0.4348  0.4940 -0.3377
 2656SOL     OW10389   5.806   0.095   3.596  0.0386 -1.0038 -0.3840
 2656SOL    HW210390   5.874   0.148   3.556 -1.0207  0.2573 -0.5630
 2656SOL    HW310391   5.769   0.044   3.524  2.1093 -3.2896  0.0305
 2656SOL    MW410392   5.810   0.095   3.581 -0.1708 -0.1087  0.7535
 2657SOL     OW10393   2.396   6.303   2.363  0.5357 -0.6805 -0.0452
 2657SOL    HW210394   2.491   6.312   2.358  0.9904 -2.7920  2.5642
 2657SOL    HW310395   2.378   6.215   2.330 -0.0064 -1.6391  2.5204
 2657SOL    MW410396   2.406   6.292   2.358  0.3944 -0.3555  0.8887
 2658SOL     OW10397   3.286   2.890   4.244 -0.1664 -0.1551  0.3229
 2658SOL    HW210398   3.227   2.955   4.282 -0.8494 -1.5494  1.7364
 2658SOL    HW310399   3.358   2.883   4.307  1.0970  0.8597 -0.9411
 2658SOL    MW410400   3.288   2.898   4.257  0.2084  0.3033  0.1225
 2659SOL     OW10401   5.796   4.050   4.760  0.0646  0.1288  0.6819
 2659SOL    HW210402   5.851   4.102   4.819 -1.2879  1.4001  0.8855
 2659SOL    HW310403   5.718   4.028   4.812 -0.2315 -0.4921 -0.0011
 2659SOL    MW410404   5.793   4.054   4.775  0.2365  0.6142  0.1231
 2660SOL     OW10405   4.290   2.109   4.624 -0.1633  0.3009  0.0321
 2660SOL    HW210406   4.369   2.162   4.617 -0.6866  0.9401 -1.4861
 2660SOL    HW310407   4.319   2.020   4.601  0.4385  0.1717  1.2236
 2660SOL    MW410408   4.304   2.104   4.620  0.2233 -0.7641 -0.0500
 2661SOL     OW10409   2.002   1.280   2.516 -0.2758  0.0489  0.3344
 2661SOL    HW210410   2.056   1.355   2.537 -0.3493  0.6033 -1.2810
 2661SOL    HW310411   2.059   1.223   2.464 -0.0629 -1.2909  1.9579
 2661SOL    MW410412   2.017   1.282   2.512  0.1067  0.5468 -0.4017
 2662SOL     OW10413   0.360   2.696   6.222 -0.3159 -0.2993 -0.0015
 2662SOL    HW210414   0.359   2.678   6.316 -0.3359  2.2279  0.5642
 2662SOL    HW310415   0.452   2.689   6.197 -0.1125  0.2985  0.5306
 2662SOL    MW410416   0.372   2.693   6.231 -0.6182 -0.1950 -0.1883
 2663SOL     OW10417   2.320   1.803   0.033 -0.1139  0.2216 -0.5469
 2663SOL    HW210418   2.317   1.870   0.101 -2.0569  1.0815 -1.4148
 2663SOL    HW310419   2.408   1.810  -0.004 -0.2353  2.2388 -0.5546
 2663SOL    MW410420   2.331   1.813   0.037 -0.0909 -0.5601  0.2097
 2664SOL     OW10421   4.991   0.181   4.624 -0.0217  0.1955 -0.6713
 2664SOL    HW210422   4.959   0.232   4.699 -1.4742  0.7368 -1.6247
 2664SOL    HW310423   4.912   0.152   4.579  0.8313 -0.3704 -1.8459
 2664SOL    MW410424   4.977   0.184   4.628 -0.0905  0.1752 -0.4366
 2665SOL     OW10425   0.817   6.188   0.876  0.3008  0.4422  0.5961
 2665SOL    HW210426   0.783   6.099   0.869  0.7824  0.2069  1.1462
 2665SOL    HW310427   0.891   6.181   0.936  0.3370  1.2176  0.6566
 2665SOL    MW410428   0.823   6.175   0.883 -0.4432 -0.3376  0.0838
 2666SOL     OW10429   4.625   3.487   1.379  0.1669  0.0933 -0.8736
 2666SOL    HW210430   4.655   3.569   1.340 -2.0320  0.9702 -0.8682
 2666SOL    HW310431   4.588   3.513   1.464  0.0150 -0.9850 -0.5957
 2666SOL    MW410432   4.624   3.501   1.385 -0.0885  0.0946 -0.4080
 2667SOL     OW10433   5.859   4.464   0.207  0.0492 -0.1061  0.1181
 2667SOL    HW210434   5.939   4.512   0.186 -0.6220 -0.0709 -2.8131
 2667SOL    HW310435   5.847   4.476   0.301  3.6649 -0.4493  0.7634
 2667SOL    MW410436   5.868   4.472   0.216  0.0973  0.0685  0.4378
 2668SOL     OW10437   5.626   1.939   3.002  0.1558  0.3155  0.4379
 2668SOL    HW210438   5.660   1.932   3.091  0.5754 -1.5987  0.1863
 2668SOL    HW310439   5.642   1.852   2.963  0.5805  1.2835 -1.7211
 2668SOL    MW410440   5.632   1.926   3.008  0.2791 -0.3847  0.1403
 2669SOL     OW10441   6.075   0.886   0.381 -0.1130  0.3132 -0.0527
 2669SOL    HW210442   6.013   0.956   0.402 -0.2623 -0.0392  0.7030
 2669SOL    HW310443   6.021   0.807   0.373 -0.0195  0.3582 -1.4571
 2669SOL    MW410444   6.060   0.885   0.382  0.5394 -0.4951  0.6501
 2670SOL     OW10445   3.774   3.288   2.975 -0.5300  0.2118 -0.3229
 2670SOL    HW210446   3.848   3.346   2.955  0.3434 -0.8416 -0.2595
 2670SOL    HW310447   3.741   3.320   3.059  1.5312 -0.8720  0.9698
 2670SOL    MW410448   3.780   3.300   2.983 -0.0288  0.4385 -0.4759
 2671SOL     OW10449   4.032   3.470   5.676  0.0918 -0.3897  0.4739
 2671SOL    HW210450   4.058   3.557   5.647 -0.3277 -0.2630  0.4640
 2671SOL    HW310451   3.941   3.462   5.647 -0.1308 -0.5151  1.1990
 2671SOL    MW410452   4.023   3.480   5.668 -0.0701 -0.0441  0.0533
 2672SOL     OW10453   4.125   6.336   3.300  0.1553  0.2660 -0.0577
 2672SOL    HW210454   4.101   6.359   3.210 -1.5229 -1.2452 -0.0366
 2672SOL    HW310455   4.201   6.279   3.291 -0.1670 -0.0943 -0.5509
 2672SOL    MW410456   4.132   6.332   3.287 -1.0498 -0.3466  0.0425
 2673SOL     OW10457   6.377   5.979   2.763 -0.0331  0.0602 -0.1148
 2673SOL    HW210458   6.295   6.026   2.748  0.0687  1.1992  2.3643
 2673SOL    HW310459   6.433   6.043   2.808  2.0732 -0.8277 -1.3582
 2673SOL    MW410460   6.374   5.994   2.767 -0.2954  0.0962  0.1216
 2674SOL     OW10461   5.633   4.718   3.566 -0.1528 -0.2206 -0.4794
 2674SOL    HW210462   5.668   4.741   3.652 -1.0199  0.1999 -0.2284
 2674SOL    HW310463   5.632   4.800   3.517 -0.2364 -0.3366 -0.6763
 2674SOL    MW410464   5.637   4.732   3.570  0.6726  0.0349  0.1150
 2675SOL     OW10465   5.629   2.746   2.943 -0.3163  0.0963 -0.4321
 2675SOL    HW210466   5.723   2.758   2.951 -0.3057 -0.4859  0.4793
 2675SOL    HW310467   5.592   2.831   2.964  0.0482  0.7721 -2.3767
 2675SOL    MW410468   5.636   2.759   2.947  0.3739 -0.1876 -0.2242
 2676SOL     OW10469   2.755   1.847   1.190 -0.1948 -0.3351  0.2277
 2676SOL    HW210470   2.792   1.863   1.103 -1.6907  0.3345 -0.3192
 2676SOL    HW310471   2.795   1.914   1.245 -0.1645  0.0239 -0.2230
 2676SOL    MW410472   2.765   1.858   1.186  0.4538  0.6685  0.1293
 2677SOL     OW10473   0.236   6.346   1.333 -0.0783  0.0339 -0.2397
 2677SOL    HW210474   0.177   6.286   1.378 -0.9808 -0.5740 -2.1385
 2677SOL    HW310475   0.184   6.384   1.263  1.2488  0.9790 -0.7639
 2677SOL    MW410476   0.222   6.343   1.330  0.3290 -0.3243  0.7118
 2678SOL     OW10477   0.268   5.541   4.014 -0.2341  0.1524  0.3511
 2678SOL    HW210478   0.290   5.571   3.926  1.4457 -3.2186 -0.5390
 2678SOL    HW310479   0.338   5.574   4.070  0.7260 -0.6977 -0.3118
 2678SOL    MW410480   0.280   5.549   4.010 -0.0720 -0.3599  0.0582
 2679SOL     OW10481   5.730   3.601   1.148 -0.3046  0.2129 -0.2022
 2679SOL    HW210482   5.770   3.515   1.163 -0.5160  0.1735  0.1595
 2679SOL    HW310483   5.731   3.613   1.053 -1.2039 -0.6347 -0.3258
 2679SOL    MW410484   5.736   3.591   1.138  0.0617 -0.4227  0.5273
 2680SOL     OW10485   3.605   2.136   0.256 -0.5090  0.6000  0.1822
 2680SOL    HW210486   3.652   2.110   0.335  1.0921 -0.3837 -1.0217
 2680SOL    HW310487   3.553   2.212   0.283  1.0572  1.1597  1.8288
 2680SOL    MW410488   3.604   2.143   0.270 -0.5884 -0.4634 -0.6603
 2681SOL     OW10489   0.680   3.902   3.397 -0.2006 -0.3007 -0.3651
 2681SOL    HW210490   0.630   3.970   3.442  0.8979 -0.0958  0.5963
 2681SOL    HW310491   0.758   3.947   3.364  0.8807 -1.1965  0.8711
 2681SOL    MW410492   0.684   3.917   3.398 -0.5766  0.2736  0.7219
 2682SOL     OW10493   4.067   3.550   0.199  0.3741 -0.0833  0.2797
 2682SOL    HW210494   4.042   3.567   0.108 -0.3019  0.6538  0.5939
 2682SOL    HW310495   4.028   3.465   0.219  0.7298 -0.3627 -0.1905
 2682SOL    MW410496   4.059   3.541   0.190 -0.0831  0.1975  0.0502
 2683SOL     OW10497   2.434   4.669   6.074  0.0751 -0.2146 -0.8302
 2683SOL    HW210498   2.373   4.633   6.138  0.4724  1.0521  0.3092
 2683SOL    HW310499   2.478   4.592   6.038  0.2330 -0.9561  0.8388
 2683SOL    MW410500   2.432   4.654   6.078  0.2768  0.4713 -0.2145
 2684SOL     OW10501   3.353   4.999   4.665  0.8665  0.3937 -0.0535
 2684SOL    HW210502   3.367   4.957   4.580 -0.2345 -0.7080  0.2700
 2684SOL    HW310503   3.375   4.931   4.729  0.4453  0.7748  0.5134
 2684SOL    MW410504   3.357   4.984   4.663  0.1905  0.0452 -0.2430
 2685SOL     OW10505   4.049   2.088   5.424  0.2124  0.6560  0.6615
 2685SOL    HW210506   4.040   2.007   5.475 -0.8932 -1.1944 -2.2342
 2685SOL    HW310507   4.139   2.086   5.392 -0.8670 -1.7313 -2.7160
 2685SOL    MW410508   4.060   2.077   5.427  0.2586 -0.0325  0.5359
 2686SOL     OW10509   6.323   5.534   5.287  0.6893  0.3008 -0.2474
 2686SOL    HW210510   6.273   5.466   5.331  0.2999  0.5676 -0.2750
 2686SOL    HW310511   6.407   5.492   5.266  0.4680 -0.1567 -0.2306
 2686SOL    MW410512   6.328   5.520   5.290  0.0174  0.1472  0.3909
 2687SOL     OW10513   2.322   0.686   2.743  0.3222  0.2347 -0.9710
 2687SOL    HW210514   2.356   0.775   2.745  0.4264  0.1888 -0.5167
 2687SOL    HW310515   2.227   0.696   2.744  0.3306  0.3356 -0.0281
 2687SOL    MW410516   2.314   0.699   2.744 -0.1707 -0.0396  0.6246
 2688SOL     OW10517   2.284   5.453   0.529 -0.2483 -0.2718 -0.2928
 2688SOL    HW210518   2.241   5.490   0.452  2.4316  0.5572 -1.4988
 2688SOL    HW310519   2.238   5.494   0.603 -1.7329  0.2701 -1.4571
 2688SOL    MW410520   2.272   5.464   0.529  0.6272 -0.1671 -0.2404
 2689SOL     OW10521   5.034   4.861   2.807  0.4219 -0.3360  0.4157
 2689SOL    HW210522   4.995   4.948   2.795  1.7478  0.1332 -0.7442
 2689SOL    HW310523   5.067   4.837   2.720  0.0083 -2.0664  0.6896
 2689SOL    MW410524   5.033   4.869   2.794  0.1472 -0.2771 -0.1861
 2690SOL     OW10525   3.509   4.084   4.262  0.0878 -0.2403 -0.3572
 2690SOL    HW210526   3.462   4.001   4.252 -1.3311  0.4127  0.5964
 2690SOL    HW310527   3.600   4.058   4.275 -0.6124 -1.7882  2.0491
 2690SOL    MW410528   3.514   4.070   4.262 -0.3253 -0.6655  0.1317
 2691SOL     OW10529   2.691   1.392   0.516 -0.5083  0.1097  0.4731
 2691SOL    HW210530   2.609   1.385   0.466  1.4705 -0.8232 -3.0089
 2691SOL    HW310531   2.750   1.330   0.473  2.4831  1.7356  1.9283
 2691SOL    MW410532   2.688   1.383   0.504  0.3717  0.1086  0.0466
 2692SOL     OW10533   2.197   3.958   6.351  0.6557  0.0035  0.4391
 2692SOL    HW210534   2.117   4.005   6.329  0.1254 -1.0135  0.1103
 2692SOL    HW310535   2.254   3.969   6.275  0.3778 -0.2255  0.2001
 2692SOL    MW410536   2.194   3.965   6.338 -0.0813 -0.1992 -0.7376
 2693SOL     OW10537   5.518   6.263   2.533  0.1843 -0.7004 -0.3845
 2693SOL    HW210538   5.445   6.309   2.574  1.3896  1.3044 -0.3120
 2693SOL    HW310539   5.543   6.196   2.596 -2.0033 -1.9455 -0.7450
 2693SOL    MW410540   5.512   6.260   2.547 -0.3205  0.1016 -0.2907
 2694SOL     OW10541   0.725   4.311   5.731 -0.5982  0.4317  0.0412
 2694SOL    HW210542   0.795   4.282   5.672  0.9288  2.6272  0.6681
 2694SOL    HW310543   0.723   4.246   5.800  2.4971  1.4469  1.2431
 2694SOL    MW410544   0.734   4.299   5.732  0.0115  0.8545  0.3007
 2695SOL     OW10545   0.670   2.130   4.083  0.1570 -0.1795  0.1778
 2695SOL    HW210546   0.691   2.223   4.093  1.7830 -0.6901  2.2936
 2695SOL    HW310547   0.595   2.116   4.140 -0.3321 -0.0903 -0.4431
 2695SOL    MW410548   0.663   2.140   4.092  0.3091  0.1721 -0.4101
 2696SOL     OW10549   5.909   3.334   4.275 -0.1860 -0.1444  0.4784
 2696SOL    HW210550   5.837   3.371   4.225  0.6383  0.7015 -0.1270
 2696SOL    HW310551   5.883   3.343   4.366 -1.1273 -0.4790  0.2493
 2696SOL    MW410552   5.896   3.340   4.280  0.4942  0.1872 -0.0993
 2697SOL     OW10553   0.862   0.517   0.962 -0.8881 -0.4105  0.3237
 2697SOL    HW210554   0.780   0.469   0.952 -0.8996 -0.7188  1.7152
 2697SOL    HW310555   0.861   0.549   1.052 -0.1675  0.9043 -0.0981
 2697SOL    MW410556   0.851   0.515   0.973  0.0563 -0.4579  0.3203
 2698SOL     OW10557   3.160   5.427   2.000 -0.2332 -0.3677 -0.2062
 2698SOL    HW210558   3.221   5.393   1.934  0.0230  0.0655 -0.1985
 2698SOL    HW310559   3.113   5.350   2.031  0.9638 -0.8560  0.4624
 2698SOL    MW410560   3.162   5.412   1.996  0.3316  0.0832 -0.1025
 2699SOL     OW10561   3.496   4.853   3.916  0.1112 -0.0761  0.2556
 2699SOL    HW210562   3.474   4.931   3.968  0.2469 -0.0329  0.2489
 2699SOL    HW310563   3.414   4.828   3.875 -0.0260 -0.1806  0.5886
 2699SOL    MW410564   3.482   4.860   3.918 -0.3294  0.4394  0.0007
 2700SOL     OW10565   0.807   4.637   4.947  0.9101  0.6693 -0.0830
 2700SOL    HW210566   0.802   4.543   4.929  0.1210  0.5906  0.5118
 2700SOL    HW310567   0.895   4.649   4.984  0.6643 -0.0000  0.7576
 2700SOL    MW410568   0.818   4.626   4.949 -0.5821 -0.2446 -0.7237
 2701SOL     OW10569   4.150   4.057   1.469  0.4840  0.6751 -0.0122
 2701SOL    HW210570   4.068   4.045   1.517  1.0154  1.5281  1.1600
 2701SOL    HW310571   4.208   4.102   1.531  1.2083  1.8173 -1.4531
 2701SOL    MW410572   4.147   4.062   1.484  0.0966  0.0556 -0.1520
 2702SOL     OW10573   3.058   5.593   5.473 -0.7422  0.5282 -0.1053
 2702SOL    HW210574   3.146   5.563   5.449 -0.8647 -1.0203  1.2316
 2702SOL    HW310575   2.999   5.533   5.426 -1.0800  1.1389 -0.4711
 2702SOL    MW410576   3.062   5.581   5.463 -0.5970 -0.2217 -0.3317
 2703SOL     OW10577   3.547   6.036   0.548  0.0849  0.0781 -0.1930
 2703SOL    HW210578   3.495   6.116   0.547  0.9415  0.6781  0.9913
 2703SOL    HW310579   3.636   6.065   0.531  0.6035 -0.4195  1.4408
 2703SOL    MW410580   3.552   6.050   0.546  0.7371 -0.2270  0.2419
 2704SOL     OW10581   1.909   1.778   6.399  0.5522  0.1154  0.3359
 2704SOL    HW210582   1.964   1.855   6.410 -0.2083  0.7785 -0.3525
 2704SOL    HW310583   1.913   1.759   6.305  0.8781 -0.8019  0.5233
 2704SOL    MW410584   1.916   1.786   6.388  0.2767 -0.2777 -0.1942
 2705SOL     OW10585   2.404   5.519   5.251  0.0867  0.2129  0.0364
 2705SOL    HW210586   2.493   5.532   5.219 -0.3974  0.7195 -1.1843
 2705SOL    HW310587   2.377   5.435   5.214  0.2871 -0.2793  0.9813
 2705SOL    MW410588   2.412   5.510   5.242 -0.3417  0.5265  0.4853
 2706SOL     OW10589   0.598   2.482   6.421 -0.2822  0.6051 -0.5985
 2706SOL    HW210590   0.621   2.431   6.499 -2.0655  2.7069  1.4667
 2706SOL    HW310591   0.666   2.460   6.357  0.5310 -2.2225  1.0521
 2706SOL    MW410592   0.610   2.473   6.423  0.0266 -0.5278 -0.0672
 2707SOL     OW10593   1.697   1.328   0.955  0.4095 -0.0308  0.1087
 2707SOL    HW210594   1.758   1.354   0.886 -2.0699 -2.4724 -3.3526
 2707SOL    HW310595   1.613   1.363   0.927 -0.6020 -0.4985  2.3508
 2707SOL    MW410596   1.694   1.336   0.942  0.2208  0.0878 -0.2698
 2708SOL     OW10597   4.386   0.990   2.667 -0.1449 -0.0245 -0.3756
 2708SOL    HW210598   4.316   1.007   2.605  0.0520 -0.7340 -0.7972
 2708SOL    HW310599   4.387   0.895   2.679 -1.0166  0.1670  1.6949
 2708SOL    MW410600   4.377   0.980   2.660  0.0097  0.6819 -0.1439
 2709SOL     OW10601   0.712   3.222   3.014  0.2668  0.0790 -0.0627
 2709SOL    HW210602   0.643   3.172   3.058 -2.4250  1.4048 -2.4266
 2709SOL    HW310603   0.700   3.311   3.046  0.2681  0.4847 -1.1599
 2709SOL    MW410604   0.701   3.227   3.024  0.0144  0.5122  0.4183
 2710SOL     OW10605   4.361   5.989   4.923 -0.1587  0.1795  0.0839
 2710SOL    HW210606   4.290   5.931   4.949  1.0972 -1.1844  0.5968
 2710SOL    HW310607   4.366   5.980   4.828  0.4695 -1.1309  0.2206
 2710SOL    MW410608   4.352   5.980   4.914 -0.0627 -0.5121 -0.1867
 2711SOL     OW10609   0.704   0.066   2.364 -0.4105  0.4022 -0.1292
 2711SOL    HW210610   0.711   0.007   2.290 -1.7060 -0.1115  0.1318
 2711SOL    HW310611   0.758   0.027   2.433  0.1619  0.4730 -0.5342
 2711SOL    MW410612   0.712   0.053   2.363 -0.1358  0.5689 -0.3923
 2712SOL     OW10613   5.833   4.037   4.292 -0.4262  0.1693  0.5080
 2712SOL    HW210614   5.779   4.005   4.364  0.5561  0.5786  1.4551
 2712SOL    HW310615   5.914   4.067   4.334 -0.3833  1.7187 -0.6000
 2712SOL    MW410616   5.837   4.037   4.307 -0.1933  0.3319 -0.4428
 2713SOL     OW10617   0.183   2.606   3.641 -0.3540 -0.7147  0.4924
 2713SOL    HW210618   0.186   2.630   3.734 -1.3288 -1.2365  0.6733
 2713SOL    HW310619   0.272   2.621   3.609 -0.1255 -0.0751  1.3963
 2713SOL    MW410620   0.195   2.611   3.649  0.4003  0.6561 -0.4867
 2714SOL     OW10621   3.327   4.979   5.689 -0.0824  0.0989  0.1904
 2714SOL    HW210622   3.396   4.944   5.745 -1.3220 -0.3922  1.4830
 2714SOL    HW310623   3.247   4.967   5.740 -1.1178  0.7242 -1.2251
 2714SOL    MW410624   3.326   4.973   5.703 -0.0255 -0.1578 -0.0541
 2715SOL     OW10625   2.142   2.099   1.224 -0.5484 -0.5857 -0.1107
 2715SOL    HW210626   2.231   2.089   1.259 -0.4358 -0.4061 -0.3435
 2715SOL    HW310627   2.096   2.020   1.251 -0.0339 -1.1467 -0.8606
 2715SOL    MW410628   2.148   2.087   1.232 -0.8266  0.5930  0.3208
 2716SOL     OW10629   2.304   1.966   0.278  0.0903 -0.1224  0.3259
 2716SOL    HW210630   2.358   2.038   0.247  2.3978 -0.4067  3.2399
 2716SOL    HW310631   2.218   2.005   0.292  0.3793  1.2045 -1.2416
 2716SOL    MW410632   2.300   1.980   0.275  0.3146  0.0929 -0.3352
 2717SOL     OW10633   2.557   3.937   0.369 -0.8555 -0.1309  0.4577
 2717SOL    HW210634   2.645   3.902   0.384 -0.7833 -1.1357 -1.8493
 2717SOL    HW310635   2.571   4.029   0.348 -0.4099 -0.1888  0.4915
 2717SOL    MW410636   2.571   3.945   0.368  0.0785  0.4134 -0.5471
 2718SOL     OW10637   0.172   3.276   6.160 -0.1891  0.8065 -0.2868
 2718SOL    HW210638   0.091   3.276   6.211  0.6235 -0.0145  1.0413
 2718SOL    HW310639   0.182   3.366   6.130 -0.7035  1.2994  0.9826
 2718SOL    MW410640   0.162   3.288   6.163  0.2026  0.0385 -0.6713
 2719SOL     OW10641   5.970   1.872   5.137  0.4319  0.3180  0.5812
 2719SOL    HW210642   5.970   1.781   5.169  0.4486  0.1321  0.0585
 2719SOL    HW310643   5.917   1.919   5.201 -0.3225 -0.2322  0.3844
 2719SOL    MW410644   5.963   1.866   5.150 -0.1498 -0.2938  0.1278
 2720SOL     OW10645   3.599   1.292   3.336 -0.3547  0.7294  0.3535
 2720SOL    HW210646   3.659   1.272   3.408 -1.4071  0.0557  1.0615
 2720SOL    HW310647   3.548   1.366   3.367 -1.0852  0.1839  0.4645
 2720SOL    MW410648   3.601   1.299   3.350 -0.7234 -0.4124  0.2336
 2721SOL     OW10649   2.572   5.185   1.156 -0.1218  0.1132 -0.1081
 2721SOL    HW210650   2.646   5.159   1.211 -0.8465 -0.6671  0.5295
 2721SOL    HW310651   2.612   5.212   1.073  0.9468  0.7253  0.5815
 2721SOL    MW410652   2.587   5.185   1.153  0.1981 -0.1883  0.4583
 2722SOL     OW10653   2.736   3.298   4.762  0.4855  0.0218  0.1065
 2722SOL    HW210654   2.641   3.294   4.766  0.5524 -2.2787  0.2385
 2722SOL    HW310655   2.754   3.335   4.675 -0.5625 -2.1607 -1.1378
 2722SOL    MW410656   2.726   3.303   4.751 -0.2909  0.6251  0.4607
 2723SOL     OW10657   1.679   6.265   0.891 -0.7226  0.0555 -0.7386
 2723SOL    HW210658   1.673   6.212   0.970  0.7353  1.5299  0.4501
 2723SOL    HW310659   1.630   6.216   0.824 -2.1904 -1.1302  1.1076
 2723SOL    MW410660   1.672   6.252   0.892 -0.0873  0.2577  0.6045
 2724SOL     OW10661   1.408   0.392   2.707  0.2578 -0.0464 -0.5714
 2724SOL    HW210662   1.479   0.434   2.755  0.1982 -1.2932  0.6681
 2724SOL    HW310663   1.450   0.355   2.629  1.2327 -1.6913  0.6687
 2724SOL    MW410664   1.423   0.392   2.703 -0.3256 -0.8659  0.0625
 2725SOL     OW10665   6.096   2.755   5.837 -0.3404  0.7208  0.0407
 2725SOL    HW210666   6.083   2.661   5.848 -1.7320  1.0193  1.2059
 2725SOL    HW310667   6.169   2.776   5.895  1.2270  0.1095 -1.5955
 2725SOL    MW410668   6.104   2.745   5.846 -0.6152  0.1783 -0.3422
 2726SOL     OW10669   0.507   1.406   4.940 -0.3841  0.3192 -0.0080
 2726SOL    HW210670   0.470   1.444   4.861  1.2334 -0.4939 -1.2310
 2726SOL    HW310671   0.598   1.385   4.916  0.2767  0.4108  2.1869
 2726SOL    MW410672   0.514   1.408   4.926 -0.6540  0.0137  0.2987
 2727SOL     OW10673   3.222   3.532   5.109 -0.0752  0.9374 -0.6366
 2727SOL    HW210674   3.184   3.452   5.072 -1.4633  0.4845  1.5928
 2727SOL    HW310675   3.203   3.600   5.044  1.1102 -0.4723 -2.5663
 2727SOL    MW410676   3.215   3.530   5.096 -0.2898 -0.0872  0.1289
 2728SOL     OW10677   4.956   1.727   5.286  0.5535  0.2240 -0.3561
 2728SOL    HW210678   4.908   1.779   5.350  0.0569  1.8621 -1.9891
 2728SOL    HW310679   5.034   1.698   5.333  0.6199  2.0552  0.7492
 2728SOL    MW410680   4.960   1.730   5.301 -0.1087 -0.4051  0.1907
 2729SOL     OW10681   4.043   3.953   6.318 -0.2578 -0.0870 -0.3593
 2729SOL    HW210682   4.136   3.933   6.313 -0.1289  0.6364 -1.2530
 2729SOL    HW310683   4.006   3.917   6.237 -0.3563  1.4336 -1.0372
 2729SOL    MW410684   4.051   3.946   6.306 -0.6355  0.4801 -0.2399
 2730SOL     OW10685   5.769   4.181   0.217 -0.6822 -0.1783 -0.4273
 2730SOL    HW210686   5.784   4.275   0.206 -1.3763  0.0123  0.1750
 2730SOL    HW310687   5.733   4.153   0.133  1.3485 -0.3200 -1.3153
 2730SOL    MW410688   5.766   4.190   0.205  0.6731 -0.4828 -0.2753
 2731SOL     OW10689   2.333   6.402   1.588 -0.2022  0.0835  0.0814
 2731SOL    HW210690   2.290   6.405   1.673 -0.0550 -1.3751  0.2364
 2731SOL    HW310691   2.272   6.354   1.532  0.7241 -1.0637  0.0191
 2731SOL    MW410692   2.319   6.396   1.592 -0.3684 -0.3363  0.2375
 2732SOL     OW10693   2.761   1.404   5.385  0.1991 -0.1913 -0.3122
 2732SOL    HW210694   2.757   1.309   5.388 -1.9691 -0.1223  0.6368
 2732SOL    HW310695   2.671   1.432   5.366  0.8956  1.6641 -1.1525
 2732SOL    MW410696   2.749   1.395   5.383  0.0050 -0.4249 -0.1801
 2733SOL     OW10697   3.523   5.230   0.028 -0.3905 -0.0607 -0.0823
 2733SOL    HW210698   3.442   5.182   0.046 -0.1921 -0.6368 -0.7218
 2733SOL    HW310699   3.593   5.171   0.054 -0.1298 -0.4097 -1.4907
 2733SOL    MW410700   3.521   5.216   0.034  0.2814  0.0703 -0.1187
 2734SOL     OW10701   3.888   3.104   1.451  0.1274  0.4817 -0.6001
 2734SOL    HW210702   3.841   3.109   1.368 -1.4046  0.6952  0.2583
 2734SOL    HW310703   3.947   3.029   1.440  0.8601  1.2674 -2.3148
 2734SOL    MW410704   3.890   3.094   1.439  0.2655 -0.5842  0.2294
 2735SOL     OW10705   3.319   4.345   0.625  0.0826  0.3761  0.0566
 2735SOL    HW210706   3.370   4.321   0.547 -0.5025 -0.8698  0.0322
 2735SOL    HW310707   3.229   4.351   0.594 -0.3568 -1.4233  0.8529
 2735SOL    MW410708   3.314   4.343   0.610  0.1604 -0.0085  0.7690
 2736SOL     OW10709   1.374   1.111   5.606 -0.1285  0.4021  0.0853
 2736SOL    HW210710   1.310   1.164   5.653 -0.0852  0.2555  0.3108
 2736SOL    HW310711   1.349   1.021   5.624 -0.7611  0.3254 -1.0568
 2736SOL    MW410712   1.363   1.106   5.614  0.1176  0.5920  0.3054
 2737SOL     OW10713   1.082   0.083   5.935  0.2691  0.6117  0.2743
 2737SOL    HW210714   1.103   0.078   5.841 -2.0797  0.8693 -0.3387
 2737SOL    HW310715   1.109   0.171   5.961  0.0775  0.8851 -0.4122
 2737SOL    MW410716   1.088   0.094   5.926  0.1272  0.3345  0.2555
 2738SOL     OW10717   2.636   2.495   3.717 -0.2648  0.2038  0.2830
 2738SOL    HW210718   2.668   2.509   3.806  1.0727 -0.1876 -0.1096
 2738SOL    HW310719   2.715   2.479   3.665 -0.9661  0.9699 -1.0878
 2738SOL    MW410720   2.651   2.495   3.722 -0.1004 -0.7287  0.5059
 2739SOL     OW10721   3.114   2.503   6.109 -0.2802  0.7169  0.2904
 2739SOL    HW210722   3.028   2.543   6.093 -0.1672  1.0054  0.3917
 2739SOL    HW310723   3.155   2.560   6.175  0.4532  1.2430 -0.6032
 2739SOL    MW410724   3.108   2.516   6.116  0.0287 -0.2389  0.2458
 2740SOL     OW10725   2.146   4.771   1.152 -0.3057  0.0468  0.3554
 2740SOL    HW210726   2.109   4.804   1.070 -0.7960 -2.0632 -0.3369
 2740SOL    HW310727   2.225   4.723   1.125 -0.4493 -0.6419  1.1070
 2740SOL    MW410728   2.152   4.769   1.138 -0.1857 -0.1040 -0.0926
 2741SOL     OW10729   2.729   6.066   4.659  0.2235 -0.0665 -0.4124
 2741SOL    HW210730   2.763   6.141   4.609  0.3682 -0.2755 -0.6272
 2741SOL    HW310731   2.732   6.096   4.750 -0.2617  0.4033 -0.5432
 2741SOL    MW410732   2.734   6.080   4.665 -0.4320 -0.1219 -0.7002
 2742SOL     OW10733   1.977   6.371   4.535 -0.4741 -0.2236  0.5217
 2742SOL    HW210734   2.058   6.421   4.548  0.0082 -0.7484 -0.3387
 2742SOL    HW310735   1.975   6.354   4.441 -1.0650 -1.0891  0.6815
 2742SOL    MW410736   1.987   6.376   4.524  0.3837 -0.4931  0.3149
 2743SOL     OW10737   5.015   3.462   6.121  0.7976  0.0026  0.1463
 2743SOL    HW210738   4.939   3.430   6.073  1.6638 -0.8689 -0.6794
 2743SOL    HW310739   5.003   3.428   6.210  0.0037  0.2386  0.1287
 2743SOL    MW410740   5.004   3.453   6.127 -0.5563 -0.2130  0.1069
 2744SOL     OW10741   1.028   3.330   6.202 -0.1525  0.0192  0.2708
 2744SOL    HW210742   0.967   3.289   6.263 -1.4637  1.4313 -0.0212
 2744SOL    HW310743   0.971   3.371   6.136  1.1880 -0.3648 -1.1637
 2744SOL    MW410744   1.012   3.330   6.201 -0.1384 -0.2071 -0.1053
 2745SOL     OW10745   3.083   4.113   4.908 -0.2160  0.5031  0.1315
 2745SOL    HW210746   3.065   4.147   4.821  0.6413  2.3212  0.6094
 2745SOL    HW310747   3.111   4.190   4.958  1.1420 -0.8110  1.4815
 2745SOL    MW410748   3.085   4.128   4.903 -0.3550  0.3834  0.9383
 2746SOL     OW10749   0.365   6.026   2.865 -0.0912  0.5786  0.3310
 2746SOL    HW210750   0.434   5.968   2.831  0.3106  1.2186  0.0409
 2746SOL    HW310751   0.392   6.045   2.955  0.1047  0.8121  0.2245
 2746SOL    MW410752   0.378   6.021   2.872  0.0555  0.1542 -0.3452
 2747SOL     OW10753   2.186   2.881   1.637  0.4644 -0.3803 -0.7017
 2747SOL    HW210754   2.202   2.799   1.683 -0.3638 -0.5184 -0.6341
 2747SOL    HW310755   2.090   2.886   1.631  0.4985  0.6928 -0.4965
 2747SOL    MW410756   2.175   2.871   1.642  0.3431  0.3219  0.4387
 2748SOL     OW10757   5.086   3.821   4.215 -0.6425 -0.5737 -0.5436
 2748SOL    HW210758   5.079   3.868   4.297 -2.2219 -0.5741 -0.6544
 2748SOL    HW310759   5.144   3.875   4.161 -0.6943  0.1271  0.0909
 2748SOL    MW410760   5.093   3.834   4.218 -0.5680 -0.0291  0.0928
 2749SOL     OW10761   1.870   2.783   4.845  0.2202  0.4848 -0.4242
 2749SOL    HW210762   1.901   2.739   4.924 -1.0690 -2.0867 -1.2065
 2749SOL    HW310763   1.949   2.795   4.792  0.9712  1.4993  0.8598
 2749SOL    MW410764   1.885   2.779   4.848 -0.2121 -0.0545  0.2728
 2750SOL     OW10765   0.777   4.098   2.068  0.5880  0.2429  0.6890
 2750SOL    HW210766   0.740   4.186   2.072  0.4038  0.1423  1.2940
 2750SOL    HW310767   0.777   4.067   2.159  2.9758  0.5751  0.8663
 2750SOL    MW410768   0.772   4.105   2.080  0.6203  0.2311  0.2883
 2751SOL     OW10769   0.448   3.135   1.887  0.0383  0.0892 -0.2387
 2751SOL    HW210770   0.502   3.130   1.967  0.6309  0.5102 -0.6035
 2751SOL    HW310771   0.474   3.059   1.836 -0.3018 -0.1501 -0.0607
 2751SOL    MW410772   0.459   3.124   1.891 -0.1986 -0.0700 -0.6154
 2752SOL     OW10773   1.730   4.397   2.714  0.1954  0.2145  0.5800
 2752SOL    HW210774   1.647   4.407   2.667  0.0716 -1.9921  0.2151
 2752SOL    HW310775   1.795   4.388   2.645  0.9436  2.8625  0.8528
 2752SOL    MW410776   1.727   4.397   2.699  0.2942  0.5807 -0.3000
 2753SOL     OW10777   4.900   2.101   2.602 -0.1244  0.3870 -0.1295
 2753SOL    HW210778   4.822   2.087   2.547 -1.3319  0.0414  1.5833
 2753SOL    HW310779   4.896   2.193   2.626  0.6102  0.6276 -0.9019
 2753SOL    MW410780   4.889   2.111   2.598 -0.0635  0.2334  0.6220
 2754SOL     OW10781   1.670   6.232   0.469  0.3728  0.2483 -0.6457
 2754SOL    HW210782   1.652   6.175   0.395  0.0522  0.1187 -0.4706
 2754SOL    HW310783   1.646   6.180   0.546 -0.7584  0.9337 -0.5270
 2754SOL    MW410784   1.665   6.218   0.469 -0.5967  0.0046  0.0833
 2755SOL     OW10785   0.214   0.858   5.144 -0.5725 -0.4053  0.1122
 2755SOL    HW210786   0.284   0.848   5.209  0.3409 -0.0940 -0.8088
 2755SOL    HW310787   0.194   0.951   5.145 -0.3022 -0.3427 -0.3151
 2755SOL    MW410788   0.221   0.869   5.153 -0.0902  0.3954 -0.3933
 2756SOL     OW10789   3.086   4.007   4.592 -0.3377 -0.0227  0.0443
 2756SOL    HW210790   3.071   3.994   4.498  0.6243 -0.5175 -0.0557
 2756SOL    HW310791   3.124   3.924   4.622 -1.4403 -0.1943  1.0655
 2756SOL    MW410792   3.089   3.994   4.584 -0.0220  0.5884 -0.3434
 2757SOL     OW10793   5.277   0.557   6.044  0.1846 -0.2085 -0.2786
 2757SOL    HW210794   5.290   0.615   6.120  0.2295 -0.5769 -0.0045
 2757SOL    HW310795   5.199   0.506   6.065  0.1032 -0.1999 -0.5521
 2757SOL    MW410796   5.268   0.558   6.057  0.0963  0.1792 -0.9799
 2758SOL     OW10797   4.785   5.241   1.325  0.0179  0.3021 -0.0922
 2758SOL    HW210798   4.735   5.322   1.334 -1.0896 -0.3661 -0.0164
 2758SOL    HW310799   4.850   5.245   1.395 -1.1652  0.3409  1.0473
 2758SOL    MW410800   4.787   5.252   1.336  0.0069  0.3043  0.1815
 2759SOL     OW10801   2.916   3.162   2.447  0.0372 -0.1972 -0.2080
 2759SOL    HW210802   3.006   3.153   2.479  0.5886  1.1645 -1.2789
 2759SOL    HW310803   2.871   3.085   2.481  1.9717 -1.7102 -0.8941
 2759SOL    MW410804   2.922   3.151   2.456 -0.6014  0.4677  0.1455
 2760SOL     OW10805   2.262   1.884   4.479  0.5834  0.2716 -0.0069
 2760SOL    HW210806   2.288   1.832   4.555  1.8378 -0.1571 -0.6974
 2760SOL    HW310807   2.286   1.974   4.503 -1.7213  0.6201  1.2468
 2760SOL    MW410808   2.269   1.889   4.492  0.4746 -0.3418  0.0449
 2761SOL     OW10809   5.416   0.391   1.799  0.0823  0.2243 -0.5412
 2761SOL    HW210810   5.439   0.479   1.770 -0.1961  0.2885 -0.5680
 2761SOL    HW310811   5.495   0.360   1.844 -0.4574  1.2102  1.1696
 2761SOL    MW410812   5.430   0.399   1.801 -0.5026  0.0891  0.3030
 2762SOL     OW10813   4.709   1.309   3.446 -0.3910 -0.5507 -0.0486
 2762SOL    HW210814   4.656   1.378   3.486  0.1000 -0.2177  0.0408
 2762SOL    HW310815   4.798   1.328   3.474 -0.0241 -0.3022 -1.3158
 2762SOL    MW410816   4.714   1.321   3.455  0.3476  0.6948  0.4045
 2763SOL     OW10817   1.486   1.097   5.887  0.1604 -0.2322 -0.1511
 2763SOL    HW210818   1.552   1.079   5.954 -0.1474  0.2547  0.2875
 2763SOL    HW310819   1.405   1.112   5.936  0.1900  1.3560 -0.5452
 2763SOL    MW410820   1.484   1.096   5.903 -0.5571 -0.0504 -0.1902
 2764SOL     OW10821   2.841   1.598   0.377 -0.1583  0.0144  0.4744
 2764SOL    HW210822   2.824   1.686   0.409  1.4301  0.1810  0.9409
 2764SOL    HW310823   2.798   1.540   0.440 -0.0423  0.4388  0.9483
 2764SOL    MW410824   2.833   1.602   0.389 -0.2183  0.1833 -0.1870
 2765SOL     OW10825   1.159   2.213   0.956  0.5060  0.4440 -0.7952
 2765SOL    HW210826   1.088   2.187   0.897 -1.0449 -0.3651  1.3390
 2765SOL    HW310827   1.161   2.308   0.950 -1.4630  0.5616 -0.1419
 2765SOL    MW410828   1.150   2.222   0.947  0.6935 -0.7422 -0.3856
 2766SOL     OW10829   0.978   4.913   1.752 -1.1961 -0.1313 -0.0453
 2766SOL    HW210830   0.938   4.994   1.722  1.4340  1.6321  0.8666
 2766SOL    HW310831   0.968   4.914   1.847 -0.0055 -0.1823  0.0970
 2766SOL    MW410832   0.972   4.923   1.760  0.0228  0.1644  0.3757
 2767SOL     OW10833   6.235   4.215   0.659  0.5020 -0.0462  0.1899
 2767SOL    HW210834   6.218   4.274   0.733 -0.8934 -0.0702 -0.0938
 2767SOL    HW310835   6.331   4.206   0.658  0.6104  0.6863  1.4165
 2767SOL    MW410836   6.246   4.222   0.669  0.1389  0.4716 -0.6935
 2768SOL     OW10837   0.338   5.407   0.298  0.0172  0.2021 -0.0656
 2768SOL    HW210838   0.401   5.479   0.304 -1.3831  1.7699 -2.3737
 2768SOL    HW310839   0.364   5.359   0.220  0.3010 -1.2042  0.8666
 2768SOL    MW410840   0.350   5.410   0.289 -0.0086 -0.0020  0.2226
 2769SOL     OW10841   0.295   3.985   2.446  0.7936  0.6310  0.0187
 2769SOL    HW210842   0.218   4.041   2.450  0.2222 -0.1370 -0.1517
 2769SOL    HW310843   0.286   3.925   2.519  1.8872  1.3412  0.7731
 2769SOL    MW410844   0.284   3.985   2.456  0.3727  0.1501 -0.5840
 2770SOL     OW10845   1.914   6.019   2.077 -0.0720  0.5467 -0.3881
 2770SOL    HW210846   1.856   5.952   2.042  1.1688 -1.7146  1.5687
 2770SOL    HW310847   1.970   6.044   2.004 -1.4321  0.5161 -1.4895
 2770SOL    MW410848   1.914   6.014   2.063 -0.1544 -0.0206 -0.1232
 2771SOL     OW10849   6.094   5.332   4.080 -0.4227  0.1680 -0.2667
 2771SOL    HW210850   6.058   5.417   4.107  1.0509  0.7092  0.0533
 2771SOL    HW310851   6.054   5.315   3.995 -1.5979  0.6306  0.1720
 2771SOL    MW410852   6.084   5.341   4.073  0.1698 -0.6039 -0.1575
 2772SOL     OW10853   5.308   2.095   2.504 -0.0850  0.0411  0.1395
 2772SOL    HW210854   5.267   2.056   2.427 -1.2167  2.9100 -0.8396
 2772SOL    HW310855   5.397   2.059   2.505 -0.0514 -0.1378 -2.5030
 2772SOL    MW410856   5.314   2.085   2.494 -0.0904 -0.8029  0.4269
 2773SOL     OW10857   4.222   2.594   5.181 -0.6178 -0.1791  0.2542
 2773SOL    HW210858   4.173   2.675   5.169  0.0860  0.3424  0.7993
 2773SOL    HW310859   4.302   2.607   5.129 -0.2770 -0.3094  0.7380
 2773SOL    MW410860   4.226   2.607   5.173  0.0878  0.1521 -0.0597
 2774SOL     OW10861   1.793   0.677   5.327 -0.1364  0.0932  0.4223
 2774SOL    HW210862   1.834   0.728   5.397 -2.3672  0.5424  1.4779
 2774SOL    HW310863   1.778   0.590   5.365 -1.4271  0.3608  0.5778
 2774SOL    MW410864   1.796   0.672   5.341  0.1046  0.4893 -0.2027
 2775SOL     OW10865   5.038   0.509   4.792 -0.8154  0.3197 -0.0180
 2775SOL    HW210866   4.954   0.476   4.760 -1.1922  1.2939 -0.0624
 2775SOL    HW310867   5.046   0.472   4.880 -0.1059 -1.7993 -0.9085
 2775SOL    MW410868   5.028   0.500   4.799  0.2985 -0.5955 -0.0402
 2776SOL     OW10869   0.941   2.935   0.028  0.6907  0.1092 -0.2732
 2776SOL    HW210870   0.923   3.010  -0.029  0.8793 -0.3820 -0.9935
 2776SOL    HW310871   0.887   2.950   0.106  0.5714  0.8838 -0.5001
 2776SOL    MW410872   0.932   2.947   0.031 -0.1092 -0.2715 -0.5392
 2777SOL     OW10873   6.396   2.869   4.889 -0.5817 -0.3423 -0.1216
 2777SOL    HW210874   6.474   2.913   4.922  1.1003 -3.3192  0.2392
 2777SOL    HW310875   6.323   2.924   4.918  1.2413  1.5308  1.2228
 2777SOL    MW410876   6.397   2.882   4.897  0.0690 -0.2464 -0.3040
 2778SOL     OW10877   0.020   6.333   5.894  0.0690  0.0568  0.3554
 2778SOL    HW210878   0.055   6.285   5.969  0.6776  0.1499  0.1348
 2778SOL    HW310879  -0.052   6.279   5.862  0.2233 -0.3020  0.6099
 2778SOL    MW410880   0.015   6.320   5.900  0.3405 -0.3989 -0.1297
 2779SOL     OW10881   3.685   3.794   0.500 -0.0589 -0.4182 -0.1171
 2779SOL    HW210882   3.610   3.740   0.527 -0.1792 -0.2731 -0.1595
 2779SOL    HW310883   3.654   3.884   0.508  0.4380 -0.3254  0.8211
 2779SOL    MW410884   3.671   3.799   0.504 -0.4476 -0.0655 -0.1109
 2780SOL     OW10885   2.173   0.420   1.114 -0.3080 -0.2117 -0.4945
 2780SOL    HW210886   2.175   0.355   1.184 -0.4478  0.8898  0.5701
 2780SOL    HW310887   2.094   0.471   1.131 -0.2857  0.1478 -1.3993
 2780SOL    MW410888   2.163   0.419   1.125  0.4017  0.5529 -0.4169
 2781SOL     OW10889   6.049   0.698   4.204 -0.5424 -0.1075  0.1419
 2781SOL    HW210890   6.082   0.628   4.260 -0.2201  0.8301  1.1485
 2781SOL    HW310891   6.075   0.672   4.115  1.1297 -0.3860  0.6863
 2781SOL    MW410892   6.057   0.685   4.200 -0.2646 -0.1090 -0.2095
 2782SOL     OW10893   4.341   0.962   4.277  0.5365  0.0118 -0.0181
 2782SOL    HW210894   4.283   1.032   4.306 -0.1239  0.8233 -3.0392
 2782SOL    HW310895   4.418   1.008   4.243  1.7120 -0.9490  1.2110
 2782SOL    MW410896   4.344   0.977   4.276  0.0739 -0.5079  0.0912
 2783SOL     OW10897   5.183   4.485   0.848  0.5812 -0.0210  0.0454
 2783SOL    HW210898   5.142   4.424   0.909 -1.1432  2.2250  1.3270
 2783SOL    HW310899   5.233   4.545   0.904  0.9905  0.6347 -0.9875
 2783SOL    MW410900   5.184   4.485   0.864 -0.0030  0.0495  0.5291
 2784SOL     OW10901   2.195   3.487   4.566  0.1036  0.0578 -0.1686
 2784SOL    HW210902   2.198   3.574   4.604 -0.4500 -1.5668  4.2378
 2784SOL    HW310903   2.281   3.449   4.584  0.7225 -0.0854 -2.9788
 2784SOL    MW410904   2.206   3.493   4.574  0.2866  0.0236 -0.0047
 2785SOL     OW10905   5.524   0.864   2.555  0.2359  0.3118  0.2473
 2785SOL    HW210906   5.606   0.833   2.594 -0.1357  1.6600  2.2827
 2785SOL    HW310907   5.537   0.958   2.542 -1.4294  0.8597  2.0405
 2785SOL    MW410908   5.537   0.872   2.559  0.1794  0.5963 -0.2741
 2786SOL     OW10909   1.594   3.028   5.752 -0.2828 -0.3468 -0.0854
 2786SOL    HW210910   1.590   3.068   5.839 -2.4753  1.6857 -0.9997
 2786SOL    HW310911   1.661   3.078   5.706 -0.3372 -0.2644 -0.0757
 2786SOL    MW410912   1.602   3.040   5.757  0.1453  0.3630  0.4902
 2787SOL     OW10913   4.605   4.701   0.594 -0.0437 -0.3076  0.7050
 2787SOL    HW210914   4.551   4.718   0.671 -0.8918 -0.3418  0.1446
 2787SOL    HW310915   4.619   4.606   0.595  1.2655 -0.1194  1.6457
 2787SOL    MW410916   4.600   4.691   0.604 -0.8264 -0.2858  0.2262
 2788SOL     OW10917   4.451   0.584   0.711 -0.2562  0.3820 -0.9031
 2788SOL    HW210918   4.390   0.625   0.771  1.5050 -0.4126  1.5823
 2788SOL    HW310919   4.452   0.492   0.737  2.9936  0.6022  0.1684
 2788SOL    MW410920   4.443   0.577   0.722  0.4743 -0.7585 -0.5670
 2789SOL     OW10921   3.234   0.431   5.796  0.7341  0.1065  0.0100
 2789SOL    HW210922   3.285   0.422   5.877 -0.3685  0.5682  0.7654
 2789SOL    HW310923   3.191   0.346   5.786  0.6751  0.1325  0.0430
 2789SOL    MW410924   3.235   0.418   5.805 -0.6117  0.1994  0.0084
 2790SOL     OW10925   3.663   1.622   3.339  0.2366  0.0874  0.0952
 2790SOL    HW210926   3.628   1.607   3.251  0.3690  1.7082 -0.2693
 2790SOL    HW310927   3.737   1.561   3.346  0.0459 -0.2655 -0.8049
 2790SOL    MW410928   3.668   1.612   3.328  0.2397 -0.2291  0.1118
 2791SOL     OW10929   0.405   2.623   3.468 -0.1524  0.3172 -0.5875
 2791SOL    HW210930   0.453   2.704   3.450  0.2579  0.0923 -0.5286
 2791SOL    HW310931   0.466   2.570   3.519 -0.3048 -0.1547 -0.8911
 2791SOL    MW410932   0.419   2.627   3.473  0.0948  0.0564 -0.5732
 2792SOL     OW10933   0.525   1.486   2.957  0.0620 -0.0523  0.2125
 2792SOL    HW210934   0.542   1.397   2.989 -0.9557 -0.1303  0.5754
 2792SOL    HW310935   0.527   1.540   3.036  0.4320  0.2138  0.0227
 2792SOL    MW410936   0.528   1.481   2.972  0.1776 -0.4970  0.9747
 2793SOL     OW10937   0.181   1.806   5.114  0.0185  0.5879  0.0557
 2793SOL    HW210938   0.118   1.742   5.082  0.4974 -0.7193  1.5526
 2793SOL    HW310939   0.133   1.888   5.116 -0.7808  0.1837 -1.4329
 2793SOL    MW410940   0.166   1.808   5.110 -0.2701  0.1999  0.0625
 2794SOL     OW10941   2.386   1.745   0.952 -0.7036 -0.1273  0.7483
 2794SOL    HW210942   2.341   1.672   0.994  0.4976 -1.4581 -0.1771
 2794SOL    HW310943   2.473   1.711   0.932 -0.4114  1.2721 -0.5377
 2794SOL    MW410944   2.392   1.731   0.955  0.2506  0.4313  0.4052
 2795SOL     OW10945   3.157   3.808   5.272 -0.5974 -0.0825  0.2049
 2795SOL    HW210946   3.097   3.734   5.277 -0.7184 -0.3972 -3.5336
 2795SOL    HW310947   3.102   3.882   5.247  0.1028  0.4151  0.1091
 2795SOL    MW410948   3.142   3.808   5.270  0.3112 -0.3147  0.4349
 2796SOL     OW10949   0.349   4.786   1.657 -0.4093 -0.5936 -0.1517
 2796SOL    HW210950   0.364   4.851   1.589  2.4762 -0.5724  0.3822
 2796SOL    HW310951   0.330   4.836   1.736  0.6056 -0.4139 -0.0097
 2796SOL    MW410952   0.348   4.801   1.659 -0.0107  0.3964  0.9646
 2797SOL     OW10953   0.631   3.816   0.500 -0.0119 -0.2822 -0.3369
 2797SOL    HW210954   0.669   3.735   0.536  0.1732 -0.1077 -0.1409
 2797SOL    HW310955   0.673   3.886   0.549  0.3595 -0.0313 -1.0011
 2797SOL    MW410956   0.642   3.814   0.511  0.2492  0.0410  0.1267
 2798SOL     OW10957   4.123   1.304   5.375  0.4195 -0.2083  0.2800
 2798SOL    HW210958   4.160   1.254   5.448  1.6388 -1.7175 -1.2778
 2798SOL    HW310959   4.195   1.360   5.346  0.0296  0.1919  0.0818
 2798SOL    MW410960   4.138   1.305   5.381  0.4779  0.1641  0.1825
 2799SOL     OW10961   5.294   4.033   1.470 -0.3521 -0.4919  0.4014
 2799SOL    HW210962   5.328   3.989   1.393  0.3920  0.2400  0.2894
 2799SOL    HW310963   5.213   4.075   1.441  0.3983  0.5592 -0.2521
 2799SOL    MW410964   5.288   4.033   1.456  0.0678 -0.0294  0.1168
 2800SOL     OW10965   5.358   2.562   2.416  0.4256  0.5507  0.3224
 2800SOL    HW210966   5.392   2.554   2.505  1.5687  0.7882 -0.0690
 2800SOL    HW310967   5.414   2.629   2.376  1.4615 -1.1868 -1.2745
 2800SOL    MW410968   5.370   2.570   2.422 -0.1311  0.0850 -0.0332
 2801SOL     OW10969   0.468   2.995   0.092 -0.2844 -0.1830 -0.7504
 2801SOL    HW210970   0.390   2.962   0.047 -0.4243  0.4573 -0.9855
 2801SOL    HW310971   0.523   2.918   0.104 -0.7439 -0.5568 -1.0081
 2801SOL    MW410972   0.465   2.980   0.088 -0.5025 -0.1088  0.0426
 2802SOL     OW10973   3.106   0.852   0.047 -0.1627  0.3328  0.6890
 2802SOL    HW210974   3.049   0.818  -0.022  0.3735 -0.0628  0.4266
 2802SOL    HW310975   3.140   0.934   0.012 -2.5359  1.9152  1.8829
 2802SOL    MW410976   3.103   0.858   0.033  0.3159  0.1207  0.3563
 2803SOL     OW10977   2.274   2.015   2.544  0.2814  0.0662  0.1817
 2803SOL    HW210978   2.262   2.110   2.539 -1.7294 -0.2132 -1.9840
 2803SOL    HW310979   2.342   1.995   2.480 -0.2811 -0.0578 -0.3903
 2803SOL    MW410980   2.281   2.025   2.535  0.7654 -0.1707 -0.4604
 2804SOL     OW10981   1.481   2.047   1.969  0.2170  0.5663  0.1390
 2804SOL    HW210982   1.469   2.029   2.062 -1.4892  2.8891  0.4353
 2804SOL    HW310983   1.476   1.960   1.927  0.5105 -0.4638  2.1180
 2804SOL    MW410984   1.479   2.033   1.976  0.2915 -0.0489 -0.2432
 2805SOL     OW10985   4.478   5.385   5.732 -0.4350  0.1763  0.2466
 2805SOL    HW210986   4.509   5.474   5.716 -2.1398  0.9391  0.9286
 2805SOL    HW310987   4.391   5.383   5.692 -0.8143 -0.8739  1.0890
 2805SOL    MW410988   4.471   5.397   5.725 -0.4626 -0.2534  0.4605
 2806SOL     OW10989   2.584   5.406   3.683  0.1664 -0.7283 -0.1219
 2806SOL    HW210990   2.495   5.415   3.716  1.1260 -1.7149  3.1293
 2806SOL    HW310991   2.577   5.341   3.613 -1.5593 -1.5936  0.7757
 2806SOL    MW410992   2.571   5.398   3.678  0.2939 -0.3478 -0.5008
 2807SOL     OW10993   3.431   5.988   1.344 -0.0134  0.0752  0.0043
 2807SOL    HW210994   3.481   5.917   1.385 -0.8876 -0.4285  0.2200
 2807SOL    HW310995   3.412   5.956   1.256 -1.9373 -0.7477  0.6756
 2807SOL    MW410996   3.435   5.974   1.338 -0.8652  0.4163  0.1386
 2808SOL     OW10997   1.583   0.919   2.232 -0.0135 -0.2071 -0.1191
 2808SOL    HW210998   1.654   0.964   2.278 -0.4208  1.6605 -1.2134
 2808SOL    HW310999   1.623   0.839   2.199  0.2691 -1.7123  3.4704
 2808SOL    MW411000   1.598   0.914   2.234 -0.1094 -0.0982  0.1428
 2809SOL     OW11001   2.857   0.629   0.427  0.6442 -0.2097  0.2370
 2809SOL    HW211002   2.921   0.692   0.461  0.4216 -0.8813  2.0190
 2809SOL    HW311003   2.791   0.683   0.382  2.0937  0.5389 -1.1074
 2809SOL    MW411004   2.857   0.644   0.425 -0.3309  0.2450 -0.2271
 2810SOL     OW11005   3.170   4.217   0.169  0.6603 -0.3260 -0.0339
 2810SOL    HW211006   3.135   4.167   0.243  0.6324  0.8913  0.8084
 2810SOL    HW311007   3.240   4.161   0.134  1.8948 -0.2103  2.0304
 2810SOL    MW411008   3.175   4.203   0.175 -0.0684 -0.7452 -0.6666
 2811SOL     OW11009   4.854   4.249   3.904 -0.6469  0.3709  0.0088
 2811SOL    HW211010   4.862   4.153   3.909  2.9425  0.5009 -0.6254
 2811SOL    HW311011   4.811   4.265   3.820 -2.8780 -0.6274  0.8791
 2811SOL    MW411012   4.850   4.238   3.894 -0.4807  0.6013  0.0475
 2812SOL     OW11013   3.966   4.659   1.327  0.0555 -0.6344 -0.2485
 2812SOL    HW211014   3.903   4.588   1.346 -0.6951 -0.1187 -0.7727
 2812SOL    HW311015   4.044   4.614   1.294 -0.7307 -1.1765 -1.4220
 2812SOL    MW411016   3.968   4.643   1.325  0.3199  0.2346  0.6414
 2813SOL     OW11017   0.798   4.043   0.074  0.7885 -0.3260  0.2817
 2813SOL    HW211018   0.835   3.958   0.053 -1.6699 -1.2864 -0.5877
 2813SOL    HW311019   0.789   4.087  -0.010 -1.5526 -0.8699  0.1707
 2813SOL    MW411020   0.801   4.037   0.061  0.0837 -0.6695  0.6923
 2814SOL     OW11021   3.325   0.799   2.913  0.0401  0.4491 -0.3546
 2814SOL    HW211022   3.409   0.824   2.874  0.4748 -1.5922 -0.8183
 2814SOL    HW311023   3.298   0.721   2.865 -0.9517 -0.3176  1.3478
 2814SOL    MW411024   3.333   0.792   2.902  0.2060  0.2250  0.0269
 2815SOL     OW11025   2.140   2.993   5.875  0.2944  0.3661 -0.3688
 2815SOL    HW211026   2.106   2.913   5.836 -1.0275  0.6280  0.2066
 2815SOL    HW311027   2.130   2.980   5.969 -2.5972  2.2736 -0.2909
 2815SOL    MW411028   2.135   2.980   5.882 -0.0807  0.1770 -0.0189
 2816SOL     OW11029   5.873   4.545   5.555 -0.5123 -0.1348  0.2539
 2816SOL    HW211030   5.829   4.552   5.640 -1.2462 -1.7238  0.0335
 2816SOL    HW311031   5.814   4.493   5.501 -0.9953  2.4528 -1.9228
 2816SOL    MW411032   5.860   4.539   5.559  0.0059  0.2011 -0.0947
 2817SOL     OW11033   0.345   2.184   4.457 -0.5610 -0.7956 -0.4014
 2817SOL    HW211034   0.266   2.194   4.404 -0.7488 -2.3853 -0.4622
 2817SOL    HW311035   0.314   2.152   4.542 -0.1093  0.1134  0.1309
 2817SOL    MW411036   0.331   2.181   4.461 -0.1853 -0.4314 -0.1499
 2818SOL     OW11037   1.294   6.243   1.993 -0.7397 -0.0904  0.1323
 2818SOL    HW211038   1.312   6.319   2.048  0.4638  1.3399 -2.0838
 2818SOL    HW311039   1.200   6.248   1.975 -0.3187  2.5328 -2.0798
 2818SOL    MW411040   1.284   6.254   1.998 -0.3783 -0.2191 -0.0020
 2819SOL     OW11041   6.259   5.955   5.944 -0.1915 -0.0532  0.0645
 2819SOL    HW211042   6.282   6.023   5.880  1.5089 -0.4021  0.2319
 2819SOL    HW311043   6.173   5.924   5.916  1.3838 -1.8325 -3.6206
 2819SOL    MW411044   6.251   5.960   5.932  0.2144 -0.0229 -0.1446
 2820SOL     OW11045   6.023   0.600   5.847  0.6322  0.3681 -0.1537
 2820SOL    HW211046   5.993   0.566   5.931  0.0852  0.5107 -0.2852
 2820SOL    HW311047   5.943   0.630   5.803  1.2957  5.4408  1.4841
 2820SOL    MW411048   6.008   0.599   5.852 -0.0178  0.0464 -0.3300
 2821SOL     OW11049   3.268   3.849   1.814  0.2226 -0.0346 -0.2862
 2821SOL    HW211050   3.351   3.895   1.800 -0.7389  2.4078  1.3328
 2821SOL    HW311051   3.213   3.874   1.740  0.4152 -0.4257 -0.5665
 2821SOL    MW411052   3.272   3.858   1.802  0.3687  0.2361  0.5594
 2822SOL     OW11053   4.724   3.250   3.000  0.2025 -0.1916 -0.1802
 2822SOL    HW211054   4.802   3.199   3.024  0.4916 -0.5538 -1.7437
 2822SOL    HW311055   4.719   3.241   2.905 -0.9356  1.0249 -0.2556
 2822SOL    MW411056   4.734   3.242   2.991  0.0896  0.2035  0.3949
 2823SOL     OW11057   6.315   3.358   5.393  0.4259  0.3144  0.2464
 2823SOL    HW211058   6.269   3.440   5.376  1.0706  1.1392  2.1560
 2823SOL    HW311059   6.265   3.317   5.463 -0.4176 -1.4172 -1.3057
 2823SOL    MW411060   6.302   3.363   5.400 -0.4549 -0.2288 -0.6775
 2824SOL     OW11061   2.261   5.605   4.313  0.0203 -0.5201  0.0312
 2824SOL    HW211062   2.279   5.647   4.229  2.4444 -1.6929 -0.1297
 2824SOL    HW311063   2.281   5.673   4.378 -1.9261  0.4135 -0.2456
 2824SOL    MW411064   2.266   5.620   4.310  0.5784 -0.3389  0.7037
 2825SOL     OW11065   1.974   2.381   0.192 -0.6929  0.1802 -0.2368
 2825SOL    HW211066   1.963   2.475   0.184  0.3784  0.3479  0.0832
 2825SOL    HW311067   1.970   2.348   0.102  1.5778  0.8725 -0.6456
 2825SOL    MW411068   1.972   2.389   0.179 -0.1614  0.1261  0.2611
 2826SOL     OW11069   1.589   5.559   5.333  0.1515 -0.8350 -0.2113
 2826SOL    HW211070   1.552   5.646   5.349 -0.3390 -0.9490 -0.6740
 2826SOL    HW311071   1.678   5.575   5.304  0.1136 -0.4914 -0.1398
 2826SOL    MW411072   1.596   5.573   5.331  0.4601  0.0342 -0.2225
 2827SOL     OW11073   0.061   4.577   6.424 -0.1654 -0.1831  0.5830
 2827SOL    HW211074   0.137   4.635   6.416 -0.5650  0.6374  2.2375
 2827SOL    HW311075   0.000   4.626   6.479 -0.3940 -2.2741  2.3283
 2827SOL    MW411076   0.063   4.591   6.430  0.4189  0.3519  0.2735
 2828SOL     OW11077   3.698   5.840   5.876 -0.0924  0.3848  0.2030
 2828SOL    HW211078   3.727   5.828   5.786 -0.1531 -2.4916  0.4526
 2828SOL    HW311079   3.690   5.751   5.910 -1.4420  1.3353  2.6291
 2828SOL    MW411080   3.701   5.827   5.869  0.0620  0.3669 -0.2484
 2829SOL     OW11081   2.226   3.427   3.839  0.0986  0.4334  0.3442
 2829SOL    HW211082   2.229   3.523   3.840  0.1269  0.4459  2.1603
 2829SOL    HW311083   2.133   3.406   3.846  0.1854  0.3724  1.6526
 2829SOL    MW411084   2.214   3.437   3.840  0.6088 -0.1959 -0.4208
 2830SOL     OW11085   6.327   4.644   1.367  0.1237 -0.2577  0.3543
 2830SOL    HW211086   6.402   4.643   1.427 -0.2035  0.0107  0.7693
 2830SOL    HW311087   6.285   4.559   1.379 -0.2060 -0.0260  0.8397
 2830SOL    MW411088   6.331   4.633   1.376 -0.8400  0.2183  0.2559
 2831SOL     OW11089   4.617   0.381   4.117 -0.2021 -0.3793 -0.2484
 2831SOL    HW211090   4.624   0.467   4.157 -0.8413 -1.2479  1.8766
 2831SOL    HW311091   4.651   0.393   4.029  1.3973  1.6416  0.5554
 2831SOL    MW411092   4.622   0.394   4.111 -0.5176  0.4919  0.3780
 2832SOL     OW11093   3.523   1.981   5.419 -0.3689  0.5930  0.3876
 2832SOL    HW211094   3.454   2.011   5.479  0.0328  0.3556  0.9775
 2832SOL    HW311095   3.475   1.940   5.347 -0.8487  0.2503  0.8932
 2832SOL    MW411096   3.507   1.979   5.417  0.3464  0.3378  0.6264
 2833SOL     OW11097   4.547   0.323   1.374 -0.1069  0.0618 -0.2548
 2833SOL    HW211098   4.616   0.264   1.405 -0.4601  1.5570  3.9721
 2833SOL    HW311099   4.485   0.266   1.329  2.5784 -1.6919 -1.9875
 2833SOL    MW411100   4.548   0.308   1.372 -0.0808  0.0471  0.3607
 2834SOL     OW11101   4.450   5.742   5.263  0.1149 -0.6779  0.2658
 2834SOL    HW211102   4.541   5.715   5.250  0.0454 -0.0387 -1.9376
 2834SOL    HW311103   4.449   5.778   5.352  2.4959  1.0312 -0.2732
 2834SOL    MW411104   4.462   5.743   5.273  0.0144 -0.5246  0.0217
 2835SOL     OW11105   4.425   4.614   1.356  0.1859 -0.3977 -0.2030
 2835SOL    HW211106   4.503   4.600   1.304 -0.0442 -0.1211 -0.6284
 2835SOL    HW311107   4.404   4.706   1.344 -0.0624 -0.4106  0.1071
 2835SOL    MW411108   4.432   4.624   1.348  0.1582 -0.3190 -0.0605
 2836SOL     OW11109   0.847   5.831   4.143 -0.1537 -0.2714  0.2585
 2836SOL    HW211110   0.862   5.775   4.067 -1.0076 -0.0302 -0.1040
 2836SOL    HW311111   0.841   5.771   4.217  0.7968 -0.4994  0.1603
 2836SOL    MW411112   0.848   5.816   4.142 -0.2839  0.2565  0.2663
 2837SOL     OW11113   5.843   0.306   5.069  0.3427 -0.1333 -0.1382
 2837SOL    HW211114   5.753   0.335   5.055  0.1748 -0.0344  1.0877
 2837SOL    HW311115   5.896   0.384   5.049  0.0862  0.1146  0.1380
 2837SOL    MW411116   5.838   0.320   5.064 -0.0682 -0.6298  0.4311
 2838SOL     OW11117   0.670   0.186   0.590 -0.8712  0.3646 -0.7634
 2838SOL    HW211118   0.630   0.255   0.643  0.5124 -0.9219  2.2156
 2838SOL    HW311119   0.764   0.205   0.594 -0.6397 -0.5279 -1.6818
 2838SOL    MW411120   0.677   0.198   0.598 -0.0848 -0.1813  0.5227
 2839SOL     OW11121   4.076   5.371   6.269  0.5150 -0.0435 -0.1276
 2839SOL    HW211122   4.067   5.333   6.181  0.8120  1.3761 -0.8037
 2839SOL    HW311123   3.987   5.395   6.295  0.7673  4.0780 -2.2227
 2839SOL    MW411124   4.063   5.369   6.261 -0.5739  0.2318  0.0423
 2840SOL     OW11125   0.487   3.679   2.664 -0.2342 -0.0878 -0.3360
 2840SOL    HW211126   0.432   3.627   2.722 -0.9284  0.8424 -0.1237
 2840SOL    HW311127   0.471   3.643   2.577  0.0254 -0.8314 -0.0776
 2840SOL    MW411128   0.478   3.667   2.660  0.0494  0.1380  0.0804
 2841SOL     OW11129   5.405   4.959   4.062  0.4240 -0.2968  0.2416
 2841SOL    HW211130   5.493   4.958   4.101  0.6549  0.2833 -0.2487
 2841SOL    HW311131   5.405   4.885   4.002  0.0744 -1.1834  1.2946
 2841SOL    MW411132   5.417   4.949   4.059  0.0383 -0.0665  0.1132
 2842SOL     OW11133   1.478   1.088   0.807 -0.1839 -0.0754 -0.1682
 2842SOL    HW211134   1.431   1.171   0.809 -0.3700 -0.1918  0.8217
 2842SOL    HW311135   1.566   1.109   0.840  0.1487 -0.0524 -1.0470
 2842SOL    MW411136   1.484   1.101   0.812 -0.4670  0.2450 -0.6880
 2843SOL     OW11137   2.489   1.905   3.409 -0.0359  0.1148  0.0858
 2843SOL    HW211138   2.396   1.885   3.408  0.1485 -0.7557 -0.8023
 2843SOL    HW311139   2.496   1.989   3.362 -0.4458  0.6109  0.8898
 2843SOL    MW411140   2.478   1.914   3.403 -0.1504 -0.3701 -0.0858
 2844SOL     OW11141   2.813   2.920   2.516  0.8828 -0.2579  0.3631
 2844SOL    HW211142   2.892   2.877   2.483  0.6048 -0.3752 -0.1587
 2844SOL    HW311143   2.803   2.886   2.605  1.8237  0.3155  0.7071
 2844SOL    MW411144   2.822   2.910   2.524  0.2411  0.6472 -0.0549
 2845SOL     OW11145   1.523   4.944   2.968 -0.2246 -0.4501  0.1433
 2845SOL    HW211146   1.582   4.969   2.897 -0.2875 -0.1298  0.2019
 2845SOL    HW311147   1.444   4.913   2.923 -2.1503  3.9564 -0.0625
 2845SOL    MW411148   1.520   4.943   2.952 -0.0879 -0.4079  0.1552
 2846SOL     OW11149   1.651   3.724   3.162 -0.5613  0.0885  0.1294
 2846SOL    HW211150   1.613   3.673   3.090 -1.8045  0.0773  0.7761
 2846SOL    HW311151   1.678   3.658   3.226 -1.1650  0.1957  0.4901
 2846SOL    MW411152   1.650   3.709   3.161  0.5053  0.1393  0.1333
 2847SOL     OW11153   4.121   2.415   1.930 -0.2982 -0.5126  0.2719
 2847SOL    HW211154   4.147   2.471   1.858 -3.6377  0.0049 -0.6940
 2847SOL    HW311155   4.137   2.326   1.899  1.8365 -0.2338  0.4661
 2847SOL    MW411156   4.126   2.411   1.917 -0.1386 -0.7451  0.1092
 2848SOL     OW11157   3.628   5.326   3.901 -0.3660 -0.0400  0.7040
 2848SOL    HW211158   3.676   5.295   3.825 -0.0519 -2.0837  1.6861
 2848SOL    HW311159   3.687   5.388   3.944  1.1397 -1.9001  1.4377
 2848SOL    MW411160   3.642   5.330   3.897 -0.1043  0.3995 -0.4061
 2849SOL     OW11161   0.768   1.044   5.793  0.4408  0.1323 -0.7013
 2849SOL    HW211162   0.689   1.023   5.743  0.6444 -1.6730 -0.3514
 2849SOL    HW311163   0.736   1.086   5.872 -0.3868 -2.1077  0.2452
 2849SOL    MW411164   0.753   1.047   5.797 -0.2616  0.2948  0.1937
 2850SOL     OW11165   5.353   1.783   6.281  0.0150 -0.3872 -0.0850
 2850SOL    HW211166   5.360   1.827   6.196  0.8357 -0.1510  0.0900
 2850SOL    HW311167   5.299   1.842   6.334 -1.2623 -0.9702 -0.7015
 2850SOL    MW411168   5.347   1.797   6.277 -0.4930 -0.0101  0.3022
 2851SOL     OW11169   5.525   0.926   4.422 -0.0849  0.1690  0.5663
 2851SOL    HW211170   5.568   0.962   4.500 -0.9331 -1.1757  1.6917
 2851SOL    HW311171   5.433   0.917   4.446 -0.3200 -0.5362 -0.4938
 2851SOL    MW411172   5.519   0.929   4.435  0.5544  0.1193 -0.0887
 2852SOL     OW11173   1.644   4.914   5.550 -1.0846 -0.0559 -0.3381
 2852SOL    HW211174   1.709   4.984   5.548 -1.2389  0.0944 -0.1943
 2852SOL    HW311175   1.630   4.897   5.644 -1.0845 -0.2435 -0.3718
 2852SOL    MW411176   1.651   4.921   5.562  0.4344  0.0295 -0.0951
 2853SOL     OW11177   4.972   4.924   0.774 -0.3578 -0.5186 -0.7253
 2853SOL    HW211178   5.049   4.921   0.832  0.3994  0.0417 -1.6740
 2853SOL    HW311179   4.941   4.833   0.772  0.0566 -0.6893 -0.0431
 2853SOL    MW411180   4.978   4.912   0.781 -0.3572 -0.5193 -0.2219
 2854SOL     OW11181   5.015   2.004   6.150  0.2558  0.5957  0.4530
 2854SOL    HW211182   5.103   2.039   6.137  1.2996 -2.2363 -0.7463
 2854SOL    HW311183   5.012   1.924   6.098 -2.2956 -0.5997  2.2017
 2854SOL    MW411184   5.026   1.998   6.142 -0.4347  0.0822  0.0499
 2855SOL     OW11185   1.958   6.428   3.983 -0.0201 -0.0965 -0.1290
 2855SOL    HW211186   2.024   6.497   3.974 -0.5111  0.3889 -0.0647
 2855SOL    HW311187   2.007   6.346   3.975  1.0753  0.1535  2.8430
 2855SOL    MW411188   1.973   6.426   3.981  0.3064 -0.3167  0.2570
 2856SOL     OW11189   5.400   2.520   1.386  0.4046  0.0503 -0.0545
 2856SOL    HW211190   5.416   2.493   1.296  0.9192 -0.0534  0.0644
 2856SOL    HW311191   5.311   2.491   1.404  0.4684 -0.3656 -0.3730
 2856SOL    MW411192   5.391   2.512   1.377  0.4104 -0.2814 -0.1140
 2857SOL     OW11193   3.729   3.782   1.833  0.1430  0.0230 -0.0517
 2857SOL    HW211194   3.649   3.810   1.788 -0.1714 -0.9544 -0.1340
 2857SOL    HW311195   3.709   3.795   1.926 -1.0052 -2.2670  0.1029
 2857SOL    MW411196   3.715   3.787   1.840 -0.8739  0.0801 -0.7833
 2858SOL     OW11197   4.522   0.663   4.164 -0.2918 -0.0573  0.3481
 2858SOL    HW211198   4.448   0.606   4.186  0.5208 -1.5572 -0.5862
 2858SOL    HW311199   4.499   0.701   4.079 -0.4831  0.3794  0.5941
 2858SOL    MW411200   4.509   0.660   4.155 -0.2629  0.0887  0.0133
 2859SOL     OW11201   3.546   2.152   2.111  0.4928 -0.7857  0.0785
 2859SOL    HW211202   3.514   2.236   2.080 -0.9784 -0.4926  2.1651
 2859SOL    HW311203   3.641   2.165   2.122  0.7703 -0.3815 -2.3555
 2859SOL    MW411204   3.554   2.165   2.109 -0.0781 -0.2573  0.3919
 2860SOL     OW11205   0.814   1.355   0.677 -0.0642 -0.2205 -0.3701
 2860SOL    HW211206   0.884   1.318   0.623 -0.5367  0.9701 -1.8641
 2860SOL    HW311207   0.738   1.299   0.659 -0.2657  0.2762 -1.0966
 2860SOL    MW411208   0.813   1.342   0.668 -0.0267  0.2147  0.0854
 2861SOL     OW11209   2.217   6.396   1.852  0.5979 -0.1007  0.4581
 2861SOL    HW211210   2.253   6.393   1.941  0.1585  2.8982  0.8352
 2861SOL    HW311211   2.139   6.451   1.860  0.3616 -0.0584 -1.7330
 2861SOL    MW411212   2.211   6.403   1.865 -0.3383  0.1340  0.1501
 2862SOL     OW11213   3.713   3.490   1.088  0.1207  0.1445 -0.0176
 2862SOL    HW211214   3.739   3.399   1.101  1.2976  0.5807  0.8706
 2862SOL    HW311215   3.796   3.538   1.080 -0.4646  1.2056  0.0789
 2862SOL    MW411216   3.727   3.485   1.089 -0.2392  0.0390 -0.5536
 2863SOL     OW11217   2.784   1.889   5.282  0.6443 -0.3827 -0.1993
 2863SOL    HW211218   2.718   1.953   5.259  0.8936  1.0096  2.5212
 2863SOL    HW311219   2.854   1.903   5.218  0.0669  1.0370 -0.5646
 2863SOL    MW411220   2.785   1.899   5.271  0.4164 -0.5732 -0.3028
 2864SOL     OW11221   1.879   3.573   0.927 -0.6901  0.2098 -0.0522
 2864SOL    HW211222   1.912   3.662   0.916  0.9438 -0.5346 -1.8145
 2864SOL    HW311223   1.904   3.549   1.016  0.4770  0.9092 -0.1651
 2864SOL    MW411224   1.887   3.581   0.938 -0.2923  0.5179 -0.1862
 2865SOL     OW11225   2.718   3.949   2.823 -0.4305  0.1910  0.7151
 2865SOL    HW211226   2.718   3.886   2.895  1.8591 -0.0626  0.5560
 2865SOL    HW311227   2.683   3.900   2.749 -0.4033 -0.3204  1.0351
 2865SOL    MW411228   2.713   3.934   2.823 -0.5757  0.0244  0.3527
 2866SOL     OW11229   5.187   5.733   2.409 -0.3528  0.2772 -0.0017
 2866SOL    HW211230   5.214   5.659   2.355 -3.6510 -1.1377  0.0339
 2866SOL    HW311231   5.180   5.806   2.348  1.8277  0.3387 -0.2553
 2866SOL    MW411232   5.189   5.733   2.394 -0.2559  0.6811 -0.1132
 2867SOL     OW11233   4.632   6.087   5.350 -0.3148  0.0017  0.0592
 2867SOL    HW211234   4.543   6.079   5.318 -0.5561  1.8694  0.1513
 2867SOL    HW311235   4.634   6.171   5.395  1.6649  0.3555 -0.5775
 2867SOL    MW411236   4.621   6.097   5.352  0.3682 -0.0761  0.0676
 2868SOL     OW11237   2.014   6.193   0.593 -0.5081 -0.2826  0.2252
 2868SOL    HW211238   1.926   6.157   0.591 -0.6282  0.0152 -1.3236
 2868SOL    HW311239   2.053   6.164   0.510  1.7789 -2.6173  1.9391
 2868SOL    MW411240   2.008   6.184   0.582  0.0895  0.4897  0.5463
 2869SOL     OW11241   1.909   1.580   3.279  0.0985 -0.2441 -0.7791
 2869SOL    HW211242   1.903   1.669   3.316  0.7515 -0.4029 -0.2791
 2869SOL    HW311243   1.982   1.540   3.325 -0.2660 -1.0894 -0.9225
 2869SOL    MW411244   1.918   1.587   3.290 -0.1082  0.1950  0.2461
 2870SOL     OW11245   1.696   4.338   4.102 -0.1530  0.5715 -0.8323
 2870SOL    HW211246   1.680   4.259   4.155  0.2731 -1.0651 -3.0168
 2870SOL    HW311247   1.651   4.321   4.020  0.7816  2.2107 -1.7232
 2870SOL    MW411248   1.688   4.325   4.098 -0.1400  0.0472 -0.5425
 2871SOL     OW11249   1.233   2.895   6.237 -0.8856  0.1555 -0.4871
 2871SOL    HW211250   1.183   2.957   6.183  0.2101  0.9963 -0.5782
 2871SOL    HW311251   1.307   2.871   6.182 -0.9970 -0.8135 -0.2255
 2871SOL    MW411252   1.236   2.900   6.222 -0.7827  0.7683  0.0677
 2872SOL     OW11253   5.137   4.229   6.399 -0.1935 -0.3520 -0.0735
 2872SOL    HW211254   5.147   4.318   6.433 -0.1253 -0.5271  0.3712
 2872SOL    HW311255   5.068   4.190   6.453  1.3927 -1.3520  1.3608
 2872SOL    MW411256   5.129   4.235   6.411  0.7557  0.4660  0.1610
 2873SOL     OW11257   4.762   4.139   1.297  0.4376 -0.3026 -0.0075
 2873SOL    HW211258   4.681   4.106   1.258  0.0757 -1.2933  1.5086
 2873SOL    HW311259   4.732   4.191   1.373  1.0425  2.6681 -1.6375
 2873SOL    MW411260   4.747   4.142   1.302 -0.4146  0.2444  0.1780
 2874SOL     OW11261   0.802   1.081   3.350  0.4738  0.2962  0.2438
 2874SOL    HW211262   0.795   0.996   3.395  0.1750  0.3311  0.2600
 2874SOL    HW311263   0.743   1.138   3.398  2.4350  1.1759  1.7697
 2874SOL    MW411264   0.793   1.077   3.362  0.5995  0.0171 -0.3384
 2875SOL     OW11265   0.433   3.833   0.062 -0.1964 -0.2731 -0.9328
 2875SOL    HW211266   0.470   3.919   0.083  0.7634 -0.4859 -1.6906
 2875SOL    HW311267   0.342   3.851   0.039 -0.4542  0.3281  0.4727
 2875SOL    MW411268   0.426   3.846   0.062 -0.3629  0.1862  0.2772
 2876SOL     OW11269   4.188   1.772   3.010 -0.1679  0.1683 -0.4767
 2876SOL    HW211270   4.114   1.831   3.026 -0.5315 -0.1773 -0.8612
 2876SOL    HW311271   4.263   1.830   3.001  0.0467  0.4138  2.2227
 2876SOL    MW411272   4.188   1.787   3.011  0.1861  0.0321 -0.2575
 2877SOL     OW11273   0.055   0.789   4.400  0.3865 -0.1559  0.6463
 2877SOL    HW211274   0.018   0.852   4.461 -0.0917 -0.8516  1.0954
 2877SOL    HW311275   0.150   0.805   4.402  0.2456  0.6988  0.5612
 2877SOL    MW411276   0.063   0.799   4.408 -0.2116  0.2532 -0.0594
 2878SOL     OW11277   5.805   6.164   1.442  0.5365 -0.6338  0.4022
 2878SOL    HW211278   5.800   6.201   1.530  0.4997  1.5263 -0.4374
 2878SOL    HW311279   5.821   6.071   1.456  1.1846 -0.2548  2.6730
 2878SOL    MW411280   5.806   6.157   1.455  0.8912 -0.0437 -0.0633
 2879SOL     OW11281   0.445   4.119   4.830  0.4696  0.0593  0.0047
 2879SOL    HW211282   0.503   4.143   4.758  1.2459  2.1670  1.2389
 2879SOL    HW311283   0.397   4.200   4.851  0.5624 -0.3582  2.0804
 2879SOL    MW411284   0.446   4.133   4.823  0.3520 -0.0672  0.0842
 2880SOL     OW11285   0.914   1.933   5.122  0.0532  0.6082  0.5452
 2880SOL    HW211286   0.980   1.896   5.180  1.7590  1.2674 -0.8760
 2880SOL    HW311287   0.836   1.943   5.177  0.6924 -1.4206  1.9520
 2880SOL    MW411288   0.912   1.929   5.137  0.1912  0.3033 -0.2655
 2881SOL     OW11289   1.636   1.393   0.483 -0.0965  0.4253 -0.1854
 2881SOL    HW211290   1.670   1.471   0.440  0.1279  1.6376  2.0794
 2881SOL    HW311291   1.713   1.344   0.510 -0.1216  1.3239  1.6662
 2881SOL    MW411292   1.650   1.396   0.481 -0.2055  0.2498  0.5609
 2882SOL     OW11293   1.898   0.831   4.091 -0.0205  1.1313 -0.1638
 2882SOL    HW211294   1.959   0.803   4.159  1.5320 -0.4829 -2.0673
 2882SOL    HW311295   1.860   0.749   4.058 -1.0900  1.9012 -0.9158
 2882SOL    MW411296   1.901   0.816   4.095  0.1159  0.3064 -0.0769
 2883SOL     OW11297   3.799   4.085   6.126  0.2628  0.2478  0.2327
 2883SOL    HW211298   3.818   3.992   6.142 -1.1255 -0.4250 -1.6712
 2883SOL    HW311299   3.705   4.093   6.136  0.3153  1.3671 -0.0047
 2883SOL    MW411300   3.789   4.074   6.129 -0.7721  0.2650 -0.7505
 2884SOL     OW11301   0.020   2.655   5.096  0.4322  0.2574 -0.0322
 2884SOL    HW211302   0.050   2.578   5.049  1.0059 -0.0003  0.7307
 2884SOL    HW311303   0.011   2.723   5.029  1.1827 -0.1125 -0.5176
 2884SOL    MW411304   0.023   2.654   5.081 -0.1993 -0.5851 -0.3778
 2885SOL     OW11305   3.604   0.114   1.393 -0.2112 -0.5037 -0.2504
 2885SOL    HW211306   3.516   0.093   1.424  0.4547 -1.6734  0.9357
 2885SOL    HW311307   3.645   0.161   1.466 -0.3065  1.4404 -1.3561
 2885SOL    MW411308   3.598   0.118   1.407  0.2667  0.2052  0.1015
 2886SOL     OW11309   3.733   4.925   4.504 -0.2429  0.2477 -0.1609
 2886SOL    HW211310   3.715   4.836   4.474 -2.2145  0.5961 -0.1369
 2886SOL    HW311311   3.740   4.919   4.599 -1.2149  0.2328 -0.0851
 2886SOL    MW411312   3.732   4.913   4.512  0.0284  0.3979  0.3792
 2887SOL     OW11313   5.148   1.003   3.137 -0.0652 -0.2117 -0.5557
 2887SOL    HW211314   5.117   1.017   3.047 -0.1786 -1.3130 -0.7044
 2887SOL    HW311315   5.193   1.084   3.160  1.5019 -0.5400 -2.2376
 2887SOL    MW411316   5.150   1.015   3.128  0.0384 -0.0123 -0.4431
 2888SOL     OW11317   3.962   3.165   4.105  0.5873  0.3740 -0.3256
 2888SOL    HW211318   4.057   3.173   4.115  0.4142  0.8681  1.2681
 2888SOL    HW311319   3.930   3.154   4.195 -0.8348 -0.2078 -0.8732
 2888SOL    MW411320   3.970   3.164   4.119  0.0920 -0.4878  0.2826
 2889SOL     OW11321   2.212   3.826   4.418  0.5011  0.6615  0.0363
 2889SOL    HW211322   2.205   3.805   4.511  2.8384  1.0374  0.3575
 2889SOL    HW311323   2.248   3.915   4.416  1.1371  0.4066 -1.2124
 2889SOL    MW411324   2.216   3.835   4.430  0.0064  0.0686 -0.4439
 2890SOL     OW11325   4.602   6.394   0.513 -0.7856 -0.3146 -0.5133
 2890SOL    HW211326   4.606   6.328   0.582 -3.2826 -1.0571 -0.9956
 2890SOL    HW311327   4.594   6.344   0.432 -1.1345  0.5612 -1.0378
 2890SOL    MW411328   4.602   6.379   0.512 -0.3512 -0.0177 -0.1144
 2891SOL     OW11329   0.588   2.642   6.073 -0.4098  0.1225  0.1525
 2891SOL    HW211330   0.670   2.636   6.121 -0.6588 -1.7677  0.4287
 2891SOL    HW311331   0.591   2.570   6.010 -1.8619 -0.0405  0.2226
 2891SOL    MW411332   0.599   2.631   6.071 -0.1804 -0.5522 -0.0048
 2892SOL     OW11333   4.855   1.950   1.907  0.7882  0.5051  0.1694
 2892SOL    HW211334   4.800   1.872   1.909 -0.0460  1.0648 -0.0359
 2892SOL    HW311335   4.795   2.021   1.883  1.4463  1.2766  0.7224
 2892SOL    MW411336   4.840   1.949   1.904 -0.5305  0.3512  0.0278
 2893SOL     OW11337   2.866   5.615   1.875  0.3132  0.1982 -0.4584
 2893SOL    HW211338   2.885   5.529   1.911  0.8046  1.2387  1.9905
 2893SOL    HW311339   2.774   5.612   1.851  0.0836 -0.7373  0.4802
 2893SOL    MW411340   2.857   5.603   1.876 -0.2465 -0.0118 -0.3083
 2894SOL     OW11341   4.991   2.202   5.069  0.5709 -0.3274  0.4976
 2894SOL    HW211342   5.020   2.132   5.011 -0.6315 -1.4958  1.2396
 2894SOL    HW311343   5.060   2.268   5.064  0.9694 -0.8433 -1.4498
 2894SOL    MW411344   5.004   2.201   5.061 -0.4022 -0.4753 -0.2109
 2895SOL     OW11345   6.367   5.726   2.943 -0.1812 -0.3411 -0.2031
 2895SOL    HW211346   6.461   5.745   2.940 -0.3095  0.5596  0.8299
 2895SOL    HW311347   6.325   5.809   2.918 -0.7055 -0.8691 -1.1258
 2895SOL    MW411348   6.374   5.739   2.939 -0.4143 -0.4371 -0.3420
 2896SOL     OW11349   2.124   0.216   3.920  0.3479  0.0299 -0.2570
 2896SOL    HW211350   2.143   0.216   3.826 -1.2788 -0.7997 -0.6178
 2896SOL    HW311351   2.171   0.292   3.954  0.5599  0.6280 -1.8182
 2896SOL    MW411352   2.133   0.226   3.912  0.3123 -0.4779 -0.2670
 2897SOL     OW11353   4.244   2.916   5.401 -0.0581 -0.6144  0.8493
 2897SOL    HW211354   4.186   2.972   5.453  0.7667  0.1437  0.9758
 2897SOL    HW311355   4.223   2.827   5.430 -0.7248 -0.3114  1.3355
 2897SOL    MW411356   4.234   2.912   5.412 -0.0311 -0.0653 -0.1182
 2898SOL     OW11357   3.643   4.682   3.714  0.5872 -0.3765  0.1108
 2898SOL    HW211358   3.703   4.614   3.683 -1.0145 -2.3911  1.2266
 2898SOL    HW311359   3.646   4.675   3.809 -0.3787  0.4262  0.2079
 2898SOL    MW411360   3.651   4.672   3.722  0.3634 -0.0775  0.0976
 2899SOL     OW11361   4.004   1.547   3.093 -0.1897  0.2500 -0.1572
 2899SOL    HW211362   4.076   1.610   3.085  0.3636 -0.1914  1.0605
 2899SOL    HW311363   3.925   1.599   3.081  0.3116  0.7197 -1.6957
 2899SOL    MW411364   4.003   1.562   3.090  0.1320  0.4402  0.5947
 2900SOL     OW11365   0.892   4.714   3.027  0.0155  0.0849  0.3381
 2900SOL    HW211366   0.917   4.697   2.937 -1.7384 -0.7526 -0.0431
 2900SOL    HW311367   0.806   4.673   3.036 -2.7019  5.0612  0.5953
 2900SOL    MW411368   0.884   4.707   3.017  0.0039  0.4208 -0.2253
 2901SOL     OW11369   6.270   1.589   5.277  0.5943 -0.5782  0.0960
 2901SOL    HW211370   6.277   1.500   5.311  0.1269 -0.4369  0.5700
 2901SOL    HW311371   6.189   1.590   5.227  0.2493 -0.2459  0.6462
 2901SOL    MW411372   6.260   1.577   5.275 -0.0599 -0.5285  0.3691
 2902SOL     OW11373   4.172   2.161   1.850  0.1579  0.2118  0.0571
 2902SOL    HW211374   4.193   2.119   1.934 -0.5716  0.5828  0.4355
 2902SOL    HW311375   4.257   2.181   1.811  0.6308 -3.0937 -0.9296
 2902SOL    MW411376   4.186   2.158   1.856 -0.1975  0.3011  0.0187
 2903SOL     OW11377   5.011   0.203   1.580  0.1317 -0.2167 -0.2736
 2903SOL    HW211378   5.006   0.269   1.511  2.6766 -0.7831 -1.0951
 2903SOL    HW311379   5.037   0.123   1.535 -1.4373 -1.4555  0.9184
 2903SOL    MW411380   5.014   0.202   1.565 -0.0947 -0.1020 -0.0215
 2904SOL     OW11381   3.733   3.249   2.033  0.1358 -0.8222 -0.4313
 2904SOL    HW211382   3.664   3.241   1.967  0.2814 -3.3605 -0.3813
 2904SOL    HW311383   3.799   3.306   1.992 -0.7393 -0.6297 -1.6089
 2904SOL    MW411384   3.733   3.255   2.019 -0.2499 -0.0309 -0.7128
 2905SOL     OW11385   1.495   0.104   1.648 -0.2103 -0.3648  0.5008
 2905SOL    HW211386   1.549   0.066   1.718  0.9577 -0.1445 -0.2691
 2905SOL    HW311387   1.412   0.056   1.655  0.7419 -2.1157  0.4411
 2905SOL    MW411388   1.491   0.092   1.658  0.1279 -0.3375 -0.1613
 2906SOL     OW11389   5.214   0.749   3.446 -0.7944  0.4094 -0.0785
 2906SOL    HW211390   5.155   0.779   3.377 -0.0849  0.8160 -0.5129
 2906SOL    HW311391   5.209   0.817   3.513 -1.9925 -0.3006  0.5987
 2906SOL    MW411392   5.205   0.762   3.445 -0.4880 -0.6952  0.0485
 2907SOL     OW11393   6.108   4.631   1.756 -0.5319 -0.2841  0.1661
 2907SOL    HW211394   6.198   4.663   1.770 -0.6682 -0.4738  1.6348
 2907SOL    HW311395   6.115   4.572   1.681  0.4295  0.2625 -0.1950
 2907SOL    MW411396   6.121   4.628   1.748 -0.0340 -0.6361 -0.1651
 2908SOL     OW11397   0.287   0.802   4.665 -0.1667 -0.1674 -0.1439
 2908SOL    HW211398   0.317   0.717   4.695  1.0546  0.7745  1.4982
 2908SOL    HW311399   0.318   0.808   4.574  1.5275 -0.6631  0.3783
 2908SOL    MW411400   0.295   0.792   4.657  0.2627  0.0636  1.1452
 2909SOL     OW11401   0.672   5.200   0.136 -0.2456  0.1216 -0.1876
 2909SOL    HW211402   0.673   5.239   0.224 -0.1999  0.0560 -0.1584
 2909SOL    HW311403   0.646   5.109   0.151  1.5543 -0.4221 -0.0125
 2909SOL    MW411404   0.669   5.193   0.150  0.0934 -0.0653 -0.7522
 2910SOL     OW11405   5.069   3.996   1.030 -0.6870 -0.8582 -0.0678
 2910SOL    HW211406   5.077   3.918   0.974 -1.8303 -0.7816 -0.3770
 2910SOL    HW311407   5.007   4.052   0.983 -0.7281 -0.2535  0.6967
 2910SOL    MW411408   5.062   3.993   1.016 -0.6576  0.1502 -0.0288
 2911SOL     OW11409   0.928   5.502   6.185  0.0988 -0.0594 -0.9937
 2911SOL    HW211410   1.004   5.449   6.160  0.4315  0.4492 -1.0761
 2911SOL    HW311411   0.902   5.468   6.271  1.0915  0.4661 -0.4607
 2911SOL    MW411412   0.935   5.491   6.193  0.7050 -0.7774  0.1263
 2912SOL     OW11413   3.451   1.690   3.109 -0.0814  0.1365  0.0014
 2912SOL    HW211414   3.454   1.631   3.033  3.6633 -1.1314  0.9218
 2912SOL    HW311415   3.397   1.644   3.173 -0.7913 -0.1997 -0.8203
 2912SOL    MW411416   3.444   1.676   3.107 -0.1358  0.1792  0.0400
 2913SOL     OW11417   0.836   1.710   4.165  0.0645  0.2945  0.6036
 2913SOL    HW211418   0.782   1.682   4.238  1.9856  0.9979  2.4044
 2913SOL    HW311419   0.920   1.666   4.178  0.1919 -0.2793 -1.7278
 2913SOL    MW411420   0.840   1.701   4.176 -0.4400 -0.0372 -0.7216
 2914SOL     OW11421   2.362   2.665   2.895 -0.1242 -0.0098  0.1225
 2914SOL    HW211422   2.437   2.705   2.940  0.3233 -0.1559 -0.4766
 2914SOL    HW311423   2.320   2.611   2.962  1.0624 -0.9449  0.1296
 2914SOL    MW411424   2.367   2.663   2.910  0.4610 -0.2419  0.3090
 2915SOL     OW11425   2.110   0.718   6.348 -0.2122 -0.0992  0.3763
 2915SOL    HW211426   2.072   0.658   6.284  0.3638  0.3095 -0.3716
 2915SOL    HW311427   2.036   0.749   6.400 -0.3641 -2.6164  1.8100
 2915SOL    MW411428   2.096   0.714   6.346 -0.1860 -0.4418 -0.1623
 2916SOL     OW11429   6.352   4.643   2.967 -0.2901 -0.0458 -0.0585
 2916SOL    HW211430   6.342   4.646   2.872 -2.0450  1.1493  0.1063
 2916SOL    HW311431   6.372   4.552   2.986  0.4929 -0.2340 -1.6007
 2916SOL    MW411432   6.353   4.632   2.957 -0.0501 -0.2356  0.2943
 2917SOL     OW11433   4.946   0.796   4.851 -0.1705 -0.0042  0.1522
 2917SOL    HW211434   4.857   0.809   4.821 -0.3313 -0.4858  0.4074
 2917SOL    HW311435   4.952   0.702   4.869 -0.1714  0.2837  1.8588
 2917SOL    MW411436   4.935   0.785   4.850 -0.6332 -0.2151  0.0852
 2918SOL     OW11437   4.235   5.653   5.916 -0.1002 -0.3099  0.1975
 2918SOL    HW211438   4.204   5.684   6.001 -1.4505  0.1411 -0.4347
 2918SOL    HW311439   4.253   5.733   5.867  1.9792 -0.5462  0.4688
 2918SOL    MW411440   4.234   5.668   5.921 -0.2059  0.8407  0.0232
 2919SOL     OW11441   5.569   5.856   1.256  0.5499  0.4431  0.3131
 2919SOL    HW211442   5.478   5.848   1.229  0.6526 -0.8116  0.2505
 2919SOL    HW311443   5.589   5.949   1.248 -0.7247  0.7358  0.3576
 2919SOL    MW411444   5.560   5.867   1.251 -0.2410  0.1970  0.7794
 2920SOL     OW11445   1.369   5.577   3.007  0.3328 -0.4564 -0.3245
 2920SOL    HW211446   1.415   5.648   2.961 -0.9280  0.5651 -0.0799
 2920SOL    HW311447   1.411   5.573   3.093  1.0256 -0.6457 -0.6659
 2920SOL    MW411448   1.380   5.586   3.012 -0.5301 -0.0080  0.0198
 2921SOL     OW11449   0.274   5.203   3.108  0.1066 -0.2835  0.3666
 2921SOL    HW211450   0.359   5.161   3.124 -0.3662 -1.5546 -0.3830
 2921SOL    HW311451   0.215   5.132   3.084 -1.3977  0.4732  1.6316
 2921SOL    MW411452   0.278   5.188   3.107 -0.5532 -0.5552  0.5923
 2922SOL     OW11453   2.985   2.803   4.368 -0.3723  0.0573 -0.6597
 2922SOL    HW211454   3.023   2.774   4.451 -0.7342 -0.7666 -0.7789
 2922SOL    HW311455   3.041   2.763   4.301  0.5808  1.5877 -0.8394
 2922SOL    MW411456   2.998   2.794   4.370 -0.7250  0.2512  0.2147
 2923SOL     OW11457   0.655   2.826   3.168  0.0408  0.1132 -0.2777
 2923SOL    HW211458   0.606   2.761   3.116  1.6459 -1.3622 -0.0187
 2923SOL    HW311459   0.744   2.821   3.134  0.4714  1.2776  0.6472
 2923SOL    MW411460   0.660   2.817   3.156  0.2927  0.7326  0.2544
 2924SOL     OW11461   0.804   0.251   0.168 -0.1820  0.2634  0.1614
 2924SOL    HW211462   0.874   0.276   0.228 -0.3990  3.8412 -0.8459
 2924SOL    HW311463   0.726   0.247   0.223 -0.0317  1.4124  0.4831
 2924SOL    MW411464   0.803   0.254   0.183 -0.6150 -0.4051  0.2104
 2925SOL     OW11465   1.282   1.161   4.273  0.1374  0.0458 -0.0971
 2925SOL    HW211466   1.333   1.199   4.202 -1.0533 -0.1205 -1.0922
 2925SOL    HW311467   1.194   1.197   4.260 -0.1626 -0.1924  1.1544
 2925SOL    MW411468   1.277   1.171   4.262  0.2433  0.4912  0.2758
 2926SOL     OW11469   3.695   3.043   5.218 -0.3101  0.1508  0.0377
 2926SOL    HW211470   3.786   3.044   5.245 -0.1225  3.5042 -0.3868
 2926SOL    HW311471   3.696   3.001   5.132  0.9622  0.8623 -0.3170
 2926SOL    MW411472   3.707   3.037   5.210 -0.4907 -0.5558 -0.0776
 2927SOL     OW11473   2.748   2.706   2.729 -0.0966 -0.1382  0.0931
 2927SOL    HW211474   2.831   2.668   2.698  0.3181  1.4388 -0.8087
 2927SOL    HW311475   2.685   2.685   2.660  0.1502  0.8462 -0.4419
 2927SOL    MW411476   2.751   2.698   2.716 -0.1158  0.2611  0.3151
 2928SOL     OW11477   5.632   4.986   0.350  0.1575 -0.4759  0.0035
 2928SOL    HW211478   5.567   5.049   0.318 -0.5458 -0.8240  0.7025
 2928SOL    HW311479   5.600   4.901   0.318  0.3466 -0.6312  0.2248
 2928SOL    MW411480   5.619   4.983   0.342 -0.3472  0.4118  0.3406
 2929SOL     OW11481   1.867   0.860   2.821 -0.3048  0.6547 -0.5603
 2929SOL    HW211482   1.892   0.815   2.901  0.6725 -1.2670 -1.8519
 2929SOL    HW311483   1.789   0.910   2.844 -0.6728 -0.6843  1.3209
 2929SOL    MW411484   1.860   0.860   2.834 -0.6282  0.0504 -0.5237
 2930SOL     OW11485   3.820   4.562   5.277  0.3288 -0.1145  0.5472
 2930SOL    HW211486   3.747   4.505   5.300 -0.9108  0.8550 -0.8708
 2930SOL    HW311487   3.828   4.555   5.182  1.1042  0.9646  0.5117
 2930SOL    MW411488   3.812   4.553   5.268  0.1122  0.0132  0.3278
 2931SOL     OW11489   2.874   5.848   1.177 -0.3199  0.1957 -0.2895
 2931SOL    HW211490   2.914   5.765   1.202  0.3578  0.7797  0.6297
 2931SOL    HW311491   2.784   5.842   1.207 -0.1236 -0.0010  0.2772
 2931SOL    MW411492   2.868   5.836   1.184 -0.0450  0.2593 -0.1657
 2932SOL     OW11493   5.116   0.269   3.326 -0.0687 -0.4176  0.1003
 2932SOL    HW211494   5.144   0.342   3.382  2.1949  0.4752 -1.9914
 2932SOL    HW311495   5.197   0.220   3.309 -0.6763 -0.7486 -2.1365
 2932SOL    MW411496   5.131   0.272   3.331 -0.6426  0.3732 -0.2611
 2933SOL     OW11497   4.346   0.817   3.489 -0.2685 -0.2270 -0.2042
 2933SOL    HW211498   4.318   0.908   3.475 -0.6565 -0.4039 -0.6129
 2933SOL    HW311499   4.440   0.818   3.467  0.0208  0.3284  0.9990
 2933SOL    MW411500   4.355   0.829   3.484  0.1372 -0.3293 -0.1751
 2934SOL     OW11501   4.863   2.742   3.778 -0.4917 -0.4978  0.0577
 2934SOL    HW211502   4.954   2.736   3.748 -0.7524  0.7562 -1.0644
 2934SOL    HW311503   4.844   2.655   3.812  1.6870 -0.3337  2.0570
 2934SOL    MW411504   4.873   2.730   3.779 -0.5917  0.9406  0.8054
 2935SOL     OW11505   2.179   3.642   1.789 -0.9685  0.0315 -0.5415
 2935SOL    HW211506   2.149   3.592   1.713 -1.6627 -0.6314  0.1570
 2935SOL    HW311507   2.117   3.715   1.795 -2.1528 -1.0244  0.5627
 2935SOL    MW411508   2.167   3.645   1.780 -0.3363  0.5813  0.6247
 2936SOL     OW11509   5.633   4.139   0.696  0.5306 -0.3870 -0.4098
 2936SOL    HW211510   5.685   4.105   0.623  1.4226 -0.3152  0.1816
 2936SOL    HW311511   5.634   4.069   0.761  0.6320 -0.0361 -0.0323
 2936SOL    MW411512   5.640   4.125   0.695 -0.7890  0.1407 -0.2055
 2937SOL     OW11513   2.307   5.454   3.723 -0.2362 -0.0067  0.2139
 2937SOL    HW211514   2.292   5.374   3.774 -1.2936  1.6332  2.6783
 2937SOL    HW311515   2.247   5.448   3.649 -1.1346 -0.9860  1.0029
 2937SOL    MW411516   2.297   5.443   3.720 -0.8179 -0.0111  0.3110
 2938SOL     OW11517   6.007   6.179   6.057  0.0974  0.0673  0.6309
 2938SOL    HW211518   5.966   6.215   5.978 -0.8220 -0.3725  0.8884
 2938SOL    HW311519   6.026   6.088   6.035 -1.8284 -0.6021  1.4634
 2938SOL    MW411520   6.004   6.172   6.044 -0.1839  0.8332  0.0599
 2939SOL     OW11521   6.189   2.361   4.990 -0.5423  0.7206  0.0626
 2939SOL    HW211522   6.188   2.293   4.923 -1.6108  1.4351 -0.6766
 2939SOL    HW311523   6.150   2.320   5.067  1.0653 -0.2323  0.4197
 2939SOL    MW411524   6.184   2.347   4.991  0.2940 -0.0308  0.0751
 2940SOL     OW11525   3.112   3.742   4.256  0.0407 -0.0603  0.3879
 2940SOL    HW211526   3.062   3.822   4.270 -1.0109 -0.8581  1.3282
 2940SOL    HW311527   3.081   3.682   4.324  1.8205 -0.7980  0.5945
 2940SOL    MW411528   3.101   3.745   4.267  0.2134  0.4797  0.3380
 2941SOL     OW11529   1.568   2.044   2.434 -0.3662  0.1698  0.4616
 2941SOL    HW211530   1.595   1.979   2.499 -2.8846 -1.7208 -0.2386
 2941SOL    HW311531   1.650   2.078   2.399  1.0918 -2.2363  1.2833
 2941SOL    MW411532   1.583   2.040   2.438 -0.0782 -0.0618  0.2102
 2942SOL     OW11533   3.187   5.870   5.442 -0.4782 -0.6007 -0.3952
 2942SOL    HW211534   3.257   5.853   5.505 -0.4722  2.0244  0.4274
 2942SOL    HW311535   3.134   5.790   5.443  1.4324 -1.9357  0.3410
 2942SOL    MW411536   3.189   5.857   5.450 -0.5676 -0.5872  0.0907
 2943SOL     OW11537   4.227   4.935   4.493 -0.3913 -0.3828  0.1861
 2943SOL    HW211538   4.304   4.909   4.444  0.5329  1.3125  0.6913
 2943SOL    HW311539   4.179   4.993   4.434 -0.0829  0.4105  0.7118
 2943SOL    MW411540   4.231   4.939   4.479  0.3261  0.5151  0.4110
 2944SOL     OW11541   3.618   3.992   4.659 -0.0010  0.4692 -0.3876
 2944SOL    HW211542   3.644   3.980   4.751  1.1978  0.7045 -0.6712
 2944SOL    HW311543   3.661   3.919   4.613  0.1808  0.8894 -0.8915
 2944SOL    MW411544   3.627   3.980   4.665 -0.0320  0.6814 -0.5601
 2945SOL     OW11545   1.708   5.472   0.049  0.4975  0.3624  0.3159
 2945SOL    HW211546   1.723   5.426   0.131  0.7457  0.6457  0.4329
 2945SOL    HW311547   1.686   5.562   0.076 -1.3467 -0.0025  0.1593
 2945SOL    MW411548   1.707   5.478   0.064  0.8292  0.6117  0.3759
 2946SOL     OW11549   3.519   1.819   0.732 -0.0101  0.0344  0.3461
 2946SOL    HW211550   3.613   1.835   0.741  0.7312 -2.7774 -1.1987
 2946SOL    HW311551   3.490   1.883   0.666  1.0892  0.1111 -0.0789
 2946SOL    MW411552   3.527   1.830   0.724 -0.0809  0.0808 -0.6504
 2947SOL     OW11553   6.245   0.143   6.068  0.0115 -0.1639  0.1586
 2947SOL    HW211554   6.249   0.167   5.975  1.0370  2.8989  0.8664
 2947SOL    HW311555   6.336   0.132   6.094 -0.1321  0.9225  1.1963
 2947SOL    MW411556   6.258   0.145   6.059  0.4995  0.6073 -0.1257
 2948SOL     OW11557   3.368   0.620   5.653 -0.4383  0.1016 -0.1127
 2948SOL    HW211558   3.423   0.670   5.713  0.1133  0.7896 -1.1692
 2948SOL    HW311559   3.324   0.555   5.709  1.0527 -0.1331  0.8335
 2948SOL    MW411560   3.370   0.618   5.669  0.0925  0.1979  0.3195
 2949SOL     OW11561   0.618   2.517   1.227 -0.1905  0.1297  0.0304
 2949SOL    HW211562   0.559   2.586   1.197 -0.9284 -0.3856  0.2629
 2949SOL    HW311563   0.659   2.554   1.305 -0.4685  0.3692  0.0671
 2949SOL    MW411564   0.615   2.531   1.233 -0.4272  0.3836  0.0964
 2950SOL     OW11565   4.593   2.979   4.962  0.1421  0.2531 -0.1022
 2950SOL    HW211566   4.591   2.900   4.907 -2.2582 -0.4303  0.8258
 2950SOL    HW311567   4.629   3.046   4.905  0.1329 -1.0106 -1.6871
 2950SOL    MW411568   4.597   2.977   4.947  0.6141 -0.2830 -0.1207
 2951SOL     OW11569   3.365   2.010   1.895 -0.1297  0.1736  0.5893
 2951SOL    HW211570   3.391   2.052   1.977 -0.2532  0.7214  0.3529
 2951SOL    HW311571   3.416   2.054   1.828 -1.8761  1.5390  0.0736
 2951SOL    MW411572   3.375   2.021   1.897  0.5914 -0.2025 -0.0759
 2952SOL     OW11573   5.106   1.754   3.236  0.2886  0.1105 -0.8854
 2952SOL    HW211574   5.185   1.798   3.204 -0.7436  2.5780 -0.2491
 2952SOL    HW311575   5.049   1.750   3.159 -0.8603  2.9721 -0.3254
 2952SOL    MW411576   5.109   1.759   3.221  0.3511 -0.0665  0.7734
 2953SOL     OW11577   0.659   2.272   5.757 -0.0687  0.4936 -0.0365
 2953SOL    HW211578   0.590   2.250   5.694 -0.0440 -0.1331  0.1560
 2953SOL    HW311579   0.693   2.188   5.787 -1.0197  0.7307  1.8526
 2953SOL    MW411580   0.654   2.258   5.753 -0.0367 -0.7468  0.2864
 2954SOL     OW11581   3.924   3.330   0.251 -0.0401  0.3307 -0.0357
 2954SOL    HW211582   3.828   3.331   0.251 -0.1063 -1.4631  0.8421
 2954SOL    HW311583   3.947   3.258   0.192  0.6546 -0.6908  1.4013
 2954SOL    MW411584   3.915   3.320   0.243  0.2472  0.4315 -0.2528
 2955SOL     OW11585   1.592   0.479   1.858  0.0682  0.1611  0.4120
 2955SOL    HW211586   1.528   0.445   1.921  0.9408 -1.9459  0.2373
 2955SOL    HW311587   1.573   0.432   1.777  0.8173  0.7148 -0.0935
 2955SOL    MW411588   1.581   0.468   1.856  0.1150  0.0260  0.0318
 2956SOL     OW11589   4.935   0.903   1.814  0.0555  0.3097 -0.1799
 2956SOL    HW211590   5.016   0.868   1.851  0.4409 -0.1003 -1.3803
 2956SOL    HW311591   4.866   0.856   1.861  0.5451 -0.8269 -0.5629
 2956SOL    MW411592   4.937   0.892   1.825  0.5056 -0.0452  0.3293
 2957SOL     OW11593   0.115   0.804   0.666 -0.3516 -0.3607 -0.0651
 2957SOL    HW211594   0.022   0.809   0.643 -0.0227 -1.0917 -1.6071
 2957SOL    HW311595   0.154   0.746   0.601  0.8847 -1.4992  1.5776
 2957SOL    MW411596   0.108   0.797   0.655 -0.0398  0.1429  0.4902
 2958SOL     OW11597   6.283   0.410   1.101  0.2746  0.7107  0.4481
 2958SOL    HW211598   6.276   0.449   1.014 -2.2928  0.2635  0.3853
 2958SOL    HW311599   6.214   0.344   1.103  0.0078  0.9989  2.9932
 2958SOL    MW411600   6.273   0.406   1.090 -0.0200  0.0686  0.1060
 2959SOL     OW11601   4.074   0.543   6.379 -0.6447  0.6086 -0.3416
 2959SOL    HW211602   4.006   0.573   6.439 -0.6253 -1.4792  0.8265
 2959SOL    HW311603   4.085   0.450   6.399  0.5816  0.2216 -2.4455
 2959SOL    MW411604   4.067   0.535   6.390 -0.2276  0.0777  0.2599
 2960SOL     OW11605   4.463   6.476   4.828 -0.4765 -0.3815 -0.0162
 2960SOL    HW211606   4.555   6.463   4.850 -0.4662  0.3229  0.3868
 2960SOL    HW311607   4.435   6.392   4.790 -0.8489 -2.2835  3.8867
 2960SOL    MW411608   4.471   6.463   4.826  0.0941 -0.1701 -0.0283
 2961SOL     OW11609   1.883   5.248   4.924  0.1129  0.5357 -0.7879
 2961SOL    HW211610   1.808   5.268   4.980 -0.3970  1.7469 -1.8381
 2961SOL    HW311611   1.888   5.153   4.924  1.3940  0.4829  2.8497
 2961SOL    MW411612   1.874   5.238   4.931 -0.1737 -0.4723 -0.0615
 2962SOL     OW11613   6.049   3.166   3.885 -0.4274  0.2551 -0.2421
 2962SOL    HW211614   6.142   3.157   3.863 -0.5712 -2.6411 -0.0570
 2962SOL    HW311615   6.009   3.085   3.853 -2.5559  0.6512  1.2301
 2962SOL    MW411616   6.056   3.154   3.878  0.6490  0.2270 -0.3205
 2963SOL     OW11617   2.908   5.745   0.910  0.7722  0.0868  0.1153
 2963SOL    HW211618   2.889   5.820   0.966 -2.5521  0.5599 -1.3424
 2963SOL    HW311619   2.894   5.778   0.821  1.7634 -1.6349 -0.7263
 2963SOL    MW411620   2.903   5.759   0.906  0.0205  0.2837 -0.0025
 2964SOL     OW11621   4.952   3.729   4.802  0.0668 -0.1882 -0.2366
 2964SOL    HW211622   4.885   3.691   4.745  1.2800  0.8146 -2.4617
 2964SOL    HW311623   4.922   3.819   4.816  0.7970  0.1848 -1.0243
 2964SOL    MW411624   4.939   3.736   4.796  0.3854 -0.2524 -0.0970
 2965SOL     OW11625   4.311   3.949   5.449  0.7338  0.0448 -0.1269
 2965SOL    HW211626   4.396   3.970   5.488  1.6260 -1.2450 -1.3066
 2965SOL    HW311627   4.257   4.026   5.468  1.5736  0.1531  2.2442
 2965SOL    MW411628   4.315   3.962   5.457  0.2211  0.6873  0.1431
 2966SOL     OW11629   2.007   4.096   4.366 -0.2458 -0.1552 -0.0412
 2966SOL    HW211630   1.965   4.077   4.282  0.0340  1.9364 -0.7243
 2966SOL    HW311631   1.977   4.027   4.425  0.1678 -2.1377 -2.0462
 2966SOL    MW411632   1.998   4.084   4.363  0.3222  0.1131 -0.2947
 2967SOL     OW11633   1.751   1.647   0.713  0.3194  0.0942 -0.1653
 2967SOL    HW211634   1.781   1.557   0.703 -0.0485  0.0263 -0.6496
 2967SOL    HW311635   1.744   1.680   0.624 -0.0264  0.4477 -0.0066
 2967SOL    MW411636   1.754   1.640   0.700 -0.4980 -0.3329 -0.0243
 2968SOL     OW11637   0.224   6.333   5.147 -0.2292 -0.4509  0.5982
 2968SOL    HW211638   0.172   6.261   5.181  1.1201 -0.6587  2.4034
 2968SOL    HW311639   0.312   6.296   5.135 -0.4381 -0.2045 -2.6529
 2968SOL    MW411640   0.229   6.319   5.150 -0.1714  0.5354  0.0662
 2969SOL     OW11641   2.415   0.258   4.372  0.1843 -0.7889  0.0668
 2969SOL    HW211642   2.457   0.193   4.315  0.6511 -0.1011 -0.3906
 2969SOL    HW311643   2.487   0.316   4.399 -0.1048 -0.8791  1.0477
 2969SOL    MW411644   2.430   0.257   4.368 -0.0028  0.2411 -0.1080
 2970SOL     OW11645   3.853   6.051   2.057  0.2667  0.2417 -0.1473
 2970SOL    HW211646   3.835   6.143   2.039  2.2996  0.6121 -0.4324
 2970SOL    HW311647   3.859   6.046   2.153 -0.8935  0.1604 -0.0581
 2970SOL    MW411648   3.851   6.062   2.067 -0.2823 -0.2496 -0.1768
 2971SOL     OW11649   4.994   3.767   2.471  0.0857  0.3841  0.0061
 2971SOL    HW211650   4.961   3.702   2.409 -0.9532 -0.5729  1.4726
 2971SOL    HW311651   5.087   3.775   2.450 -0.3888  0.7422 -2.1817
 2971SOL    MW411652   5.002   3.759   2.460 -0.0005  0.1022  0.2420
 2972SOL     OW11653   0.816   0.385   4.738  0.7348  0.1985  0.3410
 2972SOL    HW211654   0.868   0.329   4.797  0.7884  0.2932  0.3839
 2972SOL    HW311655   0.864   0.383   4.655  1.5357  1.3393  0.7448
 2972SOL    MW411656   0.829   0.377   4.735 -0.0297  0.3006 -0.0394
 2973SOL     OW11657   4.595   0.154   0.944  0.4898 -0.4817 -0.5695
 2973SOL    HW211658   4.597   0.072   0.995 -1.4005 -0.7992 -0.9453
 2973SOL    HW311659   4.612   0.222   1.009 -0.0809 -1.0127  0.1520
 2973SOL    MW411660   4.598   0.152   0.960 -0.0428 -0.2297 -0.0169
 2974SOL     OW11661   5.909   3.930   5.576  0.3435  0.2933 -0.0109
 2974SOL    HW211662   5.918   4.025   5.565  0.2336  0.2237 -0.7622
 2974SOL    HW311663   5.815   3.915   5.574  0.3085  0.2811  1.2008
 2974SOL    MW411664   5.898   3.941   5.574  0.1161  0.5028 -0.4409
 2975SOL     OW11665   3.661   0.345   3.627  0.2909  0.0332 -0.3804
 2975SOL    HW211666   3.691   0.417   3.572  0.2810 -0.0890 -0.5472
 2975SOL    HW311667   3.620   0.387   3.703  0.7740  0.2023 -0.2107
 2975SOL    MW411668   3.660   0.360   3.630 -0.1573 -0.1239 -0.0906
 2976SOL     OW11669   1.276   1.750   0.976 -0.2402 -0.1856 -0.6945
 2976SOL    HW211670   1.215   1.715   0.912  0.5772 -0.8356 -1.1319
 2976SOL    HW311671   1.323   1.674   1.010  0.3059  0.2945 -0.3355
 2976SOL    MW411672   1.274   1.736   0.972  0.5274 -0.0965  0.1852
 2977SOL     OW11673   3.940   1.177   5.951  0.1269 -0.3758 -0.2719
 2977SOL    HW211674   3.855   1.219   5.938  0.0547 -0.9220 -1.9318
 2977SOL    HW311675   3.928   1.089   5.915  0.2793 -1.8901  3.0469
 2977SOL    MW411676   3.928   1.171   5.944  0.0163 -0.1951 -0.3062
 2978SOL     OW11677   1.133   0.390   1.078  0.1045  0.3564  0.1267
 2978SOL    HW211678   1.131   0.432   1.163  0.9506 -1.1810  0.9554
 2978SOL    HW311679   1.060   0.428   1.030 -1.0013  0.5275  1.8912
 2978SOL    MW411680   1.123   0.400   1.083 -0.0653 -0.2738 -0.1750
 2979SOL     OW11681   4.944   3.872   5.782 -0.0521  0.5499 -0.2308
 2979SOL    HW211682   5.025   3.922   5.767 -0.6203  1.9661  1.1295
 2979SOL    HW311683   4.901   3.872   5.697 -0.3072  2.9830 -0.1785
 2979SOL    MW411684   4.949   3.879   5.769 -0.2160  0.1269  0.2664
 2980SOL     OW11685   2.851   3.510   2.271 -0.1210 -0.3724  0.3996
 2980SOL    HW211686   2.784   3.576   2.288  1.6322  1.2232  1.4499
 2980SOL    HW311687   2.874   3.475   2.357 -0.1617 -1.4997 -0.0276
 2980SOL    MW411688   2.845   3.514   2.285  0.1377  0.6465 -0.6347
 2981SOL     OW11689   1.643   2.285   0.013  0.3155  0.2259  0.2751
 2981SOL    HW211690   1.607   2.198  -0.006  1.1182 -0.1387  0.3947
 2981SOL    HW311691   1.600   2.311   0.094  0.4394 -0.2793  0.5061
 2981SOL    MW411692   1.633   2.277   0.021 -0.1882 -0.3331 -0.0611
 2982SOL     OW11693   1.020   5.278   5.815 -0.1418  0.1052 -0.0295
 2982SOL    HW211694   1.010   5.234   5.730 -1.2299 -3.5497  1.7948
 2982SOL    HW311695   0.937   5.325   5.827  0.4590  1.6141 -1.3802
 2982SOL    MW411696   1.008   5.278   5.805  0.2651  0.1570  0.4623
 2983SOL     OW11697   3.666   2.438   5.599 -0.0800  0.0946  0.0520
 2983SOL    HW211698   3.593   2.435   5.537 -0.1628 -0.1849  0.1599
 2983SOL    HW311699   3.716   2.516   5.574 -1.0053  0.8892  0.6513
 2983SOL    MW411700   3.663   2.448   5.588  0.5274 -0.4222  0.2327
 2984SOL     OW11701   4.099   1.032   0.836  0.0742 -0.0125  0.6273
 2984SOL    HW211702   4.147   1.046   0.754 -1.4404  0.1488 -0.2765
 2984SOL    HW311703   4.047   1.112   0.847 -0.3874 -0.3943  1.2729
 2984SOL    MW411704   4.098   1.044   0.827  0.0669 -0.2846  0.0883
 2985SOL     OW11705   2.347   3.502   4.998  0.1020  0.0497 -0.0679
 2985SOL    HW211706   2.303   3.453   5.067 -0.7312 -2.7636 -2.4012
 2985SOL    HW311707   2.277   3.537   4.944  0.6778 -0.2540 -1.0510
 2985SOL    MW411708   2.332   3.500   5.000  0.2063 -0.3473  0.4542
 2986SOL     OW11709   6.034   0.841   3.907  0.5732  0.1674  0.2689
 2986SOL    HW211710   5.990   0.901   3.847 -0.7307 -1.5425 -0.6114
 2986SOL    HW311711   6.072   0.897   3.974 -0.4207  1.9620 -0.5809
 2986SOL    MW411712   6.033   0.856   3.908 -0.3256  0.0110 -0.0940
 2987SOL     OW11713   2.850   4.260   3.458  0.0507  0.2145  0.6279
 2987SOL    HW211714   2.790   4.286   3.388  2.7532  1.0607 -1.5657
 2987SOL    HW311715   2.871   4.168   3.437  3.1607  1.2741 -1.7210
 2987SOL    MW411716   2.844   4.251   3.446  0.0994  0.2658 -0.8675
 2988SOL     OW11717   1.857   1.840   4.506  0.0790 -0.3496  0.5561
 2988SOL    HW211718   1.873   1.785   4.583  1.4347 -1.4406 -0.4585
 2988SOL    HW311719   1.932   1.823   4.448 -0.4667  1.0946 -0.6497
 2988SOL    MW411720   1.869   1.831   4.509 -0.0669  0.0139 -0.1186
 2989SOL     OW11721   5.709   6.453   4.885  0.1234 -0.1577 -0.0931
 2989SOL    HW211722   5.642   6.468   4.952 -0.0718  1.8478 -0.6911
 2989SOL    HW311723   5.662   6.411   4.813 -0.6083  1.5520 -0.6479
 2989SOL    MW411724   5.694   6.449   4.884  0.2589 -0.6637  0.2089
 2990SOL     OW11725   4.175   5.626   5.475  0.0285  0.1551  0.9425
 2990SOL    HW211726   4.249   5.678   5.506  0.3290 -0.2437  0.9100
 2990SOL    HW311727   4.196   5.536   5.502 -0.4123  0.0299  0.8727
 2990SOL    MW411728   4.187   5.621   5.483 -0.4846  0.0997  0.7418
 2991SOL     OW11729   5.076   3.238   0.303 -0.2064  0.4928  0.1781
 2991SOL    HW211730   5.146   3.216   0.242  0.5802 -0.0884  1.2511
 2991SOL    HW311731   5.098   3.325   0.337 -0.4474  0.6595 -0.0883
 2991SOL    MW411732   5.088   3.246   0.300 -0.1222 -0.1565  0.5106
 2992SOL     OW11733   1.621   3.136   3.266  0.4562 -0.0702 -0.2172
 2992SOL    HW211734   1.647   3.124   3.357 -1.4912 -3.7837  0.0070
 2992SOL    HW311735   1.525   3.140   3.268  0.3289 -0.9393 -2.1299
 2992SOL    MW411736   1.612   3.135   3.278  0.0962  0.1965  0.0129
 2993SOL     OW11737   5.599   4.012   1.775  0.2782  0.0122 -0.1298
 2993SOL    HW211738   5.528   4.073   1.794 -0.6413 -0.8879 -0.5332
 2993SOL    HW311739   5.625   4.031   1.686  0.0731 -0.0886 -0.2134
 2993SOL    MW411740   5.593   4.022   1.766  0.4169 -0.7368 -0.4875
 2994SOL     OW11741   0.194   4.443   6.053  0.0136  0.2712 -0.3578
 2994SOL    HW211742   0.230   4.358   6.026 -0.3978  0.6434 -2.2220
 2994SOL    HW311743   0.271   4.493   6.081  0.5577 -0.0174 -1.2796
 2994SOL    MW411744   0.209   4.439   6.053 -0.0314  0.1401 -0.7714
 2995SOL     OW11745   3.111   3.533   4.420  0.0029 -0.1357  0.5356
 2995SOL    HW211746   3.184   3.479   4.389 -0.9435 -0.8426 -0.5454
 2995SOL    HW311747   3.059   3.473   4.474 -0.0149  0.2404  0.9362
 2995SOL    MW411748   3.113   3.518   4.423  0.0277  0.0940  0.1961
 2996SOL     OW11749   1.143   3.518   2.934 -0.1425 -0.2055  0.1679
 2996SOL    HW211750   1.085   3.446   2.911 -0.1936 -0.3290  0.6757
 2996SOL    HW311751   1.222   3.502   2.882  1.0475 -2.3017  2.3956
 2996SOL    MW411752   1.146   3.506   2.924 -0.3200 -0.3817 -0.7531
 2997SOL     OW11753   4.317   0.904   3.098  0.4043 -0.0730  0.0058
 2997SOL    HW211754   4.237   0.927   3.144 -0.1366  0.3608 -1.1295
 2997SOL    HW311755   4.382   0.967   3.129  0.4128 -0.6308  1.1747
 2997SOL    MW411756   4.315   0.915   3.108  0.3660 -0.4661 -0.1458
 2998SOL     OW11757   2.137   1.620   5.829 -0.4047  0.5703  0.1863
 2998SOL    HW211758   2.166   1.549   5.886  0.9069  0.9886  0.0654
 2998SOL    HW311759   2.066   1.581   5.778 -1.1746  0.0002  1.6212
 2998SOL    MW411760   2.131   1.606   5.830  0.2628  1.0060  0.2555
 2999SOL     OW11761   4.586   1.064   3.564 -0.0962 -0.1773 -0.3357
 2999SOL    HW211762   4.633   1.139   3.527  0.4470  0.4281  1.4500
 2999SOL    HW311763   4.655   0.999   3.580 -0.5617 -1.1148 -1.8654
 2999SOL    MW411764   4.601   1.065   3.561 -0.0840  0.1539 -0.4034
 3000SOL     OW11765   1.048   3.991   0.710 -0.0485 -0.2656  0.0258
 3000SOL    HW211766   1.141   3.986   0.688  0.7819  1.5260  2.6321
 3000SOL    HW311767   1.031   4.085   0.720 -1.4914 -0.6618  1.9056
 3000SOL    MW411768   1.058   4.003   0.709  0.5478 -0.4312 -0.1045
 3001SOL     OW11769   6.224   0.799   0.914  0.3474 -0.3391  0.4238
 3001SOL    HW211770   6.187   0.853   0.983 -0.6308  0.0191 -0.3562
 3001SOL    HW311771   6.315   0.828   0.907  0.6220 -0.7465  1.8919
 3001SOL    MW411772   6.231   0.810   0.922 -0.1544  0.5925  0.4905
 3002SOL     OW11773   5.094   3.737   2.053  0.6833 -0.0408 -0.1570
 3002SOL    HW211774   5.181   3.773   2.070  0.7475  0.3402 -1.2402
 3002SOL    HW311775   5.071   3.767   1.965  0.0319 -1.2738 -0.4383
 3002SOL    MW411776   5.102   3.746   2.044  0.1930 -0.1289  0.1453
 3003SOL     OW11777   0.881   3.055   1.970 -0.0295  0.4304  0.0570
 3003SOL    HW211778   0.872   2.984   2.034  0.4646 -0.3062 -0.6698
 3003SOL    HW311779   0.837   3.022   1.892  0.0350  1.0107 -0.2277
 3003SOL    MW411780   0.874   3.041   1.968 -0.5816  0.1322  0.0281
 3004SOL     OW11781   3.605   4.822   2.215 -0.0215  0.2983  0.2297
 3004SOL    HW211782   3.588   4.787   2.128  0.7809  1.0673 -0.2544
 3004SOL    HW311783   3.528   4.876   2.235 -0.3718 -0.1738  0.1623
 3004SOL    MW411784   3.592   4.825   2.206 -0.1899 -0.8614 -0.1914
 3005SOL     OW11785   2.035   0.741   4.573 -0.4887 -0.0793  0.5756
 3005SOL    HW211786   2.119   0.705   4.602 -0.7972 -0.3353  1.1538
 3005SOL    HW311787   2.055   0.779   4.487  0.1958 -0.2281  0.6566
 3005SOL    MW411788   2.049   0.742   4.565 -0.4616  0.0363  0.2587
 3006SOL     OW11789   4.770   4.782   1.010 -0.2404 -0.2777 -0.6449
 3006SOL    HW211790   4.835   4.766   0.941  0.8569  0.4945  0.1683
 3006SOL    HW311791   4.798   4.865   1.050 -2.0354  0.3442 -0.6048
 3006SOL    MW411792   4.783   4.791   1.006 -0.2911  0.0922  0.0891
 3007SOL     OW11793   0.059   5.901   3.894 -0.2855  0.2906  0.3944
 3007SOL    HW211794  -0.003   5.972   3.911 -0.2448  0.3726  0.2080
 3007SOL    HW311795   0.009   5.821   3.905 -1.2483  0.3416 -2.6946
 3007SOL    MW411796   0.044   5.900   3.897  0.1180 -0.3757  0.0816
 3008SOL     OW11797   4.230   6.296   3.997  0.1946  0.0965  0.3430
 3008SOL    HW211798   4.276   6.363   4.048 -1.0259  2.3667 -1.3753
 3008SOL    HW311799   4.275   6.293   3.913 -1.1229  0.4225 -0.4083
 3008SOL    MW411800   4.242   6.304   3.993 -0.2698  0.2681  0.5375
 3009SOL     OW11801   3.651   3.443   0.362 -0.6822  0.2112  0.1215
 3009SOL    HW211802   3.615   3.497   0.432 -0.9280  1.4107 -0.9047
 3009SOL    HW311803   3.646   3.498   0.284 -1.2137 -1.4048 -1.0307
 3009SOL    MW411804   3.646   3.458   0.361  0.2556 -0.1861  0.8498
 3010SOL     OW11805   6.315   1.916   3.504 -0.0175  0.5104  0.3066
 3010SOL    HW211806   6.238   1.896   3.450  0.3914  0.2462 -0.1914
 3010SOL    HW311807   6.279   1.947   3.587 -0.6659  1.4242 -0.2967
 3010SOL    MW411808   6.300   1.918   3.507  0.7884  0.7147  0.4574
 3011SOL     OW11809   3.067   6.009   6.297 -0.3213 -0.1479 -0.3890
 3011SOL    HW211810   3.069   5.915   6.316 -0.1649  0.2026  1.4576
 3011SOL    HW311811   3.130   6.048   6.358 -1.5551  1.3297  0.0205
 3011SOL    MW411812   3.075   6.002   6.307  0.2634  0.2113  0.0020
 3012SOL     OW11813   1.391   3.357   0.855  0.3023  0.0193 -0.6824
 3012SOL    HW211814   1.408   3.447   0.883 -0.1106  0.1802 -0.9374
 3012SOL    HW311815   1.334   3.321   0.923 -2.9332  1.2422 -2.4964
 3012SOL    MW411816   1.386   3.364   0.867  0.3518 -0.0167  0.1310
 3013SOL     OW11817   5.090   5.031   0.039  0.4089  0.7066 -0.1180
 3013SOL    HW211818   5.111   4.942   0.009 -1.7282 -0.0523  0.4698
 3013SOL    HW311819   5.042   5.070  -0.034  1.5642  1.5151 -0.4784
 3013SOL    MW411820   5.086   5.024   0.025 -0.1777  0.3548 -0.0958
 3014SOL     OW11821   2.450   3.332   4.795 -0.2675 -0.1082 -0.6002
 3014SOL    HW211822   2.424   3.381   4.873  0.6709  0.7228 -0.8035
 3014SOL    HW311823   2.376   3.273   4.779  0.3460 -1.8095  2.1218
 3014SOL    MW411824   2.437   3.330   4.803  0.0967 -0.1697 -0.3905
 3015SOL     OW11825   1.955   1.276   2.157  0.1524  0.2336  0.1886
 3015SOL    HW211826   1.891   1.204   2.161  0.1812  0.1901 -0.1255
 3015SOL    HW311827   1.908   1.351   2.192 -0.0978  0.2198 -0.1148
 3015SOL    MW411828   1.940   1.276   2.162  0.0889 -0.1628  0.4558
 3016SOL     OW11829  -0.003   5.587   3.539  0.0232 -0.1577 -0.4136
 3016SOL    HW211830   0.086   5.584   3.575  0.4290  0.5060 -1.3123
 3016SOL    HW311831  -0.053   5.524   3.592  0.8546 -0.0220  0.5547
 3016SOL    MW411832   0.002   5.578   3.551  0.0885  0.1651 -0.0152
 3017SOL     OW11833   3.423   3.852   1.495 -0.0006  0.2217  0.1677
 3017SOL    HW211834   3.338   3.808   1.484 -0.2473  0.3312  1.4368
 3017SOL    HW311835   3.487   3.781   1.491 -0.2805 -0.0721  0.7162
 3017SOL    MW411836   3.420   3.837   1.493  0.4361  0.0490 -0.4204
 3018SOL     OW11837   3.987   2.231   4.562  0.0775 -0.3656  0.0621
 3018SOL    HW211838   3.986   2.315   4.608  0.9144 -0.1011 -0.3716
 3018SOL    HW311839   4.073   2.228   4.521  0.2973 -1.7256  0.5810
 3018SOL    MW411840   3.998   2.242   4.563 -0.1951  0.4562 -0.2152
 3019SOL     OW11841   2.163   4.264   6.144 -0.4249 -0.3088  0.1664
 3019SOL    HW211842   2.083   4.217   6.165 -0.7647 -0.6491 -1.7047
 3019SOL    HW311843   2.134   4.340   6.094  0.4422 -1.1434 -1.7136
 3019SOL    MW411844   2.149   4.268   6.140  0.2411 -0.5406  1.1118
 3020SOL     OW11845   3.190   2.614   4.267 -0.1770 -0.0017  0.0885
 3020SOL    HW211846   3.227   2.550   4.206 -0.5051 -0.4188  0.3229
 3020SOL    HW311847   3.234   2.696   4.246 -1.3464  0.2129 -1.7179
 3020SOL    MW411848   3.201   2.616   4.256 -0.0175  0.0615 -0.7058
 3021SOL     OW11849   1.266   1.771   2.134 -0.2081  0.1405  0.0219
 3021SOL    HW211850   1.229   1.755   2.047  0.0506 -2.2260  0.2923
 3021SOL    HW311851   1.213   1.717   2.193  1.9570 -1.3117  0.7649
 3021SOL    MW411852   1.254   1.762   2.130  0.1707  0.0785  0.1226
 3022SOL     OW11853   5.023   4.223   5.242 -0.5113  0.0882 -0.0022
 3022SOL    HW211854   4.957   4.154   5.246 -0.9979  0.5995  2.6460
 3022SOL    HW311855   5.085   4.201   5.312 -0.9949  2.5597  1.3376
 3022SOL    MW411856   5.023   4.211   5.252 -0.0320 -0.0032 -0.3466
 3023SOL     OW11857   5.134   0.906   2.626 -0.0488  0.2131 -0.3424
 3023SOL    HW211858   5.183   0.949   2.556  0.6385 -0.4883 -0.3003
 3023SOL    HW311859   5.122   0.816   2.596 -1.6220  0.4356 -0.5069
 3023SOL    MW411860   5.139   0.900   2.613  0.2213 -0.6976 -0.1563
 3024SOL     OW11861   3.823   1.275   1.629 -0.4711 -0.1784  0.9850
 3024SOL    HW211862   3.836   1.370   1.623 -0.6637 -0.1238  1.3908
 3024SOL    HW311863   3.763   1.255   1.556  1.0515 -0.2869 -0.2899
 3024SOL    MW411864   3.816   1.285   1.618 -0.8920 -0.4152 -0.3788
 3025SOL     OW11865   5.397   4.247   1.608  0.5714  0.6141 -0.2636
 3025SOL    HW211866   5.385   4.211   1.695 -0.0926  0.5996 -0.3520
 3025SOL    HW311867   5.379   4.174   1.549 -2.6783  1.4580 -0.5000
 3025SOL    MW411868   5.393   4.233   1.611 -0.2466 -0.5600  0.1380
 3026SOL     OW11869   2.741   3.715   0.287 -0.3415 -0.2628  0.0256
 3026SOL    HW211870   2.673   3.663   0.331  0.4068 -0.0822  1.4603
 3026SOL    HW311871   2.693   3.765   0.221 -1.2130 -2.0708 -0.8038
 3026SOL    MW411872   2.726   3.714   0.284 -0.0394 -0.6967 -0.5967
 3027SOL     OW11873   5.581   4.565   4.627 -0.4248  0.1038  0.3643
 3027SOL    HW211874   5.491   4.570   4.660  0.1219  0.3103  1.9029
 3027SOL    HW311875   5.587   4.478   4.588 -0.9039 -0.4452  1.4686
 3027SOL    MW411876   5.570   4.554   4.627  0.3775 -0.2459  0.1525
 3028SOL     OW11877   0.821   3.615   4.024  0.4240 -0.0953  0.4028
 3028SOL    HW211878   0.895   3.648   4.074 -0.4461 -0.4144  1.9644
 3028SOL    HW311879   0.797   3.532   4.066 -0.8339  0.0155 -0.0328
 3028SOL    MW411880   0.828   3.608   4.036 -0.1834 -0.9779  0.0369
 3029SOL     OW11881   2.933   6.070   2.524  0.2447 -0.2332  0.5365
 3029SOL    HW211882   2.864   6.018   2.483  1.1454 -0.4157 -0.8030
 3029SOL    HW311883   2.936   6.038   2.614 -1.7131  0.0934  0.7744
 3029SOL    MW411884   2.924   6.059   2.531 -0.0078 -0.0667  0.3401
 3030SOL     OW11885   0.499   5.307   3.896 -0.1206  0.7108 -0.0022
 3030SOL    HW211886   0.544   5.231   3.934 -0.0611 -0.4324 -2.1938
 3030SOL    HW311887   0.420   5.317   3.949 -1.2990 -2.3620 -0.9643
 3030SOL    MW411888   0.495   5.298   3.908  0.2570 -0.0557 -0.6003
 3031SOL     OW11889   4.256   4.287   0.247  0.3841  0.1950  0.0809
 3031SOL    HW211890   4.209   4.204   0.247 -0.8261  0.8235 -1.8657
 3031SOL    HW311891   4.190   4.353   0.227  1.3241  1.6685  1.5011
 3031SOL    MW411892   4.241   4.285   0.245 -0.1934 -0.0405  0.0423
 3032SOL     OW11893   6.038   4.679   0.233  0.4894 -0.2589 -0.1694
 3032SOL    HW211894   6.111   4.697   0.173  1.1078 -0.1680  0.6046
 3032SOL    HW311895   5.972   4.744   0.210  0.5338 -0.5108 -1.0594
 3032SOL    MW411896   6.039   4.690   0.222  0.2727 -0.4669 -0.0675
 3033SOL     OW11897   3.231   2.247   2.351  0.1240  0.3071  0.1638
 3033SOL    HW211898   3.238   2.298   2.431 -0.4654 -0.0077  0.4263
 3033SOL    HW311899   3.316   2.204   2.342  0.0211 -0.0670  0.9070
 3033SOL    MW411900   3.243   2.248   2.360  0.0045 -0.2971  0.7032
 3034SOL     OW11901   0.388   5.667   4.483  0.6633 -0.6272  0.0265
 3034SOL    HW211902   0.332   5.589   4.479  1.7184 -1.4099  0.0971
 3034SOL    HW311903   0.443   5.661   4.405  0.0249  0.6407 -0.5499
 3034SOL    MW411904   0.387   5.656   4.472 -0.1120  0.3933 -0.3738
 3035SOL     OW11905   5.237   0.886   4.477  0.4883  0.0278 -0.0394
 3035SOL    HW211906   5.199   0.916   4.559 -0.1495  2.7664 -1.2125
 3035SOL    HW311907   5.206   0.950   4.412  2.8134 -0.6978 -1.9959
 3035SOL    MW411908   5.228   0.899   4.479  0.2591 -0.4856 -0.2715
 3036SOL     OW11909   5.426   3.406   2.260  0.1466 -0.0515  0.5515
 3036SOL    HW211910   5.489   3.412   2.188  1.5375 -0.8418  1.6496
 3036SOL    HW311911   5.340   3.400   2.217  0.9387 -0.5387 -1.0236
 3036SOL    MW411912   5.423   3.406   2.245 -0.0532 -0.3603 -0.0637
 3037SOL     OW11913   4.743   0.583   1.432 -0.3809  0.8116  0.7097
 3037SOL    HW211914   4.654   0.547   1.437 -0.1392  0.1383  0.2873
 3037SOL    HW311915   4.799   0.507   1.420  0.1457  1.3278 -0.1873
 3037SOL    MW411916   4.739   0.569   1.431  0.5361  0.6966 -0.2386
 3038SOL     OW11917   1.742   5.674   1.795  0.0775  0.2304 -0.1505
 3038SOL    HW211918   1.722   5.737   1.726 -1.4195 -0.3006 -0.2339
 3038SOL    HW311919   1.700   5.593   1.767  0.6462 -0.3884  0.7153
 3038SOL    MW411920   1.734   5.671   1.782 -0.1297 -0.1422  0.6740
 3039SOL     OW11921   0.803   3.911   3.892  0.3014 -0.0110  0.7700
 3039SOL    HW211922   0.882   3.862   3.916  0.6755  0.2250  0.0489
 3039SOL    HW311923   0.817   3.936   3.801 -0.0962  1.0223  0.9773
 3039SOL    MW411924   0.816   3.908   3.883  0.0148  0.4351  0.0493
 3040SOL     OW11925   0.179   5.789   4.600  0.3379 -0.0363  0.4912
 3040SOL    HW211926   0.145   5.871   4.566  2.2204  0.7512  0.4035
 3040SOL    HW311927   0.249   5.764   4.540  0.2186 -1.3805  0.8681
 3040SOL    MW411928   0.184   5.796   4.588 -0.0296  0.1695  0.2245
 3041SOL     OW11929   1.510   6.332   2.836 -0.1898 -0.3338 -0.2153
 3041SOL    HW211930   1.541   6.407   2.786 -0.7052 -0.1870 -0.3255
 3041SOL    HW311931   1.508   6.260   2.773  1.7424 -0.8318  0.2415
 3041SOL    MW411932   1.514   6.333   2.821 -0.0332  0.2775 -0.0139
 3042SOL     OW11933   3.171   0.097   1.075 -0.8561 -0.0510 -0.6816
 3042SOL    HW211934   3.150   0.069   0.986  0.4941  2.2961 -1.8473
 3042SOL    HW311935   3.257   0.057   1.092  0.3205  1.8766 -1.7159
 3042SOL    MW411936   3.180   0.088   1.065 -0.0009  0.2620  0.0028
 3043SOL     OW11937   0.012   3.778   0.250 -0.5206 -0.0795  0.3849
 3043SOL    HW211938  -0.076   3.781   0.212 -1.2591  3.6231  1.9638
 3043SOL    HW311939   0.055   3.857   0.216  2.0444 -1.4312  0.2003
 3043SOL    MW411940   0.006   3.789   0.240 -0.0794 -0.5837 -0.1267
 3044SOL     OW11941   1.627   0.424   1.004 -0.3451  0.2695  0.4512
 3044SOL    HW211942   1.534   0.429   0.981 -0.0888  1.2801 -0.4414
 3044SOL    HW311943   1.666   0.369   0.936 -0.2622 -0.0441  0.7496
 3044SOL    MW411944   1.620   0.418   0.992  0.2235  0.1165  0.0920
 3045SOL     OW11945   2.902   2.930   4.035  0.2021 -0.2922  0.0673
 3045SOL    HW211946   2.914   3.011   3.984  1.3130  0.1095  0.9370
 3045SOL    HW311947   2.855   2.957   4.113 -0.3157 -0.6747 -0.1064
 3045SOL    MW411948   2.898   2.944   4.038  0.1028  0.2345  0.7027
 3046SOL     OW11949   6.306   4.194   1.878  0.4408 -1.0077 -0.2527
 3046SOL    HW211950   6.272   4.251   1.948  0.8540  0.7434 -1.4220
 3046SOL    HW311951   6.228   4.166   1.830  0.2748 -1.0481  0.0381
 3046SOL    MW411952   6.291   4.198   1.881  0.0302 -0.4296 -0.3778
 3047SOL     OW11953   4.890   4.499   1.303 -0.2062  0.4192  0.3828
 3047SOL    HW211954   4.948   4.443   1.252 -0.0363  2.1731 -1.4401
 3047SOL    HW311955   4.810   4.506   1.250 -0.7804  0.7683  1.2668
 3047SOL    MW411956   4.887   4.492   1.290 -0.5389 -0.1786 -0.0415
 3048SOL     OW11957   5.881   6.306   0.007  0.2896  0.0089  0.0759
 3048SOL    HW211958   5.934   6.253   0.068  0.3972 -1.4507 -1.2152
 3048SOL    HW311959   5.944   6.342  -0.054  0.0726  0.6082  0.2036
 3048SOL    MW411960   5.896   6.304   0.007 -0.6005  0.4576  0.6832
 3049SOL     OW11961   4.389   5.212   5.960  0.1201 -0.4635 -0.2042
 3049SOL    HW211962   4.393   5.130   5.911  0.8234 -1.0260  0.7730
 3049SOL    HW311963   4.452   5.269   5.916 -0.6895 -0.2775 -1.1573
 3049SOL    MW411964   4.398   5.209   5.947 -1.0784 -0.0933 -0.3710
 3050SOL     OW11965   2.616   5.246   4.653  0.4673  0.4823 -0.3139
 3050SOL    HW211966   2.695   5.194   4.669  1.5883  1.9530 -0.8182
 3050SOL    HW311967   2.587   5.220   4.565  1.1586  0.8441 -0.6609
 3050SOL    MW411968   2.623   5.235   4.643 -0.3226  0.2239 -0.4773
 3051SOL     OW11969   3.496   4.236   3.607 -0.0642  0.0353 -0.3926
 3051SOL    HW211970   3.462   4.245   3.519  1.9210  0.7039 -1.1541
 3051SOL    HW311971   3.470   4.317   3.651  1.3015  0.9981 -1.2726
 3051SOL    MW411972   3.488   4.248   3.601  0.4920 -0.0051  0.2412
 3052SOL     OW11973   2.898   2.838   1.478 -0.4393  0.7568  0.0242
 3052SOL    HW211974   2.881   2.747   1.457 -0.2202  0.7625 -0.1911
 3052SOL    HW311975   2.822   2.867   1.527 -0.5310  0.4723  0.0465
 3052SOL    MW411976   2.886   2.830   1.481  0.0982 -0.0357 -0.4571
 3053SOL     OW11977   1.206   1.660   1.287  0.1229  0.3444 -0.6285
 3053SOL    HW211978   1.263   1.586   1.267  1.5420  0.3282  2.7796
 3053SOL    HW311979   1.265   1.727   1.321 -1.6928  0.7542  2.0211
 3053SOL    MW411980   1.221   1.659   1.289  0.0616  0.1704  0.7019
 3054SOL     OW11981   1.679   0.323   0.315  0.1278  0.1636 -0.3718
 3054SOL    HW211982   1.670   0.232   0.344 -3.0377  0.0599 -1.3476
 3054SOL    HW311983   1.769   0.329   0.283  0.8231 -2.2369  0.8826
 3054SOL    MW411984   1.690   0.312   0.315  0.2137 -0.0167  0.0291
 3055SOL     OW11985   2.046   3.211   4.947  0.0269  0.5397  0.8503
 3055SOL    HW211986   1.973   3.150   4.958  2.2409 -1.9708  3.4029
 3055SOL    HW311987   2.047   3.262   5.029  1.0948  0.5466  0.8488
 3055SOL    MW411988   2.037   3.210   4.959 -0.1684  0.2147  0.3788
 3056SOL     OW11989   0.291   1.321   0.308  0.0636 -0.4381  0.0250
 3056SOL    HW211990   0.236   1.368   0.245  0.4681  1.6038  1.1273
 3056SOL    HW311991   0.380   1.328   0.271  0.0975 -0.5371  0.0882
 3056SOL    MW411992   0.296   1.328   0.295 -0.1592  0.1034  0.2038
 3057SOL     OW11993   6.264   1.925   5.704  0.0385  0.2022 -0.0752
 3057SOL    HW211994   6.180   1.915   5.750 -0.2076  0.1261 -0.5395
 3057SOL    HW311995   6.293   1.836   5.688 -0.6319  0.1996 -1.4323
 3057SOL    MW411996   6.256   1.912   5.708 -0.6020 -0.5205  0.0834
 3058SOL     OW11997   1.023   2.475   4.817  0.3105 -0.3654 -0.0903
 3058SOL    HW211998   1.011   2.419   4.894  1.1223  1.7568  1.7073
 3058SOL    HW311999   1.116   2.468   4.796  0.3240 -0.0613 -0.1424
 3058SOL    MW412000   1.034   2.467   4.825 -0.9304 -0.1612 -0.7738
 3059SOL     OW12001   4.992   3.070   2.638  0.0813  0.3905  0.5247
 3059SOL    HW212002   4.969   2.977   2.641 -1.5112  0.7472  0.5100
 3059SOL    HW312003   5.021   3.084   2.548 -0.7882  0.1367  0.1939
 3059SOL    MW412004   4.993   3.059   2.627  0.4772 -0.0931 -0.2245
 3060SOL     OW12005   3.166   3.109   3.585 -0.0481  0.5017  0.5902
 3060SOL    HW212006   3.074   3.113   3.610 -0.3223  0.6571 -0.4149
 3060SOL    HW312007   3.165   3.090   3.491  0.9261  1.2160  0.4186
 3060SOL    MW412008   3.154   3.107   3.576 -0.0701  0.2704  0.0566
 3061SOL     OW12009   5.279   0.459   4.206 -0.0479  1.0349  0.2700
 3061SOL    HW212010   5.282   0.551   4.230  1.2430  0.8483  0.9572
 3061SOL    HW312011   5.254   0.458   4.113 -1.1886  1.9916  0.5498
 3061SOL    MW412012   5.276   0.471   4.197 -0.1179 -0.0017 -0.7061
 3062SOL     OW12013   3.657   4.654   5.744  0.1197 -0.2567 -0.9142
 3062SOL    HW212014   3.596   4.719   5.777  0.8701  0.1530 -0.2846
 3062SOL    HW312015   3.736   4.704   5.723  1.2972 -1.1315  1.1239
 3062SOL    MW412016   3.660   4.669   5.745 -0.7346  0.3816 -0.6122
 3063SOL     OW12017   6.415   2.002   1.703 -0.3864 -0.7516  0.1865
 3063SOL    HW212018   6.492   1.950   1.723 -0.8664 -1.0693  1.2819
 3063SOL    HW312019   6.407   1.998   1.607  0.7541 -0.9739  0.0858
 3063SOL    MW412020   6.424   1.995   1.693 -0.1301 -0.0304 -0.2125
 3064SOL     OW12021   1.898   5.840   4.452 -0.1910 -0.1794  0.2482
 3064SOL    HW212022   1.808   5.833   4.420 -0.6898 -1.3426  1.7540
 3064SOL    HW312023   1.892   5.820   4.546  1.0938  3.3948  1.2911
 3064SOL    MW412024   1.886   5.836   4.460 -0.0536  0.6350 -0.5058
 3065SOL     OW12025   5.482   6.396   5.335 -0.2204 -0.0672 -0.3830
 3065SOL    HW212026   5.503   6.471   5.391  0.3900 -0.4289 -0.1271
 3065SOL    HW312027   5.567   6.356   5.315 -0.5641 -0.8579 -0.2854
 3065SOL    MW412028   5.496   6.401   5.340 -0.2309  0.1626  0.2325
 3066SOL     OW12029   5.350   5.625   1.801 -0.6530  0.2428  0.5489
 3066SOL    HW212030   5.278   5.671   1.844  0.2492  1.3968  0.8940
 3066SOL    HW312031   5.314   5.595   1.718 -1.2579  1.6888  0.2629
 3066SOL    MW412032   5.336   5.627   1.796  0.3638  0.0293  0.6137
 3067SOL     OW12033   1.834   3.709   5.125  0.3621 -0.0597 -0.6561
 3067SOL    HW212034   1.909   3.670   5.080  0.4924 -1.6770  0.8320
 3067SOL    HW312035   1.866   3.793   5.156  1.1014 -0.1002 -1.2582
 3067SOL    MW412036   1.848   3.715   5.123  0.3176  0.0302 -0.1012
 3068SOL     OW12037   5.700   1.595   3.443  0.0229 -0.1212 -0.1842
 3068SOL    HW212038   5.676   1.661   3.509 -1.8144 -1.1160  0.2051
 3068SOL    HW312039   5.794   1.584   3.454  0.2864  1.9668  0.1620
 3068SOL    MW412040   5.709   1.603   3.453 -0.5236  0.3268  0.6127
 3069SOL     OW12041   1.993   4.379   5.411 -0.1705 -0.0654  0.7091
 3069SOL    HW212042   2.089   4.376   5.407 -0.1553 -0.1904  1.0813
 3069SOL    HW312043   1.971   4.471   5.398 -0.0871 -0.2615 -0.9636
 3069SOL    MW412044   2.003   4.391   5.409 -0.5670  0.3689  0.1577
 3070SOL     OW12045   1.672   5.636   4.019  0.1206  0.6806 -0.0279
 3070SOL    HW212046   1.716   5.689   3.953  0.1254  0.6612 -0.0403
 3070SOL    HW312047   1.740   5.577   4.052  0.2088  0.9414  0.2570
 3070SOL    MW412048   1.687   5.635   4.015 -0.3638 -0.2906 -0.0829
 3071SOL     OW12049   3.215   1.318   4.180  0.1095  0.6573 -0.5808
 3071SOL    HW212050   3.141   1.259   4.194  0.4494  0.4106  0.2424
 3071SOL    HW312051   3.289   1.275   4.225  0.3326  1.7615  0.1317
 3071SOL    MW412052   3.215   1.304   4.188 -0.9746 -0.2667 -0.3521
 3072SOL     OW12053   5.906   2.779   2.920 -0.9485  0.0677 -0.2674
 3072SOL    HW212054   5.994   2.817   2.915 -0.4679 -1.0868 -1.0449
 3072SOL    HW312055   5.921   2.685   2.917 -2.2012 -0.1541  0.0855
 3072SOL    MW412056   5.920   2.772   2.919 -0.6270  0.1744  0.6688
 3073SOL     OW12057   1.113   3.378   2.421 -0.6478  0.0583  0.3755
 3073SOL    HW212058   1.122   3.334   2.506 -2.8811 -2.2993 -0.4878
 3073SOL    HW312059   1.033   3.430   2.430  0.9910  2.6931  0.7704
 3073SOL    MW412060   1.104   3.379   2.433  0.0882 -0.6344  0.2489
 3074SOL     OW12061   0.621   1.106   0.041  0.0909  0.3389  0.7426
 3074SOL    HW212062   0.597   1.023   0.084  0.0786  0.4195  0.8930
 3074SOL    HW312063   0.546   1.126  -0.015  0.2872  0.0166  0.3590
 3074SOL    MW412064   0.608   1.097   0.039 -0.0650 -0.6007 -0.2085
 3075SOL     OW12065   6.175   3.283   2.206  0.4734 -0.4113 -0.2763
 3075SOL    HW212066   6.173   3.378   2.199  0.0835 -0.4445 -0.6360
 3075SOL    HW312067   6.169   3.252   2.116  0.9462 -0.7754 -0.1888
 3075SOL    MW412068   6.174   3.291   2.193  0.3343 -0.7327 -0.4092
 3076SOL     OW12069   3.203   6.427   3.288 -0.1318  0.2054 -0.2847
 3076SOL    HW212070   3.210   6.520   3.269  1.6602  0.1411 -0.1294
 3076SOL    HW312071   3.269   6.386   3.232 -2.4320 -1.2904 -2.1157
 3076SOL    MW412072   3.213   6.434   3.278 -0.2269  0.2057 -0.1048
 3077SOL     OW12073   2.659   1.199   3.402  0.4661 -0.0111 -0.1973
 3077SOL    HW212074   2.617   1.170   3.322  0.3691 -1.5846  0.3891
 3077SOL    HW312075   2.586   1.219   3.461  0.5373  0.0549 -0.1313
 3077SOL    MW412076   2.643   1.198   3.400  0.5499  0.2206 -0.2111
 3078SOL     OW12077   4.029   1.699   2.129  0.0851 -0.0297  0.4240
 3078SOL    HW212078   4.071   1.695   2.043 -1.1150  1.4139 -0.2666
 3078SOL    HW312079   4.086   1.647   2.186  1.8847  0.4821 -0.8293
 3078SOL    MW412080   4.042   1.691   2.125  0.1330 -0.4412  0.4661
 3079SOL     OW12081   0.079   4.549   5.823 -0.1515  0.1725  0.0195
 3079SOL    HW212082   0.108   4.482   5.885 -0.9532 -0.7997 -0.6226
 3079SOL    HW312083   0.126   4.529   5.742 -1.1429 -0.2682 -0.4739
 3079SOL    MW412084   0.089   4.537   5.820 -0.4899  0.6862  0.1272
 3080SOL     OW12085   5.741   1.512   0.305  0.0161 -0.1101  0.1203
 3080SOL    HW212086   5.677   1.578   0.333  2.6924  3.7374 -1.9577
 3080SOL    HW312087   5.789   1.489   0.385  0.7093  2.6199  0.5689
 3080SOL    MW412088   5.739   1.517   0.320 -0.2049 -0.3617  0.0980
 3081SOL     OW12089   4.512   5.328   3.021  0.4876 -0.2448  0.1255
 3081SOL    HW212090   4.528   5.286   3.105  0.3952 -0.4807  0.0246
 3081SOL    HW312091   4.578   5.397   3.016 -1.3816  1.7875  1.7444
 3081SOL    MW412092   4.523   5.332   3.031 -0.6552 -0.3004 -0.2711
 3082SOL     OW12093   3.283   5.974   4.879 -0.5655 -0.2667  0.1585
 3082SOL    HW212094   3.262   5.885   4.851 -1.6536 -0.7753  2.3705
 3082SOL    HW312095   3.202   6.022   4.868 -0.1644  0.2983 -0.3886
 3082SOL    MW412096   3.270   5.968   4.874 -0.5751 -0.4188  0.0548
 3083SOL     OW12097   2.390   3.504   3.636  0.3837 -0.5495  0.1853
 3083SOL    HW212098   2.472   3.475   3.677 -0.2147 -1.0145  1.0946
 3083SOL    HW312099   2.321   3.457   3.684 -0.4856  0.7138  0.2175
 3083SOL    MW412100   2.392   3.494   3.648  0.5089 -0.6565  0.4645
 3084SOL     OW12101   0.661   6.196   1.274 -0.0755  0.4707 -0.8665
 3084SOL    HW212102   0.645   6.249   1.352  1.7406  0.0427 -0.1678
 3084SOL    HW312103   0.730   6.242   1.227 -0.0579 -0.1072 -1.4147
 3084SOL    MW412104   0.668   6.209   1.278  0.2201 -0.4026  0.4032
 3085SOL     OW12105   3.457   5.396   0.308  0.1292 -0.3785 -0.7462
 3085SOL    HW212106   3.433   5.425   0.220 -2.3486 -0.3029 -0.1302
 3085SOL    HW312107   3.552   5.399   0.309  0.1985  0.6454 -3.0754
 3085SOL    MW412108   3.466   5.400   0.296  0.5623 -0.6486  0.1663
 3086SOL     OW12109   5.056   6.463   3.491  0.5213 -0.5395 -0.0228
 3086SOL    HW212110   5.046   6.468   3.586 -0.8232  0.4864 -0.1771
 3086SOL    HW312111   5.117   6.533   3.470 -0.2946  0.2000 -0.0182
 3086SOL    MW412112   5.063   6.473   3.501 -0.7048  0.1425 -0.2826
 3087SOL     OW12113   3.076   5.597   0.514 -0.8759  0.0590 -0.1265
 3087SOL    HW212114   3.072   5.604   0.609 -3.0626  0.2221 -0.1859
 3087SOL    HW312115   3.053   5.505   0.496 -1.4397  0.2710 -0.5145
 3087SOL    MW412116   3.072   5.586   0.524  0.1285 -0.4319 -0.2231
 3088SOL     OW12117   3.565   2.404   6.233 -0.3034  0.4688 -0.4487
 3088SOL    HW212118   3.639   2.356   6.270 -0.1164  0.6540 -0.5802
 3088SOL    HW312119   3.599   2.439   6.151 -0.6297  0.2996 -0.6558
 3088SOL    MW412120   3.579   2.402   6.227 -0.1927 -0.2527  0.1086
 3089SOL     OW12121   5.848   1.925   5.650 -0.7649 -0.5162  0.4388
 3089SOL    HW212122   5.753   1.936   5.653 -1.2046 -2.3080 -2.5682
 3089SOL    HW312123   5.866   1.847   5.704 -1.1379 -0.7073  0.2872
 3089SOL    MW412124   5.838   1.916   5.657 -0.2904 -0.0762  0.2015
 3090SOL     OW12125   5.815   6.000   3.524  0.1776 -0.9249 -0.1212
 3090SOL    HW212126   5.885   6.003   3.458  0.6696 -0.1375  0.4236
 3090SOL    HW312127   5.753   6.066   3.495 -0.0455 -1.2009 -0.2750
 3090SOL    MW412128   5.816   6.009   3.511 -0.0484  0.6289  0.2969
 3091SOL     OW12129   0.826   5.793   1.862 -0.2164 -0.5039 -0.3635
 3091SOL    HW212130   0.791   5.722   1.915 -0.1579 -2.2119 -2.4754
 3091SOL    HW312131   0.910   5.760   1.830 -0.3254  0.3640 -1.6309
 3091SOL    MW412132   0.832   5.779   1.865  0.5653  0.5409 -0.3757
 3092SOL     OW12133   5.638   2.529   2.190  0.6235  0.1202  0.2894
 3092SOL    HW212134   5.640   2.621   2.166  1.0007 -0.3432 -1.5846
 3092SOL    HW312135   5.548   2.501   2.171  1.0140 -0.3299 -0.9701
 3092SOL    MW412136   5.626   2.537   2.185 -0.4480  0.4056  0.2009
 3093SOL     OW12137   5.928   5.057   4.610 -0.4541 -0.5750  0.2267
 3093SOL    HW212138   5.874   5.058   4.531 -0.9767 -1.2035  0.5775
 3093SOL    HW312139   5.888   5.122   4.667 -0.4224 -0.5473  0.2182
 3093SOL    MW412140   5.916   5.066   4.607  0.4154  0.8811  0.9089
 3094SOL     OW12141   0.809   2.524   5.391 -0.4784 -0.2971  0.1828
 3094SOL    HW212142   0.823   2.594   5.327  0.7818  2.2663  3.0119
 3094SOL    HW312143   0.731   2.552   5.440  0.1110 -0.7582  1.4283
 3094SOL    MW412144   0.800   2.537   5.389 -0.4243  0.5108  0.0090
 3095SOL     OW12145   3.067   4.601   0.050 -0.0745 -0.3573  0.1667
 3095SOL    HW212146   3.025   4.676   0.091 -0.4590 -0.8110  0.6054
 3095SOL    HW312147   3.081   4.538   0.121  1.4252 -0.1870  0.0556
 3095SOL    MW412148   3.064   4.602   0.065  0.8046 -1.0848  0.1870
 3096SOL     OW12149   2.596   3.672   2.721 -0.5368  0.2298 -0.0528
 3096SOL    HW212150   2.508   3.678   2.684 -0.4148 -0.5139 -0.4868
 3096SOL    HW312151   2.584   3.624   2.804 -0.7080  1.2473  0.5226
 3096SOL    MW412152   2.583   3.666   2.727  0.0153  0.7875  0.2319
 3097SOL     OW12153   5.545   6.364   0.518 -0.5715 -0.6186  0.1041
 3097SOL    HW212154   5.486   6.439   0.512 -0.0033 -0.1586  0.2722
 3097SOL    HW312155   5.630   6.401   0.541 -0.0401 -1.2037 -0.8762
 3097SOL    MW412156   5.548   6.379   0.520  0.4526  0.9263 -0.5906
 3098SOL     OW12157   1.505   3.718   1.470  0.0258 -0.7638  0.1549
 3098SOL    HW212158   1.505   3.811   1.446  1.2776 -1.1226 -1.4171
 3098SOL    HW312159   1.413   3.696   1.482 -0.4241  0.3326 -1.0135
 3098SOL    MW412160   1.493   3.727   1.468  0.3512  0.0099  0.0852
 3099SOL     OW12161   1.382   2.015   2.225 -0.1762 -0.5372 -0.0592
 3099SOL    HW212162   1.456   2.030   2.284 -0.8502  0.2175  0.6230
 3099SOL    HW312163   1.365   1.921   2.230  0.0438 -0.5408  0.6245
 3099SOL    MW412164   1.389   2.005   2.233 -0.3474 -0.0957 -0.1656
 3100SOL     OW12165   5.624   1.718   2.444  0.1644 -0.2522  0.0507
 3100SOL    HW212166   5.670   1.728   2.361 -1.8771 -0.7434 -1.2167
 3100SOL    HW312167   5.665   1.642   2.485  0.9766 -0.2067 -0.6555
 3100SOL    MW412168   5.635   1.709   2.439  0.2198 -0.2500  0.2358
 3101SOL     OW12169   2.064   2.141   0.597  0.7033 -0.8726 -0.6197
 3101SOL    HW212170   2.111   2.156   0.679 -0.6661  1.4335 -0.1598
 3101SOL    HW312171   2.028   2.053   0.605  1.2645 -0.9835  0.9256
 3101SOL    MW412172   2.065   2.132   0.608  0.4479  0.2310  0.6625
 3102SOL     OW12173   2.219   0.311   0.689  0.2614  0.2159  0.3896
 3102SOL    HW212174   2.125   0.330   0.682 -0.1059 -1.5961 -0.1723
 3102SOL    HW312175   2.234   0.295   0.782 -0.3093 -0.8731  0.3121
 3102SOL    MW412176   2.208   0.312   0.700 -0.6561  0.0177  0.5699
 3103SOL     OW12177   2.588   1.734   2.814 -0.2978  0.0042 -0.2156
 3103SOL    HW212178   2.508   1.786   2.816 -0.8015 -0.6353 -1.8628
 3103SOL    HW312179   2.577   1.671   2.885 -0.7433  0.6365  0.2853
 3103SOL    MW412180   2.576   1.732   2.823 -0.7740  0.2049  0.3621
 3104SOL     OW12181   1.621   3.515   2.980  0.0830  0.2976  0.0640
 3104SOL    HW212182   1.653   3.439   3.029  0.9873  0.7447  0.1960
 3104SOL    HW312183   1.696   3.542   2.926 -0.2039  1.1261  0.0600
 3104SOL    MW412184   1.635   3.508   2.979 -0.0368  0.1538 -0.0196
 3105SOL     OW12185   1.758   2.796   5.739 -0.2838  0.3408 -0.4150
 3105SOL    HW212186   1.698   2.721   5.735  0.4301 -0.2671 -0.1281
 3105SOL    HW312187   1.702   2.872   5.753 -1.1268  0.0115 -1.8611
 3105SOL    MW412188   1.743   2.796   5.740  0.0552 -0.1327  0.1653
 3106SOL     OW12189   4.580   4.004   0.553  0.5934 -0.2327 -0.1234
 3106SOL    HW212190   4.556   3.919   0.590 -0.1347 -0.1396 -0.3639
 3106SOL    HW312191   4.675   4.010   0.567  0.7888 -1.4189 -0.7882
 3106SOL    MW412192   4.589   3.993   0.560 -0.0404 -0.3303  0.2288
 3107SOL     OW12193   1.669   4.329   3.673 -0.3835  0.0911  0.4258
 3107SOL    HW212194   1.721   4.251   3.652 -1.9015 -0.6157 -1.0607
 3107SOL    HW312195   1.731   4.402   3.670  0.3810 -0.5490 -2.5102
 3107SOL    MW412196   1.684   4.328   3.669  0.3805  0.0549  0.5762
 3108SOL     OW12197   6.156   5.078   2.912  0.5471  0.1416 -0.1886
 3108SOL    HW212198   6.157   4.983   2.929 -2.0191  0.1998  0.7395
 3108SOL    HW312199   6.109   5.086   2.829  0.5469  0.6069 -0.1415
 3108SOL    MW412200   6.150   5.066   2.904 -0.0801 -0.2159  0.7712
 3109SOL     OW12201   4.946   6.220   3.784 -0.5088  0.1804  0.0411
 3109SOL    HW212202   4.851   6.223   3.769 -0.1376  1.2714 -2.5818
 3109SOL    HW312203   4.981   6.175   3.708  1.0145 -1.5911  1.7118
 3109SOL    MW412204   4.938   6.215   3.772 -0.3711  0.4399  0.3154
 3110SOL     OW12205   3.594   0.372   2.087 -0.3941 -0.1747 -0.1674
 3110SOL    HW212206   3.614   0.356   2.180 -0.1837  1.0479  0.0077
 3110SOL    HW312207   3.640   0.452   2.066  0.4307 -0.9947 -1.6432
 3110SOL    MW412208   3.603   0.380   2.097 -0.5310  0.1235  0.2686
 3111SOL     OW12209   3.889   1.578   2.753 -0.3019  0.1217 -0.5512
 3111SOL    HW212210   3.937   1.503   2.789 -1.1710 -0.9265 -1.5118
 3111SOL    HW312211   3.810   1.540   2.714 -1.7953  1.7444  0.6813
 3111SOL    MW412212   3.885   1.563   2.753 -0.0196 -0.0573  0.1221
 3112SOL     OW12213   6.309   5.327   4.838  0.7381 -0.0521  0.4882
 3112SOL    HW212214   6.336   5.250   4.788 -1.9455  1.3616 -3.6583
 3112SOL    HW312215   6.383   5.388   4.829  1.0027 -0.4648 -0.2711
 3112SOL    MW412216   6.323   5.325   4.830  0.1092  0.0951  0.2166
 3113SOL     OW12217   1.081   0.826   4.945  0.5614 -0.3193  0.3985
 3113SOL    HW212218   1.075   0.918   4.917  0.5679 -0.5110 -0.2490
 3113SOL    HW312219   1.119   0.781   4.869  3.0399 -0.4175  1.5989
 3113SOL    MW412220   1.085   0.832   4.931 -0.1925 -0.2191 -0.2383
 3114SOL     OW12221   0.166   2.278   2.241 -0.1718 -0.2347 -0.4605
 3114SOL    HW212222   0.081   2.296   2.282 -0.0458 -1.6402  0.5228
 3114SOL    HW312223   0.155   2.191   2.201  1.0015 -0.7709  0.3193
 3114SOL    MW412224   0.153   2.269   2.241 -0.1640  0.5469  0.3362
 3115SOL     OW12225   1.175   5.445   2.874  0.1502 -0.1158  0.1591
 3115SOL    HW212226   1.128   5.519   2.836 -1.6293 -1.2489  0.0528
 3115SOL    HW312227   1.246   5.485   2.924 -0.7386  1.6522  0.0889
 3115SOL    MW412228   1.178   5.460   2.875  0.1742  0.9871 -0.2815
 3116SOL     OW12229   2.004   5.305   4.681 -0.7372 -0.1991 -0.4997
 3116SOL    HW212230   1.944   5.282   4.752  1.0043 -0.9265  0.7914
 3116SOL    HW312231   2.040   5.390   4.706 -0.7544 -0.0524 -0.9588
 3116SOL    MW412232   2.001   5.314   4.694  0.2059 -0.5114 -0.8455
 3117SOL     OW12233   3.364   1.331   0.411 -0.0695 -0.1957  0.1084
 3117SOL    HW212234   3.281   1.322   0.365 -0.1896 -1.1803  0.5090
 3117SOL    HW312235   3.429   1.295   0.350  0.3966  2.3648 -1.0650
 3117SOL    MW412236   3.362   1.325   0.397  0.0288 -0.0336  0.2477
 3118SOL     OW12237   6.157   2.628   1.536 -0.3929 -0.1448  0.1383
 3118SOL    HW212238   6.246   2.601   1.513 -0.0119  0.3914  0.9277
 3118SOL    HW312239   6.119   2.657   1.453  1.3924  2.9990  0.2683
 3118SOL    MW412240   6.164   2.628   1.522  0.0710  0.5634 -0.3118
 3119SOL     OW12241   5.187   6.083   2.364  0.1189 -0.4534  0.1590
 3119SOL    HW212242   5.095   6.056   2.354  0.0383  0.4129 -1.8122
 3119SOL    HW312243   5.190   6.126   2.450 -1.2244 -0.8211  0.4138
 3119SOL    MW412244   5.175   6.085   2.374  0.3769 -0.3490  0.1902
 3120SOL     OW12245   1.608   6.068   5.339  0.0491 -0.3243  0.3642
 3120SOL    HW212246   1.604   6.148   5.391 -0.6647 -0.0184 -0.1362
 3120SOL    HW312247   1.517   6.048   5.319  0.2269 -1.2192  0.4068
 3120SOL    MW412248   1.596   6.076   5.343 -0.8463 -0.2022  0.3072
 3121SOL     OW12249   2.404   0.126   0.092 -0.1174 -0.2425 -0.2927
 3121SOL    HW212250   2.417   0.045   0.043 -0.6074  0.1748 -1.1289
 3121SOL    HW312251   2.316   0.117   0.129  0.6953 -1.1007  1.6090
 3121SOL    MW412252   2.394   0.114   0.091  0.4229  0.0752 -0.0764
 3122SOL     OW12253   1.151   5.881   4.530  0.5944 -0.6125 -0.4162
 3122SOL    HW212254   1.083   5.879   4.463 -0.5753 -0.4329  0.7450
 3122SOL    HW312255   1.104   5.887   4.613  2.0206 -0.5930  0.4259
 3122SOL    MW412256   1.136   5.881   4.532  0.5509 -0.3403  0.2462
 3123SOL     OW12257   2.086   5.737   2.283 -0.1460  0.1418 -0.2441
 3123SOL    HW212258   1.998   5.749   2.248 -0.0657  3.7264  0.3966
 3123SOL    HW312259   2.140   5.800   2.234  1.8129 -1.0021  0.3169
 3123SOL    MW412260   2.082   5.747   2.272  0.0492  0.2281  0.3288
 3124SOL     OW12261   2.432   5.679   3.450  0.1193 -0.8420  0.1111
 3124SOL    HW212262   2.507   5.737   3.459 -0.2681 -0.1906 -0.6993
 3124SOL    HW312263   2.469   5.592   3.433  0.6918 -0.6950  0.6082
 3124SOL    MW412264   2.447   5.675   3.449 -0.2718  0.0255  0.0901
 3125SOL     OW12265   3.911   3.125   2.771  0.7796  0.1629 -0.0907
 3125SOL    HW212266   3.845   3.152   2.836  2.7725 -1.6805  2.9732
 3125SOL    HW312267   3.988   3.176   2.794  1.0332  0.8930 -2.3849
 3125SOL    MW412268   3.912   3.135   2.783 -0.6219 -0.9807  0.3579
 3126SOL     OW12269   4.522   1.031   3.841 -0.2041 -0.1153  0.1496
 3126SOL    HW212270   4.612   1.044   3.870 -0.1513  1.1783 -0.5017
 3126SOL    HW312271   4.528   1.027   3.745 -0.7672 -0.6613  0.1327
 3126SOL    MW412272   4.534   1.032   3.832 -0.2582  0.3690  0.5549
 3127SOL     OW12273   1.982   4.337   1.132 -0.0070  0.4227 -0.5016
 3127SOL    HW212274   2.039   4.371   1.062  0.8860  1.6291  0.7667
 3127SOL    HW312275   2.040   4.284   1.187 -0.7735 -0.7851 -0.8047
 3127SOL    MW412276   1.997   4.334   1.130 -0.3198  0.2477 -0.1726
 3128SOL     OW12277   0.207   6.184   3.463 -0.6610 -0.1562  0.1532
 3128SOL    HW212278   0.211   6.227   3.378 -1.4465 -0.5380 -0.0868
 3128SOL    HW312279   0.221   6.255   3.526 -0.8362  0.2617 -0.2673
 3128SOL    MW412280   0.210   6.199   3.460  0.1505  0.1753  0.0252
 3129SOL     OW12281   2.229   0.091   5.035  0.0867 -0.6440  0.3424
 3129SOL    HW212282   2.181   0.098   4.952  0.5296 -1.0369  0.0455
 3129SOL    HW312283   2.173   0.038   5.091  0.0649 -0.9051  0.0760
 3129SOL    MW412284   2.216   0.085   5.031  0.4997 -0.2375  0.8502
 3130SOL     OW12285   5.279   4.227   0.979 -0.4406 -0.3450 -0.0467
 3130SOL    HW212286   5.241   4.139   0.984 -0.9226 -0.1328  0.1309
 3130SOL    HW312287   5.270   4.261   1.068  1.2201 -0.7121  0.2909
 3130SOL    MW412288   5.273   4.220   0.991  0.2188 -0.1489  0.4573
 3131SOL     OW12289   1.422   1.504   4.565  0.0778 -0.1512 -0.0375
 3131SOL    HW212290   1.503   1.526   4.519  0.4011  0.5661  0.8406
 3131SOL    HW312291   1.414   1.571   4.633 -1.0261 -0.4732  0.1651
 3131SOL    MW412292   1.432   1.515   4.568 -0.7474  0.3895  0.4484
 3132SOL     OW12293   6.393   2.219   4.117 -0.2937  0.7392  0.0033
 3132SOL    HW212294   6.446   2.297   4.100 -1.0545  1.5585  1.2338
 3132SOL    HW312295   6.304   2.245   4.091 -1.0876  1.2956  2.8971
 3132SOL    MW412296   6.388   2.233   4.111  0.8066  0.1788 -0.4702
 3133SOL     OW12297   0.495   6.406   3.262 -0.0897  0.2813 -0.1836
 3133SOL    HW212298   0.575   6.451   3.288 -0.3016  1.6620 -1.7598
 3133SOL    HW312299   0.425   6.456   3.304 -0.1685 -1.4042  1.8758
 3133SOL    MW412300   0.496   6.418   3.271  0.0156  0.2157  0.1225
 3134SOL     OW12301   0.404   2.417   3.037 -0.6291  0.5829 -0.2404
 3134SOL    HW212302   0.442   2.344   2.987 -0.2577  0.8412 -0.3358
 3134SOL    HW312303   0.311   2.396   3.042 -0.4610 -0.1128  0.0965
 3134SOL    MW412304   0.397   2.405   3.031  0.3228  0.4999  0.4439
 3135SOL     OW12305   0.164   5.702   2.647  0.4481 -0.2754  0.2820
 3135SOL    HW212306   0.078   5.684   2.684  0.7803  0.3209  1.4032
 3135SOL    HW312307   0.152   5.781   2.593  0.1730 -0.5479 -0.0564
 3135SOL    MW412308   0.151   5.710   2.645 -0.4689 -0.3421  0.3047
 3136SOL     OW12309   1.892   6.161   1.170  0.0089  0.4326  0.0059
 3136SOL    HW212310   1.862   6.206   1.250  1.8906 -0.8330  1.5074
 3136SOL    HW312311   1.976   6.201   1.150  0.4514 -0.5861 -0.2047
 3136SOL    MW412312   1.899   6.172   1.178  0.9633  0.3955 -0.2097
 3137SOL     OW12313   0.156   6.365   1.970  0.2607  0.1114 -0.0064
 3137SOL    HW212314   0.251   6.376   1.975  0.3220  0.0665 -0.9157
 3137SOL    HW312315   0.129   6.415   1.893 -1.0039  3.3312  2.3219
 3137SOL    MW412316   0.165   6.373   1.961  0.2502 -0.3731 -0.2089
 3138SOL     OW12317   3.011   1.999   4.179  0.0741 -0.7538  0.2938
 3138SOL    HW212318   2.972   2.086   4.169 -0.3922 -0.6735  2.4569
 3138SOL    HW312319   3.060   1.985   4.098  0.6508  1.7581  0.1561
 3138SOL    MW412320   3.012   2.008   4.167  0.5654  0.3866 -0.0547
 3139SOL     OW12321   3.630   2.258   1.128 -0.1159  0.0653 -0.6763
 3139SOL    HW212322   3.661   2.345   1.101  1.4835  0.1319  1.1801
 3139SOL    HW312323   3.688   2.197   1.083  0.2924  0.0667 -0.1685
 3139SOL    MW412324   3.642   2.262   1.119 -0.3057 -0.8300  0.1107
 3140SOL     OW12325   2.213   0.223   3.371 -0.3987  0.7914 -0.1437
 3140SOL    HW212326   2.186   0.134   3.348 -1.4497  1.0404  0.0473
 3140SOL    HW312327   2.308   0.218   3.381 -0.2654 -0.0036 -1.4822
 3140SOL    MW412328   2.222   0.211   3.369  0.3659 -0.8948  0.5426
 3141SOL     OW12329   4.054   2.408   3.242  0.2255  0.1294  0.1101
 3141SOL    HW212330   4.093   2.393   3.328 -0.4286 -2.1615  0.0754
 3141SOL    HW312331   3.966   2.370   3.248 -0.6772  1.9045 -0.9300
 3141SOL    MW412332   4.047   2.401   3.254 -0.0836 -0.2492 -0.4699
 3142SOL     OW12333   1.300   3.888   1.981  0.0605  0.0014  0.7920
 3142SOL    HW212334   1.307   3.827   2.054 -1.2986 -2.0238 -0.6439
 3142SOL    HW312335   1.217   3.934   1.996  0.4982  0.6475  1.2584
 3142SOL    MW412336   1.290   3.886   1.992  0.0011 -0.0779  0.0653
 3143SOL     OW12337   4.574   3.142   2.576 -0.0220  0.2894 -0.5200
 3143SOL    HW212338   4.517   3.210   2.613  0.4987  1.0158 -1.0281
 3143SOL    HW312339   4.524   3.061   2.587 -1.3562  0.9679 -1.3359
 3143SOL    MW412340   4.560   3.141   2.582  0.2599  0.2799 -0.0821
 3144SOL     OW12341   5.786   2.530   1.438  0.1147  0.3974  0.6756
 3144SOL    HW212342   5.807   2.612   1.395  1.6022 -0.5090 -0.4046
 3144SOL    HW312343   5.704   2.548   1.485  0.0559  2.2787 -0.0634
 3144SOL    MW412344   5.778   2.543   1.439  0.2616  0.3778 -0.0705
 3145SOL     OW12345   6.215   2.546   6.318  0.7107 -0.1416 -0.0327
 3145SOL    HW212346   6.286   2.577   6.375  0.5309 -1.6286  1.0673
 3145SOL    HW312347   6.223   2.451   6.319  0.3963 -0.2362 -2.1660
 3145SOL    MW412348   6.225   2.537   6.326  0.2930  1.0232 -0.1012
 3146SOL     OW12349   6.127   0.073   0.112 -0.0721  0.1537  0.5558
 3146SOL    HW212350   6.161  -0.014   0.091 -0.3124  0.2356 -0.2188
 3146SOL    HW312351   6.050   0.056   0.167  0.2483 -0.0927  0.9329
 3146SOL    MW412352   6.121   0.059   0.116 -0.5872 -0.0080  0.1019
 3147SOL     OW12353   0.831   3.681   2.076 -0.2721 -0.0960  0.2365
 3147SOL    HW212354   0.811   3.715   2.163  0.3206 -1.6092  1.0184
 3147SOL    HW312355   0.784   3.597   2.072  0.9480 -0.7868 -0.2534
 3147SOL    MW412356   0.822   3.674   2.087 -0.3920 -0.4202  0.4487
 3148SOL     OW12357   4.172   0.522   3.003 -0.1068 -0.3406  0.0011
 3148SOL    HW212358   4.185   0.551   3.093 -0.3898  1.4509 -0.4998
 3148SOL    HW312359   4.212   0.591   2.950 -0.5802 -1.0155 -1.2645
 3148SOL    MW412360   4.179   0.535   3.008 -0.1694 -0.2465 -0.0355
 3149SOL     OW12361   4.133   4.569   6.250 -0.4034  0.0091 -0.3157
 3149SOL    HW212362   4.098   4.602   6.167 -0.6354 -1.8006 -0.9849
 3149SOL    HW312363   4.056   4.538   6.298 -0.1499 -0.0658  0.0446
 3149SOL    MW412364   4.118   4.569   6.246  0.6637  0.2189 -0.3467
 3150SOL     OW12365   0.851   3.177   1.079  0.2587  0.1868 -0.2196
 3150SOL    HW212366   0.864   3.269   1.056 -3.6301  1.4156  1.5166
 3150SOL    HW312367   0.858   3.175   1.175 -0.3670 -1.1438 -0.1715
 3150SOL    MW412368   0.854   3.189   1.089  0.2402  0.4921 -0.1171
 3151SOL     OW12369   4.866   5.542   4.466  0.4846  0.3583  0.1532
 3151SOL    HW212370   4.939   5.583   4.420  0.7160  1.3777  1.3755
 3151SOL    HW312371   4.903   5.513   4.549 -0.7478  2.1636  1.4149
 3151SOL    MW412372   4.881   5.544   4.471  0.7147 -0.3786 -0.5536
 3152SOL     OW12373   2.377   3.301   6.132  0.2992 -0.0760 -0.1526
 3152SOL    HW212374   2.406   3.217   6.168 -0.8668 -0.2563  0.4095
 3152SOL    HW312375   2.284   3.290   6.118 -0.0251  1.3676  0.6337
 3152SOL    MW412376   2.369   3.289   6.135  0.3788  0.7131  0.3260
 3153SOL     OW12377   3.470   3.124   5.819  0.3682 -0.3286  0.2180
 3153SOL    HW212378   3.378   3.131   5.797 -0.1655  1.2531  2.5116
 3153SOL    HW312379   3.517   3.152   5.741 -1.0153 -1.7259 -1.1809
 3153SOL    MW412380   3.464   3.128   5.806 -0.3502  0.5922  0.4245
 3154SOL     OW12381   4.981   6.468   2.686  0.1059  0.0909  0.5997
 3154SOL    HW212382   4.932   6.432   2.612 -0.8401  1.3002  0.6113
 3154SOL    HW312383   5.073   6.457   2.662 -0.1443  1.9332 -1.5523
 3154SOL    MW412384   4.987   6.462   2.673 -0.4373  0.1615  0.1924
 3155SOL     OW12385   0.718   4.405   2.052  0.5238 -0.3470  0.0532
 3155SOL    HW212386   0.723   4.501   2.051  1.2146 -0.3519  1.2377
 3155SOL    HW312387   0.696   4.381   1.961  1.0978  0.8833 -0.4322
 3155SOL    MW412388   0.716   4.415   2.040  0.0639 -0.1947 -0.2024
 3156SOL     OW12389   1.482   3.480   3.576  0.0425 -0.1065  0.2933
 3156SOL    HW212390   1.444   3.394   3.593 -0.3954  0.1320  0.5375
 3156SOL    HW312391   1.576   3.465   3.572 -0.0935 -0.7694 -0.6960
 3156SOL    MW412392   1.490   3.467   3.578  0.2388 -0.8928 -0.3787
 3157SOL     OW12393   6.040   1.037   4.131  0.2821 -0.3397  0.1205
 3157SOL    HW212394   5.956   0.992   4.121  1.3291 -2.1310 -1.0988
 3157SOL    HW312395   6.074   1.007   4.215  0.0310 -0.2029  0.2697
 3157SOL    MW412396   6.033   1.027   4.141 -0.4236 -0.1575 -0.5393
 3158SOL     OW12397   5.517   5.082   1.434  0.1140 -0.5841  0.5571
 3158SOL    HW212398   5.455   5.136   1.386 -1.9803 -1.1120  2.4905
 3158SOL    HW312399   5.551   5.021   1.369 -0.7459  0.2668 -0.7373
 3158SOL    MW412400   5.513   5.081   1.419 -0.4964 -0.3764 -0.3043
 3159SOL     OW12401   4.938   2.841   2.296 -0.2501 -0.1257 -0.1250
 3159SOL    HW212402   4.995   2.817   2.223 -0.7577 -0.0093 -0.5665
 3159SOL    HW312403   4.886   2.762   2.312  1.6568 -1.0873  1.8725
 3159SOL    MW412404   4.939   2.827   2.288  0.5336 -0.2264  0.0630
 3160SOL     OW12405   6.355   3.499   4.737  0.4145 -0.4800  0.2166
 3160SOL    HW212406   6.279   3.513   4.681  1.4937 -0.4462 -1.3085
 3160SOL    HW312407   6.320   3.461   4.817 -1.7148  3.3995  1.3504
 3160SOL    MW412408   6.341   3.496   4.740  0.2906  0.4621  0.4224
 3161SOL     OW12409   5.688   2.747   0.390 -0.9209 -0.0751 -0.5142
 3161SOL    HW212410   5.648   2.713   0.310  1.9061  0.1785 -2.1407
 3161SOL    HW312411   5.757   2.685   0.412  1.2819  2.0944 -0.8938
 3161SOL    MW412412   5.692   2.735   0.383 -0.5196  0.2757  0.0341
 3162SOL     OW12413   5.006   5.398   0.998  0.0407  0.6704  0.1363
 3162SOL    HW212414   4.916   5.430   1.001  0.4352  2.0910 -1.4555
 3162SOL    HW312415   5.042   5.435   0.917  2.4370  1.1710  1.3282
 3162SOL    MW412416   4.999   5.407   0.987 -0.0389  0.4819  0.1271
 3163SOL     OW12417   1.576   5.204   1.252  0.5963  0.5915  0.0056
 3163SOL    HW212418   1.647   5.215   1.189  0.4770 -2.2066 -0.7470
 3163SOL    HW312419   1.497   5.230   1.204  0.6686 -0.1859 -0.5446
 3163SOL    MW412420   1.575   5.209   1.238  0.1733 -0.4964  0.4862
 3164SOL     OW12421   6.304   1.336   2.969 -0.4695 -0.3361  0.5802
 3164SOL    HW212422   6.282   1.274   3.039  1.3485 -0.5080  1.0635
 3164SOL    HW312423   6.252   1.414   2.989 -0.5418 -0.6512  1.6937
 3164SOL    MW412424   6.294   1.338   2.981  0.3362 -0.0668 -0.1528
 3165SOL     OW12425   0.184   4.829   5.481 -0.1698  0.1078  0.0176
 3165SOL    HW212426   0.212   4.799   5.568 -0.6587 -0.1520  0.0873
 3165SOL    HW312427   0.221   4.764   5.421  0.8998  0.7600 -0.0498
 3165SOL    MW412428   0.192   4.816   5.485  0.3786 -0.0265  0.0789
 3166SOL     OW12429   5.358   4.465   5.331  0.1776 -0.3622  0.0357
 3166SOL    HW212430   5.354   4.414   5.250  1.6349  0.8181 -0.8287
 3166SOL    HW312431   5.450   4.463   5.357  0.4188  2.2507 -0.3496
 3166SOL    MW412432   5.370   4.458   5.324  0.5636  0.5835  0.3430
 3167SOL     OW12433   1.947   6.426   2.663 -0.2361 -0.0006  0.4169
 3167SOL    HW212434   2.038   6.442   2.638  0.1429 -1.1133  1.0179
 3167SOL    HW312435   1.897   6.492   2.616  0.5970 -1.0504 -2.1294
 3167SOL    MW412436   1.952   6.437   2.653 -0.4450  0.0023 -0.4299
 3168SOL     OW12437   3.617   6.069   3.591 -0.4369  0.4584  0.3201
 3168SOL    HW212438   3.701   6.026   3.573 -1.1841 -0.7044 -0.5431
 3168SOL    HW312439   3.629   6.159   3.559  0.4825  0.3147  0.2294
 3168SOL    MW412440   3.630   6.075   3.584  0.0096 -0.0740  0.7623
 3169SOL     OW12441   1.801   1.714   1.359 -0.0603 -0.6294 -0.2672
 3169SOL    HW212442   1.756   1.787   1.316  0.9502  0.2302  0.0898
 3169SOL    HW312443   1.784   1.638   1.302 -0.1393  0.1327 -1.2873
 3169SOL    MW412444   1.793   1.713   1.346  0.7559 -0.2256  0.3905
 3170SOL     OW12445   0.321   4.794   4.076 -0.0015  0.5813 -0.4523
 3170SOL    HW212446   0.337   4.876   4.123 -0.3778  1.2221 -1.4281
 3170SOL    HW312447   0.237   4.763   4.111  1.8075 -1.3833  2.6662
 3170SOL    MW412448   0.312   4.801   4.087 -0.3520  0.6460 -0.1004
 3171SOL     OW12449   2.526   3.941   4.270  0.4721  0.0089 -0.0441
 3171SOL    HW212450   2.591   3.891   4.220  1.8689  0.4976  1.2379
 3171SOL    HW312451   2.538   4.032   4.241  0.5517  0.1439  0.4159
 3171SOL    MW412452   2.536   3.946   4.259  0.2506  0.0629  0.5437
 3172SOL     OW12453   3.001   4.614   4.255 -0.1563  0.1565  0.2004
 3172SOL    HW212454   2.945   4.624   4.178 -0.7987  2.0759  0.8550
 3172SOL    HW312455   3.066   4.683   4.247  0.6718 -0.5518  0.6611
 3172SOL    MW412456   3.002   4.624   4.244 -0.3737 -0.2305  0.2427
 3173SOL     OW12457   2.976   6.356   1.826  0.1033 -0.0723  0.0807
 3173SOL    HW212458   3.060   6.372   1.783  0.1058  1.1789  0.5340
 3173SOL    HW312459   2.963   6.261   1.816  2.1180 -0.5122  0.9970
 3173SOL    MW412460   2.986   6.345   1.819 -0.5111  0.5697  0.1023
 3174SOL     OW12461   3.146   5.185   5.450  0.0790  0.2920 -0.2679
 3174SOL    HW212462   3.125   5.196   5.357  0.6785 -0.2080 -0.4652
 3174SOL    HW312463   3.233   5.146   5.451 -0.1600 -0.2559  0.4959
 3174SOL    MW412464   3.155   5.181   5.438  0.1675  0.2315  0.7148
 3175SOL     OW12465   3.780   0.190   4.787  0.1342 -0.0271 -0.2883
 3175SOL    HW212466   3.838   0.117   4.809 -1.0916 -1.3664 -1.2856
 3175SOL    HW312467   3.710   0.186   4.851  0.4563  0.7855  0.1292
 3175SOL    MW412468   3.779   0.180   4.798  0.3657 -0.2772 -0.3389
 3176SOL     OW12469   0.364   4.465   4.262  1.1015 -0.2847  0.3514
 3176SOL    HW212470   0.374   4.416   4.344 -0.1234  0.4942  0.9893
 3176SOL    HW312471   0.293   4.526   4.279  0.1523 -0.7768 -1.6286
 3176SOL    MW412472   0.356   4.466   4.275 -0.1236 -0.1445 -0.2454
 3177SOL     OW12473   3.884   1.255   4.646  0.6657 -0.1031 -0.6238
 3177SOL    HW212474   3.900   1.324   4.581 -2.2732  0.9566 -0.3789
 3177SOL    HW312475   3.947   1.272   4.716  1.6998  0.7181 -1.7107
 3177SOL    MW412476   3.894   1.266   4.647  0.1775 -0.0938 -0.1617
 3178SOL     OW12477   5.292   3.192   0.120 -0.0424 -0.0893  0.7835
 3178SOL    HW212478   5.369   3.248   0.132  0.1210  0.0076 -0.5433
 3178SOL    HW312479   5.322   3.104   0.143  0.6881 -0.1640 -0.3401
 3178SOL    MW412480   5.306   3.188   0.124  0.4683 -0.1647  0.0513
 3179SOL     OW12481   1.418   3.343   6.122 -0.4757  0.1507 -0.7099
 3179SOL    HW212482   1.447   3.428   6.153  0.4207  0.2305 -1.7198
 3179SOL    HW312483   1.376   3.303   6.198  0.7128  0.7548  0.3038
 3179SOL    MW412484   1.416   3.349   6.136  0.1934  0.4411  0.5648
 3180SOL     OW12485   2.055   5.155   2.011  0.1592  0.2591 -0.3809
 3180SOL    HW212486   2.047   5.105   2.092  0.6881 -0.0704 -0.5195
 3180SOL    HW312487   1.974   5.206   2.005 -0.8130 -1.2464 -0.6640
 3180SOL    MW412488   2.043   5.155   2.021  0.1852 -0.4068  0.7662
 3181SOL     OW12489   1.455   5.138   4.272  0.1173  0.7135  0.4154
 3181SOL    HW212490   1.505   5.218   4.285  0.7890  0.6174 -1.3388
 3181SOL    HW312491   1.489   5.077   4.337  2.8034  0.4502 -1.0928
 3181SOL    MW412492   1.466   5.140   4.282  0.2479 -0.0999 -0.2415
 3182SOL     OW12493   1.155   6.175   0.502  0.4390  0.2912  0.2356
 3182SOL    HW212494   1.073   6.131   0.521 -0.2536  1.6450  0.5048
 3182SOL    HW312495   1.217   6.104   0.485 -0.4596 -0.7917  1.2911
 3182SOL    MW412496   1.153   6.160   0.502  0.0957  0.5640  0.5717
 3183SOL     OW12497   6.121   4.441   5.658  0.0559  0.5479  0.6083
 3183SOL    HW212498   6.134   4.466   5.750 -0.9200  1.5275  0.4905
 3183SOL    HW312499   6.046   4.493   5.629 -0.4965 -0.7428 -0.3631
 3183SOL    MW412500   6.113   4.451   5.666 -0.1844  0.1706 -0.3788
 3184SOL     OW12501   6.143   1.317   3.752  0.1374  0.0751  0.3494
 3184SOL    HW212502   6.142   1.293   3.845 -0.2533  0.3245  0.4115
 3184SOL    HW312503   6.211   1.384   3.746 -1.0922  1.4182  0.8087
 3184SOL    MW412504   6.152   1.323   3.764 -0.0632  0.4583 -0.1233
 3185SOL     OW12505   1.647   4.304   0.386 -0.5656  0.4010 -0.0334
 3185SOL    HW212506   1.697   4.383   0.403  0.1914  0.2556 -1.4475
 3185SOL    HW312507   1.647   4.295   0.291  1.7920 -2.7758  0.0956
 3185SOL    MW412508   1.653   4.313   0.376 -0.8517 -0.5954 -0.0339
 3186SOL     OW12509   1.053   2.526   0.077  0.3202 -0.3335  0.2613
 3186SOL    HW212510   1.115   2.479   0.021  1.2664 -0.2669  1.2163
 3186SOL    HW312511   1.010   2.588   0.019 -0.5110 -1.9369 -0.8996
 3186SOL    MW412512   1.056   2.528   0.062  0.5658 -0.1005  0.4224
 3187SOL     OW12513   1.112   4.456   3.523 -0.5749 -0.0133 -0.3663
 3187SOL    HW212514   1.121   4.486   3.613  0.4678 -2.7506  0.5312
 3187SOL    HW312515   1.171   4.381   3.516 -1.2517 -0.4229 -3.0980
 3187SOL    MW412516   1.121   4.450   3.534  0.2726 -0.1604 -0.3428
 3188SOL     OW12517   4.242   1.362   5.040 -0.4024  0.1786  0.0423
 3188SOL    HW212518   4.239   1.453   5.068 -0.0413 -0.4090  2.1744
 3188SOL    HW312519   4.150   1.335   5.032 -0.5105  0.7797 -0.8686
 3188SOL    MW412520   4.230   1.370   5.043  0.4059 -0.6132  0.0072
 3189SOL     OW12521   0.695   0.923   1.399 -0.5602 -0.2545 -0.2889
 3189SOL    HW212522   0.767   0.968   1.355 -0.7746 -0.7064 -1.1185
 3189SOL    HW312523   0.733   0.842   1.433 -0.5417 -0.2017 -0.1812
 3189SOL    MW412524   0.709   0.919   1.398 -0.5322 -0.0189  0.2272
 3190SOL     OW12525   0.642   4.766   3.802  0.2354  0.4542  0.2723
 3190SOL    HW212526   0.630   4.737   3.893 -1.4718  0.7447  0.1881
 3190SOL    HW312527   0.553   4.785   3.772  0.7723  0.3272 -1.4864
 3190SOL    MW412528   0.628   4.765   3.810 -0.0423 -0.5679 -0.0380
 3191SOL     OW12529   6.073   3.688   1.025  0.4810  0.6376 -0.3032
 3191SOL    HW212530   6.115   3.648   0.949  2.0945  1.1201  0.2946
 3191SOL    HW312531   6.133   3.757   1.053 -0.6044  1.2053  0.7543
 3191SOL    MW412532   6.086   3.692   1.019 -0.2179  0.4979  0.2275
 3192SOL     OW12533   5.477   4.145   0.347 -0.1369 -0.2788  0.0316
 3192SOL    HW212534   5.477   4.055   0.380 -0.4767 -0.2655  0.0810
 3192SOL    HW312535   5.559   4.153   0.299 -0.2480 -0.7153 -0.2400
 3192SOL    MW412536   5.487   4.134   0.345  0.6227 -0.2803  0.3717
 3193SOL     OW12537   0.177   6.321   3.988  0.0946 -0.2288 -0.5977
 3193SOL    HW212538   0.104   6.365   3.943  0.0597  0.3811  0.0462
 3193SOL    HW312539   0.215   6.388   4.044  0.0523 -1.0122  0.3995
 3193SOL    MW412540   0.172   6.336   3.989  0.1308 -1.0296 -0.2263
 3194SOL     OW12541   6.398   0.822   6.020  0.9164  0.1690  0.0643
 3194SOL    HW212542   6.424   0.908   6.052 -0.1656  0.9033 -0.9068
 3194SOL    HW312543   6.480   0.773   6.011  1.4997  0.9372  1.0566
 3194SOL    MW412544   6.412   0.827   6.023 -0.3060  0.5745  0.4110
 3195SOL     OW12545   6.022   2.315   5.697 -0.2993 -0.7091  0.0497
 3195SOL    HW212546   5.961   2.381   5.731  0.5519 -0.0506  0.3335
 3195SOL    HW312547   6.094   2.366   5.660  0.4079 -1.4869  0.3263
 3195SOL    MW412548   6.023   2.331   5.696  0.0927 -0.1488 -0.4175
 3196SOL     OW12549   1.823   3.451   5.644 -0.8781  0.2436 -0.4938
 3196SOL    HW212550   1.823   3.500   5.725  0.7889 -1.4417  0.6044
 3196SOL    HW312551   1.866   3.508   5.580 -1.0255  1.0663  0.1349
 3196SOL    MW412552   1.828   3.465   5.646  0.1576 -0.5627 -0.2774
 3197SOL     OW12553   2.398   5.622   0.939  0.6766  0.6205 -0.2131
 3197SOL    HW212554   2.472   5.571   0.972  0.8406  0.4568 -0.8195
 3197SOL    HW312555   2.355   5.655   1.017  1.9285  1.4897  0.1383
 3197SOL    MW412556   2.402   5.619   0.953  0.0798 -0.5233  0.2922
 3198SOL     OW12557   1.647   2.616   0.841  0.0588  0.0920  0.0721
 3198SOL    HW212558   1.740   2.593   0.843  0.0458 -0.0327 -0.7660
 3198SOL    HW312559   1.637   2.677   0.914  0.9892  0.8081 -0.3806
 3198SOL    MW412560   1.658   2.621   0.851  0.3562  0.5323  0.2016
 3199SOL     OW12561   6.409   1.603   3.258  0.6451  0.5261 -0.3544
 3199SOL    HW212562   6.337   1.595   3.320  0.9189  1.2404  0.0736
 3199SOL    HW312563   6.366   1.617   3.173  0.2667 -0.6806 -0.3771
 3199SOL    MW412564   6.394   1.604   3.255  0.6853 -0.4319  0.4951
 3200SOL     OW12565   4.685   5.730   0.452  0.2446 -0.0073 -0.1219
 3200SOL    HW212566   4.730   5.668   0.395 -1.8381 -0.1549 -1.7333
 3200SOL    HW312567   4.639   5.676   0.516  1.0936  0.0699  0.5693
 3200SOL    MW412568   4.685   5.715   0.453 -0.2455 -0.3689  0.1532
 3201SOL     OW12569   4.984   3.729   0.358  0.1147 -0.0508  0.6274
 3201SOL    HW212570   4.940   3.646   0.378 -1.3339  0.3719 -0.6377
 3201SOL    HW312571   4.942   3.760   0.279  1.8619  1.0498  0.0727
 3201SOL    MW412572   4.973   3.722   0.351  0.0719 -0.0682 -0.2964
 3202SOL     OW12573   0.897   4.661   5.663  0.2414 -0.2730 -0.4807
 3202SOL    HW212574   0.881   4.735   5.721 -1.0156 -0.9286  0.0468
 3202SOL    HW312575   0.889   4.584   5.719 -2.2516 -0.9923 -1.6859
 3202SOL    MW412576   0.894   4.661   5.678  0.6689 -0.4014  0.1246
 3203SOL     OW12577   4.356   5.931   6.252 -0.0144  0.5049 -0.1192
 3203SOL    HW212578   4.282   5.989   6.268 -0.6363  0.7192 -3.1453
 3203SOL    HW312579   4.317   5.845   6.235  0.3471  0.6159 -1.7303
 3203SOL    MW412580   4.341   5.927   6.252 -0.1346 -0.3465  0.5563
 3204SOL     OW12581   2.668   4.209   2.771  0.0606 -0.2760  0.1436
 3204SOL    HW212582   2.672   4.113   2.773 -1.6301 -0.5814 -3.2259
 3204SOL    HW312583   2.584   4.228   2.729 -0.1286  2.7594  1.6715
 3204SOL    MW412584   2.657   4.199   2.766  0.1172 -0.3035  0.4630
 3205SOL     OW12585   3.056   1.157   5.593 -0.1284  0.1571 -0.3700
 3205SOL    HW212586   3.078   1.177   5.502  0.7762  0.2003 -0.1516
 3205SOL    HW312587   3.032   1.242   5.630  1.7245  0.5476  0.0175
 3205SOL    MW412588   3.056   1.171   5.586 -0.2027 -0.3401  0.5635
 3206SOL     OW12589   0.630   0.600   0.333 -0.2006 -0.3653  0.1209
 3206SOL    HW212590   0.590   0.644   0.407 -0.4720 -0.3335 -0.0400
 3206SOL    HW312591   0.705   0.654   0.309  0.7936 -1.1702  1.3103
 3206SOL    MW412592   0.635   0.613   0.339 -0.0081 -0.2281 -0.3258
 3207SOL     OW12593   3.185   5.366   5.681 -0.4118 -0.8754  0.0284
 3207SOL    HW212594   3.173   5.301   5.611  2.3617 -1.1519 -0.2745
 3207SOL    HW312595   3.203   5.315   5.759 -1.9038 -0.5029  0.6672
 3207SOL    MW412596   3.186   5.351   5.682 -0.2813 -0.1599 -0.6738
 3208SOL     OW12597   1.507   4.236   3.908  0.4966  0.0435  0.7973
 3208SOL    HW212598   1.541   4.280   3.830 -3.0442  0.1720 -0.8765
 3208SOL    HW312599   1.516   4.143   3.889 -0.2133  0.0749  0.2170
 3208SOL    MW412600   1.513   4.229   3.895 -0.7460 -0.0724 -0.0148
 3209SOL     OW12601   4.338   6.328   0.797  0.0969  0.5303 -0.0442
 3209SOL    HW212602   4.430   6.300   0.801  1.0289  3.3244  3.5774
 3209SOL    HW312603   4.327   6.361   0.708  1.9983 -1.4266 -1.1139
 3209SOL    MW412604   4.349   6.329   0.786 -0.5563 -0.0149 -0.6333
 3210SOL     OW12605   5.100   3.895   6.126 -0.2898  0.3751 -0.0565
 3210SOL    HW212606   5.032   3.860   6.068 -1.2658  0.1805  1.1620
 3210SOL    HW312607   5.053   3.951   6.187  0.9090  1.7362 -0.3177
 3210SOL    MW412608   5.085   3.898   6.127 -0.1376 -0.6333  0.3333
 3211SOL     OW12609   5.815   3.617   2.288 -0.2164  0.2012  0.2860
 3211SOL    HW212610   5.846   3.676   2.356 -0.0866  0.3217  0.1236
 3211SOL    HW312611   5.868   3.639   2.211  0.5737 -0.8208  0.4956
 3211SOL    MW412612   5.826   3.627   2.287  0.0953 -0.0880 -0.0895
 3212SOL     OW12613   6.161   3.195   3.309  0.5457  0.8047  0.1168
 3212SOL    HW212614   6.144   3.223   3.399  0.5246  0.2350  0.2950
 3212SOL    HW312615   6.255   3.177   3.306  0.9702  2.8301 -0.5567
 3212SOL    MW412616   6.171   3.196   3.320 -0.4670  0.1433  0.0059
 3213SOL     OW12617   0.098   0.451   5.218 -0.6850  0.4997 -0.2860
 3213SOL    HW212618   0.145   0.445   5.134  1.9407  0.6640  1.0653
 3213SOL    HW312619   0.013   0.411   5.200 -0.3648  0.8555 -3.1119
 3213SOL    MW412620   0.093   0.445   5.204 -0.0238  0.1657 -0.3728
 3214SOL     OW12621   5.482   1.619   2.122  0.6901 -0.2281  1.0639
 3214SOL    HW212622   5.427   1.541   2.135 -1.6240  1.2982  0.9809
 3214SOL    HW312623   5.438   1.688   2.172  1.9430  1.3597  0.0682
 3214SOL    MW412624   5.469   1.618   2.130 -0.5029 -0.3393  0.0336
 3215SOL     OW12625   1.879   2.304   4.199 -0.2384  0.1938 -0.0323
 3215SOL    HW212626   1.952   2.250   4.168 -1.0919 -0.8785 -0.2696
 3215SOL    HW312627   1.852   2.353   4.122 -0.4909 -0.2778 -0.2521
 3215SOL    MW412628   1.885   2.303   4.185  0.0236  0.2460  0.0905
 3216SOL     OW12629   4.682   5.110   5.397  0.3407  0.3393  0.4757
 3216SOL    HW212630   4.626   5.110   5.475  0.2326 -2.2738  0.4917
 3216SOL    HW312631   4.763   5.069   5.425  0.3224 -0.5994 -0.7337
 3216SOL    MW412632   4.685   5.105   5.411 -0.1620 -0.3834  0.1069
 3217SOL     OW12633   2.367   4.856   4.365  0.0557  0.3151 -0.1839
 3217SOL    HW212634   2.377   4.827   4.275  0.6447 -0.0015 -0.0225
 3217SOL    HW312635   2.321   4.940   4.359 -0.5422 -0.0467 -0.7283
 3217SOL    MW412636   2.362   4.863   4.352  0.3271 -0.2310  0.1046
 3218SOL     OW12637   1.934   2.310   3.325  0.1591 -0.2573  0.3444
 3218SOL    HW212638   2.029   2.310   3.313  0.1540 -1.4540  0.2253
 3218SOL    HW312639   1.916   2.232   3.376 -0.7519  0.0367  0.4831
 3218SOL    MW412640   1.944   2.300   3.330  0.1089  0.1881 -0.2761
 3219SOL     OW12641   5.697   3.912   2.034 -0.0889  0.2710 -0.4218
 3219SOL    HW212642   5.790   3.929   2.024  0.1878 -0.1829  1.1736
 3219SOL    HW312643   5.659   3.936   1.949  1.2337  1.9884 -0.5768
 3219SOL    MW412644   5.704   3.917   2.021  0.7560 -0.3324 -0.1397
 3220SOL     OW12645   6.025   5.305   0.873  0.3523 -0.4875 -0.8977
 3220SOL    HW212646   5.956   5.294   0.938 -2.5775 -1.0015 -3.8008
 3220SOL    HW312647   6.058   5.394   0.886 -0.3088 -0.4927  1.0329
 3220SOL    MW412648   6.020   5.315   0.883 -0.3940 -0.5616 -0.0011
 3221SOL     OW12649   4.325   6.200   1.709 -0.4851  0.1552  0.2449
 3221SOL    HW212650   4.323   6.197   1.613  0.7443  0.2067  0.2111
 3221SOL    HW312651   4.263   6.270   1.731 -0.2654  0.6180 -0.5464
 3221SOL    MW412652   4.316   6.209   1.699 -0.1055 -0.2438 -0.4679
 3222SOL     OW12653   1.371   0.861   5.818  0.0482 -0.5354 -0.2709
 3222SOL    HW212654   1.425   0.815   5.754  0.8398 -2.5156  1.6629
 3222SOL    HW312655   1.416   0.943   5.834 -0.1185 -0.0412 -2.1252
 3222SOL    MW412656   1.384   0.866   5.812 -0.3546  0.8703  0.1766
 3223SOL     OW12657   0.848   5.416   2.170 -0.1277 -0.0610  0.1965
 3223SOL    HW212658   0.911   5.361   2.217 -0.6561 -1.1082 -0.2991
 3223SOL    HW312659   0.844   5.497   2.222  0.6642 -0.4783  0.9328
 3223SOL    MW412660   0.856   5.420   2.183  0.2565  0.9405 -0.3047
 3224SOL     OW12661   0.913   0.693   2.842  0.0490 -0.0663 -0.0812
 3224SOL    HW212662   0.828   0.693   2.798 -1.0088 -0.9460  1.8141
 3224SOL    HW312663   0.936   0.600   2.850  0.8221  0.1329  0.0800
 3224SOL    MW412664   0.904   0.681   2.838 -0.2683 -0.2173  0.3726
 3225SOL     OW12665   2.246   2.227   4.816  0.1950  0.0252 -0.1611
 3225SOL    HW212666   2.241   2.186   4.902 -0.8734 -0.8488 -0.6033
 3225SOL    HW312667   2.209   2.314   4.828  0.6251  0.1404  0.3804
 3225SOL    MW412668   2.240   2.233   4.829 -0.0696 -0.0840  0.2199
 3226SOL     OW12669   2.304   1.568   5.082 -0.2109  0.2096 -0.2318
 3226SOL    HW212670   2.296   1.481   5.122  0.2080  0.3549  0.1761
 3226SOL    HW312671   2.371   1.558   5.015 -0.0945  0.2436 -0.1198
 3226SOL    MW412672   2.312   1.555   5.079  0.9032  0.5344 -0.0390
 3227SOL     OW12673   1.278   5.138   5.095  0.5143  0.4080  0.7662
 3227SOL    HW212674   1.253   5.134   5.002  1.2043  0.4222  0.5669
 3227SOL    HW312675   1.300   5.230   5.110  0.6956  0.3490  0.8634
 3227SOL    MW412676   1.278   5.149   5.084 -0.5354  0.1501  0.4378
 3228SOL     OW12677   4.046   5.186   2.397 -0.0905  0.1573  0.1871
 3228SOL    HW212678   4.124   5.161   2.348  0.1422  4.3013 -2.0155
 3228SOL    HW312679   3.974   5.174   2.334 -0.3974  1.5891  0.2437
 3228SOL    MW412680   4.047   5.181   2.382 -0.0714 -0.6063  0.1394
 3229SOL     OW12681   3.262   6.091   3.409 -0.1158  0.2514 -0.1752
 3229SOL    HW212682   3.195   6.055   3.351  0.2340 -0.8787  0.0994
 3229SOL    HW312683   3.324   6.135   3.350 -0.1828 -0.2016 -0.5927
 3229SOL    MW412684   3.262   6.092   3.393 -0.3854  0.0571  0.4356
 3230SOL     OW12685   2.170   5.831   5.020  0.1601 -0.4438 -0.3969
 3230SOL    HW212686   2.240   5.793   5.073 -0.4671 -0.9043  0.1160
 3230SOL    HW312687   2.198   5.817   4.930  0.8578 -0.3710 -0.1957
 3230SOL    MW412688   2.183   5.824   5.015 -0.7621 -0.4630 -0.3095
 3231SOL     OW12689   1.487   1.607   0.235 -0.0277 -0.2523  0.8307
 3231SOL    HW212690   1.434   1.685   0.222  0.7124  0.0296 -0.8264
 3231SOL    HW312691   1.518   1.585   0.147  0.2958 -2.0463  1.3578
 3231SOL    MW412692   1.484   1.614   0.221  0.4487  0.1277 -0.7555
 3232SOL     OW12693   5.266   5.907   0.657  0.3400  0.1567  0.6069
 3232SOL    HW212694   5.274   5.861   0.573  1.4400 -1.0413  1.3407
 3232SOL    HW312695   5.337   5.971   0.656 -2.6349  3.8460 -1.4993
 3232SOL    MW412696   5.276   5.910   0.646  0.5276 -0.4687  0.1171
 3233SOL     OW12697   0.480   4.652   5.856 -0.4117  0.5752 -0.3635
 3233SOL    HW212698   0.480   4.601   5.775 -0.3115  2.0127 -1.2981
 3233SOL    HW312699   0.411   4.716   5.845  0.7508  1.9359 -0.0691
 3233SOL    MW412700   0.471   4.653   5.844 -0.0508  0.5899 -0.7324
 3234SOL     OW12701   1.448   2.974   0.903 -0.0201  0.1401  0.4552
 3234SOL    HW212702   1.505   3.021   0.841 -0.2554 -0.3137 -0.1151
 3234SOL    HW312703   1.449   3.028   0.982 -0.8137  1.4577 -0.3992
 3234SOL    MW412704   1.456   2.987   0.905 -0.0134  0.1117  0.6582
 3235SOL     OW12705   5.203   0.683   0.278 -0.6983 -0.2097 -0.1600
 3235SOL    HW212706   5.128   0.696   0.220 -0.5335 -0.8156 -0.5152
 3235SOL    HW312707   5.227   0.590   0.267 -0.0165 -0.0730  0.0944
 3235SOL    MW412708   5.196   0.672   0.269  0.2014 -0.0508  0.0939
 3236SOL     OW12709   5.710   0.783   1.626  0.3876 -0.6345 -0.1104
 3236SOL    HW212710   5.761   0.782   1.545  0.2387 -0.9494 -0.2030
 3236SOL    HW312711   5.769   0.820   1.691  1.0396 -1.7673 -0.0288
 3236SOL    MW412712   5.725   0.788   1.624 -0.0660  0.8979 -0.1746
 3237SOL     OW12713   0.982   6.472   4.791  0.0025  0.2654  0.1451
 3237SOL    HW212714   0.993   6.545   4.851  0.4112 -1.2559  1.9996
 3237SOL    HW312715   1.054   6.412   4.812 -1.2895 -1.4661 -0.1290
 3237SOL    MW412716   0.993   6.474   4.801  0.4297 -0.4416  0.3144
 3238SOL     OW12717   1.178   2.171   4.267 -0.6649  0.5643  0.3435
 3238SOL    HW212718   1.179   2.213   4.353  0.4245 -0.8600  1.0757
 3238SOL    HW312719   1.098   2.119   4.266 -0.6259  0.5023  0.5278
 3238SOL    MW412720   1.168   2.170   4.278  0.2813 -0.0713  0.7810
 3239SOL     OW12721   5.353   4.800   0.686  0.4922 -0.0226  0.0523
 3239SOL    HW212722   5.318   4.813   0.774  2.5389 -0.3612  0.9855
 3239SOL    HW312723   5.388   4.711   0.687  1.1911  0.2251 -0.8456
 3239SOL    MW412724   5.353   4.790   0.698  0.2598  0.2412 -0.2237
 3240SOL     OW12725   3.989   0.904   1.615 -0.1462  0.3236 -0.1840
 3240SOL    HW212726   3.999   0.828   1.672 -0.6900 -0.0664 -0.5938
 3240SOL    HW312727   3.923   0.877   1.551 -0.2646  1.1028 -0.3998
 3240SOL    MW412728   3.981   0.890   1.614  0.1575 -0.3078 -0.1163
 3241SOL     OW12729   5.337   1.317   0.211  0.2009  0.2811  0.5894
 3241SOL    HW212730   5.271   1.312   0.280 -0.0166  0.2523  0.3771
 3241SOL    HW312731   5.418   1.288   0.254  0.1638  0.7025  0.9579
 3241SOL    MW412732   5.339   1.313   0.226 -0.1178 -0.2484  0.2223
 3242SOL     OW12733   2.691   1.396   4.397 -0.1557  0.3978 -0.1155
 3242SOL    HW212734   2.636   1.318   4.393 -0.9427  0.8410  1.3601
 3242SOL    HW312735   2.635   1.466   4.365  0.9308  0.2401 -2.6227
 3242SOL    MW412736   2.677   1.395   4.392  0.1043  0.2458 -0.0484
 3243SOL     OW12737   2.180   1.186   2.310  0.3048  0.5125 -0.2860
 3243SOL    HW212738   2.113   1.207   2.245  0.0645  0.1486 -0.1614
 3243SOL    HW312739   2.249   1.250   2.295 -0.4400  1.4372  0.1356
 3243SOL    MW412740   2.180   1.197   2.300 -0.1609  0.3650  0.5552
 3244SOL     OW12741   0.314   1.359   1.297 -0.3256  1.0052  0.0992
 3244SOL    HW212742   0.262   1.289   1.259  3.1785 -1.6522 -0.4185
 3244SOL    HW312743   0.329   1.331   1.388  0.8139  1.2082 -0.0021
 3244SOL    MW412744   0.309   1.346   1.304  0.9592  0.6143  0.2866
 3245SOL     OW12745   0.962   5.477   1.001 -0.0454 -0.3184 -0.1260
 3245SOL    HW212746   0.928   5.388   0.992  1.8252 -0.9534 -1.3547
 3245SOL    HW312747   0.965   5.512   0.912 -1.7054  1.4062  0.4189
 3245SOL    MW412748   0.958   5.470   0.988  0.0815 -0.5731  0.3983
 3246SOL     OW12749   4.094   2.342   0.776 -1.0467 -0.6671  0.4891
 3246SOL    HW212750   4.015   2.347   0.723 -1.8604  0.9357  1.7708
 3246SOL    HW312751   4.151   2.282   0.728 -2.9015 -1.6440 -0.6280
 3246SOL    MW412752   4.091   2.335   0.763  0.1469 -0.5065  0.2601
 3247SOL     OW12753   1.561   0.361   1.614 -0.1385 -0.3558 -0.1558
 3247SOL    HW212754   1.548   0.266   1.619 -0.1064 -0.4044 -0.9219
 3247SOL    HW312755   1.480   0.395   1.576  0.1773 -0.1701 -0.6727
 3247SOL    MW412756   1.549   0.353   1.610 -0.0018  0.1147 -0.0204
 3248SOL     OW12757   0.875   4.069   3.299  0.2143  0.3170  0.2028
 3248SOL    HW212758   0.872   4.125   3.222 -1.4284 -1.0506 -0.8259
 3248SOL    HW312759   0.888   4.128   3.372  0.9460  1.7555 -1.0391
 3248SOL    MW412760   0.876   4.084   3.298  0.1998  0.4387 -0.0323
 3249SOL     OW12761   0.616   6.371   0.760 -0.1179 -0.2462  0.2037
 3249SOL    HW212762   0.687   6.309   0.776 -0.1551  0.0303  1.5448
 3249SOL    HW312763   0.650   6.430   0.692  0.6337 -0.5938  0.2672
 3249SOL    MW412764   0.630   6.371   0.753  0.2656 -0.3076 -0.3211
 3250SOL     OW12765   5.826   2.459   3.667 -0.3184  0.0803 -0.7196
 3250SOL    HW212766   5.889   2.410   3.614 -0.2252 -1.2963  0.5864
 3250SOL    HW312767   5.845   2.432   3.757  0.3692  3.2574  0.2258
 3250SOL    MW412768   5.837   2.449   3.672  0.2134 -0.3454  0.1109
 3251SOL     OW12769   1.442   2.639   2.324 -0.7769 -0.2330 -0.2774
 3251SOL    HW212770   1.480   2.570   2.270  4.1940  0.9869  1.1890
 3251SOL    HW312771   1.461   2.613   2.414 -2.0166  1.3529  0.5077
 3251SOL    MW412772   1.449   2.627   2.329  0.8102 -0.0596  0.1632
 3252SOL     OW12773   4.706   5.065   2.570 -0.3691 -0.2753  0.1548
 3252SOL    HW212774   4.696   5.150   2.527  0.3002 -0.9323 -1.3736
 3252SOL    HW312775   4.741   5.086   2.657 -3.4734  1.2074  1.1838
 3252SOL    MW412776   4.710   5.079   2.576  0.0370  0.4643  0.1603
 3253SOL     OW12777   1.259   0.230   3.626 -0.2495 -0.4562 -0.4591
 3253SOL    HW212778   1.198   0.288   3.672  1.1004  0.9517 -0.3797
 3253SOL    HW312779   1.227   0.142   3.646 -1.3042  0.1931  0.8991
 3253SOL    MW412780   1.247   0.226   3.635 -0.3933  0.0383  0.1359
 3254SOL     OW12781   6.378   4.502   4.402 -0.1613  0.1913  0.0992
 3254SOL    HW212782   6.334   4.529   4.321  1.6896 -0.1280 -1.0798
 3254SOL    HW312783   6.403   4.410   4.386  1.8987  0.6798  0.2021
 3254SOL    MW412784   6.375   4.493   4.389  0.0846 -0.4543  0.0355
 3255SOL     OW12785   1.283   6.237   3.278  0.2363  0.3692  0.1478
 3255SOL    HW212786   1.219   6.182   3.323  0.5007  1.5622  2.0817
 3255SOL    HW312787   1.323   6.289   3.347  0.3485  2.6406 -1.5190
 3255SOL    MW412788   1.280   6.236   3.293  0.0004 -0.0987 -0.1515
 3256SOL     OW12789   0.204   5.184   4.560  0.0825  0.6453 -0.2151
 3256SOL    HW212790   0.185   5.278   4.556 -0.9914  0.5196  1.1363
 3256SOL    HW312791   0.141   5.150   4.623  0.1343 -1.0839 -1.0494
 3256SOL    MW412792   0.194   5.192   4.568  0.1921 -0.1058  0.0107
 3257SOL     OW12793   2.350   0.782   4.876  0.4035 -0.6411  0.5162
 3257SOL    HW212794   2.391   0.735   4.949  1.2118  0.0734  0.5419
 3257SOL    HW312795   2.336   0.715   4.809 -1.1254 -1.4810  1.6171
 3257SOL    MW412796   2.354   0.767   4.877 -0.1766 -0.4824  0.2115
 3258SOL     OW12797   0.841   0.940   1.914  0.4829 -0.3963  0.5406
 3258SOL    HW212798   0.858   0.931   2.007 -0.1782 -2.8993  0.4666
 3258SOL    HW312799   0.822   0.852   1.883  1.2264  0.2655 -2.0899
 3258SOL    MW412800   0.841   0.927   1.922 -0.0501 -0.0105  0.2517
 3259SOL     OW12801   3.939   1.067   5.463 -0.6805  0.2946 -0.0325
 3259SOL    HW212802   3.888   1.121   5.524  1.3215  0.4800  1.5741
 3259SOL    HW312803   3.988   1.131   5.410 -0.4740  0.0824 -0.0973
 3259SOL    MW412804   3.939   1.083   5.464 -0.5856 -0.3791  0.4421
 3260SOL     OW12805   3.394   3.702   0.938 -0.2034  0.3826 -0.1036
 3260SOL    HW212806   3.321   3.704   0.875 -0.1208  0.6211 -0.1959
 3260SOL    HW312807   3.450   3.632   0.908  0.1063  0.8382 -0.6083
 3260SOL    MW412808   3.392   3.693   0.926  0.2518  0.2596  0.1392
 3261SOL     OW12809   4.917   3.564   5.648 -0.6411 -0.8565  0.3057
 3261SOL    HW212810   4.850   3.573   5.716  1.0566  0.0322  1.9618
 3261SOL    HW312811   4.974   3.494   5.679  1.0021  0.5539  0.6100
 3261SOL    MW412812   4.915   3.556   5.661 -0.0792 -0.4390 -0.2124
 3262SOL     OW12813   2.477   1.210   4.436 -0.2468  0.0345  0.1084
 3262SOL    HW212814   2.549   1.155   4.465 -0.0057  0.1013 -0.3553
 3262SOL    HW312815   2.456   1.264   4.513 -0.4698 -0.6768  0.5513
 3262SOL    MW412816   2.484   1.210   4.450 -0.1671  0.0354 -0.4492
 3263SOL     OW12817   1.662   5.499   0.756  0.1827 -0.4980 -0.1254
 3263SOL    HW212818   1.616   5.548   0.688  1.1575  0.5696 -0.0501
 3263SOL    HW312819   1.618   5.414   0.758 -0.2473 -0.3449 -1.6654
 3263SOL    MW412820   1.650   5.494   0.747  0.1675  0.1239 -0.7959
 3264SOL     OW12821   5.911   3.663   4.212  0.0683  0.2050 -0.2278
 3264SOL    HW212822   5.862   3.599   4.160 -0.7900  1.3307 -0.8677
 3264SOL    HW312823   5.910   3.742   4.158  1.5257  0.6284  0.3230
 3264SOL    MW412824   5.904   3.665   4.198 -0.2059 -0.1728 -0.0567
 3265SOL     OW12825   1.768   0.636   0.240 -0.3765  0.1537 -0.7763
 3265SOL    HW212826   1.702   0.586   0.191 -0.3439 -1.2535  0.5679
 3265SOL    HW312827   1.806   0.695   0.174 -0.7924 -1.2037 -2.3052
 3265SOL    MW412828   1.765   0.637   0.225  0.2260 -0.6450  0.1315
 3266SOL     OW12829   0.522   2.886   5.958  0.5761  0.1212 -0.3497
 3266SOL    HW212830   0.616   2.902   5.960  1.0243 -1.9815  2.6213
 3266SOL    HW312831   0.512   2.797   5.993 -2.5773  0.8145  0.8639
 3266SOL    MW412832   0.533   2.876   5.963 -0.0104 -0.0909 -0.1274
 3267SOL     OW12833   1.354   2.170   3.011  0.2998 -0.7795 -0.6340
 3267SOL    HW212834   1.430   2.161   3.067 -0.6998  0.0373  0.9148
 3267SOL    HW312835   1.282   2.191   3.070 -0.6088  1.1855 -2.2854
 3267SOL    MW412836   1.354   2.171   3.026 -0.1553 -0.0333 -0.6035
 3268SOL     OW12837   1.952   4.749   4.155 -0.2976  0.3825  0.0040
 3268SOL    HW212838   1.943   4.824   4.214  1.6326  1.4792 -0.9802
 3268SOL    HW312839   1.947   4.673   4.213  0.4800  1.3729  1.4541
 3268SOL    MW412840   1.950   4.749   4.171 -0.2330 -0.2206  0.0438
 3269SOL     OW12841   4.790   0.519   2.082 -0.4470 -0.2934  0.0955
 3269SOL    HW212842   4.834   0.448   2.034  1.5904  0.9501  0.0231
 3269SOL    HW312843   4.788   0.592   2.020  1.5494  1.1081  1.5657
 3269SOL    MW412844   4.795   0.519   2.067 -0.1071 -0.0880  0.6047
 3270SOL     OW12845   0.576   2.379   5.987 -0.4370 -0.0557  0.0306
 3270SOL    HW212846   0.607   2.339   5.906  0.3312  0.8836 -0.1518
 3270SOL    HW312847   0.591   2.312   6.054  3.9522  0.9326  0.3466
 3270SOL    MW412848   0.582   2.365   5.985  0.0262  0.1041 -0.0368
 3271SOL     OW12849   0.950   1.258   3.603 -0.0191 -0.6526  0.3947
 3271SOL    HW212850   0.855   1.270   3.610  0.1070  0.4057  0.4702
 3271SOL    HW312851   0.982   1.341   3.568  1.0439 -0.4334  1.7986
 3271SOL    MW412852   0.942   1.271   3.599 -0.0679 -0.2176  0.2622
 3272SOL     OW12853   0.276   6.071   3.865 -0.0447 -0.4190  0.6440
 3272SOL    HW212854   0.235   6.153   3.894  1.2228 -0.4745  2.7791
 3272SOL    HW312855   0.203   6.011   3.853 -0.8467  0.4412  1.0712
 3272SOL    MW412856   0.261   6.074   3.867 -0.0166  0.5331 -0.5828
 3273SOL     OW12857   4.912   0.406   0.161 -0.2213  0.0530  0.0641
 3273SOL    HW212858   4.817   0.415   0.157 -0.2495  3.4682  3.1906
 3273SOL    HW312859   4.944   0.455   0.085 -0.8601 -1.3465 -1.1656
 3273SOL    MW412860   4.904   0.413   0.150  0.2048 -0.6459  0.5205
 3274SOL     OW12861   1.497   3.995   0.254  0.7742 -0.0537  0.0155
 3274SOL    HW212862   1.479   3.937   0.180 -0.8809 -0.8592  1.0075
 3274SOL    HW312863   1.411   4.019   0.288  1.4193 -1.5238  3.0688
 3274SOL    MW412864   1.483   3.991   0.249  0.4043  0.4977 -0.0005
 3275SOL     OW12865   4.432   3.064   0.344 -0.5333 -0.1542 -0.0056
 3275SOL    HW212866   4.480   3.117   0.281 -0.9722  1.2393  0.7819
 3275SOL    HW312867   4.358   3.029   0.294  0.4185 -1.0491 -0.8365
 3275SOL    MW412868   4.428   3.066   0.329 -0.5528  0.1718 -0.4390
 3276SOL     OW12869   3.145   3.518   2.015 -0.2694 -0.4638  0.8762
 3276SOL    HW212870   3.217   3.546   1.959 -0.4521 -1.2002  0.2597
 3276SOL    HW312871   3.069   3.568   1.984 -0.6960 -1.9223 -0.5228
 3276SOL    MW412872   3.144   3.528   2.004 -0.0637 -0.2898 -0.3060
 3277SOL     OW12873   0.226   2.956   6.334  0.5023  0.1697 -0.1193
 3277SOL    HW212874   0.229   2.963   6.239  1.6488  2.9235  0.0179
 3277SOL    HW312875   0.174   3.031   6.362 -0.3976 -0.9607  1.4471
 3277SOL    MW412876   0.219   2.967   6.325  0.0584 -0.3661 -0.5818
 3278SOL     OW12877   3.953   2.844   0.551 -0.3026 -0.3526 -0.1340
 3278SOL    HW212878   4.039   2.841   0.592  0.0298  0.2699 -0.7795
 3278SOL    HW312879   3.936   2.754   0.524  1.4331 -0.0257 -2.6062
 3278SOL    MW412880   3.962   2.832   0.553  0.3838 -0.1002 -0.5916
 3279SOL     OW12881   3.291   2.955   2.954 -1.0223 -0.5117  0.3293
 3279SOL    HW212882   3.309   2.942   3.047 -0.2831 -1.6223  0.0496
 3279SOL    HW312883   3.250   3.042   2.950 -1.2631 -0.5301  1.7019
 3279SOL    MW412884   3.288   2.965   2.966  0.1337 -0.4098  0.3140
 3280SOL     OW12885   1.895   2.685   2.703  0.3783  0.4707  0.5257
 3280SOL    HW212886   1.936   2.753   2.758  1.7420 -0.7443  1.0765
 3280SOL    HW312887   1.857   2.734   2.630  0.0356  1.9658  1.6380
 3280SOL    MW412888   1.896   2.701   2.701  1.0436  0.1947 -0.0547
 3281SOL     OW12889   4.194   2.440   2.791  0.5761 -0.0474 -0.2560
 3281SOL    HW212890   4.139   2.363   2.772  0.6587 -0.1240 -0.1847
 3281SOL    HW312891   4.247   2.450   2.712  1.3716 -0.7516  0.1677
 3281SOL    MW412892   4.194   2.431   2.778 -0.3808 -0.2333 -0.1686
 3282SOL     OW12893   0.631   4.553   5.148 -0.0121 -0.0744  0.0760
 3282SOL    HW212894   0.687   4.593   5.083 -0.0114  0.8582  0.6401
 3282SOL    HW312895   0.614   4.465   5.114 -0.0133  0.3941 -1.1724
 3282SOL    MW412896   0.636   4.546   5.135 -0.1350  0.9141 -0.0871
 3283SOL     OW12897   3.767   5.619   6.007  0.0533  0.4548  0.1926
 3283SOL    HW212898   3.851   5.574   5.994  0.1070  0.7073 -0.3649
 3283SOL    HW312899   3.703   5.558   5.971 -0.2789 -0.7785  2.6665
 3283SOL    MW412900   3.770   5.605   6.001 -0.0387  0.3167 -0.2286
 3284SOL     OW12901   2.024   2.551   3.923 -0.2991 -0.0283 -0.0996
 3284SOL    HW212902   1.933   2.531   3.948  0.0338 -1.0447  0.3501
 3284SOL    HW312903   2.022   2.558   3.828 -0.8443 -0.0756 -0.0969
 3284SOL    MW412904   2.012   2.549   3.914 -0.0734  0.4549  0.4208
 3285SOL     OW12905   5.460   6.036   2.344  0.4691 -0.4790  0.2277
 3285SOL    HW212906   5.365   6.027   2.339  0.3982  0.6934 -1.2419
 3285SOL    HW312907   5.474   6.115   2.396  0.7677 -2.0168  2.6691
 3285SOL    MW412908   5.449   6.045   2.350 -0.2698  0.0287 -1.2245
 3286SOL     OW12909   4.045   3.336   5.914  0.5206  0.0280 -0.5124
 3286SOL    HW212910   4.108   3.375   5.974 -1.5692  0.6119  1.4522
 3286SOL    HW312911   4.047   3.392   5.837  0.3075  1.8195  0.7270
 3286SOL    MW412912   4.054   3.348   5.912  0.0005 -0.0844  0.3104
 3287SOL     OW12913   4.054   4.798   0.588 -0.3450 -0.7151 -0.2803
 3287SOL    HW212914   4.130   4.856   0.581 -0.6564 -0.2391  0.1672
 3287SOL    HW312915   4.034   4.796   0.682 -1.5941  0.1319 -0.4984
 3287SOL    MW412916   4.061   4.806   0.599 -0.8235  0.1685  0.1123
 3288SOL     OW12917   5.840   5.245   1.067 -0.2479 -0.3173 -0.4589
 3288SOL    HW212918   5.791   5.286   1.138  0.1161  0.4171 -0.6165
 3288SOL    HW312919   5.867   5.161   1.102 -2.3190 -1.1294 -0.6493
 3288SOL    MW412920   5.837   5.240   1.081 -0.2565 -0.2907  0.0473
 3289SOL     OW12921   6.265   5.378   3.704 -0.3291 -0.3730  0.4570
 3289SOL    HW212922   6.327   5.372   3.777 -0.8732 -0.8578  0.8947
 3289SOL    HW312923   6.180   5.358   3.744 -0.8107  0.5623 -0.0795
 3289SOL    MW412924   6.262   5.374   3.719 -0.2588  0.1027  0.6260
 3290SOL     OW12925   3.104   2.857   0.820  0.2005  0.1354 -0.2998
 3290SOL    HW212926   3.069   2.838   0.907  0.5498 -0.1733 -0.2230
 3290SOL    HW312927   3.035   2.908   0.777 -0.4526 -0.6690 -0.2392
 3290SOL    MW412928   3.090   2.861   0.825 -0.0969  0.3857 -0.1153
 3291SOL     OW12929   2.765   0.914   6.046  0.6844 -0.6911 -0.6301
 3291SOL    HW212930   2.696   0.852   6.024  0.3137 -0.1721 -0.9633
 3291SOL    HW312931   2.802   0.881   6.128 -1.1766 -0.0299  0.5604
 3291SOL    MW412932   2.760   0.902   6.054  0.1021  0.1262  0.1806
 3292SOL     OW12933   1.440   0.649   1.247  0.1583 -0.6061  0.6964
 3292SOL    HW212934   1.527   0.678   1.275 -0.2196  1.4531 -0.0532
 3292SOL    HW312935   1.448   0.639   1.152 -0.1845 -1.3843  0.7407
 3292SOL    MW412936   1.453   0.652   1.238 -0.0534 -0.2173 -0.4340
 3293SOL     OW12937   1.784   5.224   1.677 -0.5105  0.6004  0.4929
 3293SOL    HW212938   1.756   5.192   1.591 -1.8870  1.2238  0.6833
 3293SOL    HW312939   1.879   5.237   1.668 -0.2528 -1.4173 -0.2468
 3293SOL    MW412940   1.793   5.222   1.665 -0.0334 -0.4678  0.1751
 3294SOL     OW12941   2.520   0.894   4.693 -0.3978  0.2881  0.0992
 3294SOL    HW212942   2.508   0.844   4.612 -0.2712  0.0053  0.2533
 3294SOL    HW312943   2.455   0.858   4.754 -0.0569  0.0496  0.3294
 3294SOL    MW412944   2.510   0.883   4.691  0.1140  0.2699 -0.1656
 3295SOL     OW12945   0.716   5.918   0.904  0.1167  0.0172  0.5441
 3295SOL    HW212946   0.767   5.876   0.973  1.8452  0.5603 -0.3620
 3295SOL    HW312947   0.643   5.960   0.951  0.5316 -0.6994  1.8794
 3295SOL    MW412948   0.713   5.918   0.919 -0.1739  0.1881  0.9530
 3296SOL     OW12949   0.572   1.860   0.207  0.0101  0.6735 -0.5230
 3296SOL    HW212950   0.519   1.844   0.285 -1.9869 -0.3783 -1.9979
 3296SOL    HW312951   0.659   1.880   0.241 -0.8554  0.5628  1.9651
 3296SOL    MW412952   0.577   1.860   0.222 -0.0913  0.1493  0.5186
 3297SOL     OW12953   5.691   0.322   1.856  0.3660  0.5637 -0.2773
 3297SOL    HW212954   5.737   0.287   1.932  1.6745  1.4843 -0.6075
 3297SOL    HW312955   5.756   0.376   1.811  0.1730 -1.1608 -2.9266
 3297SOL    MW412956   5.706   0.324   1.860  0.5047  0.1858 -0.2079
 3298SOL     OW12957   4.662   4.293   1.029  0.0094  0.1650  0.3809
 3298SOL    HW212958   4.623   4.275   0.944 -0.2962 -0.5145  0.6555
 3298SOL    HW312959   4.628   4.223   1.086 -0.5155  1.1298  1.2745
 3298SOL    MW412960   4.653   4.281   1.025 -0.0024  0.0509 -0.3577
 3299SOL     OW12961   4.700   4.150   2.481 -1.0359 -0.1602  0.2044
 3299SOL    HW212962   4.651   4.080   2.439  0.3624 -1.4201  0.6225
 3299SOL    HW312963   4.785   4.112   2.501 -0.1021  1.7581  0.1265
 3299SOL    MW412964   4.705   4.136   2.478  0.2848 -0.0908  0.3340
 3300SOL     OW12965   2.337   2.789   2.441  0.5587 -0.0337 -0.1174
 3300SOL    HW212966   2.345   2.884   2.451 -0.1778  0.1205 -0.9347
 3300SOL    HW312967   2.279   2.777   2.366  0.3408 -1.1326  0.2100
 3300SOL    MW412968   2.331   2.800   2.433 -0.6424  0.2226 -0.4295
 3301SOL     OW12969   5.766   3.212   2.221 -0.5369 -0.7260 -0.2569
 3301SOL    HW212970   5.850   3.206   2.267 -1.1046  0.1585  0.9511
 3301SOL    HW312971   5.700   3.204   2.289 -1.4103  2.3972 -0.5517
 3301SOL    MW412972   5.769   3.210   2.236  0.5363 -0.7086  0.0930
 3302SOL     OW12973   6.096   4.303   4.091 -0.1020 -0.1989  0.5139
 3302SOL    HW212974   6.088   4.258   4.175  1.1190  0.6690  1.1223
 3302SOL    HW312975   6.007   4.331   4.069 -0.7270 -1.9877  0.6130
 3302SOL    MW412976   6.083   4.300   4.099  0.1348 -0.6384  0.1118
 3303SOL     OW12977   0.841   3.288   4.011 -0.4869 -0.0333  0.3163
 3303SOL    HW212978   0.802   3.336   3.939 -0.1875 -0.1652  0.0653
 3303SOL    HW312979   0.926   3.330   4.026  0.5868 -1.5932 -1.1019
 3303SOL    MW412980   0.847   3.300   4.004 -0.0614  0.6250  0.4345
 3304SOL     OW12981   1.313   0.801   2.821 -0.2669  0.3092  0.4245
 3304SOL    HW212982   1.340   0.750   2.744 -0.6237  0.2657  0.3247
 3304SOL    HW312983   1.252   0.744   2.868 -1.2522  0.9068 -0.0838
 3304SOL    MW412984   1.309   0.787   2.817 -0.3987  0.3546  0.5214
 3305SOL     OW12985   2.618   1.898   0.715 -0.2971 -0.0642  0.0363
 3305SOL    HW212986   2.684   1.884   0.648  0.2006 -1.6415  0.8176
 3305SOL    HW312987   2.537   1.914   0.667  0.5483  1.5448 -0.9331
 3305SOL    MW412988   2.616   1.899   0.700  0.5201  0.1209  0.4311
 3306SOL     OW12989   0.622   3.681   3.743 -0.2731  0.1322  0.0240
 3306SOL    HW212990   0.678   3.743   3.792 -1.5457  0.9499  0.4988
 3306SOL    HW312991   0.661   3.678   3.656  1.0296 -0.0034  0.5839
 3306SOL    MW412992   0.635   3.689   3.738  0.0932  0.0330  0.0120
 3307SOL     OW12993   5.727   0.623   2.294 -0.2652 -0.7284  0.1372
 3307SOL    HW212994   5.778   0.589   2.368  2.2982 -1.3724 -1.7937
 3307SOL    HW312995   5.741   0.560   2.224 -2.1486  0.1536 -1.1248
 3307SOL    MW412996   5.735   0.610   2.295  0.3958 -0.6268  0.4134
 3308SOL     OW12997   2.464   0.484   0.837 -0.6317 -0.2655 -0.7723
 3308SOL    HW212998   2.509   0.457   0.917 -1.7372  0.0365 -0.0289
 3308SOL    HW312999   2.491   0.420   0.771  0.3853 -0.4459 -0.1941
 3308SOL    MW413000   2.474   0.472   0.839  0.0505  0.2778  0.6953
 3309SOL     OW13001   1.635   5.544   2.737 -0.0361  0.1278 -0.2795
 3309SOL    HW213002   1.560   5.602   2.741 -1.4217 -1.6087  0.6649
 3309SOL    HW313003   1.610   5.476   2.674  0.6924 -0.5126  0.0976
 3309SOL    MW413004   1.622   5.543   2.729  0.1045  0.1621 -1.2983
 3310SOL     OW13005   1.269   3.703   4.859 -0.1232 -0.3896 -0.0872
 3310SOL    HW213006   1.287   3.643   4.931 -0.1108 -0.9808 -0.5738
 3310SOL    HW313007   1.200   3.761   4.892  1.3276  0.7024  1.1319
 3310SOL    MW413008   1.262   3.703   4.873 -0.3535  0.6527  0.1045
 3311SOL     OW13009   2.643   5.025   5.345  0.2575 -0.3218  0.4935
 3311SOL    HW213010   2.725   4.977   5.353 -0.6787 -1.9125  1.0638
 3311SOL    HW313011   2.652   5.099   5.405  0.5331 -1.5975  2.0904
 3311SOL    MW413012   2.655   5.029   5.354 -0.1492 -0.0873 -0.8331
 3312SOL     OW13013   1.214   1.920   3.646 -0.2302  0.1913  0.1974
 3312SOL    HW213014   1.145   1.864   3.610  0.4900 -1.0639  0.6885
 3312SOL    HW313015   1.191   1.931   3.739 -0.2965  0.6060  0.1345
 3312SOL    MW413016   1.202   1.914   3.654  0.0773 -0.2829 -0.3080
 3313SOL     OW13017   0.125   2.934   0.625  0.0777  0.3470  0.6164
 3313SOL    HW213018   0.164   2.961   0.709 -2.2937  1.5490  1.4370
 3313SOL    HW313019   0.031   2.944   0.639 -0.4483 -0.6129 -1.8370
 3313SOL    MW413020   0.118   2.939   0.638  0.0254  0.9858  0.4475
 3314SOL     OW13021   3.320   0.185   5.291 -0.2613 -0.0703 -1.1918
 3314SOL    HW213022   3.267   0.254   5.250  1.9729  2.4673 -0.1472
 3314SOL    HW313023   3.410   0.205   5.263  0.6750 -1.4394  0.6731
 3314SOL    MW413024   3.325   0.197   5.282 -0.1416  0.2831 -0.0808
 3315SOL     OW13025   5.669   1.210   0.037  0.2478 -0.2588  0.1584
 3315SOL    HW213026   5.607   1.184  -0.031  1.7836 -1.6038 -0.8123
 3315SOL    HW313027   5.655   1.305   0.047 -1.7232 -0.4611 -0.2032
 3315SOL    MW413028   5.659   1.219   0.030  0.4042 -0.9059  0.4296
 3316SOL     OW13029   0.803   3.606   6.254  0.1807 -0.7251  0.2947
 3316SOL    HW213030   0.833   3.577   6.168 -3.1234  0.5994 -1.5079
 3316SOL    HW313031   0.749   3.534   6.287 -1.2760  0.0175 -0.3667
 3316SOL    MW413032   0.800   3.593   6.247  0.0156 -0.3961  0.5472
 3317SOL     OW13033   0.395   6.105   2.463  0.0552 -0.1599 -0.1299
 3317SOL    HW213034   0.403   6.191   2.504 -3.3732  1.9492 -3.2688
 3317SOL    HW313035   0.318   6.066   2.504  0.3379 -0.8149 -0.2065
 3317SOL    MW413036   0.386   6.111   2.474 -0.5223  0.1215 -0.4983
 3318SOL     OW13037   0.408   1.942   0.729 -0.2513  0.1315 -0.0641
 3318SOL    HW213038   0.380   2.033   0.738  2.5301  1.1698 -0.6807
 3318SOL    HW313039   0.427   1.913   0.818  0.3239  0.7146  0.0131
 3318SOL    MW413040   0.407   1.951   0.742  0.3442 -0.5353 -0.4760
 3319SOL     OW13041   5.319   2.766   6.125  0.3666  0.1421  0.6104
 3319SOL    HW213042   5.275   2.726   6.200  0.1780  0.3722  0.6235
 3319SOL    HW313043   5.401   2.800   6.160  0.4664 -0.1157  0.6271
 3319SOL    MW413044   5.324   2.765   6.139  0.3859  0.4268 -0.0807
 3320SOL     OW13045   2.738   0.956   3.496 -0.3823  0.0791  0.3538
 3320SOL    HW213046   2.716   1.040   3.456  0.0604 -0.3281 -0.7957
 3320SOL    HW313047   2.719   0.892   3.427 -1.7659 -0.8855  1.5684
 3320SOL    MW413048   2.732   0.958   3.481  0.4111  0.3074 -0.0521
 3321SOL     OW13049   4.455   4.541   4.624 -0.5675  0.2484 -0.1376
 3321SOL    HW213050   4.418   4.459   4.591  0.6223 -1.0365  1.5025
 3321SOL    HW313051   4.542   4.545   4.586 -1.1726  1.6123 -1.4627
 3321SOL    MW413052   4.462   4.531   4.615  0.5071 -0.4518 -0.3046
 3322SOL     OW13053   4.036   0.653   1.307 -0.0769 -0.2611 -0.3802
 3322SOL    HW213054   3.944   0.650   1.334  0.3543 -2.5230  1.0414
 3322SOL    HW313055   4.082   0.689   1.383  0.3070  0.3205 -0.8759
 3322SOL    MW413056   4.030   0.658   1.321  0.2879 -0.1115  0.0328
 3323SOL     OW13057   3.438   4.480   0.197 -0.4226  0.2539 -0.5902
 3323SOL    HW213058   3.425   4.430   0.116  1.4188 -2.6294  0.7580
 3323SOL    HW313059   3.521   4.526   0.183 -0.5115  0.4137 -0.6042
 3323SOL    MW413060   3.447   4.480   0.184  0.1210  0.3308  0.1324
 3324SOL     OW13061   2.811   1.619   3.898 -0.1656 -0.0714  0.2862
 3324SOL    HW213062   2.729   1.639   3.853 -0.2527 -1.1407 -0.0592
 3324SOL    HW313063   2.813   1.523   3.904  1.7517 -0.1874 -1.0615
 3324SOL    MW413064   2.801   1.609   3.892  0.1615 -0.4752 -0.4521
 3325SOL     OW13065   3.820   2.809   0.788 -0.1722  0.9347  0.1766
 3325SOL    HW213066   3.787   2.724   0.759  1.3037  0.2781  0.3450
 3325SOL    HW313067   3.864   2.845   0.712 -0.4348  1.3672  0.2291
 3325SOL    MW413068   3.821   2.802   0.774  0.2928 -0.2931 -0.0112
 3326SOL     OW13069   5.782   3.043   0.983 -0.2146 -0.3844 -0.3720
 3326SOL    HW213070   5.788   3.136   0.960  0.6497 -0.3849 -0.1869
 3326SOL    HW313071   5.694   3.032   1.018 -0.8883  0.0321 -1.8559
 3326SOL    MW413072   5.771   3.054   0.984 -0.3301 -0.2732 -0.1532
 3327SOL     OW13073   4.406   1.157   0.905  0.0696 -0.1974  0.0568
 3327SOL    HW213074   4.415   1.220   0.833  0.3654 -0.2303  0.0621
 3327SOL    HW313075   4.390   1.074   0.861  0.2091 -0.2103  0.0283
 3327SOL    MW413076   4.405   1.155   0.889  0.0494  0.0198  0.6103
 3328SOL     OW13077   1.417   2.484   4.403 -0.6425 -0.5750  0.1384
 3328SOL    HW213078   1.403   2.422   4.475 -0.6468 -0.7763 -0.0329
 3328SOL    HW313079   1.389   2.436   4.325 -2.1866  0.2214  0.1765
 3328SOL    MW413080   1.412   2.469   4.402 -0.1387 -0.1028  0.2433
 3329SOL     OW13081   5.014   2.973   1.958  0.4919 -0.1729  0.3888
 3329SOL    HW213082   5.073   3.018   1.898  0.2702 -1.3927 -0.7910
 3329SOL    HW313083   4.948   2.932   1.901  0.5507 -1.7776  1.4134
 3329SOL    MW413084   5.013   2.974   1.942  0.6040  0.3540 -0.9890
 3330SOL     OW13085   3.341   3.367   3.341 -0.8920  0.0443 -0.5224
 3330SOL    HW213086   3.350   3.414   3.258 -2.6365 -0.3221 -0.9489
 3330SOL    HW313087   3.385   3.424   3.404  2.5831 -0.7792 -1.9891
 3330SOL    MW413088   3.348   3.381   3.338  0.0254  0.1656 -0.0280
 3331SOL     OW13089   3.954   1.711   4.021  0.1487 -0.4817 -0.0453
 3331SOL    HW213090   3.905   1.667   4.090  1.7173  0.7302  1.9538
 3331SOL    HW313091   3.887   1.754   3.968 -1.0772 -0.7824  1.1954
 3331SOL    MW413092   3.939   1.711   4.023 -0.0258 -0.4217  0.6518
 3332SOL     OW13093   2.914   0.774   3.023  0.3292  0.0552 -0.0670
 3332SOL    HW213094   2.975   0.708   2.990  0.6056 -0.0177  0.5687
 3332SOL    HW313095   2.878   0.815   2.944  0.8583 -0.2116 -0.4547
 3332SOL    MW413096   2.917   0.771   3.008  0.2585 -0.1308 -0.2405
 3333SOL     OW13097   1.212   3.003   0.349 -0.8062  0.4835  0.0565
 3333SOL    HW213098   1.291   2.974   0.394  0.3715  1.1305 -1.5358
 3333SOL    HW313099   1.199   3.093   0.380 -1.9692 -0.1822  1.6508
 3333SOL    MW413100   1.221   3.011   0.359 -0.6819 -0.2086 -0.4311
 3334SOL     OW13101   4.634   5.009   1.374  0.4622 -0.2436  0.0805
 3334SOL    HW213102   4.667   5.099   1.367 -0.3542  0.1892  1.3857
 3334SOL    HW313103   4.712   4.954   1.369  1.0197  0.5507 -0.2756
 3334SOL    MW413104   4.648   5.014   1.372 -0.0446  0.1039 -0.5868
 3335SOL     OW13105   2.274   4.434   1.711  0.4139 -0.4032 -0.1690
 3335SOL    HW213106   2.303   4.364   1.651  1.1190 -0.0991 -0.2003
 3335SOL    HW313107   2.180   4.441   1.696  0.5334 -0.5288 -1.0425
 3335SOL    MW413108   2.266   4.425   1.701 -0.0874 -0.0819 -0.0884
 3336SOL     OW13109   2.650   5.738   5.421  0.3245 -0.0515 -0.4922
 3336SOL    HW213110   2.664   5.703   5.333 -1.5312 -1.8477 -0.1556
 3336SOL    HW313111   2.571   5.693   5.452  0.9443  0.5057  2.1139
 3336SOL    MW413112   2.641   5.727   5.413 -0.3963  0.7541 -0.3276
 3337SOL     OW13113   2.055   2.755   5.795  0.4801  0.3918 -0.4376
 3337SOL    HW213114   1.962   2.773   5.778  0.4813  0.9236  0.1007
 3337SOL    HW313115   2.055   2.674   5.846  0.2681  0.7589  0.1514
 3337SOL    MW413116   2.042   2.746   5.799  0.1864 -0.0561  0.2400
 3338SOL     OW13117   0.996   2.642   2.278 -0.6425 -0.4777 -0.2561
 3338SOL    HW213118   1.068   2.695   2.313  0.9398 -1.8645 -1.2559
 3338SOL    HW313119   1.021   2.624   2.188 -2.2477 -1.0418 -0.6188
 3338SOL    MW413120   1.009   2.647   2.271  0.0821 -0.6161 -0.0143
 3339SOL     OW13121   1.625   0.303   1.257  0.4890 -0.5995 -0.2324
 3339SOL    HW213122   1.640   0.343   1.171 -1.9913  0.5361 -0.2406
 3339SOL    HW313123   1.690   0.343   1.314  2.5117 -1.7464 -1.6319
 3339SOL    MW413124   1.635   0.314   1.253  0.2409  0.0688  0.5487
 3340SOL     OW13125   0.385   2.913   0.494  0.4204 -0.4570  0.6902
 3340SOL    HW213126   0.305   2.912   0.547 -0.6576  0.8279 -0.8071
 3340SOL    HW313127   0.383   2.999   0.451  0.9944 -1.5835 -1.7317
 3340SOL    MW413128   0.374   2.924   0.496  0.5138  0.6814  0.0537
 3341SOL     OW13129   2.897   5.911   2.755 -0.1777 -0.5068  0.1835
 3341SOL    HW213130   2.892   5.833   2.701 -0.1146 -0.8975  0.7373
 3341SOL    HW313131   2.806   5.927   2.783 -0.7495  1.3636 -2.3385
 3341SOL    MW413132   2.884   5.903   2.752 -0.8900  0.4332 -0.1341
 3342SOL     OW13133   5.370   1.586   0.844  0.9921 -0.2401  0.3021
 3342SOL    HW213134   5.353   1.492   0.854 -0.7319 -0.0034 -0.0376
 3342SOL    HW313135   5.349   1.623   0.930  0.6314 -0.0500  0.1364
 3342SOL    MW413136   5.365   1.578   0.857 -0.0497  0.1887 -0.6241
 3343SOL     OW13137   6.354   1.459   3.649 -0.2616  0.7619 -0.6334
 3343SOL    HW213138   6.417   1.512   3.600  0.1324  1.2474  0.3571
 3343SOL    HW313139   6.407   1.415   3.716 -1.1270  2.3547  1.1995
 3343SOL    MW413140   6.370   1.461   3.652 -0.0741 -0.0002  0.0260
 3344SOL     OW13141   1.839   0.069   1.184 -0.1762 -0.6135 -0.2837
 3344SOL    HW213142   1.811   0.020   1.106  0.1499 -0.1541 -0.7004
 3344SOL    HW313143   1.837   0.005   1.255 -2.2572 -0.6258 -0.2868
 3344SOL    MW413144   1.835   0.054   1.183 -0.1318  0.1572 -0.2081
 3345SOL     OW13145   4.846   1.290   4.781  0.4551  0.0033  0.0483
 3345SOL    HW213146   4.930   1.336   4.779  1.1068 -0.9195  2.8012
 3345SOL    HW313147   4.845   1.240   4.699  1.5630  1.6904 -1.0658
 3345SOL    MW413148   4.857   1.289   4.770  0.1954  0.2774  0.6183
 3346SOL     OW13149   0.901   4.874   6.371  0.6533  0.4524 -0.3540
 3346SOL    HW213150   0.944   4.829   6.299  1.3800  0.0513  0.3160
 3346SOL    HW313151   0.970   4.926   6.413  0.4714 -0.0930  0.6531
 3346SOL    MW413152   0.916   4.875   6.367 -0.0039 -0.0697  0.1094
 3347SOL     OW13153   1.987   3.341   0.726 -0.5710 -0.5388  0.0517
 3347SOL    HW213154   1.958   3.322   0.637  0.8267  2.0177 -1.0666
 3347SOL    HW313155   1.970   3.434   0.737  2.6662  0.0656  1.0148
 3347SOL    MW413156   1.981   3.351   0.715  0.6773  0.0586 -0.2439
 3348SOL     OW13157   3.423   0.800   6.136 -0.2611 -0.0187 -0.2809
 3348SOL    HW213158   3.402   0.815   6.044 -0.3968 -0.3135 -0.2986
 3348SOL    HW313159   3.338   0.800   6.181 -0.1521  0.6992 -0.0697
 3348SOL    MW413160   3.409   0.802   6.130 -0.6990 -0.4085 -0.2508
 3349SOL     OW13161   3.433   6.222   3.230 -0.0931  0.1742 -0.0264
 3349SOL    HW213162   3.486   6.286   3.278 -0.9626 -0.6953  2.2538
 3349SOL    HW313163   3.489   6.194   3.158  1.5310  1.1786  0.7794
 3349SOL    MW413164   3.448   6.227   3.227  0.1540 -0.4501 -0.2368
 3350SOL     OW13165   3.783   0.252   5.446 -0.4292  0.1326  0.0733
 3350SOL    HW213166   3.727   0.305   5.502 -0.1706  0.1449  0.3230
 3350SOL    HW313167   3.800   0.172   5.497 -0.2648  0.1056 -0.0223
 3350SOL    MW413168   3.778   0.248   5.460 -0.0142 -0.0140  0.5878
 3351SOL     OW13169   6.192   4.334   2.096 -0.5282  0.0291  0.0853
 3351SOL    HW213170   6.111   4.377   2.071 -0.2791  0.1663 -0.5172
 3351SOL    HW313171   6.258   4.404   2.094 -0.0670 -0.4084 -1.1812
 3351SOL    MW413172   6.190   4.349   2.093 -0.2088 -0.5384  0.1504
 3352SOL     OW13173   5.380   2.353   5.254 -0.1011 -0.0545 -0.3591
 3352SOL    HW213174   5.347   2.266   5.274 -0.5310 -0.2799 -1.9223
 3352SOL    HW313175   5.432   2.342   5.174  0.5320  0.9842 -0.1210
 3352SOL    MW413176   5.383   2.340   5.246  0.3816  0.2876  0.1596
 3353SOL     OW13177   3.682   0.352   4.584 -0.9448 -0.2123  0.1271
 3353SOL    HW213178   3.714   0.324   4.498  1.0412  1.1239  0.3507
 3353SOL    HW313179   3.726   0.294   4.646  0.4533  1.0655  0.3901
 3353SOL    MW413180   3.692   0.341   4.580  0.0627 -0.0638  0.6460
 3354SOL     OW13181   4.734   2.420   5.594  0.0949 -0.3686  0.0716
 3354SOL    HW213182   4.796   2.426   5.522 -0.3732  1.7890 -0.2229
 3354SOL    HW313183   4.675   2.495   5.581 -1.3940 -1.2409  1.4202
 3354SOL    MW413184   4.734   2.431   5.583 -0.5974  0.7788 -0.7779
 3355SOL     OW13185   5.144   5.904   5.812  0.2140 -0.5781  0.2425
 3355SOL    HW213186   5.070   5.889   5.753  0.2800 -0.7580  0.2029
 3355SOL    HW313187   5.110   5.966   5.877  0.2866 -0.0246 -0.2416
 3355SOL    MW413188   5.130   5.910   5.813  0.0401  0.0374 -0.3298
 3356SOL     OW13189   2.633   5.514   5.993 -0.2281  0.4964 -0.2718
 3356SOL    HW213190   2.540   5.495   5.998 -0.0681 -0.0414  1.0399
 3356SOL    HW313191   2.661   5.475   5.910 -0.7227 -1.3993  0.4039
 3356SOL    MW413192   2.625   5.506   5.983 -0.1741 -0.6210 -0.4819
 3357SOL     OW13193   3.010   3.281   1.860  0.2371  0.6101  0.0901
 3357SOL    HW213194   2.966   3.270   1.945  0.4050 -0.9727  0.0081
 3357SOL    HW313195   2.975   3.363   1.825 -1.8745 -0.0553  0.5010
 3357SOL    MW413196   2.999   3.290   1.867 -0.0773  0.0342  0.3105
 3358SOL     OW13197   5.218   3.396   4.739  0.0227  0.7306  0.0176
 3358SOL    HW213198   5.240   3.373   4.830 -0.1225  1.2389  0.1838
 3358SOL    HW313199   5.124   3.382   4.733 -0.0035  0.9106  0.0100
 3358SOL    MW413200   5.209   3.391   4.750 -0.0696 -0.5906  0.4526
 3359SOL     OW13201   5.992   4.283   3.725 -0.0343 -0.0854  0.7170
 3359SOL    HW213202   6.007   4.215   3.791  0.0296 -0.8032 -0.0215
 3359SOL    HW313203   5.921   4.248   3.671  2.9749 -1.7602 -2.5225
 3359SOL    MW413204   5.985   4.269   3.726  0.4865 -0.6884  0.1704
 3360SOL     OW13205   3.976   5.814   5.993  0.0652  0.0660  0.1266
 3360SOL    HW213206   4.009   5.784   5.908  1.0255 -2.9007  1.3934
 3360SOL    HW313207   3.884   5.789   5.993  0.0732  0.0375 -0.0452
 3360SOL    MW413208   3.968   5.807   5.982 -0.1439  0.7416 -0.0607
 3361SOL     OW13209   5.976   1.722   3.136 -0.3015  0.5595 -0.1070
 3361SOL    HW213210   6.013   1.804   3.102  1.1985 -0.4979 -1.1791
 3361SOL    HW313211   6.013   1.654   3.079 -0.2631 -1.0080  1.6960
 3361SOL    MW413212   5.986   1.724   3.124 -0.1603  0.2128 -0.2139
 3362SOL     OW13213   5.813   3.409   4.528 -0.3205 -0.6676  0.3914
 3362SOL    HW213214   5.768   3.383   4.609 -2.4447 -0.1790 -0.5743
 3362SOL    HW313215   5.800   3.503   4.522 -0.8046 -0.7924 -0.8483
 3362SOL    MW413216   5.805   3.418   4.538  0.2731 -0.4215  0.1847
 3363SOL     OW13217   1.798   4.943   3.234 -0.0386 -0.2002 -0.5597
 3363SOL    HW213218   1.785   4.968   3.325  0.5373 -1.6625 -0.0401
 3363SOL    HW313219   1.751   5.009   3.184  2.8144  3.0013  0.5731
 3363SOL    MW413220   1.790   4.955   3.239 -0.0153 -0.3117  0.3563
 3364SOL     OW13221   4.024   0.890   5.137  0.3048 -0.1037 -0.3371
 3364SOL    HW213222   4.001   0.856   5.224  1.7591 -1.8142 -0.5570
 3364SOL    HW313223   4.119   0.900   5.139  0.1356  2.2106 -0.9696
 3364SOL    MW413224   4.033   0.887   5.149  0.3455  0.4695 -0.1725
 3365SOL     OW13225   0.159   0.370   2.082  0.5495 -0.2603 -0.5272
 3365SOL    HW213226   0.102   0.429   2.032  0.1535 -1.1423 -1.1404
 3365SOL    HW313227   0.100   0.325   2.142  0.7504 -0.4662 -0.4810
 3365SOL    MW413228   0.144   0.372   2.083 -0.1097  0.6956  0.4205
 3366SOL     OW13229   4.221   2.056   2.103  0.2142  0.2922  0.8707
 3366SOL    HW213230   4.156   2.053   2.174  0.0502  1.4140  0.7781
 3366SOL    HW313231   4.282   2.124   2.129 -0.7045  1.8217 -0.7716
 3366SOL    MW413232   4.220   2.064   2.116  0.1424 -0.7731  0.2145
 3367SOL     OW13233   3.178   1.630   6.041 -0.1025 -0.1453  0.1052
 3367SOL    HW213234   3.236   1.589   5.977  0.7924 -0.1063  0.8710
 3367SOL    HW313235   3.229   1.703   6.077 -0.8904  0.3346  0.2873
 3367SOL    MW413236   3.192   1.634   6.037 -0.1445  0.5514 -0.0853
 3368SOL     OW13237   3.093   0.243   1.814 -0.2555 -0.2480  0.1079
 3368SOL    HW213238   3.152   0.202   1.878 -1.0155  1.9737  2.4332
 3368SOL    HW313239   3.146   0.312   1.774 -0.5947  0.2716  0.5365
 3368SOL    MW413240   3.108   0.246   1.818  0.9742 -0.1865  0.1230
 3369SOL     OW13241   2.142   0.374   2.132 -0.3707 -0.3281  0.2191
 3369SOL    HW213242   2.185   0.344   2.212  1.3020  2.0349  0.3248
 3369SOL    HW313243   2.213   0.381   2.068 -1.3126 -0.1502 -0.8438
 3369SOL    MW413244   2.157   0.371   2.134  0.3998  0.9056  1.0584
 3370SOL     OW13245   2.885   2.823   3.004  0.5461 -0.1108  0.0639
 3370SOL    HW213246   2.872   2.835   3.098  0.0763  0.3529 -0.0518
 3370SOL    HW313247   2.796   2.812   2.969  0.7048 -0.1139 -0.3486
 3370SOL    MW413248   2.871   2.823   3.011 -0.4474  0.1736 -0.4934
 3371SOL     OW13249   4.175   5.462   3.565 -0.2803 -0.3658 -0.0799
 3371SOL    HW213250   4.186   5.490   3.474 -1.8412 -2.0104 -0.8352
 3371SOL    HW313251   4.263   5.468   3.603  0.2829  0.9619 -1.4828
 3371SOL    MW413252   4.188   5.467   3.558 -0.1438 -0.0339 -0.2862
 3372SOL     OW13253   1.308   1.002   6.305  0.1023 -0.1145 -0.5121
 3372SOL    HW213254   1.314   1.016   6.211  1.8871  1.7337 -0.1883
 3372SOL    HW313255   1.396   0.976   6.331 -0.3388 -0.4717  0.6814
 3372SOL    MW413256   1.320   1.001   6.296  0.0029 -0.4576 -0.2531
 3373SOL     OW13257   4.873   0.993   5.955 -0.2448  0.5612  0.1954
 3373SOL    HW213258   4.824   0.953   6.027 -2.7314  1.0589 -1.1278
 3373SOL    HW313259   4.910   0.919   5.907  2.7542  0.2271  2.6687
 3373SOL    MW413260   4.871   0.978   5.958 -0.3304  0.1455 -0.7184
 3374SOL     OW13261   2.935   1.045   5.218 -0.2557  0.3448  1.0566
 3374SOL    HW213262   2.987   1.124   5.236  3.1635 -1.8529  1.8400
 3374SOL    HW313263   2.940   0.995   5.300  0.0780 -1.8686 -0.2345
 3374SOL    MW413264   2.943   1.049   5.232 -0.6244 -0.4775  0.7829
 3375SOL     OW13265   6.386   0.532   4.052 -0.4466 -0.1292  0.4497
 3375SOL    HW213266   6.400   0.622   4.022 -0.5706  0.2851  1.6119
 3375SOL    HW313267   6.357   0.541   4.143  0.6545 -1.3894  0.9459
 3375SOL    MW413268   6.384   0.545   4.060 -0.2452  0.2997 -0.2559
 3376SOL     OW13269   5.383   3.820   5.789 -0.0559 -0.0495  0.1471
 3376SOL    HW213270   5.308   3.759   5.788  0.3064 -0.5573 -1.6599
 3376SOL    HW313271   5.378   3.863   5.874 -0.6013 -2.2838  1.3426
 3376SOL    MW413272   5.372   3.817   5.800  0.7389 -0.0189  0.1504
 3377SOL     OW13273   2.319   1.434   3.451  0.7371  0.0665 -0.7367
 3377SOL    HW213274   2.339   1.511   3.506  1.9205  0.4830 -1.6996
 3377SOL    HW313275   2.342   1.359   3.506  0.5003  0.4169 -0.1417
 3377SOL    MW413276   2.325   1.434   3.466 -0.6394 -0.0556 -0.0066
 3378SOL     OW13277   0.912   5.854   5.829 -0.0334 -0.0901  0.0966
 3378SOL    HW213278   0.897   5.773   5.780 -1.9689 -1.1031  2.1942
 3378SOL    HW313279   0.859   5.920   5.785 -4.1801 -1.6482  2.2880
 3378SOL    MW413280   0.903   5.852   5.817  0.0256 -0.2357  0.0203
 3379SOL     OW13281   4.656   3.446   0.014 -0.0148  0.0141 -0.4347
 3379SOL    HW213282   4.610   3.530   0.014  0.8405  0.4905 -0.5724
 3379SOL    HW313283   4.738   3.464   0.060 -0.9030 -1.3491  1.8838
 3379SOL    MW413284   4.661   3.459   0.020  0.1920 -0.3865  0.4956
 3380SOL     OW13285   0.318   6.012   3.152 -0.7946 -0.5401  0.1495
 3380SOL    HW213286   0.227   5.988   3.137 -0.4683 -0.8024 -1.6473
 3380SOL    HW313287   0.361   5.930   3.175 -1.2238 -0.2008  2.3578
 3380SOL    MW413288   0.312   5.998   3.153 -0.2465  0.6110 -0.0106
 3381SOL     OW13289   0.026   4.381   0.443  0.4696  0.1865 -0.0807
 3381SOL    HW213290   0.019   4.319   0.371  1.4555 -0.8042  0.6511
 3381SOL    HW313291   0.120   4.389   0.460  0.2556  0.2543  1.2050
 3381SOL    MW413292   0.037   4.374   0.436  0.1548  0.2135  0.4570
 3382SOL     OW13293   5.931   0.946   1.229  0.1040  0.2448 -0.0112
 3382SOL    HW213294   6.026   0.954   1.223  0.4805 -2.6741  0.3212
 3382SOL    HW313295   5.916   0.885   1.301 -2.0081  0.3059 -0.3184
 3382SOL    MW413296   5.942   0.939   1.237 -0.2139 -0.8181 -0.1579
 3383SOL     OW13297   0.814   4.450   3.292 -0.3347  0.0750  0.8664
 3383SOL    HW213298   0.875   4.423   3.361 -0.6059  0.5219  1.2902
 3383SOL    HW313299   0.729   4.418   3.322 -0.2043 -1.2968 -0.1360
 3383SOL    MW413300   0.811   4.442   3.305  0.0473 -0.1300 -0.0408
 3384SOL     OW13301   2.189   5.965   3.391 -0.1451  0.7535 -0.0660
 3384SOL    HW213302   2.258   5.943   3.327  0.6436  2.0869  0.2837
 3384SOL    HW313303   2.183   5.888   3.447  1.2121  0.6852  0.0163
 3384SOL    MW413304   2.197   5.952   3.390  0.7025  0.7629 -0.6075
 3385SOL     OW13305   1.674   3.411   6.354  0.3591 -0.0099  0.4724
 3385SOL    HW213306   1.713   3.338   6.306  2.6876  0.1355  2.0141
 3385SOL    HW313307   1.645   3.373   6.437  1.0082  0.6724  1.0234
 3385SOL    MW413308   1.675   3.397   6.358  0.0325 -0.7757  0.0102
 3386SOL     OW13309   0.646   1.670   0.873  0.0387  0.0095 -0.5373
 3386SOL    HW213310   0.586   1.626   0.813  0.0658 -1.7331  0.6415
 3386SOL    HW313311   0.625   1.634   0.959 -0.0882  2.5325  0.5833
 3386SOL    MW413312   0.635   1.660   0.877 -0.3309  0.1444 -0.6774
 3387SOL     OW13313   0.545   1.016   4.252 -0.0192  0.7374 -0.3063
 3387SOL    HW213314   0.606   0.947   4.277 -1.6868 -0.0851  1.8680
 3387SOL    HW313315   0.515   0.991   4.165  2.2718  0.8882 -1.2053
 3387SOL    MW413316   0.549   1.003   4.244 -0.3439  0.1985  0.1229
 3388SOL     OW13317   4.323   5.451   1.096  0.1866  0.1342  0.0195
 3388SOL    HW213318   4.374   5.432   1.175 -0.4912  0.8780  0.6489
 3388SOL    HW313319   4.360   5.532   1.063 -1.3750  1.3935  1.2054
 3388SOL    MW413320   4.335   5.459   1.102  0.1764 -0.6013  0.6188
 3389SOL     OW13321   4.352   3.279   5.250 -0.5134 -0.3416 -0.3453
 3389SOL    HW213322   4.417   3.209   5.242  1.2731  1.3521 -1.8565
 3389SOL    HW313323   4.355   3.324   5.165 -3.2689  0.2098 -0.2515
 3389SOL    MW413324   4.361   3.276   5.238 -0.3659  0.0622  0.3992
 3390SOL     OW13325   5.823   5.415   0.470 -0.2387  0.5746  0.1102
 3390SOL    HW213326   5.877   5.349   0.514 -0.4095  0.1900 -0.2484
 3390SOL    HW313327   5.743   5.419   0.522  0.1397  1.1746  0.6656
 3390SOL    MW413328   5.820   5.407   0.483 -0.1573 -0.1135  0.5044
 3391SOL     OW13329   1.196   2.349   6.355 -0.6007 -0.6092 -0.2143
 3391SOL    HW213330   1.185   2.276   6.415  0.6827  1.0363  2.1463
 3391SOL    HW313331   1.285   2.342   6.322 -0.3517  0.0636  0.2932
 3391SOL    MW413332   1.206   2.339   6.358 -0.3473  0.0200  0.9340
 3392SOL     OW13333   2.328   3.057   0.926  0.2158 -0.5707  0.1574
 3392SOL    HW213334   2.296   3.106   1.002  0.9452 -1.6705  1.2010
 3392SOL    HW313335   2.286   2.971   0.933 -0.5929 -0.3335 -1.3273
 3392SOL    MW413336   2.318   3.052   0.937 -0.1918  0.4719  0.6110
 3393SOL     OW13337   3.444   4.452   2.871  0.1535  0.0143  0.2258
 3393SOL    HW213338   3.365   4.489   2.831  0.0603  1.1384  1.3922
 3393SOL    HW313339   3.493   4.415   2.797 -0.9617  0.2379 -0.6514
 3393SOL    MW413340   3.440   4.452   2.856 -0.3325 -0.2844 -0.4559
 3394SOL     OW13341   3.411   3.352   3.782 -0.0470 -0.0053  0.2181
 3394SOL    HW213342   3.444   3.415   3.846  0.0793 -0.5989  0.7502
 3394SOL    HW313343   3.485   3.293   3.766 -0.1698 -0.0342 -0.2558
 3394SOL    MW413344   3.425   3.352   3.789 -0.1546  0.2376  0.1526
 3395SOL     OW13345   2.120   2.528   5.235 -0.0734 -0.4943  0.1771
 3395SOL    HW213346   2.139   2.534   5.329  0.4014 -2.4089  0.2283
 3395SOL    HW313347   2.087   2.439   5.222 -1.9265  0.3207 -1.1898
 3395SOL    MW413348   2.118   2.517   5.246  0.3496  0.1826  0.0959
 3396SOL     OW13349   3.007   0.858   1.692  0.6800 -0.8645  0.0478
 3396SOL    HW213350   2.957   0.898   1.621  1.1669  1.7337  1.0815
 3396SOL    HW313351   2.950   0.788   1.724 -1.2897  0.5075 -0.3034
 3396SOL    MW413352   2.993   0.854   1.686 -0.5243  0.0397  0.0192
 3397SOL     OW13353   4.857   1.404   6.220  0.1205 -0.2701  0.2911
 3397SOL    HW213354   4.933   1.455   6.192 -0.7141  1.2217  0.6700
 3397SOL    HW313355   4.843   1.341   6.149  2.5481 -1.5628  0.8417
 3397SOL    MW413356   4.865   1.402   6.207 -0.0438 -0.1293 -0.1389
 3398SOL     OW13357   5.818   5.016   5.663 -0.1090  0.0351  0.3225
 3398SOL    HW213358   5.829   4.972   5.747 -0.4841 -0.3977  0.1501
 3398SOL    HW313359   5.884   5.085   5.663 -0.2472  0.1711  1.0568
 3398SOL    MW413360   5.828   5.019   5.674 -0.3702  0.0732  0.0935
 3399SOL     OW13361   4.847   1.651   5.584 -0.2079  0.3675  0.0951
 3399SOL    HW213362   4.848   1.581   5.649  0.5974  0.2043 -0.0771
 3399SOL    HW313363   4.804   1.725   5.628  3.5002  1.5226  2.2193
 3399SOL    MW413364   4.842   1.652   5.598 -0.1131  0.1156  0.0705
 3400SOL     OW13365   0.569   5.341   1.445  0.1852  0.3635 -1.0844
 3400SOL    HW213366   0.507   5.359   1.374 -0.9714  1.5316  0.1514
 3400SOL    HW313367   0.515   5.304   1.515  1.0387  0.6154 -0.2698
 3400SOL    MW413368   0.554   5.338   1.445 -0.1108 -0.4902  0.3033
 3401SOL     OW13369   1.740   4.812   2.677  0.4300  0.8978  0.2663
 3401SOL    HW213370   1.780   4.754   2.743 -0.6169  0.5466  0.6165
 3401SOL    HW313371   1.752   4.900   2.712 -0.1575  0.7100  0.9636
 3401SOL    MW413372   1.747   4.816   2.691 -0.1533  0.2349 -0.0381
 3402SOL     OW13373   3.425   5.376   1.210 -0.5807 -0.2158 -0.3335
 3402SOL    HW213374   3.330   5.366   1.209 -0.7087  0.8381 -0.7564
 3402SOL    HW313375   3.446   5.417   1.125  0.2463 -0.4198 -0.2436
 3402SOL    MW413376   3.416   5.380   1.198 -0.0637 -0.1198  0.4046
 3403SOL     OW13377   3.397   0.515   5.242  0.5475  0.2705 -0.3384
 3403SOL    HW213378   3.456   0.444   5.216 -0.3704  0.0038 -1.8149
 3403SOL    HW313379   3.400   0.576   5.168 -0.1544  0.8116  0.0781
 3403SOL    MW413380   3.406   0.513   5.229  0.2489 -0.8456 -0.0421
 3404SOL     OW13381   4.179   5.509   4.199 -0.5332  0.2618 -0.2887
 3404SOL    HW213382   4.180   5.448   4.272  0.7109 -0.1585 -0.6423
 3404SOL    HW313383   4.138   5.588   4.234 -1.0574 -0.3486  0.5123
 3404SOL    MW413384   4.173   5.511   4.213 -0.8048 -0.0002  0.2134
 3405SOL     OW13385   2.717   3.813   2.272  0.6497  0.6262 -0.6265
 3405SOL    HW213386   2.672   3.761   2.205  1.8287 -1.1316 -0.1304
 3405SOL    HW313387   2.724   3.900   2.234 -2.6525  0.8722 -0.9266
 3405SOL    MW413388   2.712   3.818   2.258 -0.2461 -0.3705 -0.1896
 3406SOL     OW13389   4.678   6.188   4.763 -0.5363  0.6107  0.0513
 3406SOL    HW213390   4.642   6.198   4.675 -0.9309 -0.7998  0.0362
 3406SOL    HW313391   4.753   6.248   4.765 -0.5500  0.6939 -1.2230
 3406SOL    MW413392   4.683   6.197   4.752 -0.1091  0.4648 -0.5134
 3407SOL     OW13393   4.174   4.441   4.013 -0.3637  0.1631  0.6493
 3407SOL    HW213394   4.237   4.392   3.960 -1.3250 -0.3067 -0.0698
 3407SOL    HW313395   4.222   4.519   4.039 -0.2541  1.0976 -2.0425
 3407SOL    MW413396   4.189   4.445   4.010  0.4508  0.3901  0.5943
 3408SOL     OW13397   0.244   0.129   0.271 -0.0550 -0.0306 -0.1148
 3408SOL    HW213398   0.266   0.131   0.364  0.4896 -2.0274 -0.1535
 3408SOL    HW313399   0.158   0.087   0.267 -1.3481  2.4941 -0.3724
 3408SOL    MW413400   0.235   0.124   0.282  0.1278 -0.2196  0.3019
 3409SOL     OW13401   2.231   5.008   5.494  0.3171 -0.5742  0.0353
 3409SOL    HW213402   2.178   4.946   5.443  0.2712 -0.5248  0.0222
 3409SOL    HW313403   2.314   4.963   5.507 -0.2451 -1.2896  1.3657
 3409SOL    MW413404   2.235   4.994   5.489 -0.0663  0.5406  0.2789
 3410SOL     OW13405   1.024   0.272   2.122  0.1109  0.4057 -0.0582
 3410SOL    HW213406   1.010   0.299   2.031 -2.8182 -1.9563 -0.4689
 3410SOL    HW313407   0.943   0.297   2.167  0.4565 -0.7691  1.2846
 3410SOL    MW413408   1.012   0.279   2.116 -0.2392 -0.2309 -0.3240
 3411SOL     OW13409   0.557   0.839   0.114  0.0446  0.3123 -0.0919
 3411SOL    HW213410   0.622   0.804   0.052 -1.3322 -0.5923 -1.0917
 3411SOL    HW313411   0.473   0.825   0.070 -0.8845  0.7684  1.4821
 3411SOL    MW413412   0.555   0.832   0.100 -0.0542  0.2904  0.0053
 3412SOL     OW13413   5.310   5.217   0.008  0.2681  0.3205 -0.4226
 3412SOL    HW213414   5.249   5.148   0.033 -1.4050  2.0140  0.4948
 3412SOL    HW313415   5.261   5.298   0.024  2.1043  1.7183 -1.5175
 3412SOL    MW413416   5.295   5.219   0.013  0.1587  0.3677 -0.1054
 3413SOL     OW13417   0.968   3.300   0.078  0.5465  0.5829 -0.0023
 3413SOL    HW213418   0.966   3.328   0.169 -0.9950  0.4116  0.0333
 3413SOL    HW313419   1.029   3.226   0.077  1.1925  1.0888  0.7210
 3413SOL    MW413420   0.976   3.294   0.090 -0.1660  0.2768  0.0660
 3414SOL     OW13421   3.574   3.738   3.685  0.3062 -0.3467 -0.2182
 3414SOL    HW213422   3.520   3.815   3.666 -0.8204 -0.7071  1.3233
 3414SOL    HW313423   3.631   3.729   3.608 -1.7919  0.0731 -1.9043
 3414SOL    MW413424   3.575   3.747   3.672  0.1188  0.1122 -0.1320
 3415SOL     OW13425   0.863   3.650   3.246 -0.4794 -0.4822 -0.5589
 3415SOL    HW213426   0.948   3.607   3.235  0.9992  1.9912  0.2339
 3415SOL    HW313427   0.845   3.644   3.340 -0.1273  0.7602 -0.3958
 3415SOL    MW413428   0.872   3.644   3.257 -0.2554 -0.1758  0.2204
 3416SOL     OW13429   1.002   5.876   4.750  0.1190  0.3498  0.2498
 3416SOL    HW213430   0.934   5.942   4.737  0.2902  0.0262 -3.2936
 3416SOL    HW313431   0.956   5.792   4.737  0.8662  0.0602 -0.6141
 3416SOL    MW413432   0.987   5.873   4.747 -0.4062 -0.1044 -0.1819
 3417SOL     OW13433   1.064   1.625   0.418 -0.5814 -0.5500  0.0062
 3417SOL    HW213434   1.094   1.546   0.373 -1.0219 -0.3424 -0.6681
 3417SOL    HW313435   1.134   1.646   0.480 -0.6633 -1.7257  0.5170
 3417SOL    MW413436   1.077   1.617   0.420  0.1041 -0.3648 -0.5215
 3418SOL     OW13437   2.788   5.285   6.198 -0.2732 -0.4731  0.0293
 3418SOL    HW213438   2.787   5.311   6.290 -2.0130 -0.5011  0.0604
 3418SOL    HW313439   2.864   5.329   6.161  0.4411 -0.4379  1.4694
 3418SOL    MW413440   2.798   5.294   6.205 -0.4007 -0.2530 -0.6528
 3419SOL     OW13441   3.922   0.778   4.212  0.1321 -0.1579  0.0839
 3419SOL    HW213442   3.857   0.734   4.158  1.2834 -0.6985 -0.9001
 3419SOL    HW313443   3.956   0.849   4.157 -1.2644  1.6749  1.4316
 3419SOL    MW413444   3.918   0.782   4.198  0.5864  0.0327  0.4942
 3420SOL     OW13445   6.322   6.311   5.009 -0.2977  0.4574  0.0352
 3420SOL    HW213446   6.402   6.263   5.032 -0.5079  0.8655  1.7525
 3420SOL    HW313447   6.343   6.403   5.029 -0.4370  0.9138 -1.7126
 3420SOL    MW413448   6.336   6.317   5.014  0.6951  0.0071 -0.0315
 3421SOL     OW13449   0.216   4.641   4.468  0.2570  0.1863 -0.1045
 3421SOL    HW213450   0.131   4.616   4.432  0.5145 -1.1525  0.1574
 3421SOL    HW313451   0.245   4.714   4.412 -2.7100  3.3836  2.1079
 3421SOL    MW413452   0.209   4.647   4.456  0.1137 -0.0940  0.0399
 3422SOL     OW13453   2.068   4.902   3.050  0.7989  0.2444  0.0303
 3422SOL    HW213454   2.131   4.847   3.096  0.2402 -1.3783 -1.0850
 3422SOL    HW313455   1.987   4.892   3.101  0.9642  0.9567  0.4598
 3422SOL    MW413456   2.065   4.893   3.063 -0.3352 -0.3076  0.1726
 3423SOL     OW13457   2.848   5.113   4.752  0.1980  0.1775  0.0881
 3423SOL    HW213458   2.847   5.018   4.745 -1.7901  0.2469 -1.3789
 3423SOL    HW313459   2.940   5.137   4.742  0.8036 -1.6012  1.0360
 3423SOL    MW413460   2.860   5.104   4.750  0.9178 -0.3551  0.2783
 3424SOL     OW13461   1.634   6.067   3.178  0.3112  0.3702  0.3476
 3424SOL    HW213462   1.649   6.134   3.244 -2.1814 -1.5950  3.1941
 3424SOL    HW313463   1.686   5.992   3.208 -0.3951 -0.3734 -0.2552
 3424SOL    MW413464   1.643   6.066   3.191  0.1032 -0.2337  0.5937
 3425SOL     OW13465   1.668   5.597   4.399  0.0507  0.0652 -0.9018
 3425SOL    HW213466   1.720   5.517   4.389 -0.4057 -0.3795  0.1517
 3425SOL    HW313467   1.596   5.587   4.337 -1.3401 -1.4808  0.8316
 3425SOL    MW413468   1.665   5.585   4.390  0.3139  0.3517 -0.0639
 3426SOL     OW13469   0.390   6.034   3.598 -0.3820  0.0702 -0.2485
 3426SOL    HW213470   0.346   6.066   3.676 -0.6158 -1.4649  0.2842
 3426SOL    HW313471   0.355   6.088   3.527 -0.3605  1.3143  0.6468
 3426SOL    MW413472   0.380   6.045   3.599 -0.7791 -0.1086  0.0449
 3427SOL     OW13473   3.152   5.121   1.909 -0.5114 -0.1919  0.1309
 3427SOL    HW213474   3.165   5.030   1.885 -1.6768  0.3535 -3.1189
 3427SOL    HW313475   3.231   5.144   1.959  1.2735 -2.1991 -1.5337
 3427SOL    MW413476   3.164   5.112   1.912 -0.4271 -0.0491 -0.4801
 3428SOL     OW13477   0.326   3.252   3.376 -0.0328  0.2905 -0.0929
 3428SOL    HW213478   0.302   3.229   3.286 -1.1041 -0.2680  0.3149
 3428SOL    HW313479   0.409   3.298   3.368  1.9332 -3.1222 -1.0532
 3428SOL    MW413480   0.333   3.255   3.363  0.3764 -0.2176  0.0312
 3429SOL     OW13481   0.964   4.214   4.269  0.9606  0.3221 -0.3038
 3429SOL    HW213482   0.953   4.231   4.176  1.8841  2.6340 -0.0530
 3429SOL    HW313483   0.982   4.120   4.274  0.3483  0.0394 -2.3714
 3429SOL    MW413484   0.965   4.203   4.258  0.2566  0.1356 -0.1584
 3430SOL     OW13485   4.281   6.361   2.732  0.2314  0.3021  0.3173
 3430SOL    HW213486   4.217   6.317   2.675  1.7602 -0.8294 -0.6053
 3430SOL    HW313487   4.276   6.314   2.814 -0.2518  0.3637  0.3307
 3430SOL    MW413488   4.272   6.349   2.735  0.4171 -0.6822  0.4076
 3431SOL     OW13489   3.189   0.214   5.533 -0.2662 -0.1427 -0.0507
 3431SOL    HW213490   3.136   0.293   5.542  0.4340  0.2341  0.9402
 3431SOL    HW313491   3.225   0.220   5.445 -1.6073 -0.2578 -0.6312
 3431SOL    MW413492   3.187   0.226   5.523  0.0086  0.5467  0.5181
 3432SOL     OW13493   0.035   2.342   2.526  0.3608 -0.3708  0.8140
 3432SOL    HW213494  -0.034   2.333   2.460 -1.1210 -0.0927  2.2630
 3432SOL    HW313495   0.055   2.436   2.527  0.2369 -0.3444  0.8902
 3432SOL    MW413496   0.029   2.353   2.518  0.2012  0.9002  0.1266
 3433SOL     OW13497   1.258   2.741   1.081 -0.2930 -0.5077  0.0933
 3433SOL    HW213498   1.197   2.723   1.153 -0.2390 -1.6501 -0.1356
 3433SOL    HW313499   1.240   2.832   1.058 -2.3461 -0.9786 -0.3628
 3433SOL    MW413500   1.248   2.751   1.088  0.5512  0.0939 -0.7003
 3434SOL     OW13501   4.613   5.067   3.516 -0.2913 -0.2225  0.1772
 3434SOL    HW213502   4.665   5.115   3.581 -1.8070  2.4023 -0.4232
 3434SOL    HW313503   4.527   5.055   3.557 -0.7248 -0.1195 -0.6859
 3434SOL    MW413504   4.609   5.071   3.530  0.3967  0.0434  0.4300
 3435SOL     OW13505   3.620   4.067   0.556  0.7117 -0.3083  0.2845
 3435SOL    HW213506   3.528   4.081   0.580  0.3255 -0.9943 -0.7280
 3435SOL    HW313507   3.631   4.115   0.474  1.5452  0.5921  0.8976
 3435SOL    MW413508   3.609   4.076   0.548 -0.2470 -0.0978 -0.2348
 3436SOL     OW13509   0.742   3.722   2.326  0.7170 -0.1927 -0.2257
 3436SOL    HW213510   0.720   3.812   2.350 -1.2878 -0.4940 -0.7631
 3436SOL    HW313511   0.809   3.696   2.390 -0.4628  0.8502  1.5327
 3436SOL    MW413512   0.748   3.730   2.338  0.4105  0.1978  0.0776
 3437SOL     OW13513   3.039   0.685   2.634  0.1150  1.1959  0.6121
 3437SOL    HW213514   3.107   0.696   2.568  0.3576  0.3113  0.7029
 3437SOL    HW313515   2.962   0.657   2.583 -0.1439  2.0523  0.5265
 3437SOL    MW413516   3.038   0.683   2.618 -0.3054 -0.5338  0.0914
 3438SOL     OW13517   0.411   1.621   3.910  0.1123  0.0738  0.9141
 3438SOL    HW213518   0.500   1.650   3.891  0.0381  0.7880  1.6034
 3438SOL    HW313519   0.356   1.676   3.853  0.1351 -0.8927 -0.0813
 3438SOL    MW413520   0.416   1.632   3.900  0.6496  0.4147  0.0922
 3439SOL     OW13521   4.653   1.922   3.280  0.4871  0.4470 -0.2854
 3439SOL    HW213522   4.642   1.827   3.279  0.1837  0.4813 -0.3381
 3439SOL    HW313523   4.564   1.957   3.290  0.4066  0.7463 -1.6881
 3439SOL    MW413524   4.640   1.914   3.281  0.1459  0.1416 -0.2184
 3440SOL     OW13525   4.625   4.239   2.821  0.2895  0.4838  0.4340
 3440SOL    HW213526   4.697   4.290   2.783  0.8896 -0.2827  0.5180
 3440SOL    HW313527   4.660   4.150   2.828 -0.9249 -0.0506 -0.1967
 3440SOL    MW413528   4.639   4.234   2.817 -0.3567 -0.7089  0.1229
 3441SOL     OW13529   5.107   1.250   0.999 -0.0326 -0.1002 -0.2750
 3441SOL    HW213530   5.060   1.175   0.963  1.7609 -0.5561 -1.8302
 3441SOL    HW313531   5.195   1.243   0.963  0.6998  1.7890  0.9657
 3441SOL    MW413532   5.113   1.239   0.989  0.1467  0.0684 -0.1439
 3442SOL     OW13533   3.536   3.894   1.075 -0.5684 -0.1217 -0.0392
 3442SOL    HW213534   3.486   3.815   1.054 -0.4012 -0.4823  0.8773
 3442SOL    HW313535   3.570   3.924   0.990 -0.6688 -1.0060 -0.4067
 3442SOL    MW413536   3.534   3.887   1.061  0.3422 -0.0139 -0.1177
 3443SOL     OW13537   1.900   3.020   2.067  0.5957 -0.1313  0.4177
 3443SOL    HW213538   1.824   3.078   2.063 -0.4153 -1.4817 -0.7035
 3443SOL    HW313539   1.969   3.069   2.023 -0.3909  0.0440 -1.0067
 3443SOL    MW413540   1.899   3.034   2.060 -0.0055  0.0048  0.5240
 3444SOL     OW13541   5.919   0.148   4.279  0.7290  0.2681  0.4473
 3444SOL    HW213542   5.875   0.230   4.258  0.0621 -0.0726  0.4851
 3444SOL    HW313543   5.875   0.117   4.358  1.0948 -0.0363  0.5335
 3444SOL    MW413544   5.907   0.154   4.286 -0.5933  0.6070  0.0925
 3445SOL     OW13545   4.604   1.949   3.951 -0.3282  0.4838  0.0022
 3445SOL    HW213546   4.643   2.016   3.895  1.7783 -1.2713 -0.7984
 3445SOL    HW313547   4.656   1.870   3.934 -0.1038 -0.3997  3.7726
 3445SOL    MW413548   4.616   1.947   3.942  0.2569 -0.2947 -0.4066
 3446SOL     OW13549   2.622   1.741   4.732  1.0008  0.1854 -0.3281
 3446SOL    HW213550   2.663   1.672   4.680  0.4801 -1.3027  1.1568
 3446SOL    HW313551   2.689   1.766   4.796  0.6206 -0.1219  0.1916
 3446SOL    MW413552   2.636   1.735   4.733 -0.1572  0.7955 -0.4565
 3447SOL     OW13553   3.769   4.456   1.443  0.1409  0.3182 -0.2096
 3447SOL    HW213554   3.688   4.417   1.412  0.1084  1.8908 -2.2990
 3447SOL    HW313555   3.741   4.525   1.504 -0.1062  0.7109 -0.7572
 3447SOL    MW413556   3.755   4.460   1.447  0.3616  0.4060 -0.5482
 3448SOL     OW13557   0.021   5.743   1.486 -0.1687  0.4906 -0.5727
 3448SOL    HW213558   0.037   5.819   1.543 -1.2207  0.6088 -0.4197
 3448SOL    HW313559   0.081   5.676   1.518  0.2864  1.0316 -0.2688
 3448SOL    MW413560   0.031   5.744   1.498 -0.3521  0.6401  0.2512
 3449SOL     OW13561   5.232   0.765   1.614  0.1516 -0.5231 -0.5822
 3449SOL    HW213562   5.233   0.763   1.710  0.5429 -0.0405 -0.5709
 3449SOL    HW313563   5.215   0.857   1.593  0.4251 -0.5640 -0.9804
 3449SOL    MW413564   5.230   0.777   1.624  0.3567  0.6757  0.3682
 3450SOL     OW13565   1.821   6.022   3.658 -0.0796  0.1610  0.4774
 3450SOL    HW213566   1.850   5.953   3.717  0.7060 -0.1802 -0.2928
 3450SOL    HW313567   1.901   6.062   3.626 -0.3618 -1.1688 -2.1270
 3450SOL    MW413568   1.835   6.018   3.662  0.2945 -0.0666 -0.6954
 3451SOL     OW13569   4.200   3.358   1.058  0.2763  0.5732 -0.3460
 3451SOL    HW213570   4.266   3.395   1.117 -0.7307  1.5974  0.1660
 3451SOL    HW313571   4.119   3.359   1.108 -0.0567 -1.2215 -0.7639
 3451SOL    MW413572   4.198   3.363   1.072 -0.0331 -0.2033  0.7554
 3452SOL     OW13573   4.940   0.880   5.346  0.1470  0.1516 -0.0714
 3452SOL    HW213574   4.859   0.829   5.342  0.1813  0.1025 -3.6966
 3452SOL    HW313575   4.915   0.960   5.393 -1.8738 -0.1447 -0.5359
 3452SOL    MW413576   4.926   0.884   5.352  0.5079 -0.0879  0.2461
 3453SOL     OW13577   4.645   6.245   4.446  0.0386 -0.6524  0.5577
 3453SOL    HW213578   4.716   6.190   4.410  0.4398  0.5723 -0.6236
 3453SOL    HW313579   4.569   6.225   4.391 -0.3603 -1.4667  1.3929
 3453SOL    MW413580   4.645   6.235   4.434 -0.0368  0.2667 -0.0150
 3454SOL     OW13581   1.708   1.873   2.618 -0.0535  0.2986  0.0276
 3454SOL    HW213582   1.703   1.821   2.699 -1.1101 -0.9755 -0.8200
 3454SOL    HW313583   1.753   1.816   2.556 -1.1731  0.4081 -0.9088
 3454SOL    MW413584   1.714   1.859   2.621  0.2777  0.4181 -0.1682
 3455SOL     OW13585   1.656   6.318   6.225  0.1015 -0.1929  0.0993
 3455SOL    HW213586   1.570   6.288   6.253 -0.4556  0.5922 -0.7313
 3455SOL    HW313587   1.681   6.257   6.155 -0.0324 -0.0794 -0.0484
 3455SOL    MW413588   1.648   6.306   6.219  0.0266 -0.4919  0.3149
 3456SOL     OW13589   4.549   4.390   2.454  0.6863 -0.5074 -0.0930
 3456SOL    HW213590   4.616   4.321   2.456  0.9629 -0.2528  2.5686
 3456SOL    HW313591   4.474   4.349   2.412  1.1358 -2.1911  0.6657
 3456SOL    MW413592   4.548   4.375   2.449 -0.0518  0.2877  0.3951
 3457SOL     OW13593   5.244   2.601   3.419  0.0037 -0.2816 -0.5835
 3457SOL    HW213594   5.329   2.561   3.432 -0.5796 -1.4175 -0.1206
 3457SOL    HW313595   5.184   2.527   3.408 -0.9420  0.4894 -0.7886
 3457SOL    MW413596   5.247   2.586   3.419 -0.6289  0.1305  0.1564
 3458SOL     OW13597   5.376   4.667   5.079  0.2531 -0.5236  0.3841
 3458SOL    HW213598   5.328   4.627   5.151  0.9914  0.0632  1.2318
 3458SOL    HW313599   5.382   4.760   5.103  1.8901 -0.5991  0.3832
 3458SOL    MW413600   5.371   4.674   5.092  0.2935 -0.2571 -0.0442
 3459SOL     OW13601   4.331   3.917   1.309  0.7564  0.2110  0.4569
 3459SOL    HW213602   4.270   3.962   1.368  0.2881 -0.1075  0.2199
 3459SOL    HW313603   4.279   3.849   1.268  1.0945  0.3920 -0.2872
 3459SOL    MW413604   4.316   3.914   1.312  0.2515 -0.0307  0.1272
 3460SOL     OW13605   0.932   6.458   4.296  1.1263  0.3432 -0.3306
 3460SOL    HW213606   0.876   6.398   4.246  0.6716 -1.3601  2.0595
 3460SOL    HW313607   0.999   6.485   4.233  0.0379 -0.8779 -2.1258
 3460SOL    MW413608   0.934   6.453   4.281 -0.0459 -0.6256  0.6675
 3461SOL     OW13609   0.057   0.113   6.219 -0.7924  0.5687  0.4725
 3461SOL    HW213610   0.086   0.059   6.293 -1.1198  2.2455  1.9043
 3461SOL    HW313611   0.095   0.200   6.237 -0.7436  0.9884 -1.4403
 3461SOL    MW413612   0.066   0.117   6.231 -0.1393 -0.4447  0.2138
 3462SOL     OW13613   0.531   3.916   5.661  0.5129  0.7165 -0.2096
 3462SOL    HW213614   0.503   3.997   5.617 -1.7051 -0.3225 -0.9166
 3462SOL    HW313615   0.539   3.852   5.589 -0.0389 -0.2280  0.5428
 3462SOL    MW413616   0.528   3.918   5.645 -0.1537  0.4467 -0.0305
 3463SOL     OW13617   3.413   2.781   0.060  0.6327 -0.0981  0.5050
 3463SOL    HW213618   3.410   2.771   0.155 -1.1170  3.1694  0.9205
 3463SOL    HW313619   3.481   2.848   0.045 -0.4729  0.8798 -0.3253
 3463SOL    MW413620   3.422   2.789   0.070 -0.0546  0.1641  0.2773
 3464SOL     OW13621   5.468   5.792   3.505  0.2369 -0.2986 -0.4997
 3464SOL    HW213622   5.379   5.756   3.509  0.4704 -0.8145  1.4242
 3464SOL    HW313623   5.507   5.751   3.428 -1.6595  1.2206 -2.3943
 3464SOL    MW413624   5.462   5.782   3.496  0.2887  0.0402 -0.0877
 3465SOL     OW13625   2.745   4.247   0.563 -0.4656 -0.3780 -0.2038
 3465SOL    HW213626   2.688   4.307   0.516  0.0469  0.3754  0.1170
 3465SOL    HW313627   2.722   4.260   0.655 -1.1806 -1.5483 -0.1909
 3465SOL    MW413628   2.734   4.257   0.569  0.2463  0.0466  0.1851
 3466SOL     OW13629   5.801   0.287   4.748  0.2375  0.3260 -0.1779
 3466SOL    HW213630   5.721   0.335   4.768  0.0055 -0.5010  1.0100
 3466SOL    HW313631   5.796   0.208   4.803  1.1923 -0.4363 -1.1262
 3466SOL    MW413632   5.789   0.283   4.758 -0.0801  0.8964  0.0564
 3467SOL     OW13633   1.669   1.228   2.333 -0.0333  1.0167  0.9304
 3467SOL    HW213634   1.633   1.297   2.277  0.3741  0.9618  0.5947
 3467SOL    HW313635   1.719   1.173   2.273  1.3332  1.5867  1.5255
 3467SOL    MW413636   1.671   1.230   2.318  0.6491 -0.0351  0.1745
 3468SOL     OW13637   2.584   0.484   2.010 -0.0174 -0.0264  0.2580
 3468SOL    HW213638   2.521   0.486   1.937  0.1078 -0.7222  0.1252
 3468SOL    HW313639   2.625   0.398   2.004  2.1043  0.9701 -0.6222
 3468SOL    MW413640   2.581   0.473   1.999  0.6379  0.2872 -0.1486
 3469SOL     OW13641   4.365   5.312   3.368 -0.2072  0.0669  0.8891
 3469SOL    HW213642   4.408   5.251   3.308 -0.3837  0.8229 -0.0263
 3469SOL    HW313643   4.413   5.394   3.357 -2.3520  1.1921 -0.8117
 3469SOL    MW413644   4.377   5.315   3.359  0.4466  0.3838  0.2116
 3470SOL     OW13645   5.389   6.458   2.977 -0.4221  0.0335 -0.1793
 3470SOL    HW213646   5.295   6.469   2.987 -0.2259  2.5855 -0.3443
 3470SOL    HW313647   5.427   6.503   3.053  0.6750 -0.3584 -0.4680
 3470SOL    MW413648   5.382   6.465   2.989  0.0593 -0.3867  0.0601
 3471SOL     OW13649   4.276   3.975   1.792  0.1043 -0.2242  0.3201
 3471SOL    HW213650   4.332   3.955   1.866 -1.1871 -2.7208  0.7346
 3471SOL    HW313651   4.292   3.905   1.729  0.1237  1.0544 -1.1918
 3471SOL    MW413652   4.285   3.963   1.793 -0.2760 -0.5926 -0.4940
 3472SOL     OW13653   1.581   0.496   0.068 -0.3938  0.1080  0.0686
 3472SOL    HW213654   1.490   0.525   0.057 -0.7106 -1.0220 -0.5218
 3472SOL    HW313655   1.574   0.420   0.125  0.1861  0.0435  0.0553
 3472SOL    MW413656   1.568   0.490   0.074  0.1970  0.3293  0.7419
 3473SOL     OW13657   3.666   6.128   4.806 -0.5890 -0.1622 -0.3208
 3473SOL    HW213658   3.758   6.141   4.829 -1.3432  1.3973  2.2198
 3473SOL    HW313659   3.647   6.198   4.743 -0.2822  0.1872 -0.0295
 3473SOL    MW413660   3.676   6.139   4.800  0.5447  0.4265  0.5595
 3474SOL     OW13661   4.571   1.438   1.892  0.5140  0.4530 -0.3440
 3474SOL    HW213662   4.557   1.521   1.937  1.6794  0.8394 -0.6675
 3474SOL    HW313663   4.587   1.463   1.801 -2.0035 -0.3220 -1.0762
 3474SOL    MW413664   4.571   1.452   1.886  0.0289 -0.0948  0.2985
 3475SOL     OW13665   0.723   1.526   3.269  0.0460 -0.1820 -0.3064
 3475SOL    HW213666   0.766   1.441   3.257  0.4092 -0.1532  0.7182
 3475SOL    HW313667   0.794   1.589   3.275 -0.1853  0.0584 -0.0407
 3475SOL    MW413668   0.738   1.523   3.268  0.3814 -0.6611  0.2214
 3476SOL     OW13669   3.507   3.539   3.502  0.6923  0.2682  0.4129
 3476SOL    HW213670   3.457   3.559   3.581  0.2964 -0.1129  0.2656
 3476SOL    HW313671   3.563   3.615   3.489 -1.0751  1.5174 -0.3800
 3476SOL    MW413672   3.508   3.552   3.510 -0.2003  0.8280 -0.6531
 3477SOL     OW13673   1.616   5.972   4.456  0.6399 -0.2470 -0.3621
 3477SOL    HW213674   1.641   5.996   4.545 -1.1547  0.2475  0.0431
 3477SOL    HW313675   1.663   6.034   4.400  1.7197 -0.5122  0.2167
 3477SOL    MW413676   1.625   5.983   4.461  0.7472  0.4104  0.3659
 3478SOL     OW13677   6.056   3.767   3.546  0.3047  0.1545  0.2939
 3478SOL    HW213678   6.048   3.708   3.621  0.6009 -0.6358 -0.2848
 3478SOL    HW313679   6.104   3.842   3.580 -0.4534  0.2659  1.1484
 3478SOL    MW413680   6.062   3.769   3.560 -0.1547  0.2283 -0.2988
 3479SOL     OW13681   4.357   6.107   2.014  0.0436 -0.0737  0.2714
 3479SOL    HW213682   4.409   6.141   1.940  0.1315  0.9007  0.7619
 3479SOL    HW313683   4.293   6.049   1.974  0.3655  0.1139 -0.5362
 3479SOL    MW413684   4.356   6.104   1.999 -0.6481  0.1650  0.0685
 3480SOL     OW13685   3.116   4.847   6.169 -0.2617 -0.1623 -0.1174
 3480SOL    HW213686   3.158   4.817   6.249 -0.0026 -0.7028 -0.4498
 3480SOL    HW313687   3.065   4.924   6.195  1.2688  0.7736  0.2197
 3480SOL    MW413688   3.115   4.853   6.183 -0.2326 -0.8370  0.4017
 3481SOL     OW13689   5.448   6.109   0.940  0.1405  0.1906 -0.3017
 3481SOL    HW213690   5.467   6.110   0.846 -0.0925  0.0223 -0.3510
 3481SOL    HW313691   5.421   6.199   0.960  1.3572  0.5393 -0.1518
 3481SOL    MW413692   5.447   6.121   0.930 -0.2475  0.2074  0.5800
 3482SOL     OW13693   1.160   5.831   2.623 -0.2917 -0.6682  0.1518
 3482SOL    HW213694   1.134   5.919   2.651 -2.0738 -1.0564 -0.1567
 3482SOL    HW313695   1.159   5.836   2.527  0.0306 -0.9044  0.1374
 3482SOL    MW413696   1.156   5.843   2.614  0.3085 -0.2871  0.1885
 3483SOL     OW13697   5.365   2.068   1.995  0.2815 -0.7544 -0.7130
 3483SOL    HW213698   5.411   2.134   1.943 -0.8785 -0.9173 -2.0100
 3483SOL    HW313699   5.379   1.986   1.948 -0.6060 -0.9453 -0.6695
 3483SOL    MW413700   5.373   2.066   1.982 -0.4589 -0.2932 -0.1749
 3484SOL     OW13701   4.431   0.891   2.314 -0.1726 -0.0414  0.3214
 3484SOL    HW213702   4.366   0.880   2.244 -1.2855 -3.0188  1.6715
 3484SOL    HW313703   4.515   0.875   2.271 -0.7140 -0.5156 -0.5971
 3484SOL    MW413704   4.434   0.888   2.299 -0.2526  0.3498 -0.3332
 3485SOL     OW13705   2.970   1.883   3.814  0.0317  0.4459 -0.0741
 3485SOL    HW213706   2.953   1.892   3.720  0.2581  0.0181 -0.1571
 3485SOL    HW313707   2.893   1.837   3.848 -0.2097  0.9096  0.0102
 3485SOL    MW413708   2.958   1.878   3.806 -0.3511 -0.1085 -0.5076
 3486SOL     OW13709   2.089   2.159   0.328  0.2546  0.0681  0.1824
 3486SOL    HW213710   2.041   2.240   0.311  0.3469  0.6781  2.4861
 3486SOL    HW313711   2.083   2.147   0.423  1.8730 -1.6108  0.1329
 3486SOL    MW413712   2.082   2.168   0.338  0.1006 -0.0064 -0.6045
 3487SOL     OW13713   0.515   2.850   2.507 -0.2372  0.0326  0.0741
 3487SOL    HW213714   0.491   2.757   2.505  0.7497 -0.2274  0.1564
 3487SOL    HW313715   0.486   2.884   2.423 -0.7937 -0.2997  0.1255
 3487SOL    MW413716   0.508   2.842   2.496  0.3646  0.3189 -0.7929
 3488SOL     OW13717   3.339   6.453   4.345 -0.2614  0.6670 -0.1580
 3488SOL    HW213718   3.381   6.493   4.421 -0.9010 -0.2074  0.6811
 3488SOL    HW313719   3.286   6.522   4.307 -0.8179  0.8181  0.8676
 3488SOL    MW413720   3.337   6.467   4.350  0.0298  0.1650  0.1951
 3489SOL     OW13721   3.654   0.733   3.040  0.5721 -0.3854 -0.1063
 3489SOL    HW213722   3.722   0.665   3.042 -0.2769 -1.2668  1.9781
 3489SOL    HW313723   3.685   0.798   3.103  1.0585  0.9226 -1.6165
 3489SOL    MW413724   3.667   0.733   3.049 -0.1983  0.0153 -0.1347
 3490SOL     OW13725   1.264   2.882   5.289  0.0562  0.1973 -0.1817
 3490SOL    HW213726   1.179   2.848   5.262  0.3623  0.3092 -1.3806
 3490SOL    HW313727   1.316   2.804   5.307 -0.3851  0.1363  0.8588
 3490SOL    MW413728   1.260   2.867   5.288  0.2619  0.7348  0.6991
 3491SOL     OW13729   2.319   3.967   2.688 -0.7910 -0.2362 -0.2580
 3491SOL    HW213730   2.240   3.940   2.640 -0.0269 -2.8834 -0.2142
 3491SOL    HW313731   2.388   3.968   2.621  0.1966 -3.5284  0.5285
 3491SOL    MW413732   2.318   3.963   2.673  0.1169  0.0661  0.1481
 3492SOL     OW13733   1.312   0.271   2.292 -0.2105 -0.5903  0.4007
 3492SOL    HW213734   1.315   0.208   2.220 -0.1491 -0.0007 -0.1194
 3492SOL    HW313735   1.243   0.333   2.266 -0.3117 -0.4757  0.9353
 3492SOL    MW413736   1.303   0.270   2.279  0.0564  0.5998  0.3244
 3493SOL     OW13737   1.425   3.419   2.788  0.1899 -0.2206 -0.1626
 3493SOL    HW213738   1.471   3.348   2.744 -1.1275 -1.3551  0.2047
 3493SOL    HW313739   1.476   3.434   2.868  0.7374 -0.4234 -0.4647
 3493SOL    MW413740   1.438   3.411   2.793  0.5450  0.2643 -0.5190
 3494SOL     OW13741   1.630   0.510   2.394 -0.4112  0.0377 -0.2388
 3494SOL    HW213742   1.559   0.574   2.390 -0.5395 -0.1579 -1.7218
 3494SOL    HW313743   1.694   0.549   2.454 -1.6373  0.3245  0.9342
 3494SOL    MW413744   1.629   0.523   2.401  0.0365 -0.9905  0.0148
 3495SOL     OW13745   1.559   1.388   5.671 -0.2474 -0.0571  0.5697
 3495SOL    HW213746   1.473   1.425   5.651  0.1219  0.4682 -0.0582
 3495SOL    HW313747   1.547   1.294   5.660  0.1515  0.1747 -3.1921
 3495SOL    MW413748   1.546   1.380   5.667 -0.3887  0.0731  0.4135
 3496SOL     OW13749   1.783   1.938   0.547  0.0608 -0.1218 -0.3467
 3496SOL    HW213750   1.768   1.899   0.461 -1.4809  0.0273 -0.1621
 3496SOL    HW313751   1.736   2.021   0.545  1.0687  0.4858  0.2138
 3496SOL    MW413752   1.775   1.943   0.535  0.4692  0.2046  0.1844
 3497SOL     OW13753   1.955   3.394   3.882  0.3730  0.1223  0.0317
 3497SOL    HW213754   1.943   3.406   3.977 -0.0706  1.2282 -0.1445
 3497SOL    HW313755   1.928   3.478   3.844  1.0455 -0.1326 -1.0414
 3497SOL    MW413756   1.950   3.406   3.890 -0.1993  0.4447 -0.5105
 3498SOL     OW13757   4.515   5.040   6.135  0.8493  0.3654  0.0339
 3498SOL    HW213758   4.470   5.099   6.075  1.1520 -0.2211 -0.7785
 3498SOL    HW313759   4.608   5.062   6.125  1.4068 -2.6432 -3.0527
 3498SOL    MW413760   4.521   5.051   6.126 -0.1597 -0.1942 -0.1694
 3499SOL     OW13761   3.406   0.300   0.814 -0.6498 -0.0146  0.0158
 3499SOL    HW213762   3.397   0.379   0.760 -0.8373  0.3267  0.5420
 3499SOL    HW313763   3.434   0.232   0.752  0.9192  0.7782 -0.2077
 3499SOL    MW413764   3.409   0.302   0.799  0.1265 -0.1043 -0.5292
 3500SOL     OW13765   3.322   1.206   3.060  0.8326  0.1943  0.1283
 3500SOL    HW213766   3.265   1.164   2.995  1.2302  0.9079 -0.7047
 3500SOL    HW313767   3.371   1.134   3.098 -2.6423 -0.9414  3.0818
 3500SOL    MW413768   3.321   1.191   3.057 -0.6163 -0.0634 -0.7576
 3501SOL     OW13769   4.084   1.268   0.096 -0.3384  0.1014  0.3361
 3501SOL    HW213770   4.074   1.358   0.065  1.7589 -0.3986 -2.1629
 3501SOL    HW313771   4.178   1.251   0.090 -0.7060 -2.3445  0.4533
 3501SOL    MW413772   4.096   1.278   0.091 -0.3346  0.3932  0.0459
 3502SOL     OW13773   3.781   1.219   0.065 -0.7675  0.0173 -0.3274
 3502SOL    HW213774   3.866   1.213   0.109 -0.8294 -0.7745 -0.3070
 3502SOL    HW313775   3.796   1.181  -0.021 -0.3328  2.6531 -1.5083
 3502SOL    MW413776   3.794   1.213   0.060 -0.0493  0.4407 -0.1133
 3503SOL     OW13777   1.876   2.348   0.599  0.0958 -0.1503 -0.4157
 3503SOL    HW213778   1.902   2.413   0.664  0.4440  1.0577 -1.7419
 3503SOL    HW313779   1.940   2.277   0.610  0.4824  0.2791  0.1763
 3503SOL    MW413780   1.888   2.347   0.609  0.0866  0.4809  0.3570
 3504SOL     OW13781   3.152   6.386   4.930  0.0235  0.1160 -0.5406
 3504SOL    HW213782   3.133   6.351   5.016 -1.9250  0.9397 -0.5849
 3504SOL    HW313783   3.218   6.327   4.893  0.1305 -0.8241  1.0991
 3504SOL    MW413784   3.158   6.374   4.936  0.5907  0.9224 -0.1841
 3505SOL     OW13785   1.638   6.074   1.099  0.4550  0.0630  0.8857
 3505SOL    HW213786   1.572   6.101   1.163 -0.3203 -0.9466  0.5353
 3505SOL    HW313787   1.720   6.075   1.147  0.0116  0.1985  1.6505
 3505SOL    MW413788   1.640   6.077   1.113  0.1604  0.2197  0.0975
 3506SOL     OW13789   4.410   1.658   0.209 -0.6463  0.2338 -0.3095
 3506SOL    HW213790   4.485   1.698   0.253 -1.4704 -0.0432  1.4190
 3506SOL    HW313791   4.367   1.731   0.165  1.5127  0.1634 -2.8170
 3506SOL    MW413792   4.415   1.673   0.209 -0.5220 -0.1110 -0.1470
 3507SOL     OW13793   4.056   5.435   2.496 -0.4809 -0.6545 -0.3926
 3507SOL    HW213794   4.057   5.341   2.478 -1.2405 -1.1318  1.7691
 3507SOL    HW313795   4.146   5.456   2.518 -0.3066 -0.8611 -0.8862
 3507SOL    MW413796   4.068   5.425   2.497  0.2850  0.4938 -0.2036
 3508SOL     OW13797   1.895   5.886   5.446  0.2926 -0.2382 -0.1547
 3508SOL    HW213798   1.857   5.870   5.359  0.5901 -0.1621 -0.2977
 3508SOL    HW313799   1.985   5.855   5.439  0.0053 -1.2783  0.4544
 3508SOL    MW413800   1.902   5.880   5.433  0.2323 -0.3774 -0.2251
 3509SOL     OW13801   4.539   3.607   0.293 -0.0904 -0.2866  0.2762
 3509SOL    HW213802   4.558   3.513   0.302  0.0138 -0.1965  1.0582
 3509SOL    HW313803   4.523   3.619   0.200  0.8523 -0.9124  0.0122
 3509SOL    MW413804   4.540   3.596   0.282  0.1753  0.0741  0.2918
 3510SOL     OW13805   1.350   0.279   5.852 -0.0129 -0.6376 -0.3281
 3510SOL    HW213806   1.385   0.297   5.764  0.8104  0.7841  0.2528
 3510SOL    HW313807   1.292   0.354   5.869  1.6330  0.3316  1.2442
 3510SOL    MW413808   1.347   0.291   5.842 -0.4073  0.0005  0.0693
 3511SOL     OW13809   6.205   2.796   1.751 -0.0232  0.0037  0.3475
 3511SOL    HW213810   6.185   2.742   1.674  0.3631 -2.2114  1.7194
 3511SOL    HW313811   6.126   2.790   1.805  0.3055  0.2039  0.8549
 3511SOL    MW413812   6.192   2.788   1.748  0.9246 -0.1644  0.1121
 3512SOL     OW13813   0.712   4.856   4.212 -0.3824  0.5354  0.0062
 3512SOL    HW213814   0.782   4.792   4.224 -0.4280 -0.0185 -2.2712
 3512SOL    HW313815   0.642   4.827   4.272  0.3404 -0.3777  0.4290
 3512SOL    MW413816   0.712   4.844   4.222  0.7311  0.6744 -0.0090
 3513SOL     OW13817   6.059   2.407   4.329 -0.3248 -0.2420  0.6199
 3513SOL    HW213818   6.034   2.497   4.314 -2.2551 -0.7096  0.7611
 3513SOL    HW313819   6.076   2.371   4.242  0.3549  0.2273  0.5572
 3513SOL    MW413820   6.058   2.414   4.316  0.4246  0.3900  0.0079
 3514SOL     OW13821   1.770   0.811   0.459  0.9688  0.5286  0.0657
 3514SOL    HW213822   1.782   0.764   0.377  0.9493  0.6812 -0.0251
 3514SOL    HW313823   1.859   0.828   0.490  0.9886  1.1296 -0.3040
 3514SOL    MW413824   1.784   0.807   0.452  0.4324  0.1209  0.0417
 3515SOL     OW13825   1.744   2.494   1.625 -0.1237 -0.4569 -0.4815
 3515SOL    HW213826   1.744   2.473   1.532  1.9926  1.6952 -1.0895
 3515SOL    HW313827   1.703   2.581   1.630 -1.4877 -1.1396  0.8084
 3515SOL    MW413828   1.739   2.503   1.614 -0.2908 -0.1750  0.5291
 3516SOL     OW13829   1.547   4.169   3.004 -0.5602  0.5000  0.5600
 3516SOL    HW213830   1.562   4.109   3.077 -1.0277 -1.0441 -0.5541
 3516SOL    HW313831   1.627   4.164   2.952 -1.0618 -0.1254 -0.1750
 3516SOL    MW413832   1.560   4.161   3.007 -0.1570  0.1968 -0.0134
 3517SOL     OW13833   3.774   1.742   1.456  0.2726 -0.3962 -0.1479
 3517SOL    HW213834   3.761   1.742   1.361  1.1950 -0.3439 -0.2759
 3517SOL    HW313835   3.690   1.773   1.491 -0.0037 -0.2069 -0.9510
 3517SOL    MW413836   3.761   1.746   1.448  0.5198  0.2041 -0.2480
 3518SOL     OW13837   3.880   3.708   2.952  0.5267  0.0545 -0.0051
 3518SOL    HW213838   3.877   3.666   3.038  0.2205 -0.3080 -0.1910
 3518SOL    HW313839   3.793   3.694   2.916  1.1064 -1.1196 -1.0003
 3518SOL    MW413840   3.868   3.701   2.959 -0.5456 -0.0700 -0.1892
 3519SOL     OW13841   4.408   0.309   0.820 -0.1903  0.9992  0.1924
 3519SOL    HW213842   4.342   0.348   0.878 -1.5563 -0.0058 -0.6442
 3519SOL    HW313843   4.454   0.246   0.876 -1.2467  0.3019  0.2964
 3519SOL    MW413844   4.405   0.306   0.835 -0.1114  0.2141 -0.6437
 3520SOL     OW13845   0.298   4.830   5.737 -0.3585  0.1826 -0.0386
 3520SOL    HW213846   0.329   4.920   5.741  2.9172 -0.7822 -0.4048
 3520SOL    HW313847   0.225   4.826   5.799  0.0206  2.8201  0.6924
 3520SOL    MW413848   0.293   4.841   5.745  0.0924  0.0237 -0.0057
 3521SOL     OW13849   1.662   4.935   5.828 -0.3638 -0.2054 -0.8447
 3521SOL    HW213850   1.682   5.028   5.840  0.5007 -0.4744 -0.0181
 3521SOL    HW313851   1.743   4.890   5.852 -0.8108 -1.1784 -1.1004
 3521SOL    MW413852   1.675   4.941   5.833  0.0390 -0.3916  0.2163
 3522SOL     OW13853   0.400   2.970   2.282  0.4507  0.6819 -0.3532
 3522SOL    HW213854   0.437   3.035   2.222  0.1136  1.8473  0.6563
 3522SOL    HW313855   0.320   3.011   2.316 -0.6299 -0.9040 -0.8432
 3522SOL    MW413856   0.394   2.984   2.278  0.3911 -0.0088  0.4717
 3523SOL     OW13857   2.109   5.919   1.731  0.0065 -0.0418 -0.1649
 3523SOL    HW213858   2.200   5.924   1.760 -0.3263  1.0450  0.7993
 3523SOL    HW313859   2.064   5.986   1.783 -0.9200  1.0452 -2.2369
 3523SOL    MW413860   2.115   5.929   1.742 -0.3386 -0.1458 -0.3632
 3524SOL     OW13861   4.998   2.228   4.268  0.1261  0.0769 -0.0453
 3524SOL    HW213862   5.081   2.260   4.303  0.6990 -1.7726  0.4315
 3524SOL    HW313863   5.023   2.154   4.212 -1.1383  0.0499 -0.6066
 3524SOL    MW413864   5.012   2.222   4.265 -0.5761 -0.3977 -0.4507
 3525SOL     OW13865   3.210   2.084   0.697 -0.3927 -0.5686 -0.5137
 3525SOL    HW213866   3.134   2.028   0.685 -0.7517 -0.0557 -0.6839
 3525SOL    HW313867   3.177   2.158   0.749  0.2002 -0.7846  0.1933
 3525SOL    MW413868   3.196   2.086   0.702 -0.0722  0.4154 -0.0711
 3526SOL     OW13869   4.192   4.058   6.039  0.2943 -0.3921 -0.3172
 3526SOL    HW213870   4.203   4.140   6.088  1.5695 -0.1959 -0.8861
 3526SOL    HW313871   4.110   4.070   5.991  0.2464  0.3812 -0.0569
 3526SOL    MW413872   4.183   4.071   6.039 -0.7095  0.2995  0.5664
 3527SOL     OW13873   2.289   2.528   3.127 -0.1468  0.0420 -0.0801
 3527SOL    HW213874   2.195   2.540   3.131  0.0429  1.6588  0.1349
 3527SOL    HW313875   2.320   2.547   3.215  0.3561 -0.7967 -0.0667
 3527SOL    MW413876   2.281   2.532   3.139  0.1348 -0.1493  0.3912
 3528SOL     OW13877   5.936   2.669   4.020 -0.1623  0.0193 -0.0731
 3528SOL    HW213878   5.954   2.659   4.114 -1.2825 -1.5257  0.0067
 3528SOL    HW313879   6.022   2.677   3.980  0.3180  1.6882  1.1603
 3528SOL    MW413880   5.950   2.669   4.027 -0.2391  0.1641 -0.1439
 3529SOL     OW13881   1.189   1.386   5.994  0.2808 -0.1755  0.4770
 3529SOL    HW213882   1.097   1.390   6.023  0.6073 -1.4309  1.8234
 3529SOL    HW313883   1.222   1.475   6.007 -1.0098  0.5853 -1.0743
 3529SOL    MW413884   1.181   1.398   5.999  0.0129  0.1593 -0.2932
 3530SOL     OW13885   0.585   5.901   1.515  0.0009  0.0190 -0.8216
 3530SOL    HW213886   0.634   5.848   1.578  0.2371  0.5266 -0.5730
 3530SOL    HW313887   0.573   5.844   1.439 -0.8666 -0.8450 -0.0687
 3530SOL    MW413888   0.590   5.887   1.514 -0.3665  0.2141 -0.4599
 3531SOL     OW13889   4.502   5.123   5.643 -0.4005  0.1983 -0.0795
 3531SOL    HW213890   4.518   5.206   5.687  2.0127  0.9354 -2.1111
 3531SOL    HW313891   4.467   5.066   5.712  0.0002  2.2075  1.9159
 3531SOL    MW413892   4.500   5.126   5.658 -0.6648  0.2004 -0.9082
 3532SOL     OW13893   5.562   5.076   4.729 -0.1437 -0.5285 -0.5090
 3532SOL    HW213894   5.573   4.989   4.767 -0.8101 -0.4469 -0.1210
 3532SOL    HW313895   5.640   5.124   4.757 -0.9600 -0.2448  1.4027
 3532SOL    MW413896   5.574   5.071   4.737  0.1646 -0.5724 -0.0868
 3533SOL     OW13897   5.730   3.455   4.042  0.0267  0.1607 -0.1860
 3533SOL    HW213898   5.639   3.441   4.015 -0.0057 -3.6612  1.2919
 3533SOL    HW313899   5.781   3.401   3.982  0.8659 -0.8476  1.3805
 3533SOL    MW413900   5.725   3.446   4.030  0.1185 -0.3784  0.4956
 3534SOL     OW13901   1.351   1.435   1.216 -0.6559 -0.3996  0.0065
 3534SOL    HW213902   1.373   1.409   1.127 -1.3483  1.3336 -0.7109
 3534SOL    HW313903   1.424   1.403   1.269 -0.8808 -2.6591 -0.9398
 3534SOL    MW413904   1.363   1.427   1.211  0.1720  0.0906 -0.6635
 3535SOL     OW13905   4.968   2.541   1.979  0.9821 -0.1380  0.3297
 3535SOL    HW213906   4.936   2.466   2.029  2.2339 -0.1811  1.0933
 3535SOL    HW313907   4.968   2.511   1.888 -2.3535  0.2847  0.0556
 3535SOL    MW413908   4.964   2.527   1.973  0.5197 -0.0268 -0.1941
 3536SOL     OW13909   3.066   4.344   0.895  0.1173 -0.2336  0.1279
 3536SOL    HW213910   3.075   4.261   0.942  1.5248  0.1241  0.5546
 3536SOL    HW313911   3.156   4.376   0.887 -0.2214  0.3598 -1.6753
 3536SOL    MW413912   3.079   4.337   0.900 -0.1484 -0.1740  0.3796
 3537SOL     OW13913   5.697   5.461   4.927  0.1519 -0.4304 -0.1523
 3537SOL    HW213914   5.612   5.452   4.884  0.6613 -0.8789 -1.0953
 3537SOL    HW313915   5.676   5.472   5.020 -0.9646  0.3528 -0.4811
 3537SOL    MW413916   5.683   5.461   4.934 -0.5533  0.2200  0.4429
 3538SOL     OW13917   5.554   4.384   2.446 -0.2096  0.4952  0.2498
 3538SOL    HW213918   5.597   4.368   2.362 -1.1498  1.4088 -0.4364
 3538SOL    HW313919   5.497   4.308   2.458 -1.0049  0.9391 -0.5743
 3538SOL    MW413920   5.552   4.372   2.437 -0.0837 -0.0605 -0.5597
 3539SOL     OW13921   2.711   4.283   4.636 -0.1333  0.0095  0.4808
 3539SOL    HW213922   2.636   4.225   4.625 -0.5835  0.3737  1.5550
 3539SOL    HW313923   2.770   4.260   4.563 -0.0314 -2.1752  1.1883
 3539SOL    MW413924   2.709   4.272   4.625  0.1130 -0.4413  0.8899
 3540SOL     OW13925   4.104   1.577   1.869  0.4476  0.6080 -0.1253
 3540SOL    HW213926   4.093   1.661   1.824 -2.2549 -0.2230 -1.1766
 3540SOL    HW313927   4.171   1.531   1.817  0.8735  1.5246 -0.4090
 3540SOL    MW413928   4.112   1.582   1.856  0.2624  0.3459 -0.2020
 3541SOL     OW13929   1.191   0.992   1.478  0.1163 -0.7857  0.5411
 3541SOL    HW213930   1.208   1.081   1.509  3.1879 -0.9857 -0.2019
 3541SOL    HW313931   1.206   0.937   1.554 -0.0556 -0.7795  0.5795
 3541SOL    MW413932   1.196   0.997   1.492  0.0878 -0.1466  0.4501
 3542SOL     OW13933   0.212   1.039   1.933  0.3524  0.2206  0.2513
 3542SOL    HW213934   0.240   0.986   1.858 -1.0887 -0.8435  0.4237
 3542SOL    HW313935   0.290   1.089   1.957  1.3265 -0.6796 -0.8828
 3542SOL    MW413936   0.226   1.039   1.926  0.2234  0.2462  0.1250
 3543SOL     OW13937   5.636   3.144   4.241  0.5488  0.6911  0.5034
 3543SOL    HW213938   5.718   3.156   4.289  0.4901 -1.3347  1.1759
 3543SOL    HW313939   5.663   3.140   4.149  1.2876 -0.4634  0.7530
 3543SOL    MW413940   5.650   3.145   4.235 -0.0347  0.2347 -0.6502
 3544SOL     OW13941   0.715   1.894   3.372  0.4405  0.0423 -0.4456
 3544SOL    HW213942   0.800   1.871   3.332  1.6904  0.7806  1.6287
 3544SOL    HW313943   0.716   1.989   3.378 -0.4207  0.0410 -0.1595
 3544SOL    MW413944   0.727   1.903   3.368  0.0148 -0.2224  0.1834
 3545SOL     OW13945   0.143   0.311   4.402  0.3840 -0.0008 -0.7185
 3545SOL    HW213946   0.094   0.386   4.368 -0.7955 -0.4744 -0.1104
 3545SOL    HW313947   0.106   0.295   4.489  0.4404 -1.4451 -0.9415
 3545SOL    MW413948   0.132   0.319   4.409  0.5203 -0.3899 -0.2890
 3546SOL     OW13949   0.743   4.353   4.927  0.3049 -0.0060  0.1810
 3546SOL    HW213950   0.664   4.401   4.902 -0.2742 -1.1570 -0.2819
 3546SOL    HW313951   0.710   4.272   4.966  1.2578  0.0118  1.0521
 3546SOL    MW413952   0.728   4.349   4.928 -0.2597 -0.1205  0.1189
 3547SOL     OW13953   1.711   5.056   0.906  0.7152  0.0797 -0.1428
 3547SOL    HW213954   1.659   5.115   0.851  0.3124  1.2196  1.3908
 3547SOL    HW313955   1.752   5.114   0.970  1.5727 -1.1488  0.4376
 3547SOL    MW413956   1.709   5.072   0.907 -0.0010  0.4620  0.1801
 3548SOL     OW13957   0.234   0.747   3.817  0.1296  0.0600 -0.1347
 3548SOL    HW213958   0.278   0.690   3.881 -1.6125 -1.3775 -0.1559
 3548SOL    HW313959   0.245   0.835   3.853  0.2253 -0.5905  1.5353
 3548SOL    MW413960   0.242   0.751   3.831 -0.2280  0.1534 -0.1214
 3549SOL     OW13961   2.445   3.614   5.761 -0.0224 -0.0552  0.3117
 3549SOL    HW213962   2.361   3.591   5.722  0.0122 -0.8318  0.6735
 3549SOL    HW313963   2.422   3.675   5.832 -0.4723 -1.4991  1.4644
 3549SOL    MW413964   2.431   3.619   5.765 -0.0431  0.1862  0.6703
 3550SOL     OW13965   1.904   2.911   1.586 -0.0246  0.3184  0.4778
 3550SOL    HW213966   1.913   2.979   1.520 -1.8445  1.4369  1.3014
 3550SOL    HW313967   1.875   2.958   1.665  0.7776 -1.1403  1.6925
 3550SOL    MW413968   1.901   2.926   1.588 -0.2735 -0.4918  0.6997
 3551SOL     OW13969   0.146   2.960   2.940  0.2555  0.2292  0.1285
 3551SOL    HW213970   0.092   3.019   2.992  0.4825 -1.2460  2.1517
 3551SOL    HW313971   0.116   2.872   2.964  1.3825 -0.5478 -1.1456
 3551SOL    MW413972   0.135   2.956   2.950  0.0573  0.3216  0.0391
 3552SOL     OW13973   2.005   1.116   1.405 -0.1969 -0.3638 -0.3361
 3552SOL    HW213974   1.910   1.127   1.402 -0.3394 -0.7109  1.4565
 3552SOL    HW313975   2.033   1.167   1.482  0.9525 -0.9448 -0.3370
 3552SOL    MW413976   1.996   1.124   1.415  0.4511 -0.2697 -0.1934
 3553SOL     OW13977   6.362   5.785   5.410 -0.4581 -0.0164 -0.0975
 3553SOL    HW213978   6.333   5.729   5.339 -0.5370  0.9808 -0.8831
 3553SOL    HW313979   6.292   5.782   5.475 -0.7399 -0.3315 -0.4174
 3553SOL    MW413980   6.349   5.777   5.409  0.0006  0.6823 -0.7244
 3554SOL     OW13981   3.087   2.444   2.148  0.5140  0.1082  0.7216
 3554SOL    HW213982   3.132   2.425   2.231  0.9400  1.1254  0.7281
 3554SOL    HW313983   3.029   2.517   2.168  1.3635  1.0377 -0.1165
 3554SOL    MW413984   3.086   2.451   2.162  0.1398  0.3341  0.4707
 3555SOL     OW13985   3.964   3.106   3.596  0.3402  0.1654 -0.0382
 3555SOL    HW213986   3.992   3.182   3.647  0.6600 -0.3518  0.5809
 3555SOL    HW313987   3.968   3.135   3.505 -1.8421  1.6384  0.2742
 3555SOL    MW413988   3.968   3.119   3.591 -0.1101  0.1524  0.3436
 3556SOL     OW13989   4.710   1.577   2.742 -0.6870 -0.5313  0.3761
 3556SOL    HW213990   4.743   1.502   2.792  0.1457  0.5384  1.4825
 3556SOL    HW313991   4.634   1.542   2.696  0.6788 -2.5096 -0.5255
 3556SOL    MW413992   4.704   1.562   2.743  0.4946  0.0980  0.0608
 3557SOL     OW13993   3.605   6.288   5.500  1.2017  0.0293  0.1139
 3557SOL    HW213994   3.599   6.195   5.521 -1.3663  0.4922  2.0146
 3557SOL    HW313995   3.631   6.290   5.408  0.3109 -2.6146 -0.2956
 3557SOL    MW413996   3.607   6.276   5.491  0.0512 -0.2097 -0.1342
 3558SOL     OW13997   3.987   5.577   1.973 -0.0622  0.1035  0.0263
 3558SOL    HW213998   3.960   5.664   1.942 -0.6962 -0.6686 -1.7221
 3558SOL    HW313999   3.907   5.539   2.010  0.4107  0.5485  1.5904
 3558SOL    MW414000   3.973   5.584   1.974  0.1822  0.0429 -0.2092
 3559SOL     OW14001   5.648   4.660   4.368 -0.5852  0.7137 -0.2684
 3559SOL    HW214002   5.630   4.656   4.462 -0.2911  0.6118 -0.2185
 3559SOL    HW314003   5.581   4.603   4.329  1.0484 -1.5797  0.1040
 3559SOL    MW414004   5.637   4.652   4.375 -0.2763 -0.1513  0.0072
 3560SOL     OW14005   0.558   3.001   4.506 -0.0955 -0.3030 -0.5535
 3560SOL    HW214006   0.511   3.038   4.431  2.5020  0.5734 -1.8391
 3560SOL    HW314007   0.643   3.044   4.505  1.1017 -2.4586  1.1524
 3560SOL    MW414008   0.563   3.012   4.496 -0.3577  0.3876  0.1875
 3561SOL     OW14009   5.664   1.693   2.869  0.0476  0.4366 -0.0811
 3561SOL    HW214010   5.666   1.647   2.953  2.2896  1.3840  0.4530
 3561SOL    HW314011   5.581   1.668   2.830  0.2600 -2.4472  1.0734
 3561SOL    MW414012   5.654   1.683   2.875  0.4978 -0.1491 -0.1278
 3562SOL     OW14013   0.299   0.825   2.747 -0.2967 -0.3381 -0.1100
 3562SOL    HW214014   0.284   0.758   2.814  0.7349  0.3048  0.8131
 3562SOL    HW314015   0.379   0.870   2.776 -1.7062  2.2452  0.0939
 3562SOL    MW414016   0.308   0.822   2.760  0.2084 -0.1307  0.2852
 3563SOL     OW14017   0.419   0.777   3.158  0.6868 -0.2198  0.3196
 3563SOL    HW214018   0.456   0.848   3.211 -0.9110  0.7466  0.1921
 3563SOL    HW314019   0.375   0.720   3.221  0.7636 -0.3443  0.2628
 3563SOL    MW414020   0.418   0.779   3.173  0.1647  0.2394 -0.3796
 3564SOL     OW14021   4.913   3.123   2.188 -0.0871 -0.4918 -0.1772
 3564SOL    HW214022   4.947   3.112   2.099 -1.6906 -1.7481 -0.7015
 3564SOL    HW314023   4.921   3.037   2.228  1.7758  0.3414  1.3968
 3564SOL    MW414024   4.918   3.110   2.182  0.2537 -0.0885  0.2854
 3565SOL     OW14025   0.414   3.371   5.562 -0.0645 -0.0975  0.1515
 3565SOL    HW214026   0.450   3.446   5.608 -1.0434  0.1755  0.5038
 3565SOL    HW314027   0.323   3.367   5.591  0.0939 -1.7344  0.5635
 3565SOL    MW414028   0.407   3.380   5.572  0.0392 -0.2076 -0.5524
 3566SOL     OW14029   1.733   1.156   5.533  0.4737  0.9181  0.4546
 3566SOL    HW214030   1.729   1.070   5.574 -1.3354  0.5679 -0.3659
 3566SOL    HW314031   1.827   1.176   5.528  0.9058 -0.7828  1.0792
 3566SOL    MW414032   1.745   1.148   5.538  0.0018 -0.0473 -0.2380
 3567SOL     OW14033   0.338   0.285   1.882 -0.4149 -0.5881 -0.1426
 3567SOL    HW214034   0.424   0.252   1.908  0.5257  0.4382 -1.7617
 3567SOL    HW314035   0.298   0.315   1.964  1.1965 -0.1317  0.5169
 3567SOL    MW414036   0.344   0.284   1.896  0.2515  0.1870  0.1867
 3568SOL     OW14037   2.543   4.276   2.092  0.0062 -0.0295  0.0113
 3568SOL    HW214038   2.610   4.210   2.076  0.6623  0.1564  1.6971
 3568SOL    HW314039   2.592   4.359   2.095 -0.5361  0.3053 -0.2682
 3568SOL    MW414040   2.558   4.278   2.091 -0.6805  0.4942 -0.2667
 3569SOL     OW14041   4.463   0.933   6.370 -0.6936  0.3768 -0.0540
 3569SOL    HW214042   4.507   0.870   6.312 -2.9322  1.6144 -3.3280
 3569SOL    HW314043   4.512   1.014   6.359 -0.1947  0.2703  1.1298
 3569SOL    MW414044   4.475   0.935   6.361 -0.2144 -0.1713 -0.2114
 3570SOL     OW14045   3.170   4.469   0.295  0.2809 -0.0273  0.2729
 3570SOL    HW214046   3.262   4.496   0.283 -0.2273  1.0125 -1.7291
 3570SOL    HW314047   3.168   4.377   0.267  0.8955 -0.3741  1.3313
 3570SOL    MW414048   3.182   4.461   0.289  0.1356  0.1714 -0.1199
 3571SOL     OW14049   2.251   0.076   3.122  0.0955  0.3325  0.7202
 3571SOL    HW214050   2.223  -0.016   3.124  0.6907  0.1479  0.8756
 3571SOL    HW314051   2.180   0.122   3.078 -0.0378 -0.2687  0.2940
 3571SOL    MW414052   2.238   0.070   3.116  0.2018 -0.0199  0.2230
 3572SOL     OW14053   6.137   4.313   2.998 -0.4396 -0.6458  0.7522
 3572SOL    HW214054   6.229   4.290   3.014 -0.3832 -0.5471  0.5720
 3572SOL    HW314055   6.098   4.233   2.963 -0.0575 -0.2572 -0.6144
 3572SOL    MW414056   6.144   4.300   2.996 -0.3241  0.1766  0.0311
 3573SOL     OW14057   5.167   0.389   0.280  0.3324  0.5417 -0.1186
 3573SOL    HW214058   5.088   0.412   0.232  0.8512  0.0007 -1.2732
 3573SOL    HW314059   5.235   0.380   0.212  0.7189 -1.9092  0.4789
 3573SOL    MW414060   5.166   0.391   0.264 -0.0360 -0.8616  0.2767
 3574SOL     OW14061   4.637   1.575   6.260  0.9865  1.0123 -0.3628
 3574SOL    HW214062   4.712   1.521   6.235 -0.0337 -0.1666 -0.9314
 3574SOL    HW314063   4.665   1.618   6.341  1.3259 -1.4864  0.9389
 3574SOL    MW414064   4.651   1.574   6.268 -0.1860  0.9790  0.5628
 3575SOL     OW14065   2.945   4.196   6.347  1.0886 -0.0548 -0.1621
 3575SOL    HW214066   3.027   4.164   6.309  0.3801 -2.5169  0.2391
 3575SOL    HW314067   2.930   4.140   6.423 -0.2259  1.3353  0.6652
 3575SOL    MW414068   2.954   4.185   6.352  0.6706  0.2179  0.2218
 3576SOL     OW14069   2.116   5.923   1.426  0.2909  0.2303 -0.1548
 3576SOL    HW214070   2.080   5.910   1.514  1.3299  0.8813  0.3879
 3576SOL    HW314071   2.066   5.862   1.371 -1.1509  0.6194  0.6649
 3576SOL    MW414072   2.104   5.913   1.431  0.5426 -0.8281  0.5989
 3577SOL     OW14073   5.798   2.531   5.384 -0.5242  0.2158 -0.1075
 3577SOL    HW214074   5.824   2.594   5.452  2.2543 -1.6141  0.7125
 3577SOL    HW314075   5.800   2.581   5.303  2.0987  1.1829  0.4440
 3577SOL    MW414076   5.802   2.546   5.382  0.4034  0.6518  0.7550
 3578SOL     OW14077   3.196   0.761   1.500  0.1703 -0.4134  0.5240
 3578SOL    HW214078   3.152   0.793   1.579  1.1242  2.6097 -0.0282
 3578SOL    HW314079   3.140   0.791   1.429  1.6716  1.0821 -0.0752
 3578SOL    MW414080   3.182   0.769   1.501  0.4030  0.5106 -0.7740
 3579SOL     OW14081   3.499   0.906   4.724  0.0733 -0.1434  0.2990
 3579SOL    HW214082   3.490   0.950   4.639  0.9206  0.4048  0.4806
 3579SOL    HW314083   3.487   0.976   4.789  0.7155 -0.3060  0.6018
 3579SOL    MW414084   3.496   0.921   4.721  0.3494 -0.8681  0.0131
 3580SOL     OW14085   5.934   3.390   1.650 -0.2666  0.1698  0.0722
 3580SOL    HW214086   5.971   3.428   1.570  0.5349 -0.0520  0.3240
 3580SOL    HW314087   5.840   3.403   1.642 -0.0760  1.7066 -0.1239
 3580SOL    MW414088   5.927   3.397   1.638 -0.0768 -0.6687  0.0602
 3581SOL     OW14089   1.540   5.338   3.709 -0.2638 -0.1416  0.2096
 3581SOL    HW214090   1.518   5.407   3.771  0.0245 -1.2597  1.6134
 3581SOL    HW314091   1.593   5.382   3.642 -0.5327  1.0880  0.7735
 3581SOL    MW414092   1.544   5.353   3.709 -0.4358 -0.4170  0.1628
 3582SOL     OW14093   3.896   4.954   4.281  0.2093  0.1191  0.7416
 3582SOL    HW214094   3.825   4.965   4.218  0.1596 -1.3945  0.5064
 3582SOL    HW314095   3.852   4.941   4.365  0.2273  0.1776  0.7596
 3582SOL    MW414096   3.881   4.954   4.284  0.2016  0.3122 -0.1209
 3583SOL     OW14097   4.559   5.869   1.479  0.6863  0.3194  0.4158
 3583SOL    HW214098   4.509   5.837   1.404  0.3176  1.3237  0.2178
 3583SOL    HW314099   4.641   5.821   1.476 -0.2740 -1.4473  0.7927
 3583SOL    MW414100   4.563   5.859   1.469  0.0770  0.6033 -0.3944
 3584SOL     OW14101   0.816   2.535   6.258  0.3132  0.0367  0.6032
 3584SOL    HW214102   0.882   2.602   6.275 -0.2148  0.7279 -0.0296
 3584SOL    HW314103   0.867   2.456   6.237  0.9390  0.5308  0.2379
 3584SOL    MW414104   0.832   2.533   6.257  0.6131 -0.9311  0.6020
 3585SOL     OW14105   3.106   2.198   1.204  0.3552 -0.2413  0.5102
 3585SOL    HW214106   3.034   2.165   1.258  0.5357 -0.8998  0.3456
 3585SOL    HW314107   3.138   2.275   1.252 -1.3250  0.8841 -0.0721
 3585SOL    MW414108   3.101   2.204   1.218 -0.0245 -0.6759  0.5166
 3586SOL     OW14109   3.270   5.793   3.655 -0.0701 -0.1316  0.1550
 3586SOL    HW214110   3.321   5.801   3.574  0.8891 -0.9201  0.6536
 3586SOL    HW314111   3.247   5.883   3.677 -1.1576  0.0311 -1.4780
 3586SOL    MW414112   3.274   5.806   3.647  0.2898 -0.2078 -0.6900
 3587SOL     OW14113   3.440   5.209   3.347 -0.1266 -0.1240  0.1404
 3587SOL    HW214114   3.468   5.218   3.439  1.8763  3.1107 -0.6020
 3587SOL    HW314115   3.458   5.118   3.325  1.1478 -0.5060  2.4376
 3587SOL    MW414116   3.446   5.198   3.356 -0.3988  0.2526  0.3061
 3588SOL     OW14117   2.190   0.133   5.399 -0.2020  0.2470  0.2852
 3588SOL    HW214118   2.166   0.151   5.490 -1.2098 -0.2968  0.1321
 3588SOL    HW314119   2.152   0.206   5.350 -0.5696 -0.0230  0.1720
 3588SOL    MW414120   2.182   0.145   5.405 -0.2913 -0.7869 -0.4495
 3589SOL     OW14121   5.392   2.163   0.511  0.7944  0.0317  0.5220
 3589SOL    HW214122   5.331   2.096   0.481  1.2580  0.1404 -0.7417
 3589SOL    HW314123   5.336   2.231   0.548  0.2197 -0.3805  0.4353
 3589SOL    MW414124   5.376   2.163   0.512 -0.4854 -0.7418 -0.2525
 3590SOL     OW14125   5.037   4.226   2.582 -0.1751  0.9939 -0.0967
 3590SOL    HW214126   5.128   4.237   2.554 -0.1215  0.8288  0.0143
 3590SOL    HW314127   5.022   4.131   2.578 -0.5931  1.0901 -0.9041
 3590SOL    MW414128   5.047   4.215   2.578  0.1462 -0.1992 -0.1159
 3591SOL     OW14129   2.064   1.415   3.447  0.3789 -0.0428  0.5221
 3591SOL    HW214130   2.047   1.321   3.440 -0.6657  0.1559  0.1919
 3591SOL    HW314131   2.159   1.421   3.456  1.1516 -0.9515 -4.1355
 3591SOL    MW414132   2.074   1.403   3.447  0.4225  0.1195  0.1568
 3592SOL     OW14133   3.642   1.160   4.716 -0.5410  0.6061  0.3924
 3592SOL    HW214134   3.666   1.096   4.783 -0.9777  0.7383  0.6799
 3592SOL    HW314135   3.725   1.185   4.675 -0.3089  0.2816  0.6648
 3592SOL    MW414136   3.656   1.155   4.720 -0.0327 -0.6505  0.1690
 3593SOL     OW14137   6.097   1.523   2.989 -0.0838  0.4835  0.1140
 3593SOL    HW214138   6.069   1.534   2.898  0.5095 -0.6732 -0.2328
 3593SOL    HW314139   6.046   1.448   3.020  1.5196 -0.7274 -0.0769
 3593SOL    MW414140   6.086   1.514   2.981  0.3079 -0.3866 -0.3161
 3594SOL     OW14141   4.749   3.743   1.637  0.3824  0.0558 -0.0563
 3594SOL    HW214142   4.778   3.834   1.633 -0.2387  0.2331 -0.8496
 3594SOL    HW314143   4.743   3.724   1.730 -1.1842  1.3955  0.1715
 3594SOL    MW414144   4.752   3.753   1.649  0.3151 -0.2957 -0.1213
 3595SOL     OW14145   0.696   1.733   3.893  0.2029 -0.1963  0.0441
 3595SOL    HW214146   0.725   1.724   3.984 -3.1170  1.6576  1.4562
 3595SOL    HW314147   0.695   1.828   3.877 -1.0493 -0.3849 -1.2342
 3595SOL    MW414148   0.700   1.745   3.903  0.2055 -0.1694 -0.2805
 3596SOL     OW14149   6.218   2.019   5.229 -0.2450 -0.0429 -0.2680
 3596SOL    HW214150   6.170   2.096   5.199  1.2706  0.7200 -0.8401
 3596SOL    HW314151   6.163   1.945   5.205 -1.0728  0.7929 -1.0030
 3596SOL    MW414152   6.205   2.020   5.222 -0.1899  0.2973 -0.0222
 3597SOL     OW14153   0.453   4.092   0.447  0.3867  0.2124 -0.2449
 3597SOL    HW214154   0.425   4.010   0.490  1.9651  1.0135  2.5774
 3597SOL    HW314155   0.484   4.064   0.361  0.6123 -2.1227  0.5081
 3597SOL    MW414156   0.453   4.077   0.441  0.1648 -0.2622  0.4571
 3598SOL     OW14157   0.105   5.819   3.306 -0.3364  0.1646 -0.3900
 3598SOL    HW214158   0.135   5.825   3.396 -0.3889 -0.2288 -0.3427
 3598SOL    HW314159   0.150   5.743   3.270 -2.6392 -1.6271  0.2549
 3598SOL    MW414160   0.115   5.810   3.313 -0.0372  0.5560 -0.0991
 3599SOL     OW14161   1.249   0.336   4.878 -0.1452 -0.1548  0.2950
 3599SOL    HW214162   1.273   0.388   4.954 -0.5452 -0.9706  1.0067
 3599SOL    HW314163   1.157   0.311   4.894 -0.4772  0.2986 -0.8279
 3599SOL    MW414164   1.240   0.339   4.890  0.0578  0.3064  0.7781
 3600SOL     OW14165   0.377   4.278   6.356 -0.6328  0.0025 -0.0381
 3600SOL    HW214166   0.282   4.282   6.369 -0.7908 -1.5872 -0.4319
 3600SOL    HW314167   0.407   4.367   6.372 -2.1034  0.3917  0.7820
 3600SOL    MW414168   0.368   4.290   6.360  0.2737 -0.1221 -0.1739
 3601SOL     OW14169   5.784   3.425   3.162  0.5894  0.3414  0.4472
 3601SOL    HW214170   5.782   3.379   3.246  2.7049  0.5003  0.6409
 3601SOL    HW314171   5.710   3.390   3.113  0.0734 -0.6757  1.8952
 3601SOL    MW414172   5.774   3.415   3.167  0.3872 -0.0960 -0.5920
 3602SOL     OW14173   2.027   5.460   0.944  0.4566 -0.5616  0.1469
 3602SOL    HW214174   2.078   5.490   1.020 -0.5450  1.4695  0.0844
 3602SOL    HW314175   2.073   5.497   0.868  0.3693 -0.9598 -0.1028
 3602SOL    MW414176   2.040   5.469   0.944 -0.0857  0.8259  0.1685
 3603SOL     OW14177   4.040   0.125   2.634  0.2753  0.5382  0.8010
 3603SOL    HW214178   4.034   0.141   2.728 -0.3474 -0.9075  1.0414
 3603SOL    HW314179   3.952   0.142   2.600  0.5101  1.1059  0.4633
 3603SOL    MW414180   4.028   0.129   2.642 -0.0781 -0.3036  0.3242
 3604SOL     OW14181   1.687   5.850   2.018 -0.1436  0.3114  0.7794
 3604SOL    HW214182   1.712   5.815   1.932  0.0294 -0.0598  0.9811
 3604SOL    HW314183   1.637   5.929   1.997  2.7431  2.2001  0.3603
 3604SOL    MW414184   1.684   5.856   2.004 -0.4413 -0.0105 -0.6259
 3605SOL     OW14185   6.346   6.105   2.343 -0.0019 -0.0274 -0.0853
 3605SOL    HW214186   6.281   6.172   2.320  2.0353  1.5238 -1.7597
 3605SOL    HW314187   6.355   6.052   2.263 -0.5543 -1.4457  0.7630
 3605SOL    MW414188   6.339   6.107   2.329  0.1830 -0.3672 -0.3211
 3606SOL     OW14189   2.041   3.477   1.584 -0.1677 -0.3030  0.0739
 3606SOL    HW214190   2.005   3.394   1.616 -2.0385  0.8547  1.1912
 3606SOL    HW314191   1.966   3.536   1.580  0.9637  1.1312 -1.4833
 3606SOL    MW414192   2.027   3.474   1.588  0.0774  0.2439  0.1902
 3607SOL     OW14193   4.113   3.242   2.519 -0.0283 -0.1743  0.3160
 3607SOL    HW214194   4.070   3.319   2.557  0.4009 -0.1361  0.7457
 3607SOL    HW314195   4.100   3.251   2.425  1.3390  1.2579  0.2164
 3607SOL    MW414196   4.106   3.253   2.512  0.3265  0.2051  0.2281
 3608SOL     OW14197   3.852   0.594   4.482  0.2632 -0.7365 -0.3468
 3608SOL    HW214198   3.757   0.605   4.475 -0.0161 -2.2472  0.6259
 3608SOL    HW314199   3.876   0.646   4.559  0.1351 -0.8196 -0.2501
 3608SOL    MW414200   3.842   0.602   4.491 -0.1373  0.1123  0.4551
 3609SOL     OW14201   5.726   1.121   0.904 -0.1295 -0.5232  0.1128
 3609SOL    HW214202   5.743   1.041   0.954 -1.2746 -0.0859  1.2425
 3609SOL    HW314203   5.726   1.092   0.812 -1.1793 -1.9402  0.5309
 3609SOL    MW414204   5.728   1.106   0.898  0.0334 -0.0239 -0.0369
 3610SOL     OW14205   6.137   3.161   5.254 -0.5396  0.0074 -0.3215
 3610SOL    HW214206   6.221   3.197   5.283  0.2238 -1.1695 -0.9256
 3610SOL    HW314207   6.082   3.237   5.235  0.9704  0.8635 -1.5047
 3610SOL    MW414208   6.141   3.176   5.255 -0.2681 -0.2712 -0.0234
 3611SOL     OW14209   1.793   2.408   6.055  0.4171 -0.3524 -0.7298
 3611SOL    HW214210   1.821   2.316   6.062 -0.9429 -0.7431  0.0231
 3611SOL    HW314211   1.779   2.435   6.146 -1.6167 -0.2031 -1.0552
 3611SOL    MW414212   1.795   2.399   6.068  0.5045  0.6303  0.0882
 3612SOL     OW14213   2.732   1.562   1.251 -0.1900  0.3993  0.2205
 3612SOL    HW214214   2.732   1.656   1.232  0.5243  0.4977  0.6768
 3612SOL    HW314215   2.791   1.524   1.186 -0.8671  0.1875 -0.2849
 3612SOL    MW414216   2.740   1.569   1.240  0.2485 -0.9239  0.1867
 3613SOL     OW14217   4.784   1.046   0.529  0.0455 -0.7215  0.6774
 3613SOL    HW214218   4.810   0.977   0.468 -0.4177 -0.0552 -0.2955
 3613SOL    HW314219   4.695   1.023   0.556 -1.1167  0.7490 -1.5961
 3613SOL    MW414220   4.776   1.034   0.525 -0.1969  0.1993  0.0607
 3614SOL     OW14221   1.793   4.087   2.875  0.6731  0.5945 -0.0542
 3614SOL    HW214222   1.803   4.013   2.935 -0.0033  1.2089  0.8341
 3614SOL    HW314223   1.778   4.046   2.790  2.1431 -0.2888  0.0820
 3614SOL    MW414224   1.792   4.072   2.872  0.1961 -0.0233 -0.2709
 3615SOL     OW14225   4.198   1.330   4.650  0.2753  0.0798 -0.0921
 3615SOL    HW214226   4.223   1.416   4.618 -1.1387  1.2658  1.7825
 3615SOL    HW314227   4.261   1.312   4.720 -1.3362  1.1537  1.7427
 3615SOL    MW414228   4.210   1.339   4.655 -0.1483  0.1685 -0.2032
 3616SOL     OW14229   0.437   2.724   1.220  0.2814  0.4046 -0.0706
 3616SOL    HW214230   0.396   2.787   1.160 -0.3508  0.8173  0.7696
 3616SOL    HW314231   0.363   2.678   1.260  0.6547  0.8130  1.1148
 3616SOL    MW414232   0.422   2.726   1.217  0.0279  0.4110  0.2727
 3617SOL     OW14233   2.660   4.656   2.497 -0.6772  0.0164 -0.4086
 3617SOL    HW214234   2.693   4.569   2.519 -0.9145  0.0979  0.2842
 3617SOL    HW314235   2.592   4.640   2.432 -0.2812 -0.2597 -0.7668
 3617SOL    MW414236   2.656   4.642   2.491  0.1058 -0.5800 -0.1886
 3618SOL     OW14237   3.275   1.535   5.518  0.5828 -0.0479  0.1959
 3618SOL    HW214238   3.331   1.468   5.558 -0.0932  0.2964  1.7677
 3618SOL    HW314239   3.193   1.531   5.568  0.2128  1.3471 -0.2661
 3618SOL    MW414240   3.272   1.525   5.530 -0.7812 -0.0262 -0.2080
 3619SOL     OW14241   4.441   6.195   5.662 -0.8124 -0.2757  0.1824
 3619SOL    HW214242   4.379   6.140   5.615 -2.3149  0.0900  1.6461
 3619SOL    HW314243   4.390   6.232   5.735  0.8655  0.8403  0.8484
 3619SOL    MW414244   4.426   6.193   5.666  0.3739 -0.7629 -0.1049
 3620SOL     OW14245   4.371   2.079   5.228  0.1394 -0.1498  0.2479
 3620SOL    HW214246   4.371   2.125   5.312 -1.2395  1.1835 -0.4420
 3620SOL    HW314247   4.458   2.095   5.191  0.6880 -0.5925  1.3081
 3620SOL    MW414248   4.382   2.087   5.234  0.3331  0.2748  0.0408
 3621SOL     OW14249   0.354   6.060   5.518 -0.4458  0.1767  0.0330
 3621SOL    HW214250   0.263   6.088   5.507 -0.4145  0.5719  0.6619
 3621SOL    HW314251   0.405   6.140   5.504 -0.2859  0.2402  0.8875
 3621SOL    MW414252   0.348   6.075   5.515 -0.2807  0.7639 -0.4272
 3622SOL     OW14253   2.506   3.309   0.943 -0.7566  0.2245  0.6607
 3622SOL    HW214254   2.418   3.277   0.964 -0.9814  0.4048  0.0116
 3622SOL    HW314255   2.505   3.321   0.848  0.3045 -0.7288  0.5178
 3622SOL    MW414256   2.494   3.307   0.934 -0.6467 -0.2090 -0.2443
 3623SOL     OW14257   4.610   4.396   3.061  0.2169  0.6744  0.3515
 3623SOL    HW214258   4.595   4.358   2.974  0.8421 -1.1629  0.9981
 3623SOL    HW314259   4.671   4.468   3.045 -1.3961  1.8405 -0.9867
 3623SOL    MW414260   4.616   4.401   3.047 -0.0523  0.3314 -0.7422
 3624SOL     OW14261   2.070   1.125   4.845 -0.0428 -0.1060 -0.1237
 3624SOL    HW214262   2.147   1.126   4.789 -0.9650  3.0562 -1.5535
 3624SOL    HW314263   2.023   1.045   4.819  1.5460 -0.8087 -0.9603
 3624SOL    MW414264   2.074   1.115   4.834 -0.3767 -0.3051  0.2542
 3625SOL     OW14265   6.021   3.694   4.860 -0.2714 -0.1619  0.4640
 3625SOL    HW214266   5.997   3.768   4.805  1.2479  0.3331  0.4241
 3625SOL    HW314267   6.040   3.733   4.946 -0.0443 -0.5786  0.6065
 3625SOL    MW414268   6.021   3.709   4.864 -0.2053  0.8985  1.0749
 3626SOL     OW14269   2.697   2.343   0.706 -0.2378  0.1851 -0.2326
 3626SOL    HW214270   2.667   2.289   0.780  0.8219 -1.0387 -0.6654
 3626SOL    HW314271   2.663   2.299   0.628 -1.0918  1.3044 -0.5242
 3626SOL    MW414272   2.688   2.330   0.706 -0.5842 -0.0230 -0.6090
 3627SOL     OW14273   2.088   3.236   6.196  0.4234 -0.0068 -0.2323
 3627SOL    HW214274   2.012   3.271   6.149  0.6070 -1.4072 -1.6779
 3627SOL    HW314275   2.064   3.243   6.288 -1.4637 -0.3432 -0.6394
 3627SOL    MW414276   2.074   3.241   6.202 -0.2875  0.1407 -0.8694
 3628SOL     OW14277   1.914   4.491   5.702 -0.1242  0.0269 -0.4706
 3628SOL    HW214278   1.991   4.536   5.666  0.2711 -1.2779 -1.3325
 3628SOL    HW314279   1.841   4.524   5.649  0.0787  0.0701 -0.7286
 3628SOL    MW414280   1.915   4.502   5.690 -0.1019 -0.1935 -0.3382
 3629SOL     OW14281   4.180   0.203   2.406  0.3420  0.2581  0.1142
 3629SOL    HW214282   4.145   0.200   2.495  1.9760 -0.5652  0.7829
 3629SOL    HW314283   4.204   0.295   2.393 -0.1419  0.4326  0.4315
 3629SOL    MW414284   4.179   0.215   2.416 -0.0217 -0.2602  0.1683
 3630SOL     OW14285   0.658   1.544   4.587  0.1904  0.0303 -0.4690
 3630SOL    HW214286   0.717   1.616   4.610 -0.8717  0.9435 -0.5374
 3630SOL    HW314287   0.580   1.560   4.640  0.1721 -1.4324 -0.0272
 3630SOL    MW414288   0.655   1.556   4.597  0.1173  0.8337 -0.1901
 3631SOL     OW14289   3.337   2.387   2.824  0.5420  0.8187  0.2671
 3631SOL    HW214290   3.383   2.405   2.905  2.9494  0.7876 -1.0152
 3631SOL    HW314291   3.308   2.296   2.832  1.2748  0.6317  0.8636
 3631SOL    MW414292   3.339   2.377   2.836  0.2500  0.3260  0.4667
 3632SOL     OW14293   2.857   0.356   2.891 -0.1627 -0.0759  0.0387
 3632SOL    HW214294   2.882   0.320   2.806  0.1182  1.8539 -0.7498
 3632SOL    HW314295   2.828   0.280   2.942 -0.2350 -1.2984 -1.7371
 3632SOL    MW414296   2.856   0.341   2.886  0.5155 -0.1182  0.7651
 3633SOL     OW14297   4.890   0.889   1.515 -0.1754  0.0595  0.3862
 3633SOL    HW214298   4.890   0.894   1.611 -0.7974 -0.5651  0.4267
 3633SOL    HW314299   4.800   0.868   1.492  0.1161 -0.4769 -0.3008
 3633SOL    MW414300   4.878   0.887   1.525  0.5187 -0.0497  0.7121
 3634SOL     OW14301   2.815   5.890   4.881 -0.0897 -0.3652 -0.0147
 3634SOL    HW214302   2.807   5.836   4.802 -0.9151  0.3742 -0.4601
 3634SOL    HW314303   2.882   5.954   4.860  1.8064 -1.9324  0.9695
 3634SOL    MW414304   2.822   5.892   4.867 -0.7342 -0.0282  0.7815
 3635SOL     OW14305   4.366   5.450   5.272 -0.1301  0.4294  0.2870
 3635SOL    HW214306   4.339   5.542   5.278  1.7740  1.1001 -0.5020
 3635SOL    HW314307   4.447   5.446   5.323  0.4908 -0.4999 -0.7425
 3635SOL    MW414308   4.374   5.462   5.280  0.2489 -0.9008 -0.1892
 3636SOL     OW14309   5.115   3.397   5.783 -0.3018  0.2672  0.5311
 3636SOL    HW214310   5.138   3.485   5.813  0.0940 -0.3516  2.0887
 3636SOL    HW314311   5.179   3.378   5.714 -1.0882  1.6126 -0.6310
 3636SOL    MW414312   5.127   3.406   5.778  0.7349 -0.0745 -0.6635
 3637SOL     OW14313   0.179   5.512   1.568  0.2520  0.2935 -0.3917
 3637SOL    HW214314   0.174   5.455   1.490  1.6985  1.8688 -1.7103
 3637SOL    HW314315   0.152   5.455   1.640  0.8921 -1.8598 -1.7349
 3637SOL    MW414316   0.174   5.497   1.567  0.0313  0.0076  0.1637
 3638SOL     OW14317  -0.001   2.072   0.012  0.1030 -0.3068 -0.1201
 3638SOL    HW214318  -0.078   2.113   0.052 -0.3194 -1.0387 -0.1540
 3638SOL    HW314319   0.044   2.143  -0.033 -0.4179  0.1801  0.1155
 3638SOL    MW414320  -0.005   2.087   0.011 -0.0718 -0.3374  0.1218
 3639SOL     OW14321   4.558   4.303   1.762  0.4813  0.6129 -0.3128
 3639SOL    HW214322   4.553   4.208   1.765  1.8787  0.3869 -2.6794
 3639SOL    HW314323   4.523   4.332   1.846  0.5303 -1.9970  0.6813
 3639SOL    MW414324   4.553   4.294   1.774  0.0428 -0.2549 -0.2103
 3640SOL     OW14325   2.836   0.451   0.687 -0.3035 -0.0771 -0.0421
 3640SOL    HW214326   2.923   0.415   0.698  0.3119  0.8512 -1.4540
 3640SOL    HW314327   2.836   0.487   0.598 -2.3789 -0.7314 -0.3733
 3640SOL    MW414328   2.847   0.451   0.676  0.1623  0.0792  0.4798
 3641SOL     OW14329   5.258   0.476   4.608  0.3515  0.2937 -0.0049
 3641SOL    HW214330   5.178   0.492   4.658 -0.7623 -0.5339 -1.4362
 3641SOL    HW314331   5.269   0.380   4.609  1.0318  0.3584 -0.2517
 3641SOL    MW414332   5.249   0.465   4.614  0.2049  0.2615 -0.3877
 3642SOL     OW14333   2.290   2.902   2.780  0.1941 -0.6542  0.1206
 3642SOL    HW214334   2.202   2.898   2.743  0.2049 -1.0548  0.1381
 3642SOL    HW314335   2.300   2.820   2.827  0.1497 -0.1149  1.0944
 3642SOL    MW414336   2.280   2.891   2.781 -0.2029 -0.0060  0.0180
 3643SOL     OW14337   1.935   0.273   2.549  0.1724  0.6897 -0.1099
 3643SOL    HW214338   1.981   0.288   2.632  1.2554 -1.3475 -0.2877
 3643SOL    HW314339   2.005   0.264   2.484 -0.6410  1.5356 -1.1281
 3643SOL    MW414340   1.951   0.274   2.551  0.1378 -0.4270  0.1128
 3644SOL     OW14341   1.234   2.500   4.064 -0.5810  0.2178  0.1843
 3644SOL    HW214342   1.209   2.425   4.118  0.2187  0.5366  1.0203
 3644SOL    HW314343   1.253   2.462   3.978 -1.3067 -0.3722  0.2709
 3644SOL    MW414344   1.233   2.485   4.060 -0.2758 -0.1487  0.3707
 3645SOL     OW14345   4.644   3.343   5.383  0.1383  0.2112 -0.3248
 3645SOL    HW214346   4.635   3.308   5.294 -1.9349 -0.7213  0.1979
 3645SOL    HW314347   4.561   3.323   5.425 -0.2727  3.6819  0.7977
 3645SOL    MW414348   4.632   3.336   5.377 -0.0139  0.4323 -0.1072
 3646SOL     OW14349   4.643   0.442   0.075  0.0838 -0.3777 -0.6075
 3646SOL    HW214350   4.620   0.486   0.156 -1.6240 -2.5925  0.2138
 3646SOL    HW314351   4.570   0.459   0.016 -0.3759 -1.6245 -0.4354
 3646SOL    MW414352   4.631   0.450   0.078  0.1769  0.1446 -0.0607
 3647SOL     OW14353   0.740   4.857   5.307  0.0476  0.4701 -0.0363
 3647SOL    HW214354   0.684   4.856   5.385 -0.3603 -2.2313 -0.2788
 3647SOL    HW314355   0.814   4.801   5.331  0.1123 -0.0803 -1.4685
 3647SOL    MW414356   0.743   4.849   5.321  0.1085 -0.1943 -0.4078
 3648SOL     OW14357   6.208   4.918   1.139  0.3917  0.2658  0.2254
 3648SOL    HW214358   6.275   4.919   1.207  0.5408 -0.0179  0.0822
 3648SOL    HW314359   6.233   4.846   1.081  0.3288  0.5687 -0.1875
 3648SOL    MW414360   6.220   4.909   1.140 -0.0069  0.4855  0.2861
 3649SOL     OW14361   1.321   6.099   1.539  0.0812 -0.6073 -0.1501
 3649SOL    HW214362   1.229   6.125   1.542  0.1060 -0.0332 -2.3441
 3649SOL    HW314363   1.361   6.161   1.477  2.0483 -0.5791  1.0546
 3649SOL    MW414364   1.314   6.111   1.531 -0.4139 -0.7317  0.5867
 3650SOL     OW14365   5.081   2.416   0.261 -0.1882  0.4040  0.1201
 3650SOL    HW214366   5.056   2.354   0.329 -1.7265 -3.7591 -3.7133
 3650SOL    HW314367   5.002   2.467   0.245 -0.3385  0.2532  0.3656
 3650SOL    MW414368   5.067   2.415   0.268 -0.2987  0.4149 -0.1146
 3651SOL     OW14369   3.555   1.786   4.306 -0.4564  0.0103  0.0672
 3651SOL    HW214370   3.552   1.874   4.270  0.9692  0.1405  0.1920
 3651SOL    HW314371   3.524   1.795   4.396  0.5430  0.5691  0.3691
 3651SOL    MW414372   3.551   1.799   4.313  0.4997 -0.0604  0.0277
 3652SOL     OW14373   6.315   4.591   2.693 -0.2103  0.0310 -0.4991
 3652SOL    HW214374   6.248   4.657   2.679  0.3591  0.8037  0.2887
 3652SOL    HW314375   6.272   4.508   2.675 -1.1724  0.5561 -0.6670
 3652SOL    MW414376   6.301   4.589   2.688 -0.3770 -0.0605  0.4459
 3653SOL     OW14377   3.643   0.717   4.087 -0.1432 -0.7075 -0.0256
 3653SOL    HW214378   3.581   0.702   4.015 -1.1607 -2.3474  1.1501
 3653SOL    HW314379   3.599   0.780   4.144 -0.5759 -1.5878  0.6191
 3653SOL    MW414380   3.629   0.724   4.085  0.2983  0.0334 -0.1898
 3654SOL     OW14381   4.132   5.208   3.490 -0.2296  0.2005  0.1558
 3654SOL    HW214382   4.202   5.191   3.426  1.3618 -2.7587  2.3945
 3654SOL    HW314383   4.146   5.299   3.517  3.2051 -0.3738  0.8371
 3654SOL    MW414384   4.143   5.218   3.485  0.2588  0.6996 -0.1391
 3655SOL     OW14385   2.707   1.167   2.739  0.0803 -0.2977  0.2612
 3655SOL    HW214386   2.786   1.167   2.793  0.5867  0.1528 -0.4714
 3655SOL    HW314387   2.645   1.222   2.786  0.3567 -0.2890  0.6131
 3655SOL    MW414388   2.709   1.174   2.752 -0.0959 -0.1992  0.1346
 3656SOL     OW14389   4.495   6.435   1.611 -0.1023  0.2850 -0.3646
 3656SOL    HW214390   4.555   6.503   1.640 -0.3440 -0.3382  1.8109
 3656SOL    HW314391   4.412   6.480   1.597 -0.3379  0.4617  1.3378
 3656SOL    MW414392   4.492   6.450   1.613  0.1073 -0.0338 -0.2696
 3657SOL     OW14393   1.066   4.405   5.688  0.1957 -0.0283 -0.0058
 3657SOL    HW214394   1.005   4.361   5.629  0.3050 -0.6177  0.3196
 3657SOL    HW314395   1.134   4.340   5.705  0.3567  0.2637  0.4818
 3657SOL    MW414396   1.067   4.391   5.682 -0.1036  0.4978 -0.0910
 3658SOL     OW14397   0.128   4.758   2.064  0.6071  0.2442  0.4375
 3658SOL    HW214398   0.157   4.725   2.149  1.2584  0.8292  0.4501
 3658SOL    HW314399   0.207   4.796   2.025  0.4090 -0.3515 -0.5929
 3658SOL    MW414400   0.143   4.759   2.070  0.2641 -0.2170  0.1189
 3659SOL     OW14401   5.638   1.425   4.199 -0.6433  0.7523  0.2568
 3659SOL    HW214402   5.686   1.501   4.165 -2.1936  2.1143  0.9348
 3659SOL    HW314403   5.695   1.390   4.268  0.7678  0.3491 -1.0723
 3659SOL    MW414404   5.652   1.431   4.204 -0.1351 -0.0787 -0.9011
 3660SOL     OW14405   2.546   2.190   4.413 -0.3790  0.3340 -0.6200
 3660SOL    HW214406   2.468   2.189   4.469  1.0932 -0.3529  1.5110
 3660SOL    HW314407   2.552   2.281   4.383 -1.3326  0.6675  0.1377
 3660SOL    MW414408   2.536   2.202   4.416 -0.4676  0.5776 -0.2960
 3661SOL     OW14409   4.763   2.029   5.486  0.1060 -0.2158 -0.0901
 3661SOL    HW214410   4.847   2.033   5.532  0.5894  1.0022 -1.0324
 3661SOL    HW314411   4.700   2.068   5.546  0.7182  1.2880 -0.3903
 3661SOL    MW414412   4.766   2.034   5.500 -0.0995 -0.1022  0.5902
 3662SOL     OW14413   3.991   2.357   6.254  0.1803  0.4828  0.1552
 3662SOL    HW214414   3.906   2.324   6.282 -1.3795  4.0314  0.1350
 3662SOL    HW314415   3.994   2.339   6.160  0.2468 -1.0421  0.4111
 3662SOL    MW414416   3.980   2.350   6.245 -0.0772  0.0424  0.2080
 3663SOL     OW14417   5.648   2.333   1.300  0.6042  0.1954  0.7443
 3663SOL    HW214418   5.682   2.414   1.338  1.2775  0.1945  0.1699
 3663SOL    HW314419   5.594   2.362   1.226  3.1929  0.0931 -1.3370
 3663SOL    MW414420   5.646   2.348   1.295  0.1059 -0.5043 -0.4099
 3664SOL     OW14421   4.049   1.339   2.560 -0.0682 -0.2530 -0.1675
 3664SOL    HW214422   3.988   1.310   2.627 -0.0584 -0.9582 -0.4568
 3664SOL    HW314423   3.994   1.366   2.487 -0.0305 -1.7680 -0.7830
 3664SOL    MW414424   4.034   1.339   2.559 -0.3307  0.1679  0.1053
 3665SOL     OW14425   2.461   2.672   5.184 -0.6382  0.5561  0.2388
 3665SOL    HW214426   2.410   2.712   5.254 -1.1768  1.5903 -0.7104
 3665SOL    HW314427   2.400   2.666   5.110 -1.7767 -5.3021  1.1944
 3665SOL    MW414428   2.446   2.677   5.183 -0.1226  0.3009 -0.6211
 3666SOL     OW14429   5.884   3.869   3.336  0.1864  0.2187  0.3956
 3666SOL    HW214430   5.914   3.810   3.406 -2.0285 -2.3840 -0.6745
 3666SOL    HW314431   5.829   3.814   3.280 -0.9424  3.0445 -1.4914
 3666SOL    MW414432   5.881   3.854   3.338  0.0944 -0.0092  0.5135
 3667SOL     OW14433   2.249   1.033   3.272  0.1081  0.4632 -0.3492
 3667SOL    HW214434   2.287   0.984   3.345 -1.2877 -0.9794 -0.5470
 3667SOL    HW314435   2.320   1.091   3.244  2.0991 -1.8438 -0.4811
 3667SOL    MW414436   2.264   1.034   3.278  0.3398  0.3753  0.1652
 3668SOL     OW14437   0.033   4.785   5.161  0.4088  0.2040  0.8175
 3668SOL    HW214438   0.014   4.826   5.077 -0.3183 -1.3972  0.1648
 3668SOL    HW314439   0.048   4.859   5.221 -1.6646  1.4468 -0.0871
 3668SOL    MW414440   0.032   4.800   5.158  0.2392 -0.6712  0.6212
 3669SOL     OW14441   4.649   4.611   6.065  0.4529  0.5758  0.2784
 3669SOL    HW214442   4.584   4.668   6.105  1.1668  1.9278 -0.4245
 3669SOL    HW314443   4.731   4.632   6.110  0.7662  0.3023 -0.1472
 3669SOL    MW414444   4.651   4.621   6.076 -0.5309  0.1955 -0.0933
 3670SOL     OW14445   1.680   0.715   1.385 -0.1622  0.5615  0.0314
 3670SOL    HW214446   1.770   0.749   1.388 -1.2459  3.6556  0.9056
 3670SOL    HW314447   1.639   0.750   1.464 -2.6248  0.6862 -1.2363
 3670SOL    MW414448   1.687   0.724   1.396 -0.0886 -0.2263 -0.6027
 3671SOL     OW14449   4.068   3.316   3.753 -0.1049  0.1787 -0.6502
 3671SOL    HW214450   4.131   3.342   3.821  0.9160  0.9486 -1.8485
 3671SOL    HW314451   4.001   3.384   3.755 -0.3739 -0.0958 -0.0586
 3671SOL    MW414452   4.068   3.329   3.762  0.3569 -0.3327 -0.6005
 3672SOL     OW14453   4.815   4.031   5.242  0.7937 -0.2003  0.2255
 3672SOL    HW214454   4.725   4.024   5.271  0.5740 -0.7133 -0.5534
 3672SOL    HW314455   4.838   3.943   5.211  0.4731  0.6297 -2.6617
 3672SOL    MW414456   4.806   4.018   5.241 -0.0487  0.2073  0.4043
 3673SOL     OW14457   3.851   1.293   3.484  0.1632  0.5099  0.1589
 3673SOL    HW214458   3.878   1.385   3.481 -0.3178  0.7751  2.2951
 3673SOL    HW314459   3.925   1.245   3.445  0.9493  1.7055  0.1266
 3673SOL    MW414460   3.864   1.299   3.478 -0.2858 -0.5058  0.3464
 3674SOL     OW14461   4.221   0.697   4.587 -0.4425  0.1645  0.2948
 3674SOL    HW214462   4.313   0.687   4.611 -0.0987 -0.2456 -1.1043
 3674SOL    HW314463   4.223   0.730   4.498 -1.6684  1.3425  0.6651
 3674SOL    MW414464   4.233   0.700   4.579 -0.2385  0.0702  0.6888
 3675SOL     OW14465   6.034   6.330   4.518  0.2998  0.4161 -0.1949
 3675SOL    HW214466   6.092   6.371   4.581  0.3125 -0.2155  0.2159
 3675SOL    HW314467   5.961   6.391   4.509 -1.1991 -0.7445  2.6933
 3675SOL    MW414468   6.032   6.343   4.525 -0.0800  0.0514 -0.1509
 3676SOL     OW14469   1.534   1.531   2.401 -0.2480 -0.3430 -0.0195
 3676SOL    HW214470   1.465   1.467   2.420 -0.5399 -0.2023 -0.5638
 3676SOL    HW314471   1.607   1.506   2.457 -0.8556 -0.3072  0.8086
 3676SOL    MW414472   1.534   1.520   2.411 -0.7452  0.4150  0.2116
 3677SOL     OW14473   5.710   5.759   3.669 -0.4806  0.0532 -0.0713
 3677SOL    HW214474   5.615   5.755   3.658 -0.5912 -0.2229  0.8726
 3677SOL    HW314475   5.737   5.836   3.619 -1.2468  0.3297 -0.0750
 3677SOL    MW414476   5.701   5.769   3.661  0.0123  0.4768  0.1455
 3678SOL     OW14477   0.535   1.027   3.699  0.2984  0.2757  0.1304
 3678SOL    HW214478   0.578   0.976   3.630  0.4641 -0.2355  0.6065
 3678SOL    HW314479   0.442   1.012   3.686  0.4033 -2.3162  1.8735
 3678SOL    MW414480   0.529   1.019   3.688 -0.2463  0.1602  0.4103
 3679SOL     OW14481   3.697   4.736   0.715  0.1840  0.8271  0.3120
 3679SOL    HW214482   3.722   4.643   0.718  0.9461  0.9048 -1.6323
 3679SOL    HW314483   3.708   4.767   0.805  2.9476 -0.2575  0.4563
 3679SOL    MW414484   3.702   4.728   0.727 -0.0127  0.3994 -0.1397
 3680SOL     OW14485   1.173   5.538   4.522 -0.2734 -0.2380 -0.1716
 3680SOL    HW214486   1.253   5.502   4.483  0.1481 -1.5639  1.7526
 3680SOL    HW314487   1.204   5.615   4.571 -0.3566 -0.1225 -0.3005
 3680SOL    MW414488   1.188   5.543   4.523 -0.2281 -0.2596 -0.1341
 3681SOL     OW14489   5.761   4.735   1.012  0.4299 -0.0980  0.6389
 3681SOL    HW214490   5.755   4.796   0.939  0.6694  0.5611  1.1674
 3681SOL    HW314491   5.725   4.783   1.087  0.3831 -0.6902  1.0058
 3681SOL    MW414492   5.755   4.749   1.013  0.1963 -0.1133  0.6098
 3682SOL     OW14493   4.361   6.036   5.248  0.3232  0.1148 -0.0583
 3682SOL    HW214494   4.332   6.079   5.167  1.3316 -1.1230 -1.1215
 3682SOL    HW314495   4.395   5.951   5.219  4.0024  1.0009  1.1624
 3682SOL    MW414496   4.362   6.031   5.233 -0.1326 -0.1674  0.7268
 3683SOL     OW14497   0.697   6.273   4.221 -0.0377  0.0225 -0.0166
 3683SOL    HW214498   0.731   6.220   4.149  0.3800 -0.2078  0.3471
 3683SOL    HW314499   0.688   6.213   4.294 -1.0392  0.1295 -0.0380
 3683SOL    MW414500   0.701   6.258   4.221  0.3404 -0.1159  0.2406
 3684SOL     OW14501   6.381   1.835   4.368  0.0371 -0.0407 -0.1820
 3684SOL    HW214502   6.308   1.892   4.391  0.7397  0.9078 -0.2700
 3684SOL    HW314503   6.427   1.880   4.298  2.3782  0.8278  1.7684
 3684SOL    MW414504   6.378   1.848   4.362  0.4898 -0.2913 -0.6701
 3685SOL     OW14505   1.533   2.690   3.461  0.1545  0.3448 -0.3613
 3685SOL    HW214506   1.455   2.658   3.506 -0.4853 -0.0256 -1.6786
 3685SOL    HW314507   1.604   2.635   3.494 -0.3479 -0.1127 -0.0289
 3685SOL    MW414508   1.532   2.678   3.471  0.0859 -0.6572 -0.6836
 3686SOL     OW14509   6.236   6.350   3.293 -0.5979  0.3597  0.9324
 3686SOL    HW214510   6.194   6.371   3.210  1.1943  1.0184  0.1292
 3686SOL    HW314511   6.183   6.280   3.330 -1.5999  0.2416 -0.6358
 3686SOL    MW414512   6.224   6.344   3.287  0.0088 -0.1585  0.1222
 3687SOL     OW14513   3.948   1.289   1.131 -0.5379  0.1782 -0.1022
 3687SOL    HW214514   4.042   1.273   1.132 -0.7371 -1.5387 -1.6475
 3687SOL    HW314515   3.909   1.205   1.156 -1.6655  0.7083 -0.0124
 3687SOL    MW414516   3.955   1.276   1.134 -0.8336 -0.4558 -0.7370
 3688SOL     OW14517   3.539   3.131   1.291 -0.4512  0.0973  0.4397
 3688SOL    HW214518   3.466   3.190   1.304  0.0376  0.9049 -0.3376
 3688SOL    HW314519   3.504   3.061   1.236 -0.7224  0.3055  0.3456
 3688SOL    MW414520   3.525   3.130   1.285  0.1127 -0.4790 -0.2544
 3689SOL     OW14521   5.445   4.957   1.073 -0.2409 -0.3319  0.3286
 3689SOL    HW214522   5.515   4.975   1.009 -0.2081 -4.0227 -0.9036
 3689SOL    HW314523   5.485   4.896   1.136 -1.6715 -0.6227  1.0011
 3689SOL    MW414524   5.460   4.951   1.073 -0.4410  0.4945  0.3499
 3690SOL     OW14525   2.105   3.474   1.986 -0.0661  0.6567  0.2221
 3690SOL    HW214526   2.015   3.474   1.956 -0.1264  0.5681  0.4026
 3690SOL    HW314527   2.155   3.508   1.912 -0.4035  1.9993  0.5818
 3690SOL    MW414528   2.100   3.479   1.972 -0.0507 -0.1653 -0.0866
 3691SOL     OW14529   1.269   4.487   0.627 -0.8441  0.0897  0.4045
 3691SOL    HW214530   1.347   4.522   0.671  0.4681 -0.2704 -1.5392
 3691SOL    HW314531   1.301   4.410   0.579 -2.9250 -1.5879  1.5472
 3691SOL    MW414532   1.284   4.482   0.627 -0.4732  0.1116  0.1317
 3692SOL     OW14533   2.926   4.766   1.162  0.0849  0.5275  0.2030
 3692SOL    HW214534   2.939   4.752   1.069  1.3276  0.9493  0.2910
 3692SOL    HW314535   2.995   4.714   1.204 -1.0465 -0.4256  0.9486
 3692SOL    MW414536   2.937   4.757   1.155 -0.0111 -0.5864 -0.2734
 3693SOL     OW14537   0.350   6.132   4.189 -0.4231  0.5437 -0.0062
 3693SOL    HW214538   0.297   6.062   4.149 -0.3722 -1.4938  3.1389
 3693SOL    HW314539   0.338   6.207   4.131 -0.9235 -1.8720 -3.3172
 3693SOL    MW414540   0.341   6.133   4.176  0.2866 -0.0992 -0.2584
 3694SOL     OW14541   5.832   1.054   4.414 -0.2325  0.4992  0.8704
 3694SOL    HW214542   5.800   1.036   4.325 -0.8950  0.6973  1.0688
 3694SOL    HW314543   5.927   1.046   4.406 -0.3032  0.2112  0.2090
 3694SOL    MW414544   5.841   1.051   4.401  0.2594  0.1709 -0.9963
 3695SOL     OW14545   2.092   6.144   6.159  0.1817  0.1878 -0.2487
 3695SOL    HW214546   2.139   6.060   6.154 -1.4843 -0.8286  0.3902
 3695SOL    HW314547   2.020   6.128   6.220 -0.3361  2.0245 -0.3123
 3695SOL    MW414548   2.089   6.131   6.166  0.5356  0.3137 -0.0192
 3696SOL     OW14549   4.119   6.398   1.771  0.3940 -0.1790 -0.2110
 3696SOL    HW214550   4.117   6.369   1.862 -1.7473 -0.3660 -0.2530
 3696SOL    HW314551   4.066   6.333   1.724  1.6507 -0.2213 -1.6636
 3696SOL    MW414552   4.112   6.385   1.776  0.0385 -0.8563 -0.1401
 3697SOL     OW14553   4.122   5.069   5.050 -0.2379 -0.3980 -0.4512
 3697SOL    HW214554   4.090   5.153   5.018 -0.9180 -0.2839  0.4829
 3697SOL    HW314555   4.216   5.082   5.062 -0.4439  0.4785  0.3639
 3697SOL    MW414556   4.130   5.082   5.047  0.3469  0.0620 -0.5085
 3698SOL     OW14557   5.055   1.445   0.252  0.5640 -0.3435 -0.1188
 3698SOL    HW214558   5.048   1.478   0.341  0.9899 -0.6624  0.0370
 3698SOL    HW314559   5.055   1.523   0.197 -1.3037 -0.1808  0.0323
 3698SOL    MW414560   5.054   1.459   0.256 -0.0924 -0.4050 -0.2744
 3699SOL     OW14561   4.338   6.279   3.736 -0.0299  0.1337 -0.2794
 3699SOL    HW214562   4.272   6.214   3.714 -1.6289  0.8065  2.2050
 3699SOL    HW314563   4.310   6.358   3.690 -1.6159  0.6859  1.4994
 3699SOL    MW414564   4.326   6.281   3.727 -0.2941  0.1636  0.5621
 3700SOL     OW14565   1.936   0.806   3.117 -0.2522  0.0411  0.1041
 3700SOL    HW214566   1.980   0.726   3.145  0.7675  0.8758  0.9827
 3700SOL    HW314567   1.917   0.853   3.199 -0.7958  0.7178 -0.3968
 3700SOL    MW414568   1.939   0.802   3.132  0.4068 -0.1725 -0.1724
 3701SOL     OW14569   5.058   4.187   1.427  0.4840 -0.2174  0.6521
 3701SOL    HW214570   5.014   4.106   1.454  0.7906  0.0194  1.9316
 3701SOL    HW314571   5.042   4.248   1.498 -1.1371  1.4276 -1.0153
 3701SOL    MW414572   5.050   4.184   1.440 -0.4636 -0.5169 -0.3392
 3702SOL     OW14573   3.725   5.253   2.630  0.0700  0.3836 -0.2761
 3702SOL    HW214574   3.736   5.158   2.622 -0.9414  0.2586 -0.3036
 3702SOL    HW314575   3.636   5.264   2.663 -0.0881  1.3488 -0.9700
 3702SOL    MW414576   3.714   5.242   2.633  0.3413  0.1001 -0.4739
 3703SOL     OW14577   1.228   1.324   2.241 -0.3331  0.3509 -0.3444
 3703SOL    HW214578   1.190   1.412   2.249 -0.2419  0.4500 -1.0146
 3703SOL    HW314579   1.194   1.290   2.159  1.6483  0.7538 -1.3872
 3703SOL    MW414580   1.219   1.331   2.231  0.2234  0.0860  0.3301
 3704SOL     OW14581   0.839   1.635   6.173  0.6286  0.1570  0.1396
 3704SOL    HW214582   0.856   1.696   6.245  0.6861  1.1649 -0.6970
 3704SOL    HW314583   0.746   1.612   6.183 -0.3623  3.0156 -1.4065
 3704SOL    MW414584   0.829   1.640   6.184 -0.1026 -0.1095  0.3742
 3705SOL     OW14585   2.367   4.453   5.622 -0.2976  0.2888  0.1985
 3705SOL    HW214586   2.424   4.521   5.656 -0.2805 -0.1045  0.9838
 3705SOL    HW314587   2.325   4.416   5.699 -0.3772 -0.5213 -0.2179
 3705SOL    MW414588   2.369   4.457   5.637 -0.6133 -0.3640 -0.0103
 3706SOL     OW14589   1.090   3.407   4.156 -0.0575 -0.4673  0.3984
 3706SOL    HW214590   1.168   3.451   4.122  0.4356 -0.3773  1.5862
 3706SOL    HW314591   1.125   3.335   4.209 -0.7059  0.5266  2.2416
 3706SOL    MW414592   1.105   3.403   4.158 -0.3344 -0.3718 -0.2353
 3707SOL     OW14593   2.459   2.177   1.242  0.1077 -0.0115 -0.2141
 3707SOL    HW214594   2.493   2.091   1.217 -0.8908 -0.3240 -0.5602
 3707SOL    HW314595   2.458   2.176   1.337  0.3457 -0.2841 -0.2126
 3707SOL    MW414596   2.464   2.165   1.251  0.1968  0.3241 -0.1317
 3708SOL     OW14597   5.909   0.831   1.853 -0.1369 -0.1966  0.3066
 3708SOL    HW214598   5.866   0.911   1.883  1.4491  0.3073  1.3140
 3708SOL    HW314599   5.882   0.764   1.916  0.0121 -0.0374  0.5397
 3708SOL    MW414600   5.900   0.832   1.865  0.2539 -0.0766  0.0197
 3709SOL     OW14601   0.789   1.777   4.686 -0.4831  0.0761  0.0182
 3709SOL    HW214602   0.769   1.741   4.773 -0.5768  0.3746  0.1201
 3709SOL    HW314603   0.883   1.763   4.675 -0.4097  0.3474  0.3081
 3709SOL    MW414604   0.799   1.770   4.696 -0.3193  0.1665  0.1453
 3710SOL     OW14605   2.449   5.180   5.772  0.1674 -0.5317 -0.4140
 3710SOL    HW214606   2.535   5.196   5.811 -0.0585  0.1568 -0.1722
 3710SOL    HW314607   2.456   5.094   5.731  1.9175  0.6951 -2.9288
 3710SOL    MW414608   2.461   5.171   5.772  0.2886  0.4532 -0.4271
 3711SOL     OW14609   5.294   6.229   1.484 -0.0414  0.2476 -0.0231
 3711SOL    HW214610   5.238   6.152   1.481 -1.1861  0.6520  4.1485
 3711SOL    HW314611   5.237   6.302   1.459 -1.1559  0.4809  2.8517
 3711SOL    MW414612   5.279   6.229   1.480  0.5670  0.2258  0.2604
 3712SOL     OW14613   1.215   2.263   4.532  0.9772 -0.4743  0.4378
 3712SOL    HW214614   1.296   2.217   4.556  1.3653  0.7833  1.6340
 3712SOL    HW314615   1.151   2.232   4.596  0.4717 -1.4732 -0.5130
 3712SOL    MW414616   1.217   2.253   4.544  0.6049 -0.0150 -0.6857
 3713SOL     OW14617   0.729   0.868   3.567  0.0526  0.3215 -0.0526
 3713SOL    HW214618   0.671   0.792   3.577 -0.5272  0.6472 -0.7735
 3713SOL    HW314619   0.817   0.833   3.576 -0.2384 -0.2771  0.5532
 3713SOL    MW414620   0.733   0.854   3.570  0.1774  0.1627  0.0015
 3714SOL     OW14621   3.785   5.146   2.302  0.0943  0.1502 -0.3146
 3714SOL    HW214622   3.738   5.153   2.385 -0.2746  1.1579 -0.5912
 3714SOL    HW314623   3.717   5.128   2.237  0.4947 -1.6267 -0.2899
 3714SOL    MW414624   3.770   5.145   2.304 -0.4045 -0.1542  0.3919
 3715SOL     OW14625   1.781   5.866   3.428 -0.8742 -0.0322  0.5266
 3715SOL    HW214626   1.788   5.890   3.521  1.2381  1.3425  0.0835
 3715SOL    HW314627   1.796   5.772   3.427 -1.6339 -0.1817  1.6399
 3715SOL    MW414628   1.784   5.857   3.440 -0.0581 -0.0379  0.1568
 3716SOL     OW14629   2.627   5.571   2.634 -0.3754 -0.1494  0.3750
 3716SOL    HW214630   2.615   5.476   2.629  0.7594 -0.3681  1.3498
 3716SOL    HW314631   2.608   5.593   2.725 -0.3765  0.5207  0.2168
 3716SOL    MW414632   2.623   5.561   2.645  0.4635  0.6836 -0.4969
 3717SOL     OW14633   0.474   6.052   0.964 -0.5414  0.2809 -0.0819
 3717SOL    HW214634   0.418   5.977   0.941 -0.7572 -0.0108  1.3425
 3717SOL    HW314635   0.446   6.078   1.051  0.1199  1.4986 -0.2011
 3717SOL    MW414636   0.463   6.046   0.972  0.1022 -0.5519 -0.2654
 3718SOL     OW14637   5.561   1.696   0.378  0.3850 -0.3490 -0.4707
 3718SOL    HW214638   5.560   1.788   0.351  0.2037  0.4685  2.0686
 3718SOL    HW314639   5.476   1.682   0.419  1.6790 -0.5776  2.3124
 3718SOL    MW414640   5.550   1.706   0.380 -0.4375 -0.6378  0.0008
 3719SOL     OW14641   2.143   6.046   2.901 -0.4808 -0.1035  0.3648
 3719SOL    HW214642   2.209   6.092   2.849  0.7392 -1.1816  0.9267
 3719SOL    HW314643   2.126   6.105   2.975 -1.1210  0.7545 -0.4426
 3719SOL    MW414644   2.149   6.060   2.904  0.0912  0.2465 -0.8392
 3720SOL     OW14645   0.491   5.417   0.630  0.4083  0.0915 -0.5197
 3720SOL    HW214646   0.422   5.353   0.611 -0.3518  1.3331 -2.1923
 3720SOL    HW314647   0.459   5.465   0.706 -0.3958  0.3773 -1.0269
 3720SOL    MW414648   0.478   5.415   0.638 -0.5106  0.5201 -0.3746
 3721SOL     OW14649   1.690   4.562   5.532 -0.7421  0.1967  0.3871
 3721SOL    HW214650   1.614   4.600   5.577 -1.3141  1.8090 -1.7329
 3721SOL    HW314651   1.658   4.478   5.498 -0.8051 -0.2531  1.5120
 3721SOL    MW414652   1.676   4.556   5.533 -0.4199  0.2139 -0.1134
 3722SOL     OW14653   0.806   5.502   1.424  0.1772  0.3077 -0.1813
 3722SOL    HW214654   0.791   5.589   1.461 -0.0688 -0.0577  0.6144
 3722SOL    HW314655   0.749   5.445   1.476  0.8734 -0.4302 -0.2136
 3722SOL    MW414656   0.796   5.506   1.436  0.2804  0.5297  0.7416
 3723SOL     OW14657   5.634   0.613   6.064 -0.9102  0.0833  0.6845
 3723SOL    HW214658   5.571   0.545   6.041  0.0312 -1.1950  1.6803
 3723SOL    HW314659   5.717   0.566   6.073  0.5577  1.8878 -1.9364
 3723SOL    MW414660   5.637   0.598   6.062 -0.6045  0.9136 -0.4499
 3724SOL     OW14661   5.350   0.864   4.859  0.4236  0.5381  0.5557
 3724SOL    HW214662   5.373   0.957   4.865 -1.5746  0.9867  2.7730
 3724SOL    HW314663   5.342   0.836   4.950 -1.5270 -1.1187 -0.0697
 3724SOL    MW414664   5.352   0.873   4.872  0.0757  0.0214 -0.2202
 3725SOL     OW14665   1.945   2.470   1.052 -0.1170  0.0936  0.3721
 3725SOL    HW214666   1.947   2.544   0.991 -2.5386 -0.4104 -0.4354
 3725SOL    HW314667   1.940   2.510   1.138  2.6360  0.8149  0.2992
 3725SOL    MW414668   1.945   2.485   1.055  0.5310  0.1077  0.3107
 3726SOL     OW14669   2.481   2.147   5.004  0.3150 -0.3309  0.3193
 3726SOL    HW214670   2.460   2.086   4.933  1.3119 -1.3544  0.8685
 3726SOL    HW314671   2.568   2.180   4.982  0.8368 -1.0082  1.2699
 3726SOL    MW414672   2.490   2.143   4.992 -0.7492 -0.0709  0.2285
 3727SOL     OW14673   1.802   1.445   6.281  0.1496  0.0230  0.6242
 3727SOL    HW214674   1.789   1.410   6.369  1.0914 -2.8697 -0.2794
 3727SOL    HW314675   1.893   1.424   6.260  0.4953  2.2848 -0.4158
 3727SOL    MW414676   1.812   1.438   6.290  0.5183  0.0862  0.3966
 3728SOL     OW14677   1.824   3.460   1.930  0.0894 -0.1487  0.1603
 3728SOL    HW214678   1.815   3.383   1.987 -0.3638 -0.6937 -0.6234
 3728SOL    HW314679   1.761   3.445   1.860 -0.1594  1.0594  0.1099
 3728SOL    MW414680   1.815   3.448   1.928 -0.5795  0.5547 -0.2237
 3729SOL     OW14681   6.132   4.794   0.489 -0.1048  0.5105  0.3705
 3729SOL    HW214682   6.222   4.811   0.463 -0.3327  1.1050 -0.0704
 3729SOL    HW314683   6.090   4.760   0.410 -0.0236 -0.7715  0.8523
 3729SOL    MW414684   6.138   4.792   0.476 -0.7016 -0.0782  0.9145
 3730SOL     OW14685   0.581   3.093   1.161 -0.1820  0.3219 -0.0247
 3730SOL    HW214686   0.524   3.063   1.091 -0.2668 -0.5331  0.4010
 3730SOL    HW314687   0.650   3.142   1.116 -0.6001  0.3595 -0.6384
 3730SOL    MW414688   0.583   3.095   1.146  0.3010  0.5540  0.6736
 3731SOL     OW14689   2.026   2.034   4.065  0.2623 -0.0476  0.2680
 3731SOL    HW214690   1.931   2.035   4.057  0.2978  0.8908 -0.1521
 3731SOL    HW314691   2.044   1.960   4.123 -0.8231  0.6477  1.5573
 3731SOL    MW414692   2.016   2.024   4.072  0.1429  0.1933 -0.1710
 3732SOL     OW14693   1.661   1.049   2.970  0.1931  0.9065  0.3580
 3732SOL    HW214694   1.573   1.059   2.933 -0.5578  0.3915  1.9247
 3732SOL    HW314695   1.648   1.058   3.064  2.1110  2.6515  0.5207
 3732SOL    MW414696   1.647   1.051   2.978  0.1155  0.3328  0.1524
 3733SOL     OW14697   0.098   1.062   6.132  0.4655  0.4490 -0.2827
 3733SOL    HW214698   0.149   1.054   6.051  0.2096  0.1570 -0.4173
 3733SOL    HW314699   0.158   1.034   6.201  0.7996  1.0339 -0.3294
 3733SOL    MW414700   0.113   1.057   6.131 -0.4290  0.2692 -0.1482
 3734SOL     OW14701   3.659   1.331   2.890  0.7078  0.3303 -0.0750
 3734SOL    HW214702   3.597   1.265   2.859  0.8354  0.2289 -0.1174
 3734SOL    HW314703   3.703   1.289   2.964  0.4980  0.5220  0.1603
 3734SOL    MW414704   3.657   1.316   2.896  0.0946 -0.0817 -0.0001
 3735SOL     OW14705   3.514   6.229   0.035 -0.5429 -0.5236  0.3453
 3735SOL    HW214706   3.549   6.239   0.124  0.2421 -1.1756  0.1281
 3735SOL    HW314707   3.574   6.167  -0.007 -1.2880 -0.7354 -0.4330
 3735SOL    MW414708   3.527   6.222   0.041 -0.6940  0.2330 -0.3318
 3736SOL     OW14709   2.136   3.886   5.003  0.1251  0.2003  0.3368
 3736SOL    HW214710   2.084   3.945   5.058  0.4647 -0.2343  1.1500
 3736SOL    HW314711   2.135   3.803   5.051 -0.4339 -0.4887 -0.8337
 3736SOL    MW414712   2.129   3.883   5.017 -0.0041  0.1090  0.0258
 3737SOL     OW14713   2.755   4.890   1.816  0.2921  0.4793 -0.1820
 3737SOL    HW214714   2.761   4.896   1.721  1.9976  0.2290 -0.1193
 3737SOL    HW314715   2.693   4.959   1.841  0.0358  0.7266 -1.4380
 3737SOL    MW414716   2.748   4.900   1.807 -0.1753  0.1444 -0.2935
 3738SOL     OW14717   1.026   4.906   4.892 -0.2553  0.0252 -0.3308
 3738SOL    HW214718   0.956   4.905   4.957 -1.1840  1.6160 -1.2435
 3738SOL    HW314719   1.059   4.996   4.893  0.8662 -0.3508 -0.8974
 3738SOL    MW414720   1.021   4.918   4.901  0.0654  0.0855 -0.8878
 3739SOL     OW14721   2.115   1.479   0.536  0.8278  0.8085  0.1296
 3739SOL    HW214722   2.049   1.442   0.595  0.1495  2.3308  0.3765
 3739SOL    HW314723   2.074   1.474   0.449  0.5371  1.3514  0.2253
 3739SOL    MW414724   2.101   1.474   0.532  0.1497 -0.7767  1.0096
 3740SOL     OW14725   0.884   4.989   5.653 -0.2875 -0.4299 -0.2396
 3740SOL    HW214726   0.856   5.036   5.732  0.4836 -2.2993  1.2187
 3740SOL    HW314727   0.866   5.050   5.582 -0.9520  1.3692  1.3699
 3740SOL    MW414728   0.878   5.003   5.654  0.5409 -0.2784  0.6332
 3741SOL     OW14729   4.728   1.159   3.969 -0.0566  0.0050  0.0323
 3741SOL    HW214730   4.729   1.235   3.911 -0.5402  1.5235  1.9073
 3741SOL    HW314731   4.802   1.173   4.028 -1.4640  0.2050  1.8165
 3741SOL    MW414732   4.738   1.171   3.969 -0.0990 -0.8501 -0.5752
 3742SOL     OW14733   3.764   5.908   2.294  0.4793 -0.1495 -0.3215
 3742SOL    HW214734   3.778   5.989   2.342  0.0029  0.4887 -1.2247
 3742SOL    HW314735   3.833   5.849   2.325 -0.6455 -0.2511  2.1435
 3742SOL    MW414736   3.775   5.911   2.304  0.2590 -0.4732  0.1161
 3743SOL     OW14737   5.591   1.968   0.491 -0.1915  0.0951 -0.4866
 3743SOL    HW214738   5.530   2.041   0.482 -0.2916 -0.1603 -2.2307
 3743SOL    HW314739   5.559   1.919   0.566  0.1112  2.0264  0.9817
 3743SOL    MW414740   5.579   1.971   0.499  0.4442 -0.4431 -0.4961
 3744SOL     OW14741   1.042   5.463   1.275 -0.6702 -0.1663  1.0096
 3744SOL    HW214742   1.012   5.466   1.184  0.0403 -0.4602  0.7531
 3744SOL    HW314743   0.964   5.478   1.327 -0.7853  1.9713  0.3209
 3744SOL    MW414744   1.028   5.466   1.270 -0.3164  0.3119 -0.1593
 3745SOL     OW14745   4.712   5.534   1.468 -0.2613  0.1406  0.3549
 3745SOL    HW214746   4.739   5.595   1.536 -0.7437  1.3348 -0.4965
 3745SOL    HW314747   4.747   5.570   1.387 -2.2427  0.4111 -0.4493
 3745SOL    MW414748   4.720   5.546   1.467 -0.1658  0.8115 -0.0724
 3746SOL     OW14749   1.433   5.235   1.655  0.0106  0.0216 -0.8060
 3746SOL    HW214750   1.497   5.189   1.600  2.3976  2.8235 -0.6330
 3746SOL    HW314751   1.351   5.188   1.641  2.0356 -3.8424 -1.0098
 3746SOL    MW414752   1.431   5.223   1.646  0.0852 -0.2116  0.1779
 3747SOL     OW14753   5.641   5.052   0.886  0.5820  0.4018 -0.2601
 3747SOL    HW214754   5.573   5.081   0.826 -0.7310  0.4827  1.1966
 3747SOL    HW314755   5.697   5.128   0.899  1.4003  0.1446 -1.9921
 3747SOL    MW414756   5.639   5.066   0.880 -0.1663 -0.4680  0.2617
 3748SOL     OW14757   3.886   3.546   3.179 -0.5116  0.0016  0.0696
 3748SOL    HW214758   3.958   3.492   3.147 -0.8353  0.4644 -1.5319
 3748SOL    HW314759   3.925   3.600   3.248  0.2714 -0.8858  0.3344
 3748SOL    MW414760   3.901   3.546   3.184 -0.2836  0.3265 -0.1417
 3749SOL     OW14761   1.395   1.401   3.870  0.4160 -0.9278  0.5184
 3749SOL    HW214762   1.342   1.329   3.836 -0.6802  0.9972 -2.2522
 3749SOL    HW314763   1.473   1.403   3.814  0.3393  0.1420  0.4248
 3749SOL    MW414764   1.399   1.392   3.858  0.1285  0.8396 -0.3691
 3750SOL     OW14765   5.327   4.734   5.466  0.0360 -0.3750 -0.7023
 3750SOL    HW214766   5.333   4.644   5.435  1.4506 -0.3931 -0.4534
 3750SOL    HW314767   5.334   4.727   5.561  1.2074  0.0367 -0.7356
 3750SOL    MW414768   5.329   4.721   5.474 -0.0273 -0.7000  0.5117
 3751SOL     OW14769   4.644   5.381   3.586 -0.5427  0.1358 -0.0374
 3751SOL    HW214770   4.647   5.417   3.498  0.6150  0.4210  0.1106
 3751SOL    HW314771   4.720   5.418   3.631  0.1955 -1.7897  0.3893
 3751SOL    MW414772   4.654   5.391   3.581 -0.7408  0.3747 -0.1919
 3752SOL     OW14773   2.497   4.410   3.932 -0.0194 -0.2216 -0.2693
 3752SOL    HW214774   2.510   4.343   3.865 -1.1743  0.0555 -0.8026
 3752SOL    HW314775   2.507   4.493   3.886 -2.1821 -0.0052 -0.4573
 3752SOL    MW414776   2.500   4.412   3.917  0.5035  0.4270  0.0301
 3753SOL     OW14777   4.196   5.559   1.782 -0.4105  0.0296  0.4288
 3753SOL    HW214778   4.155   5.577   1.866 -0.2397 -0.3399  0.5939
 3753SOL    HW314779   4.282   5.523   1.805 -0.6935 -0.8655  0.1040
 3753SOL    MW414780   4.202   5.557   1.796  0.4404  0.4198 -0.1816
 3754SOL     OW14781   4.159   3.232   2.868 -0.2231  0.0645 -0.3268
 3754SOL    HW214782   4.208   3.152   2.884 -0.4794  0.3562  2.4353
 3754SOL    HW314783   4.222   3.303   2.885 -0.6594  0.4464 -0.2672
 3754SOL    MW414784   4.173   3.231   2.872 -0.2181  0.0164 -0.3431
 3755SOL     OW14785   3.701   1.714   4.877 -0.2623 -0.3827  0.2834
 3755SOL    HW214786   3.661   1.748   4.957  1.3290  2.0931  0.1366
 3755SOL    HW314787   3.716   1.792   4.823  2.4081 -1.4859 -0.6976
 3755SOL    MW414788   3.697   1.729   4.880  0.1020 -0.3900  0.1872
 3756SOL     OW14789   4.827   0.154   6.419 -0.3443 -0.4166  0.2065
 3756SOL    HW214790   4.897   0.213   6.446  0.5692 -1.3930  0.0501
 3756SOL    HW314791   4.805   0.182   6.330 -1.1774  0.8080  0.7777
 3756SOL    MW414792   4.834   0.165   6.411  0.1300 -0.6571  0.1150
 3757SOL     OW14793   1.903   3.962   4.128  0.3419 -0.0961  0.0848
 3757SOL    HW214794   1.818   3.919   4.121 -0.3664  0.9910  1.4028
 3757SOL    HW314795   1.906   4.024   4.055  0.2829 -0.5906 -0.3376
 3757SOL    MW414796   1.893   3.964   4.118 -0.5421  0.2620 -0.4485
 3758SOL     OW14797   1.465   5.444   1.891 -0.1543 -0.1536 -0.0652
 3758SOL    HW214798   1.446   5.537   1.878  1.5520  0.5102  1.6187
 3758SOL    HW314799   1.435   5.402   1.810 -1.8685  1.6875 -0.4745
 3758SOL    MW414800   1.459   5.451   1.878 -0.1748 -0.0147  0.2690
 3759SOL     OW14801   0.015   3.159   4.922  0.7085  0.3988  0.0787
 3759SOL    HW214802   0.088   3.220   4.912  1.7165 -0.7266  0.3939
 3759SOL    HW314803  -0.053   3.194   4.865  2.2495  0.3198 -1.9315
 3759SOL    MW414804   0.016   3.172   4.913 -0.2059  0.4163  0.0773
 3760SOL     OW14805   3.530   3.075   1.574 -0.2716 -0.1110 -0.6116
 3760SOL    HW214806   3.534   3.081   1.479 -0.4406  1.0970 -0.5532
 3760SOL    HW314807   3.575   2.992   1.595  1.7556  0.6741 -1.6007
 3760SOL    MW414808   3.537   3.065   1.565  0.4754 -0.0419  0.0677
 3761SOL     OW14809   4.276   1.438   6.242  0.2388 -0.4515  0.7963
 3761SOL    HW214810   4.340   1.440   6.313  0.0182  0.1483  0.9878
 3761SOL    HW314811   4.291   1.520   6.194  0.3889 -0.8528  0.1464
 3761SOL    MW414812   4.286   1.449   6.245  0.2193 -0.2500 -0.1887
 3762SOL     OW14813   0.406   2.482   4.187 -0.1713  0.1110  0.2826
 3762SOL    HW214814   0.476   2.447   4.243 -1.1176  0.5924  1.8270
 3762SOL    HW314815   0.450   2.504   4.105  1.8598  1.8490  1.7050
 3762SOL    MW414816   0.421   2.480   4.184  0.3204 -0.6786 -0.0977
 3763SOL     OW14817   0.486   0.233   5.721  0.1116 -0.0594  0.6220
 3763SOL    HW214818   0.397   0.200   5.733  0.2254 -0.8433 -0.5072
 3763SOL    HW314819   0.518   0.186   5.644  0.2813  2.6875 -1.1319
 3763SOL    MW414820   0.478   0.223   5.713  0.4359 -0.1219 -0.2199
 3764SOL     OW14821   1.683   1.027   6.056 -0.2291 -0.1319 -0.2848
 3764SOL    HW214822   1.681   0.934   6.077 -2.0900 -0.4267 -1.4456
 3764SOL    HW314823   1.768   1.042   6.015 -0.2942 -1.5767 -1.0077
 3764SOL    MW414824   1.694   1.017   6.053 -0.4080 -0.5127  0.3143
 3765SOL     OW14825   3.751   6.327   2.019 -0.0606 -0.9138 -0.1936
 3765SOL    HW214826   3.796   6.395   1.969  1.3776 -1.1202  0.7586
 3765SOL    HW314827   3.661   6.330   1.988  0.2513  0.5872 -1.0413
 3765SOL    MW414828   3.745   6.336   2.008 -0.3255 -0.1499 -0.3293
 3766SOL     OW14829   5.713   0.092   0.056 -0.3311 -0.3454  0.2028
 3766SOL    HW214830   5.684   0.078   0.146 -1.0229 -1.7145 -0.1898
 3766SOL    HW314831   5.770   0.017   0.038  1.1633  0.7947  0.0155
 3766SOL    MW414832   5.716   0.080   0.065 -0.2998 -0.0708  0.4791
 3767SOL     OW14833   3.093   1.395   0.852  0.0541 -0.2647 -0.2393
 3767SOL    HW214834   3.030   1.455   0.892 -0.9959 -2.1048  1.0592
 3767SOL    HW314835   3.077   1.402   0.758 -1.3523  0.0892  0.0053
 3767SOL    MW414836   3.083   1.404   0.845 -0.3778  0.2955  0.1655
 3768SOL     OW14837   0.717   0.944   3.109  0.4964 -0.6292  0.2188
 3768SOL    HW214838   0.808   0.962   3.087 -0.2745  1.9069 -1.2662
 3768SOL    HW314839   0.700   0.997   3.186 -0.2963  0.8386 -0.9088
 3768SOL    MW414840   0.727   0.953   3.116  0.0100  0.2990  0.1631
 3769SOL     OW14841   2.409   1.348   1.450  0.9242  0.4532 -0.2032
 3769SOL    HW214842   2.477   1.371   1.513  0.1784  0.8863  0.4679
 3769SOL    HW314843   2.380   1.261   1.476  0.2853  0.8259  0.3650
 3769SOL    MW414844   2.414   1.339   1.462 -0.1000 -0.3626 -0.1617
 3770SOL     OW14845   5.501   1.911   1.149 -0.3854  0.2742  0.4883
 3770SOL    HW214846   5.573   1.965   1.118 -0.9557 -0.2170 -1.8445
 3770SOL    HW314847   5.537   1.822   1.149 -1.0569 -0.0238 -1.0565
 3770SOL    MW414848   5.515   1.906   1.145  0.0744  0.7343  0.7070
 3771SOL     OW14849   5.135   3.690   5.318  0.2385 -0.4268  0.1191
 3771SOL    HW214850   5.119   3.714   5.409  0.4364  1.4547 -0.3076
 3771SOL    HW314851   5.054   3.713   5.272  1.5995  3.0123 -0.9109
 3771SOL    MW414852   5.122   3.696   5.324 -0.3836  0.2898  0.0762
 3772SOL     OW14853   2.351   5.160   0.478 -0.0103 -0.1714 -0.6804
 3772SOL    HW214854   2.346   5.256   0.469  0.9166 -0.0657 -0.1471
 3772SOL    HW314855   2.285   5.127   0.417  0.4747  0.7654 -1.7402
 3772SOL    MW414856   2.341   5.169   0.469 -0.1842 -0.4738  0.1025
 3773SOL     OW14857   0.900   5.982   2.084  0.4521 -0.3757 -0.3709
 3773SOL    HW214858   0.878   5.933   2.163 -0.3585 -0.3845 -0.5923
 3773SOL    HW314859   0.868   5.928   2.012 -0.8717  0.6602 -0.6002
 3773SOL    MW414860   0.893   5.968   2.085 -0.1235 -0.9668  0.3300
 3774SOL     OW14861   3.961   1.518   3.372  0.5036 -0.1072  0.2971
 3774SOL    HW214862   3.954   1.503   3.277 -0.9324 -0.9309  0.5235
 3774SOL    HW314863   4.055   1.535   3.385  0.5345  1.5108 -1.4726
 3774SOL    MW414864   3.973   1.518   3.361  0.1149 -0.2503  0.2471
 3775SOL     OW14865   2.091   2.909   5.225 -0.0756  0.1308 -0.3119
 3775SOL    HW214866   2.161   2.859   5.269 -0.0193  1.0755  0.7130
 3775SOL    HW314867   2.024   2.843   5.205  1.0795 -0.7868 -1.2943
 3775SOL    MW414868   2.091   2.893   5.228  0.2212 -0.3123 -0.0612
 3776SOL     OW14869   2.212   2.398   4.456  0.0371 -0.1335  0.3676
 3776SOL    HW214870   2.121   2.428   4.465 -0.4384 -0.5502 -2.2575
 3776SOL    HW314871   2.264   2.477   4.466 -0.5071  0.0122  2.5665
 3776SOL    MW414872   2.207   2.412   4.459  0.2600 -0.6881 -0.6692
 3777SOL     OW14873   2.461   4.559   5.234  0.3090 -0.3878 -0.1157
 3777SOL    HW214874   2.419   4.543   5.318  0.3935  1.0734  0.2192
 3777SOL    HW314875   2.521   4.485   5.223 -1.0911 -1.6144  0.1686
 3777SOL    MW414876   2.464   4.547   5.243 -0.0373 -0.0621 -0.2898
 3778SOL     OW14877   2.202   3.742   4.704 -0.2817  0.1460 -0.3933
 3778SOL    HW214878   2.172   3.776   4.789  0.3552 -1.4516  0.5217
 3778SOL    HW314879   2.290   3.780   4.694 -0.1114 -0.1345 -0.0209
 3778SOL    MW414880   2.210   3.752   4.714  0.0245  0.3394  0.5033
 3779SOL     OW14881   6.134   2.534   4.580  0.9209  0.0328  0.1729
 3779SOL    HW214882   6.223   2.514   4.608  2.3240  3.0657 -1.5763
 3779SOL    HW314883   6.123   2.489   4.496 -0.1002 -2.0577  1.3357
 3779SOL    MW414884   6.144   2.526   4.572 -0.3633 -0.1566  0.3758
 3780SOL     OW14885   1.162   3.796   1.286 -0.4426 -0.0666  0.0693
 3780SOL    HW214886   1.097   3.847   1.237 -0.5657 -0.8604 -0.6223
 3780SOL    HW314887   1.193   3.855   1.354  0.0272  1.2166 -1.2162
 3780SOL    MW414888   1.158   3.810   1.289  0.0992 -0.4975  0.1416
 3781SOL     OW14889   5.019   5.822   4.920  0.2198  0.3504 -0.4235
 3781SOL    HW214890   4.932   5.840   4.885 -0.0813 -0.5420 -0.1510
 3781SOL    HW314891   5.077   5.830   4.844 -0.2570 -0.2274 -0.8545
 3781SOL    MW414892   5.015   5.825   4.905  0.4473 -0.1474 -0.6858
 3782SOL     OW14893   1.862   0.684   1.719 -0.7108 -0.3674 -0.1085
 3782SOL    HW214894   1.895   0.678   1.629  0.5018  0.8397  0.2320
 3782SOL    HW314895   1.771   0.709   1.709  0.0427  2.3504 -1.0200
 3782SOL    MW414896   1.855   0.687   1.706  0.1309  0.0176 -0.0553
 3783SOL     OW14897   4.731   0.299   5.012  0.4374 -0.1770  0.5193
 3783SOL    HW214898   4.781   0.380   5.010 -1.0808  0.8175 -1.4107
 3783SOL    HW314899   4.640   0.328   5.018 -0.0833 -1.7818  0.7977
 3783SOL    MW414900   4.725   0.313   5.012 -0.0594  0.1112  0.0278
 3784SOL     OW14901   3.316   0.727   1.838  0.3381 -0.4719 -0.1063
 3784SOL    HW214902   3.314   0.779   1.918  0.7212 -1.1177  0.3366
 3784SOL    HW314903   3.350   0.786   1.771 -1.5306  0.5875 -0.1940
 3784SOL    MW414904   3.320   0.741   1.840 -0.2257 -0.1581  0.2807
 3785SOL     OW14905   3.449   1.085   5.648  0.3193 -0.2634  0.4362
 3785SOL    HW214906   3.410   1.107   5.732  0.1049 -1.2594  0.6008
 3785SOL    HW314907   3.388   1.023   5.608 -0.0058  0.8195 -0.8303
 3785SOL    MW414908   3.436   1.080   5.654 -0.1262  0.2992  0.2377
 3786SOL     OW14909   3.706   6.264   1.375 -0.2721 -0.7086  0.2159
 3786SOL    HW214910   3.676   6.354   1.372  1.0530 -0.1974  1.2274
 3786SOL    HW314911   3.670   6.223   1.296  1.4878  1.4674 -1.8346
 3786SOL    MW414912   3.697   6.270   1.364 -0.1826  0.0129 -0.1881
 3787SOL     OW14913   6.071   4.539   4.510  0.1925 -0.0893 -0.1011
 3787SOL    HW214914   6.049   4.449   4.534 -1.7907  0.8241  1.8724
 3787SOL    HW314915   6.015   4.558   4.434  0.9014 -0.6213 -0.7662
 3787SOL    MW414916   6.061   4.530   4.503 -0.2787  0.2153  0.3523
 3788SOL     OW14917   0.213   5.566   1.994 -0.5571 -0.4431  0.6471
 3788SOL    HW214918   0.235   5.498   1.931 -1.3273  0.8945 -1.1673
 3788SOL    HW314919   0.123   5.591   1.973 -0.7901  0.1680  2.1914
 3788SOL    MW414920   0.204   5.561   1.983 -0.6797  0.3821 -0.1808
 3789SOL     OW14921   5.672   2.354   4.135 -0.6797  0.0591 -0.4299
 3789SOL    HW214922   5.624   2.430   4.169 -0.0181 -0.1393  1.0216
 3789SOL    HW314923   5.701   2.308   4.214  0.5362 -0.6816 -1.2933
 3789SOL    MW414924   5.669   2.358   4.150  0.0364 -0.3377 -0.3121
 3790SOL     OW14925   6.002   3.766   5.365 -0.3353  0.3518  0.8118
 3790SOL    HW214926   5.973   3.677   5.385  1.2230 -0.1496  0.9586
 3790SOL    HW314927   5.990   3.815   5.446  0.7015 -0.2635  1.3630
 3790SOL    MW414928   5.997   3.761   5.378 -0.1894  0.3510 -0.1823
 3791SOL     OW14929   0.509   4.459   5.642  0.3259  0.2586 -0.2553
 3791SOL    HW214930   0.582   4.402   5.667  0.6230  0.5517 -0.4538
 3791SOL    HW314931   0.534   4.495   5.557 -0.3734 -0.1985 -0.6619
 3791SOL    MW414932   0.522   4.456   5.634  0.3388 -0.1765 -0.4445
 3792SOL     OW14933   2.685   5.779   1.504 -0.5549 -0.4912  0.0720
 3792SOL    HW214934   2.710   5.705   1.560  0.2646 -0.4640 -0.2384
 3792SOL    HW314935   2.592   5.791   1.520 -0.3619 -0.5661  1.3351
 3792SOL    MW414936   2.676   5.771   1.513  0.6824  0.4031 -0.1518
 3793SOL     OW14937   4.575   3.967   1.541  0.1335 -0.6797  0.5053
 3793SOL    HW214938   4.662   3.944   1.508  0.4760 -1.0434  1.6278
 3793SOL    HW314939   4.587   3.978   1.635 -1.4878 -3.2420  1.1019
 3793SOL    MW414940   4.588   3.965   1.549 -0.2031  0.3762 -0.1910
 3794SOL     OW14941   2.800   4.159   5.314 -0.5282  0.2604 -0.1545
 3794SOL    HW214942   2.802   4.241   5.365  0.2812  0.1219  0.0428
 3794SOL    HW314943   2.884   4.156   5.269 -0.4915 -0.5395 -0.0483
 3794SOL    MW414944   2.811   4.170   5.315  0.5216 -0.1007  0.0114
 3795SOL     OW14945   0.598   3.692   0.241  0.2910 -0.4815 -0.0101
 3795SOL    HW214946   0.582   3.749   0.317  0.1139 -1.3315  0.6067
 3795SOL    HW314947   0.533   3.718   0.176 -0.0414 -0.2415  0.4165
 3795SOL    MW414948   0.588   3.703   0.243  0.1977  0.5113 -0.6880
 3796SOL     OW14949   0.449   2.047   3.702 -0.8017 -0.4851 -0.6193
 3796SOL    HW214950   0.476   1.975   3.646 -0.5865 -0.2680 -0.7940
 3796SOL    HW314951   0.371   2.014   3.747 -0.1030 -1.2220  0.0979
 3796SOL    MW414952   0.442   2.033   3.701  0.6466 -0.3812  0.3357
 3797SOL     OW14953   4.962   1.180   0.160 -0.1503  0.7028 -0.8870
 3797SOL    HW214954   5.000   1.188   0.072  0.9728  0.0179 -0.4913
 3797SOL    HW314955   4.993   1.258   0.207 -0.9244  1.1756 -1.1575
 3797SOL    MW414956   4.971   1.191   0.154  0.8757 -0.8458  0.2248
 3798SOL     OW14957   5.065   5.554   0.293 -0.5494  0.6154  0.0711
 3798SOL    HW214958   5.082   5.505   0.374 -0.1453  1.0228  0.2339
 3798SOL    HW314959   5.121   5.631   0.299 -0.0769  0.3586 -0.8718
 3798SOL    MW414960   5.075   5.557   0.305 -0.4828  0.0066  0.0896
 3799SOL     OW14961   1.548   1.383   6.129  0.1036 -0.8248 -0.3149
 3799SOL    HW214962   1.614   1.369   6.198 -0.2139 -0.3297  0.0948
 3799SOL    HW314963   1.579   1.330   6.056  0.5804 -1.1666  0.1226
 3799SOL    MW414964   1.561   1.374   6.129  1.1844  0.6104 -0.6351
 3800SOL     OW14965   6.144   5.997   6.423 -0.0140 -0.2547  0.0700
 3800SOL    HW214966   6.158   5.916   6.471  1.6945  0.4205  0.7874
 3800SOL    HW314967   6.104   6.056   6.487  1.0179  0.2179  0.3066
 3800SOL    MW414968   6.140   5.994   6.438  0.5857 -0.6751  0.2054
 3801SOL     OW14969  -0.006   3.613   3.202  0.2191 -0.4121 -0.3458
 3801SOL    HW214970   0.061   3.584   3.263 -1.1429  1.2352  2.1592
 3801SOL    HW314971   0.028   3.696   3.167 -0.1701  0.1007  0.4422
 3801SOL    MW414972   0.007   3.620   3.206  0.6804 -0.0481 -0.6109
 3802SOL     OW14973   0.202   2.046   3.882  0.3999  0.0919  0.7922
 3802SOL    HW214974   0.245   2.112   3.936  0.7411  1.0811 -0.6160
 3802SOL    HW314975   0.156   2.097   3.815 -0.1387 -1.0850  0.2375
 3802SOL    MW414976   0.201   2.061   3.880  0.7004  0.1133  0.5021
 3803SOL     OW14977   0.888   4.252   3.507 -0.1679  0.1687  0.2478
 3803SOL    HW214978   0.838   4.247   3.588 -0.9509  0.4144 -0.2071
 3803SOL    HW314979   0.954   4.320   3.524  0.4811 -0.6497  1.0909
 3803SOL    MW414980   0.890   4.261   3.520  0.7852 -0.3238 -0.4564
 3804SOL     OW14981   2.359   5.128   2.709  0.2099 -0.5402 -0.1763
 3804SOL    HW214982   2.438   5.077   2.694  0.2864 -0.0668 -1.5936
 3804SOL    HW314983   2.338   5.165   2.623  0.9413  2.9488  0.9817
 3804SOL    MW414984   2.367   5.126   2.695 -0.1349 -0.5357 -0.2194
 3805SOL     OW14985   1.097   5.301   2.638  0.1460 -0.2953 -0.4339
 3805SOL    HW214986   1.123   5.209   2.647  0.1417 -0.3284 -0.7362
 3805SOL    HW314987   1.163   5.349   2.688 -0.3866 -0.5274  0.5061
 3805SOL    MW414988   1.109   5.295   2.646  0.0403 -0.6784  0.0214
 3806SOL     OW14989   1.426   2.690   5.431  0.1932 -0.3889  0.1503
 3806SOL    HW214990   1.513   2.724   5.407  0.3458 -1.3387 -0.6829
 3806SOL    HW314991   1.392   2.755   5.493  0.2270  1.5974 -1.7761
 3806SOL    MW414992   1.433   2.703   5.436 -0.2721 -0.3276  0.3653
 3807SOL     OW14993   3.412   4.072   1.272 -0.0827 -0.5433 -0.3798
 3807SOL    HW214994   3.450   4.015   1.205  1.5545 -0.9209  0.8208
 3807SOL    HW314995   3.406   4.017   1.350  0.8737  0.7141  0.6140
 3807SOL    MW414996   3.416   4.057   1.273  0.4413  0.0430  0.1588
 3808SOL     OW14997   1.345   5.726   5.076  0.2373 -0.1773  0.1303
 3808SOL    HW214998   1.306   5.669   5.010  0.6106  0.3645 -0.5799
 3808SOL    HW314999   1.304   5.811   5.061  0.8576  0.1261  0.1172
 3808SOL    MW415000   1.335   5.730   5.065  0.2025  0.1306  0.5581
 3809SOL     OW15001   1.744   2.398   4.785  0.6128  0.3469 -0.0770
 3809SOL    HW215002   1.820   2.365   4.737  2.2620  0.5190  2.2873
 3809SOL    HW315003   1.730   2.486   4.750  0.9200 -0.0183 -1.1477
 3809SOL    MW415004   1.752   2.405   4.774 -0.4347 -0.4996  0.1771
 3810SOL     OW15005   2.884   0.142   3.085 -0.6738 -0.6168 -0.1210
 3810SOL    HW215006   2.915   0.062   3.041  1.6164 -0.8138  1.6560
 3810SOL    HW315007   2.884   0.120   3.178  1.5212  1.8413  0.5795
 3810SOL    MW415008   2.888   0.128   3.091  0.1108 -0.0495  0.1059
 3811SOL     OW15009   4.166   1.533   5.613  0.1860  0.5487 -0.6604
 3811SOL    HW215010   4.139   1.515   5.523  0.8444  0.8892 -0.9377
 3811SOL    HW315011   4.092   1.505   5.667 -1.0929  2.2643 -1.4268
 3811SOL    MW415012   4.153   1.527   5.608  0.5143 -0.4951  0.0334
 3812SOL     OW15013   2.989   2.316   4.515  0.2604  0.2986 -0.0149
 3812SOL    HW215014   2.896   2.295   4.505  0.3502  0.6193 -1.8378
 3812SOL    HW315015   3.035   2.242   4.475  0.8532 -0.3842  1.8391
 3812SOL    MW415016   2.983   2.303   4.508 -0.1132  0.3549 -0.4359
 3813SOL     OW15017   5.703   6.391   2.380 -0.0326  0.6903 -0.0507
 3813SOL    HW215018   5.650   6.341   2.442 -2.0040  1.2564 -1.1905
 3813SOL    HW315019   5.693   6.482   2.408 -0.9899  0.9589 -1.1630
 3813SOL    MW415020   5.694   6.397   2.392 -0.4143  0.2584  0.1023
 3814SOL     OW15021   4.879   5.045   4.119 -0.1582  0.2792  0.6343
 3814SOL    HW215022   4.925   5.117   4.075 -0.9355 -0.0388 -0.7573
 3814SOL    HW315023   4.841   5.085   4.197  0.8788  0.9701  0.8052
 3814SOL    MW415024   4.880   5.060   4.124  0.3393 -0.1968  0.1089
 3815SOL     OW15025   1.309   2.079   6.214  0.1158  0.3397  0.3682
 3815SOL    HW215026   1.231   2.023   6.223  0.2931 -0.0477 -0.3962
 3815SOL    HW315027   1.280   2.151   6.157  0.6645 -0.5320 -1.0668
 3815SOL    MW415028   1.295   2.081   6.208  0.2568 -0.7582 -0.4712
 3816SOL     OW15029   2.238   1.780   6.183 -0.4563 -0.1685 -0.1076
 3816SOL    HW215030   2.254   1.815   6.271  1.5719  3.0205 -1.5569
 3816SOL    HW315031   2.316   1.729   6.163  0.0487  0.8392 -0.7749
 3816SOL    MW415032   2.250   1.778   6.192  0.0266 -0.0989 -0.7467
 3817SOL     OW15033   5.697   1.399   4.684 -0.4872  0.4999  0.1222
 3817SOL    HW215034   5.710   1.369   4.594 -1.2985  3.0655 -0.9369
 3817SOL    HW315035   5.759   1.471   4.694 -1.7101  1.4718  0.9674
 3817SOL    MW415036   5.707   1.404   4.673  0.6721 -0.4224 -0.6268
 3818SOL     OW15037   0.781   4.022   1.108 -0.2701 -0.9687 -0.3431
 3818SOL    HW215038   0.698   3.979   1.129 -1.5631  1.5244  0.0633
 3818SOL    HW315039   0.755   4.104   1.065  2.0828 -1.3172 -2.6720
 3818SOL    MW415040   0.767   4.027   1.105  0.0599 -0.3246  0.1267
 3819SOL     OW15041   6.126   6.277   5.205 -0.0712  0.5506  0.6775
 3819SOL    HW215042   6.186   6.279   5.131 -2.9175 -0.3036 -1.8768
 3819SOL    HW315043   6.082   6.363   5.202  0.0831  0.6751  1.6812
 3819SOL    MW415044   6.128   6.289   5.195  0.1957  0.3902  0.1949
 3820SOL     OW15045   1.502   2.276   4.675 -0.0461  0.3012 -0.2581
 3820SOL    HW215046   1.515   2.212   4.605 -1.5283  1.0602 -1.2769
 3820SOL    HW315047   1.591   2.300   4.702  0.5426 -1.0539 -0.8853
 3820SOL    MW415048   1.515   2.271   4.670 -0.3627  0.0323 -0.1653
 3821SOL     OW15049   2.352   1.668   0.578 -0.1185 -0.5064  0.7182
 3821SOL    HW215050   2.390   1.673   0.490  0.2380  1.9928  0.9470
 3821SOL    HW315051   2.265   1.631   0.565 -1.4439  2.8623 -1.2570
 3821SOL    MW415052   2.346   1.664   0.564 -0.7041 -0.5236 -0.2885
 3822SOL     OW15053   4.890   5.674   1.992 -0.1200  0.1642 -0.6070
 3822SOL    HW215054   4.857   5.761   2.014 -1.9283 -0.6627  0.1717
 3822SOL    HW315055   4.881   5.623   2.073  1.1073 -0.6940 -0.9865
 3822SOL    MW415056   4.884   5.678   2.005  0.8950 -0.1921 -0.1376
 3823SOL     OW15057   5.505   5.845   2.544  0.4157 -0.5353 -0.0212
 3823SOL    HW215058   5.534   5.771   2.491 -2.0626 -1.8654  0.3239
 3823SOL    HW315059   5.472   5.909   2.481  0.6295 -0.6276 -0.2271
 3823SOL    MW415060   5.504   5.844   2.529  0.2022  0.2412  0.2729
 3824SOL     OW15061   4.911   4.613   4.856 -0.7157 -0.5945 -0.2770
 3824SOL    HW215062   4.983   4.549   4.855 -1.0365 -0.9572 -0.3253
 3824SOL    HW315063   4.931   4.671   4.782  0.7691  0.7186  1.0859
 3824SOL    MW415064   4.923   4.612   4.846 -0.2993 -0.5603  0.0475
 3825SOL     OW15065   2.352   2.654   2.007 -0.6628  0.0137  0.1974
 3825SOL    HW215066   2.413   2.590   1.969 -1.6090  0.2724 -1.8981
 3825SOL    HW315067   2.344   2.627   2.099  1.9631 -0.4916  0.3608
 3825SOL    MW415068   2.359   2.642   2.014 -0.4206  0.2590 -0.2529
 3826SOL     OW15069   3.115   1.240   5.335  0.0127  0.1758  0.5796
 3826SOL    HW215070   3.203   1.233   5.372 -0.4571  0.9782  1.8847
 3826SOL    HW315071   3.098   1.334   5.332  0.0224  0.1644 -1.7302
 3826SOL    MW415072   3.125   1.251   5.339 -0.4499  0.1184 -0.6033
 3827SOL     OW15073   1.231   4.751   1.422  0.1313 -0.0194  0.0060
 3827SOL    HW215074   1.284   4.721   1.496  1.7467 -0.2499 -1.1803
 3827SOL    HW315075   1.263   4.840   1.405  0.6182 -0.3920 -1.1230
 3827SOL    MW415076   1.242   4.759   1.430 -0.1210  0.0503 -1.0857
 3828SOL     OW15077   6.125   5.118   5.258 -0.5505  0.3143 -0.4836
 3828SOL    HW215078   6.127   5.128   5.163 -0.8971  2.4936 -0.3062
 3828SOL    HW315079   6.213   5.087   5.280 -1.1050 -2.3910 -1.6399
 3828SOL    MW415080   6.137   5.115   5.248 -0.1896  0.0134 -0.5518
 3829SOL     OW15081   3.554   6.433   3.942  0.4135 -0.5484 -0.3872
 3829SOL    HW215082   3.530   6.343   3.920  0.7529 -0.3722 -1.5303
 3829SOL    HW315083   3.577   6.473   3.858  0.9698  0.3970  0.1986
 3829SOL    MW415084   3.554   6.427   3.928  0.0444  0.2688 -0.6519
 3830SOL     OW15085   4.786   1.473   0.235 -0.3484  0.1922 -0.2934
 3830SOL    HW215086   4.880   1.458   0.242  0.0509 -0.0097 -3.9795
 3830SOL    HW315087   4.755   1.405   0.175 -2.5909  1.0363 -0.2014
 3830SOL    MW415088   4.794   1.462   0.228  0.0969  0.2992 -0.3854
 3831SOL     OW15089   3.129   3.595   4.003  0.2849 -0.3887  0.2553
 3831SOL    HW215090   3.117   3.674   4.056 -1.7752 -1.7523  1.9346
 3831SOL    HW315091   3.185   3.538   4.056 -0.2939 -1.0448  0.1701
 3831SOL    MW415092   3.135   3.598   4.017 -0.1390  0.5206  0.6584
 3832SOL     OW15093   5.537   1.979   5.429  0.0294 -0.1316  0.1835
 3832SOL    HW215094   5.536   1.964   5.524 -1.0712 -0.5092  0.1283
 3832SOL    HW315095   5.621   2.023   5.413 -0.0076  0.4439  1.4022
 3832SOL    MW415096   5.548   1.983   5.440 -0.3103  0.2325 -0.0862
 3833SOL     OW15097   5.227   4.871   6.100 -0.3046 -0.5765  0.4164
 3833SOL    HW215098   5.310   4.822   6.103  1.0819  1.4044 -2.1411
 3833SOL    HW315099   5.250   4.958   6.133 -1.1009  0.2786 -1.2034
 3833SOL    MW415100   5.241   4.876   6.105  0.2910  0.3256  0.0981
 3834SOL     OW15101   4.970   5.466   1.716  0.1075  0.5716 -0.5365
 3834SOL    HW215102   5.022   5.545   1.699  1.7072 -0.1109  0.8803
 3834SOL    HW315103   4.881   5.498   1.725  0.7336  2.2464  0.1257
 3834SOL    MW415104   4.965   5.481   1.715  0.1806 -0.2465  0.5509
 3835SOL     OW15105   1.662   2.915   3.108  0.4407 -0.4748  0.3654
 3835SOL    HW215106   1.590   2.860   3.138  1.0296 -0.1849  2.4852
 3835SOL    HW315107   1.647   2.999   3.151  2.2946 -0.5640  1.2736
 3835SOL    MW415108   1.650   2.919   3.117 -0.5747  0.2504 -0.2356
 3836SOL     OW15109   3.721   4.439   3.045 -0.7663  0.3173 -0.6693
 3836SOL    HW215110   3.795   4.380   3.037 -0.3869  0.9437 -1.9773
 3836SOL    HW315111   3.747   4.501   3.114 -0.2395  0.3013 -0.8494
 3836SOL    MW415112   3.734   4.439   3.053  0.1495  0.0591  0.1835
 3837SOL     OW15113   5.363   0.865   3.055  0.4545 -0.0390  0.2253
 3837SOL    HW215114   5.440   0.911   3.090  0.2976  0.4226 -0.0239
 3837SOL    HW315115   5.288   0.913   3.092  0.2823  0.8203 -1.1703
 3837SOL    MW415116   5.363   0.878   3.065  0.8667  0.1635 -0.0378
 3838SOL     OW15117   4.073   3.792   4.371 -0.7697  0.1694  0.3370
 3838SOL    HW215118   4.050   3.859   4.435  0.5260 -0.8418  1.9385
 3838SOL    HW315119   4.168   3.783   4.379 -0.8778 -1.6816  0.0220
 3838SOL    MW415120   4.083   3.800   4.381 -0.2534 -0.6722 -0.1936
 3839SOL     OW15121   5.054   2.715   0.790  0.0035 -0.2750 -0.0189
 3839SOL    HW215122   5.126   2.738   0.848  0.7459 -2.5617  0.0765
 3839SOL    HW315123   5.014   2.798   0.767  2.3805  1.0384  0.2887
 3839SOL    MW415124   5.058   2.729   0.794 -0.4563  0.6006 -0.4647
 3840SOL     OW15125   4.236   3.145   4.223  0.3453  0.0163  0.1006
 3840SOL    HW215126   4.236   3.067   4.279  0.8020  0.7992  1.2179
 3840SOL    HW315127   4.183   3.209   4.271 -0.0643  0.3964 -0.8300
 3840SOL    MW415128   4.229   3.143   4.236  0.4350  0.1693  0.7098
 3841SOL     OW15129   6.112   5.771   3.687  0.3362  0.6722 -0.4423
 3841SOL    HW215130   6.072   5.844   3.734  1.5654  0.4841  0.9840
 3841SOL    HW315131   6.193   5.809   3.650 -2.0482  1.7465 -5.4016
 3841SOL    MW415132   6.118   5.786   3.688 -0.7028  0.0101  0.4436
 3842SOL     OW15133   4.336   3.762   1.553 -0.4163  0.0991  0.5975
 3842SOL    HW215134   4.411   3.705   1.572 -1.0853 -0.9492  0.2090
 3842SOL    HW315135   4.369   3.823   1.487  0.8389  1.3803  2.3316
 3842SOL    MW415136   4.350   3.763   1.547  0.4839 -0.1297 -0.2514
 3843SOL     OW15137   3.325   3.710   5.707 -0.7601  0.0972  0.4588
 3843SOL    HW215138   3.234   3.728   5.682 -0.3757  0.2352 -0.9323
 3843SOL    HW315139   3.357   3.652   5.638 -0.1129 -0.8426  1.5325
 3843SOL    MW415140   3.317   3.705   5.694 -0.0529  0.7002  0.2636
 3844SOL     OW15141   5.948   5.506   3.826 -0.4771 -0.5800  0.0722
 3844SOL    HW215142   5.872   5.507   3.769 -0.7848  1.9826  0.3910
 3844SOL    HW315143   6.008   5.572   3.789  0.1543 -0.2479  1.5630
 3844SOL    MW415144   5.946   5.515   3.814  0.2533 -0.0215  0.3264
 3845SOL     OW15145   2.629   5.142   0.701 -0.0096 -0.4410  0.1653
 3845SOL    HW215146   2.601   5.226   0.666 -0.2732 -0.2093  0.9181
 3845SOL    HW315147   2.554   5.084   0.687  0.5071 -0.8101 -1.2001
 3845SOL    MW415148   2.616   5.145   0.695 -0.3699 -0.1568 -0.1984
 3846SOL     OW15149   4.735   2.511   3.894  0.2452 -0.3615  0.0482
 3846SOL    HW215150   4.680   2.580   3.929  0.7428 -0.2542  0.6284
 3846SOL    HW315151   4.753   2.453   3.969 -1.2310 -1.8514 -0.6836
 3846SOL    MW415152   4.730   2.512   3.908  0.3082 -0.1537 -0.5728
 3847SOL     OW15153   0.787   5.286   0.609 -0.0465  0.5572  0.0175
 3847SOL    HW215154   0.802   5.205   0.657 -0.3147 -1.0232 -2.3938
 3847SOL    HW315155   0.862   5.294   0.550 -1.0383  0.8770 -1.2644
 3847SOL    MW415156   0.798   5.276   0.608  0.2675 -0.3442  0.9170
 3848SOL     OW15157   5.667   3.400   2.591  0.0571  0.0359  0.5105
 3848SOL    HW215158   5.754   3.401   2.550  1.0357 -1.0890  2.4343
 3848SOL    HW315159   5.633   3.488   2.577  0.5075 -0.1246 -2.2398
 3848SOL    MW415160   5.674   3.411   2.583 -0.2207  0.4598 -0.3310
 3849SOL     OW15161   4.033   5.579   5.210 -0.2066 -0.0837  0.0593
 3849SOL    HW215162   4.069   5.611   5.293  0.6733 -1.7508  0.3490
 3849SOL    HW315163   3.948   5.542   5.233  0.9695 -2.5801  0.6879
 3849SOL    MW415164   4.027   5.579   5.224  0.4442  0.0834  0.0450
 3850SOL     OW15165   3.320   3.317   1.392  0.4590 -0.0746  0.8225
 3850SOL    HW215166   3.390   3.362   1.345  1.2231 -2.8074 -0.8635
 3850SOL    HW315167   3.240   3.361   1.363  1.0715 -0.4138 -1.5916
 3850SOL    MW415168   3.319   3.329   1.382 -0.5099 -0.2279 -0.2443
 3851SOL     OW15169   1.547   4.127   1.139 -0.0924  0.1847  0.7010
 3851SOL    HW215170   1.606   4.157   1.070  1.1138 -0.2074  1.5135
 3851SOL    HW315171   1.491   4.062   1.096 -0.1665  0.8151 -0.1704
 3851SOL    MW415172   1.548   4.122   1.124  0.3678  0.0033  0.0343
 3852SOL     OW15173   4.121   2.603   3.646 -0.1881  0.0594  0.3378
 3852SOL    HW215174   4.105   2.694   3.619 -0.8494  0.6036  2.4000
 3852SOL    HW315175   4.207   2.605   3.687 -0.5972 -0.0429  1.2122
 3852SOL    MW415176   4.130   2.615   3.648 -0.0023  0.3981  0.5286
 3853SOL     OW15177   4.706   4.603   4.499 -0.6128  0.4867 -0.0784
 3853SOL    HW215178   4.751   4.686   4.518 -1.4894  0.9640 -0.0257
 3853SOL    HW315179   4.684   4.608   4.406 -0.4868  0.2219 -0.1238
 3853SOL    MW415180   4.709   4.615   4.489  0.2622  0.2975  0.0786
 3854SOL     OW15181   4.628   5.374   5.371 -0.2151  0.0596 -0.2889
 3854SOL    HW215182   4.716   5.411   5.369 -0.3456  0.5020  1.1789
 3854SOL    HW315183   4.642   5.279   5.372  0.2867  0.1404  0.9697
 3854SOL    MW415184   4.641   5.366   5.371  0.1531  0.2718 -0.1165
 3855SOL     OW15185   4.197   0.720   1.518 -0.4041  0.1285 -0.2500
 3855SOL    HW215186   4.207   0.814   1.503  0.2791  0.1214  0.1526
 3855SOL    HW315187   4.215   0.709   1.611  1.6086 -0.6918 -0.7037
 3855SOL    MW415188   4.200   0.731   1.529  0.0757 -0.0924 -0.0969
 3856SOL     OW15189   4.741   5.483   1.003 -0.5271 -0.0082  0.2715
 3856SOL    HW215190   4.724   5.494   0.909  0.8300 -0.9217 -0.1081
 3856SOL    HW315191   4.718   5.392   1.020  0.8111 -0.3371  0.4384
 3856SOL    MW415192   4.736   5.472   0.993  0.3001 -0.0282 -0.0785
 3857SOL     OW15193   5.129   4.507   0.039  0.4284  0.3742  0.2713
 3857SOL    HW215194   5.185   4.519   0.116  1.6388  0.6174 -0.6165
 3857SOL    HW315195   5.124   4.594  -0.000 -1.5349  0.6130  0.9272
 3857SOL    MW415196   5.136   4.520   0.044  0.1165 -0.0712  0.2574
 3858SOL     OW15197   4.256   3.599   2.394 -0.1507 -0.5297 -0.5442
 3858SOL    HW215198   4.313   3.531   2.359  0.9605 -0.8845  1.7619
 3858SOL    HW315199   4.213   3.558   2.469  1.5268  1.5323  1.7320
 3858SOL    MW415200   4.258   3.585   2.399 -0.2318 -0.3508  0.7062
 3859SOL     OW15201   4.938   1.754   1.681 -0.1120 -0.5787 -0.0944
 3859SOL    HW215202   5.007   1.801   1.727 -1.1070  0.1797  0.6695
 3859SOL    HW315203   4.973   1.739   1.593  0.3734  1.2730 -0.2462
 3859SOL    MW415204   4.952   1.758   1.675 -0.0673 -0.5826  0.1228
 3860SOL     OW15205   0.696   4.467   4.251 -0.0341  0.6627 -0.1284
 3860SOL    HW215206   0.634   4.505   4.189  0.1888  0.3708 -0.5343
 3860SOL    HW315207   0.684   4.373   4.241 -0.4120  0.6166  0.6973
 3860SOL    MW415208   0.686   4.460   4.241  0.2006 -0.1151  0.1967
 3861SOL     OW15209   6.023   5.912   2.785 -0.6918 -0.2549 -0.1934
 3861SOL    HW215210   6.054   5.999   2.806 -0.7487  0.0748 -1.3983
 3861SOL    HW315211   5.934   5.908   2.820  0.0601 -0.6305  1.8119
 3861SOL    MW415212   6.016   5.923   2.792 -0.0412 -0.3792  0.8435
 3862SOL     OW15213   2.610   5.826   1.212 -0.2202  0.2249  0.2438
 3862SOL    HW215214   2.567   5.816   1.127 -2.0437 -0.5993  1.1926
 3862SOL    HW315215   2.556   5.891   1.258  0.5471  0.4145  0.8899
 3862SOL    MW415216   2.597   5.834   1.207  0.1758  0.4909 -0.6188
 3863SOL     OW15217   6.160   4.840   2.667  0.0536 -0.4378  0.6228
 3863SOL    HW215218   6.080   4.868   2.710 -0.4980  1.5315 -1.4840
 3863SOL    HW315219   6.225   4.906   2.692  0.4714 -0.8502  0.6431
 3863SOL    MW415220   6.158   4.852   2.676 -0.1005 -0.0812  0.3258
 3864SOL     OW15221   6.330   4.952   6.125  0.0025 -0.5176 -0.6682
 3864SOL    HW215222   6.349   4.987   6.211  1.7887 -2.1998 -0.3196
 3864SOL    HW315223   6.358   5.020   6.064  0.2969 -0.0034  0.0335
 3864SOL    MW415224   6.336   4.966   6.128  0.2466  0.2924  0.4434
 3865SOL     OW15225   5.005   5.209   1.948  0.4111 -0.4388  0.4428
 3865SOL    HW215226   5.007   5.162   2.032 -0.8561  2.1323  2.0554
 3865SOL    HW315227   5.093   5.246   1.940  0.3165 -0.0525  1.0776
 3865SOL    MW415228   5.017   5.208   1.958  0.1542 -0.3325 -0.2760
 3866SOL     OW15229   1.562   2.330   0.290 -0.0602  0.0951  0.7227
 3866SOL    HW215230   1.585   2.280   0.368 -1.1168 -0.5055  0.6659
 3866SOL    HW315231   1.480   2.374   0.312  0.0089  0.5133  0.2009
 3866SOL    MW415232   1.554   2.329   0.303 -0.0291 -0.7528 -0.4263
 3867SOL     OW15233   0.348   2.495   2.183  0.1780  0.4016  0.2529
 3867SOL    HW215234   0.292   2.572   2.170  0.9123  0.6617 -1.6571
 3867SOL    HW315235   0.287   2.426   2.211 -0.5603  1.5188  1.5431
 3867SOL    MW415236   0.332   2.496   2.185  0.5407  0.7488 -0.0894
 3868SOL     OW15237   1.338   1.052   1.884 -0.1978 -0.3775  0.7483
 3868SOL    HW215238   1.419   1.069   1.933  0.6715 -0.1832 -0.6787
 3868SOL    HW315239   1.268   1.089   1.938  0.4813 -1.8315  2.7173
 3868SOL    MW415240   1.340   1.059   1.897 -0.0451 -0.2040 -0.3175
 3869SOL     OW15241   0.755   3.318   5.289 -0.2139 -0.0609  0.4566
 3869SOL    HW215242   0.767   3.374   5.366  0.9919  0.9095 -0.3918
 3869SOL    HW315243   0.793   3.234   5.314  0.5923  0.3869  0.7671
 3869SOL    MW415244   0.762   3.315   5.303  0.4247  0.1860 -0.9654
 3870SOL     OW15245   5.810   0.946   2.892  0.0849 -0.1730 -0.0229
 3870SOL    HW215246   5.851   1.024   2.853  0.0150  1.0335  2.1679
 3870SOL    HW315247   5.803   0.884   2.819  0.8968  1.5540 -1.6631
 3870SOL    MW415248   5.815   0.948   2.877  0.1594 -0.0611 -0.1022
 3871SOL     OW15249   1.795   4.319   6.333 -0.3245 -0.2707  0.4127
 3871SOL    HW215250   1.831   4.230   6.323 -0.9068 -0.4550 -0.1334
 3871SOL    HW315251   1.765   4.342   6.245 -0.4099  0.3730  0.6058
 3871SOL    MW415252   1.796   4.310   6.320  0.6306  0.4728 -0.6870
 3872SOL     OW15253   5.015   5.849   0.076 -0.1134  0.1386 -0.5059
 3872SOL    HW215254   5.095   5.867   0.026  0.1240  0.6449  0.0450
 3872SOL    HW315255   5.004   5.926   0.132 -1.5075  0.4883 -1.2304
 3872SOL    MW415256   5.024   5.862   0.077  0.1349 -0.0613  0.1121
 3873SOL     OW15257   4.892   3.134   4.334  0.0635  0.1969 -0.1671
 3873SOL    HW215258   4.881   3.152   4.428 -1.1184 -1.2669  0.0147
 3873SOL    HW315259   4.986   3.143   4.319  0.1345  1.6430  0.8832
 3873SOL    MW415260   4.903   3.138   4.345 -0.0793  0.7186 -0.4314
 3874SOL     OW15261   4.037   4.353   4.998 -0.0245  0.8388  0.0473
 3874SOL    HW215262   4.010   4.279   4.944  1.9569  0.1831 -0.1230
 3874SOL    HW315263   4.132   4.351   4.995  0.1257  1.6326  2.4560
 3874SOL    MW415264   4.046   4.343   4.990 -0.0243  0.6678  0.1037
 3875SOL     OW15265   3.691   6.346   2.320 -0.4072 -0.2319 -0.3862
 3875SOL    HW215266   3.607   6.301   2.308 -0.3144 -0.0299 -2.0921
 3875SOL    HW315267   3.732   6.343   2.234  1.7580 -1.0867  0.6071
 3875SOL    MW415268   3.685   6.340   2.307  0.1828  0.3093  0.5262
 3876SOL     OW15269   3.845   2.494   3.516  0.3319  0.2313 -0.1538
 3876SOL    HW215270   3.821   2.583   3.492 -0.5825  0.0781  0.1453
 3876SOL    HW315271   3.932   2.502   3.555  1.2333  0.6707 -2.1413
 3876SOL    MW415272   3.853   2.507   3.518  0.3323 -0.2917 -0.2308
 3877SOL     OW15273   3.503   4.653   2.455 -0.3288  0.3286 -0.2216
 3877SOL    HW215274   3.411   4.643   2.429 -0.2495  0.3938 -0.5335
 3877SOL    HW315275   3.538   4.718   2.394 -0.9080  2.7942  1.8848
 3877SOL    MW415276   3.495   4.660   2.444  0.2747  0.3840 -1.0102
 3878SOL     OW15277   6.013   4.217   2.504 -0.2886  0.9257 -0.2699
 3878SOL    HW215278   6.103   4.203   2.475  0.1976  0.3618  1.4181
 3878SOL    HW315279   5.992   4.306   2.474  0.5316  0.7817 -1.3477
 3878SOL    MW415280   6.022   4.227   2.496 -0.0771  0.9491  0.1123
 3879SOL     OW15281   1.757   1.440   2.557 -0.2929 -0.5547  0.3091
 3879SOL    HW215282   1.705   1.361   2.571  1.1205 -1.4401  0.7770
 3879SOL    HW315283   1.846   1.408   2.542  0.0461  0.8787 -1.0511
 3879SOL    MW415284   1.762   1.425   2.557 -0.4721 -0.8115 -0.3628
 3880SOL     OW15285   2.867   3.832   5.597 -0.2368  0.1319  0.0491
 3880SOL    HW215286   2.958   3.841   5.567 -0.1614  0.0651  0.2521
 3880SOL    HW315287   2.871   3.762   5.662 -0.2511  0.8316  0.8238
 3880SOL    MW415288   2.880   3.824   5.601  0.0790  0.0288 -0.0397
 3881SOL     OW15289   5.925   4.611   4.290 -0.4118 -0.4920  0.3695
 3881SOL    HW215290   5.835   4.627   4.320 -0.9651 -2.6227 -0.0378
 3881SOL    HW315291   5.920   4.530   4.240  2.2472 -2.4409  2.9315
 3881SOL    MW415292   5.912   4.603   4.288 -0.0595  0.5247 -0.1056
 3882SOL     OW15293   3.658   2.133   2.771  0.0969 -0.0982  0.0285
 3882SOL    HW215294   3.689   2.062   2.826 -0.0402 -1.3055 -1.3843
 3882SOL    HW315295   3.630   2.201   2.832  3.0492  0.0094  1.3857
 3882SOL    MW415296   3.658   2.133   2.786  0.3803 -0.1961  0.0127
 3883SOL     OW15297   5.944   2.032   2.187 -0.1437 -0.3476  0.2104
 3883SOL    HW215298   5.924   2.077   2.105  0.6620  0.1651  0.2788
 3883SOL    HW315299   5.880   1.961   2.193  1.7206 -2.4458 -2.4885
 3883SOL    MW415300   5.933   2.028   2.177 -0.5232 -0.4957 -0.2245
 3884SOL     OW15301   3.371   2.853   3.786  0.1600 -0.7502 -0.4456
 3884SOL    HW215302   3.302   2.919   3.796  1.1425  0.2516 -0.0233
 3884SOL    HW315303   3.434   2.893   3.726  1.3837 -0.7556  0.7863
 3884SOL    MW415304   3.371   2.867   3.780 -0.3351 -0.2442  0.2107
 3885SOL     OW15305   2.816   4.688   4.014  0.2474 -0.3067  0.0912
 3885SOL    HW215306   2.801   4.768   3.963 -2.2184 -0.8001 -0.0715
 3885SOL    HW315307   2.822   4.618   3.948 -2.0894 -0.8211  0.3234
 3885SOL    MW415308   2.814   4.689   3.998 -0.0041 -0.0501 -0.6093
 3886SOL     OW15309   2.894   1.480   2.235  0.8974 -1.0751 -0.5866
 3886SOL    HW215310   2.906   1.391   2.267  0.5441 -1.2884 -1.0409
 3886SOL    HW315311   2.890   1.534   2.314  1.6255 -1.3925 -0.3232
 3886SOL    MW415312   2.895   1.475   2.250 -0.9173  0.6608  0.3905
 3887SOL     OW15313   2.626   4.904   5.030  0.2349 -0.0186 -0.4753
 3887SOL    HW215314   2.587   4.891   4.944 -0.9258 -3.1219  0.3993
 3887SOL    HW315315   2.557   4.945   5.081 -0.6593 -2.0267  0.0327
 3887SOL    MW415316   2.612   4.908   5.025 -0.4412  0.2227 -0.4907
 3888SOL     OW15317   1.175   3.445   5.238  0.1883  0.8459  0.4874
 3888SOL    HW215318   1.222   3.460   5.320  0.9556  0.3599  0.1412
 3888SOL    HW315319   1.236   3.471   5.169  0.6591 -1.4745 -0.0322
 3888SOL    MW415320   1.189   3.451   5.240 -0.0165 -0.1436  0.1039
 3889SOL     OW15321   1.220   1.152   1.012 -0.1040  0.0490  0.2610
 3889SOL    HW215322   1.193   1.204   1.088 -0.2346 -1.3806  1.2322
 3889SOL    HW315323   1.194   1.205   0.936 -0.3907  1.3028  1.1954
 3889SOL    MW415324   1.213   1.166   1.012 -0.2201 -0.7761 -0.1373
 3890SOL     OW15325   4.860   3.984   0.681 -0.1592  0.0923 -0.0593
 3890SOL    HW215326   4.856   4.076   0.655  2.1419  0.7545  1.6114
 3890SOL    HW315327   4.945   3.954   0.649 -0.2173 -0.9980  0.7672
 3890SOL    MW415328   4.871   3.992   0.673 -1.1562  0.3300 -0.1828
 3891SOL     OW15329   5.651   4.922   4.197 -0.1916  0.0085 -0.0978
 3891SOL    HW215330   5.628   4.835   4.230 -0.2314 -0.0485 -0.2792
 3891SOL    HW315331   5.665   4.974   4.277 -0.4669 -0.0828  0.0098
 3891SOL    MW415332   5.650   4.917   4.212  0.0597 -0.2097 -0.4155
 3892SOL     OW15333   0.937   2.071   2.784  0.5205 -0.1727 -0.2320
 3892SOL    HW215334   0.863   2.080   2.844  1.4133  0.2567  0.8524
 3892SOL    HW315335   1.005   2.029   2.836  0.7681 -1.3934 -1.4745
 3892SOL    MW415336   0.936   2.067   2.799  0.2478 -0.0573 -0.0344
 3893SOL     OW15337   1.192   2.807   2.726 -0.5432  0.6125  0.0050
 3893SOL    HW215338   1.206   2.732   2.668  0.6591  1.6666 -1.1536
 3893SOL    HW315339   1.197   2.771   2.814 -0.0370 -0.6839 -0.5252
 3893SOL    MW415340   1.195   2.793   2.730 -0.3866  0.1561 -0.4039
 3894SOL     OW15341   0.912   2.687   5.976  0.2420  0.5521  0.5759
 3894SOL    HW215342   0.933   2.621   6.042  0.0785  1.5320  1.6205
 3894SOL    HW315343   0.992   2.694   5.924  0.0798 -0.8657  0.0785
 3894SOL    MW415344   0.925   2.679   5.977 -0.2221 -0.6894  0.2475
 3895SOL     OW15345   0.854   2.390   4.568 -0.3038 -0.0338 -0.1118
 3895SOL    HW215346   0.902   2.406   4.649 -2.2434 -2.5833  1.6772
 3895SOL    HW315347   0.836   2.296   4.568 -1.5779  0.1117 -2.8393
 3895SOL    MW415348   0.858   2.380   4.578  0.1655 -0.1290 -0.6402
 3896SOL     OW15349   6.094   5.926   4.364 -0.1774 -0.0677  0.2013
 3896SOL    HW215350   6.180   5.947   4.329  0.8693 -2.9106  0.7878
 3896SOL    HW315351   6.043   5.898   4.288 -0.1148  0.2645  0.0383
 3896SOL    MW415352   6.098   5.925   4.350  0.4588  0.0970  0.0622
 3897SOL     OW15353   2.929   5.975   5.360 -0.4788 -0.1139  0.1732
 3897SOL    HW215354   3.019   5.942   5.362 -0.7397 -1.2153 -2.3008
 3897SOL    HW315355   2.882   5.920   5.423  0.0914 -1.2408 -0.3548
 3897SOL    MW415356   2.935   5.964   5.368 -0.2622 -0.3294 -0.0220
 3898SOL     OW15357   4.996   1.223   0.595 -0.0869 -0.1804 -0.1620
 3898SOL    HW215358   4.914   1.173   0.594  0.2322 -0.7269 -1.9105
 3898SOL    HW315359   4.974   1.303   0.643 -0.8477 -1.5520  1.9426
 3898SOL    MW415360   4.982   1.227   0.601 -0.1545 -0.8456 -0.1939
 3899SOL     OW15361   2.251   5.806   3.023 -0.6036  0.3056 -0.4548
 3899SOL    HW215362   2.219   5.884   2.978  3.1867  2.2657 -0.2141
 3899SOL    HW315363   2.279   5.748   2.953  0.1599  0.9310 -0.6859
 3899SOL    MW415364   2.251   5.809   3.008  0.1757  0.1586  0.5211
 3900SOL     OW15365   1.580   1.196   0.023  0.1697  0.9689  0.5775
 3900SOL    HW215366   1.563   1.205   0.117 -2.6816 -0.0671  0.2674
 3900SOL    HW315367   1.520   1.258  -0.018  1.6216  1.6560 -0.5988
 3900SOL    MW415368   1.570   1.206   0.030  0.0304 -0.3359  0.0831
 3901SOL     OW15369   3.771   2.067   0.995 -0.0187 -0.1539  0.0521
 3901SOL    HW215370   3.856   2.108   0.976 -0.4226  0.8571  0.3323
 3901SOL    HW315371   3.725   2.067   0.911 -0.3836  0.9040  0.2257
 3901SOL    MW415372   3.776   2.072   0.982 -0.0722 -0.1399 -0.0818
 3902SOL     OW15373   1.507   2.939   4.906 -0.5425 -0.6328  0.0734
 3902SOL    HW215374   1.536   2.850   4.888  0.8817 -0.3135  0.6877
 3902SOL    HW315375   1.518   2.985   4.822 -2.4106 -1.2779 -0.5818
 3902SOL    MW415376   1.512   2.933   4.892 -0.3609  0.3436  0.4433
 3903SOL     OW15377   3.567   3.711   2.528 -0.2047  0.4665 -0.0673
 3903SOL    HW215378   3.561   3.622   2.491 -0.1826 -0.0424  1.0927
 3903SOL    HW315379   3.645   3.749   2.487 -0.4387  0.0997 -0.8731
 3903SOL    MW415380   3.576   3.704   2.518 -0.2162 -0.2271 -0.1938
 3904SOL     OW15381   0.719   2.903   0.747  0.5373 -0.2577 -0.3388
 3904SOL    HW215382   0.701   2.825   0.695  2.2372 -0.1137 -1.2262
 3904SOL    HW315383   0.784   2.951   0.696  0.4644  1.1064  0.7961
 3904SOL    MW415384   0.725   2.899   0.733 -0.3915  0.2552 -0.1050
 3905SOL     OW15385   1.707   5.857   1.331  0.0620 -0.1027 -0.4083
 3905SOL    HW215386   1.636   5.820   1.278 -1.2619  0.3302  1.0012
 3905SOL    HW315387   1.697   5.816   1.416  0.1598  1.5387  0.4337
 3905SOL    MW415388   1.696   5.847   1.335 -0.1789 -0.3137  0.0561
 3906SOL     OW15389   0.499   3.252   3.906 -0.1622  0.0058  0.4623
 3906SOL    HW215390   0.467   3.311   3.974 -0.9196  2.8553 -2.1050
 3906SOL    HW315391   0.428   3.249   3.842  0.3896 -2.7764 -0.1587
 3906SOL    MW415392   0.485   3.259   3.906 -0.5985  0.2239  0.5879
 3907SOL     OW15393   4.935   6.321   4.697 -1.0341  0.2103  0.2175
 3907SOL    HW215394   5.004   6.279   4.749 -0.4816 -0.5555 -1.0884
 3907SOL    HW315395   4.975   6.402   4.665 -1.8311  1.3908  2.0642
 3907SOL    MW415396   4.949   6.326   4.699 -0.0478 -0.5168 -0.3805
 3908SOL     OW15397   3.671   4.519   4.218  0.1965 -1.2642 -0.0316
 3908SOL    HW215398   3.702   4.538   4.129  0.0078 -0.4989  0.0582
 3908SOL    HW315399   3.591   4.468   4.206 -0.1394 -0.6766 -0.3119
 3908SOL    MW415400   3.665   4.515   4.205 -0.4186 -0.8549  0.3505
 3909SOL     OW15401   1.855   6.138   1.603 -0.1299 -0.1148  0.0372
 3909SOL    HW215402   1.926   6.093   1.648 -0.1191 -1.5023 -1.2776
 3909SOL    HW315403   1.841   6.218   1.653  1.1730 -0.6593  1.3282
 3909SOL    MW415404   1.862   6.142   1.615  0.4909 -0.0983  0.1919
 3910SOL     OW15405   5.587   2.589   1.611 -0.0314 -0.1089  0.0177
 3910SOL    HW215406   5.614   2.681   1.608 -0.4081  0.0821  1.3721
 3910SOL    HW315407   5.512   2.584   1.552  0.7067  0.1813 -0.9619
 3910SOL    MW415408   5.580   2.600   1.603  0.0782 -0.0822  0.4255
 3911SOL     OW15409   0.272   4.403   0.569 -0.0980 -0.2066  0.1551
 3911SOL    HW215410   0.265   4.487   0.614 -2.3586 -0.4158  0.2902
 3911SOL    HW315411   0.314   4.345   0.632 -0.1368  0.3591  0.7105
 3911SOL    MW415412   0.277   4.406   0.583  0.5390 -0.8722  0.0404
 3912SOL     OW15413   2.105   4.484   0.930 -0.6500  0.3230 -0.0412
 3912SOL    HW215414   2.131   4.460   0.841  0.4485 -0.2034  0.4138
 3912SOL    HW315415   2.177   4.538   0.962 -1.6491  1.6344  0.0734
 3912SOL    MW415416   2.118   4.488   0.922  0.4171  0.7051  0.2937
 3913SOL     OW15417   1.027   1.641   4.695 -0.6816 -0.3197 -0.1463
 3913SOL    HW215418   1.082   1.651   4.618  0.7644 -0.9043  0.7769
 3913SOL    HW315419   1.082   1.667   4.768 -1.7707 -0.5182  0.7825
 3913SOL    MW415420   1.041   1.646   4.694 -0.2606  0.0852  0.4287
 3914SOL     OW15421   3.804   4.498   1.865  0.2567  0.0412  0.8426
 3914SOL    HW215422   3.746   4.466   1.935 -0.3490 -0.9499 -0.0782
 3914SOL    HW315423   3.892   4.494   1.903  0.1553 -2.2614  0.9738
 3914SOL    MW415424   3.808   4.493   1.880 -0.0330 -0.0712 -0.1298
 3915SOL     OW15425   4.806   1.425   2.138  0.3212 -0.2132  0.8519
 3915SOL    HW215426   4.831   1.339   2.171 -0.2802 -1.4188 -1.5816
 3915SOL    HW315427   4.723   1.411   2.094  1.1023  1.1493 -1.2348
 3915SOL    MW415428   4.799   1.412   2.136  0.1822 -0.0221  0.0294
 3916SOL     OW15429   4.980   3.231   1.382  0.1075 -0.6634 -0.0317
 3916SOL    HW215430   4.936   3.155   1.345 -0.6812  0.4143 -1.4140
 3916SOL    HW315431   4.914   3.274   1.436  0.2080 -0.3402 -0.1647
 3916SOL    MW415432   4.966   3.227   1.384  0.3657  0.2489 -0.7098
 3917SOL     OW15433   5.026   2.721   1.212  0.3234  0.3717 -0.0728
 3917SOL    HW215434   4.942   2.742   1.254  0.6515  0.9378  0.3223
 3917SOL    HW315435   5.066   2.657   1.271  0.0811 -0.0610 -0.3725
 3917SOL    MW415436   5.020   2.715   1.226  0.1892 -0.0441  0.5808
 3918SOL     OW15437   2.806   3.429   5.228 -0.4485 -0.2382 -0.0192
 3918SOL    HW215438   2.869   3.494   5.258 -1.1144  0.2795  0.2807
 3918SOL    HW315439   2.754   3.475   5.162 -2.1807  0.1794  1.5386
 3918SOL    MW415440   2.807   3.443   5.223 -0.5886  0.3575  0.1052
 3919SOL     OW15441   3.194   1.517   4.665  0.8774  0.3839  0.0617
 3919SOL    HW215442   3.197   1.536   4.571  0.6496  2.1467  0.3652
 3919SOL    HW315443   3.250   1.584   4.705  1.4767 -0.7238  1.1501
 3919SOL    MW415444   3.202   1.529   4.658 -0.7226 -0.0036  0.2123
 3920SOL     OW15445   5.349   5.873   1.077 -0.4534 -0.3083 -0.0419
 3920SOL    HW215446   5.292   5.928   1.130 -1.8958 -0.1471 -1.6512
 3920SOL    HW315447   5.387   5.933   1.012 -0.2182 -0.7990 -0.3657
 3920SOL    MW415448   5.346   5.888   1.075 -0.2966  0.3007 -0.1293
 3921SOL     OW15449   0.973   4.640   1.474  0.2737  0.1360 -0.2828
 3921SOL    HW215450   1.056   4.686   1.466  0.7454 -0.6120  0.1797
 3921SOL    HW315451   0.972   4.580   1.399  0.4169 -0.2523  0.0203
 3921SOL    MW415452   0.984   4.638   1.463 -0.3990  0.3900 -0.3308
 3922SOL     OW15453   3.109   5.465   3.426  0.1033 -0.1265  0.1327
 3922SOL    HW215454   3.192   5.455   3.471  1.0545  0.9618 -1.2824
 3922SOL    HW315455   3.118   5.414   3.345 -0.3254  0.5089 -0.3344
 3922SOL    MW415456   3.121   5.457   3.421  0.1526 -0.3171 -0.0190
 3923SOL     OW15457   1.798   3.025   2.659 -0.0266 -0.0499  0.4106
 3923SOL    HW215458   1.734   2.972   2.706  1.7054 -2.0859  0.6705
 3923SOL    HW315459   1.821   2.971   2.583  1.0891  0.7991  0.1218
 3923SOL    MW415460   1.793   3.011   2.655  0.8278  0.2505 -0.0174
 3924SOL     OW15461   1.947   3.204   0.969 -0.2966 -0.3199  0.1416
 3924SOL    HW215462   1.875   3.253   1.009  0.5957  0.6284  0.6187
 3924SOL    HW315463   1.962   3.248   0.885 -0.2087 -0.4570  0.0852
 3924SOL    MW415464   1.939   3.216   0.963  0.3913 -0.0155 -0.5014
 3925SOL     OW15465   2.414   1.225   5.399  0.4237  0.5552  0.4828
 3925SOL    HW215466   2.398   1.252   5.490 -0.1842  1.6166  0.0848
 3925SOL    HW315467   2.505   1.198   5.397  0.6896  1.3634  1.2239
 3925SOL    MW415468   2.424   1.225   5.411  0.4145  0.4719 -0.4727
 3926SOL     OW15469   2.963   4.400   4.503 -0.0961 -0.3617  0.3925
 3926SOL    HW215470   2.968   4.444   4.588  1.9715 -0.9174  0.6064
 3926SOL    HW315471   2.987   4.468   4.440 -0.9818 -0.1225  0.3042
 3926SOL    MW415472   2.967   4.415   4.506  0.3226 -0.7933  0.1606
 3927SOL     OW15473   4.985   4.744   3.752  0.4891  0.1725 -0.6848
 3927SOL    HW215474   5.006   4.835   3.772 -0.2043 -0.0782  1.4320
 3927SOL    HW315475   4.893   4.735   3.777  1.0015 -1.5005  0.7460
 3927SOL    MW415476   4.976   4.755   3.758  0.4338  0.0040  0.1861
 3928SOL     OW15477   5.050   2.152   0.943  0.0348  0.0857 -0.0744
 3928SOL    HW215478   5.050   2.248   0.938 -1.0995  0.2382  1.8649
 3928SOL    HW315479   5.046   2.133   1.036  2.1555 -1.9080 -0.3029
 3928SOL    MW415480   5.050   2.162   0.954  0.1422 -0.5458  0.8693
 3929SOL     OW15481   5.932   5.024   1.227 -0.1126 -0.0377  0.4768
 3929SOL    HW215482   5.936   5.015   1.322 -0.5032  0.5923  0.5620
 3929SOL    HW315483   6.016   4.991   1.196  1.1240  2.1215  1.2562
 3929SOL    MW415484   5.944   5.019   1.235  0.1946 -0.5706  0.2065
 3930SOL     OW15485   0.502   0.671   0.565 -0.3167  0.1429  0.1079
 3930SOL    HW215486   0.517   0.762   0.539 -0.8960 -0.1503 -1.3421
 3930SOL    HW315487   0.419   0.648   0.524 -0.8212 -0.6758  1.5129
 3930SOL    MW415488   0.493   0.680   0.556 -0.4436 -0.1413  0.2977
 3931SOL     OW15489   5.248   6.156   3.414 -0.1392  0.7578 -0.2007
 3931SOL    HW215490   5.207   6.190   3.335 -1.2738  1.0226  0.4834
 3931SOL    HW315491   5.274   6.234   3.463 -2.5904  0.7574  1.2878
 3931SOL    MW415492   5.246   6.170   3.410 -0.1063 -0.2195  0.6070
 3932SOL     OW15493   3.086   2.506   4.819  0.3305 -0.5279 -0.4349
 3932SOL    HW215494   3.116   2.585   4.863 -0.5424  0.1189 -0.9691
 3932SOL    HW315495   3.157   2.483   4.759  1.0114 -0.7384  0.4247
 3932SOL    MW415496   3.099   2.513   4.817  0.1717 -0.6273 -0.0368
 3933SOL     OW15497   1.234   3.287   1.844  0.2388 -0.0240  0.4211
 3933SOL    HW215498   1.200   3.199   1.827  1.1195 -0.1302 -0.9604
 3933SOL    HW315499   1.162   3.345   1.820 -0.5300 -0.3536  1.8214
 3933SOL    MW415500   1.220   3.283   1.839  0.0692 -0.0835  0.0825
 3934SOL     OW15501   1.590   1.001   1.309  0.2813  0.8204  0.6020
 3934SOL    HW215502   1.545   1.033   1.231  0.5527 -0.9899 -0.3665
 3934SOL    HW315503   1.637   0.924   1.279  0.2569 -0.0423  2.5990
 3934SOL    MW415504   1.590   0.995   1.295 -0.1541  0.2777 -0.1824
 3935SOL     OW15505   0.092   3.515   2.783 -0.4537  0.3122 -0.3851
 3935SOL    HW215506   0.183   3.491   2.766 -0.6871 -0.7043 -0.2711
 3935SOL    HW315507   0.070   3.472   2.866 -0.2780  2.6736  0.9487
 3935SOL    MW415508   0.101   3.506   2.791 -0.2840 -0.3018 -0.1768
 3936SOL     OW15509   4.925   4.757   0.176  0.3538 -0.1639  0.0638
 3936SOL    HW215510   4.913   4.664   0.157  0.7270 -0.2486  0.2358
 3936SOL    HW315511   4.862   4.775   0.246  0.1582 -0.2472 -0.0928
 3936SOL    MW415512   4.915   4.747   0.183 -0.1093  0.2199 -0.1349
 3937SOL     OW15513   4.297   3.855   5.181  0.2277 -0.8459  0.2680
 3937SOL    HW215514   4.305   3.901   5.265  0.0082 -0.5372  0.1235
 3937SOL    HW315515   4.374   3.799   5.177 -0.7411 -2.3641  1.5893
 3937SOL    MW415516   4.308   3.854   5.192 -0.4028  0.5798 -0.5585
 3938SOL     OW15517   1.603   4.140   4.301  0.3073 -0.2964 -0.2161
 3938SOL    HW215518   1.650   4.086   4.364 -1.7783 -0.5434  1.2105
 3938SOL    HW315519   1.570   4.214   4.352  0.7798  0.9105 -1.5818
 3938SOL    MW415520   1.605   4.143   4.316  0.1243  0.1881  0.0198
 3939SOL     OW15521   1.479   6.471   0.416  0.2111  0.1111  0.5740
 3939SOL    HW215522   1.533   6.400   0.450  0.4477  0.4510  0.9137
 3939SOL    HW315523   1.432   6.505   0.492  0.0798  0.3040  0.4089
 3939SOL    MW415524   1.480   6.467   0.430  0.2733 -0.3843  0.3845
 3940SOL     OW15525   4.317   4.746   2.193  0.1095 -0.6059 -0.0088
 3940SOL    HW215526   4.308   4.807   2.120 -0.7317 -0.5443  0.1475
 3940SOL    HW315527   4.361   4.796   2.261 -3.9106  1.1363  1.5904
 3940SOL    MW415528   4.322   4.760   2.192  0.2524  0.5669  0.3012
 3941SOL     OW15529   4.771   3.114   3.615 -0.2636  0.6989 -0.3818
 3941SOL    HW215530   4.748   3.055   3.543 -1.3661 -0.9328  1.1918
 3941SOL    HW315531   4.864   3.096   3.632 -0.7192 -1.2026  0.4824
 3941SOL    MW415532   4.780   3.104   3.608 -0.7226  0.3204 -0.0813
 3942SOL     OW15533   0.922   0.335   5.853  0.5826 -0.0326  0.2413
 3942SOL    HW215534   0.961   0.373   5.932 -0.3851 -0.4529  0.9295
 3942SOL    HW315535   0.922   0.407   5.790 -0.0357  0.7477  1.1121
 3942SOL    MW415536   0.927   0.350   5.855 -0.1792 -0.3867 -0.4339
 3943SOL     OW15537   1.514   5.704   0.312  0.0858  0.3133 -0.0853
 3943SOL    HW215538   1.420   5.723   0.316  0.1392  0.4817  0.3749
 3943SOL    HW315539   1.538   5.681   0.402  0.3583 -0.3390 -0.3154
 3943SOL    MW415540   1.505   5.704   0.324 -0.1014 -0.2463 -1.0501
 3944SOL     OW15541   5.133   3.273   0.926  0.0816 -0.0141 -0.3688
 3944SOL    HW215542   5.037   3.265   0.930 -0.1157  1.8027 -0.5953
 3944SOL    HW315543   5.160   3.203   0.867 -1.3125  0.5785 -1.7954
 3944SOL    MW415544   5.124   3.263   0.919 -0.7017  0.2270 -0.3983
 3945SOL     OW15545   0.072   4.480   1.861 -0.1400 -0.1544 -0.1160
 3945SOL    HW215546   0.051   4.419   1.789 -1.9822  0.0020  0.2407
 3945SOL    HW315547   0.051   4.566   1.825 -0.7178 -0.0451  0.4639
 3945SOL    MW415548   0.066   4.483   1.847 -0.3960  0.2417 -0.5927
 3946SOL     OW15549   3.860   4.158   1.228  0.7546 -0.2497 -0.3553
 3946SOL    HW215550   3.908   4.078   1.208 -0.3828 -1.2408  0.6932
 3946SOL    HW315551   3.808   4.136   1.306 -0.5243  1.1196 -0.7710
 3946SOL    MW415552   3.859   4.144   1.236  0.2392  0.0272  0.6252
 3947SOL     OW15553   4.074   1.927   0.987  0.4550 -0.2387  0.2753
 3947SOL    HW215554   4.077   2.020   0.967  1.2314 -0.4015 -0.4322
 3947SOL    HW315555   4.087   1.922   1.082  0.5250  0.3565  0.2985
 3947SOL    MW415556   4.076   1.939   0.997  0.0952 -0.3497 -0.1032
 3948SOL     OW15557   4.853   0.371   5.936 -0.5090 -0.4506 -0.0314
 3948SOL    HW215558   4.887   0.312   5.868 -0.8323  0.2461 -0.8096
 3948SOL    HW315559   4.761   0.347   5.944 -1.8288  2.5983 -3.3632
 3948SOL    MW415560   4.845   0.360   5.928  0.6618 -0.3894  0.1789
 3949SOL     OW15561   3.483   6.015   1.977  0.0288  0.4276 -0.1548
 3949SOL    HW215562   3.436   5.950   2.031  1.6305  0.1773  0.9872
 3949SOL    HW315563   3.495   6.090   2.035  1.5918  0.2349 -0.1914
 3949SOL    MW415564   3.478   6.016   1.992  0.6687  0.2050 -0.2159
 3950SOL     OW15565   5.880   4.615   3.408 -0.0567 -0.1311 -0.3204
 3950SOL    HW215566   5.886   4.595   3.314 -0.1786 -0.1619 -0.3222
 3950SOL    HW315567   5.786   4.620   3.425 -0.0478  1.9166 -0.6246
 3950SOL    MW415568   5.869   4.613   3.398 -0.2603  0.0523  0.7138
 3951SOL     OW15569   2.717   2.888   1.120  0.4065  0.0092 -0.4245
 3951SOL    HW215570   2.647   2.847   1.069  0.3988  0.4158 -0.7450
 3951SOL    HW315571   2.726   2.975   1.082  2.4259 -0.6854 -1.7201
 3951SOL    MW415572   2.709   2.894   1.108 -0.2378 -0.6738 -0.2035
 3952SOL     OW15573   4.905   5.127   0.241 -0.2265 -0.5510 -0.6163
 3952SOL    HW215574   4.993   5.108   0.210 -0.1155 -0.4438 -0.3743
 3952SOL    HW315575   4.879   5.048   0.289 -0.2563 -0.5777 -0.6773
 3952SOL    MW415576   4.913   5.114   0.243 -0.3636 -0.0190 -0.0909
 3953SOL     OW15577   3.414   2.641   4.571  0.0377  0.6936  0.1640
 3953SOL    HW215578   3.340   2.581   4.577 -1.2455  2.3665  2.8670
 3953SOL    HW315579   3.471   2.602   4.504 -1.6064 -2.4487  0.3988
 3953SOL    MW415580   3.412   2.628   4.563  0.6175 -0.0291 -0.0054
 3954SOL     OW15581   4.238   1.526   3.406  0.5392 -0.1990 -0.0903
 3954SOL    HW215582   4.247   1.615   3.371  0.4137 -0.5532 -1.0325
 3954SOL    HW315583   4.244   1.538   3.501 -0.0459  0.8888 -0.1695
 3954SOL    MW415584   4.240   1.539   3.414 -0.2815  0.2964  0.5061
 3955SOL     OW15585   6.142   1.124   6.315  0.2854 -0.2720  0.2627
 3955SOL    HW215586   6.093   1.206   6.315 -1.4467 -1.2109 -1.9492
 3955SOL    HW315587   6.098   1.070   6.250  3.1268 -1.9247 -0.4306
 3955SOL    MW415588   6.130   1.128   6.307 -0.4310  0.1003  0.1073
 3956SOL     OW15589   5.354   5.609   6.100  0.1534 -0.1711  0.0293
 3956SOL    HW215590   5.263   5.639   6.090  0.3458  0.0742 -1.2093
 3956SOL    HW315591   5.370   5.558   6.021  1.2687  0.2586 -0.0348
 3956SOL    MW415592   5.344   5.607   6.088  0.3675  0.6526 -0.1735
 3957SOL     OW15593   5.353   1.488   6.176  0.1426 -0.1455  0.4572
 3957SOL    HW215594   5.364   1.574   6.217  2.0889  0.4140 -1.1023
 3957SOL    HW315595   5.344   1.427   6.249  0.2520  1.2033  1.6283
 3957SOL    MW415596   5.353   1.491   6.191 -0.0368 -0.3844  0.2661
 3958SOL     OW15597   0.666   4.651   1.281 -0.5029 -0.2019  0.0041
 3958SOL    HW215598   0.685   4.718   1.346 -0.4813 -0.7143  0.5264
 3958SOL    HW315599   0.740   4.653   1.221 -0.7043  0.5326 -0.2265
 3958SOL    MW415600   0.678   4.660   1.281 -0.6297 -0.3648 -0.3546
 3959SOL     OW15601   3.905   2.394   2.194  0.1563  0.6791  0.9263
 3959SOL    HW215602   3.992   2.382   2.233 -0.0144 -1.5149  0.7541
 3959SOL    HW315603   3.878   2.306   2.168 -0.5551  1.7663 -2.4733
 3959SOL    MW415604   3.913   2.381   2.196 -0.1345 -0.3650  0.2073
 3960SOL     OW15605   5.861   1.637   2.009  0.8000 -0.4454  0.1593
 3960SOL    HW215606   5.914   1.683   1.944  0.2599 -1.6271 -1.1565
 3960SOL    HW315607   5.920   1.571   2.045  0.2204 -1.8866 -1.4416
 3960SOL    MW415608   5.876   1.634   2.006  0.3316  0.0740  0.1236
 3961SOL     OW15609   5.875   3.244   4.895 -0.0098  0.0012 -0.6895
 3961SOL    HW215610   5.950   3.282   4.849  0.1569 -0.0041 -0.4198
 3961SOL    HW315611   5.864   3.158   4.854 -1.4676  0.9901 -2.5067
 3961SOL    MW415612   5.884   3.237   4.883  0.1849 -0.2603 -0.3078
 3962SOL     OW15613   0.101   5.525   4.826 -0.3973  0.5406  0.2294
 3962SOL    HW215614   0.050   5.604   4.809  0.9484  1.5130  0.4868
 3962SOL    HW315615   0.166   5.553   4.891  0.7351 -0.5018 -0.4066
 3962SOL    MW415616   0.103   5.539   4.832 -0.0287 -0.2169  0.2957
 3963SOL     OW15617   3.182   3.734   4.620  0.2970 -0.1360 -0.4436
 3963SOL    HW215618   3.163   3.670   4.551 -1.7312 -0.4330  0.3237
 3963SOL    HW315619   3.270   3.766   4.599  0.5565 -1.6895 -1.9957
 3963SOL    MW415620   3.191   3.730   4.608 -0.0174 -0.2587 -0.4725
 3964SOL     OW15621   1.337   2.028   5.293 -0.7443  0.5006 -0.2940
 3964SOL    HW215622   1.336   2.081   5.214  0.8439  1.5914  0.3560
 3964SOL    HW315623   1.411   1.968   5.280 -0.9722  0.1463  0.0283
 3964SOL    MW415624   1.347   2.027   5.281 -0.0273  0.4312  0.0155
 3965SOL     OW15625   1.528   4.616   3.051  0.7890  0.1040  0.8616
 3965SOL    HW215626   1.564   4.632   3.138  0.6576 -0.2191  0.9741
 3965SOL    HW315627   1.525   4.703   3.011  2.8615  0.0019  0.3825
 3965SOL    MW415628   1.532   4.630   3.057  0.5249  0.0539 -0.0919
 3966SOL     OW15629   1.094   6.074   2.732  0.3557  0.3719  0.3896
 3966SOL    HW215630   1.011   6.090   2.686  1.0017  0.1728 -0.9061
 3966SOL    HW315631   1.069   6.055   2.822 -0.9149  1.5763  0.3112
 3966SOL    MW415632   1.080   6.073   2.738  0.2699 -0.3770  0.4360
 3967SOL     OW15633   2.585   6.215   4.218  0.2616  0.0015 -0.0520
 3967SOL    HW215634   2.666   6.165   4.224  0.3244 -0.0682 -1.2259
 3967SOL    HW315635   2.520   6.162   4.264  0.4061 -1.0172 -0.9844
 3967SOL    MW415636   2.587   6.201   4.225 -0.5398 -0.2098 -0.4862
 3968SOL     OW15637   3.086   1.037   3.785  0.0526 -0.2874  0.5269
 3968SOL    HW215638   3.048   1.012   3.701  0.6625  0.6489 -0.0461
 3968SOL    HW315639   3.011   1.060   3.839 -0.3129 -0.3713  0.0631
 3968SOL    MW415640   3.071   1.037   3.781 -0.9688  0.2015 -0.1347
 3969SOL     OW15641   2.192   1.491   1.532  0.4037  0.0982 -0.2348
 3969SOL    HW215642   2.260   1.445   1.482 -1.7304 -1.3542 -2.0138
 3969SOL    HW315643   2.240   1.553   1.586  3.1468 -1.0299 -1.1805
 3969SOL    MW415644   2.207   1.493   1.533 -0.5550  0.4376 -0.2198
 3970SOL     OW15645   5.222   2.100   3.314 -0.0654  0.5668 -0.0169
 3970SOL    HW215646   5.282   2.103   3.240 -0.3357  1.9747 -0.2053
 3970SOL    HW315647   5.187   2.189   3.321 -0.4851  0.3239  1.4426
 3970SOL    MW415648   5.225   2.112   3.305  0.3259 -0.0430  0.3240
 3971SOL     OW15649   5.625   3.205   3.037 -0.2619  0.0385  0.0749
 3971SOL    HW215650   5.597   3.147   2.967 -1.3300 -0.8473  1.2066
 3971SOL    HW315651   5.694   3.157   3.082  0.7842  0.8169 -0.6330
 3971SOL    MW415652   5.630   3.191   3.033  0.2241  0.6760 -0.2220
 3972SOL     OW15653   4.470   5.397   1.684 -0.2209  0.2507  0.0043
 3972SOL    HW215654   4.560   5.424   1.666  0.3601 -1.1347  0.6495
 3972SOL    HW315655   4.479   5.312   1.728 -1.8208  0.4747  0.8270
 3972SOL    MW415656   4.483   5.389   1.687 -0.0284 -0.1082  0.7590
 3973SOL     OW15657   4.996   0.518   3.770 -0.0476 -0.2738 -0.2244
 3973SOL    HW215658   4.983   0.454   3.700  0.9289 -2.4320  1.4584
 3973SOL    HW315659   4.916   0.511   3.823  0.0143 -0.0162 -0.0968
 3973SOL    MW415660   4.984   0.509   3.768 -0.1049 -0.1298  0.2773
 3974SOL     OW15661   4.758   0.366   5.506  0.2422  0.3387 -0.0668
 3974SOL    HW215662   4.828   0.393   5.446  1.5947 -1.4155  0.6310
 3974SOL    HW315663   4.678   0.370   5.453  1.1886  0.1868 -1.5606
 3974SOL    MW415664   4.757   0.370   5.491  0.0486 -0.0867  0.0348
 3975SOL     OW15665   5.132   4.248   3.375  0.1039  0.4050  0.0650
 3975SOL    HW215666   5.180   4.331   3.371 -0.1630  0.5451 -0.2541
 3975SOL    HW315667   5.040   4.273   3.380  0.0768  0.1417  1.1964
 3975SOL    MW415668   5.126   4.262   3.375 -0.2610 -0.3664  0.3153
 3976SOL     OW15669   2.621   4.092   6.381 -0.0837  0.0930 -0.2233
 3976SOL    HW215670   2.590   4.179   6.408 -0.7969  0.1973 -1.3000
 3976SOL    HW315671   2.707   4.084   6.422 -0.1765  1.1434  0.2280
 3976SOL    MW415672   2.628   4.103   6.390  0.6359 -0.3640  0.0634
 3977SOL     OW15673   4.915   4.372   6.016 -0.2655  0.1097  0.3026
 3977SOL    HW215674   4.841   4.378   5.956 -0.0702 -0.2958  0.0204
 3977SOL    HW315675   4.976   4.310   5.975 -0.3875 -0.6210  1.1813
 3977SOL    MW415676   4.914   4.364   6.003 -0.1174 -0.4879 -0.4805
 3978SOL     OW15677   0.360   3.512   2.841  0.2583 -0.6218  0.2895
 3978SOL    HW215678   0.364   3.553   2.927  0.7973  0.8751 -0.4236
 3978SOL    HW315679   0.396   3.424   2.855  0.7504 -0.2476  1.4990
 3978SOL    MW415680   0.366   3.506   2.854 -0.5779  0.0909  0.1567
 3979SOL     OW15681   4.479   4.906   4.942  0.3831  0.1924  0.6970
 3979SOL    HW215682   4.486   4.901   5.037  0.0823  0.0911  0.7163
 3979SOL    HW315683   4.452   4.818   4.915  0.4567  0.2232  0.5184
 3979SOL    MW415684   4.476   4.894   4.951 -0.0603 -0.0426  0.0060
 3980SOL     OW15685   5.642   0.668   3.065 -0.1164 -0.0709 -0.2755
 3980SOL    HW215686   5.637   0.614   3.143  1.0522  0.0123 -0.1159
 3980SOL    HW315687   5.731   0.655   3.033  0.2724  1.8977 -0.1079
 3980SOL    MW415688   5.653   0.659   3.071 -0.0592  0.1634 -0.2403
 3981SOL     OW15689   4.899   4.016   4.872  0.1921  0.3621  0.3331
 3981SOL    HW215690   4.808   4.010   4.901  0.0672  1.4220  0.1991
 3981SOL    HW315691   4.897   4.075   4.797  1.1005  1.0663  0.8433
 3981SOL    MW415692   4.887   4.023   4.866 -0.0241 -0.4318  0.1639
 3982SOL     OW15693   2.113   3.620   2.231  0.0685  0.4016  0.3103
 3982SOL    HW215694   2.129   3.712   2.207  1.7920  0.0031 -0.1664
 3982SOL    HW315695   2.121   3.572   2.149 -0.3851 -0.2416  0.6374
 3982SOL    MW415696   2.116   3.626   2.217  0.0314 -0.0808  0.7680
 3983SOL     OW15697   6.024   3.672   2.987 -0.0489 -0.1860  0.9163
 3983SOL    HW215698   6.072   3.639   3.063  2.1518 -0.5911 -0.5452
 3983SOL    HW315699   6.061   3.759   2.972  0.6454 -0.7098 -0.5467
 3983SOL    MW415700   6.035   3.679   2.995 -0.0431  0.3527 -0.4316
 3984SOL     OW15701   0.275   3.742   5.457 -0.1655 -0.3887 -0.4920
 3984SOL    HW215702   0.232   3.674   5.509 -0.0121  0.1547  0.3712
 3984SOL    HW315703   0.205   3.803   5.434  0.3237  1.5771  2.6038
 3984SOL    MW415704   0.260   3.741   5.461 -0.0136  0.1585 -0.4172
 3985SOL     OW15705   1.874   5.479   4.117  0.2257 -0.1264  0.2817
 3985SOL    HW215706   1.858   5.391   4.151 -0.9478  0.3374  0.9638
 3985SOL    HW315707   1.897   5.531   4.194  0.6342  0.2417 -0.0791
 3985SOL    MW415708   1.875   5.474   4.132  0.0424  0.0372 -0.6388
 3986SOL     OW15709   5.721   2.600   6.321 -0.3745  0.6187 -0.3141
 3986SOL    HW215710   5.747   2.679   6.274  3.5478  0.0442  0.5735
 3986SOL    HW315711   5.689   2.631   6.405 -1.0951  1.3318 -0.8397
 3986SOL    MW415712   5.720   2.615   6.326  0.2534  0.0115 -0.3045
 3987SOL     OW15713   0.912   2.750   3.076 -0.5896 -0.2598 -0.4107
 3987SOL    HW215714   0.876   2.691   3.011  0.5109  0.5752 -1.8436
 3987SOL    HW315715   0.923   2.696   3.154 -0.2109 -1.7836 -1.4707
 3987SOL    MW415716   0.909   2.735   3.078 -0.1029 -0.5391  0.0305
 3988SOL     OW15717   5.094   4.110   2.930  0.0764 -0.2455  0.2121
 3988SOL    HW215718   5.112   4.120   3.024  0.9399 -0.8264  0.1253
 3988SOL    HW315719   5.160   4.165   2.887  0.6895 -1.1799 -0.0814
 3988SOL    MW415720   5.105   4.119   2.937 -0.2200  0.0827 -0.1033
 3989SOL     OW15721   1.052   2.207   1.733  0.1673 -0.0806 -0.9109
 3989SOL    HW215722   1.056   2.132   1.791  0.2798  2.0151  1.9866
 3989SOL    HW315723   1.140   2.243   1.734  0.0643  0.2616 -2.0896
 3989SOL    MW415724   1.064   2.202   1.741 -0.0915 -0.0156  0.1196
 3990SOL     OW15725   5.005   3.291   1.955 -0.1671 -0.4585  0.0587
 3990SOL    HW215726   5.056   3.334   1.887 -0.5027  0.1566  0.1853
 3990SOL    HW315727   4.941   3.238   1.908  1.7687 -2.8149 -0.1518
 3990SOL    MW415728   5.004   3.289   1.940  0.4563  0.1738  0.1960
 3991SOL     OW15729   1.439   0.223   4.169 -0.4680 -0.0737 -0.5142
 3991SOL    HW215730   1.477   0.222   4.081  0.2172  0.0078 -0.2289
 3991SOL    HW315731   1.484   0.153   4.216 -0.6268  0.0684 -0.1459
 3991SOL    MW415732   1.450   0.214   4.164  0.2129 -0.1928  0.5870
 3992SOL     OW15733   0.037   4.073   1.154  0.2218  0.4150 -0.5712
 3992SOL    HW215734   0.052   4.102   1.244  0.6491 -0.6760 -0.2739
 3992SOL    HW315735   0.034   4.154   1.103  1.8448  0.9748  0.1509
 3992SOL    MW415736   0.038   4.087   1.159 -0.6433  0.0097  0.6654
 3993SOL     OW15737   0.413   1.174   5.068 -0.1105  0.2725 -0.2716
 3993SOL    HW215738   0.478   1.104   5.058 -0.5769 -0.3738  0.9472
 3993SOL    HW315739   0.452   1.250   5.025  0.1559 -0.8754 -2.1858
 3993SOL    MW415740   0.427   1.175   5.061  0.1784 -0.7337 -0.2477
 3994SOL     OW15741   3.418   2.043   6.385  0.5976 -0.1658  0.0853
 3994SOL    HW215742   3.499   2.016   6.342  0.4539 -1.2527  0.4710
 3994SOL    HW315743   3.442   2.123   6.432  1.3283 -0.2116 -0.1949
 3994SOL    MW415744   3.432   2.050   6.386  0.3156  0.2985  0.2525
 3995SOL     OW15745   3.276   4.573   6.221  0.2946  0.1924  0.2680
 3995SOL    HW215746   3.363   4.611   6.211 -0.1908  1.0782 -0.8630
 3995SOL    HW315747   3.234   4.627   6.288  1.5008 -1.9622  2.9159
 3995SOL    MW415748   3.282   4.585   6.228 -0.4889 -0.0718  0.0316
 3996SOL     OW15749   5.734   2.741   2.531  0.0211 -0.3034 -0.1982
 3996SOL    HW215750   5.808   2.688   2.500  0.7340  0.4417  0.2105
 3996SOL    HW315751   5.685   2.762   2.451  0.1104 -0.9967 -0.4444
 3996SOL    MW415752   5.737   2.737   2.516  0.1603 -0.2834 -0.2035
 3997SOL     OW15753   3.924   5.856   1.888  0.6322  0.7107 -0.0075
 3997SOL    HW215754   3.994   5.901   1.841  1.1494  2.4960  2.2903
 3997SOL    HW315755   3.899   5.917   1.958 -0.2365 -1.6548  1.8935
 3997SOL    MW415756   3.930   5.870   1.891  0.3243 -0.5688 -0.2874
 3998SOL     OW15757   0.168   4.889   0.110  0.0696 -0.3878 -0.4476
 3998SOL    HW215758   0.098   4.914   0.050  1.2972 -1.0803 -2.2698
 3998SOL    HW315759   0.134   4.813   0.157 -1.2193  0.6609  0.3578
 3998SOL    MW415760   0.154   4.882   0.108 -0.1499 -0.1102  0.5077
 3999SOL     OW15761   0.903   1.513   0.911  0.3121 -0.0266  0.1163
 3999SOL    HW215762   0.811   1.530   0.893  0.6319  0.3043 -1.3778
 3999SOL    HW315763   0.919   1.427   0.874  0.5829 -0.1387  0.4874
 3999SOL    MW415764   0.893   1.504   0.904  0.0390 -0.0116 -0.2976
 4000SOL     OW15765   2.699   2.345   5.727 -0.4657 -0.0662 -0.2692
 4000SOL    HW215766   2.621   2.349   5.672  0.8579 -0.9539 -2.3176
 4000SOL    HW315767   2.696   2.425   5.779 -2.6049  0.0246 -0.4558
 4000SOL    MW415768   2.689   2.356   5.727 -0.6426  0.1272  0.0222
 4001SOL     OW15769   1.910   5.948   4.943  0.0989  0.0638  0.2286
 4001SOL    HW215770   1.951   5.872   4.986  2.6987  0.0307 -2.0251
 4001SOL    HW315771   1.977   6.016   4.945 -0.9353  1.1583 -0.8009
 4001SOL    MW415772   1.924   5.947   4.949 -0.0103 -0.2811 -0.7108
 4002SOL     OW15773   0.190   4.675   3.369  0.0066 -0.0321  1.2142
 4002SOL    HW215774   0.194   4.709   3.280 -1.9265  1.3599  1.5852
 4002SOL    HW315775   0.275   4.696   3.407  0.0172  1.5113  0.4005
 4002SOL    MW415776   0.202   4.682   3.362  0.0833  0.1900  0.0482
 4003SOL     OW15777   1.144   4.905   5.378  0.3723  0.7985  0.0377
 4003SOL    HW215778   1.119   4.817   5.406  1.1405  0.0145 -1.6266
 4003SOL    HW315779   1.233   4.916   5.412  0.6380  0.5442 -0.5674
 4003SOL    MW415780   1.153   4.895   5.386 -0.1798  0.6444 -0.3145
 4004SOL     OW15781   5.250   4.322   4.449  0.2424 -0.4380 -0.7356
 4004SOL    HW215782   5.195   4.400   4.444  0.5765 -0.2631 -2.1113
 4004SOL    HW315783   5.209   4.268   4.516 -0.1936  0.7681 -0.0051
 4004SOL    MW415784   5.237   4.325   4.457  0.3420  0.1935 -0.0964
 4005SOL     OW15785   1.363   2.085   5.584 -0.1461 -0.4945  0.1052
 4005SOL    HW215786   1.284   2.058   5.630 -0.4844 -0.4862 -0.4646
 4005SOL    HW315787   1.340   2.079   5.491  0.4222 -0.1993 -0.0582
 4005SOL    MW415788   1.349   2.081   5.577 -0.0997 -0.2324 -0.1801
 4006SOL     OW15789   3.558   6.163   1.176 -0.0793  0.2339  0.0549
 4006SOL    HW215790   3.498   6.237   1.172 -0.3722 -0.0052 -0.1366
 4006SOL    HW315791   3.523   6.108   1.247  1.3335  1.2749  1.6244
 4006SOL    MW415792   3.545   6.165   1.185  0.3012  0.1649  0.3665
 4007SOL     OW15793   0.317   1.466   6.418 -0.1349 -0.1455  0.4733
 4007SOL    HW215794   0.316   1.373   6.442 -0.5953  0.0482  1.2386
 4007SOL    HW315795   0.269   1.510   6.489  0.1545  0.6886  0.1661
 4007SOL    MW415796   0.311   1.460   6.431  0.2995 -0.3739  1.2946
 4008SOL     OW15797   0.573   0.368   2.097  0.0044  0.3829 -0.4597
 4008SOL    HW215798   0.513   0.309   2.143  1.5737 -0.2435  0.8897
 4008SOL    HW315799   0.652   0.368   2.151  1.9470 -0.2997 -3.1286
 4008SOL    MW415800   0.576   0.360   2.110 -0.6061  0.2173 -0.3545
 4009SOL     OW15801   4.670   0.472   4.509  0.0142 -0.4223 -0.1188
 4009SOL    HW215802   4.727   0.507   4.440 -0.9496  0.1738 -0.6310
 4009SOL    HW315803   4.621   0.401   4.467  0.5765 -1.1329  0.4006
 4009SOL    MW415804   4.671   0.467   4.495  0.0309  0.3363 -0.2273
 4010SOL     OW15805   1.723   6.305   3.548 -0.5053 -0.2260 -0.4734
 4010SOL    HW215806   1.731   6.212   3.527 -0.2776  0.0228 -1.5199
 4010SOL    HW315807   1.631   6.326   3.531 -0.1565  0.1502 -2.0258
 4010SOL    MW415808   1.712   6.295   3.543 -0.3091 -0.7926  0.0155
 4011SOL     OW15809   2.064   6.152   3.622 -0.2745  0.2835  0.2607
 4011SOL    HW215810   2.102   6.076   3.578  0.7142 -1.2458  3.4376
 4011SOL    HW315811   2.138   6.207   3.646 -0.8964  1.7552 -1.0152
 4011SOL    MW415812   2.079   6.149   3.619  0.5634  0.2992 -0.0572
 4012SOL     OW15813   1.187   5.085   1.650 -0.5964  0.1436  0.0030
 4012SOL    HW215814   1.127   5.148   1.611 -0.3606 -0.8576 -2.0632
 4012SOL    HW315815   1.132   5.010   1.674 -0.6066  0.4146  0.8709
 4012SOL    MW415816   1.172   5.083   1.648 -0.3092 -0.1879  0.0846
 4013SOL     OW15817   1.012   0.645   5.946  0.0923 -0.0457 -0.0868
 4013SOL    HW215818   1.046   0.698   6.017 -1.0194  2.4538 -1.2854
 4013SOL    HW315819   1.090   0.610   5.902  0.8919  0.8276  0.5981
 4013SOL    MW415820   1.027   0.647   5.949 -0.5532 -0.1338  0.6360
 4014SOL     OW15821   0.396   0.429   0.951  0.1392 -0.8920 -0.0538
 4014SOL    HW215822   0.342   0.443   1.029 -1.4923 -1.3209 -1.0494
 4014SOL    HW315823   0.482   0.403   0.985  0.2698  1.4315  1.6421
 4014SOL    MW415824   0.400   0.428   0.966  0.0478 -0.4113 -0.6635
 4015SOL     OW15825   5.916   4.806   2.789  0.1248 -0.3364 -0.3888
 4015SOL    HW215826   5.829   4.830   2.755  0.4696 -0.5059 -1.4318
 4015SOL    HW315827   5.897   4.749   2.864 -0.6658  0.3356 -0.0550
 4015SOL    MW415828   5.902   4.801   2.795  0.2898 -0.2138 -0.4137
 4016SOL     OW15829   2.695   5.555   0.979  0.3904  0.1709  0.4931
 4016SOL    HW215830   2.685   5.536   1.072  0.2531 -1.1742  0.2197
 4016SOL    HW315831   2.768   5.617   0.975  1.7898 -1.3432  1.3565
 4016SOL    MW415832   2.704   5.561   0.991 -0.4026  0.5033  0.4655
 4017SOL     OW15833   0.806   1.586   0.495 -0.1942  0.5241 -0.2314
 4017SOL    HW215834   0.799   1.536   0.576  1.0511 -0.0937 -0.4751
 4017SOL    HW315835   0.901   1.597   0.482 -0.4107  2.2924 -0.5933
 4017SOL    MW415836   0.818   1.581   0.504 -0.0483 -0.1369 -0.5778
 4018SOL     OW15837   0.030   2.499   1.456  0.7309  0.1251 -0.1638
 4018SOL    HW215838   0.032   2.489   1.552  1.3298 -0.5823 -0.2399
 4018SOL    HW315839   0.095   2.436   1.424 -2.3408 -2.8245 -1.2625
 4018SOL    MW415840   0.039   2.489   1.465 -0.0465  0.0046  0.1184
 4019SOL     OW15841   3.911   5.804   0.488  0.3025  0.5126  0.2969
 4019SOL    HW215842   3.871   5.818   0.402 -1.1441  1.7333  1.0970
 4019SOL    HW315843   4.005   5.805   0.472  0.0612 -0.2455 -1.3854
 4019SOL    MW415844   3.918   5.806   0.474 -0.0703  0.3563  0.3899
 4020SOL     OW15845   4.542   5.115   3.238 -0.0977  0.0467  0.0945
 4020SOL    HW215846   4.568   5.096   3.328 -1.2861 -1.2537  0.1911
 4020SOL    HW315847   4.596   5.057   3.185  0.0409  0.2478  0.0139
 4020SOL    MW415848   4.552   5.105   3.243  0.0457  0.5742 -0.4960
 4021SOL     OW15849   2.969   1.258   1.860 -0.3106 -0.0781 -0.6643
 4021SOL    HW215850   2.968   1.186   1.923  1.7439  1.5772  1.4031
 4021SOL    HW315851   3.053   1.249   1.815 -1.0233 -0.2290 -2.0326
 4021SOL    MW415852   2.980   1.247   1.862  0.3237  0.4669 -0.0764
 4022SOL     OW15853   3.502   0.197   5.781 -0.0525 -0.3315 -0.1135
 4022SOL    HW215854   3.459   0.133   5.724  1.2916 -0.1338 -1.4235
 4022SOL    HW315855   3.495   0.159   5.869 -2.1094 -0.6760 -0.3847
 4022SOL    MW415856   3.496   0.183   5.785  0.3305  0.3232 -0.1093
 4023SOL     OW15857   3.676   2.834   1.353 -0.1523  0.3922  0.3253
 4023SOL    HW215858   3.658   2.861   1.443 -0.2058  0.9486  0.1541
 4023SOL    HW315859   3.698   2.741   1.359  2.2484  0.9537  1.2186
 4023SOL    MW415860   3.676   2.826   1.366  0.3340  0.1271 -0.0831
 4024SOL     OW15861   0.409   1.576   4.756  0.1978 -0.5122 -0.2306
 4024SOL    HW215862   0.321   1.591   4.722  0.1050 -0.9359 -0.1809
 4024SOL    HW315863   0.426   1.653   4.811 -0.3638 -0.6862  0.2073
 4024SOL    MW415864   0.400   1.589   4.759  0.4590 -0.5627  0.0273
 4025SOL     OW15865   6.147   4.813   3.035 -0.3348  0.4320  0.1438
 4025SOL    HW215866   6.223   4.759   3.012 -0.2663  0.9059 -0.7971
 4025SOL    HW315867   6.159   4.832   3.128 -0.8186 -1.8518  0.7333
 4025SOL    MW415868   6.159   4.809   3.044  0.2952  0.2081 -0.3366
 4026SOL     OW15869   4.549   1.160   2.503 -0.4490 -0.2761 -0.2385
 4026SOL    HW215870   4.503   1.235   2.541 -0.2268 -0.8264  1.1765
 4026SOL    HW315871   4.511   1.084   2.547  3.0318 -0.6726  2.5372
 4026SOL    MW415872   4.538   1.160   2.514  0.4565  0.5451 -0.5860
 4027SOL     OW15873   3.148   6.348   5.844 -0.1347 -0.0118  0.2052
 4027SOL    HW215874   3.129   6.280   5.910 -0.3318  0.6017  0.7885
 4027SOL    HW315875   3.068   6.354   5.792 -0.5351  0.5518  0.8612
 4027SOL    MW415876   3.135   6.339   5.846  0.0900  0.2817  0.4417
 4028SOL     OW15877   2.646   2.370   1.120 -0.4110 -0.4568 -0.1264
 4028SOL    HW215878   2.584   2.315   1.168 -1.8248  2.9067  2.3968
 4028SOL    HW315879   2.717   2.387   1.182 -0.9658  1.9097 -0.0165
 4028SOL    MW415880   2.647   2.365   1.135  0.0781  0.3516  0.5719
 4029SOL     OW15881   4.622   1.785   4.293 -0.1558 -0.1755 -0.0960
 4029SOL    HW215882   4.705   1.832   4.289  0.4545 -1.2721 -0.6146
 4029SOL    HW315883   4.611   1.764   4.386 -1.0648  2.0303  0.3580
 4029SOL    MW415884   4.632   1.789   4.305 -0.3845  0.1224 -0.1640
 4030SOL     OW15885   4.485   0.621   4.693 -0.0621 -0.1748  0.4072
 4030SOL    HW215886   4.441   0.539   4.715 -1.3576  0.4130  0.1081
 4030SOL    HW315887   4.558   0.595   4.637 -1.8287 -0.9726 -1.6673
 4030SOL    MW415888   4.488   0.607   4.689 -0.1826 -0.8172  0.0560
 4031SOL     OW15889   5.721   1.611   3.136 -0.5631  0.3590  0.2585
 4031SOL    HW215890   5.806   1.650   3.117 -0.9889  1.7340  1.0170
 4031SOL    HW315891   5.712   1.619   3.231 -1.5896  0.3711  0.1722
 4031SOL    MW415892   5.731   1.617   3.146  0.2260  0.1403  0.3319
 4032SOL     OW15893   0.636   5.939   2.512  0.3958 -0.4546 -0.0993
 4032SOL    HW215894   0.561   5.998   2.508 -0.0075 -0.9733 -0.2684
 4032SOL    HW315895   0.599   5.854   2.536  1.0295 -0.5383  0.6165
 4032SOL    MW415896   0.622   5.935   2.514  0.0814 -0.5135 -0.0434
 4033SOL     OW15897   2.076   3.357   5.194  0.2579  0.3330 -0.0063
 4033SOL    HW215898   2.012   3.385   5.260 -0.2696  0.0158 -0.3756
 4033SOL    HW315899   2.159   3.352   5.242 -0.2655 -0.6630  0.8206
 4033SOL    MW415900   2.078   3.360   5.209 -0.6143  0.3881 -0.1343
 4034SOL     OW15901   5.392   3.959   2.661 -0.1079 -0.1762 -0.2360
 4034SOL    HW215902   5.486   3.965   2.640  0.0498 -3.3199 -0.8885
 4034SOL    HW315903   5.390   3.930   2.752 -0.5528  1.2621  0.2510
 4034SOL    MW415904   5.404   3.956   2.670 -0.8414  0.2008  0.2094
 4035SOL     OW15905   2.222   3.315   1.061 -0.2378  0.2166 -0.1339
 4035SOL    HW215906   2.239   3.290   1.152 -0.4863 -0.1800 -0.1931
 4035SOL    HW315907   2.138   3.274   1.040 -1.2778  2.1024  0.1437
 4035SOL    MW415908   2.213   3.306   1.070  0.4729  0.2755 -0.4481
 4036SOL     OW15909   4.670   2.039   4.530  0.4663 -0.6658 -0.4009
 4036SOL    HW215910   4.707   2.048   4.618 -0.2358 -0.8032 -0.0862
 4036SOL    HW315911   4.685   2.124   4.489 -2.0793  0.5920  0.9953
 4036SOL    MW415912   4.677   2.051   4.536 -0.6589  0.5794  0.0049
 4037SOL     OW15913   0.267   6.197   4.446  0.0202 -0.2429  0.3243
 4037SOL    HW215914   0.300   6.163   4.363  1.8486  0.4845  0.7038
 4037SOL    HW315915   0.249   6.290   4.428  1.9926  0.3446  1.0930
 4037SOL    MW415916   0.269   6.205   4.433  0.0049 -0.1540  0.1591
 4038SOL     OW15917   4.428   2.854   1.121  0.2520 -0.1000  0.6271
 4038SOL    HW215918   4.386   2.805   1.050 -1.9698  1.7892  0.5283
 4038SOL    HW315919   4.518   2.868   1.091  0.0292 -1.3429 -0.7345
 4038SOL    MW415920   4.434   2.849   1.108 -0.3704  0.2323 -0.0621
 4039SOL     OW15921   1.917   0.263   0.151  0.4038 -0.4974 -0.3965
 4039SOL    HW215922   1.948   0.305   0.071  0.3450  1.4434  0.5357
 4039SOL    HW315923   1.997   0.230   0.194  0.6916  0.4416 -0.1957
 4039SOL    MW415924   1.932   0.264   0.146  0.5833 -0.1638  0.1891
 4040SOL     OW15925   4.594   4.800   2.689 -0.0963 -1.0561  0.0480
 4040SOL    HW215926   4.662   4.733   2.692  0.5589 -0.3745  1.3202
 4040SOL    HW315927   4.623   4.861   2.621  0.8638 -0.4944  0.9363
 4040SOL    MW415928   4.607   4.800   2.680 -0.0318  0.1154  0.2799
 4041SOL     OW15929   3.029   3.090   1.667  0.2114 -0.2540 -0.0422
 4041SOL    HW215930   3.055   3.158   1.729  0.6923  0.5412 -1.0826
 4041SOL    HW315931   3.095   3.095   1.598 -0.6248 -0.7386 -0.8986
 4041SOL    MW415932   3.041   3.100   1.666  0.3018  0.0518  0.2309
 4042SOL     OW15933   1.157   3.244   3.785 -0.7467  0.5048 -0.0103
 4042SOL    HW215934   1.219   3.202   3.844 -0.6345  0.6539 -0.0211
 4042SOL    HW315935   1.088   3.179   3.771 -0.7548  0.4560  0.2541
 4042SOL    MW415936   1.156   3.230   3.791 -0.1876  0.6103 -0.6686
 4043SOL     OW15937   4.398   2.222   4.157 -0.3748  0.1136 -0.2656
 4043SOL    HW215938   4.489   2.240   4.181 -1.2153  2.1889  1.6379
 4043SOL    HW315939   4.393   2.243   4.064  0.6634  1.9007  0.0505
 4043SOL    MW415940   4.409   2.227   4.148  0.4691 -0.4617 -0.2359
 4044SOL     OW15941   0.039   0.685   1.147  0.4443 -0.1962  0.3194
 4044SOL    HW215942   0.054   0.616   1.083  2.5938  0.4677  0.0281
 4044SOL    HW315943   0.064   0.646   1.231  0.6349 -0.1002  0.3072
 4044SOL    MW415944   0.045   0.671   1.150  0.6043  0.2548  0.2754
 4045SOL     OW15945   5.883   0.223   5.452  0.1948 -0.4729  0.6978
 4045SOL    HW215946   5.787   0.221   5.446  0.1174  1.1389  0.8486
 4045SOL    HW315947   5.907   0.304   5.407  1.6266 -1.6118 -0.6839
 4045SOL    MW415948   5.873   0.234   5.445 -0.3580  0.2106  0.1793
 4046SOL     OW15949   4.596   0.169   0.186  0.5746 -0.3311 -0.1276
 4046SOL    HW215950   4.596   0.074   0.187  1.1491 -0.3343  0.9519
 4046SOL    HW315951   4.656   0.192   0.115 -0.0392 -0.7531 -0.7995
 4046SOL    MW415952   4.604   0.160   0.176  0.3343  0.1535  0.0782
 4047SOL     OW15953   0.374   5.042   0.669 -0.0983  0.2649 -0.3871
 4047SOL    HW215954   0.351   5.014   0.757 -1.4731 -0.2990 -0.8961
 4047SOL    HW315955   0.376   4.961   0.618 -0.4325  0.6984 -1.1000
 4047SOL    MW415956   0.371   5.028   0.674  0.1590  0.1845  0.0285
 4048SOL     OW15957   3.772   4.856   0.980 -0.0398 -0.1536  0.7483
 4048SOL    HW215958   3.856   4.820   0.951 -0.9145 -0.7464 -1.2238
 4048SOL    HW315959   3.778   4.949   0.963  0.7909  0.0832  2.1792
 4048SOL    MW415960   3.784   4.863   0.974 -0.3520 -0.4265 -0.1417
 4049SOL     OW15961   3.185   3.503   2.446 -0.4829  0.3617  0.3141
 4049SOL    HW215962   3.258   3.472   2.499  0.4207  2.7652  0.6250
 4049SOL    HW315963   3.108   3.465   2.487  0.3585  0.4744  2.0954
 4049SOL    MW415964   3.185   3.494   2.458 -0.0981  0.0248  0.5396
 4050SOL     OW15965   3.796   1.242   5.653 -0.1093 -0.0267 -0.1061
 4050SOL    HW215966   3.882   1.261   5.690  0.6281  1.6472 -2.4621
 4050SOL    HW315967   3.771   1.323   5.608 -2.7793 -0.5915  0.1895
 4050SOL    MW415968   3.804   1.255   5.652 -0.0964 -0.1559  0.1357
 4051SOL     OW15969   3.141   1.957   4.928 -0.0537  0.0729 -0.4365
 4051SOL    HW215970   3.100   1.985   4.846 -1.7433 -0.2047  0.2704
 4051SOL    HW315971   3.137   1.861   4.926 -1.3172  0.0819  0.5226
 4051SOL    MW415972   3.135   1.948   4.917  0.2253  0.3892 -0.0483
 4052SOL     OW15973   0.262   5.569   3.710 -0.6737  0.3175 -0.1738
 4052SOL    HW215974   0.262   5.497   3.647  0.1453  0.9863 -0.9666
 4052SOL    HW315975   0.340   5.619   3.689 -0.1408  0.3262  1.6775
 4052SOL    MW415976   0.272   5.566   3.699  0.0550  0.1730 -0.0967
 4053SOL     OW15977   2.018   3.199   0.054 -0.2799 -0.1171 -0.0266
 4053SOL    HW215978   2.033   3.277   0.108 -3.0165 -0.0725  0.8290
 4053SOL    HW315979   2.039   3.126   0.113  0.3432 -0.0647 -0.1721
 4053SOL    MW415980   2.023   3.199   0.069  0.3297  0.1886 -0.2635
 4054SOL     OW15981   1.180   3.093   0.070  0.1856 -0.1604 -0.0912
 4054SOL    HW215982   1.138   3.024   0.020 -1.5711 -0.1072  1.2010
 4054SOL    HW315983   1.180   3.061   0.160  2.5606  0.0576  0.0316
 4054SOL    MW415984   1.174   3.080   0.075 -0.1498 -0.1921 -0.5197
 4055SOL     OW15985   2.756   3.925   3.785  0.3154 -0.3544 -0.2808
 4055SOL    HW215986   2.789   3.899   3.871 -0.3901  2.4722  0.9805
 4055SOL    HW315987   2.661   3.934   3.797  0.4261  2.2290 -0.5858
 4055SOL    MW415988   2.748   3.923   3.798 -0.5401  0.4381  0.8129
 4056SOL     OW15989   4.458   5.038   0.787 -0.1150  0.1446  0.4409
 4056SOL    HW215990   4.395   5.011   0.720  0.8685 -0.5895 -0.2189
 4056SOL    HW315991   4.544   5.024   0.747  0.4862  1.5750  1.1372
 4056SOL    MW415992   4.461   5.032   0.773 -0.4552 -0.0524  0.0925
 4057SOL     OW15993   4.332   1.629   5.059 -0.8972 -0.2607  1.0033
 4057SOL    HW215994   4.422   1.601   5.074 -0.3538  0.6974 -0.2957
 4057SOL    HW315995   4.320   1.706   5.114 -0.9282 -0.3918  1.1802
 4057SOL    MW415996   4.342   1.635   5.068  0.2856  0.1487 -0.5867
 4058SOL     OW15997   2.040   3.015   3.694  0.1442 -0.4818  0.0254
 4058SOL    HW215998   2.048   2.980   3.782  0.9395  1.2237  0.6719
 4058SOL    HW315999   2.125   3.056   3.676 -0.2417 -0.1812 -1.2556
 4058SOL    MW416000   2.052   3.016   3.703 -0.3136  0.1721  0.5582
 4059SOL     OW16001   5.638   4.860   2.729  0.5289  0.0903  0.0762
 4059SOL    HW216002   5.564   4.907   2.690  0.2843 -0.5867 -0.2847
 4059SOL    HW316003   5.601   4.779   2.762  0.8214  0.4351  1.3207
 4059SOL    MW416004   5.624   4.856   2.728  0.0314 -0.0063 -0.0260
 4060SOL     OW16005   6.005   1.739   0.953 -0.0743 -0.2298  0.1828
 4060SOL    HW216006   6.005   1.726   0.858 -1.8534  0.8347 -0.0210
 4060SOL    HW316007   6.080   1.795   0.970 -0.2544  0.2971 -0.7245
 4060SOL    MW416008   6.015   1.744   0.942  0.0826  0.3859  0.7577
 4061SOL     OW16009   2.210   1.298   3.866  0.2244  0.0945  0.2233
 4061SOL    HW216010   2.153   1.249   3.806 -0.6302 -0.3666  1.3686
 4061SOL    HW316011   2.223   1.383   3.824  1.7928 -1.0851 -1.8568
 4061SOL    MW416012   2.204   1.303   3.852  0.6657 -0.1044 -0.6883
 4062SOL     OW16013   3.892   2.685   1.930  0.0716  0.5901 -0.5088
 4062SOL    HW216014   3.968   2.638   1.964  0.1866  0.5840 -0.7743
 4062SOL    HW316015   3.920   2.776   1.926  0.1523  0.5484 -0.8606
 4062SOL    MW416016   3.905   2.691   1.934 -0.2974 -0.3786 -0.1283
 4063SOL     OW16017   5.300   1.892   5.108 -0.1289 -0.9256  0.0819
 4063SOL    HW216018   5.287   1.810   5.060  0.5816 -0.9556 -0.0584
 4063SOL    HW316019   5.249   1.957   5.058 -0.7778 -1.2938  0.2525
 4063SOL    MW416020   5.291   1.890   5.095  0.0052 -0.2987 -0.1196
 4064SOL     OW16021   4.851   4.684   6.254  0.5093  0.1580  0.1324
 4064SOL    HW216022   4.766   4.721   6.281  0.2069 -0.1763 -0.3500
 4064SOL    HW316023   4.843   4.590   6.274  1.2074  0.3028  1.1870
 4064SOL    MW416024   4.838   4.676   6.260  0.9883  0.0523  0.3770
 4065SOL     OW16025   1.915   2.146   6.043  0.1261  0.5523  0.0192
 4065SOL    HW216026   1.997   2.096   6.043 -0.5957 -0.7625 -2.7995
 4065SOL    HW316027   1.846   2.081   6.057 -0.5973  1.3608  0.3216
 4065SOL    MW416028   1.917   2.131   6.045 -0.4067 -0.2908  0.1138
 4066SOL     OW16029   2.958   5.403   3.694 -0.0930  0.6419  0.1240
 4066SOL    HW216030   3.015   5.366   3.626  1.1509  0.6511  1.1247
 4066SOL    HW316031   2.900   5.330   3.718 -0.9194  0.7923 -1.2936
 4066SOL    MW416032   2.958   5.388   3.688 -0.9908 -0.0193  0.8186
 4067SOL     OW16033   1.763   3.539   2.739 -0.2487  0.5190 -0.0626
 4067SOL    HW216034   1.830   3.605   2.720 -0.8980  1.1328 -0.2580
 4067SOL    HW316035   1.682   3.576   2.705 -0.6911 -0.2329  0.1370
 4067SOL    MW416036   1.761   3.552   2.732  0.1134  0.4108  0.0979
 4068SOL     OW16037   2.920   0.790   6.273  0.2872  0.1525 -0.1003
 4068SOL    HW216038   2.911   0.696   6.257 -1.3027  0.2606 -0.0076
 4068SOL    HW316039   2.842   0.813   6.324  1.0802  1.3652  0.5938
 4068SOL    MW416040   2.908   0.781   6.277  0.3097 -0.5125  0.2310
 4069SOL     OW16041   1.128   3.689   2.500 -0.0921  0.2752  0.1897
 4069SOL    HW216042   1.171   3.703   2.585 -0.7511 -1.2148  0.7964
 4069SOL    HW316043   1.193   3.641   2.448  0.2317  1.0030 -0.0912
 4069SOL    MW416044   1.142   3.685   2.504  0.3062 -0.0079  0.3122
 4070SOL     OW16045   2.923   3.909   1.087 -0.0974  0.2712 -0.1137
 4070SOL    HW216046   2.901   3.824   1.125 -0.6727  0.9453  1.1272
 4070SOL    HW316047   2.906   3.899   0.993 -2.3260 -0.3129  0.3071
 4070SOL    MW416048   2.918   3.896   1.079 -0.0530  0.0900  0.0933
 4071SOL     OW16049   4.982   0.865   5.705  0.4913  0.6296 -0.9881
 4071SOL    HW216050   4.894   0.836   5.679  0.5247  0.7559 -1.2522
 4071SOL    HW316051   5.029   0.785   5.725  1.0902  0.3367 -3.3086
 4071SOL    MW416052   4.977   0.851   5.704  0.5565 -0.3190  0.5493
 4072SOL     OW16053   6.174   5.428   2.200 -0.3801  0.0815 -0.1561
 4072SOL    HW216054   6.159   5.429   2.294 -2.5360  1.9443 -0.4222
 4072SOL    HW316055   6.090   5.456   2.162  0.5587 -0.1686 -2.6055
 4072SOL    MW416056   6.161   5.432   2.207  0.0826  0.3644  0.0329
 4073SOL     OW16057   2.387   1.351   4.652  0.7625  0.0967  0.6222
 4073SOL    HW216058   2.311   1.387   4.606  1.5787  2.0893  0.7350
 4073SOL    HW316059   2.353   1.273   4.696 -0.5604 -0.6153 -1.4980
 4073SOL    MW416060   2.372   1.345   4.651 -0.2092 -0.0703  0.1429
 4074SOL     OW16061   5.946   5.913   5.608 -0.0190  0.3452 -0.1980
 4074SOL    HW216062   5.965   6.002   5.577  1.2315  0.3717  0.5335
 4074SOL    HW316063   5.866   5.888   5.563 -0.5515  1.9541 -0.2121
 4074SOL    MW416064   5.938   5.921   5.598  0.0738  0.3595  0.4731
 4075SOL     OW16065   2.948   4.307   1.534  0.4104 -0.4339  0.1294
 4075SOL    HW216066   2.884   4.371   1.503 -0.5158 -0.8708  1.0874
 4075SOL    HW316067   2.901   4.224   1.536  1.2109 -0.8994  0.1766
 4075SOL    MW416068   2.933   4.304   1.530  0.3012  0.0912 -0.1290
 4076SOL     OW16069   5.805   4.190   3.528 -0.5654  0.1061  0.8969
 4076SOL    HW216070   5.741   4.256   3.553 -0.2990  1.0007 -0.6199
 4076SOL    HW316071   5.757   4.107   3.532 -2.4551  0.9098 -1.9510
 4076SOL    MW416072   5.790   4.187   3.532  0.3062  0.1933  0.0666
 4077SOL     OW16073   5.337   3.186   3.090 -0.2574  0.5441  0.1580
 4077SOL    HW216074   5.310   3.095   3.078  0.9013  0.2485 -0.3822
 4077SOL    HW316075   5.432   3.185   3.075 -0.0825  1.6869  1.0323
 4077SOL    MW416076   5.346   3.174   3.086  0.1793 -0.4104 -0.3267
 4078SOL     OW16077   2.283   0.249   5.754 -0.5556  0.0704 -0.0567
 4078SOL    HW216078   2.345   0.223   5.686  0.1799  0.6684  0.3739
 4078SOL    HW316079   2.206   0.193   5.739  0.2049 -0.9095 -0.3968
 4078SOL    MW416080   2.281   0.238   5.743  0.8697  0.5273  0.5255
 4079SOL     OW16081   0.605   6.475   0.255 -0.0947 -0.0492  0.1274
 4079SOL    HW216082   0.590   6.553   0.307 -0.9352  0.1248 -0.3672
 4079SOL    HW316083   0.522   6.457   0.211  0.7800  0.2872 -1.7979
 4079SOL    MW416084   0.592   6.483   0.256 -0.6576 -0.2094 -0.2781
 4080SOL     OW16085   5.435   3.167   4.649 -0.0517 -0.1420 -0.0379
 4080SOL    HW216086   5.515   3.221   4.656 -0.3284  0.2368  0.2403
 4080SOL    HW316087   5.365   3.226   4.676 -0.2309 -0.9781  1.3491
 4080SOL    MW416088   5.437   3.182   4.653 -0.2421 -0.0896 -0.2100
 4081SOL     OW16089   4.504   1.656   2.909  0.1892  0.2487  0.2633
 4081SOL    HW216090   4.481   1.743   2.875  1.0218  0.8647  1.2201
 4081SOL    HW316091   4.582   1.631   2.859  1.4243  1.1624  1.6354
 4081SOL    MW416092   4.511   1.664   2.897 -0.1641  0.3737 -0.4784
 4082SOL     OW16093   3.730   5.423   0.323  0.1839  0.2741 -0.2048
 4082SOL    HW216094   3.807   5.367   0.331 -0.4693 -0.3111  3.1512
 4082SOL    HW316095   3.746   5.494   0.385 -0.6719  1.8443 -1.6934
 4082SOL    MW416096   3.742   5.425   0.332 -0.0551  0.2743 -0.2321
 4083SOL     OW16097   0.033   4.633   0.288  0.7920 -0.1841  0.3284
 4083SOL    HW216098   0.126   4.628   0.266  0.6475 -0.9027 -0.1440
 4083SOL    HW316099   0.018   4.560   0.348  0.1339 -1.2971 -1.1308
 4083SOL    MW416100   0.043   4.623   0.293 -0.0317  0.0942 -0.1959
 4084SOL     OW16101   1.046   6.363   2.751 -0.0144 -0.5264 -0.8627
 4084SOL    HW216102   1.086   6.276   2.742 -1.3844 -1.2222 -0.4536
 4084SOL    HW316103   1.047   6.380   2.845 -0.2503 -0.3457 -0.8920
 4084SOL    MW416104   1.052   6.354   2.762 -0.0985 -0.4257 -0.3300
 4085SOL     OW16105   3.082   1.097   0.831 -0.4723 -0.2875 -0.4492
 4085SOL    HW216106   3.093   1.187   0.864  0.7164 -0.1890 -1.0520
 4085SOL    HW316107   3.148   1.089   0.762 -0.0401 -1.8627  0.1016
 4085SOL    MW416108   3.092   1.108   0.826 -1.0050  0.1086  0.8956
 4086SOL     OW16109   1.795   1.820   2.111 -0.4453 -0.2535  0.4388
 4086SOL    HW216110   1.706   1.787   2.122 -0.3923  0.1259  2.3349
 4086SOL    HW316111   1.836   1.761   2.048 -2.4156  0.3608 -1.5526
 4086SOL    MW416112   1.789   1.808   2.104 -0.6916  0.0380 -0.1362
 4087SOL     OW16113   1.478   5.456   2.251 -0.3271 -0.3514  0.5866
 4087SOL    HW216114   1.502   5.517   2.182 -1.2496  0.3585  0.8748
 4087SOL    HW316115   1.496   5.369   2.214  1.0153  0.0740  0.1808
 4087SOL    MW416116   1.483   5.452   2.237 -0.1025  0.2488  0.1867
 4088SOL     OW16117   1.425   3.484   1.944 -0.5867  0.7166 -0.6214
 4088SOL    HW216118   1.385   3.549   1.887 -2.3511 -0.7423 -1.1256
 4088SOL    HW316119   1.391   3.400   1.913  0.8914 -0.3846  0.5915
 4088SOL    MW416120   1.415   3.481   1.932 -0.3795 -0.2385 -0.0834
 4089SOL     OW16121   1.983   1.830   3.719  0.3542  0.1654  0.0732
 4089SOL    HW216122   1.952   1.802   3.804 -0.8347 -0.4725 -0.5550
 4089SOL    HW316123   2.048   1.898   3.738 -0.4889  0.6128  1.4554
 4089SOL    MW416124   1.988   1.835   3.732  0.2851 -0.0766  0.5058
 4090SOL     OW16125   2.433   3.351   5.860 -0.1204  0.4924 -0.0717
 4090SOL    HW216126   2.418   3.334   5.953  1.8763 -2.0764 -0.1142
 4090SOL    HW316127   2.465   3.442   5.857 -1.9882  1.2657  1.4586
 4090SOL    MW416128   2.436   3.361   5.872 -0.1306  0.4567 -0.2099
 4091SOL     OW16129   1.389   1.727   3.310  0.2914 -0.1767 -0.0398
 4091SOL    HW216130   1.446   1.678   3.370 -0.9260 -0.9467  0.5267
 4091SOL    HW316131   1.366   1.663   3.242 -1.7932 -0.6571  1.0247
 4091SOL    MW416132   1.394   1.712   3.309  0.0703  0.3767  0.0907
 4092SOL     OW16133   4.308   0.263   6.136 -0.3500  0.0453  0.6811
 4092SOL    HW216134   4.258   0.203   6.080 -0.5231 -0.2232  1.1239
 4092SOL    HW316135   4.381   0.291   6.081  0.6181 -1.7752  0.9789
 4092SOL    MW416136   4.311   0.259   6.121  0.0320 -0.3809 -0.3919
 4093SOL     OW16137   2.592   0.687   0.680  0.0339 -0.1850  0.3087
 4093SOL    HW216138   2.685   0.665   0.668  0.5084  1.8534 -0.0949
 4093SOL    HW316139   2.563   0.629   0.751  2.5295  1.3745  2.8365
 4093SOL    MW416140   2.600   0.677   0.688  0.1473  0.2310  0.1235
 4094SOL     OW16141   1.376   0.127   0.660 -0.1788  0.2204 -0.2603
 4094SOL    HW216142   1.421   0.156   0.740 -0.6276  1.1806 -0.3342
 4094SOL    HW316143   1.324   0.051   0.688 -1.2222  1.2316  0.6596
 4094SOL    MW416144   1.375   0.121   0.674  0.3189 -0.5218 -0.3136
 4095SOL     OW16145   0.675   5.677   3.442 -0.2771 -0.3700 -0.1432
 4095SOL    HW216146   0.635   5.631   3.368 -1.9463  0.6029  0.0947
 4095SOL    HW316147   0.673   5.614   3.514  0.6919 -1.0753 -0.7216
 4095SOL    MW416148   0.669   5.663   3.442  0.7440  0.2625 -0.2086
 4096SOL     OW16149   5.347   6.084   2.890 -0.4791 -0.2700 -0.4184
 4096SOL    HW216150   5.436   6.102   2.857  0.2189  0.3317  1.6385
 4096SOL    HW316151   5.332   5.992   2.868 -0.1235  0.1074 -2.4301
 4096SOL    MW416152   5.357   6.074   2.883 -0.3100  0.2806 -0.0159
 4097SOL     OW16153   2.505   0.963   5.821  0.4975  0.1133  0.1171
 4097SOL    HW216154   2.524   0.877   5.859 -0.5853  0.0278  0.5088
 4097SOL    HW316155   2.544   0.960   5.734  1.0494 -0.5342  0.3792
 4097SOL    MW416156   2.512   0.951   5.815  0.5419  0.6267  0.3402
 4098SOL     OW16157   3.400   4.205   5.263  0.1272 -0.8614  0.4276
 4098SOL    HW216158   3.346   4.180   5.337  1.5365  0.3213  1.9211
 4098SOL    HW316159   3.456   4.129   5.247 -2.0268 -2.2203 -1.3295
 4098SOL    MW416160   3.400   4.192   5.270 -0.0998 -0.7079 -0.2382
 4099SOL     OW16161   4.074   4.925   5.312 -0.3364 -0.1223 -0.3119
 4099SOL    HW216162   4.089   4.851   5.252  0.4289  0.7752 -1.2598
 4099SOL    HW316163   4.087   5.003   5.258 -2.2047  0.7349  0.4004
 4099SOL    MW416164   4.078   4.925   5.297  0.2606  0.5966  0.1452
 4100SOL     OW16165   3.101   1.683   0.925  0.4159 -0.4092  0.0160
 4100SOL    HW216166   3.186   1.651   0.895  0.7031  0.4918 -0.1675
 4100SOL    HW316167   3.121   1.731   1.006  0.1792  0.2958 -0.3299
 4100SOL    MW416168   3.115   1.685   0.932  0.5130 -0.1510 -0.2659
 4101SOL     OW16169   3.067   2.156   1.710 -0.5974  0.0325  0.1817
 4101SOL    HW216170   3.128   2.095   1.752 -1.2671 -1.0641 -0.3763
 4101SOL    HW316171   3.027   2.204   1.783  1.1592  1.0443  0.5346
 4101SOL    MW416172   3.069   2.154   1.725  0.9823 -0.0507 -0.2530
 4102SOL     OW16173   3.628   1.190   5.138  0.0455 -0.0248 -0.2859
 4102SOL    HW216174   3.710   1.212   5.183 -0.4808  1.6802 -0.0997
 4102SOL    HW316175   3.656   1.149   5.056  1.1315  1.9190 -0.9415
 4102SOL    MW416176   3.643   1.187   5.133 -0.4777 -0.0580 -0.3117
 4103SOL     OW16177   1.169   0.131   6.290  0.3760  0.0703 -0.3877
 4103SOL    HW216178   1.113   0.201   6.256  1.2495  1.0649  0.2005
 4103SOL    HW316179   1.148   0.127   6.383  1.6359  0.8032 -0.0574
 4103SOL    MW416180   1.159   0.140   6.298 -0.0113  0.1268  0.6262
 4104SOL     OW16181   1.931   2.716   5.133  0.0932  0.4823  0.1783
 4104SOL    HW216182   1.868   2.718   5.205 -1.2336  0.3549 -0.9369
 4104SOL    HW316183   1.996   2.651   5.160  1.0580  2.2232  2.3576
 4104SOL    MW416184   1.931   2.707   5.146  0.7058 -0.2103  0.0230
 4105SOL     OW16185   3.510   1.373   1.814  0.1755  0.3656  0.5773
 4105SOL    HW216186   3.493   1.362   1.720  1.0303 -1.7261  0.6180
 4105SOL    HW316187   3.451   1.444   1.841 -0.1473  0.9536 -1.5006
 4105SOL    MW416188   3.500   1.381   1.805  0.7932 -0.0286  0.2482
 4106SOL     OW16189   1.926   3.874   0.924 -0.3494 -0.4747 -0.0145
 4106SOL    HW216190   1.923   3.891   0.830  1.7829  2.4337  0.2938
 4106SOL    HW316191   1.835   3.873   0.952 -0.9601  0.5224 -1.8402
 4106SOL    MW416192   1.914   3.876   0.915  0.0780 -0.1660  0.1100
 4107SOL     OW16193   5.855   2.485   4.593  0.6136  0.2524  0.5266
 4107SOL    HW216194   5.818   2.501   4.680  1.4927 -0.3339  1.0166
 4107SOL    HW316195   5.945   2.514   4.599  0.3381  1.4427 -0.5973
 4107SOL    MW416196   5.862   2.490   4.606  0.3922  1.0022 -0.3657
 4108SOL     OW16197   1.581   4.379   5.807 -0.0022 -0.1352 -0.1642
 4108SOL    HW216198   1.610   4.398   5.897 -0.3029  0.2188 -0.1454
 4108SOL    HW316199   1.559   4.464   5.770 -1.6946 -0.4522  0.0422
 4108SOL    MW416200   1.582   4.392   5.814  0.5603  0.0410  0.3553
 4109SOL     OW16201   2.953   1.457   4.784 -0.1774 -0.6455 -0.5116
 4109SOL    HW216202   3.042   1.475   4.753  0.0077 -1.1172 -0.2615
 4109SOL    HW316203   2.897   1.504   4.723  0.2091 -0.9425 -1.1103
 4109SOL    MW416204   2.958   1.466   4.772  0.2329  0.7710  0.3446
 4110SOL     OW16205   0.687   4.047   1.792 -0.1957  0.3128 -0.3785
 4110SOL    HW216206   0.597   4.080   1.804 -0.8366 -1.1386 -1.0260
 4110SOL    HW316207   0.728   4.060   1.877 -1.5325 -0.4957  0.4284
 4110SOL    MW416208   0.680   4.053   1.805  0.1486  0.6350  0.7809
 4111SOL     OW16209   4.131   3.322   1.507  0.3192 -0.2712 -0.4653
 4111SOL    HW216210   4.134   3.417   1.511  1.8987 -0.3072  2.1601
 4111SOL    HW316211   4.094   3.302   1.422 -0.1228  2.6792 -1.0679
 4111SOL    MW416212   4.127   3.332   1.497 -0.0721 -0.3368 -0.0485
 4112SOL     OW16213   5.280   5.228   1.882 -0.0289 -0.6368  0.2943
 4112SOL    HW216214   5.322   5.232   1.796  0.8246 -0.8409  0.6891
 4112SOL    HW316215   5.333   5.166   1.932 -0.0819  0.0022  1.1856
 4112SOL    MW416216   5.293   5.221   1.877  0.3190 -0.0082  0.0443
 4113SOL     OW16217   2.236   6.422   2.157 -0.0310 -0.5358 -0.2312
 4113SOL    HW216218   2.282   6.366   2.220 -1.5290 -2.1045 -0.4635
 4113SOL    HW316219   2.149   6.432   2.194 -0.4304 -0.1270 -1.2613
 4113SOL    MW416220   2.231   6.416   2.170 -0.0110 -0.1826 -0.5158
 4114SOL     OW16221   1.511   1.205   0.294  0.0474  0.1703  0.3995
 4114SOL    HW216222   1.524   1.130   0.352 -0.9762  0.6293  1.2555
 4114SOL    HW316223   1.553   1.278   0.338  0.9986  0.1381 -0.4108
 4114SOL    MW416224   1.518   1.205   0.307  0.0670 -0.1577 -0.8145
 4115SOL     OW16225   0.407   4.097   1.876 -0.1067 -0.6122 -0.1437
 4115SOL    HW216226   0.353   4.110   1.798  0.3339 -0.5183 -0.4338
 4115SOL    HW316227   0.432   4.185   1.903 -1.4353 -0.5443  0.9454
 4115SOL    MW416228   0.403   4.110   1.869 -0.6305 -0.5536 -0.2292
 4116SOL     OW16229   5.548   3.209   2.424  0.5205  0.2316  0.0671
 4116SOL    HW216230   5.493   3.271   2.377  2.3813  1.3534 -0.7307
 4116SOL    HW316231   5.594   3.261   2.489  0.5009 -0.7224  0.8784
 4116SOL    MW416232   5.547   3.224   2.427 -0.0467  0.0852  0.1318
 4117SOL     OW16233   0.071   4.729   4.203 -0.6996 -0.1475 -0.1914
 4117SOL    HW216234   0.013   4.708   4.130 -1.9609  1.5634  0.2543
 4117SOL    HW316235   0.013   4.769   4.269  0.6036 -0.5385  1.2574
 4117SOL    MW416236   0.056   4.731   4.202  0.1021 -0.2568 -0.8977
 4118SOL     OW16237   2.002   2.114   5.428  0.5100 -0.0658  1.0594
 4118SOL    HW216238   1.998   2.148   5.339 -0.2621 -1.7222  0.4272
 4118SOL    HW316239   2.021   2.021   5.417 -1.6295 -0.7393  2.5212
 4118SOL    MW416240   2.004   2.106   5.415 -0.0029 -0.5729  0.7010
 4119SOL     OW16241   0.479   1.780   0.491 -0.1431 -0.3336 -0.2934
 4119SOL    HW216242   0.464   1.851   0.554 -0.2295  0.7089 -1.4602
 4119SOL    HW316243   0.492   1.703   0.546 -3.0999 -0.0680  0.9964
 4119SOL    MW416244   0.479   1.780   0.507  0.0824 -0.1627  0.1109
 4120SOL     OW16245   2.505   6.436   4.670 -0.2816  0.3032  0.1148
 4120SOL    HW216246   2.590   6.474   4.691 -0.3215  0.4753 -0.0250
 4120SOL    HW316247   2.478   6.391   4.750  0.7196 -1.2534 -0.3768
 4120SOL    MW416248   2.512   6.435   4.683  0.1015 -0.0127 -0.1024
 4121SOL     OW16249   0.043   5.230   2.574 -0.1648 -0.8018 -0.5868
 4121SOL    HW216250   0.119   5.288   2.585 -0.4927 -0.5198  0.3226
 4121SOL    HW316251   0.026   5.230   2.480 -0.2662  0.7562 -0.6004
 4121SOL    MW416252   0.050   5.238   2.563  0.1963 -0.1662 -0.1349
 4122SOL     OW16253   2.723   0.698   4.767 -0.2396 -0.2661 -0.3308
 4122SOL    HW216254   2.741   0.629   4.704 -0.9653  0.0335 -0.8853
 4122SOL    HW316255   2.668   0.760   4.719 -3.2411 -1.4277  1.3558
 4122SOL    MW416256   2.718   0.697   4.752  0.5004 -0.3228 -0.5038
 4123SOL     OW16257   0.403   6.339   2.205 -0.1285  0.9340 -0.0121
 4123SOL    HW216258   0.472   6.288   2.163  0.4500  1.5600  0.1599
 4123SOL    HW316259   0.349   6.274   2.251 -0.1687  0.3536 -0.8674
 4123SOL    MW416260   0.405   6.324   2.206 -0.2443 -0.0525  0.3490
 4124SOL     OW16261   0.023   2.536   2.100  0.3916  0.4411  0.3176
 4124SOL    HW216262  -0.046   2.561   2.161 -0.7601 -0.2030 -0.6768
 4124SOL    HW316263   0.018   2.441   2.095 -0.3550  0.5217 -1.6285
 4124SOL    MW416264   0.013   2.527   2.107 -0.0366  0.7875  0.1445
 4125SOL     OW16265   1.182   1.220   5.764  0.3981  0.0709 -0.1853
 4125SOL    HW216266   1.092   1.215   5.733  0.2591 -1.0532  0.3552
 4125SOL    HW316267   1.185   1.299   5.818 -0.5684 -0.4882  0.7085
 4125SOL    MW416268   1.171   1.230   5.767 -0.8500  0.7150 -0.1365
 4126SOL     OW16269   4.763   0.259   2.417 -0.3825  0.4652  0.3935
 4126SOL    HW216270   4.731   0.198   2.350 -1.9325  1.1922  0.4221
 4126SOL    HW316271   4.759   0.345   2.376 -1.6328  0.9626  1.4573
 4126SOL    MW416272   4.758   0.262   2.403  0.0988 -0.5503  0.0744
 4127SOL     OW16273   3.430   5.096   4.034  0.4929  0.4766  0.2340
 4127SOL    HW216274   3.383   5.114   4.115  1.5222  1.5692  0.6316
 4127SOL    HW316275   3.408   5.169   3.977  1.5299  0.9323  0.3772
 4127SOL    MW416276   3.421   5.108   4.038 -0.6395 -0.2698  0.1063
 4128SOL     OW16277   3.940   4.591   2.373  0.3629  0.3154 -0.0627
 4128SOL    HW216278   3.921   4.684   2.362  0.6664  0.3976  0.1088
 4128SOL    HW316279   3.924   4.574   2.466  1.2926  0.4265  0.1258
 4128SOL    MW416280   3.936   4.601   2.383  0.1251  0.8075 -0.1893
 4129SOL     OW16281   6.194   0.792   1.849  0.1734  0.5857  1.0310
 4129SOL    HW216282   6.214   0.860   1.784  1.1304 -1.7557 -1.3065
 4129SOL    HW316283   6.099   0.784   1.846  0.0749  1.6194  1.1278
 4129SOL    MW416284   6.184   0.800   1.840  0.4093  0.1008 -0.5179
 4130SOL     OW16285   1.969   5.274   3.365  0.3892 -0.3067  0.1236
 4130SOL    HW216286   2.007   5.191   3.395 -0.2289 -0.8671 -0.5816
 4130SOL    HW316287   1.974   5.269   3.269 -0.9958 -0.1992  0.0224
 4130SOL    MW416288   1.974   5.262   3.356 -0.5774 -0.2077 -0.6947
 4131SOL     OW16289   3.153   2.780   4.624 -0.4606  0.2909 -0.0077
 4131SOL    HW216290   3.243   2.751   4.609 -0.5878  0.6814 -1.8447
 4131SOL    HW316291   3.150   2.804   4.716  1.2409  0.0174  0.1489
 4131SOL    MW416292   3.165   2.779   4.634  0.0578  0.5677  0.4422
 4132SOL     OW16293   3.743   1.844   1.182 -0.0737 -0.1008 -0.6983
 4132SOL    HW216294   3.648   1.847   1.184 -0.0500  0.7533 -0.0757
 4132SOL    HW316295   3.769   1.926   1.139  0.3645 -0.7037 -1.6053
 4132SOL    MW416296   3.734   1.855   1.177 -0.5032  0.0918 -0.2571
 4133SOL     OW16297   3.480   2.415   2.055  0.6501  0.0061 -0.0543
 4133SOL    HW216298   3.544   2.485   2.051  0.7401 -0.0844 -0.2231
 4133SOL    HW316299   3.410   2.449   2.111  0.5297  0.3611 -0.4137
 4133SOL    MW416300   3.479   2.428   2.062 -0.1738  0.0697 -0.7325
 4134SOL     OW16301   0.587   1.532   6.234  0.5987 -0.0998  0.3875
 4134SOL    HW216302   0.561   1.533   6.142  0.7991 -1.8701  0.2867
 4134SOL    HW316303   0.507   1.554   6.281  0.0263 -1.0038 -0.1356
 4134SOL    MW416304   0.573   1.535   6.228 -0.3312 -0.4878 -0.0703
 4135SOL     OW16305   0.547   3.114   0.762 -0.4186  0.2908  0.1934
 4135SOL    HW216306   0.609   3.044   0.742 -2.0221 -1.6166  1.4164
 4135SOL    HW316307   0.532   3.158   0.679  0.2819 -1.1799 -0.7480
 4135SOL    MW416308   0.553   3.111   0.749  0.1154  0.1644 -0.1910
 4136SOL     OW16309   5.731   0.243   2.842  0.4103  0.3681  0.2448
 4136SOL    HW216310   5.726   0.168   2.900 -1.0757  0.0173 -0.2800
 4136SOL    HW316311   5.804   0.224   2.783 -0.7859 -1.3583 -0.7707
 4136SOL    MW416312   5.740   0.231   2.842  0.0606  0.0305 -0.1660
 4137SOL     OW16313   2.102   3.278   5.856 -0.1180  0.4403 -0.1613
 4137SOL    HW216314   2.154   3.198   5.864  0.4430  0.5921 -1.8687
 4137SOL    HW316315   2.019   3.257   5.898  0.5373 -0.5551  0.6628
 4137SOL    MW416316   2.098   3.265   5.862 -0.0304  0.5845  0.2448
 4138SOL     OW16317   1.236   5.463   1.473 -0.3408 -0.3330 -0.1721
 4138SOL    HW216318   1.254   5.383   1.522  0.3095  0.2727  0.6089
 4138SOL    HW316319   1.150   5.448   1.432 -1.9178 -0.0822  2.8046
 4138SOL    MW416320   1.227   5.450   1.474 -0.2376 -0.0846 -0.4348
 4139SOL     OW16321   5.506   4.313   4.832 -0.1727 -0.7882  0.2135
 4139SOL    HW216322   5.497   4.285   4.923 -0.4833 -1.6379 -0.0694
 4139SOL    HW316323   5.590   4.358   4.829 -1.6646  2.4908  1.7152
 4139SOL    MW416324   5.516   4.315   4.844 -0.0776  0.0654  0.2110
 4140SOL     OW16325   1.141   5.578   5.845  0.0491  0.1909  0.6022
 4140SOL    HW216326   1.141   5.650   5.781 -0.3326  0.8249  1.3040
 4140SOL    HW316327   1.058   5.533   5.830  0.6425 -0.6234 -0.3890
 4140SOL    MW416328   1.130   5.582   5.835 -0.1881  0.0213  0.0183
 4141SOL     OW16329   2.185   0.958   6.249 -0.3238 -0.4003 -0.3051
 4141SOL    HW216330   2.165   0.869   6.276 -0.0573 -0.0625  1.0848
 4141SOL    HW316331   2.280   0.959   6.237 -0.0922  0.0962  1.3486
 4141SOL    MW416332   2.195   0.947   6.251 -0.3577 -0.3590  0.0084
 4142SOL     OW16333   5.749   3.700   1.774 -0.2779 -0.0619 -0.5578
 4142SOL    HW216334   5.747   3.761   1.848  0.3689 -1.5238  0.7277
 4142SOL    HW316335   5.842   3.679   1.762 -0.1794  1.3597 -2.8931
 4142SOL    MW416336   5.761   3.705   1.783  0.0808  0.2993 -0.0872
 4143SOL     OW16337   1.569   6.465   1.362 -0.1890  0.0661  0.1853
 4143SOL    HW216338   1.588   6.556   1.337  0.4761 -0.3748 -0.9993
 4143SOL    HW316339   1.530   6.472   1.449 -0.6262  1.5259 -0.0953
 4143SOL    MW416340   1.566   6.478   1.370  0.6989 -0.2726 -0.3298
 4144SOL     OW16341   2.551   2.350   2.290 -0.0944 -0.3859 -0.0782
 4144SOL    HW216342   2.563   2.382   2.379  0.9406 -0.0591 -0.3246
 4144SOL    HW316343   2.573   2.257   2.295 -0.9533 -0.5802  0.1899
 4144SOL    MW416344   2.555   2.342   2.302  0.2135  0.6864  0.1596
 4145SOL     OW16345   0.364   4.559   1.970  0.0022 -0.1463 -0.3498
 4145SOL    HW216346   0.379   4.650   1.942  0.0514 -0.7388 -2.4530
 4145SOL    HW316347   0.269   4.549   1.967 -0.1595  0.3411  1.7713
 4145SOL    MW416348   0.353   4.570   1.966  0.2601 -0.0881 -0.2807
 4146SOL     OW16349   5.134   4.233   5.890 -0.2233 -0.2762 -0.2860
 4146SOL    HW216350   5.070   4.212   5.822  0.0987  0.2351 -0.7503
 4146SOL    HW316351   5.202   4.166   5.880  0.5863  0.6869 -1.4831
 4146SOL    MW416352   5.135   4.221   5.880  0.0505 -0.1844  0.3087
 4147SOL     OW16353   4.112   4.656   1.911 -0.0772  0.0950  0.0995
 4147SOL    HW216354   4.149   4.624   1.828  0.4786  1.8025 -0.3593
 4147SOL    HW316355   4.099   4.577   1.964  2.2962 -0.7817 -0.5129
 4147SOL    MW416356   4.115   4.641   1.907 -0.9227  0.0339 -0.3265
 4148SOL     OW16357   2.725   2.876   0.279 -0.4527  0.0896  0.2560
 4148SOL    HW216358   2.801   2.918   0.320 -0.8994 -0.9431  2.2799
 4148SOL    HW316359   2.763   2.805   0.227  0.0247 -0.2680  1.0589
 4148SOL    MW416360   2.740   2.872   0.278 -0.0240  0.4161  0.2103
 4149SOL     OW16361   1.462   3.940   3.523 -0.3320  0.4070  0.1287
 4149SOL    HW216362   1.369   3.935   3.545 -1.1706  2.2235 -2.5118
 4149SOL    HW316363   1.487   4.030   3.544 -0.0383  0.8535 -1.9208
 4149SOL    MW416364   1.453   3.951   3.528  0.0120  0.1991 -0.3034
 4150SOL     OW16365   2.875   1.836   0.932  0.8691 -0.1126  0.0330
 4150SOL    HW216366   2.803   1.773   0.921  1.2778 -0.3256 -1.5627
 4150SOL    HW316367   2.953   1.782   0.941  0.9167  0.1318  1.4570
 4150SOL    MW416368   2.876   1.821   0.932  0.1700  0.3401 -0.2447
 4151SOL     OW16369   0.438   5.591   0.857  0.4908  0.0287 -0.0632
 4151SOL    HW216370   0.497   5.605   0.931 -1.6004  2.6945  1.2912
 4151SOL    HW316371   0.402   5.678   0.839 -0.7037 -0.9287 -2.8463
 4151SOL    MW416372   0.441   5.605   0.865 -0.6266  0.4888 -0.3759
 4152SOL     OW16373   1.677   3.724   4.409 -0.2531  0.9067  0.7154
 4152SOL    HW216374   1.650   3.806   4.451 -0.0234  0.6741  1.3361
 4152SOL    HW316375   1.764   3.707   4.445 -0.7174 -0.1385  1.3818
 4152SOL    MW416376   1.685   3.733   4.419  0.0587  0.4708 -0.2028
 4153SOL     OW16377   5.989   1.349   6.361 -0.0683 -0.4890 -0.0434
 4153SOL    HW216378   6.035   1.426   6.396 -1.3414 -0.1053  0.9039
 4153SOL    HW316379   5.980   1.366   6.268 -2.6405  1.8769  0.4982
 4153SOL    MW416380   5.994   1.361   6.354 -0.0803 -0.0610 -0.2198
 4154SOL     OW16381   2.835   6.065   0.333 -0.4006  0.7216 -0.2084
 4154SOL    HW216382   2.917   6.031   0.367  0.4561  1.1539 -1.7298
 4154SOL    HW316383   2.831   6.032   0.243 -1.0347  2.1227 -0.7257
 4154SOL    MW416384   2.845   6.056   0.325 -0.6417 -0.4625 -0.4835
 4155SOL     OW16385   2.358   6.050   4.754 -0.4014 -0.1019  0.2941
 4155SOL    HW216386   2.417   6.110   4.800  1.2156  0.0138 -1.7773
 4155SOL    HW316387   2.285   6.104   4.725  0.1135  0.4656  0.0460
 4155SOL    MW416388   2.356   6.065   4.756 -0.0864  0.1684 -0.3021
 4156SOL     OW16389   1.951   5.315   3.864  0.7577  0.3428  0.1116
 4156SOL    HW216390   2.035   5.277   3.838  0.5892 -0.3265  0.5156
 4156SOL    HW316391   1.936   5.281   3.952 -0.1543  0.0890 -0.1294
 4156SOL    MW416392   1.960   5.305   3.872  0.3846 -0.0854 -0.2757
 4157SOL     OW16393   1.886   1.731   3.981 -0.0133  0.0185 -0.0031
 4157SOL    HW216394   1.854   1.817   4.008  0.0941  0.1163 -0.1840
 4157SOL    HW316395   1.808   1.675   3.984  0.0319 -0.0104  0.6548
 4157SOL    MW416396   1.871   1.735   3.985  0.1752 -0.0214 -0.3615
 4158SOL     OW16397   3.673   5.712   2.113  0.1455 -0.2983  0.2989
 4158SOL    HW216398   3.717   5.785   2.156  1.9171 -1.3543  0.4004
 4158SOL    HW316399   3.695   5.636   2.167 -0.8343 -1.0538 -0.3366
 4158SOL    MW416400   3.682   5.711   2.126  0.2242 -0.7457 -0.5032
 4159SOL     OW16401   0.027   0.086   5.491  0.5425  0.3655 -0.0283
 4159SOL    HW216402  -0.012   0.004   5.459 -0.7984  1.4452 -1.3009
 4159SOL    HW316403   0.098   0.103   5.429  0.3242  0.5451 -0.2331
 4159SOL    MW416404   0.031   0.077   5.478  0.4481 -0.0622  0.3001
 4160SOL     OW16405   3.088   0.240   3.692  0.0281 -0.0441 -0.4596
 4160SOL    HW216406   3.033   0.309   3.655  1.2502  1.4954  0.4754
 4160SOL    HW316407   3.030   0.194   3.753 -0.4271  1.1277  0.0272
 4160SOL    MW416408   3.073   0.243   3.695  0.7389 -0.1285 -0.2768
 4161SOL     OW16409   1.029   1.019   5.953 -0.1813 -0.0659  0.0732
 4161SOL    HW216410   0.973   1.088   5.917 -2.2165 -1.1663  0.9274
 4161SOL    HW316411   1.029   0.950   5.886 -1.1282 -0.6843  0.6844
 4161SOL    MW416412   1.022   1.019   5.939 -0.0774  0.2895  0.4143
 4162SOL     OW16413   6.005   3.127   1.579 -0.2226 -0.3046  0.6034
 4162SOL    HW216414   6.098   3.121   1.558 -0.2168  0.7653  0.2580
 4162SOL    HW316415   5.991   3.218   1.602 -1.1188 -0.5328  1.0319
 4162SOL    MW416416   6.015   3.138   1.579  0.6432  0.6500 -0.4838
 4163SOL     OW16417   5.250   5.479   0.082 -0.2660  0.3730  0.1400
 4163SOL    HW216418   5.216   5.507   0.167 -1.1966  0.9235 -0.3982
 4163SOL    HW316419   5.317   5.544   0.060 -0.7700  0.8413 -0.0271
 4163SOL    MW416420   5.255   5.491   0.090 -0.2808 -0.2219  0.3017
 4164SOL     OW16421   1.409   4.362   2.359  0.3872  0.0349  0.1785
 4164SOL    HW216422   1.324   4.322   2.347 -1.5555  2.7660  2.9835
 4164SOL    HW316423   1.412   4.434   2.295  0.0479  0.6110  0.7940
 4164SOL    MW416424   1.398   4.366   2.349 -0.2538 -0.0276  0.0498
 4165SOL     OW16425   0.234   2.444   5.573  0.0896  0.4656 -0.0866
 4165SOL    HW216426   0.273   2.488   5.649 -1.4713 -1.3181  1.8370
 4165SOL    HW316427   0.154   2.493   5.556 -0.5489 -0.2807  0.6894
 4165SOL    MW416428   0.228   2.457   5.581 -0.1621  0.3201 -0.0801
 4166SOL     OW16429   5.112   5.151   0.990 -0.3022 -0.1688 -0.5634
 4166SOL    HW216430   5.186   5.183   0.939 -1.1206 -1.9876 -3.1213
 4166SOL    HW316431   5.052   5.225   0.996  0.7285  0.6720 -0.4148
 4166SOL    MW416432   5.114   5.165   0.984  0.3462  0.0179 -0.3346
 4167SOL     OW16433   0.713   2.627   2.100 -0.2075  0.7639  0.0229
 4167SOL    HW216434   0.782   2.562   2.088  0.9884  1.9051  0.4778
 4167SOL    HW316435   0.642   2.598   2.043  0.2051 -1.0389  0.3918
 4167SOL    MW416436   0.713   2.615   2.091 -0.5413  0.1928 -0.9607
 4168SOL     OW16437   0.697   4.691   1.992 -0.5867  0.0689 -0.4040
 4168SOL    HW216438   0.696   4.787   1.998  1.5326  0.2023 -1.1476
 4168SOL    HW316439   0.774   4.672   1.938 -0.0704 -2.1280  0.9939
 4168SOL    MW416440   0.707   4.701   1.985  0.5580  0.0639  0.2724
 4169SOL     OW16441   6.213   1.466   0.574 -0.9531 -0.1451  0.5598
 4169SOL    HW216442   6.176   1.382   0.601 -2.5423 -0.0143 -1.0166
 4169SOL    HW316443   6.155   1.532   0.613 -0.7943  0.1581  0.2953
 4169SOL    MW416444   6.200   1.464   0.582  0.1632 -0.2639  0.4217
 4170SOL     OW16445   2.753   2.940   4.281 -0.0061  1.1956  0.2994
 4170SOL    HW216446   2.675   2.887   4.265  0.1652  0.9466  0.2833
 4170SOL    HW316447   2.817   2.877   4.315 -0.0747  1.5429  1.0993
 4170SOL    MW416448   2.751   2.924   4.283 -0.7567  0.0786  0.1937
 4171SOL     OW16449   5.376   0.548   2.604  0.4444 -0.8027  0.4261
 4171SOL    HW216450   5.398   0.591   2.686 -2.6586  0.9813  0.4725
 4171SOL    HW316451   5.412   0.606   2.536 -0.6042  0.0236  0.5420
 4171SOL    MW416452   5.383   0.561   2.606 -0.0478  0.3923 -0.4887
 4172SOL     OW16453   2.311   1.050   4.280  0.5986  0.5739 -0.5285
 4172SOL    HW216454   2.329   1.076   4.190  0.5816  0.5958 -0.5256
 4172SOL    HW316455   2.385   1.083   4.331  1.8489 -1.5029 -0.8713
 4172SOL    MW416456   2.323   1.058   4.275 -0.2132  0.2211  0.2125
 4173SOL     OW16457   6.252   3.017   6.293 -0.0531  0.1122 -0.4089
 4173SOL    HW216458   6.227   3.023   6.201 -0.1733  1.7142 -0.2957
 4173SOL    HW316459   6.199   3.084   6.336  2.2923  1.6056  0.3200
 4173SOL    MW416460   6.241   3.026   6.287 -0.2653  0.5007 -0.4268
 4174SOL     OW16461   4.111   3.522   2.639 -0.0651 -0.3163 -0.2184
 4174SOL    HW216462   4.018   3.530   2.621 -0.3878  1.5750  1.8553
 4174SOL    HW316463   4.136   3.607   2.676  1.5976 -1.9406  2.7755
 4174SOL    MW416464   4.102   3.534   2.642 -0.6302  0.3008  0.6648
 4175SOL     OW16465   2.332   4.583   2.082  0.1406 -0.1726 -0.3664
 4175SOL    HW216466   2.261   4.567   2.020 -0.2775 -0.1903  0.1229
 4175SOL    HW316467   2.407   4.604   2.026 -0.0289 -0.9887 -0.9209
 4175SOL    MW416468   2.333   4.583   2.066 -0.2294 -0.4032 -0.2645
 4176SOL     OW16469   1.623   2.105   0.970 -0.2367  0.1057  0.1860
 4176SOL    HW216470   1.589   2.172   1.030 -0.8626 -0.0728  0.0379
 4176SOL    HW316471   1.712   2.134   0.949 -0.4045  0.7398  0.3461
 4176SOL    MW416472   1.630   2.118   0.975  0.3974 -0.2730  0.1001
 4177SOL     OW16473   5.122   3.461   3.056 -0.1522 -0.4589  0.3279
 4177SOL    HW216474   5.042   3.483   3.008  1.3349  1.4132 -1.5177
 4177SOL    HW316475   5.157   3.384   3.010 -0.4510 -0.7533  0.5906
 4177SOL    MW416476   5.116   3.454   3.043 -0.0790 -0.6857 -0.8635
 4178SOL     OW16477   1.429   6.132   2.664  0.0137 -0.1469 -0.1541
 4178SOL    HW216478   1.361   6.095   2.720 -0.3897  0.9521  0.0985
 4178SOL    HW316479   1.383   6.163   2.587  0.5672 -1.6425 -1.1358
 4178SOL    MW416480   1.414   6.131   2.661 -0.6110 -0.1827  0.0327
 4179SOL     OW16481   4.861   5.192   3.339  0.0299 -0.1836  0.2201
 4179SOL    HW216482   4.779   5.169   3.384 -0.3695 -0.3279 -0.5677
 4179SOL    HW316483   4.837   5.261   3.278  0.8453  0.9895  1.1692
 4179SOL    MW416484   4.847   5.198   3.337  0.8819 -0.2034 -0.7941
 4180SOL     OW16485   3.993   1.050   4.897 -0.0638  0.3427 -0.4320
 4180SOL    HW216486   4.000   0.995   4.976 -0.7152  0.4197 -0.3141
 4180SOL    HW316487   3.974   0.988   4.827  0.1605  0.3121 -0.4644
 4180SOL    MW416488   3.991   1.034   4.899 -0.3157  0.2092  0.5157
 4181SOL     OW16489   6.058   0.924   0.098 -0.5385 -0.1202 -0.0204
 4181SOL    HW216490   6.048   0.926   0.193  0.7994  0.1714  0.1238
 4181SOL    HW316491   6.085   1.012   0.074 -2.5691  0.3422 -0.9110
 4181SOL    MW416492   6.060   0.936   0.107 -0.1639  0.3580  0.5137
 4182SOL     OW16493   4.280   0.716   2.493 -0.1339  0.2738  0.0721
 4182SOL    HW216494   4.314   0.769   2.421 -0.5783  0.1752 -0.2127
 4182SOL    HW316495   4.262   0.631   2.454 -1.4698  0.5630  0.0254
 4182SOL    MW416496   4.282   0.712   2.478 -0.1733  0.2971  0.1859
 4183SOL     OW16497   4.703   4.075   6.083 -0.0617 -0.2794 -0.4220
 4183SOL    HW216498   4.644   4.148   6.102  3.1143  2.5692 -0.4064
 4183SOL    HW316499   4.702   4.068   5.987  0.5885  0.7295 -0.5138
 4183SOL    MW416500   4.695   4.084   6.072 -0.5301 -0.6084  0.3806
 4184SOL     OW16501   4.544   5.683   2.873  0.0660 -0.0269  0.3865
 4184SOL    HW216502   4.543   5.681   2.777  0.6126 -0.2838  0.3836
 4184SOL    HW316503   4.609   5.617   2.898  0.2778  0.3812  0.9242
 4184SOL    MW416504   4.553   5.674   2.864  0.3723  0.2362  0.0106
 4185SOL     OW16505   2.881   1.080   3.968 -0.0081 -0.2538  0.4472
 4185SOL    HW216506   2.911   1.102   4.056  1.1383  2.2632 -0.4746
 4185SOL    HW316507   2.857   1.164   3.929 -1.2762 -1.3916 -1.3831
 4185SOL    MW416508   2.882   1.094   3.975 -0.2172 -0.4472  0.3047
 4186SOL     OW16509   6.162   4.372   0.880 -0.8274 -0.1386  0.6024
 4186SOL    HW216510   6.132   4.457   0.849  0.0190 -0.1230 -0.2159
 4186SOL    HW316511   6.090   4.338   0.932 -0.8760  1.4304  1.6069
 4186SOL    MW416512   6.149   4.378   0.883 -0.5339 -0.0054 -1.0264
 4187SOL     OW16513   0.183   5.326   2.187 -0.1668  0.5374 -0.1490
 4187SOL    HW216514   0.104   5.354   2.233  0.4173  1.5349  0.2945
 4187SOL    HW316515   0.196   5.392   2.119 -1.6567 -1.5138 -2.6240
 4187SOL    MW416516   0.175   5.338   2.184 -0.2927 -0.1045  0.1774
 4188SOL     OW16517   1.558   3.973   3.225  0.4811  0.1163  0.0449
 4188SOL    HW216518   1.509   3.962   3.306  0.9016 -1.0393  0.1701
 4188SOL    HW316519   1.584   3.884   3.201  0.5027  0.4548 -1.2733
 4188SOL    MW416520   1.555   3.960   3.232 -0.4277 -0.0059  0.2653
 4189SOL     OW16521   6.094   5.185   2.401  0.0079 -0.4598 -0.2896
 4189SOL    HW216522   6.071   5.278   2.408  0.4027 -0.4321  0.8711
 4189SOL    HW316523   6.055   5.145   2.479  0.2816 -1.1712 -0.5138
 4189SOL    MW416524   6.086   5.192   2.413 -0.5375  0.4833 -0.6151
 4190SOL     OW16525   1.740   3.241   2.114 -0.0545  0.0756  0.1660
 4190SOL    HW216526   1.800   3.275   2.180  0.2482 -0.4933  0.1961
 4190SOL    HW316527   1.657   3.228   2.160 -0.0094  0.2278  0.2895
 4190SOL    MW416528   1.737   3.243   2.128 -0.0408  0.1100  0.3328
 4191SOL     OW16529   4.026   2.813   4.305 -0.0883  0.0960 -0.3672
 4191SOL    HW216530   4.026   2.718   4.321  0.8312 -0.2184 -2.0746
 4191SOL    HW316531   3.940   2.842   4.334 -0.1069 -1.1147  0.9138
 4191SOL    MW416532   4.015   2.804   4.311  0.0019  0.2651 -0.8044
 4192SOL     OW16533   3.612   4.563   4.849 -0.0100  0.4894 -0.0047
 4192SOL    HW216534   3.672   4.535   4.918 -0.1647 -1.0531 -0.4490
 4192SOL    HW316535   3.624   4.499   4.779 -2.2896 -0.0181 -0.0197
 4192SOL    MW416536   3.621   4.551   4.849  0.0505  0.2080 -0.9492
 4193SOL     OW16537   6.171   1.239   4.622  0.1840  0.1617  0.4791
 4193SOL    HW216538   6.153   1.154   4.582 -1.2728  0.6859 -0.0547
 4193SOL    HW316539   6.266   1.241   4.632  0.2566 -1.4642  0.3781
 4193SOL    MW416540   6.181   1.228   4.618  0.0750  0.0303 -0.6280
 4194SOL     OW16541   4.574   3.431   2.396  0.1695  0.3854  0.2678
 4194SOL    HW216542   4.515   3.395   2.462  0.3224 -1.3428 -0.4901
 4194SOL    HW316543   4.582   3.362   2.330  0.2689  1.9038 -1.4184
 4194SOL    MW416544   4.567   3.417   2.396  0.7373 -0.3328 -0.5111
 4195SOL     OW16545   0.028   3.480   1.689  0.4387  0.0701  0.4927
 4195SOL    HW216546   0.100   3.420   1.666  0.2308  0.3058 -0.8676
 4195SOL    HW316547  -0.025   3.485   1.610 -1.2961 -0.3676  1.5947
 4195SOL    MW416548   0.031   3.473   1.675  0.0484 -0.1827 -0.7511
 4196SOL     OW16549   6.187   4.549   5.942 -0.0950  0.6995  0.3373
 4196SOL    HW216550   6.252   4.544   6.012  0.2591 -0.0071 -0.0335
 4196SOL    HW316551   6.208   4.630   5.896  0.5983  0.4252  0.1555
 4196SOL    MW416552   6.198   4.559   5.945 -0.2198  0.0476  0.3041
 4197SOL     OW16553   0.324   4.006   3.166  0.2954  0.1316  0.7861
 4197SOL    HW216554   0.326   4.082   3.108 -0.7507 -0.7924 -0.5049
 4197SOL    HW316555   0.269   4.033   3.240 -0.5131  0.4545  0.0756
 4197SOL    MW416556   0.317   4.020   3.168  0.0668  0.3096  0.5009
 4198SOL     OW16557   0.605   6.357   1.501 -0.0646  0.0610  0.4900
 4198SOL    HW216558   0.565   6.291   1.557 -2.5920  1.7972  0.8769
 4198SOL    HW316559   0.678   6.391   1.553 -0.0967 -0.8933  1.1906
 4198SOL    MW416560   0.609   6.353   1.515  0.4254  0.1977 -0.1926
 4199SOL     OW16561   6.144   4.437   4.953 -0.5246  0.8922 -0.2929
 4199SOL    HW216562   6.135   4.473   5.041  1.2008  1.6533 -0.4017
 4199SOL    HW316563   6.142   4.513   4.895  0.8100  0.6425 -0.7064
 4199SOL    MW416564   6.142   4.452   4.957  0.3388  0.2058  0.3517
 4200SOL     OW16565   6.310   5.977   4.803  0.0931 -0.2092 -0.6308
 4200SOL    HW216566   6.396   6.018   4.813  0.1021 -0.3816  0.0360
 4200SOL    HW316567   6.280   5.962   4.893 -0.0022 -1.4728 -0.8589
 4200SOL    MW416568   6.318   5.981   4.816  0.4473  0.2005  0.4613
 4201SOL     OW16569   1.947   0.959   1.809 -0.1849  0.4741  0.3711
 4201SOL    HW216570   1.923   0.872   1.838  0.0135  0.4265  0.3956
 4201SOL    HW316571   1.865   1.008   1.808 -0.2141  0.4368  0.8681
 4201SOL    MW416572   1.933   0.954   1.813  0.3134  0.0968 -0.2354
 4202SOL     OW16573   0.616   5.030   1.147  0.3004  0.0108 -0.1631
 4202SOL    HW216574   0.641   4.989   1.064 -0.0275 -1.7446  0.5487
 4202SOL    HW316575   0.550   5.095   1.123 -0.5459 -1.1716 -1.2028
 4202SOL    MW416576   0.611   5.033   1.133  0.2375  0.2684 -0.0090
 4203SOL     OW16577   4.216   2.344   5.895  0.5446  0.0273 -0.2133
 4203SOL    HW216578   4.164   2.264   5.884  0.2577  0.1483  0.2437
 4203SOL    HW316579   4.152   2.411   5.918  0.7821  0.3963 -0.6062
 4203SOL    MW416580   4.200   2.342   5.897 -0.4342 -0.9130 -0.3089
 4204SOL     OW16581   5.690   5.832   5.465 -0.1786  0.4516  0.0369
 4204SOL    HW216582   5.723   5.834   5.375 -1.2731  0.4073 -0.3853
 4204SOL    HW316583   5.624   5.901   5.468 -1.1795 -0.4894  0.3734
 4204SOL    MW416584   5.685   5.841   5.454  0.4921 -0.3639  0.4407
 4205SOL     OW16585   3.887   5.232   1.323  0.3551  0.2654 -0.1211
 4205SOL    HW216586   3.937   5.285   1.260  1.5646  0.8535  1.2869
 4205SOL    HW316587   3.799   5.227   1.285  0.9429  0.9269 -1.6655
 4205SOL    MW416588   3.882   5.238   1.309 -0.1996 -0.1369 -1.6903
 4206SOL     OW16589   2.724   0.363   4.393 -0.8006 -0.0176 -0.4768
 4206SOL    HW216590   2.764   0.277   4.404  1.5385  0.8876 -1.2671
 4206SOL    HW316591   2.732   0.404   4.479 -1.6643 -0.4772 -0.1727
 4206SOL    MW416592   2.730   0.357   4.406  0.3533  0.1559 -0.5936
 4207SOL     OW16593   5.065   0.062   3.778  0.2312  0.0982  0.0674
 4207SOL    HW216594   5.045  -0.029   3.797  1.0985  0.0791  0.9542
 4207SOL    HW316595   4.997   0.112   3.823 -0.0284 -0.0902 -0.1155
 4207SOL    MW416596   5.053   0.057   3.786 -0.6674 -0.1942 -0.6918
 4208SOL     OW16597   4.941   2.370   1.755 -0.1130 -0.5579  0.5796
 4208SOL    HW216598   4.850   2.387   1.779  0.0086 -1.4235  1.7480
 4208SOL    HW316599   4.956   2.424   1.677 -1.3944  0.1674  0.8088
 4208SOL    MW416600   4.931   2.379   1.748 -0.2612 -0.3664 -0.0170
 4209SOL     OW16601   0.073   3.775   4.307  0.6176  0.3490  0.0529
 4209SOL    HW216602   0.129   3.699   4.292  2.3611  1.3825  1.1081
 4209SOL    HW316603   0.002   3.740   4.362  1.8922 -0.3731  1.3316
 4209SOL    MW416604   0.071   3.760   4.312 -0.2858 -0.0336  0.2627
 4210SOL     OW16605   2.120   2.506   4.794 -0.6295 -0.3905 -0.4914
 4210SOL    HW216606   2.061   2.437   4.765  1.4833 -1.7224 -1.9513
 4210SOL    HW316607   2.099   2.580   4.737 -2.5603  0.0841  0.7423
 4210SOL    MW416608   2.110   2.507   4.782 -0.6244  0.6482  0.0738
 4211SOL     OW16609   3.904   6.097   5.202  0.1419  0.0128  0.0766
 4211SOL    HW216610   3.950   6.111   5.284 -0.8664 -0.4952  0.7528
 4211SOL    HW316611   3.846   6.173   5.194  1.3518  0.8672 -0.9816
 4211SOL    MW416612   3.902   6.109   5.212 -0.5358  0.2192  0.4279
 4212SOL     OW16613   5.071   1.501   2.764 -0.4157 -0.4959  0.4221
 4212SOL    HW216614   5.079   1.550   2.846 -0.7840  0.7717 -0.2693
 4212SOL    HW316615   5.107   1.559   2.698 -0.4605 -1.3575 -0.3761
 4212SOL    MW416616   5.077   1.515   2.766 -0.0275  0.0952 -0.0613
 4213SOL     OW16617   3.713   0.566   5.827  0.0434 -0.0855  0.0570
 4213SOL    HW216618   3.679   0.499   5.769  2.2949 -0.5631 -0.7999
 4213SOL    HW316619   3.684   0.539   5.914 -1.3417 -0.6655 -0.5529
 4213SOL    MW416620   3.705   0.554   5.831  0.6509 -0.0655 -0.0261
 4214SOL     OW16621   4.959   0.387   2.615 -0.3624  0.0144 -0.4396
 4214SOL    HW216622   4.918   0.341   2.541  1.3035 -1.6765 -0.3934
 4214SOL    HW316623   4.892   0.387   2.683 -1.2392 -0.1866 -1.2703
 4214SOL    MW416624   4.945   0.381   2.614 -0.3171 -0.4236 -0.2450
 4215SOL     OW16625   2.087   3.737   4.183  0.8551  0.6094  0.0093
 4215SOL    HW216626   2.021   3.806   4.174 -1.1666 -1.2558 -0.1617
 4215SOL    HW316627   2.137   3.763   4.261 -0.9973  1.3694  1.0153
 4215SOL    MW416628   2.085   3.750   4.192  0.2454 -0.1124  0.0513
 4216SOL     OW16629   2.466   2.188   3.256 -0.1809 -0.4252  0.5825
 4216SOL    HW216630   2.518   2.251   3.305  1.1351 -0.4983 -0.6745
 4216SOL    HW316631   2.510   2.180   3.171 -1.5876 -1.3606 -0.1046
 4216SOL    MW416632   2.479   2.195   3.251  0.0823 -0.4182  0.0390
 4217SOL     OW16633   1.409   0.537   0.631 -0.0628 -0.0567  0.1607
 4217SOL    HW216634   1.377   0.457   0.589  2.1225 -1.5292  1.0542
 4217SOL    HW316635   1.381   0.608   0.574 -0.0247 -1.6928 -2.0145
 4217SOL    MW416636   1.401   0.536   0.618  0.4045 -0.0619 -0.2591
 4218SOL     OW16637   2.121   3.497   3.479  0.7009  0.2695 -0.8351
 4218SOL    HW216638   2.075   3.428   3.430  0.0669  0.7206 -0.8854
 4218SOL    HW316639   2.053   3.539   3.530  1.4333 -0.5482  0.8917
 4218SOL    MW416640   2.106   3.493   3.479 -0.7512  0.2175 -0.3006
 4219SOL     OW16641   1.751   2.332   1.981  0.7323  0.2607  0.1299
 4219SOL    HW216642   1.780   2.250   1.941 -1.1775  0.1426 -1.1574
 4219SOL    HW316643   1.829   2.367   2.023  2.3390 -0.7094 -1.8708
 4219SOL    MW416644   1.765   2.325   1.981  0.1355 -0.0571 -0.6090
 4220SOL     OW16645   4.636   1.624   1.203  0.0035 -0.6605 -0.1598
 4220SOL    HW216646   4.693   1.552   1.229  0.6330 -0.4578 -0.9390
 4220SOL    HW316647   4.550   1.584   1.194  0.4198 -1.4089 -0.9622
 4220SOL    MW416648   4.632   1.609   1.205 -0.3176 -0.2771 -0.3749
 4221SOL     OW16649   4.637   1.694   2.226  0.1776  0.5192 -0.2639
 4221SOL    HW216650   4.583   1.615   2.233  0.9572 -0.0109 -0.1713
 4221SOL    HW316651   4.685   1.698   2.309 -1.7208  2.5054  0.8484
 4221SOL    MW416652   4.636   1.684   2.238 -0.0738 -0.0233 -0.0719
 4222SOL     OW16653   3.556   4.682   1.987  0.4172  0.0624 -0.2359
 4222SOL    HW216654   3.592   4.596   2.008  1.6623  0.0299 -2.2656
 4222SOL    HW316655   3.464   4.664   1.966 -0.1192 -0.2923  2.1015
 4222SOL    MW416656   3.549   4.668   1.987 -0.1063  0.0289 -0.0611
 4223SOL     OW16657   0.226   0.636   0.441  0.3579  0.3192  0.4132
 4223SOL    HW216658   0.225   0.546   0.409 -0.6630 -0.5309  2.6784
 4223SOL    HW316659   0.200   0.688   0.364  1.1776 -1.2457 -0.9987
 4223SOL    MW416660   0.222   0.631   0.426 -0.5831  0.4162  0.1503
 4224SOL     OW16661   1.077   1.205   4.570 -0.4991  0.2202  0.0380
 4224SOL    HW216662   1.168   1.234   4.580  0.6194 -2.3195 -1.6339
 4224SOL    HW316663   1.051   1.239   4.484  0.0330 -1.5964 -0.8973
 4224SOL    MW416664   1.086   1.213   4.560  0.1255  0.4419  0.4516
 4225SOL     OW16665   5.738   4.285   4.604  0.2897  0.1370 -0.4664
 4225SOL    HW216666   5.688   4.281   4.523  0.4037  0.4378 -0.5532
 4225SOL    HW316667   5.732   4.196   4.641 -1.3633  0.4821  0.1673
 4225SOL    MW416668   5.730   4.273   4.599 -0.3888  0.2315 -0.2506
 4226SOL     OW16669   1.686   4.555   1.378 -0.8803  0.5335  0.5714
 4226SOL    HW216670   1.684   4.544   1.283 -0.7056  1.3598  0.4710
 4226SOL    HW316671   1.707   4.647   1.392 -0.9327  0.4281  1.4139
 4226SOL    MW416672   1.688   4.566   1.368 -0.2058  0.8336  0.2773
 4227SOL     OW16673   1.027   4.687   0.651  0.6088  0.5647  0.3148
 4227SOL    HW216674   0.955   4.646   0.604 -0.4446 -0.1506  2.4165
 4227SOL    HW316675   1.097   4.620   0.651 -0.1911 -0.3231  1.5751
 4227SOL    MW416676   1.027   4.672   0.645  0.3041  0.3432  0.3338
 4228SOL     OW16677   1.597   3.709   2.235  0.2941  1.1365 -0.8617
 4228SOL    HW216678   1.651   3.714   2.313  1.1133 -0.7809 -1.2447
 4228SOL    HW316679   1.656   3.731   2.163 -0.4784  2.9875 -0.9759
 4228SOL    MW416680   1.612   3.712   2.236  0.8075  0.1328  0.3955
 4229SOL     OW16681   1.955   0.184   1.417 -0.6202 -0.0356  0.2251
 4229SOL    HW216682   1.889   0.205   1.351 -0.1178 -0.3261 -0.3809
 4229SOL    HW316683   1.965   0.265   1.467 -0.4458  0.4432 -0.5566
 4229SOL    MW416684   1.948   0.197   1.415 -0.2312 -0.1298  0.2359
 4230SOL     OW16685   2.499   5.527   4.032 -0.4215  0.0241 -0.1473
 4230SOL    HW216686   2.444   5.594   3.989  1.1262  1.1770 -0.4285
 4230SOL    HW316687   2.589   5.559   4.019  0.1850  0.3666  3.8081
 4230SOL    MW416688   2.504   5.540   4.025  0.0530 -0.3071  0.3222
 4231SOL     OW16689   3.390   1.876   4.532 -0.2953 -0.6891 -0.3690
 4231SOL    HW216690   3.417   1.947   4.590  0.6171 -1.6658  0.4342
 4231SOL    HW316691   3.295   1.868   4.546 -0.1711 -0.5619  0.6142
 4231SOL    MW416692   3.381   1.884   4.542 -0.2114 -0.1900  0.3682
 4232SOL     OW16693   3.780   5.952   6.281  0.7151 -0.2317  0.2985
 4232SOL    HW216694   3.696   5.945   6.327 -0.3347  0.9501 -1.3488
 4232SOL    HW316695   3.762   6.007   6.205  3.1851  0.7867  0.3499
 4232SOL    MW416696   3.767   5.958   6.277  0.0261 -0.0657 -0.3786
 4233SOL     OW16697   3.525   5.925   0.282  0.4153  0.3903 -0.1967
 4233SOL    HW216698   3.530   5.953   0.373  0.1505  1.6087 -0.5417
 4233SOL    HW316699   3.455   5.860   0.280  0.3456  0.4457  0.4493
 4233SOL    MW416700   3.517   5.920   0.293  0.4489  0.0213  0.2277
 4234SOL     OW16701   3.242   4.164   4.198 -0.4469 -0.0710 -0.0110
 4234SOL    HW216702   3.316   4.153   4.257 -0.7130  1.3693  0.6322
 4234SOL    HW316703   3.215   4.255   4.209 -1.7151 -0.2978 -0.9395
 4234SOL    MW416704   3.248   4.175   4.207 -0.3153 -0.3290  0.4081
 4235SOL     OW16705   1.453   5.518   3.911 -0.2961 -0.4111  0.1848
 4235SOL    HW216706   1.409   5.603   3.901  1.0483  0.2958  0.0590
 4235SOL    HW316707   1.544   5.540   3.932  0.3889 -1.8216 -1.1125
 4235SOL    MW416708   1.459   5.532   3.913 -0.7248  1.0050 -0.0342
 4236SOL     OW16709   4.160   3.556   0.817 -0.6750 -0.1094 -0.6447
 4236SOL    HW216710   4.204   3.510   0.889  1.0704  0.7968 -1.0703
 4236SOL    HW316711   4.138   3.488   0.754  0.2937 -0.5993 -0.4719
 4236SOL    MW416712   4.163   3.541   0.818 -0.4489  0.2544 -0.6460
 4237SOL     OW16713   5.934   1.397   1.276  0.2707  0.3417 -0.1013
 4237SOL    HW216714   5.909   1.451   1.351 -0.9868  0.2859 -0.4593
 4237SOL    HW316715   5.913   1.450   1.200  0.0668 -0.2087 -0.4355
 4237SOL    MW416716   5.928   1.411   1.276  0.0726  0.1528 -0.1490
 4238SOL     OW16717   2.762   1.437   3.161  0.2994 -0.3899 -0.2855
 4238SOL    HW216718   2.810   1.445   3.243  1.6342  1.7752 -1.1843
 4238SOL    HW316719   2.775   1.346   3.134  1.3323 -0.6529  1.0251
 4238SOL    MW416720   2.770   1.426   3.168  0.0007  0.1002  0.0738
 4239SOL     OW16721   0.063   2.434   4.921  0.3749 -0.4430 -0.5113
 4239SOL    HW216722  -0.006   2.405   4.981 -0.7955  0.9029 -1.1274
 4239SOL    HW316723   0.138   2.378   4.941 -0.2999 -0.7118  1.4661
 4239SOL    MW416724   0.064   2.422   4.931 -0.1729  0.3557 -0.0062
 4240SOL     OW16725   2.963   0.738   2.276 -0.2832  0.0161 -0.4315
 4240SOL    HW216726   3.033   0.703   2.221  0.4039  0.4965  0.1251
 4240SOL    HW316727   2.950   0.672   2.344 -2.2559 -1.3592 -2.0367
 4240SOL    MW416728   2.971   0.725   2.278 -0.7179  0.7709 -0.0489
 4241SOL     OW16729   5.743   5.906   4.439  0.6418 -0.1823  0.1430
 4241SOL    HW216730   5.706   5.857   4.512 -0.1010  1.2221  0.7440
 4241SOL    HW316731   5.706   5.865   4.361 -2.2500  1.1274  0.7092
 4241SOL    MW416732   5.733   5.894   4.438 -0.1994  0.3177 -0.4465
 4242SOL     OW16733   3.171   0.259   4.231  0.3012 -0.5087 -0.2353
 4242SOL    HW216734   3.076   0.256   4.223  0.2925 -2.1719  0.1817
 4242SOL    HW316735   3.203   0.196   4.166  0.8951 -2.8498  2.1357
 4242SOL    MW416736   3.163   0.250   4.221  0.4665 -0.7011 -0.0458
 4243SOL     OW16737   5.420   5.359   0.437  0.1495 -0.1056  0.3386
 4243SOL    HW216738   5.470   5.325   0.511  1.8340 -0.2556 -0.8037
 4243SOL    HW316739   5.331   5.327   0.451  0.3568  0.0914  2.4054
 4243SOL    MW416740   5.415   5.350   0.448  0.1260  0.5371  0.5262
 4244SOL     OW16741   2.554   4.215   5.529 -0.3602 -0.4432  0.0360
 4244SOL    HW216742   2.604   4.251   5.455  0.5003 -0.0826  0.7780
 4244SOL    HW316743   2.538   4.290   5.586 -0.7271 -0.7827  0.3845
 4244SOL    MW416744   2.558   4.230   5.526  0.2790 -0.7573 -0.1565
 4245SOL     OW16745   2.557   5.657   6.412  0.2572  0.6280  0.0790
 4245SOL    HW216746   2.558   5.567   6.380 -0.0394  0.7038 -0.1432
 4245SOL    HW316747   2.493   5.656   6.483  0.2547  0.6648  0.0772
 4245SOL    MW416748   2.549   5.645   6.418 -0.5161 -0.0246  0.0168
 4246SOL     OW16749   5.040   1.220   6.317 -0.0677  0.4436  0.3102
 4246SOL    HW216750   5.040   1.177   6.232  2.1118 -0.3588  0.6653
 4246SOL    HW316751   4.965   1.280   6.314 -1.0271 -0.7781 -1.5204
 4246SOL    MW416752   5.030   1.222   6.306 -0.0823 -0.8932  0.2423
 4247SOL     OW16753   3.167   2.890   4.906 -0.4153  0.9279 -0.1717
 4247SOL    HW216754   3.079   2.901   4.941 -0.8637  0.6122 -1.1417
 4247SOL    HW316755   3.196   2.805   4.939 -0.4887  1.0187  0.1250
 4247SOL    MW416756   3.159   2.880   4.915 -0.0235 -0.3266 -0.1516
 4248SOL     OW16757   2.279   4.491   3.128 -0.5176 -0.3308  0.3336
 4248SOL    HW216758   2.190   4.482   3.095 -0.1867 -1.5571 -0.2730
 4248SOL    HW316759   2.335   4.483   3.051  0.1189  0.9734  0.6281
 4248SOL    MW416760   2.275   4.489   3.114  0.4301 -0.3728 -0.1025
 4249SOL     OW16761   5.218   0.071   2.443 -0.1898  0.2910  0.5098
 4249SOL    HW216762   5.297   0.115   2.474  0.1015 -1.1755  2.0362
 4249SOL    HW316763   5.170   0.138   2.395 -0.4039  2.7309  3.7805
 4249SOL    MW416764   5.222   0.086   2.441  0.3663  0.1619 -0.1270
 4250SOL     OW16765   2.689   6.434   3.567  0.0951  0.5223  0.3319
 4250SOL    HW216766   2.742   6.365   3.607  0.2841 -0.9200 -2.1846
 4250SOL    HW316767   2.671   6.495   3.639  2.6114 -0.4722  1.9564
 4250SOL    MW416768   2.694   6.433   3.582  0.1363  0.0535 -0.1425
 4251SOL     OW16769   4.665   5.476   5.102  0.4342  0.2496 -0.3757
 4251SOL    HW216770   4.757   5.501   5.089  0.2961  0.9367 -0.0431
 4251SOL    HW316771   4.669   5.397   5.156  0.7902  1.0891  0.8668
 4251SOL    MW416772   4.678   5.469   5.107 -0.1898  0.6056  0.2255
 4252SOL     OW16773   1.512   4.105   4.723  0.0778 -0.1230 -0.5738
 4252SOL    HW216774   1.426   4.126   4.758 -0.0974 -1.1036 -0.3668
 4252SOL    HW316775   1.555   4.189   4.710 -0.5899  0.3329  0.1324
 4252SOL    MW416776   1.507   4.119   4.726  0.1744 -0.2645 -0.7394
 4253SOL     OW16777   0.309   4.065   1.380 -0.1455 -0.0110 -0.2701
 4253SOL    HW216778   0.349   4.132   1.325  1.8734  0.5045  1.6756
 4253SOL    HW316779   0.267   4.004   1.318  2.8936 -0.0862 -2.4637
 4253SOL    MW416780   0.309   4.066   1.365 -0.1231 -0.0307 -0.2381
 4254SOL     OW16781   4.398   5.743   0.618  0.1232  0.0843 -0.0853
 4254SOL    HW216782   4.386   5.657   0.576 -1.9737  0.3088 -0.0686
 4254SOL    HW316783   4.440   5.723   0.702  0.7196 -0.7965 -0.5776
 4254SOL    MW416784   4.402   5.729   0.623  0.6872  0.1735 -0.3324
 4255SOL     OW16785   4.929   6.340   0.089  0.0712  1.0544  0.7385
 4255SOL    HW216786   4.895   6.425   0.059 -0.4043  1.3027  1.9208
 4255SOL    HW316787   4.997   6.362   0.152 -0.3195  0.5603  1.3379
 4255SOL    MW416788   4.933   6.354   0.093 -0.1766  0.0998 -0.4067
 4256SOL     OW16789   6.145   5.327   0.487 -0.1947  0.2320  0.1947
 4256SOL    HW216790   6.139   5.317   0.392 -2.4323  1.7272  0.1027
 4256SOL    HW316791   6.236   5.303   0.508 -0.2718 -2.4841 -1.9565
 4256SOL    MW416792   6.156   5.322   0.477  0.2700 -0.0224  0.2292
 4257SOL     OW16793   4.051   3.327   2.270 -0.0270 -0.2998  0.2882
 4257SOL    HW216794   4.019   3.412   2.300  0.1756 -0.7507  1.8898
 4257SOL    HW316795   3.973   3.282   2.238 -0.1167  0.5123 -0.6881
 4257SOL    MW416796   4.037   3.332   2.270 -0.7511  0.0770  0.2409
 4258SOL     OW16797   1.590   2.948   3.596 -0.0007  0.3253  0.3945
 4258SOL    HW216798   1.672   2.982   3.559  0.4290 -0.5900  0.4621
 4258SOL    HW316799   1.582   2.860   3.558  0.6655 -0.8226  2.6947
 4258SOL    MW416800   1.600   2.941   3.587 -0.7078 -0.4027  0.3051
 4259SOL     OW16801   6.395   4.273   5.028 -0.2645  0.5500 -0.0835
 4259SOL    HW216802   6.334   4.331   4.981  0.4727  1.0618 -0.4323
 4259SOL    HW316803   6.371   4.283   5.120 -1.3053  0.0369 -0.2838
 4259SOL    MW416804   6.383   4.282   5.034 -0.0308 -0.2572 -0.0332
 4260SOL     OW16805   0.246   5.140   6.298  0.0293  0.1384 -0.2097
 4260SOL    HW216806   0.307   5.153   6.371 -0.4753 -0.6686  0.3650
 4260SOL    HW316807   0.268   5.054   6.263  0.0169  0.3620 -0.7707
 4260SOL    MW416808   0.257   5.131   6.303 -0.3402 -0.1865 -0.8858
 4261SOL     OW16809   1.854   5.210   2.638  0.6440 -0.6537 -0.0462
 4261SOL    HW216810   1.934   5.261   2.628  0.2220  0.6243  2.2925
 4261SOL    HW316811   1.792   5.251   2.577  0.4690  1.4305  1.4079
 4261SOL    MW416812   1.856   5.222   2.629  0.0657 -0.1791 -0.2023
 4262SOL     OW16813   3.540   4.817   2.680 -0.5854 -0.2243  0.3655
 4262SOL    HW216814   3.541   4.750   2.611 -0.7066 -1.1880  1.2819
 4262SOL    HW316815   3.447   4.832   2.697 -0.5558 -0.6657  0.9507
 4262SOL    MW416816   3.528   4.810   2.673 -0.3352 -0.6026  0.0722
 4263SOL     OW16817   4.815   4.005   2.880 -0.2150  0.6295 -0.3859
 4263SOL    HW216818   4.896   4.012   2.932  0.8637  1.3818 -2.0668
 4263SOL    HW316819   4.763   3.939   2.926  2.5783 -2.0856 -0.7387
 4263SOL    MW416820   4.819   3.997   2.893 -0.3544 -0.3673 -0.0638
 4264SOL     OW16821   5.816   4.018   2.962 -0.2976  0.1733  0.2268
 4264SOL    HW216822   5.812   4.109   2.932 -1.8238 -0.0030 -0.2029
 4264SOL    HW316823   5.738   4.008   3.017 -0.1411 -0.8710  0.2765
 4264SOL    MW416824   5.805   4.029   2.966 -0.5536  0.3821 -0.2492
 4265SOL     OW16825   2.417   0.959   0.411 -0.1448  0.2044  0.6441
 4265SOL    HW216826   2.454   0.954   0.499 -0.4136 -0.6218  0.7205
 4265SOL    HW316827   2.348   0.893   0.410  2.0351 -2.2579 -1.2058
 4265SOL    MW416828   2.413   0.950   0.423  0.0820 -0.3668  0.1651
 4266SOL     OW16829   2.308   2.152   4.549 -0.0883  0.4869  0.2193
 4266SOL    HW216830   2.255   2.227   4.523 -1.3277 -0.5154 -0.2258
 4266SOL    HW316831   2.310   2.155   4.645 -3.0470 -0.8011  0.4082
 4266SOL    MW416832   2.301   2.162   4.559 -0.1310 -0.3223 -0.0579
 4267SOL     OW16833   4.379   0.513   1.131  0.9243 -0.5549 -0.1829
 4267SOL    HW216834   4.404   0.596   1.171  1.5757 -0.6817 -0.3180
 4267SOL    HW316835   4.462   0.469   1.112  0.5873 -1.3601  0.1454
 4267SOL    MW416836   4.393   0.518   1.134  0.1006  0.0156 -0.4093
 4268SOL     OW16837   2.633   4.920   6.337  0.0816  0.2971 -0.1758
 4268SOL    HW216838   2.637   4.827   6.316  2.2572  0.7971 -2.4438
 4268SOL    HW316839   2.720   4.953   6.315 -0.4850  2.8028  1.0113
 4268SOL    MW416840   2.645   4.912   6.331 -0.4543  0.4749  0.2881
 4269SOL     OW16841   5.973   3.854   4.624  0.2875 -0.6824  0.6802
 4269SOL    HW216842   5.924   3.785   4.579  1.2178 -0.3776 -0.8714
 4269SOL    HW316843   5.909   3.924   4.636 -0.4512 -1.4703  1.5400
 4269SOL    MW416844   5.958   3.854   4.619  0.2761  0.1982  0.3512
 4270SOL     OW16845   1.668   5.222   5.904  0.0904  0.1357 -0.2519
 4270SOL    HW216846   1.590   5.275   5.883  0.2585  0.0694 -1.0839
 4270SOL    HW316847   1.724   5.280   5.955  0.0352  0.5925 -0.7043
 4270SOL    MW416848   1.665   5.236   5.908 -0.1968  0.1367  0.8568
 4271SOL     OW16849   3.723   3.345   3.574  0.5460  0.7497  0.4648
 4271SOL    HW216850   3.687   3.257   3.590 -0.2464  0.7580 -1.0441
 4271SOL    HW316851   3.646   3.401   3.564  1.0097  1.2575 -0.3670
 4271SOL    MW416852   3.708   3.340   3.575 -0.9545 -0.5064  0.3533
 4272SOL     OW16853   6.210   1.004   1.165  0.1650  1.0974  0.1884
 4272SOL    HW216854   6.303   1.003   1.191  0.5843  2.8583 -1.0751
 4272SOL    HW316855   6.191   1.096   1.147 -1.1214  0.4791 -2.0221
 4272SOL    MW416856   6.220   1.016   1.166  0.4025 -0.1134  0.1565
 4273SOL     OW16857   6.056   4.670   0.751  0.4979 -0.0103  0.1983
 4273SOL    HW216858   6.099   4.695   0.670  2.7357  0.5646  1.4811
 4273SOL    HW316859   5.980   4.727   0.757 -1.0165 -1.5381 -2.4853
 4273SOL    MW416860   6.051   4.681   0.741 -0.1029 -0.5466 -0.2125
 4274SOL     OW16861   0.990   0.326   4.965 -0.1679  0.4466  0.1362
 4274SOL    HW216862   0.982   0.422   4.967  0.4172  0.4802  1.3756
 4274SOL    HW316863   0.977   0.299   5.056  0.0961 -0.6256 -0.1350
 4274SOL    MW416864   0.987   0.335   4.977 -0.3898 -0.0303 -0.0320
 4275SOL     OW16865   0.378   6.275   0.646  0.0437  0.6236  0.1600
 4275SOL    HW216866   0.471   6.274   0.664  0.1921 -1.1863 -0.5007
 4275SOL    HW316867   0.336   6.272   0.732  0.6304  0.0994  0.4363
 4275SOL    MW416868   0.384   6.274   0.659  0.2511 -0.9077 -0.3741
 4276SOL     OW16869   4.561   5.966   0.752  0.1325 -0.7830 -0.0390
 4276SOL    HW216870   4.509   5.933   0.678  0.1846  0.3998 -0.6331
 4276SOL    HW316871   4.499   5.972   0.824 -1.0551  2.0702 -1.1308
 4276SOL    MW416872   4.545   5.962   0.751  0.3567 -0.3658 -0.1313
 4277SOL     OW16873   2.159   2.526   3.636  0.1163 -0.0895 -0.4549
 4277SOL    HW216874   2.175   2.446   3.587  1.8675  0.6372 -1.1600
 4277SOL    HW316875   2.228   2.528   3.703 -0.4840  0.3672  0.1687
 4277SOL    MW416876   2.170   2.516   3.638  0.2935  0.4386 -0.5736
 4278SOL     OW16877   5.429   1.405   5.676  0.1343 -0.0554 -0.5218
 4278SOL    HW216878   5.444   1.322   5.720 -0.2077 -0.7539 -1.6881
 4278SOL    HW316879   5.363   1.449   5.730  2.1352  0.6126  1.5116
 4278SOL    MW416880   5.422   1.400   5.689  0.5275  0.3572  0.0662
 4279SOL     OW16881   3.128   0.493   1.544  0.4680  0.4766 -0.0289
 4279SOL    HW216882   3.137   0.511   1.637  2.0854 -2.0963  0.4024
 4279SOL    HW316883   3.143   0.577   1.502 -0.6988  1.7876  1.9827
 4279SOL    MW416884   3.131   0.506   1.551  0.0241 -0.4650  0.3434
 4280SOL     OW16885   2.820   1.837   0.520  0.2556 -0.0144  0.6178
 4280SOL    HW216886   2.875   1.848   0.597 -0.8455  1.4192  1.2380
 4280SOL    HW316887   2.827   1.920   0.473 -2.5316  0.8752  1.5434
 4280SOL    MW416888   2.828   1.849   0.524  0.6280  0.6600 -0.0856
 4281SOL     OW16889   4.038   0.325   4.816  0.7240  0.0047 -0.2100
 4281SOL    HW216890   4.046   0.382   4.739 -1.5979 -1.3902 -1.6187
 4281SOL    HW316891   3.955   0.279   4.803  0.9643 -1.3791  2.4439
 4281SOL    MW416892   4.028   0.326   4.804 -0.1577 -0.0950 -0.4542
 4282SOL     OW16893   0.200   5.687   5.426 -0.8462  0.0162  0.2732
 4282SOL    HW216894   0.114   5.729   5.420 -0.6811  0.2244 -1.0636
 4282SOL    HW316895   0.235   5.716   5.510 -1.8410  0.3991  0.5744
 4282SOL    MW416896   0.193   5.697   5.436 -0.3965  0.6013  0.4618
 4283SOL     OW16897   3.743   0.068   5.655 -0.6344  0.4452  0.3430
 4283SOL    HW216898   3.665   0.116   5.683 -1.3311 -1.0204  1.0561
 4283SOL    HW316899   3.709  -0.016   5.622  0.5072  0.4962 -1.0767
 4283SOL    MW416900   3.728   0.063   5.655 -0.2203 -0.0980 -0.5692
 4284SOL     OW16901   2.900   3.431   4.025 -0.1233 -0.3408 -0.1771
 4284SOL    HW216902   2.954   3.505   4.052  0.2781 -0.4721 -0.6149
 4284SOL    HW316903   2.828   3.429   4.089 -0.4908  0.8138 -0.5291
 4284SOL    MW416904   2.897   3.441   4.037  0.4261 -0.1550 -0.1169
 4285SOL     OW16905   3.199   2.475   4.535  0.2963  0.9269 -0.8890
 4285SOL    HW216906   3.125   2.415   4.546  1.1080  0.2124  1.0890
 4285SOL    HW316907   3.184   2.517   4.451 -1.9896  0.2859 -0.8491
 4285SOL    MW416908   3.187   2.473   4.526 -0.1991 -0.1689 -0.6113
 4286SOL     OW16909   4.700   1.229   0.137  0.1248  0.2304  0.2171
 4286SOL    HW216910   4.781   1.180   0.152 -1.8451 -3.2430  0.6043
 4286SOL    HW316911   4.673   1.207   0.048  0.3475  2.7275 -0.5634
 4286SOL    MW416912   4.707   1.220   0.127 -0.3289 -0.3523  0.1519
 4287SOL     OW16913   2.247   1.227   1.108 -0.1051 -0.2496 -0.2525
 4287SOL    HW216914   2.264   1.163   1.177 -1.1801 -0.8227 -0.5038
 4287SOL    HW316915   2.200   1.178   1.041  0.9978  0.2707 -1.4610
 4287SOL    MW416916   2.243   1.212   1.109  0.3624  0.0599  0.2099
 4288SOL     OW16917   4.566   1.221   4.431 -0.3924 -0.0317  0.4521
 4288SOL    HW216918   4.523   1.165   4.495  0.4257 -2.6897 -1.1578
 4288SOL    HW316919   4.659   1.211   4.450 -0.2221  0.6102 -0.0249
 4288SOL    MW416920   4.573   1.213   4.442  0.1934 -0.1598 -0.2394
 4289SOL     OW16921   2.618   6.447   5.188  0.8209 -0.1026 -0.2150
 4289SOL    HW216922   2.637   6.482   5.275  0.2525  2.1604 -0.9525
 4289SOL    HW316923   2.690   6.477   5.133  0.8057 -0.9199 -0.7027
 4289SOL    MW416924   2.630   6.455   5.192 -0.1814 -0.3415  0.5107
 4290SOL     OW16925   0.889   1.369   2.450 -0.2527 -0.1020  0.1883
 4290SOL    HW216926   0.896   1.443   2.509  1.3473 -0.3562  0.3579
 4290SOL    HW316927   0.960   1.310   2.476 -2.0677 -2.1862  0.7145
 4290SOL    MW416928   0.899   1.371   2.461 -0.3650  0.0774 -0.1012
 4291SOL     OW16929   3.607   2.460   0.345  0.3103  0.0579  0.4293
 4291SOL    HW216930   3.558   2.421   0.417 -0.9791  0.7000 -0.0679
 4291SOL    HW316931   3.544   2.517   0.301  0.9373 -0.5991 -1.4249
 4291SOL    MW416932   3.592   2.462   0.348  0.5787 -0.2169 -0.0105
 4292SOL     OW16933   1.501   4.960   3.893 -0.1684 -0.0685 -0.4074
 4292SOL    HW216934   1.443   4.922   3.827  0.7350 -2.1810 -0.0743
 4292SOL    HW316935   1.565   5.011   3.843 -0.9693  0.4332 -0.9410
 4292SOL    MW416936   1.502   4.961   3.878  0.2035  0.5879 -0.3485
 4293SOL     OW16937   2.941   3.107   2.912 -0.6680  0.3343  0.0475
 4293SOL    HW216938   2.906   3.021   2.936  0.1217  0.4276  1.6472
 4293SOL    HW316939   2.886   3.135   2.838 -3.0435 -0.1457  1.5150
 4293SOL    MW416940   2.929   3.099   2.905 -0.1569  0.0440  0.8331
 4294SOL     OW16941   2.544   6.066   3.649 -0.2892 -0.3601 -0.0465
 4294SOL    HW216942   2.597   5.990   3.625 -1.7702 -1.4547 -0.0230
 4294SOL    HW316943   2.578   6.094   3.733  1.1475 -0.1440 -0.6729
 4294SOL    MW416944   2.555   6.059   3.657 -0.3260 -0.8983 -0.0956
 4295SOL     OW16945   5.023   0.507   6.335  0.2971  0.1428 -0.3659
 4295SOL    HW216946   5.036   0.595   6.301 -2.1325 -0.0855 -2.1497
 4295SOL    HW316947   5.050   0.449   6.264 -1.5914 -0.4263 -0.6808
 4295SOL    MW416948   5.029   0.511   6.322 -0.5487 -0.4201 -0.9158
 4296SOL     OW16949   2.308   6.254   5.231  0.0245  0.3772 -0.8122
 4296SOL    HW216950   2.327   6.344   5.254 -1.4214  1.2280 -2.6903
 4296SOL    HW316951   2.213   6.245   5.243 -0.1510 -0.3079 -2.4151
 4296SOL    MW416952   2.298   6.264   5.235  0.5083  0.1419  0.1165
 4297SOL     OW16953   5.492   4.811   3.839  0.4397  0.0402  0.0680
 4297SOL    HW216954   5.556   4.877   3.811 -0.4610  0.0683 -2.0769
 4297SOL    HW316955   5.435   4.799   3.764 -0.6789 -1.7125  1.1253
 4297SOL    MW416956   5.493   4.818   3.825 -0.7192 -0.1815  0.5438
 4298SOL     OW16957   1.604   0.676   3.311  0.0376  0.2201  0.1786
 4298SOL    HW216958   1.639   0.609   3.252 -2.8670 -0.3480 -1.0768
 4298SOL    HW316959   1.640   0.759   3.277  0.6575 -0.3528 -0.6067
 4298SOL    MW416960   1.614   0.678   3.299  0.1880 -0.3697 -0.5725
 4299SOL     OW16961   4.976   2.927   4.749  0.4864 -0.3527  0.1296
 4299SOL    HW216962   5.032   2.982   4.805 -1.2376 -0.1128  1.7140
 4299SOL    HW316963   4.960   2.849   4.801 -2.4277  0.5387  0.7269
 4299SOL    MW416964   4.982   2.924   4.763 -0.1459 -0.3742 -0.0210
 4300SOL     OW16965   1.953   1.541   3.668 -0.3221 -0.0186  0.2968
 4300SOL    HW216966   1.938   1.635   3.654 -1.4223 -0.0054  1.3501
 4300SOL    HW316967   1.985   1.509   3.584 -1.9064  0.9147 -0.7036
 4300SOL    MW416968   1.955   1.549   3.655 -0.0175  0.2221  0.0123
 4301SOL     OW16969   5.993   6.051   3.129  0.0151  0.3574  0.0208
 4301SOL    HW216970   6.029   6.000   3.202 -0.6175  1.0392  0.8207
 4301SOL    HW316971   6.068   6.101   3.096  0.6935 -1.1636 -0.8938
 4301SOL    MW416972   6.008   6.051   3.134  0.3585 -0.0445  0.3388
 4302SOL     OW16973   2.522   0.736   4.467 -0.0409 -0.0314  0.3399
 4302SOL    HW216974   2.607   0.715   4.428 -0.1119 -1.5815  0.9574
 4302SOL    HW316975   2.461   0.735   4.394  0.4811  1.3545 -0.1548
 4302SOL    MW416976   2.525   0.733   4.452  0.3054  0.2312 -0.0762
 4303SOL     OW16977   4.916   0.766   0.092  0.2770 -0.4600 -0.5744
 4303SOL    HW216978   4.842   0.724   0.049  1.4495 -2.0616 -1.1273
 4303SOL    HW316979   4.970   0.799   0.020  0.0044  0.9409 -0.1738
 4303SOL    MW416980   4.914   0.765   0.077  0.2771 -1.0061  0.2415
 4304SOL     OW16981   2.666   2.071   2.290  0.1267  0.3542 -0.0452
 4304SOL    HW216982   2.693   2.030   2.372 -1.5137  0.2788  0.4811
 4304SOL    HW316983   2.723   2.031   2.224 -1.6295 -3.1604  0.3648
 4304SOL    MW416984   2.677   2.061   2.292 -0.4113 -0.4695 -0.7428
 4305SOL     OW16985   2.784   0.632   4.332  0.3620 -0.0766  0.1115
 4305SOL    HW216986   2.766   0.544   4.365 -0.7741  0.2514  0.3939
 4305SOL    HW316987   2.871   0.625   4.291  0.3985 -1.2559  0.3642
 4305SOL    MW416988   2.793   0.620   4.331  0.4549 -0.5255  0.2818
 4306SOL     OW16989   2.328   5.889   5.856  0.6329 -0.0212  0.3960
 4306SOL    HW216990   2.419   5.889   5.884  1.4310 -2.6633 -1.7589
 4306SOL    HW316991   2.327   5.944   5.778  0.5238 -0.4451  0.0949
 4306SOL    MW416992   2.340   5.896   5.850  0.2881 -0.0806 -0.6369
 4307SOL     OW16993   5.203   6.150   2.628  0.2052 -0.0946  0.6848
 4307SOL    HW216994   5.225   6.235   2.667  2.8943 -0.4069  0.0851
 4307SOL    HW316995   5.243   6.085   2.686  0.6307 -0.7650 -0.3190
 4307SOL    MW416996   5.211   6.153   2.640 -0.5029  0.0983  0.2117
 4308SOL     OW16997   2.733   3.577   0.815 -0.1142  1.0145 -0.7478
 4308SOL    HW216998   2.759   3.506   0.756 -0.3834  0.8353 -0.6520
 4308SOL    HW316999   2.637   3.573   0.816 -0.1257 -0.6747  1.7078
 4308SOL    MW417000   2.724   3.567   0.808  0.1171 -0.1864 -0.6073
 4309SOL     OW17001   3.935   2.417   5.956  0.5411  0.1077  0.2323
 4309SOL    HW217002   3.864   2.364   5.921  1.0927  0.6724 -1.9134
 4309SOL    HW317003   3.898   2.505   5.966  0.7887  0.2856 -0.3895
 4309SOL    MW417004   3.921   2.422   5.953  0.3760 -0.2457  0.0006
 4310SOL     OW17005   2.036   6.167   1.852  0.0382 -0.0501 -0.5668
 4310SOL    HW217006   1.983   6.237   1.890  1.0405  0.7722 -0.6193
 4310SOL    HW317007   2.122   6.207   1.838  0.0078 -0.6197 -2.7269
 4310SOL    MW417008   2.040   6.182   1.855  0.1829 -0.2344 -0.0280
 4311SOL     OW17009   2.967   0.475   2.006  0.0472 -0.4603 -0.2098
 4311SOL    HW217010   3.014   0.394   1.986  1.7839  0.0336  1.5589
 4311SOL    HW317011   2.882   0.446   2.039 -0.8453 -1.3972 -3.0760
 4311SOL    MW417012   2.962   0.461   2.008  0.3875  0.6657 -0.1931
 4312SOL     OW17013   1.407   1.558   4.885 -0.2138  0.4991  0.0791
 4312SOL    HW217014   1.484   1.613   4.900  0.0055 -0.1022  1.2555
 4312SOL    HW317015   1.375   1.536   4.973 -0.8389 -0.4884 -0.3749
 4312SOL    MW417016   1.413   1.562   4.898 -0.6397 -0.4556 -0.7133
 4313SOL     OW17017   0.681   5.816   3.834 -0.1993  0.0683 -0.0734
 4313SOL    HW217018   0.629   5.861   3.901 -1.7538 -2.7340  0.7922
 4313SOL    HW317019   0.616   5.779   3.774  1.0673  0.3099 -1.6714
 4313SOL    MW417020   0.666   5.817   3.835  0.2283 -0.2658 -0.6325
 4314SOL     OW17021   2.813   4.593   3.488 -0.0624  0.3296 -0.4296
 4314SOL    HW217022   2.899   4.566   3.456 -0.9834 -1.6907 -1.3526
 4314SOL    HW317023   2.807   4.554   3.576 -0.0067  0.5466 -0.3289
 4314SOL    MW417024   2.824   4.584   3.495  0.3006  0.2398  0.1200
 4315SOL     OW17025   5.743   0.239   0.574 -0.4856  0.7049 -0.1638
 4315SOL    HW217026   5.750   0.259   0.481 -1.2446  2.1050  0.0511
 4315SOL    HW317027   5.774   0.149   0.582 -0.7794  0.4379 -1.8170
 4315SOL    MW417028   5.748   0.230   0.563  0.8505  0.7071 -0.0692
 4316SOL     OW17029   4.221   0.994   1.202 -0.4443 -0.1412  0.2645
 4316SOL    HW217030   4.250   1.013   1.291  2.1059 -0.0884 -0.5112
 4316SOL    HW317031   4.229   1.077   1.155 -2.7764  0.1050  0.1476
 4316SOL    MW417032   4.226   1.007   1.207  0.4986  0.0007  0.3922
 4317SOL     OW17033   5.603   4.015   4.454 -0.0339  0.3547  0.1450
 4317SOL    HW217034   5.554   3.949   4.404  2.2434 -2.1012  0.9137
 4317SOL    HW317035   5.555   4.022   4.537  0.6984 -1.9125  0.8396
 4317SOL    MW417036   5.590   4.007   4.459  0.2268  0.0984 -0.0606
 4318SOL     OW17037   0.651   5.807   4.828 -0.2537  0.1153  0.3534
 4318SOL    HW217038   0.682   5.772   4.912  1.3879 -2.0745 -1.0548
 4318SOL    HW317039   0.591   5.740   4.795 -0.1890  0.5164 -0.6220
 4318SOL    MW417040   0.647   5.793   4.835  0.0553  0.4965  0.5850
 4319SOL     OW17041   0.393   2.149   1.583 -0.6394  0.2034 -0.2621
 4319SOL    HW217042   0.398   2.134   1.677 -0.8374  1.3867 -0.0486
 4319SOL    HW317043   0.323   2.091   1.553  0.0395 -0.8587  0.1592
 4319SOL    MW417044   0.384   2.139   1.591  0.3656 -0.5989 -0.0349
 4320SOL     OW17045   1.009   2.332   2.883  0.2649  0.7182 -0.2302
 4320SOL    HW217046   1.001   2.245   2.844 -2.2709 -0.4555  2.4848
 4320SOL    HW317047   1.098   2.335   2.918  0.2533 -0.9672 -0.0012
 4320SOL    MW417048   1.020   2.321   2.882  0.2409 -0.3988 -0.3560
 4321SOL     OW17049   0.324   1.699   2.360 -0.1877  0.0465  0.1467
 4321SOL    HW217050   0.261   1.767   2.334 -0.0072 -0.0873 -0.6711
 4321SOL    HW317051   0.407   1.746   2.367 -0.0200 -0.1090 -0.6282
 4321SOL    MW417052   0.326   1.714   2.357 -0.2229  0.5092  0.2680
 4322SOL     OW17053   5.808   2.716   5.151  0.0257 -0.0862 -0.1056
 4322SOL    HW217054   5.826   2.801   5.192  0.3325 -0.8451  1.3679
 4322SOL    HW317055   5.892   2.687   5.117 -0.4252  1.0745 -2.4296
 4322SOL    MW417056   5.821   2.724   5.152  0.2908 -0.0733 -0.3363
 4323SOL     OW17057   3.459   5.521   0.038 -0.2651 -0.1700  0.5028
 4323SOL    HW217058   3.512   5.442   0.032  0.6699  0.3672  1.2897
 4323SOL    HW317059   3.380   5.502  -0.012  0.3044 -1.3012  0.0108
 4323SOL    MW417060   3.456   5.508   0.031  0.7520  0.6452  0.0275
 4324SOL     OW17061   1.250   5.314   5.558 -0.3540 -0.0010  0.7241
 4324SOL    HW217062   1.289   5.380   5.501 -0.8318  0.8599  1.3530
 4324SOL    HW317063   1.229   5.241   5.500 -0.7555  0.8120 -0.1918
 4324SOL    MW417064   1.252   5.313   5.543 -0.8426  0.5472 -0.1399
 4325SOL     OW17065   0.783   1.292   2.806  0.3990  0.4274 -0.0193
 4325SOL    HW217066   0.798   1.214   2.752 -0.7038  0.9631 -1.1353
 4325SOL    HW317067   0.742   1.355   2.747  0.6724  1.6326  1.0393
 4325SOL    MW417068   0.779   1.290   2.791  0.0832  0.1216 -0.5686
 4326SOL     OW17069   0.149   2.898   4.293  0.2079  0.0771 -0.5598
 4326SOL    HW217070   0.180   2.816   4.255  1.1116 -0.1374  0.5749
 4326SOL    HW317071   0.062   2.911   4.254  0.4719 -0.8822 -1.5212
 4326SOL    MW417072   0.141   2.889   4.283 -0.3267 -0.5814  0.0676
 4327SOL     OW17073   0.761   3.783   1.817 -0.0694  0.5455 -0.5662
 4327SOL    HW217074   0.770   3.772   1.912  2.6470 -1.6552 -0.9185
 4327SOL    HW317075   0.704   3.858   1.806  0.3695  1.5318  2.8236
 4327SOL    MW417076   0.755   3.791   1.828 -0.0829 -0.0399 -0.3918
 4328SOL     OW17077   5.228   5.685   5.514 -0.2713 -0.0155 -0.4822
 4328SOL    HW217078   5.281   5.691   5.434  0.1760  1.0207 -0.1285
 4328SOL    HW317079   5.140   5.710   5.487  0.2356  2.1535 -0.3428
 4328SOL    MW417080   5.224   5.689   5.499 -0.1406 -0.3121  0.0840
 4329SOL     OW17081   4.854   2.238   3.127  0.4734  0.0856  0.5965
 4329SOL    HW217082   4.829   2.234   3.219 -1.8324  1.6225  0.1174
 4329SOL    HW317083   4.822   2.156   3.090 -1.4380  0.8029  0.5775
 4329SOL    MW417084   4.847   2.227   3.134 -0.0096 -0.0246  0.0263
 4330SOL     OW17085   3.844   4.546   5.007  1.0865  0.4403 -1.4568
 4330SOL    HW217086   3.886   4.464   4.981  1.3956  1.1298 -3.3180
 4330SOL    HW317087   3.891   4.614   4.957 -0.1997  1.5674 -1.1984
 4330SOL    MW417088   3.856   4.544   4.997  0.2434 -0.0985 -0.2320
 4331SOL     OW17089   3.105   1.298   5.946 -0.4643  0.4665  0.0956
 4331SOL    HW217090   3.082   1.207   5.967 -1.0679  0.5682 -0.1076
 4331SOL    HW317091   3.050   1.350   6.004 -1.5510  0.7387 -1.1384
 4331SOL    MW417092   3.095   1.293   5.957 -0.0961  0.3901 -0.0640
 4332SOL     OW17093   5.389   4.335   3.976  0.0794  0.2098  0.5673
 4332SOL    HW217094   5.406   4.242   3.994  0.2507 -0.1122 -1.0377
 4332SOL    HW317095   5.294   4.343   3.976  0.0545  0.5962  3.1117
 4332SOL    MW417096   5.379   4.324   3.978  0.1144  0.0543  0.4063
 4333SOL     OW17097   4.115   0.093   4.657 -0.3276  0.3286 -0.3294
 4333SOL    HW217098   4.113   0.174   4.708 -1.0269  0.0358  0.1188
 4333SOL    HW317099   4.143   0.120   4.570  1.2905  0.7928  0.2920
 4333SOL    MW417100   4.119   0.107   4.652  0.4140  0.1286  0.4548
 4334SOL     OW17101   0.774   3.082   4.191 -0.4118 -0.0666  0.0385
 4334SOL    HW217102   0.794   3.156   4.134 -0.4509  0.6767  0.9660
 4334SOL    HW317103   0.694   3.044   4.154  0.5620 -0.7551 -1.4749
 4334SOL    MW417104   0.766   3.087   4.178 -0.3780 -0.0201 -0.1112
 4335SOL     OW17105   3.924   1.691   1.014 -0.3056 -0.4401 -0.0456
 4335SOL    HW217106   3.975   1.764   0.977 -0.7303 -0.0860  0.0591
 4335SOL    HW317107   3.859   1.733   1.071  0.3759 -0.9821  1.1680
 4335SOL    MW417108   3.922   1.706   1.016  0.1442 -0.0465  0.1111
 4336SOL     OW17109   5.054   2.148   2.864 -0.2024 -0.5505 -0.1370
 4336SOL    HW217110   5.078   2.241   2.857  1.7101 -1.0389 -0.5939
 4336SOL    HW317111   5.003   2.130   2.785 -0.2988  0.0281 -0.2093
 4336SOL    MW417112   5.050   2.158   2.852 -0.5831  0.2617 -0.4524
 4337SOL     OW17113   2.981   0.146   2.696  0.2333 -0.0126 -0.2766
 4337SOL    HW217114   3.040   0.130   2.770 -1.7514  0.2113  1.4702
 4337SOL    HW317115   2.975   0.062   2.652 -0.2872 -0.8144  1.2306
 4337SOL    MW417116   2.988   0.133   2.700  0.4224  0.1583  0.6396
 4338SOL     OW17117   2.535   0.880   1.570 -0.5520 -0.0286  0.0378
 4338SOL    HW217118   2.560   0.810   1.631 -0.3174 -0.4222 -0.4976
 4338SOL    HW317119   2.516   0.834   1.488 -1.5704  0.4164  0.0047
 4338SOL    MW417120   2.536   0.864   1.567  0.0072 -0.2579  0.0021
 4339SOL     OW17121   5.132   3.460   1.759 -0.2292  0.4320  0.1800
 4339SOL    HW217122   5.105   3.532   1.703 -0.0765 -0.9205 -1.7452
 4339SOL    HW317123   5.201   3.416   1.709  0.4473 -0.4150  1.7799
 4339SOL    MW417124   5.138   3.464   1.745  0.3959  1.0061  0.1845
 4340SOL     OW17125   2.169   4.509   0.226 -0.4884  0.0384 -0.3387
 4340SOL    HW217126   2.234   4.566   0.184 -0.3289  0.1431  0.0506
 4340SOL    HW317127   2.155   4.548   0.312 -0.5824 -0.3579 -0.1742
 4340SOL    MW417128   2.176   4.522   0.232  0.1636  0.3447 -0.2685
 4341SOL     OW17129   4.297   0.746   2.864  0.2250  0.1654  0.1284
 4341SOL    HW217130   4.216   0.747   2.813  1.2048  1.6402 -1.4724
 4341SOL    HW317131   4.295   0.827   2.916  0.4217 -0.0666  0.5071
 4341SOL    MW417132   4.286   0.757   2.864  0.2434  0.4336 -0.3260
 4342SOL     OW17133   5.250   4.932   4.307  0.5834 -0.2658 -0.1386
 4342SOL    HW217134   5.288   4.922   4.220  0.2321  1.9432 -0.5994
 4342SOL    HW317135   5.323   4.961   4.362  0.3697  0.3272 -0.1670
 4342SOL    MW417136   5.265   4.934   4.303  0.5816  0.9308  0.6066
 4343SOL     OW17137   3.474   4.324   1.171  0.2772  0.1305 -0.0209
 4343SOL    HW217138   3.546   4.317   1.108  0.5277  1.6077  0.0585
 4343SOL    HW317139   3.461   4.235   1.203  3.9362  0.1784  2.0393
 4343SOL    MW417140   3.482   4.311   1.167  0.6751  0.4819 -0.4489
 4344SOL     OW17141   1.865   0.945   2.522  0.0531  0.2486  0.0947
 4344SOL    HW217142   1.821   0.865   2.550  2.1204 -1.3123 -0.8291
 4344SOL    HW317143   1.886   0.991   2.603 -1.2354 -0.0807  0.6402
 4344SOL    MW417144   1.862   0.941   2.536 -0.4371 -0.2127  0.3627
 4345SOL     OW17145   2.641   2.877   5.405  0.1988 -0.3390 -0.4341
 4345SOL    HW217146   2.589   2.899   5.328  0.3799  0.0944 -0.4348
 4345SOL    HW317147   2.592   2.911   5.479  0.1138 -0.5950 -0.3709
 4345SOL    MW417148   2.628   2.884   5.405  0.3835  0.5005 -0.1946
 4346SOL     OW17149   1.721   1.444   5.366 -0.1656  0.6571  0.4445
 4346SOL    HW217150   1.719   1.401   5.281  0.7989 -1.5449  1.4698
 4346SOL    HW317151   1.649   1.405   5.414  2.2938 -2.0257  2.2983
 4346SOL    MW417152   1.712   1.433   5.361 -0.2734 -0.4363  0.3318
 4347SOL     OW17153   1.214   2.390   3.813 -0.5483  0.0023  0.5247
 4347SOL    HW217154   1.196   2.444   3.736 -0.9429 -0.9491 -0.0689
 4347SOL    HW317155   1.137   2.334   3.821 -0.4702  0.0266  1.5688
 4347SOL    MW417156   1.201   2.390   3.804 -0.0240  0.0322  0.3299
 4348SOL     OW17157   0.702   4.498   4.536  0.0743 -0.5896 -0.8298
 4348SOL    HW217158   0.795   4.476   4.543 -0.1461 -1.4579 -0.5383
 4348SOL    HW317159   0.687   4.510   4.442  0.7070  0.6131 -0.7961
 4348SOL    MW417160   0.712   4.497   4.524 -0.2069  0.4702 -0.2984
 4349SOL     OW17161   1.539   5.359   4.661  0.3442 -0.2241 -0.0557
 4349SOL    HW217162   1.523   5.382   4.570  0.2875  1.2619  0.2954
 4349SOL    HW317163   1.580   5.438   4.698  1.3784 -1.1875  0.9315
 4349SOL    MW417164   1.543   5.373   4.654  0.0970  0.0813  0.5015
 4350SOL     OW17165   5.423   3.515   1.047  0.1693 -0.5140 -0.0404
 4350SOL    HW217166   5.491   3.517   1.114  1.9296 -1.1632 -1.6958
 4350SOL    HW317167   5.341   3.527   1.095  1.3589 -0.6254  2.1569
 4350SOL    MW417168   5.421   3.517   1.062  0.3264  0.1576 -0.1081
 4351SOL     OW17169   0.139   0.405   1.143  0.3908 -0.2037  0.1337
 4351SOL    HW217170   0.044   0.405   1.157  0.4794 -0.6663  0.7734
 4351SOL    HW317171   0.176   0.386   1.230  1.0821  0.4091 -0.0184
 4351SOL    MW417172   0.131   0.402   1.157 -0.1366 -0.2849 -0.1186
 4352SOL     OW17173   0.596   4.800   4.875  0.8465 -0.3043  0.0607
 4352SOL    HW217174   0.683   4.762   4.886  0.6572 -0.8012 -0.1290
 4352SOL    HW317175   0.554   4.788   4.960  1.3159  0.8723  0.4782
 4352SOL    MW417176   0.602   4.793   4.888 -0.3660  0.0537 -0.5038
 4353SOL     OW17177   4.597   2.833   1.647 -0.1728 -0.0961  0.6059
 4353SOL    HW217178   4.513   2.799   1.617 -0.8070  1.7870  0.0714
 4353SOL    HW317179   4.589   2.928   1.639  2.6621  0.1339 -1.2888
 4353SOL    MW417180   4.585   2.841   1.642 -0.0910 -0.1376  0.1831
 4354SOL     OW17181   1.396   1.367   2.797  0.7611 -0.3358  0.4857
 4354SOL    HW217182   1.402   1.275   2.823  1.6505 -0.6033 -0.5948
 4354SOL    HW317183   1.486   1.398   2.802  0.4360  0.5465  1.0319
 4354SOL    MW417184   1.409   1.359   2.801  0.4175 -0.0061 -0.1309
 4355SOL     OW17185   4.052   2.991   2.454  0.0408 -0.4486 -0.5070
 4355SOL    HW217186   3.996   2.944   2.517 -0.9285 -1.4153 -2.0254
 4355SOL    HW317187   4.080   3.069   2.501 -1.4871 -0.6256  0.7819
 4355SOL    MW417188   4.048   2.995   2.469  0.3998  0.2712 -0.1916
 4356SOL     OW17189   1.638   4.833   1.850  0.1564  0.4190 -0.0918
 4356SOL    HW217190   1.647   4.759   1.790  2.9189 -0.3139  1.0492
 4356SOL    HW317191   1.544   4.850   1.854 -0.7557 -3.7786  0.4203
 4356SOL    MW417192   1.627   4.826   1.843  0.2329  0.1868 -0.0919
 4357SOL     OW17193   1.138   5.210   1.236 -0.1094  0.0841  0.0230
 4357SOL    HW217194   1.210   5.242   1.182 -0.3570 -0.7351 -0.8298
 4357SOL    HW317195   1.093   5.289   1.265  0.9550  0.5882  0.3280
 4357SOL    MW417196   1.141   5.225   1.233 -0.2808  0.4255  0.2162
 4358SOL     OW17197   3.348   5.625   0.419 -0.0538 -0.2874  0.0057
 4358SOL    HW217198   3.377   5.542   0.383 -0.4319 -0.7816  0.8003
 4358SOL    HW317199   3.261   5.606   0.455 -0.6613  0.7406 -0.8475
 4358SOL    MW417200   3.340   5.612   0.419 -0.1060 -0.0778 -0.5095
 4359SOL     OW17201   4.953   4.424   2.055  0.1231 -0.3442  0.5333
 4359SOL    HW217202   5.019   4.415   2.124 -1.3171 -2.2872  1.7501
 4359SOL    HW317203   4.919   4.513   2.067 -1.1095 -1.0761  3.4094
 4359SOL    MW417204   4.957   4.435   2.066  0.2029 -0.4506  0.8866
 4360SOL     OW17205   1.214   3.965   3.839  0.1562 -0.4361  0.7389
 4360SOL    HW217206   1.180   4.055   3.836  1.0780 -0.0722  0.7386
 4360SOL    HW317207   1.198   3.930   3.752  0.5454  0.0181  0.4840
 4360SOL    MW417208   1.207   3.972   3.827 -0.3567  0.1274 -0.3610
 4361SOL     OW17209   3.498   1.558   0.347  0.0190  0.3039  0.7690
 4361SOL    HW217210   3.457   1.483   0.390 -1.9284  1.8957  1.8720
 4361SOL    HW317211   3.592   1.540   0.352 -0.3067 -1.1931  2.6642
 4361SOL    MW417212   3.505   1.546   0.353  0.0884  0.3960 -0.4326
 4362SOL     OW17213   2.459   4.834   3.376  0.0273 -0.0137  0.6194
 4362SOL    HW217214   2.539   4.808   3.331 -0.5069  0.4037 -0.6020
 4362SOL    HW317215   2.389   4.815   3.314 -0.5893  2.1540  0.5929
 4362SOL    MW417216   2.460   4.828   3.362 -0.6671  0.0915 -0.0032
 4363SOL     OW17217   0.640   3.657   5.207  0.4433 -0.2949 -0.2131
 4363SOL    HW217218   0.617   3.675   5.298 -0.2657 -1.0371 -0.2242
 4363SOL    HW317219   0.583   3.583   5.183 -0.2473  0.6594 -1.6280
 4363SOL    MW417220   0.629   3.649   5.216  0.0110  0.5664 -0.0708
 4364SOL     OW17221   3.665   5.447   4.354  0.1497 -0.3290  0.3200
 4364SOL    HW217222   3.571   5.436   4.362  0.1255  0.3831  1.1458
 4364SOL    HW317223   3.702   5.371   4.398 -0.0093 -1.7026 -1.7698
 4364SOL    MW417224   3.658   5.436   4.361  0.2308  0.5225  0.1746
 4365SOL     OW17225   4.862   3.775   0.844  0.1033 -0.6833  0.1723
 4365SOL    HW217226   4.791   3.787   0.906 -0.9490  0.1998 -1.1359
 4365SOL    HW317227   4.854   3.849   0.784  1.7643 -0.8938 -0.3738
 4365SOL    MW417228   4.852   3.787   0.844  0.0647  0.1233 -0.0245
 4366SOL     OW17229   3.728   5.542   5.574 -0.4232  0.0892 -0.5716
 4366SOL    HW217230   3.720   5.529   5.480 -1.5527 -1.3009 -0.3223
 4366SOL    HW317231   3.668   5.478   5.612  2.3347 -1.6229  1.1993
 4366SOL    MW417232   3.719   5.532   5.567 -0.4120  0.6930 -0.2716
 4367SOL     OW17233   2.270   2.743   0.666 -0.4463  0.2330 -0.2990
 4367SOL    HW217234   2.303   2.750   0.577 -0.0249  1.0199 -0.0970
 4367SOL    HW317235   2.311   2.664   0.701  0.7747  0.8617 -0.2518
 4367SOL    MW417236   2.280   2.734   0.659 -0.3029 -0.1941 -0.0014
 4368SOL     OW17237   5.094   1.243   5.597  0.2729  0.1570 -0.3984
 4368SOL    HW217238   5.162   1.176   5.603  1.5567  1.3226 -1.4046
 4368SOL    HW317239   5.127   1.306   5.532 -1.2718  1.3277 -0.1132
 4368SOL    MW417240   5.107   1.243   5.589  0.0668 -0.0774 -0.4940
 4369SOL     OW17241   4.684   4.998   1.663  0.5316 -0.6264  0.2284
 4369SOL    HW217242   4.670   4.967   1.574  1.2102 -1.5926  0.4383
 4369SOL    HW317243   4.779   4.996   1.674  0.4258 -1.1300  1.1733
 4369SOL    MW417244   4.695   4.993   1.653 -0.3642 -0.6348 -0.1182
 4370SOL     OW17245   5.462   3.315   2.756 -0.2476  0.1587 -0.7890
 4370SOL    HW217246   5.401   3.380   2.720 -1.2641 -1.4589 -2.1304
 4370SOL    HW317247   5.545   3.333   2.714 -0.0441  1.6612  0.1825
 4370SOL    MW417248   5.465   3.326   2.746  0.1019 -0.0611  0.0302
 4371SOL     OW17249   0.567   0.612   3.607 -0.0267  0.3495  0.3858
 4371SOL    HW217250   0.613   0.576   3.682 -1.2755 -0.7624  0.6639
 4371SOL    HW317251   0.583   0.549   3.536 -2.3272 -0.9334  0.9080
 4371SOL    MW417252   0.575   0.599   3.607 -0.3758  0.3502 -0.2242
 4372SOL     OW17253   4.994   6.315   1.700  0.2393  0.2071  0.2871
 4372SOL    HW217254   5.081   6.355   1.708  0.2954  0.5656 -1.5638
 4372SOL    HW317255   5.007   6.224   1.727  1.3194  0.1305 -0.3989
 4372SOL    MW417256   5.007   6.308   1.704  0.0721 -0.1689 -0.5080
 4373SOL     OW17257   5.301   1.867   5.982  0.6953  0.1698 -0.3198
 4373SOL    HW217258   5.368   1.821   5.930  1.2053  0.6255 -0.0796
 4373SOL    HW317259   5.220   1.821   5.962  0.8943  0.2870 -1.4521
 4373SOL    MW417260   5.299   1.855   5.972  0.0474  0.5602 -0.2681
 4374SOL     OW17261   1.842   3.143   3.554 -0.4942  0.6692  0.7620
 4374SOL    HW217262   1.882   3.175   3.473 -0.6588  1.2936  0.9258
 4374SOL    HW317263   1.916   3.109   3.605 -0.3427  0.6324  0.5191
 4374SOL    MW417264   1.857   3.142   3.550  0.0391 -0.0075  0.3063
 4375SOL     OW17265   2.320   4.012   4.075 -0.4802  0.2496 -0.0157
 4375SOL    HW217266   2.346   3.926   4.108 -1.2054  0.4924  1.2405
 4375SOL    HW317267   2.364   4.074   4.133 -0.1188  0.7384 -0.7920
 4375SOL    MW417268   2.330   4.009   4.087  0.1713  0.4670 -0.2580
 4376SOL     OW17269   4.353   6.145   3.300  0.1481  0.4240  0.3302
 4376SOL    HW217270   4.414   6.086   3.257  1.7925  2.7303 -0.6545
 4376SOL    HW317271   4.402   6.182   3.373 -0.6131  1.1569  0.4896
 4376SOL    MW417272   4.367   6.142   3.304  0.5027  0.2477 -0.0266
 4377SOL     OW17273   6.230   0.967   3.730  0.0129 -0.6314 -0.8011
 4377SOL    HW217274   6.185   0.911   3.794 -1.7104 -0.6472 -1.9484
 4377SOL    HW317275   6.262   1.041   3.781 -0.7540 -0.9649  0.1962
 4377SOL    MW417276   6.228   0.969   3.745  0.2465 -0.2727 -0.3223
 4378SOL     OW17277   4.765   0.650   5.365  0.0327 -0.2458 -0.3574
 4378SOL    HW217278   4.677   0.632   5.331 -0.5850  0.8368  0.5693
 4378SOL    HW317279   4.750   0.676   5.456  1.3645 -0.4406 -0.0692
 4378SOL    MW417280   4.751   0.651   5.373 -0.2560 -0.3185 -0.1534
 4379SOL     OW17281   0.479   2.265   1.206  0.2565 -0.2855 -0.2073
 4379SOL    HW217282   0.540   2.339   1.210  1.5839 -1.3191 -0.4608
 4379SOL    HW317283   0.513   2.203   1.271  1.6387 -2.4128 -2.7919
 4379SOL    MW417284   0.492   2.267   1.215 -0.1662  0.0326  0.0340
 4380SOL     OW17285   1.139   4.795   5.970  0.3670 -0.0359  0.5956
 4380SOL    HW217286   1.073   4.748   6.021  0.4666  0.9938  1.7132
 4380SOL    HW317287   1.121   4.771   5.879 -1.1233 -0.2858  0.9321
 4380SOL    MW417288   1.128   4.785   5.965 -0.3019  0.8811 -0.2386
 4381SOL     OW17289   5.805   0.649   4.351 -0.1516 -0.4601  0.6798
 4381SOL    HW217290   5.869   0.709   4.313 -1.4191 -0.2967 -1.3423
 4381SOL    HW317291   5.837   0.633   4.440  2.2208  0.2290  0.0199
 4381SOL    MW417292   5.818   0.655   4.358 -0.2086 -0.2457 -0.3782
 4382SOL     OW17293   0.048   4.845   4.871 -0.1817  0.3276 -0.9208
 4382SOL    HW217294   0.095   4.770   4.835 -0.5213  0.5359 -1.8387
 4382SOL    HW317295   0.116   4.901   4.909  0.0549 -0.5097 -0.0833
 4382SOL    MW417296   0.063   4.843   4.871 -0.3453  0.2121  0.3195
 4383SOL     OW17297   4.412   2.277   3.890 -0.4844  0.8136  0.4730
 4383SOL    HW217298   4.345   2.211   3.874  1.0118 -0.7099  0.1766
 4383SOL    HW317299   4.491   2.241   3.849  0.3947  2.8171  0.2802
 4383SOL    MW417300   4.414   2.264   3.882 -0.0974  0.6672 -0.5302
 4384SOL     OW17301   0.227   4.251   3.013 -0.1819  0.5219  0.0687
 4384SOL    HW217302   0.264   4.325   3.061  1.1092  0.2183 -0.4132
 4384SOL    HW317303   0.229   4.278   2.921  4.1361 -1.4866 -0.6785
 4384SOL    MW417304   0.232   4.264   3.007  0.1175 -0.4893  0.0728
 4385SOL     OW17305   2.482   5.571   5.637  0.2379  0.0550  0.3675
 4385SOL    HW217306   2.562   5.534   5.673 -1.0470 -1.2021  2.1001
 4385SOL    HW317307   2.429   5.495   5.614 -0.2195  0.8575 -1.4577
 4385SOL    MW417308   2.486   5.556   5.638  0.0763 -0.0821  0.1277
 4386SOL     OW17309   1.188   3.310   2.172  0.2340 -0.3063  0.4625
 4386SOL    HW217310   1.170   3.389   2.122 -1.8056 -1.9673 -1.6288
 4386SOL    HW317311   1.151   3.327   2.259 -1.3139  0.5987 -0.3453
 4386SOL    MW417312   1.181   3.323   2.177  0.1018 -0.3330 -0.4045
 4387SOL     OW17313   0.899   3.539   2.468  0.3183 -0.5335  0.2790
 4387SOL    HW217314   0.850   3.520   2.548 -0.2363  2.2311  0.6970
 4387SOL    HW317315   0.974   3.590   2.498  0.5737 -0.2016 -0.9034
 4387SOL    MW417316   0.902   3.543   2.483 -0.1911 -0.2641  0.1117
 4388SOL     OW17317   6.306   0.975   4.529 -0.0350  0.2262 -0.3626
 4388SOL    HW217318   6.339   0.960   4.618 -0.3848  0.4480 -0.1947
 4388SOL    HW317319   6.360   1.046   4.495 -1.4529  1.8062  0.5420
 4388SOL    MW417320   6.318   0.982   4.536  0.2317  0.0063 -0.3091
 4389SOL     OW17321   5.762   4.387   2.260 -0.1129  0.0969  0.1208
 4389SOL    HW217322   5.784   4.300   2.227  1.0628  0.4473 -0.0462
 4389SOL    HW317323   5.846   4.427   2.283 -0.4999  1.6186 -0.8777
 4389SOL    MW417324   5.776   4.381   2.259 -0.1884 -0.3699 -0.3473
 4390SOL     OW17325   6.284   2.316   2.750 -0.3945  0.5828  1.2484
 4390SOL    HW217326   6.359   2.312   2.690 -1.7596  0.4734 -0.5199
 4390SOL    HW317327   6.222   2.374   2.708 -1.7471 -0.1452  2.1648
 4390SOL    MW417328   6.286   2.323   2.737 -0.3289 -0.1711 -0.0911
 4391SOL     OW17329   2.992   0.351   4.715  0.1101 -0.5162  0.2534
 4391SOL    HW217330   2.997   0.375   4.808 -4.0663  1.1692  0.2561
 4391SOL    HW317331   2.998   0.255   4.715  1.1148 -0.5046  2.1091
 4391SOL    MW417332   2.994   0.341   4.727  0.2533  0.3231  0.6512
 4392SOL     OW17333   3.249   5.401   6.344  0.1304 -0.0648  0.4546
 4392SOL    HW217334   3.179   5.420   6.407 -0.0084 -1.0508  0.6119
 4392SOL    HW317335   3.206   5.406   6.259  0.3015  1.1938  0.4168
 4392SOL    MW417336   3.234   5.404   6.341 -0.0036  0.4791 -0.1055
 4393SOL     OW17337   2.676   0.099   5.443 -0.1205 -0.1726  0.2557
 4393SOL    HW217338   2.730   0.149   5.505 -0.4794 -1.5371  1.7318
 4393SOL    HW317339   2.690   0.008   5.468 -1.6247 -0.6602 -0.5845
 4393SOL    MW417340   2.685   0.094   5.454  0.2713  0.6599  0.7883
 4394SOL     OW17341   1.294   0.959   3.217  0.4978 -0.0696  0.5990
 4394SOL    HW217342   1.276   0.871   3.185 -0.6541  0.6945 -0.9325
 4394SOL    HW317343   1.234   1.016   3.169 -0.3279  1.3350  3.1164
 4394SOL    MW417344   1.284   0.955   3.207  0.3979 -0.6815  0.5174
 4395SOL     OW17345   2.570   5.782   2.001 -0.2008  0.0759  0.0540
 4395SOL    HW217346   2.545   5.793   1.909 -2.4726  0.0015  0.6079
 4395SOL    HW317347   2.651   5.833   2.010  1.1066 -1.3832 -2.3665
 4395SOL    MW417348   2.578   5.790   1.990 -0.2978  0.7303 -0.2656
 4396SOL     OW17349   3.753   0.125   3.258 -0.5619 -0.3218  0.6386
 4396SOL    HW217350   3.667   0.089   3.279 -0.8018  0.0572  0.3121
 4396SOL    HW317351   3.771   0.094   3.169 -1.2429  1.2075 -0.0750
 4396SOL    MW417352   3.744   0.116   3.249  0.0113 -0.5852 -0.3141
 4397SOL     OW17353   3.593   1.385   3.626 -0.2470 -0.4588  0.3366
 4397SOL    HW217354   3.528   1.422   3.566  0.0004  0.8754  0.8633
 4397SOL    HW317355   3.575   1.426   3.710  0.7548 -0.7096  0.6914
 4397SOL    MW417356   3.582   1.395   3.629  0.4465  0.1363 -0.0305
 4398SOL     OW17357   6.247   3.864   3.721 -0.1702  0.4625 -0.8439
 4398SOL    HW217358   6.245   3.959   3.730 -0.9687  0.4702 -1.0018
 4398SOL    HW317359   6.239   3.832   3.810 -0.7441  0.5509 -0.8566
 4398SOL    MW417360   6.246   3.872   3.734 -0.0142  0.1359 -0.3480
 4399SOL     OW17361   4.782   6.014   1.728  0.0106 -0.5512 -0.1754
 4399SOL    HW217362   4.733   6.049   1.653  1.7763 -0.1272 -1.1898
 4399SOL    HW317363   4.720   5.957   1.772 -1.5827  0.4246 -1.0451
 4399SOL    MW417364   4.768   6.011   1.724 -0.1608 -0.0484  1.1426
 4400SOL     OW17365   4.907   4.271   0.638  0.6234  0.2080 -0.2796
 4400SOL    HW217366   4.851   4.343   0.610  0.5531  0.0686 -0.4972
 4400SOL    HW317367   4.996   4.302   0.621  0.6417  0.6331  0.5428
 4400SOL    MW417368   4.911   4.285   0.632  0.4902  0.6149  0.7466
 4401SOL     OW17369   1.844   6.113   6.324  0.2581  0.4841  0.1319
 4401SOL    HW217370   1.774   6.168   6.290  0.5749  1.0883  0.4319
 4401SOL    HW317371   1.821   6.098   6.416  0.3092  0.3372  0.1212
 4401SOL    MW417372   1.832   6.118   6.332 -0.0768 -0.0705 -0.0185
 4402SOL     OW17373   3.284   4.539   4.765  0.2502  0.1360 -0.4468
 4402SOL    HW217374   3.326   4.625   4.764  1.5617 -0.4195  1.5952
 4402SOL    HW317375   3.353   4.478   4.790 -1.4038 -1.0152  1.6542
 4402SOL    MW417376   3.299   4.542   4.768 -0.2895 -0.1008  0.6267
 4403SOL     OW17377   3.689   4.834   2.998  0.1499 -0.4031 -0.2578
 4403SOL    HW217378   3.617   4.840   3.061 -0.2933 -2.0091 -0.5749
 4403SOL    HW317379   3.689   4.919   2.954 -0.6500  0.1188  0.7081
 4403SOL    MW417380   3.680   4.846   3.001 -0.2619 -0.2148 -0.1227
 4404SOL     OW17381   2.740   3.101   5.067 -0.4544  0.2574  0.6941
 4404SOL    HW217382   2.767   3.177   5.015 -1.3227 -0.9581 -1.6942
 4404SOL    HW317383   2.799   3.101   5.142  1.8669  1.3613 -0.9940
 4404SOL    MW417384   2.751   3.111   5.070  0.1573 -0.0755 -0.2587
 4405SOL     OW17385   5.521   3.168   5.100 -0.2174 -0.2529  0.3241
 4405SOL    HW217386   5.502   3.156   5.193 -1.7560 -0.5346  0.0051
 4405SOL    HW317387   5.539   3.079   5.068  0.6410 -0.1176  0.4002
 4405SOL    MW417388   5.521   3.155   5.108 -0.1690  0.5861 -0.4880
 4406SOL     OW17389   5.355   0.527   5.164  0.1696 -0.3079 -0.4166
 4406SOL    HW217390   5.359   0.488   5.251 -0.6830  0.3599 -0.0683
 4406SOL    HW317391   5.277   0.488   5.123  0.0812  0.0223 -0.5661
 4406SOL    MW417392   5.345   0.517   5.170 -0.2811 -0.0259 -0.5564
 4407SOL     OW17393   4.093   3.754   0.498  0.1545 -0.6474 -1.1829
 4407SOL    HW217394   4.179   3.735   0.536  0.1713  5.1332  2.8368
 4407SOL    HW317395   4.033   3.697   0.547  1.1661 -0.0774  0.8451
 4407SOL    MW417396   4.096   3.744   0.509  0.2304 -0.7516 -0.2412
 4408SOL     OW17397   5.263   4.517   0.271  0.0441  0.4745  0.5999
 4408SOL    HW217398   5.259   4.611   0.285 -0.5683  0.5234  0.1266
 4408SOL    HW317399   5.353   4.493   0.294 -0.2117  0.9266  2.2141
 4408SOL    MW417400   5.274   4.526   0.276 -0.2877 -0.2850 -0.1078
 4409SOL     OW17401   5.972   3.454   1.171 -0.0399  0.1608 -0.3363
 4409SOL    HW217402   5.973   3.549   1.172  1.3624  0.1766 -0.5006
 4409SOL    HW317403   6.029   3.430   1.098  0.0750 -0.7937  0.0445
 4409SOL    MW417404   5.980   3.463   1.162 -0.4171 -0.4680 -0.2822
 4410SOL     OW17405   0.863   5.595   5.707 -0.1136  0.1959 -0.1027
 4410SOL    HW217406   0.900   5.542   5.637  1.4732  0.9861  0.1057
 4410SOL    HW317407   0.827   5.531   5.769 -2.0089 -0.5091 -1.8159
 4410SOL    MW417408   0.863   5.579   5.706  0.2487  0.4051  0.3333
 4411SOL     OW17409   4.657   2.375   2.367 -0.1430  0.0483 -0.0379
 4411SOL    HW217410   4.670   2.368   2.273  0.5253  0.4861  0.0182
 4411SOL    HW317411   4.735   2.334   2.405 -1.4939 -2.3264  0.3574
 4411SOL    MW417412   4.669   2.368   2.360  0.9757 -0.1508  0.0317
 4412SOL     OW17413   6.373   3.683   0.964 -0.2258  0.4726  0.3383
 4412SOL    HW217414   6.390   3.614   0.899  0.1654  0.6757  0.2237
 4412SOL    HW317415   6.369   3.636   1.047 -3.2070 -0.1790 -0.0304
 4412SOL    MW417416   6.374   3.668   0.966  0.1246 -0.1579 -0.0459
 4413SOL     OW17417   5.978   3.933   2.021 -0.7639 -0.1609 -0.1953
 4413SOL    HW217418   5.993   3.839   2.028  0.0014  0.0378  1.1303
 4413SOL    HW317419   6.032   3.971   2.090 -0.6173  1.3035 -1.0661
 4413SOL    MW417420   5.987   3.926   2.031  0.2973  0.7826  0.3326
 4414SOL     OW17421   0.041   3.400   3.025  0.5001  0.5058  0.2093
 4414SOL    HW217422  -0.045   3.363   3.007  0.4158  1.0157 -0.4736
 4414SOL    HW317423   0.025   3.470   3.089  0.6046 -0.3187  1.1703
 4414SOL    MW417424   0.028   3.405   3.031  0.3419 -0.1994 -0.2469
 4415SOL     OW17425   0.882   4.739   1.102  0.4643 -0.0098 -0.3072
 4415SOL    HW217426   0.929   4.821   1.121  0.6765  0.0536 -1.0812
 4415SOL    HW317427   0.941   4.692   1.043  0.0070 -0.3915 -0.4579
 4415SOL    MW417428   0.896   4.744   1.097  0.3321  0.2063 -0.3316
 4416SOL     OW17429   4.356   4.977   4.121  0.0489 -0.1178 -0.5221
 4416SOL    HW217430   4.389   5.027   4.046  1.2535  1.8135  1.1970
 4416SOL    HW317431   4.284   5.029   4.155  0.5744 -0.1146  0.6283
 4416SOL    MW417432   4.351   4.990   4.115 -0.7566  0.1726 -0.0219
 4417SOL     OW17433   0.808   6.283   2.196  0.5118 -0.1172 -0.0257
 4417SOL    HW217434   0.882   6.283   2.257  0.4481 -0.3495  0.0515
 4417SOL    HW317435   0.841   6.328   2.119  1.5918 -2.4883 -1.0249
 4417SOL    MW417436   0.822   6.289   2.194 -0.8627  0.0067 -0.1637
 4418SOL     OW17437   0.075   6.177   0.267 -0.0692  0.1959  0.6238
 4418SOL    HW217438   0.048   6.268   0.260 -0.3220  0.0072 -1.2433
 4418SOL    HW317439   0.166   6.181   0.295 -0.0721  1.0079  0.5335
 4418SOL    MW417440   0.083   6.189   0.270  0.3170 -0.0066  0.1392
 4419SOL     OW17441   0.534   3.755   5.439  0.3425  0.1150 -0.6449
 4419SOL    HW217442   0.542   3.833   5.384 -1.3792  1.2595  0.6318
 4419SOL    HW317443   0.441   3.750   5.461  0.4779 -2.0868 -0.3434
 4419SOL    MW417444   0.523   3.765   5.435  0.2620  0.1375 -0.2058
 4420SOL     OW17445   6.218   3.529   4.052 -0.0425 -0.1835  0.2051
 4420SOL    HW217446   6.210   3.622   4.030 -0.6855 -0.2572  0.1134
 4420SOL    HW317447   6.180   3.522   4.139 -1.1660 -0.5741 -0.3032
 4420SOL    MW417448   6.212   3.541   4.061  0.4458 -0.4453 -0.2735
 4421SOL     OW17449   6.133   6.329   0.409  0.6757 -0.3121 -0.5203
 4421SOL    HW217450   6.217   6.375   0.399 -0.7787  2.4368 -0.7991
 4421SOL    HW317451   6.113   6.335   0.502 -0.0114  0.5517 -0.7195
 4421SOL    MW417452   6.142   6.336   0.420  0.2262 -0.6233  0.4663
 4422SOL     OW17453   0.344   3.264   0.975  0.5481 -1.3624 -0.5305
 4422SOL    HW217454   0.307   3.288   0.890  0.4611  0.4228 -0.0278
 4422SOL    HW317455   0.364   3.171   0.967 -2.1240 -1.9322 -1.5383
 4422SOL    MW417456   0.342   3.255   0.963 -0.0844 -0.2981  0.3440
 4423SOL     OW17457   0.565   6.115   6.398 -0.3079 -0.5397  0.0390
 4423SOL    HW217458   0.558   6.087   6.489 -0.0175  0.1452  0.2830
 4423SOL    HW317459   0.622   6.192   6.402 -1.3429  0.2825 -0.5565
 4423SOL    MW417460   0.572   6.122   6.411  0.5237  0.1008  0.2347
 4424SOL     OW17461   2.591   3.283   1.898  0.8695  0.1023 -0.2679
 4424SOL    HW217462   2.677   3.304   1.935  0.5141  1.7086 -0.2755
 4424SOL    HW317463   2.574   3.354   1.835 -1.0177  0.5801  0.6968
 4424SOL    MW417464   2.600   3.295   1.894 -0.1435  0.1788 -0.1836
 4425SOL     OW17465   4.876   0.972   2.622  0.6275 -0.1442  0.5471
 4425SOL    HW217466   4.848   1.025   2.547 -0.2534 -1.4077 -0.0575
 4425SOL    HW317467   4.969   0.959   2.610  0.2095 -1.8072 -1.3401
 4425SOL    MW417468   4.884   0.977   2.611 -0.4809 -0.2592  0.3244
 4426SOL     OW17469   5.290   5.257   5.193 -0.0364 -0.1487  0.2778
 4426SOL    HW217470   5.290   5.216   5.279 -1.0719 -0.7150  0.0349
 4426SOL    HW317471   5.351   5.205   5.141  0.0305 -0.2659  0.4733
 4426SOL    MW417472   5.298   5.245   5.197  0.2380 -0.1710  0.8228
 4427SOL     OW17473   4.451   5.220   3.696 -0.1823  0.2427 -0.7724
 4427SOL    HW217474   4.522   5.255   3.642 -0.0901  1.2578 -0.0339
 4427SOL    HW317475   4.384   5.193   3.633 -1.1785  3.7313 -1.4262
 4427SOL    MW417476   4.452   5.221   3.681 -0.0109  0.5684  0.4002
 4428SOL     OW17477   0.778   4.852   0.494  0.2312  0.0314  0.8323
 4428SOL    HW217478   0.778   4.923   0.558  3.0266 -0.9823  2.1316
 4428SOL    HW317479   0.870   4.845   0.465 -0.5447 -0.9405 -1.7378
 4428SOL    MW417480   0.790   4.860   0.499  0.5208  0.1772  0.2181
 4429SOL     OW17481   3.041   1.718   2.083 -0.1008 -0.3839 -0.0079
 4429SOL    HW217482   3.025   1.656   2.012 -1.7165 -0.5144  0.4244
 4429SOL    HW317483   2.955   1.729   2.125  0.8623 -0.5551  2.1191
 4429SOL    MW417484   3.027   1.711   2.079  0.0870 -0.0646  0.1171
 4430SOL     OW17485   1.654   2.771   1.641  0.1541 -0.3998 -0.1314
 4430SOL    HW217486   1.615   2.790   1.555  2.1022  0.6498 -0.8466
 4430SOL    HW317487   1.731   2.828   1.645  1.3501 -2.0303  1.3769
 4430SOL    MW417488   1.659   2.781   1.630 -0.1623 -0.7945  0.0258
 4431SOL     OW17489   3.213   6.228   1.969  0.1051 -0.1103 -0.4074
 4431SOL    HW217490   3.139   6.288   1.972  0.1304 -0.0928 -0.1432
 4431SOL    HW317491   3.183   6.149   2.013  1.1910  0.9407  2.4240
 4431SOL    MW417492   3.199   6.226   1.975 -0.0348  0.0968 -0.3779
 4432SOL     OW17493   0.323   4.452   3.214  0.2725 -1.0129  0.5033
 4432SOL    HW217494   0.288   4.514   3.278  1.0217  0.3728 -0.3895
 4432SOL    HW317495   0.392   4.405   3.261  0.3407 -0.5032  0.9144
 4432SOL    MW417496   0.327   4.454   3.229  0.1133 -0.3575 -0.5988
 4433SOL     OW17497   2.902   4.668   6.076 -0.3212 -0.5732  0.4812
 4433SOL    HW217498   2.967   4.723   6.121 -1.0747  0.8500 -0.1075
 4433SOL    HW317499   2.926   4.579   6.101  3.0028 -0.3036 -1.0943
 4433SOL    MW417500   2.914   4.664   6.085  0.2251  0.3506 -0.1302
 4434SOL     OW17501   5.075   0.991   4.243  0.2639  0.1282 -0.5231
 4434SOL    HW217502   5.042   1.050   4.175 -0.6817 -0.2847 -0.4516
 4434SOL    HW317503   5.024   0.910   4.230 -0.2507  0.1958  0.9341
 4434SOL    MW417504   5.064   0.988   4.232  0.0565 -0.1052 -0.0815
 4435SOL     OW17505   2.789   1.454   5.125 -0.4221  0.1394  0.3435
 4435SOL    HW217506   2.806   1.418   5.211 -0.1146 -2.3117 -0.6670
 4435SOL    HW317507   2.865   1.428   5.073 -0.9575  0.8947 -0.8621
 4435SOL    MW417508   2.801   1.446   5.129  0.2969 -0.1054  0.6905
 4436SOL     OW17509   3.528   6.441   3.371  0.4612 -0.1219 -0.6818
 4436SOL    HW217510   3.473   6.513   3.404  0.6030 -0.2734 -0.0937
 4436SOL    HW317511   3.580   6.415   3.447 -0.9727 -2.1639 -0.3102
 4436SOL    MW417512   3.528   6.447   3.386 -0.3408 -0.1361 -0.0901
 4437SOL     OW17513   4.761   0.144   1.332  0.1775  0.1036  0.2561
 4437SOL    HW217514   4.805   0.097   1.404  0.5661 -0.6931 -0.4732
 4437SOL    HW317515   4.698   0.081   1.298 -0.2730  0.6144  0.1378
 4437SOL    MW417516   4.759   0.129   1.337  0.5554 -0.0083  0.1350
 4438SOL     OW17517   2.403   3.416   2.060 -0.1092 -0.3415 -0.3294
 4438SOL    HW217518   2.322   3.373   2.088 -1.3817  0.1986 -2.8920
 4438SOL    HW317519   2.443   3.354   1.999 -0.4547  0.8064 -1.7834
 4438SOL    MW417520   2.398   3.402   2.056  0.0002 -0.3017 -0.1983
 4439SOL     OW17521   5.233   4.117   5.402  0.1434 -0.2751 -0.2177
 4439SOL    HW217522   5.241   4.194   5.458 -2.0796 -0.2826  0.1979
 4439SOL    HW317523   5.321   4.079   5.400  0.5529  0.3791  2.3196
 4439SOL    MW417524   5.245   4.122   5.409  0.0254  0.4454 -0.4285
 4440SOL     OW17525   0.139   2.698   1.308 -0.1354 -0.2740  0.4080
 4440SOL    HW217526   0.076   2.650   1.361 -2.0465  0.6763 -0.8855
 4440SOL    HW317527   0.092   2.776   1.279  0.4382 -1.1274 -3.3816
 4440SOL    MW417528   0.125   2.702   1.311 -0.2472  0.4965  0.1189
 4441SOL     OW17529   6.209   6.411   4.745  0.2566 -0.2045 -0.0796
 4441SOL    HW217530   6.276   6.383   4.683  0.9690 -0.5257  0.8128
 4441SOL    HW317531   6.237   6.375   4.829  0.7092  2.2980  0.9523
 4441SOL    MW417532   6.222   6.403   4.748 -0.6645 -0.4868 -0.4130
 4442SOL     OW17533   5.693   4.646   6.225 -0.3185  0.1649  0.2943
 4442SOL    HW217534   5.700   4.646   6.130 -0.8177  0.3244  0.2526
 4442SOL    HW317535   5.755   4.579   6.254 -0.3095 -0.0237 -0.1542
 4442SOL    MW417536   5.702   4.637   6.216 -0.3014 -0.5792  0.4185
 4443SOL     OW17537   0.116   1.372   1.896 -0.1786 -0.9522  0.8233
 4443SOL    HW217538   0.041   1.422   1.863  0.5911  0.2199  0.7835
 4443SOL    HW317539   0.079   1.288   1.921 -1.1265 -1.2440 -1.2998
 4443SOL    MW417540   0.102   1.368   1.895  0.7628  0.1842  0.3780
 4444SOL     OW17541   2.400   1.397   2.210 -0.2142  0.4042 -0.5311
 4444SOL    HW217542   2.477   1.453   2.201  0.7046 -0.7467 -0.1907
 4444SOL    HW317543   2.357   1.400   2.124  0.3240  0.8990 -0.7869
 4444SOL    MW417544   2.404   1.405   2.198 -0.4708 -0.2586 -0.1121
 4445SOL     OW17545   2.303   5.845   4.143 -0.3767  0.0987 -0.5014
 4445SOL    HW217546   2.326   5.929   4.181 -0.1695 -0.0018 -0.4047
 4445SOL    HW317547   2.357   5.837   4.065  0.1852 -0.2984 -0.0756
 4445SOL    MW417548   2.313   5.855   4.138  0.2124  0.2569 -0.5595
 4446SOL     OW17549   2.467   3.648   1.202 -0.0499  0.0978 -0.4272
 4446SOL    HW217550   2.542   3.591   1.215 -0.1088  0.0272 -0.3970
 4446SOL    HW317551   2.400   3.613   1.260  0.1939  0.7122  0.2292
 4446SOL    MW417552   2.468   3.636   1.211 -0.2684 -0.3197  0.0500
 4447SOL     OW17553   1.342   0.233   1.923  0.1473 -0.4771  0.2690
 4447SOL    HW217554   1.389   0.175   1.982 -0.0850 -0.3177  0.6109
 4447SOL    HW317555   1.322   0.178   1.847 -0.3971 -0.9540  0.7448
 4447SOL    MW417556   1.346   0.218   1.920  0.5066 -0.1787  0.1177
 4448SOL     OW17557   5.327   1.030   2.829 -0.0721  0.2901 -0.0039
 4448SOL    HW217558   5.347   0.968   2.898 -1.3090  0.3221  0.4138
 4448SOL    HW317559   5.293   0.977   2.757 -0.8585  0.4265  0.2477
 4448SOL    MW417560   5.325   1.015   2.828  0.0196  0.3702 -0.3107
 4449SOL     OW17561   4.638   3.234   2.123 -0.0722  0.5612  0.1349
 4449SOL    HW217562   4.588   3.157   2.097  0.2334 -0.4570  2.3548
 4449SOL    HW317563   4.727   3.201   2.138  0.3033  1.5424  0.1453
 4449SOL    MW417564   4.643   3.220   2.122  0.4130  0.1762  0.4251
 4450SOL     OW17565   3.373   3.185   0.627  0.2792  0.1059 -0.3381
 4450SOL    HW217566   3.349   3.205   0.717 -0.0712  1.5061 -0.7153
 4450SOL    HW317567   3.363   3.268   0.581 -0.9059 -0.8853 -1.9670
 4450SOL    MW417568   3.369   3.198   0.633 -0.0824 -0.1069  0.4273
 4451SOL     OW17569   3.952   2.415   4.012  0.2539  0.2417  0.1105
 4451SOL    HW217570   4.045   2.437   4.019  0.3405 -0.1488  0.1945
 4451SOL    HW317571   3.950   2.339   3.955 -0.2141  1.6930 -1.9286
 4451SOL    MW417572   3.964   2.408   4.005 -0.2893 -0.3220  0.0751
 4452SOL     OW17573   1.828   5.021   4.581  0.8865 -0.0230 -0.6722
 4452SOL    HW217574   1.852   5.009   4.673  1.9944  0.6943 -0.8465
 4452SOL    HW317575   1.733   5.011   4.579  0.7500  0.7366  0.6919
 4452SOL    MW417576   1.819   5.018   4.593  0.6513  0.5201 -0.4583
 4453SOL     OW17577   6.393   6.459   0.302  0.2813 -0.1498 -0.0412
 4453SOL    HW217578   6.379   6.530   0.365 -1.6351 -1.5531  1.2462
 4453SOL    HW317579   6.327   6.474   0.234  0.4156 -0.2284 -0.1890
 4453SOL    MW417580   6.382   6.470   0.302 -0.3648 -0.3023  0.2380
 4454SOL     OW17581   1.364   3.259   4.928 -0.2624 -0.2337  0.3834
 4454SOL    HW217582   1.269   3.255   4.914 -0.3960 -1.8045  1.5033
 4454SOL    HW317583   1.401   3.217   4.852 -0.3579  1.4339 -0.6440
 4454SOL    MW417584   1.356   3.253   4.916  0.1856 -0.2510 -0.5309
 4455SOL     OW17585   3.299   0.930   3.453 -0.2364 -0.0243  0.1468
 4455SOL    HW217586   3.206   0.950   3.462 -0.0902  0.5676  0.3874
 4455SOL    HW317587   3.308   0.891   3.366 -1.1544 -2.7037  1.1414
 4455SOL    MW417588   3.288   0.927   3.443 -0.4760  0.1999 -0.2479
 4456SOL     OW17589   3.754   1.011   2.650  0.3722  0.0850  0.1506
 4456SOL    HW217590   3.696   0.970   2.715 -1.6345  0.2587 -1.4282
 4456SOL    HW317591   3.785   1.091   2.693 -0.5452 -0.0290  1.0588
 4456SOL    MW417592   3.750   1.016   2.665 -0.0591  0.2739  0.5725
 4457SOL     OW17593   3.974   3.467   2.899 -0.2213 -0.3815  0.5028
 4457SOL    HW217594   4.011   3.476   2.812 -3.7793 -0.6302 -1.2338
 4457SOL    HW317595   3.959   3.557   2.928 -2.7906 -0.2075 -1.0699
 4457SOL    MW417596   3.977   3.480   2.891  0.8720  0.1193  0.3141
 4458SOL     OW17597   4.004   0.276   1.123  0.1715 -0.5190 -0.1754
 4458SOL    HW217598   3.989   0.184   1.148 -2.5166  0.0389  0.6311
 4458SOL    HW317599   4.028   0.319   1.205  0.0494 -0.2480 -0.2833
 4458SOL    MW417600   4.005   0.269   1.137 -0.2209 -0.7054  0.0538
 4459SOL     OW17601   1.980   4.349   1.762  0.1133 -0.5729  0.4021
 4459SOL    HW217602   1.913   4.393   1.815 -0.8746 -3.2055  1.4845
 4459SOL    HW317603   1.932   4.311   1.689  0.7165 -0.9922  0.2121
 4459SOL    MW417604   1.965   4.350   1.759 -0.0936 -0.1243  0.1743
 4460SOL     OW17605   5.042   2.506   6.069  0.4616  0.5155  0.5170
 4460SOL    HW217606   5.002   2.423   6.095  1.1019  0.2983  0.8360
 4460SOL    HW317607   5.073   2.491   5.980  2.7433 -0.4287  1.3911
 4460SOL    MW417608   5.041   2.493   6.060 -0.4836 -0.0134  0.4754
 4461SOL     OW17609   5.684   6.181   1.089  0.3237 -0.0519 -0.4697
 4461SOL    HW217610   5.634   6.185   1.171 -0.2115 -0.4842 -0.7684
 4461SOL    HW317611   5.619   6.160   1.022  0.5803  1.2640 -1.1676
 4461SOL    MW417612   5.669   6.179   1.091 -0.1267  0.2004 -0.1343
 4462SOL     OW17613   2.807   1.758   6.063 -0.0519  0.2020  0.0431
 4462SOL    HW217614   2.875   1.765   5.996 -0.5770  0.6769 -0.4527
 4462SOL    HW317615   2.852   1.776   6.145  0.4646  0.3095 -0.2620
 4462SOL    MW417616   2.822   1.762   6.065 -0.3553 -0.8504  0.2525
 4463SOL     OW17617   5.875   3.634   3.730 -0.3018  0.0574  0.3251
 4463SOL    HW217618   5.880   3.563   3.794  1.0540 -1.3993 -1.2726
 4463SOL    HW317619   5.892   3.591   3.646  2.1767  2.4675 -0.5577
 4463SOL    MW417620   5.878   3.619   3.728 -0.1952  0.3090  0.1893
 4464SOL     OW17621   6.020   2.117   5.521 -0.1065 -0.3458  0.3317
 4464SOL    HW217622   5.958   2.076   5.582 -0.7422  0.9479  0.5825
 4464SOL    HW317623   6.040   2.201   5.560 -0.3944  0.4464 -1.1545
 4464SOL    MW417624   6.014   2.122   5.534  0.3286 -0.1050  0.4088
 4465SOL     OW17625   2.306   5.941   3.726 -0.2741 -0.4628  0.4868
 4465SOL    HW217626   2.377   5.997   3.696 -0.7930 -0.4227 -0.7078
 4465SOL    HW317627   2.348   5.880   3.787  0.9888 -1.0918 -0.9649
 4465SOL    MW417628   2.321   5.940   3.730  0.2453  0.4290 -0.0392
 4466SOL     OW17629   4.875   0.706   3.438 -0.3549 -0.3926 -0.3336
 4466SOL    HW217630   4.923   0.711   3.356  0.7659  1.4088  0.3598
 4466SOL    HW317631   4.864   0.613   3.454  1.5990 -0.8423 -1.2806
 4466SOL    MW417632   4.880   0.694   3.429 -1.0034  0.5924  0.2638
 4467SOL     OW17633   4.100   1.729   2.705  0.7800  0.3303 -0.1258
 4467SOL    HW217634   4.111   1.738   2.799  1.0248  0.4448 -0.1634
 4467SOL    HW317635   4.033   1.662   2.694 -0.3075  1.3435  0.1539
 4467SOL    MW417636   4.093   1.721   2.716 -0.6821  0.5954  0.2672
 4468SOL     OW17637   1.584   1.652   0.952  0.2694 -0.1724  0.2983
 4468SOL    HW217638   1.645   1.650   0.878  0.7967 -1.8192  0.7160
 4468SOL    HW317639   1.608   1.730   1.001  1.8852 -0.6397  0.3000
 4468SOL    MW417640   1.595   1.662   0.948  0.4025  0.5190 -0.4938
 4469SOL     OW17641   1.651   0.302   4.663 -0.0194 -0.8688  0.5048
 4469SOL    HW217642   1.682   0.228   4.611  1.5102 -0.8915  1.3961
 4469SOL    HW317643   1.586   0.344   4.607  1.1595 -1.1955 -1.2068
 4469SOL    MW417644   1.646   0.298   4.649 -0.2734  0.7907 -0.4094
 4470SOL     OW17645   5.933   2.224   4.739  0.0787  0.2390  0.2707
 4470SOL    HW217646   5.881   2.290   4.693 -0.3708 -0.2111  0.1240
 4470SOL    HW317647   5.911   2.142   4.696 -0.4125 -0.1998  1.3395
 4470SOL    MW417648   5.923   2.222   4.727  0.1226 -0.2194 -0.2902
 4471SOL     OW17649   3.148   1.180   0.283 -0.0540  0.1407 -0.3897
 4471SOL    HW217650   3.152   1.193   0.188 -0.3357  0.6609 -0.3364
 4471SOL    HW317651   3.195   1.098   0.298  0.9307  0.6030 -0.8646
 4471SOL    MW417652   3.154   1.171   0.273 -0.1013 -0.4868  0.2963
 4472SOL     OW17653   0.019   1.413   2.603  0.5850 -0.2729  1.2063
 4472SOL    HW217654   0.014   1.325   2.639  0.6967 -0.7207  0.1592
 4472SOL    HW317655   0.051   1.401   2.513  0.9216  0.8567  1.1547
 4472SOL    MW417656   0.022   1.400   2.596 -0.0694 -0.8617  0.0849
 4473SOL     OW17657   3.162   5.302   2.298  0.6083  0.3403 -0.0396
 4473SOL    HW217658   3.219   5.302   2.375  2.3540  2.2000 -1.2228
 4473SOL    HW317659   3.080   5.340   2.329  0.3346 -1.3077  1.4366
 4473SOL    MW417660   3.159   5.307   2.312 -0.0171  0.5261 -0.0316
 4474SOL     OW17661   0.934   3.435   1.415 -0.3253  0.7970 -0.0227
 4474SOL    HW217662   0.898   3.450   1.502  1.0261  1.9869  0.3687
 4474SOL    HW317663   0.931   3.340   1.404  1.8643  0.3055  2.4694
 4474SOL    MW417664   0.929   3.424   1.425 -0.0131 -0.3140  0.2608
 4475SOL     OW17665   2.235   1.021   0.090  0.4837 -0.2249 -0.1865
 4475SOL    HW217666   2.221   1.008  -0.004  0.2119  0.5714 -0.2690
 4475SOL    HW317667   2.272   0.939   0.121 -0.5564 -0.9272 -0.7604
 4475SOL    MW417668   2.238   1.009   0.081 -0.5548  0.4448  0.2434
 4476SOL     OW17669   4.266   0.684   0.092  0.3863  0.3984 -0.2196
 4476SOL    HW217670   4.347   0.643   0.063  0.9235  0.4100  1.2093
 4476SOL    HW317671   4.197   0.638   0.044  1.2091  0.2383 -1.2806
 4476SOL    MW417672   4.267   0.673   0.082 -0.9390  0.2618 -0.4374
 4477SOL     OW17673   6.008   3.685   1.713 -0.1050  0.2970 -0.3352
 4477SOL    HW217674   5.987   3.759   1.656  0.7252 -0.4769 -1.6828
 4477SOL    HW317675   6.091   3.710   1.754 -1.1996  1.3090  1.4119
 4477SOL    MW417676   6.016   3.698   1.711  0.6005  0.2879  0.2349
 4478SOL     OW17677   0.508   5.987   4.000  0.1660 -0.3370  0.0112
 4478SOL    HW217678   0.451   6.024   3.933  1.0808  0.8061 -0.1720
 4478SOL    HW317679   0.466   6.010   4.083  0.8132  1.3604 -0.0912
 4478SOL    MW417680   0.495   5.995   4.002 -0.3600  0.2756 -0.8968
 4479SOL     OW17681   4.781   1.383   3.765 -0.5973  0.3614 -0.4270
 4479SOL    HW217682   4.822   1.425   3.841  0.5925  0.6030 -1.1812
 4479SOL    HW317683   4.854   1.353   3.712 -1.4246 -0.4937 -1.1076
 4479SOL    MW417684   4.796   1.385   3.768  0.4761 -0.4979 -0.3867
 4480SOL     OW17685   5.553   2.649   4.970 -0.1932 -0.5909 -0.1174
 4480SOL    HW217686   5.471   2.617   4.934 -0.5288 -0.7337  0.7625
 4480SOL    HW317687   5.544   2.639   5.064  0.4526  0.2999  0.0538
 4480SOL    MW417688   5.541   2.644   4.978 -0.2207  0.1850  0.1775
 4481SOL     OW17689   5.805   6.180   4.685 -0.0147 -0.4577 -0.0839
 4481SOL    HW217690   5.729   6.239   4.681 -1.0899 -1.6500  1.5820
 4481SOL    HW317691   5.865   6.222   4.746  0.9008  0.6644 -1.6691
 4481SOL    MW417692   5.803   6.194   4.692  0.2002  0.4229 -0.2299
 4482SOL     OW17693   1.366   5.285   1.085 -0.2229  0.0868  0.1894
 4482SOL    HW217694   1.312   5.246   1.016  0.4595  1.8257 -1.4092
 4482SOL    HW317695   1.367   5.379   1.064 -0.1564  0.7197  2.7037
 4482SOL    MW417696   1.359   5.293   1.073  0.7053 -0.7312 -0.0084
 4483SOL     OW17697   0.562   4.524   4.809  0.1878 -0.4957 -0.1120
 4483SOL    HW217698   0.591   4.500   4.721 -1.6284 -0.4066 -0.7592
 4483SOL    HW317699   0.585   4.616   4.817  0.6906 -0.5950 -0.3335
 4483SOL    MW417700   0.569   4.533   4.798 -0.1929 -0.1083  0.2138
 4484SOL     OW17701   2.072   5.702   2.569 -0.4391  0.5068  0.3202
 4484SOL    HW217702   2.029   5.777   2.610 -0.3362  1.1389 -0.6983
 4484SOL    HW317703   2.066   5.719   2.475 -1.5517 -1.3878 -0.0083
 4484SOL    MW417704   2.066   5.714   2.562  0.1082  0.3009  0.8268
 4485SOL     OW17705   0.454   1.038   4.738 -0.3564  0.0960 -0.6888
 4485SOL    HW217706   0.420   0.955   4.703  0.0418  0.4149 -1.8672
 4485SOL    HW317707   0.468   1.093   4.661  0.6945  0.7754 -0.0403
 4485SOL    MW417708   0.452   1.034   4.724 -0.4741  0.1026 -0.3701
 4486SOL     OW17709   2.465   5.324   4.874  0.4291  0.5776  0.1830
 4486SOL    HW217710   2.372   5.304   4.879  0.3041  1.2738  1.0083
 4486SOL    HW317711   2.493   5.290   4.789 -0.4913  0.0360  0.0818
 4486SOL    MW417712   2.457   5.317   4.864 -0.3552 -0.2251 -0.5237
 4487SOL     OW17713   4.548   0.330   2.601 -0.4746  0.1169  0.1085
 4487SOL    HW217714   4.606   0.298   2.533 -0.7728  1.4902 -0.8407
 4487SOL    HW317715   4.520   0.252   2.648 -0.1472 -0.8503 -1.2511
 4487SOL    MW417716   4.552   0.316   2.598 -0.0874 -0.1968 -0.1424
 4488SOL     OW17717   1.824   3.231   1.304  0.1531 -0.9990  0.0988
 4488SOL    HW217718   1.787   3.156   1.257 -0.5723  0.1953 -1.3095
 4488SOL    HW317719   1.749   3.271   1.349 -0.4148  1.3713 -2.6808
 4488SOL    MW417720   1.809   3.226   1.304  0.0383  0.0508 -0.1502
 4489SOL     OW17721   1.161   5.055   3.725 -0.0090  0.1975 -0.0357
 4489SOL    HW217722   1.096   4.987   3.743  2.0437 -1.7471  0.4616
 4489SOL    HW317723   1.236   5.009   3.688  1.5065  2.1817  0.3309
 4489SOL    MW417724   1.162   5.040   3.722  0.7401  0.1440 -0.3710
 4490SOL     OW17725   4.550   4.820   2.335 -0.3475 -0.2587  0.0784
 4490SOL    HW217726   4.594   4.873   2.269 -0.5277  0.8333  0.8080
 4490SOL    HW317727   4.613   4.750   2.355 -0.0506 -0.2536 -0.7953
 4490SOL    MW417728   4.564   4.818   2.329  0.4605  0.3781  0.1431
 4491SOL     OW17729   0.219   4.220   5.333 -0.5288 -0.5339  0.3213
 4491SOL    HW217730   0.137   4.267   5.351 -0.6062 -0.5418  0.0061
 4491SOL    HW317731   0.238   4.241   5.242  0.1520 -0.0392  0.5746
 4491SOL    MW417732   0.210   4.229   5.323  0.4786 -0.5335  0.1485
 4492SOL     OW17733   1.071   3.853   4.992  0.1778 -0.2498  0.2318
 4492SOL    HW217734   1.020   3.922   4.951  0.0408  0.5853  1.7138
 4492SOL    HW317735   1.008   3.808   5.050  0.2342 -1.7116 -0.7826
 4492SOL    MW417736   1.056   3.856   4.995  0.2029  0.1899 -0.5213
 4493SOL     OW17737   1.740   6.325   2.246 -0.8103  0.3542 -0.0238
 4493SOL    HW217738   1.793   6.368   2.178  2.0084 -1.7555  0.6683
 4493SOL    HW317739   1.722   6.395   2.308  1.0819  1.2623 -0.3958
 4493SOL    MW417740   1.745   6.340   2.245  0.3465  0.6193  0.1701
 4494SOL     OW17741   0.090   1.427   4.828 -0.7657 -0.1678 -0.0931
 4494SOL    HW217742   0.154   1.365   4.864 -0.2499  0.5707  0.3063
 4494SOL    HW317743   0.028   1.373   4.781 -0.0164 -0.9419 -0.2211
 4494SOL    MW417744   0.090   1.412   4.827 -0.2201 -0.3929 -1.0337
 4495SOL     OW17745   0.547   2.564   5.526 -0.2508 -0.6141  0.1255
 4495SOL    HW217746   0.488   2.637   5.509  1.4769  0.8438  0.0915
 4495SOL    HW317747   0.598   2.592   5.602 -0.6799 -2.5385  1.1956
 4495SOL    MW417748   0.546   2.577   5.534  0.4852  0.1424  0.5768
 4496SOL     OW17749   0.531   1.874   2.321  0.0482 -0.2526  0.5879
 4496SOL    HW217750   0.607   1.900   2.373 -0.2184 -0.0100  0.8506
 4496SOL    HW317751   0.564   1.802   2.267  0.3641 -0.4120  0.9850
 4496SOL    MW417752   0.545   1.868   2.321 -0.2743  0.1635 -0.6902
 4497SOL     OW17753   5.108   1.654   4.660  0.2447  0.2043 -0.1118
 4497SOL    HW217754   5.067   1.625   4.741 -0.9780 -0.5748 -0.9643
 4497SOL    HW317755   5.075   1.743   4.646  1.1529  0.6848  0.6626
 4497SOL    MW417756   5.098   1.662   4.669  0.0797  0.5036  0.0288
 4498SOL     OW17757   1.247   0.803   2.181  0.4382 -0.3899 -0.1570
 4498SOL    HW217758   1.301   0.735   2.220 -0.1094 -1.6797 -1.5380
 4498SOL    HW317759   1.301   0.839   2.111 -0.2916 -1.4048 -1.2791
 4498SOL    MW417760   1.261   0.799   2.177  0.1355 -0.4079 -0.1841
 4499SOL     OW17761   3.430   4.496   5.749  0.4301  0.2971  0.4898
 4499SOL    HW217762   3.502   4.558   5.739  1.5437 -0.9552  0.4426
 4499SOL    HW317763   3.401   4.477   5.660  0.8438 -0.0952  0.4362
 4499SOL    MW417764   3.435   4.501   5.736 -0.6638 -0.0325  0.2260
 4500SOL     OW17765   0.852   2.743   1.256  0.2675 -0.3097  0.1724
 4500SOL    HW217766   0.837   2.780   1.169 -0.1905 -0.7291  0.0687
 4500SOL    HW317767   0.783   2.782   1.310  0.3234 -0.3378  0.2641
 4500SOL    MW417768   0.841   2.753   1.252  0.3805 -0.0920  0.2859
 4501SOL     OW17769   6.323   4.787   4.411  0.0536 -0.7115 -0.1722
 4501SOL    HW217770   6.277   4.847   4.470 -0.1498 -0.3942 -0.6456
 4501SOL    HW317771   6.298   4.700   4.440 -0.8003 -0.5414 -0.3851
 4501SOL    MW417772   6.314   4.784   4.422  0.2990  0.6199 -0.2872
 4502SOL     OW17773   5.344   0.229   4.720  0.3037  0.8582  0.2463
 4502SOL    HW217774   5.379   0.143   4.694 -1.4814 -0.0686  0.7702
 4502SOL    HW317775   5.273   0.209   4.781 -0.7486  2.6833 -0.3084
 4502SOL    MW417776   5.340   0.215   4.725  0.4011 -0.8569  0.3942
 4503SOL     OW17777   3.012   2.069   4.706 -0.1446 -0.9081 -0.5900
 4503SOL    HW217778   3.060   2.132   4.652 -1.3973  1.8606  1.2921
 4503SOL    HW317779   2.947   2.032   4.646 -0.6677  1.1282 -1.3974
 4503SOL    MW417780   3.010   2.073   4.691 -0.2556 -0.1984 -0.1453
 4504SOL     OW17781   2.365   5.950   0.532  0.0658 -0.0532  1.2516
 4504SOL    HW217782   2.342   5.915   0.618  1.7387  0.8421  2.1288
 4504SOL    HW317783   2.347   6.044   0.539  0.3383  0.0453  0.6818
 4504SOL    MW417784   2.360   5.958   0.544 -0.3521  0.0143 -0.3256
 4505SOL     OW17785   3.108   6.095   4.258 -0.0454 -0.0938 -0.2374
 4505SOL    HW217786   3.193   6.138   4.256  0.0064 -0.1147  1.0175
 4505SOL    HW317787   3.109   6.041   4.337 -0.4729 -1.6731 -1.2376
 4505SOL    MW417788   3.119   6.093   4.268 -0.1874  0.0414  0.4661
 4506SOL     OW17789   4.246   0.829   5.406 -0.6666  0.2754  0.2572
 4506SOL    HW217790   4.316   0.767   5.386  1.4696  2.2902  1.1395
 4506SOL    HW317791   4.259   0.902   5.346 -2.9622  0.1182 -0.5554
 4506SOL    MW417792   4.257   0.830   5.396 -0.5438 -0.0897 -0.2692
 4507SOL     OW17793   4.915   2.743   4.087 -0.1865  0.2922 -0.1266
 4507SOL    HW217794   4.840   2.751   4.146 -0.9250  0.9833 -1.1230
 4507SOL    HW317795   4.923   2.649   4.070 -0.7718  0.2085  0.0648
 4507SOL    MW417796   4.906   2.732   4.092  1.0819 -0.2464 -0.0677
 4508SOL     OW17797   5.811   3.160   0.530  0.0447  0.9036 -0.2217
 4508SOL    HW217798   5.797   3.251   0.502  0.9028  0.6621 -1.5440
 4508SOL    HW317799   5.902   3.157   0.557  0.1242  0.3671 -0.5293
 4508SOL    MW417800   5.821   3.172   0.530  0.2293  0.7200 -0.0261
 4509SOL     OW17801   0.889   3.446   1.051 -0.6045  0.0740 -0.1636
 4509SOL    HW217802   0.966   3.466   1.104 -0.0440  3.3927 -1.9767
 4509SOL    HW317803   0.815   3.471   1.107 -0.7023 -4.3337  2.0974
 4509SOL    MW417804   0.889   3.452   1.066  0.2926 -0.0704 -0.0075
 4510SOL     OW17805   5.537   2.497   0.661  0.3052  0.4046 -0.0132
 4510SOL    HW217806   5.544   2.409   0.698 -3.2398 -0.6241 -1.4086
 4510SOL    HW317807   5.586   2.492   0.578 -0.0222 -0.3237 -0.1718
 4510SOL    MW417808   5.544   2.484   0.655 -0.2634  0.1774  0.0955
 4511SOL     OW17809   6.000   4.480   2.375 -0.4771  0.2266  0.3209
 4511SOL    HW217810   5.991   4.520   2.462  0.0785 -0.3693  0.6621
 4511SOL    HW317811   6.067   4.534   2.332 -1.4634  1.1423 -0.1258
 4511SOL    MW417812   6.008   4.493   2.381  0.0999 -0.0285  0.7132
 4512SOL     OW17813   5.117   1.096   2.332  0.1105 -0.6430 -0.6444
 4512SOL    HW217814   5.070   1.013   2.335 -0.1185 -0.5493 -1.3711
 4512SOL    HW317815   5.202   1.075   2.294  0.2309 -0.6258 -0.3829
 4512SOL    MW417816   5.122   1.082   2.327  0.2065 -0.2597 -0.5218
 4513SOL     OW17817   1.702   1.968   6.111 -0.5404 -0.4711  0.0129
 4513SOL    HW217818   1.712   1.875   6.133  0.2492 -0.3533  0.1908
 4513SOL    HW317819   1.651   2.005   6.182  0.0662 -0.5549  0.4966
 4513SOL    MW417820   1.697   1.960   6.123 -0.0011 -0.2299 -0.4438
 4514SOL     OW17821   0.099   4.484   3.668  0.3389  0.3211 -0.7813
 4514SOL    HW217822   0.157   4.542   3.717  1.2943 -0.9116 -0.3950
 4514SOL    HW317823   0.031   4.542   3.634 -0.2653  1.2924  1.8266
 4514SOL    MW417824   0.098   4.499   3.670 -0.0776 -1.0587  0.1117
 4515SOL     OW17825   0.923   3.689   5.467 -0.1787 -0.2444 -0.3272
 4515SOL    HW217826   0.944   3.774   5.505  0.8867 -0.3984 -0.5600
 4515SOL    HW317827   0.897   3.708   5.377 -1.7401  0.0116  0.1375
 4515SOL    MW417828   0.922   3.703   5.460 -0.0361 -0.3377  0.0152
 4516SOL     OW17829   4.258   0.839   5.898 -0.8810 -0.2632  0.0253
 4516SOL    HW217830   4.229   0.829   5.807  0.8981 -1.4742 -0.4683
 4516SOL    HW317831   4.202   0.780   5.948 -0.0069 -1.8077 -0.7479
 4516SOL    MW417832   4.247   0.830   5.892  0.1346  0.5915 -0.2086
 4517SOL     OW17833   0.015   3.179   3.387  0.0264 -0.2589  0.4052
 4517SOL    HW217834   0.003   3.257   3.441  1.2968  0.0489  0.2775
 4517SOL    HW317835   0.105   3.186   3.354 -0.2974 -1.0885 -0.7138
 4517SOL    MW417836   0.025   3.190   3.390  0.2963  0.8747 -0.1298
 4518SOL     OW17837   6.049   2.217   5.175 -0.0427 -0.1621  0.3815
 4518SOL    HW217838   6.045   2.293   5.233  0.1608 -0.5936  0.9761
 4518SOL    HW317839   5.959   2.206   5.144  0.4298  2.1438 -2.1596
 4518SOL    MW417840   6.036   2.226   5.179 -0.0882  0.2442 -0.1316
 4519SOL     OW17841   3.279   0.234   4.891 -0.7677  0.5248  0.2537
 4519SOL    HW217842   3.297   0.260   4.801  1.6966 -1.3747  0.0744
 4519SOL    HW317843   3.231   0.152   4.884 -1.8697  1.1067  0.7222
 4519SOL    MW417844   3.275   0.227   4.878 -0.0636 -0.0028 -0.4396
 4520SOL     OW17845   4.443   0.255   2.108 -0.3974  0.1413  0.4667
 4520SOL    HW217846   4.361   0.206   2.104 -0.5279  0.4571 -1.4657
 4520SOL    HW317847   4.510   0.188   2.127 -0.4832 -1.0098 -2.7003
 4520SOL    MW417848   4.441   0.240   2.110  0.6152  0.0185 -0.3853
 4521SOL     OW17849   0.446   0.099   0.914  0.0321 -0.0647  0.0348
 4521SOL    HW217850   0.509   0.051   0.860 -0.8395 -1.5732  0.2974
 4521SOL    HW317851   0.465   0.071   1.003 -0.1608  0.4763  0.2463
 4521SOL    MW417852   0.457   0.089   0.918 -0.3833 -0.4502 -0.0845
 4522SOL     OW17853   6.248   2.458   5.561  0.2176  0.3475  0.2725
 4522SOL    HW217854   6.213   2.462   5.472  0.4098 -0.4167  0.1585
 4522SOL    HW317855   6.341   2.481   5.551  0.5810 -1.1118  0.0585
 4522SOL    MW417856   6.256   2.462   5.547 -0.3272  0.3127  0.0742
 4523SOL     OW17857   3.274   1.315   2.580 -0.1991 -0.4249 -0.0629
 4523SOL    HW217858   3.353   1.273   2.614  0.3793  0.1754 -0.6484
 4523SOL    HW317859   3.223   1.244   2.543  0.8998 -0.5988 -1.3100
 4523SOL    MW417860   3.278   1.300   2.580  0.3287  1.0064  0.2039
 4524SOL     OW17861   0.275   1.592   2.604 -0.4193  0.3251 -0.6825
 4524SOL    HW217862   0.264   1.640   2.522  1.9120  0.4272 -1.0170
 4524SOL    HW317863   0.196   1.540   2.612 -0.8764  0.5913 -2.8123
 4524SOL    MW417864   0.263   1.592   2.594  0.0319 -0.5299 -0.5746
 4525SOL     OW17865   4.322   1.559   2.108 -0.0991 -0.0677  0.2943
 4525SOL    HW217866   4.351   1.648   2.085  0.0322  0.1314  1.1714
 4525SOL    HW317867   4.287   1.523   2.027  0.9024  0.3700 -0.3601
 4525SOL    MW417868   4.321   1.566   2.095  0.7316  0.2787 -0.8169
 4526SOL     OW17869   6.400   5.690   0.404 -0.0601 -0.0334  0.0475
 4526SOL    HW217870   6.472   5.635   0.435  1.2912  1.7758  0.2704
 4526SOL    HW317871   6.321   5.646   0.436  1.0954 -0.0834  3.1537
 4526SOL    MW417872   6.399   5.677   0.413  0.0703  0.1510  0.2007
 4527SOL     OW17873   2.542   2.619   1.503 -0.2666  0.4068 -0.2952
 4527SOL    HW217874   2.536   2.715   1.500 -0.7178  0.4672  1.3912
 4527SOL    HW317875   2.520   2.590   1.415  0.9200  1.8979 -1.1313
 4527SOL    MW417876   2.539   2.628   1.491 -0.1029 -0.0147 -0.1049
 4528SOL     OW17877   3.043   2.256   6.305  0.0878 -0.0919 -0.1248
 4528SOL    HW217878   3.094   2.196   6.251 -1.1199  0.5563 -2.0948
 4528SOL    HW317879   3.042   2.338   6.255 -1.3904  0.4478  0.7192
 4528SOL    MW417880   3.050   2.259   6.291 -0.1653 -0.0732 -0.6816
 4529SOL     OW17881   5.044   6.168   6.316  0.5960  0.0994 -0.0572
 4529SOL    HW217882   5.047   6.233   6.386  1.4754 -1.3131  1.3063
 4529SOL    HW317883   5.123   6.115   6.330 -2.4533 -4.5034  2.2760
 4529SOL    MW417884   5.055   6.169   6.327  0.1670 -0.0968 -0.3084
 4530SOL     OW17885   4.853   2.812   3.361  0.2468  0.2712  0.0634
 4530SOL    HW217886   4.831   2.735   3.414  0.8160  0.6260  0.8258
 4530SOL    HW317887   4.771   2.861   3.356 -0.1085 -0.3497 -0.3854
 4530SOL    MW417888   4.839   2.808   3.368  0.3681 -0.5267  0.0284
 4531SOL     OW17889   1.548   3.789   5.182  0.6563 -0.1951 -0.7757
 4531SOL    HW217890   1.627   3.772   5.131 -0.7984 -0.4405 -3.1063
 4531SOL    HW317891   1.512   3.869   5.144 -0.0854  0.0632  0.4340
 4531SOL    MW417892   1.554   3.797   5.170 -0.4579 -0.4082 -0.0930
 4532SOL     OW17893   0.477   5.106   2.828  0.3429 -0.1720 -0.1829
 4532SOL    HW217894   0.555   5.147   2.791  0.5789 -1.0769 -0.7092
 4532SOL    HW317895   0.452   5.040   2.764  0.0892 -0.9831  0.7337
 4532SOL    MW417896   0.484   5.103   2.815  0.2619 -0.3303  0.4663
 4533SOL     OW17897   6.219   1.649   5.631  0.4261  0.4188  0.0021
 4533SOL    HW217898   6.315   1.644   5.626  0.8055  4.2342  0.6798
 4533SOL    HW317899   6.193   1.691   5.549 -0.7581 -0.8391 -0.2943
 4533SOL    MW417900   6.229   1.654   5.620 -0.2699 -0.2097  0.0215
 4534SOL     OW17901   0.299   5.844   0.909 -0.4846  0.1468  0.0631
 4534SOL    HW217902   0.267   5.808   0.992 -0.5324  0.5670  0.2311
 4534SOL    HW317903   0.223   5.844   0.852 -0.5755  0.3308  0.1832
 4534SOL    MW417904   0.285   5.839   0.912  0.4221  0.0254 -0.2361
 4535SOL     OW17905   4.871   2.410   1.277  0.5538  0.1906  0.2925
 4535SOL    HW217906   4.855   2.441   1.367  0.1593 -0.2456  0.3706
 4535SOL    HW317907   4.827   2.326   1.272  0.0906  0.4680 -0.4906
 4535SOL    MW417908   4.863   2.403   1.289 -0.3068  0.0542  0.1851
 4536SOL     OW17909   1.957   2.313   6.339 -0.3764 -0.5546  0.3393
 4536SOL    HW217910   1.915   2.231   6.313 -1.1163  0.2135 -0.9931
 4536SOL    HW317911   2.042   2.311   6.295 -0.4529 -0.5346  0.1918
 4536SOL    MW417912   1.963   2.302   6.330 -0.5702  0.5136 -0.4692
 4537SOL     OW17913   0.486   6.477   1.202 -0.2187  0.0325  0.1038
 4537SOL    HW217914   0.399   6.481   1.241  0.3512  1.7067  1.3324
 4537SOL    HW317915   0.538   6.427   1.264 -0.4914 -1.8456 -1.1142
 4537SOL    MW417916   0.482   6.471   1.215  0.2165  0.0245 -0.0563
 4538SOL     OW17917   0.788   1.121   5.228  0.0280  0.6805  0.3387
 4538SOL    HW217918   0.814   1.171   5.150 -0.8315 -1.3671 -1.3611
 4538SOL    HW317919   0.866   1.070   5.250 -0.5321 -0.8762 -1.0194
 4538SOL    MW417920   0.802   1.121   5.220 -0.2300  0.2094 -0.6497
 4539SOL     OW17921   5.013   2.860   5.331  0.1124  0.2552  0.2807
 4539SOL    HW217922   5.068   2.892   5.403  0.5645  1.4238 -0.5375
 4539SOL    HW317923   4.923   2.879   5.359  0.2799  0.6781  0.5494
 4539SOL    MW417924   5.009   2.867   5.344  0.3411  0.2600  0.3897
 4540SOL     OW17925   2.824   3.407   0.337 -0.3295  0.3322 -0.5104
 4540SOL    HW217926   2.798   3.499   0.332 -1.5110 -0.0236 -1.9125
 4540SOL    HW317927   2.741   3.359   0.336  0.2753 -0.7586 -0.1942
 4540SOL    MW417928   2.809   3.413   0.336 -0.2927  0.1108 -0.1313
 4541SOL     OW17929   1.375   2.657   6.385  0.2582 -0.0697  0.7839
 4541SOL    HW217930   1.300   2.709   6.358 -0.6943 -0.9007  1.7400
 4541SOL    HW317931   1.425   2.715   6.443  1.6082  1.2562 -1.5447
 4541SOL    MW417932   1.372   2.672   6.389 -0.0042 -0.0365  0.0711
 4542SOL     OW17933   0.726   6.327   2.632 -0.2763  0.4339 -0.3159
 4542SOL    HW217934   0.631   6.312   2.639  0.1423 -1.8885  1.4166
 4542SOL    HW317935   0.753   6.352   2.720  0.5358  2.7764 -1.1631
 4542SOL    MW417936   0.717   6.328   2.645  0.1350  0.3727 -0.0356
 4543SOL     OW17937   5.068   2.938   3.493  0.0877  0.2809  0.1349
 4543SOL    HW217938   4.997   2.884   3.459  0.3716  0.3660 -0.6199
 4543SOL    HW317939   5.144   2.912   3.442  0.5225  0.4383  0.6959
 4543SOL    MW417940   5.069   2.927   3.482  0.1429  0.4655  0.6838
 4544SOL     OW17941   5.797   2.791   1.308 -0.0220 -0.1804  0.0185
 4544SOL    HW217942   5.802   2.884   1.329  3.3399 -0.4694  1.0776
 4544SOL    HW317943   5.852   2.781   1.230  0.0273 -1.3230  0.1877
 4544SOL    MW417944   5.805   2.802   1.301 -0.4124 -0.2360 -0.3444
 4545SOL     OW17945   1.844   5.817   3.077 -0.1578 -0.2508 -1.1508
 4545SOL    HW217946   1.886   5.731   3.071  0.0651 -0.4481  1.7485
 4545SOL    HW317947   1.909   5.872   3.120 -1.4114  0.5336 -0.2045
 4545SOL    MW417948   1.858   5.812   3.082  0.3197 -0.2000  0.4705
 4546SOL     OW17949   0.024   0.551   1.926 -0.1914 -0.6072  0.1994
 4546SOL    HW217950  -0.069   0.536   1.944 -0.1092 -1.1122  0.2139
 4546SOL    HW317951   0.056   0.596   2.005 -0.2969 -0.9467  0.4397
 4546SOL    MW417952   0.016   0.555   1.939 -0.4455  0.0172 -0.2622
 4547SOL     OW17953   1.510   5.817   5.422 -0.2818  0.3335 -0.3561
 4547SOL    HW217954   1.436   5.833   5.481  0.3534 -0.5602  0.7246
 4547SOL    HW317955   1.547   5.904   5.405 -1.8615  0.8678 -1.3489
 4547SOL    MW417956   1.505   5.831   5.427 -0.1739 -0.1026 -0.0784
 4548SOL     OW17957   3.025   6.427   6.178 -0.1349  0.1018 -0.5123
 4548SOL    HW217958   3.005   6.443   6.270  1.2023 -1.2166  0.0494
 4548SOL    HW317959   2.956   6.369   6.148 -0.3419  0.1938 -0.2229
 4548SOL    MW417960   3.013   6.422   6.186 -0.7422  0.1322 -0.2654
 4549SOL     OW17961   2.896   5.216   2.599 -0.2266 -0.5662 -0.0692
 4549SOL    HW217962   2.883   5.276   2.526 -5.0903 -2.0214 -0.7822
 4549SOL    HW317963   2.931   5.271   2.669  1.8990  1.4914 -2.5186
 4549SOL    MW417964   2.899   5.231   2.599 -0.1540  0.4146 -0.7941
 4550SOL     OW17965   1.580   2.190   5.763 -0.4359 -0.4145  0.8056
 4550SOL    HW217966   1.500   2.140   5.745 -0.0372 -0.6909 -0.3291
 4550SOL    HW317967   1.593   2.243   5.684  0.7280 -0.7033  0.7860
 4550SOL    MW417968   1.571   2.190   5.750 -0.2408  0.4433  0.2466
 4551SOL     OW17969   0.312   3.746   1.539 -0.2252  0.1131 -0.3375
 4551SOL    HW217970   0.358   3.725   1.457  1.0513 -0.9901  0.6290
 4551SOL    HW317971   0.366   3.812   1.582  0.8423 -1.5995  1.0713
 4551SOL    MW417972   0.325   3.752   1.534  0.2775 -0.3342  0.1198
 4552SOL     OW17973   0.284   0.139   3.358 -0.1704 -0.5132  0.0555
 4552SOL    HW217974   0.224   0.132   3.284 -0.9458 -0.7416  0.6837
 4552SOL    HW317975   0.332   0.220   3.342 -0.1212 -0.7122 -0.8385
 4552SOL    MW417976   0.282   0.149   3.346  0.0617 -0.0724 -0.5666
 4553SOL     OW17977   1.654   1.124   5.249 -0.5122  1.0507 -0.2007
 4553SOL    HW217978   1.718   1.078   5.194 -0.3952  2.0712 -0.9447
 4553SOL    HW317979   1.703   1.148   5.328  0.1481  2.1570 -0.9278
 4553SOL    MW417980   1.669   1.121   5.252  0.1601  0.4969  0.0084
 4554SOL     OW17981   2.591   2.340   3.455  0.3470  0.2204  0.1668
 4554SOL    HW217982   2.638   2.258   3.466 -0.8097 -0.3809  0.8639
 4554SOL    HW317983   2.654   2.408   3.481  0.9072 -0.5302  0.8177
 4554SOL    MW417984   2.605   2.338   3.460 -0.3851  0.8565  0.3700
 4555SOL     OW17985   0.596   5.095   4.951  0.2960 -0.0918  0.7361
 4555SOL    HW217986   0.668   5.064   5.007  0.3844 -0.8133  0.2385
 4555SOL    HW317987   0.551   5.015   4.923 -0.4723  0.3322  0.7302
 4555SOL    MW417988   0.600   5.080   4.955 -0.1236  0.1991  0.3789
 4556SOL     OW17989   1.727   1.804   1.784  0.1374 -0.2796  0.1426
 4556SOL    HW217990   1.803   1.747   1.773 -0.1569 -0.5252 -0.7205
 4556SOL    HW317991   1.752   1.886   1.740  0.5269  0.2497  1.3063
 4556SOL    MW417992   1.740   1.808   1.777  0.2026  0.1187 -0.0355
 4557SOL     OW17993   1.174   0.541   4.656 -0.3649 -0.0830  0.3738
 4557SOL    HW217994   1.089   0.585   4.653  0.2765  1.3295  1.6314
 4557SOL    HW317995   1.217   0.568   4.575 -0.8806 -0.3025  0.0245
 4557SOL    MW417996   1.169   0.551   4.645 -0.0565 -0.6166  0.0379
 4558SOL     OW17997   3.803   6.106   0.783 -0.1309  0.5911  0.0799
 4558SOL    HW217998   3.846   6.021   0.794  0.7348  1.2112  2.1553
 4558SOL    HW317999   3.711   6.089   0.803 -0.1089 -0.0128 -0.3245
 4558SOL    MW418000   3.796   6.093   0.787  0.2360  0.7124 -0.1719
 4559SOL     OW18001   4.331   2.931   1.901 -0.3971  0.0749 -0.2568
 4559SOL    HW218002   4.236   2.923   1.906 -0.3281 -2.1822 -1.2558
 4559SOL    HW318003   4.358   2.954   1.990 -1.8630  1.1249 -0.0451
 4559SOL    MW418004   4.322   2.933   1.914  0.2751 -0.0007  0.0646
 4560SOL     OW18005   6.313   4.293   5.858 -0.3313  0.1969 -0.2256
 4560SOL    HW218006   6.352   4.312   5.773  0.0857  0.1969 -0.0358
 4560SOL    HW318007   6.279   4.377   5.888  0.6355  0.4607  0.1684
 4560SOL    MW418008   6.314   4.307   5.851  0.3970 -0.0283  0.2579
 4561SOL     OW18009   4.406   0.499   5.809  0.3856 -0.2880 -0.2139
 4561SOL    HW218010   4.497   0.486   5.785  0.4183 -1.6575  0.5471
 4561SOL    HW318011   4.359   0.426   5.768 -0.1380 -0.4060  0.5570
 4561SOL    MW418012   4.412   0.488   5.801  0.2146  0.6092 -0.3384
 4562SOL     OW18013   3.432   3.285   0.054 -0.0995  0.2133  0.2411
 4562SOL    HW218014   3.477   3.285  -0.031  0.2254 -0.5557  0.4102
 4562SOL    HW318015   3.394   3.197   0.061  1.3776 -0.3523  1.6746
 4562SOL    MW418016   3.433   3.273   0.044 -0.4694 -0.4395  0.8601
 4563SOL     OW18017   1.837   3.681   1.600  0.4410 -0.4191 -0.1701
 4563SOL    HW218018   1.870   3.731   1.675 -0.0008 -0.1966 -0.1188
 4563SOL    HW318019   1.863   3.733   1.523  1.5617 -1.0305 -0.2270
 4563SOL    MW418020   1.845   3.694   1.600  0.2697 -0.5614  0.2634
 4564SOL     OW18021   5.903   0.082   0.325 -0.0190 -0.0618 -0.1387
 4564SOL    HW218022   5.927  -0.005   0.357  1.8605  0.2654 -0.5800
 4564SOL    HW318023   5.969   0.141   0.360 -0.8484  1.0897 -0.4437
 4564SOL    MW418024   5.915   0.078   0.334  0.1293 -0.2960  0.0828
 4565SOL     OW18025   5.806   2.102   1.379 -0.6608  0.4116  0.0213
 4565SOL    HW218026   5.793   2.093   1.474 -1.5202  0.6099 -0.0728
 4565SOL    HW318027   5.752   2.177   1.355  0.2704  0.9287 -0.4846
 4565SOL    MW418028   5.797   2.111   1.389  0.3410  0.3982 -0.0476
 4566SOL     OW18029   4.955   2.201   4.718  0.0849  0.1385 -0.7387
 4566SOL    HW218030   4.878   2.154   4.751  0.8727 -0.9952 -0.4727
 4566SOL    HW318031   4.918   2.269   4.661 -1.1297 -0.1841 -0.3785
 4566SOL    MW418032   4.940   2.204   4.715  0.0329 -0.4076 -0.4707
 4567SOL     OW18033   2.813   6.047   1.542  0.1785 -0.2817 -0.0806
 4567SOL    HW218034   2.748   6.104   1.582 -0.5840 -1.0340 -0.2237
 4567SOL    HW318035   2.766   5.966   1.522  0.5491  0.0202 -2.4144
 4567SOL    MW418036   2.799   6.044   1.545 -0.0684 -0.3177  0.0024
 4568SOL     OW18037   0.269   4.899   6.195 -0.0199 -0.2731  0.3243
 4568SOL    HW218038   0.221   4.855   6.125 -1.5126 -0.6651  1.5405
 4568SOL    HW318039   0.361   4.886   6.172 -0.4333  0.6931 -2.1856
 4568SOL    MW418040   0.275   4.891   6.183 -0.1413  0.3150 -0.4993
 4569SOL     OW18041   5.747   0.765   2.684  0.1415  0.2615  0.1717
 4569SOL    HW218042   5.822   0.763   2.624 -0.3601 -2.4498 -0.4842
 4569SOL    HW318043   5.743   0.676   2.720 -1.1883  1.0839  2.2382
 4569SOL    MW418044   5.757   0.753   2.681  0.2504  0.5514  0.5199
 4570SOL     OW18045   4.934   4.360   2.348  0.1786 -0.0007  0.0337
 4570SOL    HW218046   4.872   4.428   2.374  0.0360 -0.3367  0.6132
 4570SOL    HW318047   4.985   4.343   2.428 -0.0269 -0.8197 -0.0006
 4570SOL    MW418048   4.933   4.366   2.362 -1.1305 -0.0168 -0.5139
 4571SOL     OW18049   2.638   3.164   0.492 -0.4334 -0.2536 -0.1811
 4571SOL    HW218050   2.562   3.105   0.488 -1.4952  0.8689  1.6868
 4571SOL    HW318051   2.714   3.106   0.482 -1.4752 -1.6572 -0.3232
 4571SOL    MW418052   2.638   3.149   0.490 -0.1984  0.4614  0.4777
 4572SOL     OW18053   3.682   0.064   1.088  0.3091 -0.3379  0.4696
 4572SOL    HW218054   3.755   0.039   1.145 -1.0346 -0.4384  2.2294
 4572SOL    HW318055   3.678   0.159   1.094  0.3483 -0.3277  0.3235
 4572SOL    MW418056   3.691   0.073   1.096  0.0733 -0.2230  0.2407
 4573SOL     OW18057   1.380   5.977   0.473  0.7203  0.7449  0.2430
 4573SOL    HW218058   1.450   6.001   0.413 -0.6260  0.5887 -1.4888
 4573SOL    HW318059   1.424   5.955   0.555  2.8244 -0.8109 -1.1998
 4573SOL    MW418060   1.395   5.977   0.476 -0.1312  0.3936  0.4662
 4574SOL     OW18061   4.278   1.085   3.451  0.1758 -0.2849 -0.2902
 4574SOL    HW218062   4.301   1.134   3.530 -0.4337 -0.6041  0.0968
 4574SOL    HW318063   4.197   1.126   3.420 -0.7609 -1.4822  0.4602
 4574SOL    MW418064   4.270   1.097   3.457 -0.4170 -0.1703  0.3916
 4575SOL     OW18065   3.303   6.367   6.153  0.0853  0.1456 -0.5075
 4575SOL    HW218066   3.293   6.291   6.211  0.3767  0.3812 -0.1427
 4575SOL    HW318067   3.214   6.399   6.140  0.0651  0.4201  0.2658
 4575SOL    MW418068   3.290   6.362   6.159 -0.2022 -0.5136 -0.3386
 4576SOL     OW18069   2.619   2.282   3.970 -0.6669  0.2413  0.7199
 4576SOL    HW218070   2.533   2.317   3.945  0.2100  1.7412 -0.3692
 4576SOL    HW318071   2.599   2.210   4.030 -2.6346  1.3870  1.5323
 4576SOL    MW418072   2.605   2.277   3.975 -0.2435 -0.2378 -0.9968
 4577SOL     OW18073   3.414   3.525   2.874 -0.5054 -0.2945 -0.0290
 4577SOL    HW218074   3.326   3.560   2.892 -0.2159 -0.1730  1.3148
 4577SOL    HW318075   3.442   3.489   2.958  0.8178 -0.1449 -0.3874
 4577SOL    MW418076   3.406   3.525   2.888 -0.0364  0.1906  0.1082
 4578SOL     OW18077   3.716   1.574   1.855 -0.7456 -0.2922 -0.3964
 4578SOL    HW218078   3.663   1.507   1.813 -0.9083 -0.9935  0.8775
 4578SOL    HW318079   3.732   1.540   1.943 -0.4284  1.1260  0.1157
 4578SOL    MW418080   3.711   1.561   1.861 -0.4337 -0.2260  0.5349
 4579SOL     OW18081   4.110   2.818   4.016 -0.0073 -0.5603 -0.1569
 4579SOL    HW218082   4.127   2.733   4.056 -0.0359  0.3580  1.9251
 4579SOL    HW318083   4.083   2.874   4.089  0.0242  1.2456 -1.4651
 4579SOL    MW418084   4.109   2.815   4.031  0.3023 -0.4689 -0.4210
 4580SOL     OW18085   3.853   3.611   1.386 -0.5887  0.4587 -0.0297
 4580SOL    HW218086   3.815   3.673   1.324 -2.6568 -0.5139  0.1975
 4580SOL    HW318087   3.887   3.666   1.457  1.8464  1.6025 -1.8982
 4580SOL    MW418088   3.853   3.627   1.387  0.8525  0.0414  0.1708
 4581SOL     OW18089   2.703   5.428   5.716 -0.1164 -0.2735  0.0128
 4581SOL    HW218090   2.783   5.411   5.765 -0.1885  0.1359  0.2809
 4581SOL    HW318091   2.707   5.369   5.641 -0.1203 -1.0857  0.6424
 4581SOL    MW418092   2.714   5.418   5.712 -0.0261 -0.1819 -0.2157
 4582SOL     OW18093   3.448   2.939   0.484  0.0547 -0.3196  0.2389
 4582SOL    HW218094   3.382   2.883   0.525 -1.1822  1.4913  0.8318
 4582SOL    HW318095   3.424   3.027   0.511  1.4246  0.5958 -1.3911
 4582SOL    MW418096   3.436   2.943   0.493 -0.3552 -0.4271  0.5392
 4583SOL     OW18097   4.217   4.656   3.774  0.0890 -0.7129  0.0508
 4583SOL    HW218098   4.184   4.568   3.754 -1.1042 -0.0872 -0.9024
 4583SOL    HW318099   4.197   4.669   3.867  0.3721 -1.4874  0.2226
 4583SOL    MW418100   4.210   4.646   3.783  0.1421 -0.1384  0.0976
 4584SOL     OW18101   6.391   1.002   6.411 -0.1357 -0.4394  0.5781
 4584SOL    HW218102   6.377   0.909   6.432  0.6808 -1.0065 -1.1734
 4584SOL    HW318103   6.322   1.023   6.349  0.6647 -0.3620 -0.3027
 4584SOL    MW418104   6.380   0.992   6.406 -0.2229  0.4025  0.1754
 4585SOL     OW18105   4.586   1.813   5.406  0.4528  0.4395  0.2588
 4585SOL    HW218106   4.643   1.878   5.447  1.3623 -1.3004  1.8755
 4585SOL    HW318107   4.544   1.768   5.479  1.3526 -2.0854 -0.6903
 4585SOL    MW418108   4.588   1.816   5.421 -0.0024 -0.7827  0.1870
 4586SOL     OW18109   4.617   6.235   0.742  0.4041 -0.8161  0.3013
 4586SOL    HW218110   4.642   6.254   0.832  0.6225  0.4648 -0.0064
 4586SOL    HW318111   4.613   6.139   0.738  2.2662 -0.9836  1.1839
 4586SOL    MW418112   4.620   6.225   0.753  0.3958 -0.2992 -0.8352
 4587SOL     OW18113   6.190   1.533   1.835  0.0552 -0.2875  0.2310
 4587SOL    HW218114   6.123   1.589   1.797  0.5242 -0.4860 -0.9353
 4587SOL    HW318115   6.234   1.588   1.900  0.0749  0.4755 -0.4291
 4587SOL    MW418116   6.187   1.547   1.839  0.0887 -0.0774  0.1863
 4588SOL     OW18117   6.017   3.984   0.187 -0.2606  0.4260  0.4122
 4588SOL    HW218118   5.963   3.908   0.210  0.6549  0.2833  2.2536
 4588SOL    HW318119   5.958   4.059   0.198 -0.8134  0.0950 -0.1871
 4588SOL    MW418120   6.002   3.984   0.191  0.2375 -0.0479  0.0895
 4589SOL     OW18121   0.587   1.312   0.262  0.5724  0.4977  0.2247
 4589SOL    HW218122   0.598   1.407   0.262 -1.6921  0.8429 -0.5688
 4589SOL    HW318123   0.642   1.281   0.190 -0.9726  1.6325 -1.5417
 4589SOL    MW418124   0.595   1.321   0.252 -0.3082  0.1966  0.6973
 4590SOL     OW18125   0.576   2.340   4.371  0.0427  0.1139  0.1393
 4590SOL    HW218126   0.597   2.413   4.429 -1.3209 -0.7245  1.7798
 4590SOL    HW318127   0.498   2.300   4.409 -1.4424 -0.0115 -2.7481
 4590SOL    MW418128   0.569   2.344   4.383 -0.4124  0.1802 -0.7286
 4591SOL     OW18129   1.933   5.748   6.042  0.2230  0.1263  0.4417
 4591SOL    HW218130   1.870   5.762   6.113 -0.9602 -0.1263 -0.5189
 4591SOL    HW318131   1.922   5.825   5.986  1.0944  0.2850  0.4806
 4591SOL    MW418132   1.923   5.760   6.044  0.3190 -0.0922 -0.0045
 4592SOL     OW18133   3.127   3.576   2.865  0.4483 -0.1408  0.3395
 4592SOL    HW218134   3.045   3.619   2.841  0.5369  0.4626  1.0883
 4592SOL    HW318135   3.121   3.490   2.824 -1.1964 -0.6572  1.5680
 4592SOL    MW418136   3.115   3.570   2.856  0.0791 -0.4439  0.0762
 4593SOL     OW18137   4.532   2.830   0.131  0.1006 -0.1118 -0.0703
 4593SOL    HW218138   4.575   2.776   0.064  1.9795 -0.0432  1.0062
 4593SOL    HW318139   4.504   2.768   0.198  1.1006  0.0848  0.5553
 4593SOL    MW418140   4.534   2.815   0.131  0.4212  0.7396  0.2190
 4594SOL     OW18141   0.470   1.840   3.533 -0.1722  0.1213 -0.4279
 4594SOL    HW218142   0.506   1.885   3.457 -0.2746  0.1794 -0.4429
 4594SOL    HW318143   0.503   1.751   3.526  1.2052  0.5462  0.3700
 4594SOL    MW418144   0.479   1.834   3.522 -0.4625  0.1805  0.5020
 4595SOL     OW18145   2.035   3.496   4.343 -0.3966 -0.6791 -0.1858
 4595SOL    HW218146   2.115   3.489   4.396 -1.5233 -0.5090  1.6288
 4595SOL    HW318147   2.059   3.555   4.272  1.4673 -1.6837 -0.4682
 4595SOL    MW418148   2.049   3.503   4.341 -0.1073  0.7020 -0.1787
 4596SOL     OW18149   3.994   1.903   1.817 -0.5243 -0.2893  1.1323
 4596SOL    HW218150   4.043   1.985   1.823  0.9540 -1.0756  0.5331
 4596SOL    HW318151   3.977   1.892   1.724 -0.1223 -0.9870  1.1359
 4596SOL    MW418152   3.998   1.913   1.806 -0.0216  0.1148  0.2057
 4597SOL     OW18153   3.380   4.641   3.061  0.0917 -0.2721 -0.0450
 4597SOL    HW218154   3.416   4.572   3.005  0.4512 -0.1349  0.0121
 4597SOL    HW318155   3.286   4.625   3.061  0.2325 -1.2106  0.5646
 4597SOL    MW418156   3.372   4.630   3.053 -0.2563 -0.1599  0.1799
 4598SOL     OW18157   3.766   3.557   6.306  0.4660  0.6641 -0.4155
 4598SOL    HW218158   3.775   3.494   6.234  1.0799 -1.1087  1.1386
 4598SOL    HW318159   3.855   3.584   6.325  0.3595  0.7185  0.0133
 4598SOL    MW418160   3.779   3.552   6.299  0.0126 -0.0055  0.2863
 4599SOL     OW18161   4.048   2.152   5.124 -0.0733 -0.1499  0.1737
 4599SOL    HW218162   4.045   2.114   5.212  1.0495  1.5263  0.9758
 4599SOL    HW318163   4.096   2.088   5.072 -2.1112 -1.9284  0.2995
 4599SOL    MW418164   4.054   2.138   5.128  0.7831 -0.3655  0.2580
 4600SOL     OW18165   1.292   1.295   5.348  0.1633  0.5749 -0.0914
 4600SOL    HW218166   1.312   1.248   5.429 -0.1182 -1.1225 -0.9673
 4600SOL    HW318167   1.230   1.363   5.375 -0.6085 -0.5140  0.9843
 4600SOL    MW418168   1.287   1.298   5.362  0.9015 -0.2868 -0.3255
 4601SOL     OW18169   4.952   0.833   3.862  0.1887 -0.0027  0.0395
 4601SOL    HW218170   4.902   0.853   3.782 -0.1322 -1.6429 -0.1935
 4601SOL    HW318171   4.994   0.916   3.884 -0.1619  0.6339 -1.5190
 4601SOL    MW418172   4.951   0.847   3.854 -0.6100  0.6156 -0.1176
 4602SOL     OW18173   3.543   4.733   1.296  0.2984 -0.0553 -0.6380
 4602SOL    HW218174   3.525   4.726   1.389 -1.4569 -0.3940 -0.9647
 4602SOL    HW318175   3.625   4.782   1.291 -0.3664  1.3513  1.0476
 4602SOL    MW418176   3.551   4.739   1.307 -0.1092 -0.2727 -0.1703
 4603SOL     OW18177   3.197   2.415   5.342 -0.1018  0.1506 -0.3157
 4603SOL    HW218178   3.140   2.354   5.389  0.8501  0.7665  1.7676
 4603SOL    HW318179   3.139   2.461   5.282 -1.2817 -1.0641 -0.1657
 4603SOL    MW418180   3.182   2.413   5.341 -0.9932  0.1693 -0.0715
 4604SOL     OW18181   3.286   5.507   2.706 -0.0655 -0.6511 -0.8271
 4604SOL    HW218182   3.286   5.564   2.629 -1.3492  0.3252 -0.1420
 4604SOL    HW318183   3.365   5.532   2.754 -0.1568 -0.0574 -0.9805
 4604SOL    MW418184   3.297   5.518   2.702 -0.7748 -0.6540 -0.0564
 4605SOL     OW18185   4.361   0.300   3.990  0.1377  0.1435  0.2469
 4605SOL    HW218186   4.406   0.294   3.906 -0.1320 -0.0532  0.1169
 4605SOL    HW318187   4.426   0.338   4.050  0.2323  0.5761 -0.1229
 4605SOL    MW418188   4.375   0.304   3.987  0.8497 -0.3178  0.1373
 4606SOL     OW18189   5.724   1.471   2.239  0.5417 -0.0389 -0.0351
 4606SOL    HW218190   5.669   1.518   2.177  0.1769 -0.0194  0.2999
 4606SOL    HW318191   5.671   1.466   2.319  1.1036  0.1612  0.3547
 4606SOL    MW418192   5.710   1.476   2.241  0.2655 -0.3453  0.0305
 4607SOL     OW18193   3.175   5.607   1.072 -0.3103 -0.3577 -0.1240
 4607SOL    HW218194   3.143   5.611   0.982  0.3949 -1.1997 -0.4265
 4607SOL    HW318195   3.176   5.698   1.101 -0.5224 -0.0765 -0.9697
 4607SOL    MW418196   3.171   5.619   1.064 -0.0815  0.2982 -0.5133
 4608SOL     OW18197   1.305   4.549   1.007  0.0685  0.2800 -0.0628
 4608SOL    HW218198   1.322   4.540   1.100 -1.3260 -1.1375  0.1040
 4608SOL    HW318199   1.211   4.571   1.002  0.7587  3.6667 -1.0452
 4608SOL    MW418200   1.295   4.551   1.018 -0.1091 -0.1593 -0.6118
 4609SOL     OW18201   3.106   2.084   4.413 -0.2752 -0.1028 -0.1714
 4609SOL    HW218202   3.178   2.142   4.392 -0.8582  0.4519 -0.6812
 4609SOL    HW318203   3.077   2.050   4.329  0.2377 -1.3672  0.1396
 4609SOL    MW418204   3.111   2.087   4.399 -0.2121  0.2203  0.3434
 4610SOL     OW18205   4.646   1.713   6.014 -0.3009 -0.2689  1.2543
 4610SOL    HW218206   4.662   1.662   6.093  0.3855 -0.9679  0.6719
 4610SOL    HW318207   4.662   1.804   6.042  3.5104 -0.7176  1.1341
 4610SOL    MW418208   4.650   1.719   6.028 -0.1849  0.0142  0.1866
 4611SOL     OW18209   1.530   3.061   1.360 -0.0222  0.0461  0.1357
 4611SOL    HW218210   1.532   3.102   1.446 -0.9594 -1.0918  0.7330
 4611SOL    HW318211   1.510   2.969   1.378 -1.0191 -0.0660 -1.3381
 4611SOL    MW418212   1.528   3.054   1.374  0.1367 -0.1838 -0.0212
 4612SOL     OW18213   4.989   3.110   3.026 -0.0188  0.4430 -0.2864
 4612SOL    HW218214   4.991   3.167   3.102  1.8159  0.1565 -0.0921
 4612SOL    HW318215   5.036   3.159   2.958 -1.6651  0.7167 -1.2941
 4612SOL    MW418216   4.995   3.124   3.027 -1.1750  0.4164 -0.2907
 4613SOL     OW18217   3.029   0.443   5.554 -0.3047  0.6232 -0.5911
 4613SOL    HW218218   2.997   0.472   5.468  1.1558  0.1069 -1.3396
 4613SOL    HW318219   3.078   0.518   5.588 -1.3885  1.0477  0.0986
 4613SOL    MW418220   3.031   0.457   5.547  0.0493  0.1171  0.0327
 4614SOL     OW18221   2.079   6.341   0.048 -0.2286 -0.0025 -0.8844
 4614SOL    HW218222   2.055   6.379  -0.037 -0.0896  2.0850 -0.0543
 4614SOL    HW318223   1.997   6.342   0.098  0.0449  0.4335 -0.4290
 4614SOL    MW418224   2.065   6.346   0.043 -0.0024 -0.3337 -0.1802
 4615SOL     OW18225   4.169   2.534   0.341  0.2028 -0.4041 -0.3018
 4615SOL    HW218226   4.249   2.585   0.332 -0.8197  1.0969 -1.4778
 4615SOL    HW318227   4.149   2.505   0.252 -1.3552  0.6045 -0.3337
 4615SOL    MW418228   4.177   2.537   0.328  0.1219 -0.9725  0.5797
 4616SOL     OW18229   6.381   4.966   5.530  0.4197 -0.1802  0.6017
 4616SOL    HW218230   6.420   5.032   5.588  0.1092  0.4345  0.1269
 4616SOL    HW318231   6.452   4.904   5.513  0.7460  0.0825  0.9752
 4616SOL    MW418232   6.396   4.967   5.536  0.2157  0.5548 -0.0236
 4617SOL     OW18233   1.870   0.797   0.060 -0.1528 -0.8481 -0.3500
 4617SOL    HW218234   1.915   0.855   0.122  0.5352  0.4063 -1.9676
 4617SOL    HW318235   1.815   0.855   0.008 -1.3508 -1.9886 -0.4021
 4617SOL    MW418236   1.869   0.812   0.062 -0.0774  0.0223  0.1786
 4618SOL     OW18237   1.207   1.736   4.901  0.7125 -0.7663  0.3309
 4618SOL    HW218238   1.162   1.673   4.957  1.2249 -0.6411  0.8863
 4618SOL    HW318239   1.289   1.693   4.878  0.8451 -0.5007  0.3089
 4618SOL    MW418240   1.212   1.722   4.905  0.4849  0.0074 -0.0525
 4619SOL     OW18241   0.823   2.168   0.426 -0.2394  0.3563 -0.7092
 4619SOL    HW218242   0.789   2.179   0.515 -0.4331 -1.3278 -0.5489
 4619SOL    HW318243   0.835   2.257   0.394  0.8137  1.0323  1.3808
 4619SOL    MW418244   0.820   2.181   0.434 -0.1753  0.0555  0.1964
 4620SOL     OW18245   1.369   3.314   1.469  0.1115 -0.8945 -0.2500
 4620SOL    HW218246   1.334   3.396   1.504 -1.0981 -1.4542 -0.0701
 4620SOL    HW318247   1.463   3.330   1.458 -0.2127  0.7480 -0.9247
 4620SOL    MW418248   1.377   3.327   1.473  0.5706 -0.0491 -0.1959
 4621SOL     OW18249   2.295   2.677   4.944 -0.6098  0.1125 -0.4415
 4621SOL    HW218250   2.234   2.617   4.902 -1.0282  1.0826 -1.2847
 4621SOL    HW318251   2.320   2.738   4.874  0.8927  0.0725  0.0277
 4621SOL    MW418252   2.290   2.677   4.929  0.3245  0.6889 -0.7242
 4622SOL     OW18253   1.105   2.005   5.695  0.2826  0.0173  0.0356
 4622SOL    HW218254   1.104   2.018   5.790  1.1995  1.2291 -0.0948
 4622SOL    HW318255   1.047   2.074   5.661  1.8507  1.1840 -0.4062
 4622SOL    MW418256   1.097   2.016   5.703  0.1211 -0.2399 -0.4045
 4623SOL     OW18257   3.318   1.812   0.104  0.1695  0.5266 -0.6222
 4623SOL    HW218258   3.336   1.885   0.045  2.7289  0.9923  0.5987
 4623SOL    HW318259   3.370   1.832   0.182 -0.3471 -1.8083  0.3750
 4623SOL    MW418260   3.327   1.825   0.106 -0.3260  0.9956  0.5453
 4624SOL     OW18261   1.453   6.311   2.277 -0.6237  0.2021  0.4822
 4624SOL    HW218262   1.514   6.237   2.278 -1.0677 -0.1769  0.0614
 4624SOL    HW318263   1.395   6.295   2.352  0.2263  0.9446  1.3233
 4624SOL    MW418264   1.453   6.299   2.287  0.2413  0.4674 -0.2701
 4625SOL     OW18265   0.501   5.308   3.392  0.1288  0.2546 -0.3005
 4625SOL    HW218266   0.541   5.263   3.466  0.8717  1.0289 -0.2173
 4625SOL    HW318267   0.411   5.323   3.419  1.0273  2.9427  1.6421
 4625SOL    MW418268   0.494   5.304   3.405 -0.5476  0.0942  0.4157
 4626SOL     OW18269   3.397   3.290   2.124 -0.2641  0.2799  0.3044
 4626SOL    HW218270   3.382   3.197   2.106 -0.4459  0.6971 -1.9376
 4626SOL    HW318271   3.311   3.324   2.145 -0.3434  0.1043  0.2672
 4626SOL    MW418272   3.384   3.282   2.124  0.2732 -0.3065 -0.1105
 4627SOL     OW18273   0.726   5.435   4.868  0.1460  0.8198 -1.1651
 4627SOL    HW218274   0.695   5.366   4.809 -0.6170  0.2468 -0.1309
 4627SOL    HW318275   0.646   5.475   4.902  0.5789  1.7997 -1.2559
 4627SOL    MW418276   0.711   5.431   4.865  0.8833  0.4025 -0.0780
 4628SOL     OW18277   0.016   3.044   0.262  0.4620  0.0404  0.2357
 4628SOL    HW218278   0.094   3.091   0.290  0.2003  0.0024  1.0574
 4628SOL    HW318279   0.045   2.953   0.251  0.3026 -0.2042  1.6517
 4628SOL    MW418280   0.030   3.038   0.264  0.6263 -0.1064  0.9195
 4629SOL     OW18281   2.962   6.456   0.040  0.0907  0.5196  0.3548
 4629SOL    HW218282   3.029   6.475   0.105  0.3820  1.3848 -0.1816
 4629SOL    HW318283   2.889   6.515   0.061  0.5086  1.3895 -0.5776
 4629SOL    MW418284   2.961   6.466   0.051 -0.0750 -0.0212 -0.4346
 4630SOL     OW18285   6.126   3.571   0.777 -0.0311 -0.2445 -0.1368
 4630SOL    HW218286   6.125   3.495   0.835 -2.6062 -0.2254 -0.0646
 4630SOL    HW318287   6.151   3.535   0.692  1.7702 -0.6099  0.5013
 4630SOL    MW418288   6.130   3.556   0.774  0.2821 -0.7479  0.4397
 4631SOL     OW18289   2.234   4.712   0.693 -0.3815 -0.6206  0.2450
 4631SOL    HW218290   2.301   4.778   0.677  0.8428 -1.9003 -0.0681
 4631SOL    HW318291   2.280   4.629   0.689 -2.0278 -1.5629 -0.1303
 4631SOL    MW418292   2.249   4.710   0.691 -0.4195 -0.4314  0.3240
 4632SOL     OW18293   3.788   5.035   1.581 -0.2413 -0.1615 -0.3207
 4632SOL    HW218294   3.714   5.093   1.566  0.1159 -0.0118 -1.6589
 4632SOL    HW318295   3.856   5.091   1.618  0.1386  0.3320 -1.7044
 4632SOL    MW418296   3.788   5.050   1.584  0.0496 -0.1844 -0.2308
 4633SOL     OW18297   1.602   1.630   6.012  0.3009 -0.2091 -0.1781
 4633SOL    HW218298   1.695   1.645   5.995  0.3944 -0.0730  0.4230
 4633SOL    HW318299   1.599   1.547   6.060  0.1749  0.0820  0.3321
 4633SOL    MW418300   1.614   1.621   6.016 -0.0220  0.0343 -0.1508
 4634SOL     OW18301   5.598   6.156   3.435 -0.0407  0.7483  0.2728
 4634SOL    HW218302   5.616   6.242   3.396 -1.9206  1.1136  0.1252
 4634SOL    HW318303   5.504   6.144   3.425  0.2638 -1.6758 -0.3484
 4634SOL    MW418304   5.588   6.166   3.429  0.2102 -1.0811 -0.4437
 4635SOL     OW18305   3.678   4.268   0.992 -0.1992 -0.3118  0.2713
 4635SOL    HW218306   3.653   4.181   0.960  1.1499 -0.2221 -1.1515
 4635SOL    HW318307   3.744   4.251   1.060  0.3559 -0.4237 -0.2804
 4635SOL    MW418308   3.684   4.254   0.997 -0.3143 -0.5930 -0.5908
 4636SOL     OW18309   4.747   4.437   4.721 -0.0587 -0.1390 -0.0586
 4636SOL    HW218310   4.713   4.502   4.659  1.0220 -0.3105 -0.8702
 4636SOL    HW318311   4.797   4.487   4.784  0.8775 -0.1693 -0.7561
 4636SOL    MW418312   4.749   4.452   4.721  0.2644  0.2300  0.1712
 4637SOL     OW18313   5.978   4.790   5.076 -0.2753 -0.5090 -0.3243
 4637SOL    HW218314   6.008   4.834   4.996 -2.0504  0.6617 -0.3973
 4637SOL    HW318315   5.965   4.861   5.139 -2.2177 -0.9987 -0.1166
 4637SOL    MW418316   5.980   4.805   5.074 -0.7807 -0.3030 -0.0355
 4638SOL     OW18317   6.247   3.741   1.817  0.5310  0.1527 -0.2218
 4638SOL    HW218318   6.320   3.682   1.837  2.3743  1.7894 -1.6801
 4638SOL    HW318319   6.251   3.809   1.884 -0.4309 -0.3820  0.3898
 4638SOL    MW418320   6.257   3.742   1.828 -0.0835 -0.1816 -0.9202
 4639SOL     OW18321   0.550   1.625   5.104  0.4614  0.3266  0.0687
 4639SOL    HW218322   0.540   1.544   5.054  2.9282 -1.0321  1.5949
 4639SOL    HW318323   0.468   1.633   5.154 -0.6262 -0.0864 -1.5757
 4639SOL    MW418324   0.538   1.616   5.104  0.2031  0.7883  0.2205
 4640SOL     OW18325   3.372   5.504   3.087 -0.1365 -0.3679  0.4243
 4640SOL    HW218326   3.319   5.571   3.130 -1.0075 -0.7197 -0.0519
 4640SOL    HW318327   3.449   5.494   3.143  1.2100  2.6609 -0.6848
 4640SOL    MW418328   3.375   5.511   3.100  0.2633  0.5213 -0.2224
 4641SOL     OW18329   0.088   1.038   3.382 -0.0187 -0.1312  0.6003
 4641SOL    HW218330   0.136   1.021   3.463  0.8174 -0.0545  0.1361
 4641SOL    HW318331   0.014   1.093   3.409  0.6758  0.5387  1.2050
 4641SOL    MW418332   0.085   1.043   3.396  0.1815 -0.3686  0.2650
 4642SOL     OW18333   6.306   0.725   2.572 -0.0055 -0.3350 -0.2871
 4642SOL    HW218334   6.334   0.714   2.481  0.5405 -0.9834 -0.0531
 4642SOL    HW318335   6.240   0.657   2.584  0.4641 -0.7509  0.0059
 4642SOL    MW418336   6.301   0.714   2.561  0.1889  0.0109 -0.3903
 4643SOL     OW18337   5.983   3.034   3.544  0.1341  0.5740 -0.6407
 4643SOL    HW218338   6.033   2.989   3.476  0.3703  0.7862 -0.6064
 4643SOL    HW318339   6.037   3.109   3.569 -0.1778  0.7791 -0.5706
 4643SOL    MW418340   5.997   3.038   3.538  0.4730 -0.1371  0.4697
 4644SOL     OW18341   5.540   2.114   2.770 -0.3806 -0.3485 -0.2905
 4644SOL    HW218342   5.587   2.077   2.695 -0.3161  0.2393 -0.5506
 4644SOL    HW318343   5.565   2.060   2.844  0.9721  0.1481 -0.3650
 4644SOL    MW418344   5.549   2.102   2.770 -0.3400  0.5153 -0.0434
 4645SOL     OW18345   1.963   5.789   1.229 -0.0349  0.2977 -0.2296
 4645SOL    HW218346   1.881   5.821   1.266  0.7935  1.6294  0.5360
 4645SOL    HW318347   1.965   5.826   1.141 -0.6788 -0.5362 -0.6139
 4645SOL    MW418348   1.952   5.798   1.222 -0.1168 -0.3764  0.1770
 4646SOL     OW18349   6.106   5.926   0.398  0.1877  0.5367 -0.4666
 4646SOL    HW218350   6.190   5.931   0.352  0.1143 -0.0324 -0.6651
 4646SOL    HW318351   6.129   5.938   0.490  0.8945 -2.3896 -0.1519
 4646SOL    MW418352   6.120   5.928   0.404 -0.6923  0.0379  0.5620
 4647SOL     OW18353   5.880   6.350   4.114  0.1039 -0.0064  0.5853
 4647SOL    HW218354   5.786   6.353   4.103 -0.1093 -1.8728  1.4233
 4647SOL    HW318355   5.900   6.421   4.175 -0.7021  0.6059  0.1393
 4647SOL    MW418356   5.870   6.360   4.121  0.3343  0.4445 -0.0361
 4648SOL     OW18357   4.567   2.540   3.095  0.0344 -0.4528  0.1250
 4648SOL    HW218358   4.514   2.538   3.175 -2.0219  2.1246 -1.0469
 4648SOL    HW318359   4.512   2.499   3.029  0.2650  0.5522 -0.7126
 4648SOL    MW418360   4.553   2.534   3.097  0.1929 -0.0168 -0.0999
 4649SOL     OW18361   4.950   6.339   4.362  0.4569 -0.2526  0.0978
 4649SOL    HW218362   5.018   6.365   4.424  0.8987  0.9884 -0.8483
 4649SOL    HW318363   4.887   6.411   4.365  0.0554 -0.5825 -0.2702
 4649SOL    MW418364   4.951   6.352   4.371 -0.2068 -0.0415 -0.6928
 4650SOL     OW18365   1.596   2.692   4.839  0.3006  0.0943  0.0090
 4650SOL    HW218366   1.690   2.706   4.836  0.7630 -2.3805 -3.6701
 4650SOL    HW318367   1.584   2.616   4.897  0.7517 -0.4758 -0.6383
 4650SOL    MW418368   1.607   2.684   4.846  0.5225  0.0129  0.5114
 4651SOL     OW18369   1.299   3.571   4.390 -0.3282 -0.4361  0.5209
 4651SOL    HW218370   1.388   3.546   4.414 -0.0021  1.2726  1.1805
 4651SOL    HW318371   1.254   3.585   4.474 -0.5555  0.9001  0.1995
 4651SOL    MW418372   1.305   3.569   4.404  0.1735  0.0503  0.0690
 4652SOL     OW18373   2.545   3.823   6.403  0.2977  0.3312 -0.2469
 4652SOL    HW218374   2.467   3.818   6.458 -0.9133 -0.3823 -1.9100
 4652SOL    HW318375   2.563   3.917   6.396 -0.1081  0.4797  0.5642
 4652SOL    MW418376   2.537   3.835   6.409 -0.3577 -0.4090 -0.0407
 4653SOL     OW18377   0.926   2.737   1.577  0.4531 -0.0959 -0.7053
 4653SOL    HW218378   0.850   2.687   1.545  0.6765  0.4459 -2.1465
 4653SOL    HW318379   1.000   2.679   1.561  0.3453 -0.7502  0.9845
 4653SOL    MW418380   0.926   2.722   1.571 -0.1955 -0.9688 -0.1245
 4654SOL     OW18381   6.142   3.891   4.389  0.1266  0.5644  0.0609
 4654SOL    HW218382   6.164   3.982   4.369 -0.3588  0.5590 -0.5479
 4654SOL    HW318383   6.094   3.896   4.472  0.4462  0.8154  0.2343
 4654SOL    MW418384   6.138   3.904   4.397 -0.0984 -0.5232 -0.0175
 4655SOL     OW18385   4.161   5.985   1.772  0.9611  0.0182  0.3215
 4655SOL    HW218386   4.221   5.912   1.753  0.8264  0.3283 -1.4185
 4655SOL    HW318387   4.209   6.063   1.744  0.2078  0.3811  0.0151
 4655SOL    MW418388   4.176   5.986   1.766  0.0897  0.1640  0.5092
 4656SOL     OW18389   3.914   5.471   4.731  0.3256  0.3060  0.1200
 4656SOL    HW218390   3.888   5.384   4.761  2.5288 -0.5136 -0.1530
 4656SOL    HW318391   3.992   5.492   4.782  0.9749  1.2522 -1.1933
 4656SOL    MW418392   3.921   5.463   4.742  0.4385  0.0614 -0.0089
 4657SOL     OW18393   6.339   1.168   2.750  0.3674  0.1552  0.1765
 4657SOL    HW218394   6.371   1.088   2.793 -0.6951  0.0819  0.8941
 4657SOL    HW318395   6.335   1.233   2.820  0.8652  0.7295 -0.3247
 4657SOL    MW418396   6.342   1.166   2.765 -0.5116 -0.0167 -0.5417
 4658SOL     OW18397   2.002   1.520   5.369 -0.2574  0.6700 -0.0198
 4658SOL    HW218398   1.916   1.499   5.403 -0.7218  0.4463 -1.2710
 4658SOL    HW318399   1.992   1.608   5.332 -0.4920 -0.0563 -1.8086
 4658SOL    MW418400   1.989   1.529   5.369  0.0721  0.7517  0.2048
 4659SOL     OW18401   0.283   1.221   2.447  0.0065  0.1212 -0.5332
 4659SOL    HW218402   0.276   1.224   2.542  1.2646 -1.5120 -0.3550
 4659SOL    HW318403   0.199   1.187   2.418  0.3442 -1.4243  0.1863
 4659SOL    MW418404   0.271   1.217   2.456 -0.5031 -0.4553  0.1215
 4660SOL     OW18405   3.532   1.465   3.961 -0.4605  0.1117  0.8157
 4660SOL    HW218406   3.578   1.384   3.980  0.0763 -0.3363 -1.9749
 4660SOL    HW318407   3.444   1.437   3.935 -0.3185  0.4150 -0.0178
 4660SOL    MW418408   3.526   1.451   3.960  0.1886 -0.7653  0.0499
 4661SOL     OW18409   0.022   3.461   0.819  0.2526  0.6208  0.2729
 4661SOL    HW218410  -0.009   3.377   0.854  1.5186  0.3577  0.8105
 4661SOL    HW318411   0.008   3.455   0.725 -0.3626  0.1068  0.3937
 4661SOL    MW418412   0.016   3.449   0.811 -0.0020  0.4224 -0.1427
 4662SOL     OW18413   3.326   3.431   6.123  0.1150 -0.1319 -0.3092
 4662SOL    HW218414   3.289   3.450   6.209 -1.0863 -1.5871 -0.4582
 4662SOL    HW318415   3.259   3.377   6.079  1.5505 -1.1335 -1.3764
 4662SOL    MW418416   3.312   3.426   6.128 -0.6073  0.7436 -0.1173
 4663SOL     OW18417   2.119   3.827   0.502 -0.4370  0.5322 -0.2195
 4663SOL    HW218418   2.158   3.753   0.549 -0.1768  1.3721  0.9375
 4663SOL    HW318419   2.111   3.796   0.412  0.8280 -0.4606 -0.0283
 4663SOL    MW418420   2.123   3.813   0.497  0.0659 -0.1154  0.0046
 4664SOL     OW18421   5.602   1.493   1.424 -0.1274 -0.0496  0.1550
 4664SOL    HW218422   5.572   1.402   1.414 -1.5270  0.5648 -1.7658
 4664SOL    HW318423   5.530   1.537   1.471  1.0265 -0.1190  2.0969
 4664SOL    MW418424   5.588   1.487   1.429 -0.3362  0.1826  0.0660
 4665SOL     OW18425   0.527   5.026   1.497  0.0873 -0.3244  0.3068
 4665SOL    HW218426   0.496   5.081   1.569  0.8729  0.2302  0.2360
 4665SOL    HW318427   0.623   5.027   1.506  0.1458 -0.9979 -0.2009
 4665SOL    MW418428   0.536   5.034   1.508  0.1301  0.5743  0.4128
 4666SOL     OW18429   4.548   0.914   5.778  0.2416  0.5797 -0.0433
 4666SOL    HW218430   4.471   0.877   5.734 -0.6437 -1.0285  2.6184
 4666SOL    HW318431   4.512   0.976   5.842  1.2687  0.9429  0.1978
 4666SOL    MW418432   4.533   0.917   5.781  0.7549 -0.2655  0.1865
 4667SOL     OW18433   3.220   1.217   3.341  0.2224  0.0703 -0.2170
 4667SOL    HW218434   3.255   1.130   3.361 -1.4134 -1.0183 -1.7242
 4667SOL    HW318435   3.272   1.248   3.267  2.1344  1.3427  1.5443
 4667SOL    MW418436   3.231   1.210   3.334 -0.2365  0.2017 -0.9563
 4668SOL     OW18437   0.965   6.044   4.369 -0.1151  0.3797 -0.2965
 4668SOL    HW218438   0.951   5.986   4.294  0.6465 -0.3751  0.1245
 4668SOL    HW318439   0.877   6.075   4.392 -0.5421 -0.5775 -0.5737
 4668SOL    MW418440   0.951   6.040   4.362 -0.6260  0.0943 -0.1948
 4669SOL     OW18441   4.063   5.894   3.840 -0.6009 -0.4483  0.2430
 4669SOL    HW218442   4.152   5.860   3.847 -0.2327  0.6132  0.8594
 4669SOL    HW318443   4.073   5.988   3.828 -1.6442 -0.3040  0.3476
 4669SOL    MW418444   4.076   5.902   3.840 -0.3863 -0.1033  0.6391
 4670SOL     OW18445   0.970   6.396   0.717  0.3228 -0.3308 -0.5504
 4670SOL    HW218446   0.915   6.333   0.765  0.0113  0.3741  0.0307
 4670SOL    HW318447   1.060   6.370   0.738  0.1978 -0.5867 -0.3189
 4670SOL    MW418448   0.974   6.384   0.727  0.2129  0.4186  0.2484
 4671SOL     OW18449   3.716   1.918   4.678  0.2817 -0.4677  0.2542
 4671SOL    HW218450   3.785   1.910   4.612 -0.0016  1.0868 -0.2805
 4671SOL    HW318451   3.751   1.982   4.740 -0.1758 -0.5985  0.6433
 4671SOL    MW418452   3.730   1.925   4.677  0.3556  0.5573  0.5047
 4672SOL     OW18453   6.093   0.252   0.382 -0.2553  0.1562 -0.2695
 4672SOL    HW218454   6.102   0.320   0.315 -1.8842  0.7072  0.0060
 4672SOL    HW318455   6.176   0.254   0.429 -0.0322  1.5540 -0.6567
 4672SOL    MW418456   6.105   0.261   0.379  0.1573  0.6168 -0.1828
 4673SOL     OW18457   4.084   1.160   1.682 -0.2160 -0.0264 -0.3989
 4673SOL    HW218458   4.015   1.219   1.714  0.3544  0.0423  0.7709
 4673SOL    HW318459   4.041   1.074   1.677 -0.5414  0.1259 -0.2530
 4673SOL    MW418460   4.069   1.156   1.686 -0.5736 -0.1212 -0.5410
 4674SOL     OW18461   5.398   1.459   2.557  0.1635  0.0842 -0.9402
 4674SOL    HW218462   5.332   1.419   2.499  0.8315 -0.6910 -1.1840
 4674SOL    HW318463   5.403   1.399   2.631  1.1629 -0.2871 -1.2970
 4674SOL    MW418464   5.390   1.446   2.559  0.0477 -0.0350 -0.6712
 4675SOL     OW18465   3.688   1.474   2.580  0.3017  0.0428  0.0132
 4675SOL    HW218466   3.598   1.473   2.549  0.1579  0.7986  0.3973
 4675SOL    HW318467   3.740   1.486   2.500  0.0475 -0.1478 -0.1812
 4675SOL    MW418468   3.683   1.476   2.565  0.3915 -0.0211 -0.7629
 4676SOL     OW18469   1.547   2.334   2.196  0.1003  0.7227  0.1749
 4676SOL    HW218470   1.592   2.303   2.118 -0.5448 -1.3031  0.5313
 4676SOL    HW318471   1.614   2.333   2.265  0.8737  3.2899 -0.4543
 4676SOL    MW418472   1.562   2.329   2.195  0.3101 -0.8658  0.4614
 4677SOL     OW18473   4.446   1.877   4.582  0.6255 -0.0808 -0.1580
 4677SOL    HW218474   4.471   1.822   4.656  1.1817 -2.1700 -1.8309
 4677SOL    HW318475   4.529   1.903   4.542  0.3566 -1.8951 -2.0605
 4677SOL    MW418476   4.461   1.873   4.586 -0.0883 -0.2161 -0.0613
 4678SOL     OW18477   1.999   5.592   4.352  0.5709 -0.3834  0.5272
 4678SOL    HW218478   2.094   5.601   4.342  0.3110  0.2455 -2.6708
 4678SOL    HW318479   1.971   5.678   4.385  1.0844 -0.6177  1.6249
 4678SOL    MW418480   2.008   5.605   4.355 -0.8989 -0.3223  0.4330
 4679SOL     OW18481   6.319   3.954   5.507  0.1918 -0.0561 -0.2069
 4679SOL    HW218482   6.259   3.972   5.435  1.6559 -0.5332 -1.5949
 4679SOL    HW318483   6.406   3.953   5.466  1.3704  2.2275  1.9586
 4679SOL    MW418484   6.323   3.957   5.492  0.3766  0.4732  0.0700
 4680SOL     OW18485   5.116   1.602   0.018  0.1783  0.4335 -0.3868
 4680SOL    HW218486   5.080   1.690   0.021  0.8546  0.7512 -1.2888
 4680SOL    HW318487   5.209   1.614   0.038  0.2372 -0.1067 -0.3180
 4680SOL    MW418488   5.124   1.615   0.021  0.5786 -0.3957 -0.0903
 4681SOL     OW18489   5.139   6.169   4.827 -0.2969 -0.6234 -0.2553
 4681SOL    HW218490   5.230   6.197   4.827 -0.1974 -0.9384 -0.4883
 4681SOL    HW318491   5.142   6.077   4.799 -0.8228 -0.1601 -2.0115
 4681SOL    MW418492   5.151   6.160   4.823  0.6220  0.1185 -0.3323
 4682SOL     OW18493   0.790   0.319   2.284 -0.1158  0.3957  0.0103
 4682SOL    HW218494   0.810   0.372   2.361 -0.4860  1.4466 -0.5866
 4682SOL    HW318495   0.770   0.232   2.318  2.6887 -0.0012  0.8531
 4682SOL    MW418496   0.790   0.315   2.299  0.4097 -0.0437 -0.6002
 4683SOL     OW18497   3.317   4.183   2.996 -0.3888  0.0507 -0.1332
 4683SOL    HW218498   3.316   4.127   2.919 -3.0938  1.6296 -1.3842
 4683SOL    HW318499   3.343   4.269   2.964 -0.2746  0.4507  0.9670
 4683SOL    MW418500   3.321   4.187   2.982  0.6385 -0.3386 -0.2705
 4684SOL     OW18501   4.059   3.234   1.754 -0.4018  0.6913 -0.2898
 4684SOL    HW218502   4.141   3.234   1.804 -0.9503  1.3545  0.6300
 4684SOL    HW318503   4.086   3.258   1.665  0.8489 -2.3854 -0.8520
 4684SOL    MW418504   4.074   3.237   1.749 -0.1604 -0.0087  0.1791
 4685SOL     OW18505   1.956   1.633   4.665  0.0920  0.3495  0.5446
 4685SOL    HW218506   1.908   1.565   4.618  1.8764 -0.7794  0.2614
 4685SOL    HW318507   1.986   1.589   4.745 -1.4255  1.7503  1.9561
 4685SOL    MW418508   1.954   1.618   4.669 -0.0786  0.1919 -0.2677
 4686SOL     OW18509   3.340   1.958   3.324 -0.2299  0.5841 -0.5857
 4686SOL    HW218510   3.294   1.939   3.405  0.1484  0.5328 -0.3793
 4686SOL    HW318511   3.298   1.904   3.258  1.7768 -2.2004  0.2419
 4686SOL    MW418512   3.329   1.949   3.326 -0.3437  0.5389 -0.2800
 4687SOL     OW18513   3.442   3.569   5.909 -0.0238 -0.7239 -0.1933
 4687SOL    HW218514   3.378   3.520   5.961 -1.6705  0.7168 -0.7685
 4687SOL    HW318515   3.389   3.626   5.853  1.7852  0.8313 -0.4203
 4687SOL    MW418516   3.426   3.570   5.908  0.2566  0.3314  0.4325
 4688SOL     OW18517   4.841   3.862   0.139 -0.2665  0.3554 -0.6958
 4688SOL    HW218518   4.904   3.927   0.169  0.5843 -0.1643 -1.2956
 4688SOL    HW318519   4.765   3.873   0.196  0.7544  0.3106  0.7290
 4688SOL    MW418520   4.839   3.872   0.150  0.3506  0.1071  0.7249
 4689SOL     OW18521   5.881   2.671   3.217 -0.3313 -0.5234 -0.6064
 4689SOL    HW218522   5.939   2.710   3.283 -0.7650 -0.3566 -0.3145
 4689SOL    HW318523   5.885   2.730   3.142 -3.0890  1.7132  0.7909
 4689SOL    MW418524   5.889   2.684   3.216 -0.2181  0.1418 -0.2894
 4690SOL     OW18525   2.340   0.572   3.020  0.5064 -0.2356 -0.1883
 4690SOL    HW218526   2.374   0.483   3.021 -0.9076 -0.7992 -0.7934
 4690SOL    HW318527   2.360   0.604   2.932 -0.0010 -0.3674 -0.3542
 4690SOL    MW418528   2.347   0.565   3.009  0.2704 -0.2215 -0.1703
 4691SOL     OW18529   2.243   3.063   5.036  0.1112  0.2234  0.4331
 4691SOL    HW218530   2.181   3.130   5.008  0.9570  0.0658 -2.0111
 4691SOL    HW318531   2.188   2.991   5.066 -0.8860  0.5221 -0.6085
 4691SOL    MW418532   2.228   3.062   5.036  0.2477  0.5007  0.8323
 4692SOL     OW18533   3.341   2.641   6.249 -0.4962 -0.2940 -0.9049
 4692SOL    HW218534   3.416   2.586   6.226 -0.0924  0.7699 -2.3249
 4692SOL    HW318535   3.370   2.692   6.325 -0.3092 -0.9112 -0.5611
 4692SOL    MW418536   3.355   2.641   6.256  0.0674 -0.1444  0.3141
 4693SOL     OW18537   1.501   5.102   0.457  0.4518  0.1770 -0.0875
 4693SOL    HW218538   1.591   5.103   0.426  0.9849 -0.1717  1.3459
 4693SOL    HW318539   1.449   5.080   0.380  1.5350  0.8636 -1.0438
 4693SOL    MW418540   1.506   5.099   0.443 -0.8709 -0.3089  0.0954
 4694SOL     OW18541   6.265   4.227   2.347 -0.2565 -0.4202 -0.0013
 4694SOL    HW218542   6.228   4.142   2.322 -1.5013  0.0607  0.1531
 4694SOL    HW318543   6.235   4.288   2.279 -2.2780  0.5638  1.6875
 4694SOL    MW418544   6.256   4.224   2.335 -0.1802 -0.1373 -0.2219
 4695SOL     OW18545   4.973   5.026   1.732 -0.0047  0.5212  0.1744
 4695SOL    HW218546   4.982   5.079   1.812  2.0838  0.5154 -0.0147
 4695SOL    HW318547   4.991   4.937   1.761 -2.7239 -0.0886  0.3268
 4695SOL    MW418548   4.976   5.022   1.747 -0.0262 -0.2530  0.2390
 4696SOL     OW18549   3.495   3.517   4.583 -0.4041 -0.4938 -0.0190
 4696SOL    HW218550   3.564   3.457   4.612  0.6904  0.4761 -0.5131
 4696SOL    HW318551   3.463   3.558   4.662  0.0291 -0.5024  0.1641
 4696SOL    MW418552   3.500   3.514   4.597  0.5713  0.1328  0.3315
 4697SOL     OW18553   3.556   2.942   3.578 -0.5038  0.5111 -0.9281
 4697SOL    HW218554   3.587   2.990   3.501 -0.3252  0.5233 -0.8496
 4697SOL    HW318555   3.618   2.868   3.586  0.7404  1.6378  0.4160
 4697SOL    MW418556   3.569   2.938   3.569  0.0588 -0.2328  0.2451
 4698SOL     OW18557   3.305   4.078   0.936  0.2411 -0.0434  0.5131
 4698SOL    HW218558   3.338   4.167   0.920 -1.8989  0.5211 -1.1224
 4698SOL    HW318559   3.233   4.089   0.997 -0.9276 -0.4388 -0.7398
 4698SOL    MW418560   3.300   4.091   0.942  0.6818  0.0084  0.2745
 4699SOL     OW18561   0.205   5.467   4.506  0.3301 -0.6772 -0.3745
 4699SOL    HW218562   0.177   5.470   4.414  1.0604 -2.0803 -0.6714
 4699SOL    HW318563   0.144   5.526   4.551 -1.7074 -1.9198 -1.3290
 4699SOL    MW418564   0.193   5.475   4.500  0.0728 -0.4283 -0.0820
 4700SOL     OW18565   6.399   5.076   3.061  0.0766  0.3575 -0.0231
 4700SOL    HW218566   6.313   5.094   3.023 -0.0672 -0.0665  0.0863
 4700SOL    HW318567   6.448   5.035   2.990 -0.0254  0.0215  0.0976
 4700SOL    MW418568   6.394   5.073   3.047 -0.0786  0.1836 -0.3839
 4701SOL     OW18569   4.815   1.232   2.488  0.0199  0.0445  0.0521
 4701SOL    HW218570   4.721   1.215   2.496  0.2798 -1.3898  0.4167
 4701SOL    HW318571   4.844   1.249   2.577  0.2476 -0.4166  0.0708
 4701SOL    MW418572   4.806   1.232   2.501  0.0651 -0.0715 -0.1630
 4702SOL     OW18573   5.294   5.122   6.161 -0.3317 -0.1565 -0.2687
 4702SOL    HW218574   5.320   5.164   6.243  0.0870 -0.4920 -0.2279
 4702SOL    HW318575   5.238   5.187   6.118 -1.4976 -0.4204  0.7963
 4702SOL    MW418576   5.290   5.136   6.166 -0.1379 -0.0779 -0.3181
 4703SOL     OW18577   2.850   5.004   5.803 -0.1260 -0.2645 -0.0797
 4703SOL    HW218578   2.796   5.068   5.850  1.7631  0.2520  1.4994
 4703SOL    HW318579   2.855   5.039   5.714 -0.3886  0.9883  0.3640
 4703SOL    MW418580   2.843   5.017   5.797  0.4150  0.5786  0.5090
 4704SOL     OW18581   1.795   6.061   4.266 -0.7481 -0.3742  0.0907
 4704SOL    HW218582   1.867   6.000   4.254  0.0821  0.5391  0.3389
 4704SOL    HW318583   1.725   6.026   4.211 -0.4722 -1.8189  0.6213
 4704SOL    MW418584   1.795   6.049   4.257  0.2730  0.4135  0.3010
 4705SOL     OW18585   0.171   1.470   2.368 -0.2318 -0.0948 -0.1883
 4705SOL    HW218586   0.218   1.552   2.353 -1.0626  0.6190  0.9766
 4705SOL    HW318587   0.239   1.403   2.373  0.4873  0.5878 -0.6966
 4705SOL    MW418588   0.186   1.472   2.367 -0.3095 -0.5408 -0.5496
 4706SOL     OW18589   1.078   1.964   4.457 -0.2638  0.0517  0.3426
 4706SOL    HW218590   1.018   1.975   4.383 -1.8857 -0.7848  1.4697
 4706SOL    HW318591   1.044   2.021   4.525  0.8929  0.4039  0.6418
 4706SOL    MW418592   1.066   1.973   4.456  0.0518  0.4605 -0.1211
 4707SOL     OW18593   5.517   2.973   5.674  0.1416  0.3512 -0.2461
 4707SOL    HW218594   5.530   2.945   5.583 -2.0095  0.6360 -0.7104
 4707SOL    HW318595   5.426   3.002   5.677 -0.4966 -1.5411  2.4934
 4707SOL    MW418596   5.507   2.973   5.662 -0.1847  0.5218 -0.7821
 4708SOL     OW18597   5.638   1.115   2.715 -0.6344  0.0030 -0.4831
 4708SOL    HW218598   5.652   1.043   2.777 -2.5604 -0.5104 -0.5687
 4708SOL    HW318599   5.675   1.082   2.633 -0.3467 -0.3732 -0.2069
 4708SOL    MW418600   5.645   1.101   2.712 -0.4267 -0.0235 -0.1785
 4709SOL     OW18601   1.337   3.978   5.090  0.4685  0.0768  0.0088
 4709SOL    HW218602   1.274   3.993   5.019 -0.0493 -0.2612  0.3860
 4709SOL    HW318603   1.373   4.064   5.110  1.5881  0.0165 -1.5318
 4709SOL    MW418604   1.334   3.991   5.083  0.6316 -0.6060 -0.0730
 4710SOL     OW18605   0.209   0.401   5.464  0.2981  0.3419 -0.3175
 4710SOL    HW218606   0.138   0.404   5.528  1.1011 -0.0144  0.5997
 4710SOL    HW318607   0.164   0.406   5.379 -0.7545  1.1602  0.2606
 4710SOL    MW418608   0.194   0.402   5.461 -0.2125 -0.0615  0.0866
 4711SOL     OW18609   5.767   0.578   3.735  0.0570 -0.5462 -0.1905
 4711SOL    HW218610   5.804   0.591   3.823 -0.6492  1.2699 -0.0992
 4711SOL    HW318611   5.697   0.514   3.748  0.8469 -1.3373  0.2909
 4711SOL    MW418612   5.762   0.571   3.748 -0.4280  0.0787  0.3370
 4712SOL     OW18613   3.980   1.486   6.091  0.1926 -0.1802  0.4093
 4712SOL    HW218614   4.010   1.577   6.088  1.4897 -0.5950 -0.2043
 4712SOL    HW318615   4.060   1.434   6.079 -0.4035 -1.4265  1.5967
 4712SOL    MW418616   3.995   1.491   6.089  0.0384  0.0420 -0.2107
 4713SOL     OW18617   5.049   2.039   1.465  0.3745  0.1802 -0.8129
 4713SOL    HW218618   5.030   1.946   1.451  1.2227 -0.8450  3.3833
 4713SOL    HW318619   4.963   2.079   1.480  0.1391 -0.3533 -0.7135
 4713SOL    MW418620   5.035   2.032   1.465 -0.3227 -0.6427  0.3521
 4714SOL     OW18621   5.502   3.661   0.690 -0.0127  0.1113  0.1739
 4714SOL    HW218622   5.445   3.585   0.702  0.2282  0.0789  1.1990
 4714SOL    HW318623   5.457   3.732   0.736  0.3351  0.3049  0.2153
 4714SOL    MW418624   5.489   3.660   0.697  0.3510 -0.4232  0.1542
 4715SOL     OW18625   1.614   2.099   3.186 -0.3108  0.1674 -0.3634
 4715SOL    HW218626   1.620   2.005   3.167 -1.5159  0.0222 -0.0894
 4715SOL    HW318627   1.666   2.141   3.116 -1.1573 -0.5966 -1.4835
 4715SOL    MW418628   1.622   2.092   3.174 -0.0370  0.6582  0.4112
 4716SOL     OW18629   2.440   2.123   1.517  0.2926  0.2345 -0.2352
 4716SOL    HW218630   2.512   2.111   1.578  0.1625  0.9500  0.0724
 4716SOL    HW318631   2.415   2.034   1.491  1.3276 -0.0158 -0.4107
 4716SOL    MW418632   2.446   2.110   1.522 -0.3576 -0.3490 -0.0362
 4717SOL     OW18633   2.910   1.827   0.147 -0.1262  0.4554 -0.4733
 4717SOL    HW218634   2.960   1.909   0.158 -1.6388  1.4280 -0.5349
 4717SOL    HW318635   2.964   1.761   0.189  1.2937  1.4157 -0.6735
 4717SOL    MW418636   2.924   1.829   0.154 -0.0249 -0.2738  0.0367
 4718SOL     OW18637   2.188   2.127   2.138  0.1252  0.3708 -0.5633
 4718SOL    HW218638   2.165   2.122   2.046 -0.3160 -1.1417 -0.4015
 4718SOL    HW318639   2.108   2.101   2.184  0.3807  0.9685  0.2398
 4718SOL    MW418640   2.175   2.123   2.132 -0.1924 -0.1171 -0.2265
 4719SOL     OW18641   2.854   4.839   2.542 -0.2952  0.4974 -0.4818
 4719SOL    HW218642   2.925   4.776   2.548 -0.6314  0.2423  1.4363
 4719SOL    HW318643   2.779   4.788   2.511 -0.1962  0.3053 -0.4022
 4719SOL    MW418644   2.853   4.824   2.538  0.3310 -0.1552 -0.2910
 4720SOL     OW18645   0.736   5.573   5.255 -0.3437 -0.0603 -0.3879
 4720SOL    HW218646   0.669   5.533   5.199 -1.4431  1.4940 -0.2362
 4720SOL    HW318647   0.697   5.574   5.342  0.2326  0.0706 -0.1324
 4720SOL    MW418648   0.722   5.568   5.259 -0.4118 -0.0247 -0.5533
 4721SOL     OW18649   3.160   4.298   3.418  0.0108  0.2876  0.5052
 4721SOL    HW218650   3.124   4.292   3.329  1.7656 -0.3866 -0.2179
 4721SOL    HW318651   3.119   4.376   3.456 -2.6672 -0.8096  0.0358
 4721SOL    MW418652   3.150   4.308   3.411  0.1913 -0.5058 -0.0583
 4722SOL     OW18653   2.346   3.678   5.300 -0.1003  0.0175 -0.1670
 4722SOL    HW218654   2.376   3.718   5.381  0.9715 -1.4771  0.2257
 4722SOL    HW318655   2.414   3.700   5.236 -0.5870  0.6015 -0.4860
 4722SOL    MW418656   2.359   3.686   5.302  0.0060 -0.3077 -0.2095
 4723SOL     OW18657   5.136   4.419   4.925 -0.0368  0.6464 -0.0975
 4723SOL    HW218658   5.127   4.326   4.948 -1.2855  0.4979 -1.0985
 4723SOL    HW318659   5.206   4.451   4.982 -1.6234 -0.1763  2.4757
 4723SOL    MW418660   5.144   4.411   4.936  0.0259 -0.0143  0.3909
 4724SOL     OW18661   5.637   3.749   5.074 -0.4614  0.3093  0.5024
 4724SOL    HW218662   5.557   3.771   5.121  0.1931  0.9050  1.3542
 4724SOL    HW318663   5.640   3.811   5.001 -1.2864 -0.3844 -0.1654
 4724SOL    MW418664   5.627   3.760   5.070  0.4558  0.5072 -0.2885
 4725SOL     OW18665   4.115   2.870   3.565  0.0795 -0.0175 -0.0018
 4725SOL    HW218666   4.091   2.848   3.475 -1.3806  1.4832 -0.0397
 4725SOL    HW318667   4.054   2.940   3.590  2.0660  1.4056  1.2778
 4725SOL    MW418668   4.104   2.877   3.557  0.4478  0.1641 -0.1830
 4726SOL     OW18669   3.519   5.199   3.640 -0.2364  0.3078 -0.0460
 4726SOL    HW218670   3.613   5.217   3.630 -0.2405  0.2099 -0.2675
 4726SOL    HW318671   3.508   5.112   3.603 -0.4291  0.3490 -0.0846
 4726SOL    MW418672   3.530   5.190   3.634 -0.2158 -0.1363  0.0715
 4727SOL     OW18673   2.681   4.768   3.242  0.1859  0.0291 -0.0265
 4727SOL    HW218674   2.667   4.758   3.148 -0.5235  0.1084  0.0663
 4727SOL    HW318675   2.742   4.698   3.265  1.1844  0.6368 -0.7211
 4727SOL    MW418676   2.687   4.757   3.233  0.5509  0.7781  0.1013
 4728SOL     OW18677   1.677   6.109   5.070 -0.4622  0.2382  0.4680
 4728SOL    HW218678   1.667   6.086   5.162  3.3544 -0.3933  0.9115
 4728SOL    HW318679   1.722   6.033   5.031  0.9172  1.7610 -1.0945
 4728SOL    MW418680   1.682   6.096   5.077  0.1464 -0.4413 -0.2720
 4729SOL     OW18681   5.402   1.132   4.963 -0.2462  0.1398 -0.0041
 4729SOL    HW218682   5.479   1.139   5.020  0.5882 -0.3948 -1.0183
 4729SOL    HW318683   5.422   1.189   4.889 -0.7013 -0.2113 -0.4074
 4729SOL    MW418684   5.415   1.140   4.960 -0.2921  0.2223 -0.2385
 4730SOL     OW18685   4.311   0.503   4.239 -0.2649  0.4493  0.4822
 4730SOL    HW218686   4.258   0.473   4.166 -0.6241 -1.1689  1.3437
 4730SOL    HW318687   4.275   0.589   4.262 -0.2941  0.8744 -1.0488
 4730SOL    MW418688   4.299   0.511   4.233  0.1944 -0.2417 -0.1553
 4731SOL     OW18689   1.755   3.893   6.183 -0.2460 -0.8895  0.2732
 4731SOL    HW218690   1.756   3.798   6.173 -1.2070 -0.7547 -1.5746
 4731SOL    HW318691   1.662   3.916   6.193 -0.1756 -0.0631 -0.6990
 4731SOL    MW418692   1.743   3.884   6.183 -0.0132 -0.5328  0.6532
 4732SOL     OW18693   4.598   6.211   1.840 -0.4007  0.4427 -0.3924
 4732SOL    HW218694   4.680   6.168   1.815  0.3609  1.7778 -0.2989
 4732SOL    HW318695   4.549   6.220   1.758 -0.9769 -1.3327 -0.2909
 4732SOL    MW418696   4.602   6.206   1.826 -0.4986 -0.3289 -0.5197
 4733SOL     OW18697   2.031   2.545   1.681  0.7091  0.2220 -0.0719
 4733SOL    HW218698   1.939   2.520   1.671 -0.1267  3.1706 -0.5129
 4733SOL    HW318699   2.057   2.575   1.594  0.5947  3.7920  0.9740
 4733SOL    MW418700   2.023   2.545   1.668  0.1709 -0.4331  0.4660
 4734SOL     OW18701   0.521   4.117   0.164 -0.2094 -0.2891 -0.1485
 4734SOL    HW218702   0.614   4.112   0.139  0.2292 -0.2252  1.3591
 4734SOL    HW318703   0.479   4.162   0.091  0.9199 -0.4571 -0.9315
 4734SOL    MW418704   0.528   4.122   0.151  0.6874 -0.3346 -0.4181
 4735SOL     OW18705   1.657   1.038   4.880 -0.5922 -0.0923 -0.2841
 4735SOL    HW218706   1.656   1.105   4.813 -2.8026 -0.3643 -0.5872
 4735SOL    HW318707   1.565   1.020   4.898 -0.1231  0.0230  2.8856
 4735SOL    MW418708   1.645   1.044   4.874  0.0833  0.2386 -0.0813
 4736SOL     OW18709   0.680   5.931   3.297  1.1039  0.2175 -0.4306
 4736SOL    HW218710   0.688   5.883   3.380  2.5819  1.0628 -0.0545
 4736SOL    HW318711   0.603   5.987   3.309  1.3155  0.3430  0.3798
 4736SOL    MW418712   0.671   5.932   3.310  0.4929 -0.4325 -0.2145
 4737SOL     OW18713   6.021   0.991   5.650 -0.3766  0.1541 -0.1765
 4737SOL    HW218714   5.995   1.076   5.616  0.4427  0.9304  1.0496
 4737SOL    HW318715   6.116   0.989   5.641 -0.4536 -1.0017 -0.9804
 4737SOL    MW418716   6.030   1.002   5.644 -0.9697 -0.2622 -0.1333
 4738SOL     OW18717   3.003   5.698   5.732  0.0442 -0.2920 -0.4738
 4738SOL    HW218718   3.088   5.713   5.773  0.6635  0.1582 -1.8870
 4738SOL    HW318719   3.020   5.637   5.661 -0.5832  0.7148 -1.5222
 4738SOL    MW418720   3.016   5.692   5.728 -0.0127  0.1256  0.4289
 4739SOL     OW18721   3.768   4.201   1.803 -0.6695  0.3724  0.1622
 4739SOL    HW218722   3.806   4.281   1.767 -1.4438  0.8982  0.4843
 4739SOL    HW318723   3.813   4.189   1.887 -0.6735  0.5731  0.1937
 4739SOL    MW418724   3.779   4.210   1.809  0.5875  0.2486 -0.4025
 4740SOL     OW18725   4.237   0.398   5.150 -0.2500 -0.1442  0.0076
 4740SOL    HW218726   4.161   0.448   5.121  0.7179  0.3022 -1.9570
 4740SOL    HW318727   4.201   0.317   5.185 -1.6267 -0.4869 -1.9983
 4740SOL    MW418728   4.222   0.394   5.151  0.2245  0.5434  0.0099
 4741SOL     OW18729   3.159   0.326   5.111  0.4555  0.0554 -0.2445
 4741SOL    HW218730   3.194   0.414   5.124 -0.0887  0.2415  0.0384
 4741SOL    HW318731   3.208   0.290   5.037  1.8773 -0.0561  0.7251
 4741SOL    MW418732   3.170   0.333   5.103 -0.2379  0.3336 -0.2263
 4742SOL     OW18733   0.903   1.397   6.055 -0.5250 -0.0397 -0.1633
 4742SOL    HW218734   0.832   1.353   6.102  0.7346  0.6948  2.5888
 4742SOL    HW318735   0.892   1.490   6.076  0.9562  0.1436 -0.0777
 4742SOL    MW418736   0.892   1.404   6.064  0.0240 -0.5064 -0.2035
 4743SOL     OW18737   1.108   5.944   5.432  0.0151  0.2137 -0.3343
 4743SOL    HW218738   1.057   5.934   5.351 -1.8134 -1.3348  0.9083
 4743SOL    HW318739   1.064   6.015   5.478 -1.3994 -1.3648  0.9064
 4743SOL    MW418740   1.095   5.952   5.427 -0.1761  0.2972  0.7708
 4744SOL     OW18741   3.502   0.786   0.315  0.2534 -0.3484  0.2492
 4744SOL    HW218742   3.504   0.703   0.361 -0.2487  0.3879  1.6493
 4744SOL    HW318743   3.580   0.833   0.347 -0.4898  0.4504  0.9231
 4744SOL    MW418744   3.513   0.781   0.325 -0.4580 -0.1071 -0.1192
 4745SOL     OW18745   6.171   1.415   4.850 -0.2460  0.0743 -0.0540
 4745SOL    HW218746   6.156   1.358   4.774  0.2070 -1.3485  0.8855
 4745SOL    HW318747   6.101   1.392   4.911  0.3092  0.0477  0.5897
 4745SOL    MW418748   6.160   1.404   4.848  0.3809 -0.3014 -0.1849
 4746SOL     OW18749   1.992   5.475   1.910 -0.0742 -0.1107 -0.5999
 4746SOL    HW218750   1.987   5.539   1.839  0.9204  0.8929  0.1986
 4746SOL    HW318751   1.904   5.475   1.949 -0.1728  0.5423 -0.8124
 4746SOL    MW418752   1.979   5.483   1.906  0.0384 -0.7681 -0.8337
 4747SOL     OW18753   3.686   0.641   1.984 -0.3230  0.9185  0.0281
 4747SOL    HW218754   3.591   0.651   1.978 -0.2016  1.9198 -0.5680
 4747SOL    HW318755   3.712   0.699   2.056 -0.0667  1.4325 -0.4699
 4747SOL    MW418756   3.677   0.650   1.993  0.3160  0.3684 -0.2404
 4748SOL     OW18757   2.855   1.187   2.260 -0.0779 -0.7158 -0.0065
 4748SOL    HW218758   2.815   1.220   2.341  0.6446 -0.9971  0.4751
 4748SOL    HW318759   2.782   1.183   2.197 -0.4052  0.6998  0.2552
 4748SOL    MW418760   2.840   1.191   2.262  0.0343 -0.0593 -0.4408
 4749SOL     OW18761   0.942   0.697   4.611  0.3630  0.1963  0.0812
 4749SOL    HW218762   0.944   0.783   4.569  1.1367  0.8073  1.3376
 4749SOL    HW318763   0.864   0.699   4.667 -1.3015 -1.0067 -2.0006
 4749SOL    MW418764   0.932   0.708   4.613  0.2770 -0.0341 -0.9755
 4750SOL     OW18765   6.227   2.005   2.200 -0.1904  0.2099 -0.4121
 4750SOL    HW218766   6.139   2.036   2.179  0.2521  1.5756 -0.4032
 4750SOL    HW318767   6.219   1.971   2.289 -0.6982  0.3918 -0.3811
 4750SOL    MW418768   6.214   2.005   2.209  0.0962 -0.5608  0.1657
 4751SOL     OW18769   3.167   5.218   3.299  0.0933 -0.5321 -0.3750
 4751SOL    HW218770   3.260   5.208   3.318  0.2180 -1.6701 -1.4541
 4751SOL    HW318771   3.124   5.155   3.356 -0.0859  0.3860  0.5300
 4751SOL    MW418772   3.174   5.209   3.309 -0.2119  0.0929  0.5329
 4752SOL     OW18773   1.560   5.931   4.784 -0.2454 -0.1891  0.2048
 4752SOL    HW218774   1.486   5.988   4.802 -1.1865 -1.3009 -0.0586
 4752SOL    HW318775   1.634   5.991   4.774 -1.3916  1.0769 -1.0829
 4752SOL    MW418776   1.560   5.947   4.785  0.5396 -0.1374 -0.2843
 4753SOL     OW18777   4.490   1.982   4.928 -0.0822 -0.3308  0.3369
 4753SOL    HW218778   4.513   1.954   5.017 -0.0733  1.2503  0.8754
 4753SOL    HW318779   4.403   1.945   4.913 -1.6743  2.1576  2.4275
 4753SOL    MW418780   4.482   1.974   4.938  0.4417 -0.0001  0.2187
 4754SOL     OW18781   5.787   0.657   4.010 -0.5111  0.4010  0.0549
 4754SOL    HW218782   5.791   0.589   4.078  2.3438 -1.9077 -2.1252
 4754SOL    HW318783   5.856   0.719   4.035 -1.6507  1.4090  0.8670
 4754SOL    MW418784   5.797   0.656   4.023 -0.1577 -0.2839  0.7273
 4755SOL     OW18785   6.302   3.730   5.665  0.1112 -0.0854  0.2409
 4755SOL    HW218786   6.306   3.816   5.625 -1.1489  0.8640  2.0199
 4755SOL    HW318787   6.230   3.735   5.728 -0.2225 -2.5396  0.1837
 4755SOL    MW418788   6.293   3.742   5.668 -0.0877 -0.4581 -0.2964
 4756SOL     OW18789   4.067   5.986   2.825 -0.3370  0.4313  0.3315
 4756SOL    HW218790   4.055   5.919   2.758 -2.0140  1.8690 -0.9245
 4756SOL    HW318791   4.152   5.967   2.864 -0.6652 -2.2446 -0.1168
 4756SOL    MW418792   4.077   5.975   2.821 -0.6993 -0.3727  0.4239
 4757SOL     OW18793   2.476   3.068   6.245 -0.6608 -0.5267 -0.4651
 4757SOL    HW218794   2.531   3.049   6.169 -0.7412 -1.2579 -0.3538
 4757SOL    HW318795   2.538   3.093   6.314 -0.6985  1.8498 -1.2303
 4757SOL    MW418796   2.492   3.069   6.244  0.0507 -0.6906  0.3488
 4758SOL     OW18797   3.312   2.224   5.179  0.0204 -0.1586 -0.2220
 4758SOL    HW218798   3.233   2.221   5.124  0.3815  1.7297 -0.9190
 4758SOL    HW318799   3.295   2.296   5.240  0.5159 -0.8481  0.7400
 4758SOL    MW418800   3.299   2.233   5.180  0.6640  0.4266 -0.1307
 4759SOL     OW18801   3.516   1.065   0.812  0.1034 -0.4576 -0.0214
 4759SOL    HW218802   3.470   1.148   0.827  2.1098  0.7674 -0.2083
 4759SOL    HW318803   3.552   1.041   0.897  1.9306  0.4529 -0.4770
 4759SOL    MW418804   3.515   1.073   0.825 -0.3031 -0.3108  0.1462
 4760SOL     OW18805   5.845   5.688   0.566  0.3451  0.1070  0.7828
 4760SOL    HW218806   5.834   5.609   0.514 -0.2768  0.1537  0.8330
 4760SOL    HW318807   5.826   5.660   0.656 -0.1737  0.3719  0.7598
 4760SOL    MW418808   5.841   5.674   0.571  0.3721  1.0808 -0.3066
 4761SOL     OW18809   2.207   1.857   3.380  0.4035  0.1295 -0.1145
 4761SOL    HW218810   2.215   1.797   3.306  2.3590 -0.3250  0.3953
 4761SOL    HW318811   2.234   1.805   3.456  1.0831  1.3230  0.4967
 4761SOL    MW418812   2.212   1.843   3.380 -0.4447  0.7365  0.2574
 4762SOL     OW18813   4.685   1.314   2.926  0.1298  0.2744  0.0466
 4762SOL    HW218814   4.757   1.303   2.863 -0.3388 -0.5944 -0.3511
 4762SOL    HW318815   4.632   1.235   2.915 -1.0948  1.0711  0.0719
 4762SOL    MW418816   4.688   1.302   2.916 -0.0713  0.2887  0.7893
 4763SOL     OW18817   6.261   0.347   5.182  1.1735 -0.1898 -0.1640
 4763SOL    HW218818   6.242   0.320   5.272  0.1290 -1.1530 -0.6605
 4763SOL    HW318819   6.199   0.418   5.165  0.6040 -0.7548 -0.4868
 4763SOL    MW418820   6.250   0.353   5.192 -0.8120  0.2735  0.4859
 4764SOL     OW18821   6.339   2.132   5.877  0.0246  0.6706  0.2731
 4764SOL    HW218822   6.305   2.096   5.959  0.4717  1.6060  0.8901
 4764SOL    HW318823   6.313   2.069   5.810 -1.7391  0.6933  0.9000
 4764SOL    MW418824   6.331   2.119   5.879  0.2168  0.4376  0.1571
 4765SOL     OW18825   3.236   2.416   1.305 -0.0954 -0.0029 -0.0632
 4765SOL    HW218826   3.225   2.400   1.398  1.3826  0.7173  0.2617
 4765SOL    HW318827   3.325   2.449   1.296  0.0988 -0.9016 -1.8542
 4765SOL    MW418828   3.246   2.418   1.316 -0.1343  0.3656  0.3028
 4766SOL     OW18829   2.129   3.679   6.416 -0.0640 -0.2160 -0.0598
 4766SOL    HW218830   2.213   3.634   6.408 -0.2216 -0.1724 -3.2737
 4766SOL    HW318831   2.150   3.772   6.404 -0.5481 -0.2409 -1.2918
 4766SOL    MW418832   2.143   3.685   6.413  0.6483 -0.4235 -0.1670
 4767SOL     OW18833   2.492   6.285   3.487 -0.2630 -0.2123  0.3271
 4767SOL    HW218834   2.555   6.345   3.527  0.3612 -0.9484  0.4893
 4767SOL    HW318835   2.515   6.199   3.523  0.2905 -0.9020 -1.5344
 4767SOL    MW418836   2.504   6.282   3.497  0.7787  0.0621 -0.0399
 4768SOL     OW18837   1.722   3.006   5.225  0.3007  1.1112 -0.1331
 4768SOL    HW218838   1.776   3.061   5.282  0.1193  1.4220 -0.2582
 4768SOL    HW318839   1.635   3.045   5.230 -0.1830 -0.0640  0.9633
 4768SOL    MW418840   1.718   3.018   5.233  0.0173 -0.2313  0.0991
 4769SOL     OW18841   4.419   2.183   1.710  0.0945 -0.0816  0.1565
 4769SOL    HW218842   4.446   2.260   1.660  2.7755  0.0879  1.6739
 4769SOL    HW318843   4.454   2.109   1.660  0.3420 -0.0946  0.3481
 4769SOL    MW418844   4.427   2.183   1.697  0.1202 -0.6334 -0.3120
 4770SOL     OW18845   3.734   5.330   5.090 -0.3071  0.0608 -0.1062
 4770SOL    HW218846   3.743   5.242   5.126 -2.2958 -0.0391  0.2678
 4770SOL    HW318847   3.816   5.346   5.043  0.4505 -1.6222  0.5782
 4770SOL    MW418848   3.746   5.321   5.089 -0.0454  0.6710  0.1686
 4771SOL     OW18849   6.088   0.129   3.514 -0.1923 -0.1544 -0.3309
 4771SOL    HW218850   6.150   0.158   3.447 -2.9275 -0.0751 -3.0771
 4771SOL    HW318851   6.095   0.195   3.583  1.3509  0.9340 -1.4408
 4771SOL    MW418852   6.097   0.142   3.514 -0.2782  0.1916  0.0508
 4772SOL     OW18853   1.358   4.524   5.345  0.3682  0.2295 -0.5987
 4772SOL    HW218854   1.288   4.468   5.313 -0.2975  1.5060 -1.4957
 4772SOL    HW318855   1.334   4.544   5.436 -0.7073  1.0191 -1.0329
 4772SOL    MW418856   1.346   4.520   5.353 -0.0976  0.6014  0.1614
 4773SOL     OW18857   0.456   2.416   4.774 -0.2025 -0.1619  0.4092
 4773SOL    HW218858   0.393   2.457   4.714  0.2326  1.3512  0.9200
 4773SOL    HW318859   0.475   2.485   4.838  0.4747 -1.2517  1.4106
 4773SOL    MW418860   0.451   2.431   4.775  0.4634  0.0593  0.2348
 4774SOL     OW18861   2.340   0.767   0.165 -0.2217 -0.1737  0.8272
 4774SOL    HW218862   2.292   0.759   0.247 -1.1122 -0.3865  0.2998
 4774SOL    HW318863   2.303   0.698   0.109  0.5642 -0.2123  0.3439
 4774SOL    MW418864   2.329   0.757   0.169 -0.2975 -0.0743 -0.0027
 4775SOL     OW18865   4.431   4.280   0.032  1.2939  0.0961  0.7349
 4775SOL    HW218866   4.473   4.194   0.037  0.6277 -0.3138 -0.3539
 4775SOL    HW318867   4.362   4.277   0.098  2.1270  0.3019  1.6331
 4775SOL    MW418868   4.427   4.268   0.041 -0.1527  0.4730  0.3886
 4776SOL     OW18869   3.722   5.627   0.131 -0.2000 -0.3944 -0.2240
 4776SOL    HW218870   3.741   5.558   0.195  0.8721  0.0374 -0.0550
 4776SOL    HW318871   3.630   5.614   0.108 -0.3346 -1.1480  0.6877
 4776SOL    MW418872   3.712   5.616   0.136 -0.3118 -0.2686  0.0726
 4777SOL     OW18873   5.348   1.604   4.124  0.2683  0.0982 -0.4269
 4777SOL    HW218874   5.284   1.664   4.164 -0.0343 -0.8687  0.5898
 4777SOL    HW318875   5.427   1.615   4.178  0.9359  1.1424 -1.5564
 4777SOL    MW418876   5.350   1.614   4.137 -0.3378  0.1503 -0.2521
 4778SOL     OW18877   2.428   2.396   5.304  0.1555 -0.3015  0.1409
 4778SOL    HW218878   2.459   2.337   5.234  0.8730 -1.6950  1.5606
 4778SOL    HW318879   2.438   2.484   5.267  1.0610 -0.9675 -1.3060
 4778SOL    MW418880   2.434   2.400   5.290  0.4707  0.3914 -0.5988
 4779SOL     OW18881   3.671   5.215   4.531 -0.1870  0.4410 -0.2908
 4779SOL    HW218882   3.679   5.126   4.498 -2.3129  0.0041  0.2084
 4779SOL    HW318883   3.736   5.221   4.601  0.1023 -0.6364 -0.4530
 4779SOL    MW418884   3.681   5.204   4.536 -0.5796  0.8425  0.1465
 4780SOL     OW18885   1.613   5.807   5.035  0.0907 -0.3429  0.2209
 4780SOL    HW218886   1.600   5.847   4.949  1.9936  1.4919  0.7017
 4780SOL    HW318887   1.525   5.784   5.064 -0.7484  0.3781 -1.5727
 4780SOL    MW418888   1.600   5.809   5.027 -0.0523 -0.5598  0.4338
 4781SOL     OW18889   5.360   2.092   4.421  0.2462  0.0856 -0.1390
 4781SOL    HW218890   5.311   2.101   4.503  3.0029  2.5594  1.4459
 4781SOL    HW318891   5.386   2.000   4.419 -1.7017 -0.5440  0.5507
 4781SOL    MW418892   5.357   2.081   4.432 -0.5482  0.7535  0.2820
 4782SOL     OW18893   0.273   2.777   2.093  1.0124  0.3219 -0.4513
 4782SOL    HW218894   0.185   2.810   2.077  0.5133 -0.9673 -0.5419
 4782SOL    HW318895   0.311   2.836   2.157 -0.3498  0.2238  0.4692
 4782SOL    MW418896   0.267   2.789   2.099  0.1064  0.2890  0.0539
 4783SOL     OW18897   3.320   1.010   3.977  0.1758  0.6303 -0.4222
 4783SOL    HW218898   3.237   1.007   3.930  0.6505  3.5649 -1.7076
 4783SOL    HW318899   3.376   0.948   3.931 -1.8441 -3.5066  2.0987
 4783SOL    MW418900   3.316   1.002   3.965  0.6213  0.7185 -0.3186
 4784SOL     OW18901   4.534   4.300   6.125 -0.3916 -0.4503  0.4327
 4784SOL    HW218902   4.442   4.304   6.149 -0.4381  1.0149  0.1182
 4784SOL    HW318903   4.556   4.389   6.098  1.4655 -0.4319  1.7904
 4784SOL    MW418904   4.525   4.312   6.125 -0.6385 -0.3491  0.4919
 4785SOL     OW18905   0.874   0.752   0.315  0.0421 -0.1949 -0.2255
 4785SOL    HW218906   0.870   0.839   0.277 -0.2334  0.6896  1.7026
 4785SOL    HW318907   0.951   0.711   0.276 -0.2328  0.6278 -1.6809
 4785SOL    MW418908   0.883   0.758   0.305 -0.3353  0.1677  0.2081
 4786SOL     OW18909   3.666   1.243   4.045 -0.0850 -0.1421  0.0060
 4786SOL    HW218910   3.752   1.280   4.025  0.8410 -0.9410  2.1725
 4786SOL    HW318911   3.653   1.176   3.977  0.8000  0.2851 -0.6094
 4786SOL    MW418912   3.676   1.239   4.033  0.2918  0.2850  0.1358
 4787SOL     OW18913   4.471   1.237   0.357 -0.5795 -0.6207 -0.2098
 4787SOL    HW218914   4.557   1.244   0.315 -0.4946  0.0607  0.0484
 4787SOL    HW318915   4.474   1.154   0.404  0.1169 -0.3906  0.1697
 4787SOL    MW418916   4.483   1.227   0.358 -0.3641  0.1981 -0.4685
 4788SOL     OW18917   0.039   2.844   5.308  0.2325  0.1084 -0.4728
 4788SOL    HW218918   0.110   2.901   5.277  0.1922  0.2978 -0.2207
 4788SOL    HW318919   0.021   2.786   5.234 -0.2539  0.9303 -1.0234
 4788SOL    MW418920   0.046   2.844   5.294  0.5916  0.3229 -0.1704
 4789SOL     OW18921   6.393   3.239   4.243 -0.5339  0.1988 -0.1055
 4789SOL    HW218922   6.342   3.158   4.246 -0.0584 -0.1090 -0.1915
 4789SOL    HW318923   6.406   3.262   4.335 -0.2354 -0.1061 -0.0674
 4789SOL    MW418924   6.388   3.231   4.255  0.4126  0.1176 -0.3830
 4790SOL     OW18925   0.392   3.514   1.721 -0.1592 -0.4129 -0.8075
 4790SOL    HW218926   0.333   3.447   1.687  0.3341 -0.3903 -1.7475
 4790SOL    HW318927   0.371   3.593   1.670 -1.3078  0.4053  0.8501
 4790SOL    MW418928   0.382   3.516   1.710 -0.1672 -0.0118  0.0291
 4791SOL     OW18929   3.161   4.822   4.218  1.2295 -0.2652  0.1864
 4791SOL    HW218930   3.253   4.825   4.191  1.4380 -0.0004  0.8898
 4791SOL    HW318931   3.158   4.876   4.297  0.3670  0.1498 -0.1124
 4791SOL    MW418932   3.173   4.830   4.225 -0.1165 -0.0700 -0.1192
 4792SOL     OW18933   6.411   4.489   2.135 -0.0802 -0.0205  0.2922
 4792SOL    HW218934   6.465   4.423   2.178  0.6499  1.1495  1.2336
 4792SOL    HW318935   6.458   4.510   2.054 -0.4183 -0.7819 -0.1076
 4792SOL    MW418936   6.424   4.483   2.130  0.1683 -0.5286  0.1566
 4793SOL     OW18937   6.236   3.042   6.019 -0.2695  0.2829  0.3984
 4793SOL    HW218938   6.168   3.057   5.953  1.4540  0.1140 -1.5391
 4793SOL    HW318939   6.312   3.091   5.986  1.0983 -1.0079  1.4859
 4793SOL    MW418940   6.237   3.050   6.006 -0.2513 -0.7015 -0.6651
 4794SOL     OW18941   5.891   1.672   5.794  0.1609  0.0557  0.4196
 4794SOL    HW218942   5.890   1.707   5.883  0.9288 -0.6183  0.7104
 4794SOL    HW318943   5.956   1.601   5.797  0.8382  0.5908 -0.9037
 4794SOL    MW418944   5.899   1.667   5.806 -0.0136  0.2679  0.0072
 4795SOL     OW18945   3.472   2.888   4.032 -0.0722 -0.4634  0.4536
 4795SOL    HW218946   3.438   2.886   3.943  1.0508  0.5523 -0.0299
 4795SOL    HW318947   3.398   2.914   4.087 -0.5687 -0.3020 -0.2883
 4795SOL    MW418948   3.458   2.891   4.028  0.3037 -0.1000 -0.4647
 4796SOL     OW18949   5.038   5.028   3.492  0.2676  0.3869 -0.0528
 4796SOL    HW218950   4.989   5.106   3.468  0.0659  0.6474  1.1079
 4796SOL    HW318951   5.025   4.967   3.420 -1.3662  0.6400 -0.0053
 4796SOL    MW418952   5.030   5.030   3.480  0.7444 -0.1593 -0.0144
 4797SOL     OW18953   5.607   5.334   0.650  0.2379  0.3365  0.4289
 4797SOL    HW218954   5.685   5.278   0.654 -1.8699 -2.9008  0.2340
 4797SOL    HW318955   5.572   5.334   0.739 -1.1863 -0.9859 -0.0727
 4797SOL    MW418956   5.613   5.327   0.662  0.1612  0.2719  0.1119
 4798SOL     OW18957   2.645   4.760   2.171  0.2189  0.1996  0.5980
 4798SOL    HW218958   2.634   4.756   2.076  1.0439 -0.6246  0.5310
 4798SOL    HW318959   2.678   4.849   2.187  0.1235  0.3268  0.1143
 4798SOL    MW418960   2.648   4.771   2.160  0.9449 -0.5388  0.3903
 4799SOL     OW18961   2.135   4.508   5.994  0.2667  0.1994  0.6196
 4799SOL    HW218962   2.166   4.595   6.019 -2.2601  1.0628  1.0009
 4799SOL    HW318963   2.041   4.519   5.979  0.2716 -1.9487 -1.7542
 4799SOL    MW418964   2.127   4.521   5.995 -0.4488  0.6832 -0.0876
 4800SOL     OW18965   6.031   1.638   0.686 -0.1844  0.3233 -0.2911
 4800SOL    HW218966   5.952   1.594   0.655  0.0455 -0.1146 -0.2556
 4800SOL    HW318967   6.043   1.711   0.625 -0.1334 -0.1143 -0.8123
 4800SOL    MW418968   6.022   1.642   0.674  0.0950 -0.2313  0.3935
 4801SOL     OW18969   2.225   6.317   4.270 -0.3738  0.0695  0.2674
 4801SOL    HW218970   2.283   6.246   4.294  0.2690 -0.2070 -1.9551
 4801SOL    HW318971   2.145   6.274   4.238  0.2849  0.2536 -1.7645
 4801SOL    MW418972   2.222   6.302   4.269 -0.2815 -0.1409  0.2737
 4802SOL     OW18973   0.440   5.221   1.682  0.1649 -0.3765 -0.2039
 4802SOL    HW218974   0.355   5.185   1.708  0.5203 -0.9195  0.2304
 4802SOL    HW318975   0.468   5.271   1.759  0.4302 -0.5512 -0.1867
 4802SOL    MW418976   0.432   5.223   1.696 -0.3482  0.1336 -0.0227
 4803SOL     OW18977   1.699   4.942   4.111  0.2799 -0.4020  0.4497
 4803SOL    HW218978   1.699   4.912   4.021 -0.1184  2.0352 -0.4403
 4803SOL    HW318979   1.611   4.924   4.143 -0.1783  0.4286 -0.3064
 4803SOL    MW418980   1.688   4.936   4.103 -0.0336  0.0066  0.0203
 4804SOL     OW18981   4.094   0.289   3.866  0.0879 -0.2033  0.8928
 4804SOL    HW218982   4.186   0.269   3.884  0.8523  0.8576 -1.4242
 4804SOL    HW318983   4.097   0.342   3.787 -2.5578 -0.3012  0.6652
 4804SOL    MW418984   4.107   0.293   3.858 -0.0938  0.1335  0.1971
 4805SOL     OW18985   0.149   2.417   3.938 -0.5509 -0.0108 -0.0977
 4805SOL    HW218986   0.139   2.510   3.916  0.8753  0.0044 -0.8197
 4805SOL    HW318987   0.242   2.399   3.921 -0.8081 -1.5661  0.0531
 4805SOL    MW418988   0.160   2.427   3.933  0.0136 -0.2067 -0.3948
 4806SOL     OW18989   3.169   0.632   2.144 -0.6379 -0.1422  0.4517
 4806SOL    HW218990   3.105   0.602   2.079  0.2693 -0.6785 -0.2124
 4806SOL    HW318991   3.249   0.584   2.124  0.7605  2.3259 -0.3732
 4806SOL    MW418992   3.171   0.622   2.133  0.3836 -0.4143 -0.1642
 4807SOL     OW18993   4.843   2.495   0.903  0.4096 -0.3802  0.2207
 4807SOL    HW218994   4.938   2.483   0.915  0.7558 -2.9780 -3.2909
 4807SOL    HW318995   4.805   2.414   0.935 -0.0893 -1.0360 -1.8445
 4807SOL    MW418996   4.851   2.482   0.909 -0.3213 -0.0316 -0.0535
 4808SOL     OW18997   3.138   4.323   6.048  0.4049 -0.5408  0.6478
 4808SOL    HW218998   3.098   4.394   6.099 -0.8314 -0.6004 -0.1876
 4808SOL    HW318999   3.082   4.247   6.064 -0.5736 -0.3370 -1.4696
 4808SOL    MW419000   3.125   4.322   6.057 -0.1545  0.1649  0.2732
 4809SOL     OW19001   6.081   2.359   1.915 -0.1960 -0.2949  0.4236
 4809SOL    HW219002   6.175   2.367   1.932 -0.3001  0.9006  0.5079
 4809SOL    HW319003   6.064   2.422   1.845 -1.1896  0.6177  1.4479
 4809SOL    MW419004   6.091   2.368   1.908  0.0822  0.2281  1.0905
 4810SOL     OW19005   0.246   1.647   0.819 -0.0456 -0.3719 -0.3636
 4810SOL    HW219006   0.178   1.703   0.782 -0.8134 -0.4845  0.8231
 4810SOL    HW319007   0.218   1.631   0.909  1.3393 -0.7787  0.0242
 4810SOL    MW419008   0.234   1.652   0.826 -0.0698 -0.1876 -0.1212
 4811SOL     OW19009   3.214   2.877   2.539  0.0006 -1.0815 -0.2625
 4811SOL    HW219010   3.198   2.971   2.542  0.9051 -0.9216 -0.0144
 4811SOL    HW319011   3.283   2.863   2.604 -1.3625 -2.1792  1.0140
 4811SOL    MW419012   3.221   2.888   2.548 -0.0489 -0.1561  0.4733
 4812SOL     OW19013   2.521   3.984   2.481  0.1659  0.0516 -0.7034
 4812SOL    HW219014   2.482   4.034   2.410  0.5022 -0.0438 -0.9586
 4812SOL    HW319015   2.510   3.893   2.455 -0.9300 -0.0386  0.0173
 4812SOL    MW419016   2.514   3.979   2.468  0.3337  0.3496  0.3674
 4813SOL     OW19017   1.283   4.792   4.925 -0.5642  0.1434  0.2211
 4813SOL    HW219018   1.307   4.774   5.016 -1.7591 -0.2781  0.4639
 4813SOL    HW319019   1.193   4.824   4.929 -0.3517  0.9117 -0.7404
 4813SOL    MW419020   1.274   4.794   4.937  0.3547 -0.1274  0.0962
 4814SOL     OW19021   2.728   4.202   1.151 -0.0748 -0.9727 -0.4744
 4814SOL    HW219022   2.785   4.257   1.206 -1.3081 -1.2325  1.1295
 4814SOL    HW319023   2.642   4.243   1.158 -0.6547 -2.1425 -0.6220
 4814SOL    MW419024   2.724   4.215   1.159  0.0072  0.1715  0.5671
 4815SOL     OW19025   2.010   1.348   4.082 -0.9194 -0.2956  0.5361
 4815SOL    HW219026   2.045   1.298   4.155  0.2782 -0.3744 -0.0669
 4815SOL    HW319027   2.070   1.330   4.009 -0.6910  1.6598  0.1726
 4815SOL    MW419028   2.022   1.339   4.082  0.3619  0.2103  0.4871
 4816SOL     OW19029   0.799   1.835   0.638  0.6177  0.3191  0.6512
 4816SOL    HW219030   0.799   1.770   0.708  0.1834 -0.2424  0.1351
 4816SOL    HW319031   0.753   1.793   0.566  0.6738  1.0576  0.1760
 4816SOL    MW419032   0.793   1.821   0.638  0.3675  0.0654  0.5550
 4817SOL     OW19033   5.713   0.641   5.243  0.2633  0.0641 -0.2464
 4817SOL    HW219034   5.672   0.579   5.183 -1.5984 -0.6580  1.6798
 4817SOL    HW319035   5.706   0.726   5.198 -1.5537 -0.3696 -0.8596
 4817SOL    MW419036   5.707   0.644   5.229 -0.5111 -0.9768  0.3582
 4818SOL     OW19037   5.003   5.110   2.210 -1.4351 -0.3948 -0.0661
 4818SOL    HW219038   5.055   5.162   2.270 -2.3148  2.9187 -1.9513
 4818SOL    HW319039   4.941   5.064   2.266  0.1012 -0.3279  1.7739
 4818SOL    MW419040   5.001   5.110   2.225  0.3554  0.7839 -0.4823
 4819SOL     OW19041   0.551   2.179   2.409 -0.0346  0.2673  0.0601
 4819SOL    HW219042   0.596   2.095   2.404  0.0774  0.3461 -0.3040
 4819SOL    HW319043   0.609   2.234   2.461 -0.0574  0.1514  0.2086
 4819SOL    MW419044   0.565   2.175   2.415 -0.3595 -0.0703  0.3222
 4820SOL     OW19045   6.139   4.934   4.853  0.0705 -0.0861  0.6333
 4820SOL    HW219046   6.213   4.878   4.833  1.0661  1.2462  0.4273
 4820SOL    HW319047   6.070   4.904   4.794  1.2533  0.2608 -1.0005
 4820SOL    MW419048   6.139   4.923   4.842 -0.1834  0.1532 -0.2848
 4821SOL     OW19049   5.043   0.326   3.073  0.4031 -0.4345 -0.0902
 4821SOL    HW219050   5.096   0.331   3.153  0.5149 -1.7089 -0.0599
 4821SOL    HW319051   4.964   0.377   3.094  2.0295  2.4521 -0.5478
 4821SOL    MW419052   5.039   0.333   3.087  0.6088  0.1979 -0.3587
 4822SOL     OW19053   5.810   5.585   0.861  0.0282 -0.0719  0.6931
 4822SOL    HW219054   5.745   5.515   0.859  0.7055 -0.6907 -0.0807
 4822SOL    HW319055   5.768   5.655   0.911 -1.6600 -0.0446 -0.6573
 4822SOL    MW419056   5.796   5.585   0.867 -0.3564  0.4772  0.0726
 4823SOL     OW19057   2.874   0.644   1.794  0.1566  0.6699  0.5017
 4823SOL    HW219058   2.840   0.708   1.858  0.5697  0.3447  1.0550
 4823SOL    HW319059   2.915   0.577   1.848 -0.6242 -0.2771 -0.0519
 4823SOL    MW419060   2.875   0.644   1.810  0.1572  0.1743  0.7125
 4824SOL     OW19061   4.558   3.702   3.878  1.0417  1.2521 -0.1381
 4824SOL    HW219062   4.478   3.676   3.833  0.8129 -0.8811  1.3614
 4824SOL    HW319063   4.608   3.752   3.813 -0.6799  1.0560 -1.6700
 4824SOL    MW419064   4.554   3.705   3.864 -0.4858 -0.1995  0.0808
 4825SOL     OW19065   3.877   6.343   4.592 -0.4873 -0.4257 -0.1435
 4825SOL    HW219066   3.929   6.316   4.668 -0.0205  0.8788  0.0151
 4825SOL    HW319067   3.919   6.422   4.560 -0.6391 -0.9963 -1.8355
 4825SOL    MW419068   3.889   6.350   4.598  0.4221 -0.0099  0.1858
 4826SOL     OW19069   2.948   4.448   6.262  0.2432 -0.1408 -0.0364
 4826SOL    HW219070   2.945   4.362   6.304 -1.0687  0.1569  0.5414
 4826SOL    HW319071   2.975   4.508   6.332 -2.1260  0.3843  0.5114
 4826SOL    MW419072   2.951   4.444   6.277 -0.5640  0.1593  0.3471
 4827SOL     OW19073   0.560   6.461   4.035 -0.2838 -0.2007  0.0904
 4827SOL    HW219074   0.578   6.391   4.097 -0.3838 -1.4475 -1.2372
 4827SOL    HW319075   0.469   6.485   4.053 -0.0147  0.1401  1.0590
 4827SOL    MW419076   0.550   6.455   4.045  0.5095  0.1498 -0.4000
 4828SOL     OW19077   0.113   0.334   5.773  0.1098  0.0902 -0.0743
 4828SOL    HW219078   0.031   0.285   5.778 -1.0773  2.0272  0.4347
 4828SOL    HW319079   0.171   0.292   5.837 -0.4102 -1.3824 -0.5415
 4828SOL    MW419080   0.110   0.322   5.782  0.3650 -0.1965  0.2501
 4829SOL     OW19081   5.648   3.349   4.747 -0.2522 -0.2535  0.6318
 4829SOL    HW219082   5.714   3.315   4.807 -0.6293 -1.2415  0.5068
 4829SOL    HW319083   5.599   3.414   4.798  0.8248  0.5211  0.7135
 4829SOL    MW419084   5.650   3.353   4.761  0.3968 -0.0975  0.2903
 4830SOL     OW19085   1.868   5.191   4.127  0.3795 -0.3520  0.3920
 4830SOL    HW219086   1.798   5.125   4.128  0.7026 -0.7331 -0.6322
 4830SOL    HW319087   1.946   5.143   4.155  0.5093 -0.2683  0.1716
 4830SOL    MW419088   1.869   5.176   4.131  1.0926  0.2628  0.2567
 4831SOL     OW19089   3.953   4.337   2.720  0.6648 -0.3197  0.7832
 4831SOL    HW219090   3.871   4.374   2.688  0.2680 -1.4439  0.4624
 4831SOL    HW319091   4.021   4.387   2.675  0.1237 -1.1229 -1.0294
 4831SOL    MW419092   3.951   4.348   2.710  0.0639 -0.1438 -0.7208
 4832SOL     OW19093   4.401   2.923   3.578 -0.0283  0.0060  0.5600
 4832SOL    HW219094   4.408   2.980   3.655  0.1049 -0.9837  1.3011
 4832SOL    HW319095   4.307   2.907   3.568 -0.5843  3.7363 -2.2458
 4832SOL    MW419096   4.389   2.928   3.587 -0.3242 -0.4454 -0.1657
 4833SOL     OW19097   2.881   3.680   2.753 -0.1946  0.1963 -0.6467
 4833SOL    HW219098   2.789   3.685   2.729 -0.6780 -1.1171  0.7349
 4833SOL    HW319099   2.902   3.767   2.786 -0.7018  0.7358 -1.7242
 4833SOL    MW419100   2.871   3.692   2.754  0.1083 -0.1005 -0.1489
 4834SOL     OW19101   3.112   2.648   0.064 -0.0133  0.1791 -0.7532
 4834SOL    HW219102   3.153   2.699   0.134  1.9804 -1.9558 -0.2473
 4834SOL    HW319103   3.085   2.714  -0.000  1.9683  1.9536  0.1015
 4834SOL    MW419104   3.114   2.664   0.065 -0.7658 -0.2285 -0.6108
 4835SOL     OW19105   2.838   3.043   2.188  0.2423 -0.1471 -0.3497
 4835SOL    HW219106   2.932   3.029   2.175  0.1279 -2.0415  0.4633
 4835SOL    HW319107   2.832   3.086   2.273  0.4145  1.3799 -1.0782
 4835SOL    MW419108   2.850   3.047   2.198 -0.0699 -0.0525  0.1959
 4836SOL     OW19109   3.799   4.828   4.777 -0.0091 -0.0762  0.3336
 4836SOL    HW219110   3.890   4.816   4.805 -0.2722  1.9264  2.4349
 4836SOL    HW319111   3.759   4.742   4.787  1.1407 -0.5058  1.6359
 4836SOL    MW419112   3.806   4.815   4.782  0.4220 -0.0690 -0.3092
 4837SOL     OW19113   5.267   2.653   1.049 -0.3006 -0.8164  0.2498
 4837SOL    HW219114   5.230   2.715   1.112 -1.5862  0.1828 -1.4130
 4837SOL    HW319115   5.314   2.708   0.986  1.3435 -1.8242  0.5475
 4837SOL    MW419116   5.268   2.668   1.049  0.0813  0.0609 -0.4485
 4838SOL     OW19117   5.497   2.831   0.595 -0.2330  0.0352 -0.2455
 4838SOL    HW219118   5.548   2.770   0.541  0.1077  1.4552 -1.5990
 4838SOL    HW319119   5.490   2.910   0.541 -1.0915  1.0207  1.2553
 4838SOL    MW419120   5.503   2.833   0.581  0.4366 -0.0034 -0.2162
 4839SOL     OW19121   1.706   6.142   2.903  0.3899 -0.1810 -0.0780
 4839SOL    HW219122   1.657   6.142   2.985 -1.4138 -0.0840 -1.1010
 4839SOL    HW319123   1.675   6.220   2.856 -0.9695 -1.8386 -2.1237
 4839SOL    MW419124   1.695   6.152   2.908 -0.4005 -0.1167 -0.5966
 4840SOL     OW19125   1.146   6.016   0.789 -0.1968  0.2205 -0.2945
 4840SOL    HW219126   1.150   5.923   0.811  1.2765  0.4009  0.2597
 4840SOL    HW319127   1.073   6.049   0.842  0.1654 -0.3376  0.5725
 4840SOL    MW419128   1.137   6.008   0.798 -0.2347 -0.5769 -0.4007
 4841SOL     OW19129   1.643   4.829   5.293  0.2512  0.3309  0.1528
 4841SOL    HW219130   1.663   4.855   5.383 -0.0664  0.1632  0.2722
 4841SOL    HW319131   1.594   4.902   5.256 -0.2376  0.1035  0.3420
 4841SOL    MW419132   1.639   4.842   5.300 -0.0186 -0.5045  0.3766
 4842SOL     OW19133   0.122   1.909   3.101  0.4270  0.2818 -0.5205
 4842SOL    HW219134   0.138   1.954   3.018 -0.5620  2.4563  0.3985
 4842SOL    HW319135   0.055   1.844   3.080 -1.2581  2.0980 -1.1315
 4842SOL    MW419136   0.115   1.906   3.088 -0.2774  0.0913 -0.5464
 4843SOL     OW19137   4.517   2.941   5.493 -0.1020 -0.5809 -0.0656
 4843SOL    HW219138   4.429   2.918   5.464  0.6892 -2.1419 -1.4150
 4843SOL    HW319139   4.516   3.036   5.502 -1.6397 -0.4785 -1.0221
 4843SOL    MW419140   4.505   2.950   5.490  0.2513 -0.6725  0.2122
 4844SOL     OW19141   5.917   2.105   3.676  0.1264 -0.3979  0.4565
 4844SOL    HW219142   5.949   2.178   3.622 -0.2781  0.1894  0.9949
 4844SOL    HW319143   5.870   2.049   3.615  1.6023 -0.9394 -0.2311
 4844SOL    MW419144   5.915   2.108   3.661 -0.1679  0.4273  0.0334
 4845SOL     OW19145   2.015   5.887   4.122  0.0418  0.0448  0.1309
 4845SOL    HW219146   1.997   5.812   4.065 -1.5114  1.1223 -0.9026
 4845SOL    HW319147   2.104   5.874   4.153  0.1079 -1.7711 -0.7124
 4845SOL    MW419148   2.024   5.875   4.118 -0.3813  0.6510 -0.6667
 4846SOL     OW19149   3.848   5.462   2.286  0.2885 -0.1624  0.0627
 4846SOL    HW219150   3.918   5.462   2.351  1.2323  0.7281 -0.9013
 4846SOL    HW319151   3.818   5.371   2.283  1.0240 -0.4516  0.9022
 4846SOL    MW419152   3.853   5.450   2.294 -0.0184  0.1415  0.2739
 4847SOL     OW19153   0.631   4.187   3.048  0.0755 -0.2611 -0.2025
 4847SOL    HW219154   0.619   4.098   3.016 -0.1955 -0.1954 -0.2887
 4847SOL    HW319155   0.586   4.242   2.984 -1.4824 -0.2221  0.8695
 4847SOL    MW419156   0.623   4.182   3.036 -0.0663 -0.2187  0.2879
 4848SOL     OW19157   4.386   4.713   1.784  0.2835 -0.9707 -0.2300
 4848SOL    HW219158   4.461   4.678   1.735  0.2660  0.5383 -1.4099
 4848SOL    HW319159   4.411   4.703   1.876  2.6069  0.8106 -0.5844
 4848SOL    MW419160   4.399   4.707   1.789  0.3581 -0.0190  0.7073
 4849SOL     OW19161   4.007   4.373   5.750  0.0703 -0.0389 -0.2884
 4849SOL    HW219162   4.033   4.445   5.693  2.9403 -1.2622 -0.6872
 4849SOL    HW319163   3.964   4.311   5.692 -0.0372  0.1892 -0.4541
 4849SOL    MW419164   4.005   4.375   5.735  0.1000  0.0532  0.4032
 4850SOL     OW19165   4.144   0.793   6.179 -0.1342  0.1336  0.1955
 4850SOL    HW219166   4.053   0.792   6.149 -0.4095 -0.9809  1.0035
 4850SOL    HW319167   4.140   0.758   6.268  1.0043  0.7446  0.4984
 4850SOL    MW419168   4.132   0.788   6.186 -0.7640 -0.0438 -0.0186
 4851SOL     OW19169   5.517   0.491   1.126  0.3909  0.2659  0.0801
 4851SOL    HW219170   5.488   0.547   1.198  2.6528  0.2930  1.0378
 4851SOL    HW319171   5.536   0.551   1.055  1.0548  0.5557  0.4939
 4851SOL    MW419172   5.515   0.506   1.126  0.4454  0.1541  0.0195
 4852SOL     OW19173   0.006   4.278   5.603  0.0728 -0.1152  0.4941
 4852SOL    HW219174  -0.044   4.264   5.522  0.2122  1.3734  0.1222
 4852SOL    HW319175   0.071   4.344   5.580  1.7408 -1.4527  1.1802
 4852SOL    MW419176   0.008   4.284   5.589  0.3562 -0.0576  0.2856
 4853SOL     OW19177   0.370   0.834   4.103  0.0839 -0.2496  0.5840
 4853SOL    HW219178   0.375   0.743   4.132 -1.9806 -0.2728  1.0256
 4853SOL    HW319179   0.433   0.840   4.031  1.9557 -1.3823  2.0113
 4853SOL    MW419180   0.379   0.823   4.097  0.2406  0.4433 -0.2930
 4854SOL     OW19181   4.803   2.197   1.514 -0.2568  0.1620 -0.3384
 4854SOL    HW219182   4.736   2.132   1.538  1.9824 -1.8940  0.7417
 4854SOL    HW319183   4.832   2.234   1.597  0.8542  0.0492 -0.6609
 4854SOL    MW419184   4.798   2.193   1.528  0.3237 -0.4729  0.4098
 4855SOL     OW19185   4.881   3.106   6.363  0.0282  0.4405 -0.0235
 4855SOL    HW219186   4.812   3.088   6.299 -0.8896  0.4376  0.9444
 4855SOL    HW319187   4.959   3.067   6.325 -0.9876 -1.7026 -0.0418
 4855SOL    MW419188   4.882   3.099   6.350 -0.1927 -0.1454 -0.2858
 4856SOL     OW19189   5.392   5.334   4.344  0.2437  0.1056  0.0421
 4856SOL    HW219190   5.307   5.325   4.301  0.3389  0.8889 -0.3171
 4856SOL    HW319191   5.377   5.304   4.434 -0.1828 -0.6425 -0.2683
 4856SOL    MW419192   5.379   5.329   4.350  0.1029 -0.0895  0.4995
 4857SOL     OW19193   6.060   3.830   5.105 -0.1872 -0.2451 -0.0251
 4857SOL    HW219194   6.143   3.787   5.087 -0.4515 -1.4253  1.4294
 4857SOL    HW319195   6.038   3.806   5.195 -1.7482  0.6444 -0.1158
 4857SOL    MW419196   6.068   3.821   5.114  0.4919 -0.1966  0.3586
 4858SOL     OW19197   2.189   3.484   1.334  0.3408 -0.1388  0.0142
 4858SOL    HW219198   2.135   3.449   1.263 -1.1422  0.0400  1.0112
 4858SOL    HW319199   2.132   3.483   1.410  1.6262  0.4853  1.0199
 4858SOL    MW419200   2.175   3.479   1.334 -0.4411  0.4911  0.0030
 4859SOL     OW19201   3.223   6.351   1.681 -0.1068 -0.1925 -0.1790
 4859SOL    HW219202   3.301   6.405   1.674 -0.3878  0.2238 -0.1002
 4859SOL    HW319203   3.255   6.268   1.719  0.3147 -0.0784 -0.2800
 4859SOL    MW419204   3.237   6.347   1.685 -1.0218  0.1907 -0.6109
 4860SOL     OW19205   5.871   0.194   1.010  1.1848 -0.5091 -0.6433
 4860SOL    HW219206   5.859   0.269   0.953  0.7057 -1.0867 -1.3197
 4860SOL    HW319207   5.822   0.216   1.090  1.4741  0.1046 -0.6281
 4860SOL    MW419208   5.863   0.207   1.013 -0.1919 -0.5464 -0.5773
 4861SOL     OW19209   5.193   4.121   0.435  0.5595 -0.0924 -0.1724
 4861SOL    HW219210   5.194   4.214   0.459 -1.2002  0.3491 -1.5500
 4861SOL    HW319211   5.285   4.098   0.421  0.9477  1.8591 -1.1917
 4861SOL    MW419212   5.205   4.130   0.436  0.2365  0.0810 -0.3018
 4862SOL     OW19213   3.333   3.747   3.283  0.3938 -0.7101  0.4187
 4862SOL    HW219214   3.370   3.834   3.268  0.5327 -0.9741 -0.8798
 4862SOL    HW319215   3.307   3.748   3.375 -1.4329  1.4114 -0.0286
 4862SOL    MW419216   3.335   3.758   3.293  0.4215  0.0954  0.1742
 4863SOL     OW19217   0.340   6.037   1.514 -0.6247  0.3127  0.7979
 4863SOL    HW219218   0.404   5.969   1.537  0.2969  1.5960  2.2514
 4863SOL    HW319219   0.321   6.021   1.422  1.4520 -0.4194  0.4315
 4863SOL    MW419220   0.346   6.026   1.505 -0.0648 -0.4162  0.3196
 4864SOL     OW19221   2.745   5.882   2.435  0.3230 -0.0962 -0.0896
 4864SOL    HW219222   2.671   5.830   2.403 -0.2111  0.6078 -0.0035
 4864SOL    HW319223   2.806   5.817   2.470  0.1119 -0.7422 -0.8946
 4864SOL    MW419224   2.743   5.866   2.435  0.3130  0.0437  0.1384
 4865SOL     OW19225   2.499   5.604   4.876  0.3116 -0.1667 -0.4332
 4865SOL    HW219226   2.528   5.604   4.785  0.2605 -2.0947 -0.4709
 4865SOL    HW319227   2.473   5.514   4.893 -0.4781  0.3507  1.2498
 4865SOL    MW419228   2.499   5.592   4.866  0.0396  0.0308  0.8179
 4866SOL     OW19229   5.281   4.777   4.617  0.4021  0.0129  0.2517
 4866SOL    HW219230   5.187   4.766   4.609  0.3855  0.3264  0.0062
 4866SOL    HW319231   5.305   4.722   4.692  0.0350 -0.1122  0.2801
 4866SOL    MW419232   5.272   4.768   4.626  0.2001  0.8073 -0.5551
 4867SOL     OW19233   4.059   1.150   3.314 -0.1894 -0.2661  0.6211
 4867SOL    HW219234   4.058   1.054   3.306  1.0278 -0.2156 -0.3167
 4867SOL    HW319235   4.040   1.182   3.226 -2.6406  0.4025  1.3296
 4867SOL    MW419236   4.057   1.141   3.302 -0.1433 -0.1726 -0.2263
 4868SOL     OW19237   4.206   2.643   5.982  0.2467 -0.0678  0.2229
 4868SOL    HW219238   4.112   2.657   5.986  0.3129  0.2301  1.0141
 4868SOL    HW319239   4.227   2.595   6.063  0.6017 -1.2423 -0.5414
 4868SOL    MW419240   4.196   2.638   5.993  0.8114 -0.0597 -0.4619
 4869SOL     OW19241   4.283   3.549   4.199 -0.8188 -0.2421  0.4639
 4869SOL    HW219242   4.349   3.503   4.148 -1.1539  0.9451 -1.1092
 4869SOL    HW319243   4.327   3.627   4.232 -1.1334 -0.0307  0.3829
 4869SOL    MW419244   4.297   3.553   4.197  0.0581 -0.2412  0.2127
 4870SOL     OW19245   4.139   6.272   1.114  0.4405  0.8544  0.8685
 4870SOL    HW219246   4.143   6.356   1.068 -0.4117  0.7485  0.5922
 4870SOL    HW319247   4.068   6.224   1.071  2.3920 -0.9639 -0.5549
 4870SOL    MW419248   4.130   6.277   1.102 -0.3889 -0.1272 -0.1256
 4871SOL     OW19249   0.028   4.962   2.686 -0.4622  0.2330  0.2152
 4871SOL    HW219250   0.033   5.044   2.638  1.3774 -0.1671 -0.3701
 4871SOL    HW319251   0.077   4.900   2.632  1.6750 -0.2496  2.5461
 4871SOL    MW419252   0.035   4.964   2.673 -0.0643  0.2744  0.1019
 4872SOL     OW19253   1.968   5.265   0.433 -0.3887  0.2474 -0.2139
 4872SOL    HW219254   1.935   5.248   0.522 -0.1792  0.3792 -0.1099
 4872SOL    HW319255   1.915   5.209   0.377 -0.8356  0.4970 -0.0536
 4872SOL    MW419256   1.956   5.255   0.437 -0.8064 -0.0896  0.1930
 4873SOL     OW19257   4.713   5.546   1.767  0.2492 -0.7327  0.9535
 4873SOL    HW219258   4.698   5.640   1.764 -0.9818 -0.9407 -1.2636
 4873SOL    HW319259   4.642   5.512   1.821 -1.1643 -0.6301 -0.7431
 4873SOL    MW419260   4.702   5.554   1.774  0.1767  0.4039 -0.0801
 4874SOL     OW19261   1.448   5.295   6.132 -0.2152  0.4766 -0.3232
 4874SOL    HW219262   1.414   5.270   6.046  0.4461 -1.0627 -0.1754
 4874SOL    HW319263   1.522   5.353   6.113 -1.2853  1.7455 -0.7132
 4874SOL    MW419264   1.453   5.299   6.118  0.5986 -0.3601  0.1658
 4875SOL     OW19265   4.268   4.047   1.058  0.5819  1.0869 -0.4517
 4875SOL    HW219266   4.211   4.068   1.131  1.0801  1.1499 -0.0754
 4875SOL    HW319267   4.356   4.044   1.096  0.7630  0.4285 -0.9101
 4875SOL    MW419268   4.272   4.050   1.072  0.2847  0.3414  0.1422
 4876SOL     OW19269   5.944   3.911   4.070  0.5502 -0.4572  0.0845
 4876SOL    HW219270   5.868   3.921   4.012 -0.1199  0.0507  1.0043
 4876SOL    HW319271   5.916   3.954   4.152  1.7609 -0.4504  0.5054
 4876SOL    MW419272   5.930   3.918   4.073 -0.0916  0.0643 -0.2809
 4877SOL     OW19273   4.312   1.481   0.396 -0.3115  0.6927  0.1241
 4877SOL    HW219274   4.327   1.546   0.328 -0.6577  0.9738  0.3152
 4877SOL    HW319275   4.380   1.415   0.381  0.1945  1.2133  0.0706
 4877SOL    MW419276   4.323   1.481   0.385 -0.2181 -0.0369  0.9533
 4878SOL     OW19277   3.486   6.470   1.735  0.0960 -0.0543 -0.1412
 4878SOL    HW219278   3.554   6.533   1.760 -0.2527  0.1862  0.2129
 4878SOL    HW319279   3.533   6.399   1.693  0.5060  0.4053 -0.4669
 4878SOL    MW419280   3.501   6.469   1.733 -0.3106  0.3877 -0.0959
 4879SOL     OW19281   0.498   2.459   3.920  0.1782  0.0386  0.5970
 4879SOL    HW219282   0.505   2.363   3.921  0.6229  0.0528 -0.0424
 4879SOL    HW319283   0.589   2.489   3.930  0.5786  0.3248 -2.6726
 4879SOL    MW419284   0.511   2.450   3.921  0.3398  0.2777  0.2421
 4880SOL     OW19285   3.863   2.345   0.577 -0.2398 -0.0834 -0.1932
 4880SOL    HW219286   3.813   2.275   0.534  0.4612 -0.4162 -0.4822
 4880SOL    HW319287   3.857   2.419   0.516 -0.2079 -0.1883 -0.3244
 4880SOL    MW419288   3.855   2.345   0.563  0.6168  0.2142  0.2982
 4881SOL     OW19289   1.709   0.711   2.594  0.1782  0.2680  0.2531
 4881SOL    HW219290   1.679   0.650   2.662 -0.2840 -0.0006 -0.1803
 4881SOL    HW319291   1.646   0.784   2.597  1.0359  0.9937  1.1286
 4881SOL    MW419292   1.696   0.713   2.603 -0.4638  0.0947 -0.2543
 4882SOL     OW19293   4.851   5.958   2.052  0.2901  0.1627 -0.1687
 4882SOL    HW219294   4.756   5.968   2.063  0.4425  0.9393  0.5197
 4882SOL    HW319295   4.883   6.046   2.035  1.1979  0.3877  2.2176
 4882SOL    MW419296   4.843   5.971   2.051 -0.1670 -0.2798  0.2111
 4883SOL     OW19297   1.015   2.647   5.515  0.1253 -0.0736 -0.2232
 4883SOL    HW219298   0.932   2.606   5.490  0.8195 -0.3572 -2.1777
 4883SOL    HW319299   1.035   2.707   5.444  0.5525  1.6211  1.2649
 4883SOL    MW419300   1.006   2.649   5.503 -0.3341 -0.6275  0.0195
 4884SOL     OW19301   6.370   4.434   4.712 -0.1019 -0.0503 -0.0751
 4884SOL    HW219302   6.368   4.473   4.624  0.3940 -0.7569 -0.4132
 4884SOL    HW319303   6.287   4.388   4.720 -0.6857  1.0407  0.3210
 4884SOL    MW419304   6.359   4.433   4.701  0.3288  0.0797 -0.1626
 4885SOL     OW19305   0.063   1.125   1.593 -0.4816  0.1127 -0.0815
 4885SOL    HW219306   0.155   1.145   1.574 -0.3912 -0.0152  0.2158
 4885SOL    HW319307   0.025   1.209   1.618  0.0682 -0.1810  1.8704
 4885SOL    MW419308   0.070   1.139   1.594  0.2766  0.3378  0.3003
 4886SOL     OW19309   1.962   5.548   3.128 -0.2325  0.2563  0.3042
 4886SOL    HW219310   2.055   5.546   3.153 -0.1231 -0.3620 -0.1400
 4886SOL    HW319311   1.960   5.509   3.041 -1.0806 -0.9270  0.8246
 4886SOL    MW419312   1.974   5.543   3.120 -0.0514 -0.4680 -0.6031
 4887SOL     OW19313   1.093   5.172   4.874 -0.8988 -0.8306 -0.9460
 4887SOL    HW219314   1.144   5.237   4.826  0.2606 -1.9190 -1.2205
 4887SOL    HW319315   1.018   5.154   4.817 -0.3489 -0.9708 -1.6314
 4887SOL    MW419316   1.090   5.179   4.860  0.2766  0.6885  0.9304
 4888SOL     OW19317   0.238   4.312   5.065 -0.2248 -0.1693 -0.2081
 4888SOL    HW219318   0.151   4.276   5.047 -1.0861  0.6359  1.9880
 4888SOL    HW319319   0.231   4.404   5.040  0.2392 -0.2612 -0.6917
 4888SOL    MW419320   0.225   4.319   5.060 -0.0537  0.1148 -0.4423
 4889SOL     OW19321   1.793   3.176   5.628 -0.1170 -0.2134 -0.4623
 4889SOL    HW219322   1.861   3.152   5.566  0.2984 -3.3374  1.0434
 4889SOL    HW319323   1.804   3.271   5.639  3.1925 -0.3839 -1.1878
 4889SOL    MW419324   1.803   3.186   5.622  0.2371 -0.0495  0.4009
 4890SOL     OW19325   4.850   1.788   4.821 -0.1979  0.4056 -0.2473
 4890SOL    HW219326   4.816   1.726   4.756 -0.9942  0.5387  0.0247
 4890SOL    HW319327   4.828   1.749   4.905 -1.0466  1.2221 -0.0710
 4890SOL    MW419328   4.842   1.775   4.823 -0.2735 -0.6407 -0.1943
 4891SOL     OW19329   0.263   0.769   1.709  0.4221  0.6352  0.1688
 4891SOL    HW219330   0.285   0.676   1.703 -0.7125  0.3228  0.5878
 4891SOL    HW319331   0.168   0.771   1.724  0.2343  1.8912 -0.9106
 4891SOL    MW419332   0.253   0.757   1.710  0.1215  0.0163  0.5366
 4892SOL     OW19333   4.367   5.763   1.678 -0.1197 -0.0151  0.5062
 4892SOL    HW219334   4.327   5.676   1.678  0.7154 -0.4148  1.2548
 4892SOL    HW319335   4.419   5.765   1.597 -1.6653  0.5363 -0.5090
 4892SOL    MW419336   4.369   5.751   1.667 -0.7336  0.5284 -0.1069
 4893SOL     OW19337   2.518   1.945   1.101 -0.6362 -0.4071  0.2542
 4893SOL    HW219338   2.575   1.880   1.141 -1.8215 -0.8438  1.3269
 4893SOL    HW319339   2.468   1.896   1.036 -0.1330 -0.1269 -0.3527
 4893SOL    MW419340   2.519   1.930   1.098 -0.2474 -0.2472 -0.6616
 4894SOL     OW19341   1.345   5.567   6.038  0.2611  0.4609  0.3652
 4894SOL    HW219342   1.278   5.546   5.973 -0.2647  1.6555  0.4966
 4894SOL    HW319343   1.424   5.525   6.004 -0.0975  0.6927 -0.8249
 4894SOL    MW419344   1.347   5.559   6.025  0.1517  0.4634 -0.2384
 4895SOL     OW19345   2.589   4.894   3.661  0.0354 -0.0974 -0.2411
 4895SOL    HW219346   2.526   4.925   3.726  0.1878 -0.1638 -0.0596
 4895SOL    HW319347   2.535   4.868   3.586 -0.0419  1.6955 -0.8722
 4895SOL    MW419348   2.573   4.895   3.660  0.4456  0.4065 -0.0532
 4896SOL     OW19349   1.823   6.429   0.145 -0.2066  0.2874 -0.4231
 4896SOL    HW219350   1.801   6.434   0.238 -0.7460  0.5405 -0.5557
 4896SOL    HW319351   1.846   6.518   0.120 -2.1988  0.6951 -1.0135
 4896SOL    MW419352   1.823   6.441   0.154 -0.2886 -0.1856  0.1917
 4897SOL     OW19353   1.613   2.890   2.831  0.1459 -0.0786 -0.3766
 4897SOL    HW219354   1.624   2.905   2.924 -2.3366  0.2622 -0.0662
 4897SOL    HW319355   1.585   2.799   2.824 -1.1214  0.3012 -0.5962
 4897SOL    MW419356   1.610   2.880   2.842 -0.6074  0.3264  0.1068
 4898SOL     OW19357   4.268   0.361   2.656 -0.2378  0.4850 -0.0432
 4898SOL    HW219358   4.350   0.324   2.624  0.9477  1.4827  1.6713
 4898SOL    HW319359   4.259   0.328   2.745 -0.0295  2.8124  0.9236
 4898SOL    MW419360   4.278   0.352   2.664  0.0804 -0.4409 -0.9560
 4899SOL     OW19361   0.085   4.141   0.708 -0.7615 -0.4048  0.5907
 4899SOL    HW219362   0.096   4.046   0.710 -1.1084 -0.4746 -0.2032
 4899SOL    HW319363   0.173   4.175   0.718 -0.7585 -0.7751  2.0409
 4899SOL    MW419364   0.098   4.133   0.709  0.2192 -0.3614  0.0791
 4900SOL     OW19365   6.188   2.181   0.128  0.2776  0.4645  0.1648
 4900SOL    HW219366   6.108   2.203   0.080  1.1637  1.5002 -0.9142
 4900SOL    HW319367   6.173   2.215   0.216 -0.4314  0.7503 -0.0573
 4900SOL    MW419368   6.175   2.188   0.133 -0.1855  0.0597  0.4396
 4901SOL     OW19369   4.204   2.010   5.694 -0.1520 -0.2404 -0.1912
 4901SOL    HW219370   4.188   2.087   5.640  1.2146  0.4928  0.3990
 4901SOL    HW319371   4.155   2.026   5.775 -1.7871 -1.1071 -0.9714
 4901SOL    MW419372   4.195   2.022   5.698  0.4838 -0.1294  0.2742
 4902SOL     OW19373   2.825   5.404   0.032  0.1559 -0.3231  0.5877
 4902SOL    HW219374   2.841   5.477  -0.027 -0.2213 -1.2658 -0.7399
 4902SOL    HW319375   2.907   5.393   0.079  0.4766  0.4369  0.2198
 4902SOL    MW419376   2.838   5.412   0.030  0.0858  0.7815  0.8540
 4903SOL     OW19377   5.984   3.363   5.930  0.1123  0.3561  0.2608
 4903SOL    HW219378   5.924   3.411   5.988 -0.1129  1.3369 -0.7579
 4903SOL    HW319379   6.070   3.371   5.973 -0.0610  1.0251  0.5033
 4903SOL    MW419380   5.988   3.371   5.944  0.3953  0.4049 -0.3209
 4904SOL     OW19381   3.834   5.106   0.888 -0.6731  0.7130 -0.3403
 4904SOL    HW219382   3.823   5.139   0.798 -1.2077 -0.4954 -0.7411
 4904SOL    HW319383   3.920   5.138   0.914  0.6386 -1.0048 -2.2480
 4904SOL    MW419384   3.844   5.115   0.879 -0.0472 -0.6933 -0.0781
 4905SOL     OW19385   1.779   1.779   5.515  0.9019  0.2184  0.2030
 4905SOL    HW219386   1.690   1.809   5.535  0.0200 -1.5325 -0.8279
 4905SOL    HW319387   1.793   1.705   5.574  0.9820 -0.5860 -0.7873
 4905SOL    MW419388   1.769   1.773   5.525 -0.3634 -0.1617 -0.3386
 4906SOL     OW19389   1.706   4.587   2.129 -0.2127 -0.3500  0.1504
 4906SOL    HW219390   1.727   4.678   2.108  0.2187 -0.5365 -0.2721
 4906SOL    HW319391   1.734   4.576   2.220 -1.9066  0.4154  0.7908
 4906SOL    MW419392   1.713   4.597   2.138  0.1079 -0.0635 -0.3556
 4907SOL     OW19393   1.345   2.515   0.204 -0.9290  0.3295  0.1115
 4907SOL    HW219394   1.298   2.431   0.202 -1.5088  0.6616 -0.6008
 4907SOL    HW319395   1.345   2.545   0.113  1.6970 -0.2045 -0.1225
 4907SOL    MW419396   1.339   2.508   0.192 -0.4095  0.6107 -0.0588
 4908SOL     OW19397   1.336   1.625   3.681 -0.3225  0.5106  0.1035
 4908SOL    HW219398   1.265   1.689   3.680  0.7469  1.7715  1.1352
 4908SOL    HW319399   1.311   1.563   3.750  0.4659  2.0648  1.8547
 4908SOL    MW419400   1.323   1.625   3.690  0.1347  0.0643  0.3925
 4909SOL     OW19401   4.432   5.550   3.664  0.2504  0.5067  0.3768
 4909SOL    HW219402   4.484   5.483   3.619 -0.7417  0.5674 -0.9081
 4909SOL    HW319403   4.429   5.623   3.602  0.4775  1.3720  1.3566
 4909SOL    MW419404   4.439   5.551   3.650  0.0168 -0.5332 -0.2836
 4910SOL     OW19405   3.462   2.196   3.864 -0.6375 -0.3166  0.0142
 4910SOL    HW219406   3.532   2.241   3.817 -1.6433 -0.3348 -1.5552
 4910SOL    HW319407   3.498   2.109   3.882  0.2958  0.1692  0.6357
 4910SOL    MW419408   3.476   2.190   3.860 -0.1969  0.6903 -0.2743
 4911SOL     OW19409   2.548   3.795   5.128 -0.0187  0.1922  0.0740
 4911SOL    HW219410   2.612   3.836   5.186 -0.7566  2.5070 -0.6381
 4911SOL    HW319411   2.595   3.723   5.086  1.3060  0.1844  1.5283
 4911SOL    MW419412   2.563   3.791   5.130 -0.5108  0.1206 -0.1227
 4912SOL     OW19413   0.344   6.166   0.379 -0.4563 -0.2069 -0.1797
 4912SOL    HW219414   0.385   6.081   0.392  1.3771  0.7381  0.4740
 4912SOL    HW319415   0.358   6.214   0.461 -1.1277  0.8601 -0.6539
 4912SOL    MW419416   0.351   6.161   0.391  0.5343  0.4286  0.2367
 4913SOL     OW19417   4.688   0.859   4.271  0.5233 -0.5711 -0.2797
 4913SOL    HW219418   4.610   0.804   4.261 -1.1128  0.0648  5.2737
 4913SOL    HW319419   4.660   0.946   4.243  0.5673 -1.0271 -1.8203
 4913SOL    MW419420   4.674   0.863   4.266 -0.2717  0.1527 -0.0659
 4914SOL     OW19421   2.717   0.422   6.326  0.0325 -0.1236 -0.5233
 4914SOL    HW219422   2.657   0.459   6.262 -0.5441 -1.1154 -0.5898
 4914SOL    HW319423   2.707   0.477   6.403 -0.5158  0.0839 -0.7357
 4914SOL    MW419424   2.708   0.434   6.328 -0.2577 -0.1848 -0.0501
 4915SOL     OW19425   3.004   0.425   0.312 -0.1744  0.8636  0.1245
 4915SOL    HW219426   3.041   0.462   0.232 -0.6860 -0.5054 -0.7881
 4915SOL    HW319427   2.955   0.497   0.352  0.0585  1.5545 -0.8199
 4915SOL    MW419428   3.002   0.439   0.307 -0.5322  0.1143  0.3917
 4916SOL     OW19429   4.125   4.541   4.703 -0.4212 -0.2121  0.5587
 4916SOL    HW219430   4.179   4.464   4.722 -0.6769 -0.1518  1.5664
 4916SOL    HW319431   4.162   4.575   4.622 -0.2390 -1.3333  0.1465
 4916SOL    MW419432   4.137   4.535   4.695 -0.1094  0.5140  0.3610
 4917SOL     OW19433   5.211   3.514   3.889 -0.1665  0.4378  0.3583
 4917SOL    HW219434   5.185   3.454   3.819 -0.2842  1.4763 -0.4994
 4917SOL    HW319435   5.237   3.594   3.844  0.7028  0.7850  1.4490
 4917SOL    MW419436   5.211   3.517   3.874 -0.5507  0.2188  0.5518
 4918SOL     OW19437   4.133   5.092   3.803 -0.0843  0.3167  0.6230
 4918SOL    HW219438   4.125   5.142   3.884 -1.0640 -1.1812  1.5157
 4918SOL    HW319439   4.042   5.084   3.772  0.0863 -0.6271  0.3476
 4918SOL    MW419440   4.120   5.097   3.809 -0.0516 -0.6796  0.4863
 4919SOL     OW19441   6.214   2.794   2.549  0.6556 -0.1435 -0.0452
 4919SOL    HW219442   6.160   2.864   2.585 -0.9149 -0.0690 -2.3268
 4919SOL    HW319443   6.175   2.714   2.585  1.9316  0.0524  1.8998
 4919SOL    MW419444   6.201   2.793   2.558 -0.2727  0.2501 -0.1094
 4920SOL     OW19445   3.730   2.368   4.558  0.0652 -0.1247 -0.2266
 4920SOL    HW219446   3.728   2.376   4.654 -1.2212  1.1481 -0.3117
 4920SOL    HW319447   3.815   2.330   4.538  0.6223  0.1999  1.3905
 4920SOL    MW419448   3.741   2.364   4.568  0.0169  0.1745  0.2097
 4921SOL     OW19449   4.080   0.545   4.014 -0.3845 -0.2516  0.4348
 4921SOL    HW219450   4.101   0.629   3.973  0.2390  0.3420  1.9331
 4921SOL    HW319451   4.097   0.481   3.945  0.8427  0.6915 -0.1831
 4921SOL    MW419452   4.085   0.548   3.999  0.1290  0.2988 -0.1528
 4922SOL     OW19453   1.018   0.688   2.581  0.3973  0.1139 -0.0135
 4922SOL    HW219454   0.946   0.741   2.546  1.1376  0.2958 -1.3195
 4922SOL    HW319455   1.009   0.696   2.676 -1.7909 -0.5310 -0.1044
 4922SOL    MW419456   1.007   0.696   2.589 -0.3971  0.6932  0.3737
 4923SOL     OW19457   1.393   4.565   1.282  0.0852 -0.1244  0.8585
 4923SOL    HW219458   1.345   4.638   1.320  0.7718  2.2540 -2.4624
 4923SOL    HW319459   1.485   4.591   1.288  0.4310 -1.2299  0.5264
 4923SOL    MW419460   1.399   4.578   1.288  0.3318 -0.4982 -0.4377
 4924SOL     OW19461   1.772   0.457   1.460 -0.5528  0.2910 -0.1350
 4924SOL    HW219462   1.738   0.542   1.434 -0.0429  1.0492  1.5675
 4924SOL    HW319463   1.704   0.418   1.514  0.8032  1.4620  2.5891
 4924SOL    MW419464   1.759   0.463   1.464 -0.3273  0.1816 -0.2761
 4925SOL     OW19465   2.687   6.355   3.273  0.2862 -0.5305  0.0386
 4925SOL    HW219466   2.773   6.325   3.301 -0.6087 -1.9064  1.4965
 4925SOL    HW319467   2.626   6.313   3.333 -1.7303 -2.7236 -3.1983
 4925SOL    MW419468   2.690   6.345   3.285  0.0015 -0.0810 -0.0591
 4926SOL     OW19469   5.286   3.093   0.745  0.1612  0.2585  0.4001
 4926SOL    HW219470   5.234   3.098   0.665  1.1282  1.2642 -0.1917
 4926SOL    HW319471   5.314   3.002   0.751  0.1442  0.1947 -0.4476
 4926SOL    MW419472   5.283   3.082   0.736  0.2771  0.0638 -0.1017
 4927SOL     OW19473   4.614   0.771   3.370 -0.4225 -0.1594 -0.0677
 4927SOL    HW219474   4.588   0.745   3.281  0.5041  2.5905 -1.2624
 4927SOL    HW319475   4.702   0.733   3.381 -0.6692 -0.7793 -0.1576
 4927SOL    MW419476   4.622   0.762   3.360  0.6524 -0.2739  0.6094
 4928SOL     OW19477   0.316   3.475   1.982  0.2290  0.3265  0.8429
 4928SOL    HW219478   0.372   3.476   1.904  1.1988  0.6740  1.5151
 4928SOL    HW319479   0.323   3.564   2.016 -3.6835  1.5667 -1.0306
 4928SOL    MW419480   0.324   3.487   1.976 -0.0300 -0.1811 -0.4815
 4929SOL     OW19481   1.996   2.525   2.387 -0.1987 -0.4516 -0.4410
 4929SOL    HW219482   1.964   2.547   2.474  1.3741  1.9166 -0.3729
 4929SOL    HW319483   2.073   2.470   2.402 -0.3642 -0.6703 -0.3836
 4929SOL    MW419484   2.002   2.520   2.400  0.4530  0.2174 -0.0003
 4930SOL     OW19485   2.952   1.484   6.100  0.0830  0.0007 -0.3098
 4930SOL    HW219486   2.952   1.492   6.195  0.5049  1.4024 -0.4133
 4930SOL    HW319487   3.012   1.552   6.070 -0.6710  0.1171 -1.6267
 4930SOL    MW419488   2.960   1.494   6.109 -0.3980  0.2441 -0.6863
 4931SOL     OW19489   3.720   3.735   3.450 -0.9908 -0.6837 -0.3534
 4931SOL    HW219490   3.692   3.803   3.388 -0.9523  1.5894  1.9517
 4931SOL    HW319491   3.811   3.716   3.425 -0.6169  0.9843 -0.3849
 4931SOL    MW419492   3.728   3.741   3.438  0.0655 -0.0291 -0.2711
 4932SOL     OW19493   5.932   5.650   3.503 -0.2638 -0.5820  0.2247
 4932SOL    HW219494   6.001   5.670   3.567  0.1182 -1.9058  0.2556
 4932SOL    HW319495   5.850   5.669   3.548  0.0502  0.1235  0.5088
 4932SOL    MW419496   5.931   5.655   3.517 -0.0478  0.7935  0.7713
 4933SOL     OW19497   3.164   6.342   4.524 -0.3030 -0.0324 -0.2664
 4933SOL    HW219498   3.210   6.382   4.450 -0.6959 -0.2779 -0.6462
 4933SOL    HW319499   3.225   6.277   4.558 -0.0582  0.1904 -0.2770
 4933SOL    MW419500   3.178   6.339   4.518 -0.2075 -0.1794 -0.4499
 4934SOL     OW19501   1.884   4.647   0.923 -0.7724  0.0037 -0.0476
 4934SOL    HW219502   1.956   4.584   0.919 -0.6772  0.1139 -0.0792
 4934SOL    HW319503   1.909   4.715   0.860 -0.8904  0.0568 -0.0369
 4934SOL    MW419504   1.897   4.648   0.914  0.4765  0.0884  0.2893
 4935SOL     OW19505   3.847   5.020   4.987 -0.6511 -0.2863 -0.4579
 4935SOL    HW219506   3.825   4.963   4.913 -2.1681 -1.7054  1.0192
 4935SOL    HW319507   3.942   5.008   4.999 -0.5798 -0.8684 -1.4800
 4935SOL    MW419508   3.857   5.011   4.978  0.3023  0.0815  0.2051
 4936SOL     OW19509   0.471   3.458   4.111 -0.0187  0.5794 -0.0256
 4936SOL    HW219510   0.529   3.411   4.172 -0.9039 -0.6648 -0.1162
 4936SOL    HW319511   0.399   3.489   4.166 -0.1117  0.6643 -0.1971
 4936SOL    MW419512   0.469   3.456   4.127 -0.2573 -0.0296 -0.4674
 4937SOL     OW19513   2.452   4.340   1.166  0.0021 -0.1070  0.7157
 4937SOL    HW219514   2.423   4.345   1.075 -0.7064 -0.3690  0.9211
 4937SOL    HW319515   2.443   4.247   1.189  2.0881 -0.4134  0.4411
 4937SOL    MW419516   2.447   4.328   1.157 -0.1702  0.1598  0.1041
 4938SOL     OW19517   0.636   6.195   3.636  0.1457  0.4661 -0.4431
 4938SOL    HW219518   0.550   6.153   3.630  0.4806 -0.3975  0.4015
 4938SOL    HW319519   0.618   6.284   3.666 -0.4916  0.4664 -0.8195
 4938SOL    MW419520   0.622   6.201   3.639 -0.0125 -0.1388 -0.4628
 4939SOL     OW19521   6.333   5.420   2.936 -0.3293  0.2084  0.1041
 4939SOL    HW219522   6.300   5.453   3.019  0.3442 -0.7376  0.7599
 4939SOL    HW319523   6.428   5.411   2.949  0.1184  1.9843 -1.4300
 4939SOL    MW419524   6.341   5.423   2.948  0.1582  0.6539  0.3557
 4940SOL     OW19525   5.396   4.222   6.197  0.8871  0.4718  0.0794
 4940SOL    HW219526   5.402   4.182   6.284 -3.2116 -0.1939  0.2675
 4940SOL    HW319527   5.368   4.312   6.214 -2.3956 -0.3351 -0.4135
 4940SOL    MW419528   5.393   4.229   6.211  0.2116  0.4147 -0.2911
 4941SOL     OW19529   2.152   3.132   2.919  0.2932 -0.0891 -0.2240
 4941SOL    HW219530   2.187   3.148   3.007  0.5527  1.3449 -0.5500
 4941SOL    HW319531   2.222   3.085   2.873  0.5483  0.0186  0.0491
 4941SOL    MW419532   2.166   3.128   2.924 -0.1427 -0.3885  0.4911
 4942SOL     OW19533   4.283   2.513   6.204  0.4164 -0.0965 -0.1004
 4942SOL    HW219534   4.269   2.550   6.291  0.5829  2.3437 -1.0319
 4942SOL    HW319535   4.367   2.551   6.176  0.8592 -1.6435 -0.9371
 4942SOL    MW419536   4.292   2.523   6.212 -0.1155 -0.1126 -0.2094
 4943SOL     OW19537   5.101   2.543   5.546 -0.0199 -0.5887  0.0641
 4943SOL    HW219538   5.096   2.535   5.451 -0.7582  1.4724 -0.1333
 4943SOL    HW319539   5.190   2.572   5.564 -0.4286  0.9415 -0.2285
 4943SOL    MW419540   5.112   2.546   5.536 -0.8203  0.2745  0.3438
 4944SOL     OW19541   0.457   2.393   0.586 -0.1943 -0.2852  0.0845
 4944SOL    HW219542   0.415   2.317   0.627  0.0865 -1.1889 -1.2574
 4944SOL    HW319543   0.550   2.372   0.585  0.2405  1.2078  1.9741
 4944SOL    MW419544   0.464   2.381   0.591 -0.2338 -0.2460  0.3106
 4945SOL     OW19545   3.295   3.191   1.859  0.2137 -1.0378  0.3983
 4945SOL    HW219546   3.275   3.260   1.923 -0.3278 -1.6142  0.8724
 4945SOL    HW319547   3.390   3.189   1.855  0.2811 -1.4066  1.6659
 4945SOL    MW419548   3.305   3.200   1.867 -0.3420 -0.5296 -0.0574
 4946SOL     OW19549   6.250   3.065   4.547  0.1136 -0.0502  0.2250
 4946SOL    HW219550   6.207   2.983   4.572 -0.4434 -0.4514 -1.8716
 4946SOL    HW319551   6.340   3.056   4.579  0.0353 -1.4434  0.1080
 4946SOL    MW419552   6.256   3.053   4.555  0.5215  0.3073 -0.4125
 4947SOL     OW19553   1.124   5.203   4.282 -0.3230 -0.0495 -0.2171
 4947SOL    HW219554   1.039   5.159   4.283  0.3358 -1.4093  1.9582
 4947SOL    HW319555   1.178   5.148   4.224 -0.3714 -0.3053 -0.0190
 4947SOL    MW419556   1.120   5.190   4.274 -0.3582 -0.3593  0.4643
 4948SOL     OW19557   0.473   5.755   3.650 -0.6244 -0.4381  0.5954
 4948SOL    HW219558   0.533   5.736   3.578  2.3867 -0.0458  2.8129
 4948SOL    HW319559   0.428   5.835   3.623 -1.0516 -1.3475 -1.6055
 4948SOL    MW419560   0.475   5.763   3.637  0.0267  0.0452 -0.3093
 4949SOL     OW19561   2.181   4.421   4.171  0.0696 -0.0441  0.4419
 4949SOL    HW219562   2.192   4.498   4.116 -0.2805  0.1910  0.6936
 4949SOL    HW319563   2.091   4.427   4.203 -0.5110 -1.4127 -0.8180
 4949SOL    MW419564   2.170   4.432   4.168  0.0553 -0.3733 -0.2287
 4950SOL     OW19565   3.297   0.448   2.844  0.1647  0.2325  0.1480
 4950SOL    HW219566   3.296   0.433   2.750  1.4574  2.8569 -0.3792
 4950SOL    HW319567   3.213   0.490   2.863  0.4252  0.8648 -0.0804
 4950SOL    MW419568   3.286   0.451   2.834 -0.1198  0.5299 -0.1714
 4951SOL     OW19569   5.200   3.536   0.348  0.0137  0.9274  0.2431
 4951SOL    HW219570   5.131   3.602   0.343 -1.0104  0.0074  1.4029
 4951SOL    HW319571   5.274   3.574   0.301  0.0520  3.6234  2.2358
 4951SOL    MW419572   5.201   3.550   0.341  0.1260 -0.3520  0.2770
 4952SOL     OW19573   2.035   2.930   0.668  0.3644 -0.0925  0.3639
 4952SOL    HW219574   2.106   2.866   0.664  0.9119  0.5481 -0.4613
 4952SOL    HW319575   2.032   2.969   0.581  1.4786  2.5011  1.3746
 4952SOL    MW419576   2.044   2.927   0.656 -0.5510 -0.1712  0.1379
 4953SOL     OW19577   3.650   5.115   1.223  0.5528  0.3169 -0.0761
 4953SOL    HW219578   3.601   5.146   1.147 -2.5620 -0.5530  1.4325
 4953SOL    HW319579   3.685   5.030   1.196 -0.9827 -0.2318 -0.4144
 4953SOL    MW419580   3.648   5.108   1.209 -0.0214  0.1521 -0.4654
 4954SOL     OW19581   1.743   0.290   3.397 -0.4121 -0.0237  0.2947
 4954SOL    HW219582   1.657   0.333   3.393 -0.7910 -0.7779  0.0560
 4954SOL    HW319583   1.732   0.210   3.346  0.6844  0.2648 -0.4284
 4954SOL    MW419584   1.730   0.285   3.390  0.0026  0.3355  0.8298
 4955SOL     OW19585   2.177   3.510   2.480  0.0956  0.0380  0.4175
 4955SOL    HW219586   2.165   3.544   2.392 -0.4174 -2.3535 -0.5057
 4955SOL    HW319587   2.088   3.486   2.508  0.5906 -2.2102  0.2468
 4955SOL    MW419588   2.163   3.512   2.472 -0.6205  0.2918 -0.0798
 4956SOL     OW19589   3.749   2.747   3.336 -0.3138  0.2199  0.3759
 4956SOL    HW219590   3.671   2.699   3.308  0.0608 -1.0312  1.3573
 4956SOL    HW319591   3.717   2.814   3.395 -0.8797  1.4310 -1.2377
 4956SOL    MW419592   3.735   2.749   3.340  0.3906  0.2534  0.3182
 4957SOL     OW19593   5.746   3.597   0.866  0.2641  0.3754  0.1368
 4957SOL    HW219594   5.815   3.662   0.851  0.2817  0.3330  0.0334
 4957SOL    HW319595   5.670   3.632   0.819  0.1911  0.4636  0.3206
 4957SOL    MW419596   5.745   3.611   0.858  0.2384 -0.0989  0.0300
 4958SOL     OW19597   3.492   1.389   5.646  0.1457 -0.0320 -0.6889
 4958SOL    HW219598   3.564   1.413   5.587 -1.6783 -0.1320 -3.0739
 4958SOL    HW319599   3.501   1.295   5.658 -0.0069 -0.1528 -1.5361
 4958SOL    MW419600   3.503   1.380   5.640 -0.5159  0.5192  0.2655
 4959SOL     OW19601   4.243   5.107   2.197 -0.7495  0.3037  0.0910
 4959SOL    HW219602   4.246   5.174   2.129 -1.9610  0.6954  0.3950
 4959SOL    HW319603   4.223   5.026   2.149 -0.0706  0.2957 -0.1871
 4959SOL    MW419604   4.241   5.105   2.181 -0.0017 -0.1492 -0.0193
 4960SOL     OW19605   2.077   0.624   2.194 -0.0910  0.4783 -0.2578
 4960SOL    HW219606   2.090   0.547   2.139 -1.3046  0.9110 -1.1979
 4960SOL    HW319607   2.021   0.593   2.265  0.6534  0.1493  0.1883
 4960SOL    MW419608   2.071   0.610   2.196 -0.2697  0.0099  0.5930
 4961SOL     OW19609   4.516   6.204   3.510 -0.7870  0.1355 -0.2723
 4961SOL    HW219610   4.510   6.239   3.599  0.0500 -3.1138  1.2585
 4961SOL    HW319611   4.598   6.240   3.476 -1.3136  1.7429  0.0755
 4961SOL    MW419612   4.526   6.213   3.517  0.3379 -0.4119  0.3539
 4962SOL     OW19613   6.348   1.153   0.600  0.1599  0.5468 -0.2091
 4962SOL    HW219614   6.349   1.170   0.506  0.9197 -0.1356 -0.3351
 4962SOL    HW319615   6.427   1.101   0.617 -1.0386 -1.1934  0.4285
 4962SOL    MW419616   6.358   1.148   0.590 -1.0757 -0.5356 -0.0574
 4963SOL     OW19617   4.345   2.676   5.721  0.2204 -0.4433 -0.3311
 4963SOL    HW219618   4.370   2.768   5.725  1.3974 -0.7707  0.3516
 4963SOL    HW319619   4.300   2.659   5.804 -1.5231 -0.0980 -1.1534
 4963SOL    MW419620   4.342   2.686   5.733  0.5813 -0.1793  0.0126
 4964SOL     OW19621   3.854   0.903   4.449  0.5919 -0.1588 -0.0656
 4964SOL    HW219622   3.819   0.979   4.403  0.4146 -0.2064 -0.0072
 4964SOL    HW319623   3.866   0.837   4.380  0.4307 -0.1923 -0.0606
 4964SOL    MW419624   3.851   0.904   4.434 -0.2706  0.1961  0.0027
 4965SOL     OW19625   5.058   6.038   1.753  0.3730  0.3797  0.4946
 4965SOL    HW219626   4.964   6.027   1.762  0.0340  3.0885  1.1062
 4965SOL    HW319627   5.077   6.012   1.663 -0.7763 -1.0456  0.6256
 4965SOL    MW419628   5.048   6.033   1.743 -0.3209 -0.3902  1.0207
 4966SOL     OW19629   0.072   6.082   5.159 -0.1618 -0.1644  0.8920
 4966SOL    HW219630   0.129   6.006   5.175  0.8113  0.4892  0.6347
 4966SOL    HW319631  -0.017   6.047   5.164  0.2664 -1.2780  0.9948
 4966SOL    MW419632   0.068   6.067   5.162 -0.6977 -0.0451  0.0278
 4967SOL     OW19633   1.256   3.876   2.991  0.0702 -0.1842  0.9736
 4967SOL    HW219634   1.171   3.917   2.976 -0.2168 -1.1503 -0.1931
 4967SOL    HW319635   1.305   3.942   3.041 -0.1084  1.9802 -1.4561
 4967SOL    MW419636   1.251   3.890   2.995  0.0118  0.0785 -0.1256
 4968SOL     OW19637   3.371   0.521   0.438 -0.5816 -0.2699  0.0680
 4968SOL    HW219638   3.455   0.478   0.420 -1.0558 -0.4533 -2.0194
 4968SOL    HW319639   3.333   0.535   0.351 -1.5450  2.2046  0.8182
 4968SOL    MW419640   3.377   0.517   0.424  0.8322  0.1995 -0.3150
 4969SOL     OW19641   3.000   1.558   1.645  0.7659 -0.0588  0.1983
 4969SOL    HW219642   2.957   1.554   1.730 -0.5736  1.7033 -0.3429
 4969SOL    HW319643   3.087   1.594   1.664  0.6579 -0.1274  0.8625
 4969SOL    MW419644   3.006   1.562   1.659 -0.3111  0.2215  0.2409
 4970SOL     OW19645   3.504   5.307   5.321  0.5467 -0.4071  0.1147
 4970SOL    HW219646   3.545   5.302   5.235  1.4729 -1.3434  0.5936
 4970SOL    HW319647   3.463   5.221   5.333  1.0903 -0.5554  0.9291
 4970SOL    MW419648   3.504   5.295   5.311 -0.1754  0.2591 -0.3157
 4971SOL     OW19649   5.776   1.144   6.089 -0.9063  0.2705  0.1044
 4971SOL    HW219650   5.685   1.160   6.115 -0.8971  0.3198  0.1073
 4971SOL    HW319651   5.800   1.063   6.134 -0.3881  1.1629  1.5091
 4971SOL    MW419652   5.767   1.135   6.098  0.0454  0.6798  0.1716
 4972SOL     OW19653   2.885   3.889   4.023 -0.5111 -0.0227 -0.3199
 4972SOL    HW219654   2.975   3.905   3.994 -0.4051 -0.0217  0.0024
 4972SOL    HW319655   2.855   3.973   4.056 -1.4996  0.6375 -2.6760
 4972SOL    MW419656   2.893   3.902   4.024 -0.1585 -0.2919 -0.3858
 4973SOL     OW19657   1.123   2.695   5.802  1.0113  0.4733 -0.2374
 4973SOL    HW219658   1.182   2.768   5.785 -1.9353  2.6023 -2.3347
 4973SOL    HW319659   1.115   2.651   5.717  2.4081 -2.2244  0.8837
 4973SOL    MW419660   1.130   2.699   5.789 -0.0123  0.4336 -0.3155
 4974SOL     OW19661   1.026   2.392   1.432  0.6957  0.1012 -0.0883
 4974SOL    HW219662   1.018   2.358   1.343  0.5158  0.5993 -0.2645
 4974SOL    HW319663   1.106   2.351   1.466 -0.6524 -2.2222  0.4917
 4974SOL    MW419664   1.036   2.382   1.425  0.1591 -0.2838 -0.0213
 4975SOL     OW19665   5.110   0.088   5.520 -0.0509  0.5962  0.2329
 4975SOL    HW219666   5.153   0.040   5.590 -0.2552  0.7804  0.4855
 4975SOL    HW319667   5.063   0.021   5.470  2.4180  0.0018 -1.4913
 4975SOL    MW419668   5.109   0.073   5.523  0.3092  0.3318  0.5501
 4976SOL     OW19669   3.943   3.746   1.620 -0.0928 -0.2646 -0.1431
 4976SOL    HW219670   4.025   3.699   1.634 -0.4834 -0.7010  0.8498
 4976SOL    HW319671   3.902   3.747   1.707  1.2612  4.6712  0.7197
 4976SOL    MW419672   3.948   3.740   1.633 -0.0895 -0.2956 -0.3049
 4977SOL     OW19673   2.861   0.869   2.760  0.5870  0.4948 -0.4668
 4977SOL    HW219674   2.923   0.821   2.705  0.5656  1.0196 -0.9517
 4977SOL    HW319675   2.781   0.875   2.708 -0.3283 -1.2491  0.6183
 4977SOL    MW419676   2.859   0.863   2.746 -0.5386 -0.8427  0.4102
 4978SOL     OW19677   3.744   5.533   4.072 -0.0216 -0.3095  0.2179
 4978SOL    HW219678   3.763   5.506   4.161 -0.2998  1.9370  1.0284
 4978SOL    HW319679   3.805   5.605   4.056 -1.2130  0.5380 -0.7152
 4978SOL    MW419680   3.755   5.539   4.081  0.0457 -0.5183  0.2533
 4979SOL     OW19681   0.414   3.388   2.218 -0.1982 -0.8720 -0.1419
 4979SOL    HW219682   0.417   3.422   2.129 -0.9538 -0.4067  0.0001
 4979SOL    HW319683   0.321   3.370   2.234  0.1059 -2.4084  0.0203
 4979SOL    MW419684   0.402   3.390   2.209 -0.1001  0.0130  0.5442
 4980SOL     OW19685   2.474   4.332   3.499  0.0213 -0.1940  0.0629
 4980SOL    HW219686   2.427   4.280   3.433 -0.1617 -0.2875  0.2657
 4980SOL    HW319687   2.476   4.276   3.576 -0.1906  0.1074  0.2875
 4980SOL    MW419688   2.468   4.317   3.500  0.0612 -0.7917  0.2814
 4981SOL     OW19689   5.289   4.443   6.019  0.6980  0.1076  0.6255
 4981SOL    HW219690   5.229   4.496   6.072  0.5555 -0.7346  1.3337
 4981SOL    HW319691   5.235   4.371   5.987  0.4747  1.2030 -1.7028
 4981SOL    MW419692   5.274   4.441   6.022 -0.2850  0.2717  0.4891
 4982SOL     OW19693   1.919   1.235   0.049  0.0014  0.0812 -0.1318
 4982SOL    HW219694   1.876   1.152   0.069 -0.2151  0.4666  1.1219
 4982SOL    HW319695   1.953   1.265   0.134  0.4667  1.0520 -0.6430
 4982SOL    MW419696   1.918   1.228   0.063 -0.0395  0.5519 -0.0269
 4983SOL     OW19697   3.149   3.740   1.404 -0.3297  0.4036  0.2460
 4983SOL    HW219698   3.060   3.707   1.397 -1.4673  3.3690 -0.9777
 4983SOL    HW319699   3.190   3.718   1.319 -1.2723  2.4444 -0.8016
 4983SOL    MW419700   3.143   3.733   1.392  0.1016  0.0878  0.2794
 4984SOL     OW19701   5.859   5.883   1.472 -0.3014  0.3595 -0.4173
 4984SOL    HW219702   5.781   5.830   1.489  0.7582 -0.2236  3.5636
 4984SOL    HW319703   5.895   5.846   1.392 -2.0779 -1.8921 -0.3061
 4984SOL    MW419704   5.853   5.871   1.464  0.0286 -0.0427 -0.1563
 4985SOL     OW19705   5.931   4.325   5.154  0.7716  0.1676 -0.0030
 4985SOL    HW219706   5.968   4.413   5.165 -0.0841  0.5669 -0.2644
 4985SOL    HW319707   5.930   4.311   5.059 -1.1171  0.7796 -0.1129
 4985SOL    MW419708   5.936   4.335   5.143 -0.2582 -0.2243  0.6372
 4986SOL     OW19709   0.992   0.310   0.370 -0.1015 -0.1492 -0.2781
 4986SOL    HW219710   0.952   0.358   0.442 -1.4817 -0.2667 -0.9166
 4986SOL    HW319711   1.052   0.372   0.329 -0.7726  0.5688 -0.1994
 4986SOL    MW419712   0.994   0.324   0.374  0.3688  0.2869  0.5230
 4987SOL     OW19713   2.084   5.878   0.751  0.2528 -0.3108  0.0373
 4987SOL    HW219714   2.023   5.909   0.685 -0.2519 -2.8126 -0.7728
 4987SOL    HW319715   2.031   5.866   0.830 -0.5324 -2.8939 -0.7801
 4987SOL    MW419716   2.069   5.880   0.753 -0.1881 -0.0232  0.3237
 4988SOL     OW19717   2.885   6.173   0.637  0.0618 -0.6368  0.1501
 4988SOL    HW219718   2.862   6.081   0.647 -1.4585 -0.4279 -1.0718
 4988SOL    HW319719   2.947   6.190   0.708 -1.2577 -2.0411  1.7253
 4988SOL    MW419720   2.890   6.163   0.648 -0.0529 -0.4134  0.5160
 4989SOL     OW19721   4.722   4.821   1.870 -0.0273  0.2406 -0.2429
 4989SOL    HW219722   4.690   4.874   1.796 -1.8815 -0.1085  0.2585
 4989SOL    HW319723   4.683   4.861   1.947  0.5431 -0.4000  0.3912
 4989SOL    MW419724   4.713   4.834   1.870  0.0484 -0.2956  0.3465
 4990SOL     OW19725   6.003   3.494   2.713  0.2876 -0.5035 -0.1671
 4990SOL    HW219726   5.925   3.521   2.760  1.1392  0.8028  0.5487
 4990SOL    HW319727   5.970   3.459   2.630 -1.1491 -1.5433  0.7879
 4990SOL    MW419728   5.988   3.493   2.709 -0.3411  0.8002  0.1650
 4991SOL     OW19729   1.396   2.827   5.687  1.0261 -0.2999 -0.1866
 4991SOL    HW219730   1.421   2.753   5.741 -0.0909 -1.1720 -0.8243
 4991SOL    HW319731   1.436   2.903   5.730  2.4955 -1.2957  0.2685
 4991SOL    MW419732   1.404   2.828   5.700 -0.3727  0.2627 -0.1867
 4992SOL     OW19733   6.099   0.461   4.889 -0.5769 -0.0187 -0.2229
 4992SOL    HW219734   6.105   0.383   4.834  1.8707  0.8083 -1.2322
 4992SOL    HW319735   6.186   0.500   4.886 -2.0225  3.5169 -0.8592
 4992SOL    MW419736   6.111   0.456   4.881 -0.1865 -0.2888  0.5410
 4993SOL     OW19737   2.129   3.895   1.121 -0.0837 -0.3249  0.3526
 4993SOL    HW219738   2.066   3.867   1.055  0.2436  1.0968 -0.5957
 4993SOL    HW319739   2.210   3.849   1.097 -0.0858 -0.1703  0.0469
 4993SOL    MW419740   2.132   3.885   1.109  0.6899 -0.5465  0.4972
 4994SOL     OW19741   3.331   2.558   2.272 -0.7392  0.0189  0.4539
 4994SOL    HW219742   3.389   2.518   2.337 -0.9375 -1.3688 -0.1923
 4994SOL    HW319743   3.355   2.651   2.273  0.3263 -0.2384  1.3939
 4994SOL    MW419744   3.342   2.565   2.281  0.0524 -0.1778 -0.0108
 4995SOL     OW19745   1.110   4.724   3.350 -0.0529  0.2494  0.4702
 4995SOL    HW219746   1.125   4.630   3.358 -0.2054  0.1009 -0.7411
 4995SOL    HW319747   1.198   4.762   3.352  0.4181 -0.3106 -3.0247
 4995SOL    MW419748   1.124   4.717   3.351 -0.2610  0.4266  0.8438
 4996SOL     OW19749   1.007   2.278   1.179  0.2147  0.0283 -0.4728
 4996SOL    HW219750   1.069   2.248   1.112  0.0207  0.2576 -0.7590
 4996SOL    HW319751   0.943   2.330   1.131  0.1501  0.3108 -0.0885
 4996SOL    MW419752   1.007   2.281   1.164  0.3937 -0.0564  0.4774
 4997SOL     OW19753   5.952   4.228   3.204 -0.2560  0.0865  0.1104
 4997SOL    HW219754   5.989   4.177   3.276  1.1649  2.1439  0.9134
 4997SOL    HW319755   6.028   4.259   3.155 -1.0014  1.9783  0.0665
 4997SOL    MW419756   5.967   4.225   3.207 -0.6525 -1.1030 -0.5268
 4998SOL     OW19757   2.562   0.653   1.721  0.3554 -0.4273  0.4891
 4998SOL    HW219758   2.603   0.570   1.697 -1.1421 -1.0808  0.0573
 4998SOL    HW319759   2.471   0.643   1.694  0.2229  1.5137  0.0981
 4998SOL    MW419760   2.555   0.640   1.714 -0.0005 -0.3188 -0.0169
 4999SOL     OW19761   1.248   0.552   5.856 -0.7836 -0.2394 -0.3017
 4999SOL    HW219762   1.272   0.580   5.767 -0.3522  1.5709  0.3535
 4999SOL    HW319763   1.318   0.584   5.911 -1.5710 -0.4361  0.8417
 4999SOL    MW419764   1.260   0.560   5.851 -0.3043 -0.4156 -0.4960
 5000SOL     OW19765   3.843   3.812   6.154  0.1760 -0.1874 -0.4469
 5000SOL    HW219766   3.768   3.774   6.201 -0.6362  0.5378 -1.1160
 5000SOL    HW319767   3.842   3.768   6.069  0.4899 -0.1473 -0.4726
 5000SOL    MW419768   3.833   3.801   6.149  0.0820  0.3642 -0.4710
 5001SOL     OW19769   3.529   5.412   2.422  0.2810 -0.1669 -0.3366
 5001SOL    HW219770   3.588   5.450   2.487  1.5882  0.9827 -2.0974
 5001SOL    HW319771   3.539   5.318   2.433  1.5398  0.0045  0.2165
 5001SOL    MW419772   3.538   5.405   2.432 -0.0829 -1.0391 -0.5859
 5002SOL     OW19773   2.273   2.894   1.362 -0.1162 -0.4199  0.1343
 5002SOL    HW219774   2.202   2.913   1.301  1.1967  0.6395 -1.1227
 5002SOL    HW319775   2.233   2.904   1.449 -0.8836  3.0390 -0.4563
 5002SOL    MW419776   2.258   2.898   1.366 -0.3337  0.1512  0.1416
 5003SOL     OW19777   6.376   5.084   3.347  0.3032 -0.7955  0.0873
 5003SOL    HW219778   6.403   5.077   3.256 -1.7833  0.6778 -0.7479
 5003SOL    HW319779   6.321   5.007   3.362 -2.2027  0.6425 -1.0949
 5003SOL    MW419780   6.372   5.073   3.337  0.1450  0.0922 -0.2846
 5004SOL     OW19781   1.831   2.339   5.049  0.2215 -0.1969  0.7560
 5004SOL    HW219782   1.769   2.365   5.116 -1.2541 -3.8727  1.0365
 5004SOL    HW319783   1.781   2.343   4.967  1.0561  1.1406  0.2716
 5004SOL    MW419784   1.816   2.343   5.047 -0.5180 -0.0971  0.6071
 5005SOL     OW19785   0.097   5.794   1.866 -0.2743  0.0734 -0.4024
 5005SOL    HW219786   0.045   5.865   1.829 -1.1568  0.6908  1.8388
 5005SOL    HW319787   0.069   5.790   1.958  0.7300 -2.2854 -0.1354
 5005SOL    MW419788   0.086   5.803   1.873 -0.0340 -0.1089  0.8843
 5006SOL     OW19789   4.369   3.347   2.584  0.5132  0.6393  0.1155
 5006SOL    HW219790   4.350   3.388   2.668  1.8505 -0.1006  0.8146
 5006SOL    HW319791   4.294   3.290   2.568 -0.9134  2.5702 -0.4108
 5006SOL    MW419792   4.356   3.345   2.593 -0.0826 -0.1136  0.1052
 5007SOL     OW19793   5.895   5.466   5.445  0.0885  0.7712  0.4025
 5007SOL    HW219794   5.839   5.460   5.522 -0.1366 -0.2761  0.1622
 5007SOL    HW319795   5.835   5.483   5.372  0.1824  0.5564  0.2767
 5007SOL    MW419796   5.880   5.468   5.446 -0.2294  0.9750 -0.8022
 5008SOL     OW19797   6.392   5.726   6.244  0.0975 -0.0932 -0.3481
 5008SOL    HW219798   6.399   5.815   6.210 -1.5746  0.4499  0.5894
 5008SOL    HW319799   6.307   5.724   6.289 -0.0062 -2.2193 -0.5076
 5008SOL    MW419800   6.381   5.737   6.246  0.5833 -0.3952  0.4128
 5009SOL     OW19801   0.928   1.290   3.237  0.1902  0.3056  0.6077
 5009SOL    HW219802   0.884   1.214   3.275  0.6053 -0.1468  0.1903
 5009SOL    HW319803   0.983   1.324   3.307  0.4186 -0.1053  0.6257
 5009SOL    MW419804   0.929   1.285   3.251  0.3770 -0.2751 -0.1004
 5010SOL     OW19805   0.434   1.748   1.472 -0.3437 -0.1547 -0.0134
 5010SOL    HW219806   0.485   1.785   1.400 -0.8226  0.7436  0.0952
 5010SOL    HW319807   0.366   1.696   1.429  0.1308 -0.6480 -0.1750
 5010SOL    MW419808   0.431   1.746   1.457 -0.5159 -0.4249  0.8424
 5011SOL     OW19809   2.022   0.533   6.159  0.5834  0.2779  0.4120
 5011SOL    HW219810   1.931   0.548   6.134  1.0259  0.5858 -1.1656
 5011SOL    HW319811   2.019   0.460   6.220 -0.6079 -0.6537 -0.7160
 5011SOL    MW419812   2.010   0.526   6.164 -0.0969  0.0246  0.0492
 5012SOL     OW19813   4.054   1.026   4.112 -0.5044 -0.2237 -0.4392
 5012SOL    HW219814   4.112   1.056   4.043  0.7002 -0.1503  0.5722
 5012SOL    HW319815   4.018   1.106   4.150  1.9359  0.0305  1.5990
 5012SOL    MW419816   4.057   1.040   4.108  0.1922  0.3604 -0.8897
 5013SOL     OW19817   0.483   5.864   2.229  0.0902  0.1976 -0.5123
 5013SOL    HW219818   0.569   5.878   2.268 -1.0143  0.6924  1.8860
 5013SOL    HW319819   0.483   5.772   2.203  0.1695 -0.8412  2.7755
 5013SOL    MW419820   0.494   5.854   2.230 -0.1592  0.0992 -0.2384
 5014SOL     OW19821   4.169   5.513   4.846  0.3513 -0.5985 -0.2264
 5014SOL    HW219822   4.196   5.567   4.921  2.0071 -3.4260  1.4049
 5014SOL    HW319823   4.217   5.550   4.772  0.2987  1.0213  0.4933
 5014SOL    MW419824   4.179   5.525   4.846  0.1225 -0.2851 -0.5768
 5015SOL     OW19825   2.009   3.988   3.271 -0.2943 -0.1190 -0.2561
 5015SOL    HW219826   1.927   3.994   3.320 -0.3479  0.0229 -0.3634
 5015SOL    HW319827   2.054   3.912   3.309 -0.0644  0.3519  0.4199
 5015SOL    MW419828   2.004   3.978   3.283 -0.0199  0.1685  0.1990
 5016SOL     OW19829   1.652   5.918   4.075 -0.3349  0.8516  0.3811
 5016SOL    HW219830   1.644   5.823   4.073  2.5047  0.4267  2.1516
 5016SOL    HW319831   1.733   5.936   4.027 -0.6696  2.3440  0.3277
 5016SOL    MW419832   1.662   5.908   4.068 -0.2103 -0.0818  0.0368
 5017SOL     OW19833   2.278   0.651   3.904 -0.4448  0.1614  0.4133
 5017SOL    HW219834   2.341   0.712   3.943 -0.6630  0.9781 -0.4646
 5017SOL    HW319835   2.205   0.706   3.877 -0.9653 -0.5968  0.2344
 5017SOL    MW419836   2.277   0.666   3.905 -0.4520  0.5329 -0.7264
 5018SOL     OW19837   2.318   2.869   6.355  0.3083  0.1564 -0.2555
 5018SOL    HW219838   2.248   2.862   6.289  0.2550  0.8820 -0.2879
 5018SOL    HW319839   2.364   2.950   6.332 -0.0463  0.7122  0.9264
 5018SOL    MW419840   2.315   2.879   6.343  0.1946  0.6556 -0.5612
 5019SOL     OW19841   5.523   3.042   0.448 -0.6187  0.3581 -0.2603
 5019SOL    HW219842   5.501   3.109   0.512  1.4061  0.4875  0.3542
 5019SOL    HW319843   5.604   3.072   0.407 -0.7310 -0.7564 -1.3900
 5019SOL    MW419844   5.531   3.055   0.451 -0.2446  0.3467  0.4204
 5020SOL     OW19845   5.784   6.090   5.129 -0.4624 -0.0418  0.5606
 5020SOL    HW219846   5.871   6.071   5.095  0.3828  2.2244  1.2554
 5020SOL    HW319847   5.727   6.089   5.052  0.8602  1.9666 -0.5361
 5020SOL    MW419848   5.788   6.088   5.114 -0.4734 -0.4741  0.5215
 5021SOL     OW19849   1.557   4.316   0.116 -0.1308  0.0962 -0.0593
 5021SOL    HW219850   1.613   4.354   0.048 -2.4955  0.1414 -2.1024
 5021SOL    HW319851   1.535   4.229   0.084 -2.3264  0.5851 -0.0688
 5021SOL    MW419852   1.561   4.310   0.103 -0.1204  0.4692  0.3033
 5022SOL     OW19853   4.070   4.078   0.151 -0.2234  0.1770 -0.3516
 5022SOL    HW219854   4.048   4.072   0.058  1.6678  0.0132 -0.8340
 5022SOL    HW319855   4.049   3.992   0.186  1.0615 -0.4962 -1.1458
 5022SOL    MW419856   4.064   4.066   0.143  0.2263 -0.7041 -0.0620
 5023SOL     OW19857   0.559   3.910   3.023 -0.0048 -0.0180 -0.4471
 5023SOL    HW219858   0.497   3.936   3.091 -0.3824 -2.1558  0.1084
 5023SOL    HW319859   0.511   3.921   2.941 -0.1784  0.8701 -0.2283
 5023SOL    MW419860   0.545   3.915   3.021 -0.3594  0.4130 -0.0499
 5024SOL     OW19861   2.040   4.199   2.905 -0.0670  0.9051 -0.7706
 5024SOL    HW219862   2.032   4.288   2.938 -2.0234  0.0667  1.2403
 5024SOL    HW319863   1.950   4.169   2.896  0.5647 -1.0288 -1.0048
 5024SOL    MW419864   2.027   4.207   2.908  0.1198  0.5207 -0.1249
 5025SOL     OW19865   0.542   1.990   3.123  0.1255  0.0323  0.4522
 5025SOL    HW219866   0.581   1.913   3.166  0.6537  1.0748  1.9605
 5025SOL    HW319867   0.477   1.954   3.063  1.4131 -1.6520 -0.0067
 5025SOL    MW419868   0.539   1.975   3.121 -0.5065 -0.5805  0.2806
 5026SOL     OW19869   3.736   4.918   0.505  0.0438  0.0763  0.6269
 5026SOL    HW219870   3.737   4.848   0.570  2.1784 -0.6314 -0.0686
 5026SOL    HW319871   3.679   4.886   0.435 -0.6030 -0.0703  1.2188
 5026SOL    MW419872   3.729   4.904   0.504  0.1795 -0.7695  0.1337
 5027SOL     OW19873   1.113   4.735   2.055  0.0960  0.3155  0.1707
 5027SOL    HW219874   1.074   4.667   1.999  0.0262  0.5421 -0.0595
 5027SOL    HW319875   1.194   4.759   2.011  0.8962 -0.6961  1.0475
 5027SOL    MW419876   1.118   4.729   2.042  0.1378 -0.2539  0.4674
 5028SOL     OW19877   3.690   1.472   0.057  0.5429  0.0518 -0.5447
 5028SOL    HW219878   3.723   1.386   0.028  0.3455 -0.6987  1.3102
 5028SOL    HW319879   3.738   1.489   0.138 -1.4734  0.3127  0.6636
 5028SOL    MW419880   3.701   1.463   0.064 -0.0220  0.0156  0.3781
 5029SOL     OW19881   4.428   1.882   1.278 -0.4716 -0.6502 -0.2432
 5029SOL    HW219882   4.451   1.857   1.188 -0.7361  0.0802 -0.5164
 5029SOL    HW319883   4.335   1.901   1.275 -0.0352  1.7243 -0.3808
 5029SOL    MW419884   4.419   1.881   1.266 -0.0842  0.1781 -0.6411
 5030SOL     OW19885   2.117   1.622   0.105  0.8652 -0.1354  0.0745
 5030SOL    HW219886   2.041   1.660   0.061  0.6792 -2.0023 -1.3317
 5030SOL    HW319887   2.188   1.684   0.088 -0.3272  1.7820  1.6457
 5030SOL    MW419888   2.117   1.635   0.097  0.1970  0.1307 -0.2202
 5031SOL     OW19889   4.323   5.439   2.288  0.1981  0.1175  0.2866
 5031SOL    HW219890   4.316   5.391   2.371  0.6897 -0.5654 -0.0601
 5031SOL    HW319891   4.243   5.492   2.284 -1.3778 -2.1534 -0.2471
 5031SOL    MW419892   4.312   5.440   2.298  0.2946  0.3300  0.2524
 5032SOL     OW19893   5.914   4.823   4.102  0.0060  0.5427  0.2803
 5032SOL    HW219894   5.825   4.849   4.126 -0.0034  0.9669 -0.2163
 5032SOL    HW319895   5.929   4.742   4.151 -0.0525  1.3258  1.6571
 5032SOL    MW419896   5.905   4.816   4.112  0.7051  0.1491 -0.9893
 5033SOL     OW19897   3.195   5.227   5.926  0.6631 -0.0276 -0.1591
 5033SOL    HW219898   3.290   5.215   5.926  0.8057 -0.3056  4.0978
 5033SOL    HW319899   3.160   5.139   5.915  1.0781 -0.5110  1.9457
 5033SOL    MW419900   3.203   5.214   5.925 -0.5838 -0.8555 -0.0446
 5034SOL     OW19901   4.772   0.929   2.945  0.0984 -0.2844 -0.1255
 5034SOL    HW219902   4.775   0.932   3.040 -0.4513  1.1193 -0.1357
 5034SOL    HW319903   4.748   0.838   2.925  2.3678 -1.2154  0.9739
 5034SOL    MW419904   4.769   0.917   2.955 -0.0199 -0.1409 -0.0031
 5035SOL     OW19905   1.004   5.653   2.765 -0.1055  0.1521 -0.4113
 5035SOL    HW219906   1.048   5.719   2.710 -0.7228  0.8667 -0.0726
 5035SOL    HW319907   0.943   5.704   2.818 -1.1155 -0.7764 -0.6432
 5035SOL    MW419908   1.001   5.669   2.765  0.0394 -0.0912  0.0371
 5036SOL     OW19909   0.851   5.903   0.155  0.7285 -0.1721 -0.3307
 5036SOL    HW219910   0.816   5.867   0.073  0.1257  0.9062 -0.5782
 5036SOL    HW319911   0.886   5.988   0.130  3.6892 -1.2224 -0.1019
 5036SOL    MW419912   0.851   5.910   0.141  0.5878 -0.0375  0.1383
 5037SOL     OW19913   0.328   3.418   3.677  0.5149  0.1398 -0.1575
 5037SOL    HW219914   0.360   3.508   3.674  0.1487  0.3743  1.5490
 5037SOL    HW319915   0.379   3.372   3.610  1.1291  1.4820 -0.6498
 5037SOL    MW419916   0.339   3.424   3.668  0.0415  0.7601  0.5475
 5038SOL     OW19917   3.752   0.107   3.760 -0.2999 -0.0492  0.3039
 5038SOL    HW219918   3.743   0.170   3.688 -0.2438 -1.9473 -1.4463
 5038SOL    HW319919   3.847   0.094   3.769 -0.2882  0.4849  1.0216
 5038SOL    MW419920   3.764   0.114   3.751 -0.7502  0.4408 -0.1909
 5039SOL     OW19921   5.729   4.671   5.957 -0.4625  0.3486  0.3287
 5039SOL    HW219922   5.816   4.653   5.993 -0.4922  0.1676  0.3084
 5039SOL    HW319923   5.709   4.595   5.903 -1.0739 -0.0650  1.1386
 5039SOL    MW419924   5.738   4.659   5.954  0.6540 -0.0423 -0.4019
 5040SOL     OW19925   1.117   3.531   0.011 -0.0988  0.1753 -0.5238
 5040SOL    HW219926   1.100   3.586  -0.065  0.6346 -0.9992 -1.5852
 5040SOL    HW319927   1.065   3.452  -0.005  1.0463 -0.6234 -0.4729
 5040SOL    MW419928   1.108   3.528  -0.001 -0.4644 -0.1467 -0.1143
 5041SOL     OW19929   1.456   3.523   0.404 -0.1739  0.5185 -0.1735
 5041SOL    HW219930   1.551   3.520   0.417 -0.2343 -0.5196  0.1244
 5041SOL    HW319931   1.444   3.498   0.312 -0.1889 -0.0225 -0.0286
 5041SOL    MW419932   1.467   3.519   0.394 -0.3614 -0.0883 -0.0210
 5042SOL     OW19933   4.941   6.331   5.378  0.2006 -0.6041 -0.2013
 5042SOL    HW219934   4.955   6.237   5.368  1.9672 -0.3893 -0.0516
 5042SOL    HW319935   4.848   6.339   5.398 -0.1016 -2.2650 -0.7735
 5042SOL    MW419936   4.931   6.319   5.380  0.0373 -0.1555 -0.4608
 5043SOL     OW19937   6.103   1.679   1.465 -0.3707  0.3843 -0.0884
 5043SOL    HW219938   6.052   1.612   1.510 -1.4698  0.9464 -0.4815
 5043SOL    HW319939   6.075   1.762   1.504 -0.4072  0.7697 -0.9016
 5043SOL    MW419940   6.093   1.681   1.476  0.0222 -0.1177  0.2597
 5044SOL     OW19941   0.533   3.709   6.254  0.3268 -0.2319  0.1373
 5044SOL    HW219942   0.508   3.741   6.341  0.0319  1.1187 -0.4099
 5044SOL    HW319943   0.629   3.703   6.257  0.2525 -1.3614  0.9151
 5044SOL    MW419944   0.542   3.713   6.266 -0.2598 -0.4430  0.2963
 5045SOL     OW19945   5.426   5.942   3.226 -0.5216 -0.2508 -0.3967
 5045SOL    HW219946   5.448   5.920   3.317  0.1656 -1.4709 -0.8407
 5045SOL    HW319947   5.382   6.027   3.232  1.0712  0.5511  0.9063
 5045SOL    MW419948   5.423   5.950   3.239  0.7022 -0.0306 -0.2730
 5046SOL     OW19949   5.641   1.316   3.416  0.1179 -0.1268  0.9094
 5046SOL    HW219950   5.668   1.407   3.426 -0.6758  0.2812 -0.4028
 5046SOL    HW319951   5.571   1.304   3.479 -2.9877  1.6004 -1.8909
 5046SOL    MW419952   5.636   1.326   3.425  0.1170  0.1270  0.7445
 5047SOL     OW19953   6.043   2.785   3.410  0.1528  0.4122 -0.2269
 5047SOL    HW219954   6.105   2.808   3.341  0.0770 -0.2582 -0.5309
 5047SOL    HW319955   6.084   2.712   3.456  0.0945  0.7004  0.3000
 5047SOL    MW419956   6.057   2.779   3.407  0.1369  0.3832  0.5498
 5048SOL     OW19957   0.719   1.763   5.807 -0.2009  0.4007  0.8007
 5048SOL    HW219958   0.809   1.732   5.818  0.1941  1.1278 -0.2220
 5048SOL    HW319959   0.691   1.725   5.723 -0.2500  1.5150  0.2995
 5048SOL    MW419960   0.728   1.754   5.797  0.2740 -0.1675 -0.5394
 5049SOL     OW19961   3.403   1.480   3.419 -0.3217  1.6308 -0.1713
 5049SOL    HW219962   3.373   1.565   3.450 -0.0492  0.9340  2.2144
 5049SOL    HW319963   3.323   1.427   3.414 -0.0388  0.6321  3.3265
 5049SOL    MW419964   3.388   1.484   3.422  0.1398  0.2769 -0.0419
 5050SOL     OW19965   3.222   5.726   3.226  0.0948  0.2279 -0.0203
 5050SOL    HW219966   3.129   5.723   3.200 -0.4969  0.2164  1.9766
 5050SOL    HW319967   3.223   5.696   3.317  1.6427  3.2441  1.0731
 5050SOL    MW419968   3.210   5.721   3.234  0.4190 -0.7348 -0.6264
 5051SOL     OW19969   6.303   3.194   1.355 -0.1495  0.4500  0.1939
 5051SOL    HW219970   6.219   3.185   1.310  0.1615 -1.1864 -0.1393
 5051SOL    HW319971   6.297   3.134   1.429  0.5697  0.6351  0.4070
 5051SOL    MW419972   6.291   3.185   1.359  0.5283  0.1089  0.1414
 5052SOL     OW19973   4.297   4.294   2.390  0.7346 -0.2547 -0.5627
 5052SOL    HW219974   4.262   4.219   2.341  0.7324 -0.2927 -0.5024
 5052SOL    HW319975   4.250   4.370   2.354  0.4310 -0.3302 -0.3288
 5052SOL    MW419976   4.286   4.294   2.379  0.4595 -0.2052 -0.1914
 5053SOL     OW19977   4.834   4.621   2.659  0.1369  0.3787 -0.2454
 5053SOL    HW219978   4.838   4.535   2.701  0.0312  1.0546  1.2196
 5053SOL    HW319979   4.883   4.679   2.717  0.4230  1.2772 -1.3345
 5053SOL    MW419980   4.841   4.618   2.672  0.4905  0.2366  0.2538
 5054SOL     OW19981   2.739   5.587   3.841 -0.6359  0.4741  0.1692
 5054SOL    HW219982   2.683   5.535   3.783  0.9863  1.5396 -2.5426
 5054SOL    HW319983   2.778   5.523   3.900 -2.2500 -0.6897  0.0566
 5054SOL    MW419984   2.736   5.571   3.841  0.0299  0.4169 -0.0575
 5055SOL     OW19985   0.194   5.772   6.045  0.3444 -0.6555 -0.3218
 5055SOL    HW219986   0.275   5.781   6.095 -0.1797  1.2432  0.2727
 5055SOL    HW319987   0.216   5.801   5.957  0.7338 -1.9209 -0.6618
 5055SOL    MW419988   0.207   5.777   6.040 -0.5260 -0.2463  0.3452
 5056SOL     OW19989   3.644   2.705   2.705 -0.1660  0.0089  0.4125
 5056SOL    HW219990   3.731   2.731   2.675  0.6327 -0.5828  2.1275
 5056SOL    HW319991   3.609   2.653   2.633  0.1369  1.6951 -1.0472
 5056SOL    MW419992   3.651   2.702   2.691 -0.2292 -0.0913 -0.0658
 5057SOL     OW19993   2.192   6.039   5.653 -0.3434  0.1222  0.1408
 5057SOL    HW219994   2.228   6.125   5.675 -0.0005  0.1085 -0.3753
 5057SOL    HW319995   2.107   6.038   5.698  0.5305 -0.0933  1.8757
 5057SOL    MW419996   2.185   6.051   5.662  0.5952  0.2937 -0.6213
 5058SOL     OW19997   2.636   5.286   4.320  0.0447 -0.2801  0.3061
 5058SOL    HW219998   2.605   5.212   4.268 -0.2974  1.4212 -2.1267
 5058SOL    HW319999   2.556   5.326   4.355 -0.0972  0.6911 -1.0309
 5058SOL    MW420000   2.621   5.282   4.318 -0.1118 -1.0692 -0.3272
 5059SOL     OW20001   4.370   4.685   0.770 -0.2726 -0.3550 -0.1380
 5059SOL    HW220002   4.331   4.622   0.831 -0.9931  0.0008 -0.2074
 5059SOL    HW320003   4.363   4.769   0.816  1.7657 -0.4706  0.4524
 5059SOL    MW420004   4.364   4.688   0.784  0.4641 -0.2027 -0.4926
 5060SOL     OW20005   0.929   1.328   1.400  0.2770 -0.0420 -0.0956
 5060SOL    HW220006   0.981   1.386   1.456  1.0720 -2.1708  1.5164
 5060SOL    HW320007   0.968   1.338   1.313  0.8388  1.2983  0.2851
 5060SOL    MW420008   0.941   1.337   1.396  0.0004  0.3814  0.0579
 5061SOL     OW20009   2.438   3.071   3.911  0.3417 -0.3088 -0.0700
 5061SOL    HW220010   2.364   3.101   3.963  0.9222 -2.1848  1.9640
 5061SOL    HW320011   2.399   3.019   3.841 -0.2825 -1.3438  1.0248
 5061SOL    MW420012   2.423   3.068   3.908  0.8380 -0.1822  0.5017
 5062SOL     OW20013   5.854   2.346   1.032 -0.4120 -0.4294 -0.2554
 5062SOL    HW220014   5.924   2.387   1.083 -1.9343  1.8143  0.1944
 5062SOL    HW320015   5.774   2.387   1.065 -1.7026 -0.8909 -2.6181
 5062SOL    MW420016   5.853   2.357   1.043  0.0155 -0.0448 -0.1749
 5063SOL     OW20017   0.906   3.954   3.618  0.0305 -0.0335  0.0114
 5063SOL    HW220018   0.995   3.918   3.615 -0.1077 -0.4718  0.8799
 5063SOL    HW320019   0.854   3.894   3.564  0.4483  0.8471 -1.4376
 5063SOL    MW420020   0.911   3.941   3.610  0.1180  0.3200  0.1524
 5064SOL     OW20021   3.583   1.818   5.121 -0.0232 -0.1322  1.1129
 5064SOL    HW220022   3.517   1.754   5.150 -0.2893 -0.2151  0.3650
 5064SOL    HW320023   3.532   1.894   5.095  0.1295 -0.3576  0.1126
 5064SOL    MW420024   3.567   1.819   5.121 -0.6492 -0.4711  0.2244
 5065SOL     OW20025   4.806   0.499   3.138  0.6722 -0.2887  0.3320
 5065SOL    HW220026   4.820   0.457   3.223 -1.7491 -0.7282  0.5909
 5065SOL    HW320027   4.882   0.555   3.126  1.7612 -1.2842  2.1267
 5065SOL    MW420028   4.818   0.501   3.148 -0.0319 -0.6732  0.5636
 5066SOL     OW20029   0.601   3.271   4.888 -0.0092  0.1689 -0.4141
 5066SOL    HW220030   0.581   3.352   4.936  0.9030  0.4621 -0.5073
 5066SOL    HW320031   0.569   3.287   4.800  0.4856  0.5737 -0.5253
 5066SOL    MW420032   0.594   3.284   4.883 -0.4595  0.3091 -0.5037
 5067SOL     OW20033   6.050   5.193   3.787 -0.0084 -0.5255  0.3295
 5067SOL    HW220034   6.107   5.119   3.765  0.8568 -0.2749  1.6561
 5067SOL    HW320035   5.973   5.153   3.827 -0.4169 -0.8070 -0.6908
 5067SOL    MW420036   6.047   5.178   3.789  0.1591  0.1488 -0.0599
 5068SOL     OW20037   2.419   2.678   3.754 -0.2807 -0.0386 -0.2120
 5068SOL    HW220038   2.426   2.676   3.850  0.3159  0.6669 -0.2358
 5068SOL    HW320039   2.503   2.646   3.723 -0.9485 -1.6025 -0.5206
 5068SOL    MW420040   2.431   2.673   3.763 -0.1689 -0.1461 -0.6705
 5069SOL     OW20041   4.317   4.381   4.440 -0.5516 -0.1678  0.1849
 5069SOL    HW220042   4.375   4.307   4.459 -0.7142 -0.0880  1.0449
 5069SOL    HW320043   4.265   4.352   4.365 -0.6248 -0.9433  0.5221
 5069SOL    MW420044   4.318   4.367   4.433 -0.5560  0.4075  0.1660
 5070SOL     OW20045   0.833   6.167   6.077 -0.3015  0.1059  0.4396
 5070SOL    HW220046   0.756   6.151   6.131  0.5510 -1.6177  1.2505
 5070SOL    HW320047   0.901   6.192   6.140  0.2895 -0.3635  0.0040
 5070SOL    MW420048   0.832   6.168   6.093  1.2813 -0.1671 -0.3488
 5071SOL     OW20049   1.374   0.063   5.129 -0.5525  0.1008 -0.0633
 5071SOL    HW220050   1.334   0.132   5.182  0.1578 -0.8766  1.8727
 5071SOL    HW320051   1.417   0.109   5.057  0.1891  1.7303  1.3439
 5071SOL    MW420052   1.374   0.078   5.127 -0.0305  0.5158  0.1411
 5072SOL     OW20053   6.249   6.324   4.320 -0.1902 -0.1218 -0.1601
 5072SOL    HW220054   6.309   6.324   4.395  0.5635 -4.2156 -0.4907
 5072SOL    HW320055   6.162   6.315   4.359  0.0033 -0.1785  0.2635
 5072SOL    MW420056   6.246   6.323   4.335  0.0364 -0.0059  0.4691
 5073SOL     OW20057   6.250   1.863   0.331 -0.7908 -0.0780  0.6105
 5073SOL    HW220058   6.290   1.938   0.375 -0.7888 -1.3514  2.9827
 5073SOL    HW320059   6.300   1.788   0.363 -1.4562 -1.2078 -0.8717
 5073SOL    MW420060   6.262   1.863   0.341  0.3202 -0.5447  0.2693
 5074SOL     OW20061   3.407   6.388   1.193 -0.1357  0.5301 -0.4571
 5074SOL    HW220062   3.367   6.415   1.276 -0.1776 -0.2581 -0.2138
 5074SOL    HW320063   3.471   6.456   1.174 -1.2961  1.6174 -0.6497
 5074SOL    MW420064   3.410   6.401   1.201 -0.1229 -0.5546  0.0847
 5075SOL     OW20065   4.849   4.752   5.690  0.3950 -0.1757  0.4185
 5075SOL    HW220066   4.895   4.711   5.763  0.1692 -1.4892 -0.1660
 5075SOL    HW320067   4.758   4.759   5.719  0.8003  2.0167  1.3973
 5075SOL    MW420068   4.843   4.748   5.703 -0.5106  0.1050 -0.0725
 5076SOL     OW20069   2.495   6.350   6.327  0.3333 -0.3155 -0.1909
 5076SOL    HW220070   2.562   6.281   6.325 -0.2128 -0.8411 -0.8315
 5076SOL    HW320071   2.540   6.428   6.294  0.7535 -0.5424 -0.1666
 5076SOL    MW420072   2.510   6.351   6.323  0.1697  0.0452  0.3600
 5077SOL     OW20073   2.108   0.827   4.289  0.3727  0.0583 -0.0312
 5077SOL    HW220074   2.166   0.900   4.267  1.3828 -0.3301  1.1685
 5077SOL    HW320075   2.164   0.749   4.282 -0.3920 -0.4862 -0.2323
 5077SOL    MW420076   2.123   0.826   4.285  0.6624  0.2556  0.2307
 5078SOL     OW20077   0.955   3.686   3.774  0.1176  0.1191  0.0462
 5078SOL    HW220078   1.048   3.665   3.776 -0.0509 -0.8680 -1.2170
 5078SOL    HW320079   0.922   3.657   3.860  0.7409 -0.7458  0.0069
 5078SOL    MW420080   0.963   3.679   3.786  0.1520  0.2755  0.0961
 5079SOL     OW20081   4.082   0.449   6.117 -0.1829 -0.6393  0.3122
 5079SOL    HW220082   4.062   0.498   6.197  0.2069  0.1562 -0.0737
 5079SOL    HW320083   4.169   0.411   6.135 -0.5802 -1.3907  0.6975
 5079SOL    MW420084   4.091   0.450   6.130 -0.0764 -0.4035  0.1355
 5080SOL     OW20085   0.032   0.541   2.716 -0.2800  0.4863  0.5638
 5080SOL    HW220086   0.095   0.482   2.675 -0.1689 -0.8341  2.4703
 5080SOL    HW320087   0.013   0.607   2.650  0.7478 -0.8482 -1.1361
 5080SOL    MW420088   0.038   0.542   2.702 -0.0596  0.3465 -0.1082
 5081SOL     OW20089   1.852   5.789   5.184  0.3947 -0.0321  0.3671
 5081SOL    HW220090   1.775   5.815   5.134 -0.1669 -0.9090  0.7408
 5081SOL    HW320091   1.839   5.695   5.201  1.2500 -0.0619  0.9535
 5081SOL    MW420092   1.840   5.780   5.180  0.1656 -0.2149  0.8435
 5082SOL     OW20093   4.311   5.887   2.602  0.1988  0.5762  0.1551
 5082SOL    HW220094   4.379   5.823   2.580 -0.8469 -0.3798 -0.3713
 5082SOL    HW320095   4.358   5.970   2.609  1.4582 -0.0983  0.0380
 5082SOL    MW420096   4.326   5.889   2.600  0.7859  0.1944 -0.0581
 5083SOL     OW20097   6.162   2.641   2.025  0.3330  0.1747  0.0193
 5083SOL    HW220098   6.201   2.661   2.110  1.6286 -1.1341 -0.2276
 5083SOL    HW320099   6.068   2.631   2.044  0.5175  0.4705  1.1761
 5083SOL    MW420100   6.155   2.642   2.039 -0.4680  0.2799 -0.2386
 5084SOL     OW20101   2.255   4.364   3.748  0.1953 -0.3179 -0.6785
 5084SOL    HW220102   2.249   4.327   3.836 -1.2949  2.1043  0.3234
 5084SOL    HW320103   2.341   4.405   3.744  1.5653 -3.0377 -1.5493
 5084SOL    MW420104   2.265   4.364   3.759 -0.3871 -0.3199  0.3254
 5085SOL     OW20105   3.179   1.481   0.171 -0.2793 -0.0917 -0.4860
 5085SOL    HW220106   3.258   1.514   0.128  0.0462  0.5614  0.5800
 5085SOL    HW320107   3.188   1.386   0.167  1.7489 -0.0847  1.6443
 5085SOL    MW420108   3.190   1.473   0.165  0.5590 -0.7335 -0.0763
 5086SOL     OW20109   4.766   3.530   3.155  0.7836 -0.1240 -0.2929
 5086SOL    HW220110   4.784   3.490   3.069  0.3947 -0.7788 -0.0734
 5086SOL    HW320111   4.820   3.609   3.156  1.8127 -0.8044 -0.6089
 5086SOL    MW420112   4.775   3.536   3.144  0.0982 -0.0050  0.2473
 5087SOL     OW20113   3.400   5.065   2.964 -0.0133 -0.6182 -0.1587
 5087SOL    HW220114   3.330   5.128   2.980 -0.5006 -1.0754 -0.4197
 5087SOL    HW320115   3.358   4.996   2.911  0.7622 -0.6547 -0.7460
 5087SOL    MW420116   3.385   5.064   2.959  0.3867  0.1318  0.4788
 5088SOL     OW20117   6.117   5.379   0.194  0.0002 -0.0193  0.6039
 5088SOL    HW220118   6.189   5.360   0.135  0.8816 -1.3785  2.0375
 5088SOL    HW320119   6.120   5.474   0.206  1.5702 -0.0470  0.6349
 5088SOL    MW420120   6.127   5.389   0.188  0.0207 -0.2501  0.2693
 5089SOL     OW20121   6.181   2.552   3.540  0.6360 -0.4520  0.1060
 5089SOL    HW220122   6.181   2.531   3.634 -0.1132  0.0930  0.2325
 5089SOL    HW320123   6.264   2.517   3.508  0.0322 -2.4341  0.5692
 5089SOL    MW420124   6.192   2.544   3.548  0.0787 -0.0528  0.5732
 5090SOL     OW20125   4.467   3.894   2.003 -0.2955  0.3444  0.5206
 5090SOL    HW220126   4.500   3.805   2.018  0.2399  0.4172 -0.1902
 5090SOL    HW320127   4.478   3.938   2.087  0.3381  0.0132  0.6197
 5090SOL    MW420128   4.473   3.888   2.016  0.2551  0.6523 -0.1101
 5091SOL     OW20129   1.822   2.730   3.813 -0.1582  0.6660 -0.2639
 5091SOL    HW220130   1.743   2.762   3.857  0.2681  0.9153  0.3209
 5091SOL    HW320131   1.793   2.711   3.724 -0.6682  1.6557 -0.3180
 5091SOL    MW420132   1.807   2.732   3.807  0.0557 -0.2788 -0.0864
 5092SOL     OW20133   4.705   2.067   2.423  1.0367  0.8634 -0.1051
 5092SOL    HW220134   4.763   2.021   2.362  2.0548 -0.7905  2.0151
 5092SOL    HW320135   4.653   1.998   2.464  0.6573  1.8743  1.1878
 5092SOL    MW420136   4.705   2.052   2.420  0.0087 -0.3143 -0.7109
 5093SOL     OW20137   4.245   0.300   5.693  0.7534 -0.3602  0.1676
 5093SOL    HW220138   4.306   0.239   5.651  1.2945  1.1436 -1.3476
 5093SOL    HW320139   4.182   0.321   5.625 -0.7052 -0.8192  1.3146
 5093SOL    MW420140   4.245   0.295   5.679 -0.2973  0.0986 -0.4987
 5094SOL     OW20141   3.174   5.733   4.751 -0.6145 -0.0049 -0.2888
 5094SOL    HW220142   3.151   5.684   4.830  0.4683 -1.3146 -0.7488
 5094SOL    HW320143   3.251   5.689   4.717  0.7142  2.3258 -0.4981
 5094SOL    MW420144   3.181   5.721   4.757 -0.1313 -0.2820  0.3410
 5095SOL     OW20145   3.877   0.883   4.713 -0.3960  0.4591 -0.2571
 5095SOL    HW220146   3.800   0.833   4.741 -1.0049  0.7387 -1.3565
 5095SOL    HW320147   3.867   0.891   4.618  0.8265  0.7938 -0.3757
 5095SOL    MW420148   3.865   0.878   4.704  0.1045 -0.3971  0.8086
 5096SOL     OW20149   6.259   5.756   3.207 -0.1061 -0.2775 -0.8671
 5096SOL    HW220150   6.335   5.785   3.258 -0.0724 -0.4279 -0.8330
 5096SOL    HW320151   6.291   5.754   3.117 -0.5764  1.4536 -1.1120
 5096SOL    MW420152   6.273   5.760   3.202  0.6175  0.5768 -0.1153
 5097SOL     OW20153   0.666   1.415   1.889  0.3384 -0.0022 -0.1527
 5097SOL    HW220154   0.688   1.323   1.881  0.4171  0.0466 -0.4911
 5097SOL    HW320155   0.745   1.462   1.863  0.6436  0.1575  1.0220
 5097SOL    MW420156   0.679   1.409   1.885  0.0003 -0.1224  0.2305
 5098SOL     OW20157   4.807   2.050   5.959  0.6001 -0.4702 -1.1417
 5098SOL    HW220158   4.870   2.036   6.031 -1.0547  0.8932  0.6692
 5098SOL    HW320159   4.858   2.095   5.892  2.0755 -1.2743 -0.6280
 5098SOL    MW420160   4.822   2.054   5.960 -0.7430 -0.3142 -0.2268
 5099SOL     OW20161   4.024   1.709   0.198 -0.1763  0.2533  0.0630
 5099SOL    HW220162   4.058   1.643   0.137  0.0787  0.2051  0.2562
 5099SOL    HW320163   3.960   1.758   0.147  0.0238  0.2018 -0.2382
 5099SOL    MW420164   4.020   1.707   0.183  0.1893 -0.2995 -0.4096
 5100SOL     OW20165   3.543   3.255   5.563  0.3310 -0.3874  0.1315
 5100SOL    HW220166   3.499   3.340   5.558  0.1267 -0.4973  0.0463
 5100SOL    HW320167   3.636   3.275   5.551  0.4090 -0.0467  1.1883
 5100SOL    MW420168   3.549   3.269   5.561 -0.4491  0.1458 -0.7581
 5101SOL     OW20169   2.008   1.204   2.964  0.2260  0.0066  0.1361
 5101SOL    HW220170   1.945   1.187   2.894  0.3719  0.6483 -0.1634
 5101SOL    HW320171   2.063   1.125   2.967 -0.2427 -0.3282  0.0318
 5101SOL    MW420172   2.007   1.191   2.955 -0.2015  0.6249  0.4262
 5102SOL     OW20173   1.309   1.522   5.635  0.3481  0.1016 -0.2445
 5102SOL    HW220174   1.225   1.527   5.589  1.2094  2.5569 -1.7382
 5102SOL    HW320175   1.307   1.596   5.696 -0.0644 -2.1049  2.6671
 5102SOL    MW420176   1.297   1.532   5.637 -0.9420 -0.2256 -0.0355
 5103SOL     OW20177   0.351   5.093   5.750  0.1417 -0.0451 -0.1119
 5103SOL    HW220178   0.390   5.119   5.666  0.8193 -1.1608 -0.1715
 5103SOL    HW320179   0.400   5.143   5.816  0.2559  0.1151 -0.3167
 5103SOL    MW420180   0.363   5.103   5.748  0.1400  0.1484 -0.0511
 5104SOL     OW20181   5.923   2.504   2.868  0.1855  0.4794 -0.2989
 5104SOL    HW220182   5.941   2.474   2.957 -2.5708  1.0173  0.5366
 5104SOL    HW320183   5.871   2.434   2.829 -3.1903  2.3713  0.4386
 5104SOL    MW420184   5.918   2.491   2.875 -0.2547  0.5096  0.2432
 5105SOL     OW20185   3.096   3.734   3.136  0.6243 -0.6504  0.1077
 5105SOL    HW220186   3.133   3.675   3.070  1.0094 -0.2386 -0.0471
 5105SOL    HW320187   3.170   3.758   3.191  0.4723 -0.2780  0.1494
 5105SOL    MW420188   3.110   3.729   3.135  0.0334 -0.6114  0.2025
 5106SOL     OW20189   6.126   2.529   2.661 -0.2075  0.2946  0.2700
 5106SOL    HW220190   6.056   2.531   2.726 -0.7299  1.7343 -0.2928
 5106SOL    HW320191   6.081   2.539   2.577  0.5915  0.1321 -0.1902
 5106SOL    MW420192   6.111   2.531   2.658  0.0357 -0.2693  0.1635
 5107SOL     OW20193   4.716   2.974   3.838  0.3745  0.4198 -0.9140
 5107SOL    HW220194   4.759   3.017   3.764  1.7667  0.4736 -0.1156
 5107SOL    HW320195   4.766   2.894   3.853 -0.4387 -0.0485 -0.5821
 5107SOL    MW420196   4.728   2.969   3.830 -0.1437  0.4909 -0.6928
 5108SOL     OW20197   2.798   5.977   1.997  0.4844  0.1814 -0.7971
 5108SOL    HW220198   2.863   6.003   1.931  0.6190 -0.6939 -1.0159
 5108SOL    HW320199   2.847   5.925   2.060 -0.0753 -0.9015 -1.2212
 5108SOL    MW420200   2.813   5.974   1.997 -0.0402 -0.3153 -0.1582
 5109SOL     OW20201   3.451   0.869   1.560 -0.4868  0.3911 -0.3363
 5109SOL    HW220202   3.489   0.914   1.484  0.3438 -0.5026 -0.4672
 5109SOL    HW320203   3.370   0.830   1.526  0.3890 -0.8719 -1.0613
 5109SOL    MW420204   3.445   0.870   1.545 -0.2821  0.3867  0.5897
 5110SOL     OW20205   0.426   0.884   5.364  0.2415 -0.9019  0.1219
 5110SOL    HW220206   0.453   0.884   5.456  0.3767 -1.6905  0.0927
 5110SOL    HW320207   0.349   0.942   5.362  2.3930  2.1570  0.0205
 5110SOL    MW420208   0.419   0.892   5.376  0.2595 -0.1287  0.4328
 5111SOL     OW20209   3.022   4.622   2.608  0.4768 -0.0779  0.0564
 5111SOL    HW220210   3.074   4.610   2.688 -0.6981  0.5615  0.9543
 5111SOL    HW320211   2.963   4.547   2.606 -0.6601  0.7651  0.7469
 5111SOL    MW420212   3.021   4.611   2.618  0.1317 -0.2486  0.1646
 5112SOL     OW20213   3.634   0.938   3.482 -0.2085 -0.4180 -0.3814
 5112SOL    HW220214   3.622   0.854   3.526 -2.5214  0.0260 -0.0809
 5112SOL    HW320215   3.598   1.003   3.542  2.6688  1.0158 -0.0372
 5112SOL    MW420216   3.628   0.935   3.496  0.6779 -0.6298  0.2934
 5113SOL     OW20217   1.825   1.774   5.881  0.6987  0.6626 -0.3678
 5113SOL    HW220218   1.796   1.703   5.823  0.2621  1.2142 -0.8280
 5113SOL    HW320219   1.787   1.853   5.844 -0.1704  0.9476  1.0586
 5113SOL    MW420220   1.816   1.775   5.868 -0.0404  0.0206 -0.4623
 5114SOL     OW20221   1.177   1.684   4.468 -0.1804  0.3895  0.1159
 5114SOL    HW220222   1.175   1.778   4.450  0.5367  0.1443 -1.3181
 5114SOL    HW320223   1.270   1.661   4.470 -0.3595 -0.7690 -2.2835
 5114SOL    MW420224   1.189   1.693   4.466 -0.0664  0.4105  0.0973
 5115SOL     OW20225   5.364   0.704   6.334 -0.0197  0.0520  0.4139
 5115SOL    HW220226   5.456   0.726   6.346 -0.1551 -0.4922  3.1311
 5115SOL    HW320227   5.356   0.614   6.366 -1.4650  0.0149  0.0363
 5115SOL    MW420228   5.375   0.695   6.340  0.1078  0.1021  0.2988
 5116SOL     OW20229   1.043   3.080   6.063  0.1022  0.2872 -0.3334
 5116SOL    HW220230   1.052   3.162   6.111 -0.1493 -1.9183  3.8835
 5116SOL    HW320231   0.949   3.068   6.053  0.0077 -0.6068  1.3509
 5116SOL    MW420232   1.032   3.090   6.068 -0.7662 -0.2715  0.1907
 5117SOL     OW20233   2.108   4.719   3.443  0.3799  0.0999 -0.2851
 5117SOL    HW220234   2.201   4.698   3.447  0.3056 -0.1464  0.1930
 5117SOL    HW320235   2.075   4.701   3.531  0.0214  0.8673 -0.2545
 5117SOL    MW420236   2.116   4.714   3.455  0.0217  0.1622 -0.1829
 5118SOL     OW20237   0.670   4.517   0.267 -0.2564  0.1705  0.2539
 5118SOL    HW220238   0.623   4.596   0.294 -0.3169  1.2821 -2.7964
 5118SOL    HW320239   0.662   4.515   0.172  1.6365 -2.3477  0.0435
 5118SOL    MW420240   0.663   4.527   0.258 -0.0901  0.4966  0.1872
 5119SOL     OW20241   1.418   2.260   2.501 -0.4434  0.1008 -0.0191
 5119SOL    HW220242   1.479   2.189   2.480  1.3870  1.7678 -0.6128
 5119SOL    HW320243   1.411   2.311   2.420 -1.3661  0.8879  0.5298
 5119SOL    MW420244   1.425   2.257   2.487 -0.1635 -0.2387 -0.2354
 5120SOL     OW20245   5.432   1.807   1.916 -0.4960  0.1561  0.4672
 5120SOL    HW220246   5.502   1.806   1.852  0.0399  1.7610  0.9733
 5120SOL    HW320247   5.458   1.742   1.982  0.1381  0.2022  0.2662
 5120SOL    MW420248   5.444   1.799   1.916 -0.2566 -0.2071  0.5112
 5121SOL     OW20249   0.078   3.164   1.174  0.1153  0.4536 -0.1410
 5121SOL    HW220250   0.036   3.211   1.246  1.5854  0.0834  1.0132
 5121SOL    HW320251   0.169   3.153   1.203  0.4490 -0.7545 -1.5462
 5121SOL    MW420252   0.084   3.169   1.188 -0.3392  0.4291  0.1945
 5122SOL     OW20253   4.561   1.873   2.574  0.2389 -0.0505 -0.4175
 5122SOL    HW220254   4.609   1.791   2.560  3.1343  1.7652 -2.1553
 5122SOL    HW320255   4.598   1.909   2.655  1.0448  0.8163 -1.1502
 5122SOL    MW420256   4.573   1.867   2.583  0.1497 -0.6321  0.2079
 5123SOL     OW20257   0.895   0.943   0.100  0.0417 -0.2723 -0.0079
 5123SOL    HW220258   0.928   1.029   0.127  0.8602 -0.0556 -1.5458
 5123SOL    HW320259   0.975   0.894   0.080 -0.4816 -0.5772 -1.4231
 5123SOL    MW420260   0.910   0.948   0.101 -0.7470 -0.3332  0.4230
 5124SOL     OW20261   6.348   1.119   3.929  0.1719  0.2274 -0.1140
 5124SOL    HW220262   6.313   1.165   4.006  1.2686 -0.1103  0.6104
 5124SOL    HW320263   6.406   1.182   3.887 -2.0428  1.1908 -1.9680
 5124SOL    MW420264   6.351   1.133   3.934  0.3709  0.5833  0.7868
 5125SOL     OW20265   2.001   4.182   0.431 -0.0531 -0.0140 -0.6349
 5125SOL    HW220266   1.975   4.231   0.353 -0.4879  0.3916 -0.2363
 5125SOL    HW320267   1.934   4.114   0.441 -1.0107  1.0595  0.4182
 5125SOL    MW420268   1.989   4.179   0.422  0.0420 -0.1514  0.0947
 5126SOL     OW20269   4.671   4.496   5.476  0.5038 -0.6816 -0.5833
 5126SOL    HW220270   4.764   4.517   5.467  0.8590 -1.2820  1.3682
 5126SOL    HW320271   4.630   4.579   5.501  0.4896 -0.4151 -1.4510
 5126SOL    MW420272   4.678   4.510   5.478 -0.2159 -0.4725 -0.0902
 5127SOL     OW20273   1.511   4.669   4.613  0.0974 -0.3330  0.5385
 5127SOL    HW220274   1.590   4.669   4.559  0.7507  0.9525  1.4515
 5127SOL    HW320275   1.443   4.707   4.556  0.1299 -1.3822 -0.2240
 5127SOL    MW420276   1.512   4.674   4.598  0.0459 -0.2543 -0.2275
 5128SOL     OW20277   2.972   2.737   5.888 -0.5431  0.3273 -0.1469
 5128SOL    HW220278   2.990   2.815   5.836 -0.8071  1.2693  1.1261
 5128SOL    HW320279   2.917   2.769   5.960  3.2623 -0.0226  3.2216
 5128SOL    MW420280   2.967   2.751   5.890 -0.2904 -0.1284  0.0130
 5129SOL     OW20281   5.879   4.993   5.254 -0.7408 -0.2761 -0.3850
 5129SOL    HW220282   5.960   5.044   5.258 -1.7776  1.4217  0.1089
 5129SOL    HW320283   5.892   4.923   5.319  0.5617 -0.4231 -0.7692
 5129SOL    MW420284   5.892   4.991   5.263  0.0632  0.0498  0.1357
 5130SOL     OW20285   5.807   0.101   4.536  0.3381 -0.0553 -0.5133
 5130SOL    HW220286   5.744   0.040   4.573  0.8051 -0.1100  0.2126
 5130SOL    HW320287   5.818   0.169   4.603  0.0707  0.6590 -1.1722
 5130SOL    MW420288   5.800   0.102   4.550  0.0081  0.2279 -0.4901
 5131SOL     OW20289   0.602   5.221   5.650 -0.1857  0.1092  0.3906
 5131SOL    HW220290   0.543   5.274   5.596 -0.9320  0.2189  1.2964
 5131SOL    HW320291   0.664   5.183   5.587 -1.1307  0.1119 -0.5719
 5131SOL    MW420292   0.602   5.223   5.634 -0.6727 -0.7256 -0.4899
 5132SOL     OW20293   1.696   3.805   3.571 -0.4455 -0.2731 -0.3250
 5132SOL    HW220294   1.616   3.857   3.560 -0.5819 -0.6305 -1.1409
 5132SOL    HW320295   1.679   3.748   3.646  0.2710  1.8611  1.5767
 5132SOL    MW420296   1.683   3.804   3.579  0.3396  0.6176 -0.1328
 5133SOL     OW20297   1.774   1.161   0.639  0.1516  0.2880  0.4489
 5133SOL    HW220298   1.861   1.121   0.636 -0.2555 -0.6031 -0.2118
 5133SOL    HW320299   1.718   1.099   0.592 -0.7225  1.1446  0.3303
 5133SOL    MW420300   1.778   1.147   0.632  0.4169  0.0080 -0.3461
 5134SOL     OW20301   3.295   5.189   0.403 -0.8575 -0.2329  0.0155
 5134SOL    HW220302   3.348   5.267   0.382 -1.6936  0.6842  1.1729
 5134SOL    HW320303   3.340   5.149   0.477 -0.5825 -0.6989 -0.4027
 5134SOL    MW420304   3.308   5.194   0.410 -0.0617 -0.3995  0.0420
 5135SOL     OW20305   6.028   5.323   1.850  0.2716 -0.2907  0.0326
 5135SOL    HW220306   5.997   5.371   1.927  1.7378 -0.8110  0.9905
 5135SOL    HW320307   6.109   5.281   1.879 -0.5752 -2.7825 -0.9645
 5135SOL    MW420308   6.035   5.324   1.864  0.1539  0.3617 -0.0360
 5136SOL     OW20309   2.434   1.166   4.993  0.3826  0.5338  0.4351
 5136SOL    HW220310   2.499   1.231   4.967  1.9807 -1.6977 -1.5223
 5136SOL    HW320311   2.477   1.115   5.061 -0.6035  1.0031  1.4565
 5136SOL    MW420312   2.448   1.168   4.998  1.2111  0.1647 -0.2369
 5137SOL     OW20313   2.546   4.670   5.668  0.5369  0.5114 -0.4411
 5137SOL    HW220314   2.599   4.657   5.589 -0.8519  0.2172 -1.3574
 5137SOL    HW320315   2.609   4.662   5.740  1.6784 -0.1432 -1.4663
 5137SOL    MW420316   2.561   4.667   5.667 -0.1303  0.2301  0.1928
 5138SOL     OW20317   0.809   0.688   1.467  0.2900  0.2183  0.0782
 5138SOL    HW220318   0.819   0.679   1.372 -0.2456  1.0320 -0.0741
 5138SOL    HW320319   0.738   0.628   1.489 -1.5859  2.0891 -0.5255
 5138SOL    MW420320   0.801   0.679   1.457 -0.0950 -0.2609 -0.5000
 5139SOL     OW20321   4.596   2.768   4.766 -0.0111 -0.7723 -0.4328
 5139SOL    HW220322   4.515   2.773   4.715  0.9061 -2.5514 -2.1958
 5139SOL    HW320323   4.605   2.675   4.787  0.5398 -0.3188  1.5734
 5139SOL    MW420324   4.586   2.756   4.762  0.2741 -0.1959  0.4483
 5140SOL     OW20325   5.925   3.102   5.529 -0.8777  0.0643  0.2091
 5140SOL    HW220326   6.015   3.134   5.533 -0.5175 -0.7540 -0.9401
 5140SOL    HW320327   5.915   3.050   5.609  0.3160 -1.3858 -0.5313
 5140SOL    MW420328   5.936   3.099   5.540 -0.6799 -0.1662 -0.4842
 5141SOL     OW20329   5.175   3.758   1.390 -0.0589 -0.0212 -0.0071
 5141SOL    HW220330   5.232   3.833   1.376 -1.2947  0.7485 -1.1525
 5141SOL    HW320331   5.169   3.716   1.304  3.4311 -3.6635  1.2031
 5141SOL    MW420332   5.182   3.762   1.377  0.1998  0.5113  0.0054
 5142SOL     OW20333   6.361   5.172   4.299 -1.0659  0.1041 -0.1361
 5142SOL    HW220334   6.357   5.167   4.204  1.9219 -0.2001 -0.3141
 5142SOL    HW320335   6.380   5.264   4.318  0.8057 -0.2696 -0.0241
 5142SOL    MW420336   6.363   5.183   4.289  0.5600 -0.6979  0.5685
 5143SOL     OW20337   4.871   0.556   4.325  0.6524 -0.2031  0.7885
 5143SOL    HW220338   4.877   0.623   4.257 -3.7214  0.4132  0.6735
 5143SOL    HW320339   4.901   0.600   4.405 -0.1952  1.3118  0.3311
 5143SOL    MW420340   4.876   0.571   4.327  0.4004 -0.3758 -0.2682
 5144SOL     OW20341   0.649   4.217   4.156 -0.1376  0.1021  0.0170
 5144SOL    HW220342   0.727   4.215   4.101  1.1344  0.2310  1.7272
 5144SOL    HW320343   0.576   4.210   4.095  1.1421  1.3968 -1.7642
 5144SOL    MW420344   0.649   4.216   4.141  0.2722  0.7874  0.0133
 5145SOL     OW20345   3.038   0.061   0.795  0.1717 -0.8074 -0.6417
 5145SOL    HW220346   2.947   0.041   0.816  0.4011 -0.3476  0.9153
 5145SOL    HW320347   3.033   0.130   0.729 -0.6983  1.6541  1.8190
 5145SOL    MW420348   3.026   0.068   0.789 -0.9881  0.1302 -0.0600
 5146SOL     OW20349   4.796   5.335   0.618 -0.7170  0.2192 -0.1189
 5146SOL    HW220350   4.742   5.333   0.539 -0.7503 -0.8479 -0.0907
 5146SOL    HW320351   4.828   5.245   0.627  1.3301  0.8721 -0.3081
 5146SOL    MW420352   4.793   5.323   0.609 -0.2367  0.0548 -0.1911
 5147SOL     OW20353   3.515   2.451   3.047 -0.1768 -0.0707 -0.2900
 5147SOL    HW220354   3.604   2.471   3.018 -0.4669  1.9469  0.1160
 5147SOL    HW320355   3.507   2.356   3.033  1.8237 -0.2097 -0.8592
 5147SOL    MW420356   3.526   2.441   3.041 -0.3323 -0.3795  0.2175
 5148SOL     OW20357   6.371   4.134   6.294  0.0201  0.0460 -0.2096
 5148SOL    HW220358   6.335   4.219   6.319  1.8435  1.0821 -0.8935
 5148SOL    HW320359   6.423   4.107   6.369 -0.7702 -0.6166  0.1107
 5148SOL    MW420360   6.373   4.142   6.307  0.1945 -0.1891  0.0942
 5149SOL     OW20361   2.052   1.131   3.441  0.3705 -0.2487 -0.3089
 5149SOL    HW220362   2.125   1.108   3.384  0.2583  0.3220 -0.6950
 5149SOL    HW320363   1.994   1.055   3.438  0.1972 -0.1031 -1.2490
 5149SOL    MW420364   2.054   1.118   3.433 -0.6630 -0.1463  0.2718
 5150SOL     OW20365   6.207   0.274   4.681 -0.3098  0.1362  0.2827
 5150SOL    HW220366   6.219   0.184   4.714  0.0372  1.1157  3.1096
 5150SOL    HW320367   6.174   0.262   4.592 -1.7579 -2.8235  1.0696
 5150SOL    MW420368   6.204   0.260   4.674 -0.2575  0.3029 -0.1248
 5151SOL     OW20369   0.970   5.842   0.443  0.0843 -0.3251 -0.5887
 5151SOL    HW220370   0.928   5.861   0.360 -0.6841 -1.1206 -0.3890
 5151SOL    HW320371   0.961   5.922   0.494 -0.2130 -0.1314 -0.9474
 5151SOL    MW420372   0.964   5.855   0.439 -0.4460 -0.3205 -0.0933
 5152SOL     OW20373   3.045   5.225   1.685 -0.3572 -0.6228  0.3407
 5152SOL    HW220374   2.952   5.245   1.695 -0.0533  1.3751 -0.2616
 5152SOL    HW320375   3.073   5.193   1.771 -1.6115 -1.3684  0.4892
 5152SOL    MW420376   3.036   5.224   1.698 -0.2899  0.8224  0.3326
 5153SOL     OW20377   5.707   0.422   1.452  0.2593 -0.1984 -0.1710
 5153SOL    HW220378   5.633   0.478   1.428  0.2845 -0.4308 -0.8179
 5153SOL    HW320379   5.718   0.436   1.546 -0.2997  0.2046 -0.1579
 5153SOL    MW420380   5.699   0.431   1.461 -0.2838  0.3643  0.1788
 5154SOL     OW20381   4.773   0.622   6.313  0.3489 -0.4418 -0.0235
 5154SOL    HW220382   4.715   0.567   6.366 -0.2928 -1.0719 -1.3355
 5154SOL    HW320383   4.849   0.567   6.294  0.1293 -0.5636 -0.5648
 5154SOL    MW420384   4.775   0.608   6.318 -0.1250  0.4102  0.0273
 5155SOL     OW20385   2.343   6.081   4.324  0.0608 -0.3947 -0.3332
 5155SOL    HW220386   2.416   6.065   4.384 -0.3043 -0.5523  0.0738
 5155SOL    HW320387   2.265   6.066   4.377 -0.2755  0.5282 -0.5561
 5155SOL    MW420388   2.342   6.077   4.339 -0.0132 -0.5484 -0.2528
 5156SOL     OW20389   3.014   3.229   1.077  0.4018 -0.4773 -0.1557
 5156SOL    HW220390   3.032   3.280   1.156 -0.2136 -0.7512  0.1623
 5156SOL    HW320391   3.087   3.167   1.072  0.5944 -0.2691  0.0389
 5156SOL    MW420392   3.026   3.228   1.087 -0.4002 -0.3387 -0.3167
 5157SOL     OW20393   2.639   0.666   2.706 -0.4573  0.3933 -0.0856
 5157SOL    HW220394   2.607   0.756   2.717 -1.4167 -0.0308  0.6904
 5157SOL    HW320395   2.654   0.636   2.796  0.2401 -0.0953 -0.3623
 5157SOL    MW420396   2.637   0.674   2.720  0.0008 -0.7485 -0.4219
 5158SOL     OW20397   5.386   0.123   1.549 -0.4948  0.4791  0.7723
 5158SOL    HW220398   5.425   0.098   1.466 -1.2093 -2.0973  1.1113
 5158SOL    HW320399   5.461   0.134   1.608 -0.0457  1.0814  0.1046
 5158SOL    MW420400   5.401   0.121   1.546 -0.3272  0.2515 -0.2350
 5159SOL     OW20401   1.249   3.715   0.212 -0.8406 -0.2726 -0.4606
 5159SOL    HW220402   1.216   3.725   0.302  0.4999 -2.2375  0.3124
 5159SOL    HW320403   1.188   3.654   0.171 -0.1594 -1.2131 -0.1119
 5159SOL    MW420404   1.237   3.709   0.219  0.3862 -0.1997  0.1944
 5160SOL     OW20405   0.860   3.436   6.014  0.2345 -0.2117 -0.2985
 5160SOL    HW220406   0.871   3.433   5.919 -0.2435  1.7664 -0.4499
 5160SOL    HW320407   0.771   3.404   6.029  0.9937 -2.5423 -0.2755
 5160SOL    MW420408   0.850   3.431   6.003  0.5347  0.3486 -0.1532
 5161SOL     OW20409   1.919   4.119   3.895  0.0383 -0.6380  0.0782
 5161SOL    HW220410   2.007   4.153   3.907  0.2561 -0.9790 -0.4893
 5161SOL    HW320411   1.896   4.143   3.805 -0.6909 -0.0136  0.4177
 5161SOL    MW420412   1.927   4.127   3.884  0.4141  0.0143 -0.2904
 5162SOL     OW20413   0.865   3.649   0.882 -0.5576  0.4578  0.0911
 5162SOL    HW220414   0.867   3.574   0.940 -1.5770  0.3620  0.0300
 5162SOL    HW320415   0.954   3.655   0.847 -0.5558 -0.9863 -0.2360
 5162SOL    MW420416   0.877   3.640   0.885 -0.0004 -0.6064 -0.2171
 5163SOL     OW20417   6.354   4.716   3.966  0.0731 -0.6528 -0.3593
 5163SOL    HW220418   6.291   4.767   4.017  1.2949 -0.9339  1.5493
 5163SOL    HW320419   6.337   4.625   3.988  0.8707 -0.7584 -0.1247
 5163SOL    MW420420   6.344   4.711   3.976 -0.5462  0.4466  0.2771
 5164SOL     OW20421   1.487   2.494   5.012 -0.2065 -0.0171  0.0095
 5164SOL    HW220422   1.545   2.509   5.086  2.0319  1.1471 -1.8507
 5164SOL    HW320423   1.501   2.402   4.988  1.8989  0.5468 -1.1424
 5164SOL    MW420424   1.496   2.484   5.018 -0.4842  0.3449 -0.1834
 5165SOL     OW20425   3.277   2.241   4.675  0.2646 -0.4627  0.2804
 5165SOL    HW220426   3.293   2.274   4.587 -2.1950  1.4876  0.4560
 5165SOL    HW320427   3.336   2.166   4.684  1.4854  0.0392 -2.5254
 5165SOL    MW420428   3.287   2.236   4.665  0.0529 -0.1234  0.5302
 5166SOL     OW20429   1.919   0.423   1.874  0.4632  0.1508 -0.5611
 5166SOL    HW220430   1.823   0.416   1.880  0.5754 -0.3478  1.3154
 5166SOL    HW320431   1.936   0.517   1.871 -0.0606  0.2799  0.1870
 5166SOL    MW420432   1.908   0.435   1.874  0.0398  0.3143  0.2516
 5167SOL     OW20433   4.901   0.074   4.030  0.2418  0.1350  0.3428
 5167SOL    HW220434   4.949   0.154   4.054  1.2735 -0.2147 -0.4674
 5167SOL    HW320435   4.946   0.005   4.078  1.6034 -0.4136 -1.6033
 5167SOL    MW420436   4.913   0.076   4.040  0.7233 -0.0351  0.0864
 5168SOL     OW20437   3.621   1.771   3.632  0.3781  0.1790 -0.3720
 5168SOL    HW220438   3.625   1.798   3.541  0.2626 -1.7358 -0.9730
 5168SOL    HW320439   3.703   1.724   3.647  0.2480  0.1862  0.4258
 5168SOL    MW420440   3.632   1.768   3.622  0.3221 -0.1596  0.9766
 5169SOL     OW20441   6.241   0.697   6.209  0.5913  0.4517  0.2704
 5169SOL    HW220442   6.249   0.604   6.188 -0.0598  0.2535  0.8592
 5169SOL    HW320443   6.309   0.740   6.156  0.0701 -0.1995 -0.9603
 5169SOL    MW420444   6.251   0.690   6.199 -0.0767 -0.3797  0.5916
 5170SOL     OW20445   6.191   2.830   0.338  0.3080  0.4944 -0.1390
 5170SOL    HW220446   6.237   2.855   0.418  0.9300  2.4965 -1.0489
 5170SOL    HW320447   6.099   2.822   0.365  0.5468  0.8379  0.8324
 5170SOL    MW420448   6.185   2.832   0.352  0.5054 -0.1664  0.2983
 5171SOL     OW20449   4.819   2.702   6.058 -0.1603 -0.0507  0.1900
 5171SOL    HW220450   4.852   2.753   6.132  0.1828 -0.6287  0.4399
 5171SOL    HW320451   4.888   2.638   6.041  0.7845  1.4354 -2.0286
 5171SOL    MW420452   4.832   2.701   6.066  0.1532  0.0477  0.0766
 5172SOL     OW20453   1.389   5.907   0.063 -0.4235 -0.1977  0.2147
 5172SOL    HW220454   1.299   5.940   0.063  0.7446  3.4794 -0.5790
 5172SOL    HW320455   1.391   5.842  -0.008 -2.2406  0.2793 -0.3144
 5172SOL    MW420456   1.377   5.903   0.054  0.0403  0.4921 -0.5886
 5173SOL     OW20457   2.152   0.345   2.724  0.0219  0.0808 -0.0735
 5173SOL    HW220458   2.098   0.343   2.803 -0.6321 -1.1979 -0.5260
 5173SOL    HW320459   2.238   0.372   2.755 -0.4129  0.3662  0.9509
 5173SOL    MW420460   2.156   0.348   2.738 -0.0067 -0.0260 -0.1834
 5174SOL     OW20461   6.304   1.629   0.928 -0.4970  0.0903 -0.1416
 5174SOL    HW220462   6.213   1.627   0.898  0.4806 -0.8598 -3.5137
 5174SOL    HW320463   6.338   1.543   0.904  1.8682  1.2202 -1.0819
 5174SOL    MW420464   6.296   1.617   0.921 -0.3763 -0.0935 -0.4058
 5175SOL     OW20465   3.859   3.644   0.664  0.2137 -0.2894 -0.3623
 5175SOL    HW220466   3.792   3.666   0.599  1.0188  0.1671 -1.0613
 5175SOL    HW320467   3.854   3.548   0.672 -1.1136 -0.1877  0.2655
 5175SOL    MW420468   3.849   3.634   0.657 -0.0228  0.3545  0.0766
 5176SOL     OW20469   2.044   0.708   2.691  0.3272 -0.6451  0.0286
 5176SOL    HW220470   2.090   0.754   2.621  0.3981  0.2991  0.6745
 5176SOL    HW320471   1.978   0.770   2.721 -1.0639 -1.7795 -0.5302
 5176SOL    MW420472   2.042   0.722   2.686 -0.2592 -0.2007 -0.1601
 5177SOL     OW20473   2.607   1.644   3.396  0.0482  0.0575  0.3350
 5177SOL    HW220474   2.604   1.578   3.327  1.0182  1.0207 -0.6602
 5177SOL    HW320475   2.552   1.715   3.364  2.0040  1.3334 -0.3959
 5177SOL    MW420476   2.600   1.644   3.383 -0.6456 -0.6677 -0.4953
 5178SOL     OW20477   1.722   4.858   2.100  0.5054  0.5426  0.2469
 5178SOL    HW220478   1.646   4.872   2.155  0.4638 -1.8609  0.8908
 5178SOL    HW320479   1.688   4.862   2.010  0.2825  2.7956  0.3754
 5178SOL    MW420480   1.708   4.860   2.095 -0.6334  0.6112 -0.5987
 5179SOL     OW20481   1.729   2.493   3.524  0.2144  0.0825  0.0072
 5179SOL    HW220482   1.817   2.456   3.516 -0.4869 -1.7583  0.2796
 5179SOL    HW320483   1.696   2.460   3.608 -0.5756  1.1345  0.1386
 5179SOL    MW420484   1.736   2.484   3.534  0.1450  0.1290 -0.0424
 5180SOL     OW20485   2.268   0.831   2.190 -0.1928 -0.4994 -0.1942
 5180SOL    HW220486   2.341   0.773   2.166 -1.7341 -2.1279 -1.2528
 5180SOL    HW320487   2.193   0.772   2.200 -1.2626  1.0495  1.4292
 5180SOL    MW420488   2.268   0.815   2.188  0.5628  0.4464  0.3665
 5181SOL     OW20489   4.263   4.695   5.891 -0.0932  0.0694 -0.8470
 5181SOL    HW220490   4.329   4.638   5.853 -0.0319  0.1084 -0.7997
 5181SOL    HW320491   4.300   4.723   5.974  0.5780  1.4718 -1.5907
 5181SOL    MW420492   4.276   4.691   5.897  0.0295 -0.1064  0.1438
 5182SOL     OW20493   0.783   3.807   4.324 -0.0893 -0.5145  0.3312
 5182SOL    HW220494   0.809   3.762   4.404  3.1090  0.4407 -0.0302
 5182SOL    HW320495   0.840   3.771   4.256 -0.0611  1.3728 -0.7183
 5182SOL    MW420496   0.794   3.797   4.325  0.0547 -0.4803  0.4076
 5183SOL     OW20497   2.247   1.512   1.085  0.2074  0.3830  0.2108
 5183SOL    HW220498   2.244   1.559   1.168 -0.4579  0.8358 -0.0594
 5183SOL    HW320499   2.272   1.422   1.109 -1.9484 -0.0214  1.1481
 5183SOL    MW420500   2.250   1.506   1.099 -0.2742  0.1587  0.0672
 5184SOL     OW20501   2.004   2.989   0.244  0.5756  0.3790 -0.1594
 5184SOL    HW220502   2.028   2.901   0.214 -0.6016  0.4909 -1.5400
 5184SOL    HW320503   1.916   2.978   0.280  1.2605  0.6084  1.6730
 5184SOL    MW420504   1.995   2.976   0.245 -0.4412  0.1085 -0.2377
 5185SOL     OW20505   1.492   0.220   3.887  0.3672  0.4941 -0.5413
 5185SOL    HW220506   1.496   0.300   3.835  0.9167  1.7286  1.2822
 5185SOL    HW320507   1.567   0.168   3.856  0.4355  1.0024 -1.2566
 5185SOL    MW420508   1.503   0.224   3.876  0.1909 -0.1074  0.5375
 5186SOL     OW20509   5.677   2.853   1.602  0.6049 -0.0499  0.0528
 5186SOL    HW220510   5.746   2.854   1.669  0.2144 -0.9691  0.4968
 5186SOL    HW320511   5.614   2.918   1.632  0.6844 -0.0857  0.3078
 5186SOL    MW420512   5.678   2.862   1.615  0.0055  0.6008  0.0785
 5187SOL     OW20513   0.791   5.059   5.915 -0.6113  0.3201 -0.5100
 5187SOL    HW220514   0.842   5.070   5.995 -2.3225 -0.2576  0.7395
 5187SOL    HW320515   0.774   4.965   5.910 -1.9984  0.5520 -0.5547
 5187SOL    MW420516   0.795   5.048   5.925 -0.3045  0.0981 -0.5717
 5188SOL     OW20517   5.588   1.236   2.073  0.1393  0.4658  0.6190
 5188SOL    HW220518   5.622   1.146   2.076 -0.4568  0.1668 -0.7208
 5188SOL    HW320519   5.654   1.288   2.118 -0.2126 -0.8360  2.7606
 5188SOL    MW420520   5.601   1.231   2.079 -0.0147 -0.8936  0.0985
 5189SOL     OW20521   1.869   5.514   6.237  0.2997 -0.3687 -0.1073
 5189SOL    HW220522   1.806   5.519   6.308  0.5849 -1.4962  0.2369
 5189SOL    HW320523   1.954   5.529   6.279  0.8092 -3.8372  0.3694
 5189SOL    MW420524   1.872   5.517   6.252 -0.2509  0.0391 -0.1738
 5190SOL     OW20525   1.159   5.958   1.305 -0.1646  0.5906 -0.8240
 5190SOL    HW220526   1.068   5.977   1.327  0.1515  0.0819  1.1255
 5190SOL    HW320527   1.208   5.986   1.382  1.6158  2.8260 -2.6199
 5190SOL    MW420528   1.153   5.965   1.318  0.4894 -0.4306  0.2186
 5191SOL     OW20529   1.328   3.089   3.955 -0.4586 -0.3196  0.3344
 5191SOL    HW220530   1.396   3.022   3.943 -0.5721 -0.4083  0.1793
 5191SOL    HW320531   1.271   3.054   4.023 -0.1304 -0.0695  0.7420
 5191SOL    MW420532   1.329   3.075   3.962 -0.2348 -0.3314  0.1506
 5192SOL     OW20533   3.738   2.664   5.245 -0.1839  0.7821 -0.6224
 5192SOL    HW220534   3.800   2.591   5.244 -0.3891  0.6069 -0.5030
 5192SOL    HW320535   3.738   2.693   5.336 -0.6910  0.4309 -0.5098
 5192SOL    MW420536   3.746   2.658   5.257 -0.5198 -0.3291 -0.2652
 5193SOL     OW20537   3.203   6.214   2.327 -0.2234 -0.4059 -0.1750
 5193SOL    HW220538   3.132   6.268   2.294  0.9629  1.0181 -0.5161
 5193SOL    HW320539   3.171   6.124   2.319 -1.3452  0.0984 -1.8168
 5193SOL    MW420540   3.189   6.209   2.322  0.2768 -0.2112 -0.1699
 5194SOL     OW20541   5.369   4.579   4.821  0.2108  0.0091  0.1285
 5194SOL    HW220542   5.368   4.614   4.910  2.0360 -0.8114  0.5209
 5194SOL    HW320543   5.392   4.487   4.831 -1.1327 -0.4919 -1.1077
 5194SOL    MW420544   5.372   4.572   4.834 -0.2806  0.8142 -0.6359
 5195SOL     OW20545   4.084   5.756   2.663  0.3913 -0.1751 -0.6727
 5195SOL    HW220546   4.093   5.682   2.723  0.2186  1.3850  1.3827
 5195SOL    HW320547   4.173   5.788   2.650  0.4912 -0.8231 -1.7391
 5195SOL    MW420548   4.097   5.750   2.670  0.1633  0.1760  0.1498
 5196SOL     OW20549   2.603   5.966   5.032 -0.2046  0.0306 -0.0033
 5196SOL    HW220550   2.659   6.014   5.093  0.1568 -2.2905  1.6188
 5196SOL    HW320551   2.663   5.936   4.964 -0.2246  0.8031 -0.3796
 5196SOL    MW420552   2.618   5.969   5.031 -0.2767 -0.1641 -0.2414
 5197SOL     OW20553   4.066   0.200   0.744  0.0003  0.2949  0.2494
 5197SOL    HW220554   3.992   0.252   0.773 -0.8314 -0.3328 -0.6719
 5197SOL    HW320555   4.135   0.264   0.724 -0.6241  0.9494  0.1663
 5197SOL    MW420556   4.065   0.215   0.745 -0.1144 -0.1459  0.7840
 5198SOL     OW20557   5.687   3.638   0.093  0.6669 -0.3126 -0.1211
 5198SOL    HW220558   5.652   3.684   0.016  1.9914 -1.0677 -1.2347
 5198SOL    HW320559   5.689   3.546   0.066 -0.1688 -0.7819  1.3630
 5198SOL    MW420560   5.683   3.632   0.079 -0.3935 -0.2002 -0.5102
 5199SOL     OW20561   5.814   0.643   5.658  0.2460  0.2005 -0.2963
 5199SOL    HW220562   5.869   0.669   5.585  1.0324  0.0480  0.2278
 5199SOL    HW320563   5.740   0.704   5.656 -0.3038 -0.4756 -1.8549
 5199SOL    MW420564   5.811   0.655   5.648  0.2789  0.0273 -0.1519
 5200SOL     OW20565   1.912   1.388   5.081 -0.0814 -0.9823 -0.2123
 5200SOL    HW220566   1.820   1.362   5.086 -0.8971  1.6231 -0.3603
 5200SOL    HW320567   1.941   1.391   5.172 -0.0231 -2.0585 -0.1768
 5200SOL    MW420568   1.904   1.385   5.094  0.2232  0.1689 -0.4710
 5201SOL     OW20569   3.237   2.291   5.994  0.5211  0.2024 -0.2109
 5201SOL    HW220570   3.218   2.284   5.900 -1.7817  1.1921  0.1060
 5201SOL    HW320571   3.189   2.369   6.022  2.0094  0.5249  1.6212
 5201SOL    MW420572   3.228   2.300   5.985  0.2109  0.0772 -0.0355
 5202SOL     OW20573   5.179   1.766   3.749  0.2853  0.5729 -0.6597
 5202SOL    HW220574   5.203   1.763   3.657 -2.8290 -1.0071 -1.5578
 5202SOL    HW320575   5.113   1.835   3.755 -0.1119  0.1323  0.2368
 5202SOL    MW420576   5.174   1.775   3.738 -0.2491  0.3632  0.2984
 5203SOL     OW20577   1.974   3.629   3.698  0.1521 -0.8117  0.5845
 5203SOL    HW220578   1.923   3.663   3.771 -0.6197 -1.0276  0.1622
 5203SOL    HW320579   2.034   3.700   3.675  0.2320 -0.6534  1.2652
 5203SOL    MW420580   1.975   3.643   3.705  1.0894 -0.0773 -0.0734
 5204SOL     OW20581   2.869   4.593   5.005 -0.4637 -0.6819 -0.0970
 5204SOL    HW220582   2.796   4.538   4.979 -0.6035 -0.7980  0.5203
 5204SOL    HW320583   2.840   4.635   5.086 -0.8653  1.2946 -1.1992
 5204SOL    MW420584   2.856   4.592   5.012  0.1591 -0.4094 -0.1280
 5205SOL     OW20585   2.578   4.285   5.223  0.3131  0.1000 -0.1216
 5205SOL    HW220586   2.649   4.228   5.253  1.2255  2.4240  2.4950
 5205SOL    HW320587   2.499   4.234   5.236  1.1924 -1.0843  0.8352
 5205SOL    MW420588   2.577   4.271   5.228  0.1754  0.2209  0.1090
 5206SOL     OW20589   3.276   5.098   0.042 -0.5441  0.4290  0.0770
 5206SOL    HW220590   3.256   5.037  -0.029 -3.3092  0.3166  0.8501
 5206SOL    HW320591   3.312   5.044   0.112  1.0357  0.3719 -0.7272
 5206SOL    MW420592   3.278   5.083   0.042  0.0051 -0.2923 -0.3203
 5207SOL     OW20593   1.441   1.950   0.343  0.6130  0.0747  0.1740
 5207SOL    HW220594   1.458   1.895   0.420  1.6906 -1.1429 -0.8828
 5207SOL    HW320595   1.360   1.914   0.306  2.4396 -2.4750 -1.7852
 5207SOL    MW420596   1.433   1.938   0.348  0.3704  0.0240 -0.0465
 5208SOL     OW20597   1.185   3.888   3.555 -0.0368  0.0889  0.6203
 5208SOL    HW220598   1.169   3.933   3.472  0.4047 -0.1663  0.3919
 5208SOL    HW320599   1.193   3.796   3.531 -0.1915 -0.0234  0.9876
 5208SOL    MW420600   1.184   3.882   3.541 -0.3666  0.0975 -0.5212
 5209SOL     OW20601   4.716   4.472   3.472 -0.0356  0.2562  0.2580
 5209SOL    HW220602   4.680   4.559   3.453  1.4921  0.9492  0.3822
 5209SOL    HW320603   4.758   4.445   3.391  1.8384  0.8653  0.9666
 5209SOL    MW420604   4.716   4.480   3.459 -0.0073 -0.2478 -0.3910
 5210SOL     OW20605   3.788   6.081   6.033 -0.4301 -0.1885  0.2157
 5210SOL    HW220606   3.884   6.077   6.033 -0.4577 -1.2258  1.3690
 5210SOL    HW320607   3.761   6.010   5.974 -0.5043  0.2462 -0.2869
 5210SOL    MW420608   3.797   6.071   6.025 -0.1250 -0.6456  0.2061
 5211SOL     OW20609   0.126   1.504   0.194 -0.1497  0.3823 -0.0404
 5211SOL    HW220610   0.147   1.566   0.263  0.6239 -1.3971  1.4162
 5211SOL    HW320611   0.057   1.546   0.143 -1.2926  1.4642  2.2745
 5211SOL    MW420612   0.120   1.517   0.196 -0.1144  0.3130 -0.0175
 5212SOL     OW20613   4.744   0.202   0.413 -0.5767  0.2025  0.0383
 5212SOL    HW220614   4.696   0.134   0.461 -0.3703  1.1918  1.7168
 5212SOL    HW320615   4.695   0.212   0.331 -0.2547 -2.3723 -0.5522
 5212SOL    MW420616   4.731   0.194   0.408  0.1304 -0.0637  0.0691
 5213SOL     OW20617   2.547   2.588   0.132 -0.2883  0.0129  0.0139
 5213SOL    HW220618   2.642   2.598   0.127 -0.1495 -1.0643  0.3841
 5213SOL    HW320619   2.533   2.514   0.190 -1.3918  0.8239  0.8389
 5213SOL    MW420620   2.558   2.580   0.139  0.3339  0.8394 -0.1458
 5214SOL     OW20621   5.982   1.487   6.111  0.3216  0.0897 -0.5509
 5214SOL    HW220622   5.930   1.542   6.170 -0.6648 -1.5494  0.1622
 5214SOL    HW320623   6.072   1.516   6.125 -0.2183  2.0027 -0.7491
 5214SOL    MW420624   5.987   1.498   6.121 -0.1675 -0.0762 -0.8127
 5215SOL     OW20625   1.144   5.087   0.359 -0.1089 -0.4581  0.4008
 5215SOL    HW220626   1.079   5.024   0.328 -1.5135  0.6455  0.9841
 5215SOL    HW320627   1.220   5.073   0.303 -0.6077 -2.2172  0.1007
 5215SOL    MW420628   1.146   5.077   0.348  0.0867  0.4734  0.2234
 5216SOL     OW20629   2.825   4.223   3.728  0.7785 -0.2488  0.4790
 5216SOL    HW220630   2.868   4.139   3.716 -0.6911 -1.0657  0.6799
 5216SOL    HW320631   2.814   4.258   3.640  0.7339 -0.6321  0.3312
 5216SOL    MW420632   2.829   4.216   3.715 -0.0329  0.9041 -0.5366
 5217SOL     OW20633   0.040   0.904   0.987  0.6216 -0.8715  0.1671
 5217SOL    HW220634   0.128   0.935   0.963 -0.0348  0.9247 -0.0279
 5217SOL    HW320635   0.056   0.843   1.059  2.1280 -1.5868 -0.7314
 5217SOL    MW420636   0.054   0.900   0.993  0.0977  0.5968  0.1817
 5218SOL     OW20637   5.354   0.395   5.416  0.1743 -0.6333  0.3286
 5218SOL    HW220638   5.269   0.431   5.442  0.3426 -0.4127  0.5733
 5218SOL    HW320639   5.332   0.315   5.369 -0.2486  0.1528 -0.8675
 5218SOL    MW420640   5.340   0.389   5.413 -0.3304  0.4359  0.8803
 5219SOL     OW20641   5.840   4.706   3.784 -0.9374  0.2913 -0.0710
 5219SOL    HW220642   5.808   4.663   3.863  0.9339 -0.6007  0.2314
 5219SOL    HW320643   5.897   4.642   3.742  0.9677  1.9987 -0.2411
 5219SOL    MW420644   5.843   4.692   3.789  1.4019 -0.0199 -0.2889
 5220SOL     OW20645   1.304   5.434   3.296  0.1889  0.0609  0.1270
 5220SOL    HW220646   1.221   5.474   3.321 -0.7019 -1.3294 -0.5246
 5220SOL    HW320647   1.370   5.499   3.322 -1.1640  1.8942 -0.8016
 5220SOL    MW420648   1.302   5.448   3.303  0.0202 -0.2633 -0.1824
 5221SOL     OW20649   0.772   3.255   2.715 -0.3486  0.5290  0.4757
 5221SOL    HW220650   0.744   3.339   2.680  0.6014  0.1681 -1.2774
 5221SOL    HW320651   0.759   3.262   2.810  0.8878  3.0877  0.5187
 5221SOL    MW420652   0.766   3.267   2.723 -0.2754 -0.1448 -0.3453
 5222SOL     OW20653   1.074   1.580   4.229  0.1455  0.3414  0.1023
 5222SOL    HW220654   1.043   1.496   4.261 -0.0410  0.1918 -0.4522
 5222SOL    HW320655   1.084   1.634   4.307 -2.0825  0.5764  0.2791
 5222SOL    MW420656   1.071   1.576   4.244 -0.4749  0.0854 -0.6152
 5223SOL     OW20657   1.395   3.571   5.092  0.3317  0.1525  0.3407
 5223SOL    HW220658   1.463   3.505   5.080 -0.3838 -1.1042  2.5626
 5223SOL    HW320659   1.439   3.643   5.137  0.8404  0.7515 -1.0379
 5223SOL    MW420660   1.410   3.572   5.096 -0.2637  0.6567 -0.5500
 5224SOL     OW20661   1.283   6.373   1.726  0.0355 -0.4497 -0.1852
 5224SOL    HW220662   1.216   6.321   1.682 -0.0791 -1.6323  1.2684
 5224SOL    HW320663   1.287   6.336   1.815  1.6633  0.4754  0.1766
 5224SOL    MW420664   1.275   6.361   1.732  0.0604  0.4126  0.0635
 5225SOL     OW20665   2.427   4.304   0.889 -0.2934  0.1336 -0.4434
 5225SOL    HW220666   2.417   4.365   0.816 -0.2570  0.6095 -0.0519
 5225SOL    HW320667   2.521   4.286   0.892  0.1961  2.4399  1.3264
 5225SOL    MW420668   2.438   4.309   0.880  0.1226 -0.3318  0.0149
 5226SOL     OW20669   6.078   3.600   6.239 -0.0646  0.0864 -0.1095
 5226SOL    HW220670   6.156   3.638   6.198 -0.2953 -1.1196 -1.8115
 5226SOL    HW320671   6.111   3.554   6.316  0.7812  0.3752 -0.2912
 5226SOL    MW420672   6.093   3.599   6.243 -0.3398  0.4006 -0.0711
 5227SOL     OW20673   3.539   3.486   0.850 -0.0074  0.4228 -0.0458
 5227SOL    HW220674   3.478   3.426   0.891  0.8570 -1.0249 -0.8029
 5227SOL    HW320675   3.614   3.490   0.910 -0.8507  2.3659  0.9927
 5227SOL    MW420676   3.541   3.479   0.863  0.2103  0.0822  1.0578
 5228SOL     OW20677   4.825   0.191   3.193  0.9760  0.2977  0.4503
 5228SOL    HW220678   4.836   0.171   3.100 -0.8948 -0.3789  0.3344
 5228SOL    HW320679   4.912   0.180   3.230  1.7449  0.5051 -1.2022
 5228SOL    MW420680   4.838   0.187   3.185  0.5273 -0.5336  0.4835
 5229SOL     OW20681   4.878   5.104   2.794 -0.9074 -0.1841 -0.0071
 5229SOL    HW220682   4.961   5.152   2.798 -1.7994  1.6608 -1.9774
 5229SOL    HW320683   4.832   5.129   2.874 -0.4245  0.4395  0.0832
 5229SOL    MW420684   4.883   5.114   2.805 -0.1014  0.3048 -0.3575
 5230SOL     OW20685   1.348   4.172   1.568  0.5977 -0.0280  0.1638
 5230SOL    HW220686   1.343   4.214   1.482 -1.8140  1.6223  1.0159
 5230SOL    HW320687   1.317   4.083   1.552 -0.2290  0.3764 -0.6306
 5230SOL    MW420688   1.343   4.166   1.554  0.2518  0.0341 -0.0585
 5231SOL     OW20689   0.442   1.991   5.377  0.1677  0.1726  0.0997
 5231SOL    HW220690   0.431   2.061   5.313  2.5331  0.8022  0.3098
 5231SOL    HW320691   0.527   1.952   5.357 -0.7674 -2.2403  0.4191
 5231SOL    MW420692   0.451   1.995   5.366  0.1086  0.4750  0.6302
 5232SOL     OW20693   1.247   3.621   3.476  0.3152 -0.5055 -0.3704
 5232SOL    HW220694   1.217   3.587   3.392  1.0200  2.6489 -2.0663
 5232SOL    HW320695   1.338   3.593   3.482  0.8314  0.7554 -1.6507
 5232SOL    MW420696   1.255   3.613   3.466  0.6401 -0.2439  0.0867
 5233SOL     OW20697   4.881   2.324   2.135  0.0174  0.3588  0.2737
 5233SOL    HW220698   4.917   2.337   2.223  0.0273  0.7467  0.2133
 5233SOL    HW320699   4.867   2.230   2.129  0.3106  0.2919  0.5776
 5233SOL    MW420700   4.884   2.314   2.146  0.5509 -0.0364 -0.0868
 5234SOL     OW20701   2.111   4.551   0.499 -0.1063 -0.4204  0.3632
 5234SOL    HW220702   2.135   4.609   0.571  0.3545 -0.4683  0.2539
 5234SOL    HW320703   2.133   4.463   0.531 -0.4155 -0.4962  0.3716
 5234SOL    MW420704   2.117   4.547   0.512  0.3355  0.1984 -0.0252
 5235SOL     OW20705   2.277   0.122   0.476  0.4764 -0.0853 -0.0431
 5235SOL    HW220706   2.354   0.072   0.503 -0.0265 -0.6023  0.4676
 5235SOL    HW320707   2.264   0.186   0.545 -0.6285 -1.2069  0.8392
 5235SOL    MW420708   2.285   0.124   0.488 -0.0409  0.4544  0.4267
 5236SOL     OW20709   0.981   5.000   1.086 -0.0779  0.3136 -0.3665
 5236SOL    HW220710   1.020   5.062   1.148 -1.4927  0.5331  0.3458
 5236SOL    HW320711   0.910   5.049   1.045 -1.6788 -1.0014  0.7077
 5236SOL    MW420712   0.977   5.015   1.089 -0.1267 -0.0623 -0.1075
 5237SOL     OW20713   0.494   5.654   0.301  0.4182  0.3147  0.0035
 5237SOL    HW220714   0.488   5.734   0.353 -0.1228  1.4843 -1.7842
 5237SOL    HW320715   0.587   5.633   0.299  0.3917 -0.3625  2.2244
 5237SOL    MW420716   0.505   5.662   0.308 -0.0748 -0.5887  0.0399
 5238SOL     OW20717   5.295   3.324   5.009  0.1145  0.2910  0.3509
 5238SOL    HW220718   5.277   3.365   5.094  1.6280 -1.4300  1.5857
 5238SOL    HW320719   5.372   3.270   5.024 -0.0934 -0.7679 -1.9153
 5238SOL    MW420720   5.302   3.322   5.022 -0.2205  0.1195 -0.4437
 5239SOL     OW20721   1.725   3.339   4.348 -0.2136 -0.1567 -0.2580
 5239SOL    HW220722   1.661   3.374   4.410 -2.0258  0.0250 -2.1288
 5239SOL    HW320723   1.690   3.254   4.321  0.8577 -0.5236 -0.5649
 5239SOL    MW420724   1.712   3.332   4.352 -0.0470 -0.2189  0.1540
 5240SOL     OW20725   0.797   4.015   2.361 -0.4315  0.9095  0.0826
 5240SOL    HW220726   0.886   4.006   2.394  1.6912  4.5753 -3.6916
 5240SOL    HW320727   0.763   4.093   2.405 -0.8905  0.8492 -0.1597
 5240SOL    MW420728   0.804   4.024   2.371 -0.0802  0.4989  0.0689
 5241SOL     OW20729   4.839   3.718   6.310  0.3017 -0.0665  0.1326
 5241SOL    HW220730   4.743   3.720   6.310  0.3225  1.1412  0.2885
 5241SOL    HW320731   4.865   3.779   6.379  1.1916 -0.2367 -0.0378
 5241SOL    MW420732   4.830   3.726   6.319 -0.2992 -0.2961 -0.0792
 5242SOL     OW20733   3.446   6.172   3.903  0.0725  0.2978 -0.0941
 5242SOL    HW220734   3.448   6.092   3.955 -3.4503  0.9494  1.2966
 5242SOL    HW320735   3.441   6.142   3.813 -0.3818 -1.0182  0.3520
 5242SOL    MW420736   3.446   6.158   3.898  0.3824 -0.5562  0.1622
 5243SOL     OW20737   0.155   5.329   1.361 -0.5944 -0.0755 -0.2219
 5243SOL    HW220738   0.073   5.294   1.324 -0.3829 -1.5551  0.6334
 5243SOL    HW320739   0.217   5.257   1.353  0.6640  1.0607 -0.9204
 5243SOL    MW420740   0.152   5.314   1.355 -0.1980 -0.2992  0.4012
 5244SOL     OW20741   5.452   3.615   2.469  0.3145 -0.5814 -0.8204
 5244SOL    HW220742   5.440   3.551   2.399  0.5475 -0.9348 -0.5364
 5244SOL    HW320743   5.402   3.692   2.440 -1.1022 -1.3595 -0.5307
 5244SOL    MW420744   5.444   3.617   2.456  0.3084 -0.5095 -0.0353
 5245SOL     OW20745   5.902   1.728   0.224  0.0777 -0.3382  0.8727
 5245SOL    HW220746   5.863   1.814   0.210  1.1030  0.1562  0.9846
 5245SOL    HW320747   5.827   1.670   0.240 -0.6955  0.3173 -0.2221
 5245SOL    MW420748   5.887   1.732   0.224  0.4629 -0.6664  0.0326
 5246SOL     OW20749   0.948   1.722   3.338 -0.1712 -0.1727 -0.2624
 5246SOL    HW220750   1.015   1.773   3.291  0.0354 -1.2771 -1.2073
 5246SOL    HW320751   0.956   1.751   3.429  0.0518  1.3564 -0.7335
 5246SOL    MW420752   0.958   1.733   3.344  0.2088  0.0577 -0.4606
 5247SOL     OW20753   4.046   5.145   0.053  0.4967  0.1487  0.0668
 5247SOL    HW220754   4.054   5.220  -0.006 -0.9653 -0.1088 -0.4827
 5247SOL    HW320755   4.121   5.155   0.113  0.9732  1.4121 -0.6836
 5247SOL    MW420756   4.057   5.157   0.053  0.0556  0.8030 -0.1363
 5248SOL     OW20757   4.820   2.004   0.160 -0.1899  0.0303 -0.0374
 5248SOL    HW220758   4.803   2.020   0.252  1.8161  0.0321  0.3696
 5248SOL    HW320759   4.838   2.090   0.123 -2.0352  0.1826 -0.7283
 5248SOL    MW420760   4.820   2.017   0.167  0.2524 -0.3364  0.0364
 5249SOL     OW20761   3.591   6.222   1.631 -0.2025 -0.0309 -0.0281
 5249SOL    HW220762   3.668   6.187   1.676  0.5909 -0.0157 -1.3305
 5249SOL    HW320763   3.612   6.216   1.538 -2.4118 -1.4590 -0.5026
 5249SOL    MW420764   3.604   6.217   1.625  0.4180 -0.1040  0.3081
 5250SOL     OW20765   5.638   6.073   4.874 -0.2924 -0.2759 -0.2569
 5250SOL    HW220766   5.556   6.117   4.851  0.0777  0.8531  0.4925
 5250SOL    HW320767   5.702   6.107   4.811  0.0106  0.3365  0.3680
 5250SOL    MW420768   5.636   6.083   4.863 -0.6823 -0.2329 -0.5736
 5251SOL     OW20769   0.823   3.633   3.536 -0.2616  0.1935  0.0906
 5251SOL    HW220770   0.889   3.651   3.603  1.3534  0.4360 -1.4970
 5251SOL    HW320771   0.813   3.538   3.536 -0.6896  0.2238  1.0190
 5251SOL    MW420772   0.830   3.623   3.545  0.0315  0.0293  0.2090
 5252SOL     OW20773   1.001   5.471   5.276  0.1864  0.2702 -0.2750
 5252SOL    HW220774   0.917   5.515   5.289 -0.3770 -0.5001 -1.1872
 5252SOL    HW320775   0.988   5.416   5.199  1.4005 -0.1928 -0.1741
 5252SOL    MW420776   0.988   5.469   5.268  0.0531 -0.3473  0.3242
 5253SOL     OW20777   4.339   4.717   2.996 -0.1914 -0.1512  0.0055
 5253SOL    HW220778   4.325   4.626   2.970  3.3518 -0.7432 -0.2729
 5253SOL    HW320779   4.348   4.765   2.914  2.7604 -0.5385 -0.0095
 5253SOL    MW420780   4.338   4.711   2.982 -0.1877 -0.0331 -0.1869
 5254SOL     OW20781   0.596   0.316   0.355  0.2431  0.9713 -0.0240
 5254SOL    HW220782   0.575   0.409   0.350 -1.8758  0.5683  0.4999
 5254SOL    HW320783   0.611   0.299   0.448 -0.2565  0.6154 -0.0068
 5254SOL    MW420784   0.595   0.326   0.366 -0.3919  0.4651  0.6389
 5255SOL     OW20785   0.451   4.826   5.129 -0.0117 -0.2255 -0.1014
 5255SOL    HW220786   0.521   4.868   5.179 -0.2837  0.5842 -0.3814
 5255SOL    HW320787   0.405   4.772   5.193 -0.5444  1.0358  0.6189
 5255SOL    MW420788   0.454   4.825   5.144  0.3279 -0.8456 -0.7292
 5256SOL     OW20789   3.740   4.449   0.804 -0.1828  0.6517 -0.0728
 5256SOL    HW220790   3.718   4.387   0.874  3.5112 -1.0256 -0.1682
 5256SOL    HW320791   3.722   4.401   0.723  2.5558 -0.4475 -0.1456
 5256SOL    MW420792   3.735   4.434   0.802  0.0761 -0.0186 -0.3043
 5257SOL     OW20793   1.426   1.623   5.393 -0.2593  0.4901 -0.2118
 5257SOL    HW220794   1.395   1.583   5.475 -2.5591  0.6130 -0.9577
 5257SOL    HW320795   1.434   1.716   5.414 -0.5341  0.4756 -0.0283
 5257SOL    MW420796   1.423   1.630   5.407 -0.0724 -0.2555  0.1866
 5258SOL     OW20797   2.779   0.576   5.817 -0.0722  1.1644 -0.2199
 5258SOL    HW220798   2.867   0.546   5.838 -0.5657 -0.3013 -0.1751
 5258SOL    HW320799   2.723   0.499   5.826 -1.1752  1.7563 -1.4600
 5258SOL    MW420800   2.783   0.562   5.821 -0.0634 -0.4077 -0.3378
 5259SOL     OW20801   2.776   6.136   5.189 -0.5407 -0.2567 -0.7261
 5259SOL    HW220802   2.833   6.075   5.235  0.1633 -0.2178 -1.5185
 5259SOL    HW320803   2.769   6.212   5.247  1.3728  0.3361 -1.1779
 5259SOL    MW420804   2.783   6.138   5.203 -0.2651 -0.4872 -0.3290
 5260SOL     OW20805   0.248   5.860   5.201  0.5847 -0.6112  0.2228
 5260SOL    HW220806   0.245   5.806   5.281 -0.2678 -0.1708  0.5030
 5260SOL    HW320807   0.339   5.888   5.194  0.5773 -0.2784  1.3025
 5260SOL    MW420808   0.260   5.856   5.211 -0.0204 -0.3063  0.0627
 5261SOL     OW20809   3.382   3.008   5.021 -0.2549 -0.2832 -0.5735
 5261SOL    HW220810   3.326   2.976   4.951 -0.5712 -0.7264 -0.1296
 5261SOL    HW320811   3.419   2.929   5.060 -0.8746 -0.1188  0.3989
 5261SOL    MW420812   3.379   2.994   5.017  0.0081  0.5243  0.3125
 5262SOL     OW20813   3.681   0.254   1.836 -0.0973 -0.5404  0.6856
 5262SOL    HW220814   3.667   0.294   1.922  1.6174 -0.6285  1.0478
 5262SOL    HW320815   3.751   0.190   1.851  1.3411  0.5213 -1.0682
 5262SOL    MW420816   3.688   0.251   1.850  0.5973 -0.0833 -0.4277
 5263SOL     OW20817   2.338   5.784   4.760  0.1230  0.1590  0.0492
 5263SOL    HW220818   2.373   5.872   4.777 -0.6138  0.1138  2.1691
 5263SOL    HW320819   2.402   5.725   4.799 -0.6545 -0.0697  1.0431
 5263SOL    MW420820   2.351   5.788   4.768 -0.0944 -0.2778 -0.2716
 5264SOL     OW20821   3.661   0.592   4.781  0.3309 -0.2796 -0.6164
 5264SOL    HW220822   3.567   0.598   4.761  0.0649  0.7165  0.7717
 5264SOL    HW320823   3.697   0.538   4.710 -1.3749 -1.1330 -0.9055
 5264SOL    MW420824   3.653   0.585   4.769 -0.3275  0.0679 -0.3859
 5265SOL     OW20825   4.258   1.086   5.256  0.0898  0.2274 -0.7067
 5265SOL    HW220826   4.297   1.094   5.169 -1.7592  0.5474 -1.5370
 5265SOL    HW320827   4.220   1.172   5.273 -1.5512 -0.5025 -0.5851
 5265SOL    MW420828   4.258   1.098   5.247  0.1062 -1.0169 -0.3694
 5266SOL     OW20829   1.563   0.758   0.646  0.6215 -0.5409  0.9205
 5266SOL    HW220830   1.511   0.680   0.665 -0.6493 -0.1841 -0.7987
 5266SOL    HW320831   1.608   0.737   0.564  1.7752 -0.1447  1.4288
 5266SOL    MW420832   1.562   0.745   0.638  0.1630  0.0676  0.7574
 5267SOL     OW20833   5.640   2.308   5.363 -0.2256 -0.3790 -0.5143
 5267SOL    HW220834   5.682   2.394   5.365  0.4612 -0.7163 -0.2087
 5267SOL    HW320835   5.549   2.327   5.337 -0.1042  0.4421 -0.3847
 5267SOL    MW420836   5.633   2.322   5.360 -0.2974 -0.3153 -0.1152
 5268SOL     OW20837   1.397   1.786   2.853 -0.5474  0.2408 -0.5784
 5268SOL    HW220838   1.391   1.727   2.778 -1.1110  1.1463 -1.2743
 5268SOL    HW320839   1.481   1.831   2.841 -0.0840 -0.4551 -0.0095
 5268SOL    MW420840   1.408   1.784   2.841  0.3020  0.7056  0.1173
 5269SOL     OW20841   4.455   2.683   1.891 -0.3938  0.0909  0.4961
 5269SOL    HW220842   4.397   2.631   1.947 -0.5880  1.0809  1.2474
 5269SOL    HW320843   4.409   2.765   1.878 -1.5059 -0.9341 -3.2179
 5269SOL    MW420844   4.441   2.687   1.897  0.4148 -0.5351  0.0473
 5270SOL     OW20845   5.513   3.500   3.389  0.0830 -0.5453  0.1160
 5270SOL    HW220846   5.480   3.552   3.462  0.7377  0.9095 -0.5669
 5270SOL    HW320847   5.435   3.467   3.345 -0.3260 -0.9518  1.1174
 5270SOL    MW420848   5.499   3.503   3.392 -0.6790 -0.1580 -0.6423
 5271SOL     OW20849   0.991   4.086   0.298  0.1019 -0.4737 -0.1425
 5271SOL    HW220850   0.913   4.083   0.243  0.2360 -0.2674 -0.3451
 5271SOL    HW320851   0.962   4.131   0.378 -0.1414 -0.9446  0.0357
 5271SOL    MW420852   0.977   4.092   0.302 -0.0670 -0.3426 -0.0255
 5272SOL     OW20853   4.882   1.842   2.713  0.4444 -0.0886  0.0184
 5272SOL    HW220854   4.892   1.924   2.664 -1.1026  0.0216 -0.1619
 5272SOL    HW320855   4.852   1.779   2.648  0.5484 -0.5230  0.3859
 5272SOL    MW420856   4.879   1.845   2.698 -0.2391  0.2863 -0.2396
 5273SOL     OW20857   2.463   3.669   0.903 -0.2352  0.1745  0.5405
 5273SOL    HW220858   2.456   3.764   0.896 -0.3516  0.1318  0.0335
 5273SOL    HW320859   2.504   3.654   0.988  0.6597  0.7134  0.2112
 5273SOL    MW420860   2.467   3.680   0.913  0.4662 -0.1447  0.5405
 5274SOL     OW20861   3.954   6.061   3.069  0.0352  0.1283 -0.2696
 5274SOL    HW220862   3.955   6.156   3.058 -0.0532  0.3899  1.6389
 5274SOL    HW320863   4.011   6.028   2.999  0.5514  1.6301 -0.5873
 5274SOL    MW420864   3.962   6.069   3.058  0.3439  0.2457 -0.0383
 5275SOL     OW20865   5.162   4.377   0.531 -0.2965 -0.2724  0.7378
 5275SOL    HW220866   5.179   4.434   0.456 -0.5793  0.5203  1.2652
 5275SOL    HW320867   5.193   4.426   0.607  0.0577 -1.0943  1.1477
 5275SOL    MW420868   5.169   4.391   0.531 -0.7548  0.1888 -0.9926
 5276SOL     OW20869   2.381   1.167   4.037  0.3528 -0.7349 -0.2985
 5276SOL    HW220870   2.328   1.208   3.970  0.6669  1.5643  0.7703
 5276SOL    HW320871   2.455   1.129   3.989  0.5686  0.8431 -1.2869
 5276SOL    MW420872   2.384   1.167   4.022 -0.3947  0.1958  0.0512
 5277SOL     OW20873   5.336   2.319   5.998 -0.4103  0.1860 -0.2380
 5277SOL    HW220874   5.253   2.305   5.953 -1.1582  1.1138  0.7832
 5277SOL    HW320875   5.336   2.254   6.069  0.8149 -1.3513 -1.5598
 5277SOL    MW420876   5.325   2.308   6.002  0.5024 -0.6262  0.3122
 5278SOL     OW20877   3.786   3.259   2.311 -0.2141 -0.0824 -0.1487
 5278SOL    HW220878   3.748   3.345   2.330 -2.2219 -1.0026  0.3423
 5278SOL    HW320879   3.742   3.231   2.231 -1.7266 -1.7717  1.1782
 5278SOL    MW420880   3.775   3.266   2.303 -0.0254  0.0383 -0.0425
 5279SOL     OW20881   5.628   0.944   1.940  0.5222  0.1061  0.0287
 5279SOL    HW220882   5.596   0.978   1.857  1.2081 -1.3601 -0.8729
 5279SOL    HW320883   5.569   0.871   1.959  0.4657  0.3367  0.7650
 5279SOL    MW420884   5.616   0.939   1.932  0.1909  0.0855  0.2559
 5280SOL     OW20885   2.478   2.148   1.995  0.1467  0.3879  0.0598
 5280SOL    HW220886   2.426   2.157   1.915  1.9774 -0.9856 -1.4043
 5280SOL    HW320887   2.438   2.075   2.042  1.1588 -1.2645 -1.4994
 5280SOL    MW420888   2.466   2.139   1.990  0.4387 -0.2078 -0.0727
 5281SOL     OW20889   0.360   3.424   1.399  0.8332  0.2663  0.1283
 5281SOL    HW220890   0.323   3.373   1.327 -0.8181 -0.0668  1.1440
 5281SOL    HW320891   0.399   3.501   1.357 -0.3163  0.2067 -1.1035
 5281SOL    MW420892   0.360   3.428   1.384 -0.5539 -0.1047  0.1236
 5282SOL     OW20893   3.709   2.989   2.121 -0.2041 -0.3463 -0.3254
 5282SOL    HW220894   3.616   2.975   2.102 -0.6332  1.2116  0.4333
 5282SOL    HW320895   3.727   3.077   2.087  0.2004  0.5975  2.1337
 5282SOL    MW420896   3.699   2.999   2.114  0.3482 -0.1755  0.5697
 5283SOL     OW20897   3.159   0.305   6.215 -0.1051  0.9384 -0.1248
 5283SOL    HW220898   3.089   0.243   6.195  0.2113  1.4644 -3.4620
 5283SOL    HW320899   3.114   0.386   6.239 -0.8716  1.7825 -3.8571
 5283SOL    MW420900   3.144   0.308   6.216 -0.2233 -0.0963 -0.3301
 5284SOL     OW20901   1.663   5.496   1.593  0.0820 -0.0804 -0.4281
 5284SOL    HW220902   1.675   5.404   1.614 -2.1970 -0.2659  0.2897
 5284SOL    HW320903   1.750   5.527   1.568  0.8503 -2.4593 -0.8951
 5284SOL    MW420904   1.676   5.488   1.592  0.7793 -0.0161 -0.6154
 5285SOL     OW20905   0.637   0.587   2.798 -0.6810  0.1586 -0.1727
 5285SOL    HW220906   0.600   0.511   2.753 -0.0320  0.0441 -0.5300
 5285SOL    HW320907   0.614   0.574   2.890 -0.5494 -0.4885 -0.2265
 5285SOL    MW420908   0.629   0.575   2.804  0.5948  0.3951 -0.4119
 5286SOL     OW20909   0.340   3.029   2.753  0.1546  0.5351 -0.7889
 5286SOL    HW220910   0.308   2.986   2.673  1.4744 -2.5510  0.1830
 5286SOL    HW320911   0.286   2.993   2.823  0.3375  1.6652 -0.0436
 5286SOL    MW420912   0.328   3.019   2.751 -0.0991  0.5267 -0.1304
 5287SOL     OW20913   6.158   5.495   1.273  0.6640  0.0309 -0.1603
 5287SOL    HW220914   6.106   5.503   1.353 -0.1683  1.1499 -0.7806
 5287SOL    HW320915   6.094   5.502   1.202  1.7138  2.5404 -0.9749
 5287SOL    MW420916   6.142   5.497   1.274 -0.0488 -0.1958 -0.2482
 5288SOL     OW20917   4.224   2.503   2.519  0.2916 -0.3540 -0.2312
 5288SOL    HW220918   4.257   2.586   2.484 -0.4350 -0.2228 -0.6237
 5288SOL    HW320919   4.129   2.513   2.520  0.2205 -0.9975  0.1945
 5288SOL    MW420920   4.216   2.515   2.514  0.0282  0.3554  0.3082
 5289SOL     OW20921   3.999   0.719   5.367 -0.2726 -0.3690 -0.5149
 5289SOL    HW220922   4.082   0.768   5.372 -0.3531 -0.0045 -2.2622
 5289SOL    HW320923   3.996   0.669   5.449  0.4119  1.5993  0.7957
 5289SOL    MW420924   4.010   0.719   5.379 -0.0969 -0.3031  0.0219
 5290SOL     OW20925   0.668   1.360   2.293  0.3102  0.0765  0.1348
 5290SOL    HW220926   0.748   1.333   2.338  1.5216 -1.8869 -2.8658
 5290SOL    HW320927   0.607   1.289   2.308  0.6973 -0.5580 -1.0975
 5290SOL    MW420928   0.671   1.347   2.301  0.3337 -0.3073  0.3498
 5291SOL     OW20929   5.688   4.424   3.646 -0.0369  0.5286  0.1921
 5291SOL    HW220930   5.665   4.508   3.605 -0.2410  0.1162 -0.5630
 5291SOL    HW320931   5.610   4.401   3.697  1.3782  2.6854  3.7189
 5291SOL    MW420932   5.674   4.432   3.647 -0.1405 -0.0751 -0.2327
 5292SOL     OW20933   1.326   5.294   5.856  0.2550 -0.3306 -0.6240
 5292SOL    HW220934   1.359   5.365   5.800 -0.4987  1.4142  1.0114
 5292SOL    HW320935   1.232   5.294   5.841  0.0847 -0.0487  0.3715
 5292SOL    MW420936   1.318   5.304   5.846  0.6030  0.1273 -0.2951
 5293SOL     OW20937   5.892   2.530   5.838  0.1957 -0.2343  0.2854
 5293SOL    HW220938   5.949   2.524   5.915 -0.4464  3.8478  1.2947
 5293SOL    HW320939   5.805   2.511   5.871 -0.0521  1.3254  0.6073
 5293SOL    MW420940   5.888   2.527   5.852  0.2994 -0.0151 -0.2827
 5294SOL     OW20941   2.056   1.254   1.645 -0.2778  0.4525 -0.9159
 5294SOL    HW220942   2.136   1.304   1.633  0.7923 -1.0663 -0.4727
 5294SOL    HW320943   2.023   1.281   1.731 -0.6441  1.5903 -1.4015
 5294SOL    MW420944   2.062   1.264   1.655  0.1951 -0.4213 -0.9282
 5295SOL     OW20945   4.175   1.979   4.871 -0.6293 -0.3712 -0.1363
 5295SOL    HW220946   4.214   2.022   4.795  0.3236 -1.0048 -0.0161
 5295SOL    HW320947   4.130   1.902   4.834 -0.8505 -0.2357 -0.1504
 5295SOL    MW420948   4.174   1.974   4.856 -0.3107  0.9341  0.1375
 5296SOL     OW20949   3.467   5.187   1.016  0.2021 -0.1235  0.0371
 5296SOL    HW220950   3.452   5.238   1.096  0.5866 -1.8911  1.2876
 5296SOL    HW320951   3.391   5.129   1.011  0.9757 -1.1491  0.0332
 5296SOL    MW420952   3.455   5.186   1.026  0.0293  0.4423 -0.1728
 5297SOL     OW20953   5.757   3.418   0.387  0.6942  0.4154  0.0183
 5297SOL    HW220954   5.716   3.497   0.423  0.0560 -0.4230  1.2001
 5297SOL    HW320955   5.693   3.384   0.324  2.3740  2.6478 -3.2284
 5297SOL    MW420956   5.743   3.424   0.383 -0.4498  0.7085 -0.1567
 5298SOL     OW20957   2.983   1.201   2.908 -0.4288 -0.7271 -0.0603
 5298SOL    HW220958   3.043   1.135   2.874  0.4647  1.3554 -2.8182
 5298SOL    HW320959   2.992   1.276   2.849 -4.3098  0.4416  0.5180
 5298SOL    MW420960   2.992   1.202   2.896  0.6794  0.8141 -0.2601
 5299SOL     OW20961   5.840   0.987   3.753 -0.0635 -0.2110  0.3064
 5299SOL    HW220962   5.786   0.933   3.810  0.5018 -1.1822 -0.0513
 5299SOL    HW320963   5.847   0.937   3.672 -1.4339  1.4536 -0.9201
 5299SOL    MW420964   5.834   0.973   3.750  0.3232 -0.4098 -0.1559
 5300SOL     OW20965   5.693   4.355   6.350  0.0538 -0.1003 -0.6091
 5300SOL    HW220966   5.655   4.396   6.428 -0.7822 -1.5163 -0.2397
 5300SOL    HW320967   5.672   4.262   6.359  4.0397 -1.1243 -0.1455
 5300SOL    MW420968   5.685   4.349   6.362  0.5307 -0.1923 -0.7598
 5301SOL     OW20969   4.752   5.065   5.903 -0.3241 -0.2318  0.4572
 5301SOL    HW220970   4.831   5.016   5.924 -0.6877 -0.7804  0.5646
 5301SOL    HW320971   4.705   5.009   5.842 -0.5666  0.1541  0.2840
 5301SOL    MW420972   4.756   5.051   5.898 -0.4884 -0.1716  0.0404
 5302SOL     OW20973   0.463   6.300   4.604  0.4159  0.4568 -0.5684
 5302SOL    HW220974   0.516   6.228   4.638  0.0250  1.2023  1.8151
 5302SOL    HW320975   0.417   6.263   4.528  0.8645 -1.5435  0.0839
 5302SOL    MW420976   0.464   6.286   4.599  0.2538  0.0362 -0.4242
 5303SOL     OW20977   4.577   0.459   3.594  0.4536  0.4311  0.3002
 5303SOL    HW220978   4.538   0.378   3.626  1.1011 -0.5124 -1.1669
 5303SOL    HW320979   4.509   0.525   3.604 -0.3216 -0.4410  0.8976
 5303SOL    MW420980   4.563   0.457   3.599 -0.2182 -0.3241  0.7375
 5304SOL     OW20981   2.505   0.171   3.346  0.4311  0.3961 -0.0157
 5304SOL    HW220982   2.555   0.170   3.428 -2.4543 -1.6318  1.9195
 5304SOL    HW320983   2.536   0.094   3.298  1.1178  0.7784 -0.2055
 5304SOL    MW420984   2.516   0.161   3.350 -0.2385  0.6435 -0.8653
 5305SOL     OW20985   4.201   0.256   2.902 -0.0594  0.7280 -0.2763
 5305SOL    HW220986   4.112   0.229   2.924  0.0849  0.7228  0.3283
 5305SOL    HW320987   4.207   0.347   2.931  0.0008  0.8628 -0.7041
 5305SOL    MW420988   4.190   0.264   2.909  0.5445 -0.3277  0.7577
 5306SOL     OW20989   5.661   2.541   5.962 -0.1326  0.1868 -0.1473
 5306SOL    HW220990   5.589   2.559   5.901 -1.0019  0.9604  1.0628
 5306SOL    HW320991   5.700   2.627   5.979  1.6208 -0.3036 -1.3749
 5306SOL    MW420992   5.657   2.555   5.956  0.3681  0.1674 -0.2604
 5307SOL     OW20993   2.350   0.564   5.298 -0.3805  0.0041  0.3252
 5307SOL    HW220994   2.342   0.493   5.234  2.1851  1.2429 -1.5681
 5307SOL    HW320995   2.273   0.619   5.283 -1.5473 -1.4745  0.7043
 5307SOL    MW420996   2.339   0.562   5.288  0.4669 -0.2239  0.3365
 5308SOL     OW20997   2.740   0.096   1.268  0.1362  0.7979  1.0091
 5308SOL    HW220998   2.774   0.007   1.262  0.6515  1.0949 -3.0463
 5308SOL    HW320999   2.817   0.152   1.252 -0.5722  1.8663  1.2327
 5308SOL    MW421000   2.755   0.092   1.265  0.0115  0.4468 -0.1918
 5309SOL     OW21001   3.665   3.094   3.359 -0.2965 -0.0060  0.1814
 5309SOL    HW221002   3.631   3.104   3.270 -1.4913 -2.5849  0.2679
 5309SOL    HW321003   3.759   3.112   3.350 -0.7065  1.8033 -1.1379
 5309SOL    MW421004   3.673   3.098   3.346 -0.0638 -0.3515  0.3692
 5310SOL     OW21005   5.609   2.924   4.971  0.2013 -0.0780  0.1219
 5310SOL    HW221006   5.544   2.934   4.902  0.2058 -0.1628  0.1066
 5310SOL    HW321007   5.607   2.831   4.994 -0.4443  0.1124  0.8670
 5310SOL    MW421008   5.600   2.913   4.965  0.5915  0.6776  0.0740
 5311SOL     OW21009   5.644   0.150   1.646  0.0215 -0.3809 -0.2179
 5311SOL    HW221010   5.672   0.066   1.683  2.4919  0.3793 -0.2091
 5311SOL    HW321011   5.641   0.209   1.720  1.1753  0.2160 -0.6257
 5311SOL    MW421012   5.647   0.146   1.660 -0.2727 -0.0317  0.2855
 5312SOL     OW21013   4.973   1.757   1.400  0.3885  0.2081  0.0136
 5312SOL    HW221014   4.893   1.777   1.352  1.0478  0.6223 -0.9411
 5312SOL    HW321015   5.044   1.771   1.337  1.2746  0.6867  1.0726
 5312SOL    MW421016   4.972   1.762   1.385  0.0262 -0.4766  0.5622
 5313SOL     OW21017   2.523   6.237   3.056  0.0430  0.2436  0.6155
 5313SOL    HW221018   2.575   6.247   3.136 -0.9087 -0.0463  1.2888
 5313SOL    HW321019   2.432   6.248   3.085 -0.2861  0.6506 -0.5211
 5313SOL    MW421020   2.518   6.240   3.070 -0.0777 -0.0367 -0.3020
 5314SOL     OW21021   1.903   6.321   4.269 -0.1070 -0.0590  0.2754
 5314SOL    HW221022   1.905   6.357   4.181  1.0811  0.9668  0.6886
 5314SOL    HW321023   1.862   6.235   4.259  1.9599 -0.9331 -1.6578
 5314SOL    MW421024   1.898   6.314   4.256  0.0222  0.1108 -0.4785
 5315SOL     OW21025   3.680   4.672   4.471 -0.0411 -0.2693  0.2358
 5315SOL    HW221026   3.701   4.635   4.385  1.7600  0.3518  0.3690
 5315SOL    HW321027   3.738   4.626   4.532 -1.2337 -0.6360  1.1289
 5315SOL    MW421028   3.691   4.661   4.467  0.6234 -0.6290  0.1841
 5316SOL     OW21029   4.865   5.873   3.426 -0.0083 -0.1211 -0.3821
 5316SOL    HW221030   4.772   5.873   3.449  0.4378 -1.3427  1.6082
 5316SOL    HW321031   4.881   5.785   3.390  0.4555 -0.0532 -0.3490
 5316SOL    MW421032   4.855   5.861   3.424 -0.0146 -0.0848  0.6718
 5317SOL     OW21033   0.037   2.042   5.113  0.0918  0.0007  0.1402
 5317SOL    HW221034   0.016   2.021   5.022  0.4826 -1.8874  0.4363
 5317SOL    HW321035  -0.040   2.014   5.162  0.3359 -0.0617  0.4915
 5317SOL    MW421036   0.024   2.036   5.107 -0.2594 -0.0674  0.0492
 5318SOL     OW21037   6.014   0.763   5.502  0.1757 -0.0494  0.0402
 5318SOL    HW221038   6.018   0.832   5.567 -0.7976  0.3276 -0.2775
 5318SOL    HW321039   6.009   0.810   5.418  0.1482 -0.5132 -0.2203
 5318SOL    MW421040   6.014   0.778   5.499 -0.1560 -0.6275  0.4164
 5319SOL     OW21041   0.571   1.326   1.199 -0.3496 -0.0022  0.2389
 5319SOL    HW221042   0.475   1.326   1.205 -0.4084  3.1136  1.3703
 5319SOL    HW321043   0.592   1.411   1.160  1.9864  0.4735  2.2536
 5319SOL    MW421044   0.561   1.337   1.195 -0.4765 -0.1511  0.3542
 5320SOL     OW21045   1.873   2.395   2.825  0.3014  0.4496 -0.0228
 5320SOL    HW221046   1.867   2.485   2.794  1.6954 -0.2929 -2.7479
 5320SOL    HW321047   1.899   2.345   2.748  1.0684 -2.0737  1.7547
 5320SOL    MW421048   1.876   2.400   2.811 -0.2100 -0.0789  0.0166
 5321SOL     OW21049   0.363   5.159   2.259 -0.2258  0.6426 -0.3331
 5321SOL    HW221050   0.435   5.158   2.197  2.0832  0.6261  2.1607
 5321SOL    HW321051   0.304   5.227   2.227  0.8621  0.6538 -2.4644
 5321SOL    MW421052   0.364   5.168   2.247  0.1374  0.6493 -0.3866
 5322SOL     OW21053   4.120   5.981   3.322 -0.3255 -0.0355  0.5508
 5322SOL    HW221054   4.066   5.978   3.243 -0.4020  0.5553  0.5747
 5322SOL    HW321055   4.203   6.019   3.293 -0.5861  0.8121  0.8748
 5322SOL    MW421056   4.124   5.986   3.308  0.0633 -0.0466 -0.3473
 5323SOL     OW21057   4.201   4.928   0.291 -0.1506  0.2474  0.1097
 5323SOL    HW221058   4.227   5.005   0.242 -1.8646  0.7722 -0.0531
 5323SOL    HW321059   4.106   4.923   0.279 -0.0469 -2.1015 -0.1926
 5323SOL    MW421060   4.192   4.937   0.283  0.1825 -0.0013 -0.0587
 5324SOL     OW21061   1.081   3.294   2.692  0.4246  0.2914 -0.7197
 5324SOL    HW221062   0.994   3.265   2.721  0.0770  0.6732 -1.3492
 5324SOL    HW321063   1.138   3.220   2.711  0.2416  0.5375  0.9737
 5324SOL    MW421064   1.077   3.280   2.698  0.5179 -0.0764 -0.4800
 5325SOL     OW21065   1.166   3.063   5.798 -0.1054 -0.2694  0.4780
 5325SOL    HW221066   1.112   3.063   5.877 -1.1240 -0.8093 -0.1810
 5325SOL    HW321067   1.110   3.021   5.732  0.3206  1.0504 -0.7786
 5325SOL    MW421068   1.151   3.057   5.799  0.2875 -0.1381  0.5726
 5326SOL     OW21069   0.533   4.896   6.092  0.5719  0.1266  0.4217
 5326SOL    HW221070   0.573   4.916   6.177 -0.3562  3.8669  0.1437
 5326SOL    HW321071   0.519   4.981   6.051 -3.6064 -1.1574 -1.3736
 5326SOL    MW421072   0.536   4.910   6.098  0.4855 -0.4079  0.1947
 5327SOL     OW21073   4.459   0.227   3.698 -0.3588  0.2935  0.8137
 5327SOL    HW221074   4.391   0.182   3.647  0.5053 -0.5125  0.3346
 5327SOL    HW321075   4.536   0.171   3.689  0.2762  1.0109  1.6367
 5327SOL    MW421076   4.460   0.213   3.690  0.2044  0.0528  0.8103
 5328SOL     OW21077   3.735   0.953   0.997 -0.2652 -0.2944 -1.0197
 5328SOL    HW221078   3.675   0.887   1.033 -0.1402 -0.1450 -0.5417
 5328SOL    HW321079   3.810   0.951   1.055  0.4834 -0.9268 -1.9755
 5328SOL    MW421080   3.737   0.944   1.009 -0.1440  0.4896 -0.1821
 5329SOL     OW21081   1.936   3.779   2.788  0.0344  0.1073 -0.1391
 5329SOL    HW221082   1.905   3.824   2.866 -1.3268 -1.1189  0.0684
 5329SOL    HW321083   2.000   3.716   2.820  0.3949  0.4471 -0.1795
 5329SOL    MW421084   1.940   3.777   2.802  0.0729  0.7920  0.8613
 5330SOL     OW21085   2.628   3.551   5.022 -0.4078  0.3734 -0.4195
 5330SOL    HW221086   2.539   3.515   5.021 -0.5076  0.6105 -1.6913
 5330SOL    HW321087   2.636   3.597   4.939  0.7924  0.6524 -0.1649
 5330SOL    MW421088   2.617   3.552   5.011 -0.5408  0.2006 -0.0168
 5331SOL     OW21089   3.606   1.935   3.089 -0.2940 -0.2358  0.2205
 5331SOL    HW221090   3.624   1.943   3.182 -0.9851 -1.1152  0.4472
 5331SOL    HW321091   3.554   1.855   3.081 -0.9864  0.2872 -0.8179
 5331SOL    MW421092   3.601   1.925   3.100 -0.0507  0.3561  0.1661
 5332SOL     OW21093   1.708   6.479   3.222  0.3366  0.0583 -0.4619
 5332SOL    HW221094   1.633   6.436   3.180  0.8845 -0.1146 -1.2769
 5332SOL    HW321095   1.776   6.413   3.225  0.5238  0.2661  0.1361
 5332SOL    MW421096   1.707   6.465   3.217 -0.4454 -0.0457 -0.1555
 5333SOL     OW21097   5.080   1.551   6.174  0.2882 -0.4908 -0.0019
 5333SOL    HW221098   5.092   1.579   6.265 -0.5434  0.6277 -0.2162
 5333SOL    HW321099   5.167   1.528   6.144  0.8303  0.7386  0.5701
 5333SOL    MW421100   5.093   1.551   6.182  0.4322 -0.0728 -0.0439
 5334SOL     OW21101   0.301   2.348   3.467 -0.2642 -0.4472  0.0306
 5334SOL    HW221102   0.329   2.439   3.459 -0.3009 -0.5003 -0.7544
 5334SOL    HW321103   0.344   2.303   3.393 -0.0809 -1.1061  0.5267
 5334SOL    MW421104   0.311   2.354   3.456  0.2380 -0.5062 -0.0220
 5335SOL     OW21105   2.233   1.422   6.357  0.2495 -0.0289  0.1225
 5335SOL    HW221106   2.168   1.363   6.316  0.3241  0.9989 -1.5811
 5335SOL    HW321107   2.180   1.490   6.398  0.2038 -0.6305  1.1085
 5335SOL    MW421108   2.217   1.423   6.357  0.4759  0.0173 -0.2345
 5336SOL     OW21109   1.783   1.488   2.175 -0.0537 -0.0011 -0.1369
 5336SOL    HW221110   1.687   1.485   2.180 -0.0721  0.8661  0.2068
 5336SOL    HW321111   1.807   1.564   2.227  0.8054  0.0126 -0.5392
 5336SOL    MW421112   1.774   1.497   2.183 -0.1621  0.2301  0.8881
 5337SOL     OW21113   2.049   4.030   5.401  0.3132  0.5169  0.7122
 5337SOL    HW221114   2.014   4.081   5.474  1.3319  3.0609 -0.4683
 5337SOL    HW321115   1.982   4.038   5.333  0.5403  0.3781  0.4734
 5337SOL    MW421116   2.035   4.038   5.402  0.3120  0.1927 -0.1613
 5338SOL     OW21117   5.253   1.515   1.933  0.4644 -0.0466 -0.2471
 5338SOL    HW221118   5.269   1.535   1.840  2.5152 -1.2096 -0.2152
 5338SOL    HW321119   5.228   1.598   1.972  1.5676  0.8945 -1.4629
 5338SOL    MW421120   5.252   1.528   1.926  0.3122 -0.2192 -0.3097
 5339SOL     OW21121   3.967   0.582   5.615  0.2007  0.7718 -0.5646
 5339SOL    HW221122   3.874   0.564   5.630 -0.4564  3.1230 -1.4828
 5339SOL    HW321123   4.006   0.580   5.703 -1.1564  1.8500  0.0980
 5339SOL    MW421124   3.960   0.579   5.629 -1.0624 -0.3085  0.0534
 5340SOL     OW21125   4.518   1.516   2.555  0.0989  0.0320  0.2833
 5340SOL    HW221126   4.512   1.496   2.462  2.0866  0.4898  0.0016
 5340SOL    HW321127   4.449   1.464   2.596  0.4620 -1.7079 -1.2095
 5340SOL    MW421128   4.508   1.507   2.549  1.2035 -0.2760 -0.1335
 5341SOL     OW21129   0.856   0.298   6.318  0.9853 -0.0993  0.1041
 5341SOL    HW221130   0.814   0.284   6.403  0.6449  0.1237 -0.0262
 5341SOL    HW321131   0.843   0.215   6.271  0.0257  0.2228 -0.2158
 5341SOL    MW421132   0.849   0.285   6.323  0.4240 -0.1174  0.2312
 5342SOL     OW21133   4.907   6.353   6.062  0.3719  0.5170  0.0315
 5342SOL    HW221134   4.965   6.277   6.064  0.5754  0.6645 -0.3275
 5342SOL    HW321135   4.831   6.324   6.011 -0.7190 -0.2750  1.9590
 5342SOL    MW421136   4.904   6.339   6.056  0.0458  0.3761  0.3949
 5343SOL     OW21137   0.880   6.069   0.573  0.3236  0.8539  0.1110
 5343SOL    HW221138   0.822   6.126   0.522  0.2925  0.6721 -0.0582
 5343SOL    HW321139   0.824   5.998   0.602  0.7011  0.0484 -1.0399
 5343SOL    MW421140   0.865   6.067   0.570 -0.3660  0.3309 -0.2448
 5344SOL     OW21141   5.168   0.479   3.483 -0.3948  0.8205 -0.3441
 5344SOL    HW221142   5.168   0.573   3.467  1.5438  0.8893 -0.0994
 5344SOL    HW321143   5.229   0.466   3.556  0.6459 -0.7636 -1.4164
 5344SOL    MW421144   5.176   0.489   3.490 -0.0129  0.0569 -0.1696
 5345SOL     OW21145   5.572   3.731   2.190  0.2126  0.1653  0.3128
 5345SOL    HW221146   5.622   3.807   2.160  0.3938  0.0432  0.3082
 5345SOL    HW321147   5.630   3.686   2.251  1.3289 -1.6664 -1.9427
 5345SOL    MW421148   5.586   3.735   2.194 -0.3005 -0.0874  0.1153
 5346SOL     OW21149   4.123   4.524   0.207  0.5096 -0.2142  0.0273
 5346SOL    HW221150   4.068   4.554   0.280  0.3657 -1.1254  0.2995
 5346SOL    HW321151   4.070   4.541   0.129 -0.5853 -1.9698  0.3483
 5346SOL    MW421152   4.109   4.530   0.206 -0.2339 -0.3634 -0.1426
 5347SOL     OW21153   2.532   2.984   0.763 -0.3881  0.4612  0.3422
 5347SOL    HW221154   2.510   2.964   0.672 -0.6516  0.1750  0.4641
 5347SOL    HW321155   2.449   3.010   0.803 -0.6837 -1.3150  0.9898
 5347SOL    MW421156   2.518   2.985   0.756  0.3363  0.5801 -0.0158
 5348SOL     OW21157   1.061   1.614   2.944  0.7965  0.1198  0.0536
 5348SOL    HW221158   1.093   1.620   2.854 -0.7683 -1.0322 -0.6397
 5348SOL    HW321159   1.038   1.522   2.956  1.0575  0.2302  1.6795
 5348SOL    MW421160   1.062   1.603   2.934  0.4438 -0.0389 -0.3362
 5349SOL     OW21161   1.679   4.724   3.674  0.0850 -0.3325  0.1714
 5349SOL    HW221162   1.591   4.744   3.643 -0.0596 -0.5652  0.4277
 5349SOL    HW321163   1.673   4.731   3.769  0.1061 -1.2758  0.2474
 5349SOL    MW421164   1.667   4.728   3.682 -0.3152 -0.0351 -0.0287
 5350SOL     OW21165   4.441   0.631   5.346 -0.0924  0.3680  0.2570
 5350SOL    HW221166   4.463   0.666   5.259  1.5714 -0.7898  0.1576
 5350SOL    HW321167   4.409   0.543   5.329  0.7491 -0.0631  0.8429
 5350SOL    MW421168   4.440   0.624   5.332  0.0834 -0.2094  0.0998
 5351SOL     OW21169   2.952   4.738   0.858 -0.4586 -0.3263 -0.3821
 5351SOL    HW221170   2.933   4.814   0.803 -0.7131 -0.0173  0.1316
 5351SOL    HW321171   3.047   4.740   0.869 -0.5316  0.2941  0.1676
 5351SOL    MW421172   2.962   4.748   0.852  0.1922  0.0313  0.1098
 5352SOL     OW21173  -0.005   2.888   1.157  0.2367  0.7840  0.1500
 5352SOL    HW221174  -0.021   2.982   1.167  1.2876  1.0965 -0.9222
 5352SOL    HW321175   0.041   2.880   1.073 -0.9484 -0.8176 -0.4048
 5352SOL    MW421176  -0.001   2.899   1.147 -0.5289 -0.2926 -0.2308
 5353SOL     OW21177   2.281   4.095   4.415 -0.0476 -0.2164 -0.0222
 5353SOL    HW221178   2.262   4.087   4.508 -0.7595 -1.2324 -0.2309
 5353SOL    HW321179   2.196   4.110   4.374  0.1686 -0.4179 -0.5594
 5353SOL    MW421180   2.268   4.096   4.422  0.2214 -0.8874  0.1002
 5354SOL     OW21181   0.258   5.386   3.484 -0.7853 -0.1726  0.3503
 5354SOL    HW221182   0.219   5.311   3.529  0.1200 -1.9525 -1.6654
 5354SOL    HW321183   0.203   5.399   3.407 -1.5066  1.9565  1.1298
 5354SOL    MW421184   0.246   5.378   3.480 -0.5510  0.0718  0.4058
 5355SOL     OW21185   4.369   4.515   1.026  0.5145 -0.2218 -0.2405
 5355SOL    HW221186   4.302   4.479   1.084  0.1982 -1.0345 -1.0921
 5355SOL    HW321187   4.447   4.523   1.082 -0.3610  1.0841  0.8552
 5355SOL    MW421188   4.371   4.512   1.041  0.6094 -0.0014 -0.4284
 5356SOL     OW21189   6.292   3.977   3.375  0.7851 -0.3415  0.0853
 5356SOL    HW221190   6.215   4.017   3.416  0.9265  0.2042 -0.1833
 5356SOL    HW321191   6.256   3.906   3.322  0.6942 -1.9727  2.1998
 5356SOL    MW421192   6.277   3.973   3.373  0.1911  0.4669  0.3092
 5357SOL     OW21193   6.017   4.540   3.656 -0.3929  0.0382 -0.0892
 5357SOL    HW221194   5.992   4.454   3.690 -0.0456  0.4362  1.2384
 5357SOL    HW321195   5.977   4.545   3.569  1.3183 -2.3171 -1.1111
 5357SOL    MW421196   6.009   4.529   3.649 -0.1479  0.3223  0.1688
 5358SOL     OW21197   4.142   1.872   1.266 -0.1188 -0.3000  0.1951
 5358SOL    HW221198   4.106   1.852   1.352 -1.0217  0.1628 -0.0584
 5358SOL    HW321199   4.154   1.787   1.224 -2.4656 -0.4503 -0.3072
 5358SOL    MW421200   4.139   1.858   1.272 -0.6089  0.4802 -0.0741
 5359SOL     OW21201   3.685   5.897   4.177  0.5945  0.7862  0.0358
 5359SOL    HW221202   3.712   5.981   4.215  0.6359 -0.2906  2.5501
 5359SOL    HW321203   3.767   5.854   4.153  0.8821 -0.0724  2.3205
 5359SOL    MW421204   3.699   5.903   4.179 -0.3094  0.1858 -0.2724
 5360SOL     OW21205   0.996   1.101   0.694 -0.1129  0.1518 -0.1566
 5360SOL    HW221206   0.974   1.091   0.601 -2.0387 -2.0590  0.4341
 5360SOL    HW321207   1.056   1.028   0.712 -0.5487 -0.0423  0.5387
 5360SOL    MW421208   1.001   1.090   0.684 -0.2594 -0.3699 -0.1278
 5361SOL     OW21209   3.233   6.068   2.908  0.5366 -0.0672  0.0479
 5361SOL    HW221210   3.208   6.009   2.836  1.5235  0.1860 -0.5143
 5361SOL    HW321211   3.298   6.018   2.957  0.9059  0.3014 -0.0627
 5361SOL    MW421212   3.238   6.054   2.905 -0.2308  0.2265  0.4113
 5362SOL     OW21213   3.681   2.263   2.514  0.4814  0.0294  0.1055
 5362SOL    HW221214   3.767   2.222   2.503 -0.1683 -1.5593  0.6044
 5362SOL    HW321215   3.658   2.245   2.605 -0.6229 -0.0954 -0.1862
 5362SOL    MW421216   3.690   2.255   2.524 -0.3944  0.1033  0.2701
 5363SOL     OW21217   5.259   1.780   0.272  0.0193  0.2362  0.2132
 5363SOL    HW221218   5.266   1.840   0.198  1.2028  0.3067  0.3660
 5363SOL    HW321219   5.172   1.741   0.263 -1.2912  2.7667  0.7138
 5363SOL    MW421220   5.249   1.783   0.261 -0.1897 -0.1705  0.3730
 5364SOL     OW21221   1.773   4.946   3.507 -0.1377  0.2529  0.4758
 5364SOL    HW221222   1.747   4.863   3.548 -0.7430  0.9848  1.6300
 5364SOL    HW321223   1.744   5.013   3.569  1.0569  1.2975 -0.0621
 5364SOL    MW421224   1.765   4.944   3.521  0.5105  0.6616 -0.2000
 5365SOL     OW21225   2.166   2.148   1.579 -0.1579  0.0539  0.3102
 5365SOL    HW221226   2.261   2.160   1.581 -0.2658  1.1188 -0.3009
 5365SOL    HW321227   2.145   2.109   1.664  0.9249 -1.0850  0.0896
 5365SOL    MW421228   2.176   2.144   1.590  0.4557 -0.0755 -0.0138
 5366SOL     OW21229   6.106   4.167   4.354 -0.2531 -0.7416  0.3549
 5366SOL    HW221230   6.068   4.213   4.429  0.2782 -1.1205  0.8611
 5366SOL    HW321231   6.198   4.193   4.353  0.0939 -1.8971  0.7367
 5366SOL    MW421232   6.113   4.176   4.363  0.3013  0.4402 -0.8333
 5367SOL     OW21233   3.953   6.361   0.685 -0.4898  0.0032  0.4671
 5367SOL    HW221234   3.990   6.445   0.712 -1.2962  0.7984 -0.8076
 5367SOL    HW321235   3.953   6.364   0.590  0.4154 -1.8896  0.3669
 5367SOL    MW421236   3.958   6.372   0.676 -0.1358  0.2170  0.0205
 5368SOL     OW21237   1.609   3.010   0.154  0.1128 -0.3016  0.3818
 5368SOL    HW221238   1.550   2.935   0.146 -1.0636  0.6171  0.1748
 5368SOL    HW321239   1.657   2.994   0.235 -1.8601 -0.1000  1.6437
 5368SOL    MW421240   1.607   2.998   0.163  0.0115  0.2904  0.1805
 5369SOL     OW21241   4.630   3.910   3.318 -0.6391  0.4140  0.2814
 5369SOL    HW221242   4.640   3.987   3.261 -0.2479  1.0063  1.1217
 5369SOL    HW321243   4.709   3.910   3.372 -0.5741 -0.6673  0.2067
 5369SOL    MW421244   4.641   3.920   3.318 -0.4918 -0.3438 -0.0845
 5370SOL     OW21245   4.601   6.476   3.325  0.2167  0.3053 -0.3166
 5370SOL    HW221246   4.695   6.493   3.315 -0.0758  2.4452  0.0242
 5370SOL    HW321247   4.561   6.563   3.322 -1.7174 -0.5294  0.0089
 5370SOL    MW421248   4.608   6.490   3.323  0.2604 -0.1355  0.3997
 5371SOL     OW21249   2.146   4.135   5.715  0.1411  0.5636 -0.1936
 5371SOL    HW221250   2.055   4.135   5.683 -0.1572  0.0694  0.6114
 5371SOL    HW321251   2.195   4.088   5.648 -0.3010  0.3738 -0.3916
 5371SOL    MW421252   2.140   4.129   5.702 -0.3024 -0.0481  0.0986
 5372SOL     OW21253   4.929   5.425   2.494  0.2054 -0.1620 -0.0409
 5372SOL    HW221254   4.874   5.458   2.422  0.1267 -1.2175 -0.4804
 5372SOL    HW321255   4.871   5.426   2.570  0.7768  2.6151  0.4541
 5372SOL    MW421256   4.914   5.430   2.495 -0.4315 -0.3404  0.1634
 5373SOL     OW21257   5.270   5.155   5.459 -0.2348  0.2995 -0.0678
 5373SOL    HW221258   5.220   5.073   5.450 -0.4252  0.4602 -0.5109
 5373SOL    HW321259   5.361   5.126   5.467 -0.1026  0.0786 -1.8800
 5373SOL    MW421260   5.275   5.140   5.458 -0.2747  0.1889 -0.6317
 5374SOL     OW21261   3.540   0.119   4.920  0.8083 -0.2969  0.1192
 5374SOL    HW221262   3.513   0.029   4.941 -0.7560  0.3998  1.3733
 5374SOL    HW321263   3.458   0.164   4.899  1.3623  1.1644  0.8902
 5374SOL    MW421264   3.525   0.113   4.920  0.2542 -0.2192 -0.5866
 5375SOL     OW21265   2.835   2.569   4.231 -0.6388  0.7322 -0.5093
 5375SOL    HW221266   2.881   2.486   4.219 -2.1791 -0.3078  0.4024
 5375SOL    HW321267   2.904   2.632   4.253  0.7638  0.1199 -2.8025
 5375SOL    MW421268   2.850   2.567   4.233  0.4039 -0.5792  0.1142
 5376SOL     OW21269   1.475   5.379   0.480 -0.5523  0.2949 -0.1231
 5376SOL    HW221270   1.472   5.284   0.490 -0.4099  0.1207 -1.5225
 5376SOL    HW321271   1.538   5.394   0.409 -0.1660  1.4639  0.4447
 5376SOL    MW421272   1.483   5.368   0.472  0.1932 -0.0185 -0.7487
 5377SOL     OW21273   3.358   5.629   2.033  0.2892 -0.0097  0.1346
 5377SOL    HW221274   3.285   5.567   2.035  1.1642 -1.0992 -0.3691
 5377SOL    HW321275   3.432   5.581   2.072  0.6217  1.2595  1.1652
 5377SOL    MW421276   3.358   5.614   2.039  0.7466  0.0918  0.1369
 5378SOL     OW21277   2.280   5.309   2.238  0.1783  0.1307 -0.9408
 5378SOL    HW221278   2.243   5.385   2.193 -0.0385  0.2977 -0.4884
 5378SOL    HW321279   2.348   5.277   2.179  0.3853  0.7735 -1.0628
 5378SOL    MW421280   2.284   5.315   2.225  0.3321 -0.4987  0.4419
 5379SOL     OW21281   0.127   3.033   4.521 -0.4268 -0.4135  0.1570
 5379SOL    HW221282   0.147   3.005   4.431  0.4533  1.7181 -0.3820
 5379SOL    HW321283   0.212   3.031   4.566 -0.9038 -1.7203  1.0683
 5379SOL    MW421284   0.141   3.029   4.515 -0.0098  0.4474  0.1767
 5380SOL     OW21285   4.358   1.994   2.995  0.4213  0.1091 -0.3957
 5380SOL    HW221286   4.443   1.986   2.951  0.4771  0.7451 -0.4135
 5380SOL    HW321287   4.365   2.074   3.047  1.3700 -1.9820  3.0489
 5380SOL    MW421288   4.370   2.004   2.996 -0.5549  0.0077  0.6441
 5381SOL     OW21289   0.299   3.101   5.956 -0.0785  0.1515  0.3292
 5381SOL    HW221290   0.369   3.040   5.980  0.2075  0.6148  0.6732
 5381SOL    HW321291   0.220   3.048   5.960  0.2253 -0.3260  0.1407
 5381SOL    MW421292   0.298   3.086   5.959  0.4606  0.6670  0.0262
 5382SOL     OW21293   6.216   0.627   4.629  0.2129  0.6069  0.1520
 5382SOL    HW221294   6.288   0.600   4.685  0.1807  0.0111 -0.0855
 5382SOL    HW321295   6.137   0.607   4.679  0.1984  2.5882  1.0239
 5382SOL    MW421296   6.215   0.621   4.643  0.0120 -0.4703 -0.0975
 5383SOL     OW21297   2.647   5.539   1.268 -0.1162 -0.0055  0.1680
 5383SOL    HW221298   2.636   5.634   1.262  1.2914  0.1209 -0.9533
 5383SOL    HW321299   2.737   5.527   1.299  0.1818 -0.9638 -0.9842
 5383SOL    MW421300   2.658   5.550   1.271 -0.0345 -0.1872 -0.7362
 5384SOL     OW21301   4.413   0.930   0.768  0.0313 -0.1759 -0.1265
 5384SOL    HW221302   4.494   0.904   0.812 -0.0080 -1.4891 -0.7717
 5384SOL    HW321303   4.353   0.857   0.785 -1.3803  1.2481  1.2274
 5384SOL    MW421304   4.416   0.917   0.776 -0.3697  0.3993 -0.1486
 5385SOL     OW21305   0.836   2.380   2.057  0.1171  0.1080  1.2106
 5385SOL    HW221306   0.750   2.342   2.076  0.2614 -0.6085  0.4437
 5385SOL    HW321307   0.898   2.324   2.104  0.3354 -0.6610  0.0256
 5385SOL    MW421308   0.833   2.368   2.066 -0.8454  0.2143  0.1599
 5386SOL     OW21309   3.087   5.622   4.973 -0.2127 -0.0985 -0.1628
 5386SOL    HW221310   3.033   5.677   5.029 -0.8189 -1.0074  0.1762
 5386SOL    HW321311   3.035   5.543   4.960  0.0108 -0.0068 -1.8468
 5386SOL    MW421312   3.073   5.619   4.979  0.5056 -0.5071 -0.2694
 5387SOL     OW21313   2.984   4.992   5.173  0.0211  0.4399  0.1300
 5387SOL    HW221314   2.929   5.064   5.142 -2.2240 -0.9739  0.6164
 5387SOL    HW321315   3.026   4.959   5.094  0.0492  1.4202 -0.2883
 5387SOL    MW421316   2.982   4.997   5.159  0.5089 -0.4616  0.4313
 5388SOL     OW21317   3.551   2.627   4.074 -0.0346  0.0535  0.2546
 5388SOL    HW221318   3.521   2.717   4.059 -1.0629  0.0724  2.0755
 5388SOL    HW321319   3.646   2.634   4.079 -0.1396  1.2077  1.1507
 5388SOL    MW421320   3.560   2.640   4.073  0.1171 -0.5790  0.1145
 5389SOL     OW21321   0.335   2.470   5.311 -0.1239 -0.0409  0.2138
 5389SOL    HW221322   0.396   2.539   5.283 -0.0732 -0.9452 -2.1215
 5389SOL    HW321323   0.332   2.479   5.406  0.7411  2.4468  0.0938
 5389SOL    MW421324   0.343   2.480   5.319  0.3957  0.0023  0.4607
 5390SOL     OW21325   3.112   0.203   5.889  0.7242  0.2781 -0.0619
 5390SOL    HW221326   3.025   0.170   5.913  0.8390  0.5304  0.7142
 5390SOL    HW321327   3.165   0.124   5.879  1.3484  0.1786  3.1346
 5390SOL    MW421328   3.108   0.188   5.891  0.3616  0.3479  0.5700
 5391SOL     OW21329   4.863   5.626   1.222 -0.3316  0.5224 -0.0022
 5391SOL    HW221330   4.819   5.593   1.144 -0.4294  0.1630  0.2048
 5391SOL    HW321331   4.957   5.621   1.201 -0.3546  0.3392 -0.0570
 5391SOL    MW421332   4.870   5.621   1.209 -0.3971 -0.0081 -0.3059
 5392SOL     OW21333   0.725   1.955   2.506  0.0331  0.2480 -0.1297
 5392SOL    HW221334   0.818   1.975   2.520  0.0310  0.1273  0.0577
 5392SOL    HW321335   0.695   1.920   2.590  0.7440 -3.2316 -1.1644
 5392SOL    MW421336   0.733   1.953   2.519  0.2237  0.3336 -0.3935
 5393SOL     OW21337   2.874   5.465   4.618  0.6108 -0.3203 -0.7019
 5393SOL    HW221338   2.889   5.403   4.546  0.7029 -1.0204 -0.0896
 5393SOL    HW321339   2.781   5.457   4.639  0.8537 -1.0928  0.1284
 5393SOL    MW421340   2.864   5.456   4.611  0.2378  0.1439  0.1954
 5394SOL     OW21341   6.404   0.163   3.322 -0.7598  0.9754  0.1221
 5394SOL    HW221342   6.354   0.082   3.319  0.2426  0.3713 -1.2704
 5394SOL    HW321343   6.341   0.231   3.299 -1.7365  0.7018  1.8190
 5394SOL    MW421344   6.389   0.161   3.319  0.6612  0.5101  0.1752
 5395SOL     OW21345   1.071   2.747   0.317  0.2876 -0.2752 -0.6297
 5395SOL    HW221346   1.116   2.711   0.241  3.0910 -1.6162  1.4886
 5395SOL    HW321347   1.098   2.839   0.320 -0.7574  0.1015 -1.8017
 5395SOL    MW421348   1.081   2.754   0.308  0.3390 -0.9755 -0.0273
 5396SOL     OW21349   5.116   4.599   5.205  0.2690  0.7674 -0.4225
 5396SOL    HW221350   5.054   4.531   5.177  1.1791 -0.4801  0.5223
 5396SOL    HW321351   5.087   4.677   5.158 -1.2467 -0.0815 -0.9921
 5396SOL    MW421352   5.104   4.600   5.195  0.1303 -0.1064 -0.4101
 5397SOL     OW21353   5.948   1.089   2.093 -0.4977 -0.3158  0.6283
 5397SOL    HW221354   5.957   1.164   2.034  0.3275 -0.0597  1.0620
 5397SOL    HW321355   5.991   1.118   2.174 -1.6764 -0.6225  1.3877
 5397SOL    MW421356   5.955   1.103   2.096  0.3430  0.2405  0.1292
 5398SOL     OW21357   4.431   1.390   0.734 -0.3088 -0.3042  0.1685
 5398SOL    HW221358   4.488   1.415   0.661  0.6740 -1.1260  0.6429
 5398SOL    HW321359   4.487   1.391   0.811 -0.8352 -1.4805  0.5903
 5398SOL    MW421360   4.446   1.393   0.734 -0.7770  0.3108 -0.5723
 5399SOL     OW21361   3.890   2.085   4.807 -0.2054  0.1193  0.1038
 5399SOL    HW221362   3.970   2.057   4.851  1.6223  2.8553 -1.2310
 5399SOL    HW321363   3.919   2.114   4.720 -2.8416  0.1684 -0.8587
 5399SOL    MW421364   3.904   2.085   4.801  0.5444 -0.1028 -0.6506
 5400SOL     OW21365   0.731   2.857   5.449 -0.6956  0.0958 -0.3221
 5400SOL    HW221366   0.665   2.850   5.379 -0.7312  0.1078 -0.2895
 5400SOL    HW321367   0.804   2.903   5.408 -0.0903 -1.2424 -0.8096
 5400SOL    MW421368   0.732   2.862   5.434  0.3187 -0.3968 -0.0791
 5401SOL     OW21369   6.244   4.739   0.067 -0.4928  0.1872 -0.4403
 5401SOL    HW221370   6.258   4.825   0.106 -0.7556 -0.4177  1.0741
 5401SOL    HW321371   6.211   4.758  -0.021 -1.1082  1.6359  0.0638
 5401SOL    MW421372   6.241   4.753   0.060  0.2019  0.5777  0.0038
 5402SOL     OW21373   3.391   0.670   4.655  0.3893 -0.3601  0.1059
 5402SOL    HW221374   3.296   0.661   4.640  0.2745  1.3932 -0.4629
 5402SOL    HW321375   3.399   0.751   4.706  1.5765 -0.5661  0.2606
 5402SOL    MW421376   3.379   0.680   4.660 -0.1892 -0.1363 -0.1630
 5403SOL     OW21377   3.449   3.320   4.958  0.1815  0.1949 -0.0811
 5403SOL    HW221378   3.371   3.266   4.952  1.9115 -2.3806 -0.9725
 5403SOL    HW321379   3.424   3.403   4.917 -1.5545 -1.2114 -2.0670
 5403SOL    MW421380   3.436   3.324   4.952  0.0792 -0.1094 -0.2019
 5404SOL     OW21381   5.957   6.346   2.770  0.2036 -0.7000 -0.0420
 5404SOL    HW221382   5.960   6.436   2.738  0.9911 -0.2218  1.3276
 5404SOL    HW321383   5.878   6.343   2.825  0.8277 -0.4986  0.8789
 5404SOL    MW421384   5.947   6.357   2.773  0.3532 -0.1936 -0.4332
 5405SOL     OW21385   2.324   4.024   6.085  0.4288 -0.1963  0.8109
 5405SOL    HW221386   2.267   4.100   6.090 -0.0192 -0.3325 -1.3342
 5405SOL    HW321387   2.413   4.060   6.092  0.2145  0.5192  0.0428
 5405SOL    MW421388   2.328   4.039   6.087  0.2286 -0.3447  0.1950
 5406SOL     OW21389   2.005   4.902   1.384 -0.2129  0.1437  0.0743
 5406SOL    HW221390   2.059   4.936   1.456 -0.6972  1.7374 -0.2840
 5406SOL    HW321391   2.069   4.867   1.321  0.2608 -0.3220  0.8010
 5406SOL    MW421392   2.021   4.902   1.385 -0.5225 -0.0302  0.2485
 5407SOL     OW21393   0.058   4.272   1.683  0.1965  0.4654  0.1174
 5407SOL    HW221394  -0.003   4.228   1.743 -0.2954  1.6057  0.4807
 5407SOL    HW321395   0.140   4.222   1.692 -0.8031 -1.4502 -0.8255
 5407SOL    MW421396   0.061   4.259   1.692  0.2176 -0.1687  0.2311
 5408SOL     OW21397   0.277   1.059   5.916 -0.1101  0.1909  0.4041
 5408SOL    HW221398   0.319   0.975   5.932 -0.6786 -0.1272  0.2721
 5408SOL    HW321399   0.231   1.047   5.833  1.5311  1.3129 -0.7299
 5408SOL    MW421400   0.276   1.047   5.907 -0.1266 -0.0837  0.0576
 5409SOL     OW21401   4.409   4.071   3.361 -0.0676 -0.1560  0.0160
 5409SOL    HW221402   4.331   4.055   3.414  0.0266 -0.5225  0.0523
 5409SOL    HW321403   4.464   3.993   3.375  1.9930  1.5998  2.8878
 5409SOL    MW421404   4.406   4.058   3.370 -1.0101 -0.2695 -0.1534
 5410SOL     OW21405   4.875   3.489   2.862 -0.1921 -0.0555  0.1140
 5410SOL    HW221406   4.918   3.553   2.806 -1.6611  1.4050  0.5595
 5410SOL    HW321407   4.856   3.415   2.804 -2.1049  1.5950 -1.5616
 5410SOL    MW421408   4.878   3.488   2.847 -0.8052  0.0139  0.0603
 5411SOL     OW21409   4.371   3.189   4.827 -0.1289 -0.4340  0.0218
 5411SOL    HW221410   4.322   3.267   4.800  1.1357  0.5130  0.3836
 5411SOL    HW321411   4.319   3.116   4.795 -1.5453  0.5406 -0.0026
 5411SOL    MW421412   4.357   3.190   4.820  0.0761 -0.3384  0.1781
 5412SOL     OW21413   2.439   0.776   3.179 -0.0798 -0.4940  0.1133
 5412SOL    HW221414   2.415   0.700   3.127  0.1968 -1.1674  0.9361
 5412SOL    HW321415   2.399   0.761   3.265 -0.1485  0.3622  0.2464
 5412SOL    MW421416   2.431   0.764   3.184 -0.0883 -1.0148 -0.4218
 5413SOL     OW21417   2.037   1.151   5.239  0.7044  0.7165  0.0775
 5413SOL    HW221418   2.110   1.193   5.193  1.3202 -0.4089 -0.0209
 5413SOL    HW321419   1.986   1.109   5.170  1.7230 -1.1206  0.3672
 5413SOL    MW421420   2.040   1.151   5.224  0.2983 -0.1596  0.0244
 5414SOL     OW21421   5.108   3.147   2.398  0.1545 -0.0408  0.2951
 5414SOL    HW221422   5.054   3.136   2.320  1.2485 -0.9865 -0.3456
 5414SOL    HW321423   5.096   3.239   2.422  1.5434  0.9166 -2.3273
 5414SOL    MW421424   5.099   3.158   2.391 -0.0047 -0.3368 -0.0090
 5415SOL     OW21425   2.618   0.888   1.124 -0.4183 -0.2038 -0.3028
 5415SOL    HW221426   2.691   0.855   1.071  0.8613  0.1837  1.1508
 5415SOL    HW321427   2.655   0.963   1.171 -2.0294  0.5685 -0.2203
 5415SOL    MW421428   2.633   0.893   1.123  0.3565  0.7165 -0.0300
 5416SOL     OW21429   2.968   0.877   5.414 -0.5340 -0.3294 -0.1294
 5416SOL    HW221430   2.921   0.810   5.464  0.9320 -1.6098 -0.3665
 5416SOL    HW321431   3.034   0.910   5.474 -0.2898 -0.1730 -0.4789
 5416SOL    MW421432   2.971   0.872   5.428  0.0446  0.6408 -0.1525
 5417SOL     OW21433   4.656   0.073   5.769 -0.1634  0.2829 -0.1907
 5417SOL    HW221434   4.633  -0.006   5.819  1.0853 -0.2601 -0.4505
 5417SOL    HW321435   4.750   0.067   5.755 -0.4913  0.2131 -2.9487
 5417SOL    MW421436   4.665   0.062   5.774 -0.2741  0.0796  0.7091
 5418SOL     OW21437   4.450   4.448   0.349 -0.1068 -0.0223 -0.6014
 5418SOL    HW221438   4.388   4.385   0.312 -0.8537 -0.3778  1.1871
 5418SOL    HW321439   4.396   4.507   0.402  1.1409 -0.7975  1.6318
 5418SOL    MW421440   4.435   4.448   0.351  0.1164  0.4976 -0.8497
 5419SOL     OW21441   0.577   4.663   4.061  0.2610 -0.3278  0.0919
 5419SOL    HW221442   0.638   4.715   4.113  0.6808 -1.2837  0.5863
 5419SOL    HW321443   0.491   4.699   4.080  0.2093 -1.5993  2.7029
 5419SOL    MW421444   0.573   4.674   4.070 -0.3722  0.2253  0.3785
 5420SOL     OW21445   0.591   3.207   5.761 -0.3276 -0.0917  0.1653
 5420SOL    HW221446   0.585   3.113   5.741  0.4705 -0.3962  1.2031
 5420SOL    HW321447   0.532   3.249   5.699 -1.1450 -1.3348  0.0568
 5420SOL    MW421448   0.583   3.200   5.750  0.5877 -0.1338 -0.0427
 5421SOL     OW21449   1.729   1.308   5.903  0.4162 -0.0178  0.1686
 5421SOL    HW221450   1.670   1.342   5.835  0.1296 -0.0929  0.3789
 5421SOL    HW321451   1.753   1.221   5.872 -0.2869 -0.3429  0.5094
 5421SOL    MW421452   1.724   1.301   5.890  0.1378 -0.2120  0.5616
 5422SOL     OW21453   4.462   2.829   0.494 -0.2909  0.5261 -0.3093
 5422SOL    HW221454   4.444   2.916   0.460 -0.2980  1.3209  1.5805
 5422SOL    HW321455   4.485   2.844   0.586 -0.0445 -1.4418 -0.0098
 5422SOL    MW421456   4.463   2.842   0.502  0.6541  0.1720 -0.0041
 5423SOL     OW21457   1.716   6.172   5.968  0.6763 -0.3471 -0.0001
 5423SOL    HW221458   1.670   6.089   5.979 -0.4205  0.3201  0.6019
 5423SOL    HW321459   1.660   6.223   5.910 -0.1990  1.0786  2.0131
 5423SOL    MW421460   1.703   6.168   5.962 -0.6538 -0.2693 -0.2214
 5424SOL     OW21461   5.184   3.980   5.652 -0.1609 -0.1702 -0.5286
 5424SOL    HW221462   5.199   3.889   5.627 -2.0396 -0.7807  0.4392
 5424SOL    HW321463   5.179   4.028   5.569 -1.1355 -1.2945 -1.1397
 5424SOL    MW421464   5.185   3.975   5.638 -0.4639  0.5816 -0.3908
 5425SOL     OW21465   5.660   0.226   1.193 -0.0664  0.7859 -0.7392
 5425SOL    HW221466   5.625   0.297   1.139  1.6284  0.5534 -2.2323
 5425SOL    HW321467   5.703   0.271   1.266 -0.0869  1.2342 -1.0000
 5425SOL    MW421468   5.661   0.242   1.195  0.1174  0.1756 -0.0219
 5426SOL     OW21469   3.346   1.690   4.818 -0.2494 -0.2027 -0.0588
 5426SOL    HW221470   3.367   1.783   4.809  1.4635 -0.6155 -0.6761
 5426SOL    HW321471   3.426   1.644   4.791 -0.8033 -1.8480  0.9476
 5426SOL    MW421472   3.359   1.696   4.813 -0.1011  0.0743 -0.5936
 5427SOL     OW21473   4.213   3.237   6.348  0.3185  0.2072 -0.3181
 5427SOL    HW221474   4.220   3.147   6.316 -1.1619 -0.1271  0.2183
 5427SOL    HW321475   4.245   3.290   6.275  1.0583 -0.7332 -0.7071
 5427SOL    MW421476   4.218   3.232   6.334 -0.2512 -0.0843  0.1675
 5428SOL     OW21477   4.636   3.808   2.617 -0.2602 -0.4064 -0.2051
 5428SOL    HW221478   4.644   3.791   2.523 -0.1578 -1.5819 -0.0038
 5428SOL    HW321479   4.709   3.866   2.637 -1.0941  0.9974 -1.0914
 5428SOL    MW421480   4.647   3.813   2.607 -0.0575  0.0722  0.0648
 5429SOL     OW21481   0.053   2.935   3.967  0.3651  0.1518  0.3141
 5429SOL    HW221482   0.096   3.021   3.971  0.6009  0.0800 -0.4095
 5429SOL    HW321483  -0.038   2.954   3.946 -0.2619  0.3690  2.9007
 5429SOL    MW421484   0.047   2.949   3.965 -0.2265  0.2177  0.3571
 5430SOL     OW21485   1.357   0.427   6.208  0.1536  0.0603 -0.2672
 5430SOL    HW221486   1.413   0.354   6.236 -0.5156 -0.4971 -0.3730
 5430SOL    HW321487   1.400   0.462   6.130  1.4525  0.9374  0.7862
 5430SOL    MW421488   1.370   0.422   6.202 -0.1930 -0.4523  0.5655
 5431SOL     OW21489   1.002   4.060   1.286 -0.2436  0.2526  0.0292
 5431SOL    HW221490   1.053   4.131   1.247 -1.6137  1.0402 -0.4079
 5431SOL    HW321491   0.930   4.045   1.225  0.3626 -1.9997 -0.2149
 5431SOL    MW421492   0.999   4.068   1.273  0.3869  0.5116  0.5382
 5432SOL     OW21493   6.342   2.644   0.889  0.3073  0.2349  0.6690
 5432SOL    HW221494   6.320   2.552   0.905  2.3937 -0.6803 -1.0887
 5432SOL    HW321495   6.393   2.642   0.808 -1.1531  3.2097 -0.4737
 5432SOL    MW421496   6.346   2.631   0.880  0.1160 -0.2638  0.0370
 5433SOL     OW21497   4.022   5.324   5.016 -0.0466  0.2035 -0.1222
 5433SOL    HW221498   4.075   5.385   4.966  0.2521 -0.6343 -0.8583
 5433SOL    HW321499   4.045   5.341   5.107  1.3039  0.0312 -0.4107
 5433SOL    MW421500   4.032   5.334   5.021 -0.3287 -0.1180  0.4112
 5434SOL     OW21501   2.739   6.003   0.907  0.6547 -0.4801 -0.5538
 5434SOL    HW221502   2.651   6.035   0.924  1.5927  1.1639  1.6978
 5434SOL    HW321503   2.729   5.946   0.830 -2.3419 -0.4512 -0.3194
 5434SOL    MW421504   2.726   6.000   0.899 -0.1622 -0.5769  0.1614
 5435SOL     OW21505   3.564   0.289   5.139 -0.3137  0.5947 -0.5734
 5435SOL    HW221506   3.620   0.360   5.106  0.8394 -0.8005 -1.7498
 5435SOL    HW321507   3.558   0.228   5.065  1.5995 -2.2293  1.4171
 5435SOL    MW421508   3.570   0.291   5.125 -0.0700  0.0067 -0.8842
 5436SOL     OW21509   2.575   5.936   6.025 -0.1336 -0.6264  0.2257
 5436SOL    HW221510   2.640   6.002   6.001 -1.9343  1.6412  1.1498
 5436SOL    HW321511   2.546   5.962   6.113 -1.6870 -2.0389  0.1757
 5436SOL    MW421512   2.580   5.949   6.034 -0.2384 -0.3007  0.2647
 5437SOL     OW21513   5.280   0.144   2.054  0.0154  0.2423  0.1157
 5437SOL    HW221514   5.360   0.195   2.067  0.5123 -0.6203  0.5567
 5437SOL    HW321515   5.285   0.115   1.963  0.5222 -0.3167  0.3131
 5437SOL    MW421516   5.292   0.147   2.044 -0.1927  0.0537 -0.2350
 5438SOL     OW21517   4.543   2.673   4.012  0.0121  0.7078  0.2956
 5438SOL    HW221518   4.500   2.758   4.013 -1.0517  0.1961 -0.3750
 5438SOL    HW321519   4.518   2.632   4.094 -1.9860 -0.1358 -0.6686
 5438SOL    MW421520   4.534   2.679   4.023  0.2036  0.3127 -0.2695
 5439SOL     OW21521   0.216   0.147   1.523  0.5836  0.0922 -0.2084
 5439SOL    HW221522   0.210   0.067   1.470  0.6319  0.4133 -0.7089
 5439SOL    HW321523   0.137   0.147   1.577 -0.3926  0.6598 -1.5836
 5439SOL    MW421524   0.205   0.137   1.523  0.3284  0.1402  0.0868
 5440SOL     OW21525   1.321   4.553   4.765  0.5096  0.1998 -0.7695
 5440SOL    HW221526   1.395   4.595   4.722  0.6599  1.2618  0.4443
 5440SOL    HW321527   1.290   4.618   4.828 -0.6780 -0.6946 -0.3872
 5440SOL    MW421528   1.326   4.567   4.768 -0.3270  0.7202 -0.4731
 5441SOL     OW21529   1.317   3.727   2.204  0.4001 -0.2190  0.2894
 5441SOL    HW221530   1.408   3.698   2.199 -0.0290 -2.1575  2.1277
 5441SOL    HW321531   1.317   3.796   2.271  0.4591 -0.5478  0.6317
 5441SOL    MW421532   1.329   3.732   2.212 -0.5794  0.3899  0.6133
 5442SOL     OW21533   2.948   0.334   2.489 -1.0746 -0.7217 -0.2666
 5442SOL    HW221534   2.898   0.411   2.515  0.2304  0.1909 -0.3672
 5442SOL    HW321535   2.939   0.273   2.563 -0.3677  0.3936  0.7642
 5442SOL    MW421536   2.940   0.336   2.502 -0.3228 -0.0609 -0.4642
 5443SOL     OW21537   0.025   2.640   5.513  0.0014 -0.2447  0.4240
 5443SOL    HW221538  -0.061   2.666   5.544  0.5324  1.3843  0.6364
 5443SOL    HW321539   0.048   2.706   5.447  1.2302 -0.4387  0.6372
 5443SOL    MW421540   0.017   2.652   5.508  0.1807  1.1303  0.0922
 5444SOL     OW21541   1.959   3.155   4.466  0.7967 -0.5985 -0.1514
 5444SOL    HW221542   1.913   3.230   4.427  1.0212 -0.4732 -0.1745
 5444SOL    HW321543   2.000   3.190   4.545  0.2343 -0.8831  0.2771
 5444SOL    MW421544   1.958   3.170   4.471  0.7100 -0.7502  0.0395
 5445SOL     OW21545   4.375   2.917   1.378  0.0133 -0.4160  0.1911
 5445SOL    HW221546   4.382   2.927   1.283 -0.9906  0.0968  0.1522
 5445SOL    HW321547   4.281   2.919   1.395  0.1389  3.9670  1.6070
 5445SOL    MW421548   4.363   2.919   1.368  0.4609  0.1636  0.3945
 5446SOL     OW21549   2.489   2.905   2.061 -0.1495  0.0155  0.3740
 5446SOL    HW221550   2.438   2.829   2.032 -1.9555  0.7832  1.3374
 5446SOL    HW321551   2.529   2.939   1.981 -0.3915 -1.1742 -0.2745
 5446SOL    MW421552   2.487   2.900   2.047 -0.1336 -0.4577  0.0692
 5447SOL     OW21553   0.433   2.037   5.820 -0.2717  0.2815  0.3208
 5447SOL    HW221554   0.522   2.063   5.847 -0.7209  1.4628  0.7290
 5447SOL    HW321555   0.376   2.099   5.864 -1.1122  2.2295 -3.1899
 5447SOL    MW421556   0.437   2.048   5.830  0.3330 -0.4212 -0.0979
 5448SOL     OW21557   0.016   0.984   2.145  0.3228  0.3976 -0.3034
 5448SOL    HW221558   0.068   0.952   2.071 -1.5815 -1.1049 -1.0529
 5448SOL    HW321559  -0.062   0.929   2.145 -1.1673  2.4026  0.9537
 5448SOL    MW421560   0.013   0.973   2.135  0.0011  0.0277 -0.0069
 5449SOL     OW21561   3.545   1.938   3.848 -0.1346 -0.3160  0.3084
 5449SOL    HW221562   3.539   1.880   3.924 -0.0231 -0.0010  0.5607
 5449SOL    HW321563   3.571   1.880   3.776 -0.3930 -0.6437  0.4747
 5449SOL    MW421564   3.548   1.923   3.849  0.1597  0.0660  0.1711
 5450SOL     OW21565   0.316   1.534   4.154 -0.2902  0.1389  0.4799
 5450SOL    HW221566   0.357   1.551   4.069 -0.8572 -0.9026 -0.0200
 5450SOL    HW321567   0.303   1.621   4.192  0.2216  0.6057 -0.3718
 5450SOL    MW421568   0.320   1.548   4.147  0.0527  0.2897  0.1799
 5451SOL     OW21569   2.208   5.197   2.470  0.1511 -0.1605 -0.7655
 5451SOL    HW221570   2.237   5.254   2.398  1.1475  0.3086 -0.0190
 5451SOL    HW321571   2.163   5.256   2.531 -0.4276 -0.5040 -0.8543
 5451SOL    MW421572   2.206   5.212   2.469 -0.1565 -0.0725  0.2009
 5452SOL     OW21573   1.823   2.703   3.008  0.1029  0.4077 -0.2246
 5452SOL    HW221574   1.882   2.763   2.962 -1.3807  1.2495 -1.1231
 5452SOL    HW321575   1.787   2.756   3.079  0.6418 -0.1897  0.5030
 5452SOL    MW421576   1.826   2.718   3.011  0.4107  0.0742 -0.0601
 5453SOL     OW21577   4.305   5.486   3.095 -0.6991  0.8786 -0.4994
 5453SOL    HW221578   4.383   5.433   3.078 -0.2082  1.2000  0.6466
 5453SOL    HW321579   4.231   5.428   3.075 -0.1679  0.4411 -1.2117
 5453SOL    MW421580   4.305   5.471   3.090  0.4631  0.3043 -0.1829
 5454SOL     OW21581   1.613   0.454   5.139 -0.3206  0.0284 -0.6083
 5454SOL    HW221582   1.630   0.430   5.230 -1.3755  1.1562 -0.0917
 5454SOL    HW321583   1.599   0.370   5.095 -0.2046 -0.5143  0.3620
 5454SOL    MW421584   1.613   0.439   5.145 -0.1942 -0.7955 -0.4798
 5455SOL     OW21585   1.619   3.181   0.487 -0.0894  0.0803 -0.5814
 5455SOL    HW221586   1.533   3.223   0.488 -1.0865 -1.8423 -0.8660
 5455SOL    HW321587   1.645   3.177   0.579  1.0427  3.0934 -0.6351
 5455SOL    MW421588   1.611   3.186   0.499 -0.0147  0.0359 -0.5245
 5456SOL     OW21589   2.392   0.496   1.279 -0.6697 -0.1423  0.5344
 5456SOL    HW221590   2.350   0.472   1.362 -0.9284 -0.8740  0.1944
 5456SOL    HW321591   2.322   0.492   1.214 -0.7910  1.8418  0.5007
 5456SOL    MW421592   2.378   0.492   1.282 -0.1396 -0.4002  0.3433
 5457SOL     OW21593   3.701   6.320   5.236  0.0931  0.1684 -0.3323
 5457SOL    HW221594   3.751   6.397   5.210  1.4221 -0.5072  0.1672
 5457SOL    HW321595   3.619   6.327   5.186  0.2627  1.7856 -0.4376
 5457SOL    MW421596   3.697   6.331   5.226  0.4140 -0.0759  0.2984
 5458SOL     OW21597   2.192   2.293   2.537  0.5040 -0.1857  0.1119
 5458SOL    HW221598   2.221   2.357   2.602  1.2862  0.3314 -0.7277
 5458SOL    HW321599   2.219   2.329   2.453 -0.4375 -0.8720 -0.5146
 5458SOL    MW421600   2.199   2.306   2.535 -0.0470  0.4385 -0.0910
 5459SOL     OW21601   4.228   0.733   0.809 -0.3426  0.0658  0.0145
 5459SOL    HW221602   4.165   0.714   0.740 -0.4618 -3.2036  0.8474
 5459SOL    HW321603   4.175   0.754   0.886 -0.3431 -0.3448  0.1268
 5459SOL    MW421604   4.213   0.733   0.810  0.6377  0.1484  0.4209
 5460SOL     OW21605   5.909   4.548   1.120 -0.0132  0.3359  0.5822
 5460SOL    HW221606   5.870   4.625   1.079 -0.9416 -0.0725  0.6831
 5460SOL    HW321607   5.837   4.505   1.164  0.8816  0.5477  2.3490
 5460SOL    MW421608   5.894   4.553   1.120 -0.2958  0.4275  0.3386
 5461SOL     OW21609   2.360   2.106   3.648  0.1609  0.4215  0.0438
 5461SOL    HW221610   2.449   2.073   3.643  0.3672  1.1117 -1.1346
 5461SOL    HW321611   2.316   2.047   3.710  0.5874 -1.8813 -1.7103
 5461SOL    MW421612   2.366   2.093   3.656  0.1947  0.2100 -0.1307
 5462SOL     OW21613   3.628   4.439   2.061  0.0651  0.5457  0.0166
 5462SOL    HW221614   3.681   4.414   2.136  0.3514 -0.1161 -0.3987
 5462SOL    HW321615   3.550   4.384   2.067  1.0419 -1.0853 -1.3225
 5462SOL    MW421616   3.624   4.429   2.072 -0.2688  0.2591 -0.5429
 5463SOL     OW21617   0.445   3.251   2.884  0.5273  0.0983 -0.1672
 5463SOL    HW221618   0.397   3.175   2.851 -0.1420  0.7164 -0.6510
 5463SOL    HW321619   0.531   3.217   2.906 -0.0452 -0.9973  0.5046
 5463SOL    MW421620   0.450   3.237   2.883 -0.3169 -0.2421  0.4535
 5464SOL     OW21621   5.218   5.147   3.955  0.2278 -0.3477 -0.9492
 5464SOL    HW221622   5.280   5.213   3.925 -0.0549  0.6028  0.4513
 5464SOL    HW321623   5.272   5.069   3.969  0.3616 -0.8627 -3.7966
 5464SOL    MW421624   5.233   5.145   3.953 -0.5121 -0.1167 -0.7244
 5465SOL     OW21625   4.676   4.868   4.069 -0.4888 -0.4931 -0.1615
 5465SOL    HW221626   4.748   4.928   4.090 -0.9662 -0.1142  0.3944
 5465SOL    HW321627   4.611   4.922   4.024 -0.5955 -0.7569 -0.3291
 5465SOL    MW421628   4.677   4.883   4.065 -0.0209  0.6414 -0.1778
 5466SOL     OW21629   1.849   1.001   5.079 -0.0443  0.0176 -0.0031
 5466SOL    HW221630   1.785   1.038   5.018 -0.1177 -0.4990 -0.2499
 5466SOL    HW321631   1.825   0.909   5.086  0.1227  0.0171  0.6150
 5466SOL    MW421632   1.837   0.994   5.072 -0.0424  0.3485 -0.2139
 5467SOL     OW21633   1.167   0.341   0.720 -0.5662 -0.0408  0.1018
 5467SOL    HW221634   1.216   0.267   0.683 -1.9380 -0.5620 -0.7367
 5467SOL    HW321635   1.226   0.416   0.708  0.3506 -0.7739 -0.1531
 5467SOL    MW421636   1.181   0.341   0.714 -0.8076  0.0360  0.2503
 5468SOL     OW21637   0.674   4.439   6.137 -0.2590 -0.3772  0.0895
 5468SOL    HW221638   0.680   4.344   6.128 -0.9014 -0.2540 -2.4358
 5468SOL    HW321639   0.722   4.473   6.062 -1.1838  1.2589  0.1949
 5468SOL    MW421640   0.681   4.431   6.126  0.7289  0.5139 -0.4624
 5469SOL     OW21641   1.383   5.854   4.324  0.4346  0.1540 -1.0766
 5469SOL    HW221642   1.467   5.859   4.370  0.3109 -3.3946 -0.1140
 5469SOL    HW321643   1.320   5.894   4.384  0.9929 -0.0992 -0.3042
 5469SOL    MW421644   1.386   5.860   4.338  0.2548 -0.0298  0.0565
 5470SOL     OW21645   2.190   0.391   4.583 -0.0223  0.2826 -0.0141
 5470SOL    HW221646   2.119   0.362   4.640  0.1088  0.3712  0.1957
 5470SOL    HW321647   2.146   0.427   4.506 -0.1884 -0.3328 -0.2112
 5470SOL    MW421648   2.175   0.392   4.580  0.2503  0.6040 -0.1135
 5471SOL     OW21649   4.470   5.203   2.753  0.3679  0.1333  0.1383
 5471SOL    HW221650   4.485   5.200   2.848 -0.0409  1.4574  0.2624
 5471SOL    HW321651   4.378   5.178   2.743 -0.2079  2.0232  0.3095
 5471SOL    MW421652   4.460   5.199   2.764  0.6034 -0.2578  0.6655
 5472SOL     OW21653   3.246   1.836   2.233  0.3623  0.0627  0.3954
 5472SOL    HW221654   3.178   1.780   2.195  0.8083  0.5482 -1.1909
 5472SOL    HW321655   3.256   1.804   2.322 -0.0151 -1.8353 -0.1940
 5472SOL    MW421656   3.238   1.824   2.239 -0.2236 -0.0849  0.6603
 5473SOL     OW21657   3.436   3.827   2.914 -0.4077 -0.2738  0.7398
 5473SOL    HW221658   3.429   3.731   2.911  0.0087 -0.2818 -1.0790
 5473SOL    HW321659   3.361   3.858   2.863 -0.2848  0.3740  0.9442
 5473SOL    MW421660   3.425   3.818   2.907  0.6355 -0.4892 -0.2487
 5474SOL     OW21661   4.277   3.502   0.400  0.4074 -0.1243  0.0891
 5474SOL    HW221662   4.223   3.521   0.323  0.9009  1.4674  0.0946
 5474SOL    HW321663   4.358   3.552   0.385  0.2276  0.8207  1.9647
 5474SOL    MW421664   4.281   3.511   0.388 -0.0623  0.3184  0.1343
 5475SOL     OW21665   6.033   1.635   4.249 -0.4406 -0.1536  0.0976
 5475SOL    HW221666   5.972   1.621   4.177 -1.4625  2.1553  0.4072
 5475SOL    HW321667   6.119   1.643   4.207 -0.9714  0.8163 -0.8379
 5475SOL    MW421668   6.037   1.634   4.234 -0.4893  0.0483 -0.4098
 5476SOL     OW21669   2.472   1.638   5.327 -0.1607 -0.3080  0.0278
 5476SOL    HW221670   2.397   1.622   5.269  0.6680  1.0723 -1.4930
 5476SOL    HW321671   2.547   1.641   5.268  0.9417 -0.4731  1.3952
 5476SOL    MW421672   2.472   1.636   5.312  0.0046 -0.0885  0.7025
 5477SOL     OW21673   5.222   0.326   2.835  0.2315  0.1006  0.4093
 5477SOL    HW221674   5.146   0.313   2.892  0.7885  0.8252  1.3383
 5477SOL    HW321675   5.297   0.324   2.894  0.9513 -0.6469 -0.5036
 5477SOL    MW421676   5.221   0.324   2.851 -0.2468  0.4814  0.2633
 5478SOL     OW21677   1.892   3.655   0.243 -0.4901 -0.2770 -0.4174
 5478SOL    HW221678   1.834   3.638   0.318 -0.5022  3.5145  0.6210
 5478SOL    HW321679   1.834   3.657   0.167 -1.0749 -0.3692  0.0192
 5478SOL    MW421680   1.877   3.653   0.243 -0.0056 -0.0841 -0.0986
 5479SOL     OW21681   5.704   6.423   3.334 -0.3485  0.0258 -0.0779
 5479SOL    HW221682   5.670   6.506   3.298 -1.2362 -1.4045 -2.8295
 5479SOL    HW321683   5.776   6.400   3.276  0.3484 -0.8068  1.0909
 5479SOL    MW421684   5.709   6.431   3.322  0.1361 -0.5272  0.1031
 5480SOL     OW21685   4.273   5.708   4.013 -0.6428 -0.4421 -0.3213
 5480SOL    HW221686   4.270   5.782   4.073 -0.6925  0.3559 -1.2929
 5480SOL    HW321687   4.320   5.741   3.936 -0.8636 -1.3466 -0.8611
 5480SOL    MW421688   4.279   5.722   4.011 -0.3201  0.2929 -0.2785
 5481SOL     OW21689   2.219   5.639   3.241 -0.1449  1.0207  0.0512
 5481SOL    HW221690   2.295   5.656   3.297  0.5023 -0.9049 -0.1741
 5481SOL    HW321691   2.229   5.700   3.168  0.1985  2.0211  0.8930
 5481SOL    MW421692   2.230   5.650   3.239 -0.2772 -0.2449 -0.4471
 5482SOL     OW21693   3.503   3.157   2.769 -0.1339 -0.2370 -0.1248
 5482SOL    HW221694   3.575   3.158   2.705  0.3558 -0.5868  0.4103
 5482SOL    HW321695   3.473   3.067   2.769 -0.6345 -0.0715 -0.4065
 5482SOL    MW421696   3.509   3.146   2.760 -0.2549  0.1318 -0.0925
 5483SOL     OW21697   1.549   1.988   4.782 -0.2663 -0.6705 -0.0997
 5483SOL    HW221698   1.455   1.987   4.800 -0.2039  2.4977  1.0362
 5483SOL    HW321699   1.580   1.905   4.816 -2.3363 -0.8110  1.7014
 5483SOL    MW421700   1.540   1.977   4.789 -0.6481  0.1724 -0.0646
 5484SOL     OW21701   1.476   4.210   5.174  0.5883  0.2823  0.4840
 5484SOL    HW221702   1.475   4.286   5.115 -0.3978  0.4646  0.7213
 5484SOL    HW321703   1.498   4.247   5.259  0.5537  0.2307  0.5146
 5484SOL    MW421704   1.479   4.225   5.177  0.2658  0.2998 -0.4211
 5485SOL     OW21705   6.367   3.840   4.680  0.4860 -0.1828  0.1135
 5485SOL    HW221706   6.408   3.904   4.622  1.8403 -0.5749  0.6029
 5485SOL    HW321707   6.375   3.757   4.632  0.1975 -0.2521  0.1865
 5485SOL    MW421708   6.373   3.837   4.666 -0.6854 -0.0496 -0.6791
 5486SOL     OW21709   4.928   0.072   5.149 -0.1290 -0.4734  0.0797
 5486SOL    HW221710   4.958   0.008   5.214 -0.9245 -0.0965  0.8246
 5486SOL    HW321711   4.842   0.099   5.179 -0.1630  0.3239 -0.6947
 5486SOL    MW421712   4.921   0.067   5.162  0.1480 -0.1900 -0.2534
 5487SOL     OW21713   3.393   3.574   4.841 -0.9028  0.0378  0.3391
 5487SOL    HW221714   3.308   3.614   4.858 -0.5604  0.3415  1.4878
 5487SOL    HW321715   3.455   3.626   4.893  0.1116  0.3302 -1.1055
 5487SOL    MW421716   3.390   3.586   4.850  0.6086 -0.4298 -0.0700
 5488SOL     OW21717   4.273   0.911   2.105 -0.4171 -0.3909 -1.1390
 5488SOL    HW221718   4.195   0.855   2.111 -1.3433  0.9784  0.8479
 5488SOL    HW321719   4.255   0.970   2.032 -2.3676  1.3427  0.5925
 5488SOL    MW421720   4.260   0.912   2.096 -0.0180 -0.3738 -0.0360
 5489SOL     OW21721   0.901   4.266   5.514  0.1853  0.1529 -0.1659
 5489SOL    HW221722   0.938   4.180   5.494  0.7445  0.7425 -1.8289
 5489SOL    HW321723   0.819   4.269   5.465 -0.7744 -0.0925  1.3394
 5489SOL    MW421724   0.895   4.255   5.505  0.2396 -0.4764  0.5348
 5490SOL     OW21725   2.571   2.082   2.820 -0.0803 -0.4003 -0.0714
 5490SOL    HW221726   2.630   2.074   2.745 -0.9440  0.0489 -0.8109
 5490SOL    HW321727   2.531   2.168   2.811 -0.9004 -0.7187  0.3789
 5490SOL    MW421728   2.574   2.092   2.809  0.0219  0.1902  0.2619
 5491SOL     OW21729   5.858   5.060   3.939 -0.7388  0.1090  0.1298
 5491SOL    HW221730   5.803   5.121   3.990  0.8980  0.8009  1.1422
 5491SOL    HW321731   5.862   4.981   3.993  0.9000  0.8005  1.0994
 5491SOL    MW421732   5.851   5.058   3.953  0.1159 -0.2443 -0.4068
 5492SOL     OW21733   4.729   1.703   0.083 -0.1198  0.2511 -0.0122
 5492SOL    HW221734   4.754   1.618   0.118  1.6159 -0.2384 -2.1814
 5492SOL    HW321735   4.688   1.749   0.156  0.0084 -1.9848  1.5448
 5492SOL    MW421736   4.727   1.698   0.097  0.0124 -0.3325  0.1202
 5493SOL     OW21737   5.491   1.079   3.820  0.5897  0.7784  0.0534
 5493SOL    HW221738   5.555   1.112   3.883  0.2221  0.9274  0.3534
 5493SOL    HW321739   5.528   0.996   3.789  1.0022  0.9418  0.1044
 5493SOL    MW421740   5.505   1.072   3.824  0.4396 -0.2490 -0.7292
 5494SOL     OW21741   5.682   3.291   0.881 -0.6879  0.0108  0.2345
 5494SOL    HW221742   5.670   3.299   0.976 -1.0530  1.2183  0.1004
 5494SOL    HW321743   5.690   3.381   0.850  0.9205 -0.4242 -0.7055
 5494SOL    MW421744   5.681   3.304   0.890  0.1936  0.4222 -0.4128
 5495SOL     OW21745   5.422   1.843   3.206 -0.7735 -0.1076 -0.0293
 5495SOL    HW221746   5.433   1.755   3.170  1.0588 -0.5332  1.4045
 5495SOL    HW321747   5.430   1.901   3.131 -2.3398 -1.1364 -1.0505
 5495SOL    MW421748   5.424   1.839   3.192  0.5932  0.0967  0.2492
 5496SOL     OW21749   4.300   4.005   5.782 -0.1871 -0.1453  0.0019
 5496SOL    HW221750   4.370   4.067   5.760  0.6247 -1.0741 -0.0789
 5496SOL    HW321751   4.278   4.025   5.873 -0.8561  1.1278 -0.4149
 5496SOL    MW421752   4.306   4.016   5.791  0.2381 -0.4303  0.1403
 5497SOL     OW21753   4.332   5.751   2.060  0.3083 -0.1552 -0.2264
 5497SOL    HW221754   4.369   5.669   2.027 -1.1257 -0.2395 -1.7331
 5497SOL    HW321755   4.264   5.723   2.122 -1.0319 -0.1811 -1.6625
 5497SOL    MW421756   4.328   5.736   2.064  0.1221 -0.3507 -0.4328
 5498SOL     OW21757   0.650   1.603   1.145  0.4451  0.1245 -0.6232
 5498SOL    HW221758   0.743   1.623   1.157  0.8207 -1.9231  0.3624
 5498SOL    HW321759   0.606   1.654   1.214  1.2151 -1.2585  0.9688
 5498SOL    MW421760   0.656   1.613   1.156 -1.0509  0.5110 -0.2677
 5499SOL     OW21761   4.281   3.868   6.244 -0.2726 -0.0222 -0.0814
 5499SOL    HW221762   4.251   3.930   6.178 -1.2928  0.0869  0.4750
 5499SOL    HW321763   4.374   3.888   6.254 -0.2743  0.4774 -0.9092
 5499SOL    MW421764   4.290   3.879   6.236 -0.2163  0.1991 -0.2066
 5500SOL     OW21765   4.500   5.694   2.586  0.1552  0.5711  0.0291
 5500SOL    HW221766   4.483   5.600   2.576 -0.0508  0.6901 -0.8018
 5500SOL    HW321767   4.579   5.709   2.534  1.0673  0.5961  1.3595
 5500SOL    MW421768   4.508   5.683   2.578  0.0172 -0.1649  0.1169
 5501SOL     OW21769   5.931   4.059   5.210 -0.7125  0.0574 -0.6237
 5501SOL    HW221770   5.982   3.993   5.163  1.2223  0.5803  0.6529
 5501SOL    HW321771   5.939   4.137   5.156 -0.2493  0.1100 -0.4803
 5501SOL    MW421772   5.939   4.060   5.197  0.1155 -0.1064 -0.4155
 5502SOL     OW21773   4.205   3.556   1.899 -0.4561  0.8100 -0.3680
 5502SOL    HW221774   4.292   3.588   1.925 -0.0577 -0.6986  0.2799
 5502SOL    HW321775   4.145   3.597   1.961  0.0848  0.0604  0.6799
 5502SOL    MW421776   4.209   3.566   1.911 -0.4830  0.1551  0.4385
 5503SOL     OW21777   6.277   1.664   4.123  0.5873  0.0460  0.3233
 5503SOL    HW221778   6.242   1.704   4.043 -0.4764  1.3842  1.4132
 5503SOL    HW321779   6.321   1.735   4.168  1.1618 -0.6921  0.9492
 5503SOL    MW421780   6.278   1.679   4.118 -0.1772  0.3358  0.3114
 5504SOL     OW21781   5.430   6.128   5.138  0.2653 -0.5677  0.1289
 5504SOL    HW221782   5.402   6.042   5.108  1.0454 -0.4940 -0.8745
 5504SOL    HW321783   5.368   6.189   5.098  0.1177 -0.6109  0.2897
 5504SOL    MW421784   5.419   6.125   5.128  0.1379 -0.5599 -0.3688
 5505SOL     OW21785   3.897   2.629   3.100 -1.0300 -0.0449  0.0783
 5505SOL    HW221786   3.841   2.662   3.170 -0.0356 -0.1952  0.9626
 5505SOL    HW321787   3.949   2.560   3.140  0.3167  0.5792 -0.5061
 5505SOL    MW421788   3.896   2.624   3.114 -0.1851  0.2948  0.0701
 5506SOL     OW21789   2.340   2.925   3.712 -0.8576 -0.5081 -0.0795
 5506SOL    HW221790   2.373   2.836   3.724  1.3211  0.3680  0.7317
 5506SOL    HW321791   2.391   2.960   3.639 -1.1649  0.3504  0.1064
 5506SOL    MW421792   2.351   2.918   3.704 -0.8037  0.0795 -0.3547
 5507SOL     OW21793   5.340   0.133   0.545 -0.1017  0.7317  0.0593
 5507SOL    HW221794   5.379   0.119   0.631  0.3874  0.9418 -0.1292
 5507SOL    HW321795   5.281   0.059   0.533 -1.8919  1.8049  1.5379
 5507SOL    MW421796   5.337   0.122   0.554 -0.2160 -0.0803  0.1559
 5508SOL     OW21797   5.590   1.078   1.689  0.3149  0.0963 -0.5331
 5508SOL    HW221798   5.561   1.034   1.609  1.9894 -1.6741 -0.2215
 5508SOL    HW321799   5.680   1.106   1.670  0.6729 -0.1931  0.6573
 5508SOL    MW421800   5.598   1.076   1.676 -0.7742 -0.3464  0.9570
 5509SOL     OW21801   0.301   0.268   5.956  0.1414  0.0033  0.2742
 5509SOL    HW221802   0.315   0.192   6.013  0.3292 -0.8319 -0.8551
 5509SOL    HW321803   0.371   0.328   5.980  1.1021 -0.9453 -0.0430
 5509SOL    MW421804   0.312   0.266   5.967  0.2792 -0.4874 -0.1179
 5510SOL     OW21805   0.645   0.449   3.401 -0.1775 -0.2765 -0.0722
 5510SOL    HW221806   0.664   0.522   3.343 -1.1323  0.6690  0.7587
 5510SOL    HW321807   0.586   0.393   3.351 -1.3486  0.7556  0.1074
 5510SOL    MW421808   0.640   0.451   3.387  0.2644 -0.0151  0.5441
 5511SOL     OW21809   2.369   1.549   4.284 -0.4169 -0.1196  0.7026
 5511SOL    HW221810   2.306   1.509   4.343 -1.9248  2.0179  0.6667
 5511SOL    HW321811   2.370   1.642   4.309 -1.3293  0.9643 -2.6646
 5511SOL    MW421812   2.361   1.556   4.295  0.1161  0.4591  0.4253
 5512SOL     OW21813   0.707   1.057   2.632 -0.0629  0.1615  0.2949
 5512SOL    HW221814   0.645   1.069   2.560 -1.2508 -3.4085  0.5450
 5512SOL    HW321815   0.652   1.044   2.709  1.1569  1.1612  1.3889
 5512SOL    MW421816   0.691   1.057   2.633  1.1317 -0.0627  0.6495
 5513SOL     OW21817   0.314   0.749   1.439  0.3553 -0.4481  0.0561
 5513SOL    HW221818   0.306   0.790   1.525  0.6638 -0.3848  0.0575
 5513SOL    HW321819   0.248   0.680   1.439  0.1973 -0.2982  0.2562
 5513SOL    MW421820   0.304   0.745   1.451  0.3371  0.0120 -0.1929
 5514SOL     OW21821   4.517   4.303   0.777  0.3963 -0.4050 -0.3065
 5514SOL    HW221822   4.446   4.248   0.743  1.5075 -2.4372  0.5133
 5514SOL    HW321823   4.472   4.369   0.830 -0.8915 -1.9068  0.5668
 5514SOL    MW421824   4.501   4.305   0.780 -0.3691  0.3702  0.2266
 5515SOL     OW21825   1.469   5.510   5.734  0.5980  0.0191 -0.2675
 5515SOL    HW221826   1.514   5.496   5.650  1.9955 -0.4657  0.5353
 5515SOL    HW321827   1.495   5.598   5.761 -0.5945  0.5440 -0.7576
 5515SOL    MW421828   1.479   5.520   5.726 -0.2176 -0.2053 -0.4519
 5516SOL     OW21829   5.322   4.951   3.511  0.4643 -0.0997 -0.4921
 5516SOL    HW221830   5.337   4.911   3.425  0.5484  1.4127 -1.2111
 5516SOL    HW321831   5.236   4.992   3.503 -0.0451 -0.9259  0.5532
 5516SOL    MW421832   5.313   4.951   3.498  0.2820  0.2106 -0.1575
 5517SOL     OW21833   4.465   3.419   5.027 -0.6930 -0.2396 -0.1008
 5517SOL    HW221834   4.526   3.489   5.052 -0.2415 -0.9291  0.8014
 5517SOL    HW321835   4.403   3.461   4.968 -2.6822  1.8817  3.2063
 5517SOL    MW421836   4.465   3.434   5.022  0.2183 -0.0267  0.0281
 5518SOL     OW21837   5.246   0.190   5.309  0.5686  0.4271  0.1037
 5518SOL    HW221838   5.259   0.111   5.256  1.3046  0.4007  0.3161
 5518SOL    HW321839   5.209   0.159   5.391  1.3815  0.2277  0.4066
 5518SOL    MW421840   5.243   0.175   5.312 -0.1967  0.3920  0.2948
 5519SOL     OW21841   2.950   2.644   0.396  0.6680  0.6700 -0.5462
 5519SOL    HW221842   2.857   2.656   0.414  0.5900  0.1866 -0.6148
 5519SOL    HW321843   2.953   2.601   0.311  0.9763  1.1818 -0.7994
 5519SOL    MW421844   2.938   2.640   0.387  1.0381  0.0261  0.0647
 5520SOL     OW21845   4.348   2.048   0.436 -0.5015 -0.0428 -0.3502
 5520SOL    HW221846   4.294   1.984   0.389 -1.2534 -0.0778  0.5506
 5520SOL    HW321847   4.414   1.995   0.482  0.7647  0.0367 -1.9697
 5520SOL    MW421848   4.350   2.032   0.436  0.2402 -0.2115  0.0425
 5521SOL     OW21849   1.639   6.058   2.255  0.0084  0.6341  0.0884
 5521SOL    HW221850   1.665   6.008   2.331 -0.2907  1.6794  0.9037
 5521SOL    HW321851   1.709   6.122   2.243  0.7037 -0.3285 -1.3196
 5521SOL    MW421852   1.652   6.060   2.263 -0.0981 -0.4348 -0.1020
 5522SOL     OW21853   3.966   6.440   4.966  0.0918  0.0604  0.2723
 5522SOL    HW221854   4.057   6.467   4.979 -0.0167  0.1820  0.8196
 5522SOL    HW321855   3.917   6.487   5.033 -0.3812  0.0183 -0.0382
 5522SOL    MW421856   3.971   6.450   4.977  0.2027  0.2055 -0.1559
 5523SOL     OW21857   1.398   5.818   0.752  0.0496  0.0943 -0.4190
 5523SOL    HW221858   1.314   5.805   0.795  0.4379  1.4428  0.8429
 5523SOL    HW321859   1.458   5.839   0.824  0.5078  3.5174 -1.6581
 5523SOL    MW421860   1.395   5.819   0.767  0.2521 -0.2566 -0.3265
 5524SOL     OW21861   4.160   1.547   2.328  0.1532  0.0931  0.3030
 5524SOL    HW221862   4.205   1.610   2.385 -0.0041  0.2230  0.2842
 5524SOL    HW321863   4.217   1.541   2.251  0.0445  0.4083  0.1924
 5524SOL    MW421864   4.174   1.555   2.325  0.3116 -0.3615  0.4194
 5525SOL     OW21865   2.925   0.954   5.750  0.1547  0.1400  0.2864
 5525SOL    HW221866   2.962   1.017   5.687 -0.5624  0.3915  0.1072
 5525SOL    HW321867   2.947   0.991   5.836 -0.8845  1.0218  0.1852
 5525SOL    MW421868   2.933   0.967   5.753 -0.1279  0.2741  0.3394
 5526SOL     OW21869   1.692   0.430   5.411  0.2411  0.2785  0.1614
 5526SOL    HW221870   1.641   0.445   5.490 -1.6696 -0.9869 -0.7636
 5526SOL    HW321871   1.747   0.354   5.432 -1.4379 -1.0826 -0.1992
 5526SOL    MW421872   1.693   0.422   5.424  0.0976 -0.0113  0.0615
 5527SOL     OW21873   3.275   1.557   4.403  0.1869 -0.0453  0.4131
 5527SOL    HW221874   3.347   1.498   4.383 -2.1150 -3.0880  0.3494
 5527SOL    HW321875   3.248   1.592   4.318  1.6173  1.2508  0.4593
 5527SOL    MW421876   3.281   1.554   4.389 -0.0117  0.8591  0.0041
 5528SOL     OW21877   3.120   6.234   5.175 -0.3650  0.2106 -0.0188
 5528SOL    HW221878   3.196   6.223   5.232 -0.4274 -1.9137 -0.2776
 5528SOL    HW321879   3.049   6.258   5.234  0.3451  1.6545  0.2957
 5528SOL    MW421880   3.121   6.236   5.190 -0.8799  0.0657 -0.0582
 5529SOL     OW21881   2.997   4.069   6.058 -0.7467  0.3244 -0.1273
 5529SOL    HW221882   2.909   4.068   6.020 -0.2571  0.1445 -1.2962
 5529SOL    HW321883   3.048   4.011   6.002  0.3752  1.2624 -0.1197
 5529SOL    MW421884   2.992   4.061   6.046 -0.6521 -0.4262  0.3881
 5530SOL     OW21885   3.370   5.804   0.876 -0.0084  0.1585  0.4174
 5530SOL    HW221886   3.431   5.782   0.805  0.1369  0.9578  0.2802
 5530SOL    HW321887   3.289   5.828   0.831  0.6981  2.6887  0.3630
 5530SOL    MW421888   3.367   5.804   0.861  0.1474 -0.1159 -0.1535
 5531SOL     OW21889   6.141   1.054   0.795 -0.5221  0.2689  0.1145
 5531SOL    HW221890   6.155   0.960   0.802  0.1352  0.2918 -0.7303
 5531SOL    HW321891   6.226   1.094   0.813 -0.8746  0.7342  0.8313
 5531SOL    MW421892   6.154   1.047   0.798  0.3671  0.4306 -0.6906
 5532SOL     OW21893   2.053   4.470   4.829  0.1526 -0.6285  0.5629
 5532SOL    HW221894   2.039   4.392   4.884  0.1760 -1.1849 -0.2046
 5532SOL    HW321895   2.108   4.527   4.883  1.0651 -1.6153  0.7190
 5532SOL    MW421896   2.058   4.467   4.844  0.5093 -0.0497 -0.0644
 5533SOL     OW21897   1.451   6.363   0.156 -0.2182  0.0221 -0.0781
 5533SOL    HW221898   1.479   6.417   0.083 -0.8200 -0.4810 -0.6953
 5533SOL    HW321899   1.457   6.420   0.232 -0.9562  1.0106 -0.7360
 5533SOL    MW421900   1.455   6.378   0.156  0.1987  0.3320 -0.2662
 5534SOL     OW21901   0.171   2.641   4.170 -0.6190  0.4551  0.2097
 5534SOL    HW221902   0.245   2.580   4.176 -0.8217  0.2700  0.9630
 5534SOL    HW321903   0.162   2.659   4.077  0.3868  0.4860  0.1081
 5534SOL    MW421904   0.180   2.635   4.158 -0.3064  0.2182 -0.2333
 5535SOL     OW21905   2.601   3.395   1.208 -0.3526  0.0354  0.1686
 5535SOL    HW221906   2.654   3.319   1.231 -0.8038 -0.6353 -0.9342
 5535SOL    HW321907   2.580   3.383   1.116  1.0138  2.3694 -0.5384
 5535SOL    MW421908   2.606   3.383   1.199 -0.1440 -0.2165 -0.1717
 5536SOL     OW21909   3.421   4.257   4.812  0.2453 -0.1890  0.3358
 5536SOL    HW221910   3.350   4.237   4.751  0.1502  0.0873  0.3542
 5536SOL    HW321911   3.377   4.277   4.895  0.3599 -0.3048  0.4258
 5536SOL    MW421912   3.406   4.257   4.815  0.2598  0.6181  0.5851
 5537SOL     OW21913   3.988   3.930   4.093 -0.0276 -0.8210  0.6264
 5537SOL    HW221914   3.941   3.983   4.157  1.7615 -0.7536  1.9716
 5537SOL    HW321915   3.951   3.954   4.009 -2.7446 -1.1761  1.6269
 5537SOL    MW421916   3.977   3.940   4.091 -0.5772  0.1186 -0.3986
 5538SOL     OW21917   6.289   0.667   5.744 -0.6479 -0.0889 -0.0036
 5538SOL    HW221918   6.200   0.655   5.778 -0.6655  0.0192 -0.0084
 5538SOL    HW321919   6.346   0.630   5.811 -0.4363  3.4565  2.0449
 5538SOL    MW421920   6.285   0.661   5.757 -0.1895 -0.0381  0.3257
 5539SOL     OW21921   6.056   5.625   5.942 -0.2374  0.3024  0.5039
 5539SOL    HW221922   6.027   5.615   6.033  2.8150  0.1402  1.5591
 5539SOL    HW321923   6.151   5.623   5.946  0.0255 -0.6125 -2.8403
 5539SOL    MW421924   6.065   5.623   5.955  0.3673  0.2411 -1.0200
 5540SOL     OW21925   0.324   1.439   5.839 -0.0480  0.5868  0.2138
 5540SOL    HW221926   0.361   1.364   5.885  1.3318  1.8618  1.3173
 5540SOL    HW321927   0.237   1.449   5.877  0.0053 -0.0685  0.5266
 5540SOL    MW421928   0.318   1.431   5.850 -0.6625 -0.5690 -0.1549
 5541SOL     OW21929   0.636   5.882   5.905  0.6072  0.2040  0.1840
 5541SOL    HW221930   0.726   5.850   5.895  0.5806 -0.6120  2.0484
 5541SOL    HW321931   0.588   5.841   5.834  1.6383  0.4262 -0.6731
 5541SOL    MW421932   0.642   5.872   5.894  0.0667 -0.2025 -0.1994
 5542SOL     OW21933   0.445   5.457   5.932 -0.2530  0.0334 -0.6637
 5542SOL    HW221934   0.490   5.523   5.985 -0.0014 -0.6628  0.0019
 5542SOL    HW321935   0.357   5.452   5.970 -0.0118 -0.6057 -0.1711
 5542SOL    MW421936   0.439   5.465   5.944 -0.2860 -0.4178 -0.1047
 5543SOL     OW21937   1.867   0.238   5.467 -0.2331 -0.2701  0.4013
 5543SOL    HW221938   1.849   0.195   5.383 -0.1492  0.9772 -0.2781
 5543SOL    HW321939   1.883   0.166   5.528  1.4652 -1.1932 -1.0471
 5543SOL    MW421940   1.867   0.223   5.464 -0.3273  0.0418  0.2181
 5544SOL     OW21941   5.450   3.080   3.486  0.0029 -0.0057 -0.2338
 5544SOL    HW221942   5.401   3.008   3.445 -1.6736  0.9521 -0.0175
 5544SOL    HW321943   5.541   3.054   3.480 -0.5177 -1.8160 -0.8110
 5544SOL    MW421944   5.455   3.067   3.480  0.3837 -0.1795  0.0192
 5545SOL     OW21945   3.255   3.728   2.290  0.3276  0.1064  0.0789
 5545SOL    HW221946   3.266   3.789   2.363 -1.2665  0.5936 -0.0430
 5545SOL    HW321947   3.213   3.651   2.329 -0.8539  0.5062 -0.3327
 5545SOL    MW421948   3.251   3.726   2.304  0.1128  0.0900  0.6312
 5546SOL     OW21949   2.204   2.288   3.511  0.2670 -0.7253  0.0387
 5546SOL    HW221950   2.261   2.227   3.557  2.3518  1.2615  0.2795
 5546SOL    HW321951   2.223   2.273   3.418 -0.8712 -1.8959 -0.0318
 5546SOL    MW421952   2.214   2.278   3.504 -0.2197  0.1550 -0.0489
 5547SOL     OW21953   2.193   4.890   2.794  0.0796  0.1187 -0.5875
 5547SOL    HW221954   2.208   4.982   2.772  1.2801 -0.3365 -1.8116
 5547SOL    HW321955   2.161   4.892   2.885 -0.2459  1.7472 -0.7075
 5547SOL    MW421956   2.191   4.903   2.803 -0.1094 -0.0872  0.3689
 5548SOL     OW21957   3.768   2.023   1.879  0.3462 -0.6306 -0.6930
 5548SOL    HW221958   3.844   1.970   1.854  0.5313 -0.3610 -0.7041
 5548SOL    HW321959   3.694   1.963   1.871  0.6462 -1.1187  0.0536
 5548SOL    MW421960   3.768   2.008   1.875 -0.5446  0.2148 -0.0131
 5549SOL     OW21961   3.341   5.603   5.080  0.0474 -0.3493 -0.0856
 5549SOL    HW221962   3.359   5.515   5.046  0.7222 -0.0872 -0.4200
 5549SOL    HW321963   3.246   5.614   5.069 -0.2483 -1.4902  1.0634
 5549SOL    MW421964   3.331   5.593   5.074  0.4517  0.5745 -0.1426
 5550SOL     OW21965   3.818   5.080   2.927  0.1859 -0.2047 -0.5729
 5550SOL    HW221966   3.853   5.065   3.015 -0.6586 -1.0434 -0.3688
 5550SOL    HW321967   3.880   5.034   2.869  0.7434  0.3493 -0.4284
 5550SOL    MW421968   3.831   5.072   2.931 -0.2316  0.3392  0.6005
 5551SOL     OW21969   5.353   5.122   5.836 -0.5742 -0.4052 -0.0005
 5551SOL    HW221970   5.417   5.146   5.768 -1.9961  0.1461 -1.2038
 5551SOL    HW321971   5.368   5.029   5.851  0.8878 -0.1718  0.1712
 5551SOL    MW421972   5.363   5.113   5.829 -0.3938 -0.2756 -0.3610
 5552SOL     OW21973   2.936   1.206   1.118 -0.4932  0.3263  0.1422
 5552SOL    HW221974   3.026   1.194   1.150 -0.7200  0.3645  0.8035
 5552SOL    HW321975   2.917   1.124   1.071 -0.1544  0.2719  0.0921
 5552SOL    MW421976   2.945   1.193   1.116 -0.2032  0.2046  0.3206
 5553SOL     OW21977   4.289   1.269   4.192  0.5955  0.0308  0.8862
 5553SOL    HW221978   4.255   1.305   4.274  2.6715 -0.0930  1.8472
 5553SOL    HW321979   4.372   1.313   4.179  0.3262  0.0198 -1.1770
 5553SOL    MW421980   4.295   1.280   4.201 -0.0404  0.4554 -0.8018
 5554SOL     OW21981   1.070   0.159   0.904  0.2901  0.2069  0.3283
 5554SOL    HW221982   1.017   0.121   0.834  2.2315  0.5363 -1.4349
 5554SOL    HW321983   1.112   0.236   0.864  0.9525  0.8173  2.0652
 5554SOL    MW421984   1.069   0.164   0.890  0.0523  0.3573  0.5094
 5555SOL     OW21985   3.539   2.756   5.062  0.4351  0.1089 -0.1996
 5555SOL    HW221986   3.607   2.726   5.123  1.7189  0.8708 -1.2065
 5555SOL    HW321987   3.477   2.683   5.059  1.4632 -0.8280  0.3745
 5555SOL    MW421988   3.540   2.742   5.070 -0.2429  0.1537 -0.3743
 5556SOL     OW21989   5.586   6.080   2.731 -0.1989 -0.4080  0.1951
 5556SOL    HW221990   5.661   6.058   2.787 -0.7348 -0.5025  0.8936
 5556SOL    HW321991   5.580   6.006   2.671  0.0615 -0.5614  0.3518
 5556SOL    MW421992   5.595   6.067   2.731 -0.4102 -0.0900 -0.3006
 5557SOL     OW21993   3.027   5.423   6.144 -0.6271  0.3850  0.0706
 5557SOL    HW221994   2.995   5.449   6.058 -0.1975  0.6887 -0.0049
 5557SOL    HW321995   3.022   5.502   6.197 -1.6232  0.0067  0.5561
 5557SOL    MW421996   3.022   5.437   6.139 -0.1684 -0.7815  0.1459
 5558SOL     OW21997   1.937   0.552   2.452  0.0356 -0.2255  0.0775
 5558SOL    HW221998   1.915   0.467   2.490 -2.2930  0.2496 -0.0825
 5558SOL    HW321999   1.915   0.615   2.520 -1.6640  0.4555 -1.0458
 5558SOL    MW422000   1.932   0.549   2.466 -0.1647 -0.0615  0.0126
 5559SOL     OW22001   2.496   1.319   0.303  0.6269  0.3153 -0.2164
 5559SOL    HW222002   2.491   1.400   0.251 -0.4690  0.1785 -0.3397
 5559SOL    HW322003   2.406   1.288   0.308  0.9626 -0.6072  0.3125
 5559SOL    MW422004   2.484   1.326   0.297 -0.2895  0.4762 -0.0789
 5560SOL     OW22005   6.154   1.784   3.906 -0.0403 -0.2327  0.3437
 5560SOL    HW222006   6.123   1.729   3.833 -0.1129 -0.5672  0.6255
 5560SOL    HW322007   6.189   1.862   3.863 -2.6114  0.8698  0.0220
 5560SOL    MW422008   6.154   1.787   3.891  0.0142 -0.5650  0.0244
 5561SOL     OW22009   5.663   3.695   3.218 -0.1412  0.3953 -0.4193
 5561SOL    HW222010   5.715   3.632   3.169 -0.3188 -0.3335  0.3077
 5561SOL    HW322011   5.598   3.642   3.265 -1.2057  1.2308 -0.8892
 5561SOL    MW422012   5.661   3.680   3.218 -0.1215  0.4178  0.2619
 5562SOL     OW22013   2.849   4.815   4.758  0.0946 -0.2235  0.0099
 5562SOL    HW222014   2.813   4.781   4.676  1.5144 -1.7133 -0.0412
 5562SOL    HW322015   2.843   4.743   4.820 -1.2375  0.9789  1.3609
 5562SOL    MW422016   2.844   4.801   4.755  0.7597 -0.3718  0.1245
 5563SOL     OW22017   1.621   3.393   1.750  0.0956 -0.4834  0.6225
 5563SOL    HW222018   1.561   3.428   1.816  0.0893  2.1128 -0.6533
 5563SOL    HW322019   1.629   3.300   1.773 -2.9933 -0.5704  1.8933
 5563SOL    MW422020   1.614   3.385   1.762 -0.6335  0.1457  0.6192
 5564SOL     OW22021   3.367   0.388   6.053  0.3100 -0.3036 -0.5224
 5564SOL    HW222022   3.420   0.309   6.047  0.1867 -0.3157 -1.5268
 5564SOL    HW322023   3.283   0.359   6.088 -0.3726 -0.9504 -2.5640
 5564SOL    MW422024   3.363   0.374   6.057  0.1246  0.1113 -0.3699
 5565SOL     OW22025   4.289   4.959   1.719  0.3061 -0.5740 -0.7150
 5565SOL    HW222026   4.327   4.871   1.714  0.3666 -0.4879 -1.9402
 5565SOL    HW322027   4.214   4.956   1.659 -1.2889 -0.5475  1.1651
 5565SOL    MW422028   4.284   4.947   1.710 -0.0873 -0.7890 -0.1492
 5566SOL     OW22029   5.917   0.897   3.482 -0.5565  0.1179 -0.0963
 5566SOL    HW222030   5.980   0.968   3.494 -0.7864 -0.0227  2.4819
 5566SOL    HW322031   5.836   0.941   3.458 -0.0148  0.4573 -1.4071
 5566SOL    MW422032   5.915   0.912   3.480 -0.1079 -1.2176 -0.0099
 5567SOL     OW22033   4.926   0.241   5.694 -0.9052  0.1256  0.1433
 5567SOL    HW222034   4.859   0.296   5.653 -2.5699 -1.3584  0.7355
 5567SOL    HW322035   4.956   0.183   5.624 -0.4049  0.6260 -0.0617
 5567SOL    MW422036   4.921   0.241   5.679 -0.1597 -0.1663 -0.1469
 5568SOL     OW22037   5.317   1.538   3.834  0.5471 -0.2003  0.2515
 5568SOL    HW222038   5.265   1.616   3.815 -0.6920 -0.7980  1.1080
 5568SOL    HW322039   5.338   1.545   3.927 -0.3381 -1.3132  0.5538
 5568SOL    MW422040   5.313   1.549   3.844 -0.2425 -0.3450 -0.2860
 5569SOL     OW22041   1.303   0.346   0.441 -0.1823  0.0080  0.2659
 5569SOL    HW222042   1.265   0.258   0.449  1.7126 -0.8664  0.0461
 5569SOL    HW322043   1.343   0.348   0.355 -1.8509  1.8271 -0.5557
 5569SOL    MW422044   1.303   0.335   0.431 -0.3162  0.2305  0.7144
 5570SOL     OW22045   5.533   1.699   5.859  0.6174 -0.2287 -0.4089
 5570SOL    HW222046   5.446   1.658   5.861 -0.3633  1.7496  1.1956
 5570SOL    HW322047   5.593   1.630   5.889 -1.1890 -0.1859  4.0654
 5570SOL    MW422048   5.529   1.684   5.863  0.0035 -0.3129 -0.1415
 5571SOL     OW22049   5.744   3.674   0.506 -0.1686 -0.5178  0.5399
 5571SOL    HW222050   5.662   3.681   0.554  0.5932  0.2572  1.7830
 5571SOL    HW322051   5.812   3.686   0.573  0.9380  0.7811 -0.7620
 5571SOL    MW422052   5.743   3.676   0.522 -0.2490 -0.2072  0.1645
 5572SOL     OW22053   2.355   1.448   3.171 -0.4214  0.4565 -0.1211
 5572SOL    HW222054   2.276   1.453   3.117  0.7466 -1.5002 -2.1828
 5572SOL    HW322055   2.325   1.466   3.260 -3.2578 -0.6062 -0.7717
 5572SOL    MW422056   2.341   1.451   3.176 -0.2927 -0.3371 -0.0239
 5573SOL     OW22057   1.236   3.049   4.648 -0.3396 -0.4339 -0.2711
 5573SOL    HW222058   1.244   3.139   4.615 -1.3172  0.4339  1.6126
 5573SOL    HW322059   1.304   3.000   4.603 -1.0051  0.7989 -2.7902
 5573SOL    MW422060   1.246   3.055   4.638  0.9293  0.1980 -0.0081
 5574SOL     OW22061   2.308   5.348   2.875 -0.1920  0.3026  0.1027
 5574SOL    HW222062   2.308   5.274   2.815  0.1679  0.5187 -0.1679
 5574SOL    HW322063   2.288   5.424   2.821  0.5180  0.5515  0.1794
 5574SOL    MW422064   2.305   5.348   2.860 -0.0111 -0.1483  0.5104
 5575SOL     OW22065   2.542   4.421   5.987 -0.7636 -0.2254  0.1084
 5575SOL    HW222066   2.465   4.380   5.948 -0.8489  0.1843 -0.1667
 5575SOL    HW322067   2.616   4.379   5.944 -0.8568  0.2778 -0.5747
 5575SOL    MW422068   2.542   4.410   5.976 -0.5408  0.4244 -0.0536
 5576SOL     OW22069   1.408   2.700   3.859 -0.0737 -0.1616 -0.1928
 5576SOL    HW222070   1.343   2.686   3.927 -1.5973 -0.7093 -1.6920
 5576SOL    HW322071   1.374   2.653   3.783  2.1650 -0.5978 -0.9976
 5576SOL    MW422072   1.395   2.692   3.858 -0.1402  0.7442  0.0466
 5577SOL     OW22073   5.114   1.373   5.841  0.2724 -0.8638  0.1455
 5577SOL    HW222074   5.101   1.321   5.761 -2.3921 -0.6543  0.3523
 5577SOL    HW322075   5.098   1.312   5.912  0.7978 -0.6092  0.4844
 5577SOL    MW422076   5.110   1.358   5.840  0.2742 -0.0017 -0.4113
 5578SOL     OW22077   0.646   0.560   5.331 -0.2762  0.0497 -0.0569
 5578SOL    HW222078   0.624   0.591   5.419  0.4049 -1.0993  0.5537
 5578SOL    HW322079   0.562   0.535   5.293 -0.4990 -0.2625  0.6140
 5578SOL    MW422080   0.632   0.561   5.338  0.4757 -0.0860  0.1826
 5579SOL     OW22081   1.956   1.723   0.331 -0.3398  0.4619  0.0066
 5579SOL    HW222082   1.998   1.784   0.392 -0.3287 -0.8779  1.3801
 5579SOL    HW322083   2.015   1.720   0.256  0.7164  0.5635  0.8145
 5579SOL    MW422084   1.969   1.731   0.329 -0.3312 -0.0154 -0.6764
 5580SOL     OW22085   3.691   1.760   5.586  0.4642 -0.0711  0.0576
 5580SOL    HW222086   3.649   1.768   5.672  1.4828 -0.6093  0.6208
 5580SOL    HW322087   3.625   1.792   5.524 -1.9842 -3.6174  0.5356
 5580SOL    MW422088   3.677   1.766   5.589 -0.1991 -0.0603  0.1877
 5581SOL     OW22089   2.731   3.197   2.752 -0.1961  0.3724  0.5741
 5581SOL    HW222090   2.703   3.247   2.675 -0.1109 -0.0264  0.2803
 5581SOL    HW322091   2.652   3.152   2.781 -0.3034  0.7813  0.9187
 5581SOL    MW422092   2.717   3.198   2.745 -0.3483  0.1707 -0.0124
 5582SOL     OW22093   2.618   4.961   2.682  0.4800 -0.1866 -0.0464
 5582SOL    HW222094   2.592   4.869   2.687  1.5369 -0.4758  0.2791
 5582SOL    HW322095   2.697   4.961   2.628  0.0607  0.6348 -0.6811
 5582SOL    MW422096   2.625   4.949   2.676 -0.6235  0.1804  0.7559
 5583SOL     OW22097   4.205   3.329   5.467  0.2144 -0.2923 -0.7547
 5583SOL    HW222098   4.160   3.413   5.476 -1.0791 -1.0260 -0.0034
 5583SOL    HW322099   4.238   3.328   5.377 -0.2806  0.7665 -0.9543
 5583SOL    MW422100   4.203   3.340   5.457 -0.2850  0.0784 -0.3431
 5584SOL     OW22101   1.784   5.833   6.273  0.1849  0.1640  0.1583
 5584SOL    HW222102   1.745   5.801   6.354 -0.1927  0.6862  0.1835
 5584SOL    HW322103   1.792   5.928   6.285 -0.8234  0.3872 -0.8081
 5584SOL    MW422104   1.780   5.841   6.285  0.2863  0.3159  0.0527
 5585SOL     OW22105   5.702   0.375   5.720 -0.0486  0.1931 -0.1084
 5585SOL    HW222106   5.743   0.461   5.708  1.3733 -0.2497  1.3164
 5585SOL    HW322107   5.771   0.319   5.754 -0.8848 -1.6281 -1.2274
 5585SOL    MW422108   5.716   0.379   5.723 -0.1967 -0.2424  0.2810
 5586SOL     OW22109   4.115   0.628   0.315 -0.8707  0.3766 -0.2497
 5586SOL    HW222110   4.151   0.692   0.254 -1.8243  1.0737 -0.1052
 5586SOL    HW322111   4.190   0.572   0.337 -0.5718 -0.0983 -2.2663
 5586SOL    MW422112   4.130   0.629   0.310  0.4565 -0.3240 -0.0047
 5587SOL     OW22113   5.054   5.587   6.075 -0.5482 -0.4635 -0.3368
 5587SOL    HW222114   5.067   5.596   6.170  0.8761  0.7475 -0.6056
 5587SOL    HW322115   5.019   5.499   6.064 -1.7830 -0.2414  1.4066
 5587SOL    MW422116   5.051   5.577   6.086  0.0144  0.7575  0.2941
 5588SOL     OW22117   3.903   1.274   4.246  0.3795 -0.4370  0.3554
 5588SOL    HW222118   3.822   1.223   4.257 -0.2518  0.1369 -1.2660
 5588SOL    HW322119   3.884   1.332   4.173  1.7227  0.8715  1.0072
 5588SOL    MW422120   3.890   1.275   4.238  0.2141  0.3349  0.0918
 5589SOL     OW22121   1.719   0.126   5.884 -0.0881  0.8130  0.6413
 5589SOL    HW222122   1.756   0.195   5.939 -1.1693  1.1688  0.9427
 5589SOL    HW322123   1.640   0.098   5.930  0.5086 -0.8872  0.7034
 5589SOL    MW422124   1.713   0.131   5.897  0.0711 -0.4055  0.6053
 5590SOL     OW22125   0.963   2.479   1.808 -0.1022  0.2011  0.5057
 5590SOL    HW222126   0.945   2.435   1.725  1.9239 -1.0083  0.6455
 5590SOL    HW322127   0.935   2.416   1.875  0.8473 -0.0343  0.7028
 5590SOL    MW422128   0.957   2.465   1.806 -0.4502  0.2035 -0.0263
 5591SOL     OW22129   1.452   4.226   6.123  0.1131  0.3878  0.2190
 5591SOL    HW222130   1.417   4.256   6.207  2.3985  0.4812  1.2167
 5591SOL    HW322131   1.496   4.303   6.086  1.2968 -0.2729  0.1810
 5591SOL    MW422132   1.453   4.240   6.129 -0.5199  0.1671 -0.2541
 5592SOL     OW22133   4.639   0.861   1.401  0.1399 -0.0869  0.3178
 5592SOL    HW222134   4.663   0.774   1.370 -0.0813 -0.1261  0.2555
 5592SOL    HW322135   4.572   0.891   1.339  1.6532  0.9717 -0.8932
 5592SOL    MW422136   4.634   0.854   1.389 -0.3494  0.3936  0.1536
 5593SOL     OW22137   0.377   2.786   5.499 -0.1846 -0.1744  0.0999
 5593SOL    HW222138   0.397   2.877   5.479  1.9337 -0.2746  1.4380
 5593SOL    HW322139   0.317   2.791   5.574 -1.0642  0.1090 -0.6107
 5593SOL    MW422140   0.372   2.799   5.506  0.3671 -0.0699  0.0392
 5594SOL     OW22141   3.574   0.871   2.786  0.4364  0.3317 -0.0181
 5594SOL    HW222142   3.539   0.804   2.727  0.8960 -0.8143  0.9614
 5594SOL    HW322143   3.615   0.821   2.857 -1.5365  1.5974  2.1664
 5594SOL    MW422144   3.574   0.855   2.788 -0.2729  0.2390 -0.2267
 5595SOL     OW22145   4.892   3.281   3.274 -0.0503  0.2348 -0.1790
 5595SOL    HW222146   4.866   3.373   3.284 -1.8854 -0.3110  0.4736
 5595SOL    HW322147   4.945   3.263   3.351 -0.6755  0.4487  0.3127
 5595SOL    MW422148   4.895   3.291   3.285 -0.1547  0.5870 -0.1115
 5596SOL     OW22149   6.362   2.263   1.999  0.2103 -0.2785 -0.3108
 5596SOL    HW222150   6.300   2.191   2.002  1.0617 -1.0182  0.8842
 5596SOL    HW322151   6.384   2.273   1.907  0.3802 -1.8501 -0.4728
 5596SOL    MW422152   6.357   2.255   1.987  0.1721 -0.4313  0.1845
 5597SOL     OW22153   4.556   6.312   6.287 -0.4320 -0.0382  0.4338
 5597SOL    HW222154   4.473   6.312   6.335 -0.1913 -0.1741  0.8513
 5597SOL    HW322155   4.616   6.265   6.344 -0.4004 -1.0999 -0.4428
 5597SOL    MW422156   4.553   6.306   6.301 -0.3230 -0.2461  0.0872
 5598SOL     OW22157   5.072   2.569   5.266 -0.1405  0.3317 -0.3941
 5598SOL    HW222158   5.050   2.662   5.266  0.1750  0.4070 -0.8318
 5598SOL    HW322159   4.987   2.524   5.269 -0.3049  0.6268 -0.5994
 5598SOL    MW422160   5.058   2.576   5.267 -0.4064 -0.0549 -0.1798
 5599SOL     OW22161   2.220   3.527   0.885 -0.5012  0.2987 -0.6802
 5599SOL    HW222162   2.223   3.462   0.955 -2.1521  1.5134  0.5893
 5599SOL    HW322163   2.307   3.567   0.885  0.1596 -1.0906 -0.7107
 5599SOL    MW422164   2.232   3.524   0.894  0.2853  0.8294  0.4008
 5600SOL     OW22165   6.282   4.170   3.680  0.2128  0.3366  0.2849
 5600SOL    HW222166   6.208   4.204   3.730 -0.0097  0.2681  0.0043
 5600SOL    HW322167   6.359   4.190   3.734 -0.1029 -0.5068  1.0658
 5600SOL    MW422168   6.283   4.177   3.693 -0.1604  0.1627  0.0848
 5601SOL     OW22169   2.665   0.612   2.257 -0.5614 -0.2952 -0.3505
 5601SOL    HW222170   2.609   0.679   2.296 -0.7081 -0.4825 -0.2357
 5601SOL    HW322171   2.623   0.592   2.173 -1.6438 -1.6424  0.4490
 5601SOL    MW422172   2.652   0.618   2.251 -0.3655 -0.3584 -0.3374
 5602SOL     OW22173   3.893   6.232   2.790  0.1669  0.2103  0.4774
 5602SOL    HW222174   3.914   6.139   2.798 -0.4804  0.0725  0.7087
 5602SOL    HW322175   3.798   6.233   2.775  0.2975  0.7972 -0.3444
 5602SOL    MW422176   3.883   6.220   2.789  0.5454  0.1694  0.7508
 5603SOL     OW22177   5.563   2.157   5.881  0.0719  0.3643  0.2015
 5603SOL    HW222178   5.577   2.217   5.808 -0.4604  1.5146  1.0158
 5603SOL    HW322179   5.498   2.201   5.936 -0.0550 -0.7956  1.0111
 5603SOL    MW422180   5.556   2.171   5.879 -0.0331  0.5208 -0.5258
 5604SOL     OW22181   5.490   3.441   3.889 -0.0193 -0.2038  0.0331
 5604SOL    HW222182   5.398   3.466   3.889 -0.3682 -1.2904 -1.8412
 5604SOL    HW322183   5.490   3.351   3.857  1.6801 -0.2917  0.1919
 5604SOL    MW422184   5.478   3.432   3.885 -0.2322  0.2842  0.1626
 5605SOL     OW22185   1.702   2.993   4.501 -0.1128  0.1556 -0.4901
 5605SOL    HW222186   1.790   3.029   4.493 -1.1384  2.7263 -1.2408
 5605SOL    HW322187   1.668   2.991   4.411 -1.3119  0.5765 -0.0643
 5605SOL    MW422188   1.709   2.997   4.488  0.3769  0.1722 -0.5813
 5606SOL     OW22189   5.144   2.393   1.309  0.2557  0.3174  0.0151
 5606SOL    HW222190   5.051   2.386   1.286  0.5979 -1.6619 -1.0068
 5606SOL    HW322191   5.186   2.421   1.228  0.6051  1.0365  0.4327
 5606SOL    MW422192   5.137   2.396   1.296  0.2414 -0.0955 -0.3996
 5607SOL     OW22193   0.389   5.465   6.268 -0.0221 -0.1187  0.1296
 5607SOL    HW222194   0.436   5.526   6.325  0.9420  0.6239 -1.3901
 5607SOL    HW322195   0.458   5.419   6.220 -0.8053  0.2345 -1.3954
 5607SOL    MW422196   0.405   5.467   6.269 -0.0446 -0.1421 -0.0791
 5608SOL     OW22197   5.645   5.127   5.396 -0.3087 -0.2231 -0.3724
 5608SOL    HW222198   5.724   5.073   5.389 -0.2460 -0.3099  0.7897
 5608SOL    HW322199   5.623   5.125   5.489 -3.2217 -2.3801 -0.9439
 5608SOL    MW422200   5.652   5.119   5.407 -0.2205 -0.6241  0.1958
 5609SOL     OW22201   3.530   5.919   6.402  0.4267 -0.8963 -0.5632
 5609SOL    HW222202   3.459   5.934   6.339  0.9596 -2.4329 -1.5799
 5609SOL    HW322203   3.492   5.944   6.487 -0.3102  1.1937 -1.4347
 5609SOL    MW422204   3.515   5.924   6.405  0.1825 -0.3069 -0.0196
 5610SOL     OW22205   1.935   4.917   0.452  0.1039  1.0717  0.6454
 5610SOL    HW222206   2.013   4.972   0.455 -0.3607  1.7185  1.2433
 5610SOL    HW322207   1.945   4.865   0.372  1.5532  0.5142  1.1509
 5610SOL    MW422208   1.947   4.917   0.442 -0.2913 -0.0984 -0.0084
 5611SOL     OW22209   4.908   4.224   0.931  0.1331 -0.1149  0.0717
 5611SOL    HW222210   4.819   4.254   0.949 -0.0031 -0.5793  0.1890
 5611SOL    HW322211   4.922   4.244   0.838  0.1152  0.4760  0.1941
 5611SOL    MW422212   4.898   4.230   0.921  0.5313 -0.3356 -0.0994
 5612SOL     OW22213   3.491   2.469   1.533  0.2398 -0.0283 -0.4788
 5612SOL    HW222214   3.435   2.439   1.605 -0.3770 -0.5513 -1.1741
 5612SOL    HW322215   3.459   2.556   1.512  1.0813  0.5593  0.5474
 5612SOL    MW422216   3.479   2.476   1.540 -0.7392  0.0592 -0.4666
 5613SOL     OW22217   4.137   6.102   6.280 -0.0551  0.9464  0.0230
 5613SOL    HW222218   4.093   6.049   6.346 -1.5322  2.1561  0.0686
 5613SOL    HW322219   4.172   6.177   6.328 -0.0721  1.2085 -0.3653
 5613SOL    MW422220   4.135   6.105   6.295 -0.0360  0.0901  0.4007
 5614SOL     OW22221   2.695   0.579   5.014  0.2966 -0.3173 -0.2327
 5614SOL    HW222222   2.715   0.632   4.936  0.2363  0.6674  0.3954
 5614SOL    HW322223   2.636   0.511   4.982  0.6718 -0.2367 -1.1450
 5614SOL    MW422224   2.690   0.577   4.999 -0.0493  0.3588 -0.5494
 5615SOL     OW22225   5.528   6.053   5.542  0.1953 -0.1280 -0.0136
 5615SOL    HW222226   5.502   5.995   5.614  0.4066 -0.3961 -0.1513
 5615SOL    HW322227   5.446   6.076   5.499  0.0472  0.2252  0.4604
 5615SOL    MW422228   5.514   6.048   5.546 -0.5375  0.8531 -0.0499
 5616SOL     OW22229   3.202   3.050   6.157 -0.1531  0.4832 -0.1767
 5616SOL    HW222230   3.139   2.982   6.182 -0.4874  0.4973 -0.9571
 5616SOL    HW322231   3.270   3.003   6.109 -0.0236  0.5970 -0.1056
 5616SOL    MW422232   3.203   3.035   6.154 -0.4817  0.3185 -0.0842
 5617SOL     OW22233   6.277   2.287   2.343  0.5832 -0.1789 -0.0605
 5617SOL    HW222234   6.282   2.202   2.300 -1.0456 -0.7217  0.7518
 5617SOL    HW322235   6.199   2.328   2.306  0.3993  0.2567  0.7906
 5617SOL    MW422236   6.268   2.281   2.332 -0.6348 -0.0264 -0.1135
 5618SOL     OW22237   2.894   2.167   5.843 -0.0014 -0.1007  0.2088
 5618SOL    HW222238   2.982   2.180   5.809 -0.4156 -2.0062 -1.8496
 5618SOL    HW322239   2.841   2.233   5.798  0.0326 -0.3510 -0.2018
 5618SOL    MW422240   2.899   2.177   5.833 -0.0396 -0.1459  0.0730
 5619SOL     OW22241   4.638   0.073   2.181 -0.0188 -0.3313 -0.5139
 5619SOL    HW222242   4.608  -0.014   2.207  1.2985 -1.1325 -1.5388
 5619SOL    HW322243   4.700   0.057   2.110  0.5025  1.4295 -0.5100
 5619SOL    MW422244   4.642   0.060   2.175  0.0231  0.3503 -0.0766
 5620SOL     OW22245   3.512   4.709   5.241  0.0904 -0.3805 -0.2879
 5620SOL    HW222246   3.531   4.710   5.335  2.5243  0.4985 -0.7104
 5620SOL    HW322247   3.506   4.616   5.218 -3.2222 -0.6725  1.0990
 5620SOL    MW422248   3.514   4.697   5.250  0.4221 -0.1022  0.6131
 5621SOL     OW22249   4.066   2.459   0.103  0.3430  0.1224  0.0479
 5621SOL    HW222250   3.991   2.416   0.143 -1.1220  1.6742 -0.8822
 5621SOL    HW322251   4.061   2.435   0.010  1.5038 -0.3943  0.0884
 5621SOL    MW422252   4.056   2.450   0.096 -0.1928  0.4170 -0.0918
 5622SOL     OW22253   5.488   0.671   2.023 -0.0110 -0.5492  0.1305
 5622SOL    HW222254   5.489   0.655   1.928  0.5742  1.4604 -0.2540
 5622SOL    HW322255   5.395   0.683   2.044 -0.1637 -1.1900 -0.1340
 5622SOL    MW422256   5.476   0.670   2.013 -0.2299  0.0784 -0.4423
 5623SOL     OW22257   0.131   2.764   0.216 -0.6379 -0.3024 -0.3621
 5623SOL    HW222258   0.082   2.686   0.244 -1.2001 -0.1842 -0.9861
 5623SOL    HW322259   0.084   2.795   0.139 -0.1956  0.4439 -0.3409
 5623SOL    MW422260   0.118   2.758   0.210  0.0168 -0.5000 -0.0218
 5624SOL     OW22261   2.170   4.041   0.242  0.0174 -0.6539  0.6613
 5624SOL    HW222262   2.109   4.007   0.177  0.9851 -0.1756 -0.5506
 5624SOL    HW322263   2.115   4.076   0.312 -1.1321  0.2131 -0.6209
 5624SOL    MW422264   2.155   4.041   0.242 -0.3396  0.0739 -0.7304
 5625SOL     OW22265   6.115   4.368   0.451 -0.4608  0.6234  0.8203
 5625SOL    HW222266   6.172   4.444   0.440 -0.7423  1.0162  1.9314
 5625SOL    HW322267   6.155   4.318   0.522 -1.0738  0.4872  1.0751
 5625SOL    MW422268   6.128   4.371   0.459 -0.1550  0.0840  0.1487
 5626SOL     OW22269   0.662   3.466   1.261  0.2322 -0.6873  0.7079
 5626SOL    HW222270   0.616   3.545   1.289  1.5603  0.1348  0.6409
 5626SOL    HW322271   0.743   3.465   1.313  0.1443 -2.1359  0.8801
 5626SOL    MW422272   0.667   3.476   1.272 -0.0559  0.3490  0.2836
 5627SOL     OW22273   4.500   0.984   0.508  0.1268  0.5115  0.2440
 5627SOL    HW222274   4.462   0.952   0.590  0.8656  0.7830  0.7113
 5627SOL    HW322275   4.469   0.923   0.441  0.4460 -0.3993  0.9103
 5627SOL    MW422276   4.491   0.972   0.510 -0.2002  0.0142 -0.8035
 5628SOL     OW22277   1.149   3.648   4.615  0.1960  0.3303  0.3307
 5628SOL    HW222278   1.126   3.727   4.566 -0.5325  0.0165  0.1500
 5628SOL    HW322279   1.192   3.680   4.694  1.1502  0.8476 -0.3902
 5628SOL    MW422280   1.151   3.662   4.619 -0.3471 -0.3394 -0.0292
 5629SOL     OW22281   5.712   2.720   0.857 -0.7461 -0.1747  0.1829
 5629SOL    HW222282   5.634   2.689   0.811 -0.5742 -0.6155  0.1771
 5629SOL    HW322283   5.741   2.797   0.808 -1.4635  0.2846  0.4803
 5629SOL    MW422284   5.706   2.726   0.844 -0.1395 -0.6315  0.6978
 5630SOL     OW22285   4.113   5.677   2.240 -0.3221  0.3204  0.1816
 5630SOL    HW222286   4.057   5.694   2.316  0.2071  2.2711  0.1698
 5630SOL    HW322287   4.054   5.635   2.177 -1.1502  0.0958  1.0689
 5630SOL    MW422288   4.098   5.673   2.242  0.3124 -0.0080  0.3528
 5631SOL     OW22289   2.804   6.206   4.910 -0.1361 -0.3973 -0.6835
 5631SOL    HW222290   2.797   6.301   4.923  2.2190  0.0331 -1.9689
 5631SOL    HW322291   2.817   6.171   4.998  0.0045  0.6032 -0.2920
 5631SOL    MW422292   2.805   6.214   4.923  0.4489 -0.0062  0.0798
 5632SOL     OW22293   0.636   6.037   0.244 -0.4304  0.4864 -0.1052
 5632SOL    HW222294   0.704   5.983   0.202 -1.4461 -1.1724  0.2640
 5632SOL    HW322295   0.684   6.107   0.288  0.9989 -0.3239 -0.3150
 5632SOL    MW422296   0.652   6.039   0.244  0.9898  0.2405 -0.3305
 5633SOL     OW22297   5.034   2.027   4.063 -0.1409  0.7004 -0.3359
 5633SOL    HW222298   5.082   2.071   3.994 -0.9798  2.1468 -0.0530
 5633SOL    HW322299   5.096   1.964   4.100  1.1962  1.8112 -0.6099
 5633SOL    MW422300   5.048   2.024   4.059 -0.0203 -0.7288 -0.2792
 5634SOL     OW22301   4.901   6.155   0.797 -0.1761 -0.9245 -0.3881
 5634SOL    HW222302   4.838   6.203   0.744  0.2834  1.0288  0.7126
 5634SOL    HW322303   4.859   6.147   0.883  0.2042 -1.5390 -0.2529
 5634SOL    MW422304   4.887   6.160   0.801  0.6622 -0.3601  0.0027
 5635SOL     OW22305   1.070   3.237   3.284  0.1607  0.4812 -0.2901
 5635SOL    HW222306   1.049   3.213   3.193 -0.2373 -2.4891  0.4735
 5635SOL    HW322307   1.152   3.191   3.302  0.7921  1.8954  0.5781
 5635SOL    MW422308   1.078   3.228   3.274  0.4234 -0.4071 -0.1133
 5636SOL     OW22309   0.643   4.497   0.638 -0.6521  0.0769 -0.2419
 5636SOL    HW222310   0.680   4.543   0.563  0.7777 -0.5615  0.0414
 5636SOL    HW322311   0.629   4.407   0.607 -1.8937  0.2738 -0.3070
 5636SOL    MW422312   0.646   4.491   0.624  0.5180  0.3256  0.0550
 5637SOL     OW22313   5.681   4.290   5.223  0.5566 -1.0706  0.8856
 5637SOL    HW222314   5.775   4.302   5.212  0.4376 -1.2170 -0.4155
 5637SOL    HW322315   5.670   4.196   5.235  0.5902 -1.0340  1.2037
 5637SOL    MW422316   5.692   4.279   5.223  0.1266  0.5361  0.2305
 5638SOL     OW22317   5.355   4.608   1.017 -0.3349 -0.2272  0.4405
 5638SOL    HW222318   5.438   4.567   0.992 -0.7817 -1.4778  0.9234
 5638SOL    HW322319   5.340   4.579   1.107 -1.4835 -0.3280  0.2323
 5638SOL    MW422320   5.364   4.599   1.026 -0.0776 -0.0880 -0.2831
 5639SOL     OW22321   4.602   0.600   0.312  0.0132 -0.1328 -0.0497
 5639SOL    HW222322   4.670   0.601   0.379 -0.4980  0.6591  0.4740
 5639SOL    HW322323   4.615   0.682   0.263  1.0449 -1.1719 -1.6337
 5639SOL    MW422324   4.613   0.611   0.314  0.1971  1.1180  0.0220
 5640SOL     OW22325   4.145   1.170   2.203 -0.4269 -0.3476  0.0407
 5640SOL    HW222326   4.239   1.180   2.186 -0.4634 -0.5766 -0.3069
 5640SOL    HW322327   4.108   1.254   2.175 -0.3561 -0.3479 -0.0576
 5640SOL    MW422328   4.153   1.183   2.197  0.1022 -0.7186  0.3388
 5641SOL     OW22329   2.559   1.679   2.538 -0.1040  0.2945  0.0241
 5641SOL    HW222330   2.545   1.585   2.539 -4.0757  0.7255  0.5615
 5641SOL    HW322331   2.547   1.706   2.630  1.8343  1.3008  0.0385
 5641SOL    MW422332   2.556   1.670   2.551  0.0620 -0.2626 -0.3757
 5642SOL     OW22333   3.449   4.363   6.363 -0.7141  0.1510 -0.5785
 5642SOL    HW222334   3.421   4.426   6.297  0.4268  0.8874 -0.3739
 5642SOL    HW322335   3.538   4.339   6.338 -0.3863  0.1813  0.4935
 5642SOL    MW422336   3.457   4.368   6.351 -0.2428 -0.1351  0.0253
 5643SOL     OW22337   2.684   6.334   5.992  0.3598  0.1130 -0.0636
 5643SOL    HW222338   2.616   6.373   5.938  1.0477  0.0883 -0.9621
 5643SOL    HW322339   2.693   6.393   6.067  2.3679  2.5312 -2.0527
 5643SOL    MW422340   2.676   6.347   5.995 -0.0907 -0.2355 -0.2519
 5644SOL     OW22341   3.848   5.132   5.718  0.0882 -0.1374  0.1097
 5644SOL    HW222342   3.920   5.069   5.717  0.6383  0.4536 -1.5808
 5644SOL    HW322343   3.778   5.089   5.670 -0.4748 -0.4645  1.2103
 5644SOL    MW422344   3.848   5.118   5.712 -0.1704  0.2323 -0.2818
 5645SOL     OW22345   6.168   5.372   5.440  0.3383 -0.1019 -0.1662
 5645SOL    HW222346   6.170   5.293   5.385 -1.1243 -0.4484  0.2536
 5645SOL    HW322347   6.077   5.401   5.438  0.1752 -0.2491  2.2505
 5645SOL    MW422348   6.156   5.365   5.432 -0.6566  0.0806 -0.5594
 5646SOL     OW22349   2.062   5.523   1.269  0.1611 -0.0406  0.1025
 5646SOL    HW222350   2.137   5.540   1.325 -1.6863 -0.6281  2.9834
 5646SOL    HW322351   2.038   5.609   1.235  1.4949  0.2944 -0.0388
 5646SOL    MW422352   2.069   5.537   1.272 -0.1743 -0.4948  0.3542
 5647SOL     OW22353   0.828   6.365   5.867  0.2506 -0.0373 -0.3424
 5647SOL    HW222354   0.897   6.427   5.891 -0.5572  1.1816 -1.0988
 5647SOL    HW322355   0.824   6.305   5.941  1.3277  0.5530  0.2262
 5647SOL    MW422356   0.837   6.365   5.880 -0.0144  0.1938  0.0901
 5648SOL     OW22357   0.199   5.150   1.923 -0.0310 -0.3592 -0.6788
 5648SOL    HW222358   0.259   5.206   1.971 -1.7877 -0.3353  1.7071
 5648SOL    HW322359   0.145   5.210   1.872 -0.4488 -0.0301  0.1272
 5648SOL    MW422360   0.200   5.165   1.923  0.2701 -0.1297  0.4550
 5649SOL     OW22361   5.134   3.645   5.905  0.2374  0.1738  0.2003
 5649SOL    HW222362   5.043   3.675   5.912  0.3486  0.5751 -0.0784
 5649SOL    HW322363   5.157   3.617   5.994 -0.5702 -1.1315  0.0363
 5649SOL    MW422364   5.125   3.645   5.918  0.2039 -0.0160  0.0490
 5650SOL     OW22365   4.461   3.079   2.331  0.0970 -0.3062 -0.0848
 5650SOL    HW222366   4.512   3.106   2.407 -0.0836 -0.4905  0.1054
 5650SOL    HW322367   4.521   3.025   2.279 -0.0068 -0.8322  0.3245
 5650SOL    MW422368   4.476   3.075   2.334 -0.6681  0.0935  0.4228
 5651SOL     OW22369   0.786   5.596   0.584 -0.0639 -0.1524  0.3916
 5651SOL    HW222370   0.802   5.617   0.492 -0.6912  0.1105  0.3371
 5651SOL    HW322371   0.729   5.519   0.581  0.4437 -0.5450  0.5729
 5651SOL    MW422372   0.781   5.588   0.571 -0.6156  0.4624  0.1292
 5652SOL     OW22373   4.728   4.785   5.351 -1.0110  0.2007 -0.2283
 5652SOL    HW222374   4.640   4.801   5.318 -0.6656  1.1316 -0.7445
 5652SOL    HW322375   4.782   4.853   5.310 -0.2790  0.4138  1.0366
 5652SOL    MW422376   4.724   4.796   5.341 -0.3439  0.3227  0.1723
 5653SOL     OW22377   4.151   5.891   1.099 -0.6272 -0.5622 -0.1224
 5653SOL    HW222378   4.135   5.871   1.007  0.6169 -0.9030 -0.2895
 5653SOL    HW322379   4.065   5.906   1.136 -1.0330  3.0154 -2.0902
 5653SOL    MW422380   4.138   5.890   1.092 -0.6179 -0.9810 -0.8728
 5654SOL     OW22381   1.299   3.861   0.755  0.1941 -0.1693 -0.2932
 5654SOL    HW222382   1.363   3.821   0.696  0.7925 -0.9394  0.8384
 5654SOL    HW322383   1.224   3.801   0.752  0.2376 -0.2262 -0.2466
 5654SOL    MW422384   1.298   3.847   0.747  0.4341  0.1686 -0.3279
 5655SOL     OW22385   1.929   3.663   4.530  0.3865 -0.2757  0.2805
 5655SOL    HW222386   1.969   3.608   4.463 -2.1366 -0.0517 -1.5435
 5655SOL    HW322387   1.926   3.608   4.608 -0.5554 -2.1878 -1.0385
 5655SOL    MW422388   1.934   3.649   4.532 -0.0074 -0.3040 -0.1215
 5656SOL     OW22389   0.079   3.137   5.508  0.5526  0.7556 -0.5168
 5656SOL    HW222390   0.032   3.191   5.444 -1.1609 -0.5284 -0.4078
 5656SOL    HW322391   0.148   3.094   5.457 -0.3390  0.3019 -1.3633
 5656SOL    MW422392   0.082   3.138   5.493 -0.7770  0.5705  0.4240
 5657SOL     OW22393   0.719   5.874   6.325 -0.2489  0.1376 -0.8745
 5657SOL    HW222394   0.663   5.951   6.321 -1.0665 -0.5070 -2.7256
 5657SOL    HW322395   0.763   5.871   6.240  0.0819 -1.1937 -0.6825
 5657SOL    MW422396   0.718   5.883   6.314 -0.3200  0.3196 -0.7527
 5658SOL     OW22397   6.215   0.977   5.055  0.0015 -0.4204 -0.1495
 5658SOL    HW222398   6.245   1.068   5.055  0.7112 -0.6458 -0.5975
 5658SOL    HW322399   6.149   0.973   4.987 -1.3250  0.1527  1.0475
 5658SOL    MW422400   6.211   0.988   5.046  0.1167 -0.3497  0.1098
 5659SOL     OW22401   0.392   5.760   1.865  0.3316  0.1518 -0.1777
 5659SOL    HW222402   0.383   5.856   1.861  0.9900  0.2175 -0.1378
 5659SOL    HW322403   0.313   5.731   1.912 -0.4035  0.5730 -1.1253
 5659SOL    MW422404   0.380   5.769   1.871  0.0888 -0.4374  0.3198
 5660SOL     OW22405   5.283   5.534   1.526  0.3589 -0.1735 -0.3312
 5660SOL    HW222406   5.228   5.466   1.487 -0.5981  1.3900 -1.8438
 5660SOL    HW322407   5.370   5.495   1.530 -0.2677 -1.6596 -0.6786
 5660SOL    MW422408   5.287   5.520   1.522 -0.3100 -0.3019 -0.5536
 5661SOL     OW22409   5.690   5.482   1.200 -0.0923  0.6439  0.2209
 5661SOL    HW222410   5.691   5.414   1.267 -0.6438 -1.7266 -2.0037
 5661SOL    HW322411   5.599   5.512   1.198 -0.4786 -0.5162 -0.5707
 5661SOL    MW422412   5.678   5.477   1.209 -0.2853  0.1738  0.0120
 5662SOL     OW22413   0.201   5.087   1.553  0.8254  0.1894  0.1473
 5662SOL    HW222414   0.115   5.049   1.572  1.1805 -0.1909  1.0748
 5662SOL    HW322415   0.223   5.054   1.466 -0.4626  1.2379 -0.6158
 5662SOL    MW422416   0.193   5.078   1.544  0.4271  0.3695  0.3766
 5663SOL     OW22417   5.574   3.758   5.398 -0.8650  0.0336  0.2089
 5663SOL    HW222418   5.609   3.788   5.482  0.7987 -0.7178 -0.1545
 5663SOL    HW322419   5.637   3.692   5.369 -0.8061  0.9991 -2.1143
 5663SOL    MW422420   5.587   3.753   5.405 -0.6769 -0.3659 -0.0502
 5664SOL     OW22421   3.496   6.247   5.774 -0.1827 -0.2383  0.3817
 5664SOL    HW222422   3.528   6.288   5.854  0.1050  2.5605 -1.0565
 5664SOL    HW322423   3.443   6.314   5.732 -0.9194 -1.8695 -1.4513
 5664SOL    MW422424   3.493   6.261   5.779 -0.4764  0.2873  0.6385
 5665SOL     OW22425   1.864   0.892   3.397  0.0170 -0.1751 -0.0516
 5665SOL    HW222426   1.909   0.830   3.454  0.6025  0.3987  0.1237
 5665SOL    HW322427   1.791   0.925   3.451  0.9184  0.8094  0.6011
 5665SOL    MW422428   1.860   0.888   3.412  0.7614  0.4864 -0.0676
 5666SOL     OW22429   5.335   2.925   4.822  0.0212  0.2229  0.3088
 5666SOL    HW222430   5.307   2.887   4.739  0.2502 -2.9175  1.5474
 5666SOL    HW322431   5.278   3.000   4.835 -0.0325  0.8086 -2.6271
 5666SOL    MW422432   5.324   2.930   4.812  0.0557 -0.0059  0.4056
 5667SOL     OW22433   0.966   2.457   4.318 -0.0908 -0.1165 -0.0988
 5667SOL    HW222434   1.046   2.487   4.362 -0.7636  0.6242  0.6437
 5667SOL    HW322435   0.912   2.422   4.389 -1.0107  0.6908 -0.3853
 5667SOL    MW422436   0.969   2.456   4.333 -0.0565 -0.0124  0.1778
 5668SOL     OW22437   5.216   5.418   5.636 -0.2432  0.1304 -0.3250
 5668SOL    HW222438   5.236   5.363   5.560 -1.5106 -0.0858 -0.5225
 5668SOL    HW322439   5.202   5.505   5.599  1.0604  0.4534 -0.0949
 5668SOL    MW422440   5.217   5.422   5.621 -0.4005  0.7183 -0.6154
 5669SOL     OW22441   2.061   4.545   1.305 -0.8042  0.2146  0.0545
 5669SOL    HW222442   2.018   4.479   1.250  0.9356 -0.9860  0.0701
 5669SOL    HW322443   2.058   4.625   1.252  0.0160 -0.6910 -1.4234
 5669SOL    MW422444   2.055   4.547   1.290  0.6472 -0.0042  0.4503
 5670SOL     OW22445   4.970   5.313   5.109 -0.0752  0.0294 -0.6301
 5670SOL    HW222446   5.029   5.237   5.107 -0.4284 -0.3426  1.2962
 5670SOL    HW322447   4.883   5.277   5.094 -0.4764 -0.2695  2.0457
 5670SOL    MW422448   4.966   5.298   5.107 -0.4653 -0.4856  0.0728
 5671SOL     OW22449   5.359   1.304   0.890  0.0477  0.1314  0.6640
 5671SOL    HW222450   5.438   1.300   0.944  0.5409 -1.1027 -0.1138
 5671SOL    HW322451   5.390   1.298   0.800 -0.8299  1.3206  0.2469
 5671SOL    MW422452   5.373   1.303   0.885 -0.3534  0.0841  0.0372
 5672SOL     OW22453   2.102   2.946   6.158  0.1604  0.1164  0.7038
 5672SOL    HW222454   2.039   2.901   6.214 -0.4601  1.2501  0.9225
 5672SOL    HW322455   2.107   3.035   6.193 -0.4125  0.9205 -1.1750
 5672SOL    MW422456   2.094   2.952   6.170 -0.1130 -0.0627 -0.2193
 5673SOL     OW22457   2.250   5.213   4.570  0.0518 -0.2617  0.1463
 5673SOL    HW222458   2.281   5.148   4.632 -0.7945 -1.6274 -0.8139
 5673SOL    HW322459   2.163   5.237   4.601  0.3839  0.4794  0.5310
 5673SOL    MW422460   2.243   5.208   4.582  0.0927 -0.1929  0.3380
 5674SOL     OW22461   4.096   6.057   5.997 -0.5694  0.4598  0.2575
 5674SOL    HW222462   4.070   5.965   5.992  3.6832 -0.8948 -2.6460
 5674SOL    HW322463   4.125   6.069   6.088  0.6197 -1.7701  0.2453
 5674SOL    MW422464   4.096   6.046   6.008  0.4213 -0.2306  0.1142
 5675SOL     OW22465   3.282   2.719   1.307  0.0880  1.1001 -0.0104
 5675SOL    HW222466   3.304   2.726   1.400 -1.1034  0.9685  0.3030
 5675SOL    HW322467   3.349   2.663   1.270  0.5289  1.0848  0.7939
 5675SOL    MW422468   3.293   2.713   1.315  0.2737 -0.2526  0.3213
 5676SOL     OW22469   4.587   0.740   5.998  0.0678  0.0039 -0.9185
 5676SOL    HW222470   4.559   0.786   5.918 -1.8671  1.3168  0.4121
 5676SOL    HW322471   4.506   0.702   6.032  0.5144  0.9121  1.2958
 5676SOL    MW422472   4.572   0.741   5.992  0.1766 -0.0454 -0.6616
 5677SOL     OW22473   2.856   2.482   3.538 -0.7992 -0.1944 -0.0192
 5677SOL    HW222474   2.865   2.529   3.455  0.1739  0.9430  0.7018
 5677SOL    HW322475   2.944   2.451   3.558 -0.9038  0.0552  0.8790
 5677SOL    MW422476   2.869   2.484   3.530 -0.2111  0.7481  0.1446
 5678SOL     OW22477   5.164   3.712   5.593 -0.1027 -0.2020 -0.5613
 5678SOL    HW222478   5.231   3.644   5.591  0.9681  0.8201 -1.4940
 5678SOL    HW322479   5.084   3.667   5.619  0.5983 -1.7701 -1.0148
 5678SOL    MW422480   5.163   3.697   5.596 -0.1656 -0.2463  0.0082
 5679SOL     OW22481   6.271   6.045   5.523 -0.1337 -0.1054  0.1908
 5679SOL    HW222482   6.341   6.007   5.470  0.1804 -0.7304  1.0290
 5679SOL    HW322483   6.190   6.018   5.480  0.1220  0.7487 -0.8761
 5679SOL    MW422484   6.270   6.036   5.510 -0.9353 -0.2437 -0.0785
 5680SOL     OW22485   2.707   3.234   5.858 -0.4019 -0.5160 -0.6488
 5680SOL    HW222486   2.754   3.287   5.923 -0.2967 -0.4883 -0.7455
 5680SOL    HW322487   2.615   3.251   5.874 -0.3691 -0.3337 -0.6530
 5680SOL    MW422488   2.701   3.243   5.868 -0.1397 -0.2377  0.1631
 5681SOL     OW22489   2.627   5.673   4.351 -0.3040 -0.2180 -0.0197
 5681SOL    HW222490   2.687   5.693   4.279 -2.2778  1.3096 -1.3229
 5681SOL    HW322491   2.557   5.622   4.310 -1.0093 -0.0896  1.0013
 5681SOL    MW422492   2.626   5.669   4.336 -0.0808 -0.0889 -0.4787
 5682SOL     OW22493   3.353   1.368   1.141  0.2089 -0.1905 -0.6973
 5682SOL    HW222494   3.446   1.391   1.151 -0.1045  1.2422 -0.9170
 5682SOL    HW322495   3.306   1.443   1.176 -0.9278 -1.8384  1.5873
 5682SOL    MW422496   3.359   1.381   1.147  0.5896  0.1712  0.5665
 5683SOL     OW22497   6.047   2.812   4.890  0.0130  0.0002  0.3624
 5683SOL    HW222498   6.084   2.881   4.944 -0.0880 -0.1162  0.5786
 5683SOL    HW322499   6.112   2.799   4.820 -0.1868  0.6353  0.0521
 5683SOL    MW422500   6.060   2.819   4.888  0.1049 -0.1690 -0.5016
 5684SOL     OW22501   0.489   0.649   2.076 -0.6123  0.2686  0.5409
 5684SOL    HW222502   0.481   0.670   2.169  0.3734 -0.9344  0.9251
 5684SOL    HW322503   0.505   0.555   2.074  0.5823  0.4622 -0.7537
 5684SOL    MW422504   0.490   0.640   2.088  0.4060  0.6124  0.7422
 5685SOL     OW22505   1.222   2.928   0.732 -0.1820  0.0321 -0.0352
 5685SOL    HW222506   1.275   2.924   0.812  0.9634  1.5472 -0.6523
 5685SOL    HW322507   1.285   2.911   0.661 -0.3225  2.3514 -0.8219
 5685SOL    MW422508   1.238   2.925   0.733  0.3902 -0.1431  0.9647
 5686SOL     OW22509   4.166   3.096   0.963 -0.2592 -0.2848 -0.2176
 5686SOL    HW222510   4.163   3.118   0.869 -0.8458 -0.3187 -0.2135
 5686SOL    HW322511   4.176   3.181   1.006  1.1387 -0.3570 -0.3436
 5686SOL    MW422512   4.167   3.110   0.956  0.1338  0.1464 -0.7679
 5687SOL     OW22513   5.664   3.798   3.694 -0.5119 -0.2863 -0.4966
 5687SOL    HW222514   5.651   3.793   3.789  1.1259  1.9067 -0.0890
 5687SOL    HW322515   5.744   3.748   3.678 -0.8015 -0.6795 -0.7652
 5687SOL    MW422516   5.673   3.790   3.704 -0.0106 -0.1287 -0.5042
 5688SOL     OW22517   0.297   4.603   3.829 -0.1324  0.5559 -0.3060
 5688SOL    HW222518   0.367   4.538   3.827 -0.7298 -0.1213  0.4193
 5688SOL    HW322519   0.305   4.644   3.915 -0.6968  0.3872 -0.1702
 5688SOL    MW422520   0.308   4.600   3.840 -0.1177  0.3681 -0.3771
 5689SOL     OW22521   5.390   1.594   3.075 -0.3490  0.2452  0.6092
 5689SOL    HW222522   5.398   1.604   2.980 -0.9887  0.9666  0.6211
 5689SOL    HW322523   5.308   1.546   3.087  0.0168 -0.3521  0.7841
 5689SOL    MW422524   5.381   1.589   3.064 -0.3168 -0.6085  0.2468
 5690SOL     OW22525   3.145   1.438   2.084  0.2117  0.0850  0.1377
 5690SOL    HW222526   3.067   1.458   2.135 -0.6934  0.0200 -1.1747
 5690SOL    HW322527   3.152   1.342   2.087  0.6434  0.1278  0.8005
 5690SOL    MW422528   3.136   1.428   2.091 -0.5826  0.0553  0.3458
 5691SOL     OW22529   2.620   0.321   5.779 -0.0242 -0.8125 -0.0270
 5691SOL    HW222530   2.703   0.291   5.742  0.3889  1.1154 -0.7643
 5691SOL    HW322531   2.565   0.340   5.704 -0.1768  0.4495  0.3779
 5691SOL    MW422532   2.624   0.319   5.764 -0.1897 -0.5371 -0.0770
 5692SOL     OW22533   5.428   2.097   3.528 -0.0116 -0.6100 -0.2369
 5692SOL    HW222534   5.349   2.115   3.477 -0.3024 -0.6249  0.2013
 5692SOL    HW322535   5.471   2.182   3.536 -0.6509 -0.3596  0.6199
 5692SOL    MW422536   5.423   2.110   3.522  0.3765  0.4050 -0.3956
 5693SOL     OW22537   0.969   5.339   3.039  0.0610 -0.6856 -0.2621
 5693SOL    HW222538   1.030   5.374   2.974 -0.8252 -1.6607 -1.6752
 5693SOL    HW322539   0.985   5.391   3.117  2.3442 -0.5632 -0.7285
 5693SOL    MW422540   0.979   5.350   3.041 -0.4016 -0.0602 -0.2019
 5694SOL     OW22541   2.789   4.007   2.469  0.1537 -0.1067 -0.8713
 5694SOL    HW222542   2.694   4.006   2.478  0.2191 -1.0486 -0.1006
 5694SOL    HW322543   2.811   3.919   2.436  0.8982 -0.5963  0.8267
 5694SOL    MW422544   2.779   3.995   2.465 -0.3456  0.0357 -0.1727
 5695SOL     OW22545   5.945   1.461   3.485 -0.0650 -0.0710  0.3420
 5695SOL    HW222546   5.964   1.399   3.556  0.3459 -0.5939 -0.2164
 5695SOL    HW322547   6.029   1.501   3.464 -0.3293  0.6776  0.6944
 5695SOL    MW422548   5.959   1.458   3.492  0.5885  0.2380 -0.3523
 5696SOL     OW22549   0.260   1.233   4.269  0.2244  0.2448 -0.0884
 5696SOL    HW222550   0.293   1.312   4.312  1.1989 -0.5117  0.5849
 5696SOL    HW322551   0.289   1.241   4.178 -0.8003  1.2633 -0.3591
 5696SOL    MW422552   0.268   1.244   4.263  0.2295 -0.2485 -0.1720
 5697SOL     OW22553   1.886   5.667   0.721  0.2791  0.8497 -0.2151
 5697SOL    HW222554   1.833   5.588   0.734  2.4312 -0.4189  1.5974
 5697SOL    HW322555   1.912   5.663   0.629 -1.4243  0.6840 -0.7306
 5697SOL    MW422556   1.882   5.656   0.710 -0.1783  0.7237 -0.1251
 5698SOL     OW22557   0.474   6.240   4.992 -0.1696 -0.4154  0.0631
 5698SOL    HW222558   0.481   6.165   4.933  1.0624  0.2173 -0.6332
 5698SOL    HW322559   0.491   6.316   4.937  1.6362  0.1608  1.3128
 5698SOL    MW422560   0.477   6.241   4.977 -0.1650 -0.3003 -0.3971
 5699SOL     OW22561   0.178   4.994   2.914 -0.0585 -0.1571 -0.1489
 5699SOL    HW222562   0.138   4.978   2.828 -1.1112 -0.5652  0.4036
 5699SOL    HW322563   0.264   5.032   2.893  0.0193 -0.9434 -1.3861
 5699SOL    MW422564   0.184   4.997   2.900  0.6283  0.1090 -0.3788
 5700SOL     OW22565   2.003   4.861   2.152  0.3369 -0.8385 -0.1032
 5700SOL    HW222566   1.989   4.895   2.240  1.9968 -0.3414 -0.0061
 5700SOL    HW322567   1.922   4.881   2.106  0.3420  1.0866  0.6261
 5700SOL    MW422568   1.990   4.868   2.158 -0.0439 -0.0231 -0.0679
 5701SOL     OW22569   4.599   0.388   1.814 -0.0650 -0.4321 -0.0847
 5701SOL    HW222570   4.611   0.375   1.908 -0.6972  1.2378  0.2680
 5701SOL    HW322571   4.645   0.469   1.795 -0.2184 -0.5822 -1.1524
 5701SOL    MW422572   4.606   0.397   1.824  0.0925 -0.1309  0.7311
 5702SOL     OW22573   1.452   5.649   1.479 -0.4396  0.2064 -0.0102
 5702SOL    HW222574   1.390   5.581   1.451 -0.7621  0.5623 -0.1734
 5702SOL    HW322575   1.527   5.600   1.514 -0.8222 -0.2307  0.2140
 5702SOL    MW422576   1.454   5.633   1.480 -0.0659 -0.9350  0.1373
 5703SOL     OW22577   0.327   4.622   5.344  0.1801  0.3058  0.1213
 5703SOL    HW222578   0.420   4.614   5.367  0.9652  1.3411 -2.3253
 5703SOL    HW322579   0.312   4.552   5.281 -0.8069 -0.0405  0.7186
 5703SOL    MW422580   0.337   4.612   5.339  0.2255  0.5469 -0.0157
 5704SOL     OW22581   0.029   2.025   0.993 -0.1507  0.0123  0.0343
 5704SOL    HW222582   0.099   1.967   1.023 -0.0590 -0.4017 -0.9481
 5704SOL    HW322583   0.065   2.113   1.002 -0.3165 -0.0432  1.6138
 5704SOL    MW422584   0.043   2.029   0.998  0.0528 -0.0216 -0.6420
 5705SOL     OW22585   5.068   3.321   6.382  0.9994  0.4580  0.2178
 5705SOL    HW222586   5.156   3.306   6.417  1.4606 -0.8982 -1.4007
 5705SOL    HW322587   5.020   3.240   6.399 -0.5977  1.7762  2.6677
 5705SOL    MW422588   5.074   3.309   6.389 -0.5074 -0.2086  0.4787
 5706SOL     OW22589   4.597   1.996   6.414  0.8091  0.5146  0.5399
 5706SOL    HW222590   4.678   1.984   6.463  2.9535  0.2733 -2.7530
 5706SOL    HW322591   4.620   1.977   6.323 -2.9457  0.5564 -0.6273
 5706SOL    MW422592   4.610   1.992   6.408  0.5865  0.3769 -0.0285
 5707SOL     OW22593   0.961   2.009   4.222 -0.4027  0.3832 -0.0255
 5707SOL    HW222594   0.886   2.049   4.267 -0.0513  0.3913  0.5748
 5707SOL    HW322595   0.928   1.926   4.188 -0.5084  0.0338  0.8842
 5707SOL    MW422596   0.947   2.003   4.224  0.1143  0.1347  0.7887
 5708SOL     OW22597   6.290   3.925   2.529  0.0962 -0.2018 -0.0056
 5708SOL    HW222598   6.219   3.880   2.576 -0.5949  1.0272  0.1763
 5708SOL    HW322599   6.327   3.858   2.472 -1.0676 -0.9350  0.0648
 5708SOL    MW422600   6.285   3.910   2.528 -0.3121 -0.2231 -0.1080
 5709SOL     OW22601   4.365   5.158   4.862 -0.4635 -0.1485  0.3009
 5709SOL    HW222602   4.385   5.209   4.940 -0.8880  1.7271 -0.7596
 5709SOL    HW322603   4.396   5.070   4.882  3.5352  1.1969  0.9663
 5709SOL    MW422604   4.372   5.153   4.875  0.3770  0.1019  0.1120
 5710SOL     OW22605   0.252   4.872   1.175 -0.1925 -0.1002 -0.1506
 5710SOL    HW222606   0.287   4.934   1.239  1.9613  1.4148 -2.5909
 5710SOL    HW322607   0.329   4.839   1.128 -1.6437 -0.7709 -2.2471
 5710SOL    MW422608   0.267   4.876   1.177 -0.0304 -0.7630 -0.1892
 5711SOL     OW22609   2.455   6.104   5.436  0.1319 -0.4816  0.5182
 5711SOL    HW222610   2.487   6.014   5.431  1.5328 -0.0200  0.7466
 5711SOL    HW322611   2.426   6.125   5.346 -1.0383 -1.4225  0.6495
 5711SOL    MW422612   2.455   6.095   5.423  0.4342 -0.6878  0.2640
 5712SOL     OW22613   2.057   1.796   5.305 -0.0974  0.0217  0.2759
 5712SOL    HW222614   2.122   1.809   5.235  1.5217 -2.4916  1.1520
 5712SOL    HW322615   2.109   1.792   5.385 -1.5837 -0.1546  1.2621
 5712SOL    MW422616   2.073   1.797   5.306  0.0871 -0.0658 -0.4446
 5713SOL     OW22617   2.191   1.484   4.505  0.1370 -0.0969 -0.1125
 5713SOL    HW222618   2.139   1.432   4.444 -0.3655  0.5889 -0.2842
 5713SOL    HW322619   2.128   1.544   4.545  0.8113  0.8239 -0.4062
 5713SOL    MW422620   2.176   1.485   4.502  0.4298 -0.3058  0.6955
 5714SOL     OW22621   0.882   0.358   0.657  0.2681 -0.0513  0.0218
 5714SOL    HW222622   0.958   0.366   0.714  0.4292 -0.7273 -0.0918
 5714SOL    HW322623   0.836   0.442   0.666  0.6509  0.0986  0.6238
 5714SOL    MW422624   0.886   0.370   0.666  0.2553  1.1807 -0.3654
 5715SOL     OW22625   3.868   1.887   0.035 -0.1237  0.1632 -0.0963
 5715SOL    HW222626   3.907   1.961   0.082 -1.0013  0.2594  0.4858
 5715SOL    HW322627   3.784   1.872   0.078  0.5965 -2.0539  0.6934
 5715SOL    MW422628   3.862   1.895   0.047  0.2371  0.6509 -0.0905
 5716SOL     OW22629   6.281   2.002   6.133 -0.0087  0.2607  0.3345
 5716SOL    HW222630   6.223   1.934   6.168 -0.3327 -0.1340 -0.8893
 5716SOL    HW322631   6.319   2.044   6.210 -0.1927 -0.9735  1.1209
 5716SOL    MW422632   6.278   1.999   6.148  0.4515  0.5507  0.3374
 5717SOL     OW22633   5.732   1.200   5.509  0.4428 -0.4764 -0.1578
 5717SOL    HW222634   5.806   1.225   5.564  0.5040  0.3747 -0.6154
 5717SOL    HW322635   5.671   1.274   5.516  0.8662  0.0790 -1.9624
 5717SOL    MW422636   5.734   1.213   5.517  0.0328  0.1201 -0.2928
 5718SOL     OW22637   4.477   5.639   4.976 -0.0424 -0.4775  0.5279
 5718SOL    HW222638   4.521   5.582   5.039  2.8395 -0.8047 -1.5681
 5718SOL    HW322639   4.525   5.721   4.980 -1.7379  0.5482  0.8028
 5718SOL    MW422640   4.489   5.642   4.985  0.1054 -0.0830  0.3884
 5719SOL     OW22641   1.392   4.253   0.518  0.4205  0.7190  0.1381
 5719SOL    HW222642   1.475   4.290   0.489  0.9007 -0.9352 -0.6740
 5719SOL    HW322643   1.413   4.206   0.599  0.2895  0.2069 -0.1252
 5719SOL    MW422644   1.406   4.252   0.525 -0.8566 -0.2773  0.2076
 5720SOL     OW22645   2.656   0.567   0.146 -0.4750 -0.3338  0.3230
 5720SOL    HW222646   2.627   0.651   0.181 -1.3724 -0.0739 -0.9673
 5720SOL    HW322647   2.596   0.503   0.185  0.5423 -0.4626  1.7182
 5720SOL    MW422648   2.644   0.569   0.156  0.2278  0.2977  0.3048
 5721SOL     OW22649   3.084   6.213   0.852  0.3591 -0.0521 -0.3002
 5721SOL    HW222650   3.022   6.189   0.921  0.3228  1.7155  0.3374
 5721SOL    HW322651   3.068   6.306   0.837  0.3651 -0.3685 -2.7165
 5721SOL    MW422652   3.074   6.222   0.859  0.3874  0.4485 -0.0254
 5722SOL     OW22653   4.065   5.946   4.823 -0.0713  0.6638  0.6615
 5722SOL    HW222654   4.048   5.867   4.874  0.0159  0.7350  0.8006
 5722SOL    HW322655   4.037   5.924   4.734 -1.1162  0.8461  0.9264
 5722SOL    MW422656   4.059   5.933   4.818 -0.0525  0.1981  0.5416
 5723SOL     OW22657   5.313   3.148   2.065  0.5953  0.1868  0.1330
 5723SOL    HW222658   5.241   3.211   2.061  1.3705  1.2847  2.0483
 5723SOL    HW322659   5.307   3.099   1.983 -0.7128  2.0007 -0.9203
 5723SOL    MW422660   5.303   3.150   2.054  0.0038 -0.4456 -0.0668
 5724SOL     OW22661   3.109   3.910   1.622 -0.2475  0.1037  0.5901
 5724SOL    HW222662   3.019   3.898   1.653 -0.5333 -2.7272 -0.9431
 5724SOL    HW322663   3.116   3.852   1.546  2.8174  0.3776  0.5205
 5724SOL    MW422664   3.098   3.901   1.616  0.1802  0.3334 -0.8512
 5725SOL     OW22665   1.877   4.885   1.662 -0.0186 -0.4729  0.0766
 5725SOL    HW222666   1.849   4.926   1.580  0.3276  1.4122  0.8415
 5725SOL    HW322667   1.811   4.912   1.726  1.3289  0.6950  1.0436
 5725SOL    MW422668   1.865   4.894   1.660  0.2239 -0.7366 -0.1780
 5726SOL     OW22669   2.196   0.117   4.499 -0.5380 -0.1868  0.2391
 5726SOL    HW222670   2.226   0.032   4.465 -1.4635 -0.4344  0.0056
 5726SOL    HW322671   2.258   0.180   4.464 -0.1575 -0.7079 -0.0429
 5726SOL    MW422672   2.208   0.114   4.490  0.1197  0.2861  0.4556
 5727SOL     OW22673   4.647   2.298   6.030 -0.1550 -0.1482 -0.3492
 5727SOL    HW222674   4.646   2.389   5.998  0.7734 -0.0740 -0.1774
 5727SOL    HW322675   4.679   2.247   5.955 -2.4164 -0.6117 -1.0876
 5727SOL    MW422676   4.651   2.303   6.016  0.4163 -0.0890  0.1307
 5728SOL     OW22677   3.908   4.547   6.426 -0.0894  0.0876 -0.4043
 5728SOL    HW222678   3.858   4.486   6.372  0.0879  0.0416 -0.5170
 5728SOL    HW322679   3.842   4.587   6.483 -0.3644  0.5164 -1.0076
 5728SOL    MW422680   3.892   4.544   6.426 -0.0891  0.5004  0.2163
 5729SOL     OW22681   3.794   3.336   1.597 -0.2210  0.3416 -0.4720
 5729SOL    HW222682   3.809   3.244   1.577 -0.5388 -0.0163  0.8104
 5729SOL    HW322683   3.847   3.384   1.534 -0.0605 -0.7207 -1.1594
 5729SOL    MW422684   3.803   3.330   1.586  0.0072  0.1573 -0.1361
 5730SOL     OW22685   4.427   6.062   6.005  0.4830 -0.1608  0.0670
 5730SOL    HW222686   4.412   6.004   6.079  2.1385 -0.6946  0.0342
 5730SOL    HW322687   4.348   6.116   5.999  0.3020 -0.1403  2.1626
 5730SOL    MW422688   4.415   6.062   6.014 -0.0023 -0.0536  0.1330
 5731SOL     OW22689   0.376   1.206   4.025 -0.5209 -0.1076 -0.2967
 5731SOL    HW222690   0.458   1.237   4.064 -1.3237  2.1607 -0.2520
 5731SOL    HW322691   0.375   1.246   3.938 -0.0876 -2.8147 -1.6422
 5731SOL    MW422692   0.387   1.216   4.018 -0.2218 -0.1409  0.0134
 5732SOL     OW22693   4.370   2.750   4.567 -0.1153 -0.1808 -0.5543
 5732SOL    HW222694   4.325   2.814   4.512 -0.7026 -0.8207 -0.8282
 5732SOL    HW322695   4.315   2.672   4.564 -0.4975 -0.0325  1.4832
 5732SOL    MW422696   4.357   2.748   4.559 -0.2562  0.2914 -0.2233
 5733SOL     OW22697   3.548   2.458   5.103 -0.4755 -0.7226 -0.3237
 5733SOL    HW222698   3.560   2.392   5.171  0.7124 -1.4328 -1.1795
 5733SOL    HW322699   3.481   2.422   5.045 -0.2738 -0.9066 -0.4456
 5733SOL    MW422700   3.541   2.445   5.104  0.0943  0.1277  0.3553
 5734SOL     OW22701   5.384   4.140   5.788  0.3400 -0.1453 -0.3910
 5734SOL    HW222702   5.319   4.087   5.741 -1.5541 -0.0786  1.9828
 5734SOL    HW322703   5.402   4.091   5.868 -0.1896  1.9341  1.0870
 5734SOL    MW422704   5.378   4.126   5.792 -0.5002 -0.3452 -0.2101
 5735SOL     OW22705   5.613   0.771   5.505 -1.0005 -0.3203 -0.4068
 5735SOL    HW222706   5.650   0.838   5.448 -0.2039 -0.8192 -0.4878
 5735SOL    HW322707   5.588   0.700   5.445 -2.7875  0.2934 -0.4437
 5735SOL    MW422708   5.614   0.770   5.489  1.1062  0.0180  0.4310
 5736SOL     OW22709   0.949   0.814   3.310  0.4662 -0.6632  0.1784
 5736SOL    HW222710   1.006   0.890   3.320  1.5914 -1.0698 -2.4489
 5736SOL    HW322711   0.988   0.747   3.368  0.9918 -0.0629  0.5286
 5736SOL    MW422712   0.962   0.815   3.319  0.9974 -0.4234 -0.8468
 5737SOL     OW22713   0.153   0.990   5.663 -0.6470 -0.2051  0.0574
 5737SOL    HW222714   0.157   1.008   5.569  1.0292  1.0040  0.2983
 5737SOL    HW322715   0.167   0.896   5.671  2.1274  0.0340 -0.8459
 5737SOL    MW422716   0.156   0.980   5.652 -0.1159 -0.2902  0.3435
 5738SOL     OW22717   4.560   1.097   4.181 -0.1472  0.4357  0.2008
 5738SOL    HW222718   4.588   1.156   4.251  2.5980 -1.3303  0.7300
 5738SOL    HW322719   4.610   1.125   4.105  0.2169 -0.3976  0.1278
 5738SOL    MW422720   4.570   1.108   4.180 -0.1181  0.6930 -0.2020
 5739SOL     OW22721   2.312   1.721   1.631 -0.1079  0.0198 -0.1539
 5739SOL    HW222722   2.370   1.764   1.568 -0.0522  0.3778  0.1354
 5739SOL    HW322723   2.341   1.753   1.717 -0.8765  0.3938 -0.0158
 5739SOL    MW422724   2.323   1.731   1.634 -0.2684 -0.6748 -0.2378
 5740SOL     OW22725   2.174   0.299   2.389 -0.0502  0.1139 -0.1695
 5740SOL    HW222726   2.220   0.225   2.430  0.6208  0.4677 -0.2664
 5740SOL    HW322727   2.208   0.376   2.435 -2.8836  0.2400  1.9936
 5740SOL    MW422728   2.185   0.299   2.401  0.8188 -0.3722  0.1468
 5741SOL     OW22729   0.212   3.352   4.847  0.0630  0.1233  0.1541
 5741SOL    HW222730   0.232   3.269   4.802  0.7547 -0.1339  0.9217
 5741SOL    HW322731   0.261   3.348   4.928  1.7620  2.1752 -0.6755
 5741SOL    MW422732   0.221   3.340   4.851  0.7025 -0.0871 -0.4593
 5742SOL     OW22733   2.375   4.669   0.095  0.4001 -0.0202  0.2864
 5742SOL    HW222734   2.455   4.643   0.141  0.4725  0.7705  0.6111
 5742SOL    HW322735   2.362   4.761   0.118  0.9165  0.6682 -1.9783
 5742SOL    MW422736   2.383   4.677   0.104 -0.1968  0.0559 -0.1320
 5743SOL     OW22737   5.400   1.009   2.273  0.5473 -0.0266 -0.1365
 5743SOL    HW222738   5.410   1.038   2.364  1.0873 -1.1365  0.1717
 5743SOL    HW322739   5.489   0.991   2.243  0.2872 -0.7111 -0.5265
 5743SOL    MW422740   5.413   1.010   2.281  0.4174 -0.0958 -0.4000
 5744SOL     OW22741   2.803   4.529   1.469  0.2567  0.2404 -0.4798
 5744SOL    HW222742   2.723   4.524   1.417 -1.0024  0.1033  1.3784
 5744SOL    HW322743   2.778   4.578   1.547  1.7322 -0.6929  0.6348
 5744SOL    MW422744   2.789   4.535   1.472 -0.0802  0.2014  0.0888
 5745SOL     OW22745   1.919   5.914   0.981 -0.5402  0.1289  0.1469
 5745SOL    HW222746   1.911   6.009   0.971  0.8647  0.2661  0.0989
 5745SOL    HW322747   1.829   5.883   0.989 -1.0327  1.4398 -0.0472
 5745SOL    MW422748   1.906   5.922   0.981  0.0356  0.1394  0.0587
 5746SOL     OW22749   3.737   5.017   3.357  0.0275 -0.0277 -0.3713
 5746SOL    HW222750   3.739   4.973   3.442  1.4251  0.1253 -0.3042
 5746SOL    HW322751   3.655   4.987   3.316 -0.6604 -0.1103  1.0074
 5746SOL    MW422752   3.726   5.008   3.363  0.8308 -0.0337 -0.5090
 5747SOL     OW22753   1.485   4.620   5.724  0.2987 -0.7921  0.2084
 5747SOL    HW222754   1.464   4.680   5.796 -0.4251 -1.3809  0.5031
 5747SOL    HW322755   1.401   4.601   5.682  0.7486 -0.2504 -0.9738
 5747SOL    MW422756   1.471   4.625   5.728  0.2132  0.3554  0.2655
 5748SOL     OW22757   2.024   2.064   3.493 -0.0516 -0.2220 -0.6002
 5748SOL    HW222758   2.090   2.133   3.494 -0.2225 -0.0484  0.6628
 5748SOL    HW322759   2.072   1.986   3.464  0.8568 -0.2061  0.7513
 5748SOL    MW422760   2.039   2.063   3.490 -0.1553  0.1444  0.0603
 5749SOL     OW22761   4.322   1.682   1.494 -0.4966  0.1087  0.1850
 5749SOL    HW222762   4.336   1.749   1.427 -0.0331 -0.0969  0.0752
 5749SOL    HW322763   4.233   1.651   1.477  0.1556 -1.0538 -1.3561
 5749SOL    MW422764   4.312   1.687   1.483  0.6802  0.2473  0.1884
 5750SOL     OW22765   2.980   2.329   1.911  0.0574 -0.5241 -0.0570
 5750SOL    HW222766   2.892   2.319   1.947 -1.3127 -1.3691 -3.2977
 5750SOL    HW322767   3.036   2.341   1.988 -2.4492 -2.8692  2.3485
 5750SOL    MW422768   2.976   2.329   1.926 -0.2996  0.4299  0.4307
 5751SOL     OW22769   0.982   4.348   2.114 -0.0196 -0.2924 -0.3426
 5751SOL    HW222770   1.016   4.321   2.028  0.3466  1.5897 -0.8502
 5751SOL    HW322771   0.887   4.340   2.106  0.0837 -3.0115  0.1615
 5751SOL    MW422772   0.974   4.343   2.102 -0.1076  0.1654  0.0441
 5752SOL     OW22773   4.910   1.534   3.203 -0.0248  0.6052  0.0247
 5752SOL    HW222774   4.886   1.444   3.183  1.4289  0.0848  0.4976
 5752SOL    HW322775   4.846   1.587   3.155 -0.2527 -0.6548 -1.1340
 5752SOL    MW422776   4.898   1.529   3.194  0.0919 -0.2549 -0.5719
 5753SOL     OW22777   0.950   4.995   2.038 -0.3963 -0.0346  0.1646
 5753SOL    HW222778   0.990   4.925   2.090 -0.6766  0.5022  1.1256
 5753SOL    HW322779   1.024   5.049   2.010 -0.3623  0.4932  1.2444
 5753SOL    MW422780   0.965   4.993   2.041  0.7928 -0.0820 -0.4957
 5754SOL     OW22781   2.685   2.781   2.244 -0.3081 -0.6433 -0.3402
 5754SOL    HW222782   2.738   2.859   2.261 -0.1709 -0.8910  0.3907
 5754SOL    HW322783   2.625   2.807   2.173 -0.7271  0.3399  0.3583
 5754SOL    MW422784   2.684   2.795   2.237 -0.0795 -0.0686 -0.0537
 5755SOL     OW22785   2.901   1.237   0.409 -0.3312 -0.5448 -0.2771
 5755SOL    HW222786   2.889   1.153   0.454  0.6460 -1.1894 -1.1499
 5755SOL    HW322787   2.993   1.235   0.381  0.1968  1.5541  1.1183
 5755SOL    MW422788   2.912   1.225   0.411  0.8341  0.2944  0.0653
 5756SOL     OW22789   0.965   0.753   0.557 -0.2061  0.3981 -0.0121
 5756SOL    HW222790   0.939   0.766   0.466  0.1488  1.8994  0.0758
 5756SOL    HW322791   0.892   0.706   0.597 -0.9893  0.9901 -0.7283
 5756SOL    MW422792   0.952   0.748   0.551  0.1744 -0.2015 -0.3500
 5757SOL     OW22793   5.409   2.401   1.121 -0.0540  0.5909  0.0636
 5757SOL    HW222794   5.430   2.349   1.043  2.2624  0.1284  0.8992
 5757SOL    HW322795   5.402   2.491   1.088  0.5530  0.3596 -0.7514
 5757SOL    MW422796   5.411   2.406   1.106  0.1155 -0.3013  0.2620
 5758SOL     OW22797   4.152   4.541   1.654 -0.5018 -0.3092  0.3666
 5758SOL    HW222798   4.158   4.616   1.595  1.4920 -1.2081 -0.6779
 5758SOL    HW322799   4.091   4.481   1.610 -0.4415 -0.2040  0.1371
 5758SOL    MW422800   4.145   4.543   1.640 -0.7441 -0.3503 -0.1259
 5759SOL     OW22801   2.553   3.652   3.893  0.1477  0.0812 -0.0658
 5759SOL    HW222802   2.596   3.687   3.971 -0.1134  0.8988 -0.2801
 5759SOL    HW322803   2.487   3.717   3.870  0.1860 -0.1709 -0.9429
 5759SOL    MW422804   2.550   3.665   3.900  0.4116  0.3761 -0.1253
 5760SOL     OW22805   2.885   4.828   3.623 -0.0142  0.0769  0.2311
 5760SOL    HW222806   2.806   4.855   3.671  0.7609  0.9206  1.0653
 5760SOL    HW322807   2.858   4.749   3.577 -1.6257  0.8603 -0.2516
 5760SOL    MW422808   2.871   4.821   3.623  0.5168  0.2915  0.0892
 5761SOL     OW22809   3.292   5.630   2.440 -0.3200 -0.1656 -0.0254
 5761SOL    HW222810   3.206   5.636   2.397  0.6872  0.8286 -2.0807
 5761SOL    HW322811   3.335   5.557   2.397  0.2337 -0.0061  0.2492
 5761SOL    MW422812   3.286   5.621   2.429  0.3690  0.0681 -0.5265
 5762SOL     OW22813   4.704   1.683   4.547 -0.3099 -0.2988  0.2412
 5762SOL    HW222814   4.673   1.599   4.581 -0.0495  0.1627  1.6817
 5762SOL    HW322815   4.784   1.662   4.501  0.2582 -0.7417  1.3916
 5762SOL    MW422816   4.710   1.669   4.546  0.2487  0.1726  0.0802
 5763SOL     OW22817   5.758   2.442   0.185 -0.2080  0.2127  0.3429
 5763SOL    HW222818   5.700   2.378   0.144  0.9205 -0.8250  0.2817
 5763SOL    HW322819   5.825   2.459   0.119  0.6221 -0.0823  1.0865
 5763SOL    MW422820   5.759   2.436   0.171  0.3178  0.7007  0.2888
 5764SOL     OW22821   0.625   1.971   4.570 -0.1141 -0.2237 -0.2293
 5764SOL    HW222822   0.633   2.055   4.615 -2.6949 -0.2683  0.4708
 5764SOL    HW322823   0.676   1.910   4.623  0.2356  0.5220  0.3075
 5764SOL    MW422824   0.633   1.974   4.583  0.1265  0.0969  0.6976
 5765SOL     OW22825   0.273   3.332   5.142 -0.0458 -0.0896 -0.4493
 5765SOL    HW222826   0.205   3.268   5.165  1.0537 -1.5777 -1.1221
 5765SOL    HW322827   0.348   3.307   5.196 -0.7628  3.2817  2.4394
 5765SOL    MW422828   0.274   3.320   5.152 -0.0879  0.1962 -0.3246
 5766SOL     OW22829   4.310   3.392   6.118 -0.3916  0.4870  0.3654
 5766SOL    HW222830   4.406   3.394   6.113 -0.4110 -0.6174 -1.2308
 5766SOL    HW322831   4.284   3.484   6.121  0.6717  0.9158 -1.5909
 5766SOL    MW422832   4.319   3.404   6.118  0.0657  0.0825  0.2464
 5767SOL     OW22833   4.845   0.841   0.357  0.3747 -0.3436  0.1563
 5767SOL    HW222834   4.884   0.830   0.271  4.3519  1.0740  1.5279
 5767SOL    HW322835   4.852   0.755   0.398  0.9795 -0.3956 -0.0492
 5767SOL    MW422836   4.851   0.828   0.351 -0.4663 -0.2365  0.3818
 5768SOL     OW22837   0.812   0.286   2.887  0.3728 -0.2499  0.0337
 5768SOL    HW222838   0.886   0.346   2.875  1.3082 -1.3316  0.1968
 5768SOL    HW322839   0.840   0.228   2.959 -0.6149 -0.6989  0.0668
 5768SOL    MW422840   0.826   0.286   2.895  0.2409  0.0980 -0.4200
 5769SOL     OW22841   2.271   0.681   1.654 -0.7381 -0.2488 -0.2485
 5769SOL    HW222842   2.220   0.750   1.610 -2.8952 -1.9593 -0.6133
 5769SOL    HW322843   2.249   0.601   1.606  2.7325 -1.0784 -0.6825
 5769SOL    MW422844   2.261   0.680   1.642 -0.6309 -0.6128  0.1068
 5770SOL     OW22845   1.215   4.269   3.175  0.0042 -0.2736  0.1928
 5770SOL    HW222846   1.122   4.290   3.164  0.6942  3.4821  0.0492
 5770SOL    HW322847   1.256   4.298   3.093  1.4656 -0.7609  0.7220
 5770SOL    MW422848   1.208   4.276   3.163 -0.2306  0.3725  0.3837
 5771SOL     OW22849   4.805   2.956   0.169  0.2127 -0.0074  0.5988
 5771SOL    HW222850   4.850   3.003   0.099  0.2730 -0.8989  0.0211
 5771SOL    HW322851   4.720   2.932   0.131 -0.6262  1.3350  1.5525
 5771SOL    MW422852   4.799   2.959   0.155 -0.0956 -0.1062  0.0865
 5772SOL     OW22853   4.547   2.022   1.526 -0.4039 -0.4893  0.2605
 5772SOL    HW222854   4.581   1.933   1.531 -0.4336 -0.5319 -0.2566
 5772SOL    HW322855   4.508   2.028   1.439  0.4400  0.3326 -0.0732
 5772SOL    MW422856   4.546   2.011   1.516  0.6505 -0.4199 -0.2137
 5773SOL     OW22857   1.706   5.290   4.393 -0.1000  0.5220  0.1886
 5773SOL    HW222858   1.792   5.311   4.356  0.1166  0.6770  0.7688
 5773SOL    HW322859   1.717   5.204   4.433  0.1678  1.1113  1.4301
 5773SOL    MW422860   1.719   5.282   4.393 -0.1876 -0.2541 -0.3991
 5774SOL     OW22861   4.207   2.987   6.225  0.1636  0.0113  0.1826
 5774SOL    HW222862   4.263   2.962   6.152 -1.1476  0.6386 -1.0917
 5774SOL    HW322863   4.249   2.948   6.302  1.9788 -0.0419 -0.7865
 5774SOL    MW422864   4.220   2.978   6.225 -0.0728  0.1593  0.6225
 5775SOL     OW22865   6.159   3.022   5.018 -0.1275 -0.2655  0.4606
 5775SOL    HW222866   6.172   3.067   5.102 -2.3018 -0.3218  0.8784
 5775SOL    HW322867   6.167   3.091   4.952  1.2422 -0.1578  0.7181
 5775SOL    MW422868   6.162   3.037   5.020  0.2976 -0.3456 -0.0334
 5776SOL     OW22869   4.456   2.491   1.668  0.4920 -0.3516  0.2679
 5776SOL    HW222870   4.460   2.565   1.728  3.6043 -0.2617  0.1322
 5776SOL    HW322871   4.464   2.530   1.581 -0.0275 -0.7319  0.0426
 5776SOL    MW422872   4.458   2.506   1.664 -0.5387 -0.0566  0.3114
 5777SOL     OW22873   6.040   3.116   4.176 -0.8136 -0.0875 -0.1521
 5777SOL    HW222874   6.022   3.200   4.218  1.5614  0.6410 -0.4613
 5777SOL    HW322875   6.005   3.126   4.087 -1.3247  0.2344  0.0811
 5777SOL    MW422876   6.033   3.128   4.170  0.2487  0.2826 -0.6989
 5778SOL     OW22877   0.762   0.308   5.404  0.0010 -0.0554  0.1328
 5778SOL    HW222878   0.740   0.396   5.375 -2.2884  0.3514  2.6910
 5778SOL    HW322879   0.688   0.254   5.375  0.9594 -1.0002 -0.6462
 5778SOL    MW422880   0.749   0.312   5.396 -0.6410  0.2205 -0.2320
 5779SOL     OW22881   2.438   1.829   4.286  0.0214  0.2783 -0.2192
 5779SOL    HW222882   2.388   1.882   4.348  1.9330  0.1917  1.4895
 5779SOL    HW322883   2.484   1.892   4.231  0.5746  0.3927  0.3664
 5779SOL    MW422884   2.437   1.844   4.287 -0.8331  0.1455  0.0413
 5780SOL     OW22885   2.279   2.181   0.066 -0.2786 -0.6592  0.6239
 5780SOL    HW222886   2.251   2.264   0.105 -0.4596 -0.3781 -0.0994
 5780SOL    HW322887   2.369   2.197   0.037 -0.8850 -0.1566 -1.0735
 5780SOL    MW422888   2.287   2.194   0.067  0.4337 -0.3097  0.1022
 5781SOL     OW22889   2.343   3.741   6.040  0.0592  1.0578  0.4294
 5781SOL    HW222890   2.267   3.698   6.002  1.2239  0.5824 -1.4816
 5781SOL    HW322891   2.315   3.832   6.053 -1.3517  0.5251  1.4257
 5781SOL    MW422892   2.330   3.748   6.037  0.4324  0.0477  0.2406
 5782SOL     OW22893   2.102   4.591   3.732  0.1629  0.6261 -0.4832
 5782SOL    HW222894   2.018   4.563   3.695  0.0527 -0.3347  0.4397
 5782SOL    HW322895   2.148   4.509   3.752  0.7130  1.1270  0.3549
 5782SOL    MW422896   2.097   4.576   3.730  0.1840 -0.2131 -0.4415
 5783SOL     OW22897   6.323   3.946   5.927  0.5182 -0.2962  0.0255
 5783SOL    HW222898   6.359   4.023   5.972  0.5517 -1.0501  1.3476
 5783SOL    HW322899   6.236   3.974   5.899  0.2489  0.0209  1.1271
 5783SOL    MW422900   6.316   3.960   5.929 -0.2753  0.3044  0.6363
 5784SOL     OW22901   5.831   3.169   6.314  0.0489 -0.2900 -0.3659
 5784SOL    HW222902   5.819   3.120   6.233  0.3979  2.2762 -2.0705
 5784SOL    HW322903   5.925   3.177   6.324  0.0093 -0.6460  0.3469
 5784SOL    MW422904   5.842   3.163   6.305  0.2767  0.1237  0.4429
 5785SOL     OW22905   1.504   6.076   2.014  0.1555 -0.2264  0.1635
 5785SOL    HW222906   1.533   6.074   2.105  0.6134 -1.3378  0.0181
 5785SOL    HW322907   1.435   6.142   2.011 -0.1946 -0.5251  1.4142
 5785SOL    MW422908   1.499   6.084   2.025  0.2097  0.1991 -0.6030
 5786SOL     OW22909   3.963   2.554   5.607  0.3982 -0.5518  0.0178
 5786SOL    HW222910   4.039   2.612   5.601 -1.0796  1.5305  0.4044
 5786SOL    HW322911   4.001   2.466   5.615  2.8000  0.4937  1.4022
 5786SOL    MW422912   3.978   2.550   5.607 -0.1216  0.2390  0.6391
 5787SOL     OW22913   1.470   4.732   0.275 -0.6701  0.9420 -0.3843
 5787SOL    HW222914   1.407   4.772   0.335 -0.6319  1.2047 -0.5219
 5787SOL    HW322915   1.548   4.715   0.328 -0.4832  1.5602 -0.4604
 5787SOL    MW422916   1.472   4.735   0.290 -0.6786  0.1296 -0.1708
 5788SOL     OW22917   5.037   1.311   1.990 -0.1315 -0.2944 -0.4051
 5788SOL    HW222918   5.084   1.388   1.957  2.0583 -2.0476 -1.6420
 5788SOL    HW322919   4.956   1.347   2.026  1.5012  2.7873  0.6065
 5788SOL    MW422920   5.033   1.326   1.991  0.3776  0.0134  0.5579
 5789SOL     OW22921   1.552   2.185   4.970  0.1394 -0.4794  0.5446
 5789SOL    HW222922   1.549   2.125   4.895 -1.5983 -1.6567  1.4610
 5789SOL    HW322923   1.616   2.146   5.030  0.8437 -0.0442  0.0824
 5789SOL    MW422924   1.560   2.172   4.968  0.1967  0.5397 -0.8654
 5790SOL     OW22925   0.596   3.424   0.976  0.4734  0.7223 -0.5653
 5790SOL    HW222926   0.537   3.349   0.973  1.8591 -0.4705  0.2960
 5790SOL    HW322927   0.625   3.428   1.068  1.5445  1.3909 -0.9154
 5790SOL    MW422928   0.592   3.415   0.988 -0.1438 -0.0638  0.1207
 5791SOL     OW22929   2.012   1.590   0.970  0.4017 -0.0244 -0.2431
 5791SOL    HW222930   2.079   1.573   1.036  1.0162  1.6154 -0.3930
 5791SOL    HW322931   1.929   1.569   1.014  0.7588  1.3723  1.2258
 5791SOL    MW422932   2.010   1.585   0.985 -0.4185  0.7950  0.1089
 5792SOL     OW22933   3.518   3.577   3.900 -0.0497 -0.1399 -0.0772
 5792SOL    HW222934   3.539   3.625   3.820  2.7010 -1.9531 -0.5617
 5792SOL    HW322935   3.552   3.633   3.970 -2.6704  1.5628 -0.0373
 5792SOL    MW422936   3.525   3.591   3.899 -0.7908  0.0341 -0.2386
 5793SOL     OW22937   3.734   4.807   6.206 -0.4052  0.2062 -0.4488
 5793SOL    HW222938   3.756   4.895   6.237 -0.0262  0.0452 -0.2477
 5793SOL    HW322939   3.788   4.795   6.128  1.3634 -0.7322  0.8482
 5793SOL    MW422940   3.744   4.817   6.200 -0.4459 -0.1675 -0.1158
 5794SOL     OW22941   6.003   2.859   0.559 -0.2995 -0.1128 -0.2000
 5794SOL    HW222942   5.974   2.775   0.522  0.1438 -1.0107  1.3907
 5794SOL    HW322943   5.932   2.885   0.618  0.9233 -1.0509  1.7896
 5794SOL    MW422944   5.989   2.851   0.562  0.4492  0.3164 -0.0832
 5795SOL     OW22945   1.381   4.269   1.303 -0.1747 -0.1287  0.2012
 5795SOL    HW222946   1.449   4.226   1.251  0.2414  0.6559  0.0803
 5795SOL    HW322947   1.401   4.363   1.297 -2.9414  0.4359 -2.2833
 5795SOL    MW422948   1.392   4.276   1.296  0.1814 -0.1138 -0.5021
 5796SOL     OW22949   0.759   5.605   4.297 -0.1245  0.2467  0.2773
 5796SOL    HW222950   0.697   5.535   4.277 -1.0828  1.1547  0.0216
 5796SOL    HW322951   0.827   5.562   4.349 -1.3685 -0.6123  1.2393
 5796SOL    MW422952   0.760   5.590   4.301  0.6613 -0.1028 -0.7452
 5797SOL     OW22953   3.108   2.761   1.649  0.5020 -0.3360 -0.5006
 5797SOL    HW222954   3.049   2.796   1.582  1.2198  0.3919 -0.7765
 5797SOL    HW322955   3.055   2.699   1.698 -0.3929  0.0576 -0.9496
 5797SOL    MW422956   3.093   2.758   1.646 -0.1545  0.3496  0.2096
 5798SOL     OW22957   3.385   5.394   4.366  0.3760 -0.3163 -0.0244
 5798SOL    HW222958   3.341   5.390   4.451 -0.9863 -0.2236 -0.7048
 5798SOL    HW322959   3.329   5.449   4.312  0.8246 -0.9856 -1.2173
 5798SOL    MW422960   3.372   5.401   4.370 -0.0397 -0.2420 -0.0132
 5799SOL     OW22961   1.262   3.590   4.012  0.4852  0.0465  0.5968
 5799SOL    HW222962   1.352   3.559   4.003 -0.0291 -1.7974  1.3512
 5799SOL    HW322963   1.219   3.567   3.930  0.8234  1.4497  0.0077
 5799SOL    MW422964   1.268   3.583   4.000 -0.1009  0.5425  0.4469
 5800SOL     OW22965   5.948   0.846   2.509  0.4963 -0.5446 -0.2437
 5800SOL    HW222966   6.031   0.893   2.514  1.5879 -2.3850  0.3299
 5800SOL    HW322967   5.941   0.819   2.417 -0.7630  1.6862 -0.8698
 5800SOL    MW422968   5.958   0.848   2.498 -0.1607 -0.2530  0.5353
 5801SOL     OW22969   6.223   5.801   0.942  0.4971  0.9614 -0.2610
 5801SOL    HW222970   6.204   5.796   1.036  2.5668 -0.1314  0.1568
 5801SOL    HW322971   6.279   5.878   0.933  1.2245  0.4304 -0.3904
 5801SOL    MW422972   6.228   5.811   0.953  0.2915  0.2617 -0.0173
 5802SOL     OW22973   5.905   3.812   2.461  0.2934 -0.4525 -0.8053
 5802SOL    HW222974   5.835   3.806   2.526  1.2656  0.1347  0.3462
 5802SOL    HW322975   5.985   3.818   2.513  1.0709  0.5345 -2.0537
 5802SOL    MW422976   5.906   3.812   2.476 -0.1284  0.1971  0.2357
 5803SOL     OW22977   1.312   0.978   0.175  0.2510  0.3342  0.0541
 5803SOL    HW222978   1.296   1.068   0.145  0.1341  0.3198  0.0740
 5803SOL    HW322979   1.379   0.945   0.114 -0.7666 -0.0611 -0.8863
 5803SOL    MW422980   1.319   0.986   0.163  0.2124  0.2961 -0.4248
 5804SOL     OW22981   3.050   1.438   2.752  0.0867 -0.1601  0.7641
 5804SOL    HW222982   3.107   1.446   2.828  0.4282 -0.4116  0.5381
 5804SOL    HW322983   3.107   1.407   2.682  0.1075  1.5839 -0.0271
 5804SOL    MW422984   3.065   1.435   2.753 -0.5229  0.0261  0.2731
 5805SOL     OW22985   6.065   4.563   5.186  0.5424  0.1403  0.1540
 5805SOL    HW222986   6.149   4.582   5.228  0.1016  0.0684  1.0973
 5805SOL    HW322987   6.036   4.647   5.151  0.9439  0.1925 -0.0570
 5805SOL    MW422988   6.073   4.577   5.187  0.5263  0.2999 -0.2300
 5806SOL     OW22989   1.045   4.005   2.022  0.0073 -0.0307  0.3992
 5806SOL    HW222990   1.057   4.088   1.975  1.4743  0.0930  0.9647
 5806SOL    HW322991   0.954   4.009   2.053 -1.1228 -0.2019 -2.5247
 5806SOL    MW422992   1.034   4.016   2.020  0.6280 -0.1256  0.5206
 5807SOL     OW22993   1.380   6.404   3.945  0.0374  0.1152  0.0356
 5807SOL    HW222994   1.339   6.384   3.861  1.0522  0.4785 -0.5599
 5807SOL    HW322995   1.421   6.489   3.932 -1.0086  0.8640  1.3698
 5807SOL    MW422996   1.380   6.412   3.932  0.1757 -0.0166 -0.2405
 5808SOL     OW22997   0.592   2.964   6.232 -0.0931 -0.0795 -0.0835
 5808SOL    HW222998   0.585   2.888   6.290 -1.1103  0.7921  0.9960
 5808SOL    HW322999   0.538   2.942   6.157  1.2740 -1.2470 -0.7728
 5808SOL    MW423000   0.584   2.951   6.230  0.1596  0.3408 -0.1213
 5809SOL     OW23001   4.716   5.796   0.925  0.5918 -0.2779 -0.6174
 5809SOL    HW223002   4.794   5.759   0.884 -0.5853 -3.2828 -0.4533
 5809SOL    HW323003   4.670   5.841   0.854  1.7373  0.2815 -1.0297
 5809SOL    MW423004   4.720   5.797   0.910  0.4119 -0.0148  0.8470
 5810SOL     OW23005   4.318   6.271   4.659 -0.2495 -0.1964 -0.1605
 5810SOL    HW223006   4.354   6.304   4.577  0.2862 -0.1822  0.0740
 5810SOL    HW323007   4.245   6.329   4.679  0.0828  0.2519 -0.2486
 5810SOL    MW423008   4.313   6.283   4.651 -1.1573  0.0761 -0.4624
 5811SOL     OW23009   2.423   5.992   2.525  0.0152 -0.2192 -0.0774
 5811SOL    HW223010   2.496   6.050   2.547  0.0982 -0.8086  1.3171
 5811SOL    HW323011   2.464   5.913   2.489 -0.0075 -0.0432 -0.4891
 5811SOL    MW423012   2.438   5.989   2.523 -0.7861  0.1038 -0.6579
 5812SOL     OW23013   4.388   1.479   1.234  0.3542 -0.4864 -0.5015
 5812SOL    HW223014   4.401   1.394   1.277 -1.1566 -0.7292 -0.4569
 5812SOL    HW323015   4.325   1.524   1.291  1.3454  0.7895 -0.3780
 5812SOL    MW423016   4.382   1.473   1.247 -0.1111 -0.5017  0.2200
 5813SOL     OW23017   2.796   1.076   4.975 -0.2646 -0.1382 -0.9856
 5813SOL    HW223018   2.857   1.107   5.042  0.0885  1.2099 -1.8977
 5813SOL    HW323019   2.851   1.029   4.913 -0.3337  0.0809 -1.2124
 5813SOL    MW423020   2.811   1.074   4.976  0.3944  0.0218  0.1680
 5814SOL     OW23021   1.171   4.835   5.702 -0.2822  0.0306 -0.7931
 5814SOL    HW223022   1.122   4.895   5.646 -1.6982 -0.7110 -0.3782
 5814SOL    HW323023   1.254   4.881   5.719 -0.9164  1.4188 -1.2963
 5814SOL    MW423024   1.176   4.849   5.697 -0.3311 -0.1696  0.8513
 5815SOL     OW23025   0.288   2.799   5.764  0.0399  0.3650 -0.4075
 5815SOL    HW223026   0.310   2.705   5.762 -2.3986 -0.2634 -0.5299
 5815SOL    HW323027   0.372   2.842   5.781  0.9978 -1.9137  1.2116
 5815SOL    MW423028   0.302   2.792   5.766 -0.0031 -0.4357  0.2084
 5816SOL     OW23029   3.386   5.730   4.442 -0.3725 -0.8314  0.2792
 5816SOL    HW223030   3.368   5.824   4.454  1.7513 -0.2122 -0.7820
 5816SOL    HW323031   3.304   5.694   4.409 -1.7399  0.2933  2.2349
 5816SOL    MW423032   3.373   5.738   4.439  0.4620  0.0940 -0.1186
 5817SOL     OW23033   4.734   4.247   2.074 -0.5673 -0.1355  0.1923
 5817SOL    HW223034   4.794   4.318   2.097  0.7622 -1.1050 -0.1548
 5817SOL    HW323035   4.745   4.183   2.144  1.5422 -1.9170 -1.6167
 5817SOL    MW423036   4.743   4.248   2.086  0.1653  0.1930 -0.7821
 5818SOL     OW23037   5.302   2.698   5.610  0.1218  0.9964  0.2315
 5818SOL    HW223038   5.319   2.687   5.703 -1.1454 -0.3382  0.3457
 5818SOL    HW323039   5.285   2.791   5.599 -1.2005  0.9599  1.6309
 5818SOL    MW423040   5.302   2.708   5.621  0.2035 -0.4635  0.0845
 5819SOL     OW23041   6.143   2.825   0.845 -0.3815 -0.8288 -0.5746
 5819SOL    HW223042   6.102   2.771   0.778 -0.8033  0.0569 -1.0403
 5819SOL    HW323043   6.221   2.775   0.871 -0.6432 -1.5520 -1.1458
 5819SOL    MW423044   6.148   2.811   0.840  0.6076  0.8707  0.0647
 5820SOL     OW23045   3.529   1.560   2.849  0.5899  0.1378 -0.2442
 5820SOL    HW223046   3.577   1.477   2.843  0.2149 -0.1797  0.7926
 5820SOL    HW323047   3.529   1.595   2.760  1.7329 -0.4199 -0.4774
 5820SOL    MW423048   3.535   1.553   2.836  0.2632 -0.2792  0.0841
 5821SOL     OW23049   5.558   3.136   1.448 -0.2031  0.4790 -0.2315
 5821SOL    HW223050   5.501   3.059   1.454 -2.7092  2.1349 -1.2457
 5821SOL    HW323051   5.595   3.145   1.535 -2.9193  0.2765  1.0660
 5821SOL    MW423052   5.555   3.127   1.460  0.0693  0.4057 -0.0233
 5822SOL     OW23053   0.259   2.627   3.191  0.1389  0.1860 -0.0833
 5822SOL    HW223054   0.308   2.618   3.273 -1.3982  0.7456  0.9407
 5822SOL    HW323055   0.194   2.557   3.194 -0.8064  1.0255 -0.1445
 5822SOL    MW423056   0.257   2.617   3.202 -0.2545 -0.1083  0.7012
 5823SOL     OW23057   2.336   3.628   3.037  0.2695 -0.0455  0.0145
 5823SOL    HW223058   2.276   3.665   3.101  0.2762 -1.1978  0.7189
 5823SOL    HW323059   2.411   3.687   3.038  0.5110 -0.3346  1.5064
 5823SOL    MW423060   2.338   3.641   3.046 -0.6296 -0.1707 -0.0814
 5824SOL     OW23061   4.868   3.048   5.688  0.1056 -0.0067  0.1784
 5824SOL    HW223062   4.876   3.097   5.607 -1.9918  0.8356  0.4162
 5824SOL    HW323063   4.868   2.956   5.661 -2.4818  0.2675 -1.0825
 5824SOL    MW423064   4.869   3.042   5.674  0.1126 -0.0572 -0.1549
 5825SOL     OW23065   3.413   1.180   6.164  0.4309 -0.3105  0.2181
 5825SOL    HW223066   3.428   1.139   6.249  0.2796  2.3096  1.6153
 5825SOL    HW323067   3.357   1.255   6.183  0.4561  0.4159 -2.2059
 5825SOL    MW423068   3.407   1.184   6.178  0.2018  0.1489  0.9136
 5826SOL     OW23069   3.485   5.597   1.040 -0.3300 -0.7582 -0.2434
 5826SOL    HW223070   3.461   5.623   1.129 -0.1289 -0.1838 -0.3517
 5826SOL    HW323071   3.437   5.658   0.984 -0.6426 -1.2735 -0.5355
 5826SOL    MW423072   3.476   5.609   1.045 -0.0330  0.1617 -0.0382
 5827SOL     OW23073   2.922   0.395   3.307 -0.1744 -0.3534  0.6454
 5827SOL    HW223074   2.916   0.300   3.306 -0.5504 -0.3272  0.2889
 5827SOL    HW323075   2.981   0.416   3.234 -0.6123 -0.2823  0.3057
 5827SOL    MW423076   2.929   0.385   3.297  0.1158  0.8791 -0.1956
 5828SOL     OW23077   5.425   5.349   4.883 -0.1369  0.1191  0.1413
 5828SOL    HW223078   5.415   5.313   4.795  3.0051 -0.7467  0.0200
 5828SOL    HW323079   5.430   5.272   4.940  0.4643  0.5788  0.7219
 5828SOL    MW423080   5.424   5.334   4.879 -0.2561 -0.1461 -0.4572
 5829SOL     OW23081   2.363   4.624   1.046 -0.3699 -0.2039  0.6176
 5829SOL    HW223082   2.425   4.686   1.009 -2.3871  1.0645 -0.8711
 5829SOL    HW323083   2.414   4.571   1.107  1.5735  2.5878  1.5955
 5829SOL    MW423084   2.378   4.625   1.049 -0.2375  0.0665  0.4142
 5830SOL     OW23085   0.101   5.495   6.310  0.9040 -0.0946 -0.7421
 5830SOL    HW223086   0.068   5.580   6.280 -1.5556 -0.4875  0.5692
 5830SOL    HW323087   0.196   5.500   6.298  0.6169  1.9686 -2.7945
 5830SOL    MW423088   0.109   5.507   6.304  0.1205  0.2426 -0.0745
 5831SOL     OW23089   2.313   4.268   3.286  0.1145 -0.6809 -0.1800
 5831SOL    HW223090   2.301   4.346   3.232 -2.0477 -1.4836 -0.9612
 5831SOL    HW323091   2.292   4.195   3.229 -1.1837 -1.6266  1.4177
 5831SOL    MW423092   2.309   4.269   3.272  0.3544  0.2368  0.2768
 5832SOL     OW23093   0.907   1.425   2.143  0.8506 -0.6984  0.2868
 5832SOL    HW223094   0.816   1.428   2.173  0.6964 -1.1143 -0.1330
 5832SOL    HW323095   0.906   1.466   2.057  1.4435  1.2920  1.1669
 5832SOL    MW423096   0.895   1.431   2.136  0.3217  0.2205  0.0946
 5833SOL     OW23097   5.235   6.323   5.142 -0.1324  0.0158 -0.1687
 5833SOL    HW223098   5.160   6.267   5.120  0.0987  0.1630 -1.3666
 5833SOL    HW323099   5.280   6.275   5.212 -0.8371 -0.5088 -0.0591
 5833SOL    MW423100   5.231   6.309   5.148  0.0221 -0.4782 -0.2328
 5834SOL     OW23101   1.992   5.441   5.476 -0.1070 -0.3419 -0.0587
 5834SOL    HW223102   1.940   5.471   5.551 -1.0308  1.6764 -1.4247
 5834SOL    HW323103   2.068   5.499   5.474  0.7628 -1.4237  0.2040
 5834SOL    MW423104   1.995   5.453   5.486  0.4454 -0.0608 -0.1583
 5835SOL     OW23105   2.871   0.951   2.411 -0.0479 -0.3027 -0.2372
 5835SOL    HW223106   2.867   1.021   2.346  1.4613 -0.0530 -0.0764
 5835SOL    HW323107   2.903   0.875   2.362  1.7127  0.0476  0.3067
 5835SOL    MW423108   2.874   0.950   2.396 -0.3674  0.3694  0.0254
 5836SOL     OW23109   2.575   4.523   1.305 -0.4015  0.0453 -0.0126
 5836SOL    HW223110   2.549   4.457   1.241  0.1319 -0.7825  0.6046
 5836SOL    HW323111   2.595   4.601   1.252 -0.7891 -0.3538 -0.7713
 5836SOL    MW423112   2.574   4.525   1.289 -0.3221  0.8805  0.4855
 5837SOL     OW23113   4.846   2.456   2.962 -0.2856 -0.3912 -0.1616
 5837SOL    HW223114   4.849   2.372   3.008 -0.1930 -0.0081  0.5491
 5837SOL    HW323115   4.758   2.489   2.979 -0.0500  0.0360  0.2792
 5837SOL    MW423116   4.835   2.450   2.971  0.0070 -0.1361  0.0597
 5838SOL     OW23117   3.345   0.365   4.660 -0.3874  0.0775  0.2247
 5838SOL    HW223118   3.331   0.374   4.566 -1.2705  0.4642  0.3831
 5838SOL    HW323119   3.349   0.455   4.692  0.0494 -0.0520  0.5424
 5838SOL    MW423120   3.343   0.378   4.652 -0.2176  0.1080 -0.0592
 5839SOL     OW23121   4.904   6.287   5.752  0.4995 -1.0704  0.2225
 5839SOL    HW223122   4.856   6.205   5.749  0.2246 -0.9553  1.3465
 5839SOL    HW323123   4.995   6.262   5.734  0.1729 -1.3872 -1.1079
 5839SOL    MW423124   4.910   6.273   5.749 -0.5026  0.5496  0.4955
 5840SOL     OW23125   1.929   4.103   1.859  0.4003  0.0560 -0.4678
 5840SOL    HW223126   1.905   4.106   1.951 -2.7517  0.3526 -1.2087
 5840SOL    HW323127   1.957   4.193   1.839 -0.6022  0.4457 -0.1827
 5840SOL    MW423128   1.930   4.116   1.868  0.1079  0.7535  0.2491
 5841SOL     OW23129   6.392   1.334   5.138  0.0976 -0.4463  0.1730
 5841SOL    HW223130   6.451   1.272   5.097  1.0099 -1.3797  2.7456
 5841SOL    HW323131   6.312   1.330   5.085  0.9677 -2.0387 -1.0863
 5841SOL    MW423132   6.389   1.326   5.125  0.0178 -0.0453  0.5409
 5842SOL     OW23133   3.819   2.877   4.690  0.0328 -0.1157 -0.0494
 5842SOL    HW223134   3.726   2.864   4.713 -0.2361 -0.1856 -1.1553
 5842SOL    HW323135   3.824   2.969   4.662 -0.1565 -0.6607 -2.0150
 5842SOL    MW423136   3.807   2.887   4.690  0.2917 -0.3099 -0.2301
 5843SOL     OW23137   6.229   1.381   5.484  0.7602 -0.0189  0.2424
 5843SOL    HW223138   6.268   1.343   5.563 -0.9475  0.1181  1.2056
 5843SOL    HW323139   6.167   1.446   5.516  1.5751  1.6300 -1.3072
 5843SOL    MW423140   6.226   1.385   5.498 -0.0102 -0.3622 -0.5444
 5844SOL     OW23141   3.171   1.150   2.117  0.1691 -0.0452 -0.6971
 5844SOL    HW223142   3.121   1.092   2.061  0.0821  0.2300 -0.9069
 5844SOL    HW323143   3.197   1.096   2.191 -0.2604 -0.2430 -0.6885
 5844SOL    MW423144   3.168   1.136   2.120  0.2949 -0.1263  0.5789
 5845SOL     OW23145   3.381   5.073   5.411 -0.0413 -0.0887 -0.0915
 5845SOL    HW223146   3.380   5.033   5.498  1.1878  0.3117  0.1426
 5845SOL    HW323147   3.333   5.013   5.355  2.1044 -2.1495  0.1438
 5845SOL    MW423148   3.375   5.060   5.415  0.5557  0.5075  0.0686
 5846SOL     OW23149   1.156   3.249   0.461 -0.3452 -0.2941 -0.0617
 5846SOL    HW223150   1.216   3.313   0.500 -1.9084  0.9351  0.4530
 5846SOL    HW323151   1.100   3.222   0.534 -0.3778 -1.4765 -0.5094
 5846SOL    MW423152   1.157   3.254   0.476 -0.4480 -0.0181  0.2910
 5847SOL     OW23153   4.871   0.218   3.581 -0.3021  0.2912  0.1457
 5847SOL    HW223154   4.941   0.164   3.545 -0.0866 -0.8353  2.1178
 5847SOL    HW323155   4.800   0.157   3.597 -1.1505  1.1383 -0.2939
 5847SOL    MW423156   4.871   0.203   3.578  0.5826  0.2119  0.6028
 5848SOL     OW23157   1.906   3.890   1.389  0.3858 -0.1062  0.1774
 5848SOL    HW223158   1.936   3.976   1.417  0.8052  0.0306 -0.6682
 5848SOL    HW323159   1.985   3.836   1.388 -0.0242 -0.7685  1.6266
 5848SOL    MW423160   1.920   3.894   1.392 -0.1568 -0.4125  0.1987
 5849SOL     OW23161   5.882   5.194   3.569  0.3879  0.5982 -0.1601
 5849SOL    HW223162   5.919   5.260   3.510  0.1451  1.3819  0.5432
 5849SOL    HW323163   5.939   5.198   3.647  0.6683 -0.3762 -0.3058
 5849SOL    MW423164   5.895   5.204   3.572  0.1869 -0.2921 -0.1777
 5850SOL     OW23165   0.124   4.860   3.826 -0.6081  0.0439 -0.3058
 5850SOL    HW223166   0.075   4.789   3.867  1.7608 -1.4251  0.1685
 5850SOL    HW323167   0.106   4.850   3.732 -1.3075 -0.3236 -0.1431
 5850SOL    MW423168   0.115   4.849   3.819  0.3466  0.0745 -0.4641
 5851SOL     OW23169   4.887   4.931   2.394  0.4473 -0.1730  0.0437
 5851SOL    HW223170   4.961   4.897   2.444  0.7159 -0.3847 -0.4918
 5851SOL    HW323171   4.834   4.977   2.459 -0.1342 -1.9143  0.8738
 5851SOL    MW423172   4.890   4.932   2.410 -0.0950 -0.6300 -0.2474
 5852SOL     OW23173   2.827   2.449   5.144  0.3692  0.2277  0.0345
 5852SOL    HW223174   2.759   2.445   5.211 -1.9394  3.1752 -1.8809
 5852SOL    HW323175   2.818   2.367   5.095 -0.4970 -0.2654  0.9877
 5852SOL    MW423176   2.817   2.437   5.146  0.1834 -0.2401  0.0760
 5853SOL     OW23177   4.133   4.521   2.619  0.1883  0.1880  0.4329
 5853SOL    HW223178   4.228   4.525   2.605  0.1858 -0.3339  0.2473
 5853SOL    HW323179   4.117   4.585   2.688  0.6365  0.4928  0.2627
 5853SOL    MW423180   4.144   4.530   2.626  0.3699 -0.1044 -0.1024
 5854SOL     OW23181   4.943   5.878   5.599 -0.3168 -0.8171 -1.1801
 5854SOL    HW223182   4.911   5.788   5.590 -1.3178 -0.8726  1.8867
 5854SOL    HW323183   4.870   5.926   5.638  0.9367  0.8032 -0.7164
 5854SOL    MW423184   4.929   5.872   5.603  0.2528  0.0798 -0.4143
 5855SOL     OW23185   0.913   4.175   5.173  0.0551 -0.3723 -0.0019
 5855SOL    HW223186   0.976   4.147   5.106  0.0610  0.7631 -0.4980
 5855SOL    HW323187   0.856   4.100   5.186  0.1280 -0.6530 -1.2176
 5855SOL    MW423188   0.914   4.162   5.166  0.7639 -0.5499  0.5156
 5856SOL     OW23189   3.205   3.145   5.755  0.5038  0.4590 -0.0180
 5856SOL    HW223190   3.175   3.208   5.819  0.1131 -0.2320  0.4944
 5856SOL    HW323191   3.129   3.090   5.737  1.2136 -0.8169  0.7009
 5856SOL    MW423192   3.191   3.146   5.761  0.3359  0.3237  0.5938
 5857SOL     OW23193   2.605   6.223   0.399 -0.0616 -0.2042 -0.3695
 5857SOL    HW223194   2.601   6.237   0.494 -0.4958 -1.8899 -0.1080
 5857SOL    HW323195   2.699   6.223   0.380  0.0395 -0.0316  0.0975
 5857SOL    MW423196   2.617   6.225   0.409 -0.0320  0.6182  0.5014
 5858SOL     OW23197   0.436   4.964   3.841  0.4438 -0.1451 -0.2163
 5858SOL    HW223198   0.487   4.969   3.922 -0.6572 -0.2964  0.5023
 5858SOL    HW323199   0.351   4.929   3.868 -0.8025  2.0833 -1.0288
 5858SOL    MW423200   0.432   4.960   3.855 -0.0409 -0.5477 -0.3147
 5859SOL     OW23201   4.808   4.661   2.140  0.0136 -0.4632 -0.3601
 5859SOL    HW223202   4.871   4.733   2.136 -1.0108  0.4112 -1.6092
 5859SOL    HW323203   4.793   4.647   2.233  2.1383 -0.8009 -0.0207
 5859SOL    MW423204   4.814   4.669   2.152  0.1619 -0.3115 -0.1199
 5860SOL     OW23205   1.127   0.867   5.689  0.2445  0.1090 -0.2310
 5860SOL    HW223206   1.187   0.880   5.763 -0.2289 -1.4650  0.4694
 5860SOL    HW323207   1.125   0.952   5.645  3.4907  0.1127 -0.6780
 5860SOL    MW423208   1.135   0.880   5.693 -0.5364  0.5199 -0.1752
 5861SOL     OW23209   6.263   5.189   1.008 -0.0639 -0.0388  0.4828
 5861SOL    HW223210   6.227   5.104   1.031  2.4108 -1.4156 -0.3761
 5861SOL    HW323211   6.186   5.242   0.985 -1.6015 -2.3386 -0.0044
 5861SOL    MW423212   6.248   5.185   1.008 -0.1378  0.3623  0.5565
 5862SOL     OW23213   0.445   4.266   2.167  0.4390 -0.0592  0.0162
 5862SOL    HW223214   0.458   4.262   2.262  3.2110 -1.6472 -0.3287
 5862SOL    HW323215   0.507   4.332   2.136 -0.9063  0.9330 -0.6894
 5862SOL    MW423216   0.455   4.274   2.175 -0.5092  0.1757  0.4921
 5863SOL     OW23217   1.540   4.565   4.228 -0.4830  0.0947 -0.6374
 5863SOL    HW223218   1.478   4.528   4.292  0.3085  0.6420  0.4831
 5863SOL    HW323219   1.597   4.492   4.205 -0.1051  0.1428  0.1166
 5863SOL    MW423220   1.539   4.550   4.233  0.6112  0.0509 -0.0595
 5864SOL     OW23221   2.654   4.350   3.282  0.9255  0.4995 -0.0133
 5864SOL    HW223222   2.629   4.259   3.268  0.9347  0.2663  1.3762
 5864SOL    HW323223   2.598   4.380   3.354 -2.4962  3.0802 -3.3643
 5864SOL    MW423224   2.643   4.342   3.290 -0.1434 -0.2827 -0.4670
 5865SOL     OW23225   2.953   4.656   1.722 -0.1917 -0.0193 -0.0402
 5865SOL    HW223226   2.895   4.728   1.746 -2.0494 -1.4463 -0.0103
 5865SOL    HW323227   2.981   4.618   1.805  1.1040  0.8578 -0.0461
 5865SOL    MW423228   2.949   4.661   1.736 -0.5820 -0.2726  0.0383
 5866SOL     OW23229   4.224   5.742   5.054  0.1566 -0.2185 -0.4403
 5866SOL    HW223230   4.168   5.721   5.128  0.0617  0.2417 -0.3824
 5866SOL    HW323231   4.303   5.689   5.068  0.1930 -0.0322  0.0573
 5866SOL    MW423232   4.227   5.732   5.066 -0.0775 -1.1486  0.2576
 5867SOL     OW23233   3.061   5.643   2.252  0.0276  0.3576  0.7219
 5867SOL    HW223234   3.010   5.721   2.229 -1.7566 -1.1917 -1.0058
 5867SOL    HW323235   3.058   5.589   2.173  1.4354 -1.3545  1.7664
 5867SOL    MW423236   3.054   5.646   2.238  0.0294 -0.2747  0.0892
 5868SOL     OW23237   2.338   1.217   1.823 -0.5257 -0.1343  0.2246
 5868SOL    HW223238   2.360   1.183   1.736  0.3922  0.8065  0.0644
 5868SOL    HW323239   2.283   1.150   1.862  1.2378 -1.8137 -0.0452
 5868SOL    MW423240   2.333   1.204   1.817 -0.2772  0.0608  0.3428
 5869SOL     OW23241   2.258   3.257   0.724 -0.4688 -0.3049  0.2559
 5869SOL    HW223242   2.165   3.273   0.736 -0.1789  1.3750  0.4907
 5869SOL    HW323243   2.278   3.185   0.783 -1.3805  0.1658  1.1571
 5869SOL    MW423244   2.249   3.250   0.733  0.5653 -0.1252 -0.2580
 5870SOL     OW23245   6.159   3.187   1.956 -0.3728 -0.5055 -0.4849
 5870SOL    HW223246   6.218   3.231   1.894 -0.8361 -1.8646 -1.9679
 5870SOL    HW323247   6.074   3.228   1.941 -0.3972 -0.5352 -0.4273
 5870SOL    MW423248   6.155   3.198   1.946  0.5388 -0.6696 -0.8143
 5871SOL     OW23249   1.102   0.131   0.140 -0.4018  0.0280  0.8569
 5871SOL    HW223250   1.124   0.054   0.192 -1.9453 -0.2825  1.1007
 5871SOL    HW323251   1.013   0.153   0.166 -0.0976  1.7451  0.5796
 5871SOL    MW423252   1.093   0.124   0.150 -0.2169  0.0821 -0.3238
 5872SOL     OW23253   1.306   0.410   3.014 -0.0895 -0.2219  0.0879
 5872SOL    HW223254   1.312   0.318   2.991 -0.2465 -0.3697  0.6318
 5872SOL    HW323255   1.391   0.432   3.052 -0.4431 -0.4403  1.0196
 5872SOL    MW423256   1.318   0.401   3.016  0.3780  0.5002 -0.2322
 5873SOL     OW23257   3.489   3.616   0.593  0.1271  0.5952 -0.1996
 5873SOL    HW223258   3.506   3.576   0.678  1.8921  0.6685 -0.4750
 5873SOL    HW323259   3.413   3.672   0.607 -3.0370 -3.3247  0.0435
 5873SOL    MW423260   3.481   3.618   0.606 -0.0053 -0.5790 -0.3077
 5874SOL     OW23261   5.602   0.457   5.056 -0.6883 -0.3165 -0.4595
 5874SOL    HW223262   5.578   0.442   4.965 -2.1789 -1.3074  0.0638
 5874SOL    HW323263   5.520   0.477   5.100  0.0188  0.2077  0.6631
 5874SOL    MW423264   5.588   0.457   5.050  0.0718  0.4632  0.0805
 5875SOL     OW23265   0.329   0.822   4.390  0.5339  0.3627 -0.3454
 5875SOL    HW223266   0.365   0.737   4.366 -0.9695 -0.2761 -0.4753
 5875SOL    HW323267   0.359   0.882   4.321  1.1492 -0.1832 -0.5556
 5875SOL    MW423268   0.338   0.819   4.378  0.3275  0.1092 -0.0930
 5876SOL     OW23269   0.890   3.127   3.468 -0.2264 -0.4631 -0.2958
 5876SOL    HW223270   0.957   3.156   3.407  1.1207 -0.5973  1.0480
 5876SOL    HW323271   0.903   3.032   3.475 -0.0128 -0.3841  0.5572
 5876SOL    MW423272   0.901   3.118   3.461 -0.0581  0.0150 -0.4256
 5877SOL     OW23273   3.726   2.736   3.633 -0.1989 -0.2011 -0.1622
 5877SOL    HW223274   3.756   2.798   3.700 -1.5100  0.2213  0.0627
 5877SOL    HW323275   3.729   2.651   3.676  1.1736 -0.2441 -0.3244
 5877SOL    MW423276   3.730   2.733   3.648 -0.0610  0.3047 -0.1615
 5878SOL     OW23277   3.981   2.935   6.067  0.0270 -0.1481 -0.1258
 5878SOL    HW223278   4.030   2.959   5.988 -1.2971 -0.8877 -1.2114
 5878SOL    HW323279   4.049   2.915   6.131  1.1472  0.4946 -1.0624
 5878SOL    MW423280   3.996   2.935   6.065 -0.0172 -0.0737  0.3538
 5879SOL     OW23281   3.653   5.757   3.222  0.3353 -1.0114 -0.2357
 5879SOL    HW223282   3.603   5.749   3.303  0.7857 -2.0113 -0.0433
 5879SOL    HW323283   3.718   5.687   3.227  2.3652  0.7785 -0.0496
 5879SOL    MW423284   3.655   5.747   3.233  0.3003 -0.1361  0.0726
 5880SOL     OW23285   4.896   1.522   3.970 -0.2516 -0.4993 -0.4737
 5880SOL    HW223286   4.848   1.558   4.044 -0.0243 -0.6777 -0.2387
 5880SOL    HW323287   4.972   1.479   4.009 -0.7983 -1.7162 -0.6929
 5880SOL    MW423288   4.900   1.521   3.985 -0.1162  0.3252 -0.0585
 5881SOL     OW23289   4.049   2.928   1.927 -0.7081 -0.6036  0.8492
 5881SOL    HW223290   3.998   2.986   1.869  1.8231  0.1902 -0.7656
 5881SOL    HW323291   4.040   2.967   2.014 -0.6555  1.1108  0.1268
 5881SOL    MW423292   4.041   2.941   1.931 -0.2384  0.0700 -0.0144
 5882SOL     OW23293   2.451   4.557   2.363  0.5069 -0.1950  0.1368
 5882SOL    HW223294   2.356   4.551   2.374  0.4204 -0.1833 -0.5623
 5882SOL    HW323295   2.463   4.571   2.269  1.0299  3.1878  0.5929
 5882SOL    MW423296   2.440   4.558   2.352 -0.1388 -0.1997 -0.0525
 5883SOL     OW23297   3.432   5.508   6.038  0.1062 -0.0711  0.0038
 5883SOL    HW223298   3.376   5.560   6.096  1.3455  0.8993  0.3724
 5883SOL    HW323299   3.484   5.453   6.097 -0.4238 -0.9545 -0.3342
 5883SOL    MW423300   3.431   5.507   6.053  0.5027  0.0172 -0.1938
 5884SOL     OW23301   4.725   6.160   0.019  0.5044  0.4267 -0.0590
 5884SOL    HW223302   4.807   6.207   0.032  0.7741  0.3497 -1.3630
 5884SOL    HW323303   4.752   6.073  -0.012 -0.0300 -0.1723  1.0675
 5884SOL    MW423304   4.739   6.155   0.017  0.0970 -0.8519  0.5756
 5885SOL     OW23305   3.503   2.657   0.952  0.5826  0.1942  0.0104
 5885SOL    HW223306   3.515   2.736   0.899  1.4342 -0.9297 -1.5760
 5885SOL    HW323307   3.457   2.596   0.894 -0.5902 -0.2874  1.4012
 5885SOL    MW423308   3.499   2.659   0.937 -0.3172  0.1092 -0.3410
 5886SOL     OW23309   2.648   5.284   5.489 -0.6024  0.1696  0.4304
 5886SOL    HW223310   2.700   5.324   5.419 -0.5704 -1.8202 -0.7559
 5886SOL    HW323311   2.560   5.319   5.477 -0.3515  0.6916  0.0845
 5886SOL    MW423312   2.643   5.294   5.478  0.1166  0.3467  0.1668
 5887SOL     OW23313   0.775   4.984   3.267 -0.2521  0.3069 -0.0645
 5887SOL    HW223314   0.769   4.962   3.174  1.2302 -0.6872  0.0401
 5887SOL    HW323315   0.756   4.903   3.312  2.3573 -0.1246  0.3969
 5887SOL    MW423316   0.771   4.971   3.260  0.4244 -0.1522 -1.0152
 5888SOL     OW23317   1.637   6.432   1.867 -0.1240 -0.3370  0.1368
 5888SOL    HW223318   1.601   6.344   1.854  2.1030 -1.5704  1.7121
 5888SOL    HW323319   1.621   6.450   1.960  0.1810  0.5751  0.0137
 5888SOL    MW423320   1.630   6.422   1.878 -0.2190 -0.4897  0.5021
 5889SOL     OW23321   2.356   3.068   4.725  0.4600 -0.3215 -0.5094
 5889SOL    HW223322   2.355   3.051   4.819  0.7835  0.3561 -0.3720
 5889SOL    HW323323   2.264   3.068   4.699  0.2686  0.9466  0.0940
 5889SOL    MW423324   2.344   3.066   4.734  0.0689 -0.7347 -0.0202
 5890SOL     OW23325   4.115   4.233   3.218 -0.7082 -0.7902  0.4238
 5890SOL    HW223326   4.075   4.264   3.137  0.9176  1.6382  0.4319
 5890SOL    HW323327   4.202   4.275   3.219 -1.0574  0.1446  3.8781
 5890SOL    MW423328   4.121   4.243   3.207  0.1022  0.1540  0.2335
 5891SOL     OW23329   1.248   5.035   6.023 -0.0898 -0.1172 -0.6598
 5891SOL    HW223330   1.268   5.060   5.933 -2.3230  0.9050 -0.9250
 5891SOL    HW323331   1.196   4.955   6.015 -0.3522  0.0139 -0.2841
 5891SOL    MW423332   1.244   5.027   6.010 -0.2290 -0.5537  0.6836
 5892SOL     OW23333   4.169   6.128   0.484  0.0194 -0.2535 -0.2956
 5892SOL    HW223334   4.175   6.033   0.473  0.6787 -0.3571  0.7954
 5892SOL    HW323335   4.151   6.139   0.578  2.3786  0.7681  0.0912
 5892SOL    MW423336   4.167   6.117   0.495  0.4795  0.0000  0.1934
 5893SOL     OW23337   0.696   3.808   1.521 -0.6830 -0.2954 -0.3264
 5893SOL    HW223338   0.788   3.819   1.547 -0.9056  0.1673  0.2948
 5893SOL    HW323339   0.648   3.807   1.603 -1.7123  3.9934 -0.6607
 5893SOL    MW423340   0.702   3.809   1.535  0.6571  0.0188  0.6222
 5894SOL     OW23341   4.345   4.792   5.393 -0.1650  0.2213 -0.2393
 5894SOL    HW223342   4.276   4.857   5.409 -0.7605 -0.1225 -1.3334
 5894SOL    HW323343   4.304   4.727   5.337  0.5890 -0.8327  0.3928
 5894SOL    MW423344   4.330   4.792   5.388  1.0725 -0.6292  0.2001
 5895SOL     OW23345   2.515   5.138   0.047  0.2239 -0.2988  0.1002
 5895SOL    HW223346   2.533   5.210  -0.013 -0.7796  0.4755  0.7211
 5895SOL    HW323347   2.552   5.061   0.002  1.1789  0.5509 -0.6305
 5895SOL    MW423348   2.523   5.137   0.033 -1.0363 -0.4108 -0.5147
 5896SOL     OW23349   1.093   4.563   2.265 -0.2592  0.1428 -0.0124
 5896SOL    HW223350   1.098   4.637   2.203 -0.2684  0.6406  0.5683
 5896SOL    HW323351   1.070   4.488   2.211 -0.6711  0.6515 -0.5555
 5896SOL    MW423352   1.091   4.563   2.250 -0.2878 -0.8250  0.1660
 5897SOL     OW23353   0.909   0.164   2.619 -0.3157  0.0946 -0.2375
 5897SOL    HW223354   0.920   0.073   2.646  1.5389  0.7083  1.3244
 5897SOL    HW323355   0.889   0.211   2.700 -0.3289  1.2156 -0.8651
 5897SOL    MW423356   0.908   0.158   2.633 -0.4362  0.2594 -0.3762
 5898SOL     OW23357   1.015   3.077   5.103 -0.1076 -0.3779  0.0991
 5898SOL    HW223358   1.090   3.027   5.070 -0.6955 -1.1143 -0.1364
 5898SOL    HW323359   1.031   3.167   5.074  1.4955 -0.1804  1.4056
 5898SOL    MW423360   1.027   3.083   5.095 -0.1124 -0.7179  0.3303
 5899SOL     OW23361   1.093   1.980   1.885  0.0383 -0.2392  0.0125
 5899SOL    HW223362   1.153   2.036   1.935  0.4008 -0.1182 -0.5420
 5899SOL    HW323363   1.034   1.943   1.951  0.2130  0.2759  0.4703
 5899SOL    MW423364   1.093   1.983   1.900 -0.3980  0.2326 -0.1449
 5900SOL     OW23365   4.790   2.705   4.539  0.2126  0.5739 -0.0482
 5900SOL    HW223366   4.756   2.745   4.620 -0.3057  0.6356 -0.2940
 5900SOL    HW323367   4.815   2.780   4.485  1.7415  0.5271  0.5363
 5900SOL    MW423368   4.789   2.720   4.543  0.5849 -0.4139  0.6896
 5901SOL     OW23369   6.276   5.222   1.566 -0.3706  0.5678  0.2420
 5901SOL    HW223370   6.295   5.231   1.473 -1.0532 -0.5796 -0.0342
 5901SOL    HW323371   6.180   5.228   1.571 -0.2438  2.4691  1.1169
 5901SOL    MW423372   6.266   5.224   1.554 -0.3148 -0.3913  0.0231
 5902SOL     OW23373   2.444   3.986   0.899 -0.3268  0.1346 -0.5171
 5902SOL    HW223374   2.509   3.975   0.967  0.2851  2.1232 -0.7301
 5902SOL    HW323375   2.492   4.022   0.825 -1.2481 -0.6156 -1.5204
 5902SOL    MW423376   2.459   3.989   0.898 -0.2248  0.5831  0.2871
 5903SOL     OW23377   2.105   4.905   1.828 -0.9954  0.1098  0.4335
 5903SOL    HW223378   2.112   4.996   1.857 -0.3739  0.4649 -0.7684
 5903SOL    HW323379   2.038   4.906   1.761  1.2471  0.3673 -1.9721
 5903SOL    MW423380   2.097   4.917   1.823 -0.8712 -0.1005  0.3047
 5904SOL     OW23381   0.762   2.538   3.219 -0.7346  0.3550  0.4958
 5904SOL    HW223382   0.798   2.504   3.137 -1.1834  0.8609  0.0791
 5904SOL    HW323383   0.732   2.626   3.197  1.9578  1.7381  1.9461
 5904SOL    MW423384   0.763   2.545   3.205  0.5792  0.1363 -0.0543
 5905SOL     OW23385   4.613   2.660   5.520 -0.6365 -0.5949  0.2447
 5905SOL    HW223386   4.565   2.742   5.531  0.4625  0.0294  0.5256
 5905SOL    HW323387   4.619   2.649   5.425 -1.7664 -0.9561  0.1994
 5905SOL    MW423388   4.607   2.670   5.509  0.5782 -0.0385  0.5379
 5906SOL     OW23389   3.868   1.541   1.632  0.5214 -0.2447 -0.0893
 5906SOL    HW223390   3.821   1.598   1.571  1.5638 -0.8287 -1.5088
 5906SOL    HW323391   3.846   1.575   1.718 -0.7642  0.8182 -0.7902
 5906SOL    MW423392   3.859   1.553   1.635  0.0171 -0.0660 -0.7650
 5907SOL     OW23393   3.730   5.097   4.074 -0.1646 -0.3679  0.0712
 5907SOL    HW223394   3.655   5.054   4.034 -0.7829 -1.0587  1.8614
 5907SOL    HW323395   3.711   5.190   4.069 -1.0124 -0.5257  0.2486
 5907SOL    MW423396   3.718   5.103   4.068  0.0812 -0.7387  0.1170
 5908SOL     OW23397   0.676   0.701   1.872  0.1316 -0.4003  0.8274
 5908SOL    HW223398   0.634   0.778   1.834  0.7629 -0.1729  0.5588
 5908SOL    HW323399   0.619   0.674   1.944 -0.6843 -0.3690  0.2040
 5908SOL    MW423400   0.663   0.708   1.876 -0.2955  0.1535  0.5167
 5909SOL     OW23401   2.092   0.889   3.883 -0.2884  0.4140 -0.1330
 5909SOL    HW223402   2.012   0.893   3.935  0.4042  1.4854  0.9054
 5909SOL    HW323403   2.099   0.975   3.842  0.7406  0.6260  0.4417
 5909SOL    MW423404   2.083   0.901   3.884 -0.2757  0.1406  0.0536
 5910SOL     OW23405   1.264   4.398   1.733  0.4203 -1.4565  0.6740
 5910SOL    HW223406   1.288   4.342   1.659  1.2141 -1.4264  0.8984
 5910SOL    HW323407   1.322   4.370   1.804  1.1143 -0.0779  0.6695
 5910SOL    MW423408   1.275   4.387   1.733 -0.0388  0.0254  0.2613
 5911SOL     OW23409   4.509   0.609   2.632 -0.7478 -0.2520 -0.1605
 5911SOL    HW223410   4.421   0.632   2.600 -0.9565 -1.4540 -0.4950
 5911SOL    HW323411   4.516   0.515   2.616  0.8882 -0.0412 -0.7968
 5911SOL    MW423412   4.498   0.600   2.626  0.1685 -0.7911 -0.0317
 5912SOL     OW23413   2.067   0.537   3.114  0.1550 -0.3784 -0.1293
 5912SOL    HW223414   2.163   0.539   3.114  0.1728 -0.9386 -0.3894
 5912SOL    HW323415   2.043   0.502   3.200  0.1395  1.0199  0.4492
 5912SOL    MW423416   2.077   0.532   3.125  0.0339 -0.0071  0.2669
 5913SOL     OW23417   4.382   0.849   4.009 -0.5770  0.1527  0.2489
 5913SOL    HW223418   4.369   0.868   4.102 -0.0819 -2.4913  0.9497
 5913SOL    HW323419   4.414   0.931   3.972  0.2992  0.9745  2.6251
 5913SOL    MW423420   4.384   0.862   4.017  0.0462 -0.0160 -0.4745
 5914SOL     OW23421   1.173   4.909   0.897  0.1218  0.0775 -0.1054
 5914SOL    HW223422   1.118   4.947   0.966  0.1956  1.6665 -0.8980
 5914SOL    HW323423   1.239   4.859   0.945 -1.0876 -0.6254  0.9074
 5914SOL    MW423424   1.174   4.907   0.913  0.5093  0.2053 -0.5098
 5915SOL     OW23425   1.269   0.547   5.568 -0.2803  0.1512 -0.4116
 5915SOL    HW223426   1.324   0.579   5.496 -0.5633  1.0436 -0.2422
 5915SOL    HW323427   1.181   0.581   5.549 -0.7190 -0.9709 -0.4982
 5915SOL    MW423428   1.264   0.556   5.556 -0.3508 -0.5595  0.4062
 5916SOL     OW23429   0.452   5.597   2.145  0.3157 -0.1226  0.3557
 5916SOL    HW223430   0.454   5.511   2.188 -3.0000  0.5033  2.0697
 5916SOL    HW323431   0.360   5.611   2.125  0.9742  2.4080 -1.3365
 5916SOL    MW423432   0.440   5.587   2.148 -0.1968  0.1334 -0.0214
 5917SOL     OW23433   5.501   6.455   1.323  0.3408 -0.1561  0.4010
 5917SOL    HW223434   5.579   6.495   1.285  0.9512 -0.6147  1.1600
 5917SOL    HW323435   5.526   6.364   1.339  0.0871  0.0230  1.8988
 5917SOL    MW423436   5.515   6.448   1.320 -0.0825 -0.0269 -0.6020
 5918SOL     OW23437   2.982   1.157   4.236 -0.3334 -0.5835  0.5142
 5918SOL    HW223438   2.977   1.209   4.316  0.8874  0.8519 -0.2824
 5918SOL    HW323439   3.002   1.068   4.265 -2.1471 -0.5989  1.9044
 5918SOL    MW423440   2.984   1.152   4.250 -0.6889 -0.3601  0.4203
 5919SOL     OW23441   5.257   5.975   6.344  0.0148  0.5555 -0.2594
 5919SOL    HW223442   5.298   5.965   6.429  0.3827  1.2985 -0.3386
 5919SOL    HW323443   5.329   5.972   6.281 -0.4349 -2.1931 -0.7736
 5919SOL    MW423444   5.272   5.974   6.347 -0.3912 -0.1495 -0.1451
 5920SOL     OW23445   2.384   6.308   1.067  0.0330  0.2069 -0.2628
 5920SOL    HW223446   2.400   6.343   0.980 -1.6637  0.3738 -0.5506
 5920SOL    HW323447   2.295   6.337   1.089 -0.6812 -2.1364  0.3293
 5920SOL    MW423448   2.374   6.316   1.058 -0.0836  0.2890  0.1493
 5921SOL     OW23449   5.086   1.909   4.593 -0.4454  0.3417 -0.0349
 5921SOL    HW223450   5.137   1.990   4.604 -0.0631  0.1014 -0.0277
 5921SOL    HW323451   5.037   1.923   4.512 -0.2361  0.5069 -0.1334
 5921SOL    MW423452   5.087   1.922   4.584 -0.1604 -0.1300 -0.3473
 5922SOL     OW23453   4.563   2.929   2.082 -0.1670 -0.0505  0.4846
 5922SOL    HW223454   4.532   2.857   2.137  1.5164 -0.2216  1.3012
 5922SOL    HW323455   4.613   2.886   2.012 -0.8769  0.2476 -0.2142
 5922SOL    MW423456   4.566   2.914   2.080  0.1057 -0.1090  0.8017
 5923SOL     OW23457   6.298   5.459   5.714 -0.0303 -0.4887  0.5745
 5923SOL    HW223458   6.243   5.460   5.636  0.3887  0.2171  0.2774
 5923SOL    HW323459   6.295   5.549   5.747  1.4800 -0.2513  0.1516
 5923SOL    MW423460   6.290   5.471   5.708  0.2405  0.1499 -0.1871
 5924SOL     OW23461   5.183   3.286   3.717  0.0202  0.0211  0.6268
 5924SOL    HW223462   5.161   3.287   3.623 -2.1192  1.8862  1.0407
 5924SOL    HW323463   5.121   3.225   3.756  0.7231 -0.5403  0.8837
 5924SOL    MW423464   5.172   3.278   3.709 -0.0265 -0.0001  0.6704
 5925SOL     OW23465   2.254   2.268   5.487 -0.4897 -0.2254 -0.1169
 5925SOL    HW223466   2.299   2.292   5.406 -0.5112  0.0968 -0.0351
 5925SOL    HW323467   2.161   2.263   5.463 -0.3096 -2.1015 -0.5747
 5925SOL    MW423468   2.247   2.271   5.473 -0.1256 -0.3220  1.0685
 5926SOL     OW23469   0.250   3.913   0.803  0.2903 -0.0411  0.6325
 5926SOL    HW223470   0.309   3.900   0.729 -1.1425 -0.3767 -0.5015
 5926SOL    HW323471   0.276   3.847   0.867  1.5321  0.2271  0.4266
 5926SOL    MW423472   0.261   3.903   0.802 -0.0052  0.3681 -0.1763
 5927SOL     OW23473   1.349   0.689   4.821 -0.3819  0.3431  0.4121
 5927SOL    HW223474   1.354   0.623   4.891  0.3105 -0.0933 -0.0324
 5927SOL    HW323475   1.308   0.642   4.748  0.1475  0.3945  0.0805
 5927SOL    MW423476   1.344   0.674   4.821 -0.0177  0.9096 -0.2587
 5928SOL     OW23477   5.438   3.673   0.216 -0.2372 -0.2081  0.2319
 5928SOL    HW223478   5.469   3.726   0.289  1.0251 -1.2209  0.4751
 5928SOL    HW323479   5.515   3.660   0.161 -1.1951  0.6339 -1.3833
 5928SOL    MW423480   5.452   3.678   0.218  0.2266  0.0299 -0.1914
 5929SOL     OW23481   0.891   6.459   3.790  0.4521  0.7084 -0.6121
 5929SOL    HW223482   0.944   6.414   3.725 -0.3243 -0.8474 -0.2349
 5929SOL    HW323483   0.928   6.430   3.874 -1.0871 -0.6222 -0.3405
 5929SOL    MW423484   0.903   6.449   3.793  0.0011  0.2647 -0.0567
 5930SOL     OW23485   1.547   3.490   4.002 -0.2967  0.2892  0.0363
 5930SOL    HW223486   1.607   3.493   4.076 -0.6260 -0.8287  0.3502
 5930SOL    HW323487   1.577   3.416   3.949 -1.2934 -0.1787  0.1095
 5930SOL    MW423488   1.559   3.481   4.005 -0.0939 -0.0255  0.0159
 5931SOL     OW23489   0.091   2.129   4.351 -0.3788  0.1436 -0.4182
 5931SOL    HW223490   0.008   2.145   4.396 -0.4614 -1.3200 -0.0250
 5931SOL    HW323491   0.073   2.149   4.260 -1.2390 -0.3896 -0.3713
 5931SOL    MW423492   0.078   2.134   4.345  0.1428  0.1812  0.2979
 5932SOL     OW23493   4.343   4.218   2.669 -0.1813  0.3432  0.0478
 5932SOL    HW223494   4.310   4.241   2.582 -1.6636  1.9856  0.9725
 5932SOL    HW323495   4.436   4.240   2.666 -0.5333  1.9117 -0.6814
 5932SOL    MW423496   4.350   4.224   2.657 -0.0793  0.1925  0.3563
 5933SOL     OW23497   3.098   4.638   3.070 -0.6919 -0.5793  0.5415
 5933SOL    HW223498   3.042   4.689   3.012  0.8660 -0.4917 -0.9673
 5933SOL    HW323499   3.052   4.556   3.083 -0.7915 -0.8818 -1.4245
 5933SOL    MW423500   3.085   4.634   3.064 -1.1971 -0.2570  0.2412
 5934SOL     OW23501   2.897   3.610   1.951  0.0651 -0.3245 -0.2012
 5934SOL    HW223502   2.834   3.560   2.002  1.2836 -0.4723  1.2191
 5934SOL    HW323503   2.891   3.572   1.863 -1.1634 -0.9348  0.1159
 5934SOL    MW423504   2.888   3.598   1.946  0.7632 -0.4569 -0.1402
 5935SOL     OW23505   5.537   1.849   3.457  0.0178  0.2326 -0.3742
 5935SOL    HW223506   5.513   1.837   3.365 -1.4739  0.2464 -0.0225
 5935SOL    HW323507   5.502   1.935   3.480 -1.6241 -0.6782  0.7635
 5935SOL    MW423508   5.529   1.859   3.448  0.1001  0.3024  0.0398
 5936SOL     OW23509   0.212   1.910   5.501  0.0600 -0.0379  0.3964
 5936SOL    HW223510   0.183   1.982   5.557  0.6982 -0.2203  0.9647
 5936SOL    HW323511   0.297   1.938   5.468  1.1333 -1.2440  2.0056
 5936SOL    MW423512   0.219   1.923   5.504  0.7385  0.4922 -0.4862
 5937SOL     OW23513   3.711   0.944   5.632 -0.2590 -0.3221 -0.1694
 5937SOL    HW223514   3.741   0.914   5.546  1.2861  0.0461  0.2145
 5937SOL    HW323515   3.641   1.006   5.612 -0.0958 -0.4322 -1.1519
 5937SOL    MW423516   3.706   0.948   5.618  0.3147 -0.0232  0.0197
 5938SOL     OW23517   3.900   4.816   5.949  0.4424 -0.3420 -0.6077
 5938SOL    HW223518   3.937   4.728   5.956  1.3185  0.1375  1.5075
 5938SOL    HW323519   3.974   4.875   5.963 -0.5296  0.6800  0.5050
 5938SOL    MW423520   3.915   4.812   5.952 -0.4425  0.1886  0.1149
 5939SOL     OW23521   1.100   0.670   1.854  0.1641 -0.4837 -0.0126
 5939SOL    HW223522   1.048   0.698   1.929 -0.4079  0.8558 -0.8718
 5939SOL    HW323523   1.152   0.597   1.887 -0.8721 -0.6377  1.3785
 5939SOL    MW423524   1.100   0.664   1.868 -0.2225  0.4122 -0.2266
 5940SOL     OW23525   2.529   4.277   2.445 -0.2446  0.3059  0.3288
 5940SOL    HW223526   2.505   4.352   2.390  1.9815  0.1989 -0.9000
 5940SOL    HW323527   2.612   4.247   2.410 -0.4476 -1.9850  1.6108
 5940SOL    MW423528   2.537   4.283   2.434 -0.2459 -0.2518 -0.9589
 5941SOL     OW23529   4.713   0.880   6.179  0.3157  0.1880 -0.2887
 5941SOL    HW223530   4.651   0.836   6.121 -0.3900 -0.2271  0.7340
 5941SOL    HW323531   4.760   0.808   6.221  0.4999  0.4651 -0.0215
 5941SOL    MW423532   4.711   0.865   6.177  0.4502 -0.5015  0.0968
 5942SOL     OW23533   3.230   1.804   4.045  0.0619 -0.1794 -0.3680
 5942SOL    HW223534   3.232   1.895   4.018 -0.3688  0.4919  1.7074
 5942SOL    HW323535   3.321   1.774   4.038  0.7301  1.2516  1.5193
 5942SOL    MW423536   3.242   1.812   4.040  0.7227  0.3510 -0.6315
 5943SOL     OW23537   3.492   4.259   0.369 -0.0078 -0.0640 -0.1231
 5943SOL    HW223538   3.488   4.331   0.307 -1.1839 -0.3129 -0.3487
 5943SOL    HW323539   3.545   4.192   0.325 -0.0822  0.1130 -0.4785
 5943SOL    MW423540   3.499   4.260   0.355  0.6833 -0.5149  0.2081
 5944SOL     OW23541   1.891   3.582   5.936  0.0545  0.7225  0.1209
 5944SOL    HW223542   1.986   3.574   5.926 -0.0369 -0.2725 -0.0328
 5944SOL    HW323543   1.879   3.604   6.028  0.4030  0.1502  0.3093
 5944SOL    MW423544   1.902   3.584   5.946  0.1020  0.4613  0.4147
 5945SOL     OW23545   2.887   3.292   5.654  0.0256  0.4860  0.2604
 5945SOL    HW223546   2.870   3.227   5.586  1.6976  0.0451  0.2017
 5945SOL    HW323547   2.818   3.278   5.718 -1.5637  0.8760 -1.2790
 5945SOL    MW423548   2.876   3.282   5.653  0.1990 -0.0690 -0.4747
 5946SOL     OW23549   5.704   6.395   2.930 -0.2956 -0.5439 -0.2540
 5946SOL    HW223550   5.741   6.355   3.009  1.5329 -0.9494 -1.2578
 5946SOL    HW323551   5.609   6.389   2.942 -0.0702 -0.9930  1.6919
 5946SOL    MW423552   5.697   6.389   2.942 -0.2973 -0.4757 -0.2536
 5947SOL     OW23553   4.256   6.448   5.021 -0.4054 -0.6005  0.5318
 5947SOL    HW223554   4.327   6.448   4.957 -0.9497  1.3582 -0.1230
 5947SOL    HW323555   4.217   6.361   5.013 -0.8296 -0.2445 -2.2444
 5947SOL    MW423556   4.261   6.436   5.012 -0.2128  0.0230 -0.3093
 5948SOL     OW23557   2.504   1.030   0.930  0.3565 -0.3627 -0.0099
 5948SOL    HW223558   2.561   0.992   0.997  0.0926 -0.3334  0.2344
 5948SOL    HW323559   2.520   1.124   0.935 -0.6924 -0.2080  0.9968
 5948SOL    MW423560   2.514   1.037   0.940  0.0974  0.5057 -0.4775
 5949SOL     OW23561   2.019   3.111   5.448 -0.6837 -0.6400  0.2662
 5949SOL    HW223562   2.077   3.179   5.483 -1.2272  0.2916 -0.5963
 5949SOL    HW323563   2.071   3.066   5.382 -0.7782 -0.1036 -0.1830
 5949SOL    MW423564   2.033   3.114   5.444  0.3693 -0.1153 -0.2356
 5950SOL     OW23565   6.320   3.885   0.770  0.0933  0.1537  0.3718
 5950SOL    HW223566   6.260   3.947   0.813 -0.4784 -0.7764  0.9659
 5950SOL    HW323567   6.326   3.812   0.832 -0.0260 -0.8189 -0.7308
 5950SOL    MW423568   6.313   3.884   0.784 -0.4543  0.0573 -0.0431
 5951SOL     OW23569   4.533   2.115   2.188 -0.1977 -0.5875 -0.0858
 5951SOL    HW223570   4.495   2.027   2.188 -0.6284 -0.5037  2.5751
 5951SOL    HW323571   4.596   2.113   2.260  0.8282  0.9073 -0.8925
 5951SOL    MW423572   4.536   2.103   2.198 -0.5818  0.7116 -0.2731
 5952SOL     OW23573   4.860   1.056   1.165  0.0938 -0.2412 -0.0849
 5952SOL    HW223574   4.883   1.053   1.258  1.9889 -0.6965 -0.5192
 5952SOL    HW323575   4.932   1.010   1.122 -0.7300  0.0118 -1.7894
 5952SOL    MW423576   4.873   1.050   1.172  0.0571  0.7690  0.5098
 5953SOL     OW23577   5.131   1.748   5.587 -0.4093 -0.8326  0.2765
 5953SOL    HW223578   5.040   1.721   5.574 -1.1637  2.0494 -1.2818
 5953SOL    HW323579   5.176   1.723   5.507 -0.9033  1.4117 -0.7824
 5953SOL    MW423580   5.125   1.741   5.575  1.2678  0.0962 -0.3022
 5954SOL     OW23581   3.325   1.303   3.901 -0.0273 -0.4774  0.2413
 5954SOL    HW223582   3.334   1.209   3.917 -1.8166 -0.5550  0.9520
 5954SOL    HW323583   3.280   1.337   3.978  1.5071  1.1766  0.4749
 5954SOL    MW423584   3.320   1.295   3.913  0.0744 -0.9280 -0.0390
 5955SOL     OW23585   2.467   4.221   4.926  0.3795 -0.2412  0.2596
 5955SOL    HW223586   2.446   4.135   4.961 -0.5357  0.6813  2.1225
 5955SOL    HW323587   2.406   4.281   4.970  2.6109  1.6848  0.9467
 5955SOL    MW423588   2.456   4.218   4.936 -0.0672 -0.0938  0.3035
 5956SOL     OW23589   2.854   0.519   1.543 -0.2890 -0.2607  0.2453
 5956SOL    HW223590   2.842   0.563   1.627 -2.2765 -1.6800  0.7713
 5956SOL    HW323591   2.947   0.494   1.542 -0.2652 -0.3662  2.0855
 5956SOL    MW423592   2.865   0.522   1.554  0.2915 -0.5065 -0.1321
 5957SOL     OW23593   0.503   5.665   5.736 -0.1478 -0.3790 -0.0787
 5957SOL    HW223594   0.545   5.627   5.659 -2.0447 -1.4833 -0.6484
 5957SOL    HW323595   0.484   5.590   5.792 -3.5088 -0.3745 -0.9941
 5957SOL    MW423596   0.506   5.650   5.733  0.2074  0.6342  0.0169
 5958SOL     OW23597   0.855   5.835   2.927 -0.5686  0.2668 -0.2499
 5958SOL    HW223598   0.832   5.790   3.008 -0.3547 -1.2191 -0.9648
 5958SOL    HW323599   0.775   5.833   2.874  0.0619 -1.4528 -1.2160
 5958SOL    MW423600   0.841   5.829   2.930  0.2049  0.2884 -0.2882
 5959SOL     OW23601   1.973   0.414   0.597 -0.4357  0.0195  0.0492
 5959SOL    HW223602   2.008   0.445   0.513  0.7079 -0.4573  0.3223
 5959SOL    HW323603   1.880   0.436   0.595 -0.0063  1.9903 -0.4433
 5959SOL    MW423604   1.966   0.421   0.586  0.4268 -0.6130  0.2972
 5960SOL     OW23605   3.822   1.527   3.706  0.0809 -0.0526  0.0546
 5960SOL    HW223606   3.753   1.472   3.670 -0.1629 -1.2190  2.1581
 5960SOL    HW323607   3.860   1.475   3.777  1.2726  1.6619  0.7395
 5960SOL    MW423608   3.818   1.513   3.711 -0.2933 -0.3036 -1.1240
 5961SOL     OW23609   2.641   1.715   1.573  0.6233  0.4734  0.3932
 5961SOL    HW223610   2.600   1.748   1.653 -3.2978  0.4154 -1.3835
 5961SOL    HW323611   2.654   1.622   1.589  1.3925  0.7366  1.4477
 5961SOL    MW423612   2.638   1.707   1.585 -0.1201 -0.1006  0.1687
 5962SOL     OW23613   0.193   0.372   3.024  0.1824  0.4299 -0.0839
 5962SOL    HW223614   0.218   0.455   2.984  0.9708  0.3486  0.2257
 5962SOL    HW323615   0.261   0.310   2.995 -0.4025 -0.1147 -0.3219
 5962SOL    MW423616   0.205   0.374   3.015  0.0527  0.1318 -0.4198
 5963SOL     OW23617   0.827   3.843   3.060  0.2904 -0.4923 -0.2424
 5963SOL    HW223618   0.838   3.793   3.141  0.4495 -0.7454 -0.4209
 5963SOL    HW323619   0.735   3.868   3.060  0.6189  0.8708  0.8172
 5963SOL    MW423620   0.817   3.840   3.071  0.1616  0.1156 -0.1126
 5964SOL     OW23621   0.603   3.022   4.981  0.0740 -0.0757  0.0335
 5964SOL    HW223622   0.688   2.992   4.947  0.6385  0.8035  0.6307
 5964SOL    HW323623   0.600   3.115   4.961  0.0470  0.2872  1.5799
 5964SOL    MW423624   0.614   3.030   4.974  0.6308  0.3269  0.2751
 5965SOL     OW23625   1.223   4.316   4.254  0.0698 -0.4009  0.1011
 5965SOL    HW223626   1.134   4.285   4.269 -0.2300 -0.0487 -0.8673
 5965SOL    HW323627   1.273   4.236   4.235 -0.3234 -0.4840 -0.6245
 5965SOL    MW423628   1.218   4.301   4.253 -0.0233  0.0074 -0.1695
 5966SOL     OW23629   2.182   3.747   3.299  0.0776 -0.4084  0.1890
 5966SOL    HW223630   2.265   3.791   3.313 -0.9621  2.1988 -1.1976
 5966SOL    HW323631   2.180   3.677   3.365  2.1487  1.1686  2.0626
 5966SOL    MW423632   2.192   3.743   3.310 -0.3539 -0.3125 -0.3016
 5967SOL     OW23633   3.268   2.030   1.455  0.2083 -0.8181 -0.2413
 5967SOL    HW223634   3.324   2.071   1.520 -0.9428 -0.5289  0.6091
 5967SOL    HW323635   3.320   2.027   1.376  2.2258 -2.5221  1.0294
 5967SOL    MW423636   3.282   2.035   1.454 -0.0353 -0.0437  0.2446
 5968SOL     OW23637   5.428   5.739   5.309 -0.0738  0.0127  0.4484
 5968SOL    HW223638   5.409   5.655   5.268  1.2012  0.4270 -1.0558
 5968SOL    HW323639   5.511   5.725   5.355 -0.7777 -0.0397  1.7630
 5968SOL    MW423640   5.436   5.726   5.310  0.0117 -0.3193  0.7297
 5969SOL     OW23641   2.114   3.892   5.855  0.5256  0.0350  0.2367
 5969SOL    HW223642   2.130   3.981   5.824 -0.1456  0.6923  1.6549
 5969SOL    HW323643   2.083   3.844   5.778  0.1991  1.2240 -0.3922
 5969SOL    MW423644   2.112   3.897   5.841 -0.2309  0.1392 -0.0726
 5970SOL     OW23645   4.189   2.420   5.355  0.7068  0.4747  0.5685
 5970SOL    HW223646   4.096   2.398   5.348  0.3548  1.0793  2.6870
 5970SOL    HW323647   4.202   2.492   5.294 -0.0903  0.0994 -0.0671
 5970SOL    MW423648   4.178   2.426   5.346 -0.4304  0.3416  0.1349
 5971SOL     OW23649   1.903   2.613   1.264  0.0237 -0.2745  0.3949
 5971SOL    HW223650   1.882   2.697   1.224  1.2128 -0.1912 -0.0954
 5971SOL    HW323651   1.968   2.634   1.331  0.4211 -0.8052  0.1830
 5971SOL    MW423652   1.909   2.627   1.267 -0.2300 -0.1051  0.1497
 5972SOL     OW23653   1.744   5.721   2.540  0.0171 -0.4516 -0.4529
 5972SOL    HW223654   1.708   5.658   2.602  2.1917 -0.9836  0.3549
 5972SOL    HW323655   1.702   5.804   2.562  0.0138 -0.8437  1.0808
 5972SOL    MW423656   1.734   5.724   2.551  0.1289  0.4568  0.4423
 5973SOL     OW23657   2.927   2.304   2.789  0.1096 -0.2070 -0.0421
 5973SOL    HW223658   2.915   2.305   2.884 -0.6141  0.6348 -0.1209
 5973SOL    HW323659   2.997   2.241   2.774 -0.0891 -0.7059  1.0084
 5973SOL    MW423660   2.935   2.296   2.800 -0.2206  0.0039  0.3779
 5974SOL     OW23661   2.758   3.190   3.206 -0.3850 -0.2784  0.4338
 5974SOL    HW223662   2.775   3.259   3.142 -1.5527  1.0754  1.5072
 5974SOL    HW323663   2.777   3.231   3.291 -1.7101 -1.0549  1.1375
 5974SOL    MW423664   2.763   3.204   3.209 -0.2984 -0.2416 -0.0880
 5975SOL     OW23665   4.733   4.649   2.997 -0.5632  0.1405  0.2161
 5975SOL    HW223666   4.689   4.728   2.966  0.0061 -0.3422 -2.0660
 5975SOL    HW323667   4.826   4.670   2.995 -0.3766 -0.6384 -0.7792
 5975SOL    MW423668   4.739   4.662   2.993  0.2724  0.2718  0.0038
 5976SOL     OW23669   3.263   3.142   3.917  0.2881 -0.6117  0.4097
 5976SOL    HW223670   3.287   3.212   3.855 -0.6146 -0.3870  0.3008
 5976SOL    HW323671   3.340   3.133   3.973  0.2392  0.8444  0.7605
 5976SOL    MW423672   3.276   3.150   3.916  0.2849  0.0561  0.1834
 5977SOL     OW23673   5.128   0.333   1.805  0.1217 -0.1911  0.7623
 5977SOL    HW223674   5.222   0.352   1.799  0.0435 -0.1970 -1.4923
 5977SOL    HW323675   5.114   0.262   1.742 -1.5737  0.7002  0.0569
 5977SOL    MW423676   5.138   0.326   1.796 -0.3782  1.1047  0.0983
 5978SOL     OW23677   2.022   5.220   0.142 -0.1412 -0.4019 -0.0316
 5978SOL    HW223678   1.951   5.215   0.078  0.5919  1.3263 -1.0212
 5978SOL    HW323679   2.097   5.253   0.093  1.7499 -3.2343  0.7082
 5978SOL    MW423680   2.022   5.223   0.127  0.5509 -0.2185 -0.4578
 5979SOL     OW23681   3.019   3.581   5.343 -0.2322  0.2573  0.2783
 5979SOL    HW223682   3.016   3.568   5.438  1.4698  1.0734  0.4960
 5979SOL    HW323683   3.096   3.532   5.315 -0.4581  0.3947 -0.6035
 5979SOL    MW423684   3.029   3.573   5.352  0.1320 -0.1698 -0.3606
 5980SOL     OW23685   5.079   5.132   5.761  0.1168 -0.4264 -0.6811
 5980SOL    HW223686   5.066   5.084   5.843  0.1633 -0.2275 -0.5591
 5980SOL    HW323687   5.173   5.148   5.757 -0.0804  1.1456  0.1144
 5980SOL    MW423688   5.089   5.127   5.771  0.4357  0.4012 -0.3248
 5981SOL     OW23689   2.800   2.652   5.502 -0.1900 -0.0733 -0.1434
 5981SOL    HW223690   2.786   2.559   5.482  0.8306  0.0056 -1.3577
 5981SOL    HW323691   2.729   2.697   5.455  1.4232  0.0003 -2.7357
 5981SOL    MW423692   2.789   2.646   5.493  0.1844 -0.3014 -0.5998
 5982SOL     OW23693   3.899   2.781   2.645 -0.3206  0.0484 -0.4185
 5982SOL    HW223694   3.942   2.752   2.725 -0.4212  0.3087 -0.2705
 5982SOL    HW323695   3.900   2.704   2.588  0.1762  0.0039 -0.3468
 5982SOL    MW423696   3.905   2.767   2.648 -0.1603  0.3949  0.0325
 5983SOL     OW23697   4.554   0.781   1.642 -0.1030  0.4432  0.3796
 5983SOL    HW223698   4.575   0.817   1.556 -1.5345  2.6223  0.8576
 5983SOL    HW323699   4.497   0.706   1.624 -0.2936  0.8068 -0.5787
 5983SOL    MW423700   4.549   0.776   1.629 -0.4165 -0.2882  0.0440
 5984SOL     OW23701   2.797   4.123   4.174  0.1557  0.2194 -0.2834
 5984SOL    HW223702   2.712   4.137   4.133 -0.3919 -1.0297  0.3646
 5984SOL    HW323703   2.854   4.189   4.134 -1.2442  1.5002 -0.2739
 5984SOL    MW423704   2.793   4.134   4.163  0.0052 -0.2052  0.7597
 5985SOL     OW23705   4.486   0.294   3.327 -0.1721  0.3825 -0.6025
 5985SOL    HW223706   4.529   0.367   3.372 -0.6018  0.9219 -1.0523
 5985SOL    HW323707   4.475   0.324   3.237  2.1430 -1.2877 -1.5298
 5985SOL    MW423708   4.490   0.308   3.321  0.2402  1.0875  0.5739
 5986SOL     OW23709   4.306   1.808   1.744 -0.0782 -0.3125 -0.5869
 5986SOL    HW223710   4.257   1.878   1.702 -0.2334  0.1165  0.2963
 5986SOL    HW323711   4.337   1.754   1.671 -1.3540 -0.2644 -1.1934
 5986SOL    MW423712   4.304   1.810   1.729  0.3321  0.1938  0.7036
 5987SOL     OW23713   4.415   6.464   4.121  0.3426  0.3848  0.5640
 5987SOL    HW223714   4.497   6.440   4.077 -0.0328  1.5585 -0.8601
 5987SOL    HW323715   4.393   6.550   4.084 -2.1167 -0.4077  0.0709
 5987SOL    MW423716   4.423   6.472   4.110  0.1486  0.1010  0.7171
 5988SOL     OW23717   3.199   1.297   1.683 -0.4539  0.4370 -0.5947
 5988SOL    HW223718   3.144   1.273   1.608 -0.0764 -2.4691 -0.0512
 5988SOL    HW323719   3.267   1.230   1.685 -0.8760 -0.0356  2.7683
 5988SOL    MW423720   3.200   1.285   1.673  0.3148 -0.3623  0.6511
 5989SOL     OW23721   3.469   0.602   3.208  0.2096  0.1573 -0.0716
 5989SOL    HW223722   3.535   0.649   3.156  0.8126 -0.2007  0.3531
 5989SOL    HW323723   3.458   0.656   3.287 -1.6551  1.3817 -1.1022
 5989SOL    MW423724   3.476   0.615   3.212 -0.1234 -0.0684  0.1184
 5990SOL     OW23725   6.265   0.343   2.200  0.1577 -0.5338 -0.4184
 5990SOL    HW223726   6.301   0.400   2.268  0.0411 -0.7111 -0.2025
 5990SOL    HW323727   6.224   0.403   2.137  0.2572 -0.3677 -0.3250
 5990SOL    MW423728   6.264   0.358   2.201 -0.0139  0.5383  0.2153
 5991SOL     OW23729   5.119   0.613   2.584 -0.0708  0.5921 -0.0743
 5991SOL    HW223730   5.069   0.531   2.581  1.1470 -0.1511 -0.8821
 5991SOL    HW323731   5.210   0.585   2.582  0.3788  1.9546  0.4357
 5991SOL    MW423732   5.124   0.598   2.583  0.6214  0.3871 -0.3050
 5992SOL     OW23733   2.717   0.239   2.089 -0.5315  0.0082 -0.0062
 5992SOL    HW223734   2.633   0.217   2.129 -1.1983  2.1667 -0.0761
 5992SOL    HW323735   2.716   0.196   2.004 -0.9467 -1.1374  0.5706
 5992SOL    MW423736   2.706   0.231   2.083  0.4209 -0.3075 -1.0073
 5993SOL     OW23737   3.300   1.992   1.176  0.0437  0.1370 -0.6050
 5993SOL    HW223738   3.329   1.990   1.085 -1.0062 -1.2049 -0.9233
 5993SOL    HW323739   3.229   2.056   1.178  1.0241  1.2641 -0.4001
 5993SOL    MW423740   3.295   2.000   1.165 -0.0382  0.4297 -0.2806
 5994SOL     OW23741   4.225   0.619   3.272  0.1243  0.2461  0.7304
 5994SOL    HW223742   4.212   0.539   3.322  2.5594 -1.0428 -0.5363
 5994SOL    HW323743   4.290   0.668   3.322  0.9022 -0.0008 -0.0316
 5994SOL    MW423744   4.232   0.615   3.285  1.0870  0.0151 -0.3284
 5995SOL     OW23745   4.202   5.909   3.564  0.1658 -0.6091 -0.1269
 5995SOL    HW223746   4.122   5.903   3.617 -0.1194  0.3480 -0.4208
 5995SOL    HW323747   4.176   5.961   3.488  1.2812  0.4831  0.2115
 5995SOL    MW423748   4.188   5.915   3.561 -1.1067  0.3764  0.2178
 5996SOL     OW23749   0.710   1.766   1.830  0.0811  0.3784 -0.2461
 5996SOL    HW223750   0.668   1.752   1.914 -1.0065  1.7191 -0.5251
 5996SOL    HW323751   0.686   1.690   1.777  1.1494 -0.6922  0.7678
 5996SOL    MW423752   0.701   1.754   1.834  0.2320  0.0130  0.2534
 5997SOL     OW23753   3.376   4.451   5.489  0.3508  0.4705  0.3123
 5997SOL    HW223754   3.283   4.433   5.480  0.6505 -0.4021 -1.7083
 5997SOL    HW323755   3.382   4.545   5.505 -0.8889  0.3544  1.6724
 5997SOL    MW423756   3.365   4.461   5.490 -0.3756  0.0494 -0.2923
 5998SOL     OW23757   3.568   0.766   2.316 -0.1564 -0.5465 -0.1838
 5998SOL    HW223758   3.662   0.769   2.301 -0.4110 -1.0701 -2.2663
 5998SOL    HW323759   3.558   0.736   2.406  1.6493 -0.9441 -0.0895
 5998SOL    MW423760   3.579   0.763   2.326 -0.1385 -0.2828  0.0475
 5999SOL     OW23761   1.853   1.557   1.572 -0.1275 -0.3683 -0.4114
 5999SOL    HW223762   1.831   1.623   1.506  0.0861  1.0219  0.8412
 5999SOL    HW323763   1.935   1.519   1.541  0.9172  1.5182 -0.1120
 5999SOL    MW423764   1.861   1.561   1.559  0.3073 -0.0348  0.2937
 6000SOL     OW23765   4.885   3.709   3.859  0.4141 -0.0611  0.5035
 6000SOL    HW223766   4.891   3.616   3.837 -0.6532 -0.3947  1.5132
 6000SOL    HW323767   4.828   3.746   3.793  1.0498 -0.0549 -0.0559
 6000SOL    MW423768   4.878   3.702   3.847  0.5121 -0.2510  0.0306
 6001SOL     OW23769   0.981   2.275   6.152  0.1730  0.2536 -0.7828
 6001SOL    HW223770   1.056   2.332   6.138  0.5733  0.1217  0.6725
 6001SOL    HW323771   0.990   2.244   6.242  0.1877 -2.4219 -1.6150
 6001SOL    MW423772   0.992   2.278   6.162  0.2118 -0.1348 -0.0394
 6002SOL     OW23773   1.305   0.552   0.034 -0.4013  0.6952 -0.2624
 6002SOL    HW223774   1.301   0.467   0.078 -2.2123  0.7351 -0.2989
 6002SOL    HW323775   1.320   0.530  -0.058  2.4619  0.5815  0.1457
 6002SOL    MW423776   1.307   0.538   0.028 -0.0624 -1.0334 -0.6292
 6003SOL     OW23777   3.759   2.715   5.507  0.5401  0.3397 -0.2063
 6003SOL    HW223778   3.716   2.746   5.588 -1.1562 -0.0582 -0.9069
 6003SOL    HW323779   3.843   2.681   5.536  1.1878  2.7464  1.0241
 6003SOL    MW423780   3.764   2.715   5.522  0.1451  0.6626 -0.2037
 6004SOL     OW23781   1.390   3.171   1.131 -0.0961 -0.7906  0.0571
 6004SOL    HW223782   1.296   3.174   1.150 -0.0055 -0.3936  0.4553
 6004SOL    HW323783   1.429   3.138   1.212  0.2548  0.5387  0.4415
 6004SOL    MW423784   1.382   3.167   1.144 -0.0557 -0.1875  0.6148
 6005SOL     OW23785   3.733   0.493   5.035  0.0712 -0.4220 -0.1614
 6005SOL    HW223786   3.704   0.526   4.950  0.9015 -2.2177 -1.1853
 6005SOL    HW323787   3.828   0.489   5.028  0.2227  0.1509  1.1674
 6005SOL    MW423788   3.741   0.497   5.023 -0.3386 -0.0837  0.2270
 6006SOL     OW23789   3.412   3.846   4.554 -0.2605  0.0497 -0.4951
 6006SOL    HW223790   3.480   3.904   4.588 -1.1138  1.6530 -1.4156
 6006SOL    HW323791   3.408   3.865   4.461 -1.6739 -0.3164 -0.5393
 6006SOL    MW423792   3.420   3.856   4.546  0.4090 -0.2872 -0.1072
 6007SOL     OW23793   2.333   6.214   0.695 -0.6197  0.2758 -0.1903
 6007SOL    HW223794   2.279   6.220   0.617 -1.3175 -0.2121  0.2420
 6007SOL    HW323795   2.271   6.200   0.766  0.1310 -1.6743  0.1563
 6007SOL    MW423796   2.318   6.213   0.694 -0.4085 -0.7322  0.6871
 6008SOL     OW23797   0.819   5.028   5.097  0.2698 -0.6111  0.5031
 6008SOL    HW223798   0.809   4.966   5.169  0.1812  1.2658  2.2069
 6008SOL    HW323799   0.895   5.081   5.122  1.0168 -0.6965 -1.4312
 6008SOL    MW423800   0.828   5.027   5.110  0.4476  0.4180 -0.1313
 6009SOL     OW23801   4.100   5.184   1.002  0.5962 -0.0514  0.6421
 6009SOL    HW223802   4.068   5.125   1.071 -1.2154  0.6242  0.4309
 6009SOL    HW323803   4.090   5.272   1.039 -0.6019  0.3371 -0.5276
 6009SOL    MW423804   4.095   5.188   1.016 -0.2972  0.7709  0.2797
 6010SOL     OW23805   4.893   0.302   1.956  0.2217 -0.4357 -0.0467
 6010SOL    HW223806   4.876   0.208   1.969  0.6605 -0.3714  1.1100
 6010SOL    HW323807   4.965   0.305   1.892  1.0339 -0.9429  0.8151
 6010SOL    MW423808   4.901   0.290   1.949  0.4529 -0.3367 -0.2252
 6011SOL     OW23809   4.595   3.857   3.018  0.2575 -0.3819  0.5118
 6011SOL    HW223810   4.505   3.878   3.042 -0.2245  0.4160 -1.7227
 6011SOL    HW323811   4.591   3.769   2.980  0.3410 -0.2243  0.1269
 6011SOL    MW423812   4.583   3.849   3.016  0.5404  0.2982  0.2630
 6012SOL     OW23813   5.008   4.511   4.432  0.3023  0.2580  0.0848
 6012SOL    HW223814   5.003   4.531   4.338  3.0006 -2.7902 -0.8612
 6012SOL    HW323815   4.934   4.452   4.447  1.2574 -1.2094 -0.7740
 6012SOL    MW423816   4.997   4.506   4.421 -0.0812 -0.5577 -0.0769
 6013SOL     OW23817   3.472   5.190   5.928 -0.2450 -0.1127 -0.1254
 6013SOL    HW223818   3.511   5.209   6.014 -0.6997 -1.5570  0.4305
 6013SOL    HW323819   3.529   5.123   5.890 -0.9011 -0.6155 -0.2602
 6013SOL    MW423820   3.485   5.184   5.935  0.7856  0.3066  0.3252
 6014SOL     OW23821   1.075   5.690   1.827  0.2116  0.3322  0.0174
 6014SOL    HW223822   1.073   5.604   1.870  2.1845 -0.5369 -1.4772
 6014SOL    HW323823   1.127   5.745   1.886  0.4534 -0.0241  0.1389
 6014SOL    MW423824   1.082   5.686   1.841  0.0163 -0.0283 -0.5177
 6015SOL     OW23825   5.406   0.077   4.058 -0.4538 -0.4913 -0.1598
 6015SOL    HW223826   5.376   0.100   3.970 -0.5760  0.7143  0.1867
 6015SOL    HW323827   5.327   0.044   4.101 -0.8584  0.7390  0.0932
 6015SOL    MW423828   5.392   0.076   4.052 -0.0424  0.4574  0.3440
 6016SOL     OW23829   0.284   2.080   4.715 -0.0523 -0.3237  0.5940
 6016SOL    HW223830   0.333   2.128   4.782  0.8584  1.0098 -0.9664
 6016SOL    HW323831   0.200   2.059   4.758  0.4780  0.5159  2.1264
 6016SOL    MW423832   0.279   2.084   4.730 -0.2013 -0.1284 -0.1733
 6017SOL     OW23833   0.386   5.243   5.047 -0.3479  0.2024 -0.6228
 6017SOL    HW223834   0.467   5.217   5.004  0.4598  1.3515  0.1475
 6017SOL    HW323835   0.335   5.287   4.979  0.3384  0.8295 -0.7319
 6017SOL    MW423836   0.390   5.245   5.032 -0.3618 -0.1343 -0.1702
 6018SOL     OW23837   5.127   4.685   1.264  0.2707 -0.6573  0.3747
 6018SOL    HW223838   5.037   4.653   1.253  0.9885 -2.4836 -0.6532
 6018SOL    HW323839   5.178   4.606   1.282  1.8899  0.1601 -0.4637
 6018SOL    MW423840   5.122   4.671   1.265 -0.4724  0.3927  0.5763
 6019SOL     OW23841   0.197   4.135   3.408 -0.2007  0.6775 -0.5943
 6019SOL    HW223842   0.108   4.171   3.409 -0.1615  0.7745 -0.5755
 6019SOL    HW323843   0.196   4.066   3.474 -0.0163  1.2725  0.0548
 6019SOL    MW423844   0.185   4.131   3.417  0.6443  1.1332  0.1876
 6020SOL     OW23845   6.118   4.029   2.243  0.3606 -0.4163  0.3401
 6020SOL    HW223846   6.185   4.024   2.175 -0.1443 -1.3921 -0.1009
 6020SOL    HW323847   6.129   3.950   2.295 -0.2092 -0.4010  0.4975
 6020SOL    MW423848   6.128   4.018   2.241 -0.0030 -0.0144  0.0069
 6021SOL     OW23849   6.197   6.193   2.992 -0.2523 -0.1858  0.6391
 6021SOL    HW223850   6.199   6.283   3.025 -1.0503 -0.0455  0.3288
 6021SOL    HW323851   6.217   6.202   2.899  1.2888 -0.5072  0.9205
 6021SOL    MW423852   6.200   6.206   2.984 -0.2264  0.2325  0.0115
 6022SOL     OW23853   2.762   5.283   1.766  0.6644 -0.0651 -0.1584
 6022SOL    HW223854   2.696   5.214   1.775  0.8930 -0.2054  0.5472
 6022SOL    HW323855   2.715   5.363   1.789  0.5130 -0.0413 -0.5425
 6022SOL    MW423856   2.747   5.284   1.770 -0.2577 -0.5249 -0.5097
 6023SOL     OW23857   0.235   5.725   1.160 -0.6184 -0.0823  0.1104
 6023SOL    HW223858   0.154   5.753   1.202 -0.4906  1.4258 -0.5953
 6023SOL    HW323859   0.211   5.644   1.115 -1.1833 -0.7901  1.5962
 6023SOL    MW423860   0.221   5.718   1.160  0.8258  0.1635  0.0257
 6024SOL     OW23861   5.185   0.738   5.395  0.8276 -0.2990  0.0353
 6024SOL    HW223862   5.210   0.800   5.464  0.7654 -0.8917  0.5923
 6024SOL    HW323863   5.095   0.763   5.373  0.7511 -0.2784  0.3589
 6024SOL    MW423864   5.177   0.750   5.401 -0.4539 -0.3661  0.6019
 6025SOL     OW23865   1.299   5.067   6.290  0.3544  0.4670  0.2805
 6025SOL    HW223866   1.356   5.143   6.279 -0.5248  1.0250 -0.6875
 6025SOL    HW323867   1.266   5.049   6.202 -1.0651  0.2593  0.8263
 6025SOL    MW423868   1.302   5.075   6.277  0.1146  0.3024  0.2197
 6026SOL     OW23869   0.283   4.634   0.237 -0.4612 -0.5975 -0.2496
 6026SOL    HW223870   0.324   4.680   0.163  1.1500 -0.4518  0.6835
 6026SOL    HW323871   0.328   4.549   0.240  1.2060  0.2598  1.9174
 6026SOL    MW423872   0.294   4.629   0.227  0.2724  0.3825 -0.1210
 6027SOL     OW23873   0.791   1.418   5.183  0.5118  0.0533 -0.2155
 6027SOL    HW223874   0.790   1.365   5.103  1.6060 -1.1896  0.5489
 6027SOL    HW323875   0.873   1.395   5.226 -0.2485  0.3487  1.4729
 6027SOL    MW423876   0.801   1.408   5.178  0.2410 -0.1336 -0.2664
 6028SOL     OW23877   4.234   3.690   2.962 -0.6048 -0.4296  0.4643
 6028SOL    HW223878   4.245   3.726   3.050  0.1835 -0.6421  0.4592
 6028SOL    HW323879   4.197   3.762   2.911  1.5993  0.6446  0.2768
 6028SOL    MW423880   4.230   3.704   2.967  0.9590 -0.7233 -0.3588
 6029SOL     OW23881   4.527   3.787   4.556 -0.3809  0.3610  0.4843
 6029SOL    HW223882   4.611   3.771   4.513  0.1178  0.7337  1.2983
 6029SOL    HW323883   4.471   3.823   4.486 -0.3323 -1.2157 -0.4058
 6029SOL    MW423884   4.530   3.790   4.541 -0.5177 -0.2916 -0.3584
 6030SOL     OW23885   6.198   3.486   0.116  0.0167  0.4098 -0.0905
 6030SOL    HW223886   6.125   3.488   0.179 -0.2831  0.9274 -0.4473
 6030SOL    HW323887   6.273   3.459   0.168 -0.6429 -1.2351  0.0642
 6030SOL    MW423888   6.198   3.483   0.131  0.1105  0.0509 -0.0911
 6031SOL     OW23889   4.181   0.139   2.128  0.2142 -0.3287 -0.0951
 6031SOL    HW223890   4.194   0.152   2.222  1.2461  1.5845 -0.4332
 6031SOL    HW323891   4.189   0.045   2.115  0.4381 -0.5878  1.6798
 6031SOL    MW423892   4.184   0.128   2.139  0.1725  0.2563 -0.5078
 6032SOL     OW23893   2.800   0.946   1.511 -0.6123  0.0038 -0.1007
 6032SOL    HW223894   2.708   0.924   1.523 -0.9707  0.4423 -1.8992
 6032SOL    HW323895   2.802   1.006   1.437  1.0839  0.3568  0.1875
 6032SOL    MW423896   2.788   0.951   1.503 -0.0579 -0.4599 -0.1372
 6033SOL     OW23897   3.899   2.333   4.273  0.0418 -0.2367 -0.2156
 6033SOL    HW223898   3.917   2.372   4.187 -0.1800  0.2851 -0.0280
 6033SOL    HW323899   3.978   2.284   4.294  0.0485 -0.4791 -0.7800
 6033SOL    MW423900   3.912   2.332   4.264 -0.0369  0.0407  0.4234
 6034SOL     OW23901   0.168   3.150   2.356 -0.4178 -0.1304  0.3939
 6034SOL    HW223902   0.132   3.219   2.300  0.1846 -1.2882 -1.5498
 6034SOL    HW323903   0.091   3.100   2.384 -0.6770 -0.1314 -0.2836
 6034SOL    MW423904   0.153   3.152   2.352  0.0532  0.4384  0.0970
 6035SOL     OW23905   3.660   4.024   0.848 -0.2657 -0.3416  0.2941
 6035SOL    HW223906   3.652   4.032   0.753 -2.4691 -0.4662  0.4348
 6035SOL    HW323907   3.737   3.968   0.860 -1.3732 -2.4083 -1.5228
 6035SOL    MW423908   3.669   4.018   0.837 -0.5129 -0.3381 -0.4610
 6036SOL     OW23909   5.846   1.647   4.592 -0.1803  0.1803 -0.6275
 6036SOL    HW223910   5.892   1.583   4.538 -0.2528 -0.6373  0.2511
 6036SOL    HW323911   5.901   1.726   4.589  0.7258 -0.4311 -0.4630
 6036SOL    MW423912   5.859   1.649   4.585  0.4823  0.4862  0.2197
 6037SOL     OW23913   6.211   6.016   1.371  0.1011 -0.1112  0.2658
 6037SOL    HW223914   6.244   5.930   1.345  0.1928  0.0393 -0.1145
 6037SOL    HW323915   6.180   6.056   1.290  1.2914  0.7575  0.2094
 6037SOL    MW423916   6.211   6.010   1.357 -0.4580 -0.3992  0.0836
 6038SOL     OW23917   5.001   1.407   1.645  0.0627 -0.6193  0.1284
 6038SOL    HW223918   5.050   1.468   1.590 -0.8384  0.3655  0.3643
 6038SOL    HW323919   4.979   1.458   1.723 -0.9666 -1.1435  0.2027
 6038SOL    MW423920   5.004   1.422   1.648 -0.0639  0.4643  0.5189
 6039SOL     OW23921   2.781   2.142   5.439 -0.2504  0.2852  0.4388
 6039SOL    HW223922   2.706   2.106   5.485 -1.2447 -0.1372 -1.3940
 6039SOL    HW323923   2.800   2.078   5.370 -0.8584  2.2960 -1.7294
 6039SOL    MW423924   2.774   2.129   5.436  0.5874  0.1548 -0.0528
 6040SOL     OW23925   4.349   6.379   2.440  0.1684  0.4289 -0.4069
 6040SOL    HW223926   4.288   6.452   2.429  1.4208  1.7876  1.0828
 6040SOL    HW323927   4.322   6.337   2.522  1.1928  1.0450  0.2674
 6040SOL    MW423928   4.337   6.383   2.450  0.0030 -0.2912  0.0059
 6041SOL     OW23929   5.304   4.495   1.533  0.1165  0.2333 -0.2964
 6041SOL    HW223930   5.350   4.552   1.595  0.9302 -2.2492  1.5563
 6041SOL    HW323931   5.310   4.408   1.572 -3.6947 -0.7254 -1.4185
 6041SOL    MW423932   5.311   4.491   1.546  0.4422  0.8446  0.3400
 6042SOL     OW23933   2.407   1.262   5.706  0.4100 -0.3360  0.4410
 6042SOL    HW223934   2.367   1.318   5.771  1.9411  1.8772 -0.4043
 6042SOL    HW323935   2.498   1.254   5.733  0.8488 -0.1560 -0.8966
 6042SOL    MW423936   2.414   1.268   5.718 -0.1096 -0.8781 -0.5660
 6043SOL     OW23937   2.968   5.923   3.812  1.0103  0.7156 -0.1954
 6043SOL    HW223938   2.991   5.831   3.798  0.6933  0.4721  0.7963
 6043SOL    HW323939   3.046   5.961   3.853  1.0721  0.8492 -0.4326
 6043SOL    MW423940   2.981   5.916   3.816  0.5458 -0.8722 -0.5553
 6044SOL     OW23941   4.241   3.798   0.939 -0.2689  0.5143 -0.1901
 6044SOL    HW223942   4.264   3.885   0.971  0.5141  0.5171 -0.7310
 6044SOL    HW323943   4.214   3.812   0.848  0.0787  0.1631 -0.3490
 6044SOL    MW423944   4.240   3.812   0.931  0.0477  0.0203 -0.5173
 6045SOL     OW23945   4.890   3.190   5.471  0.2178  0.4512  0.5343
 6045SOL    HW223946   4.960   3.225   5.415 -0.5233  0.5259 -0.3693
 6045SOL    HW323947   4.813   3.242   5.447 -0.8802 -1.6291 -0.6930
 6045SOL    MW423948   4.889   3.202   5.460  0.4277 -0.2204  0.3714
 6046SOL     OW23949   2.391   2.910   5.844  0.0456 -0.2394 -0.3049
 6046SOL    HW223950   2.391   2.817   5.867 -0.0711 -0.2942 -0.5210
 6046SOL    HW323951   2.298   2.932   5.834  0.0859 -0.1859 -0.5886
 6046SOL    MW423952   2.378   2.901   5.845  0.6989 -0.1075 -0.1021
 6047SOL     OW23953   2.088   4.095   3.577  0.2013  0.3030 -0.3611
 6047SOL    HW223954   1.994   4.091   3.594  0.0330  1.6865 -0.7799
 6047SOL    HW323955   2.101   4.182   3.538  1.9290  0.9232  1.4217
 6047SOL    MW423956   2.077   4.106   3.574 -0.4859 -0.1167  0.0564
 6048SOL     OW23957   2.486   4.630   3.712 -0.8317 -0.1624 -0.2717
 6048SOL    HW223958   2.525   4.717   3.717  1.1631 -1.0583  0.6652
 6048SOL    HW323959   2.409   4.642   3.656 -0.2548  2.0509 -0.6929
 6048SOL    MW423960   2.481   4.643   3.705  0.2588 -0.1342 -0.0893
 6049SOL     OW23961   3.465   5.985   5.906 -0.6196  0.3367 -0.1252
 6049SOL    HW223962   3.471   6.060   5.846  1.8488 -0.2648 -0.7179
 6049SOL    HW323963   3.545   5.935   5.890  0.0661  0.0191  3.5464
 6049SOL    MW423964   3.476   5.989   5.896  0.1942 -0.0441 -0.3362
 6050SOL     OW23965   0.646   4.109   1.520  0.1611 -0.0556 -0.2673
 6050SOL    HW223966   0.644   4.076   1.609 -0.3062  0.4358 -0.0897
 6050SOL    HW323967   0.623   4.034   1.465 -1.4977  0.0864  0.1737
 6050SOL    MW423968   0.642   4.095   1.524 -0.0427  0.2597 -0.2583
 6051SOL     OW23969   3.813   2.936   6.353 -0.1499 -0.7194 -0.2941
 6051SOL    HW223970   3.787   2.969   6.267  2.1387 -1.2031 -1.2508
 6051SOL    HW323971   3.789   2.844   6.351 -2.6725 -0.1776  0.7559
 6051SOL    MW423972   3.806   2.928   6.341  0.7068  0.1534 -0.1459
 6052SOL     OW23973   2.777   5.365   4.066 -0.8339  0.0921 -0.5593
 6052SOL    HW223974   2.726   5.336   4.141 -0.6702  1.2107  0.0072
 6052SOL    HW323975   2.867   5.340   4.086 -0.7283  0.7395 -0.1767
 6052SOL    MW423976   2.782   5.358   4.079 -0.1555  0.5980  0.2148
 6053SOL     OW23977   2.718   1.063   4.557  0.4428 -0.3174  0.4115
 6053SOL    HW223978   2.667   1.022   4.627  1.2025 -0.5116  0.8592
 6053SOL    HW323979   2.802   1.018   4.559  0.6143 -0.0453 -0.3649
 6053SOL    MW423980   2.722   1.052   4.567  0.0526 -1.0316 -0.1606
 6054SOL     OW23981   4.258   1.863   0.114 -0.2420 -0.1899  0.0028
 6054SOL    HW223982   4.176   1.828   0.148 -0.4967  0.6017  0.2273
 6054SOL    HW323983   4.255   1.956   0.136  1.3954 -0.4195  1.3645
 6054SOL    MW423984   4.247   1.871   0.121  0.9106  0.0645  0.1786
 6055SOL     OW23985   5.179   6.407   4.182  0.0289  0.0120  0.1130
 6055SOL    HW223986   5.126   6.328   4.182  2.0822 -1.4694 -1.2430
 6055SOL    HW323987   5.159   6.449   4.266 -0.7939 -2.1651  1.0904
 6055SOL    MW423988   5.170   6.402   4.193  0.6511  0.4334  0.2251
 6056SOL     OW23989   5.466   0.196   6.387 -0.1510  0.5558  0.4324
 6056SOL    HW223990   5.523   0.237   6.323  1.1495  0.4384  1.4628
 6056SOL    HW323991   5.525   0.172   6.460 -0.9720 -2.1945  0.3296
 6056SOL    MW423992   5.482   0.198   6.388 -0.0029 -0.6002 -0.0874
 6057SOL     OW23993   0.121   3.693   4.873  0.2026 -0.0342 -0.0925
 6057SOL    HW223994   0.087   3.604   4.883  0.5028 -0.0386  1.0701
 6057SOL    HW323995   0.069   3.731   4.802  0.0588 -1.1232 -0.5933
 6057SOL    MW423996   0.110   3.687   4.865  0.2086  0.1082 -0.0123
 6058SOL     OW23997   2.231   1.224   0.641  0.0461  0.4397 -0.6468
 6058SOL    HW223998   2.302   1.243   0.703 -0.4875  1.4538 -0.3298
 6058SOL    HW323999   2.229   1.299   0.583 -1.0798  0.6478 -0.3612
 6058SOL    MW424000   2.241   1.236   0.641 -0.2411  0.2859  0.1701
 6059SOL     OW24001   5.521   3.875   0.439 -0.0680  0.0907 -0.3099
 6059SOL    HW224002   5.482   3.861   0.525 -1.5811  0.6782 -0.8654
 6059SOL    HW324003   5.615   3.871   0.454 -0.3172 -0.6802  1.2148
 6059SOL    MW424004   5.528   3.872   0.452 -0.5632 -0.1608 -0.1494
 6060SOL     OW24005   0.368   2.011   2.117  0.4842  0.2152 -0.1129
 6060SOL    HW224006   0.284   2.025   2.160  0.8173  0.2493  0.5363
 6060SOL    HW324007   0.418   1.957   2.178  0.8626  0.0229 -0.5835
 6060SOL    MW424008   0.364   2.006   2.130 -0.0999  0.0470 -0.2771
 6061SOL     OW24009   3.436   2.561   3.813 -0.5775 -0.5673 -0.0670
 6061SOL    HW224010   3.518   2.562   3.862 -0.7497  1.1273  0.2440
 6061SOL    HW324011   3.395   2.645   3.833 -0.8586  0.0321 -2.7643
 6061SOL    MW424012   3.441   2.572   3.822  0.1195 -0.3502 -0.0953
 6062SOL     OW24013   5.995   2.552   4.955 -0.1299  0.7367  0.0856
 6062SOL    HW224014   6.073   2.499   4.939  0.9062  2.2796 -0.2409
 6062SOL    HW324015   6.018   2.639   4.921 -1.6088  1.5029  0.9438
 6062SOL    MW424016   6.008   2.557   4.948  0.2328 -0.5878  0.0363
 6063SOL     OW24017   4.286   4.702   3.273  0.3468  0.3329  0.7604
 6063SOL    HW224018   4.292   4.798   3.268  0.0398  0.3342  0.3258
 6063SOL    HW324019   4.313   4.671   3.186 -0.4813  0.0843  0.5760
 6063SOL    MW424020   4.290   4.711   3.261  0.4144 -0.1854 -0.3622
 6064SOL     OW24021   3.894   4.773   5.634  0.1622  0.8199 -0.6643
 6064SOL    HW224022   3.960   4.703   5.632 -1.5023 -0.8850  0.4147
 6064SOL    HW324023   3.877   4.792   5.542 -0.3128 -1.1968 -1.0423
 6064SOL    MW424024   3.901   4.766   5.622 -0.3666  0.0204 -0.2156
 6065SOL     OW24025   2.608   5.289   2.636 -0.0578  0.6781 -0.4229
 6065SOL    HW224026   2.691   5.254   2.602 -0.4382 -0.5477 -0.1233
 6065SOL    HW324027   2.613   5.274   2.730 -0.4918  0.8767 -0.3711
 6065SOL    MW424028   2.620   5.282   2.644  0.7641  0.0207  0.9667
 6066SOL     OW24029   2.932   6.235   3.346  0.6300 -0.1478 -1.0978
 6066SOL    HW224030   2.942   6.202   3.436 -0.3914  1.6656 -0.2405
 6066SOL    HW324031   3.015   6.280   3.328  0.3707  0.6054 -0.5107
 6066SOL    MW424032   2.944   6.237   3.356  0.0436  0.0055 -0.2538
 6067SOL     OW24033   0.538   3.684   3.376  0.4596 -1.0281  0.5791
 6067SOL    HW224034   0.458   3.733   3.393  0.4678 -1.0991  0.8177
 6067SOL    HW324035   0.606   3.751   3.369 -0.0312 -0.6790 -2.3844
 6067SOL    MW424036   0.536   3.699   3.377 -0.7031 -0.2616 -0.1636
 6068SOL     OW24037   2.561   5.366   0.564  0.3812  0.5931 -0.1840
 6068SOL    HW224038   2.588   5.343   0.475 -0.9112  0.3149 -0.5264
 6068SOL    HW324039   2.471   5.399   0.554 -1.1210 -2.6153  1.4150
 6068SOL    MW424040   2.552   5.368   0.551  0.2892  0.5566  0.4860
 6069SOL     OW24041   0.871   4.010   4.850  0.5618  0.3990  0.1324
 6069SOL    HW224042   0.785   4.040   4.879 -0.4962 -0.5055 -1.8026
 6069SOL    HW324043   0.914   4.089   4.816  0.0072  0.6634  0.0308
 6069SOL    MW424044   0.865   4.024   4.849 -0.3713  0.4134 -0.0906
 6070SOL     OW24045   2.685   4.649   6.242  0.8090 -0.4762 -0.5889
 6070SOL    HW224046   2.765   4.654   6.191  1.3873 -0.6208  0.2811
 6070SOL    HW324047   2.614   4.660   6.178  1.4445 -2.0574 -1.6287
 6070SOL    MW424048   2.686   4.651   6.227  0.7381  0.0282 -0.3919
 6071SOL     OW24049   1.497   1.505   1.934 -0.5308  0.0568 -0.0085
 6071SOL    HW224050   1.576   1.489   1.881  0.5317  0.6949  1.3363
 6071SOL    HW324051   1.478   1.598   1.921 -0.8822 -0.0228 -0.0768
 6071SOL    MW424052   1.505   1.515   1.925  0.0653 -0.5312  0.4236
 6072SOL     OW24053   3.355   3.382   4.385  0.3921 -0.1866 -0.4564
 6072SOL    HW224054   3.415   3.418   4.450 -1.7493  0.7343  1.1061
 6072SOL    HW324055   3.391   3.411   4.301  2.2771  0.0391  0.3703
 6072SOL    MW424056   3.368   3.391   4.382 -0.2270  0.4433 -0.3161
 6073SOL     OW24057   4.294   2.533   0.598 -0.2943 -0.2619 -0.5517
 6073SOL    HW224058   4.268   2.446   0.628 -1.1353  0.0180 -0.4556
 6073SOL    HW324059   4.270   2.534   0.505 -0.8102  0.0721 -0.4139
 6073SOL    MW424060   4.288   2.521   0.589  0.1100 -0.0123 -0.5016
 6074SOL     OW24061   1.409   0.413   1.382  0.0558  0.3209 -0.3920
 6074SOL    HW224062   1.413   0.501   1.343 -1.2347 -0.2800 -2.0224
 6074SOL    HW324063   1.486   0.368   1.347 -1.1437 -0.2465 -2.5054
 6074SOL    MW424064   1.420   0.419   1.372 -0.3333 -0.1328 -0.1311
 6075SOL     OW24065   3.496   2.962   6.199  0.2778  0.0272 -0.3377
 6075SOL    HW224066   3.532   2.903   6.132  1.4284 -1.4853  1.5077
 6075SOL    HW324067   3.547   3.042   6.189  1.9414 -0.9265  0.0364
 6075SOL    MW424068   3.508   2.965   6.189 -0.4266 -0.0514 -0.2266
 6076SOL     OW24069   4.969   1.070   0.827 -0.1862  0.3476  0.0417
 6076SOL    HW224070   4.985   1.123   0.748 -0.8124  1.1048  0.4040
 6076SOL    HW324071   4.878   1.042   0.818 -0.3022  0.5614  0.5742
 6076SOL    MW424072   4.959   1.073   0.815  0.3332 -0.1486  0.3179
 6077SOL     OW24073   3.284   5.270   2.572 -0.3397 -0.6468 -0.5930
 6077SOL    HW224074   3.370   5.231   2.553 -0.4383 -1.9437  1.3728
 6077SOL    HW324075   3.303   5.341   2.633 -0.6780 -1.1196  0.0710
 6077SOL    MW424076   3.298   5.275   2.578 -0.3694  0.1910 -0.2359
 6078SOL     OW24077   5.621   5.636   2.390 -0.0649 -0.0707  0.5020
 6078SOL    HW224078   5.609   5.687   2.310 -1.7932  0.7640  1.2558
 6078SOL    HW324079   5.713   5.651   2.414  0.4745 -0.2894 -1.2517
 6078SOL    MW424080   5.632   5.645   2.382 -0.1145 -1.0051  0.7020
 6079SOL     OW24081   3.475   5.582   4.018 -0.0354 -0.0115  0.2823
 6079SOL    HW224082   3.561   5.561   4.054  0.6490  1.8831 -0.1646
 6079SOL    HW324083   3.418   5.513   4.052  1.5281 -0.9768  1.0627
 6079SOL    MW424084   3.479   5.570   4.028 -0.9019  0.0037  0.0934
 6080SOL     OW24085   4.094   1.163   0.555  0.3469  0.0840 -0.4061
 6080SOL    HW224086   4.041   1.236   0.585  0.2531 -0.0291 -0.2961
 6080SOL    HW324087   4.165   1.203   0.505  0.3324  0.2523 -0.2889
 6080SOL    MW424088   4.097   1.178   0.552 -0.7715 -0.2610  0.1275
 6081SOL     OW24089   3.199   2.639   1.946 -0.0574 -0.5632 -0.1133
 6081SOL    HW224090   3.112   2.650   1.908 -0.3182 -1.3806  0.2166
 6081SOL    HW324091   3.182   2.611   2.036  0.5520 -0.2851  0.0921
 6081SOL    MW424092   3.185   2.637   1.953  0.3090  0.3455 -0.3705
 6082SOL     OW24093   4.155   0.788   3.887  0.1388 -0.3694  0.5151
 6082SOL    HW224094   4.107   0.857   3.843  0.6290 -0.2387  0.1794
 6082SOL    HW324095   4.229   0.832   3.928  1.5394 -0.9269 -1.2947
 6082SOL    MW424096   4.158   0.803   3.887 -0.1788  0.1119  0.4356
 6083SOL     OW24097   3.164   1.811   1.594 -0.2161  0.2369 -0.4164
 6083SOL    HW224098   3.162   1.832   1.687  1.1138  0.6815 -0.4750
 6083SOL    HW324099   3.208   1.885   1.553 -1.4191  0.3863 -1.5198
 6083SOL    MW424100   3.169   1.823   1.601 -0.4019  0.0755  0.1582
 6084SOL     OW24101   6.246   0.084   4.109  0.2232 -0.6312  0.1764
 6084SOL    HW224102   6.282   0.055   4.026 -0.2225 -0.4732 -0.0736
 6084SOL    HW324103   6.270   0.014   4.171 -0.2613 -1.2228 -0.2832
 6084SOL    MW424104   6.254   0.071   4.106  0.3294  0.5777 -0.2732
 6085SOL     OW24105   4.058   0.862   3.274  0.4124 -0.3632  0.2046
 6085SOL    HW224106   4.115   0.787   3.258  0.5140 -0.3974  0.7375
 6085SOL    HW324107   3.972   0.835   3.241  0.7819 -0.1675 -0.9709
 6085SOL    MW424108   4.054   0.849   3.267 -0.5919  0.4653 -0.2205
 6086SOL     OW24109   4.189   0.425   1.322  0.0161  0.0364 -0.3574
 6086SOL    HW224110   4.132   0.501   1.332 -0.0614 -0.0526 -0.1225
 6086SOL    HW324111   4.250   0.451   1.252 -0.5442 -0.0162 -0.8721
 6086SOL    MW424112   4.190   0.439   1.314 -0.0920  0.6204  0.0195
 6087SOL     OW24113   5.426   3.355   1.304  0.1087  0.5527  0.5089
 6087SOL    HW224114   5.422   3.447   1.331  0.7531  0.1733  2.0476
 6087SOL    HW324115   5.459   3.309   1.382  0.6655 -0.8610 -0.5247
 6087SOL    MW424116   5.430   3.361   1.318  0.4363 -0.5666  0.0822
 6088SOL     OW24117   5.762   0.170   3.857  0.6823 -0.1692  0.2238
 6088SOL    HW224118   5.831   0.204   3.915  1.6850 -0.8963 -0.5181
 6088SOL    HW324119   5.806   0.151   3.775 -0.4140 -0.6718 -0.2707
 6088SOL    MW424120   5.777   0.172   3.854  0.5062 -0.1897 -0.0442
 6089SOL     OW24121   1.467   3.917   5.847 -0.3533  0.2731  0.4430
 6089SOL    HW224122   1.524   3.839   5.848 -1.1617 -0.3382  2.0425
 6089SOL    HW324123   1.519   3.984   5.803  0.1875 -1.2850 -1.4011
 6089SOL    MW424124   1.482   3.915   5.841 -0.0768  0.3810 -0.1124
 6090SOL     OW24125   3.107   5.036   2.639  0.3828 -0.3304 -0.0515
 6090SOL    HW224126   3.021   5.074   2.626  0.6417  1.1241  1.9412
 6090SOL    HW324127   3.168   5.101   2.604  0.7193 -0.7194 -0.1983
 6090SOL    MW424128   3.104   5.049   2.633 -0.1106 -0.4558  0.3989
 6091SOL     OW24129   3.464   1.084   4.506 -0.3752 -0.8846 -0.0527
 6091SOL    HW224130   3.389   1.142   4.516  0.5604  0.3284  0.1255
 6091SOL    HW324131   3.519   1.103   4.581 -1.4785 -4.3221  1.8841
 6091SOL    MW424132   3.461   1.094   4.517  0.0665  0.3713  0.0670
 6092SOL     OW24133   0.229   4.627   5.030 -0.2070 -0.5783 -0.2365
 6092SOL    HW224134   0.194   4.620   4.941 -0.1780 -0.9759 -0.2187
 6092SOL    HW324135   0.168   4.685   5.076  0.4942  0.7247 -0.8715
 6092SOL    MW424136   0.217   4.634   5.024  0.4069  0.1852  0.3499
 6093SOL     OW24137   3.771   4.913   3.625  0.0746  0.2228  1.1164
 6093SOL    HW224138   3.705   4.853   3.658  0.5057 -0.0515  1.5000
 6093SOL    HW324139   3.850   4.860   3.617 -0.1163  0.1587 -0.8037
 6093SOL    MW424140   3.773   4.898   3.628  0.4694 -0.0317  0.0408
 6094SOL     OW24141   5.691   1.511   5.986 -0.5717  0.5470 -0.6511
 6094SOL    HW224142   5.778   1.475   6.006  0.2123  2.4606 -0.4007
 6094SOL    HW324143   5.630   1.444   6.018  0.7842 -0.7835 -0.7050
 6094SOL    MW424144   5.695   1.497   5.993 -0.2853  0.6726 -0.1319
 6095SOL     OW24145   5.770   5.249   6.016 -0.2840  0.5321 -0.0439
 6095SOL    HW224146   5.818   5.295   5.948  1.5985  1.1800  1.6153
 6095SOL    HW324147   5.833   5.187   6.053 -0.7055  1.2694  2.0748
 6095SOL    MW424148   5.784   5.247   6.012 -0.2092  0.2124  0.3488
 6096SOL     OW24149   2.388   5.381   4.402  0.1921  0.1497 -0.4927
 6096SOL    HW224150   2.325   5.338   4.460  2.5664  0.6243  2.7290
 6096SOL    HW324151   2.342   5.459   4.370 -0.8724  0.5588  1.8440
 6096SOL    MW424152   2.374   5.386   4.405 -0.6849 -0.6559  0.0975
 6097SOL     OW24153   1.412   1.773   6.307  0.2829 -0.1650 -0.7224
 6097SOL    HW224154   1.500   1.742   6.328  0.6371  1.4475  0.4482
 6097SOL    HW324155   1.391   1.733   6.223  2.6522  0.3433 -1.6403
 6097SOL    MW424156   1.421   1.764   6.298 -0.1552  0.4665  0.6096
 6098SOL     OW24157   3.053   2.219   5.470  0.5348  0.1203 -0.0595
 6098SOL    HW224158   3.095   2.137   5.496 -0.2192 -0.4125 -0.4875
 6098SOL    HW324159   2.959   2.200   5.475  0.3359  1.1791  0.5347
 6098SOL    MW424160   3.046   2.206   5.474  0.0610 -0.5664  0.3040
 6099SOL     OW24161   0.090   2.314   5.286 -0.0579 -0.4995 -0.1787
 6099SOL    HW224162   0.117   2.254   5.216  1.2047 -1.0257  0.7235
 6099SOL    HW324163   0.158   2.381   5.288 -1.1228  0.6328 -0.7448
 6099SOL    MW424164   0.102   2.315   5.277  0.4726  0.0210  0.2103
 6100SOL     OW24165   5.970   4.366   6.287  0.0615 -0.1270 -0.5845
 6100SOL    HW224166   6.039   4.408   6.339 -0.9402  1.0165 -0.1459
 6100SOL    HW324167   5.892   4.370   6.342 -1.0215  1.0860 -2.0996
 6100SOL    MW424168   5.969   4.372   6.301  0.6124  0.1133 -0.1446
 6101SOL     OW24169   2.169   6.105   5.010  0.2522 -0.1246  0.9371
 6101SOL    HW224170   2.237   6.149   5.060  0.4903  0.8085 -0.1698
 6101SOL    HW324171   2.184   6.012   5.026  1.5438  0.0794  1.0235
 6101SOL    MW424172   2.180   6.098   5.019  0.0139  0.2043  0.0170
 6102SOL     OW24173   5.737   4.120   5.963  0.2852 -0.2171 -0.0503
 6102SOL    HW224174   5.826   4.106   5.997  0.0166 -1.4369  0.1725
 6102SOL    HW324175   5.701   4.188   6.020  0.3620 -1.1947  1.2155
 6102SOL    MW424176   5.744   4.127   5.975  0.3728 -0.5899 -0.0231
 6103SOL     OW24177   2.567   1.402   3.758  0.1684  0.1073  0.5111
 6103SOL    HW224178   2.565   1.483   3.708  0.8921  0.1152  0.4882
 6103SOL    HW324179   2.540   1.427   3.847 -0.0416  0.2935  0.3931
 6103SOL    MW424180   2.563   1.416   3.763  0.0287  0.7244 -0.6267
 6104SOL     OW24181   2.791   4.875   1.534  0.6459  0.2455 -0.3249
 6104SOL    HW224182   2.708   4.884   1.487  0.1210  1.9384  0.8166
 6104SOL    HW324183   2.854   4.921   1.479  0.5284  0.1980 -0.5005
 6104SOL    MW424184   2.789   4.882   1.520  0.1179 -0.3581  0.2749
 6105SOL     OW24185   0.369   1.084   3.034 -0.3019  0.2277  0.3779
 6105SOL    HW224186   0.312   1.039   3.097  0.5297 -0.0233  0.9721
 6105SOL    HW324187   0.312   1.148   2.992 -1.1735 -0.4351  0.5118
 6105SOL    MW424188   0.354   1.086   3.037 -0.0358  0.3205 -0.3795
 6106SOL     OW24189   0.909   1.569   1.900  0.1351  0.0348 -0.4989
 6106SOL    HW224190   0.858   1.646   1.877 -1.0721 -0.2183  1.1261
 6106SOL    HW324191   0.999   1.602   1.909 -0.3027  1.1866 -0.1638
 6106SOL    MW424192   0.914   1.583   1.899 -0.2367  0.3013  0.1036
 6107SOL     OW24193   0.192   1.049   0.316 -0.4992  0.2867  0.0170
 6107SOL    HW224194   0.215   1.140   0.295 -1.8327  0.9442  1.2188
 6107SOL    HW324195   0.096   1.047   0.310 -0.5684 -0.7389  1.0754
 6107SOL    MW424196   0.182   1.061   0.313 -0.2314  0.3651 -0.3454
 6108SOL     OW24197   2.498   5.472   1.524  0.1697 -0.1336  0.3274
 6108SOL    HW224198   2.567   5.477   1.458  0.0647 -2.5435 -0.0639
 6108SOL    HW324199   2.460   5.385   1.513 -0.1207 -0.5071  3.3185
 6108SOL    MW424200   2.502   5.461   1.514  0.6549  0.4165  0.0106
 6109SOL     OW24201   6.327   1.599   2.757 -0.2857 -0.4330 -1.1695
 6109SOL    HW224202   6.363   1.527   2.705  0.3459 -0.4544 -0.7159
 6109SOL    HW324203   6.232   1.586   2.754 -0.1202 -3.0383  1.3404
 6109SOL    MW424204   6.319   1.588   2.749  0.7321 -1.0093  0.4336
 6110SOL     OW24205   6.322   3.683   6.054  0.2821 -0.2159  0.7475
 6110SOL    HW224206   6.353   3.710   6.141  0.0611  0.7970  0.5246
 6110SOL    HW324207   6.326   3.763   6.002 -0.1868 -0.6801 -0.0056
 6110SOL    MW424208   6.327   3.697   6.059 -0.6729 -0.2613  0.2299
 6111SOL     OW24209   0.334   1.786   1.949  0.3400  0.4078  0.6953
 6111SOL    HW224210   0.281   1.721   1.995  0.4266 -0.6895 -0.6771
 6111SOL    HW324211   0.314   1.869   1.992 -0.2489 -0.4278  2.0920
 6111SOL    MW424212   0.324   1.789   1.961 -0.0660 -0.4005  0.1759
 6112SOL     OW24213   1.307   4.781   4.470  0.7176 -0.8895 -0.0860
 6112SOL    HW224214   1.261   4.862   4.492  1.0918 -0.9007  0.7690
 6112SOL    HW324215   1.288   4.768   4.377  0.3449 -0.0223 -0.1463
 6112SOL    MW424216   1.298   4.790   4.460  0.6618  0.1642  0.0270
 6113SOL     OW24217   3.879   0.448   4.193 -0.3998  0.1745 -0.2877
 6113SOL    HW224218   3.948   0.489   4.141 -0.2849  1.1004  0.5654
 6113SOL    HW324219   3.882   0.494   4.277 -1.5286 -0.3166  0.0377
 6113SOL    MW424220   3.888   0.460   4.197  0.3484  0.5127  0.0129
 6114SOL     OW24221   1.749   2.004   4.038 -0.1272 -0.2331  0.2817
 6114SOL    HW224222   1.695   1.966   3.968 -0.0943 -0.1851  0.2297
 6114SOL    HW324223   1.694   1.998   4.116 -0.0705 -0.5079  0.3017
 6114SOL    MW424224   1.734   1.998   4.039 -0.3479  0.2558  0.2783
 6115SOL     OW24225   3.019   0.129   1.544 -0.1127  0.0085 -0.2428
 6115SOL    HW224226   3.063   0.155   1.624 -0.2699  0.2891 -0.2480
 6115SOL    HW324227   2.926   0.131   1.565 -0.2410  1.5318 -0.8504
 6115SOL    MW424228   3.012   0.133   1.557  0.0277  0.3127 -0.0452
 6116SOL     OW24229   0.378   3.073   4.291  0.4752 -0.0696 -0.1398
 6116SOL    HW224230   0.304   3.012   4.293 -0.6698  1.1391 -2.2533
 6116SOL    HW324231   0.338   3.160   4.293  1.9657  0.6458  0.6657
 6116SOL    MW424232   0.363   3.077   4.292  0.1858  0.0326  0.3011
 6117SOL     OW24233   2.541   1.569   3.024 -0.2075 -0.5756  0.5188
 6117SOL    HW224234   2.466   1.542   3.077  0.7554 -1.7887  1.3386
 6117SOL    HW324235   2.617   1.540   3.075  0.7778 -1.2804 -1.2670
 6117SOL    MW424236   2.541   1.561   3.038  0.6170  0.1401  0.2520
 6118SOL     OW24237   3.929   2.520   2.487  0.5170 -0.3718  0.3791
 6118SOL    HW224238   3.910   2.580   2.415  1.0712 -1.6401 -0.8641
 6118SOL    HW324239   3.887   2.438   2.461  1.5902 -1.1406  1.0102
 6118SOL    MW424240   3.921   2.517   2.474  0.3945 -0.0125  0.3626
 6119SOL     OW24241   0.518   4.704   0.781  0.4436  0.1138 -1.0368
 6119SOL    HW224242   0.425   4.685   0.790  0.6366 -0.2347  0.4759
 6119SOL    HW324243   0.553   4.628   0.734  0.2661 -0.6842  0.0805
 6119SOL    MW424244   0.511   4.691   0.776  0.0890 -0.1029 -0.2870
 6120SOL     OW24245   0.978   6.363   5.275 -0.0232 -0.3721  0.5655
 6120SOL    HW224246   1.046   6.323   5.222 -1.3235 -0.3076 -1.2169
 6120SOL    HW324247   0.969   6.305   5.351  0.1803 -1.8251 -0.4873
 6120SOL    MW424248   0.986   6.350   5.278  0.0288  0.3147  0.0330
 6121SOL     OW24249   1.076   5.562   0.268  0.1386  0.1111 -0.7670
 6121SOL    HW224250   1.116   5.632   0.320 -0.8771 -0.0931  0.3291
 6121SOL    HW324251   0.982   5.578   0.274 -0.0479 -0.6405 -1.5318
 6121SOL    MW424252   1.069   5.573   0.276  0.1459 -0.5118 -0.0315
 6122SOL     OW24253   4.700   2.332   4.154  0.3352 -0.3332 -0.0094
 6122SOL    HW224254   4.718   2.237   4.155 -0.8081 -0.5593  0.2786
 6122SOL    HW324255   4.708   2.359   4.245  1.3351 -0.0004 -0.1810
 6122SOL    MW424256   4.704   2.323   4.166 -0.1202 -0.2610  0.9090
 6123SOL     OW24257   0.893   4.518   0.455 -0.0343 -0.1395 -0.0110
 6123SOL    HW224258   0.966   4.531   0.394 -0.1679  3.4372  0.3929
 6123SOL    HW324259   0.816   4.513   0.399  0.1753 -0.3856 -0.2812
 6123SOL    MW424260   0.893   4.519   0.439  0.1094  0.3860  0.0293
 6124SOL     OW24261   2.900   3.891   1.970 -0.0438  0.1772 -0.4740
 6124SOL    HW224262   2.986   3.901   2.011 -0.0815  0.5324 -0.4718
 6124SOL    HW324263   2.878   3.799   1.981  0.1621  0.1682 -0.1233
 6124SOL    MW424264   2.909   3.880   1.977 -0.4227 -0.0220 -0.5120
 6125SOL     OW24265   1.897   4.162   5.618  0.2640 -0.5764 -0.1684
 6125SOL    HW224266   1.819   4.157   5.674  2.5490 -0.6132  3.3609
 6125SOL    HW324267   1.895   4.250   5.581 -0.2425  0.3564  1.9290
 6125SOL    MW424268   1.887   4.173   5.621 -0.0678 -0.2133  0.0238
 6126SOL     OW24269   6.342   6.013   6.231  0.0079  0.3071  0.1684
 6126SOL    HW224270   6.299   5.986   6.150  0.1522  0.4147  0.0568
 6126SOL    HW324271   6.272   6.009   6.297 -0.1773  0.4829 -0.0128
 6126SOL    MW424272   6.327   6.009   6.229  0.3473  0.5793  0.1389
 6127SOL     OW24273   1.653   1.096   3.514 -0.5630  0.4232  0.4970
 6127SOL    HW224274   1.662   1.096   3.610  2.0328 -2.0341  0.3837
 6127SOL    HW324275   1.678   1.185   3.488  2.7170  0.0665  1.9495
 6127SOL    MW424276   1.657   1.108   3.523  0.3507  0.0581 -0.4953
 6128SOL     OW24277   3.857   0.689   0.068 -0.3233  0.3564  0.7777
 6128SOL    HW224278   3.830   0.780   0.080 -1.0501  0.8742 -3.3357
 6128SOL    HW324279   3.775   0.640   0.059 -0.0741  0.2834 -2.0753
 6128SOL    MW424280   3.843   0.694   0.068  0.0206  0.1953 -0.1667
 6129SOL     OW24281   2.042   2.262   5.185  0.0667 -0.2166  0.3856
 6129SOL    HW224282   1.985   2.299   5.118  0.2620  1.1778  0.9583
 6129SOL    HW324283   2.088   2.191   5.140  1.6053  1.8533 -1.6045
 6129SOL    MW424284   2.041   2.258   5.170  0.5447  0.0434 -0.1390
 6130SOL     OW24285   4.687   2.112   0.372  0.1407  0.2854 -0.4705
 6130SOL    HW224286   4.618   2.134   0.310 -0.0408 -0.8591 -0.7031
 6130SOL    HW324287   4.641   2.097   0.455 -0.0186 -1.2173 -0.7975
 6130SOL    MW424288   4.672   2.113   0.375  0.2927 -0.0905 -0.3702
 6131SOL     OW24289   4.437   5.586   4.686 -0.2956  0.2630 -0.3501
 6131SOL    HW224290   4.432   5.623   4.774 -1.3396 -0.2632 -0.1750
 6131SOL    HW324291   4.523   5.614   4.653  0.1791  0.3281  0.8839
 6131SOL    MW424292   4.448   5.595   4.693 -0.2081 -0.2865  0.2371
 6132SOL     OW24293   1.829   2.110   0.160 -0.5421  0.2852  0.1871
 6132SOL    HW224294   1.796   2.200   0.152 -1.9850 -0.0424  1.7816
 6132SOL    HW324295   1.891   2.114   0.233  0.9528  0.3366 -1.0319
 6132SOL    MW424296   1.833   2.123   0.168 -0.2968  0.1931 -0.3946
 6133SOL     OW24297   4.878   5.017   5.580 -0.2878  0.0550 -0.0925
 6133SOL    HW224298   4.847   4.940   5.627 -0.8552 -0.4998 -1.3359
 6133SOL    HW324299   4.940   5.058   5.640 -2.4640  0.5190  2.0054
 6133SOL    MW424300   4.882   5.012   5.594 -0.8320  0.3809 -0.3847
 6134SOL     OW24301   4.166   1.746   4.380 -0.3723  0.7874  0.0711
 6134SOL    HW224302   4.241   1.789   4.338  0.4969 -1.7789 -1.2438
 6134SOL    HW324303   4.204   1.690   4.447 -0.9220 -1.4063 -1.3544
 6134SOL    MW424304   4.181   1.744   4.383 -0.0682  0.1144  0.2866
 6135SOL     OW24305   0.192   1.981   0.209 -0.0227 -0.2056 -0.2332
 6135SOL    HW224306   0.185   1.895   0.251 -0.3667  0.2828  0.7366
 6135SOL    HW324307   0.105   1.996   0.171 -0.3059  0.1559  0.5179
 6135SOL    MW424308   0.179   1.972   0.210  0.1209  0.0528  0.2469
 6136SOL     OW24309   5.271   2.815   0.462  0.1172 -0.2354  0.6661
 6136SOL    HW224310   5.345   2.801   0.521 -1.1420  0.7559  2.5680
 6136SOL    HW324311   5.229   2.729   0.456  1.9471 -1.1131 -1.3510
 6136SOL    MW424312   5.275   2.802   0.469  0.1756  0.2131 -0.4535
 6137SOL     OW24313   0.280   6.099   6.330 -0.6515 -0.7152  0.0923
 6137SOL    HW224314   0.373   6.122   6.341 -0.7949 -1.1353  2.8782
 6137SOL    HW324315   0.266   6.028   6.393 -2.7407 -1.1260 -0.7726
 6137SOL    MW424316   0.291   6.093   6.340  0.0300  0.2457  0.3611
 6138SOL     OW24317   2.244   1.443   1.979  0.5543 -0.2113  0.0081
 6138SOL    HW224318   2.271   1.362   1.935 -1.6426 -0.8392 -0.3004
 6138SOL    HW324319   2.150   1.450   1.962  0.2528  1.2646  1.8651
 6138SOL    MW424320   2.235   1.433   1.971  0.0802  0.4579  0.1619
 6139SOL     OW24321   1.617   6.301   5.495  0.6105  0.3284  0.0189
 6139SOL    HW224322   1.600   6.323   5.587 -1.7356 -1.1120  0.0152
 6139SOL    HW324323   1.610   6.385   5.449 -1.2729  0.6578  0.8237
 6139SOL    MW424324   1.614   6.315   5.501  0.8383  0.0548  0.1482
 6140SOL     OW24325   5.091   3.828   2.984 -0.4071  0.3832  0.2048
 6140SOL    HW224326   5.088   3.791   2.896  2.3263  0.2315  0.1010
 6140SOL    HW324327   5.110   3.921   2.970 -1.7603  0.7521  0.6325
 6140SOL    MW424328   5.093   3.836   2.971  0.9821 -0.2149 -0.1412
 6141SOL     OW24329   6.300   5.261   1.295 -0.3870  0.1618 -0.3370
 6141SOL    HW224330   6.241   5.336   1.291  0.0936  0.5082 -2.6316
 6141SOL    HW324331   6.285   5.213   1.213  1.7433 -0.3035 -0.5367
 6141SOL    MW424332   6.291   5.264   1.283 -0.4547  0.3681  0.1163
 6142SOL     OW24333   1.641   1.341   5.110  0.4965 -0.7465 -0.0919
 6142SOL    HW224334   1.565   1.396   5.133 -0.0342 -0.2117 -2.8348
 6142SOL    HW324335   1.623   1.257   5.153 -1.1667 -0.3230  0.1261
 6142SOL    MW424336   1.628   1.337   5.119  0.0746 -0.4509 -0.6703
 6143SOL     OW24337   5.179   5.828   3.243  0.6431 -0.2446 -0.2731
 6143SOL    HW224338   5.168   5.803   3.335  3.0043 -1.2199 -0.1789
 6143SOL    HW324339   5.265   5.870   3.240  0.4322  0.1289 -1.9801
 6143SOL    MW424340   5.189   5.830   3.255  0.5478  0.1911 -0.1099
 6144SOL     OW24341   1.929   2.251   2.591 -0.4900 -0.1376 -0.2210
 6144SOL    HW224342   1.931   2.166   2.635 -0.5310 -0.0837 -0.1138
 6144SOL    HW324343   2.022   2.272   2.576 -0.4031  0.4257  0.9833
 6144SOL    MW424344   1.942   2.243   2.595 -0.8566  0.1787 -0.4489
 6145SOL     OW24345   2.926   5.788   5.132  0.3440 -0.1304 -0.3168
 6145SOL    HW224346   2.879   5.826   5.058 -0.2831 -0.9052 -0.3320
 6145SOL    HW324347   2.934   5.859   5.195 -1.3811 -0.1090 -0.0682
 6145SOL    MW424348   2.921   5.802   5.131  0.3675 -0.3659 -0.8003
 6146SOL     OW24349   4.420   0.503   6.356 -0.3629 -0.1482  0.2460
 6146SOL    HW224350   4.409   0.552   6.274  2.4455 -2.6369 -1.8243
 6146SOL    HW324351   4.395   0.414   6.334  1.9712 -1.2111  1.5860
 6146SOL    MW424352   4.415   0.498   6.342  0.0790  0.1318  0.2782
 6147SOL     OW24353   6.113   0.214   1.238 -0.2196  0.0387  0.0005
 6147SOL    HW224354   6.072   0.128   1.228 -3.2400  1.0634  1.8710
 6147SOL    HW324355   6.040   0.276   1.230  1.5044  2.2972  0.6408
 6147SOL    MW424356   6.098   0.211   1.236  0.2506 -0.7165  0.1017
 6148SOL     OW24357   5.429   5.874   5.739  0.2432  0.0717  0.3868
 6148SOL    HW224358   5.478   5.793   5.726 -0.1522 -0.1361  0.1389
 6148SOL    HW324359   5.339   5.845   5.753  0.0203  0.4786 -0.1321
 6148SOL    MW424360   5.423   5.860   5.739  0.6444  0.3131 -0.1736
 6149SOL     OW24361   6.080   0.230   1.900 -0.0034  0.0388 -0.2016
 6149SOL    HW224362   6.066   0.187   1.815 -0.7406  0.9210 -0.5480
 6149SOL    HW324363   6.005   0.204   1.953  0.0067  0.1934 -0.1116
 6149SOL    MW424364   6.068   0.221   1.896  0.1045  0.4843 -0.1816
 6150SOL     OW24365   4.408   2.042   3.336 -1.1105 -0.0163  0.1183
 6150SOL    HW224366   4.347   2.090   3.281 -0.8091  0.8575  0.5369
 6150SOL    HW324367   4.353   1.979   3.383 -1.5634  0.1932 -0.1199
 6150SOL    MW424368   4.393   2.040   3.335  0.2489  0.3181  0.0107
 6151SOL     OW24369   2.324   4.308   5.863  0.1729 -0.0609  0.2190
 6151SOL    HW224370   2.291   4.238   5.806  0.2347 -0.0901  0.2185
 6151SOL    HW324371   2.247   4.341   5.908 -0.2773  1.5048 -1.5626
 6151SOL    MW424372   2.310   4.303   5.861  0.2171 -0.1718 -0.1704
 6152SOL     OW24373   2.584   4.129   6.093  0.3313 -0.0697  0.3340
 6152SOL    HW224374   2.593   4.098   6.183 -0.3104  1.1881  0.8578
 6152SOL    HW324375   2.577   4.224   6.101  0.9647  0.1259 -1.1057
 6152SOL    MW424376   2.584   4.137   6.106 -0.1288 -0.0512  0.1025
 6153SOL     OW24377   3.945   6.201   4.822  0.0808 -0.2609 -0.1113
 6153SOL    HW224378   3.973   6.262   4.890 -0.4038  0.0560 -0.1877
 6153SOL    HW324379   3.983   6.117   4.847 -0.9229 -0.3761  1.0976
 6153SOL    MW424380   3.954   6.198   4.834  0.6526  0.0717 -0.4850
 6154SOL     OW24381   3.607   0.724   4.412 -0.3556  0.6313  0.3416
 6154SOL    HW224382   3.640   0.813   4.400 -0.1320  0.6288  0.9151
 6154SOL    HW324383   3.547   0.731   4.487  3.0416 -0.5075  3.4363
 6154SOL    MW424384   3.603   0.737   4.420  0.3683 -0.3597 -0.1980
 6155SOL     OW24385   1.995   2.902   2.848  0.1593  0.1617 -0.0768
 6155SOL    HW224386   1.939   2.958   2.794  0.6424  1.3504  0.5980
 6155SOL    HW324387   2.050   2.964   2.896  1.6995 -0.9511 -0.3378
 6155SOL    MW424388   1.995   2.918   2.847  0.4028 -0.0516  0.1416
 6156SOL     OW24389   2.579   1.023   3.918 -0.2713 -0.0839  0.0782
 6156SOL    HW224390   2.585   0.985   3.830 -1.4452  0.9161 -0.4707
 6156SOL    HW324391   2.667   1.056   3.936  0.2807 -1.3666 -0.2149
 6156SOL    MW424392   2.591   1.023   3.909 -0.1881  0.0822  0.0261
 6157SOL     OW24393   4.210   5.974   2.325  0.3251 -0.4431  0.0226
 6157SOL    HW224394   4.178   5.887   2.302 -2.0046  0.3226  0.1916
 6157SOL    HW324395   4.219   5.971   2.421 -0.1586 -0.3713  0.0714
 6157SOL    MW424396   4.207   5.962   2.335  0.3484  0.8263 -0.4219
 6158SOL     OW24397   5.672   4.620   4.004 -0.3985 -0.2311  0.1516
 6158SOL    HW224398   5.622   4.683   3.952  0.5525  1.3070  1.0464
 6158SOL    HW324399   5.611   4.592   4.072 -0.4280  0.7211  0.5287
 6158SOL    MW424400   5.657   4.625   4.006  0.6341 -0.7248 -0.2862
 6159SOL     OW24401   3.190   4.162   5.758 -0.3050 -0.7798 -0.2579
 6159SOL    HW224402   3.191   4.079   5.804  0.4266 -0.3992  0.4261
 6159SOL    HW324403   3.245   4.220   5.810  0.2878 -0.2452 -1.4272
 6159SOL    MW424404   3.198   4.159   5.771  0.1377  0.4300 -0.2667
 6160SOL     OW24405   1.628   5.751   5.896 -0.0583 -0.4209  0.3494
 6160SOL    HW224406   1.666   5.792   5.819  0.6795 -1.0599  0.3560
 6160SOL    HW324407   1.631   5.819   5.964  1.0942 -0.4433  0.3488
 6160SOL    MW424408   1.633   5.765   5.895  0.0373  0.1728 -0.1708
 6161SOL     OW24409   5.891   1.907   6.369 -0.2097  0.4863 -0.0524
 6161SOL    HW224410   5.984   1.909   6.389  0.3338  0.6344 -2.3286
 6161SOL    HW324411   5.876   1.821   6.329 -1.4160 -0.1593  1.6555
 6161SOL    MW424412   5.901   1.896   6.367 -0.1408 -0.4204  0.3699
 6162SOL     OW24413   5.948   5.386   3.406 -0.7652  0.2214  0.5373
 6162SOL    HW224414   6.042   5.372   3.396 -0.3595  1.5001  2.0707
 6162SOL    HW324415   5.940   5.480   3.424 -2.2354 -0.0396  1.3766
 6162SOL    MW424416   5.960   5.397   3.407  0.1329 -0.8688  0.3402
 6163SOL     OW24417   3.029   5.298   4.147  0.1799 -0.0823  0.0633
 6163SOL    HW224418   3.049   5.208   4.119 -1.6947 -0.9112  1.1796
 6163SOL    HW324419   2.992   5.287   4.235 -0.7278  1.7240 -0.0591
 6163SOL    MW424420   3.027   5.285   4.155  0.4202  0.0851  0.0599
 6164SOL     OW24421   4.770   6.227   3.412 -0.4906 -0.2337 -0.2751
 6164SOL    HW224422   4.772   6.193   3.323  1.1179 -1.8138  0.2928
 6164SOL    HW324423   4.857   6.207   3.447 -0.2131  2.5571  0.8830
 6164SOL    MW424424   4.782   6.220   3.405  0.8984  0.4469 -0.3994
 6165SOL     OW24425   1.376   3.462   5.464 -0.1886 -0.6750 -0.3663
 6165SOL    HW224426   1.387   3.427   5.553 -1.1071 -1.8849 -0.7165
 6165SOL    HW324427   1.321   3.540   5.477 -2.3653 -2.1742 -0.0836
 6165SOL    MW424428   1.370   3.468   5.478 -0.1967 -0.0370 -0.0967
 6166SOL     OW24429   4.453   1.602   3.864  0.4748  0.2619  0.3217
 6166SOL    HW224430   4.383   1.654   3.901  0.8321  0.9546  0.0535
 6166SOL    HW324431   4.427   1.587   3.773 -0.5240 -1.6522  0.8770
 6166SOL    MW424432   4.441   1.607   3.857 -0.5431  0.3081  0.0413
 6167SOL     OW24433   1.379   3.195   5.641 -0.6383 -0.9369 -0.7291
 6167SOL    HW224434   1.331   3.169   5.720  0.2117 -1.0080 -0.2197
 6167SOL    HW324435   1.467   3.160   5.654 -0.5759 -1.2252 -1.8676
 6167SOL    MW424436   1.384   3.187   5.653  0.5108 -0.0080 -0.1914
 6168SOL     OW24437   4.215   1.799   3.312 -0.2056  0.2288 -0.5061
 6168SOL    HW224438   4.148   1.863   3.339  0.3934  1.4230 -1.7336
 6168SOL    HW324439   4.238   1.824   3.223  3.3861  1.2147  0.5185
 6168SOL    MW424440   4.209   1.811   3.304  0.3141 -0.1773  0.0613
 6169SOL     OW24441   5.821   2.104   1.706 -0.1737 -0.1124  0.0544
 6169SOL    HW224442   5.844   2.188   1.666  0.9324 -0.1433  0.6095
 6169SOL    HW324443   5.837   2.116   1.799 -2.9048  0.0124  0.6072
 6169SOL    MW424444   5.826   2.116   1.713  0.0573 -0.1402 -0.1411
 6170SOL     OW24445   2.118   6.370   1.192  0.4495  0.4921  0.1116
 6170SOL    HW224446   2.039   6.393   1.144  1.1240 -0.9235 -1.7922
 6170SOL    HW324447   2.144   6.451   1.236 -1.3243  1.3093 -0.2774
 6170SOL    MW424448   2.111   6.383   1.192  0.3387 -0.1632  0.7687
 6171SOL     OW24449   0.777   5.951   3.628  0.8556  0.3517 -0.4013
 6171SOL    HW224450   0.723   6.029   3.639  2.2976  1.3885 -0.4579
 6171SOL    HW324451   0.752   5.894   3.700  2.2086  2.3224  1.7509
 6171SOL    MW424452   0.766   5.953   3.639 -0.4203 -0.0190  0.5832
 6172SOL     OW24453   2.523   2.762   0.914  0.2110  0.6318 -0.6674
 6172SOL    HW224454   2.596   2.711   0.880  1.1995  2.0837 -0.8202
 6172SOL    HW324455   2.524   2.842   0.862 -2.0032  0.3713 -1.2096
 6172SOL    MW424456   2.533   2.766   0.903  0.9027 -0.4191  0.0606
 6173SOL     OW24457   2.336   0.858   3.477 -0.9778  0.0940 -0.4918
 6173SOL    HW224458   2.248   0.848   3.512  0.0912  0.7989  2.8534
 6173SOL    HW324459   2.373   0.770   3.480 -1.4068 -0.1327 -1.5134
 6173SOL    MW424460   2.329   0.845   3.482  0.1076 -0.3806 -0.5855
 6174SOL     OW24461   0.991   6.457   0.427 -0.4949  0.4853 -0.7587
 6174SOL    HW224462   1.007   6.448   0.521 -1.5062  0.3688 -0.5859
 6174SOL    HW324463   1.010   6.548   0.407  0.8251  0.2516 -0.6796
 6174SOL    MW424464   0.996   6.468   0.437 -0.1150  0.4454  0.3055
 6175SOL     OW24465   2.487   3.103   3.567 -0.6408 -0.6088  0.3103
 6175SOL    HW224466   2.406   3.134   3.527 -0.4607 -1.4499 -0.7607
 6175SOL    HW324467   2.504   3.165   3.638 -2.4771 -0.7122  0.8808
 6175SOL    MW424468   2.479   3.115   3.571 -0.5663  0.0361  0.3980
 6176SOL     OW24469   2.360   2.584   6.317 -0.3723 -0.0729  0.4242
 6176SOL    HW224470   2.417   2.549   6.386 -0.4558 -2.0220 -0.4242
 6176SOL    HW324471   2.341   2.674   6.344  2.0704  0.2288  1.3684
 6176SOL    MW424472   2.365   2.591   6.330 -0.4263 -0.4179  0.5510
 6177SOL     OW24473   0.729   4.776   5.948  0.1614 -0.4706  0.2494
 6177SOL    HW224474   0.697   4.705   5.893  0.6431  0.4446 -1.2758
 6177SOL    HW324475   0.651   4.813   5.989 -0.3174 -0.6101 -0.5205
 6177SOL    MW424476   0.715   4.771   5.946 -0.1896 -0.0816 -0.5367
 6178SOL     OW24477   0.617   6.449   3.751  0.2190  0.5078  0.4296
 6178SOL    HW224478   0.711   6.445   3.764  0.0092 -2.0590  1.8485
 6178SOL    HW324479   0.581   6.473   3.837 -0.4671  0.1579  0.2548
 6178SOL    MW424480   0.624   6.452   3.764 -0.4258 -0.1255 -0.0082
 6179SOL     OW24481   3.438   4.670   1.572 -0.6740 -0.2277 -0.4601
 6179SOL    HW224482   3.437   4.589   1.624 -0.2346  0.2738  0.3470
 6179SOL    HW324483   3.346   4.684   1.548 -0.4871 -2.3511 -2.8447
 6179SOL    MW424484   3.426   4.661   1.576 -0.1250  0.0786 -0.2039
 6180SOL     OW24485   1.945   1.390   1.893 -0.3930 -0.4727 -0.4539
 6180SOL    HW224486   1.946   1.363   1.984 -0.4846  2.9964  0.7205
 6180SOL    HW324487   1.853   1.384   1.866 -1.1566  2.3687  1.1278
 6180SOL    MW424488   1.933   1.385   1.901  0.6374  0.3852 -0.9816
 6181SOL     OW24489   5.587   5.475   0.059 -0.1157 -0.0873  0.0169
 6181SOL    HW224490   5.548   5.396   0.097  0.3469  0.3352  1.4538
 6181SOL    HW324491   5.563   5.544   0.120  1.5564  0.4470  0.1109
 6181SOL    MW424492   5.579   5.473   0.072 -0.3585  0.0901  0.3518
 6182SOL     OW24493   4.769   5.182   3.777  0.0911  0.1967  0.2006
 6182SOL    HW224494   4.797   5.273   3.792  0.6745  0.1525 -0.5534
 6182SOL    HW324495   4.851   5.133   3.769 -0.2206 -0.3635  0.3839
 6182SOL    MW424496   4.783   5.188   3.778 -0.0583  0.9290 -0.4383
 6183SOL     OW24497   3.516   2.051   6.001 -0.3377  0.0176 -0.0826
 6183SOL    HW224498   3.438   2.027   5.951  1.3536 -1.3169 -2.3094
 6183SOL    HW324499   3.519   2.147   5.997 -1.7249  0.0746 -0.1327
 6183SOL    MW424500   3.506   2.061   5.993 -0.2047  0.3594  0.6743
 6184SOL     OW24501   3.613   0.409   5.614 -0.0000 -0.3027 -0.4576
 6184SOL    HW224502   3.551   0.348   5.655  0.3965 -0.9227 -0.7748
 6184SOL    HW324503   3.557   0.471   5.567 -0.4786  0.4919  1.0658
 6184SOL    MW424504   3.597   0.409   5.613 -0.3305 -0.1021  0.4186
 6185SOL     OW24505   6.306   5.710   4.816 -0.1555  0.3991  0.3677
 6185SOL    HW224506   6.256   5.702   4.897  0.2085  1.8930  0.7645
 6185SOL    HW324507   6.309   5.804   4.799 -0.6000  0.1025 -1.6338
 6185SOL    MW424508   6.299   5.721   4.824 -0.0372 -0.0915 -0.1567
 6186SOL     OW24509   1.912   5.565   3.684 -0.3654  0.8319 -0.0443
 6186SOL    HW224510   1.935   5.472   3.691 -1.4241  0.4117 -1.5716
 6186SOL    HW324511   1.967   5.598   3.612  0.8917  1.7332  1.2656
 6186SOL    MW424512   1.922   5.557   3.675  0.5058  0.3834 -0.4326
 6187SOL     OW24513   2.326   4.041   5.541  0.4649 -0.0830 -0.4117
 6187SOL    HW224514   2.357   3.952   5.553  0.2395 -0.1014  0.0781
 6187SOL    HW324515   2.404   4.095   5.553  0.6819 -0.2317 -1.1157
 6187SOL    MW424516   2.340   4.037   5.544 -0.3655  0.3232 -0.4892
 6188SOL     OW24517   5.095   4.038   3.205  0.0057 -0.3048  0.5437
 6188SOL    HW224518   5.155   3.964   3.214  0.4469  0.1274  1.2198
 6188SOL    HW324519   5.131   4.106   3.262  1.5174  1.7413 -2.5475
 6188SOL    MW424520   5.107   4.037   3.214 -0.1465  0.2916  0.2435
 6189SOL     OW24521   2.563   4.970   4.494 -0.1892  0.2679  0.2908
 6189SOL    HW224522   2.503   4.945   4.424 -1.4057  4.3745 -0.4145
 6189SOL    HW324523   2.645   4.991   4.449  0.0147 -0.0850  0.5019
 6189SOL    MW424524   2.566   4.970   4.479  0.0880  0.5069 -0.1785
 6190SOL     OW24525   3.794   3.998   3.001  0.1687  0.2681  0.3086
 6190SOL    HW224526   3.724   3.993   2.936 -0.0636 -0.5457  0.6049
 6190SOL    HW324527   3.840   3.914   2.993  0.4823  0.3848  0.8106
 6190SOL    MW424528   3.791   3.986   2.991  0.4821 -0.3485 -0.0010
 6191SOL     OW24529   0.624   4.244   5.396 -0.3936 -0.1011  0.3707
 6191SOL    HW224530   0.572   4.263   5.318  0.2691  2.3318  0.4368
 6191SOL    HW324531   0.561   4.206   5.458 -1.5011  0.3167 -0.4682
 6191SOL    MW424532   0.609   4.241   5.394  0.6058  0.1351 -0.3215
 6192SOL     OW24533   1.804   4.338   3.184 -0.4547 -0.0597  0.0098
 6192SOL    HW224534   1.836   4.415   3.231 -0.4226  0.1625 -0.3722
 6192SOL    HW324535   1.722   4.368   3.144 -0.9313 -0.4987  0.6315
 6192SOL    MW424536   1.797   4.352   3.185  0.5036  0.4182 -1.2276
 6193SOL     OW24537   6.344   0.959   5.375 -0.2199 -0.1083  0.2792
 6193SOL    HW224538   6.373   0.875   5.339  0.8644  0.0828  0.6668
 6193SOL    HW324539   6.310   0.939   5.462  0.5059 -0.0845  0.5724
 6193SOL    MW424540   6.343   0.946   5.381 -0.0862 -0.0827  0.3596
 6194SOL     OW24541   2.522   2.208   6.354  0.4771 -0.0827  0.1716
 6194SOL    HW224542   2.614   2.185   6.342  0.9657  1.2584  1.1618
 6194SOL    HW324543   2.487   2.213   6.265  1.3615 -0.5933 -0.2136
 6194SOL    MW424544   2.529   2.206   6.340 -0.3052 -0.2489 -0.6137
 6195SOL     OW24545   6.384   2.404   4.633  0.2842  1.0867 -0.1434
 6195SOL    HW224546   6.451   2.460   4.595  0.9724  0.8736  0.7177
 6195SOL    HW324547   6.402   2.406   4.727  0.6736 -1.0109 -0.1198
 6195SOL    MW424548   6.395   2.412   4.641  0.3104 -0.1005 -0.0413
 6196SOL     OW24549   3.913   3.963   5.581  0.0236  0.2498  0.0120
 6196SOL    HW224550   3.885   3.903   5.512  1.8164  0.5149 -1.0105
 6196SOL    HW324551   3.890   4.050   5.548  0.8993  0.3783 -0.2967
 6196SOL    MW424552   3.906   3.966   5.568 -0.5479  0.2459  0.4320
 6197SOL     OW24553   3.657   1.437   2.106 -0.9112 -0.3016 -0.4479
 6197SOL    HW224554   3.563   1.440   2.125 -1.0739  0.5567 -1.2958
 6197SOL    HW324555   3.667   1.361   2.049 -0.8156 -1.3656  0.9358
 6197SOL    MW424556   3.646   1.428   2.101 -0.5639  0.0611 -0.0931
 6198SOL     OW24557   3.839   0.401   2.805  0.5747 -0.4801  0.1526
 6198SOL    HW224558   3.830   0.455   2.884 -0.4101 -0.1656 -0.1679
 6198SOL    HW324559   3.912   0.441   2.757  2.0796 -1.4560  1.5083
 6198SOL    MW424560   3.848   0.413   2.809  0.6528 -0.1783  0.2978
 6199SOL     OW24561   1.316   5.006   3.451  0.4127 -0.1557  0.1723
 6199SOL    HW224562   1.368   5.078   3.416  0.8170 -0.5549 -0.0524
 6199SOL    HW324563   1.225   5.030   3.431  0.5458  0.2693  0.0706
 6199SOL    MW424564   1.311   5.019   3.444 -0.1318  0.0666 -0.0385
 6200SOL     OW24565   5.305   2.294   5.673  0.6348 -0.8590 -0.2856
 6200SOL    HW224566   5.234   2.354   5.698  0.7815  0.1207 -2.0811
 6200SOL    HW324567   5.282   2.212   5.717 -1.8907 -0.7130 -1.1381
 6200SOL    MW424568   5.292   2.291   5.682 -0.3361  0.1376  0.2409
 6201SOL     OW24569   5.443   0.338   2.410 -1.0197 -0.0446 -0.0727
 6201SOL    HW224570   5.460   0.340   2.316 -2.1556  0.0214 -0.2844
 6201SOL    HW324571   5.419   0.428   2.432  0.7778  0.3183  0.6008
 6201SOL    MW424572   5.442   0.351   2.401  0.2215 -0.6422 -0.2591
 6202SOL     OW24573   2.040   1.434   5.651 -0.0480  0.1062 -0.2151
 6202SOL    HW224574   2.129   1.451   5.621 -0.8607  0.9222 -2.3728
 6202SOL    HW324575   2.020   1.345   5.621  0.0940 -0.1280  0.3887
 6202SOL    MW424576   2.049   1.425   5.643 -0.1570 -0.0638 -0.4550
 6203SOL     OW24577   2.347   4.339   6.329 -0.6022 -0.5302 -0.2789
 6203SOL    HW224578   2.285   4.308   6.264 -1.1559 -0.3141  0.1386
 6203SOL    HW324579   2.319   4.297   6.411  0.4600 -1.2992 -0.2883
 6203SOL    MW424580   2.335   4.330   6.331  0.1299 -0.1524 -0.6268
 6204SOL     OW24581   0.056   5.204   6.043  0.1162  0.3113  0.2277
 6204SOL    HW224582   0.095   5.285   6.010 -1.1872  1.2892  0.9801
 6204SOL    HW324583   0.108   5.181   6.119  1.1570 -0.1759 -0.6104
 6204SOL    MW424584   0.068   5.212   6.049  0.4368 -0.2232 -0.3725
 6205SOL     OW24585   1.259   5.463   6.285 -0.2273 -0.3865  0.5413
 6205SOL    HW224586   1.305   5.456   6.202 -3.1010 -2.9304 -1.0703
 6205SOL    HW324587   1.226   5.553   6.287  0.5332 -0.0614 -0.6944
 6205SOL    MW424588   1.260   5.474   6.274  0.0887  0.3052 -0.1108
 6206SOL     OW24589   5.323   6.447   5.723 -0.1853  0.0745 -0.4588
 6206SOL    HW224590   5.294   6.432   5.813 -0.1633  0.7693 -0.3248
 6206SOL    HW324591   5.344   6.541   5.720  2.5802 -0.4521 -0.3953
 6206SOL    MW424592   5.322   6.458   5.735  0.3761 -0.4151 -0.6116
 6207SOL     OW24593   0.868   0.124   3.092 -0.4400  0.3626 -0.0862
 6207SOL    HW224594   0.877   0.160   3.180 -3.0124 -1.7240  1.1706
 6207SOL    HW324595   0.940   0.061   3.084  0.1613  0.9895  0.2415
 6207SOL    MW424596   0.879   0.120   3.102 -0.6349  0.5234  0.0099
 6208SOL     OW24597   4.611   3.892   0.301  0.5445  1.0404 -0.5669
 6208SOL    HW224598   4.579   3.805   0.325  2.1464  0.5710 -0.0007
 6208SOL    HW324599   4.603   3.943   0.382  0.2691  1.2116 -0.7030
 6208SOL    MW424600   4.606   3.887   0.315  0.0959 -0.4216  1.2282
 6209SOL     OW24601   4.253   1.697   3.643  0.3669 -0.5840 -0.7147
 6209SOL    HW224602   4.160   1.710   3.664  0.0457 -0.6654 -1.9571
 6209SOL    HW324603   4.283   1.782   3.613  0.3749 -0.8199 -1.3993
 6209SOL    MW424604   4.244   1.710   3.642 -0.3046 -0.1671  0.4954
 6210SOL     OW24605   0.322   4.019   3.737  0.2437  0.4970  0.0788
 6210SOL    HW224606   0.341   4.003   3.829 -0.1936  2.0753  0.4769
 6210SOL    HW324607   0.278   3.940   3.707  0.7224 -0.1835  1.1194
 6210SOL    MW424608   0.319   4.007   3.745  0.6309 -0.0749  0.1972
 6211SOL     OW24609   1.275   5.576   5.319  0.0280 -0.3835  0.6204
 6211SOL    HW224610   1.196   5.537   5.280  0.5953 -1.2879  0.3526
 6211SOL    HW324611   1.299   5.646   5.259  0.0529 -0.8199  0.1108
 6211SOL    MW424612   1.268   5.580   5.306  0.1330  0.5581 -0.1607
 6212SOL     OW24613   4.072   2.716   2.245 -0.0068 -0.0067 -0.0898
 6212SOL    HW224614   4.117   2.763   2.315  0.9863 -0.9829 -0.0426
 6212SOL    HW324615   3.980   2.738   2.256  0.0743 -0.4593  1.7835
 6212SOL    MW424616   4.066   2.725   2.256  0.0300  0.0573 -0.1261
 6213SOL     OW24617   4.621   0.832   0.146 -0.1643 -0.1701  0.2531
 6213SOL    HW224618   4.654   0.883   0.220 -0.5706  0.0256  0.3037
 6213SOL    HW324619   4.556   0.889   0.105  0.3378 -0.1219 -0.4968
 6213SOL    MW424620   4.617   0.846   0.151 -0.3676  0.0458  0.0523
 6214SOL     OW24621   1.206   1.293   0.755 -0.1882  0.2615  0.1764
 6214SOL    HW224622   1.260   1.333   0.688  1.3513 -0.9912  0.6112
 6214SOL    HW324623   1.163   1.220   0.711  3.8122 -3.0807  1.1878
 6214SOL    MW424624   1.207   1.288   0.740  0.5412 -0.0667 -0.2692
 6215SOL     OW24625   0.971   1.660   0.140  0.1083 -0.0810 -0.6413
 6215SOL    HW224626   0.988   1.648   0.233 -1.5216  0.6074 -0.2249
 6215SOL    HW324627   0.901   1.599   0.120  0.4045 -0.1809 -1.4127
 6215SOL    MW424628   0.964   1.650   0.149 -0.3067 -0.2023  0.0077
 6216SOL     OW24629   5.511   4.880   5.906 -0.2762 -0.0109 -0.8121
 6216SOL    HW224630   5.575   4.809   5.900 -0.0873  0.2744 -2.8822
 6216SOL    HW324631   5.551   4.943   5.965  0.8391 -0.3612 -1.1666
 6216SOL    MW424632   5.525   4.879   5.913 -0.0174  0.4374  0.4599
 6217SOL     OW24633   2.877   5.360   2.031 -0.5350  0.6693 -0.4026
 6217SOL    HW224634   2.804   5.373   2.090 -0.5939 -0.9762 -0.0822
 6217SOL    HW324635   2.842   5.308   1.959 -0.2401  1.8704 -1.4715
 6217SOL    MW424636   2.863   5.355   2.029  0.2566  0.5082 -0.0449
 6218SOL     OW24637   5.128   2.294   3.107  0.3420 -0.0875  0.1375
 6218SOL    HW224638   5.048   2.242   3.106  0.8907 -0.9982 -1.9600
 6218SOL    HW324639   5.098   2.385   3.113 -0.8428 -0.4284 -0.3033
 6218SOL    MW424640   5.114   2.299   3.107  0.8256  0.2230  0.1036
 6219SOL     OW24641   5.786   4.035   0.495 -0.3912 -0.2391  0.7087
 6219SOL    HW224642   5.877   4.035   0.523  1.0797 -2.5741 -3.2799
 6219SOL    HW324643   5.781   4.101   0.426 -1.5641 -0.4565  0.5506
 6219SOL    MW424644   5.797   4.044   0.489 -0.1778 -0.4085  0.2705
 6220SOL     OW24645   3.146   3.322   2.216 -0.1565  0.1974  0.3879
 6220SOL    HW224646   3.148   3.375   2.296  1.3609  0.1637  0.4159
 6220SOL    HW324647   3.115   3.382   2.148  0.7159  0.9009  0.5886
 6220SOL    MW424648   3.142   3.337   2.218 -0.0635 -0.0212  0.1523
 6221SOL     OW24649   4.678   5.184   4.642  0.2229  0.4255 -0.8370
 6221SOL    HW224650   4.653   5.266   4.685  1.2306  0.0888  0.4680
 6221SOL    HW324651   4.626   5.182   4.562 -0.4669  1.9138 -0.4651
 6221SOL    MW424652   4.668   5.194   4.637  0.4213  0.5203 -0.1333
 6222SOL     OW24653   0.876   5.411   1.699  0.0142 -0.2733 -0.1842
 6222SOL    HW224654   0.833   5.496   1.707 -1.2313 -0.8122 -0.8701
 6222SOL    HW324655   0.921   5.399   1.783 -0.8006  0.5186  0.3901
 6222SOL    MW424656   0.876   5.420   1.711  0.4477  0.3814 -0.2769
 6223SOL     OW24657   1.832   2.723   4.367  0.1889  0.3758 -0.3007
 6223SOL    HW224658   1.754   2.730   4.422 -1.7966 -1.9071 -2.5836
 6223SOL    HW324659   1.865   2.813   4.362 -1.4695  1.1990  1.8328
 6223SOL    MW424660   1.826   2.736   4.374 -0.0894 -0.1335 -0.1699
 6224SOL     OW24661   1.425   5.860   3.211 -0.1585 -0.0911 -0.3517
 6224SOL    HW224662   1.495   5.926   3.216  0.7119 -0.9065 -1.1223
 6224SOL    HW324663   1.379   5.881   3.130  0.5328 -0.7967 -0.9423
 6224SOL    MW424664   1.428   5.872   3.201  0.1823 -0.6265  0.3057
 6225SOL     OW24665   6.350   1.552   4.475 -0.1361 -0.2086 -0.2478
 6225SOL    HW224666   6.344   1.636   4.429 -1.2954 -0.7556 -1.1529
 6225SOL    HW324667   6.309   1.490   4.416  2.1981 -1.7694 -0.3565
 6225SOL    MW424668   6.344   1.555   4.461 -0.1203  0.5012 -0.7069
 6226SOL     OW24669   0.961   4.470   1.266 -0.3335  0.5555 -0.1225
 6226SOL    HW224670   1.016   4.398   1.236 -0.7175  0.2925 -0.2005
 6226SOL    HW324671   0.875   4.431   1.281 -1.1059  1.3437 -2.1133
 6226SOL    MW424672   0.957   4.455   1.264  0.0789 -0.2883 -0.3275
 6227SOL     OW24673   2.743   6.239   2.076  0.2302  0.3623 -0.0941
 6227SOL    HW224674   2.749   6.155   2.029 -0.4932  0.0221  0.4016
 6227SOL    HW324675   2.685   6.292   2.021 -0.3888  0.0628  0.2585
 6227SOL    MW424676   2.736   6.235   2.062 -0.1761 -0.4872  0.0793
 6228SOL     OW24677   3.400   4.413   1.708  0.1534  0.2752 -0.3498
 6228SOL    HW224678   3.428   4.356   1.780 -0.3412  3.2643  2.4712
 6228SOL    HW324679   3.320   4.373   1.675  0.1305 -0.9648  1.1234
 6228SOL    MW424680   3.393   4.400   1.713  0.5100 -0.1346  0.1158
 6229SOL     OW24681   0.873   0.965   4.520 -0.0028  0.4896  0.3369
 6229SOL    HW224682   0.890   1.059   4.525  0.6569  0.4878 -1.2217
 6229SOL    HW324683   0.867   0.947   4.426 -0.7771 -0.9172  0.6339
 6229SOL    MW424684   0.875   0.975   4.508 -0.0851 -0.5331 -0.3425
 6230SOL     OW24685   5.715   2.070   3.867 -0.1315 -0.0161 -0.0695
 6230SOL    HW224686   5.635   2.083   3.816 -0.1376  1.3142  0.2401
 6230SOL    HW324687   5.786   2.087   3.805 -0.0876 -0.7314 -0.2228
 6230SOL    MW424688   5.714   2.074   3.852  0.3279  0.2811  0.6049
 6231SOL     OW24689   2.351   4.590   3.483  0.2131 -0.3356 -0.4226
 6231SOL    HW224690   2.404   4.662   3.449  0.2886 -0.7626 -1.2383
 6231SOL    HW324691   2.409   4.514   3.480 -0.2631 -0.6899 -0.7914
 6231SOL    MW424692   2.365   4.590   3.478  0.0640  0.0430  0.0283
 6232SOL     OW24693   5.733   5.044   5.019 -0.3818  0.0719  0.2276
 6232SOL    HW224694   5.650   4.997   5.027 -1.5412  1.8455 -0.5562
 6232SOL    HW324695   5.775   5.033   5.104 -1.5094 -0.7095  0.7111
 6232SOL    MW424696   5.728   5.037   5.031  0.2012 -0.4513 -0.5610
 6233SOL     OW24697   4.560   3.986   2.274  0.2287 -0.1884  0.2186
 6233SOL    HW224698   4.587   3.896   2.293 -0.9605 -0.4155  0.9542
 6233SOL    HW324699   4.468   3.989   2.301  0.6821  1.6914  1.8152
 6233SOL    MW424700   4.551   3.975   2.280  0.0153  0.0806  0.4150
 6234SOL     OW24701   3.774   5.588   0.566 -0.0213 -0.6888 -0.1017
 6234SOL    HW224702   3.687   5.613   0.596  0.5187  1.1650  0.0246
 6234SOL    HW324703   3.824   5.670   0.565  2.1677 -1.9185  1.2645
 6234SOL    MW424704   3.769   5.602   0.569 -0.0912  0.2939  0.1235
 6235SOL     OW24705   1.233   2.229   1.493 -0.0111  0.6763 -0.3135
 6235SOL    HW224706   1.185   2.147   1.504  1.9096 -0.2412  2.4182
 6235SOL    HW324707   1.317   2.204   1.454  0.2238  1.4728 -0.3592
 6235SOL    MW424708   1.238   2.215   1.489  0.3999  0.3066 -0.4279
 6236SOL     OW24709   4.599   4.668   4.247  0.5358  0.7396 -0.7584
 6236SOL    HW224710   4.635   4.737   4.192  0.3390  0.4040 -1.3111
 6236SOL    HW324711   4.572   4.599   4.186 -0.5396  0.7553 -0.3198
 6236SOL    MW424712   4.600   4.668   4.232  0.5554  0.0160  0.4062
 6237SOL     OW24713   0.392   5.374   5.526 -0.6110 -0.5361 -0.3762
 6237SOL    HW224714   0.353   5.346   5.444 -0.9915  0.7016 -0.6308
 6237SOL    HW324715   0.321   5.367   5.590  0.0026 -2.6996  0.1575
 6237SOL    MW424716   0.378   5.369   5.524 -0.2382  0.1981  0.0579
 6238SOL     OW24717   6.211   1.664   2.306  0.0839  0.0371  0.2400
 6238SOL    HW224718   6.169   1.703   2.382 -0.9925 -0.1263 -0.2541
 6238SOL    HW324719   6.241   1.579   2.338  0.1319  0.1959  0.6299
 6238SOL    MW424720   6.209   1.658   2.320 -0.3604 -0.3371  0.3386
 6239SOL     OW24721   3.795   5.497   6.314  0.3766  0.3856 -0.7452
 6239SOL    HW224722   3.773   5.526   6.402  0.0731 -2.9826  0.4291
 6239SOL    HW324723   3.839   5.572   6.274 -0.0317  2.2320  2.0343
 6239SOL    MW424724   3.798   5.511   6.320 -0.0501 -0.2026  0.0439
 6240SOL     OW24725   0.165   4.646   2.588 -0.6961  0.1990 -0.3373
 6240SOL    HW224726   0.135   4.683   2.505 -1.8083 -2.1800 -1.0748
 6240SOL    HW324727   0.086   4.615   2.631 -0.2214  1.8936  1.9738
 6240SOL    MW424728   0.151   4.647   2.583 -0.5496 -0.6739 -0.0192
 6241SOL     OW24729   3.131   2.513   3.039  0.4228 -0.0884 -0.0676
 6241SOL    HW224730   3.106   2.587   2.984  1.3061  1.3757  1.4030
 6241SOL    HW324731   3.206   2.474   2.995  0.2372  0.1775 -0.6264
 6241SOL    MW424732   3.137   2.517   3.026 -0.0106  0.1265  0.1575
 6242SOL     OW24733   4.089   1.743   6.037  0.4979  0.1246  0.1546
 6242SOL    HW224734   4.096   1.798   6.115 -0.0007  0.1332  0.1971
 6242SOL    HW324735   4.179   1.723   6.013  0.6790 -2.1088  2.3035
 6242SOL    MW424736   4.102   1.748   6.044  0.2295 -0.3853  0.3524
 6243SOL     OW24737   0.726   3.544   2.706 -0.1699  0.1508 -0.0713
 6243SOL    HW224738   0.794   3.586   2.760  1.8980  0.5867 -2.7836
 6243SOL    HW324739   0.650   3.600   2.717  0.4633  0.7595  1.6128
 6243SOL    MW424740   0.725   3.557   2.715  0.4191  0.7581  0.2145
 6244SOL     OW24741   4.868   1.516   5.825 -0.3043 -0.2584  0.6514
 6244SOL    HW224742   4.794   1.456   5.833  1.6395 -2.9232  0.3443
 6244SOL    HW324743   4.939   1.462   5.789  1.9055  2.0222  1.2347
 6244SOL    MW424744   4.868   1.501   5.821 -0.0803  0.4138  0.0532
 6245SOL     OW24745   1.739   2.415   1.350 -0.2455  0.0529 -0.0907
 6245SOL    HW224746   1.784   2.496   1.325 -0.6516 -0.0106 -1.0657
 6245SOL    HW324747   1.810   2.356   1.376  0.0430  0.7654  0.7932
 6245SOL    MW424748   1.754   2.418   1.350  0.3735  0.5070  0.4458
 6246SOL     OW24749   6.084   3.953   3.036 -0.3115 -0.2415  0.1061
 6246SOL    HW224750   5.994   3.974   3.010 -0.5822 -2.1475 -0.6415
 6246SOL    HW324751   6.078   3.927   3.128 -0.9709 -2.6017 -0.5435
 6246SOL    MW424752   6.072   3.952   3.045  0.3088 -0.0831 -0.3485
 6247SOL     OW24753   2.411   3.765   3.597 -0.4097  0.0062  0.3547
 6247SOL    HW224754   2.497   3.799   3.569 -1.9712  2.1804 -2.3375
 6247SOL    HW324755   2.422   3.670   3.597  1.4877  0.1220 -1.9952
 6247SOL    MW424756   2.424   3.757   3.593 -0.1856  0.0759 -0.2453
 6248SOL     OW24757   3.162   5.320   1.244  0.1820 -0.3100  0.2534
 6248SOL    HW224758   3.118   5.322   1.160 -0.9840  1.1021  0.8558
 6248SOL    HW324759   3.095   5.293   1.306  0.8970 -0.8548  0.8174
 6248SOL    MW424760   3.148   5.317   1.241 -0.6657 -0.1750 -0.0708
 6249SOL     OW24761   3.221   4.848   3.244 -0.5633  0.1912  0.3136
 6249SOL    HW224762   3.142   4.881   3.287 -1.1239 -1.0025  0.2176
 6249SOL    HW324763   3.190   4.783   3.181  0.4925 -0.3953  0.3677
 6249SOL    MW424764   3.206   4.844   3.242 -0.0637  0.3164 -0.3000
 6250SOL     OW24765   3.839   1.905   3.839 -1.0385  0.1884 -0.5778
 6250SOL    HW224766   3.880   1.984   3.875 -2.3198  0.8347 -0.4835
 6250SOL    HW324767   3.746   1.926   3.835 -1.3867 -1.2870 -0.6763
 6250SOL    MW424768   3.832   1.918   3.843  0.5192 -0.3587 -0.4333
 6251SOL     OW24769   1.627   5.616   4.676  0.1645  0.0682 -0.2530
 6251SOL    HW224770   1.635   5.610   4.581 -1.6273  0.9578 -0.5013
 6251SOL    HW324771   1.543   5.659   4.690 -0.2429 -1.2515  1.7592
 6251SOL    MW424772   1.617   5.621   4.665 -0.5848  0.1255  0.1098
 6252SOL     OW24773   4.783   0.352   4.731  0.4062 -0.4865  0.2984
 6252SOL    HW224774   4.736   0.387   4.655  0.5159 -1.4328 -0.2222
 6252SOL    HW324775   4.715   0.335   4.795  0.2822  0.0880  0.3253
 6252SOL    MW424776   4.768   0.355   4.729  0.3358  0.0258  0.2713
 6253SOL     OW24777   5.523   1.316   3.141 -0.0516  0.4139  0.2665
 6253SOL    HW224778   5.560   1.315   3.229  0.1670  0.6343  0.1778
 6253SOL    HW324779   5.521   1.408   3.116 -0.3295  0.3745  0.1303
 6253SOL    MW424780   5.528   1.328   3.149  0.7414  0.5719  0.3757
 6254SOL     OW24781   1.772   1.571   5.691  0.5869  0.1291  0.5538
 6254SOL    HW224782   1.854   1.521   5.690 -0.3151 -1.4099  0.3354
 6254SOL    HW324783   1.704   1.505   5.679 -0.8538  1.0916  2.8791
 6254SOL    MW424784   1.774   1.556   5.689 -0.5133 -0.6983 -0.4481
 6255SOL     OW24785   0.014   3.593   1.954 -0.0291 -0.2146  0.6177
 6255SOL    HW224786   0.080   3.661   1.946  0.4626 -0.6134  1.1217
 6255SOL    HW324787   0.037   3.529   1.887 -1.7939  1.1184 -1.3783
 6255SOL    MW424788   0.026   3.593   1.944 -0.0942  1.0358 -0.3668
 6256SOL     OW24789   2.636   1.569   5.885  0.3767 -0.0226 -0.4923
 6256SOL    HW224790   2.562   1.628   5.869 -1.2083 -1.0689  2.2573
 6256SOL    HW324791   2.684   1.611   5.956 -0.4732 -1.6418  1.1382
 6256SOL    MW424792   2.632   1.582   5.892 -0.3542 -0.7065 -0.0434
 6257SOL     OW24793   3.599   0.538   0.071 -0.9971  0.0737  0.0275
 6257SOL    HW224794   3.516   0.582   0.054 -0.7758  0.9555  1.1666
 6257SOL    HW324795   3.603   0.469   0.004 -1.8662  1.0568 -1.0787
 6257SOL    MW424796   3.589   0.535   0.060  0.2423 -0.2991  0.4840
 6258SOL     OW24797   5.276   5.756   1.348 -0.3886  0.8816 -0.0444
 6258SOL    HW224798   5.319   5.682   1.391 -0.5307  0.8660  0.0721
 6258SOL    HW324799   5.216   5.715   1.285  1.9930  0.8801 -2.5069
 6258SOL    MW424800   5.274   5.741   1.345 -0.0840 -0.3056 -0.4681
 6259SOL     OW24801   0.705   0.440   1.829 -0.3331 -0.0716 -0.2469
 6259SOL    HW224802   0.704   0.532   1.855  2.9032 -0.2853  1.1172
 6259SOL    HW324803   0.663   0.394   1.902 -0.8649  0.2195 -0.3684
 6259SOL    MW424804   0.700   0.446   1.842  0.3409  0.1960  0.9060
 6260SOL     OW24805   2.683   1.142   5.383  0.2780 -0.0857 -0.1981
 6260SOL    HW224806   2.690   1.096   5.466 -2.6166  0.9188  0.7347
 6260SOL    HW324807   2.682   1.073   5.317  1.4569 -0.9695  0.6821
 6260SOL    MW424808   2.684   1.127   5.385  0.0815  0.0298 -0.8428
 6261SOL     OW24809   0.770   3.170   4.443 -0.2693 -0.0605  0.5281
 6261SOL    HW224810   0.772   3.136   4.354  4.2425  0.6918  0.0868
 6261SOL    HW324811   0.744   3.262   4.433 -1.5440 -0.4263  0.2979
 6261SOL    MW424812   0.767   3.178   4.430 -0.5337  0.2223  0.1690
 6262SOL     OW24813   5.020   2.679   4.880  0.1180  0.0178  0.4855
 6262SOL    HW224814   5.064   2.657   4.797  0.4089  2.1205  0.0159
 6262SOL    HW324815   5.091   2.708   4.937 -0.3874  1.8746  0.2633
 6262SOL    MW424816   5.035   2.680   4.876  0.5788 -0.0745 -0.1224
 6263SOL     OW24817   6.212   6.283   1.994  0.0173 -0.1052 -0.0450
 6263SOL    HW224818   6.248   6.371   2.004 -1.1384  0.1993  1.9989
 6263SOL    HW324819   6.193   6.254   2.083 -2.3384 -1.2419 -0.8278
 6263SOL    MW424820   6.214   6.291   2.007  0.9429 -0.7466  0.2114
 6264SOL     OW24821   6.202   5.561   0.824  0.5727  0.0139  0.6290
 6264SOL    HW224822   6.199   5.574   0.729 -0.0625  1.2192  0.7887
 6264SOL    HW324823   6.203   5.650   0.860  0.3381 -0.4243  1.7601
 6264SOL    MW424824   6.201   5.575   0.816  0.0354  0.4938 -0.2565
 6265SOL     OW24825   6.037   4.085   3.409  0.4531 -0.5591 -0.1448
 6265SOL    HW224826   5.974   4.136   3.460  1.0588 -0.2186  0.2872
 6265SOL    HW324827   5.987   4.011   3.375 -0.3636  0.1295 -0.4886
 6265SOL    MW424828   6.023   4.082   3.411  0.2290  0.4115  0.1373
 6266SOL     OW24829   5.939   4.577   2.619 -0.2233  0.5825 -0.4350
 6266SOL    HW224830   5.959   4.657   2.669 -0.6713  1.1648 -1.1697
 6266SOL    HW324831   5.846   4.562   2.636 -0.7417  1.5642 -2.1343
 6266SOL    MW424832   5.929   4.586   2.628  0.4343  0.0573 -0.0538
 6267SOL     OW24833   2.559   2.932   4.611 -0.2057 -0.4500  0.2731
 6267SOL    HW224834   2.490   2.990   4.643  0.7413 -0.0203  1.6273
 6267SOL    HW324835   2.626   2.992   4.578  0.0281 -0.8292  0.0600
 6267SOL    MW424836   2.559   2.948   4.611 -0.4645  0.3101  0.1827
 6268SOL     OW24837   2.028   0.257   3.018  0.6395 -0.3908 -1.1387
 6268SOL    HW224838   2.027   0.347   3.052 -2.6202 -0.5516 -0.5194
 6268SOL    HW324839   1.936   0.230   3.020  1.5379 -3.8158 -1.1646
 6268SOL    MW424840   2.016   0.266   3.023 -0.0475 -0.0337  0.3957
 6269SOL     OW24841   1.664   5.734   0.079  0.4643  0.1913  0.2806
 6269SOL    HW224842   1.586   5.725   0.135 -0.3503 -1.4845 -1.0392
 6269SOL    HW324843   1.737   5.735   0.141 -0.5086  0.5697  1.4845
 6269SOL    MW424844   1.663   5.733   0.095  0.2130  0.0159 -0.0577
 6270SOL     OW24845   4.274   6.412   0.266  1.3498  0.2278 -0.2338
 6270SOL    HW224846   4.271   6.408   0.362  0.1160 -0.0395 -0.2745
 6270SOL    HW324847   4.257   6.504   0.245 -3.2476 -0.4113 -0.2846
 6270SOL    MW424848   4.272   6.424   0.276  0.1147  0.1079 -0.0894
 6271SOL     OW24849   4.835   6.285   1.455  0.2263  0.4274  0.1112
 6271SOL    HW224850   4.752   6.248   1.483 -0.7713  0.9340 -1.9770
 6271SOL    HW324851   4.888   6.289   1.535 -0.9563 -1.8858  1.1047
 6271SOL    MW424852   4.831   6.281   1.469 -0.2553  0.3007  0.1569
 6272SOL     OW24853   5.362   3.113   6.262  0.0476 -0.5239 -0.2453
 6272SOL    HW224854   5.350   3.188   6.203 -0.5494 -0.4179  0.0026
 6272SOL    HW324855   5.354   3.151   6.350  1.3234 -0.6106 -0.0706
 6272SOL    MW424856   5.359   3.128   6.266  1.0409  0.5237  0.1036
 6273SOL     OW24857   3.169   2.372   0.118 -0.3393  0.1447  0.5066
 6273SOL    HW224858   3.151   2.455   0.074 -0.8178 -0.1026  0.2288
 6273SOL    HW324859   3.131   2.305   0.061 -1.1269 -0.1671  1.3614
 6273SOL    MW424860   3.162   2.374   0.105  1.0005 -0.0555  0.3239
 6274SOL     OW24861   6.279   0.746   3.351 -0.1642  0.6316  0.8506
 6274SOL    HW224862   6.337   0.766   3.425  1.4156  1.7044 -0.5920
 6274SOL    HW324863   6.233   0.667   3.377  0.0737  1.1735  3.1218
 6274SOL    MW424864   6.281   0.739   3.364  0.3495 -0.5178 -0.1751
 6275SOL     OW24865   5.236   3.979   3.842 -0.5484  0.4593  0.1514
 6275SOL    HW224866   5.253   4.050   3.779 -1.5092  0.6574  0.1100
 6275SOL    HW324867   5.235   3.900   3.788 -0.5301  0.5332  0.0405
 6275SOL    MW424868   5.238   3.978   3.826 -0.8636  0.5247  0.0090
 6276SOL     OW24869   3.830   6.148   4.160 -0.2739 -0.6966  0.2225
 6276SOL    HW224870   3.804   6.239   4.153  0.9366 -0.3548 -0.0257
 6276SOL    HW324871   3.819   6.112   4.072 -1.9264 -1.1490  0.5741
 6276SOL    MW424872   3.825   6.155   4.148  0.4990 -0.2489  0.7635
 6277SOL     OW24873   0.529   3.886   1.126 -0.2186  0.1744  0.1583
 6277SOL    HW224874   0.462   3.953   1.114  0.3206  0.8136  0.5990
 6277SOL    HW324875   0.570   3.877   1.040 -0.0717  0.6616  0.1715
 6277SOL    MW424876   0.526   3.894   1.113  0.2898 -0.1094  0.0359
 6278SOL     OW24877   2.243   5.310   5.121 -0.2444  0.1067 -0.3389
 6278SOL    HW224878   2.174   5.364   5.081  0.7428  0.9794 -0.8966
 6278SOL    HW324879   2.208   5.288   5.208 -1.4774  0.0307 -0.8284
 6278SOL    MW424880   2.229   5.314   5.127  0.2257 -0.2842 -0.3050
 6279SOL     OW24881   2.840   0.237   5.622  0.1434 -0.1679 -0.3398
 6279SOL    HW224882   2.883   0.156   5.649  0.9412  0.7180  1.2000
 6279SOL    HW324883   2.912   0.297   5.603 -0.4260 -0.1006 -2.4649
 6279SOL    MW424884   2.855   0.235   5.623  0.0056 -0.2966 -0.6831
 6280SOL     OW24885   3.223   3.795   3.522  0.1053  0.3559 -0.2063
 6280SOL    HW224886   3.183   3.882   3.532 -0.0193  0.3104 -0.3033
 6280SOL    HW324887   3.225   3.759   3.611 -0.4104  0.2105 -0.2509
 6280SOL    MW424888   3.218   3.802   3.535  0.4909 -0.0652  0.1011
 6281SOL     OW24889   0.704   5.859   0.645 -0.4374 -0.3986 -0.3756
 6281SOL    HW224890   0.709   5.868   0.740  0.5199 -0.4610 -0.4067
 6281SOL    HW324891   0.722   5.766   0.628 -0.4033 -0.3488 -0.6269
 6281SOL    MW424892   0.707   5.848   0.655 -0.1155 -0.7914 -0.1834
 6282SOL     OW24893   3.120   6.242   1.445  0.1907  0.6756  0.1528
 6282SOL    HW224894   3.101   6.153   1.473 -3.9216  1.2519 -0.1228
 6282SOL    HW324895   3.133   6.291   1.526  0.4499  0.1850  0.4098
 6282SOL    MW424896   3.119   6.237   1.459  0.1152  0.0943  0.0219
 6283SOL     OW24897   5.232   1.406   3.487 -0.0568 -0.3725  0.4901
 6283SOL    HW224898   5.296   1.378   3.552 -1.2867 -1.1434  1.4024
 6283SOL    HW324899   5.249   1.500   3.476  3.1020 -1.0400 -1.4606
 6283SOL    MW424900   5.242   1.415   3.494  0.4308  0.4467 -0.8272
 6284SOL     OW24901   6.096   0.575   0.750  0.5191 -0.4230  0.0534
 6284SOL    HW224902   6.172   0.574   0.691 -0.4238 -1.0843 -1.2022
 6284SOL    HW324903   6.110   0.650   0.807  1.3424  0.4066 -1.2077
 6284SOL    MW424904   6.108   0.585   0.749 -0.3621  0.4793  0.0085
 6285SOL     OW24905   6.399   5.093   4.718  0.2686 -0.3041 -0.5886
 6285SOL    HW224906   6.346   5.067   4.643 -0.9564 -0.2010  0.2147
 6285SOL    HW324907   6.407   5.013   4.771  2.0507 -0.6665 -1.3219
 6285SOL    MW424908   6.393   5.079   4.716 -0.0401  0.4984  0.0323
 6286SOL     OW24909   4.088   4.177   3.825  0.3748  0.2200 -0.3758
 6286SOL    HW224910   4.147   4.232   3.774 -1.2658  1.2836 -1.1821
 6286SOL    HW324911   4.068   4.103   3.768 -1.3600  1.3461 -1.2937
 6286SOL    MW424912   4.093   4.174   3.811 -0.0256  0.1254 -0.2399
 6287SOL     OW24913   6.371   1.918   1.419 -0.1968  0.2702 -0.6432
 6287SOL    HW224914   6.337   1.982   1.357 -0.6528  0.8359  0.1891
 6287SOL    HW324915   6.323   1.837   1.399 -0.0849  0.3523 -1.2559
 6287SOL    MW424916   6.360   1.916   1.408 -0.0451  0.2973 -0.1991
 6288SOL     OW24917   5.504   5.521   4.074 -0.0059  0.1420  0.2847
 6288SOL    HW224918   5.594   5.539   4.047  0.1421  0.0937  0.7514
 6288SOL    HW324919   5.487   5.582   4.146 -0.2326 -0.0847  0.4250
 6288SOL    MW424920   5.514   5.531   4.080 -0.0562 -0.2740  0.1298
 6289SOL     OW24921   0.844   1.961   1.354  0.4617  0.2867  0.1028
 6289SOL    HW224922   0.810   2.050   1.353  1.0615  0.5216  0.0720
 6289SOL    HW324923   0.902   1.957   1.278 -1.8735 -1.0656 -1.7439
 6289SOL    MW424924   0.847   1.972   1.344  0.0715 -0.1133  0.3253
 6290SOL     OW24925   3.798   2.746   2.321 -0.2226  0.3092  0.1043
 6290SOL    HW224926   3.737   2.801   2.370 -0.0277  0.5291  0.1044
 6290SOL    HW324927   3.744   2.705   2.253 -0.1746  1.3415 -0.5732
 6290SOL    MW424928   3.783   2.748   2.318  0.2841 -0.3156 -0.0357
 6291SOL     OW24929   4.283   5.354   2.021 -0.1830 -0.3315 -0.2919
 6291SOL    HW224930   4.361   5.340   1.966  0.7516  2.1829  0.2890
 6291SOL    HW324931   4.319   5.383   2.105 -1.7530  1.6250 -0.2516
 6291SOL    MW424932   4.298   5.356   2.024 -0.0046 -0.5077  0.0849
 6292SOL     OW24933   3.269   4.882   2.779 -0.3287 -0.0888 -0.7170
 6292SOL    HW224934   3.208   4.946   2.741  1.0070  1.4843 -0.3094
 6292SOL    HW324935   3.213   4.820   2.826 -1.5661  2.0186  0.7109
 6292SOL    MW424936   3.253   4.882   2.780 -0.2852 -0.2055  0.1503
 6293SOL     OW24937   1.205   3.870   5.765 -0.0692  0.5829  0.5233
 6293SOL    HW224938   1.215   3.806   5.695 -0.7653 -0.5580  1.4347
 6293SOL    HW324939   1.294   3.902   5.781  0.7064 -1.8581  1.5924
 6293SOL    MW424940   1.218   3.866   5.758 -0.2840 -0.3728  0.3921
 6294SOL     OW24941   3.498   1.759   2.119  0.0050  0.2026  0.3379
 6294SOL    HW224942   3.544   1.745   2.202 -1.4089 -1.8194  0.8493
 6294SOL    HW324943   3.421   1.811   2.142  0.0066  0.2950  0.1409
 6294SOL    MW424944   3.494   1.764   2.133 -0.4861 -0.2136  0.0112
 6295SOL     OW24945   1.621   3.525   5.334 -0.0569  0.9193 -0.5555
 6295SOL    HW224946   1.547   3.484   5.378 -0.4081  0.0165 -1.9137
 6295SOL    HW324947   1.589   3.612   5.310 -0.8151  0.4345 -1.3804
 6295SOL    MW424948   1.607   3.531   5.337  0.0228 -0.4581  0.1244
 6296SOL     OW24949   1.653   1.900   0.171 -0.1996  0.4442  0.1499
 6296SOL    HW224950   1.594   1.940   0.235  0.1101  0.0427  0.6965
 6296SOL    HW324951   1.715   1.969   0.149  0.1748  0.3666  0.8946
 6296SOL    MW424952   1.653   1.914   0.177  0.4005  0.0586 -0.0319
 6297SOL     OW24953   5.895   0.895   0.814 -0.3424 -0.4732  0.5195
 6297SOL    HW224954   5.825   0.899   0.750 -0.0467 -0.5544  0.1886
 6297SOL    HW324955   5.944   0.977   0.802 -0.7450 -0.1216  1.1767
 6297SOL    MW424956   5.893   0.907   0.804  0.5100  0.2135 -0.2076
 6298SOL     OW24957   5.070   3.651   3.451 -0.3374 -0.1296 -0.6790
 6298SOL    HW224958   5.140   3.665   3.387  0.3476  0.6125  0.2010
 6298SOL    HW324959   4.990   3.646   3.399  0.3330 -0.7411 -1.6835
 6298SOL    MW424960   5.069   3.652   3.436  0.1187  0.5233  0.4572
 6299SOL     OW24961   4.973   1.781   2.977 -0.0940  0.4984  0.4400
 6299SOL    HW224962   4.944   1.768   2.887  1.0878 -2.7691  0.4159
 6299SOL    HW324963   5.048   1.841   2.969 -1.5228  2.2760 -0.3872
 6299SOL    MW424964   4.979   1.787   2.964 -0.2216  0.0654  0.2181
 6300SOL     OW24965   1.680   2.766   0.589 -0.4851  0.6271  0.7542
 6300SOL    HW224966   1.735   2.696   0.553  0.3749  2.2035 -1.2057
 6300SOL    HW324967   1.679   2.750   0.683 -2.3196 -3.3960  0.2645
 6300SOL    MW424968   1.687   2.755   0.597 -0.0435  0.5225 -0.3359
 6301SOL     OW24969   0.434   3.316   0.497  0.6196 -0.4634 -1.2459
 6301SOL    HW224970   0.399   3.368   0.570 -0.0839 -0.7523 -1.3588
 6301SOL    HW324971   0.442   3.377   0.425  1.0037 -0.2447 -1.0186
 6301SOL    MW424972   0.430   3.331   0.497  0.1573 -0.3310 -0.0213
 6302SOL     OW24973   0.724   2.660   4.018 -0.4826  0.6781  0.4192
 6302SOL    HW224974   0.780   2.695   3.949 -0.5970  0.8095  0.3927
 6302SOL    HW324975   0.771   2.583   4.051 -0.1881  0.9059  0.5375
 6302SOL    MW424976   0.738   2.654   4.013  0.5265 -0.3228  0.8021
 6303SOL     OW24977   5.258   5.721   0.869 -0.4934  0.1596 -0.1393
 6303SOL    HW224978   5.266   5.788   0.801  1.0035 -0.5179 -0.6591
 6303SOL    HW324979   5.281   5.767   0.950  1.9061  0.0274 -0.6662
 6303SOL    MW424980   5.262   5.736   0.871 -0.3417 -0.8856  0.3034
 6304SOL     OW24981   5.622   4.008   0.937 -0.4450 -0.2503 -0.0436
 6304SOL    HW224982   5.703   3.957   0.947 -0.5805 -0.5221 -0.3005
 6304SOL    HW324983   5.552   3.944   0.952 -0.6217  0.2062  1.2545
 6304SOL    MW424984   5.623   3.993   0.940  0.0003  0.1756  0.3349
 6305SOL     OW24985   0.776   0.085   6.169 -0.2221  0.2207  0.3728
 6305SOL    HW224986   0.702   0.045   6.214 -0.1295  0.8483  1.0886
 6305SOL    HW324987   0.737   0.123   6.090 -0.4098 -0.7246 -0.0054
 6305SOL    MW424988   0.761   0.084   6.164 -0.1990 -0.3088  0.0607
 6306SOL     OW24989   5.980   3.644   2.050  0.0221 -0.4996 -0.0361
 6306SOL    HW224990   5.960   3.577   1.984  2.4643  0.7245 -2.2067
 6306SOL    HW324991   6.058   3.610   2.094 -0.4307 -0.3820  0.8701
 6306SOL    MW424992   5.988   3.631   2.047  0.7695 -0.4204 -0.5712
 6307SOL     OW24993   6.160   1.976   4.472 -0.5410  0.1415 -1.0182
 6307SOL    HW224994   6.134   1.938   4.555  1.9677 -2.8093 -1.3652
 6307SOL    HW324995   6.193   2.063   4.494  0.3119 -0.6706  1.1445
 6307SOL    MW424996   6.161   1.982   4.486  0.2758  0.6377 -0.2029
 6308SOL     OW24997   0.240   0.565   6.117 -0.2851  0.2333 -0.5900
 6308SOL    HW224998   0.311   0.507   6.089  1.5788  1.4186  1.3977
 6308SOL    HW324999   0.207   0.527   6.197 -2.5599 -0.7421 -1.9017
 6308SOL    MW425000   0.245   0.552   6.124 -0.1475  0.0189  0.4568
 6309SOL     OW25001   5.782   2.937   2.718 -0.8627 -0.6405 -0.0262
 6309SOL    HW225002   5.804   2.885   2.795 -0.8952 -0.5825  0.0223
 6309SOL    HW325003   5.765   2.872   2.650  2.5201 -0.7098 -0.9793
 6309SOL    MW425004   5.782   2.921   2.719  0.4448 -0.3961  0.6863
 6310SOL     OW25005   0.747   6.338   2.918  0.3288  0.2090  0.1983
 6310SOL    HW225006   0.796   6.259   2.938  1.0726  0.4184 -0.7019
 6310SOL    HW325007   0.781   6.404   2.978  0.0896 -0.0192  0.5839
 6310SOL    MW425008   0.758   6.336   2.928 -0.1332  0.3359 -0.3466
 6311SOL     OW25009   0.310   1.657   5.545 -0.3466 -0.2803  0.2111
 6311SOL    HW225010   0.275   1.739   5.511 -0.5071 -0.6872 -0.6195
 6311SOL    HW325011   0.240   1.621   5.600  0.2190  0.7847  1.7040
 6311SOL    MW425012   0.296   1.663   5.548  0.9476  0.4547 -0.2175
 6312SOL     OW25013   3.228   0.380   2.566 -0.8770 -0.5185  0.3769
 6312SOL    HW225014   3.259   0.297   2.532 -0.6630 -1.0790  1.8605
 6312SOL    HW325015   3.133   0.370   2.574 -0.9718 -0.2641 -0.3213
 6312SOL    MW425016   3.219   0.368   2.562 -0.2421 -0.0559 -0.1868
 6313SOL     OW25017   4.721   3.343   0.760 -0.2838 -0.2450 -0.6437
 6313SOL    HW225018   4.758   3.417   0.711  0.0334  1.1273  1.5519
 6313SOL    HW325019   4.626   3.357   0.757 -0.4065 -1.1133 -2.2014
 6313SOL    MW425020   4.713   3.354   0.753 -0.0995  0.4036 -0.1585
 6314SOL     OW25021   5.571   2.426   4.447  0.0039 -0.3817  0.4498
 6314SOL    HW225022   5.539   2.367   4.515  1.3527 -1.3574  0.2842
 6314SOL    HW325023   5.653   2.462   4.482 -0.9042  1.6344  0.6476
 6314SOL    MW425024   5.578   2.423   4.460 -0.4345  0.2287  0.2452
 6315SOL     OW25025   4.845   1.164   4.536  0.0314  0.1220  0.0692
 6315SOL    HW225026   4.829   1.070   4.529  0.9356 -0.0026 -0.4390
 6315SOL    HW325027   4.920   1.180   4.479  0.7291  0.9206  1.1759
 6315SOL    MW425028   4.853   1.154   4.528  0.6992  0.2649 -0.6431
 6316SOL     OW25029   5.168   0.477   0.815  0.4690 -0.4206  0.3995
 6316SOL    HW225030   5.229   0.433   0.875 -0.1110 -0.9314  0.6335
 6316SOL    HW325031   5.166   0.421   0.737  1.8526  0.6784 -0.4545
 6316SOL    MW425032   5.175   0.464   0.813  0.4571 -0.2421  0.1724
 6317SOL     OW25033   0.447   1.256   6.015 -0.5621 -0.1940  0.4836
 6317SOL    HW225034   0.401   1.186   5.968 -0.2044 -0.3874  0.4230
 6317SOL    HW325035   0.399   1.264   6.098  0.5968 -1.8874  1.3583
 6317SOL    MW425036   0.434   1.248   6.020 -0.7704 -0.4243  0.6566
 6318SOL     OW25037   3.785   4.843   1.252 -0.4581 -0.1549  0.3133
 6318SOL    HW225038   3.777   4.838   1.157 -0.3799  1.1509  0.2160
 6318SOL    HW325039   3.854   4.780   1.274 -0.4792 -0.4674 -0.4847
 6318SOL    MW425040   3.793   4.834   1.243 -0.3215 -0.1145 -0.0759
 6319SOL     OW25041   3.272   4.667   2.001  0.2936 -0.0982  0.0306
 6319SOL    HW225042   3.272   4.734   1.932  1.1016  0.7252  0.8001
 6319SOL    HW325043   3.179   4.652   2.019  0.0281 -1.0293 -1.8585
 6319SOL    MW425044   3.260   4.674   1.994  0.1894  0.2549 -0.1971
 6320SOL     OW25045   3.362   5.552   5.368  0.0502  0.4079  0.1641
 6320SOL    HW225046   3.348   5.576   5.277  2.0942  0.6363 -0.1465
 6320SOL    HW325047   3.415   5.472   5.364 -0.2075  0.1721  1.1610
 6320SOL    MW425048   3.367   5.544   5.356 -0.3525  0.2732  0.0007
 6321SOL     OW25049   1.731   2.103   5.437 -0.4278  0.0194  0.2133
 6321SOL    HW225050   1.823   2.123   5.454 -0.7472 -0.3044  2.5903
 6321SOL    HW325051   1.733   2.050   5.357  1.4051  0.3908 -0.0338
 6321SOL    MW425052   1.743   2.098   5.429  0.4284 -0.4635  0.3744
 6322SOL     OW25053   1.700   5.911   0.379  0.4058  0.3690 -0.0948
 6322SOL    HW225054   1.774   5.875   0.330  0.9443 -0.9890  1.6208
 6322SOL    HW325055   1.625   5.860   0.349  0.5823  0.1398 -0.1487
 6322SOL    MW425056   1.700   5.900   0.369 -0.8021 -0.3278 -0.0837
 6323SOL     OW25057   1.969   4.300   0.175 -0.4557 -0.4829 -0.3310
 6323SOL    HW225058   1.956   4.309   0.080 -0.2839  0.9458 -0.2360
 6323SOL    HW325059   2.050   4.348   0.193 -1.1274  0.3006  0.7040
 6323SOL    MW425060   1.978   4.307   0.165 -0.1796  0.3889 -0.0382
 6324SOL     OW25061   1.698   2.637   2.017  0.1040  0.3391 -0.1118
 6324SOL    HW225062   1.751   2.670   1.944 -1.2474 -0.3746 -1.4959
 6324SOL    HW325063   1.698   2.542   2.005 -1.4652  0.3276 -0.1668
 6324SOL    MW425064   1.705   2.629   2.006 -0.1691  0.3801 -0.2755
 6325SOL     OW25065   4.733   0.664   0.704 -0.0464 -0.2403  0.0994
 6325SOL    HW225066   4.645   0.627   0.703  0.5393 -1.8025  1.4903
 6325SOL    HW325067   4.781   0.611   0.768  1.4736  1.5913  0.5855
 6325SOL    MW425068   4.728   0.652   0.713 -0.9396  0.5378 -0.0939
 6326SOL     OW25069   2.982   2.842   1.079  0.1497  0.0716 -0.2406
 6326SOL    HW225070   2.888   2.857   1.086  0.1009  0.3058 -1.1753
 6326SOL    HW325071   3.022   2.905   1.138 -0.2147  1.3559 -1.3193
 6326SOL    MW425072   2.975   2.852   1.087  0.0513 -0.5117 -0.2139
 6327SOL     OW25073   4.221   3.006   4.707  0.2377  0.4223  0.0457
 6327SOL    HW225074   4.244   2.928   4.756 -0.5495 -0.9967 -1.7183
 6327SOL    HW325075   4.131   3.026   4.733  0.0065 -0.0169 -0.3950
 6327SOL    MW425076   4.212   2.998   4.717  0.5812 -0.4525  0.0803
 6328SOL     OW25077   5.326   0.954   3.989  0.0751 -0.1453  0.3970
 6328SOL    HW225078   5.394   1.002   3.942 -0.3591  0.7456  0.6621
 6328SOL    HW325079   5.356   0.863   3.987  0.6580  0.0496 -0.5540
 6328SOL    MW425080   5.339   0.948   3.982  0.2033 -0.1645  0.1583
 6329SOL     OW25081   3.360   4.372   2.332  0.1607  0.1432 -0.0001
 6329SOL    HW225082   3.394   4.461   2.325  0.8386 -0.0807  0.3156
 6329SOL    HW325083   3.329   4.350   2.244 -0.8135  0.9920  0.1055
 6329SOL    MW425084   3.360   4.381   2.320 -0.1320  0.2698  0.0784
 6330SOL     OW25085   4.057   5.763   5.704  0.2547  0.5205  0.1729
 6330SOL    HW225086   4.084   5.708   5.630  0.2089  0.5546  0.1308
 6330SOL    HW325087   3.973   5.801   5.676  1.2408  2.2016 -0.6244
 6330SOL    MW425088   4.049   5.761   5.691  1.2394 -0.1127  0.0072
 6331SOL     OW25089   2.431   3.804   5.524  0.2874 -0.3871 -0.3187
 6331SOL    HW225090   2.520   3.775   5.505  1.5471  1.4686  2.1652
 6331SOL    HW325091   2.401   3.745   5.594  0.9836  1.0552  1.2816
 6331SOL    MW425092   2.439   3.792   5.531  0.3605  0.4016  0.0753
 6332SOL     OW25093   5.039   3.144   5.892  0.5233  0.0864  0.3442
 6332SOL    HW225094   4.988   3.116   5.816  1.8159 -1.8825  0.1188
 6332SOL    HW325095   5.068   3.232   5.871 -2.5312  1.2403  0.3958
 6332SOL    MW425096   5.036   3.152   5.880  0.0226 -0.3203 -0.3627
 6333SOL     OW25097   2.631   6.271   1.624  0.7241 -0.1326  0.0314
 6333SOL    HW225098   2.579   6.234   1.553 -2.3407  2.7472  0.5460
 6333SOL    HW325099   2.644   6.362   1.600 -1.8796  1.4565  3.6731
 6333SOL    MW425100   2.626   6.278   1.611 -0.0719  0.5313 -0.4081
 6334SOL     OW25101   1.152   1.967   2.936 -0.4094 -0.2299 -0.2082
 6334SOL    HW225102   1.211   2.016   2.994 -1.3724 -0.9786  1.4697
 6334SOL    HW325103   1.210   1.905   2.891  0.3206  0.1051  0.2461
 6334SOL    MW425104   1.168   1.965   2.938 -0.2739 -0.0004 -0.2247
 6335SOL     OW25105   4.665   1.815   5.740  0.4348 -0.0117  0.4504
 6335SOL    HW225106   4.627   1.898   5.766 -1.2354 -0.4259 -0.5173
 6335SOL    HW325107   4.641   1.754   5.811  0.3527 -0.0068  0.4264
 6335SOL    MW425108   4.657   1.818   5.753  0.8272 -0.5390  0.1837
 6336SOL     OW25109   5.175   3.093   4.320 -0.0799  0.5463 -0.1847
 6336SOL    HW225110   5.263   3.068   4.348  0.9421  1.4688 -2.3391
 6336SOL    HW325111   5.141   3.015   4.276 -0.6377 -0.0118  1.1600
 6336SOL    MW425112   5.182   3.079   4.318 -0.1086 -0.6706  0.1944
 6337SOL     OW25113   6.348   3.719   2.343  0.6153  0.1770  0.2309
 6337SOL    HW225114   6.424   3.756   2.299  0.6028 -1.5156 -1.3701
 6337SOL    HW325115   6.384   3.661   2.410  0.7650 -0.3302 -0.2743
 6337SOL    MW425116   6.363   3.716   2.346  0.1096 -0.2228  0.0586
 6338SOL     OW25117   0.384   1.388   1.759  0.0535  0.9044  0.4139
 6338SOL    HW225118   0.297   1.408   1.793  0.3633  0.2970  1.6018
 6338SOL    HW325119   0.438   1.463   1.785  0.4334  0.1637  1.8832
 6338SOL    MW425120   0.380   1.401   1.767 -0.3322 -0.1076 -0.9996
 6339SOL     OW25121   5.332   1.308   4.285  0.0743  0.5141  0.0759
 6339SOL    HW225122   5.372   1.222   4.272  0.3650  0.5967  0.4319
 6339SOL    HW325123   5.392   1.369   4.242 -0.2381  0.5214 -0.3608
 6339SOL    MW425124   5.345   1.305   4.277  0.4740 -0.2079  0.5173
 6340SOL     OW25125   4.201   4.912   1.994 -0.5802  0.0319 -0.5244
 6340SOL    HW225126   4.166   4.823   1.990 -0.0186 -0.2296  0.1934
 6340SOL    HW325127   4.243   4.925   1.909  0.0713 -0.7025 -0.3233
 6340SOL    MW425128   4.202   4.902   1.982 -0.0170  0.3286  0.0072
 6341SOL     OW25129   2.436   0.189   1.447 -0.3119 -0.1336 -0.3926
 6341SOL    HW225130   2.405   0.106   1.483 -3.0542  0.0602 -2.0255
 6341SOL    HW325131   2.470   0.167   1.360  1.3641  0.1381  0.1585
 6341SOL    MW425132   2.436   0.175   1.440 -0.3644  0.6391 -0.0468
 6342SOL     OW25133   0.961   0.736   4.128  0.4588  0.0221  0.1839
 6342SOL    HW225134   0.957   0.645   4.157 -0.7542 -0.0382 -0.0809
 6342SOL    HW325135   1.051   0.763   4.144  0.5238 -0.8471  1.3889
 6342SOL    MW425136   0.972   0.727   4.134  0.3443 -0.4567 -0.7834
 6343SOL     OW25137   5.283   1.711   5.356  0.1853  0.3127  0.1305
 6343SOL    HW225138   5.377   1.691   5.364  0.4769  1.7488  0.6394
 6343SOL    HW325139   5.278   1.768   5.280 -0.4776 -0.7504 -0.6544
 6343SOL    MW425140   5.295   1.716   5.347  0.0492 -0.1641 -0.3075
 6344SOL     OW25141   5.763   5.467   6.246  0.4147 -0.0829 -0.1941
 6344SOL    HW225142   5.730   5.453   6.334  3.7558 -1.5439  0.9873
 6344SOL    HW325143   5.739   5.389   6.197  1.9016 -1.1181  0.6452
 6344SOL    MW425144   5.756   5.455   6.251 -0.2355  0.1377  0.0420
 6345SOL     OW25145   0.584   2.471   3.634  0.5054  0.0904  0.1201
 6345SOL    HW225146   0.632   2.436   3.559  0.4117  1.1453 -0.4554
 6345SOL    HW325147   0.573   2.396   3.693  1.0263 -0.6379 -0.6839
 6345SOL    MW425148   0.589   2.456   3.632  0.0127 -0.0615 -0.5221
 6346SOL     OW25149   5.493   3.374   4.229  0.7099 -0.0896 -0.4659
 6346SOL    HW225150   5.425   3.334   4.174  0.9332 -3.8168  1.6000
 6346SOL    HW325151   5.558   3.304   4.240  2.1526  1.5036  2.0359
 6346SOL    MW425152   5.493   3.359   4.223 -0.0919 -0.2505  0.5516
 6347SOL     OW25153   4.875   5.040   1.121  0.2521  0.3400 -0.3206
 6347SOL    HW225154   4.959   5.077   1.094  0.8524 -0.5655  0.2147
 6347SOL    HW325155   4.862   5.073   1.210 -1.4150  2.8171 -1.3727
 6347SOL    MW425156   4.884   5.049   1.129  0.0863  0.2630  0.4954
 6348SOL     OW25157   3.847   4.844   2.326 -0.0260  0.3817  0.4239
 6348SOL    HW225158   3.874   4.920   2.275  0.9022 -1.2237 -1.6515
 6348SOL    HW325159   3.762   4.819   2.289 -0.0038  0.0202  0.6100
 6348SOL    MW425160   3.839   4.851   2.314  0.2519 -0.5071  0.5985
 6349SOL     OW25161   0.139   0.377   0.322  0.7539  0.1407  0.6420
 6349SOL    HW225162   0.182   0.299   0.287  1.5298  0.8131  0.0344
 6349SOL    HW325163   0.086   0.409   0.248 -2.0811 -1.4923  1.7943
 6349SOL    MW425164   0.138   0.371   0.307  0.0936 -0.1299 -0.0967
 6350SOL     OW25165   1.089   0.952   3.768 -0.2059  0.0689  0.0140
 6350SOL    HW225166   1.088   0.980   3.677 -2.4757 -1.0477 -0.3731
 6350SOL    HW325167   1.153   0.881   3.771  0.0192  0.2362 -0.6764
 6350SOL    MW425168   1.097   0.946   3.756  0.0072 -0.3302  0.6454
 6351SOL     OW25169   5.130   0.501   5.524  0.3235  0.0332  0.7945
 6351SOL    HW225170   5.112   0.530   5.613 -0.5839  0.8200  0.3742
 6351SOL    HW325171   5.153   0.581   5.477  3.2984 -0.6733  0.8622
 6351SOL    MW425172   5.130   0.515   5.530 -0.0859 -0.5463 -0.0769
 6352SOL     OW25173   4.775   3.679   1.261  0.4486 -0.1177  0.1483
 6352SOL    HW225174   4.842   3.747   1.271  1.0523 -0.7610  0.5571
 6352SOL    HW325175   4.820   3.607   1.218 -0.2739 -0.1452 -0.5843
 6352SOL    MW425176   4.790   3.679   1.257  0.5422  0.0451  0.0671
 6353SOL     OW25177   0.509   1.167   4.501 -0.8744  0.3616  0.1290
 6353SOL    HW225178   0.508   1.107   4.426 -0.7068  0.3445  0.1418
 6353SOL    HW325179   0.466   1.246   4.468  1.5241  1.3603 -0.8103
 6353SOL    MW425180   0.503   1.170   4.487  0.3126  0.0588 -0.0904
 6354SOL     OW25181   2.689   6.315   2.348  0.6810 -0.0423  0.2752
 6354SOL    HW225182   2.700   6.263   2.268  1.0729 -1.9817  1.5110
 6354SOL    HW325183   2.756   6.383   2.342  1.1718 -0.5889 -0.7275
 6354SOL    MW425184   2.700   6.317   2.337  0.1528 -0.1743 -0.8735
 6355SOL     OW25185   3.112   5.165   0.748 -0.0691 -0.0064 -0.0621
 6355SOL    HW225186   3.157   5.130   0.825  0.2354 -0.6590 -0.5240
 6355SOL    HW325187   3.036   5.109   0.738 -0.7517  0.7971  0.4302
 6355SOL    MW425188   3.108   5.153   0.757  0.0942 -0.6165  0.1639
 6356SOL     OW25189   1.127   3.243   1.019 -0.6309 -0.2144  0.1364
 6356SOL    HW225190   1.154   3.334   1.030 -0.1288 -0.4392  0.9007
 6356SOL    HW325191   1.082   3.221   1.101 -0.1577 -0.8384  0.2418
 6356SOL    MW425192   1.125   3.252   1.031 -0.4582 -0.2257 -0.0321
 6357SOL     OW25193   5.758   0.968   4.134 -0.0567  0.2957  0.0860
 6357SOL    HW225194   5.724   1.045   4.089  0.1005  0.6026  0.4828
 6357SOL    HW325195   5.689   0.903   4.126  0.3858 -0.0028 -1.5013
 6357SOL    MW425196   5.745   0.970   4.127 -0.5668  0.7241 -0.0530
 6358SOL     OW25197   1.974   1.666   2.852  0.5120 -0.2561  0.2536
 6358SOL    HW225198   2.014   1.753   2.855  1.3384 -0.6193  0.0090
 6358SOL    HW325199   1.888   1.677   2.893  0.8034  0.5716  0.6452
 6358SOL    MW425200   1.968   1.679   2.858 -0.0376 -0.0253 -0.0626
 6359SOL     OW25201   3.078   6.016   4.530  0.3790 -0.1602 -0.2327
 6359SOL    HW225202   3.161   5.980   4.562  0.3818  0.6714  0.7356
 6359SOL    HW325203   3.014   5.948   4.550  0.1423  0.7954  2.8379
 6359SOL    MW425204   3.081   6.002   4.537 -0.1859 -0.0605 -0.3011
 6360SOL     OW25205   3.198   5.147   6.179  0.1045 -0.6674 -0.1155
 6360SOL    HW225206   3.196   5.192   6.094  0.9439 -0.5311 -0.0673
 6360SOL    HW325207   3.227   5.213   6.241 -1.1360 -0.5853  0.4095
 6360SOL    MW425208   3.201   5.161   6.176  0.5049  1.1092  0.4714
 6361SOL     OW25209   0.505   4.292   5.137 -0.0012 -0.4424  0.2192
 6361SOL    HW225210   0.545   4.213   5.100  0.6243  0.5985 -1.4481
 6361SOL    HW325211   0.416   4.291   5.103 -0.7871 -1.6278  2.1608
 6361SOL    MW425212   0.499   4.281   5.128 -0.0907  0.5950 -0.3635
 6362SOL     OW25213   0.079   2.779   4.644  0.1807  0.2954 -0.0107
 6362SOL    HW225214   0.036   2.802   4.726 -0.6254 -1.0190 -0.0338
 6362SOL    HW325215   0.090   2.863   4.599  0.4053  1.0029  1.3128
 6362SOL    MW425216   0.075   2.793   4.649  0.5524 -0.1430 -0.4640
 6363SOL     OW25217   0.141   4.318   0.088  0.2758  0.0873  0.1357
 6363SOL    HW225218   0.222   4.331   0.137  0.8687 -2.2118 -0.1300
 6363SOL    HW325219   0.113   4.407   0.063  0.3765  1.3367  3.8229
 6363SOL    MW425220   0.148   4.332   0.091 -0.5975  0.1894 -0.4260
 6364SOL     OW25221   2.815   1.301   3.802  0.0077  0.6442 -0.2455
 6364SOL    HW225222   2.737   1.356   3.795  0.1381  0.8156 -0.3753
 6364SOL    HW325223   2.852   1.299   3.714 -0.6526 -0.6509 -0.5147
 6364SOL    MW425224   2.810   1.308   3.790 -0.2761 -0.1198  0.1036
 6365SOL     OW25225   3.287   0.578   4.116 -0.1353  0.1031 -0.8785
 6365SOL    HW225226   3.256   0.523   4.044 -1.2784 -0.8828  0.3252
 6365SOL    HW325227   3.355   0.526   4.159 -1.4931 -0.6175  0.5042
 6365SOL    MW425228   3.292   0.564   4.112  0.6674 -0.1845 -0.1049
 6366SOL     OW25229   5.275   6.264   5.953  0.0304  0.0831 -0.5490
 6366SOL    HW225230   5.342   6.196   5.945 -1.1344 -1.2740  0.6662
 6366SOL    HW325231   5.323   6.341   5.984  1.1648 -0.6038 -0.5431
 6366SOL    MW425232   5.290   6.266   5.956 -0.3279 -0.1706  0.3897
 6367SOL     OW25233   4.274   4.180   0.729  0.3586 -0.0167 -0.2134
 6367SOL    HW225234   4.246   4.245   0.664 -0.4529 -0.8816 -0.7507
 6367SOL    HW325235   4.223   4.102   0.708 -1.4677  0.2524  2.6934
 6367SOL    MW425236   4.264   4.179   0.717  0.2253 -0.1802  0.5391
 6368SOL     OW25237   1.917   2.804   5.522 -0.3594  0.0733 -0.2230
 6368SOL    HW225238   1.860   2.817   5.598  1.6559 -0.2897  1.4307
 6368SOL    HW325239   1.969   2.884   5.517 -0.0090 -0.1859 -0.8460
 6368SOL    MW425240   1.916   2.816   5.531  0.2658  0.1562  0.2421
 6369SOL     OW25241   0.951   2.891   4.193  0.5700 -0.1295 -0.3258
 6369SOL    HW225242   0.915   2.830   4.258  1.3722 -0.1233  0.1444
 6369SOL    HW325243   0.887   2.962   4.188  0.4928 -0.1344  0.4754
 6369SOL    MW425244   0.938   2.892   4.201 -0.0443 -0.2492 -0.6268
 6370SOL     OW25245   5.072   0.357   6.117 -0.1700 -0.1520 -0.4586
 6370SOL    HW225246   5.004   0.355   6.049  1.5292  1.4800 -2.3362
 6370SOL    HW325247   5.111   0.270   6.115 -2.9141 -1.5826  1.5722
 6370SOL    MW425248   5.068   0.345   6.108  0.1030 -0.1977 -0.7503
 6371SOL     OW25249   0.963   2.282   3.889  0.2223 -0.0438 -0.3496
 6371SOL    HW225250   0.946   2.192   3.860 -0.2725 -0.2034  0.3974
 6371SOL    HW325251   0.918   2.336   3.825 -1.6764 -0.4190  0.6084
 6371SOL    MW425252   0.955   2.277   3.877  0.0638 -0.0448 -0.2180
 6372SOL     OW25253   1.342   4.220   2.778 -0.1787 -0.2390  0.5811
 6372SOL    HW225254   1.314   4.293   2.833  0.7151 -0.8666  1.9404
 6372SOL    HW325255   1.403   4.170   2.833  3.6359  1.0010 -2.0819
 6372SOL    MW425256   1.346   4.223   2.792 -0.3517 -0.3342  0.0463
 6373SOL     OW25257   0.240   1.001   3.628 -0.1154 -0.1382  0.4825
 6373SOL    HW225258   0.187   1.004   3.708  0.2393 -1.1430  0.7679
 6373SOL    HW325259   0.220   0.916   3.589  1.0511 -0.4143  0.4430
 6373SOL    MW425260   0.230   0.990   3.634 -0.4527  0.6286  0.3708
 6374SOL     OW25261   2.676   2.692   0.487 -0.1564  0.1453  0.0094
 6374SOL    HW225262   2.704   2.740   0.566  1.0919 -0.5562  0.0067
 6374SOL    HW325263   2.688   2.754   0.416 -1.6582  0.9230  0.3761
 6374SOL    MW425264   2.681   2.707   0.488 -0.4662  0.1441 -0.0594
 6375SOL     OW25265   1.260   0.088   1.094 -0.4468 -0.0897  0.1183
 6375SOL    HW225266   1.192   0.103   1.028  0.4525 -1.3962 -1.1619
 6375SOL    HW325267   1.278   0.175   1.130 -2.8170  0.2987  0.5604
 6375SOL    MW425268   1.253   0.101   1.090  0.6078 -0.4673  0.1105
 6376SOL     OW25269   4.991   1.970   3.707 -0.7395  0.5336  0.5603
 6376SOL    HW225270   5.019   1.982   3.616 -1.0282  0.1980  0.4262
 6376SOL    HW325271   4.895   1.960   3.701 -0.4799 -3.9561  0.3825
 6376SOL    MW425272   4.982   1.970   3.694 -0.0762  0.3126 -0.0125
 6377SOL     OW25273   5.898   0.289   6.351  0.2171  0.2240 -0.3507
 6377SOL    HW225274   5.866   0.221   6.410 -2.4986 -0.4074 -2.3979
 6377SOL    HW325275   5.945   0.242   6.283  0.5993  0.6659 -0.4002
 6377SOL    MW425276   5.900   0.274   6.350 -0.0162 -0.0057  0.2916
 6378SOL     OW25277   2.471   5.814   2.790 -0.3435  0.1823 -0.3679
 6378SOL    HW225278   2.489   5.857   2.707  1.7858  0.3327  0.1038
 6378SOL    HW325279   2.512   5.871   2.856  0.1511 -1.1521  0.5241
 6378SOL    MW425280   2.479   5.827   2.788 -0.0005  0.4886  0.4047
 6379SOL     OW25281   1.490   0.748   0.278 -0.5647 -0.3370 -0.6249
 6379SOL    HW225282   1.416   0.768   0.334 -0.8065  0.6980 -1.2820
 6379SOL    HW325283   1.505   0.654   0.290 -1.7856 -0.5021 -0.2543
 6379SOL    MW425284   1.482   0.738   0.287  0.1345  0.1557 -0.8186
 6380SOL     OW25285   1.849   4.907   6.380 -0.6942  0.0860  0.1780
 6380SOL    HW225286   1.879   4.981   6.327 -0.4131  0.5168  0.9245
 6380SOL    HW325287   1.817   4.843   6.316  0.7780  0.0759 -0.5968
 6380SOL    MW425288   1.849   4.909   6.365  0.2698 -0.0859  0.1091
 6381SOL     OW25289   5.683   1.031   3.452  0.5729  0.1005  0.3769
 6381SOL    HW225290   5.667   1.125   3.446 -2.4250 -0.1827  2.0848
 6381SOL    HW325291   5.660   0.997   3.366 -0.3428  0.7187  0.3653
 6381SOL    MW425292   5.678   1.039   3.440 -0.2442 -0.2576  0.8061
 6382SOL     OW25293   0.530   0.641   5.852 -0.0447  0.0618 -0.0113
 6382SOL    HW225294   0.607   0.697   5.859 -0.5723  0.7086  0.8352
 6382SOL    HW325295   0.529   0.592   5.935 -1.7322  1.6590  0.9912
 6382SOL    MW425296   0.540   0.642   5.864 -0.0995 -0.1849  0.0732
 6383SOL     OW25297   2.828   2.890   0.733 -0.4927 -0.1955  0.2002
 6383SOL    HW225298   2.756   2.931   0.780 -1.2152 -0.8201 -0.3485
 6383SOL    HW325299   2.833   2.801   0.770  0.7591  0.1887  1.0565
 6383SOL    MW425300   2.819   2.884   0.744  0.1234  0.1131 -0.3239
 6384SOL     OW25301   0.475   2.225   5.570 -0.6418 -0.2302 -0.1922
 6384SOL    HW225302   0.419   2.148   5.562 -1.7231  0.4807  0.2354
 6384SOL    HW325303   0.414   2.299   5.563  0.2714  0.5723  0.1695
 6384SOL    MW425304   0.459   2.225   5.568 -0.1395  0.1240 -0.0857
 6385SOL     OW25305   2.567   6.359   1.880  0.1136  0.4809  0.7691
 6385SOL    HW225306   2.581   6.312   1.798  0.9700  1.0670  0.5600
 6385SOL    HW325307   2.627   6.434   1.875  0.1141  0.5723  1.8976
 6385SOL    MW425308   2.576   6.363   1.868 -0.3001  0.2492 -0.2309
 6386SOL     OW25309   2.345   1.457   0.791  0.3787 -0.3952  0.2134
 6386SOL    HW225310   2.274   1.494   0.844 -0.8084 -0.6716 -1.1187
 6386SOL    HW325311   2.368   1.528   0.731 -0.0248 -0.8828 -0.5374
 6386SOL    MW425312   2.339   1.471   0.790 -0.1393 -0.0582  0.4160
 6387SOL     OW25313   0.660   1.235   3.559 -0.6008 -0.4868  0.3675
 6387SOL    HW225314   0.620   1.178   3.625 -1.1042  1.4157  1.8039
 6387SOL    HW325315   0.586   1.282   3.520 -0.0420  1.0204  1.0510
 6387SOL    MW425316   0.645   1.234   3.563  0.0601  0.6139  0.1489
 6388SOL     OW25317   6.342   1.284   6.129  0.2539  0.2070  0.0343
 6388SOL    HW225318   6.283   1.237   6.070 -0.0957 -0.1362  0.6550
 6388SOL    HW325319   6.410   1.220   6.150  0.5090  0.4044 -0.1778
 6388SOL    MW425320   6.343   1.270   6.124 -0.1721  0.6667 -0.1425
 6389SOL     OW25321   0.696   4.965   1.955 -0.1163 -0.4459  0.3047
 6389SOL    HW225322   0.786   4.979   1.987 -0.1162  1.6545 -0.4315
 6389SOL    HW325323   0.703   4.977   1.860 -1.1237 -0.6062  0.2065
 6389SOL    MW425324   0.709   4.969   1.947 -0.1715  0.3461  0.0750
 6390SOL     OW25325   2.510   3.007   3.217  0.2095 -0.1715  0.2094
 6390SOL    HW225326   2.538   2.950   3.289  0.6135 -0.4369 -0.1510
 6390SOL    HW325327   2.575   3.077   3.215 -0.6073  0.6318  1.0212
 6390SOL    MW425328   2.523   3.008   3.226  0.4302  0.2701  0.2683
 6391SOL     OW25329   0.848   3.182   1.369  0.2109 -0.0092  0.6015
 6391SOL    HW225330   0.912   3.138   1.425 -0.6964  0.9181  2.4468
 6391SOL    HW325331   0.770   3.191   1.423 -1.2996 -0.5049 -1.3572
 6391SOL    MW425332   0.846   3.177   1.383 -0.2226 -0.4822 -0.7938
 6392SOL     OW25333   4.330   1.987   3.832  0.8403 -0.8851 -0.0024
 6392SOL    HW225334   4.425   2.002   3.831  0.6965  0.9421  2.6035
 6392SOL    HW325335   4.319   1.908   3.885  0.9149 -0.4142  0.7457
 6392SOL    MW425336   4.341   1.979   3.839 -0.1845 -0.0491 -0.0511
 6393SOL     OW25337   3.171   1.557   3.145 -0.3445  0.0409 -0.1023
 6393SOL    HW225338   3.157   1.647   3.117  0.0784 -0.1001 -0.8004
 6393SOL    HW325339   3.207   1.513   3.068 -2.3460 -1.2192 -0.4016
 6393SOL    MW425340   3.174   1.563   3.131  0.0979 -0.0264 -0.0458
 6394SOL     OW25341   4.654   5.971   2.890  0.3219 -0.0442  0.0979
 6394SOL    HW225342   4.613   5.885   2.902  0.5965 -0.1563  0.2453
 6394SOL    HW325343   4.746   5.952   2.870  0.5439  0.2276  0.8136
 6394SOL    MW425344   4.661   5.957   2.889  0.6061  0.2853  0.2613
 6395SOL     OW25345   4.426   2.022   5.874 -0.3061 -0.1144 -0.4496
 6395SOL    HW225346   4.399   2.081   5.945  0.7395 -0.6695  0.4400
 6395SOL    HW325347   4.343   1.992   5.835 -0.9436 -0.5191  1.1373
 6395SOL    MW425348   4.411   2.026   5.878  0.3559 -0.1917  0.3264
 6396SOL     OW25349   1.368   6.126   0.894 -0.6211  0.1459 -0.3769
 6396SOL    HW225350   1.374   6.118   0.989  1.6848 -1.5110 -0.5670
 6396SOL    HW325351   1.291   6.074   0.870 -0.8134  0.0070  0.5192
 6396SOL    MW425352   1.359   6.118   0.903 -0.2517 -0.1699 -0.6058
 6397SOL     OW25353   6.196   3.776   0.089  0.2482 -0.2410  0.1028
 6397SOL    HW225354   6.194   3.680   0.094 -1.3980 -0.1662  1.9095
 6397SOL    HW325355   6.131   3.805   0.152  0.8780  2.1074 -0.2288
 6397SOL    MW425356   6.187   3.767   0.098  0.0168  0.0581 -0.0892
 6398SOL     OW25357   2.774   4.971   3.916  0.1706 -0.1709 -0.2364
 6398SOL    HW225358   2.709   4.980   3.986  0.2621 -0.9286 -0.0446
 6398SOL    HW325359   2.762   5.049   3.862  0.1989  0.5032  0.7090
 6398SOL    MW425360   2.764   4.982   3.918 -0.3906  0.0640 -0.3732
 6399SOL     OW25361   4.929   5.925   0.633 -0.4302 -0.1942  0.6351
 6399SOL    HW225362   4.867   5.946   0.563 -0.3400 -1.1374  0.2614
 6399SOL    HW325363   4.929   6.003   0.689 -0.7093  0.4692 -0.2589
 6399SOL    MW425364   4.921   5.938   0.631  0.5867  0.3040 -0.0921
 6400SOL     OW25365   2.450   1.217   3.569  0.2715 -0.2178 -0.7477
 6400SOL    HW225366   2.447   1.127   3.601 -2.6793 -0.3141 -1.0202
 6400SOL    HW325367   2.483   1.268   3.643  0.4725 -1.3157 -0.0597
 6400SOL    MW425368   2.454   1.212   3.583 -0.3478  0.0873 -0.4686
 6401SOL     OW25369   0.296   0.137   0.594  0.3703  0.3965  0.1406
 6401SOL    HW225370   0.347   0.214   0.621 -0.2870  1.5155 -1.6048
 6401SOL    HW325371   0.352   0.063   0.617  2.1122  1.4967 -0.2811
 6401SOL    MW425372   0.310   0.138   0.601  0.0436  0.0367 -0.3474
 6402SOL     OW25373   1.687   1.358   1.777 -0.3082  0.7669  0.4085
 6402SOL    HW225374   1.613   1.313   1.736  0.2715 -0.6533  0.8575
 6402SOL    HW325375   1.743   1.384   1.704  1.7762 -3.5784  0.1691
 6402SOL    MW425376   1.685   1.355   1.762  0.2988  0.2527 -0.2995
 6403SOL     OW25377   1.650   5.340   2.461  0.2689 -0.3777 -0.2768
 6403SOL    HW225378   1.575   5.296   2.502 -0.4949  0.7196 -0.4700
 6403SOL    HW325379   1.612   5.390   2.389  1.4083 -1.0923 -1.4134
 6403SOL    MW425380   1.635   5.341   2.457  0.2567 -0.6730 -0.4991
 6404SOL     OW25381   1.920   3.218   1.681 -0.1315  0.4038  0.3856
 6404SOL    HW225382   1.972   3.207   1.760 -1.0461  1.0880  1.1106
 6404SOL    HW325383   1.833   3.186   1.705  0.3764 -2.6879 -1.4307
 6404SOL    MW425384   1.915   3.212   1.695  0.2532 -0.3424 -0.4107
 6405SOL     OW25385   1.262   1.887   2.537  0.0319 -0.2848 -0.8239
 6405SOL    HW225386   1.326   1.948   2.500  0.1927 -0.8569 -1.4862
 6405SOL    HW325387   1.177   1.925   2.513  0.0999  0.5550  0.1825
 6405SOL    MW425388   1.259   1.900   2.529 -0.0596 -0.3203  0.8071
 6406SOL     OW25389   5.770   5.993   0.615  0.6910 -0.1636  0.7463
 6406SOL    HW225390   5.825   6.036   0.680  2.5999 -1.3255 -0.0211
 6406SOL    HW325391   5.810   5.907   0.601 -1.4812 -1.1833  0.3089
 6406SOL    MW425392   5.783   5.987   0.622 -0.0935  0.2460 -0.9566
 6407SOL     OW25393   6.175   3.762   3.264 -0.6714  0.2711  0.1860
 6407SOL    HW225394   6.125   3.721   3.335 -0.1817  2.9694  2.2292
 6407SOL    HW325395   6.234   3.693   3.233 -0.9101 -1.0140  2.4080
 6407SOL    MW425396   6.176   3.747   3.269  0.3192  0.2351  0.1689
 6408SOL     OW25397   0.769   0.848   4.278 -0.2279  0.1764 -0.2887
 6408SOL    HW225398   0.743   0.766   4.320  0.0231  0.2656  0.0401
 6408SOL    HW325399   0.840   0.823   4.219  0.0427  0.2006  0.0220
 6408SOL    MW425400   0.775   0.834   4.276  0.0149  1.0906  0.1450
 6409SOL     OW25401   0.829   2.529   2.913  0.6299 -0.0927 -0.1373
 6409SOL    HW225402   0.822   2.577   2.830 -0.9375 -0.1843 -0.0951
 6409SOL    HW325403   0.901   2.468   2.899 -1.6902 -2.5242 -2.7699
 6409SOL    MW425404   0.838   2.527   2.900  0.1140  0.4558 -0.5800
 6410SOL     OW25405   5.364   4.126   4.671 -0.4573 -0.3830  0.0866
 6410SOL    HW225406   5.427   4.191   4.702 -0.6628  0.5631 -1.4160
 6410SOL    HW325407   5.278   4.165   4.689 -0.5814  0.0436 -1.3117
 6410SOL    MW425408   5.361   4.140   4.678 -0.8192 -0.4841 -0.2038
 6411SOL     OW25409   5.547   2.818   3.557  0.0920  0.1657  0.3442
 6411SOL    HW225410   5.464   2.866   3.565 -0.6800 -0.9303 -0.8203
 6411SOL    HW325411   5.555   2.772   3.641 -0.5063  0.2370  0.4489
 6411SOL    MW425412   5.537   2.818   3.569  0.2817 -0.1917  0.2000
 6412SOL     OW25413   0.951   3.160   4.654 -0.1569  0.6463  0.1204
 6412SOL    HW225414   0.899   3.155   4.574 -0.9171  0.7977  0.5969
 6412SOL    HW325415   1.035   3.121   4.630 -0.2681  0.9754 -0.8340
 6412SOL    MW425416   0.955   3.154   4.641 -0.4236  0.0114 -0.0864
 6413SOL     OW25417   1.119   3.619   6.137 -0.4231 -0.4704 -0.2927
 6413SOL    HW225418   1.063   3.668   6.077 -0.0179  0.6808  0.2303
 6413SOL    HW325419   1.088   3.529   6.132 -1.0190 -0.2117 -1.4911
 6413SOL    MW425420   1.108   3.614   6.129  0.7113 -0.2380  0.3492
 6414SOL     OW25421   5.037   5.617   6.347  0.1495 -0.4898 -0.2461
 6414SOL    HW225422   5.001   5.685   6.405  2.3810  0.4850  0.1071
 6414SOL    HW325423   5.093   5.564   6.404 -1.0179 -2.2535 -0.6757
 6414SOL    MW425424   5.040   5.619   6.362 -0.2060 -0.5388 -0.0960
 6415SOL     OW25425   5.893   5.416   5.830  0.0235  0.1011 -0.6201
 6415SOL    HW225426   5.957   5.353   5.797 -1.0204 -0.3683 -1.8157
 6415SOL    HW325427   5.946   5.490   5.860  1.2352 -1.0773  0.2614
 6415SOL    MW425428   5.908   5.417   5.830  0.4780 -0.0090 -0.1314
 6416SOL     OW25429   1.245   4.366   4.556  0.2695 -1.0492  0.3485
 6416SOL    HW225430   1.197   4.420   4.494  1.0520 -1.4366 -0.6190
 6416SOL    HW325431   1.271   4.426   4.626 -0.1018 -0.4843  0.0082
 6416SOL    MW425432   1.242   4.381   4.557  0.0531  0.6321 -0.2489
 6417SOL     OW25433   3.161   3.261   5.023 -0.3126  0.1868 -0.3617
 6417SOL    HW225434   3.065   3.267   5.029 -0.4085 -0.8173 -0.7797
 6417SOL    HW325435   3.186   3.204   5.096  0.1419  1.6774  0.7057
 6417SOL    MW425436   3.152   3.254   5.034  0.0175  0.4222  0.1461
 6418SOL     OW25437   2.114   4.323   0.663  0.1372  0.2284  0.4652
 6418SOL    HW225438   2.062   4.279   0.596 -1.5122  2.5297  0.1115
 6418SOL    HW325439   2.127   4.258   0.731 -2.5516 -0.7067  0.1763
 6418SOL    MW425440   2.109   4.309   0.663  0.1693 -0.0680  0.2934
 6419SOL     OW25441   4.863   6.083   4.346  0.4361 -0.5800 -0.7017
 6419SOL    HW225442   4.880   6.072   4.440  1.3979 -1.6174 -0.9684
 6419SOL    HW325443   4.910   6.162   4.322  1.4882 -1.1556 -0.5945
 6419SOL    MW425444   4.871   6.092   4.355 -0.3014 -0.5926 -0.4729
 6420SOL     OW25445   6.127   0.582   2.852  0.4311  0.0271 -0.5347
 6420SOL    HW225446   6.131   0.585   2.756 -2.3083  3.0394 -0.7074
 6420SOL    HW325447   6.167   0.664   2.880  2.0735 -1.2391  1.0458
 6420SOL    MW425448   6.133   0.593   2.843  0.1824  0.2155 -0.0126
 6421SOL     OW25449   0.877   3.681   0.306 -0.3140  0.4493 -0.8756
 6421SOL    HW225450   0.782   3.687   0.299 -0.5157  0.4894  1.2005
 6421SOL    HW325451   0.895   3.588   0.315 -0.4769  0.5845  1.5251
 6421SOL    MW425452   0.867   3.670   0.306  0.2003  0.4702 -0.0347
 6422SOL     OW25453   3.967   3.605   1.032  0.0486 -0.0806 -0.6456
 6422SOL    HW225454   4.013   3.682   1.067 -1.0584  0.4429 -0.2838
 6422SOL    HW325455   4.012   3.586   0.950  1.6095 -0.2731  0.1984
 6422SOL    MW425456   3.979   3.613   1.026 -0.1908 -0.3565  0.3914
 6423SOL     OW25457   6.141   2.277   6.161  0.2010 -0.3603 -0.1594
 6423SOL    HW225458   6.107   2.356   6.120  0.7833  0.5417  1.0374
 6423SOL    HW325459   6.127   2.208   6.096 -0.2744  0.7242 -1.2382
 6423SOL    MW425460   6.134   2.278   6.147  0.4591 -0.4264 -0.2829
 6424SOL     OW25461   3.716   3.333   4.010  0.6179 -0.1802 -0.2724
 6424SOL    HW225462   3.804   3.298   3.997  0.1895 -0.4620 -3.2614
 6424SOL    HW325463   3.704   3.396   3.938 -2.6351 -2.4628 -2.0211
 6424SOL    MW425464   3.726   3.337   3.999 -0.3248  0.0342  0.0039
 6425SOL     OW25465   3.084   6.047   1.148 -0.4213 -0.4671 -0.4847
 6425SOL    HW225466   3.125   6.101   1.216  0.5950  0.0862 -1.4931
 6425SOL    HW325467   3.048   5.972   1.195 -0.5335  0.3470  0.7686
 6425SOL    MW425468   3.085   6.044   1.163  0.6320  0.4931  0.2535
 6426SOL     OW25469   0.841   4.134   6.216  0.1361  0.3888  0.2251
 6426SOL    HW225470   0.883   4.216   6.242 -1.5060  0.5042  2.9164
 6426SOL    HW325471   0.913   4.072   6.206  1.2298  1.5225  0.8157
 6426SOL    MW425472   0.856   4.137   6.218  0.2112  0.4114  0.2800
 6427SOL     OW25473   6.079   1.986   3.045 -0.0347  0.3446 -0.4866
 6427SOL    HW225474   6.053   1.994   2.953  0.1168  0.3442 -0.5291
 6427SOL    HW325475   6.061   2.072   3.082 -2.1649 -0.2660  0.0139
 6427SOL    MW425476   6.073   1.998   3.037  0.2039  0.3369 -0.2221
 6428SOL     OW25477   6.066   3.439   4.716  0.4510  0.2894 -0.1532
 6428SOL    HW225478   5.986   3.434   4.664  1.0195  1.4898 -1.2256
 6428SOL    HW325479   6.063   3.525   4.757  1.9022  1.0635 -1.5335
 6428SOL    MW425480   6.055   3.450   4.714  0.0211 -0.2229 -0.2475
 6429SOL     OW25481   1.848   1.007   2.238  0.1856 -0.1759 -0.5562
 6429SOL    HW225482   1.889   0.937   2.188 -0.6612 -1.3498  0.3322
 6429SOL    HW325483   1.882   0.996   2.327 -0.6137 -0.0131 -0.2152
 6429SOL    MW425484   1.858   0.996   2.243 -0.0668 -0.8228  0.6067
 6430SOL     OW25485   3.370   3.857   4.264 -0.4382  0.2500 -0.2788
 6430SOL    HW225486   3.290   3.808   4.285  0.4575 -0.6327  1.2900
 6430SOL    HW325487   3.433   3.790   4.238  0.5058  0.6352  0.9302
 6430SOL    MW425488   3.367   3.842   4.264 -0.3585  0.0280 -0.7372
 6431SOL     OW25489   4.230   2.131   0.182 -0.6896 -0.0975  0.4528
 6431SOL    HW225490   4.321   2.150   0.205 -0.9518  0.4358  1.0815
 6431SOL    HW325491   4.224   2.154   0.089 -0.2190 -0.0032  0.4430
 6431SOL    MW425492   4.241   2.137   0.173  0.0708  0.0325 -0.4396
 6432SOL     OW25493   5.485   5.042   0.659 -0.0567  0.9667  0.2097
 6432SOL    HW225494   5.497   5.046   0.564  1.0980 -0.0289  0.2827
 6432SOL    HW325495   5.461   4.951   0.676  2.5212  0.3548  1.0921
 6432SOL    MW425496   5.483   5.031   0.648 -0.6737  0.1684 -0.2642
 6433SOL     OW25497   4.072   6.459   4.346 -0.4244 -0.3099 -0.3787
 6433SOL    HW225498   4.012   6.509   4.291 -1.9376 -1.3470  0.2516
 6433SOL    HW325499   4.069   6.370   4.311  1.5654 -0.1922 -0.9521
 6433SOL    MW425500   4.064   6.454   4.334 -0.9171  0.0471  0.2589
 6434SOL     OW25501   3.064   1.820   1.203  0.3953  0.5261 -0.5413
 6434SOL    HW225502   3.022   1.816   1.289 -0.2354 -0.0104 -0.8629
 6434SOL    HW325503   3.133   1.885   1.213  1.6392 -0.9322  0.9404
 6434SOL    MW425504   3.067   1.828   1.216  0.5876 -0.3434  0.0190
 6435SOL     OW25505   3.868   1.493   1.300 -0.2694  0.1514 -0.6720
 6435SOL    HW225506   3.895   1.427   1.236 -0.6599 -1.2875  0.6006
 6435SOL    HW325507   3.951   1.527   1.335 -0.0663  0.1523 -1.1475
 6435SOL    MW425508   3.883   1.489   1.296  0.1183 -0.1937 -0.5628
 6436SOL     OW25509   4.611   5.400   4.820  0.1667  0.1874  0.2018
 6436SOL    HW225510   4.553   5.474   4.804  0.3378  0.2600 -0.0962
 6436SOL    HW325511   4.620   5.396   4.915  0.3880  0.7261  0.2059
 6436SOL    MW425512   4.605   5.409   4.830  0.4815 -0.6290  0.0188
 6437SOL     OW25513   5.555   3.283   0.139 -0.3136  0.6635 -0.0839
 6437SOL    HW225514   5.621   3.325   0.084  0.8728  1.3791  1.7869
 6437SOL    HW325515   5.568   3.189   0.124  0.6857  0.8156 -0.2475
 6437SOL    MW425516   5.565   3.276   0.129 -0.1534  0.3170  0.1401
 6438SOL     OW25517   0.437   4.546   2.559 -0.1769 -0.8430 -0.2503
 6438SOL    HW225518   0.343   4.562   2.567 -0.4323 -2.4055  0.0696
 6438SOL    HW325519   0.474   4.581   2.640 -0.3782  0.3022 -0.6270
 6438SOL    MW425520   0.430   4.553   2.571  0.1058  0.2680  0.4224
 6439SOL     OW25521   5.931   5.788   1.228  1.0047  0.4074  0.2178
 6439SOL    HW225522   5.965   5.822   1.146  2.0944 -1.1377 -0.0247
 6439SOL    HW325523   5.911   5.696   1.210  0.1526  0.3288  1.3749
 6439SOL    MW425524   5.932   5.780   1.215 -0.2686  0.5092 -0.4833
 6440SOL     OW25525   2.700   3.470   4.220  0.6135  0.0317 -0.4491
 6440SOL    HW225526   2.713   3.400   4.284  3.4471  0.4802 -0.4061
 6440SOL    HW325527   2.611   3.457   4.189  0.0320 -1.7847  1.6822
 6440SOL    MW425528   2.690   3.459   4.224  0.2095  0.3071 -0.2595
 6441SOL     OW25529   4.867   3.442   3.566 -0.5499  0.6009 -0.1149
 6441SOL    HW225530   4.897   3.423   3.655 -1.5939 -1.9498 -0.2133
 6441SOL    HW325531   4.947   3.464   3.518  0.5463 -1.3251  0.7181
 6441SOL    MW425532   4.882   3.442   3.572  0.4101 -0.1136 -0.0590
 6442SOL     OW25533   4.943   4.603   0.505 -0.6052  0.0228  0.0082
 6442SOL    HW225534   4.929   4.558   0.421  0.2300  1.5948 -1.0398
 6442SOL    HW325535   4.916   4.693   0.488  0.8449  0.6774  1.0264
 6442SOL    MW425536   4.938   4.609   0.491 -0.1301 -0.3292  0.3170
 6443SOL     OW25537   1.009   2.717   6.299  0.3005  0.5228  0.2228
 6443SOL    HW225538   1.030   2.765   6.220 -0.6812  1.0456  0.2648
 6443SOL    HW325539   0.978   2.784   6.361  3.0834  0.4731  1.8499
 6443SOL    MW425540   1.008   2.732   6.297  0.3987 -0.2254  0.5358
 6444SOL     OW25541   4.837   1.258   4.199 -0.3070 -0.0686 -0.1695
 6444SOL    HW225542   4.926   1.282   4.227 -0.3134 -0.0215 -0.1881
 6444SOL    HW325543   4.789   1.341   4.201 -0.5816 -0.2333  0.7003
 6444SOL    MW425544   4.842   1.272   4.203 -0.4333 -0.3855  0.3100
 6445SOL     OW25545   5.906   5.886   6.324 -0.1155  0.0345 -0.3508
 6445SOL    HW225546   5.850   5.958   6.296  0.2099  0.5078  0.2043
 6445SOL    HW325547   5.989   5.927   6.347  0.6341 -0.7078 -1.5929
 6445SOL    MW425548   5.910   5.901   6.323 -0.3822  0.1726  0.1720
 6446SOL     OW25549   2.917   6.106   5.654  0.4894  0.3657  0.0407
 6446SOL    HW225550   2.907   6.013   5.633  0.0269  0.6074 -0.8545
 6446SOL    HW325551   2.993   6.134   5.603 -0.0633  0.7363 -0.5889
 6446SOL    MW425552   2.926   6.097   5.645 -0.5856 -0.5166  0.2807
 6447SOL     OW25553   0.733   6.323   0.030 -0.1903 -0.0687 -0.2330
 6447SOL    HW225554   0.721   6.390   0.097 -1.3903 -2.1363  1.7624
 6447SOL    HW325555   0.823   6.292   0.043 -0.8087 -1.3362  1.3850
 6447SOL    MW425556   0.744   6.328   0.041 -0.0196 -0.1869 -0.8072
 6448SOL     OW25557  -0.004   6.190   0.552  0.6253  0.1488 -0.9745
 6448SOL    HW225558  -0.098   6.184   0.568  0.7691 -2.7959 -0.6078
 6448SOL    HW325559   0.006   6.170   0.459  0.9445 -1.9638 -0.5512
 6448SOL    MW425560  -0.015   6.186   0.542 -0.3781  0.0452  0.3183
 6449SOL     OW25561   2.882   3.936   3.534  0.5915  0.7269  0.1851
 6449SOL    HW225562   2.880   3.856   3.483 -0.6320  0.5622  0.4545
 6449SOL    HW325563   2.850   3.911   3.621 -1.4954  1.7794 -0.2000
 6449SOL    MW425564   2.877   3.922   3.539  0.1144 -0.3206  0.3831
 6450SOL     OW25565   0.486   2.451   1.555 -0.0931  0.1427  0.3923
 6450SOL    HW225566   0.416   2.385   1.552  0.3785 -0.4322  1.5511
 6450SOL    HW325567   0.440   2.535   1.551 -0.8036 -0.2330  0.4626
 6450SOL    MW425568   0.470   2.453   1.554  0.3822 -0.0381  0.3782
 6451SOL     OW25569   3.745   2.792   5.806 -0.6467 -0.0171  0.3343
 6451SOL    HW225570   3.799   2.730   5.855  0.4466  1.4972  1.1211
 6451SOL    HW325571   3.671   2.811   5.864 -1.4476 -1.1802 -0.2567
 6451SOL    MW425572   3.742   2.787   5.820 -0.3436  0.5603 -0.8450
 6452SOL     OW25573   0.478   0.371   0.682  0.0134 -0.1036 -0.2743
 6452SOL    HW225574   0.441   0.388   0.769  3.7753 -1.2283  1.7728
 6452SOL    HW325575   0.498   0.457   0.647  1.7533  0.3811  1.6974
 6452SOL    MW425576   0.476   0.384   0.689 -0.3619 -0.3997 -0.0734
 6453SOL     OW25577   4.510   6.219   4.961 -0.0077 -0.0537  0.7562
 6453SOL    HW225578   4.560   6.223   4.879  0.2910 -1.0717  0.8706
 6453SOL    HW325579   4.440   6.155   4.942 -1.0426  1.0540  0.7252
 6453SOL    MW425580   4.507   6.211   4.948  0.0854  0.3594  0.1844
 6454SOL     OW25581   2.709   5.299   0.930  0.4994 -0.1478 -0.4671
 6454SOL    HW225582   2.678   5.267   0.845  0.2779 -0.0803 -0.4130
 6454SOL    HW325583   2.687   5.392   0.931  0.3680 -0.1800 -0.2760
 6454SOL    MW425584   2.702   5.307   0.919 -0.0454 -0.1793  0.6009
 6455SOL     OW25585   3.076   5.635   3.822  0.3113  0.5902  0.0002
 6455SOL    HW225586   3.153   5.646   3.767  0.3098 -1.5980 -0.5257
 6455SOL    HW325587   3.026   5.565   3.779  0.0595 -0.8665  2.4780
 6455SOL    MW425588   3.079   5.627   3.809  0.3296  0.2167  0.0580
 6456SOL     OW25589   4.471   6.386   5.168 -0.2970 -0.3138 -0.3768
 6456SOL    HW225590   4.512   6.331   5.102 -0.3725  0.2957 -0.9291
 6456SOL    HW325591   4.391   6.418   5.127 -0.5515 -0.2536  0.1500
 6456SOL    MW425592   4.466   6.383   5.154  0.0917 -0.2033 -0.4755
 6457SOL     OW25593   0.647   2.196   4.740  0.4037 -0.6440 -0.2417
 6457SOL    HW225594   0.633   2.160   4.828  1.0811  0.4934  0.3646
 6457SOL    HW325595   0.589   2.272   4.736 -0.4370 -1.3074 -1.2115
 6457SOL    MW425596   0.638   2.201   4.751 -0.1356 -0.5920 -0.3035
 6458SOL     OW25597   4.901   5.171   4.360  0.0187 -0.0631 -0.1185
 6458SOL    HW225598   4.992   5.155   4.335  0.1130  1.0494 -0.5457
 6458SOL    HW325599   4.883   5.260   4.329 -0.4403  0.6976  2.2010
 6458SOL    MW425600   4.910   5.181   4.352 -0.1901  0.3358  0.5471
 6459SOL     OW25601   3.177   2.086   6.160  0.2505  0.8323 -0.0096
 6459SOL    HW225602   3.264   2.063   6.193  0.4413 -0.1447 -1.1337
 6459SOL    HW325603   3.193   2.141   6.083 -0.1219  0.7858 -0.1256
 6459SOL    MW425604   3.190   2.090   6.154 -0.1916  0.0388 -0.1233
 6460SOL     OW25605   4.706   2.682   0.460 -0.0913 -0.1657 -0.2948
 6460SOL    HW225606   4.729   2.598   0.502  1.2564  0.8009  1.0240
 6460SOL    HW325607   4.629   2.712   0.507  2.2339  1.6150  2.7696
 6460SOL    MW425608   4.699   2.675   0.472 -0.1923 -0.6874  0.0037
 6461SOL     OW25609   2.867   4.864   0.414  0.0762  0.3798  0.3574
 6461SOL    HW225610   2.782   4.822   0.420  0.0416  0.0783 -1.5248
 6461SOL    HW325611   2.930   4.796   0.439 -0.1244 -0.0769 -0.3525
 6461SOL    MW425612   2.864   4.850   0.418  0.2541  0.2239  0.1525
 6462SOL     OW25613   2.862   6.397   5.768  0.2141 -0.7564  0.0465
 6462SOL    HW225614   2.825   6.386   5.856 -3.9358  2.0443 -0.9988
 6462SOL    HW325615   2.799   6.355   5.710 -1.1171  3.2501 -1.8397
 6462SOL    MW425616   2.849   6.390   5.772  0.3215 -1.2123 -0.8113
 6463SOL     OW25617   1.992   2.687   0.216  0.3878  0.7348 -0.1286
 6463SOL    HW225618   1.915   2.688   0.273 -0.2564  0.4922 -0.9588
 6463SOL    HW325619   2.067   2.686   0.275 -0.2272  1.8701  0.7151
 6463SOL    MW425620   1.992   2.687   0.231 -0.0699  0.2029 -0.3600
 6464SOL     OW25621   4.020   0.705   0.612 -0.0178 -0.2442 -0.0305
 6464SOL    HW225622   3.975   0.752   0.683  0.7221 -0.8793  0.8827
 6464SOL    HW325623   4.034   0.771   0.544 -1.7473  0.1187 -0.0797
 6464SOL    MW425624   4.016   0.720   0.612 -0.5858 -0.1974  0.0724
 6465SOL     OW25625   4.042   5.245   1.909 -0.3691 -0.0867 -0.0507
 6465SOL    HW225626   4.025   5.168   1.963 -0.4487 -0.1727 -0.1946
 6465SOL    HW325627   4.120   5.285   1.947 -1.5945  1.0354  1.3982
 6465SOL    MW425628   4.050   5.240   1.921 -0.3964 -0.6381  0.0174
 6466SOL     OW25629   0.085   0.221   1.788  0.0982 -0.6174 -0.3785
 6466SOL    HW225630   0.026   0.205   1.862  0.1332  0.4777 -0.0942
 6466SOL    HW325631   0.170   0.238   1.828  0.1193 -0.0291 -0.6621
 6466SOL    MW425632   0.088   0.221   1.803 -0.0513 -0.0335 -0.2918
 6467SOL     OW25633   1.356   1.355   2.525  0.9453  0.7181  0.2685
 6467SOL    HW225634   1.370   1.392   2.612  2.2429 -3.5089  2.1247
 6467SOL    HW325635   1.284   1.293   2.536  2.2705 -1.1940 -1.1346
 6467SOL    MW425636   1.349   1.352   2.538 -0.2206  0.5231 -0.2711
 6468SOL     OW25637   0.757   0.604   0.686  0.1950  0.6529  0.3083
 6468SOL    HW225638   0.772   0.590   0.780  0.0654 -0.8953  0.1130
 6468SOL    HW325639   0.676   0.654   0.682 -1.9473 -2.4890  0.9705
 6468SOL    MW425640   0.748   0.609   0.698 -0.4716 -0.2117  0.2150
 6469SOL     OW25641   2.445   1.846   1.419  0.3718  0.0960 -0.7517
 6469SOL    HW225642   2.401   1.780   1.364  0.6630 -0.5817 -0.1911
 6469SOL    HW325643   2.534   1.814   1.428  0.4507  0.4389 -0.2640
 6469SOL    MW425644   2.451   1.833   1.413 -0.8934 -0.1657 -0.5969
 6470SOL     OW25645   4.451   1.666   4.798 -0.2036 -0.3030 -0.2503
 6470SOL    HW225646   4.511   1.594   4.777  0.0042 -0.1119 -0.3150
 6470SOL    HW325647   4.412   1.641   4.882 -1.9815 -1.6810 -1.4269
 6470SOL    MW425648   4.454   1.653   4.806  0.2414  0.0066 -0.2369
 6471SOL     OW25649   3.726   4.455   5.975  0.3460 -0.0498  0.0519
 6471SOL    HW225650   3.732   4.516   5.902  0.4645 -1.5562 -1.2564
 6471SOL    HW325651   3.814   4.453   6.012  0.3535  0.5185  0.0666
 6471SOL    MW425652   3.739   4.463   5.970 -0.2343 -0.3680  0.0154
 6472SOL     OW25653   1.371   4.520   0.114 -0.3384 -0.2076 -0.0049
 6472SOL    HW225654   1.408   4.580   0.180 -1.3571 -0.2639  0.6464
 6472SOL    HW325655   1.424   4.441   0.121 -0.1530 -0.0485  0.4320
 6472SOL    MW425656   1.383   4.518   0.124 -0.2629 -0.0405  0.3026
 6473SOL     OW25657   3.927   0.092   1.500  0.3093  0.7260 -0.3199
 6473SOL    HW225658   3.913   0.022   1.563  0.8448  0.2762 -0.6912
 6473SOL    HW325659   3.953   0.167   1.553 -0.9136  0.8457  0.1364
 6473SOL    MW425660   3.929   0.093   1.515 -0.1275 -0.4784 -0.3000
 6474SOL     OW25661   1.871   6.163   2.537 -0.1272  0.0534 -0.0931
 6474SOL    HW225662   1.932   6.123   2.599 -0.3533  3.1370  2.3773
 6474SOL    HW325663   1.883   6.257   2.549 -3.2743  0.7922 -1.6893
 6474SOL    MW425664   1.881   6.170   2.546  0.2949  0.0419  0.0006
 6475SOL     OW25665   5.442   0.362   5.952  0.0772 -0.2398 -0.0351
 6475SOL    HW225666   5.416   0.341   5.862  0.0711  0.0636 -0.1078
 6475SOL    HW325667   5.391   0.440   5.974 -1.1668 -1.2567  0.8361
 6475SOL    MW425668   5.432   0.370   5.943  0.0678 -0.4108  0.0832
 6476SOL     OW25669   2.706   5.620   5.167  0.6122 -0.2797 -0.0072
 6476SOL    HW225670   2.700   5.559   5.093  1.1276 -1.7366  1.1073
 6476SOL    HW325671   2.771   5.684   5.140 -0.9638  0.6782 -1.7895
 6476SOL    MW425672   2.714   5.620   5.153 -0.0270 -0.3906 -0.3592
 6477SOL     OW25673   5.641   1.899   1.736 -0.0050  0.0016 -0.6387
 6477SOL    HW225674   5.653   1.863   1.648 -1.7626 -0.3201 -0.7888
 6477SOL    HW325675   5.689   1.982   1.735 -1.3473  0.8469 -2.5059
 6477SOL    MW425676   5.649   1.905   1.724  0.0529 -0.1406  0.5611
 6478SOL     OW25677   4.322   6.301   5.905  0.0237 -0.2163 -0.1676
 6478SOL    HW225678   4.272   6.378   5.931 -0.8677 -0.6100 -0.6615
 6478SOL    HW325679   4.413   6.324   5.923 -0.3301  0.5306  0.7097
 6478SOL    MW425680   4.328   6.314   5.910 -0.0577 -0.3275 -0.1579
 6479SOL     OW25681   4.104   1.149   4.444  1.1053  0.0154 -0.6422
 6479SOL    HW225682   4.009   1.143   4.453  1.2649 -1.7937  0.3959
 6479SOL    HW325683   4.130   1.218   4.505  0.5608 -0.4565  0.1463
 6479SOL    MW425684   4.095   1.157   4.453  0.8269  0.5531  0.2382
 6480SOL     OW25685   0.089   0.595   1.403  0.7905  0.7065  0.0607
 6480SOL    HW225686   0.140   0.515   1.415  0.0279  0.3051  0.6925
 6480SOL    HW325687   0.042   0.606   1.486  0.5828  1.5908 -0.1649
 6480SOL    MW425688   0.090   0.586   1.416 -0.3029  0.0586 -0.4484
 6481SOL     OW25689   2.443   3.849   3.254  0.0043  0.5652  0.0453
 6481SOL    HW225690   2.485   3.763   3.246 -1.2562 -0.2912  1.9093
 6481SOL    HW325691   2.449   3.887   3.166 -1.0427 -2.2163 -1.3532
 6481SOL    MW425692   2.449   3.843   3.241  0.1284 -0.2771 -0.1346
 6482SOL     OW25693   4.168   5.566   1.427 -0.1584 -0.1506 -0.3096
 6482SOL    HW225694   4.111   5.540   1.355  0.2875  0.8560 -1.0535
 6482SOL    HW325695   4.111   5.610   1.489 -0.2719  0.4565 -0.8410
 6482SOL    MW425696   4.153   5.568   1.425 -0.5275  0.1641 -0.6901
 6483SOL     OW25697   0.497   0.064   4.892  0.5990 -0.5560 -0.2717
 6483SOL    HW225698   0.471   0.118   4.967 -0.7237 -1.0514 -0.3515
 6483SOL    HW325699   0.486   0.121   4.816 -1.8195 -1.1962 -0.4701
 6483SOL    MW425700   0.492   0.078   4.892  0.0055 -0.9727 -0.2739
 6484SOL     OW25701   0.616   3.231   0.195  0.1971  0.0341 -0.0958
 6484SOL    HW225702   0.687   3.176   0.228 -0.3821 -0.6237  0.0771
 6484SOL    HW325703   0.564   3.173   0.139 -1.6433 -0.2330  1.7482
 6484SOL    MW425704   0.618   3.216   0.192 -0.3411  0.7122  0.3973
 6485SOL     OW25705   4.872   1.943   4.384 -0.1086  0.6417 -0.1929
 6485SOL    HW225706   4.819   1.981   4.454 -0.1504 -0.0725  0.1718
 6485SOL    HW325707   4.854   1.997   4.308 -2.2648 -0.2667 -0.3992
 6485SOL    MW425708   4.863   1.955   4.384  0.3372  0.0768  0.5140
 6486SOL     OW25709   0.320   4.353   3.562 -0.6019 -0.1662 -0.1705
 6486SOL    HW225710   0.242   4.403   3.585 -0.3107  0.4143 -0.4153
 6486SOL    HW325711   0.286   4.275   3.518 -1.0162  0.7065 -1.4683
 6486SOL    MW425712   0.305   4.349   3.559  0.5738  0.4127  0.2621
 6487SOL     OW25713   3.513   0.111   2.881 -0.3163 -0.1281 -0.3143
 6487SOL    HW225714   3.439   0.051   2.879  0.4600 -1.1283  0.0919
 6487SOL    HW325715   3.477   0.192   2.918 -1.7874  0.3011 -2.4899
 6487SOL    MW425716   3.498   0.114   2.886  0.2537 -0.5015  0.3499
 6488SOL     OW25717   0.972   1.077   5.576 -0.3292  0.3759  0.4328
 6488SOL    HW225718   0.935   1.156   5.534  1.4723  1.0307 -0.0000
 6488SOL    HW325719   0.912   1.059   5.649 -1.7135  1.1450 -0.4555
 6488SOL    MW425720   0.959   1.085   5.580  0.2099 -0.1913 -0.0546
 6489SOL     OW25721   5.075   4.321   1.172 -0.5860 -0.1982 -0.5346
 6489SOL    HW225722   5.012   4.298   1.104  0.5764 -0.1412 -1.6807
 6489SOL    HW325723   5.070   4.249   1.235 -0.8631 -0.8504 -1.2905
 6489SOL    MW425724   5.066   4.308   1.171  0.5698 -0.2492 -0.1173
 6490SOL     OW25725   3.013   2.127   2.472  0.7936  0.3700  0.0293
 6490SOL    HW225726   3.088   2.158   2.422  0.0162 -1.0354 -2.1564
 6490SOL    HW325727   2.946   2.194   2.459  1.1859  0.9275  0.8024
 6490SOL    MW425728   3.014   2.140   2.464 -0.2024 -0.1805 -0.5666
 6491SOL     OW25729   5.040   0.725   3.198 -1.3076  0.3378  0.0645
 6491SOL    HW225730   5.069   0.797   3.142 -0.3964  1.7486  2.2582
 6491SOL    HW325731   5.112   0.662   3.196 -1.2235  0.4395 -0.2001
 6491SOL    MW425732   5.053   0.726   3.190  0.8198 -0.7586 -0.3950
 6492SOL     OW25733   2.880   3.097   3.643 -0.0353  0.2611  0.0268
 6492SOL    HW225734   2.840   3.011   3.656 -1.0672  0.6689 -0.3634
 6492SOL    HW325735   2.887   3.133   3.732  1.5129 -0.6731  0.3326
 6492SOL    MW425736   2.876   3.091   3.657  0.1979  0.1474 -0.3007
 6493SOL     OW25737   0.765   5.695   3.145 -0.1742 -0.1553 -0.3284
 6493SOL    HW225738   0.747   5.770   3.202 -1.3846 -0.1239 -0.7106
 6493SOL    HW325739   0.689   5.638   3.157  0.3020 -0.8856 -0.7365
 6493SOL    MW425740   0.753   5.697   3.154  0.2463  0.6209  0.1996
 6494SOL     OW25741   1.963   5.114   1.177  0.2883  0.2817  0.3414
 6494SOL    HW225742   2.002   5.090   1.093  0.7223  1.2080  0.2650
 6494SOL    HW325743   1.931   5.031   1.213  1.4507 -0.3566 -0.0425
 6494SOL    MW425744   1.964   5.100   1.170  0.0297  0.0992  0.0829
 6495SOL     OW25745   0.569   5.193   2.070  0.0312 -0.0196 -0.0372
 6495SOL    HW225746   0.601   5.110   2.036 -0.1237 -0.1322  0.0884
 6495SOL    HW325747   0.644   5.230   2.117 -0.0242 -0.2956  0.2813
 6495SOL    MW425748   0.583   5.187   2.072 -0.8134  0.3206 -0.3713
 6496SOL     OW25749   5.682   3.303   1.153  0.8619  0.0370  0.2046
 6496SOL    HW225750   5.596   3.317   1.193  0.7775 -1.2063  0.5086
 6496SOL    HW325751   5.725   3.239   1.210  2.2240  1.0542  0.3689
 6496SOL    MW425752   5.676   3.297   1.166  0.0817  1.2224 -0.2116
 6497SOL     OW25753   0.304   4.895   1.909  0.3055  0.1540 -0.4945
 6497SOL    HW225754   0.265   4.982   1.907  2.0799  1.0025 -1.5519
 6497SOL    HW325755   0.348   4.890   1.994 -1.4676 -0.5741  0.4438
 6497SOL    MW425756   0.305   4.906   1.920 -0.1646  0.0608 -0.4726
 6498SOL     OW25757   0.658   5.596   0.023 -0.4297 -0.1293  0.2924
 6498SOL    HW225758   0.656   5.676  -0.029  0.4363 -0.5993 -0.5068
 6498SOL    HW325759   0.711   5.536  -0.029 -0.3094 -0.9180  1.3041
 6498SOL    MW425760   0.665   5.599   0.010  0.5299 -0.2701 -0.0974
 6499SOL     OW25761   4.721   5.284   0.128  0.3738  0.0922 -0.0730
 6499SOL    HW225762   4.798   5.236   0.158  0.3776  0.0411 -0.1633
 6499SOL    HW325763   4.677   5.222   0.069  0.1259  0.0224  0.1807
 6499SOL    MW425764   4.725   5.269   0.124  0.2896 -0.1714  0.1052
 6500SOL     OW25765   0.055   0.277   4.654 -0.1323 -0.3287 -0.3193
 6500SOL    HW225766  -0.029   0.312   4.683  0.2843  0.3176  0.1488
 6500SOL    HW325767   0.086   0.224   4.728  0.2876  0.1829 -0.1193
 6500SOL    MW425768   0.048   0.275   4.668  0.6040  0.3313 -0.1825
 6501SOL     OW25769   4.436   0.792   1.188  0.0396 -0.1187  0.4838
 6501SOL    HW225770   4.515   0.821   1.142 -0.0726  0.8585  0.8819
 6501SOL    HW325771   4.370   0.857   1.164 -0.4462 -0.5103  0.7548
 6501SOL    MW425772   4.438   0.804   1.178 -0.5423  0.0270  0.0289
 6502SOL     OW25773   6.151   3.376   0.987  0.5096  0.2202  0.6312
 6502SOL    HW225774   6.235   3.396   1.029  0.0571 -0.6981  2.0421
 6502SOL    HW325775   6.162   3.287   0.954 -0.4042 -0.5624  2.2840
 6502SOL    MW425776   6.164   3.367   0.988 -0.3438  0.4251  0.0860
 6503SOL     OW25777   2.597   4.419   0.013 -0.1091 -0.7709 -0.1116
 6503SOL    HW225778   2.657   4.429  -0.062 -0.2557 -0.5798 -0.2046
 6503SOL    HW325779   2.510   4.426  -0.026 -0.2098 -1.6851 -0.0713
 6503SOL    MW425780   2.594   4.421  -0.002  0.3444  0.0702  0.1859
 6504SOL     OW25781   4.062   0.355   5.481 -0.4687  0.3273 -0.1204
 6504SOL    HW225782   3.975   0.315   5.477 -0.8067  0.7385  2.0567
 6504SOL    HW325783   4.046   0.444   5.512  0.7606  0.1312  1.1994
 6504SOL    MW425784   4.048   0.361   5.485 -0.4788  0.0747  0.5467
 6505SOL     OW25785   1.715   0.682   4.770  0.4689 -0.6049  0.0971
 6505SOL    HW225786   1.620   0.670   4.767  0.3072  0.6458 -0.8767
 6505SOL    HW325787   1.735   0.693   4.863 -0.2661 -1.2592  0.3503
 6505SOL    MW425788   1.705   0.682   4.782 -0.0893  0.5835  0.0266
 6506SOL     OW25789   4.891   4.861   1.416 -0.7465  0.1841 -0.3107
 6506SOL    HW225790   4.964   4.902   1.462  0.8222 -0.5254 -2.0800
 6506SOL    HW325791   4.903   4.767   1.430 -2.2774  0.0940  0.7054
 6506SOL    MW425792   4.902   4.854   1.424  0.0461 -0.0992  0.1683
 6507SOL     OW25793   6.397   5.276   0.525 -0.4668  0.3115 -0.2185
 6507SOL    HW225794   6.452   5.328   0.583  0.8297 -0.3554 -0.8150
 6507SOL    HW325795   6.368   5.202   0.579 -0.9015  0.7285  0.1306
 6507SOL    MW425796   6.401   5.273   0.540 -0.4059  0.5562 -0.4353
 6508SOL     OW25797   6.204   2.255   0.778  0.5374 -0.2240 -0.1602
 6508SOL    HW225798   6.163   2.271   0.693  1.1048 -1.3244 -0.6567
 6508SOL    HW325799   6.140   2.203   0.826 -0.2662  1.3299  0.5452
 6508SOL    MW425800   6.190   2.250   0.773  0.0084 -0.1738 -0.1451
 6509SOL     OW25801   1.257   2.955   5.020 -0.1991 -0.5595 -0.6324
 6509SOL    HW225802   1.342   2.952   4.977  0.7736 -1.5496  1.2573
 6509SOL    HW325803   1.273   2.925   5.109 -2.0679  1.7112  0.5879
 6509SOL    MW425804   1.270   2.950   5.026  0.3753  0.0962  0.8347
 6510SOL     OW25805   6.019   0.920   5.247 -0.3018  0.4913  0.3647
 6510SOL    HW225806   6.028   1.013   5.270  0.1116  0.8910 -1.2769
 6510SOL    HW325807   6.089   0.904   5.184 -0.5444 -0.8850  0.4172
 6510SOL    MW425808   6.029   0.931   5.242 -0.5563  0.1407 -0.2534
 6511SOL     OW25809   6.286   1.345   4.285 -0.2038  0.4285  0.5299
 6511SOL    HW225810   6.346   1.376   4.217 -1.3320  1.3580 -0.0844
 6511SOL    HW325811   6.329   1.267   4.321  0.9059  0.5098 -0.5446
 6511SOL    MW425812   6.300   1.338   4.280 -0.1069 -0.4097  0.0889
 6512SOL     OW25813   5.997   2.120   0.944  0.0602  0.2588 -0.1819
 6512SOL    HW225814   5.933   2.186   0.971 -0.1109  0.1997 -0.4405
 6512SOL    HW325815   5.951   2.068   0.879 -0.3174 -1.0534  1.0831
 6512SOL    MW425816   5.982   2.122   0.939 -0.1733  0.2202  0.5103
 6513SOL     OW25817   1.417   3.101   1.659  0.5071 -0.4748 -0.3249
 6513SOL    HW225818   1.365   3.095   1.739  0.5433  0.3075 -0.2367
 6513SOL    HW325819   1.375   3.171   1.609  1.3320  0.0143 -0.3533
 6513SOL    MW425820   1.405   3.110   1.663 -0.3285  0.0028 -0.1047
 6514SOL     OW25821   3.432   1.128   1.653  0.2265 -0.3027 -0.8307
 6514SOL    HW225822   3.416   1.052   1.597  0.6712 -0.2329 -1.0564
 6514SOL    HW325823   3.491   1.095   1.721  1.3689  0.1097 -1.5880
 6514SOL    MW425824   3.438   1.114   1.654 -0.0388  0.1671 -0.3301
 6515SOL     OW25825   4.758   4.244   3.633 -0.7161  0.0174  0.3431
 6515SOL    HW225826   4.676   4.193   3.636 -0.2841 -0.9216 -1.6761
 6515SOL    HW325827   4.743   4.307   3.562  0.6961 -0.9608 -0.8747
 6515SOL    MW425828   4.745   4.246   3.624 -0.0479  0.1781  0.3216
 6516SOL     OW25829   4.546   4.041   1.142 -0.2997 -0.0747 -0.2284
 6516SOL    HW225830   4.578   3.964   1.095 -0.7589  0.3360 -1.2493
 6516SOL    HW325831   4.504   4.005   1.220  0.1166 -0.8059 -0.3307
 6516SOL    MW425832   4.544   4.026   1.146 -0.0907  0.0355 -0.4476
 6517SOL     OW25833   4.485   5.156   4.433  0.1023 -0.1657 -0.4063
 6517SOL    HW225834   4.469   5.063   4.417 -0.6115  0.1102 -1.4041
 6517SOL    HW325835   4.426   5.177   4.506  1.0081 -0.7056  0.5117
 6517SOL    MW425836   4.475   5.146   4.441  0.0735 -0.1846 -0.3601
 6518SOL     OW25837   1.643   3.286   2.670 -0.3481 -0.0893 -0.5111
 6518SOL    HW225838   1.686   3.364   2.706  0.0485  0.0766 -1.3287
 6518SOL    HW325839   1.710   3.217   2.674 -0.2001  0.0074 -1.1969
 6518SOL    MW425840   1.658   3.287   2.675  0.1352  0.0530  0.6612
 6519SOL     OW25841   1.094   3.434   5.700 -0.1615 -0.5367 -0.7528
 6519SOL    HW225842   1.001   3.450   5.713 -0.0967 -0.8591  0.1593
 6519SOL    HW325843   1.123   3.391   5.780  0.7768 -0.4343 -1.0192
 6519SOL    MW425844   1.086   3.431   5.712  0.6665  0.0409  0.2938
 6520SOL     OW25845   4.726   0.892   2.244 -0.1748 -0.3030  0.5443
 6520SOL    HW225846   4.768   0.978   2.237 -0.0095 -0.4639 -0.8316
 6520SOL    HW325847   4.719   0.876   2.338 -0.8880  1.5534  0.8604
 6520SOL    MW425848   4.730   0.901   2.255 -0.4011  0.5947 -0.1487
 6521SOL     OW25849   3.511   4.930   3.189 -0.1451 -0.4448 -0.3270
 6521SOL    HW225850   3.434   4.873   3.180 -0.2731 -0.4345  0.6070
 6521SOL    HW325851   3.488   5.008   3.138 -0.8878 -0.3109  0.1967
 6521SOL    MW425852   3.498   4.933   3.181  0.2396 -0.4158 -0.4893
 6522SOL     OW25853   3.481   3.549   3.149  0.0953  0.8132 -0.4381
 6522SOL    HW225854   3.447   3.623   3.198  0.1433  0.6540 -0.1638
 6522SOL    HW325855   3.546   3.509   3.206 -0.8434 -0.2095 -0.0397
 6522SOL    MW425856   3.485   3.553   3.163 -0.8910  0.3294  0.5790
 6523SOL     OW25857   3.916   5.764   4.070 -0.1976 -0.3661  0.0077
 6523SOL    HW225858   3.974   5.757   4.146  0.8850 -1.3147 -0.8641
 6523SOL    HW325859   3.975   5.787   3.998 -1.3092  1.3202 -0.4300
 6523SOL    MW425860   3.932   5.766   4.070  0.1452 -0.4844 -0.1861
 6524SOL     OW25861   1.612   0.728   4.382  0.0055 -0.2166  0.5308
 6524SOL    HW225862   1.661   0.667   4.436 -1.2060 -0.2831  1.6015
 6524SOL    HW325863   1.591   0.679   4.303 -0.0093 -0.8285  0.9116
 6524SOL    MW425864   1.616   0.714   4.379  0.0425  0.0670  0.5454
 6525SOL     OW25865   1.965   0.457   3.809  0.5128  0.1955  0.0621
 6525SOL    HW225866   1.910   0.386   3.777  0.4328  0.3594 -0.1671
 6525SOL    HW325867   2.026   0.415   3.870 -0.1398  0.0756  0.6411
 6525SOL    MW425868   1.966   0.442   3.813  0.1608 -0.1077 -0.4822
 6526SOL     OW25869   0.037   6.421   0.719  0.1752 -0.8481  0.6912
 6526SOL    HW225870   0.027   6.354   0.651 -1.2786  0.4152 -0.4322
 6526SOL    HW325871   0.121   6.462   0.701 -0.5974  0.1110 -1.0322
 6526SOL    MW425872   0.047   6.418   0.707 -0.7106 -0.5099  0.6583
 6527SOL     OW25873   1.428   4.902   4.153  0.2714 -0.3948  0.1921
 6527SOL    HW225874   1.442   4.921   4.060  3.0085 -0.2953  0.5396
 6527SOL    HW325875   1.427   4.988   4.195  2.3638 -0.5152  0.5825
 6527SOL    MW425876   1.430   4.916   4.146  0.0974 -0.4933 -0.4478
 6528SOL     OW25877   3.438   3.407   2.600 -0.0726  0.2677 -0.7906
 6528SOL    HW225878   3.476   3.320   2.617  1.1358  0.4699 -2.2215
 6528SOL    HW325879   3.439   3.450   2.685  0.2307 -0.7815 -0.2413
 6528SOL    MW425880   3.443   3.401   2.613  0.5228 -0.1782 -0.3650
 6529SOL     OW25881   2.057   3.423   0.196 -0.0376 -0.0756 -0.3165
 6529SOL    HW225882   2.148   3.445   0.212  0.0973  0.7557 -2.0640
 6529SOL    HW325883   2.010   3.505   0.207 -0.8332 -0.7486  1.9519
 6529SOL    MW425884   2.062   3.437   0.200 -0.3384  0.1363  0.1302
 6530SOL     OW25885   3.006   1.514   6.386  0.1126  0.1134 -0.2278
 6530SOL    HW225886   3.071   1.512   6.456  0.2723 -2.7766 -0.3415
 6530SOL    HW325887   2.924   1.539   6.430  0.3527 -0.9694  0.8775
 6530SOL    MW425888   3.004   1.517   6.401 -0.2120  0.4213 -0.3023
 6531SOL     OW25889   2.841   2.556   0.157 -0.7063  0.5960 -0.2582
 6531SOL    HW225890   2.903   2.571   0.084 -0.5073  1.3738  0.0549
 6531SOL    HW325891   2.852   2.464   0.180  0.9672  0.9175  0.3485
 6531SOL    MW425892   2.851   2.546   0.150  0.4493 -0.2923  0.6072
 6532SOL     OW25893   5.814   0.520   1.685 -0.2779 -0.6961  0.0673
 6532SOL    HW225894   5.804   0.608   1.648  0.3602 -0.1647  1.1148
 6532SOL    HW325895   5.901   0.492   1.656  0.7452  0.2180  2.0940
 6532SOL    MW425896   5.824   0.528   1.676 -0.7294 -0.9434  0.2290
 6533SOL     OW25897   6.033   1.780   5.455  0.1767  0.0606  0.1489
 6533SOL    HW225898   5.982   1.840   5.509  0.8305  0.2999  0.5182
 6533SOL    HW325899   5.992   1.694   5.470 -1.6372  0.5797 -1.4624
 6533SOL    MW425900   6.021   1.777   5.464 -0.0020  0.1328 -0.0241
 6534SOL     OW25901   1.648   1.820   3.144 -0.3408 -0.1820 -0.1686
 6534SOL    HW225902   1.733   1.802   3.185 -0.0847 -0.1706 -0.6965
 6534SOL    HW325903   1.585   1.772   3.199  0.1683 -1.4588 -0.6608
 6534SOL    MW425904   1.651   1.811   3.157 -0.2671 -0.4176 -0.4150
 6535SOL     OW25905   6.395   5.626   4.532 -0.2063 -0.2110 -0.4500
 6535SOL    HW225906   6.456   5.696   4.555  2.0260 -2.3242  0.5412
 6535SOL    HW325907   6.344   5.611   4.611  1.0264 -1.2900  0.1693
 6535SOL    MW425908   6.397   5.633   4.545  0.0299  0.1572  0.0741
 6536SOL     OW25909   3.008   4.536   4.749 -0.2808  0.0605  0.1364
 6536SOL    HW225910   3.102   4.556   4.748 -0.4220  0.8707 -1.7285
 6536SOL    HW325911   2.980   4.555   4.838  0.9766  1.6252  0.2431
 6536SOL    MW425912   3.017   4.541   4.761 -0.2015 -0.4195 -0.1787
 6537SOL     OW25913   5.612   1.030   5.741 -0.0453 -0.1490  0.0182
 6537SOL    HW225914   5.693   1.025   5.792  0.2117 -0.5441 -0.4193
 6537SOL    HW325915   5.636   1.075   5.661 -0.3748  0.1725  0.0957
 6537SOL    MW425916   5.626   1.035   5.738  0.0142  0.1092 -0.1832
 6538SOL     OW25917   2.804   0.580   2.505  0.0431 -0.3846 -0.0330
 6538SOL    HW225918   2.760   0.580   2.420  0.4570 -2.4290 -0.3047
 6538SOL    HW325919   2.734   0.587   2.569 -0.2573  1.4497 -0.5082
 6538SOL    MW425920   2.789   0.581   2.502 -0.5359  0.1659 -0.1139
 6539SOL     OW25921   5.070   0.786   6.233 -0.4198  0.2714  0.3839
 6539SOL    HW225922   5.155   0.820   6.205  0.1981  0.0176  1.8560
 6539SOL    HW325923   5.017   0.786   6.153  1.1805 -0.2852 -0.7354
 6539SOL    MW425924   5.074   0.790   6.219  0.0788 -0.0111 -0.1944
 6540SOL     OW25925   4.896   4.019   1.633  0.0309 -0.1594  0.0728
 6540SOL    HW225926   4.861   4.102   1.666  1.0294  1.1771 -2.0631
 6540SOL    HW325927   4.931   3.976   1.711  0.2667  1.8244  1.1304
 6540SOL    MW425928   4.896   4.025   1.648  0.6030  0.3935  0.1459
 6541SOL     OW25929   0.224   3.870   5.097  0.4073 -0.7432  0.2911
 6541SOL    HW225930   0.218   3.941   5.033  1.4726 -1.2892 -0.4369
 6541SOL    HW325931   0.200   3.792   5.047 -0.8916 -0.9061  1.1200
 6541SOL    MW425932   0.220   3.869   5.082  0.2658  0.3290 -0.4094
 6542SOL     OW25933   3.308   3.427   0.480 -0.0556  0.6719  0.4087
 6542SOL    HW225934   3.236   3.470   0.525 -0.3743  1.0053 -0.4080
 6542SOL    HW325935   3.383   3.485   0.492 -0.0606  0.6054  0.7689
 6542SOL    MW425936   3.308   3.440   0.488  0.0474  0.6359  0.1241
 6543SOL     OW25937   1.596   2.986   2.009 -0.2705 -0.5095 -0.2922
 6543SOL    HW225938   1.556   2.914   1.960 -1.2599  0.5810 -1.1194
 6543SOL    HW325939   1.525   3.023   2.061 -0.1103  0.7527 -0.9417
 6543SOL    MW425940   1.582   2.981   2.009 -0.1737 -0.2343 -0.4392
 6544SOL     OW25941   0.044   1.471   4.104  0.5174  0.1134  0.1452
 6544SOL    HW225942  -0.014   1.547   4.100 -0.7926 -0.7546  1.4897
 6544SOL    HW325943   0.129   1.506   4.130  0.7782  1.4790 -2.2705
 6544SOL    MW425944   0.047   1.486   4.107  0.0539  0.2916 -0.5619
 6545SOL     OW25945   5.015   5.857   4.240  0.1988 -0.2237 -0.1776
 6545SOL    HW225946   4.959   5.930   4.268  0.3961 -0.2915  0.4114
 6545SOL    HW325947   5.062   5.891   4.164  0.5747  0.4072  0.3182
 6545SOL    MW425948   5.014   5.871   4.234  0.5587  0.9061 -0.1288
 6546SOL     OW25949   4.771   1.400   1.457  0.0280 -1.0574 -0.0819
 6546SOL    HW225950   4.714   1.343   1.509  1.2108 -1.1263  1.1956
 6546SOL    HW325951   4.849   1.412   1.512  0.5285  0.4009 -1.0657
 6546SOL    MW425952   4.774   1.394   1.471 -0.0102 -0.4618  0.0236
 6547SOL     OW25953   2.598   4.016   4.520 -0.4431 -0.7335 -0.3789
 6547SOL    HW225954   2.561   3.997   4.434 -0.2584  0.5636 -0.7614
 6547SOL    HW325955   2.692   3.998   4.510 -0.2986  0.1238 -0.6879
 6547SOL    MW425956   2.606   4.011   4.508 -0.7334 -0.4385 -0.5537
 6548SOL     OW25957   5.512   4.062   5.406 -0.4093  0.2465 -0.5442
 6548SOL    HW225958   5.579   4.007   5.364 -0.1134 -0.4382  0.7575
 6548SOL    HW325959   5.560   4.110   5.473 -1.0914  0.3167 -0.0977
 6548SOL    MW425960   5.527   4.061   5.409  0.6827 -0.1003  0.1175
 6549SOL     OW25961   2.714   2.634   5.788 -0.4401 -0.2210  0.0796
 6549SOL    HW225962   2.750   2.665   5.705 -0.6619 -1.1779 -0.3894
 6549SOL    HW325963   2.791   2.617   5.843 -0.0052 -2.9868 -1.1700
 6549SOL    MW425964   2.729   2.635   5.784 -0.3796  0.3175 -0.2428
 6550SOL     OW25965   0.421   0.706   2.340 -0.7033  0.3042 -0.7383
 6550SOL    HW225966   0.496   0.700   2.398 -0.3359  0.6027 -1.1758
 6550SOL    HW325967   0.355   0.753   2.390 -0.6324 -0.0346 -0.3226
 6550SOL    MW425968   0.422   0.711   2.354  0.0097  0.2858  0.0509
 6551SOL     OW25969   1.936   3.951   4.609  0.8453  0.6643  0.0445
 6551SOL    HW225970   1.992   3.975   4.683 -1.4038 -3.7707  3.6401
 6551SOL    HW325971   1.962   3.862   4.587 -0.6318  0.7773 -2.6079
 6551SOL    MW425972   1.947   3.942   4.616  0.4438  0.0801  0.3457
 6552SOL     OW25973   6.284   0.943   5.683 -0.0470  1.1319 -0.2566
 6552SOL    HW225974   6.274   0.863   5.734  0.3982  1.7188  0.7893
 6552SOL    HW325975   6.378   0.962   5.685 -0.0622  1.3503 -1.0233
 6552SOL    MW425976   6.295   0.935   5.690  0.0534 -0.0531 -0.5045
 6553SOL     OW25977   4.935   5.637   5.805 -0.1604 -0.5618  0.1544
 6553SOL    HW225978   4.996   5.675   5.868 -1.5521 -0.5357  1.5199
 6553SOL    HW325979   4.849   5.644   5.846 -1.1652 -0.3430 -1.8261
 6553SOL    MW425980   4.932   5.643   5.819  0.0927 -0.0216 -0.0256
 6554SOL     OW25981   5.400   2.331   2.616  0.1762  0.2513  0.6660
 6554SOL    HW225982   5.436   2.270   2.681 -0.9731 -0.7926  0.3785
 6554SOL    HW325983   5.362   2.274   2.549  1.2010  1.2998 -0.8703
 6554SOL    MW425984   5.400   2.315   2.616 -0.1294  0.1502 -0.4085
 6555SOL     OW25985   1.158   5.736   5.607 -0.2094  0.3700  0.0935
 6555SOL    HW225986   1.171   5.649   5.570 -1.0472  0.4592 -0.4177
 6555SOL    HW325987   1.131   5.790   5.533  1.4132  1.3516  0.1576
 6555SOL    MW425988   1.156   5.732   5.592  0.1708 -0.0308  0.2678
 6556SOL     OW25989   1.968   3.975   2.332  0.3459 -0.0129  0.5493
 6556SOL    HW225990   1.904   3.915   2.296  1.6413 -1.0458 -0.1162
 6556SOL    HW325991   1.916   4.048   2.367 -1.1687 -0.8839  0.1865
 6556SOL    MW425992   1.953   3.977   2.332 -0.2177 -0.0563 -0.3352
 6557SOL     OW25993   2.750   3.586   6.398  0.1734 -0.1635  0.5898
 6557SOL    HW225994   2.816   3.654   6.417  3.1022 -2.4413 -0.5774
 6557SOL    HW325995   2.730   3.598   6.305 -0.8110  0.2565  0.8451
 6557SOL    MW425996   2.756   3.597   6.388  0.0214 -0.1197  0.3661
 6558SOL     OW25997   0.955   1.163   2.237 -0.2287 -0.3590 -0.7177
 6558SOL    HW225998   1.029   1.157   2.297 -0.7151  0.3560 -0.0352
 6558SOL    HW325999   0.929   1.255   2.239 -0.1532 -0.2752 -2.1552
 6558SOL    MW426000   0.961   1.175   2.245  0.0553 -0.1894  0.2043
 6559SOL     OW26001   5.794   1.958   3.461 -0.2500 -0.4477  0.1083
 6559SOL    HW226002   5.782   2.018   3.387  1.5079 -0.6692 -0.3914
 6559SOL    HW326003   5.708   1.916   3.471 -1.6882  2.4189  0.7793
 6559SOL    MW426004   5.781   1.960   3.453 -0.5246 -0.3499  0.2061
 6560SOL     OW26005   3.980   4.371   3.440 -0.7696  0.0736  0.2449
 6560SOL    HW226006   3.900   4.339   3.482 -0.3558 -0.6439  0.5040
 6560SOL    HW326007   3.991   4.316   3.363  0.5827 -1.2565  1.3249
 6560SOL    MW426008   3.971   4.360   3.436  0.0141 -0.0791  0.5008
 6561SOL     OW26009   6.385   0.236   1.331 -0.3980  0.0445 -0.2122
 6561SOL    HW226010   6.384   0.165   1.267 -0.3170 -0.7933  0.6901
 6561SOL    HW326011   6.293   0.261   1.341 -0.4069  0.2054 -0.6744
 6561SOL    MW426012   6.373   0.230   1.324  0.1215 -0.2268 -0.4044
 6562SOL     OW26013   4.700   1.226   0.764  0.0101  0.2036  0.5088
 6562SOL    HW226014   4.677   1.134   0.768 -1.3239  0.3687 -1.8768
 6562SOL    HW326015   4.649   1.267   0.835 -0.2510 -0.7022  0.8510
 6562SOL    MW426016   4.690   1.219   0.774  0.3355  0.1142  0.4652
 6563SOL     OW26017   5.428   1.289   4.740 -0.4898  0.4119  0.1897
 6563SOL    HW226018   5.515   1.276   4.704 -0.1908  1.1758  0.6040
 6563SOL    HW326019   5.418   1.385   4.743 -2.2341  0.3832 -2.0030
 6563SOL    MW426020   5.438   1.300   4.736 -0.1978 -0.3795 -0.1974
 6564SOL     OW26021   5.358   2.932   1.407 -0.0663 -0.3428 -0.2767
 6564SOL    HW226022   5.311   2.943   1.324 -0.1308  0.8980 -0.0927
 6564SOL    HW326023   5.304   2.977   1.472 -0.4560 -2.0489  0.6136
 6564SOL    MW426024   5.345   2.940   1.405  0.1284 -0.2597  0.5746
 6565SOL     OW26025   3.738   4.151   3.854 -0.3895 -0.5720 -0.3719
 6565SOL    HW226026   3.780   4.215   3.911  0.2647 -1.0159 -0.3333
 6565SOL    HW326027   3.760   4.181   3.765  0.1714 -0.8972 -0.3491
 6565SOL    MW426028   3.747   4.163   3.850  0.2472  0.8140 -0.3880
 6566SOL     OW26029   1.205   4.590   3.794 -0.2617  0.3500 -0.2229
 6566SOL    HW226030   1.248   4.518   3.841 -1.8244 -0.1873  0.4599
 6566SOL    HW326031   1.143   4.626   3.858 -2.4332 -0.3704 -1.8211
 6566SOL    MW426032   1.202   4.585   3.809  0.0459  0.1533  0.2807
 6567SOL     OW26033   6.406   0.576   0.894 -0.0955 -0.1570  0.0690
 6567SOL    HW226034   6.338   0.640   0.916 -0.3094 -0.5393  0.5237
 6567SOL    HW326035   6.463   0.623   0.833 -0.2195  0.4905  0.4346
 6567SOL    MW426036   6.405   0.591   0.889 -0.2999  0.3732  0.3299
 6568SOL     OW26037   4.397   4.011   3.880 -0.0274 -0.5725  0.1987
 6568SOL    HW226038   4.354   3.927   3.862 -1.2346  0.0232  0.1716
 6568SOL    HW326039   4.468   3.989   3.941 -0.0728 -1.6633 -0.1194
 6568SOL    MW426040   4.401   3.997   3.886 -0.3233  0.6108 -0.2613
 6569SOL     OW26041   4.050   4.820   3.087 -0.0046  0.4188 -0.0661
 6569SOL    HW226042   4.013   4.895   3.134 -0.9426 -0.5354  0.7498
 6569SOL    HW326043   4.043   4.747   3.148 -0.9864 -0.8023 -1.5550
 6569SOL    MW426044   4.044   4.820   3.101  0.1766 -0.2887  0.3210
 6570SOL     OW26045   2.600   5.560   1.755  0.3853 -0.2556  0.0189
 6570SOL    HW226046   2.571   5.529   1.669 -2.0920  1.5709  0.0746
 6570SOL    HW326047   2.519   5.584   1.800  1.8072  1.4905  1.8079
 6570SOL    MW426048   2.585   5.559   1.750 -0.6313 -0.2308  0.2322
 6571SOL     OW26049   4.647   3.794   1.028  0.0913 -0.4163 -0.0464
 6571SOL    HW226050   4.688   3.757   1.106 -1.7671  0.2357  1.3116
 6571SOL    HW326051   4.572   3.738   1.011 -1.0559  0.9517  0.2780
 6571SOL    MW426052   4.642   3.782   1.036 -0.5506 -0.0239 -0.4324
 6572SOL     OW26053   6.013   5.140   4.283  0.0579  0.0971  0.2935
 6572SOL    HW226054   6.053   5.189   4.212 -1.5899  0.8720 -0.1353
 6572SOL    HW326055   6.001   5.204   4.353  0.2308 -0.3011  0.7008
 6572SOL    MW426056   6.017   5.155   4.283  0.8032 -0.2217 -0.0771
 6573SOL     OW26057   2.909   3.113   6.418  0.1809  0.7595 -0.5491
 6573SOL    HW226058   2.824   3.096   6.459  0.7764 -0.0854  0.4090
 6573SOL    HW326059   2.965   3.140   6.490  0.6860  1.4707 -1.1995
 6573SOL    MW426060   2.905   3.114   6.433  0.3402  0.2696 -0.1529
 6574SOL     OW26061   1.035   5.122   5.239 -0.7791 -0.0030  0.7441
 6574SOL    HW226062   1.065   5.041   5.282 -0.1145 -0.0019  0.3021
 6574SOL    HW326063   1.112   5.153   5.191 -0.9713  0.9979  1.0594
 6574SOL    MW426064   1.049   5.115   5.239  0.2322  0.3029  0.3650
 6575SOL     OW26065   5.222   5.542   4.870 -0.6513  0.1428 -0.0452
 6575SOL    HW226066   5.183   5.550   4.783 -1.6187 -1.5351  0.1727
 6575SOL    HW326067   5.290   5.476   4.860 -0.1661  0.5836  0.2983
 6575SOL    MW426068   5.226   5.534   4.857  0.3856  0.3223 -0.2935
 6576SOL     OW26069   2.945   1.202   3.341 -0.6544  0.3601 -0.4189
 6576SOL    HW226070   2.910   1.248   3.417 -0.2209  3.2799 -1.8668
 6576SOL    HW326071   3.040   1.213   3.348 -0.3482 -1.9774  0.1040
 6576SOL    MW426072   2.953   1.209   3.352 -0.4334 -0.2587 -0.0970
 6577SOL     OW26073   0.623   4.856   6.360 -0.6569  0.4444  0.9864
 6577SOL    HW226074   0.593   4.894   6.443  0.7454  0.6043  1.4399
 6577SOL    HW326075   0.718   4.866   6.361 -0.4352 -1.1348  0.1412
 6577SOL    MW426076   0.631   4.862   6.371 -0.7742 -0.0968  0.5862
 6578SOL     OW26077   4.416   2.401   5.701 -0.3649 -0.0772  0.1685
 6578SOL    HW226078   4.365   2.371   5.777 -0.4186 -0.5234 -0.0464
 6578SOL    HW326079   4.392   2.493   5.692 -0.5150 -0.0738  0.5681
 6578SOL    MW426080   4.406   2.409   5.710  0.2521 -0.0933 -0.3619
 6579SOL     OW26081   4.932   0.767   4.158 -0.2722  0.3656  0.0653
 6579SOL    HW226082   4.940   0.785   4.064  0.7536 -0.5570 -0.0447
 6579SOL    HW326083   4.847   0.804   4.182 -0.3808  0.9622 -1.1388
 6579SOL    MW426084   4.922   0.774   4.149  0.2024  0.0187  0.2909
 6580SOL     OW26085   6.375   2.566   0.355 -0.0240  0.1765  0.0869
 6580SOL    HW226086   6.419   2.483   0.340  1.0074  0.8931 -1.1333
 6580SOL    HW326087   6.397   2.590   0.445 -0.6034 -1.0165  0.5525
 6580SOL    MW426088   6.384   2.558   0.365  0.2421  0.7026  0.2697
 6581SOL     OW26089   2.273   6.335   3.676  0.4155 -0.0031 -0.3515
 6581SOL    HW226090   2.238   6.424   3.677 -0.6567 -0.3979  1.0061
 6581SOL    HW326091   2.332   6.333   3.601 -0.4161  1.5079 -1.0883
 6581SOL    MW426092   2.276   6.346   3.666  0.0585 -0.3454 -0.6185
 6582SOL     OW26093   5.295   3.247   5.590 -0.7338  0.9455  0.6063
 6582SOL    HW226094   5.375   3.236   5.539 -0.5373  1.6562  0.7507
 6582SOL    HW326095   5.323   3.235   5.681 -1.2413 -1.2080  0.5370
 6582SOL    MW426096   5.309   3.244   5.595  0.2217 -0.4879  0.3403
 6583SOL     OW26097   5.126   2.751   2.092  0.4336  0.1235 -0.5192
 6583SOL    HW226098   5.083   2.678   2.048  0.0583 -0.1313  0.2572
 6583SOL    HW326099   5.102   2.828   2.039  0.7607 -0.2990 -1.2878
 6583SOL    MW426100   5.117   2.752   2.079  0.4549 -0.4090  0.2955
 6584SOL     OW26101   0.854   1.287   5.464 -0.0523 -0.1987 -0.4066
 6584SOL    HW226102   0.809   1.246   5.390 -0.3284 -1.2197  0.3068
 6584SOL    HW326103   0.784   1.332   5.512  0.0408 -0.0025 -0.4507
 6584SOL    MW426104   0.839   1.288   5.460 -0.5365  0.3482  0.2482
 6585SOL     OW26105   0.056   3.200   5.217  0.5629  0.1964  0.4404
 6585SOL    HW226106   0.016   3.282   5.246  1.9820  0.2645  2.4037
 6585SOL    HW326107   0.004   3.174   5.141  0.5169  3.2702 -0.7220
 6585SOL    MW426108   0.044   3.208   5.211 -0.4866 -0.2506 -0.6664
 6586SOL     OW26109   1.915   2.151   3.744  0.1591  0.2244 -0.1268
 6586SOL    HW226110   1.941   2.102   3.666  0.7558  0.5944 -0.1627
 6586SOL    HW326111   1.997   2.183   3.781 -0.2910  2.5345 -0.9597
 6586SOL    MW426112   1.929   2.149   3.739  0.7740 -0.2272 -0.2691
 6587SOL     OW26113   0.348   3.899   6.139 -0.2577 -0.0084  0.1374
 6587SOL    HW226114   0.415   3.836   6.163  0.4167  0.7461  0.2672
 6587SOL    HW326115   0.303   3.859   6.064 -0.2625 -0.9175  0.6145
 6587SOL    MW426116   0.351   3.885   6.132 -0.6426  0.3135 -0.1319
 6588SOL     OW26117   4.395   2.487   1.238 -0.2808 -0.1282 -0.3867
 6588SOL    HW226118   4.476   2.505   1.191 -0.2311  1.2314  0.1533
 6588SOL    HW326119   4.328   2.481   1.170  0.4688 -2.8781 -0.9829
 6588SOL    MW426120   4.396   2.489   1.223 -0.1764  0.2203  0.0631
 6589SOL     OW26121   0.134   5.893   0.048  0.0500 -0.5574 -0.1925
 6589SOL    HW226122   0.068   5.898   0.117  0.6389  1.4775  0.2951
 6589SOL    HW326123   0.084   5.881  -0.032 -0.7356 -1.4927  0.4085
 6589SOL    MW426124   0.119   5.892   0.047 -0.2267  0.0682 -0.5362
 6590SOL     OW26125   4.645   4.073   4.973  0.3372 -0.3783  0.4048
 6590SOL    HW226126   4.621   4.101   5.061  0.8652 -0.7274  0.6646
 6590SOL    HW326127   4.569   4.024   4.942 -0.6949  1.4828 -0.1408
 6590SOL    MW426128   4.632   4.070   4.981 -0.1493 -0.0057 -0.3850
 6591SOL     OW26129   0.656   1.377   5.649  0.2214  0.4313 -0.0739
 6591SOL    HW226130   0.637   1.469   5.636 -0.0195  0.6296  1.4862
 6591SOL    HW326131   0.570   1.334   5.651  0.2799  0.3196  0.1447
 6591SOL    MW426132   0.642   1.383   5.648  0.6307 -0.0929 -0.6373
 6592SOL     OW26133   0.857   5.102   4.288  0.7568 -0.5173  0.3299
 6592SOL    HW226134   0.842   5.068   4.376 -1.1493  0.0649  0.2861
 6592SOL    HW326135   0.833   5.029   4.230  1.7170 -0.7994  0.2760
 6592SOL    MW426136   0.852   5.087   4.292 -0.8856 -0.4009  0.7632
 6593SOL     OW26137   2.569   1.779   5.560 -0.2473 -0.5111 -0.9155
 6593SOL    HW226138   2.518   1.736   5.629  0.8851 -0.3594  0.0633
 6593SOL    HW326139   2.537   1.741   5.479 -0.8892 -1.4809 -0.2347
 6593SOL    MW426140   2.558   1.769   5.559  0.2578  0.0159  0.2227
 6594SOL     OW26141   1.574   4.986   4.523 -0.2364 -0.1066  0.3527
 6594SOL    HW226142   1.498   4.982   4.581 -0.7446 -0.4003 -0.3188
 6594SOL    HW326143   1.571   4.903   4.474  0.9094 -0.4366  0.8053
 6594SOL    MW426144   1.563   4.974   4.524 -0.1983 -0.3239 -0.1810
 6595SOL     OW26145   0.783   2.799   0.293  0.0300 -0.2407 -0.2226
 6595SOL    HW226146   0.743   2.750   0.364  1.6941 -0.7159  0.4362
 6595SOL    HW326147   0.875   2.775   0.295  0.7147  2.0616 -0.5796
 6595SOL    MW426148   0.790   2.790   0.302 -0.9658  0.4827 -0.1389
 6596SOL     OW26149   0.404   0.570   3.954 -0.4167 -0.2896 -0.4212
 6596SOL    HW226150   0.399   0.487   3.907  1.7533  0.0848 -1.4601
 6596SOL    HW326151   0.489   0.606   3.929 -2.2316  3.4465 -2.0376
 6596SOL    MW426152   0.415   0.564   3.944 -0.5620 -0.0437 -0.1275
 6597SOL     OW26153   2.969   2.804   5.324  0.3046 -0.5186 -0.2339
 6597SOL    HW226154   3.041   2.803   5.387 -0.4705 -2.3106  0.6848
 6597SOL    HW326155   2.906   2.741   5.358 -1.2393  0.2300 -1.5692
 6597SOL    MW426156   2.970   2.796   5.336 -0.0170 -0.4812 -0.2353
 6598SOL     OW26157   4.504   0.687   3.134  0.3639  0.4679 -0.2658
 6598SOL    HW226158   4.477   0.604   3.094 -1.2229  0.0727  1.4584
 6598SOL    HW326159   4.430   0.746   3.117  0.6456  0.9464  0.1677
 6598SOL    MW426160   4.491   0.684   3.126  0.5826  0.5256  0.9038
 6599SOL     OW26161   5.735   1.968   0.207 -0.4058  0.0836  0.2417
 6599SOL    HW226162   5.684   1.919   0.143 -0.8650 -0.8468  1.2957
 6599SOL    HW326163   5.677   1.977   0.283  0.3765  0.5332  0.7998
 6599SOL    MW426164   5.721   1.963   0.209 -0.4058 -0.1946  0.4249
 6600SOL     OW26165   1.083   4.995   0.624  0.5057  0.5414  0.6195
 6600SOL    HW226166   1.110   5.011   0.533 -0.1115 -0.5775  0.2152
 6600SOL    HW326167   1.089   4.900   0.634  0.5547  0.6541  1.7552
 6600SOL    MW426168   1.087   4.984   0.613  0.1615  0.2035  0.4693
 6601SOL     OW26169   5.705   1.771   0.850 -0.3903 -0.5835 -0.6403
 6601SOL    HW226170   5.679   1.679   0.837 -0.5112 -0.5678 -0.5160
 6601SOL    HW326171   5.773   1.767   0.917 -0.8386 -0.5268 -0.1754
 6601SOL    MW426172   5.710   1.758   0.857 -0.2796  0.5926  0.0513
 6602SOL     OW26173   4.326   6.371   5.426 -0.0610 -0.7123 -0.4935
 6602SOL    HW226174   4.379   6.345   5.350  2.1931 -0.7647  1.0182
 6602SOL    HW326175   4.302   6.289   5.468  1.5629 -0.6174  0.6827
 6602SOL    MW426176   4.330   6.357   5.421  0.2324  0.0736 -0.0736
 6603SOL     OW26177   5.795   3.846   2.729  0.3882 -0.2592  0.1315
 6603SOL    HW226178   5.823   3.872   2.817 -0.2017  0.1562  0.2091
 6603SOL    HW326179   5.731   3.913   2.704  0.4912 -0.4184 -0.5847
 6603SOL    MW426180   5.790   3.858   2.737 -0.2294 -0.3838 -0.4578
 6604SOL     OW26181   4.523   2.967   4.250 -0.1918  0.2343 -0.2792
 6604SOL    HW226182   4.468   2.953   4.174 -0.6212  0.9884 -0.1218
 6604SOL    HW326183   4.462   2.976   4.323  0.2231 -0.7023  0.2023
 6604SOL    MW426184   4.508   2.967   4.250 -0.1165 -0.1486 -0.4966
 6605SOL     OW26185   2.092   4.324   2.135 -0.0767  0.0693  0.1005
 6605SOL    HW226186   2.160   4.302   2.071  0.0983 -0.9649  0.6252
 6605SOL    HW326187   2.119   4.279   2.215 -1.5791 -0.6892  0.2134
 6605SOL    MW426188   2.105   4.315   2.137  0.1076  0.5635  0.2906
 6606SOL     OW26189   2.767   1.378   4.121 -0.7040  0.3790 -0.5506
 6606SOL    HW226190   2.682   1.378   4.078 -1.7662  0.7318  1.4007
 6606SOL    HW326191   2.746   1.365   4.214  1.3249  1.1823  0.0669
 6606SOL    MW426192   2.753   1.376   4.128  0.2627  0.6362  0.3491
 6607SOL     OW26193   1.739   3.750   2.468  0.3623 -0.1515  0.3274
 6607SOL    HW226194   1.743   3.829   2.520  0.6151  0.1831 -0.1862
 6607SOL    HW326195   1.679   3.693   2.515 -0.3215  0.5886  0.3696
 6607SOL    MW426196   1.732   3.753   2.481 -0.0829 -0.7120 -0.2960
 6608SOL     OW26197   2.229   0.207   3.673 -0.7492  0.3285 -0.3117
 6608SOL    HW226198   2.214   0.204   3.579 -0.4358 -0.0732 -0.3508
 6608SOL    HW326199   2.310   0.256   3.683  1.0405 -2.3701 -0.4855
 6608SOL    MW426200   2.238   0.213   3.662 -0.7415 -0.7019  0.0326
 6609SOL     OW26201   5.130   1.626   2.490  0.4936 -0.3102  0.3429
 6609SOL    HW226202   5.058   1.644   2.429 -0.1930 -2.1509  0.5372
 6609SOL    HW326203   5.156   1.535   2.471  0.5755 -0.7807  2.4199
 6609SOL    MW426204   5.124   1.616   2.479 -0.1803 -0.3114  0.2054
 6610SOL     OW26205   3.494   5.661   2.861  0.2682  0.6951  0.1256
 6610SOL    HW226206   3.588   5.639   2.865  0.2142  0.6390  1.3197
 6610SOL    HW326207   3.462   5.644   2.949 -0.7505  1.2960 -0.1220
 6610SOL    MW426208   3.502   5.656   2.873 -0.1146  0.1977 -0.3116
 6611SOL     OW26209   6.415   2.817   3.596  0.3554 -0.3920  0.1760
 6611SOL    HW226210   6.460   2.895   3.628  2.4153 -0.5209 -2.1074
 6611SOL    HW326211   6.476   2.745   3.612 -0.4028 -1.1272 -0.1200
 6611SOL    MW426212   6.429   2.817   3.603  0.2589  0.0548  0.2763
 6612SOL     OW26213   1.433   5.710   2.041 -0.1190 -0.1126 -0.3506
 6612SOL    HW226214   1.515   5.760   2.047 -0.7482  0.8166  0.8376
 6612SOL    HW326215   1.365   5.776   2.028 -0.5501 -0.9873 -3.2694
 6612SOL    MW426216   1.435   5.725   2.040  0.6388  0.0667  0.0823
 6613SOL     OW26217   5.002   1.544   4.921 -0.4313  0.5045  0.4009
 6613SOL    HW226218   4.930   1.591   4.961 -0.0889 -0.4708  2.2937
 6613SOL    HW326219   5.004   1.460   4.966  1.6388  0.3485  0.1377
 6613SOL    MW426220   4.993   1.539   4.932  0.7731  0.4693 -0.1931
 6614SOL     OW26221   0.185   2.691   3.899  0.5682  0.6295 -0.1802
 6614SOL    HW226222   0.276   2.712   3.918  0.1490  1.6723  0.8060
 6614SOL    HW326223   0.138   2.774   3.910 -0.7107 -0.1726  0.6969
 6614SOL    MW426224   0.191   2.705   3.903 -0.0347  0.7084  0.3460
 6615SOL     OW26225   0.659   0.297   1.000 -0.8050  0.4983  0.0685
 6615SOL    HW226226   0.734   0.250   1.038  0.1864  1.0416 -1.1498
 6615SOL    HW326227   0.600   0.228   0.971 -0.2300  0.0314 -0.0152
 6615SOL    MW426228   0.661   0.282   1.002 -0.5929  0.4022 -0.0265
 6616SOL     OW26229   5.899   0.513   6.083  0.2406  0.2216  0.1191
 6616SOL    HW226230   5.946   0.551   6.157  0.2976 -0.3173  0.3679
 6616SOL    HW326231   5.911   0.418   6.094  0.0145  0.1268 -0.4236
 6616SOL    MW426232   5.907   0.505   6.094 -0.0065  0.2472  0.5479
 6617SOL     OW26233   2.927   0.796   3.973  0.0651  0.1992  0.3450
 6617SOL    HW226234   2.959   0.791   3.883  0.1900  1.0422  0.3296
 6617SOL    HW326235   2.900   0.888   3.984  0.4287  0.2080  1.2835
 6617SOL    MW426236   2.928   0.808   3.963 -0.0380  0.0055  0.1879
 6618SOL     OW26237   3.209   5.159   3.640 -0.2211 -0.4571  0.6477
 6618SOL    HW226238   3.271   5.202   3.699  0.0711 -1.3351  0.9994
 6618SOL    HW326239   3.157   5.102   3.696 -3.1342  2.1161  0.7792
 6618SOL    MW426240   3.211   5.157   3.655  0.2522 -0.4885  0.5812
 6619SOL     OW26241   1.544   5.197   2.161  0.0789 -0.0143 -0.2070
 6619SOL    HW226242   1.510   5.108   2.153 -0.5937  0.2811 -0.8301
 6619SOL    HW326243   1.607   5.206   2.089 -1.0098  0.4968 -1.1302
 6619SOL    MW426244   1.548   5.187   2.150 -0.2991  0.1555 -0.9222
 6620SOL     OW26245   0.318   2.269   4.970  0.0150 -0.0716  0.2561
 6620SOL    HW226246   0.379   2.336   4.938 -0.5644  1.2040  1.6503
 6620SOL    HW326247   0.351   2.247   5.057 -0.9937 -0.0053  0.6715
 6620SOL    MW426248   0.331   2.275   4.977  0.2215 -0.7122 -0.7857
 6621SOL     OW26249   3.998   3.133   0.077  0.0131  0.0231  0.1015
 6621SOL    HW226250   3.945   3.090   0.010 -0.6564  0.1338  0.5478
 6621SOL    HW326251   4.081   3.152   0.034 -0.3639 -0.0197 -0.6567
 6621SOL    MW426252   4.002   3.130   0.063 -0.3062 -0.2505  0.4129
 6622SOL     OW26253   5.573   2.318   5.059  0.7875  0.3332  0.4332
 6622SOL    HW226254   5.652   2.269   5.086  0.6664 -0.0860  0.0440
 6622SOL    HW326255   5.605   2.381   4.995  1.0956  1.4082  1.6164
 6622SOL    MW426256   5.588   2.320   5.054  0.1434  0.4713  0.7502
 6623SOL     OW26257   0.144   6.301   3.221  0.1566  0.1236  0.4208
 6623SOL    HW226258   0.095   6.360   3.278 -0.3489  3.2201 -2.8048
 6623SOL    HW326259   0.078   6.242   3.184  0.0052 -0.0087  0.9009
 6623SOL    MW426260   0.129   6.301   3.224  0.1704 -0.4252 -0.5539
 6624SOL     OW26261   0.388   0.546   4.728  0.3213 -0.2175  0.1122
 6624SOL    HW226262   0.482   0.565   4.733  0.1665  0.5834  0.1009
 6624SOL    HW326263   0.379   0.488   4.652  1.1174 -2.3711  1.5571
 6624SOL    MW426264   0.399   0.540   4.719 -0.2203  0.3698  0.2441
 6625SOL     OW26265   2.098   0.085   4.780 -0.1498  0.1668 -0.4652
 6625SOL    HW226266   2.163   0.100   4.712 -1.4466 -0.0362 -1.8213
 6625SOL    HW326267   2.033   0.154   4.767 -0.4138  0.1389  0.5961
 6625SOL    MW426268   2.098   0.096   4.769  0.3393  0.4416  0.2637
 6626SOL     OW26269   2.888   3.379   6.306 -0.1122  0.7159  0.4882
 6626SOL    HW226270   2.890   3.295   6.352 -0.7109 -0.6266 -1.7601
 6626SOL    HW326271   2.825   3.432   6.355  1.2702  0.4018  2.7306
 6626SOL    MW426272   2.880   3.375   6.318  0.2342 -0.0210 -0.1111
 6627SOL     OW26273   5.479   6.069   5.910 -0.7511  0.4804  0.3497
 6627SOL    HW226274   5.460   6.009   5.838  0.4248  0.4623  0.0451
 6627SOL    HW326275   5.478   6.013   5.988 -0.1673  0.1495  0.1272
 6627SOL    MW426276   5.476   6.053   5.911  0.2342 -0.2965  0.1646
 6628SOL     OW26277   0.971   6.334   6.244 -0.3096 -0.0108 -0.2599
 6628SOL    HW226278   0.895   6.390   6.226  0.3662  0.6741 -1.0619
 6628SOL    HW326279   1.043   6.396   6.256 -0.0562 -0.5978  1.5226
 6628SOL    MW426280   0.971   6.350   6.243  0.1368  0.4845  0.0334
 6629SOL     OW26281   3.499   3.184   4.058  0.1469  0.5297 -0.1960
 6629SOL    HW226282   3.521   3.092   4.045  1.0536  0.3579  2.1652
 6629SOL    HW326283   3.576   3.232   4.029 -0.1811  0.5395 -1.0724
 6629SOL    MW426284   3.512   3.178   4.053 -0.1970  0.2424  0.6936
 6630SOL     OW26285   4.613   2.524   5.877  0.1829 -0.0017 -0.3420
 6630SOL    HW226286   4.547   2.480   5.824  0.1716  0.5178 -0.7686
 6630SOL    HW326287   4.635   2.603   5.828  1.7265 -0.5717 -0.6346
 6630SOL    MW426288   4.607   2.529   5.864  0.2118  0.1109 -0.3774
 6631SOL     OW26289   5.937   1.880   4.343 -0.1098 -0.0659  0.3414
 6631SOL    HW226290   5.963   1.789   4.328  0.5467 -0.2341  2.1617
 6631SOL    HW326291   6.001   1.912   4.407 -0.7142  1.4806  0.2110
 6631SOL    MW426292   5.949   1.872   4.350  0.2146 -0.1171 -0.3620
 6632SOL     OW26293   3.719   1.011   4.944  0.7252  0.8489  0.2391
 6632SOL    HW226294   3.723   0.925   4.986  1.0407  0.7688  0.0537
 6632SOL    HW326295   3.810   1.028   4.919  0.4691  0.6725 -0.8554
 6632SOL    MW426296   3.732   1.002   4.947  0.1073  0.4716 -0.0961
 6633SOL     OW26297   0.713   3.400   2.312 -0.7173 -0.3959 -0.4711
 6633SOL    HW226298   0.775   3.362   2.250 -0.8282 -0.4872 -0.5255
 6633SOL    HW326299   0.768   3.445   2.376 -0.5977 -0.4098 -0.5639
 6633SOL    MW426300   0.728   3.401   2.312 -0.0389  0.0199  0.5600
 6634SOL     OW26301   1.975   4.920   4.373  0.0669 -0.4898 -0.8620
 6634SOL    HW226302   2.026   4.853   4.417 -0.1161 -0.1195 -0.0815
 6634SOL    HW326303   1.910   4.948   4.437 -0.4392 -0.2047 -1.4846
 6634SOL    MW426304   1.973   4.915   4.387 -0.3304 -0.2450  0.6727
 6635SOL     OW26305   0.041   3.395   0.191  0.1596 -0.4325 -0.2958
 6635SOL    HW226306   0.097   3.455   0.142 -0.1581 -0.9369 -1.2996
 6635SOL    HW326307   0.064   3.308   0.158  0.0573 -0.8022  0.5775
 6635SOL    MW426308   0.052   3.391   0.180 -0.5095  0.4691  0.5143
 6636SOL     OW26309   6.015   5.688   4.710  0.1239 -0.1387 -1.0857
 6636SOL    HW226310   5.995   5.647   4.794 -0.4451 -1.4421 -1.8347
 6636SOL    HW326311   5.958   5.644   4.647  2.2015 -0.8621 -2.5726
 6636SOL    MW426312   6.005   5.677   4.712 -0.0040 -0.0600 -0.0531
 6637SOL     OW26313   1.383   0.303   5.577 -0.4166  0.8106 -0.0060
 6637SOL    HW226314   1.382   0.271   5.487 -0.7647 -1.2870  0.6834
 6637SOL    HW326315   1.333   0.385   5.574  1.0669  1.7272 -1.9924
 6637SOL    MW426316   1.376   0.310   5.564 -0.4479 -0.2945  0.4338
 6638SOL     OW26317   0.140   6.105   4.901 -0.1688 -0.1031  0.6326
 6638SOL    HW226318   0.131   6.093   4.995 -0.9649 -1.9728  0.3627
 6638SOL    HW326319   0.211   6.045   4.876  0.0060  0.3453  0.0302
 6638SOL    MW426320   0.148   6.095   4.910 -0.3588 -0.0096  0.4387
 6639SOL     OW26321   5.366   2.148   3.059 -0.3219 -0.8971 -0.4612
 6639SOL    HW226322   5.339   2.070   3.010  0.1572 -0.6448 -1.1365
 6639SOL    HW326323   5.296   2.211   3.046 -0.1186 -0.7716 -0.9721
 6639SOL    MW426324   5.353   2.146   3.051  0.0989 -0.5220  0.2261
 6640SOL     OW26325   0.788   4.584   3.642  0.4546  1.1179 -0.1689
 6640SOL    HW226326   0.740   4.640   3.703 -0.4990  0.1697 -0.0186
 6640SOL    HW326327   0.720   4.544   3.588  0.8555 -1.5051  1.0951
 6640SOL    MW426328   0.773   4.586   3.643  0.3785 -0.2017  0.1929
 6641SOL     OW26329   3.761   6.411   4.135 -0.6268  0.0355 -0.0366
 6641SOL    HW226330   3.844   6.448   4.105 -0.9807  2.0840  1.2763
 6641SOL    HW326331   3.700   6.426   4.064 -0.3592  0.4732 -0.1759
 6641SOL    MW426332   3.764   6.418   4.122 -0.3348  0.0103  0.0425
 6642SOL     OW26333   2.173   4.230   3.980 -0.2909 -0.2743 -0.3123
 6642SOL    HW226334   2.197   4.145   4.016 -0.4565 -0.6259 -1.0015
 6642SOL    HW326335   2.155   4.285   4.056 -1.2351 -1.1637  0.1224
 6642SOL    MW426336   2.174   4.226   3.995 -0.1868 -0.4218 -0.4214
 6643SOL     OW26337   6.364   1.392   6.382 -0.4289 -0.0911  0.6552
 6643SOL    HW226338   6.305   1.467   6.390  0.5099  0.8908 -0.9132
 6643SOL    HW326339   6.329   1.342   6.308  0.0521 -0.1172  0.4398
 6643SOL    MW426340   6.351   1.395   6.373  0.7863  0.2276 -0.3721
 6644SOL     OW26341   1.905   4.979   4.840  0.1808  0.4308  0.1543
 6644SOL    HW226342   1.890   4.938   4.926 -1.2959 -0.0536 -0.3008
 6644SOL    HW326343   1.999   4.973   4.827  0.4190  0.3999  1.6899
 6644SOL    MW426344   1.915   4.973   4.850 -0.0494 -0.4337  0.5540
 6645SOL     OW26345   2.151   2.065   1.848 -0.1098  0.0756  0.0080
 6645SOL    HW226346   2.099   2.145   1.850 -0.6468 -0.2472 -0.5799
 6645SOL    HW326347   2.087   1.994   1.856  0.4250 -0.2959  1.2666
 6645SOL    MW426348   2.136   2.066   1.849 -0.1362  0.1208  0.7547
 6646SOL     OW26349   5.371   1.422   5.176  0.1480  0.5225  0.0371
 6646SOL    HW226350   5.293   1.395   5.226  1.7310  0.9229  2.9270
 6646SOL    HW326351   5.336   1.479   5.108 -2.1976 -0.2705  0.4632
 6646SOL    MW426352   5.356   1.426   5.174 -0.0742  0.2796 -0.6525
 6647SOL     OW26353   6.156   1.182   5.315  0.3593 -0.5992  0.0959
 6647SOL    HW226354   6.187   1.260   5.361  1.2600 -1.1559  0.4461
 6647SOL    HW326355   6.227   1.118   5.323 -0.5745 -1.6494  0.2683
 6647SOL    MW426356   6.169   1.184   5.322  0.4247 -0.1404 -0.3187
 6648SOL     OW26357   1.819   0.293   6.092 -0.4073 -0.2550  0.4971
 6648SOL    HW226358   1.904   0.249   6.088  0.6893  1.5903  1.5322
 6648SOL    HW326359   1.831   0.360   6.160 -2.2270  1.0181 -0.3636
 6648SOL    MW426360   1.832   0.296   6.101  0.8379 -0.4868 -0.0098
 6649SOL     OW26361   3.001   2.858   6.316  0.1560  0.0042 -0.1098
 6649SOL    HW226362   2.921   2.855   6.264 -0.5764 -2.2161  1.0132
 6649SOL    HW326363   3.002   2.945   6.355 -1.3272  0.3157 -0.7139
 6649SOL    MW426364   2.991   2.869   6.314 -0.4108 -0.4353  0.3044
 6650SOL     OW26365   5.587   3.095   2.008  0.0768  0.0636 -0.1555
 6650SOL    HW226366   5.505   3.120   2.049  0.1058  1.5283 -0.8946
 6650SOL    HW326367   5.655   3.124   2.070  0.1214  2.2682 -1.1237
 6650SOL    MW426368   5.585   3.102   2.021 -0.1011 -0.4941  0.3982
 6651SOL     OW26369   3.016   2.725   2.454  0.1834 -0.2101  0.0587
 6651SOL    HW226370   3.092   2.774   2.485 -0.0069 -0.4179  0.8752
 6651SOL    HW326371   2.999   2.661   2.523  0.5743 -1.5962 -1.0943
 6651SOL    MW426372   3.024   2.723   2.467  0.3950  0.2950 -0.2256
 6652SOL     OW26373   4.113   2.120   3.700 -0.4828 -0.0302  0.1408
 6652SOL    HW226374   4.161   2.061   3.759 -2.5917 -0.0907  1.9364
 6652SOL    HW326375   4.084   2.064   3.628  2.4998  0.1310 -1.3528
 6652SOL    MW426376   4.116   2.105   3.698  0.0279 -0.2512  0.4973
 6653SOL     OW26377   3.976   2.002   0.705  0.4040  0.1035  0.5192
 6653SOL    HW226378   3.943   1.934   0.765 -2.8257  1.3633  0.3481
 6653SOL    HW326379   4.000   1.953   0.626  1.6113 -1.1882  1.6080
 6653SOL    MW426380   3.975   1.986   0.702 -0.2066  0.5721  1.0804
 6654SOL     OW26381   0.816   4.512   3.938  0.0022 -0.0266  0.2471
 6654SOL    HW226382   0.739   4.561   3.967  0.2215 -0.3243  1.3838
 6654SOL    HW326383   0.803   4.500   3.844  0.2785  2.7877 -0.2297
 6654SOL    MW426384   0.804   4.517   3.930  0.4392  0.4410  0.1603
 6655SOL     OW26385   4.205   2.175   6.334  0.0873  0.2735 -0.3853
 6655SOL    HW226386   4.159   2.258   6.322 -2.1886 -1.1831 -2.7528
 6655SOL    HW326387   4.276   2.176   6.269  2.4742  1.7402  2.0283
 6655SOL    MW426388   4.208   2.186   6.324  0.5913 -0.1979  0.0975
 6656SOL     OW26389   6.311   1.733   4.762 -0.0239 -0.1140 -0.1896
 6656SOL    HW226390   6.327   1.687   4.845  0.1329 -1.1257 -0.7652
 6656SOL    HW326391   6.311   1.664   4.696  4.1230  0.9904 -1.6750
 6656SOL    MW426392   6.313   1.718   4.764 -0.5278 -0.1958 -0.0214
 6657SOL     OW26393   2.683   0.083   0.514 -0.4589  0.0134 -0.3639
 6657SOL    HW226394   2.765   0.070   0.468 -0.3128 -0.6491  0.0669
 6657SOL    HW326395   2.669   0.002   0.563 -0.9676  0.4193  0.1892
 6657SOL    MW426396   2.692   0.070   0.515 -0.0681  0.4091  0.0974
 6658SOL     OW26397   2.277   4.841   2.142 -0.4184  0.0287  0.1877
 6658SOL    HW226398   2.284   4.750   2.112 -1.2962  0.7774 -2.6035
 6658SOL    HW326399   2.183   4.860   2.137  0.0035  1.9354 -2.3348
 6658SOL    MW426400   2.265   4.831   2.138 -0.2433  0.0056 -0.6178
 6659SOL     OW26401   5.921   5.040   0.302 -0.1856 -0.5135  0.0603
 6659SOL    HW226402   5.835   5.011   0.335 -0.6106  0.2031 -0.3816
 6659SOL    HW326403   5.903   5.126   0.263  0.7179 -0.4150 -0.1479
 6659SOL    MW426404   5.907   5.048   0.301 -0.2577 -0.2005 -0.0927
 6660SOL     OW26405   0.034   6.222   1.482  0.7444 -0.2691  0.1264
 6660SOL    HW226406  -0.029   6.289   1.506  2.5333  1.4189  0.4001
 6660SOL    HW326407  -0.019   6.147   1.454 -1.3624  0.1828  2.5964
 6660SOL    MW426408   0.019   6.221   1.481 -0.3569  0.3085 -0.2937
 6661SOL     OW26409   2.479   1.200   3.206  0.3894  0.4340 -0.4710
 6661SOL    HW226410   2.446   1.289   3.198  0.6647  0.4626 -1.3590
 6661SOL    HW326411   2.496   1.172   3.116  0.8467 -0.3067 -0.1655
 6661SOL    MW426412   2.477   1.208   3.193 -0.2817 -0.1290 -0.2336
 6662SOL     OW26413   1.338   5.848   6.136  0.1673  0.3119 -0.4577
 6662SOL    HW226414   1.246   5.875   6.133 -0.0798 -0.2721  1.1026
 6662SOL    HW326415   1.336   5.754   6.116  0.2734  0.0262  0.8265
 6662SOL    MW426416   1.325   5.839   6.133 -0.2286 -0.6343 -0.0892
 6663SOL     OW26417   6.303   0.745   0.061 -0.5277  0.1843 -0.1939
 6663SOL    HW226418   6.220   0.786   0.083 -2.0962 -1.6231 -2.2072
 6663SOL    HW326419   6.291   0.715  -0.029  3.1331  1.7624 -1.4114
 6663SOL    MW426420   6.291   0.746   0.052 -0.1625  0.3059 -0.0546
 6664SOL     OW26421   0.688   5.000   2.528  0.6113  0.1848 -0.2536
 6664SOL    HW226422   0.685   5.054   2.449  0.3504 -0.0803 -0.4274
 6664SOL    HW326423   0.596   4.980   2.547  0.7520 -1.0577 -0.7878
 6664SOL    MW426424   0.675   5.004   2.520 -0.0257  0.4344 -0.1587
 6665SOL     OW26425   5.359   0.443   0.060  0.6026  0.6768 -0.1114
 6665SOL    HW226426   5.424   0.436   0.130 -0.3765  0.2460  0.7879
 6665SOL    HW326427   5.362   0.357   0.017  0.7971  0.7454 -0.2391
 6665SOL    MW426428   5.368   0.430   0.064 -0.3103 -0.2931 -0.2388
 6666SOL     OW26429   3.642   0.427   0.408 -0.5823  0.4030  0.2879
 6666SOL    HW226430   3.699   0.492   0.367 -1.8683  0.8774 -0.8465
 6666SOL    HW326431   3.700   0.375   0.464  1.1209  0.2934 -1.4690
 6666SOL    MW426432   3.657   0.429   0.410 -0.5624 -0.2150  0.4217
 6667SOL     OW26433   4.992   6.107   3.511  0.6024  0.2549  0.2556
 6667SOL    HW226434   5.078   6.102   3.468 -0.2470  0.7735 -1.5801
 6667SOL    HW326435   4.946   6.028   3.484  0.0440  0.5973  0.1830
 6667SOL    MW426436   4.998   6.096   3.502  0.0080 -0.2665 -0.2199
 6668SOL     OW26437   4.701   2.683   2.631 -0.0512  0.0492 -0.2301
 6668SOL    HW226438   4.781   2.723   2.666  1.1194 -0.8889 -1.7021
 6668SOL    HW326439   4.705   2.701   2.537 -1.4985 -0.1785 -0.3555
 6668SOL    MW426440   4.712   2.691   2.623  0.8356  0.8109  0.0312
 6669SOL     OW26441   0.939   1.713   2.471 -0.0365  0.2245  0.1198
 6669SOL    HW226442   0.941   1.809   2.460  1.5660  0.2222  0.2293
 6669SOL    HW326443   0.847   1.690   2.455 -0.0873  1.5418 -1.9741
 6669SOL    MW426444   0.927   1.723   2.467  0.1051  0.3438  0.1458
 6670SOL     OW26445   0.447   4.925   2.610  0.8613  0.2076  0.0173
 6670SOL    HW226446   0.384   4.896   2.545  1.1776  0.1961 -0.2854
 6670SOL    HW326447   0.464   4.848   2.664  0.4597  0.2664  0.2278
 6670SOL    MW426448   0.441   4.911   2.609 -0.1673  0.6154  0.0368
 6671SOL     OW26449   6.132   1.908   0.069  0.1364  0.2524  0.5622
 6671SOL    HW226450   6.148   1.870   0.155  1.3005 -0.6298 -0.0160
 6671SOL    HW326451   6.153   2.000   0.079 -0.4247  0.3005  1.3912
 6671SOL    MW426452   6.137   1.915   0.082 -0.0438 -0.2659 -0.0568
 6672SOL     OW26453   2.854   1.952   4.516  0.0446  0.2504  0.1519
 6672SOL    HW226454   2.813   1.870   4.487 -0.1472 -0.3815  2.0318
 6672SOL    HW326455   2.816   2.019   4.459  0.5241 -0.9907 -1.7181
 6672SOL    MW426456   2.844   1.950   4.505 -1.0443  0.7223 -0.3626
 6673SOL     OW26457   1.586   0.987   3.238  0.0946  0.4680  0.0583
 6673SOL    HW226458   1.608   1.047   3.310  0.6367 -0.8952  1.0885
 6673SOL    HW326459   1.490   0.991   3.232  0.0845  1.0117  0.4970
 6673SOL    MW426460   1.576   0.995   3.247  0.0835  0.1436  0.2596
 6674SOL     OW26461   5.428   4.946   5.311  0.5900 -0.1393  0.0400
 6674SOL    HW226462   5.505   4.986   5.351 -0.7662  1.2799  1.3550
 6674SOL    HW326463   5.413   4.866   5.361  0.9411 -0.1819  0.0766
 6674SOL    MW426464   5.436   4.941   5.323 -0.3882 -0.6194 -0.0939
 6675SOL     OW26465   2.084   3.881   2.585 -0.4153  0.6042 -0.0023
 6675SOL    HW226466   2.025   3.836   2.645  1.8100 -1.4537  0.8538
 6675SOL    HW326467   2.044   3.871   2.499 -0.6536 -2.0878  0.3306
 6675SOL    MW426468   2.071   3.874   2.581  0.2375 -0.4037  0.3399
 6676SOL     OW26469   1.229   2.453   3.034 -0.0166 -0.0924 -0.1116
 6676SOL    HW226470   1.214   2.467   3.128  0.3556 -0.5779  0.0232
 6676SOL    HW326471   1.230   2.541   2.997 -1.0757  0.0613  0.1970
 6676SOL    MW426472   1.227   2.466   3.042  0.4641 -0.3686  0.6298
 6677SOL     OW26473   6.118   2.129   2.583  0.3562  0.0016 -0.0486
 6677SOL    HW226474   6.187   2.192   2.605 -0.6523  0.7390  1.1579
 6677SOL    HW326475   6.082   2.103   2.668 -0.8233 -0.3793 -0.6483
 6677SOL    MW426476   6.122   2.134   2.597 -0.0214  0.0238 -0.1148
 6678SOL     OW26477   0.891   2.666   2.660  0.4345  0.6680 -0.4438
 6678SOL    HW226478   0.978   2.631   2.639 -0.0601 -1.2298  0.4182
 6678SOL    HW326479   0.843   2.660   2.578  0.4780 -0.3777 -0.4059
 6678SOL    MW426480   0.896   2.661   2.647  0.2278 -0.2275  0.1869
 6679SOL     OW26481   5.000   5.027   3.762 -0.6438  0.1240  0.9128
 6679SOL    HW226482   5.068   5.074   3.810 -1.1183  0.8924  0.8510
 6679SOL    HW326483   5.019   5.044   3.670 -1.5316  1.2516  0.9156
 6679SOL    MW426484   5.011   5.035   3.756 -0.0239 -0.0535  0.0864
 6680SOL     OW26485   2.829   1.787   4.171 -0.3418 -0.3155  0.2505
 6680SOL    HW226486   2.886   1.864   4.180 -2.1836  0.9932  1.5677
 6680SOL    HW326487   2.883   1.723   4.125  1.7146  1.2998  0.2281
 6680SOL    MW426488   2.844   1.789   4.166 -0.2466  0.2955 -0.1117
 6681SOL     OW26489   5.854   2.817   1.834 -0.1160  0.5513 -0.1488
 6681SOL    HW226490   5.864   2.723   1.823 -1.7665  0.4558 -1.0757
 6681SOL    HW326491   5.932   2.844   1.882  1.5852 -0.8919 -1.9724
 6681SOL    MW426492   5.865   2.808   1.839 -0.4033  0.1531  0.1068
 6682SOL     OW26493   5.452   4.064   4.044 -0.1674  0.4145 -0.8831
 6682SOL    HW226494   5.429   4.023   4.127 -0.5760  1.8725 -0.2426
 6682SOL    HW326495   5.401   4.016   3.979  1.8398 -2.2722 -0.6888
 6682SOL    MW426496   5.442   4.052   4.046  0.3110 -0.5233  0.4278
 6683SOL     OW26497   1.447   4.892   2.163  0.1207 -0.1980 -0.2469
 6683SOL    HW226498   1.429   4.854   2.077  0.1762  1.4884 -1.0474
 6683SOL    HW326499   1.395   4.840   2.224 -1.0465 -0.5328 -1.4831
 6683SOL    MW426500   1.438   4.881   2.159 -0.1433  0.4269  0.1793
 6684SOL     OW26501   1.445   5.750   2.795 -0.0295  0.0124  0.3842
 6684SOL    HW226502   1.511   5.817   2.780 -2.2665  2.4092  0.6246
 6684SOL    HW326503   1.387   5.755   2.719 -2.2546  0.9539  2.0383
 6684SOL    MW426504   1.446   5.759   2.783  0.5020  0.4091  0.5017
 6685SOL     OW26505   4.660   1.143   6.303  1.0315 -0.3440 -0.1308
 6685SOL    HW226506   4.697   1.063   6.267  0.2434  0.0125 -1.8498
 6685SOL    HW326507   4.657   1.204   6.229 -0.5027  0.5051  0.5640
 6685SOL    MW426508   4.664   1.141   6.289  0.2282 -0.1631 -0.2360
 6686SOL     OW26509   0.586   5.219   0.847  0.0475  0.0398 -0.1352
 6686SOL    HW226510   0.525   5.168   0.795 -1.9776  1.2440  0.9380
 6686SOL    HW326511   0.609   5.293   0.791  1.1928 -0.7935 -0.8235
 6686SOL    MW426512   0.581   5.222   0.833 -0.0509  0.7418 -0.3661
 6687SOL     OW26513   5.840   6.163   3.747  0.0356  0.0495  0.2540
 6687SOL    HW226514   5.844   6.128   3.658  1.0433  0.6227  0.0500
 6687SOL    HW326515   5.759   6.214   3.749 -0.3063 -0.4639 -0.1367
 6687SOL    MW426516   5.830   6.165   3.735  0.2038 -1.0975  0.1303
 6688SOL     OW26517   1.496   1.890   0.609 -0.1501  0.6424 -0.1738
 6688SOL    HW226518   1.589   1.870   0.597 -0.6087 -0.3473 -2.5271
 6688SOL    HW326519   1.495   1.981   0.639  1.5697  0.8328 -0.5840
 6688SOL    MW426520   1.508   1.900   0.611  0.2312 -0.1022 -0.5035
 6689SOL     OW26521   3.197   3.391   3.608 -0.2467  0.1157 -0.2554
 6689SOL    HW226522   3.181   3.301   3.579 -0.6632 -0.6693  2.1682
 6689SOL    HW326523   3.270   3.383   3.670 -0.4655  1.3845  0.1947
 6689SOL    MW426524   3.205   3.378   3.613 -0.0604  0.2324  0.2977
 6690SOL     OW26525   5.387   2.663   2.089  0.5161 -0.7951 -0.2627
 6690SOL    HW226526   5.298   2.699   2.100  1.2657  1.1025  0.0470
 6690SOL    HW326527   5.374   2.569   2.080 -1.4396 -0.7197  1.0732
 6690SOL    MW426528   5.373   2.656   2.090 -0.1611  0.2254  0.5573
 6691SOL     OW26529   3.882   2.188   1.411 -0.2588  0.5430 -0.2772
 6691SOL    HW226530   3.888   2.268   1.464 -2.8831  1.2782 -0.9417
 6691SOL    HW326531   3.796   2.194   1.369 -1.0889 -3.1891  0.5544
 6691SOL    MW426532   3.872   2.199   1.413 -0.2544  0.1596 -0.0867
 6692SOL     OW26533   4.395   4.422   5.868  0.3229  0.2447 -0.5421
 6692SOL    HW226534   4.358   4.401   5.953  0.9308  0.7005 -0.1522
 6692SOL    HW326535   4.452   4.349   5.847 -1.4942 -0.9425 -1.6028
 6692SOL    MW426536   4.397   4.410   5.876  0.4893  0.0894 -0.3635
 6693SOL     OW26537   1.489   5.207   3.352 -0.0856  0.1348 -0.4918
 6693SOL    HW226538   1.530   5.179   3.270  1.8647  0.0010  0.4594
 6693SOL    HW326539   1.432   5.279   3.328  0.2592 -0.0678 -1.9972
 6693SOL    MW426540   1.487   5.213   3.338 -0.0376 -0.0215 -0.1805
 6694SOL     OW26541   1.473   1.236   4.089 -0.4951 -0.1428  0.0730
 6694SOL    HW226542   1.552   1.263   4.135 -0.4015  0.4286 -0.4210
 6694SOL    HW326543   1.446   1.313   4.039 -1.9114 -0.0056  0.9800
 6694SOL    MW426544   1.480   1.249   4.089  0.1912 -0.1125  0.0954
 6695SOL     OW26545   2.940   2.228   0.579 -0.1811  0.1348  0.1116
 6695SOL    HW226546   2.978   2.316   0.580 -1.6093  0.8148 -1.2240
 6695SOL    HW326547   2.886   2.225   0.658 -0.2227  0.5008  0.0985
 6695SOL    MW426548   2.938   2.239   0.590 -0.2132 -0.1683  0.3868
 6696SOL     OW26549   5.039   6.244   2.938  0.5704 -0.2424  0.0581
 6696SOL    HW226550   5.016   6.224   2.847 -0.9861 -2.1251  0.7886
 6696SOL    HW326551   5.049   6.158   2.979 -1.7393  0.4416  2.3236
 6696SOL    MW426552   5.037   6.230   2.931 -0.2100  0.1184 -0.3693
 6697SOL     OW26553   3.773   2.255   5.128  0.1081 -0.5058  0.2159
 6697SOL    HW226554   3.849   2.196   5.128  1.2983  0.8164  3.0563
 6697SOL    HW326555   3.714   2.219   5.194 -2.5385 -2.2248 -2.8044
 6697SOL    MW426556   3.776   2.242   5.137  0.5227 -0.0367  0.5518
 6698SOL     OW26557   3.279   4.312   5.050 -0.1959  0.1517  0.0809
 6698SOL    HW226558   3.218   4.381   5.074 -0.8923 -0.4344  0.0267
 6698SOL    HW326559   3.302   4.270   5.133 -3.3646 -2.5116 -0.2082
 6698SOL    MW426560   3.274   4.316   5.064 -0.0683  0.2417  0.1171
 6699SOL     OW26561   1.533   2.468   3.061  0.4433  0.1199 -0.4225
 6699SOL    HW226562   1.441   2.444   3.050  0.8531 -1.9698  0.2044
 6699SOL    HW326563   1.560   2.421   3.140  2.3158 -0.1718 -1.1929
 6699SOL    MW426564   1.524   2.458   3.070 -0.0517  0.0468 -0.1771
 6700SOL     OW26565   4.824   2.476   0.615 -0.1342  0.0333  0.0226
 6700SOL    HW226566   4.821   2.490   0.709 -1.1597 -1.3874  0.2420
 6700SOL    HW326567   4.766   2.400   0.600  1.2148 -0.7640 -1.5467
 6700SOL    MW426568   4.816   2.468   0.625  0.4177 -0.1006  0.0589
 6701SOL     OW26569   3.533   3.173   3.072 -0.5981  0.5831 -0.6123
 6701SOL    HW226570   3.524   3.191   2.979 -0.3622  1.6776 -0.4431
 6701SOL    HW326571   3.551   3.259   3.111 -0.9421  0.1789  0.4684
 6701SOL    MW426572   3.534   3.187   3.065  0.0468  0.4970  0.2838
 6702SOL     OW26573   0.996   5.307   0.439 -0.3781 -0.0393  0.0628
 6702SOL    HW226574   1.036   5.226   0.407 -1.9737 -1.1677  0.8165
 6702SOL    HW326575   1.049   5.376   0.399 -0.0368 -1.4124 -2.0554
 6702SOL    MW426576   1.008   5.305   0.429  0.3745  0.1497 -0.3515
 6703SOL     OW26577   4.483   3.435   1.871 -0.4461  0.2634 -0.6225
 6703SOL    HW226578   4.423   3.361   1.870 -0.8873  0.5294  1.2357
 6703SOL    HW326579   4.568   3.397   1.891 -1.0797  0.3717  2.9314
 6703SOL    MW426580   4.486   3.420   1.874 -0.0130 -0.5712 -0.2881
 6704SOL     OW26581   5.555   3.760   1.598 -0.1536  0.1852 -0.0777
 6704SOL    HW226582   5.617   3.719   1.657 -1.1853 -0.1475  0.8151
 6704SOL    HW326583   5.493   3.805   1.655 -0.5410  0.7961 -0.9504
 6704SOL    MW426584   5.555   3.761   1.613  0.4988  0.2492  0.3404
 6705SOL     OW26585   4.783   1.673   5.063 -0.2970  0.4124  0.2892
 6705SOL    HW226586   4.712   1.737   5.070  0.1712  0.9443  0.1670
 6705SOL    HW326587   4.836   1.687   5.141 -1.1264 -0.9692  1.1301
 6705SOL    MW426588   4.781   1.683   5.074  0.2162 -0.3257  0.1893
 6706SOL     OW26589   2.055   5.467   5.007  0.2047  0.2205  0.2997
 6706SOL    HW226590   1.994   5.401   4.974  0.7344 -0.2481  0.2502
 6706SOL    HW326591   2.071   5.524   4.932  0.0303  0.1901  0.2392
 6706SOL    MW426592   2.049   5.466   4.993  0.3394 -0.0245  0.3229
 6707SOL     OW26593   5.234   5.803   0.368 -0.4875  0.5066  0.3032
 6707SOL    HW226594   5.273   5.856   0.299 -0.5115  2.1064  1.4700
 6707SOL    HW326595   5.305   5.748   0.399 -1.1558 -2.7138 -3.0743
 6707SOL    MW426596   5.248   5.803   0.363  0.2572  0.1801 -0.1136
 6708SOL     OW26597   4.497   6.260   2.255 -0.0621  0.0451 -0.2030
 6708SOL    HW226598   4.450   6.201   2.197  0.1522 -0.2830 -0.0445
 6708SOL    HW326599   4.428   6.308   2.302 -0.2741 -1.1442  0.7673
 6708SOL    MW426600   4.481   6.259   2.254  0.2665 -0.0257 -0.3793
 6709SOL     OW26601   2.491   0.165   1.174  0.1282  0.5282 -0.6500
 6709SOL    HW226602   2.480   0.142   1.082 -0.6196  0.1295 -0.4688
 6709SOL    HW326603   2.582   0.142   1.194  0.7009  1.8202 -1.6190
 6709SOL    MW426604   2.502   0.159   1.165  0.4140  0.1141 -0.2119
 6710SOL     OW26605   2.389   5.237   1.377  0.3366 -0.1429 -0.2066
 6710SOL    HW226606   2.432   5.193   1.450  0.1914 -0.9525 -0.5935
 6710SOL    HW326607   2.444   5.219   1.301  0.2355  0.2844 -0.3844
 6710SOL    MW426608   2.402   5.229   1.376 -0.0413 -0.5407  0.2922
 6711SOL     OW26609   4.579   3.828   6.166  0.4015  0.4135 -0.1529
 6711SOL    HW226610   4.640   3.901   6.151  1.6323 -0.5629 -0.0617
 6711SOL    HW326611   4.535   3.815   6.082 -0.3094  1.6514 -0.0039
 6711SOL    MW426612   4.581   3.836   6.153 -0.1690 -0.3385  0.4291
 6712SOL     OW26613   0.101   5.122   3.941 -0.3561 -0.3603  0.6245
 6712SOL    HW226614   0.139   5.035   3.928 -0.9104 -0.4866 -0.2217
 6712SOL    HW326615   0.016   5.105   3.981 -0.9382 -0.2868 -0.5422
 6712SOL    MW426616   0.095   5.108   3.945  0.1563  0.8651 -0.1893
 6713SOL     OW26617   5.062   2.122   1.854 -0.2877 -0.5498  0.5267
 6713SOL    HW226618   5.010   2.195   1.820 -1.0157 -1.0973  0.4488
 6713SOL    HW326619   4.998   2.053   1.871  0.1051 -0.4666  2.5540
 6713SOL    MW426620   5.047   2.122   1.852 -0.0440 -0.2360  0.2604
 6714SOL     OW26621   4.026   3.272   4.373  0.4023  0.1942 -0.4314
 6714SOL    HW226622   3.938   3.290   4.340 -0.8146 -1.4956  1.6426
 6714SOL    HW326623   4.049   3.351   4.423 -1.1729 -0.3991  1.3287
 6714SOL    MW426624   4.017   3.285   4.375  0.1319 -0.4198  0.4981
 6715SOL     OW26625   3.345   1.803   0.384  0.0525 -0.5024 -0.2526
 6715SOL    HW226626   3.265   1.774   0.340  0.4853 -0.6295 -0.9630
 6715SOL    HW326627   3.404   1.728   0.377  0.5044 -0.1312 -0.4032
 6715SOL    MW426628   3.342   1.789   0.378 -0.3789  0.5550 -0.4512
 6716SOL     OW26629   2.751   3.964   0.616  0.0591 -0.2074 -0.4018
 6716SOL    HW226630   2.761   4.056   0.592  0.3492 -0.2819 -0.5816
 6716SOL    HW326631   2.657   3.947   0.608 -0.4306  0.8027  2.3511
 6716SOL    MW426632   2.740   3.974   0.612 -0.7243 -0.2843  0.4824
 6717SOL     OW26633   5.569   2.917   5.391 -0.4428 -0.5681 -0.2712
 6717SOL    HW226634   5.494   2.907   5.332 -1.2288  3.1525 -0.1705
 6717SOL    HW326635   5.645   2.925   5.332 -0.8581  0.4955 -0.6877
 6717SOL    MW426636   5.569   2.917   5.375 -0.0671  0.4453  0.3333
 6718SOL     OW26637   3.600   3.737   4.112  0.3270 -0.6142  0.0998
 6718SOL    HW226638   3.644   3.802   4.058  0.2083 -0.1429  0.5632
 6718SOL    HW326639   3.659   3.722   4.186 -1.0029  1.3423  1.6740
 6718SOL    MW426640   3.613   3.744   4.115  0.3816  0.0501 -0.1288
 6719SOL     OW26641   6.056   4.567   2.021 -0.0443 -0.1072 -0.6636
 6719SOL    HW226642   5.963   4.576   2.001  0.2509 -0.0417 -2.0908
 6719SOL    HW326643   6.100   4.572   1.936  1.1270 -2.0924 -0.2388
 6719SOL    MW426644   6.050   4.569   2.008 -0.5354 -0.0362 -0.4879
 6720SOL     OW26645   4.648   3.081   1.075  0.2473  0.5306 -0.1998
 6720SOL    HW226646   4.624   3.120   1.159  1.2210 -0.4869  0.5700
 6720SOL    HW326647   4.573   3.099   1.018 -0.9934  0.1216  1.2476
 6720SOL    MW426648   4.635   3.089   1.079  0.4641 -0.0813  0.4740
 6721SOL     OW26649   6.007   5.482   1.510  0.0890 -0.7325  0.7289
 6721SOL    HW226650   5.913   5.498   1.516 -0.2989 -1.0075 -2.5947
 6721SOL    HW326651   6.018   5.391   1.538 -0.9902 -1.3493 -0.7189
 6721SOL    MW426652   5.996   5.472   1.514 -0.3970 -0.1383  0.0679
 6722SOL     OW26653   1.845   3.894   3.066 -0.5089 -0.3275  0.3102
 6722SOL    HW226654   1.918   3.892   3.129 -0.2097 -2.4550 -0.0121
 6722SOL    HW326655   1.784   3.828   3.098 -1.2272 -0.1570 -0.6515
 6722SOL    MW426656   1.847   3.885   3.079  0.2501  0.2765 -0.3915
 6723SOL     OW26657   5.939   2.592   0.487  0.5863 -0.0292  0.2427
 6723SOL    HW226658   5.991   2.538   0.428 -0.2626 -0.0978 -0.4687
 6723SOL    HW326659   5.954   2.555   0.574 -0.9625 -2.2677 -0.3557
 6723SOL    MW426660   5.948   2.580   0.491 -0.4212  0.1039 -0.5698
 6724SOL     OW26661   2.567   1.675   3.671  0.0767 -0.5252 -0.2008
 6724SOL    HW226662   2.595   1.682   3.580  0.1053 -0.6146 -0.1983
 6724SOL    HW326663   2.561   1.766   3.701 -1.0697 -0.4264 -0.6434
 6724SOL    MW426664   2.570   1.688   3.663  0.3783 -0.3284 -0.1188
 6725SOL     OW26665   1.124   5.779   3.103  0.1172  0.2712  0.2109
 6725SOL    HW226666   1.039   5.786   3.060 -0.0609  0.8065  0.6426
 6725SOL    HW326667   1.131   5.686   3.125  0.5361 -0.1535 -1.5933
 6725SOL    MW426668   1.113   5.767   3.101 -0.6429 -0.0606 -0.3627
 6726SOL     OW26669   1.331   2.269   1.794  0.1127 -0.3938  0.2754
 6726SOL    HW226670   1.375   2.200   1.845 -0.0634 -0.6692  0.0547
 6726SOL    HW326671   1.376   2.268   1.710 -0.4631 -0.8300 -0.0326
 6726SOL    MW426672   1.343   2.260   1.790 -0.2694 -0.0480 -0.0292
 6727SOL     OW26673   4.538   4.632   2.025 -0.0924 -0.3007  0.1642
 6727SOL    HW226674   4.482   4.663   2.096 -0.4089  1.6389 -0.8454
 6727SOL    HW326675   4.627   4.653   2.053 -0.1667 -0.1419  0.2817
 6727SOL    MW426676   4.543   4.639   2.038  0.6551 -0.0445  0.1589
 6728SOL     OW26677   3.736   2.139   4.177  0.4993 -0.3869 -0.7392
 6728SOL    HW226678   3.797   2.065   4.174  0.0893 -0.7318 -0.6652
 6728SOL    HW326679   3.785   2.209   4.220  1.0483 -0.4642 -1.2327
 6728SOL    MW426680   3.750   2.138   4.182  0.4195  0.5235  0.2752
 6729SOL     OW26681   3.252   5.878   2.708  0.0979 -0.6086  0.7731
 6729SOL    HW226682   3.345   5.887   2.687 -0.2468  0.1238 -0.5620
 6729SOL    HW326683   3.248   5.800   2.764  1.3135 -1.8334 -0.7163
 6729SOL    MW426684   3.264   5.869   2.713  0.3493 -0.9728  0.0467
 6730SOL     OW26685   2.138   5.733   0.084  0.0640 -0.0218 -0.2178
 6730SOL    HW226686   2.187   5.810   0.055  0.9500 -0.2270  0.6607
 6730SOL    HW326687   2.149   5.670   0.012  0.0436  0.3808 -0.5746
 6730SOL    MW426688   2.146   5.735   0.070 -0.3315  0.2391  0.1076
 6731SOL     OW26689   1.232   1.249   0.124  0.6221 -0.5059  0.5135
 6731SOL    HW226690   1.252   1.319   0.187 -0.1944  0.4884 -0.2905
 6731SOL    HW326691   1.242   1.291   0.038 -1.5371 -0.8766  0.0317
 6731SOL    MW426692   1.236   1.264   0.121  0.2872  0.1342  0.3458
 6732SOL     OW26693   0.948   5.670   3.937 -0.3729  0.2039  0.2220
 6732SOL    HW226694   1.000   5.722   3.876 -0.2433 -0.3603 -0.1595
 6732SOL    HW326695   1.013   5.625   3.991 -0.4838  1.8239  1.7750
 6732SOL    MW426696   0.963   5.671   3.936 -0.4373  0.5074 -0.0176
 6733SOL     OW26697   4.862   3.245   0.977  0.2318  0.4281 -0.6365
 6733SOL    HW226698   4.803   3.189   1.026  0.3718 -0.1990 -1.1792
 6733SOL    HW326699   4.808   3.284   0.909 -0.3563  2.5606  0.9175
 6733SOL    MW426700   4.847   3.243   0.975  0.6082 -0.8062  0.0026
 6734SOL     OW26701   0.571   0.306   2.746 -0.0619  0.1458  0.0147
 6734SOL    HW226702   0.659   0.312   2.782 -0.2743 -0.7252  0.7388
 6734SOL    HW326703   0.582   0.313   2.651  0.6150  1.5457  0.1797
 6734SOL    MW426704   0.584   0.307   2.738  0.3390  0.1293 -0.0659
 6735SOL     OW26705   4.512   1.147   3.227 -0.1757 -0.0205 -0.2067
 6735SOL    HW226706   4.474   1.125   3.313 -0.0707  0.2128 -0.0994
 6735SOL    HW326707   4.587   1.089   3.219 -1.8438 -2.1664 -1.4380
 6735SOL    MW426708   4.516   1.136   3.237 -0.2037 -0.3806  0.4203
 6736SOL     OW26709   4.162   3.336   0.631  0.4292  0.7403  0.5029
 6736SOL    HW226710   4.165   3.388   0.551  1.9450 -1.3430 -0.8949
 6736SOL    HW326711   4.090   3.274   0.616  0.9509  0.1067  0.5748
 6736SOL    MW426712   4.153   3.335   0.618 -0.0010 -0.4142  0.0922
 6737SOL     OW26713   3.139   5.964   2.057 -0.1141  0.4767 -0.2838
 6737SOL    HW226714   3.111   5.899   1.993  1.6960  0.0144 -0.6476
 6737SOL    HW326715   3.225   5.934   2.087  1.2577  3.1698 -1.2124
 6737SOL    MW426716   3.146   5.952   2.053 -0.3877  0.4530  0.0021
 6738SOL     OW26717   5.000   6.155   5.092 -0.1901  0.3612  0.3815
 6738SOL    HW226718   5.024   6.137   5.001 -1.6236 -0.5157  0.1453
 6738SOL    HW326719   4.908   6.180   5.088 -0.5638 -0.6850  1.6968
 6738SOL    MW426720   4.991   6.156   5.080  0.2751 -0.3838 -0.6919
 6739SOL     OW26721   1.978   4.819   0.727  0.0071 -0.2682 -0.2705
 6739SOL    HW226722   1.950   4.822   0.636  1.6467 -0.0612 -0.8018
 6739SOL    HW326723   2.071   4.796   0.723  0.3174  0.5547  1.3109
 6739SOL    MW426724   1.987   4.816   0.714  0.8230 -0.6306 -0.3097
 6740SOL     OW26725   0.197   2.301   1.323 -0.1611 -0.7192 -0.7184
 6740SOL    HW226726   0.288   2.310   1.297  0.0748  0.3204  0.3981
 6740SOL    HW326727   0.195   2.223   1.379  0.8616  1.3150  2.4425
 6740SOL    MW426728   0.208   2.292   1.327 -0.3762  0.7745 -0.0040
 6741SOL     OW26729   0.935   3.432   5.093  0.0121 -0.0089 -0.1702
 6741SOL    HW226730   1.019   3.418   5.136 -0.7868 -0.8023  1.2235
 6741SOL    HW326731   0.871   3.393   5.152 -0.9939 -3.6236 -3.2705
 6741SOL    MW426732   0.937   3.425   5.106 -0.3809  0.0191 -0.3893
 6742SOL     OW26733   6.148   0.549   1.320 -0.3143  0.3945  0.0835
 6742SOL    HW226734   6.216   0.511   1.264  0.1931  5.5396 -3.4238
 6742SOL    HW326735   6.068   0.544   1.268 -0.7029  1.8794  0.4938
 6742SOL    MW426736   6.146   0.543   1.306 -0.7173 -0.6252 -0.1092
 6743SOL     OW26737   5.582   2.322   5.670  0.2172  0.1494 -0.1848
 6743SOL    HW226738   5.487   2.314   5.660  0.2716 -1.0648  0.1352
 6743SOL    HW326739   5.616   2.307   5.581  0.1061  0.8095 -0.3437
 6743SOL    MW426740   5.574   2.319   5.657  0.4427  0.6876 -0.4046
 6744SOL     OW26741   0.630   4.611   5.431  0.2437 -0.1442  0.2622
 6744SOL    HW226742   0.716   4.614   5.475  1.3061 -2.8882 -1.3587
 6744SOL    HW326743   0.650   4.622   5.338 -1.6203  2.4301  0.0522
 6744SOL    MW426744   0.644   4.613   5.425  0.0890 -0.0979  0.0400
 6745SOL     OW26745   4.982   1.746   0.251  0.3999 -0.0740  0.1328
 6745SOL    HW226746   4.956   1.759   0.343 -0.7770 -1.4036  0.0156
 6745SOL    HW326747   4.902   1.760   0.201  1.2291  1.5684 -0.8174
 6745SOL    MW426748   4.968   1.750   0.257  0.2978 -0.3309  0.5019
 6746SOL     OW26749   1.741   4.262   1.005  0.3804 -0.0246 -0.9210
 6746SOL    HW226750   1.821   4.297   1.044 -0.3484  2.4979 -1.5016
 6746SOL    HW326751   1.753   4.275   0.911  0.4251 -2.2979 -1.2917
 6746SOL    MW426752   1.753   4.268   0.997  0.4266  0.4309  0.0457
 6747SOL     OW26753   4.001   3.387   1.267  0.3601 -0.1193 -0.0675
 6747SOL    HW226754   3.967   3.471   1.297  0.9587  0.2926 -0.5000
 6747SOL    HW326755   3.924   3.330   1.262  0.2709 -0.3415  2.5620
 6747SOL    MW426756   3.986   3.390   1.270  0.4028  0.1613 -0.6495
 6748SOL     OW26757   4.201   5.260   0.576  0.5132 -0.2402 -0.0169
 6748SOL    HW226758   4.178   5.295   0.663  1.8278  0.8588 -0.0800
 6748SOL    HW326759   4.126   5.282   0.521  0.1126 -0.0199  0.6062
 6748SOL    MW426760   4.188   5.268   0.580  0.1683  0.5866 -0.3105
 6749SOL     OW26761   1.512   0.112   2.109  0.2997 -0.4974 -0.2650
 6749SOL    HW226762   1.504   0.035   2.166 -0.6280  0.4266  0.9072
 6749SOL    HW326763   1.539   0.183   2.167 -0.3319  0.4015 -1.0384
 6749SOL    MW426764   1.514   0.111   2.124  0.2905  0.1561 -0.4581
 6750SOL     OW26765   4.189   2.353   4.981 -0.2212 -0.1881 -0.4665
 6750SOL    HW226766   4.165   2.271   5.024  0.5740 -0.0646  0.2365
 6750SOL    HW326767   4.194   2.417   5.052 -0.1220  0.3106 -0.9166
 6750SOL    MW426768   4.186   2.351   4.996 -0.5295 -0.4885  0.4782
 6751SOL     OW26769   4.951   2.946   1.022 -0.1691  0.2691  0.2598
 6751SOL    HW226770   5.027   2.888   1.030 -0.0187  0.3192 -0.6378
 6751SOL    HW326771   4.950   2.971   0.929 -0.9926  0.6659  0.3657
 6751SOL    MW426772   4.961   2.942   1.011  0.5414  0.0945  0.0469
 6752SOL     OW26773   4.145   1.475   4.030  0.5113  0.0654  0.0302
 6752SOL    HW226774   4.148   1.569   4.049 -2.0166  0.0090  1.1797
 6752SOL    HW326775   4.185   1.434   4.106  2.5009  0.1702 -0.8955
 6752SOL    MW426776   4.151   1.482   4.043 -0.2827 -0.0200  0.5968
 6753SOL     OW26777   1.469   3.462   4.766  0.0246  0.2883  0.4788
 6753SOL    HW226778   1.433   3.405   4.834  0.4988  1.4365  1.7182
 6753SOL    HW326779   1.410   3.537   4.763  0.1094  0.3373 -0.2745
 6753SOL    MW426780   1.456   3.464   4.775 -0.2631 -0.1632  1.1189
 6754SOL     OW26781   4.504   4.550   5.213 -0.1558 -0.0507  0.2083
 6754SOL    HW226782   4.555   4.515   5.287 -1.2536  0.4586  1.2482
 6754SOL    HW326783   4.567   4.600   5.161  1.1790 -2.4311 -0.6042
 6754SOL    MW426784   4.519   4.552   5.216  0.1668  0.1686 -0.3148
 6755SOL     OW26785   1.596   2.873   2.287 -0.4414  0.3134 -0.1703
 6755SOL    HW226786   1.536   2.799   2.283  0.3150 -0.4230  1.5282
 6755SOL    HW326787   1.641   2.872   2.202  0.1470 -1.6891  0.1260
 6755SOL    MW426788   1.594   2.863   2.275  0.6460 -0.0165  0.0387
 6756SOL     OW26789   1.542   3.599   2.625  0.3331 -0.4127  0.0726
 6756SOL    HW226790   1.485   3.564   2.556  0.4035  0.4384 -0.4273
 6756SOL    HW326791   1.500   3.571   2.706  0.2505 -1.4278 -0.3054
 6756SOL    MW426792   1.529   3.591   2.626  0.5648 -0.3465 -0.2385
 6757SOL     OW26793   1.988   4.124   1.489 -0.0698 -0.2741 -0.2268
 6757SOL    HW226794   2.053   4.155   1.426 -0.5306  1.5505  0.1317
 6757SOL    HW326795   1.923   4.194   1.493 -0.4774 -0.7012  1.6608
 6757SOL    MW426796   1.988   4.137   1.482  0.2183 -0.2708  0.2971
 6758SOL     OW26797   3.925   0.290   0.277  0.1951 -0.4820 -0.2300
 6758SOL    HW226798   3.968   0.292   0.192 -0.2408 -0.1181 -0.4481
 6758SOL    HW326799   3.832   0.274   0.256 -0.1222  0.8238  0.0893
 6758SOL    MW426800   3.918   0.288   0.263 -0.1223  0.3924 -0.1353
 6759SOL     OW26801   2.220   0.191   0.959  0.0898 -0.3388 -0.2880
 6759SOL    HW226802   2.215   0.258   1.027  0.1413  1.7929 -2.2480
 6759SOL    HW326803   2.128   0.169   0.941  0.0941 -1.5303  0.9667
 6759SOL    MW426804   2.207   0.197   0.966 -0.0612 -0.0729 -0.2028
 6760SOL     OW26805   0.448   3.610   2.390  0.3140  0.0837 -0.1154
 6760SOL    HW226806   0.526   3.661   2.370 -0.9547  1.7946 -0.9199
 6760SOL    HW326807   0.448   3.539   2.325  0.3659  1.0206 -1.1625
 6760SOL    MW426808   0.458   3.607   2.379 -0.3138  0.4653  0.1914
 6761SOL     OW26809   5.467   0.648   2.848 -0.4520  0.3916 -0.0292
 6761SOL    HW226810   5.501   0.682   2.930 -0.3980  0.4804 -0.0882
 6761SOL    HW326811   5.375   0.629   2.866 -1.3187  3.3557 -0.7885
 6761SOL    MW426812   5.459   0.650   2.861 -0.8248  0.2147  1.0214
 6762SOL     OW26813   0.305   4.677   6.350  0.0477 -0.3197 -0.1170
 6762SOL    HW226814   0.271   4.755   6.307 -1.4689 -1.9821 -2.1405
 6762SOL    HW326815   0.375   4.646   6.292  0.1342 -0.8616  0.2631
 6762SOL    MW426816   0.310   4.683   6.336  0.1590  0.1755  0.2720
 6763SOL     OW26817   3.952   3.731   3.762  0.0628 -0.0081 -0.0232
 6763SOL    HW226818   3.897   3.791   3.812  0.1438 -0.7022  0.9156
 6763SOL    HW326819   3.980   3.782   3.686 -0.2277  0.9956  0.5321
 6763SOL    MW426820   3.948   3.746   3.758 -0.3765 -0.1638  0.0921
 6764SOL     OW26821   4.731   2.677   2.038  0.2799 -0.1309 -0.4693
 6764SOL    HW226822   4.669   2.615   1.999 -0.5765 -0.4727  1.3364
 6764SOL    HW326823   4.817   2.635   2.025 -0.1972 -1.2891 -0.0505
 6764SOL    MW426824   4.735   2.663   2.031 -0.2287  0.2075  0.1603
 6765SOL     OW26825   6.091   5.177   4.981  0.5238  0.1624 -0.3908
 6765SOL    HW226826   6.162   5.232   4.948  1.8964 -0.5502  1.2435
 6765SOL    HW326827   6.101   5.094   4.933 -0.0084  0.4649 -1.0514
 6765SOL    MW426828   6.102   5.173   4.970  0.4909  0.3562 -0.3439
 6766SOL     OW26829   6.341   1.390   2.276 -0.4770 -0.2595  0.0128
 6766SOL    HW226830   6.434   1.412   2.283  0.0508 -2.2615 -0.1224
 6766SOL    HW326831   6.336   1.329   2.203 -1.6649 -1.3189  0.9305
 6766SOL    MW426832   6.352   1.385   2.267  0.1089 -0.0373 -0.7961
 6767SOL     OW26833   5.179   0.354   0.557 -0.1260  0.2451 -0.4300
 6767SOL    HW226834   5.240   0.281   0.570 -0.5021 -0.1110 -0.6320
 6767SOL    HW326835   5.189   0.379   0.466 -0.5851 -0.1016 -0.5829
 6767SOL    MW426836   5.188   0.347   0.547 -0.0801 -0.5398  0.2361
 6768SOL     OW26837   1.698   1.669   0.409 -0.4234  0.2701  0.8577
 6768SOL    HW226838   1.623   1.664   0.350 -1.4438  0.5428  2.0977
 6768SOL    HW326839   1.774   1.661   0.351 -1.3945 -0.1240 -0.4117
 6768SOL    MW426840   1.698   1.667   0.393  0.6053  0.1962  0.3528
 6769SOL     OW26841   3.637   2.957   0.127  0.4450  0.0664  0.0772
 6769SOL    HW226842   3.659   3.039   0.172  0.1211  0.6109 -0.7283
 6769SOL    HW326843   3.704   2.948   0.059  0.6451 -0.4920  0.3404
 6769SOL    MW426844   3.649   2.967   0.124  0.1312  0.5211  0.5119
 6770SOL     OW26845   0.127   0.729   5.517 -0.0447  0.1137 -0.2044
 6770SOL    HW226846   0.069   0.654   5.529 -0.3644  0.1335 -1.4128
 6770SOL    HW326847   0.204   0.693   5.471  0.1966  0.3664 -0.0027
 6770SOL    MW426848   0.130   0.714   5.512 -0.5803 -0.2777 -0.1245
 6771SOL     OW26849   0.184   2.938   5.075  0.1232  0.5651  0.2858
 6771SOL    HW226850   0.258   2.906   5.024  0.5290 -1.0820  1.8374
 6771SOL    HW326851   0.219   3.013   5.123  0.7479 -0.1237  0.9121
 6771SOL    MW426852   0.198   2.944   5.074 -0.3194 -0.0026 -0.2711
 6772SOL     OW26853   2.184   0.441   0.214 -0.0131 -0.6469  0.2197
 6772SOL    HW226854   2.271   0.463   0.249 -0.9965  0.0773  2.3861
 6772SOL    HW326855   2.174   0.348   0.231 -0.7067 -0.2107  2.6658
 6772SOL    MW426856   2.194   0.432   0.221  0.6893  0.2156 -0.2349
 6773SOL     OW26857   0.752   3.057   2.362 -0.1600 -0.3632 -0.4416
 6773SOL    HW226858   0.762   2.975   2.314 -1.5549 -0.6885 -0.2305
 6773SOL    HW326859   0.841   3.091   2.371  0.3822 -1.5634 -1.0292
 6773SOL    MW426860   0.765   3.051   2.357  0.3384 -0.3283  0.0939
 6774SOL     OW26861   3.509   1.415   4.814  0.1623 -0.0068  0.4637
 6774SOL    HW226862   3.576   1.347   4.809 -0.0770 -0.2837  0.8827
 6774SOL    HW326863   3.525   1.471   4.738 -0.3809 -1.2118 -0.5645
 6774SOL    MW426864   3.520   1.413   4.803  0.4179  0.0403 -0.3605
 6775SOL     OW26865   2.371   5.339   5.578 -0.2130 -0.1765 -0.3955
 6775SOL    HW226866   2.389   5.282   5.653  1.6841 -3.0875 -2.8357
 6775SOL    HW326867   2.282   5.315   5.552  0.1635 -1.2536 -0.7322
 6775SOL    MW426868   2.361   5.328   5.585  0.5120 -0.9286  0.4257
 6776SOL     OW26869   2.885   5.414   2.386 -0.0202  0.3131  0.2299
 6776SOL    HW226870   2.914   5.506   2.392 -0.9246  0.6152  0.0349
 6776SOL    HW326871   2.803   5.418   2.338  0.3679 -0.6974 -0.5335
 6776SOL    MW426872   2.878   5.427   2.381  0.3664  0.4000 -0.0966
 6777SOL     OW26873   4.506   6.427   3.070  0.1370  0.2642 -0.4635
 6777SOL    HW226874   4.569   6.382   3.014 -0.3166  0.8314 -1.4473
 6777SOL    HW326875   4.555   6.449   3.149  0.4843 -1.5535 -0.1405
 6777SOL    MW426876   4.521   6.424   3.073  0.1441 -0.1440  0.2337
 6778SOL     OW26877   1.983   0.732   0.644  0.4007 -0.0631  0.6155
 6778SOL    HW226878   1.924   0.754   0.716 -0.8471 -0.7833 -0.1499
 6778SOL    HW326879   1.941   0.658   0.601  0.3943  1.1746 -1.6629
 6778SOL    MW426880   1.969   0.725   0.648  1.0140 -0.0807 -0.2037
 6779SOL     OW26881   3.323   0.553   1.221  0.8042 -0.3975  0.2882
 6779SOL    HW226882   3.323   0.459   1.204 -0.4752 -0.3769  0.0319
 6779SOL    HW326883   3.253   0.587   1.164  0.6193  0.5666  1.0696
 6779SOL    MW426884   3.313   0.545   1.211  0.2259 -0.2166 -0.1708
 6780SOL     OW26885   0.579   1.809   4.320 -0.3753 -0.1556  0.1801
 6780SOL    HW226886   0.637   1.825   4.395 -2.6538 -1.0934  2.2926
 6780SOL    HW326887   0.594   1.717   4.297  1.6124  0.5802 -1.8135
 6780SOL    MW426888   0.589   1.799   4.327  0.0988 -0.0432  0.2513
 6781SOL     OW26889   3.496   5.303   2.799  0.0814  0.1275 -0.2841
 6781SOL    HW226890   3.549   5.315   2.878 -2.6907  1.4005  1.5270
 6781SOL    HW326891   3.463   5.213   2.805  1.8556 -0.6534 -1.3946
 6781SOL    MW426892   3.499   5.293   2.810 -0.0651 -0.1359  0.5889
 6782SOL     OW26893   1.794   1.409   4.546  0.5482  0.3157  0.5740
 6782SOL    HW226894   1.736   1.411   4.622  0.9770 -0.3346  0.9359
 6782SOL    HW326895   1.841   1.325   4.554 -0.6002 -0.5836 -1.3173
 6782SOL    MW426896   1.793   1.398   4.557  0.4726 -0.5179  0.2223
 6783SOL     OW26897   1.096   0.350   6.075 -0.1313  0.4086  0.0517
 6783SOL    HW226898   1.189   0.373   6.080 -0.5513  2.0892  0.6750
 6783SOL    HW326899   1.054   0.403   6.142 -1.5219 -0.5828  0.0157
 6783SOL    MW426900   1.103   0.360   6.085 -0.1085  0.2646 -0.0854
 6784SOL     OW26901   0.120   0.245   3.549  0.0084  0.2335 -0.2516
 6784SOL    HW226902   0.052   0.215   3.489  0.4322 -0.2633 -0.4894
 6784SOL    HW326903   0.202   0.227   3.504  0.3243  0.0959  0.3668
 6784SOL    MW426904   0.122   0.239   3.535 -0.5435 -0.2347  0.2352
 6785SOL     OW26905   2.640   1.688   0.893  0.4152  0.0817 -0.1754
 6785SOL    HW226906   2.630   1.756   0.827  2.2386  0.1829 -0.4068
 6785SOL    HW326907   2.673   1.612   0.845 -0.3321 -0.5620  0.2914
 6785SOL    MW426908   2.643   1.687   0.878  0.3073  0.2537 -0.2390
 6786SOL     OW26909   6.055   3.021   2.628 -0.1394  0.0423 -0.0238
 6786SOL    HW226910   6.110   3.061   2.695  1.4307  0.6925 -1.6186
 6786SOL    HW326911   5.968   3.015   2.668  0.9571 -0.5482  2.4031
 6786SOL    MW426912   6.051   3.026   2.642 -0.6243  0.3149  0.0192
 6787SOL     OW26913   1.464   0.249   3.456  0.4162  0.2010 -0.4163
 6787SOL    HW226914   1.399   0.265   3.388  0.6247  1.2168 -0.4018
 6787SOL    HW326915   1.413   0.247   3.537  0.4606  1.9850 -0.2900
 6787SOL    MW426916   1.448   0.251   3.458 -0.8699 -0.3643  0.1985
 6788SOL     OW26917   2.422   1.558   6.168 -0.3116  0.2270 -0.6482
 6788SOL    HW226918   2.490   1.514   6.117 -0.4981  1.1861 -1.7592
 6788SOL    HW326919   2.407   1.500   6.243  1.2572 -0.3219 -0.7219
 6788SOL    MW426920   2.429   1.545   6.171  0.1404  0.6290 -0.3195
 6789SOL     OW26921   4.973   0.236   1.099 -0.2640 -0.4597  0.1200
 6789SOL    HW226922   4.899   0.202   1.149 -0.0855 -2.3502 -0.7733
 6789SOL    HW326923   4.951   0.217   1.008  1.3397 -1.1653 -0.1603
 6789SOL    MW426924   4.960   0.229   1.094  0.0495 -0.0002  0.1795
 6790SOL     OW26925   2.236   3.248   4.034 -0.0803 -0.2636  0.4990
 6790SOL    HW226926   2.237   3.313   3.964  0.2683  0.3873  1.0967
 6790SOL    HW326927   2.144   3.246   4.063  0.3100  1.7589  2.0922
 6790SOL    MW426928   2.224   3.257   4.029 -0.3064  0.2943 -0.2585
 6791SOL     OW26929   1.612   1.509   4.348  0.4204  0.6878 -0.2988
 6791SOL    HW226930   1.685   1.480   4.404 -0.8143  0.0708  1.0720
 6791SOL    HW326931   1.584   1.429   4.303 -0.9421  0.3695  1.0484
 6791SOL    MW426932   1.618   1.494   4.350 -1.2259 -0.1697  0.6436
 6792SOL     OW26933   1.580   6.432   4.313  0.3407  0.1915 -0.2324
 6792SOL    HW226934   1.500   6.391   4.344  0.4376  0.2161  0.0565
 6792SOL    HW326935   1.616   6.370   4.250 -1.1073  1.2132 -2.1651
 6792SOL    MW426936   1.574   6.419   4.309 -0.1151  0.2696  0.1989
 6793SOL     OW26937   3.789   5.694   3.640  0.6843 -0.3475  0.6392
 6793SOL    HW226938   3.705   5.693   3.686  0.2983 -1.0078 -0.0492
 6793SOL    HW326939   3.844   5.634   3.689  1.3388  1.3285  2.0809
 6793SOL    MW426940   3.785   5.686   3.652  0.1860 -0.8594 -0.1142
 6794SOL     OW26941   1.094   1.432   5.470  0.2053 -0.4318  0.1537
 6794SOL    HW226942   1.072   1.501   5.407  1.6396  2.9016  2.9816
 6794SOL    HW326943   1.013   1.382   5.480 -0.9240  0.8022 -2.0447
 6794SOL    MW426944   1.081   1.434   5.463 -0.1168 -0.4667 -0.0906
 6795SOL     OW26945   2.552   2.045   4.162 -0.0770 -0.3238 -0.0711
 6795SOL    HW226946   2.561   2.074   4.253  0.2239 -1.3818  0.2584
 6795SOL    HW326947   2.462   2.067   4.138 -0.0463  0.2918  0.3589
 6795SOL    MW426948   2.541   2.051   4.171 -0.4167  0.2642 -0.4833
 6796SOL     OW26949   5.753   0.310   0.304 -0.5692 -0.0096 -0.2619
 6796SOL    HW226950   5.751   0.364   0.225 -0.6790 -0.7808 -0.7991
 6796SOL    HW326951   5.814   0.239   0.283 -1.5857 -0.9407 -0.1474
 6796SOL    MW426952   5.761   0.307   0.291  0.0657 -0.6064 -0.2486
 6797SOL     OW26953   1.455   3.784   0.489 -0.3097  0.1436  0.6061
 6797SOL    HW226954   1.467   3.696   0.452 -0.4900  0.1591  0.5051
 6797SOL    HW326955   1.372   3.814   0.451  0.4973  0.9697 -0.5566
 6797SOL    MW426956   1.445   3.776   0.479  0.1182  0.2529  0.6402
 6798SOL     OW26957   2.080   4.087   4.799  0.3355 -0.1867  0.2363
 6798SOL    HW226958   2.084   4.041   4.883 -0.8797 -0.3230  0.2293
 6798SOL    HW326959   2.000   4.139   4.804  1.4473  1.6348  0.0739
 6798SOL    MW426960   2.070   4.088   4.811  0.3034 -0.3409 -0.1947
 6799SOL     OW26961   5.975   2.611   2.426  0.7154 -0.2223  0.3159
 6799SOL    HW226962   5.918   2.539   2.398  1.3460 -1.1642  1.3353
 6799SOL    HW326963   5.943   2.687   2.379 -0.8141 -0.9124  0.1778
 6799SOL    MW426964   5.963   2.611   2.416 -0.3042 -0.7443 -0.0477
 6800SOL     OW26965   3.981   0.186   4.121  0.2552  0.9794  0.3081
 6800SOL    HW226966   4.015   0.218   4.037 -1.3547 -1.0372 -1.2239
 6800SOL    HW326967   3.932   0.261   4.156 -0.6927  1.2989 -1.5550
 6800SOL    MW426968   3.979   0.200   4.114 -0.2438 -0.0944 -0.1756
 6801SOL     OW26969   3.718   5.053   0.090 -0.2396  0.2200 -0.0872
 6801SOL    HW226970   3.781   5.025   0.157 -0.4696  1.4143  0.6536
 6801SOL    HW326971   3.772   5.079   0.016  0.0887  0.2348  0.1560
 6801SOL    MW426972   3.733   5.053   0.089  0.1181 -0.0233  0.4158
 6802SOL     OW26973   5.387   4.654   1.751 -0.5433  0.5491 -1.1240
 6802SOL    HW226974   5.314   4.600   1.782  0.5381 -0.2813  0.0258
 6802SOL    HW326975   5.353   4.744   1.755 -0.6971  0.4323  1.8420
 6802SOL    MW426976   5.373   4.659   1.756 -0.0847  0.3377  0.1767
 6803SOL     OW26977   0.952   2.167   2.213 -0.0043  0.3060  0.2017
 6803SOL    HW226978   1.038   2.157   2.172  0.1809 -3.0575  1.1815
 6803SOL    HW326979   0.892   2.122   2.154 -0.9805  1.6788  0.0911
 6803SOL    MW426980   0.956   2.160   2.200  0.0756  0.1269 -0.0105
 6804SOL     OW26981   5.173   5.331   1.384  0.2204  0.1188  0.4492
 6804SOL    HW226982   5.204   5.252   1.341 -1.7948 -0.0942 -0.7630
 6804SOL    HW326983   5.110   5.300   1.449 -0.7250  0.7076 -0.1611
 6804SOL    MW426984   5.169   5.317   1.387 -0.3325 -0.4146 -0.0091
 6805SOL     OW26985   6.175   2.909   5.348 -0.2932  0.0888 -0.0283
 6805SOL    HW226986   6.267   2.899   5.322 -0.1775  1.3151 -0.1550
 6805SOL    HW326987   6.145   2.986   5.299 -0.2879  2.0404  2.8030
 6805SOL    MW426988   6.183   2.918   5.338 -0.8197 -0.7520 -0.3560
 6806SOL     OW26989   2.719   4.067   5.675  0.4775 -0.4395  0.4003
 6806SOL    HW226990   2.761   3.987   5.644  0.9182  0.3575 -1.1629
 6806SOL    HW326991   2.662   4.094   5.602  0.3258  0.6559  0.9025
 6806SOL    MW426992   2.717   4.060   5.661  0.3110  0.0522  0.1719
 6807SOL     OW26993   2.797   1.323   2.498 -0.0971 -0.0861 -0.3847
 6807SOL    HW226994   2.804   1.415   2.521 -0.7013 -0.0932 -0.1515
 6807SOL    HW326995   2.798   1.277   2.582 -0.9119 -0.2079 -0.4331
 6807SOL    MW426996   2.798   1.329   2.512  0.0915 -0.2136  0.0360
 6808SOL     OW26997   1.614   4.188   2.269 -0.1500  0.3314 -0.1797
 6808SOL    HW226998   1.590   4.133   2.195 -1.2220  0.3624  0.1337
 6808SOL    HW326999   1.536   4.241   2.286  0.2200  0.5968  0.7294
 6808SOL    MW427000   1.601   4.188   2.261 -0.8612  0.4912  0.4722
 6809SOL     OW27001   2.753   3.136   0.986 -0.1051  0.2778 -0.3320
 6809SOL    HW227002   2.682   3.194   0.956 -0.6240  1.3642  2.6702
 6809SOL    HW327003   2.815   3.195   1.029 -0.2036 -1.2263  2.0542
 6809SOL    MW427004   2.752   3.152   0.988 -0.6607 -0.1534  0.2749
 6810SOL     OW27005   5.025   1.761   5.978 -0.0831 -0.0109 -0.4830
 6810SOL    HW227006   4.960   1.720   5.921  0.7769 -0.7362 -0.9668
 6810SOL    HW327007   5.054   1.691   6.036  0.1561  0.3414 -0.1707
 6810SOL    MW427008   5.020   1.746   5.978 -0.0259  0.0287  0.2056
 6811SOL     OW27009   4.253   6.083   5.499 -0.3621  0.0011 -0.4102
 6811SOL    HW227010   4.160   6.104   5.491 -0.2788  0.1400 -1.0605
 6811SOL    HW327011   4.275   6.039   5.417  0.6345  1.8655 -1.2124
 6811SOL    MW427012   4.244   6.080   5.487 -0.0893  0.1116  0.5605
 6812SOL     OW27013   2.644   2.501   2.904  0.3823  0.8387 -0.7158
 6812SOL    HW227014   2.690   2.569   2.855 -0.9060  1.4979 -1.0450
 6812SOL    HW327015   2.637   2.535   2.993  0.9189  0.5387 -0.5553
 6812SOL    MW427016   2.649   2.514   2.909 -0.1000 -0.0332  0.2681
 6813SOL     OW27017   1.675   2.311   3.765 -0.1258  0.4663  0.2473
 6813SOL    HW227018   1.597   2.264   3.795  0.1370 -0.2440 -0.1651
 6813SOL    HW327019   1.746   2.248   3.774  0.7298  1.6476  2.2430
 6813SOL    MW427020   1.674   2.297   3.770  0.2494 -0.2171  0.2609
 6814SOL     OW27021   0.146   0.355   6.325  0.0830 -0.1138 -0.5696
 6814SOL    HW227022   0.085   0.371   6.397  0.9686 -1.1328  0.4409
 6814SOL    HW327023   0.222   0.314   6.367  0.7061 -0.5334 -2.0607
 6814SOL    MW427024   0.148   0.352   6.340  0.1656 -0.0827 -0.0603
 6815SOL     OW27025   2.190   6.120   0.912 -0.0846 -0.1098 -0.1597
 6815SOL    HW227026   2.155   6.042   0.868  0.0665  0.0743 -0.6142
 6815SOL    HW327027   2.115   6.178   0.921 -0.0924 -0.0996 -0.2862
 6815SOL    MW427028   2.176   6.117   0.907 -0.6056 -0.7573 -0.1421
 6816SOL     OW27029   1.326   6.108   1.153 -0.1236 -0.7685  0.1172
 6816SOL    HW227030   1.306   6.175   1.218  1.4172  0.2679 -0.4317
 6816SOL    HW327031   1.307   6.025   1.197  0.0916 -0.0592  1.5956
 6816SOL    MW427032   1.321   6.106   1.168 -0.3939  0.3209 -0.1236
 6817SOL     OW27033   2.898   2.645   3.280 -0.1677 -0.1079 -0.0976
 6817SOL    HW227034   2.891   2.735   3.313 -2.1763  0.2200 -1.3163
 6817SOL    HW327035   2.972   2.648   3.219  0.1787  0.5475  0.3336
 6817SOL    MW427036   2.907   2.657   3.277  0.9240  0.7347 -0.3152
 6818SOL     OW27037   5.506   5.733   0.756  0.6713  0.1381  0.1075
 6818SOL    HW227038   5.554   5.802   0.802  1.7367 -0.8281  0.4960
 6818SOL    HW327039   5.449   5.696   0.823  0.5423  0.2453  0.0564
 6818SOL    MW427040   5.505   5.737   0.771 -0.3241 -0.3461 -0.1877
 6819SOL     OW27041   0.664   0.506   6.283 -0.8182  0.2850  0.3453
 6819SOL    HW227042   0.737   0.445   6.279  0.3583  1.5803  1.2681
 6819SOL    HW327043   0.702   0.589   6.311 -2.3456  1.4980 -0.9067
 6819SOL    MW427044   0.678   0.509   6.286  0.3660 -0.2697 -0.2573
 6820SOL     OW27045   3.630   0.085   0.394  0.6881 -0.5535 -0.7065
 6820SOL    HW227046   3.621   0.153   0.327 -0.1172 -1.9683 -2.1205
 6820SOL    HW327047   3.724   0.078   0.409  0.7623  1.3317  0.0287
 6820SOL    MW427048   3.641   0.093   0.387  0.3480  0.2458  0.3512
 6821SOL     OW27049   0.927   4.272   3.095 -0.0778  0.6802  1.1146
 6821SOL    HW227050   0.881   4.330   3.155  0.9154  1.6892  0.9445
 6821SOL    HW327051   0.900   4.302   3.008  0.4776  0.9349  1.0259
 6821SOL    MW427052   0.918   4.284   3.091  0.0534 -0.0780  1.0177
 6822SOL     OW27053   3.969   5.348   3.322 -0.6800  0.0136 -0.3271
 6822SOL    HW227054   4.026   5.371   3.249 -1.1144 -2.4125 -1.5526
 6822SOL    HW327055   4.025   5.300   3.383 -0.8927 -0.3116 -0.3844
 6822SOL    MW427056   3.984   5.345   3.320 -0.4110 -0.1057 -0.4762
 6823SOL     OW27057   0.882   0.157   1.095 -0.1375  0.8431  0.3569
 6823SOL    HW227058   0.961   0.171   1.042 -0.8035  2.7369 -0.2414
 6823SOL    HW327059   0.895   0.212   1.172  0.1750 -0.7649  1.4962
 6823SOL    MW427060   0.894   0.166   1.098  0.0916 -0.2027 -0.2451
 6824SOL     OW27061   5.081   1.568   0.513  0.5936 -0.3379  0.0537
 6824SOL    HW227062   5.176   1.577   0.527  0.4852  0.4265  0.3781
 6824SOL    HW327063   5.049   1.526   0.593  0.9863 -3.0146 -1.1082
 6824SOL    MW427064   5.089   1.564   0.526 -0.1407 -0.5449  0.1038
 6825SOL     OW27065   3.001   1.535   4.157 -0.5621  0.3074 -0.8126
 6825SOL    HW227066   3.076   1.477   4.168  1.4288  2.8187 -0.3652
 6825SOL    HW327067   2.930   1.477   4.128  1.3597 -2.2489 -0.7177
 6825SOL    MW427068   3.001   1.520   4.154  0.2411 -0.1216  0.3874
 6826SOL     OW27069   4.772   3.594   5.399 -0.3137  0.7257  0.6389
 6826SOL    HW227070   4.831   3.566   5.469 -0.8714  0.9173  1.1923
 6826SOL    HW327071   4.725   3.514   5.374  0.9678  0.3185 -0.5978
 6826SOL    MW427072   4.773   3.580   5.405 -0.4661 -0.3663 -0.1821
 6827SOL     OW27073   0.517   3.599   4.390 -0.1091  0.0467  0.8536
 6827SOL    HW227074   0.504   3.644   4.473 -1.0614  1.0781  0.1650
 6827SOL    HW327075   0.500   3.665   4.323  1.2323 -0.6027 -0.1758
 6827SOL    MW427076   0.513   3.613   4.392 -0.0825  0.4734 -0.0380
 6828SOL     OW27077   2.143   4.896   4.743 -0.1568  0.1908 -0.6234
 6828SOL    HW227078   2.117   4.870   4.655 -1.1348  0.9836 -0.5843
 6828SOL    HW327079   2.149   4.814   4.792 -0.4103 -0.1822 -1.2124
 6828SOL    MW427080   2.140   4.882   4.738 -0.0665  0.1462  0.3655
 6829SOL     OW27081   3.176   1.272   3.680  0.4258 -0.2370  0.1421
 6829SOL    HW227082   3.135   1.188   3.701 -1.1119  1.0287  2.6882
 6829SOL    HW327083   3.219   1.298   3.761  1.2975  1.2306 -0.7603
 6829SOL    MW427084   3.177   1.264   3.693  0.1928  0.7390 -0.0081
 6830SOL     OW27085   4.902   3.382   3.840  0.1537  0.2003  0.3200
 6830SOL    HW227086   4.941   3.381   3.928 -0.1304  1.4303  0.4844
 6830SOL    HW327087   4.808   3.375   3.856  0.1026  0.4113  0.1163
 6830SOL    MW427088   4.895   3.381   3.854 -0.2451 -0.1035  0.0575
 6831SOL     OW27089   3.880   1.309   5.239 -0.0959  0.0950  0.2670
 6831SOL    HW227090   3.823   1.385   5.255  0.3863  0.7003 -0.7502
 6831SOL    HW327091   3.957   1.324   5.293 -0.3569 -0.0859  0.6894
 6831SOL    MW427092   3.882   1.321   5.248  0.5034  0.1855 -0.9579
 6832SOL     OW27093   3.106   3.291   6.021  0.0024  0.3144  0.0761
 6832SOL    HW227094   3.012   3.301   6.038 -0.0598 -0.8007  0.4986
 6832SOL    HW327095   3.133   3.219   6.079  0.6972 -0.7038 -1.4543
 6832SOL    MW427096   3.097   3.283   6.031  0.3226 -0.3624 -0.4040
 6833SOL     OW27097   1.223   3.889   1.579 -0.3105  0.2757  0.5893
 6833SOL    HW227098   1.128   3.888   1.587 -0.1995  0.1411  2.6466
 6833SOL    HW327099   1.252   3.819   1.638  1.0939  1.4391  1.3361
 6833SOL    MW427100   1.214   3.880   1.588  0.3927 -0.0677 -0.1513
 6834SOL     OW27101   2.277   3.193   2.546  0.2593 -0.4744 -0.5610
 6834SOL    HW227102   2.304   3.246   2.620 -0.3109  1.1554 -1.4673
 6834SOL    HW327103   2.353   3.138   2.526  1.5097  1.2341 -0.6712
 6834SOL    MW427104   2.290   3.192   2.553  0.4169  0.5057  0.0196
 6835SOL     OW27105   4.171   4.378   3.654  0.1541 -0.4601  0.1015
 6835SOL    HW227106   4.115   4.348   3.582  0.0940  1.1465 -0.5607
 6835SOL    HW327107   4.251   4.408   3.611  0.7540 -0.9229  0.8729
 6835SOL    MW427108   4.174   4.378   3.639  0.2163 -0.2080 -0.2215
 6836SOL     OW27109   1.668   3.971   4.522  0.3032 -0.3871 -0.0591
 6836SOL    HW227110   1.610   4.009   4.588  1.0163 -0.4051  0.5949
 6836SOL    HW327111   1.755   3.973   4.562  0.8262 -0.0391 -1.1433
 6836SOL    MW427112   1.672   3.977   4.536 -0.0136  0.5671 -0.2692
 6837SOL     OW27113   0.452   0.225   5.134  0.0899 -0.1905  0.9447
 6837SOL    HW227114   0.480   0.199   5.221  1.2138  1.3175  1.0690
 6837SOL    HW327115   0.484   0.314   5.124 -0.3364 -0.2023 -0.8782
 6837SOL    MW427116   0.460   0.233   5.144  0.0762  0.4443  0.4453
 6838SOL     OW27117   0.545   3.156   2.142 -0.5406  0.6847  0.1223
 6838SOL    HW227118   0.608   3.146   2.212  0.4135 -1.0795 -0.9152
 6838SOL    HW327119   0.501   3.239   2.160  0.4873  0.8403  2.1138
 6838SOL    MW427120   0.547   3.166   2.153 -0.0597 -1.1731  0.5186
 6839SOL     OW27121   0.699   4.715   3.325  0.0613 -0.1781  0.0328
 6839SOL    HW227122   0.644   4.679   3.394  0.2614 -0.5661 -0.0106
 6839SOL    HW327123   0.774   4.656   3.320  0.7455  0.6297  0.4536
 6839SOL    MW427124   0.702   4.703   3.334  0.7481  0.4068  0.3877
 6840SOL     OW27125   4.712   1.949   3.578  0.0353 -0.2807 -0.2787
 6840SOL    HW227126   4.658   1.871   3.573 -1.3320  0.6532 -0.6726
 6840SOL    HW327127   4.690   1.999   3.499 -0.3127  1.2367  0.7326
 6840SOL    MW427128   4.702   1.945   3.567  0.4237  0.1892 -0.5046
 6841SOL     OW27129   2.817   3.419   6.038 -0.1636 -0.2721 -0.4591
 6841SOL    HW227130   2.802   3.428   6.132 -0.6231  0.0183 -0.5544
 6841SOL    HW327131   2.834   3.509   6.008 -1.6277 -0.1191 -0.9119
 6841SOL    MW427132   2.818   3.432   6.046 -0.0158  0.2049  0.4051
 6842SOL     OW27133   1.938   2.016   2.226 -0.0889 -0.0947 -0.1443
 6842SOL    HW227134   1.886   1.952   2.176 -1.1202  1.1123 -0.6600
 6842SOL    HW327135   1.993   1.962   2.283 -0.4578 -1.4625 -1.0244
 6842SOL    MW427136   1.939   2.000   2.227 -0.2734  0.7780  0.0721
 6843SOL     OW27137   3.331   0.810   4.326 -0.3657  0.2949 -0.0850
 6843SOL    HW227138   3.296   0.749   4.261 -0.4580  0.4373 -0.1690
 6843SOL    HW327139   3.341   0.758   4.406  0.0692  0.0309 -0.3058
 6843SOL    MW427140   3.328   0.795   4.328 -0.2309 -0.0266  0.1554
 6844SOL     OW27141   4.174   4.282   4.231 -0.2190  0.4894  0.2440
 6844SOL    HW227142   4.224   4.207   4.199  0.4041  0.9896  0.0133
 6844SOL    HW327143   4.178   4.345   4.160 -0.8080  0.7116  0.4043
 6844SOL    MW427144   4.181   4.280   4.218 -0.1500 -0.9051  0.3308
 6845SOL     OW27145   5.626   5.765   4.657 -0.0330 -0.2391  0.3717
 6845SOL    HW227146   5.552   5.825   4.650  0.4308  0.5010  1.5221
 6845SOL    HW327147   5.645   5.761   4.751  2.1589  0.5798  0.0233
 6845SOL    MW427148   5.619   5.773   4.668 -0.5044 -0.3575  0.1439
 6846SOL     OW27149   1.338   3.684   1.786  0.1429 -0.1276  0.0095
 6846SOL    HW227150   1.432   3.698   1.779  0.1688 -0.7229 -1.0834
 6846SOL    HW327151   1.310   3.743   1.856  1.6328 -1.4800  1.8256
 6846SOL    MW427152   1.347   3.694   1.794  0.2116 -0.5876 -0.2273
 6847SOL     OW27153   6.404   5.063   6.380 -0.4293  0.4508  0.2722
 6847SOL    HW227154   6.370   5.138   6.429  0.0552  1.0758 -0.3313
 6847SOL    HW327155   6.498   5.079   6.374 -0.5150  0.5182 -1.0685
 6847SOL    MW427156   6.412   5.075   6.386  0.2173  0.1598 -0.2921
 6848SOL     OW27157   6.265   4.733   0.942  0.3152  1.1263  0.0571
 6848SOL    HW227158   6.343   4.754   0.890  1.3380  1.5436  1.6811
 6848SOL    HW327159   6.202   4.700   0.878  1.8504  0.6739 -1.3024
 6848SOL    MW427160   6.267   4.732   0.927  0.0658  0.1484  0.0560
 6849SOL     OW27161   2.394   4.085   2.255 -0.4108 -0.0894  0.3898
 6849SOL    HW227162   2.432   4.166   2.220 -1.6911  0.1537 -0.5457
 6849SOL    HW327163   2.317   4.114   2.303 -0.5226 -0.7131  0.5918
 6849SOL    MW427164   2.389   4.100   2.256 -0.4991 -0.1256 -0.6488
 6850SOL     OW27165   1.282   1.478   1.764  0.8190 -0.2661 -0.1313
 6850SOL    HW227166   1.332   1.430   1.698  0.6213  0.7624 -1.0723
 6850SOL    HW327167   1.338   1.478   1.841  0.5841 -2.4353  0.0786
 6850SOL    MW427168   1.296   1.472   1.765  0.6888 -0.1911 -0.4723
 6851SOL     OW27169   3.348   0.728   0.030 -0.2684 -0.2956  0.0470
 6851SOL    HW227170   3.260   0.765   0.015 -1.4783 -2.7776  0.5769
 6851SOL    HW327171   3.382   0.778   0.104 -1.4938  0.3256  0.2250
 6851SOL    MW427172   3.341   0.740   0.038 -0.0463  0.0716 -0.5386
 6852SOL     OW27173   0.825   3.083   0.299 -0.3114 -0.1460 -0.4955
 6852SOL    HW227174   0.801   2.990   0.302  1.2585 -0.5910 -0.9852
 6852SOL    HW327175   0.858   3.102   0.387  1.7056 -0.7444 -1.0810
 6852SOL    MW427176   0.826   3.073   0.311  0.7023 -0.1218 -0.1989
 6853SOL     OW27177   0.907   6.320   1.187  0.4053  0.1328 -0.1674
 6853SOL    HW227178   0.919   6.347   1.277 -1.1145 -0.1590  0.1575
 6853SOL    HW327179   0.890   6.401   1.139  0.9288  0.2595 -0.1380
 6853SOL    MW427180   0.906   6.334   1.192  0.4077  0.4253 -0.9487
 6854SOL     OW27181   4.959   3.013   0.745 -0.3959  0.1288  0.6449
 6854SOL    HW227182   4.873   3.018   0.704 -0.5633  0.7563  1.0588
 6854SOL    HW327183   5.019   3.049   0.680 -0.6857  1.2951  1.0055
 6854SOL    MW427184   4.955   3.018   0.731 -0.0306  0.2780 -0.0510
 6855SOL     OW27185   3.867   0.582   0.923 -0.1557 -0.5503 -0.1127
 6855SOL    HW227186   3.962   0.579   0.920 -0.1872 -0.9849 -1.0400
 6855SOL    HW327187   3.842   0.630   0.844 -0.7553 -2.0154 -0.8474
 6855SOL    MW427188   3.876   0.588   0.912  0.0845 -0.0878  0.0118
 6856SOL     OW27189   5.288   3.918   1.720  0.1078  0.0373 -0.0267
 6856SOL    HW227190   5.332   3.984   1.774  1.0715 -0.8982  0.3581
 6856SOL    HW327191   5.267   3.964   1.638 -0.3502  1.1503  0.6860
 6856SOL    MW427192   5.291   3.933   1.716 -0.4905  0.2719 -0.1708
 6857SOL     OW27193   1.352   5.550   1.018 -0.1662 -0.2473  0.3592
 6857SOL    HW227194   1.386   5.529   0.931 -0.2217  0.5754  0.1364
 6857SOL    HW327195   1.293   5.624   1.004 -0.8232 -0.6361  0.9801
 6857SOL    MW427196   1.349   5.557   1.005  0.4116 -0.8321 -0.0135
 6858SOL     OW27197   3.593   5.976   5.489  0.2047  0.3956 -0.1430
 6858SOL    HW227198   3.609   5.952   5.397  1.4394 -0.5502  0.2853
 6858SOL    HW327199   3.527   5.914   5.519 -0.5201  0.9783 -0.4855
 6858SOL    MW427200   3.586   5.965   5.481 -0.0026 -0.6554 -0.0723
 6859SOL     OW27201   1.117   3.507   1.209  1.3731  0.4075  0.2409
 6859SOL    HW227202   1.140   3.599   1.219 -1.7249  1.3183 -0.2137
 6859SOL    HW327203   1.077   3.483   1.292  0.2097  0.1251 -0.3840
 6859SOL    MW427204   1.115   3.516   1.221  0.0458 -0.3051  0.2973
 6860SOL     OW27205   4.525   1.390   4.039  0.0907  0.4079 -0.1498
 6860SOL    HW227206   4.512   1.308   3.992  0.7595  1.1019 -1.6192
 6860SOL    HW327207   4.475   1.454   3.990 -0.0813  0.9706  0.7357
 6860SOL    MW427208   4.517   1.388   4.026 -0.1519 -0.1146 -0.1467
 6861SOL     OW27209   3.738   3.870   3.885 -0.6355 -0.1548 -0.0179
 6861SOL    HW227210   3.682   3.836   3.815  0.6272 -1.8952 -0.2572
 6861SOL    HW327211   3.731   3.965   3.877 -1.2466 -0.3133 -1.9081
 6861SOL    MW427212   3.730   3.878   3.875  0.2126 -0.2666  0.7230
 6862SOL     OW27213   2.599   1.962   3.700  0.6927 -0.0528  0.2287
 6862SOL    HW227214   2.670   1.974   3.637 -0.4732 -1.5895 -1.4545
 6862SOL    HW327215   2.644   1.931   3.780  2.0186  0.1975 -0.3867
 6862SOL    MW427216   2.615   1.959   3.702 -0.1394  0.3168 -0.2683
 6863SOL     OW27217   3.437   1.608   5.273  0.6605  0.5678 -0.3776
 6863SOL    HW227218   3.438   1.541   5.204  0.4875  0.1398  0.0283
 6863SOL    HW327219   3.422   1.559   5.354  0.6816  1.0850 -0.0545
 6863SOL    MW427220   3.435   1.592   5.275 -0.0730  0.5861 -0.0578
 6864SOL     OW27221   1.384   3.933   1.004  0.2528 -0.2237  0.0901
 6864SOL    HW227222   1.373   3.977   0.920 -0.0550  1.6247  1.0359
 6864SOL    HW327223   1.296   3.933   1.042  0.6707  0.5018  1.1036
 6864SOL    MW427224   1.371   3.939   0.998 -0.4076  0.2717 -0.4729
 6865SOL     OW27225   1.849   1.195   3.205 -0.2245 -0.2288 -0.5244
 6865SOL    HW227226   1.907   1.189   3.130 -0.1935  0.7177 -0.5816
 6865SOL    HW327227   1.898   1.154   3.276 -0.4006 -1.4517 -1.0880
 6865SOL    MW427228   1.863   1.189   3.205  0.8596 -0.2927 -0.2152
 6866SOL     OW27229   2.277   5.602   1.419  0.0159  0.5085  0.3419
 6866SOL    HW227230   2.231   5.613   1.502 -0.5801  0.5188  0.0220
 6866SOL    HW327231   2.350   5.544   1.439 -0.0724  0.5819  0.8886
 6866SOL    MW427232   2.280   5.596   1.432 -0.4506  0.1751 -0.3172
 6867SOL     OW27233   2.163   0.968   2.996  0.9343 -0.5244 -0.7984
 6867SOL    HW227234   2.200   0.987   3.082 -0.2866 -0.5259 -0.2422
 6867SOL    HW327235   2.098   0.900   3.012 -1.9286  1.9376 -1.0252
 6867SOL    MW427236   2.159   0.962   3.010 -0.0356  0.8068 -0.4424
 6868SOL     OW27237   2.643   6.291   0.667  0.2200 -0.4653 -0.2384
 6868SOL    HW227238   2.624   6.308   0.759  1.0351 -1.9603  0.2400
 6868SOL    HW327239   2.728   6.247   0.668  0.0750 -0.8358 -1.6866
 6868SOL    MW427240   2.652   6.287   0.679  0.4667  0.2216  0.0853
 6869SOL     OW27241   4.706   3.078   0.686  0.0135 -0.0944  0.2404
 6869SOL    HW227242   4.721   3.149   0.748 -0.8619  0.2438  0.0744
 6869SOL    HW327243   4.744   3.109   0.604 -0.7079  0.3494  0.0701
 6869SOL    MW427244   4.713   3.091   0.684  0.6220  0.1723 -0.5845
 6870SOL     OW27245   0.809   5.074   1.445 -0.0956 -0.3016 -0.1024
 6870SOL    HW227246   0.798   4.979   1.445  0.5381 -0.4306 -1.9278
 6870SOL    HW327247   0.751   5.104   1.375 -1.5735  0.8815  1.5538
 6870SOL    MW427248   0.800   5.065   1.436 -0.1883  0.0336  0.8565
 6871SOL     OW27249   6.285   2.388   5.842  0.3629 -0.2081 -0.4020
 6871SOL    HW227250   6.283   2.399   5.747  2.8658 -1.2754 -0.6351
 6871SOL    HW327251   6.309   2.297   5.855  0.5537  0.0583  1.2595
 6871SOL    MW427252   6.288   2.378   5.831 -0.4274  0.0708  0.0682
 6872SOL     OW27253   1.310   5.932   2.964 -0.2402  0.7492  0.2198
 6872SOL    HW227254   1.366   5.873   2.915 -0.6120  0.9844 -0.5000
 6872SOL    HW327255   1.243   5.875   3.003  0.0711  0.5590  0.4784
 6872SOL    MW427256   1.308   5.917   2.963  0.4699 -0.2296 -0.2322
 6873SOL     OW27257   4.736   1.116   5.003  0.1249 -0.4560 -0.6498
 6873SOL    HW227258   4.767   1.163   4.926 -0.4942 -1.5576 -1.5890
 6873SOL    HW327259   4.808   1.058   5.026  0.1650 -0.3876 -0.6001
 6873SOL    MW427260   4.750   1.115   4.996  0.1705 -0.3168 -0.1027
 6874SOL     OW27261   5.982   0.540   3.557 -0.1908  0.0106 -0.1517
 6874SOL    HW227262   5.892   0.543   3.590 -0.3833  0.3309 -0.6999
 6874SOL    HW327263   5.978   0.581   3.471 -0.0233 -2.2413 -1.3138
 6874SOL    MW427264   5.970   0.546   3.550  0.2154  0.1800  0.1174
 6875SOL     OW27265   4.936   3.502   0.111 -0.2792 -0.0873 -0.7668
 6875SOL    HW227266   4.913   3.566   0.044 -0.9151 -0.3054 -0.7561
 6875SOL    HW327267   4.987   3.436   0.065 -2.4732 -1.3423 -1.5027
 6875SOL    MW427268   4.940   3.502   0.096 -0.0849 -0.6233 -0.2590
 6876SOL     OW27269   5.579   5.064   6.363 -0.1458  0.1407 -0.9225
 6876SOL    HW227270   5.582   5.050   6.269  1.4328 -2.2632 -0.6260
 6876SOL    HW327271   5.643   5.134   6.379 -0.4150  0.5551 -1.6279
 6876SOL    MW427272   5.588   5.071   6.353  0.3511 -0.4905  0.2639
 6877SOL     OW27273   0.063   3.225   0.604  0.0516 -0.7709  0.2670
 6877SOL    HW227274   0.095   3.153   0.549  0.0510  0.4326 -1.3746
 6877SOL    HW327275   0.039   3.183   0.686  0.8101 -2.5245 -0.3526
 6877SOL    MW427276   0.064   3.210   0.607  0.0364  0.3992 -0.0324
 6878SOL     OW27277   4.046   5.250   5.302  0.2210  0.3437 -0.7795
 6878SOL    HW227278   4.122   5.308   5.304 -0.5240  1.3355 -0.6913
 6878SOL    HW327279   4.070   5.178   5.360  0.5803  1.2848  0.2698
 6878SOL    MW427280   4.060   5.248   5.310 -0.2156  0.1922  0.3126
 6879SOL     OW27281   2.597   1.104   0.093 -0.1772  0.0849  0.2291
 6879SOL    HW227282   2.544   1.134   0.166  0.7097  1.2171  0.4376
 6879SOL    HW327283   2.686   1.133   0.114  0.0684  0.5981 -1.3725
 6879SOL    MW427284   2.602   1.112   0.105  0.0668 -0.2756 -0.4385
 6880SOL     OW27285   1.964   3.320   3.341 -0.6585  0.1322  0.2318
 6880SOL    HW227286   1.920   3.391   3.294  1.0567  1.2330  0.1721
 6880SOL    HW327287   1.963   3.246   3.280  0.4926  1.1734 -1.1282
 6880SOL    MW427288   1.958   3.320   3.327 -0.3417 -0.0798 -0.1161
 6881SOL     OW27289   5.371   3.804   2.925  0.5340  0.7867  0.7660
 6881SOL    HW227290   5.300   3.811   2.989  1.9334  0.1043  2.4721
 6881SOL    HW327291   5.396   3.712   2.927  1.7460  1.0902  0.5462
 6881SOL    MW427292   5.365   3.793   2.934  0.1324  0.1081 -0.6363
 6882SOL     OW27293   3.918   4.559   3.718 -0.1066 -0.0951  0.3586
 6882SOL    HW227294   3.961   4.633   3.674 -0.5837 -0.0451 -0.0252
 6882SOL    HW327295   3.983   4.488   3.714  0.1183  0.1182  0.1852
 6882SOL    MW427296   3.933   4.559   3.711  0.6805  0.7244 -0.1131
 6883SOL     OW27297   1.469   3.213   3.652  0.0357 -0.2555  0.2168
 6883SOL    HW227298   1.480   3.130   3.607 -0.1876 -1.0271  1.5116
 6883SOL    HW327299   1.409   3.193   3.724  0.0959  0.9908  0.6432
 6883SOL    MW427300   1.462   3.200   3.656 -0.1000 -0.3078  0.0636
 6884SOL     OW27301   5.148   6.098   0.369 -0.4893 -0.3073  0.1559
 6884SOL    HW227302   5.056   6.080   0.352 -0.8639  2.4743 -1.4126
 6884SOL    HW327303   5.182   6.018   0.409 -2.7069 -2.7551 -2.4630
 6884SOL    MW427304   5.141   6.085   0.372 -0.2663 -0.4569  0.0166
 6885SOL     OW27305   4.514   0.355   5.397  0.0227 -0.0823 -0.0083
 6885SOL    HW227306   4.489   0.277   5.446  0.6208  1.5890  3.1999
 6885SOL    HW327307   4.555   0.321   5.317  1.6805 -3.1250  1.9397
 6885SOL    MW427308   4.516   0.340   5.393  0.5809  0.2704 -0.0703
 6886SOL     OW27309   1.600   6.127   1.376  0.1894 -0.3377 -0.4397
 6886SOL    HW227310   1.620   6.039   1.406 -0.6289 -0.1617  0.6827
 6886SOL    HW327311   1.681   6.176   1.386  0.2647 -0.6108  0.2852
 6886SOL    MW427312   1.613   6.122   1.381 -0.3845  0.2361 -0.4996
 6887SOL     OW27313   0.223   2.510   4.631  0.3498 -0.3951  0.2212
 6887SOL    HW227314   0.239   2.497   4.538 -0.4302  0.4333 -0.0376
 6887SOL    HW327315   0.223   2.605   4.642 -1.8942 -0.3935  0.6256
 6887SOL    MW427316   0.225   2.521   4.620  0.7725  0.3118 -0.3097
 6888SOL     OW27317   4.780   5.856   5.267  0.2883 -0.1452  0.9481
 6888SOL    HW227318   4.765   5.943   5.304 -3.6271 -0.5256  0.6718
 6888SOL    HW327319   4.709   5.844   5.203  0.9198 -3.3797  0.6590
 6888SOL    MW427320   4.769   5.866   5.263 -0.2094 -0.4254 -0.4708
 6889SOL     OW27321   1.970   1.364   6.017 -0.0281  0.4830 -0.3015
 6889SOL    HW227322   1.976   1.293   6.081  0.7929 -1.9532 -2.8551
 6889SOL    HW327323   1.881   1.356   5.981  0.1931  0.5057 -0.8590
 6889SOL    MW427324   1.959   1.353   6.021 -0.4148 -0.8601 -0.5570
 6890SOL     OW27325   2.290   3.632   0.617 -0.3287 -0.0555  0.1719
 6890SOL    HW227326   2.369   3.684   0.631 -1.1790  1.1062  0.8209
 6890SOL    HW327327   2.283   3.577   0.695 -0.9479  0.9233  0.8273
 6890SOL    MW427328   2.299   3.632   0.629 -0.2772 -0.0855  0.0644
 6891SOL     OW27329   4.693   6.095   4.122 -0.3392  0.3919 -0.1385
 6891SOL    HW227330   4.754   6.074   4.192  0.0422  0.6299 -0.3949
 6891SOL    HW327331   4.687   6.014   4.070 -2.1696 -0.4559  1.2801
 6891SOL    MW427332   4.700   6.081   4.124  0.4662  0.9478 -0.3202
 6892SOL     OW27333   1.849   4.866   1.099 -0.0592 -0.4366  0.4809
 6892SOL    HW227334   1.786   4.903   1.038  0.8795  0.3018 -0.0761
 6892SOL    HW327335   1.865   4.778   1.066 -0.7099 -0.5892  0.5622
 6892SOL    MW427336   1.843   4.860   1.087  0.1311 -0.1161 -0.0195
 6893SOL     OW27337   0.934   3.409   0.353  0.3571  0.2015  0.0942
 6893SOL    HW227338   1.009   3.354   0.375  0.1538 -0.5778 -1.1066
 6893SOL    HW327339   0.871   3.393   0.424  0.7352 -0.2639  0.3324
 6893SOL    MW427340   0.935   3.400   0.366 -0.4726 -0.3803  0.5261
 6894SOL     OW27341   4.868   5.461   4.737  0.6573  0.3236  0.2354
 6894SOL    HW227342   4.775   5.443   4.750  0.6961 -1.0293 -1.0910
 6894SOL    HW327343   4.889   5.525   4.805 -1.0953  0.2354  0.9331
 6894SOL    MW427344   4.858   5.467   4.748 -0.5588  0.0573  0.2501
 6895SOL     OW27345   4.243   4.299   1.791  0.2877  0.3996  0.5377
 6895SOL    HW227346   4.291   4.250   1.724 -1.4012  0.2413 -0.6103
 6895SOL    HW327347   4.215   4.379   1.747 -3.0265 -0.8209  0.1667
 6895SOL    MW427348   4.246   4.303   1.776  0.2456  0.1081 -0.2695
 6896SOL     OW27349   1.223   0.369   3.293 -0.0587 -0.1178  0.0776
 6896SOL    HW227350   1.253   0.453   3.328  0.3040 -0.5859  0.8969
 6896SOL    HW327351   1.249   0.372   3.201  1.1948  0.1043  0.4234
 6896SOL    MW427352   1.230   0.380   3.285 -0.1669  0.2026 -0.1853
 6897SOL     OW27353   2.218   1.071   2.634 -1.1466 -0.8019  0.8897
 6897SOL    HW227354   2.278   1.050   2.707 -0.0677 -0.1763  0.2107
 6897SOL    HW327355   2.220   0.993   2.579  1.0534  0.1056 -0.4318
 6897SOL    MW427356   2.226   1.058   2.637  0.0221  0.2842 -0.3585
 6898SOL     OW27357   2.751   3.868   5.318 -0.0854  0.4145 -0.0719
 6898SOL    HW227358   2.769   3.961   5.329 -0.8138  0.7230 -1.2146
 6898SOL    HW327359   2.766   3.829   5.404 -1.5649  1.8902  0.9113
 6898SOL    MW427360   2.755   3.875   5.330 -0.3362  0.1667 -0.0161
 6899SOL     OW27361   5.204   2.417   2.833 -0.4411 -0.0789 -0.3436
 6899SOL    HW227362   5.259   2.363   2.776  1.1021  1.1888 -0.1293
 6899SOL    HW327363   5.199   2.501   2.787 -0.9729  0.2809  0.3688
 6899SOL    MW427364   5.211   2.421   2.819 -0.0500 -0.6829  0.0235
 6900SOL     OW27365   3.332   1.922   5.239 -0.3617 -0.2837  0.1779
 6900SOL    HW227366   3.268   1.890   5.302 -0.3526  0.4107  0.5444
 6900SOL    HW327367   3.317   2.017   5.235  1.8929  0.1939  1.6854
 6900SOL    MW427368   3.321   1.931   5.247  0.6441  0.4131  0.1102
 6901SOL     OW27369   2.025   1.986   3.147  0.1331 -0.1165 -0.0525
 6901SOL    HW227370   1.966   2.061   3.140 -1.5667 -1.4322 -0.1973
 6901SOL    HW327371   2.049   1.965   3.057 -0.3749 -0.4961 -0.1024
 6901SOL    MW427372   2.021   1.993   3.135 -0.5113 -0.1529 -0.3492
 6902SOL     OW27373   2.504   0.611   3.480 -0.8658  0.0582 -0.3300
 6902SOL    HW227374   2.566   0.575   3.417 -0.6469  0.2948 -0.2498
 6902SOL    HW327375   2.558   0.644   3.551 -0.8532  2.8319 -1.5110
 6902SOL    MW427376   2.519   0.611   3.481  0.0480 -0.3568  0.2993
 6903SOL     OW27377   5.390   1.130   5.399 -0.4221  0.6372 -0.3598
 6903SOL    HW227378   5.341   1.123   5.317  0.5905  2.4434 -1.1640
 6903SOL    HW327379   5.421   1.220   5.402  1.8602 -0.0954  0.6993
 6903SOL    MW427380   5.388   1.141   5.389  0.4440  0.3142 -0.5331
 6904SOL     OW27381   2.988   5.093   3.012  0.3285  0.3748 -0.0939
 6904SOL    HW227382   2.998   5.027   2.943 -0.4021 -0.2880  0.4081
 6904SOL    HW327383   3.078   5.116   3.037  0.5931  0.1035 -0.7694
 6904SOL    MW427384   3.001   5.087   3.006 -0.0304 -0.0521 -0.0186
 6905SOL     OW27385   5.347   4.038   5.056 -0.1605 -0.2526 -0.4087
 6905SOL    HW227386   5.340   3.966   5.119 -1.4682 -1.2328 -1.6125
 6905SOL    HW327387   5.257   4.070   5.047  0.1786  0.5629 -1.0185
 6905SOL    MW427388   5.334   4.033   5.063  0.5549 -0.6856 -0.1189
 6906SOL     OW27389   1.134   4.344   5.307 -0.2715 -0.1883 -0.6460
 6906SOL    HW227390   1.055   4.391   5.333 -0.8967 -0.4232 -2.0446
 6906SOL    HW327391   1.132   4.263   5.358 -1.2375 -0.4473 -1.0690
 6906SOL    MW427392   1.124   4.340   5.317 -0.5072 -0.3922 -0.6461
 6907SOL     OW27393   0.978   0.893   3.038  0.2857 -0.2229 -0.1565
 6907SOL    HW227394   0.959   0.843   3.118 -1.1292  1.8642  0.9236
 6907SOL    HW327395   0.968   0.830   2.967 -0.3805 -1.7153  1.2021
 6907SOL    MW427396   0.974   0.878   3.039 -0.7813  0.3773  0.2340
 6908SOL     OW27397   4.105   3.797   2.724 -0.4087 -0.1171  0.2065
 6908SOL    HW227398   4.172   3.851   2.683  0.4033 -0.1214  1.4816
 6908SOL    HW327399   4.027   3.852   2.726  0.5819  1.3372  2.1150
 6908SOL    MW427400   4.103   3.811   2.719  0.4329  0.3114 -0.5751
 6909SOL     OW27401   4.434   5.706   1.048 -0.2035  0.3942 -0.2073
 6909SOL    HW227402   4.419   5.734   1.139  0.6750 -0.7937  0.3354
 6909SOL    HW327403   4.526   5.679   1.047 -0.5378 -0.7762 -1.1236
 6909SOL    MW427404   4.444   5.706   1.060 -0.5002 -0.0057 -0.8449
 6910SOL     OW27405   1.359   5.770   3.979  0.1861  0.3280 -0.1267
 6910SOL    HW227406   1.283   5.790   4.034 -0.1575  0.6468 -0.7057
 6910SOL    HW327407   1.406   5.853   3.974  0.1486  0.3326 -0.4131
 6910SOL    MW427408   1.355   5.784   3.986  0.4967 -0.5223  0.2888
 6911SOL     OW27409   0.794   0.327   3.747 -0.2278 -0.4789  0.1035
 6911SOL    HW227410   0.818   0.236   3.762 -0.6970 -0.6938 -0.4292
 6911SOL    HW327411   0.742   0.352   3.824  0.4165 -0.4661  0.5437
 6911SOL    MW427412   0.790   0.318   3.759 -0.2662  0.3466 -0.2741
 6912SOL     OW27413   3.008   4.104   2.631  0.2011 -0.3367 -0.0072
 6912SOL    HW227414   2.980   4.195   2.639  1.6333  0.5212 -3.2342
 6912SOL    HW327415   2.931   4.058   2.597 -0.3928 -0.3091  1.2301
 6912SOL    MW427416   2.994   4.110   2.628 -0.4087  0.1446 -0.5864
 6913SOL     OW27417   6.086   0.924   4.385  0.1932  0.0890 -0.7784
 6913SOL    HW227418   6.090   0.832   4.360  0.3216 -0.3382  0.7383
 6913SOL    HW327419   6.170   0.941   4.428 -1.0028  0.0219  1.7673
 6913SOL    MW427420   6.098   0.914   4.387 -0.2227  0.1219  0.2650
 6914SOL     OW27421   1.117   5.708   1.181 -1.0249  0.2258  0.1851
 6914SOL    HW227422   1.140   5.780   1.240 -0.2293  1.3429 -1.4137
 6914SOL    HW327423   1.111   5.631   1.238 -1.2364  1.4146  1.8477
 6914SOL    MW427424   1.119   5.708   1.197 -1.0049  0.6277  0.1933
 6915SOL     OW27425   0.861   6.445   1.945 -0.3700 -0.0186 -0.3811
 6915SOL    HW227426   0.770   6.442   1.916 -0.3547 -1.4322 -0.3606
 6915SOL    HW327427   0.886   6.537   1.937 -2.1991  0.6383  0.9030
 6915SOL    MW427428   0.853   6.457   1.940 -0.0940  0.0320  0.5803
 6916SOL     OW27429   1.491   4.234   3.487 -0.2232  0.4079 -0.3035
 6916SOL    HW227430   1.554   4.283   3.541  0.7469 -0.1806 -0.8655
 6916SOL    HW327431   1.507   4.264   3.398 -0.3316 -0.1654 -0.5222
 6916SOL    MW427432   1.502   4.244   3.483  0.5534 -0.0080 -0.4673
 6917SOL     OW27433   3.972   5.460   1.653 -0.9253 -0.0540  0.3627
 6917SOL    HW227434   3.889   5.445   1.699  0.6896 -2.1901  2.8749
 6917SOL    HW327435   4.032   5.491   1.720  0.0197  3.1032 -1.7301
 6917SOL    MW427436   3.969   5.462   1.668 -0.1195 -0.2756 -0.3658
 6918SOL     OW27437   3.197   4.191   1.626  0.0809 -0.8425 -0.3988
 6918SOL    HW227438   3.158   4.104   1.614  0.7848 -1.2059 -0.1337
 6918SOL    HW327439   3.146   4.248   1.569  0.0290 -1.5565 -1.1002
 6918SOL    MW427440   3.185   4.187   1.617  0.4073  0.2177  0.4420
 6919SOL     OW27441   5.976   5.648   6.210 -0.0257  0.2541  0.3654
 6919SOL    HW227442   5.921   5.574   6.236  1.0882 -0.7539 -0.0439
 6919SOL    HW327443   5.931   5.725   6.243  0.3544 -0.7903  3.6227
 6919SOL    MW427444   5.963   5.649   6.217  0.1234  0.3413 -0.2060
 6920SOL     OW27445   5.546   1.948   5.707 -0.4218  0.4491  0.2120
 6920SOL    HW227446   5.541   1.868   5.758  1.2347  0.9390  1.2198
 6920SOL    HW327447   5.557   2.017   5.772 -0.1000  1.3033 -0.7250
 6920SOL    MW427448   5.547   1.947   5.722 -0.2558  0.0063 -0.0905
 6921SOL     OW27449   5.125   5.998   1.494  0.1251  0.2606 -0.0970
 6921SOL    HW227450   5.165   5.917   1.462 -2.0850 -1.0203  0.1756
 6921SOL    HW327451   5.041   6.003   1.448  0.2757  2.5172 -0.2208
 6921SOL    MW427452   5.119   5.988   1.484 -0.1858 -0.3820  0.0379
 6922SOL     OW27453   0.720   2.044   2.080  0.7586 -0.6141 -0.2753
 6922SOL    HW227454   0.688   2.030   1.991  0.1051  2.4698 -0.6393
 6922SOL    HW327455   0.661   2.110   2.117  1.1700 -1.5828  2.3895
 6922SOL    MW427456   0.708   2.051   2.073 -0.3317  0.1484  0.4221
 6923SOL     OW27457   3.895   5.801   5.029 -0.0280 -0.0071  0.3359
 6923SOL    HW227458   3.841   5.838   5.099  1.2646  0.3437  1.1746
 6923SOL    HW327459   3.927   5.718   5.065 -0.9441 -0.8076 -0.6135
 6923SOL    MW427460   3.892   5.795   5.043  0.0764 -0.0225  0.5113
 6924SOL     OW27461   0.599   5.587   5.487  0.4667  0.3640 -0.8515
 6924SOL    HW227462   0.524   5.528   5.486  0.6511  0.1286 -0.7562
 6924SOL    HW327463   0.563   5.671   5.459  0.3271  0.0666 -1.6081
 6924SOL    MW427464   0.585   5.590   5.483 -0.6906  0.0958 -0.4143
 6925SOL     OW27465   4.478   0.124   2.761 -0.3205  0.7324 -0.8511
 6925SOL    HW227466   4.502   0.111   2.853 -0.9211  0.1336 -0.7731
 6925SOL    HW327467   4.383   0.114   2.760 -0.1592 -0.9868 -1.8196
 6925SOL    MW427468   4.469   0.121   2.773  1.3045 -0.2652 -0.4411
 6926SOL     OW27469   4.528   4.072   3.633  0.0971 -0.1652 -0.3414
 6926SOL    HW227470   4.468   4.051   3.562  0.0942 -3.5703  0.4972
 6926SOL    HW327471   4.476   4.062   3.713  1.3108 -1.6019  0.3221
 6926SOL    MW427472   4.513   4.068   3.634  0.4094  0.8857 -0.2107
 6927SOL     OW27473   4.478   2.345   4.554 -0.3104  0.2255 -0.4793
 6927SOL    HW227474   4.529   2.422   4.531 -1.7867  1.4023  0.0765
 6927SOL    HW327475   4.464   2.351   4.648 -0.1726 -0.9181 -0.3600
 6927SOL    MW427476   4.483   2.356   4.563 -0.3632 -0.2835 -0.1832
 6928SOL     OW27477   4.382   5.749   3.473  0.2667 -0.0747 -0.1388
 6928SOL    HW227478   4.454   5.811   3.469  0.7517 -0.5240  1.2492
 6928SOL    HW327479   4.306   5.802   3.499 -0.1199  0.5252 -2.2514
 6928SOL    MW427480   4.381   5.764   3.476  0.0016 -0.2151  0.0977
 6929SOL     OW27481   2.528   5.377   6.308 -0.1921  0.1122 -0.1501
 6929SOL    HW227482   2.454   5.395   6.250 -0.3481 -1.1909 -0.3669
 6929SOL    HW327483   2.604   5.373   6.249 -0.0845  0.4614 -0.0429
 6929SOL    MW427484   2.528   5.379   6.292 -0.2248 -0.5265 -0.0229
 6930SOL     OW27485   4.499   3.865   4.813 -0.3182  0.2430 -0.0929
 6930SOL    HW227486   4.536   3.841   4.728 -1.5842  0.1586 -0.6446
 6930SOL    HW327487   4.407   3.886   4.794 -1.0163 -1.1462  1.4658
 6930SOL    MW427488   4.492   3.865   4.799 -0.1034 -0.4982 -0.0201
 6931SOL     OW27489   1.939   3.921   0.117  0.0422  0.2209 -0.3970
 6931SOL    HW227490   1.886   3.970   0.181  0.1196  0.0393 -0.1926
 6931SOL    HW327491   1.952   3.836   0.158  1.4016  0.6182  0.0315
 6931SOL    MW427492   1.934   3.916   0.131  0.3479 -0.3528  0.3495
 6932SOL     OW27493   5.018   1.117   3.626 -0.5658 -0.1804 -0.1662
 6932SOL    HW227494   5.016   1.139   3.533  1.8979  1.7792  0.1404
 6932SOL    HW327495   5.088   1.052   3.634  0.4532  0.9389  0.4635
 6932SOL    MW427496   5.027   1.111   3.615  0.1319  0.4700 -0.7815
 6933SOL     OW27497   1.529   5.060   5.212 -0.5028  0.2456 -0.3945
 6933SOL    HW227498   1.450   5.049   5.159  0.1204 -1.1490 -1.0575
 6933SOL    HW327499   1.571   5.138   5.175 -0.6285 -0.0785 -1.2435
 6933SOL    MW427500   1.524   5.069   5.200 -0.2967 -0.1120  0.2402
 6934SOL     OW27501   1.567   1.845   3.856 -0.0585 -0.1418 -0.1321
 6934SOL    HW227502   1.474   1.835   3.838 -0.4593  0.4890  1.4147
 6934SOL    HW327503   1.610   1.835   3.771 -1.4106 -1.8534 -0.6728
 6934SOL    MW427504   1.561   1.842   3.843 -0.5046  0.4280  0.0784
 6935SOL     OW27505   5.991   6.128   5.427  0.2478  0.5435 -0.4205
 6935SOL    HW227506   6.005   6.165   5.339  0.2263  0.1209 -0.6048
 6935SOL    HW327507   5.909   6.168   5.456 -0.0637  0.2321 -0.8448
 6935SOL    MW427508   5.982   6.138   5.419  0.2877  0.2112  0.1172
 6936SOL     OW27509   2.574   5.096   1.854 -0.3240 -0.6953  0.3821
 6936SOL    HW227510   2.515   5.097   1.779 -1.3902 -0.8095  1.1939
 6936SOL    HW327511   2.520   5.124   1.927  0.4473 -1.4794  1.2802
 6936SOL    MW427512   2.559   5.100   1.854  0.1990  0.3401  0.3818
 6937SOL     OW27513   2.632   6.165   2.607  0.0302  0.1613 -0.2020
 6937SOL    HW227514   2.620   6.257   2.632  1.8712 -0.2339  2.6600
 6937SOL    HW327515   2.676   6.168   2.522 -0.0767  1.9277 -0.2287
 6937SOL    MW427516   2.636   6.178   2.599 -0.4044  0.3839  0.3904
 6938SOL     OW27517   5.339   1.345   2.143 -0.0751 -0.1092 -0.7522
 6938SOL    HW227518   5.419   1.306   2.108 -0.6551 -0.9126 -1.2341
 6938SOL    HW327519   5.298   1.387   2.068  0.8017  1.9605 -0.1325
 6938SOL    MW427520   5.344   1.345   2.128 -0.2833 -0.1885  0.1469
 6939SOL     OW27521   4.017   0.476   2.596  0.1878 -0.9178 -0.1098
 6939SOL    HW227522   4.104   0.437   2.594  1.0743  0.7717 -3.8910
 6939SOL    HW327523   4.031   0.565   2.629 -0.4731 -1.1899  0.9717
 6939SOL    MW427524   4.030   0.483   2.600 -0.4685 -0.6207  0.2588
 6940SOL     OW27525   2.708   0.360   4.113 -0.1009 -0.0907 -0.1278
 6940SOL    HW227526   2.620   0.328   4.095 -0.1068 -0.1940  0.0777
 6940SOL    HW327527   2.708   0.379   4.207 -0.1392  0.6461 -0.2735
 6940SOL    MW427528   2.696   0.358   4.123 -0.7232 -0.5683 -0.2721
 6941SOL     OW27529   6.247   4.800   5.829 -0.1063 -0.5659  0.3557
 6941SOL    HW227530   6.273   4.788   5.738  1.6323 -0.8156  0.8446
 6941SOL    HW327531   6.222   4.892   5.835  0.5919 -0.3325 -0.1941
 6941SOL    MW427532   6.247   4.810   5.818  0.0582  0.1431 -0.1538
 6942SOL     OW27533   5.314   6.382   2.722  0.0216  0.0466 -0.0497
 6942SOL    HW227534   5.331   6.372   2.816  1.0280 -2.0786 -0.3919
 6942SOL    HW327535   5.324   6.476   2.706 -2.2113  0.8015  2.2811
 6942SOL    MW427536   5.318   6.393   2.732 -1.0126  0.3170  0.3661
 6943SOL     OW27537   1.908   0.548   2.886 -0.5963 -0.4347  0.4357
 6943SOL    HW227538   1.945   0.542   2.974 -1.4311 -0.0462  0.8235
 6943SOL    HW327539   1.974   0.597   2.836  0.3475 -1.5305  0.5608
 6943SOL    MW427540   1.922   0.554   2.891  0.1732 -0.2182  0.2266
 6944SOL     OW27541   6.335   3.363   6.267  0.2772 -0.1441 -0.6706
 6944SOL    HW227542   6.290   3.372   6.183 -2.0757  1.0309  0.6211
 6944SOL    HW327543   6.393   3.439   6.272  0.6918 -0.4073 -1.3563
 6944SOL    MW427544   6.336   3.374   6.256  0.0896  0.2633 -0.2864
 6945SOL     OW27545   1.868   4.528   3.632  0.3521  0.5219 -0.1451
 6945SOL    HW227546   1.813   4.598   3.668 -1.0826 -0.5278 -0.2217
 6945SOL    HW327547   1.858   4.536   3.537 -2.9626 -2.0753 -0.1748
 6945SOL    MW427548   1.860   4.538   3.624  0.3103 -0.3544  0.1049
 6946SOL     OW27549   2.228   6.197   1.401 -0.2932 -0.3882 -0.3137
 6946SOL    HW227550   2.171   6.248   1.343 -1.1484 -1.3196 -0.3220
 6946SOL    HW327551   2.191   6.109   1.400 -1.2455 -0.1445  2.7736
 6946SOL    MW427552   2.216   6.192   1.393  0.4820  0.4199  0.5550
 6947SOL     OW27553   2.034   6.332   5.323 -0.0217 -0.3140 -0.4976
 6947SOL    HW227554   1.987   6.279   5.388 -0.2078 -0.0640 -0.4233
 6947SOL    HW327555   2.079   6.398   5.375 -0.8565  0.4102 -0.6740
 6947SOL    MW427556   2.033   6.333   5.338  0.2862 -0.1235  0.1339
 6948SOL     OW27557   1.083   4.597   4.475 -0.1590 -0.7913 -0.0916
 6948SOL    HW227558   1.166   4.644   4.465 -0.7374 -0.0108 -1.4794
 6948SOL    HW327559   1.041   4.637   4.552  0.1128 -0.1944 -0.2479
 6948SOL    MW427560   1.088   4.609   4.484  0.6151 -0.6777 -0.2885
 6949SOL     OW27561   4.272   0.114   3.484  0.0360 -0.3066  0.0905
 6949SOL    HW227562   4.317   0.182   3.433  3.1902 -1.5438  1.0087
 6949SOL    HW327563   4.212   0.073   3.421  0.1730  1.3930 -1.2324
 6949SOL    MW427564   4.270   0.118   3.469  0.2102  0.1189  0.1715
 6950SOL     OW27565   4.675   2.659   5.227 -0.2760  0.3795  0.1034
 6950SOL    HW227566   4.724   2.578   5.229  0.9604  1.1146  0.4040
 6950SOL    HW327567   4.597   2.639   5.174 -1.1649 -1.6026  2.0200
 6950SOL    MW427568   4.671   2.646   5.220 -0.5917  0.0429  0.1815
 6951SOL     OW27569   5.391   3.879   1.241 -0.0286  0.4857 -0.2879
 6951SOL    HW227570   5.483   3.858   1.256 -0.0099  0.1013 -0.9217
 6951SOL    HW327571   5.376   3.859   1.149 -1.3031 -1.6035  0.3039
 6951SOL    MW427572   5.401   3.874   1.231  0.0174 -0.6975 -0.3174
 6952SOL     OW27573   5.273   4.366   5.577 -0.1339  0.2859  0.0315
 6952SOL    HW227574   5.288   4.410   5.494  0.2583  1.7567  0.8485
 6952SOL    HW327575   5.190   4.402   5.608 -0.2851 -0.2648  0.2799
 6952SOL    MW427576   5.264   4.376   5.570  0.5430  0.2561  0.1889
 6953SOL     OW27577   6.078   4.643   4.776  0.1455 -0.3540 -0.0003
 6953SOL    HW227578   6.004   4.703   4.788  1.6271  1.7044 -0.5845
 6953SOL    HW327579   6.083   4.629   4.682  0.8124 -0.0383 -0.0166
 6953SOL    MW427580   6.069   4.649   4.765 -0.2095 -0.4530 -0.1836
 6954SOL     OW27581   1.419   1.428   0.920  0.2998 -0.4105 -0.3283
 6954SOL    HW227582   1.464   1.511   0.904 -0.9639  0.2357 -0.6550
 6954SOL    HW327583   1.348   1.427   0.856 -0.2346 -1.3280  0.2724
 6954SOL    MW427584   1.416   1.439   0.910  0.5494  0.0243  0.0978
 6955SOL     OW27585   3.045   5.005   1.231  0.4888  0.2879 -0.6020
 6955SOL    HW227586   3.081   4.984   1.317  0.2648  1.8395 -0.1049
 6955SOL    HW327587   3.004   4.923   1.202  1.0964 -0.4277  0.4765
 6955SOL    MW427588   3.044   4.991   1.238  0.0159 -0.3458  0.0635
 6956SOL     OW27589   2.330   2.178   0.691 -0.1130 -0.2837 -0.1133
 6956SOL    HW227590   2.318   2.091   0.654 -0.8946 -0.1435 -0.2012
 6956SOL    HW327591   2.368   2.162   0.777  1.6566 -0.6159 -0.9067
 6956SOL    MW427592   2.334   2.164   0.697  0.1551 -0.6616 -0.0793
 6957SOL     OW27593   2.281   3.170   1.313 -0.0990  0.0297  0.7429
 6957SOL    HW227594   2.194   3.169   1.351  0.4115  1.8821  2.1253
 6957SOL    HW327595   2.313   3.080   1.324 -1.5405 -0.5004  0.8338
 6957SOL    MW427596   2.274   3.158   1.319  0.3873  0.4390 -0.7318
 6958SOL     OW27597   3.863   2.805   3.880  0.3103  0.3076 -0.1030
 6958SOL    HW227598   3.841   2.898   3.881 -1.3110 -0.0188 -1.3203
 6958SOL    HW327599   3.958   2.803   3.890  0.3749  2.0889 -0.0608
 6958SOL    MW427600   3.873   2.817   3.882 -0.5525 -0.2136 -0.0206
 6959SOL     OW27601   5.885   0.561   3.001  0.2283  0.4738  0.2351
 6959SOL    HW227602   5.969   0.561   2.955  0.4195 -0.5562  0.5654
 6959SOL    HW327603   5.823   0.529   2.935  0.4180 -0.5264  0.5284
 6959SOL    MW427604   5.888   0.557   2.986 -0.0128 -0.0697  0.1449
 6960SOL     OW27605   4.825   3.349   1.566 -0.1678  0.0481 -0.2575
 6960SOL    HW227606   4.880   3.418   1.604  0.5500 -0.0076 -1.1743
 6960SOL    HW327607   4.768   3.395   1.504  0.0231 -0.1232 -0.5618
 6960SOL    MW427608   4.824   3.364   1.563 -0.3101 -0.0759  0.3871
 6961SOL     OW27609   1.795   3.590   3.379  0.3246 -0.3292  0.3183
 6961SOL    HW227610   1.759   3.669   3.420 -3.0671 -0.3050 -2.2641
 6961SOL    HW327611   1.771   3.519   3.439  0.4723  0.2515  1.0831
 6961SOL    MW427612   1.787   3.591   3.392 -0.2233  0.1385 -0.4743
 6962SOL     OW27613   6.015   1.440   4.466 -0.1982  0.5318 -0.8770
 6962SOL    HW227614   6.045   1.496   4.394  0.4163  0.3127 -0.8028
 6962SOL    HW327615   6.094   1.394   4.494 -0.8230 -0.9216 -1.4115
 6962SOL    MW427616   6.030   1.441   4.460 -0.1773  0.6363 -0.1327
 6963SOL     OW27617   1.240   4.707   4.196 -0.2365  0.0806 -0.3719
 6963SOL    HW227618   1.302   4.775   4.171 -0.9011  0.7546 -0.2191
 6963SOL    HW327619   1.273   4.627   4.154  0.4466  0.5336 -0.7011
 6963SOL    MW427620   1.252   4.705   4.187 -0.2986 -0.0091 -0.2377
 6964SOL     OW27621   6.326   3.211   3.814 -0.1335 -0.8445 -0.9633
 6964SOL    HW227622   6.364   3.290   3.853  0.1798 -1.4264 -0.0561
 6964SOL    HW327623   6.395   3.177   3.757  0.6504 -1.7674  0.4955
 6964SOL    MW427624   6.340   3.217   3.812  0.0986  0.1119 -0.4431
 6965SOL     OW27625   1.644   5.532   6.051  0.1551  0.3918  0.4141
 6965SOL    HW227626   1.639   5.607   5.992  0.1684  0.2095  0.1819
 6965SOL    HW327627   1.737   5.527   6.076  0.4167 -0.3809 -0.6542
 6965SOL    MW427628   1.656   5.541   6.047  0.2283  0.0888  0.4126
 6966SOL     OW27629   6.371   5.200   2.323 -0.3745  0.6242 -0.5191
 6966SOL    HW227630   6.398   5.127   2.267 -1.1413 -0.9508  1.0933
 6966SOL    HW327631   6.280   5.182   2.345  0.2145  0.5457  2.1487
 6966SOL    MW427632   6.363   5.188   2.319  0.3381 -0.0988  0.0966
 6967SOL     OW27633   4.291   1.776   5.494  0.3823 -0.1429 -0.5438
 6967SOL    HW227634   4.279   1.845   5.560 -0.6621  0.1896 -1.0729
 6967SOL    HW327635   4.266   1.695   5.539 -2.9360  0.3625 -1.2312
 6967SOL    MW427636   4.286   1.775   5.509 -0.8875 -0.3459 -0.1315
 6968SOL     OW27637   6.165   2.719   1.199  0.0712 -0.2489 -0.2314
 6968SOL    HW227638   6.251   2.744   1.164  0.1280 -0.4458 -0.2329
 6968SOL    HW327639   6.103   2.775   1.152  0.4209  2.0160  1.8297
 6968SOL    MW427640   6.168   2.730   1.188 -0.5338 -0.1610  0.3664
 6969SOL     OW27641   2.135   2.396   1.265  0.4811  0.2677 -0.8466
 6969SOL    HW227642   2.112   2.308   1.294  0.0283  0.7002  0.1826
 6969SOL    HW327643   2.093   2.405   1.180 -0.4950 -0.0976 -0.4237
 6969SOL    MW427644   2.126   2.386   1.258  0.5378 -0.1389 -0.4137
 6970SOL     OW27645   0.895   6.104   3.273  0.4437 -1.1605  0.2308
 6970SOL    HW227646   0.959   6.051   3.320  0.4057 -0.7536  0.7471
 6970SOL    HW327647   0.814   6.052   3.276  0.4320 -1.1165  0.6462
 6970SOL    MW427648   0.892   6.090   3.280  0.1454  0.9070 -0.2621
 6971SOL     OW27649   6.062   1.108   3.560  0.0398  0.0102  0.3506
 6971SOL    HW227650   6.110   1.062   3.629 -1.1892 -2.1117 -0.1153
 6971SOL    HW327651   6.020   1.182   3.605 -0.3893 -1.0816  1.8254
 6971SOL    MW427652   6.062   1.112   3.575  0.2829  0.4573  0.1077
 6972SOL     OW27653   3.469   3.460   5.231 -0.6162  0.9158 -0.4217
 6972SOL    HW227654   3.384   3.452   5.187 -1.3259  0.6730  0.9296
 6972SOL    HW327655   3.519   3.385   5.201 -1.0224  0.8442 -0.9364
 6972SOL    MW427656   3.464   3.449   5.221 -0.4764 -0.5746  0.2568
 6973SOL     OW27657   6.055   3.164   1.231  0.1105  0.3161  0.0454
 6973SOL    HW227658   6.041   3.258   1.240 -0.4976  0.5645 -2.5699
 6973SOL    HW327659   5.968   3.126   1.247 -0.0016  0.3656 -0.4215
 6973SOL    MW427660   6.041   3.171   1.234 -0.3617 -0.2560 -0.2903
 6974SOL     OW27661   1.880   1.715   4.958  0.1201  0.0215  0.2300
 6974SOL    HW227662   1.848   1.704   5.048 -0.7490 -0.0630 -0.0833
 6974SOL    HW327663   1.948   1.648   4.949 -0.2970 -0.4572  0.5880
 6974SOL    MW427664   1.885   1.705   4.969 -0.6951 -0.0380  0.1336
 6975SOL     OW27665   6.366   0.561   4.860 -0.2480 -0.2673 -0.3307
 6975SOL    HW227666   6.382   0.634   4.920 -1.1886  0.1807 -0.6146
 6975SOL    HW327667   6.441   0.502   4.874  0.7877  0.9754 -0.4534
 6975SOL    MW427668   6.378   0.563   4.870  0.2997  0.3072  0.3657
 6976SOL     OW27669   5.678   1.742   3.697  0.1729  0.2029  0.2519
 6976SOL    HW227670   5.668   1.656   3.738  0.5526  0.7886  1.6456
 6976SOL    HW327671   5.589   1.778   3.697 -0.2283 -0.6792 -1.5574
 6976SOL    MW427672   5.665   1.735   3.703  0.0549  0.6112  0.4438
 6977SOL     OW27673   2.865   2.934   3.273 -0.1677  0.8265 -0.1112
 6977SOL    HW227674   2.866   3.024   3.241 -0.3080  0.9389  0.1944
 6977SOL    HW327675   2.802   2.935   3.345  0.7941  0.7778  0.7431
 6977SOL    MW427676   2.857   2.946   3.278  0.3433  0.3414 -0.2842
 6978SOL     OW27677  -0.006   2.977   3.188  0.3577 -0.4357 -0.0484
 6978SOL    HW227678  -0.027   2.892   3.226  1.1575 -0.8310 -0.4621
 6978SOL    HW327679   0.005   3.035   3.263  0.2156 -0.7991  0.2532
 6978SOL    MW427680  -0.007   2.974   3.203  0.6812  0.4821  0.3131
 6979SOL     OW27681   1.526   2.131   2.792 -0.1534  1.0843 -1.1197
 6979SOL    HW227682   1.516   2.174   2.707 -1.6860 -0.6683 -1.8885
 6979SOL    HW327683   1.450   2.161   2.842 -2.1964 -1.7667 -2.2276
 6979SOL    MW427684   1.514   2.141   2.787 -0.5693  0.5794  0.1536
 6980SOL     OW27685   5.622   0.287   6.164  0.0048  0.2377  0.2023
 6980SOL    HW227686   5.714   0.310   6.152 -0.2185  1.3554  0.5115
 6980SOL    HW327687   5.578   0.325   6.088 -0.3725  0.8506  0.7196
 6980SOL    MW427688   5.629   0.295   6.152 -0.3501  0.2669  0.1123
 6981SOL     OW27689   1.546   3.670   3.782  0.2154 -0.1893 -0.0732
 6981SOL    HW227690   1.570   3.619   3.859  0.8511  0.1404 -0.0489
 6981SOL    HW327691   1.499   3.608   3.725 -0.4069 -0.3924  0.6431
 6981SOL    MW427692   1.543   3.655   3.785 -0.0820  0.1654  0.0862
 6982SOL     OW27693   3.873   0.306   0.895  0.0836  0.0067 -0.0858
 6982SOL    HW227694   3.848   0.397   0.881 -1.3640 -0.3206  0.2708
 6982SOL    HW327695   3.889   0.299   0.989 -1.3479 -0.4535  0.1451
 6982SOL    MW427696   3.872   0.317   0.905 -0.2141 -0.2785  0.1755
 6983SOL     OW27697   6.332   5.531   1.922  0.7147  0.0338  0.1773
 6983SOL    HW227698   6.294   5.585   1.853  1.8449 -1.1026 -1.4012
 6983SOL    HW327699   6.259   5.479   1.955  0.0470  1.0029  0.2733
 6983SOL    MW427700   6.318   5.531   1.917  0.1020  0.2997  0.2155
 6984SOL     OW27701   5.345   2.819   0.843 -0.0282  0.1676  0.1658
 6984SOL    HW227702   5.408   2.822   0.771  0.8335 -1.1804  0.8111
 6984SOL    HW327703   5.388   2.869   0.913 -1.6120  2.9913 -0.7241
 6984SOL    MW427704   5.359   2.826   0.843  0.1212  0.4415 -0.3791
 6985SOL     OW27705   5.268   3.247   4.108 -0.0603  0.2271  0.5845
 6985SOL    HW227706   5.181   3.283   4.089  0.1929  1.7862  2.1677
 6985SOL    HW327707   5.253   3.185   4.179  0.1850  0.9649  1.2930
 6985SOL    MW427708   5.254   3.244   4.115 -0.2784  0.3138 -1.0165
 6986SOL     OW27709   5.623   5.715   6.194 -0.1156  0.0630 -0.1716
 6986SOL    HW227710   5.538   5.672   6.187 -1.2027  1.4536  2.9038
 6986SOL    HW327711   5.682   5.645   6.221 -0.7259 -0.4828 -0.2157
 6986SOL    MW427712   5.620   5.700   6.196 -0.4185  0.3857 -0.1253
 6987SOL     OW27713   1.307   0.146   3.025  0.1466 -0.0729  0.8943
 6987SOL    HW227714   1.319   0.112   2.936 -0.2862  1.6598  0.1477
 6987SOL    HW327715   1.358   0.086   3.080  2.4820  0.2091 -0.7874
 6987SOL    MW427716   1.315   0.133   3.020 -0.7012  0.0281  0.3092
 6988SOL     OW27717   1.278   2.239   0.229 -0.0522  0.1028 -0.2137
 6988SOL    HW227718   1.233   2.207   0.307 -0.8857  1.5916 -0.0419
 6988SOL    HW327719   1.357   2.187   0.223  0.6654  0.7681  2.3343
 6988SOL    MW427720   1.282   2.228   0.238 -0.0767  0.0491 -0.4303
 6989SOL     OW27721   2.468   1.954   4.793  0.1208  0.2704 -0.0658
 6989SOL    HW227722   2.383   1.913   4.783  0.0463  0.6250 -1.0056
 6989SOL    HW327723   2.531   1.886   4.769  0.1168 -0.0222  0.7265
 6989SOL    MW427724   2.465   1.940   4.788 -0.1665  0.2025 -0.2786
 6990SOL     OW27725   1.468   1.778   1.848 -0.4175  0.1952 -0.2084
 6990SOL    HW227726   1.556   1.772   1.810  0.2506  0.4753  1.2285
 6990SOL    HW327727   1.410   1.787   1.772  0.3966 -3.3468 -1.4609
 6990SOL    MW427728   1.472   1.779   1.833  0.3857  0.1834  0.3964
 6991SOL     OW27729   5.860   5.221   0.674 -0.1322  0.2869  0.1880
 6991SOL    HW227730   5.930   5.246   0.734  0.0445 -0.9014  0.4916
 6991SOL    HW327731   5.892   5.142   0.630 -1.0178  0.1005 -0.1459
 6991SOL    MW427732   5.873   5.214   0.676  0.2737 -0.0007 -0.1208
 6992SOL     OW27733   2.203   5.540   2.099  0.6310 -0.1942  0.0413
 6992SOL    HW227734   2.143   5.501   2.036  0.1601  0.1535  0.2707
 6992SOL    HW327735   2.147   5.590   2.158  1.0499 -0.6318  0.8259
 6992SOL    MW427736   2.188   5.541   2.098 -0.8834  0.1912  0.2955
 6993SOL     OW27737   3.931   5.011   2.021  0.1418 -0.3816 -0.4120
 6993SOL    HW227738   3.858   4.958   1.991 -0.3194  1.0700 -2.0063
 6993SOL    HW327739   4.009   4.969   1.984 -0.2228  0.0266 -1.6830
 6993SOL    MW427740   3.932   4.999   2.012 -0.0814  0.1597 -0.1302
 6994SOL     OW27741   0.281   4.521   1.289 -0.1360  0.1196 -0.2717
 6994SOL    HW227742   0.345   4.585   1.258  0.4361 -0.2969  0.0242
 6994SOL    HW327743   0.207   4.530   1.230  1.4414 -1.6366 -2.6813
 6994SOL    MW427744   0.280   4.531   1.277 -0.0315  0.1298 -0.2243
 6995SOL     OW27745   3.738   0.578   1.187 -0.0326 -0.6216 -0.2211
 6995SOL    HW227746   3.797   0.566   1.113  0.4779 -2.1422  0.3792
 6995SOL    HW327747   3.690   0.496   1.194 -0.5864 -0.2458  0.6963
 6995SOL    MW427748   3.740   0.566   1.178  0.1320  0.1964  0.2944
 6996SOL     OW27749   3.790   3.352   6.023  0.3022 -0.1794 -0.3333
 6996SOL    HW227750   3.881   3.351   5.992  0.7056  1.4575  0.6465
 6996SOL    HW327751   3.741   3.394   5.953  0.6835  0.7826 -0.0462
 6996SOL    MW427752   3.796   3.357   6.010 -0.4025  0.1567 -0.3600
 6997SOL     OW27753   0.024   1.620   1.592 -0.0838  0.4072 -0.1494
 6997SOL    HW227754   0.093   1.683   1.612 -0.0289 -0.4381  2.8363
 6997SOL    HW327755  -0.058   1.666   1.613 -0.2068  0.2995 -0.3861
 6997SOL    MW427756   0.022   1.634   1.597  0.7421 -0.4517  0.2181
 6998SOL     OW27757   4.902   2.056   2.188  0.2952  0.2802 -0.2446
 6998SOL    HW227758   4.987   2.029   2.222 -0.3641  0.9625  2.1493
 6998SOL    HW327759   4.894   2.010   2.104  1.8097 -2.0499  0.7804
 6998SOL    MW427760   4.912   2.046   2.181 -0.4075  0.4283 -0.4642
 6999SOL     OW27761   4.754   1.252   6.014  0.3166 -0.1710 -0.0044
 6999SOL    HW227762   4.763   1.166   5.973 -1.1771 -0.6698  0.6346
 6999SOL    HW327763   4.685   1.296   5.963  0.9146  0.5780 -0.1909
 6999SOL    MW427764   4.746   1.246   6.002 -0.0237  0.1579  0.6558
 7000SOL     OW27765   3.339   6.241   4.704 -0.0060 -1.1634 -0.5563
 7000SOL    HW227766   3.344   6.145   4.698  0.3921 -1.4678  2.9338
 7000SOL    HW327767   3.430   6.270   4.692  0.3922 -1.5285  1.3091
 7000SOL    MW427768   3.352   6.232   4.701 -0.2202 -0.1451 -0.3512
 7001SOL     OW27769   1.259   0.111   2.695 -0.0384 -0.0350 -0.2704
 7001SOL    HW227770   1.178   0.063   2.713 -0.4616  0.6729 -0.2435
 7001SOL    HW327771   1.232   0.180   2.635  0.2846  1.0155  0.7690
 7001SOL    MW427772   1.245   0.114   2.689  0.3592  0.2610  0.1645
 7002SOL     OW27773   0.244   5.613   5.041  0.1405 -0.4154 -0.7064
 7002SOL    HW227774   0.246   5.701   5.078 -0.1400 -0.3830 -0.7620
 7002SOL    HW327775   0.226   5.556   5.117 -2.2166 -0.1922 -1.0042
 7002SOL    MW427776   0.242   5.617   5.056  0.1338  0.1254  0.3814
 7003SOL     OW27777   1.815   4.078   3.620  0.2505  0.1981 -0.4100
 7003SOL    HW227778   1.796   3.995   3.664 -1.4903 -0.3995 -2.1320
 7003SOL    HW327779   1.792   4.062   3.528  1.4223  2.1120 -1.0855
 7003SOL    MW427780   1.809   4.065   3.613  0.0618 -0.0012 -0.4852
 7004SOL     OW27781   5.119   3.747   0.877  0.2080 -0.0533 -0.6572
 7004SOL    HW227782   5.140   3.666   0.830  0.1938  0.5293 -1.7021
 7004SOL    HW327783   5.027   3.764   0.853 -0.3181 -0.5820  0.8673
 7004SOL    MW427784   5.109   3.738   0.868 -0.4257  0.3565  0.1420
 7005SOL     OW27785   1.696   1.740   2.885 -0.0685  0.3227  0.0228
 7005SOL    HW227786   1.672   1.648   2.883  2.2888 -0.4549  1.8707
 7005SOL    HW327787   1.667   1.770   2.972  0.6873  0.8108  0.1200
 7005SOL    MW427788   1.689   1.732   2.896 -0.0301 -0.7499 -0.1965
 7006SOL     OW27789   2.764   5.739   6.035 -0.2559  0.4519 -0.3657
 7006SOL    HW227790   2.697   5.806   6.047 -0.4695  0.1179  0.3078
 7006SOL    HW327791   2.715   5.659   6.015  0.0156  0.5994 -1.7617
 7006SOL    MW427792   2.749   5.737   6.034  0.2940  0.0646 -0.0276
 7007SOL     OW27793   0.111   0.064   1.125  0.3285  0.4681 -0.2577
 7007SOL    HW227794   0.067  -0.005   1.074  3.3778 -1.7737 -0.1079
 7007SOL    HW327795   0.131   0.132   1.060 -0.1188 -0.1188 -1.0331
 7007SOL    MW427796   0.108   0.064   1.110 -0.5811  0.0131  0.0654
 7008SOL     OW27797   2.040   5.316   1.606  0.0475  0.0151 -0.3232
 7008SOL    HW227798   2.012   5.400   1.570  1.1233 -0.3119 -2.0710
 7008SOL    HW327799   2.072   5.267   1.530  3.8746 -0.1816  1.2092
 7008SOL    MW427800   2.041   5.321   1.591  0.1719  0.0297 -0.2888
 7009SOL     OW27801   2.904   5.045   6.278 -0.2890  0.0185  0.2376
 7009SOL    HW227802   2.952   5.075   6.356  2.2954  0.0332 -1.2161
 7009SOL    HW327803   2.856   5.122   6.249 -0.4559  0.3074  1.2295
 7009SOL    MW427804   2.904   5.059   6.285 -0.0293 -0.2113  0.4608
 7010SOL     OW27805   6.204   2.020   3.743  0.7129 -0.2618  0.2024
 7010SOL    HW227806   6.118   2.062   3.739  0.1799 -1.4107 -2.2807
 7010SOL    HW327807   6.266   2.092   3.751 -0.3287  0.8271 -1.0125
 7010SOL    MW427808   6.201   2.035   3.744 -0.3567  0.1164 -0.0808
 7011SOL     OW27809   5.282   2.450   3.984 -0.2723  0.1635  0.2042
 7011SOL    HW227810   5.369   2.439   3.945 -1.0918  0.0873 -1.6932
 7011SOL    HW327811   5.268   2.544   3.988 -1.3231  0.1836 -2.4651
 7011SOL    MW427812   5.292   2.461   3.980 -0.3702 -0.0478 -0.4893
 7012SOL     OW27813   1.890   2.304   5.736 -0.4238 -0.6901 -0.6546
 7012SOL    HW227814   1.875   2.212   5.714 -2.6711 -0.2079 -1.4009
 7012SOL    HW327815   1.835   2.321   5.812 -0.8431  0.2813 -1.1548
 7012SOL    MW427816   1.881   2.294   5.743  0.4946  0.1073 -0.1087
 7013SOL     OW27817   2.472   2.406   1.684 -0.1004  0.4437 -0.3162
 7013SOL    HW227818   2.478   2.467   1.609 -0.8782  1.4248  0.3915
 7013SOL    HW327819   2.548   2.349   1.674  1.1372  2.0458 -0.5798
 7013SOL    MW427820   2.483   2.407   1.673  0.4263 -0.6271 -0.0516
 7014SOL     OW27821   4.354   5.306   4.619  0.0569 -0.0244 -0.0460
 7014SOL    HW227822   4.384   5.395   4.636  1.9338 -0.4876 -0.7071
 7014SOL    HW327823   4.362   5.261   4.703 -1.3983  0.5183  0.4199
 7014SOL    MW427824   4.359   5.312   4.632  0.1570 -0.1380 -0.0018
 7015SOL     OW27825   2.498   4.705   2.719 -0.0527  0.2253 -0.0587
 7015SOL    HW227826   2.413   4.702   2.675 -0.5223  2.3757  0.6209
 7015SOL    HW327827   2.559   4.668   2.656 -1.4449 -1.2313 -0.6154
 7015SOL    MW427828   2.495   4.699   2.705  0.4004  0.3360 -0.0396
 7016SOL     OW27829   6.377   6.081   3.410  0.1303 -0.2919  0.1646
 7016SOL    HW227830   6.383   6.020   3.484 -0.4973  0.0380  0.5014
 7016SOL    HW327831   6.451   6.140   3.423 -0.4085  0.2347  0.9857
 7016SOL    MW427832   6.387   6.081   3.422 -0.2486  0.1204 -0.7669
 7017SOL     OW27833   0.112   6.220   5.606  0.2664  0.3226  0.5786
 7017SOL    HW227834   0.021   6.236   5.584  0.6745  3.2436  0.6421
 7017SOL    HW327835   0.109   6.179   5.693 -0.9641 -0.3325  0.2499
 7017SOL    MW427836   0.100   6.216   5.614  0.4223 -0.4523  0.3513
 7018SOL     OW27837   1.532   0.870   0.029  0.0647  0.2405  1.0085
 7018SOL    HW227838   1.586   0.949   0.034 -0.5269  0.6802  0.5379
 7018SOL    HW327839   1.556   0.820   0.108  1.2964  0.3191  0.7142
 7018SOL    MW427840   1.543   0.874   0.040 -0.3777  0.1576  0.3685
 7019SOL     OW27841   1.076   1.991   1.527 -0.0059  0.0744 -1.0523
 7019SOL    HW227842   1.041   2.033   1.606  2.2761  1.4663 -0.6902
 7019SOL    HW327843   1.000   1.981   1.470 -1.3577  0.9667  0.5032
 7019SOL    MW427844   1.061   1.995   1.530 -0.0777  0.1146  0.4089
 7020SOL     OW27845   5.097   5.288   6.038  0.1418 -0.1795 -0.1563
 7020SOL    HW227846   5.021   5.281   5.981  0.7665 -0.5759 -0.9683
 7020SOL    HW327847   5.156   5.347   5.991 -0.0184  0.8270  0.8790
 7020SOL    MW427848   5.095   5.295   6.024 -0.3600 -0.0073 -0.1044
 7021SOL     OW27849   0.873   5.379   6.419  0.2935 -0.7873  0.5140
 7021SOL    HW227850   0.952   5.408   6.463 -0.4405  1.2956  0.5849
 7021SOL    HW327851   0.818   5.342   6.488  0.6235 -0.9045  0.7120
 7021SOL    MW427852   0.876   5.378   6.434  0.1393 -0.1866  0.0572
 7022SOL     OW27853   0.543   6.210   5.268 -0.1237  0.1601  0.0801
 7022SOL    HW227854   0.555   6.235   5.177  0.1546 -2.3987 -0.6732
 7022SOL    HW327855   0.494   6.282   5.307 -0.4399  1.2111 -2.1368
 7022SOL    MW427856   0.538   6.223   5.261  0.2007 -0.3981  0.2718
 7023SOL     OW27857   5.480   0.341   0.343 -0.0596  0.8184 -0.5906
 7023SOL    HW227858   5.458   0.256   0.381 -0.6116  1.3536  0.3116
 7023SOL    HW327859   5.574   0.336   0.325 -0.2143 -0.2221 -1.2009
 7023SOL    MW427860   5.490   0.329   0.345 -0.2604  0.1261 -0.3171
 7024SOL     OW27861   4.919   5.993   2.323 -0.3633 -0.1573  0.2991
 7024SOL    HW227862   4.838   6.022   2.366 -0.3302  0.0658  0.2151
 7024SOL    HW327863   4.898   5.998   2.230 -1.0742 -2.4346  0.2708
 7024SOL    MW427864   4.905   5.997   2.316 -0.3820  0.6366  0.1860
 7025SOL     OW27865   3.257   3.720   3.800 -0.0392 -0.1866  0.4155
 7025SOL    HW227866   3.253   3.793   3.862 -0.6468 -1.1068  1.4934
 7025SOL    HW327867   3.196   3.655   3.835  0.5373 -1.2486 -0.4794
 7025SOL    MW427868   3.248   3.721   3.813 -0.3527 -0.3394  0.1987
 7026SOL     OW27869   1.779   1.009   6.331 -0.2404  0.1408 -0.0851
 7026SOL    HW227870   1.766   1.016   6.236 -0.8866 -1.4954 -0.1404
 7026SOL    HW327871   1.743   1.091   6.366 -1.0374  0.2665 -1.1665
 7026SOL    MW427872   1.772   1.021   6.323 -0.5064 -0.2818  0.1332
 7027SOL     OW27873   6.149   0.504   4.393  0.0528  0.4814 -0.0836
 7027SOL    HW227874   6.162   0.411   4.410  0.1997  0.6010  0.4737
 7027SOL    HW327875   6.156   0.545   4.479 -1.9648  0.7848 -0.0146
 7027SOL    MW427876   6.151   0.497   4.406  0.7676 -0.6306  0.2345
 7028SOL     OW27877   6.020   6.067   4.966 -0.4258  0.0706  0.1436
 7028SOL    HW227878   6.035   6.025   4.881 -0.7394  0.1483  0.0456
 7028SOL    HW327879   6.016   6.160   4.946  1.4305  0.2666  0.5304
 7028SOL    MW427880   6.021   6.074   4.952 -0.6018  0.4512 -0.5152
 7029SOL     OW27881   6.162   1.122   5.962 -0.2129  0.3263 -0.5960
 7029SOL    HW227882   6.156   1.036   5.921 -0.6575  0.2159 -0.3056
 7029SOL    HW327883   6.078   1.165   5.943 -0.9079 -0.1596  1.1346
 7029SOL    MW427884   6.150   1.117   5.954  0.1288  0.8915 -0.3829
 7030SOL     OW27885   0.310   3.432   0.723 -0.0624  0.2768  0.3998
 7030SOL    HW227886   0.369   3.499   0.757  0.8534 -0.4116  0.2087
 7030SOL    HW327887   0.223   3.461   0.750  0.2827  1.6669  0.1078
 7030SOL    MW427888   0.306   3.445   0.731  1.0571 -0.2136  0.0397
 7031SOL     OW27889   4.595   3.531   3.540  0.0027 -0.2580 -0.0989
 7031SOL    HW227890   4.689   3.516   3.548 -0.0138  0.4171  2.6147
 7031SOL    HW327891   4.584   3.570   3.454  2.6473  2.2488  0.5251
 7031SOL    MW427892   4.606   3.534   3.530  0.3170  0.0484  0.0766
 7032SOL     OW27893   5.035   0.500   2.264 -0.4941  0.5640  0.8846
 7032SOL    HW227894   4.955   0.507   2.213  0.9036  1.4574 -1.3246
 7032SOL    HW327895   5.054   0.406   2.265 -1.5753  0.3333  1.5012
 7032SOL    MW427896   5.027   0.488   2.258 -0.2090 -0.1957  0.6579
 7033SOL     OW27897   5.754   0.948   5.332 -0.0203  0.4098  0.1092
 7033SOL    HW227898   5.844   0.933   5.305  0.4437  1.0896  1.2141
 7033SOL    HW327899   5.754   1.038   5.366 -1.0651  0.3416  0.3269
 7033SOL    MW427900   5.766   0.958   5.333  0.2209  0.2834  0.3106
 7034SOL     OW27901   0.318   3.043   5.298  0.2366  0.0115 -0.1969
 7034SOL    HW227902   0.359   3.122   5.332 -0.4635 -0.0687  0.8927
 7034SOL    HW327903   0.391   2.990   5.266  0.7516  0.8825 -0.5059
 7034SOL    MW427904   0.333   3.046   5.298  0.1588  0.6640  0.5261
 7035SOL     OW27905   5.968   1.285   5.650 -0.1920  0.0786 -0.2180
 7035SOL    HW227906   5.969   1.372   5.611  0.7743 -0.1207 -0.6625
 7035SOL    HW327907   5.980   1.301   5.744 -2.5585  0.5558  0.0603
 7035SOL    MW427908   5.969   1.299   5.657 -0.2910  0.2433  0.6753
 7036SOL     OW27909   2.699   0.776   3.252  0.1775  0.4094 -0.3961
 7036SOL    HW227910   2.736   0.775   3.164  0.2670  2.1320 -0.4080
 7036SOL    HW327911   2.604   0.774   3.238  0.1422  2.3461 -0.6279
 7036SOL    MW427912   2.691   0.775   3.239  0.2940 -0.1707  0.0753
 7037SOL     OW27913   0.966   2.134   5.489  0.0893 -0.5739  0.1486
 7037SOL    HW227914   1.008   2.183   5.419  1.2269 -0.8722  0.5947
 7037SOL    HW327915   0.873   2.156   5.482  0.6015  1.9519  0.5880
 7037SOL    MW427916   0.959   2.143   5.479 -0.0095  0.1006 -0.3279
 7038SOL     OW27917   2.868   6.214   1.030 -0.1212 -0.2484  0.1277
 7038SOL    HW227918   2.914   6.178   1.106 -0.3253 -0.1989  0.2738
 7038SOL    HW327919   2.814   6.142   0.998 -0.5478 -0.0651  0.4345
 7038SOL    MW427920   2.867   6.200   1.036 -0.0535 -0.2938 -0.1350
 7039SOL     OW27921   0.844   1.895   0.250 -0.1535 -0.1544 -0.1292
 7039SOL    HW227922   0.901   1.824   0.219 -1.3583 -1.3400  0.2692
 7039SOL    HW327923   0.896   1.939   0.318  0.6999 -0.5012 -0.5341
 7039SOL    MW427924   0.859   1.891   0.255 -0.3323 -0.1650 -0.1261
 7040SOL     OW27925   2.668   0.138   6.199  0.7857  0.1778  0.1543
 7040SOL    HW227926   2.718   0.178   6.270 -2.1090  1.5292  1.5942
 7040SOL    HW327927   2.633   0.213   6.150 -3.0931 -0.4184  1.6854
 7040SOL    MW427928   2.670   0.153   6.202 -0.2010 -0.1136  0.3502
 7041SOL     OW27929   2.015   1.185   5.526  0.4541  0.0118  0.5659
 7041SOL    HW227930   2.087   1.137   5.568 -0.4218 -2.9731 -1.0028
 7041SOL    HW327931   2.038   1.187   5.433 -1.7092 -1.7423 -0.1187
 7041SOL    MW427932   2.027   1.179   5.519 -0.2996  0.1102 -0.1745
 7042SOL     OW27933   0.128   2.361   3.139  0.4068 -0.1620  0.1737
 7042SOL    HW227934   0.105   2.278   3.182  0.7659 -0.0783  0.5179
 7042SOL    HW327935   0.054   2.377   3.079  1.0722 -1.5679 -1.1022
 7042SOL    MW427936   0.115   2.352   3.136  0.6886  0.1222 -0.2089
 7043SOL     OW27937   1.165   2.881   3.719 -0.3486 -0.2299 -0.0161
 7043SOL    HW227938   1.076   2.844   3.725 -1.9786  3.4432  1.0362
 7043SOL    HW327939   1.197   2.881   3.810  0.3626 -0.6084 -0.2571
 7043SOL    MW427940   1.157   2.876   3.732 -0.3664  0.0022 -0.0528
 7044SOL     OW27941   0.863   4.189   3.988  0.4944 -0.9409  0.0043
 7044SOL    HW227942   0.950   4.218   3.959  0.9879 -1.5391  0.8455
 7044SOL    HW327943   0.867   4.093   3.984  0.4850 -1.0487  1.6750
 7044SOL    MW427944   0.875   4.180   3.984 -0.4211 -0.0645 -0.3659
 7045SOL     OW27945   0.379   0.195   2.899  0.5724 -0.6028  0.1259
 7045SOL    HW227946   0.423   0.238   2.826 -1.1225 -0.3035 -0.7617
 7045SOL    HW327947   0.438   0.125   2.924  0.8801 -1.1984 -2.0406
 7045SOL    MW427948   0.393   0.192   2.893 -0.0198 -0.3149 -0.1753
 7046SOL     OW27949   3.442   5.865   4.042 -0.1931  0.2321  0.5322
 7046SOL    HW227950   3.518   5.872   4.099  0.4397 -1.5822 -0.0106
 7046SOL    HW327951   3.432   5.771   4.027 -1.0028  0.5729 -1.4192
 7046SOL    MW427952   3.451   5.854   4.047  0.5927 -0.6816 -0.2213
 7047SOL     OW27953   4.279   6.247   2.988  0.4185 -0.0021 -0.4261
 7047SOL    HW227954   4.356   6.289   3.027  0.1447  1.7135 -1.6204
 7047SOL    HW327955   4.311   6.162   2.959  1.4524  0.0334  0.5370
 7047SOL    MW427956   4.294   6.242   2.989 -0.4806 -0.0608 -0.1230
 7048SOL     OW27957   1.440   2.425   0.768 -0.2161  0.3245 -0.0170
 7048SOL    HW227958   1.494   2.499   0.794 -1.0951  1.4803 -1.3186
 7048SOL    HW327959   1.359   2.434   0.818 -0.5631  0.6247 -0.6082
 7048SOL    MW427960   1.436   2.436   0.778 -0.1836 -0.0652 -0.3481
 7049SOL     OW27961   2.487   3.377   3.378  0.3326 -0.4755 -0.1739
 7049SOL    HW227962   2.435   3.393   3.457 -0.0763  0.5454 -0.6464
 7049SOL    HW327963   2.568   3.337   3.411 -0.5805 -1.7581  0.5937
 7049SOL    MW427964   2.491   3.373   3.393  0.3639 -0.0212 -0.3453
 7050SOL     OW27965   4.225   2.461   0.991  0.4514  0.4274  0.4137
 7050SOL    HW227966   4.175   2.412   0.925 -3.0851  0.4681  2.7597
 7050SOL    HW327967   4.227   2.550   0.958 -0.9207  0.3706  0.0929
 7050SOL    MW427968   4.219   2.466   0.978 -0.1744 -0.1198  0.3580
 7051SOL     OW27969   1.100   3.788   0.436 -0.1779  0.2478  0.5127
 7051SOL    HW227970   1.022   3.747   0.398  0.6138  0.1344 -1.1041
 7051SOL    HW327971   1.085   3.882   0.427 -0.4026  0.2384  0.7931
 7051SOL    MW427972   1.088   3.795   0.430  0.0357  0.3718 -0.0626
 7052SOL     OW27973   4.871   0.136   2.924  0.4743 -0.3722 -0.1424
 7052SOL    HW227974   4.915   0.115   2.841  0.5380 -2.2605  0.3228
 7052SOL    HW327975   4.820   0.215   2.905  2.7512  0.9682 -1.1583
 7052SOL    MW427976   4.870   0.144   2.910  0.5309  0.1224  0.2184
 7053SOL     OW27977   2.321   3.667   2.692 -0.5609  0.3625  0.0992
 7053SOL    HW227978   2.298   3.760   2.684 -1.2746  0.2801  1.0235
 7053SOL    HW327979   2.245   3.621   2.656  0.4385  0.1149 -1.8622
 7053SOL    MW427980   2.308   3.673   2.686 -0.0333  0.5208  0.0640
 7054SOL     OW27981   2.791   2.128   6.378 -0.0240  0.2717  0.1263
 7054SOL    HW227982   2.772   2.067   6.307 -0.1424 -0.7542  1.0159
 7054SOL    HW327983   2.874   2.169   6.353  1.4870 -2.2117  0.7588
 7054SOL    MW427984   2.799   2.125   6.365  0.4571  0.8308  0.0492
 7055SOL     OW27985   0.491   6.128   3.346 -0.2322  0.1658  0.1404
 7055SOL    HW227986   0.414   6.111   3.291 -0.0095  0.4547 -0.2716
 7055SOL    HW327987   0.515   6.219   3.326 -0.2966  0.3566  0.9074
 7055SOL    MW427988   0.484   6.138   3.336  0.0951  0.4396 -0.1448
 7056SOL     OW27989   1.623   3.941   1.349 -0.3178  0.0684 -0.5508
 7056SOL    HW227990   1.619   4.009   1.280  0.5940 -0.0984 -0.7828
 7056SOL    HW327991   1.706   3.896   1.333 -0.9004 -1.1060 -0.3883
 7056SOL    MW427992   1.634   3.944   1.337 -0.0674  0.2429 -0.2750
 7057SOL     OW27993   1.894   3.464   1.184  0.5185 -0.1347  0.4547
 7057SOL    HW227994   1.820   3.523   1.197 -0.0616 -0.4579 -1.1637
 7057SOL    HW327995   1.874   3.389   1.241  0.8968  0.8497  1.9518
 7057SOL    MW427996   1.882   3.462   1.194 -0.2612 -0.1117  0.4292
 7058SOL     OW27997   1.050   5.673   4.320 -0.8868 -0.3769 -0.1882
 7058SOL    HW227998   1.087   5.624   4.394 -3.4045 -0.6377  1.0178
 7058SOL    HW327999   1.043   5.610   4.249 -0.4970 -0.7278  0.0863
 7058SOL    MW428000   1.054   5.659   4.321  0.6804 -0.1615  0.5818
 7059SOL     OW28001   6.048   1.849   4.703 -0.1217  0.3192  0.1802
 7059SOL    HW228002   6.136   1.838   4.738 -0.8399 -1.7700  1.5090
 7059SOL    HW328003   5.997   1.883   4.777 -0.9671 -0.9874  0.2270
 7059SOL    MW428004   6.053   1.852   4.717 -0.4650 -0.2103  0.4300
 7060SOL     OW28005   6.065   5.786   5.242 -0.1063 -0.0570 -0.0804
 7060SOL    HW228006   6.087   5.716   5.182 -4.4670 -4.1039  2.3821
 7060SOL    HW328007   5.972   5.803   5.227 -0.0238  2.8180  1.8170
 7060SOL    MW428008   6.056   5.779   5.232 -0.1800 -0.2685  0.2979
 7061SOL     OW28009   1.887   4.774   0.215  0.3279  0.5021 -0.0830
 7061SOL    HW228010   1.910   4.809   0.129 -0.3838 -0.4126 -0.6737
 7061SOL    HW328011   1.847   4.689   0.196  2.0599 -0.6940  1.2802
 7061SOL    MW428012   1.885   4.767   0.201 -0.2848 -0.0448  0.6885
 7062SOL     OW28013   1.852   1.138   2.727 -0.4682 -0.3934 -0.0796
 7062SOL    HW228014   1.912   1.197   2.682  0.8318 -1.1411  0.6006
 7062SOL    HW328015   1.765   1.162   2.695  0.1002  1.3100 -0.4395
 7062SOL    MW428016   1.848   1.149   2.717  0.2015 -0.4285 -0.3906
 7063SOL     OW28017   4.970   4.857   4.278 -0.1416 -0.0292  0.0570
 7063SOL    HW228018   4.946   4.926   4.217  0.7217 -0.3585 -0.6764
 7063SOL    HW328019   5.063   4.871   4.296 -0.4206  0.1775  1.4624
 7063SOL    MW428020   4.979   4.868   4.272 -0.5067  0.2024 -0.2206
 7064SOL     OW28021   2.862   6.274   1.345  0.0094  0.4103  0.4774
 7064SOL    HW228022   2.951   6.285   1.378  0.8779 -0.0071 -1.5629
 7064SOL    HW328023   2.823   6.209   1.403  0.4910  1.6344  2.2879
 7064SOL    MW428024   2.869   6.267   1.357 -0.3946  0.6806  0.2396
 7065SOL     OW28025   0.482   2.246   3.273 -0.5918 -0.0285  0.7735
 7065SOL    HW228026   0.478   2.324   3.218 -1.1112 -0.9499 -0.5398
 7065SOL    HW328027   0.455   2.175   3.216 -1.6124 -0.9720  2.3531
 7065SOL    MW428028   0.478   2.247   3.258 -0.0955  0.2509 -0.2506
 7066SOL     OW28029   1.205   3.321   5.933  0.1363 -0.0242 -0.8440
 7066SOL    HW228030   1.188   3.227   5.921 -0.7402  0.3423 -2.8637
 7066SOL    HW328031   1.280   3.324   5.992  0.9423 -2.0479 -1.6595
 7066SOL    MW428032   1.213   3.309   5.939  0.0621  0.4431  0.0038
 7067SOL     OW28033   4.738   2.057   4.816 -0.1835 -0.5921 -0.3197
 7067SOL    HW228034   4.648   2.050   4.846 -0.0016 -0.9088  0.1629
 7067SOL    HW328035   4.769   1.966   4.810  0.3316 -0.4648  0.2352
 7067SOL    MW428036   4.730   2.044   4.819  0.4502 -0.3683  0.3758
 7068SOL     OW28037   4.651   3.461   4.205  0.3320  0.0100 -0.1553
 7068SOL    HW228038   4.699   3.417   4.135 -1.6182 -1.1154 -0.8997
 7068SOL    HW328039   4.637   3.393   4.271 -1.5654 -0.2133 -0.7064
 7068SOL    MW428040   4.655   3.446   4.204  0.7254 -0.4241 -0.1412
 7069SOL     OW28041   1.773   1.029   4.284 -0.0993 -0.8149  0.3402
 7069SOL    HW228042   1.775   0.992   4.372 -0.5424  0.1341  0.7598
 7069SOL    HW328043   1.812   0.961   4.229  0.3112 -1.3645  1.2815
 7069SOL    MW428044   1.779   1.015   4.288 -0.1453 -0.2035 -0.0228
 7070SOL     OW28045   0.602   1.841   1.281 -0.6902  0.7752 -0.2689
 7070SOL    HW228046   0.662   1.912   1.304 -3.5552  3.1060  0.6414
 7070SOL    HW328047   0.564   1.868   1.197 -0.1188 -0.9410 -1.1212
 7070SOL    MW428048   0.605   1.854   1.273 -0.0385  0.0352 -0.0710
 7071SOL     OW28049   0.961   2.265   5.070  0.0144 -0.2158 -0.6161
 7071SOL    HW228050   0.935   2.173   5.062 -0.0529 -0.5009  2.0639
 7071SOL    HW328051   1.030   2.265   5.136 -0.6236  1.7473  0.1206
 7071SOL    MW428052   0.967   2.253   5.078 -0.7970 -0.1797  0.2625
 7072SOL     OW28053   2.849   4.974   4.349  0.1481 -0.5826 -0.6799
 7072SOL    HW228054   2.941   4.995   4.364 -0.3725  0.6136  1.3606
 7072SOL    HW328055   2.833   4.896   4.402 -0.3192  0.0962  0.2185
 7072SOL    MW428056   2.859   4.967   4.358  0.0335 -0.2029 -0.2611
 7073SOL     OW28057   3.974   3.609   2.281  0.1987  0.2411  0.0919
 7073SOL    HW228058   4.061   3.641   2.303  0.5168  0.2780 -1.1557
 7073SOL    HW328059   3.968   3.619   2.186  0.1577 -2.9720 -0.3522
 7073SOL    MW428060   3.985   3.615   2.271 -0.3515  0.3392 -0.0080
 7074SOL     OW28061   6.182   1.218   1.810 -0.4676 -0.3108  0.3087
 7074SOL    HW228062   6.157   1.146   1.752 -0.3027  0.6107 -0.9364
 7074SOL    HW328063   6.232   1.277   1.755  0.5396  0.1337  1.6473
 7074SOL    MW428064   6.185   1.216   1.795 -0.2123 -0.3047 -0.1922
 7075SOL     OW28065   0.312   0.783   5.792 -0.2251 -0.2620 -0.5597
 7075SOL    HW228066   0.391   0.735   5.817 -0.2373  0.3867  0.8569
 7075SOL    HW328067   0.241   0.721   5.808 -0.3134  0.3796  2.0222
 7075SOL    MW428068   0.313   0.768   5.798  0.1837 -0.0808  0.2517
 7076SOL     OW28069   5.957   0.189   6.106  0.1141  0.8062  0.7237
 7076SOL    HW228070   6.052   0.179   6.093 -0.1137 -0.9003  0.2262
 7076SOL    HW328071   5.919   0.168   6.021 -0.8039 -0.2513  1.3717
 7076SOL    MW428072   5.965   0.185   6.093  0.2604 -0.0656  0.0344
 7077SOL     OW28073   5.255   2.772   5.020 -0.0941  0.7808  0.0968
 7077SOL    HW228074   5.293   2.831   4.955  1.2556  0.7963  0.8538
 7077SOL    HW328075   5.331   2.733   5.065 -0.9660 -0.3527  0.6591
 7077SOL    MW428076   5.270   2.775   5.018 -0.1888  0.3084  0.0922
 7078SOL     OW28077   3.097   3.081   4.366  0.5458 -0.4310 -0.0002
 7078SOL    HW228078   3.147   3.098   4.446 -0.2386 -0.2919  0.4679
 7078SOL    HW328079   3.043   3.005   4.388  1.8409 -1.7350 -1.0985
 7078SOL    MW428080   3.097   3.073   4.380  0.1105  0.1568 -0.0478
 7079SOL     OW28081   4.335   3.934   3.096  0.1981 -0.1886 -0.0013
 7079SOL    HW228082   4.324   3.970   3.184  4.0750  0.1497  0.5323
 7079SOL    HW328083   4.314   4.006   3.038 -1.1947 -0.0374  0.6384
 7079SOL    MW428084   4.331   3.948   3.100 -0.2186 -0.1358 -0.2507
 7080SOL     OW28085   0.271   2.901   3.257 -0.4771 -0.1817  0.3133
 7080SOL    HW228086   0.210   2.952   3.204  2.7203  0.3084 -3.3763
 7080SOL    HW328087   0.259   2.811   3.227  0.2295 -0.1529 -0.0683
 7080SOL    MW428088   0.261   2.896   3.246  0.0728  0.0104  0.3308
 7081SOL     OW28089   3.068   5.716   1.459  0.2389  0.1793  0.2125
 7081SOL    HW228090   3.149   5.665   1.450  0.9260  1.3411 -0.4604
 7081SOL    HW328091   3.097   5.802   1.490 -0.6562  0.8400 -0.7141
 7081SOL    MW428092   3.082   5.721   1.462 -0.4915 -0.1075  0.1723
 7082SOL     OW28093   5.838   1.918   4.890 -0.3116  0.1907  0.1702
 7082SOL    HW228094   5.878   1.899   4.975 -0.3817  3.2101  0.9900
 7082SOL    HW328095   5.746   1.893   4.899 -0.2217  0.0978  0.8317
 7082SOL    MW428096   5.831   1.913   4.902  0.1841  0.0450  0.7175
 7083SOL     OW28097   2.333   6.020   1.134 -0.1595 -0.3438  0.1111
 7083SOL    HW228098   2.352   6.101   1.182 -4.0175 -0.5346  2.3766
 7083SOL    HW328099   2.268   6.045   1.069  0.7624 -1.1811 -1.1857
 7083SOL    MW428100   2.327   6.034   1.132  0.3438 -0.2089 -0.7800
 7084SOL     OW28101   5.700   3.659   5.948  0.2346 -0.1600 -0.0968
 7084SOL    HW228102   5.752   3.620   6.018 -1.1254 -0.4638  0.7960
 7084SOL    HW328103   5.663   3.738   5.987  0.8655  0.6369 -1.0584
 7084SOL    MW428104   5.702   3.664   5.963 -0.8692  0.0613  0.4010
 7085SOL     OW28105   3.763   0.561   3.490  0.2039 -0.2653 -0.0833
 7085SOL    HW228106   3.831   0.627   3.499  0.8609 -1.1363  1.9920
 7085SOL    HW328107   3.800   0.495   3.433  0.0896  0.4592 -1.0160
 7085SOL    MW428108   3.777   0.561   3.484 -0.2653  0.4088 -0.5109
 7086SOL     OW28109   2.713   5.885   3.219 -0.4647 -0.1820 -0.9081
 7086SOL    HW228110   2.803   5.916   3.226 -0.9449  1.0633  0.0059
 7086SOL    HW328111   2.722   5.795   3.189  1.1058 -0.2296 -0.4163
 7086SOL    MW428112   2.726   5.877   3.216 -0.3117  0.8001  0.1532
 7087SOL     OW28113   1.043   2.786   4.674  0.2035  0.0499  0.2049
 7087SOL    HW228114   1.066   2.879   4.674 -0.3506  0.1973  1.2960
 7087SOL    HW328115   1.078   2.752   4.756 -0.4760 -0.4869  0.2836
 7087SOL    MW428116   1.051   2.793   4.685  0.2304  0.0762  0.0201
 7088SOL     OW28117   5.257   5.872   5.117  0.0349 -0.2478  0.1914
 7088SOL    HW228118   5.302   5.822   5.184 -0.0746 -0.6316 -0.0196
 7088SOL    HW328119   5.297   5.845   5.035  1.1064  1.2054  0.1842
 7088SOL    MW428120   5.268   5.862   5.115  0.1753  0.1974  0.4297
 7089SOL     OW28121   1.869   2.836   1.859 -0.0204  0.1871  0.3984
 7089SOL    HW228122   1.951   2.791   1.877  0.2899  0.6240  0.0807
 7089SOL    HW328123   1.860   2.901   1.930  0.8824  1.4668 -0.6191
 7089SOL    MW428124   1.878   2.839   1.871 -0.4482  0.6600  0.3061
 7090SOL     OW28125   1.344   3.111   3.310  0.7172  0.6360  0.0705
 7090SOL    HW228126   1.321   3.092   3.219 -0.1920  1.5365  0.0870
 7090SOL    HW328127   1.316   3.033   3.358  0.6790  0.3889 -0.3456
 7090SOL    MW428128   1.337   3.098   3.304  0.6646  0.1942 -0.1851
 7091SOL     OW28129   3.264   6.369   2.855 -0.3970  0.0336  0.0077
 7091SOL    HW228130   3.280   6.279   2.883 -1.4650 -0.4919 -0.9913
 7091SOL    HW328131   3.172   6.385   2.876  0.2385  1.5780  1.9136
 7091SOL    MW428132   3.254   6.359   2.862  0.3305 -0.2923  0.1687
 7092SOL     OW28133   2.278   0.298   6.332  0.1229 -0.0752  0.1947
 7092SOL    HW228134   2.313   0.387   6.334 -0.7240  0.2912  2.7695
 7092SOL    HW328135   2.331   0.250   6.395 -0.1574 -1.1200 -0.3392
 7092SOL    MW428136   2.289   0.303   6.340 -0.0212  0.1423 -0.0542
 7093SOL     OW28137   4.017   2.190   0.997  0.2119  0.0777  0.1814
 7093SOL    HW228138   4.044   2.238   0.919 -0.1696 -0.4023 -0.2452
 7093SOL    HW328139   4.037   2.250   1.069  0.9105  0.3770 -0.2466
 7093SOL    MW428140   4.023   2.204   0.997  0.0569  0.6845 -0.3925
 7094SOL     OW28141   1.506   3.331   0.163 -0.0264  0.5391 -0.2631
 7094SOL    HW228142   1.436   3.350   0.101 -0.2573 -0.0437 -0.1884
 7094SOL    HW328143   1.512   3.236   0.164  0.0471  0.5451  0.5282
 7094SOL    MW428144   1.497   3.321   0.155 -0.4051 -0.0813  0.7526
 7095SOL     OW28145   4.421   3.255   5.815  0.2237 -0.3691 -0.3153
 7095SOL    HW228146   4.513   3.232   5.829  0.1781 -0.2303  0.2495
 7095SOL    HW328147   4.374   3.206   5.882 -0.0778 -0.1734 -0.3851
 7095SOL    MW428148   4.427   3.246   5.825 -0.4379 -0.1428  0.2598
 7096SOL     OW28149   2.305   1.691   3.577  0.4615  0.0100  0.8772
 7096SOL    HW228150   2.390   1.717   3.612  0.8199 -0.1768  0.1631
 7096SOL    HW328151   2.251   1.677   3.654  0.8905  0.7545  1.3307
 7096SOL    MW428152   2.309   1.693   3.592  0.6530  0.0550  0.1128
 7097SOL     OW28153   4.476   4.758   3.680 -0.2264 -0.0777  0.0894
 7097SOL    HW228154   4.400   4.715   3.719  0.5469 -1.4991  0.0858
 7097SOL    HW328155   4.441   4.840   3.645 -1.8700 -0.8925 -0.3155
 7097SOL    MW428156   4.461   4.763   3.680 -0.0613  0.1040 -0.7304
 7098SOL     OW28157   6.170   5.709   0.011  0.4729 -0.0592  0.1007
 7098SOL    HW228158   6.106   5.689  -0.057 -0.0669  1.8465 -0.0069
 7098SOL    HW328159   6.124   5.693   0.093 -1.1153  3.5476  0.0979
 7098SOL    MW428160   6.156   5.704   0.013  0.3309 -0.2285  0.6665
 7099SOL     OW28161   6.349   2.121   0.424  0.4058 -0.1099  0.4046
 7099SOL    HW228162   6.282   2.173   0.467  1.2721 -1.4977  3.7014
 7099SOL    HW328163   6.399   2.185   0.372 -0.5926  1.7278  1.5852
 7099SOL    MW428164   6.347   2.136   0.423 -0.1633 -0.8304 -0.0862
 7100SOL     OW28165   0.232   3.593   0.122  0.5850  0.3160  0.0208
 7100SOL    HW228166   0.299   3.544   0.169  0.0417 -0.3895  0.0815
 7100SOL    HW328167   0.252   3.685   0.140  2.1594  0.1744 -0.8185
 7100SOL    MW428168   0.243   3.598   0.130 -0.1412 -0.4764  0.0064
 7101SOL     OW28169   0.888   5.774   6.106 -0.3563 -0.0849  0.5155
 7101SOL    HW228170   0.902   5.788   6.012 -1.3861  1.1676  0.5061
 7101SOL    HW328171   0.911   5.682   6.121 -0.5987 -0.4318 -1.0498
 7101SOL    MW428172   0.893   5.764   6.096  0.2508  0.2756  0.3621
 7102SOL     OW28173   5.462   6.348   1.893  0.0976 -0.5500  0.1228
 7102SOL    HW228174   5.548   6.383   1.917  0.0531  0.3011 -0.8661
 7102SOL    HW328175   5.480   6.278   1.831  0.0685  1.1676 -1.9592
 7102SOL    MW428176   5.476   6.344   1.888  0.2565  0.2535 -0.1654
 7103SOL     OW28177   3.560   3.194   4.429 -0.4273 -0.6072  0.8064
 7103SOL    HW228178   3.532   3.104   4.416 -2.6580  0.4443 -3.0037
 7103SOL    HW328179   3.487   3.247   4.398  2.6605  2.4555 -1.9895
 7103SOL    MW428180   3.547   3.189   4.423  0.3821  0.3833  0.3666
 7104SOL     OW28181   5.141   2.615   4.638 -0.2167  0.3476 -0.6881
 7104SOL    HW228182   5.146   2.710   4.627  2.8395  0.2032 -1.3190
 7104SOL    HW328183   5.146   2.581   4.549 -0.3507 -0.4465 -0.3962
 7104SOL    MW428184   5.142   2.623   4.625  0.3436  0.0598  0.1678
 7105SOL     OW28185   2.421   5.054   0.954 -0.1816  0.2169  0.0762
 7105SOL    HW228186   2.395   5.125   0.896 -2.5855  0.5808  1.4584
 7105SOL    HW328187   2.455   5.098   1.032 -2.1630 -0.0350  1.1537
 7105SOL    MW428188   2.422   5.069   0.957  0.3499 -0.0218  0.1207
 7106SOL     OW28189   2.916   0.157   4.161  0.4308  0.6049 -0.1865
 7106SOL    HW228190   2.887   0.118   4.244  0.4630 -0.2078 -0.5506
 7106SOL    HW328191   2.846   0.218   4.138 -0.9296 -1.1435 -0.9209
 7106SOL    MW428192   2.903   0.160   4.169 -0.1325  0.1043  0.0820
 7107SOL     OW28193   6.088   2.037   1.333 -0.2767  0.6679 -0.5967
 7107SOL    HW228194   5.996   2.063   1.328 -0.2010  0.9443 -0.5285
 7107SOL    HW328195   6.097   1.970   1.264 -1.2611 -1.6038  1.3451
 7107SOL    MW428196   6.077   2.031   1.323 -1.0997 -0.3279  0.4589
 7108SOL     OW28197   4.444   0.736   1.974  0.1561  0.4972 -0.4092
 7108SOL    HW228198   4.452   0.663   2.035  1.4248  2.2845  1.6888
 7108SOL    HW328199   4.382   0.795   2.016  1.3406  1.9417 -0.6403
 7108SOL    MW428200   4.437   0.734   1.988  0.5333  0.0944 -0.0425
 7109SOL     OW28201   2.680   1.724   4.378 -0.3373  0.4845  0.4227
 7109SOL    HW228202   2.585   1.728   4.367 -0.5827 -2.7175  0.1931
 7109SOL    HW328203   2.715   1.741   4.291 -0.8894 -0.5648 -0.0294
 7109SOL    MW428204   2.673   1.727   4.365 -0.1126  0.0186  0.7403
 7110SOL     OW28205   6.205   1.932   1.052  0.8286  0.1484  0.1516
 7110SOL    HW228206   6.143   1.999   1.022  1.6456  0.7300 -0.2888
 7110SOL    HW328207   6.291   1.969   1.032  1.2835 -1.7773 -1.7489
 7110SOL    MW428208   6.208   1.946   1.045  0.2628  0.3070 -0.1105
 7111SOL     OW28209   1.788   6.320   1.376 -0.2934 -1.1062  0.5010
 7111SOL    HW228210   1.718   6.385   1.389 -0.9782 -1.6000 -0.6146
 7111SOL    HW328211   1.826   6.310   1.463 -1.5924 -0.7927  1.1390
 7111SOL    MW428212   1.784   6.328   1.389 -0.1454  0.0455 -0.6164
 7112SOL     OW28213   6.404   4.266   0.962  0.1651  0.4123 -0.4085
 7112SOL    HW228214   6.320   4.309   0.943 -0.1145 -0.3663 -0.9968
 7112SOL    HW328215   6.431   4.229   0.878 -0.4876 -2.0610  0.3730
 7112SOL    MW428216   6.396   4.267   0.949  0.0235 -0.2482  0.1577
 7113SOL     OW28217   3.927   1.934   2.284  0.0419 -0.3287 -0.1080
 7113SOL    HW228218   3.967   1.851   2.258 -0.4279 -0.4647 -0.4144
 7113SOL    HW328219   3.921   1.930   2.379  1.4923  0.0334  0.0216
 7113SOL    MW428220   3.932   1.923   2.293  0.8831  0.0477  0.8423
 7114SOL     OW28221   5.065   3.687   2.737  0.0094 -0.1581 -0.2113
 7114SOL    HW228222   5.039   3.712   2.648 -0.3545 -0.7404 -0.2713
 7114SOL    HW328223   5.139   3.628   2.725 -0.1624 -0.3898 -0.1368
 7114SOL    MW428224   5.071   3.683   2.723  0.5840 -0.1956  0.3600
 7115SOL     OW28225   4.299   6.310   6.425 -0.2050 -0.2684  0.0518
 7115SOL    HW228226   4.313   6.328   6.518  0.6179  1.1256 -0.3102
 7115SOL    HW328227   4.293   6.396   6.384  0.4616 -0.8380 -1.3284
 7115SOL    MW428228   4.300   6.324   6.431 -0.5060  0.0308  0.4347
 7116SOL     OW28229   1.526   2.368   4.144  0.1411  0.4018 -0.2472
 7116SOL    HW228230   1.576   2.332   4.218 -0.3506 -0.1982 -0.2035
 7116SOL    HW328231   1.522   2.461   4.162  2.0383  0.6255 -0.7075
 7116SOL    MW428232   1.532   2.375   4.156  0.4076 -0.4658 -0.4162
 7117SOL     OW28233   1.363   2.334   3.461 -0.0982  0.7818  0.2332
 7117SOL    HW228234   1.351   2.239   3.461 -1.1397  0.8729 -1.5693
 7117SOL    HW328235   1.441   2.349   3.408  0.8915  0.8862  1.6705
 7117SOL    MW428236   1.372   2.324   3.454 -0.2770 -0.5108 -0.1114
 7118SOL     OW28237   5.460   0.619   3.518 -0.2029 -0.1216 -0.3287
 7118SOL    HW228238   5.425   0.557   3.582  1.0052  2.4010  3.0518
 7118SOL    HW328239   5.385   0.673   3.494 -0.5158 -0.6276 -0.5231
 7118SOL    MW428240   5.446   0.618   3.523 -0.6173  0.1752  0.2176
 7119SOL     OW28241   0.721   3.343   0.539 -0.1431 -0.2116  0.0023
 7119SOL    HW228242   0.714   3.436   0.561 -0.3522 -0.2777  0.2130
 7119SOL    HW328243   0.636   3.320   0.502  0.7453  0.3364 -2.5893
 7119SOL    MW428244   0.709   3.352   0.537  0.0889  0.2760 -0.0284
 7120SOL     OW28245   3.627   5.036   5.593 -0.1416 -0.1634  0.0617
 7120SOL    HW228246   3.586   5.100   5.536  0.2141 -0.7400 -0.8650
 7120SOL    HW328247   3.658   4.967   5.534  2.1757  0.2602  0.6898
 7120SOL    MW428248   3.626   5.035   5.578 -0.3685  0.2807  0.9008
 7121SOL     OW28249   5.526   0.343   4.117 -0.4013 -0.3476 -0.0294
 7121SOL    HW228250   5.487   0.261   4.087 -0.7529  0.3908 -1.7183
 7121SOL    HW328251   5.451   0.396   4.145 -0.2539 -0.3125  0.2991
 7121SOL    MW428252   5.511   0.339   4.116 -0.3309  0.1521  0.5955
 7122SOL     OW28253   0.217   3.704   0.417  0.1683  0.0266 -0.3041
 7122SOL    HW228254   0.183   3.620   0.447  0.6263 -0.2321 -0.5037
 7122SOL    HW328255   0.152   3.734   0.353 -0.4062  0.2087  0.3468
 7122SOL    MW428256   0.204   3.697   0.413 -0.1929  0.2151  0.0385
 7123SOL     OW28257   1.714   0.756   5.049  0.0368  0.0535  0.1835
 7123SOL    HW228258   1.622   0.745   5.075  0.2705 -1.0022  0.6088
 7123SOL    HW328259   1.764   0.709   5.116  1.1845  3.6117  2.0924
 7123SOL    MW428260   1.708   0.749   5.061  0.1503  0.1345 -0.0475
 7124SOL     OW28261   3.732   0.826   5.386 -0.0065  0.0062  0.0538
 7124SOL    HW228262   3.822   0.795   5.384  0.2282  0.1991  3.3824
 7124SOL    HW328263   3.680   0.747   5.404 -0.1309  0.4123  1.5363
 7124SOL    MW428264   3.737   0.811   5.388  0.1426  0.1041  0.2414
 7125SOL     OW28265   0.657   1.336   1.466  0.9602  0.2200 -0.8060
 7125SOL    HW228266   0.752   1.330   1.458  0.9047 -1.9825 -0.2677
 7125SOL    HW328267   0.625   1.324   1.376  1.1120 -2.7331 -0.5431
 7125SOL    MW428268   0.666   1.334   1.453  0.2721  0.0580 -0.0633
 7126SOL     OW28269   1.116   1.184   2.461  0.2424  0.5549  0.1215
 7126SOL    HW228270   1.176   1.200   2.387  1.6517  0.0686  1.1096
 7126SOL    HW328271   1.127   1.091   2.480 -2.0905  0.0454 -0.6906
 7126SOL    MW428272   1.126   1.174   2.453 -0.3365 -0.1184  0.2104
 7127SOL     OW28273   6.210   1.203   3.211  0.3114 -0.2446  0.3852
 7127SOL    HW228274   6.245   1.216   3.299 -0.2806  0.1502  0.5641
 7127SOL    HW328275   6.116   1.219   3.219  0.2470 -0.2157 -0.3187
 7127SOL    MW428276   6.202   1.207   3.223 -0.0041  0.1329  0.3046
 7128SOL     OW28277   1.101   1.871   6.142 -0.6647 -0.2998  0.1600
 7128SOL    HW228278   1.022   1.840   6.186 -1.8828 -0.7678 -2.2180
 7128SOL    HW328279   1.127   1.799   6.085  1.6728 -0.2375  1.0145
 7128SOL    MW428280   1.094   1.858   6.141  0.2005 -0.1009  0.2435
 7129SOL     OW28281   1.387   6.192   6.242  0.0288 -0.6143 -0.2361
 7129SOL    HW228282   1.362   6.100   6.239  0.5028 -0.7113 -2.3988
 7129SOL    HW328283   1.321   6.237   6.189 -1.9458  0.8319  3.0923
 7129SOL    MW428284   1.375   6.186   6.235  0.0596  0.2879 -0.2620
 7130SOL     OW28285   2.285   3.096   1.785  0.0635 -0.0903  0.6482
 7130SOL    HW228286   2.243   3.028   1.733  0.7037 -1.2056  1.5338
 7130SOL    HW328287   2.373   3.063   1.802  0.9333  1.6887 -0.2102
 7130SOL    MW428288   2.291   3.082   1.781 -0.2744 -0.3340 -0.7269
 7131SOL     OW28289   2.207   4.082   3.096  0.2536 -0.7581 -0.3547
 7131SOL    HW228290   2.143   4.050   3.159  0.9703 -0.0364  0.7953
 7131SOL    HW328291   2.157   4.101   3.017 -0.6408 -1.8508 -0.0646
 7131SOL    MW428292   2.192   4.081   3.094  0.0854 -0.3362  0.6257
 7132SOL     OW28293   4.606   3.218   3.319  0.6125  0.2924  0.0461
 7132SOL    HW228294   4.697   3.238   3.298  0.5545  0.9895  0.4496
 7132SOL    HW328295   4.596   3.242   3.411  0.4406 -1.2884  0.4737
 7132SOL    MW428296   4.617   3.223   3.328  0.0943  0.4438  0.1539
 7133SOL     OW28297   5.516   4.268   3.069  0.0487 -0.4762 -0.2629
 7133SOL    HW228298   5.515   4.196   3.133  0.8091 -1.3923 -1.2503
 7133SOL    HW328299   5.429   4.307   3.076 -0.0527 -0.8641  0.9804
 7133SOL    MW428300   5.504   4.263   3.079 -0.6361 -0.5222  0.3618
 7134SOL     OW28301   6.173   0.148   0.810  0.3514  0.3682 -0.1371
 7134SOL    HW228302   6.102   0.207   0.785  0.4636  0.5785  0.0342
 7134SOL    HW328303   6.250   0.204   0.816  0.4950  0.1723 -0.1460
 7134SOL    MW428304   6.174   0.163   0.808  0.6070 -0.4205 -0.3374
 7135SOL     OW28305   4.214   1.472   0.879  0.0565 -0.4482  0.6510
 7135SOL    HW228306   4.292   1.454   0.826 -0.0950 -0.1402  0.3175
 7135SOL    HW328307   4.160   1.394   0.870  0.4664 -0.7989  1.1467
 7135SOL    MW428308   4.217   1.460   0.871 -0.0643  0.2954  0.4455
 7136SOL     OW28309   6.363   1.706   3.008 -0.5587  0.0413  0.0044
 7136SOL    HW228310   6.370   1.645   2.934 -1.1434  0.1565 -0.1557
 7136SOL    HW328311   6.272   1.738   3.004 -0.7385 -0.2956  1.0360
 7136SOL    MW428312   6.352   1.702   2.998 -0.0176  0.5237  0.3164
 7137SOL     OW28313   1.247   2.029   4.798  0.2385  0.1188 -0.5348
 7137SOL    HW228314   1.258   2.068   4.885  1.4191  0.6520 -0.8885
 7137SOL    HW328315   1.232   1.936   4.815  0.7318  0.1675  0.2340
 7137SOL    MW428316   1.247   2.022   4.812 -0.1250  0.0823 -0.1217
 7138SOL     OW28317   3.259   1.407   6.253 -0.1628  0.0001 -0.4441
 7138SOL    HW228318   3.333   1.453   6.292  0.1120  0.2777 -1.2531
 7138SOL    HW328319   3.197   1.477   6.231 -1.7971 -0.3989  2.4162
 7138SOL    MW428320   3.260   1.423   6.255 -0.1255 -0.3178  0.2984
 7139SOL     OW28321   2.866   0.102   2.322  0.0502  0.0639 -0.0452
 7139SOL    HW228322   2.887   0.166   2.390  1.8941  0.0933 -0.5937
 7139SOL    HW328323   2.837   0.155   2.248  1.5127  0.2939 -0.4777
 7139SOL    MW428324   2.865   0.118   2.321  0.1367  0.5243  0.1673
 7140SOL     OW28325   1.900   5.037   6.115 -0.1030 -0.4063  0.1101
 7140SOL    HW228326   1.923   5.129   6.114 -1.0205 -0.1739 -0.2186
 7140SOL    HW328327   1.804   5.035   6.116 -0.1012 -1.3506 -0.0278
 7140SOL    MW428328   1.890   5.049   6.115 -0.6103  0.2111 -0.1319
 7141SOL     OW28329   5.952   3.912   1.529 -0.2610  0.6100  0.5607
 7141SOL    HW228330   5.863   3.944   1.543  0.6806  3.3717  0.9067
 7141SOL    HW328331   6.007   3.973   1.579  1.8734 -0.5849 -0.2194
 7141SOL    MW428332   5.948   3.924   1.538 -0.1723  0.1778  0.3275
 7142SOL     OW28333   2.487   2.406   4.660 -0.5843  0.2226 -0.0821
 7142SOL    HW228334   2.437   2.334   4.700 -0.2822  0.2366  0.3210
 7142SOL    HW328335   2.573   2.402   4.702 -0.4295  0.5575 -0.3637
 7142SOL    MW428336   2.492   2.396   4.671 -0.3614 -0.1741 -0.1616
 7143SOL     OW28337   3.288   0.460   1.811  0.2166  0.0294  0.2118
 7143SOL    HW228338   3.300   0.555   1.802 -0.8300  0.2207  0.7237
 7143SOL    HW328339   3.299   0.444   1.905 -0.3661 -0.2428  0.2338
 7143SOL    MW428340   3.291   0.471   1.823  0.0295 -0.0367  0.0295
 7144SOL     OW28341   5.582   2.596   5.684 -0.2213 -0.3739 -0.3534
 7144SOL    HW228342   5.490   2.623   5.689 -0.2873 -0.7928  0.9994
 7144SOL    HW328343   5.578   2.504   5.656 -0.3770 -1.1740  2.0954
 7144SOL    MW428344   5.569   2.587   5.681  0.7257  0.1403 -0.2378
 7145SOL     OW28345   4.335   4.434   2.908 -0.1315 -0.2250 -0.7025
 7145SOL    HW228346   4.244   4.457   2.927 -0.0861  0.3459 -1.1585
 7145SOL    HW328347   4.339   4.429   2.813  0.0726 -1.2709 -0.6532
 7145SOL    MW428348   4.324   4.436   2.898  0.7825 -0.2390 -0.1905
 7146SOL     OW28349   2.402   5.000   3.834  0.3681  0.3059 -0.4164
 7146SOL    HW228350   2.338   4.975   3.901  0.7050 -0.5471 -0.3946
 7146SOL    HW328351   2.428   5.089   3.857  0.4916  0.0201  0.5988
 7146SOL    MW428352   2.397   5.008   3.845  0.4890  0.2366 -0.1775
 7147SOL     OW28353   1.053   4.847   2.500 -0.0919 -0.6676 -0.4421
 7147SOL    HW228354   0.969   4.801   2.500 -0.5035 -0.0428  2.0855
 7147SOL    HW328355   1.112   4.788   2.453 -1.7952 -1.3184 -1.9052
 7147SOL    MW428356   1.050   4.833   2.494  0.1355  0.8608  0.3053
 7148SOL     OW28357   5.546   6.166   1.319  0.1635 -0.0032 -0.1159
 7148SOL    HW228358   5.618   6.165   1.383 -0.6603 -0.1513  0.8308
 7148SOL    HW328359   5.468   6.182   1.372 -0.3439  1.6028 -1.2996
 7148SOL    MW428360   5.545   6.168   1.335  0.1044  0.4682 -0.4448
 7149SOL     OW28361   5.523   1.309   6.084 -0.1779  0.1680 -0.5924
 7149SOL    HW228362   5.463   1.378   6.109  0.0207  0.3046 -0.4917
 7149SOL    HW328363   5.490   1.278   5.999 -1.0365 -0.5225 -0.0225
 7149SOL    MW428364   5.511   1.314   6.076  0.1124  0.6755 -0.4268
 7150SOL     OW28365   0.879   3.304   2.123 -0.0534  0.0843  0.0532
 7150SOL    HW228366   0.974   3.312   2.137 -0.0033  1.1562 -0.7384
 7150SOL    HW328367   0.870   3.224   2.071  0.5232  0.4240 -0.5997
 7150SOL    MW428368   0.890   3.295   2.118  0.2133 -0.2392 -0.1572
 7151SOL     OW28369   3.248   3.626   1.180 -0.7336  0.0863 -0.3071
 7151SOL    HW228370   3.250   3.654   1.089  0.4725  0.1868 -0.2568
 7151SOL    HW328371   3.334   3.587   1.196 -0.9218  0.0862  0.7912
 7151SOL    MW428372   3.259   3.625   1.170 -0.0306  0.4197 -0.4115
 7152SOL     OW28373   0.175   5.447   5.267 -0.1957 -0.0510 -0.2159
 7152SOL    HW228374   0.176   5.366   5.318 -0.7535  0.1459  0.1151
 7152SOL    HW328375   0.199   5.515   5.330 -0.6727  0.1657 -0.2647
 7152SOL    MW428376   0.178   5.445   5.282 -0.4394  0.3966 -0.1210
 7153SOL     OW28377   4.490   5.469   6.307  0.1536  0.8722  0.4307
 7153SOL    HW228378   4.570   5.517   6.331  0.9362  0.2384 -0.8223
 7153SOL    HW328379   4.501   5.448   6.214 -1.0128 -0.1285  0.4893
 7153SOL    MW428380   4.502   5.473   6.298 -0.2352 -0.3637 -0.5346
 7154SOL     OW28381   1.770   0.070   0.423 -0.3287 -0.0779 -0.2990
 7154SOL    HW228382   1.839   0.080   0.489 -0.5142  0.2749 -0.1582
 7154SOL    HW328383   1.736  -0.018   0.438 -1.0624  0.3677  0.7502
 7154SOL    MW428384   1.775   0.060   0.434  0.4891  0.2135  0.3626
 7155SOL     OW28385   2.603   0.993   5.170 -0.2763 -0.2065 -0.3011
 7155SOL    HW228386   2.565   0.909   5.145  0.9900 -0.4753 -1.4281
 7155SOL    HW328387   2.676   1.005   5.110 -0.4178  1.7084 -0.1522
 7155SOL    MW428388   2.607   0.984   5.159 -0.7041  0.1946  0.1798
 7156SOL     OW28389   2.927   0.101   3.868  0.3985  0.2058 -0.7195
 7156SOL    HW228390   2.950   0.012   3.845 -0.7150 -0.5899  1.0270
 7156SOL    HW328391   2.954   0.111   3.959 -0.9152  1.1089 -0.3899
 7156SOL    MW428392   2.934   0.091   3.877 -0.0959 -0.1391 -0.3031
 7157SOL     OW28393   1.082   2.325   3.405 -0.4628  0.2351 -0.1105
 7157SOL    HW228394   1.071   2.287   3.318  0.8220 -1.2664  0.3489
 7157SOL    HW328395   1.176   2.321   3.421 -0.5955  1.2146  1.0466
 7157SOL    MW428396   1.093   2.320   3.396  0.3223  0.1655 -0.3936
 7158SOL     OW28397   5.304   4.908   1.731 -0.1797 -0.3140  0.0532
 7158SOL    HW228398   5.335   4.949   1.811  0.2893 -1.2578  0.3683
 7158SOL    HW328399   5.265   4.980   1.680 -1.6580  0.0902  1.6757
 7158SOL    MW428400   5.303   4.923   1.735 -0.0261 -0.4026  0.0749
 7159SOL     OW28401   2.600   3.506   2.956 -0.0884  0.0962 -0.5649
 7159SOL    HW228402   2.693   3.483   2.955 -0.0663  0.1915 -0.6941
 7159SOL    HW328403   2.578   3.513   3.049  0.1040  0.3605 -0.5383
 7159SOL    MW428404   2.610   3.504   2.968  0.6558  0.3089 -0.2021
 7160SOL     OW28405   3.186   6.282   3.968  0.1207 -0.1642 -0.9991
 7160SOL    HW228406   3.125   6.217   4.002 -0.5617 -0.3049 -2.4306
 7160SOL    HW328407   3.272   6.242   3.980 -0.1119 -0.3542  0.1856
 7160SOL    MW428408   3.189   6.268   3.974 -0.3288 -0.4878  0.9713
 7161SOL     OW28409   5.020   0.663   1.336  0.1455  0.9510  0.7723
 7161SOL    HW228410   5.104   0.707   1.352  0.9150 -0.3498  0.4486
 7161SOL    HW328411   4.958   0.709   1.392  1.0943  1.8916  1.0757
 7161SOL    MW428412   5.023   0.675   1.346  0.3403  0.0575 -0.3755
 7162SOL     OW28413   3.528   5.796   2.456  0.1717  0.6483 -0.4317
 7162SOL    HW228414   3.578   5.830   2.382 -0.4058  1.8624 -0.2836
 7162SOL    HW328415   3.450   5.757   2.416  0.4059  0.2882 -0.5396
 7162SOL    MW428416   3.524   5.795   2.441 -0.0490 -0.4562  0.3847
 7163SOL     OW28417   3.231   1.248   4.571  0.0798 -0.3535 -0.0886
 7163SOL    HW228418   3.240   1.329   4.621 -0.9894  0.8069 -1.6845
 7163SOL    HW328419   3.158   1.265   4.512  1.4395 -1.5717 -2.2179
 7163SOL    MW428420   3.222   1.261   4.570 -0.7087  0.2176 -0.4605
 7164SOL     OW28421   6.338   0.161   5.785  0.5850  0.1116 -0.5871
 7164SOL    HW228422   6.397   0.092   5.814 -0.4640 -0.1893  0.9781
 7164SOL    HW328423   6.286   0.120   5.715 -0.8426 -1.1562  1.1224
 7164SOL    MW428424   6.339   0.147   5.780 -0.6790  0.0090 -0.0048
 7165SOL     OW28425   1.088   0.547   1.323  0.2519 -0.3674 -0.0909
 7165SOL    HW228426   1.119   0.635   1.300  0.4111 -0.5975 -0.8066
 7165SOL    HW328427   1.077   0.549   1.418 -0.5609  0.6822 -0.1921
 7165SOL    MW428428   1.091   0.558   1.332 -0.0717 -0.3415 -0.1779
 7166SOL     OW28429   5.727   4.432   5.810 -0.3281  0.3721 -0.4904
 7166SOL    HW228430   5.637   4.421   5.781 -0.3417  0.5544 -0.5166
 7166SOL    HW328431   5.740   4.362   5.875 -0.3489  0.0720 -0.8043
 7166SOL    MW428432   5.717   4.421   5.815 -0.4988  0.0069  0.0004
 7167SOL     OW28433   0.226   1.809   1.689  0.0204 -0.0100 -0.1463
 7167SOL    HW228434   0.278   1.788   1.766 -1.1604  0.5819  0.8583
 7167SOL    HW328435   0.289   1.814   1.617  1.3017  0.4825  0.9792
 7167SOL    MW428436   0.241   1.807   1.690 -0.3595 -0.3906  0.0483
 7168SOL     OW28437   2.439   3.441   2.372  0.7100  0.3701 -0.4474
 7168SOL    HW228438   2.349   3.433   2.405  0.9716 -3.2590 -0.2452
 7168SOL    HW328439   2.432   3.421   2.278  1.2776  0.3812 -0.4960
 7168SOL    MW428440   2.426   3.437   2.364  0.6860  0.1964 -0.0818
 7169SOL     OW28441   6.153   2.808   4.602 -0.2817  0.2570 -0.3429
 7169SOL    HW228442   6.173   2.716   4.587  1.4494  0.7535 -1.4125
 7169SOL    HW328443   6.065   2.820   4.567 -0.5003 -0.9654 -0.2514
 7169SOL    MW428444   6.144   2.798   4.595  0.8778  0.5589 -0.6303
 7170SOL     OW28445   3.965   0.928   2.496 -0.1579 -0.1707  0.2260
 7170SOL    HW228446   4.044   0.982   2.501  0.5719 -1.3135  2.7121
 7170SOL    HW328447   3.896   0.982   2.536 -0.1298  0.0145  0.0259
 7170SOL    MW428448   3.966   0.942   2.502  0.1189 -0.1207  0.0606
 7171SOL     OW28449   0.821   6.459   1.645  0.0420 -0.1773  0.3191
 7171SOL    HW228450   0.873   6.473   1.724 -0.8790 -0.1889  0.9327
 7171SOL    HW328451   0.775   6.542   1.632  0.3926 -0.0784 -0.3732
 7171SOL    MW428452   0.822   6.472   1.654 -0.6883 -0.1977 -0.8062
 7172SOL     OW28453   6.030   2.694   4.303  0.3937  0.7615  0.1013
 7172SOL    HW228454   5.977   2.767   4.336 -0.3872  0.0093  0.5677
 7172SOL    HW328455   6.117   2.730   4.292  0.2998  1.4616  1.4529
 7172SOL    MW428456   6.034   2.709   4.306 -0.1589 -0.4997  0.2448
 7173SOL     OW28457   5.757   1.180   1.232 -0.2121  0.3851  0.0479
 7173SOL    HW228458   5.799   1.263   1.254 -1.4445  0.3973  2.8097
 7173SOL    HW328459   5.830   1.122   1.207  1.1917  1.1446  2.1136
 7173SOL    MW428460   5.772   1.183   1.232  0.0858  0.0439  0.3936
 7174SOL     OW28461   3.144   3.491   6.342  0.1341 -0.2383 -0.8169
 7174SOL    HW228462   3.075   3.426   6.326 -1.6328  1.2856  0.2196
 7174SOL    HW328463   3.153   3.493   6.438  1.3989 -0.1441 -0.9142
 7174SOL    MW428464   3.136   3.483   6.353  0.0852  0.3352  0.0244
 7175SOL     OW28465   3.555   5.753   0.621  0.3419 -0.1469  0.4292
 7175SOL    HW228466   3.567   5.841   0.587  0.9340 -0.6129 -0.5999
 7175SOL    HW328467   3.480   5.718   0.574  1.9040 -1.2357 -1.4033
 7175SOL    MW428468   3.547   5.760   0.610  0.2863  0.1904 -0.1180
 7176SOL     OW28469   5.905   0.658   4.950 -0.4952 -0.3817  0.1388
 7176SOL    HW228470   5.960   0.612   4.887 -0.6152 -1.0337  0.4962
 7176SOL    HW328471   5.822   0.672   4.905 -1.4360 -2.9696  0.8838
 7176SOL    MW428472   5.901   0.654   4.936 -0.0659 -0.1259  0.0935
 7177SOL     OW28473   3.287   0.804   5.286 -0.6756 -0.2213 -0.7821
 7177SOL    HW228474   3.362   0.864   5.285 -0.1158 -0.8044  1.2528
 7177SOL    HW328475   3.252   0.809   5.197  0.0869  2.1622 -1.0309
 7177SOL    MW428476   3.293   0.813   5.274  0.2724 -0.3730 -0.0760
 7178SOL     OW28477   3.906   0.114   1.881 -0.2087 -0.5467 -0.0712
 7178SOL    HW228478   3.945   0.179   1.940 -1.7016  0.6832 -0.3492
 7178SOL    HW328479   3.979   0.081   1.829  0.8655 -0.3824  1.2773
 7178SOL    MW428480   3.921   0.118   1.882 -0.3889  0.0133 -0.4369
 7179SOL     OW28481   4.884   2.205   3.393  0.1434 -0.2642  0.3267
 7179SOL    HW228482   4.892   2.110   3.403 -1.7926 -0.4156  0.8063
 7179SOL    HW328483   4.797   2.225   3.427  0.7720  1.7829  0.8641
 7179SOL    MW428484   4.874   2.195   3.399 -0.3104  0.1695  0.2250
 7180SOL     OW28485   3.360   5.857   2.200 -0.1994  0.0316 -0.1612
 7180SOL    HW228486   3.294   5.840   2.268  2.4549 -0.8857  2.4319
 7180SOL    HW328487   3.381   5.770   2.166 -0.2332  0.3046 -0.8802
 7180SOL    MW428488   3.354   5.843   2.205 -0.2202  1.0702 -0.3772
 7181SOL     OW28489   2.689   5.142   2.888 -0.4022 -0.0415  0.5107
 7181SOL    HW228490   2.728   5.090   2.958  1.0213  0.8418  0.4044
 7181SOL    HW328491   2.682   5.082   2.814  0.2123 -0.3718  0.7184
 7181SOL    MW428492   2.693   5.127   2.887  0.1996 -0.2877  0.1719
 7182SOL     OW28493   3.973   1.747   3.648 -0.6579 -0.0107 -0.1899
 7182SOL    HW228494   3.929   1.662   3.648 -0.5748 -0.1606  3.0014
 7182SOL    HW328495   3.936   1.793   3.723  0.2157  2.3212 -1.0910
 7182SOL    MW428496   3.962   1.742   3.658  0.5151 -0.3572  0.2372
 7183SOL     OW28497   2.402   5.939   3.225 -0.3891 -0.1194 -0.4779
 7183SOL    HW228498   2.491   5.908   3.238 -0.8255 -0.8105  1.1588
 7183SOL    HW328499   2.364   5.879   3.161 -0.3917 -1.3327  0.6226
 7183SOL    MW428500   2.408   5.927   3.218 -0.0680 -0.3441 -0.4757
 7184SOL     OW28501   5.330   0.939   0.047  0.1377  0.1969 -0.0411
 7184SOL    HW228502   5.256   0.935   0.108 -0.3524  2.0552 -0.4475
 7184SOL    HW328503   5.329   0.854   0.003 -0.8119 -0.3767  1.0381
 7184SOL    MW428504   5.320   0.927   0.049  0.3524 -0.2499 -0.1294
 7185SOL     OW28505   1.170   2.604   1.656  0.6286  0.0389 -0.0650
 7185SOL    HW228506   1.130   2.531   1.702  0.4524  0.0558 -0.1854
 7185SOL    HW328507   1.155   2.680   1.713  1.0910 -0.0749  0.2054
 7185SOL    MW428508   1.163   2.605   1.669  0.5322  0.2372  0.3815
 7186SOL     OW28509   1.203   3.019   4.194 -0.3998 -0.0517 -0.6286
 7186SOL    HW228510   1.113   2.985   4.198 -0.3158 -0.3390 -1.0661
 7186SOL    HW328511   1.209   3.078   4.268 -0.5016 -1.1077  0.2451
 7186SOL    MW428512   1.192   3.022   4.204  0.0642  0.2161  0.3253
 7187SOL     OW28513   1.993   4.596   2.240  0.1721  0.2536 -0.3999
 7187SOL    HW228514   2.002   4.676   2.188 -0.6899 -0.9462 -2.5460
 7187SOL    HW328515   1.996   4.525   2.175 -0.6528 -1.3809  1.2550
 7187SOL    MW428516   1.995   4.597   2.224 -0.4760  0.1329  0.4848
 7188SOL     OW28517   2.184   0.956   5.044 -0.1388  0.3347  0.0310
 7188SOL    HW228518   2.253   0.915   4.993 -0.4064 -1.4764  0.9998
 7188SOL    HW328519   2.133   1.006   4.981  1.4768  0.9134 -0.8508
 7188SOL    MW428520   2.186   0.957   5.029  0.5935  0.1451  0.1157
 7189SOL     OW28521   1.441   0.367   4.488 -0.1025  0.3210  0.4317
 7189SOL    HW228522   1.470   0.311   4.417  0.3907  0.5164  0.4753
 7189SOL    HW328523   1.359   0.326   4.519  0.5160 -0.6723  0.8082
 7189SOL    MW428524   1.434   0.354   4.483  0.0104  0.1404 -0.3018
 7190SOL     OW28525   2.277   2.736   3.497 -0.3203  0.5682  0.8988
 7190SOL    HW228526   2.303   2.788   3.572 -1.2627  2.7038 -0.1758
 7190SOL    HW328527   2.213   2.674   3.532 -1.0964  1.8311  1.7898
 7190SOL    MW428528   2.272   2.734   3.511  0.0181 -0.2360  0.0058
 7191SOL     OW28529   3.419   4.976   3.517 -0.2378 -0.1325 -0.7885
 7191SOL    HW228530   3.335   5.016   3.540 -0.1434 -0.1937 -0.3281
 7191SOL    HW328531   3.399   4.883   3.504 -0.2432 -0.1467 -0.6811
 7191SOL    MW428532   3.405   4.969   3.518 -0.0670 -0.9554  0.5657
 7192SOL     OW28533   3.701   2.853   1.636 -0.4627  0.1959 -0.0968
 7192SOL    HW228534   3.694   2.785   1.703 -0.5507  0.2624 -0.0383
 7192SOL    HW328535   3.749   2.925   1.679 -2.5014  1.1810  0.6530
 7192SOL    MW428536   3.707   2.854   1.651 -0.0970  0.0404 -0.0399
 7193SOL     OW28537   3.006   5.131   0.090 -0.0425  0.2003  0.5617
 7193SOL    HW228538   2.964   5.117   0.175  0.9439 -2.1317  0.7349
 7193SOL    HW328539   3.099   5.121   0.106  0.0670 -3.4418 -1.1704
 7193SOL    MW428540   3.012   5.128   0.103  0.2493  0.0670 -0.0574
 7194SOL     OW28541   4.383   4.333   3.248 -0.6653  0.2227  0.3313
 7194SOL    HW228542   4.419   4.251   3.282 -1.0524  0.4068  1.2191
 7194SOL    HW328543   4.455   4.372   3.198 -0.7862 -1.1160 -0.9586
 7194SOL    MW428544   4.397   4.327   3.246  0.4932  0.6383  0.5485
 7195SOL     OW28545   1.778   3.439   3.611 -0.0764  0.1456  0.5209
 7195SOL    HW228546   1.851   3.495   3.636  0.2834  0.4543 -1.1176
 7195SOL    HW328547   1.815   3.351   3.604  0.5700  0.5515 -1.8931
 7195SOL    MW428548   1.792   3.435   3.613 -0.5963 -0.2235 -0.1832
 7196SOL     OW28549   3.797   3.218   1.189  0.0199 -0.0049  0.1453
 7196SOL    HW228550   3.826   3.146   1.133  2.8901 -0.6221  2.1775
 7196SOL    HW328551   3.711   3.191   1.221  0.2414 -1.6437 -0.5655
 7196SOL    MW428552   3.789   3.205   1.186  0.0460  0.1015  0.4321
 7197SOL     OW28553   5.594   0.953   5.087 -0.1242 -0.0693  0.2589
 7197SOL    HW228554   5.629   0.967   5.175 -0.1013 -0.4077  0.3037
 7197SOL    HW328555   5.507   0.916   5.100  0.8884 -2.7045  0.1688
 7197SOL    MW428556   5.587   0.950   5.100  0.1520  0.2020 -0.3908
 7198SOL     OW28557   5.724   2.393   1.959  0.3469 -0.0240  0.1955
 7198SOL    HW228558   5.699   2.437   2.040  0.7383 -1.6128  1.2216
 7198SOL    HW328559   5.644   2.352   1.928 -0.4497  2.6777 -1.6996
 7198SOL    MW428560   5.710   2.393   1.965  0.1032  0.8599  0.1567
 7199SOL     OW28561   2.923   3.384   4.546  0.1248 -0.4886  0.2121
 7199SOL    HW228562   2.909   3.340   4.462 -1.0938 -0.2445  0.2769
 7199SOL    HW328563   2.963   3.318   4.601  2.1306 -0.3039 -0.9060
 7199SOL    MW428564   2.927   3.370   4.542  0.0734  0.2775  0.4344
 7200SOL     OW28565   6.209   3.924   1.170 -0.3365  0.5840 -0.1896
 7200SOL    HW228566   6.303   3.939   1.161 -0.0348 -0.3157  1.1971
 7200SOL    HW328567   6.179   3.992   1.230 -0.7371  1.3650 -1.2554
 7200SOL    MW428568   6.218   3.935   1.177  0.1747  0.1036 -0.1517
 7201SOL     OW28569   1.465   4.341   1.937 -0.4455  0.4250  0.5757
 7201SOL    HW228570   1.459   4.248   1.960 -0.7548  0.2992 -0.0199
 7201SOL    HW328571   1.559   4.357   1.931 -0.3494  0.4437  1.8543
 7201SOL    MW428572   1.477   4.330   1.940  0.6010  0.3206  0.5056
 7202SOL     OW28573   1.438   4.805   5.959  0.3461 -0.1939 -0.1440
 7202SOL    HW228574   1.378   4.872   5.990  1.2140  0.6192 -0.1800
 7202SOL    HW328575   1.522   4.850   5.950  0.8508 -1.1861 -0.5654
 7202SOL    MW428576   1.441   4.819   5.962 -0.4176  0.3741  0.3593
 7203SOL     OW28577   3.451   1.740   6.230 -0.4006  0.4001  0.4846
 7203SOL    HW228578   3.517   1.689   6.183 -0.7373 -0.1856  0.6278
 7203SOL    HW328579   3.442   1.696   6.315  0.7170  1.8687  1.4068
 7203SOL    MW428580   3.458   1.727   6.235 -0.0486  0.4112  0.1686
 7204SOL     OW28581   3.654   0.271   0.179  0.3144  0.0613 -0.6194
 7204SOL    HW228582   3.619   0.278   0.090 -3.4827  0.0979  0.7089
 7204SOL    HW328583   3.639   0.357   0.218  0.5187 -0.3918  0.5127
 7204SOL    MW428584   3.648   0.283   0.172  0.4965  0.2417  0.3036
 7205SOL     OW28585   0.678   4.377   1.317  0.3816  0.1168  0.1201
 7205SOL    HW228586   0.649   4.337   1.399 -2.5277 -0.2051 -0.9482
 7205SOL    HW328587   0.651   4.469   1.324 -1.4291 -0.2672 -1.0386
 7205SOL    MW428588   0.671   4.384   1.329 -0.0920 -0.1913  0.1358
 7206SOL     OW28589   5.830   4.061   2.372  0.3420  0.2176  0.0460
 7206SOL    HW228590   5.845   3.968   2.389 -0.9424  0.2819  1.8611
 7206SOL    HW328591   5.907   4.105   2.407  0.4271 -0.0917  0.2511
 7206SOL    MW428592   5.842   4.055   2.379  0.3255 -0.0156  0.0025
 7207SOL     OW28593   3.593   4.048   4.950 -0.0121 -0.1066  0.1818
 7207SOL    HW228594   3.509   4.006   4.933  0.5724 -0.9521 -0.7159
 7207SOL    HW328595   3.595   4.122   4.890 -0.2759  0.1344  0.4704
 7207SOL    MW428596   3.582   4.052   4.940 -0.0063 -0.2299 -0.3926
 7208SOL     OW28597   3.223   4.446   4.269  0.1404 -0.1871  0.1479
 7208SOL    HW228598   3.267   4.505   4.330  0.6260  1.4617 -1.6808
 7208SOL    HW328599   3.138   4.487   4.253  0.6662  0.3353 -1.5101
 7208SOL    MW428600   3.218   4.459   4.275  0.2551 -0.0333 -0.2674
 7209SOL     OW28601   2.764   5.234   3.833 -0.1143  0.0408  0.2850
 7209SOL    HW228602   2.755   5.264   3.923  1.2108  1.4379 -0.0100
 7209SOL    HW328603   2.688   5.270   3.787 -0.9009 -0.8480  0.8647
 7209SOL    MW428604   2.753   5.243   3.839 -0.4001  0.6516 -0.6131
 7210SOL     OW28605   1.276   5.612   3.585 -0.3241  0.6367  0.4151
 7210SOL    HW228606   1.254   5.522   3.607 -3.0076  0.7266 -1.4017
 7210SOL    HW328607   1.225   5.666   3.646 -0.6666  0.8895 -0.0816
 7210SOL    MW428608   1.266   5.608   3.596  0.9777 -0.3489  0.1248
 7211SOL     OW28609   3.224   0.138   2.058 -0.1029 -0.2684  0.2790
 7211SOL    HW228610   3.306   0.114   2.101 -0.6860 -1.6122  0.7027
 7211SOL    HW328611   3.161   0.071   2.087 -0.6127 -1.1063 -2.4293
 7211SOL    MW428612   3.226   0.126   2.068 -0.0127 -0.8465  0.6950
 7212SOL     OW28613   2.757   0.150   4.676 -0.4732  0.5512 -0.4824
 7212SOL    HW228614   2.794   0.136   4.589 -0.0915 -1.2491 -0.0670
 7212SOL    HW328615   2.834   0.159   4.733 -0.7126  0.3214 -0.1225
 7212SOL    MW428616   2.772   0.150   4.672 -0.0294  0.1601  0.0027
 7213SOL     OW28617   3.149   0.074   0.240  0.1227 -0.0531  0.7997
 7213SOL    HW228618   3.225   0.060   0.184 -0.7258 -0.3945 -0.3066
 7213SOL    HW328619   3.173   0.035   0.324  0.6439 -1.4568  0.0388
 7213SOL    MW428620   3.162   0.067   0.243 -0.0827 -0.8451 -0.4082
 7214SOL     OW28621   5.976   4.865   3.487  0.0111  0.4427 -0.4123
 7214SOL    HW228622   5.996   4.871   3.581  0.0593 -0.3992 -0.3600
 7214SOL    HW328623   5.944   4.776   3.475  1.2133  0.1146 -1.4229
 7214SOL    MW428624   5.974   4.854   3.498 -0.0746 -0.2685  0.0619
 7215SOL     OW28625   3.597   0.558   6.076  0.5431 -0.0316  0.4287
 7215SOL    HW228626   3.522   0.502   6.098 -0.5311  1.6842  1.3642
 7215SOL    HW328627   3.563   0.647   6.084  1.4160  0.8648 -3.6665
 7215SOL    MW428628   3.583   0.562   6.080  0.3170 -0.6024  0.0950
 7216SOL     OW28629   3.863   1.461   2.320  0.2372  0.1952 -0.7696
 7216SOL    HW228630   3.813   1.461   2.239 -1.1418 -0.0647  0.0479
 7216SOL    HW328631   3.954   1.476   2.293 -0.2794  0.7057 -2.2910
 7216SOL    MW428632   3.869   1.463   2.306  0.2228 -0.5032 -0.1803
 7217SOL     OW28633   6.088   6.344   0.672 -0.4658 -0.4417 -0.1355
 7217SOL    HW228634   6.074   6.271   0.732 -0.3619 -0.1141  0.2922
 7217SOL    HW328635   6.138   6.408   0.723 -1.6374  0.4701 -0.0923
 7217SOL    MW428636   6.093   6.343   0.687  0.0648 -0.1287  0.2499
 7218SOL     OW28637   6.058   3.443   3.219 -0.1499  0.2601  0.4398
 7218SOL    HW228638   6.094   3.368   3.266 -0.7698  0.2103  0.8494
 7218SOL    HW328639   5.968   3.418   3.200 -0.7927  1.4168  1.7695
 7218SOL    MW428640   6.051   3.430   3.223  0.1550  0.0498 -0.5101
 7219SOL     OW28641   1.443   5.321   0.011 -0.0938  0.2030  0.2153
 7219SOL    HW228642   1.517   5.381   0.019 -0.2975  0.3510  0.9974
 7219SOL    HW328643   1.398   5.349  -0.069  1.5194 -0.8074 -1.1018
 7219SOL    MW428644   1.447   5.333   0.001 -0.0452  0.3340  0.5792
 7220SOL     OW28645   4.888   3.021   5.061 -0.1640  0.5789  0.0550
 7220SOL    HW228646   4.819   2.964   5.029 -1.5791  1.8258  0.7419
 7220SOL    HW328647   4.923   2.977   5.138  1.2522 -1.0253 -1.4195
 7220SOL    MW428648   4.883   3.008   5.067 -0.6044 -0.1353  0.2285
 7221SOL     OW28649   4.936   4.571   5.412  0.0314 -0.4609 -0.5383
 7221SOL    HW228650   5.014   4.577   5.357 -1.0634 -0.1363 -2.1296
 7221SOL    HW328651   4.889   4.654   5.396  0.6671  0.5933  2.5171
 7221SOL    MW428652   4.940   4.583   5.402 -0.0411  0.1310  0.9265
 7222SOL     OW28653   6.241   0.999   2.559 -0.6424  0.3426  0.0484
 7222SOL    HW228654   6.275   1.055   2.629 -0.9877  1.2349 -0.4691
 7222SOL    HW328655   6.263   0.910   2.586  1.1663  0.8036  0.2344
 7222SOL    MW428656   6.248   0.995   2.571  0.3800 -0.7456 -0.1968
 7223SOL     OW28657   2.372   4.859   1.721 -0.3610  0.5131  0.1149
 7223SOL    HW228658   2.378   4.783   1.663  0.4506  0.5973  0.0795
 7223SOL    HW328659   2.282   4.857   1.754 -0.3061 -0.5437  0.2281
 7223SOL    MW428660   2.361   4.849   1.718  0.6656  0.4901 -0.0763
 7224SOL     OW28661   4.817   0.933   3.644 -0.3775 -0.0398 -0.0493
 7224SOL    HW228662   4.854   0.866   3.587  1.9255  0.3816  0.8292
 7224SOL    HW328663   4.883   1.003   3.645 -1.8318  1.3908  0.5765
 7224SOL    MW428664   4.830   0.934   3.637 -0.0973  0.1831 -0.5227
 7225SOL     OW28665   5.159   1.000   1.447  0.3990 -0.5703  0.2449
 7225SOL    HW228666   5.171   1.062   1.519 -1.6460 -0.4050  0.5039
 7225SOL    HW328667   5.067   0.974   1.452 -0.3535  0.7587 -3.2883
 7225SOL    MW428668   5.149   1.005   1.457  0.5648 -0.3318  0.3481
 7226SOL     OW28669   2.880   1.409   5.629  0.0253  0.5406 -0.0887
 7226SOL    HW228670   2.828   1.344   5.676  0.1303  0.1520 -0.5070
 7226SOL    HW328671   2.837   1.416   5.544 -1.0806  2.3412  0.5567
 7226SOL    MW428672   2.867   1.401   5.624  0.2453  0.9917  0.1606
 7227SOL     OW28673   3.591   2.565   0.066 -0.5191  0.3655  0.1047
 7227SOL    HW228674   3.561   2.475   0.055  2.7953 -0.8225 -0.5192
 7227SOL    HW328675   3.512   2.618   0.060 -2.2860 -2.2323 -3.0049
 7227SOL    MW428676   3.577   2.560   0.064 -0.0468  0.6503  0.0480
 7228SOL     OW28677   5.186   1.366   2.405 -0.1036 -0.3785  0.5135
 7228SOL    HW228678   5.224   1.378   2.318 -0.3181  1.6773  0.6651
 7228SOL    HW328679   5.135   1.285   2.397  0.1202 -0.3995 -1.1818
 7228SOL    MW428680   5.184   1.357   2.392  0.5258  0.2631  0.5813
 7229SOL     OW28681   3.869   0.565   3.045  0.3683 -0.2374 -0.2657
 7229SOL    HW228682   3.855   0.513   3.123 -0.5398 -2.0018 -1.5376
 7229SOL    HW328683   3.962   0.557   3.026  0.3513 -0.8893 -0.0851
 7229SOL    MW428684   3.879   0.557   3.053  0.1474  0.2203 -0.6557
 7230SOL     OW28685   4.302   3.395   2.186 -0.0257  0.7283 -0.0437
 7230SOL    HW228686   4.214   3.364   2.207 -0.1930  1.0003 -0.3377
 7230SOL    HW328687   4.354   3.315   2.177 -0.1971  0.5735  0.3224
 7230SOL    MW428688   4.297   3.381   2.188 -0.3983 -0.3229 -0.0640
 7231SOL     OW28689   0.389   5.026   3.508  0.0857 -0.2012 -0.0234
 7231SOL    HW228690   0.446   5.057   3.579 -2.0957 -1.3070  2.3809
 7231SOL    HW328691   0.304   5.066   3.526 -0.5178 -0.4258 -2.1403
 7231SOL    MW428692   0.385   5.035   3.520 -0.2512  0.8041  0.1505
 7232SOL     OW28693   0.529   4.599   2.239  0.6428  0.2481 -0.9539
 7232SOL    HW228694   0.513   4.559   2.154  0.2095 -0.2452 -0.6549
 7232SOL    HW328695   0.607   4.555   2.273 -1.3618 -2.4652  0.5690
 7232SOL    MW428696   0.537   4.588   2.233  0.1126  0.3995  0.0090
 7233SOL     OW28697   0.519   5.950   5.142 -0.0907  0.7620 -0.1912
 7233SOL    HW228698   0.604   5.915   5.119  0.1772  1.2623  0.0207
 7233SOL    HW328699   0.537   6.040   5.171 -1.1100  2.4412 -4.0778
 7233SOL    MW428700   0.532   5.957   5.143  0.1747  0.3013  0.1194
 7234SOL     OW28701   6.180   2.628   5.214  0.4600 -0.2161 -0.3701
 7234SOL    HW228702   6.264   2.619   5.169  0.6568 -0.4099  0.0242
 7234SOL    HW328703   6.168   2.722   5.224 -0.8724 -0.0047 -3.1866
 7234SOL    MW428704   6.190   2.639   5.209  0.4434 -0.0710 -0.0465
 7235SOL     OW28705   1.619   3.277   2.388 -0.2243  0.2482 -0.3257
 7235SOL    HW228706   1.685   3.310   2.449 -0.1236  1.2967 -0.9816
 7235SOL    HW328707   1.583   3.356   2.347 -1.5047 -0.3342 -0.3727
 7235SOL    MW428708   1.623   3.292   2.391 -0.1036  0.2196  0.0899
 7236SOL     OW28709   3.165   4.633   1.544  0.3310 -0.5132  0.0423
 7236SOL    HW228710   3.083   4.648   1.590  0.9704  1.2768  0.7051
 7236SOL    HW328711   3.140   4.622   1.453 -0.6101  0.8914  0.1031
 7236SOL    MW428712   3.151   4.634   1.538 -0.0979  0.1539 -0.3095
 7237SOL     OW28713   5.966   4.150   6.120 -0.3638  0.3459 -0.0143
 7237SOL    HW228714   5.994   4.223   6.175  1.2404 -0.9432  0.9740
 7237SOL    HW328715   5.942   4.081   6.182  0.1580 -0.6627 -0.8990
 7237SOL    MW428716   5.967   4.150   6.136  0.4790  0.5296  0.4173
 7238SOL     OW28717   5.446   5.651   0.501  0.2419 -0.4943  0.0036
 7238SOL    HW228718   5.437   5.556   0.512 -1.7706 -0.1371  2.1524
 7238SOL    HW328719   5.491   5.680   0.581 -0.1212  0.4857 -0.1426
 7238SOL    MW428720   5.451   5.642   0.513 -0.3154  0.1392  0.2434
 7239SOL     OW28721   0.152   1.323   5.634 -0.2248 -0.3738 -0.1694
 7239SOL    HW228722   0.166   1.343   5.541 -0.7128  0.3345 -0.1003
 7239SOL    HW328723   0.239   1.302   5.667 -0.0271 -0.5112 -0.7569
 7239SOL    MW428724   0.165   1.323   5.626 -0.0240  0.3461 -0.1275
 7240SOL     OW28725   0.601   3.219   1.494  0.3484 -0.1062  0.1195
 7240SOL    HW228726   0.608   3.240   1.587  0.3471  0.5395 -0.0251
 7240SOL    HW328727   0.528   3.272   1.462  2.6378  2.6329 -1.0522
 7240SOL    MW428728   0.592   3.229   1.502  0.2876 -0.0652  0.4859
 7241SOL     OW28729   3.646   1.571   6.037  0.0988  0.0620  0.3401
 7241SOL    HW228730   3.715   1.594   6.099  0.0959  0.0513  0.3473
 7241SOL    HW328731   3.673   1.487   6.001 -0.0562 -0.0815  0.5558
 7241SOL    MW428732   3.658   1.563   6.041  0.3288  0.1502 -0.4382
 7242SOL     OW28733   3.111   0.916   1.049  0.1209 -0.1348  1.0186
 7242SOL    HW228734   3.103   0.955   0.962  4.4321 -0.6238  0.1865
 7242SOL    HW328735   3.092   0.824   1.036  0.2562 -0.1177  0.6963
 7242SOL    MW428736   3.107   0.909   1.036  0.4328 -0.0280 -0.3524
 7243SOL     OW28737   0.383   1.414   4.425 -0.0766 -0.1540 -0.4247
 7243SOL    HW228738   0.324   1.475   4.470  1.5576  0.1320  1.5026
 7243SOL    HW328739   0.402   1.457   4.342 -2.0576  0.0205 -0.8541
 7243SOL    MW428740   0.377   1.428   4.420 -0.0121 -0.2888 -0.5553
 7244SOL     OW28741   4.793   5.402   1.985 -0.2382 -0.3757  0.3431
 7244SOL    HW228742   4.870   5.353   1.954  0.2164 -0.4394  1.5122
 7244SOL    HW328743   4.788   5.478   1.927  0.4097 -0.6402 -0.0682
 7244SOL    MW428744   4.803   5.405   1.974  0.2301 -0.1375  0.5413
 7245SOL     OW28745   2.754   5.021   3.125 -0.0940 -0.1580  0.0098
 7245SOL    HW228746   2.846   5.034   3.098  0.0654 -1.4053 -0.1121
 7245SOL    HW328747   2.756   4.942   3.180 -1.2312 -0.8370 -0.8718
 7245SOL    MW428748   2.767   5.012   3.128 -0.3271 -0.6723 -0.0955
 7246SOL     OW28749   3.742   2.075   0.543  0.1407  0.9342  0.1496
 7246SOL    HW228750   3.823   2.055   0.590 -0.0202 -0.0003  0.0398
 7246SOL    HW328751   3.679   2.099   0.611 -0.6362 -2.1918  0.6441
 7246SOL    MW428752   3.745   2.076   0.558 -0.5776 -0.1963  0.1813
 7247SOL     OW28753   0.572   5.814   2.815  0.2570 -0.1988  0.2349
 7247SOL    HW228754   0.568   5.755   2.890 -0.1557 -0.6916 -0.1705
 7247SOL    HW328755   0.577   5.756   2.739  3.5245  0.2373 -0.0267
 7247SOL    MW428756   0.572   5.799   2.815 -0.1712 -0.2564  0.1536
 7248SOL     OW28757   0.110   5.989   0.715  0.3791 -0.2959 -0.1560
 7248SOL    HW228758   0.076   6.059   0.659 -1.5039 -1.6281 -0.8076
 7248SOL    HW328759   0.178   5.948   0.662 -0.9620 -1.1537 -1.2958
 7248SOL    MW428760   0.115   5.993   0.700 -0.6691  0.2766 -0.0336
 7249SOL     OW28761   1.383   5.083   0.183 -0.0320  0.0648 -0.0402
 7249SOL    HW228762   1.383   5.167   0.138 -1.3476 -0.4771 -1.1419
 7249SOL    HW328763   1.454   5.034   0.142  0.4559  0.4883  0.3001
 7249SOL    MW428764   1.392   5.087   0.172 -0.7203 -0.0706  0.1267
 7250SOL     OW28765   3.907   6.225   1.635 -0.0622 -0.2365  0.4712
 7250SOL    HW228766   3.939   6.141   1.602  0.0853  0.3752 -1.0271
 7250SOL    HW328767   3.835   6.248   1.577 -1.4255 -0.2541  2.0996
 7250SOL    MW428768   3.902   6.217   1.623  0.4944  0.5605 -0.3350
 7251SOL     OW28769   4.748   6.466   1.890 -0.1460  0.6288 -0.3204
 7251SOL    HW228770   4.747   6.520   1.811 -0.1601 -1.4828 -1.8515
 7251SOL    HW328771   4.689   6.393   1.871  0.0531 -0.0998  1.5409
 7251SOL    MW428772   4.740   6.463   1.877  0.1734  0.2232  0.0503
 7252SOL     OW28773   0.473   0.494   5.111 -0.3897  0.5716 -0.5183
 7252SOL    HW228774   0.547   0.546   5.078 -1.1444  1.0006 -1.5813
 7252SOL    HW328775   0.406   0.503   5.043 -1.2425 -0.2073  0.2122
 7252SOL    MW428776   0.474   0.502   5.097  0.6623  0.3874  0.1805
 7253SOL     OW28777   5.370   1.804   2.281  0.0008 -0.4537  0.6335
 7253SOL    HW228778   5.430   1.879   2.286  2.4952 -2.3371  1.0248
 7253SOL    HW328779   5.391   1.752   2.358 -2.6381 -0.9592  1.0950
 7253SOL    MW428780   5.381   1.807   2.292 -1.2671  0.2227  0.5343
 7254SOL     OW28781   4.620   2.215   3.441  1.1258  0.1292 -0.3102
 7254SOL    HW228782   4.605   2.307   3.464  4.1399  0.3388  1.3025
 7254SOL    HW328783   4.545   2.191   3.387 -1.0256  2.8172  1.2169
 7254SOL    MW428784   4.608   2.224   3.437  0.0227 -0.2418 -0.1367
 7255SOL     OW28785   4.056   0.721   2.098  0.6564  0.1510  0.0608
 7255SOL    HW228786   4.002   0.796   2.123  0.0457  0.4805 -2.0252
 7255SOL    HW328787   4.022   0.694   2.012  2.7795 -0.6385 -0.6060
 7255SOL    MW428788   4.044   0.727   2.090  0.4750  0.8114 -0.1164
 7256SOL     OW28789   3.656   4.646   0.143 -0.2349  0.1969 -0.5114
 7256SOL    HW228790   3.622   4.696   0.217  1.4486  2.1495 -0.9511
 7256SOL    HW328791   3.620   4.689   0.066  0.7106  0.3648 -0.8812
 7256SOL    MW428792   3.647   4.659   0.143  0.0990  0.1469 -0.0649
 7257SOL     OW28793   3.539   1.216   0.231  0.6394 -0.3742 -0.5744
 7257SOL    HW228794   3.566   1.138   0.278  0.3209  0.2164  0.6149
 7257SOL    HW328795   3.620   1.255   0.200  0.7638 -1.6325 -2.0020
 7257SOL    MW428796   3.553   1.211   0.233  0.2302  0.0360 -0.1172
 7258SOL     OW28797   5.289   1.756   4.433  0.2398 -0.0262 -0.2665
 7258SOL    HW228798   5.217   1.724   4.488 -0.0849  0.5660 -0.3391
 7258SOL    HW328799   5.345   1.679   4.419 -0.2180 -0.4194  0.0395
 7258SOL    MW428800   5.287   1.742   4.439 -0.5686  0.2164 -0.5128
 7259SOL     OW28801   5.358   2.587   5.870 -0.0608 -0.2451 -0.8039
 7259SOL    HW228802   5.339   2.642   5.946 -1.5449  0.9067 -1.9432
 7259SOL    HW328803   5.361   2.498   5.906 -1.1908  0.2147  0.5536
 7259SOL    MW428804   5.356   2.582   5.885  0.7513  0.7395  0.3766
 7260SOL     OW28805   3.040   2.999   1.302 -0.3834  0.0192  0.3509
 7260SOL    HW228806   3.121   2.974   1.347  0.1251 -0.1481 -0.6221
 7260SOL    HW328807   2.970   2.967   1.358  0.2291 -2.2968 -0.1289
 7260SOL    MW428808   3.042   2.992   1.315 -0.1307 -0.1012  0.1879
 7261SOL     OW28809   5.883   3.759   0.279 -0.1101 -0.0132 -0.0629
 7261SOL    HW228810   5.844   3.748   0.366 -0.5536  0.7840 -0.1518
 7261SOL    HW328811   5.818   3.724   0.219 -0.8107  1.4916 -0.2254
 7261SOL    MW428812   5.870   3.753   0.283 -0.1973 -0.1640  0.0699
 7262SOL     OW28813   4.048   3.553   4.513 -0.1575 -0.4069 -0.5953
 7262SOL    HW228814   4.045   3.635   4.463  0.2403  0.5251  0.8518
 7262SOL    HW328815   4.140   3.543   4.537 -0.0321 -1.8062 -1.5643
 7262SOL    MW428816   4.060   3.563   4.510 -0.2707 -0.0183  0.0803
 7263SOL     OW28817   3.687   2.990   4.934  0.1968  0.7983  0.7603
 7263SOL    HW228818   3.623   3.015   4.867  0.5837  1.7275  0.7234
 7263SOL    HW328819   3.655   2.907   4.969 -0.2268  0.5090 -0.2971
 7263SOL    MW428820   3.675   2.983   4.930 -0.0437  0.1593 -0.4285
 7264SOL     OW28821   4.795   4.414   4.137  0.3050  0.5226  0.2573
 7264SOL    HW228822   4.717   4.458   4.106  0.9700  1.9373  0.5171
 7264SOL    HW328823   4.825   4.363   4.062  0.2525  1.5732 -0.4907
 7264SOL    MW428824   4.789   4.413   4.123 -0.4041 -0.0096 -0.4227
 7265SOL     OW28825   0.396   6.302   5.905 -0.1958  0.2050 -0.3561
 7265SOL    HW228826   0.321   6.278   5.852  0.6055 -1.1890 -0.9127
 7265SOL    HW328827   0.361   6.362   5.971 -1.9643 -1.1004 -0.0406
 7265SOL    MW428828   0.382   6.307   5.907  0.8716 -0.1333  0.0401
 7266SOL     OW28829   6.153   4.201   1.287 -0.3433  0.4235 -0.0429
 7266SOL    HW228830   6.058   4.195   1.284 -0.3616  0.4915  0.3175
 7266SOL    HW328831   6.174   4.283   1.242 -0.4169  0.1234 -0.6217
 7266SOL    MW428832   6.143   4.211   1.281  0.5270 -0.2171  0.1588
 7267SOL     OW28833   1.193   3.524   3.750 -0.6448  0.0135  0.3451
 7267SOL    HW228834   1.242   3.536   3.669  0.7063 -1.0345  0.9568
 7267SOL    HW328835   1.178   3.429   3.755 -0.9662  0.0959  1.1572
 7267SOL    MW428836   1.198   3.513   3.740 -0.8562 -0.1049  0.1501
 7268SOL     OW28837   5.867   0.135   5.829 -0.5135  0.4794  0.3308
 7268SOL    HW228838   5.788   0.084   5.815 -0.4827 -0.2837  2.5851
 7268SOL    HW328839   5.918   0.121   5.749 -2.3584  0.5212 -0.9193
 7268SOL    MW428840   5.864   0.126   5.816  0.1725 -0.1102 -1.0769
 7269SOL     OW28841   3.755   5.575   1.071 -0.1951 -0.2437 -0.0374
 7269SOL    HW228842   3.662   5.568   1.050  0.2227 -1.1636 -1.7722
 7269SOL    HW328843   3.800   5.542   0.993  1.5744 -0.5317  1.0435
 7269SOL    MW428844   3.749   5.570   1.058  0.1468 -0.4518 -0.0738
 7270SOL     OW28845   3.307   4.726   3.481  0.0784 -0.4685 -0.3784
 7270SOL    HW228846   3.383   4.683   3.442 -0.8298 -0.7399 -1.9278
 7270SOL    HW328847   3.260   4.764   3.407 -0.5856  0.8713  0.6886
 7270SOL    MW428848   3.311   4.725   3.466  0.0496  0.1914 -0.0398
 7271SOL     OW28849   0.276   4.057   4.169  0.2732  0.5045 -0.1237
 7271SOL    HW228850   0.297   4.069   4.262 -2.9845  0.4443  0.7277
 7271SOL    HW328851   0.353   4.013   4.133  0.7648 -1.5677  3.0612
 7271SOL    MW428852   0.289   4.053   4.177 -0.3715 -0.1032 -0.2779
 7272SOL     OW28853   2.037   0.184   1.889 -0.6210 -0.8225  0.7475
 7272SOL    HW228854   2.129   0.206   1.876 -0.7337 -0.7030  0.1176
 7272SOL    HW328855   1.991   0.268   1.881 -1.0067 -1.1872 -1.1949
 7272SOL    MW428856   2.043   0.198   1.887  0.2090 -0.2570  0.1051
 7273SOL     OW28857   6.215   0.792   2.119  0.3229 -0.4408 -0.4833
 7273SOL    HW228858   6.130   0.821   2.151 -0.1912 -2.2725 -0.0808
 7273SOL    HW328859   6.205   0.791   2.023 -0.3430 -1.2656 -0.4172
 7273SOL    MW428860   6.203   0.795   2.110  0.1113 -0.0372 -0.4196
 7274SOL     OW28861   1.666   3.258   3.877 -0.0729 -0.1512 -0.6041
 7274SOL    HW228862   1.620   3.226   3.799 -1.1791  0.6902 -0.3151
 7274SOL    HW328863   1.754   3.281   3.845 -0.3605 -0.2635 -1.4940
 7274SOL    MW428864   1.672   3.256   3.862  0.3372  0.1977  0.2478
 7275SOL     OW28865   1.940   6.291   2.947 -0.1557 -0.1618  0.1070
 7275SOL    HW228866   1.877   6.226   2.913  2.6601 -2.2764 -1.5116
 7275SOL    HW328867   1.954   6.351   2.874 -0.7745  0.7760  0.7286
 7275SOL    MW428868   1.933   6.290   2.933 -0.1805  0.0411  0.0891
 7276SOL     OW28869   4.630   6.303   5.975  0.5381  0.0445 -0.3704
 7276SOL    HW228870   4.603   6.214   5.951 -1.2509  0.7236 -0.9841
 7276SOL    HW328871   4.620   6.305   6.071 -1.5832  0.1975 -0.5337
 7276SOL    MW428872   4.625   6.291   5.985  0.2478 -0.4475 -0.2176
 7277SOL     OW28873   2.895   3.317   4.975  0.0375  0.5459  0.3450
 7277SOL    HW228874   2.865   3.379   5.041 -1.2409 -2.6272  3.0198
 7277SOL    HW328875   2.832   3.326   4.904 -0.5518  1.7349  0.9842
 7277SOL    MW428876   2.883   3.326   4.974  0.2407  0.0449  0.2555
 7278SOL     OW28877   6.154   6.339   6.229  0.1133  0.1655  0.1777
 7278SOL    HW228878   6.122   6.274   6.167 -0.3572 -1.6466  2.1813
 7278SOL    HW328879   6.187   6.410   6.175 -2.1814 -0.3551 -2.0946
 7278SOL    MW428880   6.154   6.340   6.214  0.2459 -0.6574  0.2209
 7279SOL     OW28881   3.061   4.598   5.796  0.3124 -0.0095 -0.0309
 7279SOL    HW228882   3.146   4.626   5.828 -0.2885 -1.2384  2.9384
 7279SOL    HW328883   2.998   4.649   5.847 -0.7803  0.1766 -1.4769
 7279SOL    MW428884   3.064   4.609   5.807  0.1073  0.0877  0.2627
 7280SOL     OW28885   1.166   4.047   3.330  0.0191  0.8351 -0.7230
 7280SOL    HW228886   1.200   4.117   3.274 -1.1302  2.6013  0.7101
 7280SOL    HW328887   1.076   4.034   3.300  0.5638 -0.9365 -1.7629
 7280SOL    MW428888   1.159   4.054   3.318 -0.4424 -0.3881 -0.3305
 7281SOL     OW28889   2.427   5.877   1.553  0.7430 -0.3423  0.2584
 7281SOL    HW228890   2.380   5.813   1.499  1.4666 -1.3164  0.7533
 7281SOL    HW328891   2.429   5.957   1.500 -1.2201 -0.3452  0.1123
 7281SOL    MW428892   2.421   5.879   1.539 -0.3462 -0.1789 -0.2201
 7282SOL     OW28893   0.845   6.105   5.694 -0.4909  0.1750  0.2593
 7282SOL    HW228894   0.795   6.101   5.612  2.2189  3.9033 -1.9041
 7282SOL    HW328895   0.801   6.172   5.745 -1.4672 -1.2961  1.4223
 7282SOL    MW428896   0.833   6.113   5.690  0.2605  0.7824  0.0995
 7283SOL     OW28897   2.284   5.253   3.150 -0.4123  0.3855  0.3131
 7283SOL    HW228898   2.294   5.278   3.058  0.1358  0.9869  0.5293
 7283SOL    HW328899   2.342   5.177   3.161  0.0887  0.7686  0.3394
 7283SOL    MW428900   2.293   5.246   3.139 -0.0775  0.6606 -0.4166
 7284SOL     OW28901   1.988   0.693   1.471 -0.2772 -0.0359  0.7162
 7284SOL    HW228902   2.014   0.680   1.380 -1.2522 -0.4342  0.4821
 7284SOL    HW328903   2.025   0.778   1.494  0.1875 -0.0403  0.0298
 7284SOL    MW428904   1.996   0.703   1.462 -0.3592  0.3658  0.5289
 7285SOL     OW28905   0.162   2.282   1.040 -0.4333  0.4245  0.6336
 7285SOL    HW228906   0.175   2.276   1.135 -3.0924 -0.1954  1.0490
 7285SOL    HW328907   0.085   2.338   1.030 -0.0684  0.6604 -1.1838
 7285SOL    MW428908   0.153   2.288   1.051  0.2643 -0.1294 -0.4138
 7286SOL     OW28909   1.813   5.592   3.362 -0.0227 -0.0317 -0.0230
 7286SOL    HW228910   1.865   5.577   3.283  1.3918  0.4118  0.7832
 7286SOL    HW328911   1.786   5.504   3.390  2.6448 -0.6192  1.0260
 7286SOL    MW428912   1.817   5.578   3.356  0.5027 -0.0155 -0.1918
 7287SOL     OW28913   4.269   3.243   1.928 -0.2894 -1.0416  0.3442
 7287SOL    HW228914   4.227   3.325   1.951 -0.5938 -0.8046 -1.0079
 7287SOL    HW328915   4.251   3.185   2.003 -1.7510 -0.4893  0.4515
 7287SOL    MW428916   4.261   3.246   1.941  0.1607 -0.3085  0.8186
 7288SOL     OW28917   3.295   0.505   0.189  0.3364  0.1813  0.3143
 7288SOL    HW228918   3.305   0.586   0.138 -0.0052 -0.5675 -0.9722
 7288SOL    HW328919   3.317   0.435   0.127  0.1418 -0.7397  1.2698
 7288SOL    MW428920   3.299   0.507   0.174 -0.0302  0.0882  0.3430
 7289SOL     OW28921   4.997   1.854   6.392  0.1904 -0.2838  0.0198
 7289SOL    HW228922   4.990   1.904   6.311  0.0364  1.5908  1.1267
 7289SOL    HW328923   4.929   1.891   6.449  1.0621 -0.7216  1.3977
 7289SOL    MW428924   4.987   1.866   6.389 -0.1388 -0.3641 -0.8293
 7290SOL     OW28925   5.935   2.085   4.140  0.0841  0.1704  0.4952
 7290SOL    HW228926   5.895   2.029   4.073  1.5032 -0.9808  0.5572
 7290SOL    HW328927   5.939   2.029   4.218 -2.9957  1.9645  2.1397
 7290SOL    MW428928   5.930   2.070   4.142 -0.4123  0.0463  0.1232
 7291SOL     OW28929   2.552   1.027   1.867  0.1783 -0.1292 -0.3183
 7291SOL    HW228930   2.605   1.075   1.804  0.9703  0.6547  0.8977
 7291SOL    HW328931   2.464   1.064   1.857 -0.1503 -1.3006 -2.2085
 7291SOL    MW428932   2.547   1.039   1.858  0.1787 -0.0808 -0.0994
 7292SOL     OW28933   0.338   3.737   3.710  0.2948  0.1608  0.3344
 7292SOL    HW228934   0.433   3.747   3.710  0.5394 -1.7721  0.7291
 7292SOL    HW328935   0.313   3.746   3.618  1.0111 -0.4193  0.0725
 7292SOL    MW428936   0.347   3.739   3.698 -0.2059 -0.4534 -0.3041
 7293SOL     OW28937   0.301   5.311   2.704  0.2568  0.1741  0.6283
 7293SOL    HW228938   0.270   5.358   2.782  1.1379  1.2780  0.3450
 7293SOL    HW328939   0.377   5.262   2.734  0.3284  0.2486  0.5715
 7293SOL    MW428940   0.307   5.311   2.718  0.4871  0.0364  0.1563
 7294SOL     OW28941   1.899   0.244   2.196 -0.0140 -0.0676  0.5501
 7294SOL    HW228942   1.941   0.166   2.232  1.9574  0.1854 -1.0477
 7294SOL    HW328943   1.970   0.294   2.156 -1.3494  2.1626  0.7830
 7294SOL    MW428944   1.914   0.241   2.195  0.0442  0.9089 -0.0096
 7295SOL     OW28945   2.835   6.074   4.251 -0.1463 -0.2892 -0.1806
 7295SOL    HW228946   2.816   5.981   4.261 -0.2277 -0.2828 -0.2755
 7295SOL    HW328947   2.931   6.080   4.253 -0.1407 -0.0971  2.4175
 7295SOL    MW428948   2.845   6.063   4.252 -0.2882 -0.5232 -0.4840
 7296SOL     OW28949   5.028   3.962   4.490 -0.3023  0.0871 -0.2465
 7296SOL    HW228950   4.996   4.027   4.552  0.6806  0.3785 -0.0369
 7296SOL    HW328951   5.115   3.939   4.521  0.2388  0.2896 -1.5544
 7296SOL    MW428952   5.035   3.967   4.502 -0.2060 -0.0054  0.2255
 7297SOL     OW28953   1.757   2.046   1.934  0.1731  0.3520 -0.5897
 7297SOL    HW228954   1.770   1.952   1.944  1.8264  0.7258  1.1419
 7297SOL    HW328955   1.665   2.060   1.958  0.4147 -0.5961  1.0195
 7297SOL    MW428956   1.747   2.035   1.938 -0.2156  0.1929  0.2686
 7298SOL     OW28957   5.759   3.002   6.098 -0.4193 -0.1997  0.0936
 7298SOL    HW228958   5.672   2.963   6.100 -1.1788  1.2065 -2.1859
 7298SOL    HW328959   5.818   2.929   6.081 -1.3200 -0.9488  0.1280
 7298SOL    MW428960   5.755   2.987   6.096  0.4674  0.2055 -0.1485
 7299SOL     OW28961   3.656   1.564   0.624 -0.3743 -0.3747 -0.2036
 7299SOL    HW228962   3.716   1.489   0.629  0.8070  0.5434  0.0677
 7299SOL    HW328963   3.569   1.527   0.639  0.0710 -1.8194 -1.0159
 7299SOL    MW428964   3.653   1.550   0.627 -0.1982 -0.3746 -0.1037
 7300SOL     OW28965   4.084   0.455   4.574  0.0499 -0.5951  0.0463
 7300SOL    HW228966   4.138   0.534   4.570 -0.4746 -0.1637  1.0985
 7300SOL    HW328967   3.999   0.483   4.540  0.0090 -0.8478 -0.0597
 7300SOL    MW428968   4.080   0.469   4.569  0.6419  0.8817  0.1989
 7301SOL     OW28969   3.093   3.724   6.195  0.2503  0.8017  0.0111
 7301SOL    HW228970   3.138   3.661   6.252  1.3602  1.0312 -0.5707
 7301SOL    HW328971   3.156   3.795   6.184 -0.0784  0.9246 -1.2096
 7301SOL    MW428972   3.107   3.725   6.201  1.1663  0.1738  0.1566
 7302SOL     OW28973   2.175   2.719   2.233  0.0512  0.2958 -0.2048
 7302SOL    HW228974   2.081   2.703   2.244  0.0378  0.1891 -0.4713
 7302SOL    HW328975   2.181   2.803   2.189  0.0628  0.0004 -0.7685
 7302SOL    MW428976   2.164   2.728   2.229 -0.3243 -0.3390 -0.0389
 7303SOL     OW28977   3.004   2.294   3.340  0.2993  0.2422  0.1376
 7303SOL    HW228978   3.046   2.362   3.392  0.8809 -0.0942  0.1194
 7303SOL    HW328979   2.963   2.341   3.267 -0.4186  0.7035  0.8163
 7303SOL    MW428980   3.004   2.309   3.337 -0.5021 -0.0481  0.1717
 7304SOL     OW28981   3.967   1.830   5.517 -0.2701 -0.2357  0.3795
 7304SOL    HW228982   4.013   1.817   5.600  0.7868 -2.6429 -0.4978
 7304SOL    HW328983   3.875   1.818   5.539  0.0199 -1.1183  1.2041
 7304SOL    MW428984   3.961   1.826   5.531  0.1242  0.6737 -0.5368
 7305SOL     OW28985   5.291   3.837   3.278 -0.0645 -0.0491  0.1113
 7305SOL    HW228986   5.318   3.754   3.238 -0.3663  0.9571 -2.3693
 7305SOL    HW328987   5.365   3.861   3.334 -0.2077 -2.2086  1.3704
 7305SOL    MW428988   5.305   3.829   3.280 -0.2303  0.1672  0.1847
 7306SOL     OW28989   1.445   4.982   2.548  0.3334 -0.1557 -0.1005
 7306SOL    HW228990   1.445   4.901   2.598 -1.0055 -0.8583 -1.1790
 7306SOL    HW328991   1.538   5.003   2.536  0.6917 -1.3122  0.5266
 7306SOL    MW428992   1.457   4.974   2.553  0.5047 -0.5618  0.3798
 7307SOL     OW28993   0.068   3.411   3.534  0.2369 -0.0924 -0.3484
 7307SOL    HW228994   0.030   3.498   3.543 -0.0076 -0.1989 -0.3514
 7307SOL    HW328995   0.139   3.409   3.599  0.8059  0.4114 -0.9307
 7307SOL    MW428996   0.073   3.422   3.544 -0.4659 -0.3768 -0.2553
 7308SOL     OW28997   5.324   0.594   3.181 -0.3642  0.3392  0.5927
 7308SOL    HW228998   5.360   0.663   3.125 -0.5451 -0.2811 -0.3076
 7308SOL    HW328999   5.324   0.632   3.268  2.1403  0.4910  0.5873
 7308SOL    MW429000   5.329   0.608   3.185 -0.4187 -0.3129 -0.2552
 7309SOL     OW29001   4.549   3.651   3.280  0.1888  0.1962 -0.2122
 7309SOL    HW229002   4.608   3.611   3.215  0.4478  0.3889 -0.0969
 7309SOL    HW329003   4.572   3.744   3.279  0.6013  0.1077  0.5810
 7309SOL    MW429004   4.560   3.658   3.271  0.0009 -0.0307 -0.0629
 7310SOL     OW29005   5.814   6.367   0.601  0.3503 -0.0989  0.0201
 7310SOL    HW229006   5.902   6.367   0.637  0.2573  3.8171  0.7088
 7310SOL    HW329007   5.757   6.352   0.676  0.3726  0.2250  0.1036
 7310SOL    MW429008   5.818   6.365   0.616 -0.1281  0.2957 -0.0796
 7311SOL     OW29009   3.978   2.558   1.134 -0.4190  0.2780 -0.3076
 7311SOL    HW229010   3.895   2.525   1.099  0.1739 -0.2619 -1.2729
 7311SOL    HW329011   4.041   2.489   1.113  0.6645  1.5408 -1.4418
 7311SOL    MW429012   3.975   2.544   1.126  0.4501 -0.2912 -0.2326
 7312SOL     OW29013   1.744   4.467   5.156  0.0938 -0.4100  0.2391
 7312SOL    HW229014   1.707   4.543   5.112  2.0534  1.1699  1.1674
 7312SOL    HW329015   1.805   4.429   5.092 -1.5434 -1.8279 -0.5619
 7312SOL    MW429016   1.748   4.472   5.141 -0.1458  0.1323  0.2355
 7313SOL     OW29017   0.278   5.818   0.587  0.2143 -0.8548 -0.3202
 7313SOL    HW229018   0.255   5.739   0.538  0.0348 -0.7068 -0.4713
 7313SOL    HW329019   0.361   5.847   0.549 -0.3436 -0.2658 -1.0949
 7313SOL    MW429020   0.286   5.811   0.576 -0.0538  0.3648 -0.4796
 7314SOL     OW29021   5.101   3.894   0.544  0.3887 -0.0739  0.7591
 7314SOL    HW229022   5.059   3.833   0.483  2.1953 -2.5921  1.8810
 7314SOL    HW329023   5.120   3.972   0.492 -0.3416 -1.1649 -1.2146
 7314SOL    MW429024   5.098   3.897   0.529  0.0963  0.3014 -0.1226
 7315SOL     OW29025   0.072   6.013   4.506  0.0192 -0.4850  0.2330
 7315SOL    HW229026   0.071   5.965   4.423  0.7041 -0.6888  0.3361
 7315SOL    HW329027   0.144   6.076   4.497  0.2566 -0.6704  0.7592
 7315SOL    MW429028   0.081   6.015   4.494 -0.1541  0.4493  0.5180
 7316SOL     OW29029   5.882   3.877   0.982 -0.0774  0.0998  0.5459
 7316SOL    HW229030   5.942   3.802   0.989 -0.0951  0.2052  2.9904
 7316SOL    HW329031   5.936   3.947   0.946  1.3154  0.1390  2.4966
 7316SOL    MW429032   5.897   3.876   0.978  0.1029  0.3754 -0.3211
 7317SOL     OW29033   1.026   5.573   0.747 -0.7824 -0.0389 -0.3346
 7317SOL    HW229034   0.953   5.573   0.685 -1.2285 -0.5312  0.1814
 7317SOL    HW329035   1.080   5.499   0.720 -0.3978  0.4024 -0.7950
 7317SOL    MW429036   1.023   5.563   0.735  0.2024  0.5582  0.4953
 7318SOL     OW29037   4.899   5.835   6.070  0.4740  0.6407 -0.0604
 7318SOL    HW229038   4.949   5.916   6.058  1.1908  0.0724 -0.9971
 7318SOL    HW329039   4.964   5.765   6.067 -0.3622 -0.1403 -1.5647
 7318SOL    MW429040   4.914   5.837   6.068 -0.6325 -0.1266  0.2264
 7319SOL     OW29041   1.119   1.878   5.373  0.2743  0.0516 -0.4436
 7319SOL    HW229042   1.057   1.936   5.417 -1.0916 -0.4685 -1.5990
 7319SOL    HW329043   1.187   1.936   5.339 -0.5815  0.8760 -0.7751
 7319SOL    MW429044   1.120   1.893   5.374 -0.3380  0.7039 -0.0749
 7320SOL     OW29045   1.773   2.915   4.083 -0.1081 -0.2294  0.0824
 7320SOL    HW229046   1.719   2.931   4.005 -0.4506  2.9012  0.8332
 7320SOL    HW329047   1.862   2.931   4.053  0.1056 -2.0502 -0.3431
 7320SOL    MW429048   1.777   2.919   4.068  0.5368  0.2862  0.2442
 7321SOL     OW29049   5.863   4.253   2.804 -0.7539  0.9254 -0.5426
 7321SOL    HW229050   5.805   4.324   2.776 -0.7482  0.4789 -1.7752
 7321SOL    HW329051   5.867   4.194   2.728 -1.9417 -1.1890  0.9224
 7321SOL    MW429052   5.856   4.254   2.790 -0.6020  0.0443 -0.3419
 7322SOL     OW29053   1.606   3.937   0.634 -0.0702  0.5538 -0.1509
 7322SOL    HW229054   1.636   3.862   0.685  2.8303  0.1597 -2.2243
 7322SOL    HW329055   1.543   3.900   0.572 -0.7674  0.3936  0.6271
 7322SOL    MW429056   1.602   3.922   0.633  0.3940  0.6325 -0.4214
 7323SOL     OW29057   5.152   1.867   1.813 -0.2447  0.2234 -0.3471
 7323SOL    HW229058   5.247   1.870   1.824 -0.3996  0.9145  1.0031
 7323SOL    HW329059   5.126   1.959   1.804 -1.0904  0.4178  2.7522
 7323SOL    MW429060   5.161   1.880   1.814 -0.2311  0.5979 -0.4413
 7324SOL     OW29061   0.607   1.296   4.171  0.5830  0.1606 -0.1430
 7324SOL    HW229062   0.689   1.279   4.126  2.0139  0.1284  2.2850
 7324SOL    HW329063   0.602   1.227   4.238 -2.2145 -0.7538 -1.1547
 7324SOL    MW429064   0.617   1.284   4.174 -0.1970 -0.2354  0.0721
 7325SOL     OW29065   2.713   0.578   3.963 -0.6372 -0.2277 -0.2540
 7325SOL    HW229066   2.783   0.628   4.004 -1.4736  1.3290 -0.6387
 7325SOL    HW329067   2.715   0.493   4.007 -1.2099  1.1913  2.7648
 7325SOL    MW429068   2.722   0.573   3.974  0.1627 -0.3374  0.3315
 7326SOL     OW29069   3.529   4.874   5.867  0.4956 -0.1947  0.4001
 7326SOL    HW229070   3.607   4.923   5.893 -0.8979  0.7843  3.1250
 7326SOL    HW329071   3.491   4.842   5.949 -1.5936 -1.2595 -0.8718
 7326SOL    MW429072   3.534   4.876   5.881 -0.1487  0.2810 -0.1380
 7327SOL     OW29073   2.158   3.828   3.666 -0.1239  0.1439 -0.1154
 7327SOL    HW229074   2.136   3.913   3.627 -1.0231 -0.6979 -1.5430
 7327SOL    HW329075   2.248   3.811   3.638  0.8718  1.5528  1.9774
 7327SOL    MW429076   2.167   3.837   3.657  0.1910 -0.1189 -0.0146
 7328SOL     OW29077   5.125   2.786   4.306  0.0172  0.4733 -0.0804
 7328SOL    HW229078   5.041   2.783   4.260 -1.0801 -1.1757  1.8407
 7328SOL    HW329079   5.178   2.717   4.266 -0.0725  0.5697 -0.3642
 7328SOL    MW429080   5.121   2.777   4.295  0.0740 -0.9964  0.2360
 7329SOL     OW29081   1.575   6.253   4.094  0.8104  0.4465  0.1434
 7329SOL    HW229082   1.509   6.294   4.038 -0.1703 -0.2024  0.8115
 7329SOL    HW329083   1.616   6.187   4.038  0.9755  0.9231 -0.3036
 7329SOL    MW429084   1.572   6.250   4.079 -0.0638  0.2536  0.7636
 7330SOL     OW29085   2.510   1.845   1.839  0.1617  0.2670  0.0257
 7330SOL    HW229086   2.466   1.890   1.912 -0.4384 -1.5506  0.8419
 7330SOL    HW329087   2.590   1.895   1.825  0.5973  0.3269  2.3600
 7330SOL    MW429088   2.515   1.857   1.847 -0.2125  0.1451  0.0946
 7331SOL     OW29089   6.410   4.225   4.343  0.4875  0.1886  0.0359
 7331SOL    HW229090   6.457   4.191   4.267 -1.0279 -2.4017  0.1233
 7331SOL    HW329091   6.439   4.169   4.416 -0.8040  0.1980  0.5883
 7331SOL    MW429092   6.420   4.213   4.343  0.0262 -0.0016  1.0051
 7332SOL     OW29093   0.077   3.578   6.306 -0.2241  0.0421 -0.1234
 7332SOL    HW229094   0.122   3.592   6.222  0.6767 -3.2256 -0.3199
 7332SOL    HW329095   0.133   3.621   6.371  0.6108  0.1544 -0.8894
 7332SOL    MW429096   0.090   3.586   6.303  0.1940  0.2662  0.7844
 7333SOL     OW29097   3.693   0.755   5.112 -0.3749  0.0595  0.3088
 7333SOL    HW229098   3.722   0.761   5.203 -0.9100 -1.1967  0.5752
 7333SOL    HW329099   3.704   0.663   5.090  0.3208  0.4486 -1.1054
 7333SOL    MW429100   3.698   0.744   5.121 -0.2998  0.0367  0.2176
 7334SOL     OW29101   2.198   3.607   5.605 -0.1864  0.0514  0.3213
 7334SOL    HW229102   2.121   3.664   5.607 -0.3555 -0.1597 -0.1006
 7334SOL    HW329103   2.167   3.527   5.564  0.6194  0.5121 -1.2925
 7334SOL    MW429104   2.184   3.604   5.600 -0.2831  0.6720 -0.0481
 7335SOL     OW29105   2.156   4.896   5.752  0.1832  0.8119 -0.2523
 7335SOL    HW229106   2.155   4.941   5.667  0.5011  1.8736  0.2801
 7335SOL    HW329107   2.244   4.911   5.785 -0.2965  1.4706  0.7923
 7335SOL    MW429108   2.167   4.904   5.745 -0.1408  0.1343  0.0305
 7336SOL     OW29109   2.340   5.446   6.040  0.1679  0.2077  0.3610
 7336SOL    HW229110   2.317   5.360   6.004  3.1644 -1.6342  2.3264
 7336SOL    HW329111   2.322   5.507   5.969 -1.0158 -2.1838 -1.5668
 7336SOL    MW429112   2.335   5.442   6.026  0.5328 -0.1693 -0.2429
 7337SOL     OW29113   0.604   1.550   3.525  0.0093  0.3139 -0.5016
 7337SOL    HW229114   0.669   1.529   3.592  0.2355 -0.4208 -0.9348
 7337SOL    HW329115   0.652   1.544   3.442 -0.8134 -1.1899 -0.9011
 7337SOL    MW429116   0.619   1.546   3.523  0.0807  0.3358  0.0449
 7338SOL     OW29117   2.420   5.267   3.979  0.0069 -0.3050  0.1750
 7338SOL    HW229118   2.436   5.359   3.997 -2.9702  0.8748 -2.2634
 7338SOL    HW329119   2.338   5.248   4.024  0.6172 -1.8268  0.6993
 7338SOL    MW429120   2.411   5.277   3.987 -0.1811 -0.8235  0.2983
 7339SOL     OW29121   2.569   1.770   6.351  0.3519  0.0738 -0.5305
 7339SOL    HW229122   2.533   1.696   6.302  0.4021 -0.3507  0.0548
 7339SOL    HW329123   2.587   1.837   6.285 -1.9875  0.5190 -0.7986
 7339SOL    MW429124   2.567   1.769   6.336 -0.3208 -0.1036 -0.0855
 7340SOL     OW29125   2.169   0.848   2.456  0.1882 -0.0659 -0.1698
 7340SOL    HW229126   2.105   0.916   2.436 -0.5110 -1.2472 -2.2263
 7340SOL    HW329127   2.225   0.845   2.378  2.2969  0.3563  1.2321
 7340SOL    MW429128   2.168   0.857   2.443 -0.0081  0.1388 -0.2318
 7341SOL     OW29129   1.269   0.960   0.705 -0.0492  0.2176  0.2681
 7341SOL    HW229130   1.348   0.992   0.750  0.1855 -0.1250  0.1075
 7341SOL    HW329131   1.272   0.865   0.718 -0.2195  0.1627 -0.0910
 7341SOL    MW429132   1.280   0.952   0.713  0.6071 -0.7099  0.0062
 7342SOL     OW29133   5.963   4.196   5.625 -0.0880 -0.1294 -0.5143
 7342SOL    HW229134   5.980   4.177   5.717 -1.4841  2.5435  0.3977
 7342SOL    HW329135   6.021   4.269   5.604 -0.2976 -0.2401 -1.5628
 7342SOL    MW429136   5.973   4.203   5.634 -0.2264 -0.2472 -0.1787
 7343SOL     OW29137   5.897   4.804   5.455  0.2021  0.5191  0.6076
 7343SOL    HW229138   5.905   4.714   5.487 -0.0735  0.6245  0.9738
 7343SOL    HW329139   5.867   4.854   5.531 -1.1389  0.6569  0.0091
 7343SOL    MW429140   5.894   4.799   5.469 -0.0244  0.2728 -0.0380
 7344SOL     OW29141   1.171   1.843   3.205  0.1412 -0.3628  0.2315
 7344SOL    HW229142   1.172   1.827   3.111 -1.7317 -0.9493  0.2898
 7344SOL    HW329143   1.248   1.797   3.237  0.8606 -0.0792 -1.0005
 7344SOL    MW429144   1.182   1.835   3.197  0.0685  0.5873  0.3041
 7345SOL     OW29145   2.141   4.913   6.333  0.0394  0.1088 -0.2376
 7345SOL    HW229146   2.064   4.891   6.387  1.1316  0.5295  1.5554
 7345SOL    HW329147   2.124   4.868   6.250 -1.8331 -0.3602  0.3279
 7345SOL    MW429148   2.128   4.904   6.329 -0.0493  0.2929  0.4010
 7346SOL     OW29149   5.734   4.446   4.837 -0.0602 -0.2687 -0.3905
 7346SOL    HW229150   5.721   4.471   4.745  0.0277 -1.7517 -0.8230
 7346SOL    HW329151   5.725   4.529   4.885 -2.5095  0.2005 -1.4768
 7346SOL    MW429152   5.731   4.460   4.831  0.7184 -0.0250 -0.2212
 7347SOL     OW29153   2.358   3.841   0.208 -0.1747  0.0608  0.3823
 7347SOL    HW229154   2.301   3.917   0.212 -0.4802  0.0005 -1.6573
 7347SOL    HW329155   2.432   3.862   0.265 -0.8129  1.3835  0.7406
 7347SOL    MW429156   2.360   3.854   0.216 -0.4606  0.0242  0.1281
 7348SOL     OW29157   6.293   3.028   1.596  0.2298 -0.2275 -0.0103
 7348SOL    HW229158   6.321   3.084   1.668  0.3981  0.0761 -0.3057
 7348SOL    HW329159   6.225   2.973   1.633 -2.2397  2.3248 -0.4616
 7348SOL    MW429160   6.288   3.028   1.610 -0.2008  0.0390 -0.1660
 7349SOL     OW29161   2.185   3.062   0.458 -0.0829 -0.6282  0.1239
 7349SOL    HW229162   2.128   3.047   0.382  0.7768 -0.6126 -0.5359
 7349SOL    HW329163   2.185   3.157   0.469 -0.4976 -0.6552  0.3757
 7349SOL    MW429164   2.177   3.072   0.450 -0.3275 -0.2228 -0.4734
 7350SOL     OW29165   2.018   6.163   2.273 -0.0713  0.0893 -0.3993
 7350SOL    HW229166   1.978   6.119   2.347  2.6727 -1.8399  0.0740
 7350SOL    HW329167   1.985   6.117   2.196  0.3492 -0.7592 -0.0826
 7350SOL    MW429168   2.009   6.151   2.273 -0.1827  0.2058  0.1073
 7351SOL     OW29169   4.962   4.653   0.799 -0.2611 -0.4072  0.0090
 7351SOL    HW229170   4.949   4.616   0.712  0.4531  0.2909 -0.4092
 7351SOL    HW329171   5.039   4.606   0.834 -1.7771 -2.2002  1.1530
 7351SOL    MW429172   4.971   4.642   0.792  0.4632  0.4615  0.7530
 7352SOL     OW29173   4.426   6.051   0.352 -0.3718  0.1092 -0.5263
 7352SOL    HW229174   4.343   6.054   0.401 -0.1019  0.5517 -0.0865
 7352SOL    HW329175   4.428   5.963   0.313  0.5380 -1.2114  2.2643
 7352SOL    MW429176   4.415   6.040   0.353  0.3642  0.2257 -0.5717
 7353SOL     OW29177   0.304   0.455   2.326  0.3001 -0.0969  0.0971
 7353SOL    HW229178   0.330   0.546   2.313 -1.4183  0.4770  0.3752
 7353SOL    HW329179   0.265   0.429   2.243  0.4279 -0.4623  0.1497
 7353SOL    MW429180   0.302   0.464   2.314 -0.1386  0.2777 -0.2793
 7354SOL     OW29181   1.042   4.191   2.723 -0.4386  0.1473  0.4558
 7354SOL    HW229182   1.016   4.113   2.773 -0.5652 -0.1231 -0.0262
 7354SOL    HW329183   1.137   4.191   2.727 -0.3477 -0.9904 -0.9561
 7354SOL    MW429184   1.051   4.181   2.730 -0.1064 -0.2510 -0.2579
 7355SOL     OW29185   4.056   2.680   2.863 -0.1526  0.4940 -0.1828
 7355SOL    HW229186   4.115   2.608   2.839 -1.0126 -0.1416 -0.4596
 7355SOL    HW329187   4.028   2.659   2.952 -0.0721  0.7211 -0.1038
 7355SOL    MW429188   4.060   2.668   2.871  0.8670  0.0005 -0.5669
 7356SOL     OW29189   3.969   2.027   2.908 -0.1141 -0.3756 -0.5209
 7356SOL    HW229190   4.050   2.055   2.866 -0.8474 -0.0365 -1.7570
 7356SOL    HW329191   3.911   2.003   2.836 -0.2996 -3.0139  0.4227
 7356SOL    MW429192   3.972   2.028   2.893  0.0065 -0.2126  0.0553
 7357SOL     OW29193   3.777   5.588   2.825 -0.5914  0.5908  0.0896
 7357SOL    HW229194   3.771   5.504   2.870  1.4212 -0.3910 -1.3370
 7357SOL    HW329195   3.831   5.643   2.883 -0.0816  0.1536  0.0388
 7357SOL    MW429196   3.784   5.584   2.839  0.5966 -0.3781  0.1457
 7358SOL     OW29197   4.970   3.977   3.900  0.0502 -0.2779 -0.2766
 7358SOL    HW229198   4.955   3.882   3.909  0.6496 -0.3809 -0.3686
 7358SOL    HW329199   5.065   3.986   3.897  0.0026  0.3632  0.0836
 7358SOL    MW429200   4.980   3.965   3.901 -0.3227  0.1464  0.5167
 7359SOL     OW29201   2.695   1.881   3.957 -0.1104 -0.1035 -0.2880
 7359SOL    HW229202   2.666   1.942   4.025 -1.3100 -2.2688  1.2938
 7359SOL    HW329203   2.737   1.810   4.006 -1.5542 -2.0348 -1.7064
 7359SOL    MW429204   2.697   1.880   3.973 -0.3157  0.5108 -0.1890
 7360SOL     OW29205   3.925   4.986   0.288 -0.0144  0.4583 -0.4301
 7360SOL    HW229206   3.874   4.934   0.350  0.2101  1.0478  0.2696
 7360SOL    HW329207   3.940   5.069   0.333 -1.1886  1.5101 -1.8963
 7360SOL    MW429208   3.920   4.990   0.302  0.2536 -0.4971 -0.1857
 7361SOL     OW29209   1.129   0.787   0.116 -0.6276 -0.1123 -0.1733
 7361SOL    HW229210   1.167   0.865   0.157  0.1822 -0.5919  0.0082
 7361SOL    HW329211   1.195   0.758   0.053  0.3058 -2.1668  1.6215
 7361SOL    MW429212   1.143   0.794   0.113  0.0752 -0.0209 -0.5317
 7362SOL     OW29213   5.327   4.003   6.030 -0.6700  0.0594  0.0379
 7362SOL    HW229214   5.246   3.975   6.072 -0.0430 -1.2267  0.4722
 7362SOL    HW329215   5.341   4.092   6.060 -1.9811  0.3395 -0.1455
 7362SOL    MW429216   5.318   4.011   6.040 -0.8831  0.0944 -0.1137
 7363SOL     OW29217   5.942   5.516   1.086  0.0319  0.2775  0.4114
 7363SOL    HW229218   5.917   5.537   0.996  1.1425  0.7508  0.1940
 7363SOL    HW329219   5.860   5.492   1.129 -0.3424 -1.3930 -1.1094
 7363SOL    MW429220   5.928   5.516   1.080 -0.3189 -0.3315  0.4195
 7364SOL     OW29221   3.090   0.407   0.861  0.3004  0.0991  0.4236
 7364SOL    HW229222   3.166   0.456   0.828 -0.1577  0.3320 -0.3012
 7364SOL    HW329223   3.105   0.318   0.830  0.5869  0.0052  0.8179
 7364SOL    MW429224   3.102   0.402   0.853  0.6581 -0.5015 -0.1991
 7365SOL     OW29225   1.688   4.716   0.444  0.2961 -0.9211  0.3105
 7365SOL    HW229226   1.673   4.767   0.523 -1.4713  0.9391 -1.1202
 7365SOL    HW329227   1.750   4.768   0.393 -1.8513  0.1320 -1.3619
 7365SOL    MW429228   1.694   4.729   0.447  0.3052 -0.5127  0.4889
 7366SOL     OW29229   0.898   2.425   0.310 -0.0673 -0.0439  0.1125
 7366SOL    HW229230   0.942   2.440   0.227 -2.2072 -1.8779 -1.4959
 7366SOL    HW329231   0.812   2.465   0.300 -0.3346 -0.1918  1.5116
 7366SOL    MW429232   0.892   2.432   0.298 -0.7500  0.2012  0.4016
 7367SOL     OW29233   2.259   4.585   6.261 -0.0742 -0.0138  0.0075
 7367SOL    HW229234   2.285   4.495   6.281  3.2001  0.7912 -0.1035
 7367SOL    HW329235   2.274   4.632   6.343  0.3328  0.8431 -0.5621
 7367SOL    MW429236   2.264   4.579   6.275  0.3413  0.0998  0.5312
 7368SOL     OW29237   5.112   3.499   0.764  0.0046 -0.0161  0.5617
 7368SOL    HW229238   5.119   3.429   0.830 -1.0036 -0.3117  0.3734
 7368SOL    HW329239   5.175   3.475   0.697 -0.2796 -0.7166  0.5366
 7368SOL    MW429240   5.121   3.487   0.764 -1.1859 -0.1585  0.3804
 7369SOL     OW29241   1.779   3.553   4.171 -0.3648 -0.7405 -0.1832
 7369SOL    HW229242   1.762   3.484   4.235 -0.8960  0.7555  1.3651
 7369SOL    HW329243   1.752   3.634   4.215  0.9360  0.5552 -1.6441
 7369SOL    MW429244   1.773   3.554   4.185  0.3496 -0.5286  0.2327
 7370SOL     OW29245   1.242   4.210   3.566 -0.0543 -0.4172  0.0748
 7370SOL    HW229246   1.196   4.148   3.510 -0.9732 -0.4550  0.8436
 7370SOL    HW329247   1.326   4.224   3.523 -0.8800 -0.1358 -1.5194
 7370SOL    MW429248   1.247   4.204   3.553 -0.6218  0.2144 -0.5572
 7371SOL     OW29249   2.662   4.495   3.018 -0.3110  0.6285 -0.0434
 7371SOL    HW229250   2.578   4.471   2.980  0.0041  1.2779 -1.1871
 7371SOL    HW329251   2.665   4.446   3.101 -1.4297 -0.0593 -0.3795
 7371SOL    MW429252   2.651   4.485   3.024 -0.3278 -0.3927 -0.3906
 7372SOL     OW29253   2.220   6.458   2.532 -0.2643 -0.2614  0.1566
 7372SOL    HW229254   2.244   6.486   2.620  0.4569  2.8833 -0.9226
 7372SOL    HW329255   2.300   6.421   2.496  0.5846  1.9393 -0.3778
 7372SOL    MW429256   2.233   6.457   2.539  0.1263  0.0797  0.1298
 7373SOL     OW29257   3.570   6.190   2.982  0.2570  0.0541  0.1918
 7373SOL    HW229258   3.620   6.108   2.980  0.7093  0.3281  0.1159
 7373SOL    HW329259   3.558   6.214   2.890 -0.8446 -0.5001  0.1732
 7373SOL    MW429260   3.575   6.182   2.969  0.3898  0.1328 -0.1622
 7374SOL     OW29261   5.351   2.530   0.236 -0.5322 -0.1751  0.7455
 7374SOL    HW229262   5.409   2.474   0.288 -0.7151  0.9294  2.2106
 7374SOL    HW329263   5.269   2.482   0.232 -0.4049 -0.4352  1.1727
 7374SOL    MW429264   5.348   2.516   0.243 -0.5992 -0.0201  0.1978
 7375SOL     OW29265   4.979   3.118   3.793  0.0693  0.0565  0.0284
 7375SOL    HW229266   4.941   3.202   3.819  2.0522  0.7888  0.6664
 7375SOL    HW329267   4.997   3.073   3.875 -0.4552 -0.7738 -0.3003
 7375SOL    MW429268   4.976   3.123   3.807  0.4020 -0.0551 -0.0625
 7376SOL     OW29269   2.574   5.187   3.491  0.2271 -0.2849  0.3980
 7376SOL    HW229270   2.518   5.112   3.510  0.2049 -0.4736 -0.4057
 7376SOL    HW329271   2.517   5.249   3.444  0.4398 -0.0722  0.4149
 7376SOL    MW429272   2.559   5.186   3.488 -0.7208 -0.1174 -0.3311
 7377SOL     OW29273   4.300   1.468   3.002  0.4054  0.1769  0.2681
 7377SOL    HW229274   4.330   1.490   3.090  1.0106  0.0657  0.0908
 7377SOL    HW329275   4.357   1.518   2.943  1.3626 -1.3038 -0.1246
 7377SOL    MW429276   4.311   1.477   3.005 -0.2217  0.5971 -0.1157
 7378SOL     OW29277   5.578   2.368   3.591 -0.1962  0.1963  0.2757
 7378SOL    HW229278   5.545   2.432   3.529 -1.1196 -0.5805 -0.0590
 7378SOL    HW329279   5.665   2.400   3.614 -0.2655  1.0670 -0.5975
 7378SOL    MW429280   5.585   2.380   3.586  0.8506  0.1323  0.7046
 7379SOL     OW29281   1.422   4.558   2.139  0.0672 -0.3699  0.3582
 7379SOL    HW229282   1.500   4.614   2.140 -0.1554 -0.0663  0.7373
 7379SOL    HW329283   1.439   4.495   2.068 -0.2476  0.9704 -0.9686
 7379SOL    MW429284   1.435   4.557   2.130  0.0578  0.4991 -0.6991
 7380SOL     OW29285   4.869   4.212   4.606 -0.0524  0.3672  0.2308
 7380SOL    HW229286   4.862   4.226   4.511 -2.6050 -0.7420  0.1821
 7380SOL    HW329287   4.816   4.282   4.644 -1.1717 -0.6969  0.6791
 7380SOL    MW429288   4.861   4.223   4.598  0.0752  0.1422 -0.2514
 7381SOL     OW29289   3.003   5.716   0.279  0.1964  0.2550 -0.1047
 7381SOL    HW229290   3.011   5.665   0.360 -0.0248  0.4965  0.0721
 7381SOL    HW329291   2.908   5.727   0.267  0.2349  0.3823 -0.2944
 7381SOL    MW429292   2.991   5.711   0.288  0.3355 -0.2200  0.3518
 7382SOL     OW29293   4.237   5.075   3.019 -0.0290 -0.3026 -0.3739
 7382SOL    HW229294   4.217   4.982   3.022  0.2423 -0.4140 -1.5965
 7382SOL    HW329295   4.246   5.095   2.926 -0.9555  1.1374 -0.1772
 7382SOL    MW429296   4.236   5.066   3.007  0.0946 -0.2628  0.3458
 7383SOL     OW29297   2.623   3.622   5.497 -0.2876  0.4343 -0.4891
 7383SOL    HW229298   2.632   3.548   5.438  1.0166 -0.4020  0.6909
 7383SOL    HW329299   2.588   3.584   5.578 -0.4884  1.2721 -0.1719
 7383SOL    MW429300   2.619   3.607   5.500 -0.1991 -0.1234  0.2423
 7384SOL     OW29301   2.983   0.809   1.314  0.1265  0.7620  0.0668
 7384SOL    HW229302   3.007   0.855   1.234 -0.0132 -1.4328 -1.3033
 7384SOL    HW329303   2.913   0.863   1.352  0.7745  2.2781 -0.8066
 7384SOL    MW429304   2.977   0.822   1.309  0.0676 -0.6158  0.1859
 7385SOL     OW29305   1.448   4.454   5.005 -0.1602 -0.2838 -0.3127
 7385SOL    HW229306   1.502   4.527   5.033 -1.2966  0.4924 -0.0613
 7385SOL    HW329307   1.420   4.478   4.916  0.1230 -0.8019 -0.5452
 7385SOL    MW429308   1.451   4.467   4.997 -0.0599 -0.1898  0.7621
 7386SOL     OW29309   4.258   3.655   3.253  0.0748  0.1394 -0.2147
 7386SOL    HW229310   4.342   3.612   3.270 -0.4096 -0.3323  1.0845
 7386SOL    HW329311   4.195   3.584   3.249 -0.3063  0.5110 -0.9567
 7386SOL    MW429312   4.261   3.640   3.255  0.4108  0.1611 -0.1476
 7387SOL     OW29313   2.461   0.281   4.041  0.0742 -0.2939  0.2319
 7387SOL    HW229314   2.420   0.196   4.060  1.4373 -0.5391  2.3700
 7387SOL    HW329315   2.390   0.344   4.051 -0.6853 -1.0564 -0.1962
 7387SOL    MW429316   2.446   0.278   4.045 -0.0068  0.3074  0.6098
 7388SOL     OW29317   1.394   1.078   2.881 -0.5274  0.5001  0.6697
 7388SOL    HW229318   1.324   1.086   2.946 -0.1430 -0.8184  1.2857
 7388SOL    HW329319   1.379   0.992   2.841  0.5661  0.3277  0.6177
 7388SOL    MW429320   1.383   1.068   2.885 -0.1856  0.1360 -0.6093
 7389SOL     OW29321   5.088   1.274   4.403  0.5555 -0.8167  0.2623
 7389SOL    HW229322   5.162   1.266   4.342  0.9907  4.3028 -0.3128
 7389SOL    HW329323   5.127   1.258   4.489  2.0172  0.1966 -0.1624
 7389SOL    MW429324   5.103   1.270   4.406  0.2052 -0.1391 -0.1528
 7390SOL     OW29325   1.293   3.755   2.732  0.2720  0.8248 -0.0484
 7390SOL    HW229326   1.378   3.717   2.753  0.9595  2.2629 -0.0480
 7390SOL    HW329327   1.262   3.792   2.815 -0.5453 -0.0363  0.0362
 7390SOL    MW429328   1.300   3.755   2.745 -0.3964 -0.2258  0.2911
 7391SOL     OW29329   0.687   0.150   3.367  0.5177 -0.1663 -0.0043
 7391SOL    HW229330   0.738   0.227   3.391  2.1665 -0.9019 -0.9720
 7391SOL    HW329331   0.736   0.077   3.405 -0.5782 -0.8207  0.2083
 7391SOL    MW429332   0.700   0.150   3.375 -0.1247 -0.5406  0.4177
 7392SOL     OW29333   2.203   3.281   2.243  0.0677 -0.8013  0.3986
 7392SOL    HW229334   2.111   3.298   2.226  0.0160  1.9687  2.6098
 7392SOL    HW329335   2.208   3.270   2.338  2.2862  2.0122  0.7461
 7392SOL    MW429336   2.192   3.282   2.254 -0.1262  0.2936 -0.7324
 7393SOL     OW29337   2.539   4.697   1.900 -0.2091  0.0827  0.5557
 7393SOL    HW229338   2.458   4.738   1.869 -0.0702  0.8011  1.1150
 7393SOL    HW329339   2.608   4.737   1.846 -0.2002 -0.3625  0.2333
 7393SOL    MW429340   2.538   4.708   1.888  0.0676  0.1465 -0.0709
 7394SOL     OW29341   5.926   4.279   0.996 -0.6499  0.5111  0.0328
 7394SOL    HW229342   5.883   4.323   0.922 -0.8242 -0.0791 -0.2217
 7394SOL    HW329343   5.911   4.337   1.070 -2.2620  0.1304  0.0447
 7394SOL    MW429344   5.918   4.292   0.996  0.2447 -0.4781  0.7211
 7395SOL     OW29345   2.594   5.956   4.433  0.3204 -0.1119  0.3387
 7395SOL    HW229346   2.601   5.861   4.438 -0.9321 -0.2109  0.5492
 7395SOL    HW329347   2.632   5.987   4.515 -0.2729 -0.5023  0.7686
 7395SOL    MW429348   2.600   5.948   4.445  0.0285 -0.5433 -0.3054
 7396SOL     OW29349   3.274   0.817   3.197  0.1040 -0.4740  0.5582
 7396SOL    HW229350   3.319   0.797   3.114 -0.8421 -2.4929  0.4764
 7396SOL    HW329351   3.194   0.861   3.170 -0.1505 -1.0301  0.3883
 7396SOL    MW429352   3.270   0.820   3.182 -0.3448 -0.0966  0.5948
 7397SOL     OW29353   3.531   4.792   0.339  0.0802  0.2196 -0.6688
 7397SOL    HW229354   3.490   4.718   0.384 -0.6008  1.9973  1.8511
 7397SOL    HW329355   3.457   4.849   0.314  0.7040  1.2323 -0.2796
 7397SOL    MW429356   3.515   4.790   0.342 -0.0212  0.0015 -0.0854
 7398SOL     OW29357   0.831   0.300   1.357  0.0804  0.0885 -0.4053
 7398SOL    HW229358   0.770   0.313   1.430  2.1038 -0.2092  1.4404
 7398SOL    HW329359   0.870   0.386   1.342  0.1871  0.0000 -0.6459
 7398SOL    MW429360   0.828   0.313   1.365  0.6681  0.1890 -0.4059
 7399SOL     OW29361   6.275   5.883   0.647 -0.3171 -0.4262 -0.6488
 7399SOL    HW229362   6.358   5.925   0.671 -0.5904  0.5322 -1.3009
 7399SOL    HW329363   6.300   5.815   0.585 -0.0865  0.5710 -1.6940
 7399SOL    MW429364   6.289   5.880   0.642  0.2927  0.3126  0.1932
 7400SOL     OW29365   0.065   3.135   0.006  0.5088  0.3205 -0.1343
 7400SOL    HW229366   0.044   3.098   0.092  1.4880  1.8714  0.8152
 7400SOL    HW329367  -0.018   3.132  -0.042  0.3516 -2.2528  0.1649
 7400SOL    MW429368   0.051   3.129   0.011 -0.2666  0.3357 -0.4809
 7401SOL     OW29369   3.166   3.350   5.541  0.1296  0.1384 -0.6008
 7401SOL    HW229370   3.147   3.271   5.592  0.1758 -0.4393 -1.4621
 7401SOL    HW329371   3.104   3.415   5.574 -0.5382 -0.5239 -0.5192
 7401SOL    MW429372   3.156   3.348   5.552 -0.4268  0.1655  0.0646
 7402SOL     OW29373   6.334   6.476   1.549 -0.0476  0.0805 -0.3322
 7402SOL    HW229374   6.254   6.475   1.602  0.5679  3.0643  0.8489
 7402SOL    HW329375   6.313   6.529   1.473  0.5287  0.0396 -0.5279
 7402SOL    MW429376   6.321   6.483   1.546  0.4701  0.4670 -0.5973
 7403SOL     OW29377   5.630   3.045   0.062  0.8293 -0.3645  0.3441
 7403SOL    HW229378   5.689   3.082  -0.004 -0.9310 -0.6134 -1.4629
 7403SOL    HW329379   5.687   3.024   0.136  2.7689  0.6683 -0.7694
 7403SOL    MW429380   5.646   3.047   0.063 -0.3323  0.1869  0.4627
 7404SOL     OW29381   6.111   2.485   0.295 -0.3114 -0.0692  0.1029
 7404SOL    HW229382   6.071   2.512   0.213  1.2328 -0.9609 -0.9969
 7404SOL    HW329383   6.197   2.528   0.295  1.3164 -3.0624 -0.6611
 7404SOL    MW429384   6.117   2.494   0.285  0.3443 -0.2274  0.3197
 7405SOL     OW29385   5.771   5.821   5.196  0.5974  0.0680  0.3277
 7405SOL    HW229386   5.731   5.784   5.117  0.2722  0.6828  0.1991
 7405SOL    HW329387   5.756   5.915   5.188  1.5755  0.2514  0.5565
 7405SOL    MW429388   5.764   5.828   5.184 -0.3083 -0.0966 -0.2938
 7406SOL     OW29389   2.305   3.562   0.273 -0.0902 -0.5454  0.1249
 7406SOL    HW229390   2.364   3.524   0.209 -0.5448 -0.3374 -0.4309
 7406SOL    HW329391   2.294   3.653   0.245 -0.3373 -0.4664  0.4658
 7406SOL    MW429392   2.311   3.569   0.261 -0.1471 -0.4136  0.4394
 7407SOL     OW29393   5.714   1.008   0.643  0.0422 -1.7490 -0.7344
 7407SOL    HW229394   5.624   0.996   0.613 -0.8234  0.5518  0.7044
 7407SOL    HW329395   5.759   1.052   0.571 -1.2906  1.2795  0.1442
 7407SOL    MW429396   5.708   1.012   0.629 -0.5542 -0.1638  0.1740
 7408SOL     OW29397   3.415   2.037   2.662 -0.1390  0.4639  0.1122
 7408SOL    HW229398   3.411   2.089   2.582 -1.5377  2.4054  1.3724
 7408SOL    HW329399   3.499   2.059   2.702  1.0446 -1.2966 -1.2390
 7408SOL    MW429400   3.426   2.047   2.657  0.0260 -0.4647 -0.5356
 7409SOL     OW29401   5.202   6.291   0.585 -0.3757  0.3931  0.4117
 7409SOL    HW229402   5.173   6.226   0.520  1.8175 -0.8337  0.5811
 7409SOL    HW329403   5.217   6.240   0.664  0.4404  1.2764  0.8384
 7409SOL    MW429404   5.200   6.276   0.587 -0.6340 -0.0253  0.1000
 7410SOL     OW29405   0.601   5.652   2.596  0.0439 -0.8607  0.2284
 7410SOL    HW229406   0.526   5.609   2.555  0.6728 -0.2635 -1.6629
 7410SOL    HW329407   0.666   5.583   2.607  0.5365 -0.7477 -1.5302
 7410SOL    MW429408   0.599   5.637   2.592  0.2627  0.1414  0.2672
 7411SOL     OW29409   0.978   1.105   0.420 -0.2192  0.5474  0.0236
 7411SOL    HW229410   1.073   1.091   0.423 -0.2147  0.4710 -0.4222
 7411SOL    HW329411   0.964   1.155   0.340 -0.6298 -0.0094 -0.2528
 7411SOL    MW429412   0.989   1.110   0.410  0.4054  0.3691 -0.1692
 7412SOL     OW29413   1.195   0.184   1.371  0.4522 -0.3889 -0.1196
 7412SOL    HW229414   1.261   0.253   1.366  1.4990 -1.4015 -1.0303
 7412SOL    HW329415   1.246   0.102   1.368 -0.4680 -1.3427  3.8910
 7412SOL    MW429416   1.210   0.182   1.370  0.0153 -0.1211 -0.2789
 7413SOL     OW29417   4.067   6.161   3.738  0.1176 -0.4453  0.4269
 7413SOL    HW229418   4.021   6.175   3.655 -0.8072 -1.6335  0.7039
 7413SOL    HW329419   4.037   6.232   3.794  0.6270  0.2741 -0.2027
 7413SOL    MW429420   4.057   6.172   3.734 -0.9548 -0.0202  0.0260
 7414SOL     OW29421   0.444   5.658   4.189 -0.2013 -0.8052 -0.2836
 7414SOL    HW229422   0.407   5.745   4.171  0.6389 -0.2105  0.7608
 7414SOL    HW329423   0.516   5.650   4.127  0.2398 -0.4016  0.1714
 7414SOL    MW429424   0.448   5.669   4.178 -0.0206 -0.5634  0.3132
 7415SOL     OW29425   2.101   5.858   0.447  0.3667 -0.1846 -0.5699
 7415SOL    HW229426   2.182   5.868   0.497  0.2104  0.7584 -0.4880
 7415SOL    HW329427   2.101   5.932   0.387 -0.5169 -0.0878 -0.4612
 7415SOL    MW429428   2.112   5.869   0.446  0.1787  0.1725  0.1128
 7416SOL     OW29429   4.487   2.868   2.629 -0.8933  0.0181 -0.1351
 7416SOL    HW229430   4.477   2.880   2.723 -1.2328  0.3300 -0.2068
 7416SOL    HW329431   4.534   2.786   2.620 -2.0588 -0.7270  0.2866
 7416SOL    MW429432   4.492   2.859   2.640  0.1200 -0.2900  0.2665
 7417SOL     OW29433   1.379   5.910   5.652  0.2126  0.1117 -0.3614
 7417SOL    HW229434   1.297   5.862   5.638 -0.3596  1.1175 -0.5516
 7417SOL    HW329435   1.352   5.993   5.690  1.1637  0.4211 -0.3297
 7417SOL    MW429436   1.365   5.914   5.655  0.0238 -0.1563 -0.6371
 7418SOL     OW29437   2.833   4.381   5.471 -0.6525  0.1375  0.3261
 7418SOL    HW229438   2.852   4.359   5.562  1.5676 -1.0104 -0.3530
 7418SOL    HW329439   2.812   4.475   5.474 -0.5698  0.1430  1.9925
 7418SOL    MW429440   2.833   4.391   5.484 -0.5673 -0.1391  0.5743
 7419SOL     OW29441   4.401   3.263   4.032  0.2895 -0.6942  0.3990
 7419SOL    HW229442   4.357   3.215   4.102 -1.1872 -0.9428 -0.6522
 7419SOL    HW329443   4.438   3.195   3.976  0.0312 -0.5401  0.0420
 7419SOL    MW429444   4.400   3.247   4.034  0.1509  0.3309 -0.5240
 7420SOL     OW29445   1.206   0.671   3.064  0.0185 -0.5244 -0.2144
 7420SOL    HW229446   1.221   0.586   3.021 -0.0935  0.2761 -1.8973
 7420SOL    HW329447   1.226   0.654   3.156 -0.4399 -2.4981 -0.4136
 7420SOL    MW429448   1.211   0.657   3.070  0.0288 -0.5750  0.3435
 7421SOL     OW29449   0.745   1.184   0.962 -0.2581  0.6034  0.1838
 7421SOL    HW229450   0.702   1.246   1.020  0.3384  0.1466  1.1307
 7421SOL    HW329451   0.822   1.155   1.010 -0.1180 -0.2935 -0.5541
 7421SOL    MW429452   0.750   1.188   0.976 -0.0979 -0.3774  0.3123
 7422SOL     OW29453   2.093   1.237   4.341  0.0999  0.1935  0.2040
 7422SOL    HW229454   2.051   1.201   4.419  1.7489 -0.2805  0.9234
 7422SOL    HW329455   2.159   1.173   4.317  1.6950  1.7423  0.2488
 7422SOL    MW429456   2.096   1.224   4.348 -0.7213 -0.3879  0.3355
 7423SOL     OW29457   5.953   3.469   3.520  0.3181  0.3898 -0.0340
 7423SOL    HW229458   5.890   3.416   3.471  0.4920  0.5389 -0.4205
 7423SOL    HW329459   6.015   3.500   3.455  0.8890  0.1173  0.3671
 7423SOL    MW429460   5.953   3.466   3.505  0.9427  0.7023  0.4184
 7424SOL     OW29461   1.564   0.714   1.687 -0.5573 -0.2412 -0.0140
 7424SOL    HW229462   1.558   0.637   1.743 -2.9295 -0.5191 -0.5703
 7424SOL    HW329463   1.476   0.750   1.685 -0.3445  0.3524 -2.7446
 7424SOL    MW429464   1.552   0.709   1.694 -0.1256  0.3851  0.2523
 7425SOL     OW29465   2.156   4.637   5.598 -0.4104  0.0754  0.1678
 7425SOL    HW229466   2.236   4.585   5.599  0.8470  1.9231  0.3026
 7425SOL    HW329467   2.182   4.722   5.633 -2.3491  0.8458 -0.1490
 7425SOL    MW429468   2.170   4.642   5.603  0.0339  0.2300  0.3677
 7426SOL     OW29469   1.420   2.840   0.531  0.1905 -0.4855 -0.1125
 7426SOL    HW229470   1.505   2.811   0.562 -0.5370 -2.1301  0.4228
 7426SOL    HW329471   1.362   2.765   0.542 -1.3966  0.6470 -0.2679
 7426SOL    MW429472   1.424   2.826   0.536  0.3790 -0.2949  0.1501
 7427SOL     OW29473   3.575   1.823   5.838 -0.5199 -0.3851 -0.1732
 7427SOL    HW229474   3.576   1.903   5.891  0.7826  0.2505 -1.0976
 7427SOL    HW329475   3.592   1.753   5.901  1.4754  0.4025  0.2563
 7427SOL    MW429476   3.577   1.824   5.853  0.2546 -0.5837 -0.2456
 7428SOL     OW29477   5.157   6.246   0.885  0.2688 -0.4680  0.0619
 7428SOL    HW229478   5.082   6.217   0.833  0.8574 -0.9588 -0.5317
 7428SOL    HW329479   5.178   6.172   0.941  2.2042 -1.5206 -1.9423
 7428SOL    MW429480   5.150   6.233   0.886  0.3224  0.5243 -0.3184
 7429SOL     OW29481   3.891   0.869   0.783  0.0869  0.0442 -0.0643
 7429SOL    HW229482   3.839   0.878   0.863  1.0334  0.0331  0.5711
 7429SOL    HW329483   3.974   0.913   0.803  0.1511  0.4931 -1.2275
 7429SOL    MW429484   3.895   0.876   0.796  0.3573 -0.5209  0.5220
 7430SOL     OW29485   5.049   6.052   5.390 -0.1322  0.1688 -0.1575
 7430SOL    HW229486   5.133   6.094   5.409  0.2429  0.3530 -2.0153
 7430SOL    HW329487   5.030   5.999   5.468  1.0224  1.1734  0.8528
 7430SOL    MW429488   5.057   6.051   5.403  0.1595  0.2680 -0.2808
 7431SOL     OW29489   4.992   1.569   4.427  0.0190  0.2629 -0.1454
 7431SOL    HW229490   5.032   1.611   4.504  1.6331  0.8936 -1.2722
 7431SOL    HW329491   5.030   1.481   4.425  1.3443  0.8195 -1.1438
 7431SOL    MW429492   5.003   1.563   4.437  0.0179  0.3440  0.2243
 7432SOL     OW29493   4.773   2.733   1.422  0.1117  0.1609 -0.0023
 7432SOL    HW229494   4.727   2.785   1.488 -0.9737 -0.6549 -0.0923
 7432SOL    HW329495   4.707   2.713   1.356  0.6155 -0.9469 -0.1995
 7432SOL    MW429496   4.759   2.738   1.422 -0.1996  0.1145  0.2641
 7433SOL     OW29497   3.080   4.540   3.493 -0.6038  0.1042  0.4346
 7433SOL    HW229498   3.162   4.587   3.477 -0.7187 -0.1161 -0.9075
 7433SOL    HW329499   3.080   4.523   3.588  0.5427  0.7519  0.5668
 7433SOL    MW429500   3.091   4.544   3.504  0.5436 -0.2582  0.2098
 7434SOL     OW29501   0.593   3.338   1.757 -0.4405  0.2112  0.0744
 7434SOL    HW229502   0.545   3.274   1.810 -1.1496 -0.2076 -1.0367
 7434SOL    HW329503   0.529   3.405   1.736 -0.3888 -0.0300 -0.9025
 7434SOL    MW429504   0.578   3.338   1.762  0.1865 -0.0238  0.6470
 7435SOL     OW29505   4.013   1.381   2.038 -0.0625 -0.3791 -0.3642
 7435SOL    HW229506   4.022   1.468   1.999 -0.3266 -0.6843 -1.1298
 7435SOL    HW329507   3.940   1.341   1.991 -0.0799 -0.9383  0.1254
 7435SOL    MW429508   4.005   1.387   2.027 -0.4371 -0.1940  0.1712
 7436SOL     OW29509   0.716   3.517   5.514 -0.1920  0.0150 -0.4002
 7436SOL    HW229510   0.798   3.567   5.508 -0.6611  0.7931 -0.4232
 7436SOL    HW329511   0.652   3.580   5.548 -0.8729 -0.4840 -0.7409
 7436SOL    MW429512   0.719   3.532   5.518  0.0932 -0.5901 -0.5882
 7437SOL     OW29513   1.191   2.486   0.903  0.4233  0.1475  0.6249
 7437SOL    HW229514   1.122   2.515   0.843 -0.4829 -2.3744  0.3289
 7437SOL    HW329515   1.214   2.565   0.952 -1.4106  1.4769 -0.5071
 7437SOL    MW429516   1.185   2.501   0.902  0.1723  0.1832  0.3392
 7438SOL     OW29517   2.201   0.215   1.291  0.4015 -0.2461  0.0868
 7438SOL    HW229518   2.117   0.203   1.335 -0.2742  0.0511 -1.0821
 7438SOL    HW329519   2.266   0.205   1.360 -0.4277 -3.2009  0.5750
 7438SOL    MW429520   2.198   0.212   1.306 -0.0832 -0.6997 -0.4287
 7439SOL     OW29521   3.039   0.081   4.699 -0.0841 -0.8265 -0.0398
 7439SOL    HW229522   3.087   0.012   4.652 -1.7012 -2.8449  1.0787
 7439SOL    HW329523   3.030   0.048   4.788 -3.0957 -0.4016 -0.0803
 7439SOL    MW429524   3.044   0.067   4.704 -0.6096  0.3370  0.0982
 7440SOL     OW29525   4.612   1.926   5.168  0.0474 -0.2592  0.0805
 7440SOL    HW229526   4.671   1.993   5.203 -2.3589  1.3710  1.3430
 7440SOL    HW329527   4.581   1.879   5.245 -0.8649 -0.5667 -0.4575
 7440SOL    MW429528   4.616   1.929   5.183  0.3718  0.4096  0.4697
 7441SOL     OW29529   2.835   0.987   0.529 -0.2803  0.0722 -0.0113
 7441SOL    HW229530   2.803   1.032   0.607 -0.6215  0.3726 -0.3216
 7441SOL    HW329531   2.758   0.941   0.495  0.0233 -0.6187  0.2082
 7441SOL    MW429532   2.821   0.987   0.535 -0.0418  0.0246 -0.1499
 7442SOL     OW29533   5.938   1.266   3.243  1.0433 -0.0737  0.1744
 7442SOL    HW229534   5.887   1.186   3.237 -0.6074  1.0191 -1.6807
 7442SOL    HW329535   5.891   1.320   3.307  0.2830  0.6027 -0.9135
 7442SOL    MW429536   5.925   1.263   3.251  0.2379 -0.1083  0.1564
 7443SOL     OW29537   2.675   0.805   0.303  0.4164 -0.6232  0.0011
 7443SOL    HW229538   2.746   0.859   0.267  0.9488 -0.5701  1.0670
 7443SOL    HW329539   2.599   0.863   0.304  1.5241  1.1271  3.4509
 7443SOL    MW429540   2.675   0.820   0.299 -0.4738  0.1730 -0.2249
 7444SOL     OW29541   5.872   4.839   4.784  0.3604  0.3853 -0.2477
 7444SOL    HW229542   5.875   4.901   4.711  0.8182 -0.1190 -0.6706
 7444SOL    HW329543   5.779   4.822   4.797  0.2491  0.9107 -0.3411
 7444SOL    MW429544   5.860   4.845   4.776 -0.2345 -0.0988 -0.3166
 7445SOL     OW29545   2.434   5.093   2.079 -0.4498  0.1130  0.0955
 7445SOL    HW229546   2.523   5.059   2.085 -0.7828 -0.5670  1.4655
 7445SOL    HW329547   2.378   5.016   2.081 -1.1068  0.5778  0.1386
 7445SOL    MW429548   2.439   5.079   2.080  0.2593  0.2860  0.4472
 7446SOL     OW29549   2.840   5.466   3.292 -0.0561 -0.3796 -0.2252
 7446SOL    HW229550   2.927   5.476   3.329  0.2146 -0.0141 -0.9390
 7446SOL    HW329551   2.817   5.374   3.307  0.0695 -0.2578  0.7623
 7446SOL    MW429552   2.848   5.455   3.299  0.8212 -0.0594 -0.5342
 7447SOL     OW29553   2.393   5.396   3.376  0.6616  0.2827  0.1821
 7447SOL    HW229554   2.314   5.417   3.426  0.3033  2.3504 -1.1279
 7447SOL    HW329555   2.361   5.363   3.292  1.2519 -1.4497  0.5957
 7447SOL    MW429556   2.378   5.395   3.372 -0.3551  0.0602 -0.6170
 7448SOL     OW29557   3.003   4.741   5.575  0.0933  0.5111  0.7548
 7448SOL    HW229558   3.005   4.689   5.655 -1.4535 -0.9063 -0.0713
 7448SOL    HW329559   3.087   4.722   5.532  1.0422  1.4837  2.1143
 7448SOL    MW429560   3.014   4.731   5.580 -0.1127  0.2224  0.2961
 7449SOL     OW29561   4.396   2.309   2.470 -0.0314  0.0644 -0.3353
 7449SOL    HW229562   4.479   2.350   2.444 -1.1630  0.6903 -3.3130
 7449SOL    HW329563   4.334   2.382   2.474 -1.0775 -0.7540 -1.1563
 7449SOL    MW429564   4.399   2.324   2.467  0.0318 -0.0152 -0.0361
 7450SOL     OW29565   0.722   3.428   4.441  0.0028 -0.5525  0.3448
 7450SOL    HW229566   0.659   3.495   4.416  0.0204 -0.8260 -0.4664
 7450SOL    HW329567   0.797   3.477   4.475  0.0777 -0.1407 -0.3785
 7450SOL    MW429568   0.723   3.443   4.442 -0.4895 -0.4736  0.4231
 7451SOL     OW29569   3.505   2.371   4.176 -0.8000  0.0240 -0.1298
 7451SOL    HW229570   3.568   2.306   4.145 -0.2383 -0.0772  1.1824
 7451SOL    HW329571   3.508   2.440   4.110  0.8331  0.1157  0.0073
 7451SOL    MW429572   3.513   2.371   4.163  0.4063  0.6731 -0.3990
 7452SOL     OW29573   6.323   4.601   5.601 -0.1940 -0.1662  0.5161
 7452SOL    HW229574   6.371   4.595   5.684 -2.1732  1.1197  1.8497
 7452SOL    HW329575   6.254   4.536   5.608  0.4960 -1.0728 -0.7997
 7452SOL    MW429576   6.320   4.592   5.613  0.4248  0.3576  0.2116
 7453SOL     OW29577   5.276   3.437   5.270  0.0856  0.4313 -0.4362
 7453SOL    HW229578   5.317   3.447   5.356 -1.2173 -1.2840  0.4510
 7453SOL    HW329579   5.218   3.512   5.262 -0.5667  0.0773  0.6809
 7453SOL    MW429580   5.274   3.448   5.280  0.4152 -0.2637  0.0863
 7454SOL     OW29581   6.021   0.980   4.851 -0.1385 -0.3230  0.0695
 7454SOL    HW229582   5.990   0.890   4.844 -1.3018  0.0205  0.6061
 7454SOL    HW329583   5.942   1.031   4.868  0.8783  0.3470  3.6162
 7454SOL    MW429584   6.007   0.975   4.852 -0.2335  0.0402 -0.4880
 7455SOL     OW29585   3.948   1.949   4.210 -0.2502  0.1182  0.2947
 7455SOL    HW229586   3.943   1.865   4.164 -0.9393  0.1461  0.3085
 7455SOL    HW329587   3.933   1.927   4.302 -2.1212  0.4398  0.0979
 7455SOL    MW429588   3.946   1.935   4.216  0.0177 -0.1484 -0.3760
 7456SOL     OW29589   5.182   2.299   2.065  0.4671 -0.4833 -0.1923
 7456SOL    HW229590   5.212   2.239   1.997 -0.1651 -2.0442  0.8338
 7456SOL    HW329591   5.087   2.284   2.069 -0.0421  2.0150 -1.1975
 7456SOL    MW429592   5.173   2.289   2.057  0.4620  0.1587  0.0261
 7457SOL     OW29593   1.251   0.512   4.278 -0.0029  0.2178  0.5153
 7457SOL    HW229594   1.313   0.441   4.266 -0.8035 -1.0190  2.9930
 7457SOL    HW329595   1.283   0.559   4.356 -0.3373  1.6520 -0.1796
 7457SOL    MW429596   1.263   0.509   4.287  0.1871  0.1597  0.0603
 7458SOL     OW29597   5.164   5.355   0.543 -0.2679  0.2787  0.0839
 7458SOL    HW229598   5.120   5.275   0.574  1.3405 -0.2173  1.2050
 7458SOL    HW329599   5.160   5.414   0.618  0.8757  0.2534  0.1746
 7458SOL    MW429600   5.157   5.352   0.557 -0.8689 -0.1252 -0.3421
 7459SOL     OW29601   3.951   1.449   5.789  0.0655  0.3995  0.3926
 7459SOL    HW229602   3.910   1.534   5.772  0.8382  0.3790 -1.9492
 7459SOL    HW329603   3.956   1.443   5.884 -1.6781  2.1449  0.6601
 7459SOL    MW429604   3.946   1.459   5.799  0.4353  0.3591  0.1169
 7460SOL     OW29605   4.319   5.152   0.182 -0.0638 -0.0718 -0.1635
 7460SOL    HW229606   4.397   5.171   0.129  0.6126 -0.3118  0.7145
 7460SOL    HW329607   4.310   5.229   0.238  1.3980 -1.2971  1.8821
 7460SOL    MW429608   4.328   5.165   0.182 -0.3644  0.2425 -0.4594
 7461SOL     OW29609   4.729   5.254   6.192  0.3130 -0.1814  0.0217
 7461SOL    HW229610   4.725   5.330   6.251  1.0102  1.2844 -1.7395
 7461SOL    HW329611   4.738   5.291   6.105 -1.0454 -2.2791 -1.1067
 7461SOL    MW429612   4.730   5.269   6.188  0.0454  0.0138  0.4292
 7462SOL     OW29613   5.965   0.838   2.216 -0.2908  0.6554 -0.3572
 7462SOL    HW229614   5.961   0.927   2.180 -2.5531  0.6825 -0.1753
 7462SOL    HW329615   5.879   0.800   2.197 -0.1448 -0.7435  1.4369
 7462SOL    MW429616   5.953   0.845   2.209 -0.5019  0.1442  0.0584
 7463SOL     OW29617   4.983   3.629   1.547  0.0013 -0.3286 -0.2406
 7463SOL    HW229618   4.899   3.671   1.533  0.8239  1.9420  1.1560
 7463SOL    HW329619   5.041   3.667   1.481  0.5136  0.0056  0.3873
 7463SOL    MW429620   4.980   3.639   1.536 -0.3899  0.1694 -0.2854
 7464SOL     OW29621   1.924   2.479   4.416  0.3975 -0.6178  0.0076
 7464SOL    HW229622   1.897   2.569   4.398  0.5310 -0.4516  0.6281
 7464SOL    HW329623   1.912   2.433   4.333  0.9549  0.1180 -0.4812
 7464SOL    MW429624   1.919   2.485   4.403  0.1292  0.3132 -0.1251
 7465SOL     OW29625   4.434   4.784   6.124 -0.0636 -0.2209  0.8396
 7465SOL    HW229626   4.462   4.875   6.134  0.0585 -0.2553  0.8055
 7465SOL    HW329627   4.383   4.766   6.203  0.9235 -0.5022  1.4257
 7465SOL    MW429628   4.431   4.794   6.136 -0.1130 -0.5251  0.2340
 7466SOL     OW29629   2.654   0.952   2.587 -0.1457 -0.2978  0.4104
 7466SOL    HW229630   2.668   1.030   2.642 -0.8522  0.9496 -1.1044
 7466SOL    HW329631   2.731   0.949   2.530  0.3123 -1.2538  1.0686
 7466SOL    MW429632   2.666   0.962   2.587 -0.4207  0.1106 -0.3441
 7467SOL     OW29633   4.076   6.218   2.290  0.5290 -0.0592 -0.7465
 7467SOL    HW229634   4.121   6.134   2.284 -0.4983 -0.5802 -1.4410
 7467SOL    HW329635   4.042   6.221   2.379  1.1956 -0.0436 -0.4893
 7467SOL    MW429636   4.078   6.208   2.301 -0.2313 -0.0224  0.0810
 7468SOL     OW29637   3.577   2.726   4.781 -0.1503 -0.0146  0.1772
 7468SOL    HW229638   3.515   2.736   4.852 -0.3227 -0.1972  0.0530
 7468SOL    HW329639   3.525   2.693   4.707  0.3656 -1.7846  0.5547
 7468SOL    MW429640   3.562   2.723   4.780  0.1096 -0.0823 -0.5990
 7469SOL     OW29641   2.894   2.387   1.577 -0.3445 -0.6036 -0.0894
 7469SOL    HW229642   2.984   2.357   1.593 -0.9560 -2.9003 -0.5581
 7469SOL    HW329643   2.885   2.465   1.631  1.3673 -1.3386  1.3883
 7469SOL    MW429644   2.905   2.393   1.586 -0.3215  0.1930  0.0730
 7470SOL     OW29645   3.453   3.827   6.033  0.4002 -0.2744  0.3820
 7470SOL    HW229646   3.456   3.733   6.015  0.2256  0.0487 -1.6216
 7470SOL    HW329647   3.531   3.862   5.989  0.7429  0.4807  1.5248
 7470SOL    MW429648   3.464   3.819   6.025 -0.1067 -0.2753 -0.0665
 7471SOL     OW29649   4.956   5.113   6.244 -0.0733 -0.1010 -0.4947
 7471SOL    HW229650   5.020   5.170   6.201  0.2199  0.2471  0.3722
 7471SOL    HW329651   4.885   5.172   6.270 -0.4647 -0.3844 -0.9032
 7471SOL    MW429652   4.955   5.128   6.242 -0.7182  0.0384  0.1476
 7472SOL     OW29653   2.405   0.292   3.006  0.7279 -0.5867 -0.3049
 7472SOL    HW229654   2.497   0.266   3.014  1.0010  0.3774 -0.1288
 7472SOL    HW329655   2.358   0.233   3.065  1.5702  0.5242  1.5646
 7472SOL    MW429656   2.411   0.281   3.015 -0.3274  0.5145  0.0236
 7473SOL     OW29657   5.843   1.477   0.562 -0.1469 -0.1103  0.2203
 7473SOL    HW229658   5.888   1.400   0.597  0.3799  0.3825  0.6452
 7473SOL    HW329659   5.762   1.481   0.612 -0.5750 -0.8644 -0.3848
 7473SOL    MW429660   5.838   1.467   0.573  0.2346  0.7541  0.4554
 7474SOL     OW29661   5.665   4.536   1.822  0.5806  0.2813 -0.1594
 7474SOL    HW229662   5.736   4.600   1.823  1.0128 -0.1955  0.2801
 7474SOL    HW329663   5.585   4.589   1.822  0.9311  0.8173  0.3305
 7474SOL    MW429664   5.664   4.552   1.822  0.0558  0.0205 -0.6843
 7475SOL     OW29665   5.162   1.427   3.072  0.1943  0.1284  0.2514
 7475SOL    HW229666   5.197   1.359   3.130  0.8412 -0.2790 -0.5993
 7475SOL    HW329667   5.075   1.446   3.108  0.9741  0.6330  1.9624
 7475SOL    MW429668   5.155   1.420   3.084 -0.2582  0.4661  0.3522
 7476SOL     OW29669   0.459   2.787   3.916 -0.2527 -0.5534 -0.0639
 7476SOL    HW229670   0.527   2.720   3.923  1.4295  0.7833 -2.1370
 7476SOL    HW329671   0.494   2.861   3.967  0.4010  0.4785 -1.9068
 7476SOL    MW429672   0.473   2.788   3.924  0.2350 -0.4878 -0.1255
 7477SOL     OW29673   4.257   0.986   1.489 -0.1055 -0.0508 -0.2793
 7477SOL    HW229674   4.184   0.987   1.551  0.2195 -1.0020  0.1252
 7477SOL    HW329675   4.330   1.024   1.538 -0.2704  0.7420 -0.6296
 7477SOL    MW429676   4.257   0.991   1.504  0.3520 -0.0061  0.1187
 7478SOL     OW29677   0.508   1.247   3.284 -0.0396  0.2035  0.2544
 7478SOL    HW229678   0.550   1.237   3.198  0.5822 -1.0174  0.6616
 7478SOL    HW329679   0.416   1.261   3.265  0.1327  0.1948 -0.6251
 7478SOL    MW429680   0.502   1.247   3.270  0.0452  0.0788 -0.0692
 7479SOL     OW29681   3.509   3.484   1.293  0.2400 -0.4287 -0.1489
 7479SOL    HW229682   3.519   3.544   1.366  0.6406  0.3181 -0.8117
 7479SOL    HW329683   3.585   3.500   1.237 -0.0904 -0.9502 -0.7616
 7479SOL    MW429684   3.520   3.494   1.295 -0.3682 -0.5081  0.2951
 7480SOL     OW29685   0.875   3.093   0.580 -0.1430 -0.6714  0.5039
 7480SOL    HW229686   0.941   3.106   0.648 -0.4873 -1.8710  1.0846
 7480SOL    HW329687   0.823   3.173   0.581 -0.0931 -0.6438  1.6021
 7480SOL    MW429688   0.877   3.105   0.589  0.9744 -0.0048 -0.3229
 7481SOL     OW29689   0.394   2.880   4.874  0.1923 -0.1767  0.2936
 7481SOL    HW229690   0.473   2.929   4.896  0.8628 -1.6220  1.2695
 7481SOL    HW329691   0.408   2.849   4.785  0.0525  0.8107 -0.0838
 7481SOL    MW429692   0.406   2.883   4.865  0.0910  0.1366  0.3456
 7482SOL     OW29693   1.223   3.010   3.081  0.1432  0.2779 -0.3341
 7482SOL    HW229694   1.133   3.013   3.050  1.1079 -0.6250 -3.5910
 7482SOL    HW329695   1.275   3.046   3.009  2.5389 -1.0591  0.6000
 7482SOL    MW429696   1.218   3.015   3.068 -0.1835  0.3983 -0.7403
 7483SOL     OW29697   4.895   5.652   0.718  0.2608 -1.2107  0.0288
 7483SOL    HW229698   4.857   5.601   0.648 -1.5801  0.6417 -0.4232
 7483SOL    HW329699   4.915   5.737   0.678 -0.7423 -0.1439  1.6416
 7483SOL    MW429700   4.893   5.657   0.704 -0.6843  0.4823  0.5761
 7484SOL     OW29701   2.103   1.900   2.898 -0.3736  0.4947 -0.4333
 7484SOL    HW229702   2.187   1.906   2.853 -0.4193  0.2998 -0.5440
 7484SOL    HW329703   2.041   1.946   2.841 -0.4881  0.0041 -0.7093
 7484SOL    MW429704   2.106   1.907   2.885 -0.3710  0.1336 -0.2191
 7485SOL     OW29705   0.770   0.750   5.882 -0.0478 -0.1019 -0.2505
 7485SOL    HW229706   0.797   0.837   5.852  1.8867 -0.2773  0.8207
 7485SOL    HW329707   0.851   0.699   5.880 -1.0079 -1.6798 -0.1250
 7485SOL    MW429708   0.785   0.755   5.878  0.1031  0.5552  0.0608
 7486SOL     OW29709   4.573   6.002   3.178 -0.0615  0.2806  0.2597
 7486SOL    HW229710   4.581   6.000   3.083  0.1720 -1.0860  0.2863
 7486SOL    HW329711   4.652   6.048   3.207  0.4719 -0.3475 -0.1614
 7486SOL    MW429712   4.584   6.008   3.169 -0.1107  0.2246  0.1101
 7487SOL     OW29713   1.325   6.338   1.312 -0.3004 -0.0498 -0.5678
 7487SOL    HW229714   1.416   6.354   1.287 -0.5094  1.6321 -0.3816
 7487SOL    HW329715   1.274   6.375   1.240 -0.8404 -0.0080 -0.1682
 7487SOL    MW429716   1.330   6.345   1.299  1.1235  0.3595  0.0620
 7488SOL     OW29717   0.719   2.252   5.398  0.0028 -0.2786 -0.2607
 7488SOL    HW229718   0.637   2.244   5.446 -0.7438 -0.4444 -1.5461
 7488SOL    HW329719   0.750   2.341   5.418 -0.5441 -0.1709  0.1200
 7488SOL    MW429720   0.712   2.263   5.407 -0.0500 -0.5405 -0.7100
 7489SOL     OW29721   4.347   1.892   6.260  0.0364 -0.6632  0.5913
 7489SOL    HW229722   4.411   1.913   6.329  0.8207 -2.1525  0.3506
 7489SOL    HW329723   4.272   1.855   6.307 -0.8448  1.3508  0.9026
 7489SOL    MW429724   4.346   1.890   6.275  0.6023  0.1251 -0.3196
 7490SOL     OW29725   0.235   3.579   4.173 -0.6500  0.0788  0.0402
 7490SOL    HW229726   0.184   3.583   4.092 -3.0029  0.0395  1.4162
 7490SOL    HW329727   0.221   3.490   4.206  0.7202 -0.0793  0.2517
 7490SOL    MW429728   0.226   3.568   4.167 -0.2460  0.1370 -0.5522
 7491SOL     OW29729   3.116   0.660   4.652  0.2386 -0.2187 -1.0702
 7491SOL    HW229730   3.067   0.725   4.602  0.2219 -0.6686 -1.6551
 7491SOL    HW329731   3.052   0.591   4.670 -0.1369  0.5493  0.7989
 7491SOL    MW429732   3.101   0.660   4.648 -0.0371  0.6188 -0.7516
 7492SOL     OW29733   0.420   2.597   2.451  0.3173  0.2056 -0.0108
 7492SOL    HW229734   0.416   2.527   2.516  0.3729  0.1801 -0.0348
 7492SOL    HW329735   0.397   2.554   2.368  0.2149  0.2447 -0.0028
 7492SOL    MW429736   0.416   2.582   2.448  0.7730  0.0913 -0.3507
 7493SOL     OW29737   5.334   6.346   2.237 -0.6582  0.5570 -0.6883
 7493SOL    HW229738   5.315   6.416   2.174  0.1717  0.6331 -0.8609
 7493SOL    HW329739   5.314   6.383   2.322 -0.3484  0.9581 -0.7908
 7493SOL    MW429740   5.329   6.360   2.240  0.4228 -0.0664 -0.2767
 7494SOL     OW29741   1.895   5.515   5.228 -0.0642 -0.2452 -0.4449
 7494SOL    HW229742   1.963   5.515   5.160 -0.0373 -0.6311 -0.4158
 7494SOL    HW329743   1.938   5.476   5.304 -0.3761 -0.6617 -0.4826
 7494SOL    MW429744   1.910   5.510   5.229  0.8043  0.0409  0.2121
 7495SOL     OW29745   5.533   3.034   2.822 -0.3517 -0.1918  0.5370
 7495SOL    HW229746   5.618   3.020   2.780  0.6369  0.7621  2.1053
 7495SOL    HW329747   5.502   3.118   2.786 -0.2849 -0.1834  0.4980
 7495SOL    MW429748   5.540   3.044   2.812  0.3498 -0.6122  0.7867
 7496SOL     OW29749   0.701   5.359   3.064 -0.3761 -0.0769  0.5156
 7496SOL    HW229750   0.655   5.277   3.085  1.0703 -1.0757 -0.0288
 7496SOL    HW329751   0.792   5.333   3.055  0.0256  1.5089 -0.3372
 7496SOL    MW429752   0.707   5.345   3.066 -0.6009 -0.9245  0.2574
 7497SOL     OW29753   6.004   5.845   1.705  0.0475  0.0720  0.1536
 7497SOL    HW229754   5.951   5.826   1.627 -1.2867 -0.9306  1.2444
 7497SOL    HW329755   6.070   5.777   1.706  0.4935  0.4866 -0.4522
 7497SOL    MW429756   6.006   5.834   1.695  0.1096 -0.3943  0.3835
 7498SOL     OW29757   0.455   6.360   2.976  0.3870  0.0279  0.3324
 7498SOL    HW229758   0.538   6.329   2.940 -0.9656 -1.2295 -1.9242
 7498SOL    HW329759   0.467   6.356   3.071  2.5877 -0.9632  0.0704
 7498SOL    MW429760   0.468   6.356   2.984  0.0491  1.2530 -0.1190
 7499SOL     OW29761   2.226   5.344   0.027  0.2328 -0.3780  0.1711
 7499SOL    HW229762   2.224   5.279  -0.043  0.2478  0.6530 -0.8118
 7499SOL    HW329763   2.311   5.333   0.069  0.3943 -0.7186 -0.2463
 7499SOL    MW429764   2.237   5.334   0.023 -0.0030  0.1216  0.0373
 7500SOL     OW29765   4.819   5.464   3.808  0.3395  0.3192  0.0476
 7500SOL    HW229766   4.866   5.438   3.887  1.2178  1.7230  0.0152
 7500SOL    HW329767   4.747   5.519   3.839  1.2723  1.6994 -0.1605
 7500SOL    MW429768   4.816   5.468   3.823 -0.0622  0.2576  0.3485
 7501SOL     OW29769   3.816   3.648   4.295  0.2222  0.1537  0.3780
 7501SOL    HW229770   3.892   3.670   4.242 -0.5417 -1.7193 -1.6090
 7501SOL    HW329771   3.803   3.554   4.282 -2.0326  0.2895  1.1690
 7501SOL    MW429772   3.825   3.639   4.287  0.2908 -0.2124 -0.1997
 7502SOL     OW29773   0.136   4.647   1.512  0.0992  0.0553  0.0101
 7502SOL    HW229774   0.176   4.588   1.448 -0.6167  0.7630 -1.1293
 7502SOL    HW329775   0.200   4.653   1.583 -0.7614 -3.9858  1.3844
 7502SOL    MW429776   0.150   4.640   1.513  0.0925  0.1820  0.3076
 7503SOL     OW29777   5.656   1.039   4.638  0.1809 -0.2187 -0.3170
 7503SOL    HW229778   5.732   1.045   4.579  1.1119 -1.4121  0.7136
 7503SOL    HW329779   5.693   1.049   4.726 -0.6886 -1.8850  0.2643
 7503SOL    MW429780   5.671   1.041   4.642 -0.0146  0.1035 -0.0435
 7504SOL     OW29781   3.570   0.243   2.370 -0.1621  0.4265  0.1675
 7504SOL    HW229782   3.644   0.196   2.409  0.0026 -0.3046 -1.0020
 7504SOL    HW329783   3.496   0.224   2.429  0.6593  1.6206  1.6597
 7504SOL    MW429784   3.570   0.234   2.383 -0.2371  0.8479  0.2211
 7505SOL     OW29785   6.088   3.770   1.357  0.2754  0.4039 -0.2763
 7505SOL    HW229786   6.128   3.815   1.283  0.2639  1.0740  0.1121
 7505SOL    HW329787   6.035   3.838   1.400 -1.6598 -0.5405 -1.0453
 7505SOL    MW429788   6.086   3.785   1.353 -0.2123 -0.3180  0.3841
 7506SOL     OW29789   0.717   4.152   5.979 -0.1271 -0.0607  0.1340
 7506SOL    HW229790   0.768   4.149   6.059 -1.7498  2.1734  1.3794
 7506SOL    HW329791   0.626   4.144   6.009 -0.6893 -1.3757 -1.7406
 7506SOL    MW429792   0.711   4.150   5.994 -0.1011  0.3187  0.3749
 7507SOL     OW29793   1.718   3.664   0.025  0.1669 -0.0809  0.0130
 7507SOL    HW229794   1.633   3.697   0.054  0.3668 -2.1755  3.5647
 7507SOL    HW329795   1.702   3.573   0.002  1.4807 -0.6054  1.0544
 7507SOL    MW429796   1.705   3.656   0.026  0.0180 -0.2424  0.2203
 7508SOL     OW29797   5.656   1.520   1.852  0.6962  0.8406 -0.1541
 7508SOL    HW229798   5.694   1.436   1.827  1.6831  1.2341 -0.0420
 7508SOL    HW329799   5.731   1.572   1.880  0.0245  1.5500  0.3763
 7508SOL    MW429800   5.671   1.516   1.853  0.2260 -0.6109 -0.0271
 7509SOL     OW29801   2.164   3.323   5.570  0.1967 -0.1181 -0.3193
 7509SOL    HW229802   2.252   3.291   5.589  0.6789  1.3398  0.0487
 7509SOL    HW329803   2.115   3.311   5.651  0.1937 -0.4578 -0.3694
 7509SOL    MW429804   2.169   3.317   5.583 -0.0805  0.4992  0.1767
 7510SOL     OW29805   4.240   1.767   4.004 -0.0550  0.1702 -0.2649
 7510SOL    HW229806   4.282   1.799   4.083 -0.0007 -1.4482  0.3801
 7510SOL    HW329807   4.148   1.795   4.013 -0.3462 -1.1228  1.0122
 7510SOL    MW429808   4.233   1.775   4.016  0.1836  0.4496 -0.4350
 7511SOL     OW29809   5.274   3.626   6.162  0.2580  0.1214  0.3273
 7511SOL    HW229810   5.252   3.707   6.208 -1.4105  0.1861 -0.5215
 7511SOL    HW329811   5.210   3.563   6.193  0.2663 -0.3235 -0.5353
 7511SOL    MW429812   5.263   3.628   6.172  0.6945  0.0161  0.2039
 7512SOL     OW29813   5.101   4.156   5.006 -0.0685  0.9047  0.2670
 7512SOL    HW229814   5.033   4.111   4.956  0.6312  0.7559 -0.5668
 7512SOL    HW329815   5.061   4.172   5.091 -0.8939  0.1644  0.0321
 7512SOL    MW429816   5.087   4.152   5.011  0.3427 -0.0836  0.1199
 7513SOL     OW29817   3.063   1.810   5.875  0.6874  0.1113  0.3976
 7513SOL    HW229818   3.009   1.765   5.810 -0.2888  0.4965  0.9248
 7513SOL    HW329819   3.123   1.743   5.907  0.8130 -0.2173 -0.4949
 7513SOL    MW429820   3.064   1.795   5.871 -0.0090 -0.0392  0.1860
 7514SOL     OW29821   5.149   1.224   4.662  0.0069  0.3203  0.6483
 7514SOL    HW229822   5.159   1.130   4.679  0.4034 -0.1388 -1.6851
 7514SOL    HW329823   5.238   1.259   4.669  0.2260  0.0683 -0.5762
 7514SOL    MW429824   5.162   1.216   4.665  0.5189 -0.7333 -0.0060
 7515SOL     OW29825   3.411   0.207   3.578  0.0808 -0.2002  0.3021
 7515SOL    HW229826   3.399   0.151   3.655  1.2343 -0.5383  0.2558
 7515SOL    HW329827   3.486   0.262   3.600  0.6362 -0.5347 -0.6985
 7515SOL    MW429828   3.419   0.207   3.591 -0.0248  0.4544  0.7365
 7516SOL     OW29829   0.183   5.453   6.011 -0.9891 -0.5006  0.7403
 7516SOL    HW229830   0.166   5.545   5.991 -0.8106 -0.5367  0.4173
 7516SOL    HW329831   0.206   5.452   6.104 -0.2026 -0.1120  0.5566
 7516SOL    MW429832   0.184   5.465   6.020  0.6351 -0.0330 -0.2542
 7517SOL     OW29833   2.412   3.240   5.606  0.1778 -0.4825 -0.0297
 7517SOL    HW229834   2.441   3.277   5.690 -1.4401  1.1776 -0.1138
 7517SOL    HW329835   2.472   3.276   5.541  0.1223  0.0045  0.1845
 7517SOL    MW429836   2.424   3.250   5.609  0.7136  0.4335  0.2316
 7518SOL     OW29837   4.952   2.554   1.534  0.0988 -0.5856  0.3107
 7518SOL    HW229838   5.013   2.607   1.588  0.9731 -1.2594  0.0067
 7518SOL    HW329839   4.890   2.618   1.499  0.5712  0.1109  0.7079
 7518SOL    MW429840   4.952   2.570   1.537 -0.1424 -0.1395 -0.5040
 7519SOL     OW29841   3.950   4.147   2.490 -0.0963 -0.1802  0.1112
 7519SOL    HW229842   3.986   4.211   2.551  1.6668  1.1011 -2.1119
 7519SOL    HW329843   4.023   4.126   2.431 -1.1220 -2.9346 -0.3317
 7519SOL    MW429844   3.965   4.153   2.490 -0.4073 -0.1257  0.1066
 7520SOL     OW29845   3.292   5.336   1.577 -0.2709  0.0446  0.4427
 7520SOL    HW229846   3.199   5.312   1.579 -0.0539 -1.1690 -1.4969
 7520SOL    HW329847   3.295   5.413   1.520 -0.3399  1.8041  2.6557
 7520SOL    MW429848   3.280   5.343   1.570 -0.2430 -0.3709  0.3004
 7521SOL     OW29849   3.674   1.018   0.364  0.5357 -0.4666 -0.1743
 7521SOL    HW229850   3.759   1.008   0.322  1.1430 -1.1190  1.1490
 7521SOL    HW329851   3.694   1.027   0.457 -0.8067  0.1842  0.0859
 7521SOL    MW429852   3.687   1.018   0.371  0.1569 -0.4021 -0.6179
 7522SOL     OW29853   0.413   3.931   2.797 -0.0877 -0.2555 -0.0989
 7522SOL    HW229854   0.463   3.867   2.746  0.0345  0.0601 -0.3777
 7522SOL    HW329855   0.405   4.007   2.739 -1.9420 -0.7275 -0.5372
 7522SOL    MW429856   0.419   3.932   2.783 -0.6559  0.0869 -0.1647
 7523SOL     OW29857   4.814   1.283   3.180  0.3998  0.3564 -0.1336
 7523SOL    HW229858   4.750   1.294   3.251 -0.2137 -0.5181 -0.5352
 7523SOL    HW329859   4.761   1.286   3.100  1.0857  1.3359 -0.5622
 7523SOL    MW429860   4.798   1.285   3.179  0.4878 -0.4902 -0.2773
 7524SOL     OW29861   0.864   6.107   2.580  0.0479  0.3683  0.3342
 7524SOL    HW229862   0.819   6.190   2.591  1.8339  1.4676 -0.1438
 7524SOL    HW329863   0.795   6.042   2.570 -1.3862  1.9368 -0.2913
 7524SOL    MW429864   0.849   6.109   2.580 -0.2576  0.2694 -0.1853
 7525SOL     OW29865   3.682   3.720   4.521 -0.2469  0.2712 -0.2292
 7525SOL    HW229866   3.609   3.665   4.548 -1.3751  1.0883 -1.4775
 7525SOL    HW329867   3.711   3.681   4.438  1.5700 -0.7701  0.8400
 7525SOL    MW429868   3.676   3.708   4.514 -0.0261  0.6260  0.0089
 7526SOL     OW29869   0.928   1.835   2.065  0.2965  0.7231 -0.3436
 7526SOL    HW229870   0.856   1.897   2.076  0.8570  1.3274  0.0294
 7526SOL    HW329871   0.927   1.783   2.146  0.2173  0.6654 -0.3818
 7526SOL    MW429872   0.918   1.836   2.077  0.1872  0.3331  0.3832
 7527SOL     OW29873   0.803   1.436   0.040  0.0452  0.0520 -0.1735
 7527SOL    HW229874   0.761   1.387  -0.030 -0.2864  0.4490 -0.2579
 7527SOL    HW329875   0.732   1.463   0.098  0.1640  0.7569 -0.3372
 7527SOL    MW429876   0.788   1.433   0.038  0.0487 -0.0074 -0.4167
 7528SOL     OW29877   0.207   5.414   2.927 -1.0750 -0.5995 -0.3254
 7528SOL    HW229878   0.284   5.468   2.944 -0.7051 -1.2564  0.1013
 7528SOL    HW329879   0.217   5.338   2.984 -1.0998 -1.6000 -1.5948
 7528SOL    MW429880   0.219   5.411   2.937  0.5424  0.1804 -0.0106
 7529SOL     OW29881   3.434   6.457   2.238 -0.1185 -0.3537  0.0675
 7529SOL    HW229882   3.493   6.532   2.246 -0.9062  0.2190  0.7664
 7529SOL    HW329883   3.453   6.420   2.152  0.1023  0.8114 -0.4081
 7529SOL    MW429884   3.444   6.462   2.228  0.1753  0.0515 -0.2884
 7530SOL     OW29885   0.632   0.452   3.063 -0.5329 -0.3077  0.5817
 7530SOL    HW229886   0.679   0.390   3.007  2.2133  0.5546  1.8100
 7530SOL    HW329887   0.700   0.496   3.114 -2.6800  1.1274  2.4009
 7530SOL    MW429888   0.647   0.450   3.062 -0.7192 -0.1094 -0.3867
 7531SOL     OW29889   2.234   0.947   0.936 -0.2124 -0.1949 -0.1133
 7531SOL    HW229890   2.328   0.965   0.941 -0.2440  0.3488 -1.3458
 7531SOL    HW329891   2.229   0.854   0.913  0.0918  0.3029 -2.4145
 7531SOL    MW429892   2.246   0.937   0.934  0.2797  0.0200 -0.7649
 7532SOL     OW29893   5.754   4.414   3.165 -0.4441 -0.7440 -0.2640
 7532SOL    HW229894   5.827   4.354   3.176 -0.7482 -1.7132 -2.7257
 7532SOL    HW329895   5.693   4.367   3.108 -2.1325  0.7407  0.2224
 7532SOL    MW429896   5.755   4.400   3.159  0.2330 -0.6668 -0.8467
 7533SOL     OW29897   3.086   2.300   5.021 -0.5779  0.6799 -0.0189
 7533SOL    HW229898   3.012   2.242   5.007 -2.1468  2.1300  1.7236
 7533SOL    HW329899   3.076   2.368   4.953  1.0275 -0.7500 -1.7978
 7533SOL    MW429900   3.075   2.302   5.010  0.0458 -0.2716  0.2805
 7534SOL     OW29901   6.035   3.798   5.798 -0.3109  0.1280  1.0754
 7534SOL    HW229902   6.024   3.783   5.892 -1.6187  0.2095  0.9510
 7534SOL    HW329903   5.976   3.870   5.778 -0.1672  0.0016  0.1619
 7534SOL    MW429904   6.026   3.805   5.808 -0.3558 -0.3093  0.3052
 7535SOL     OW29905   5.088   2.611   2.416  0.4768 -0.2276  0.0578
 7535SOL    HW229906   5.070   2.682   2.354 -0.8704 -2.7264 -2.6568
 7535SOL    HW329907   5.181   2.592   2.404  0.2674 -0.5675 -1.1385
 7535SOL    MW429908   5.098   2.618   2.406  0.0050  0.3208  0.2434
 7536SOL     OW29909   5.694   4.880   1.258  0.2253 -0.1135 -0.1202
 7536SOL    HW229910   5.689   4.836   1.343  0.3512  1.6287  0.8475
 7536SOL    HW329911   5.787   4.902   1.249  0.1032  0.2870 -0.4000
 7536SOL    MW429912   5.706   4.877   1.268  0.2248 -0.4127 -0.0619
 7537SOL     OW29913   4.098   4.603   5.620 -0.4326 -0.2414  0.0360
 7537SOL    HW229914   4.186   4.616   5.654 -0.6967 -0.7433  0.9306
 7537SOL    HW329915   4.112   4.572   5.530  0.2801  0.2689 -0.0398
 7537SOL    MW429916   4.112   4.601   5.612  0.2526 -0.3487  0.2709
 7538SOL     OW29917   0.340   1.851   6.252 -0.2548  0.0895 -0.4564
 7538SOL    HW229918   0.252   1.815   6.247 -0.0410 -0.4992 -0.0576
 7538SOL    HW329919   0.383   1.819   6.173  0.2698 -1.4755  0.4191
 7538SOL    MW429920   0.334   1.842   6.241 -0.4052  0.1473  0.3555
 7539SOL     OW29921   2.499   3.309   4.414  0.2801  0.1325  0.0592
 7539SOL    HW229922   2.422   3.276   4.368  0.6841 -0.0957 -0.4699
 7539SOL    HW329923   2.525   3.238   4.473 -2.5952  1.8189  3.7479
 7539SOL    MW429924   2.493   3.295   4.416 -0.0143  0.5182  0.3665
 7540SOL     OW29925   0.600   4.221   0.634  0.2614  0.1461 -1.1052
 7540SOL    HW229926   0.667   4.154   0.646 -0.1263 -0.2168 -0.9574
 7540SOL    HW329927   0.550   4.192   0.558 -0.7790 -0.4767 -0.2164
 7540SOL    MW429928   0.602   4.209   0.625 -0.1783  0.5930  0.1865
 7541SOL     OW29929   3.514   2.354   3.413  0.0058 -0.1151  1.1911
 7541SOL    HW229930   3.464   2.305   3.349  0.0035  1.5042 -0.1178
 7541SOL    HW329931   3.460   2.353   3.492 -0.3812 -1.4292  0.9176
 7541SOL    MW429932   3.500   2.348   3.415 -0.1701 -0.0868  0.4530
 7542SOL     OW29933   1.746   5.104   0.314 -0.5166 -0.1591 -0.2260
 7542SOL    HW229934   1.798   5.035   0.356 -1.5100  0.6657  2.6230
 7542SOL    HW329935   1.710   5.063   0.236  1.5540 -1.8188 -0.3784
 7542SOL    MW429936   1.748   5.089   0.309 -0.0941 -0.6016 -0.5960
 7543SOL     OW29937   2.836   0.086   5.023 -0.0296 -0.3644 -0.4314
 7543SOL    HW229938   2.814   0.178   5.008 -0.3229 -0.2556  0.5962
 7543SOL    HW329939   2.895   0.087   5.098  0.3045 -0.9834 -0.6825
 7543SOL    MW429940   2.841   0.098   5.031 -0.4334 -0.2454  0.1703
 7544SOL     OW29941   1.981   3.342   2.562  0.5736 -0.0621  0.2549
 7544SOL    HW229942   2.053   3.281   2.545 -0.1332 -1.1946  1.2042
 7544SOL    HW329943   1.972   3.343   2.657  0.4258  1.3903  0.2503
 7544SOL    MW429944   1.989   3.334   2.572  0.3641 -0.6028  0.3031
 7545SOL     OW29945   0.508   0.137   4.561 -0.5721 -0.3266 -0.3767
 7545SOL    HW229946   0.497   0.042   4.558 -0.6906 -0.4013  1.5138
 7545SOL    HW329947   0.582   0.154   4.503 -0.5939 -1.5566 -0.7926
 7545SOL    MW429948   0.516   0.127   4.553  0.2868  0.0808  0.6551
 7546SOL     OW29949   1.117   3.569   2.056  0.2126  0.5249  0.0181
 7546SOL    HW229950   1.034   3.615   2.066 -1.1646 -1.5329 -1.1518
 7546SOL    HW329951   1.180   3.623   2.104 -1.7289  2.2605  0.7940
 7546SOL    MW429952   1.114   3.582   2.064  0.1600  0.1518  0.1842
 7547SOL     OW29953   3.646   0.321   6.294  0.1341 -0.0007 -0.4107
 7547SOL    HW229954   3.687   0.237   6.318 -0.6156  0.2500  2.1020
 7547SOL    HW329955   3.552   0.302   6.297 -0.0642  1.0475  0.8720
 7547SOL    MW429956   3.639   0.307   6.298 -0.2092  0.7277  0.3212
 7548SOL     OW29957   1.732   6.145   4.674  0.3842 -0.4846  0.0623
 7548SOL    HW229958   1.674   6.217   4.699 -0.6476 -0.6090 -1.8094
 7548SOL    HW329959   1.820   6.182   4.675 -0.1399  0.8482 -0.9319
 7548SOL    MW429960   1.736   6.159   4.678 -0.1991  0.4842 -0.0528
 7549SOL     OW29961   0.680   0.620   4.735  0.5533 -0.1483  0.3915
 7549SOL    HW229962   0.689   0.657   4.823  2.3531 -0.8791  0.5604
 7549SOL    HW329963   0.721   0.534   4.741  0.4742 -0.3127 -1.1101
 7549SOL    MW429964   0.687   0.614   4.747  0.1943 -0.2034  0.4306
 7550SOL     OW29965   5.960   3.498   5.436 -0.3823 -0.0702  0.1619
 7550SOL    HW229966   5.873   3.457   5.440 -0.7308  0.6782  0.4956
 7550SOL    HW329967   5.995   3.486   5.525 -0.4403  0.2463  0.2289
 7550SOL    MW429968   5.953   3.491   5.449 -0.2702 -0.1357  0.4041
 7551SOL     OW29969   1.743   1.872   3.597 -0.5854 -0.1622 -0.0137
 7551SOL    HW229970   1.721   1.965   3.584 -0.6862 -0.3085 -0.9893
 7551SOL    HW329971   1.828   1.873   3.639 -0.3035  0.3759 -0.5777
 7551SOL    MW429972   1.751   1.884   3.601 -0.4193  0.2048  0.0289
 7552SOL     OW29973   0.141   1.653   5.978 -0.3565  0.1592 -0.3062
 7552SOL    HW229974   0.189   1.732   6.002 -0.2111 -0.2576  0.8522
 7552SOL    HW329975   0.143   1.599   6.057 -0.7849 -0.8391 -0.9585
 7552SOL    MW429976   0.148   1.657   5.992  0.5226 -0.3325  0.0856
 7553SOL     OW29977   5.626   5.747   1.530  0.1630  0.1406 -0.0349
 7553SOL    HW229978   5.648   5.654   1.538  1.3548  0.4698  0.9067
 7553SOL    HW329979   5.602   5.758   1.438 -0.7983 -1.2457  0.0244
 7553SOL    MW429980   5.626   5.736   1.519  0.0964 -0.1607  0.5199
 7554SOL     OW29981   4.732   5.053   0.737  0.1309 -0.0676  0.2091
 7554SOL    HW229982   4.710   5.113   0.808 -0.1942 -0.7907  0.7313
 7554SOL    HW329983   4.807   5.004   0.769  0.6349  0.3076 -0.3668
 7554SOL    MW429984   4.739   5.054   0.750 -0.1746  1.1651 -0.1663
 7555SOL     OW29985   3.369   0.304   6.417  0.7547  0.3550  0.4052
 7555SOL    HW229986   3.378   0.211   6.440  1.5580  0.2380 -0.2870
 7555SOL    HW329987   3.298   0.306   6.353  2.9530 -0.3469 -2.2533
 7555SOL    MW429988   3.361   0.292   6.411  0.8262  0.2982  0.0613
 7556SOL     OW29989   4.881   3.746   6.050 -0.3629 -0.0649  0.1553
 7556SOL    HW229990   4.825   3.824   6.051  1.9871  1.7051  0.8329
 7556SOL    HW329991   4.891   3.721   6.142 -0.4480 -0.7103  0.0006
 7556SOL    MW429992   4.875   3.753   6.062 -0.4461  0.1476 -0.8867
 7557SOL     OW29993   4.088   1.555   1.475 -0.4947  0.2173  0.1057
 7557SOL    HW229994   4.018   1.537   1.538 -0.6803 -0.4963 -0.2877
 7557SOL    HW329995   4.137   1.472   1.470  0.5470  0.7873  0.5717
 7557SOL    MW429996   4.085   1.541   1.483  0.0582  0.0729  0.1327
 7558SOL     OW29997   2.875   2.018   1.569 -0.3642 -0.6471 -0.1130
 7558SOL    HW229998   2.901   1.926   1.561 -0.5235 -0.7719  0.6808
 7558SOL    HW329999   2.952   2.062   1.604 -1.1465 -1.0264  2.2876
 7558SOL    MW430000   2.888   2.012   1.572 -0.1405  0.1244 -0.1292
 7559SOL     OW30001   4.733   6.205   5.109 -0.2205 -0.5900 -0.5377
 7559SOL    HW230002   4.669   6.175   5.045 -1.9655 -1.8008  1.6586
 7559SOL    HW330003   4.692   6.191   5.194  2.2303  0.3731  0.9327
 7559SOL    MW430004   4.719   6.199   5.112 -0.1244  0.4694  0.2880
 7560SOL     OW30005   0.325   1.873   4.522  0.0567 -0.4735  0.3623
 7560SOL    HW230006   0.402   1.921   4.493  0.1977 -1.4024 -0.8534
 7560SOL    HW330007   0.271   1.939   4.567  1.1457  0.3665  0.4620
 7560SOL    MW430008   0.328   1.888   4.524 -0.0894  0.1821  0.0961
 7561SOL     OW30009   5.892   0.626   0.126 -0.3409 -0.1482 -0.0778
 7561SOL    HW230010   5.821   0.571   0.092  0.6925 -2.8799  1.7952
 7561SOL    HW330011   5.848   0.692   0.179 -1.5605 -1.1864  0.2502
 7561SOL    MW430012   5.877   0.628   0.128 -0.4841  0.0771  0.6437
 7562SOL     OW30013   2.574   0.064   4.229 -0.6624  0.4945 -0.3724
 7562SOL    HW230014   2.587   0.091   4.139  1.8365  0.7171  0.0102
 7562SOL    HW330015   2.560  -0.031   4.223 -1.0265  0.5815 -1.0135
 7562SOL    MW430016   2.574   0.055   4.217 -0.8835 -0.1590 -0.7892
 7563SOL     OW30017   1.985   6.366   5.064  0.4460  0.1205 -0.3290
 7563SOL    HW230018   2.020   6.289   5.020 -1.2208 -0.4083 -0.7721
 7563SOL    HW330019   1.997   6.348   5.157 -0.3577 -0.9033 -0.4099
 7563SOL    MW430020   1.991   6.354   5.070 -0.0773  0.0980 -0.8986
 7564SOL     OW30021   5.895   0.513   1.226 -0.0362 -0.1239  0.2274
 7564SOL    HW230022   5.838   0.536   1.300  0.2690 -1.2656  0.8432
 7564SOL    HW330023   5.895   0.591   1.170 -1.2358  0.3270  0.8241
 7564SOL    MW430024   5.887   0.526   1.229  0.6237  0.3863 -0.2857
 7565SOL     OW30025   1.065   4.595   5.056  0.3602 -0.0003  0.1397
 7565SOL    HW230026   1.082   4.504   5.081  0.8442 -0.4245 -1.6145
 7565SOL    HW330027   1.130   4.646   5.104  1.2596 -0.7744 -0.2245
 7565SOL    MW430028   1.075   4.590   5.066 -0.5185  0.8932  0.3109
 7566SOL     OW30029   0.082   2.729   6.155 -0.5497  0.0674  0.1694
 7566SOL    HW230030   0.171   2.721   6.191 -0.1984 -4.5443 -1.1098
 7566SOL    HW330031   0.094   2.772   6.071  0.2263  0.7461  0.6093
 7566SOL    MW430032   0.095   2.733   6.149 -0.0896  0.2933  0.2197
 7567SOL     OW30033   4.622   6.062   2.400 -0.3293  0.0486  0.8069
 7567SOL    HW230034   4.580   6.139   2.364 -0.7675  0.1884  1.5904
 7567SOL    HW330035   4.591   6.057   2.490  2.7553  1.2859  2.1052
 7567SOL    MW430036   4.613   6.072   2.407  0.8618 -0.2946 -0.4281
 7568SOL     OW30037   6.141   0.939   3.195 -0.3234 -0.2676 -0.5129
 7568SOL    HW230038   6.174   1.027   3.214 -1.3130  0.2011 -0.8566
 7568SOL    HW330039   6.194   0.881   3.250  0.9569  0.4429 -0.9579
 7568SOL    MW430040   6.152   0.943   3.205  0.2434 -0.4031 -0.5077
 7569SOL     OW30041   0.980   4.239   0.784 -0.1952 -0.7509  0.9675
 7569SOL    HW230042   1.062   4.281   0.810 -0.0341 -2.3223  3.3281
 7569SOL    HW330043   0.916   4.311   0.787  0.8679  0.2677  0.1805
 7569SOL    MW430044   0.982   4.254   0.788 -0.1631 -0.6325 -0.5289
 7570SOL     OW30045   5.465   0.592   1.370 -0.4374  0.0278 -0.0440
 7570SOL    HW230046   5.390   0.532   1.378 -1.0391  0.5682 -1.3172
 7570SOL    HW330047   5.426   0.679   1.373  0.0319  0.3139 -1.4718
 7570SOL    MW430048   5.450   0.595   1.371  0.3321  0.1725 -0.3794
 7571SOL     OW30049   5.008   4.708   3.047  0.3822 -0.2415  0.4860
 7571SOL    HW230050   4.993   4.768   3.121  0.7685  0.3953  0.0605
 7571SOL    HW330051   5.039   4.765   2.977 -0.1963 -0.8172 -0.2417
 7571SOL    MW430052   5.010   4.724   3.048 -0.6878  0.4084  0.3018
 7572SOL     OW30053   4.517   3.687   0.027  0.2377  0.3597  0.6100
 7572SOL    HW230054   4.473   3.679  -0.058 -0.8051  1.0337  1.0649
 7572SOL    HW330055   4.516   3.781   0.045  0.2325  0.1942  1.4837
 7572SOL    MW430056   4.511   3.699   0.018  0.3067 -0.0735 -0.0389
 7573SOL     OW30057   3.875   3.936   2.656 -0.1021 -0.3530  0.1252
 7573SOL    HW230058   3.890   4.017   2.608  1.6623  0.0888  1.3099
 7573SOL    HW330059   3.781   3.935   2.674 -0.4157  0.5762 -1.3417
 7573SOL    MW430060   3.865   3.946   2.652 -0.0165 -0.0793 -0.3305
 7574SOL     OW30061   2.881   5.685   2.597  0.5465 -0.6276  0.0222
 7574SOL    HW230062   2.801   5.636   2.613  0.0221  0.2964  0.2789
 7574SOL    HW330063   2.943   5.650   2.661  0.0869 -0.7483  0.4077
 7574SOL    MW430064   2.879   5.674   2.608 -0.4796 -0.4732  0.0314
 7575SOL     OW30065   5.300   6.387   6.402 -0.1496 -0.4499  0.1692
 7575SOL    HW230066   5.275   6.372   6.493 -2.0560 -0.3472 -0.2918
 7575SOL    HW330067   5.364   6.458   6.406 -2.0272  1.2998  1.3041
 7575SOL    MW430068   5.305   6.394   6.414  0.5504 -0.0614  0.6268
 7576SOL     OW30069   6.069   0.311   3.705  0.4448  0.2080 -0.0791
 7576SOL    HW230070   6.034   0.295   3.793  1.3161  0.3828  0.3212
 7576SOL    HW330071   6.025   0.391   3.676 -1.1260 -0.7866 -0.5362
 7576SOL    MW430072   6.059   0.320   3.713 -0.5700  0.2877  0.0732
 7577SOL     OW30073   1.321   2.059   4.035 -0.2044 -0.1876  0.4799
 7577SOL    HW230074   1.280   2.096   4.112 -2.6969 -0.1805 -0.7618
 7577SOL    HW330075   1.371   2.132   3.997  1.1295 -0.2225  2.0503
 7577SOL    MW430076   1.322   2.073   4.040  0.4853  0.5563 -0.0162
 7578SOL     OW30077   5.947   0.287   3.131  0.1808  0.0194  0.1342
 7578SOL    HW230078   5.999   0.254   3.057 -0.5204 -2.6192  0.7510
 7578SOL    HW330079   5.946   0.382   3.118 -1.4082 -0.3724 -4.2920
 7578SOL    MW430080   5.954   0.295   3.119  0.3062  0.5402  0.2397
 7579SOL     OW30081   2.205   5.170   6.220  0.0140 -0.2032 -0.2821
 7579SOL    HW230082   2.201   5.165   6.125 -1.0526  1.2098 -0.3488
 7579SOL    HW330083   2.153   5.096   6.250 -1.5681  0.6180 -0.8704
 7579SOL    MW430084   2.198   5.160   6.212  0.8324 -0.0804 -0.5716
 7580SOL     OW30085   1.632   3.359   1.468  0.6910 -0.4932 -0.1785
 7580SOL    HW230086   1.637   3.453   1.452 -0.3459 -0.0657  1.6744
 7580SOL    HW330087   1.629   3.351   1.564  1.4281 -2.4573 -0.2741
 7580SOL    MW430088   1.632   3.370   1.479  0.1882  0.4934 -1.0657
 7581SOL     OW30089   3.632   1.847   0.177  0.1780  0.3032 -0.1189
 7581SOL    HW230090   3.576   1.925   0.173 -2.7342 -1.5920 -0.1388
 7581SOL    HW330091   3.640   1.828   0.270  0.4490  0.3461 -0.1338
 7581SOL    MW430092   3.625   1.855   0.189 -0.1395 -0.0034  0.1850
 7582SOL     OW30093   4.610   3.872   5.579  0.2030  0.0817  0.8403
 7582SOL    HW230094   4.605   3.777   5.590 -0.3741  0.1318  1.0216
 7582SOL    HW330095   4.600   3.887   5.485 -3.1390  0.1598  1.1110
 7582SOL    MW430096   4.608   3.861   5.568  0.2164 -0.6980  0.1013
 7583SOL     OW30097   0.117   5.401   3.236 -0.2437  0.4287  0.1094
 7583SOL    HW230098   0.161   5.324   3.199  1.2210  0.5042  1.5756
 7583SOL    HW330099   0.025   5.390   3.211  0.0770 -1.3336 -0.4660
 7583SOL    MW430100   0.111   5.390   3.228  0.2771  0.1764  0.8319
 7584SOL     OW30101   2.597   0.996   3.013 -0.2156  0.1380  0.2448
 7584SOL    HW230102   2.672   1.044   3.047  0.0823 -0.3199  0.2451
 7584SOL    HW330103   2.579   0.930   3.080 -1.0405  0.6701  0.5590
 7584SOL    MW430104   2.604   0.994   3.027  0.5154  0.4680 -0.0044
 7585SOL     OW30105   1.350   0.518   5.103  0.3470  0.1393  0.1806
 7585SOL    HW230106   1.446   0.508   5.103  0.1992 -1.7094  1.0572
 7585SOL    HW330107   1.336   0.610   5.126  1.9091  0.0396  1.7496
 7585SOL    MW430108   1.361   0.529   5.106  0.4858 -0.2141  0.1418
 7586SOL     OW30109   1.423   0.689   2.359 -0.0326 -0.6195  0.0627
 7586SOL    HW230110   1.385   0.685   2.446  0.4656  0.3210  0.3332
 7586SOL    HW330111   1.445   0.781   2.346  1.3684 -0.9904 -0.4076
 7586SOL    MW430112   1.421   0.700   2.369  0.1687  0.5200  0.2922
 7587SOL     OW30113   2.610   2.195   0.486 -0.2050  0.3729 -0.1236
 7587SOL    HW230114   2.544   2.143   0.532  2.3001 -1.8128  1.2846
 7587SOL    HW330115   2.604   2.167   0.395 -0.2426 -0.8979  0.2557
 7587SOL    MW430116   2.600   2.185   0.480 -0.0317 -0.0227 -0.5170
 7588SOL     OW30117   3.013   2.156   3.880  0.5566 -0.2624  0.3392
 7588SOL    HW230118   3.021   2.061   3.889 -0.0953 -0.4326 -0.7184
 7588SOL    HW330119   3.096   2.184   3.841  0.8827 -0.3437  0.9611
 7588SOL    MW430120   3.025   2.147   3.876  0.1008  0.2677 -0.2562
 7589SOL     OW30121   1.397   0.752   0.972  0.0935  0.1903  0.1865
 7589SOL    HW230122   1.422   0.832   1.020  0.3317  0.8252 -0.9716
 7589SOL    HW330123   1.303   0.760   0.960  0.0335  0.0307  0.5353
 7589SOL    MW430124   1.388   0.764   0.977 -0.1663  0.0061 -0.1781
 7590SOL     OW30125   4.871   2.442   4.926 -0.0351  0.0735  0.3446
 7590SOL    HW230126   4.914   2.360   4.905  0.6108  1.0507 -2.5772
 7590SOL    HW330127   4.937   2.509   4.909 -1.1628  1.3116  0.6956
 7590SOL    MW430128   4.885   2.440   4.921 -0.6371  0.3026 -0.1303
 7591SOL     OW30129   1.267   4.754   2.365  0.7891  0.1912  0.0736
 7591SOL    HW230130   1.233   4.669   2.336  0.5804  0.6012 -0.9319
 7591SOL    HW330131   1.340   4.732   2.422 -0.3953 -0.6894  1.3155
 7591SOL    MW430132   1.272   4.740   2.369 -0.1210  0.2429 -0.5284
 7592SOL     OW30133   3.306   0.464   3.550  0.4722  0.3671  0.1455
 7592SOL    HW230134   3.305   0.485   3.457 -0.7656  1.3210  0.3429
 7592SOL    HW330135   3.302   0.368   3.554 -0.5127  0.3558 -0.7827
 7592SOL    MW430136   3.305   0.454   3.538 -0.6816 -0.1153 -0.5184
 7593SOL     OW30137   2.401   4.918   2.386  0.0914 -0.1661  0.0567
 7593SOL    HW230138   2.360   4.902   2.301 -0.1103  0.5447  0.0156
 7593SOL    HW330139   2.469   4.851   2.393  0.1969 -0.1434 -0.7219
 7593SOL    MW430140   2.404   4.907   2.376  0.3704  0.0890  0.4944
 7594SOL     OW30141   3.838   5.089   6.228 -0.1529 -0.5857 -0.2206
 7594SOL    HW230142   3.920   5.050   6.200  0.1282 -0.1056 -0.0740
 7594SOL    HW330143   3.788   5.100   6.146 -0.1457 -1.0318 -0.2882
 7594SOL    MW430144   3.842   5.086   6.213  0.0221  0.0248 -0.1761
 7595SOL     OW30145   3.654   1.761   2.345 -0.4170 -0.1271 -0.2834
 7595SOL    HW230146   3.710   1.702   2.294 -1.0671 -0.7776 -0.2637
 7595SOL    HW330147   3.691   1.848   2.331  1.5273 -0.6949  0.9374
 7595SOL    MW430148   3.666   1.765   2.336  0.5658  0.7323  0.3721
 7596SOL     OW30149   3.577   5.433   5.790  0.4724  0.0046 -0.5564
 7596SOL    HW230150   3.568   5.350   5.837  2.1194 -0.4411 -0.9402
 7596SOL    HW330151   3.498   5.482   5.811  0.7076 -0.5402  1.9266
 7596SOL    MW430152   3.565   5.428   5.799  0.6002 -0.2027  0.0406
 7597SOL     OW30153   2.206   1.963   3.812  0.4962  1.0177 -0.0057
 7597SOL    HW230154   2.262   1.901   3.859  0.4175  0.3219 -0.8054
 7597SOL    HW330155   2.178   2.025   3.879  0.7286  0.2976  0.7846
 7597SOL    MW430156   2.210   1.963   3.827  0.6258  0.0678 -0.4182
 7598SOL     OW30157   1.152   2.556   2.572  0.0756  0.0459  0.6998
 7598SOL    HW230158   1.116   2.467   2.574  0.7804 -0.2405  1.1651
 7598SOL    HW330159   1.246   2.543   2.559  0.1394  0.7390  0.4478
 7598SOL    MW430160   1.160   2.543   2.570 -0.8586 -0.0772  0.2665
 7599SOL     OW30161   3.369   4.960   2.258  0.0599 -0.6133 -0.0956
 7599SOL    HW230162   3.347   5.010   2.179 -0.3081 -1.8016 -0.7725
 7599SOL    HW330163   3.285   4.941   2.299  0.0620 -1.8246 -0.5916
 7599SOL    MW430164   3.355   4.964   2.253  0.7280  0.1854  0.3832
 7600SOL     OW30165   4.069   4.419   2.042 -0.1859 -0.0003  0.0801
 7600SOL    HW230166   4.123   4.443   2.117 -1.1547 -0.3125  0.8997
 7600SOL    HW330167   4.117   4.349   1.998  1.2556  1.3665 -0.6485
 7600SOL    MW430168   4.083   4.413   2.046  0.0271 -0.0562 -0.5516
 7601SOL     OW30169   0.798   3.362   3.548  0.0507  0.4385 -0.0658
 7601SOL    HW230170   0.841   3.281   3.522 -0.3154  0.6306 -1.3318
 7601SOL    HW330171   0.774   3.348   3.640 -0.3771 -1.0514 -0.3702
 7601SOL    MW430172   0.800   3.349   3.557  0.2844 -0.4441 -0.1104
 7602SOL     OW30173   0.442   4.570   6.144 -0.0942 -0.0509 -0.5750
 7602SOL    HW230174   0.445   4.603   6.055  1.5522  0.6352 -0.2951
 7602SOL    HW330175   0.512   4.505   6.148  0.8899  1.0365  0.6159
 7602SOL    MW430176   0.451   4.566   6.133 -0.3197 -0.3758 -0.4278
 7603SOL     OW30177   1.741   4.411   1.933 -0.3039  0.3485 -0.3302
 7603SOL    HW230178   1.782   4.338   1.980 -1.9163 -0.6314 -0.3606
 7603SOL    HW330179   1.730   4.479   1.999  1.0317  0.5302 -0.2509
 7603SOL    MW430180   1.745   4.410   1.948  0.3615 -0.2293 -0.1398
 7604SOL     OW30181   1.390   4.986   4.729  0.0125  0.8171 -0.0309
 7604SOL    HW230182   1.349   4.923   4.788 -1.3495  1.5787 -0.0954
 7604SOL    HW330183   1.434   5.048   4.788  2.6476 -0.9427 -0.0087
 7604SOL    MW430184   1.390   4.986   4.745 -0.0663  0.4891 -0.1799
 7605SOL     OW30185   2.767   4.076   1.499 -0.2211  0.3316 -0.3853
 7605SOL    HW230186   2.706   4.134   1.545 -1.5069  0.8752 -2.6343
 7605SOL    HW330187   2.772   3.998   1.554 -2.5038  0.5204  0.1967
 7605SOL    MW430188   2.759   4.074   1.512 -0.1696 -0.0872 -0.3730
 7606SOL     OW30189   6.120   1.520   5.848  0.0486 -0.4491 -0.2264
 7606SOL    HW230190   6.159   1.579   5.783  0.0098  0.5512  0.6402
 7606SOL    HW330191   6.153   1.433   5.824  0.1432 -0.0808 -1.4930
 7606SOL    MW430192   6.130   1.516   5.836 -0.0149 -0.3774  0.3033
 7607SOL     OW30193   5.838   1.285   1.704 -0.1003  0.4037 -0.6900
 7607SOL    HW230194   5.868   1.315   1.790 -0.0984  1.3080 -0.9857
 7607SOL    HW330195   5.900   1.216   1.679  0.2219  0.5108 -0.1990
 7607SOL    MW430196   5.850   1.280   1.712  0.0043 -0.4694 -0.1388
 7608SOL     OW30197   0.130   3.608   5.772 -0.8610  0.0093 -0.4953
 7608SOL    HW230198   0.046   3.651   5.757 -0.3562  0.2881 -3.0060
 7608SOL    HW330199   0.189   3.679   5.800 -0.9838  0.2053 -0.7320
 7608SOL    MW430200   0.127   3.623   5.774  0.3841 -0.6711 -0.3779
 7609SOL     OW30201   0.392   0.139   3.643 -0.4466 -0.1588  0.2978
 7609SOL    HW230202   0.331   0.065   3.640  0.2499 -0.7138 -1.0644
 7609SOL    HW330203   0.475   0.101   3.670  0.2294 -0.1471 -1.6162
 7609SOL    MW430204   0.395   0.124   3.646 -0.7324  0.2045  0.3719
 7610SOL     OW30205   1.404   4.810   1.008 -0.1433 -0.6746 -0.0550
 7610SOL    HW230206   1.424   4.836   1.098  0.2511 -1.4506  0.0906
 7610SOL    HW330207   1.373   4.720   1.016  1.0869 -1.1958 -0.8134
 7610SOL    MW430208   1.403   4.801   1.021 -0.1207 -0.5109  0.5350
 7611SOL     OW30209   2.309   4.771   5.128  0.2804 -0.4043 -0.3988
 7611SOL    HW230210   2.351   4.857   5.125  0.5555 -0.5002  0.4050
 7611SOL    HW330211   2.370   4.717   5.178 -0.4824 -0.7296  0.2007
 7611SOL    MW430212   2.323   4.775   5.134 -0.6082 -0.0256  0.4005
 7612SOL     OW30213   5.993   2.343   3.498 -0.7212  0.6876 -0.0006
 7612SOL    HW230214   6.051   2.417   3.517  0.0975  0.2207 -0.5993
 7612SOL    HW330215   5.925   2.380   3.442  0.6365  0.6665 -1.7428
 7612SOL    MW430216   5.992   2.358   3.493  0.0961  0.4381  0.1226
 7613SOL     OW30217   4.178   2.354   3.478 -0.2683 -0.5269 -0.4379
 7613SOL    HW230218   4.180   2.297   3.555  0.6747 -0.7840 -0.6402
 7613SOL    HW330219   4.163   2.442   3.513 -0.4269 -0.7226 -0.0148
 7613SOL    MW430220   4.176   2.358   3.493  0.6706  0.2616  0.7302
 7614SOL     OW30221   5.242   2.626   3.062  0.0167  0.1169  0.1985
 7614SOL    HW230222   5.155   2.638   3.101 -0.5718  0.8787 -1.2553
 7614SOL    HW330223   5.229   2.559   2.995  0.1982  1.2075 -0.9705
 7614SOL    MW430224   5.229   2.619   3.058 -0.0272 -0.2818  0.1836
 7615SOL     OW30225   4.231   5.137   5.528  0.2023  0.1739 -0.5121
 7615SOL    HW230226   4.174   5.070   5.566  0.0830  1.5469  1.9418
 7615SOL    HW330227   4.320   5.111   5.554  0.2473  0.4510 -0.3855
 7615SOL    MW430228   4.235   5.124   5.537  0.0749 -0.1128 -0.4597
 7616SOL     OW30229   0.532   1.713   3.148  0.2757 -0.6575 -0.0824
 7616SOL    HW230230   0.590   1.669   3.210 -0.1768 -1.5612 -0.2822
 7616SOL    HW330231   0.450   1.725   3.196 -0.7463 -3.1195 -1.0476
 7616SOL    MW430232   0.529   1.709   3.162  0.1590  0.1050 -0.1833
 7617SOL     OW30233   3.219   4.313   2.556  0.0815  0.4272  0.5252
 7617SOL    HW230234   3.253   4.326   2.467  1.9448 -0.7673  1.0083
 7617SOL    HW330235   3.289   4.267   2.602 -1.0999  0.4507  2.4525
 7617SOL    MW430236   3.233   4.308   2.550 -0.3679 -0.1791 -0.0747
 7618SOL     OW30237   1.454   5.756   1.224 -0.2586  0.1846 -0.1710
 7618SOL    HW230238   1.462   5.724   1.314  1.0795  0.7147 -0.0761
 7618SOL    HW330239   1.412   5.684   1.177 -1.4951  0.1069  0.9673
 7618SOL    MW430240   1.449   5.743   1.230  0.6301  0.2607 -0.2386
 7619SOL     OW30241   1.651   5.810   0.966  0.2250 -0.1635 -0.3653
 7619SOL    HW230242   1.673   5.722   0.994  1.2141 -0.0221 -0.6653
 7619SOL    HW330243   1.606   5.849   1.042 -2.3144 -1.6320 -0.9865
 7619SOL    MW430244   1.648   5.804   0.980  0.1003  0.2038  0.0957
 7620SOL     OW30245   4.532   3.272   3.592 -0.5239 -0.2324 -0.0060
 7620SOL    HW230246   4.618   3.239   3.619 -0.0800  0.2070 -0.8357
 7620SOL    HW330247   4.547   3.364   3.570 -1.4570  0.1638  0.9356
 7620SOL    MW430248   4.545   3.279   3.593  0.1319 -0.4134 -0.2250
 7621SOL     OW30249   2.295   4.761   3.164 -0.0193  0.0729 -0.3557
 7621SOL    HW230250   2.352   4.775   3.088 -1.0144  2.1347 -0.7731
 7621SOL    HW330251   2.292   4.665   3.173  1.4080 -0.1803 -1.8985
 7621SOL    MW430252   2.302   4.750   3.155 -0.3217 -0.2213 -0.1083
 7622SOL     OW30253   0.914   1.327   5.788  0.2904 -0.0220  0.1307
 7622SOL    HW230254   0.891   1.363   5.874 -0.5980 -2.5728  1.0591
 7622SOL    HW330255   0.836   1.341   5.735  0.4136  0.5412  0.0989
 7622SOL    MW430256   0.901   1.333   5.792  0.7054 -0.4175 -0.1598
 7623SOL     OW30257   4.462   3.752   5.905  0.1624 -0.0328  0.0480
 7623SOL    HW230258   4.420   3.821   5.854 -2.6747  0.6292  2.9142
 7623SOL    HW330259   4.404   3.676   5.895 -0.1810 -0.0331  1.7387
 7623SOL    MW430260   4.449   3.751   5.897  0.3722 -0.3285  0.2592
 7624SOL     OW30261   3.797   2.087   3.320 -0.2804 -0.2799  0.3851
 7624SOL    HW230262   3.733   2.047   3.379  1.2742 -0.3347  2.1302
 7624SOL    HW330263   3.771   2.179   3.315 -1.0864 -0.5087  0.2172
 7624SOL    MW430264   3.785   2.093   3.327 -0.5455 -0.4036 -0.3999
 7625SOL     OW30265   2.521   3.793   0.626  0.0465 -0.0549  0.0248
 7625SOL    HW230266   2.546   3.799   0.534  1.0725  0.5919  0.3330
 7625SOL    HW330267   2.450   3.857   0.637 -0.6526 -0.7241 -0.4860
 7625SOL    MW430268   2.515   3.802   0.615  0.0417 -0.0792  0.4761
 7626SOL     OW30269   1.066   3.148   0.754 -0.1004  0.1366  0.7713
 7626SOL    HW230270   1.117   3.067   0.757 -1.2590 -0.6065  1.1122
 7626SOL    HW330271   1.091   3.195   0.833  0.7164  0.2226  0.4791
 7626SOL    MW430272   1.076   3.144   0.765  1.0382  0.4376  0.0865
 7627SOL     OW30273   6.240   3.879   6.257  0.0524  0.4481  0.2142
 7627SOL    HW230274   6.213   3.857   6.347  1.2521 -0.3179  0.4086
 7627SOL    HW330275   6.291   3.959   6.266 -2.0880  1.9259 -0.1598
 7627SOL    MW430276   6.243   3.886   6.270  0.4494 -0.0917  0.0294
 7628SOL     OW30277   2.301   2.568   2.633 -0.3268 -0.1148 -0.0508
 7628SOL    HW230278   2.300   2.637   2.567 -0.5936 -1.0661 -1.0837
 7628SOL    HW330279   2.315   2.613   2.716  2.1825  0.9770 -0.9562
 7628SOL    MW430280   2.303   2.583   2.635  0.2924  0.1271 -0.2661
 7629SOL     OW30281   0.053   3.950   3.569 -0.5959  0.5657  0.4684
 7629SOL    HW230282  -0.006   3.966   3.495  2.2347 -2.3585 -2.7661
 7629SOL    HW330283   0.001   3.898   3.630 -2.2617  0.6360 -0.8221
 7629SOL    MW430284   0.038   3.945   3.567 -0.1165  0.0324 -0.1182
 7630SOL     OW30285   1.359   0.774   3.790  0.4274 -0.8887 -0.6108
 7630SOL    HW230286   1.393   0.855   3.828  0.7817 -1.1167 -0.4311
 7630SOL    HW330287   1.414   0.759   3.713  0.0809 -0.7301 -0.8924
 7630SOL    MW430288   1.371   0.783   3.785  0.0831 -0.4703 -0.1886
 7631SOL     OW30289   6.125   4.043   0.931 -0.4784  0.4037  0.5420
 7631SOL    HW230290   6.071   4.120   0.952  0.2212  0.5182  2.0405
 7631SOL    HW330291   6.141   4.001   1.016  0.8136 -0.2730 -0.0074
 7631SOL    MW430292   6.120   4.048   0.945  0.1558 -0.4719 -0.1802
 7632SOL     OW30293   4.612   3.604   2.861  0.7169  0.0201  0.1671
 7632SOL    HW230294   4.697   3.561   2.872  1.2442  1.0608  0.2732
 7632SOL    HW330295   4.625   3.662   2.786  0.2908  0.6464  0.5739
 7632SOL    MW430296   4.625   3.606   2.852 -0.4277  0.2997  0.2719
 7633SOL     OW30297   5.499   3.173   5.386 -0.0027  0.0795  0.3249
 7633SOL    HW230298   5.574   3.217   5.426 -0.4637  2.1470 -0.9492
 7633SOL    HW330299   5.517   3.080   5.398  2.3339  0.5293  0.8066
 7633SOL    MW430300   5.511   3.166   5.393 -0.1509  0.2872  0.4381
 7634SOL     OW30301   2.134   2.727   4.114 -0.0586 -0.2422 -0.0162
 7634SOL    HW230302   2.222   2.700   4.087 -0.2095  0.0323 -0.8031
 7634SOL    HW330303   2.075   2.669   4.067 -0.3218  0.0908 -0.0998
 7634SOL    MW430304   2.138   2.716   4.104  0.5004  0.6091 -0.0396
 7635SOL     OW30305   1.211   2.573   6.082  0.5268 -0.7352 -0.3508
 7635SOL    HW230306   1.244   2.485   6.100  1.2370 -0.5003 -0.4961
 7635SOL    HW330307   1.226   2.586   5.988  1.0037 -0.2240 -0.2101
 7635SOL    MW430308   1.217   2.563   6.072 -0.1447 -0.5061  0.0343
 7636SOL     OW30309   5.766   4.616   2.977  0.5043 -0.4542 -0.3410
 7636SOL    HW230310   5.767   4.542   3.037 -0.2290 -0.4922 -0.3713
 7636SOL    HW330311   5.681   4.612   2.933  1.0671 -0.4871 -1.4689
 7636SOL    MW430312   5.755   4.606   2.979  0.1831 -0.1504  0.0899
 7637SOL     OW30313   4.068   1.865   0.468 -0.3439 -0.1028 -0.0421
 7637SOL    HW230314   4.051   1.810   0.392 -2.9191  0.4596  0.0335
 7637SOL    HW330315   4.153   1.837   0.500 -0.1411 -1.7841 -1.8915
 7637SOL    MW430316   4.077   1.854   0.462  0.1999 -0.6556  0.1627
 7638SOL     OW30317   4.818   0.446   3.425  0.1704  0.1483  0.1450
 7638SOL    HW230318   4.731   0.455   3.465  0.5995  3.0143  0.7084
 7638SOL    HW330319   4.853   0.365   3.462 -1.2002  0.3842  2.1596
 7638SOL    MW430320   4.811   0.437   3.435 -0.0157  0.4270  0.0502
 7639SOL     OW30321   0.172   1.920   3.468  0.1034 -0.1193  0.2550
 7639SOL    HW230322   0.082   1.890   3.477  0.5286 -1.3362  0.6140
 7639SOL    HW330323   0.214   1.854   3.414  1.4028 -0.9318  2.1468
 7639SOL    MW430324   0.166   1.907   3.462 -0.2293  0.1497  0.4447
 7640SOL     OW30325   1.248   2.850   2.297 -0.1953  0.4422 -0.1986
 7640SOL    HW230326   1.279   2.902   2.222  0.5425 -0.9953 -0.9306
 7640SOL    HW330327   1.316   2.785   2.310 -0.9687 -0.1723  0.8759
 7640SOL    MW430328   1.261   2.848   2.289  0.0827  0.4746  0.2066
 7641SOL     OW30329   0.209   4.469   5.575  0.0194 -0.0225  0.2442
 7641SOL    HW230330   0.230   4.516   5.494 -0.0308 -1.3345 -0.5730
 7641SOL    HW330331   0.294   4.438   5.607 -0.0322 -0.0676  0.3384
 7641SOL    MW430332   0.223   4.471   5.569  0.1285 -0.1880 -0.1299
 7642SOL     OW30333   5.549   2.385   3.888 -0.0550 -0.1144 -0.1649
 7642SOL    HW230334   5.568   2.343   3.804 -0.0323  0.4918 -0.4657
 7642SOL    HW330335   5.627   2.367   3.942  0.5638  0.7391 -0.7616
 7642SOL    MW430336   5.562   2.377   3.884 -0.2159  0.0913 -0.6998
 7643SOL     OW30337   1.008   1.433   3.910 -0.4508 -0.1097 -0.5444
 7643SOL    HW230338   1.067   1.501   3.943 -0.2987  0.6453 -2.2603
 7643SOL    HW330339   1.066   1.368   3.869 -0.5497 -1.6236  1.5773
 7643SOL    MW430340   1.024   1.433   3.909  0.1010  0.3341 -0.0088
 7644SOL     OW30341   0.710   0.671   3.237 -0.0442 -0.3966  0.8768
 7644SOL    HW230342   0.758   0.748   3.270 -0.4564  0.2029  0.0958
 7644SOL    HW330343   0.625   0.705   3.212 -1.2729 -1.6030  3.0926
 7644SOL    MW430344   0.705   0.686   3.238  0.5695 -0.0399  0.4029
 7645SOL     OW30345   5.601   1.499   3.775  0.3497 -0.1406  0.3833
 7645SOL    HW230346   5.662   1.478   3.846  0.0274  0.6151  0.8957
 7645SOL    HW330347   5.517   1.515   3.819 -0.1486 -0.8191 -0.2814
 7645SOL    MW430348   5.598   1.498   3.790  0.1703  0.5801  0.0596
 7646SOL     OW30349   0.718   2.349   5.158  0.3294 -0.0787  0.1611
 7646SOL    HW230350   0.805   2.345   5.119  0.8723  0.9785  1.1973
 7646SOL    HW330351   0.727   2.304   5.242 -0.3208 -0.6278 -0.0571
 7646SOL    MW430352   0.731   2.343   5.164 -0.0232 -0.0660  0.6992
 7647SOL     OW30353   1.304   0.533   3.926 -0.0844  0.4393  0.1483
 7647SOL    HW230354   1.311   0.627   3.908 -0.4229  0.4586  0.1150
 7647SOL    HW330355   1.377   0.494   3.878 -0.5906  0.5589 -0.7364
 7647SOL    MW430356   1.315   0.540   3.918 -0.6276 -0.1224  0.4133
 7648SOL     OW30357   1.261   1.114   6.042 -0.5261  0.8357 -0.0821
 7648SOL    HW230358   1.181   1.087   5.997  0.2742 -0.6547 -0.6843
 7648SOL    HW330359   1.256   1.210   6.046 -2.4472  0.7587  0.1426
 7648SOL    MW430360   1.250   1.123   6.037 -0.0577 -0.0798  0.3219
 7649SOL     OW30361   2.279   5.919   6.374 -0.1634 -0.2597 -0.1097
 7649SOL    HW230362   2.245   5.886   6.291  1.0400  0.7103 -1.0165
 7649SOL    HW330363   2.372   5.896   6.373  0.2164  1.2004  0.2218
 7649SOL    MW430364   2.287   5.911   6.363  0.2096 -0.6272 -0.3953
 7650SOL     OW30365   2.523   0.945   0.656  0.0782  0.4361  0.1372
 7650SOL    HW230366   2.520   0.982   0.744  0.2358 -1.8026  1.1481
 7650SOL    HW330367   2.539   0.851   0.670  0.4290  0.0757 -2.2905
 7650SOL    MW430368   2.525   0.937   0.669 -0.4942  0.4566  0.2951
 7651SOL     OW30369   2.875   0.926   0.165 -0.0478 -0.7942  0.0081
 7651SOL    HW230370   2.960   0.896   0.132  0.4113  0.6934 -0.2640
 7651SOL    HW330371   2.879   1.022   0.157 -1.7021 -0.6894  0.1275
 7651SOL    MW430372   2.887   0.935   0.160  0.7941  0.1748 -0.1303
 7652SOL     OW30373   4.560   5.089   6.413  0.3223  0.1930 -0.5183
 7652SOL    HW230374   4.539   5.080   6.320 -0.6011 -1.0798 -0.2147
 7652SOL    HW330375   4.601   5.005   6.436 -1.1780 -0.2568  0.6274
 7652SOL    MW430376   4.563   5.076   6.403 -0.4546 -0.5518 -0.3512
 7653SOL     OW30377   5.340   1.301   2.813 -0.6155 -0.0733 -0.3488
 7653SOL    HW230378   5.330   1.206   2.805  0.3714 -0.3350  1.0602
 7653SOL    HW330379   5.257   1.331   2.850 -0.7925 -0.4413 -0.4446
 7653SOL    MW430380   5.327   1.292   2.817  0.2645 -0.2269 -1.1010
 7654SOL     OW30381   5.989   1.065   1.624 -0.4360  0.3949 -0.1391
 7654SOL    HW230382   6.059   1.004   1.646 -1.2621  0.2557  2.4235
 7654SOL    HW330383   6.019   1.109   1.545  1.2177 -1.6736 -0.7430
 7654SOL    MW430384   6.002   1.063   1.616  0.0629 -0.3758 -0.1910
 7655SOL     OW30385   4.747   2.159   1.246 -0.1585  0.6667  0.2396
 7655SOL    HW230386   4.763   2.170   1.339  1.8800 -0.4303  0.0594
 7655SOL    HW330387   4.746   2.064   1.232  1.6445  0.8080 -1.1548
 7655SOL    MW430388   4.749   2.148   1.256  0.4779 -0.5119 -0.2575
 7656SOL     OW30389   0.622   2.593   1.771 -0.1956 -0.3144  0.5159
 7656SOL    HW230390   0.716   2.573   1.777  0.1015  0.9640  0.4898
 7656SOL    HW330391   0.585   2.519   1.724  1.0929 -0.0510 -1.0041
 7656SOL    MW430392   0.630   2.581   1.766  0.0629 -0.2833  0.4633
 7657SOL     OW30393   2.384   5.135   1.645  0.6150 -0.2833  0.4908
 7657SOL    HW230394   2.312   5.167   1.698  1.1138  1.0159  0.4400
 7657SOL    HW330395   2.385   5.041   1.658 -2.6710 -0.7286 -1.4808
 7657SOL    MW430396   2.375   5.127   1.654  0.0072  0.5997 -0.1385
 7658SOL     OW30397   0.500   4.717   2.779  0.0971  0.0371 -0.6379
 7658SOL    HW230398   0.437   4.670   2.833  1.2460 -1.0863 -0.2132
 7658SOL    HW330399   0.554   4.765   2.841  2.6018 -2.6896 -0.4781
 7658SOL    MW430400   0.499   4.717   2.794  0.2606  0.6830 -0.4179
 7659SOL     OW30401   0.242   5.001   0.924 -0.1237  0.1254 -0.4371
 7659SOL    HW230402   0.243   4.964   1.012  1.4595 -0.4087 -0.6610
 7659SOL    HW330403   0.207   5.090   0.936 -0.7434 -0.2377  0.5867
 7659SOL    MW430404   0.237   5.008   0.937  0.6204 -0.1953  0.3714
 7660SOL     OW30405   6.179   5.591   0.557  0.1139 -0.2014 -0.3028
 7660SOL    HW230406   6.165   5.497   0.560  0.0769 -0.1631  0.8756
 7660SOL    HW330407   6.092   5.629   0.573  0.2982  0.0362  0.1354
 7660SOL    MW430408   6.166   5.584   0.559 -0.3861 -0.0127 -0.4835
 7661SOL     OW30409   0.924   3.701   5.187  0.0934 -0.3145  0.2385
 7661SOL    HW230410   0.828   3.700   5.181  0.1800  0.6132 -2.0912
 7661SOL    HW330411   0.950   3.615   5.156  0.0391 -0.3729  0.3526
 7661SOL    MW430412   0.915   3.689   5.182  0.0416 -0.2619  0.1565
 7662SOL     OW30413   1.502   5.773   3.652 -0.6484  0.7477 -0.2773
 7662SOL    HW230414   1.458   5.834   3.711  0.8378 -0.9578  2.8553
 7662SOL    HW330415   1.433   5.711   3.627 -0.8874  0.0180  1.8868
 7662SOL    MW430416   1.487   5.773   3.657 -0.0492 -0.0569  0.0358
 7663SOL     OW30417   5.008   4.605   4.186  0.5571  0.1230 -0.3230
 7663SOL    HW230418   4.935   4.561   4.142 -0.3447  1.5394 -0.3099
 7663SOL    HW330419   4.976   4.693   4.203  1.5307  0.1514  1.6040
 7663SOL    MW430420   4.994   4.611   4.182  0.0455  0.1371  0.3188
 7664SOL     OW30421   2.644   6.432   2.679  0.0947 -0.1112 -0.3594
 7664SOL    HW230422   2.589   6.506   2.652  0.3417  0.2952  0.2408
 7664SOL    HW330423   2.650   6.439   2.774  0.5515 -0.5997 -0.3457
 7664SOL    MW430424   2.638   6.443   2.688 -0.6273  0.3238 -0.0007
 7665SOL     OW30425   4.694   4.590   5.024  0.1604 -0.2602 -0.4947
 7665SOL    HW230426   4.727   4.526   5.087 -0.1667  0.6734  0.6412
 7665SOL    HW330427   4.769   4.610   4.968  1.8668  2.3160  2.4281
 7665SOL    MW430428   4.708   4.584   5.025 -0.2050 -0.3071 -0.1764
 7666SOL     OW30429   0.803   2.964   5.941 -0.5270  0.4104  1.0312
 7666SOL    HW230430   0.838   2.969   5.852 -2.1666 -1.0948  0.2383
 7666SOL    HW330431   0.844   2.886   5.978 -0.6793  0.4019  1.1826
 7666SOL    MW430432   0.813   2.954   5.934  0.2728 -0.0550  0.1925
 7667SOL     OW30433   5.901   5.895   3.839  0.5243 -0.1570 -0.2357
 7667SOL    HW230434   5.845   5.826   3.804  1.2509 -1.9559  1.9163
 7667SOL    HW330435   5.857   5.977   3.814 -1.6030 -1.4208 -0.8903
 7667SOL    MW430436   5.888   5.897   3.831  0.1235 -0.5899 -0.0068
 7668SOL     OW30437   4.277   0.880   5.005 -0.1306  0.1392  0.1220
 7668SOL    HW230438   4.336   0.919   4.941  2.5464 -1.4206  1.4673
 7668SOL    HW330439   4.211   0.834   4.953 -1.3981  3.4178 -1.4395
 7668SOL    MW430440   4.276   0.879   4.990 -0.0261 -0.2392 -0.0462
 7669SOL     OW30441   1.704   5.817   5.630  0.1748  0.3595  0.3504
 7669SOL    HW230442   1.778   5.834   5.572 -0.1658 -0.0363 -0.2098
 7669SOL    HW330443   1.628   5.815   5.572 -0.0040 -1.4548  0.5811
 7669SOL    MW430444   1.704   5.819   5.615 -0.3892 -0.0366  0.6248
 7670SOL     OW30445   3.491   1.429   5.088 -0.0084  0.0019 -0.0234
 7670SOL    HW230446   3.540   1.353   5.120 -0.9130  0.1309  1.7769
 7670SOL    HW330447   3.497   1.423   4.993  0.5597 -1.9111  0.0932
 7670SOL    MW430448   3.498   1.418   5.080  0.1044  0.2022  0.0597
 7671SOL     OW30449   1.295   2.162   5.043  0.0639  0.5334 -0.1281
 7671SOL    HW230450   1.251   2.245   5.026 -0.9950 -0.2038 -1.1259
 7671SOL    HW330451   1.387   2.179   5.023  0.3000  2.0802  1.9485
 7671SOL    MW430452   1.301   2.175   5.038  0.0925 -0.3815  0.2459
 7672SOL     OW30453   4.601   5.892   5.031  0.0568  0.2312 -0.4335
 7672SOL    HW230454   4.531   5.956   5.018 -0.8974 -0.8231 -0.6616
 7672SOL    HW330455   4.655   5.899   4.951 -0.3157  0.4142 -0.6719
 7672SOL    MW430456   4.599   5.901   5.018 -0.3345 -0.6663  0.3235
 7673SOL     OW30457   2.080   1.548   4.922 -0.1920 -0.2348 -0.0271
 7673SOL    HW230458   2.161   1.552   4.973  0.1004 -0.7303 -0.4323
 7673SOL    HW330459   2.031   1.475   4.960 -0.6641  0.3601  0.5175
 7673SOL    MW430460   2.084   1.539   4.933  0.0403 -0.5354  0.4475
 7674SOL     OW30461   5.047   1.735   2.036 -0.0112  0.4028 -0.6118
 7674SOL    HW230462   5.015   1.665   1.979  0.1488  0.7660 -1.1550
 7674SOL    HW330463   5.088   1.797   1.977 -1.1557  1.5252 -0.2761
 7674SOL    MW430464   5.048   1.734   2.021  0.3837  0.0802 -0.1273
 7675SOL     OW30465   3.259   0.642   2.469  0.1386 -0.8226 -0.0387
 7675SOL    HW230466   3.252   0.638   2.374 -1.1820 -0.9836  0.0493
 7675SOL    HW330467   3.243   0.552   2.498 -0.9687 -0.5000  0.4032
 7675SOL    MW430468   3.256   0.629   2.460  0.3164 -0.6288 -0.0813
 7676SOL     OW30469   2.581   0.210   3.743 -0.4948  0.1063  0.0243
 7676SOL    HW230470   2.573   0.169   3.829  1.4151  1.0348  0.7067
 7676SOL    HW330471   2.523   0.285   3.746  1.3168  1.5475  1.4758
 7676SOL    MW430472   2.573   0.214   3.754  0.2453  0.0504 -0.7694
 7677SOL     OW30473   3.553   6.129   4.403 -0.2911 -0.0410 -0.2259
 7677SOL    HW230474   3.640   6.092   4.416  0.1746  0.3580 -2.0283
 7677SOL    HW330475   3.557   6.215   4.446 -0.1589 -0.4516  0.6124
 7677SOL    MW430476   3.565   6.136   4.411 -0.3593 -0.6064 -0.1270
 7678SOL     OW30477   4.825   1.365   5.364 -0.3152  0.2685 -0.2499
 7678SOL    HW230478   4.767   1.416   5.421  0.9646 -0.0592  1.4333
 7678SOL    HW330479   4.838   1.283   5.411  1.8165  0.4896 -0.3753
 7678SOL    MW430480   4.819   1.361   5.378 -0.5006 -0.3223 -0.5547
 7679SOL     OW30481   0.953   0.631   3.832  0.1668 -0.2383  0.0238
 7679SOL    HW230482   0.982   0.659   3.919  0.6335  0.0870 -0.2295
 7679SOL    HW330483   0.994   0.546   3.819  0.7512  0.0687 -0.1949
 7679SOL    MW430484   0.962   0.624   3.842  0.3553 -0.6516  0.2824
 7680SOL     OW30485   0.964   1.797   3.601 -0.3978 -0.1033 -0.0209
 7680SOL    HW230486   0.931   1.887   3.600  1.7008  0.7037 -0.9838
 7680SOL    HW330487   0.901   1.750   3.656 -1.4939  1.9546  0.6063
 7680SOL    MW430488   0.951   1.803   3.608  0.6729 -0.1692 -0.5926
 7681SOL     OW30489   1.914   2.043   2.753  0.0676  0.3634 -0.0635
 7681SOL    HW230490   1.866   1.966   2.724 -0.2311  1.2646 -2.1333
 7681SOL    HW330491   1.851   2.091   2.807 -0.7027  0.5253 -1.0767
 7681SOL    MW430492   1.899   2.039   2.756 -0.2587  0.1639 -0.1313
 7682SOL     OW30493   4.085   2.106   5.921  0.3015 -0.1381 -0.3334
 7682SOL    HW230494   3.996   2.115   5.885  0.2913 -1.2802 -0.6256
 7682SOL    HW330495   4.073   2.050   5.998  0.6358  0.5231  0.2084
 7682SOL    MW430496   4.071   2.100   5.927  0.2637 -0.1910  1.2552
 7683SOL     OW30497   2.322   0.650   4.633  0.3919  0.1243  0.6410
 7683SOL    HW230498   2.391   0.663   4.568  0.2110  0.2154  0.4654
 7683SOL    HW330499   2.297   0.558   4.623  0.0308  0.2610  0.2462
 7683SOL    MW430500   2.328   0.639   4.623 -0.1676  0.4223 -0.0880
 7684SOL     OW30501   5.737   6.400   1.942 -0.0110 -0.2084 -0.1643
 7684SOL    HW230502   5.748   6.358   2.027 -1.9391  1.9267  1.2664
 7684SOL    HW330503   5.773   6.488   1.955 -3.2980  1.3072 -0.3791
 7684SOL    MW430504   5.743   6.406   1.955 -0.2578  1.1603  0.2273
 7685SOL     OW30505   1.486   3.959   6.131  0.5488 -0.1358  0.1819
 7685SOL    HW230506   1.503   3.951   6.037  1.0833  2.9788 -0.0882
 7685SOL    HW330507   1.461   4.051   6.143  0.9138 -0.3374  3.1599
 7685SOL    MW430508   1.485   3.970   6.120  0.2833  0.0651 -0.0317
 7686SOL     OW30509   0.819   3.519   1.682  0.4875  0.6549 -0.2696
 7686SOL    HW230510   0.787   3.601   1.722 -0.5667 -0.4839  1.3489
 7686SOL    HW330511   0.757   3.453   1.712  0.5272 -0.5526 -2.6659
 7686SOL    MW430512   0.806   3.521   1.691 -0.4580 -1.0720 -0.9131
 7687SOL     OW30513   1.481   2.014   1.641 -0.9943  0.0878  0.2219
 7687SOL    HW230514   1.477   2.011   1.546  0.1387  0.0940  0.1626
 7687SOL    HW330515   1.394   1.986   1.670 -1.7197  1.1593 -0.8162
 7687SOL    MW430516   1.469   2.010   1.633  0.2441 -0.8207 -0.0559
 7688SOL     OW30517   5.640   0.700   6.342 -0.5635 -0.9915  0.1320
 7688SOL    HW230518   5.634   0.698   6.246 -0.4538  0.7156  0.0590
 7688SOL    HW330519   5.687   0.781   6.361  0.2754 -1.7796  1.6158
 7688SOL    MW430520   5.646   0.710   6.332 -0.2091 -0.4770  0.4400
 7689SOL     OW30521   1.603   0.234   4.946 -0.1245  0.1400  0.0576
 7689SOL    HW230522   1.600   0.255   4.853 -3.4648 -2.1143 -0.5296
 7689SOL    HW330523   1.662   0.159   4.952  0.3619  0.5013 -0.1898
 7689SOL    MW430524   1.610   0.227   4.935 -1.1773 -0.1869  0.3445
 7690SOL     OW30525   3.963   5.517   0.892 -0.0581  0.2452 -0.1716
 7690SOL    HW230526   4.028   5.572   0.848 -0.2470 -0.2060 -1.0322
 7690SOL    HW330527   3.953   5.441   0.835  0.4208 -0.8481  1.1470
 7690SOL    MW430528   3.971   5.515   0.879  0.0020  0.0736 -0.7113
 7691SOL     OW30529   4.784   3.835   4.400 -0.6027  0.4041  0.1173
 7691SOL    HW230530   4.864   3.873   4.438 -0.5114  0.9255 -0.5646
 7691SOL    HW330531   4.815   3.784   4.325 -1.0324  2.2004 -1.3602
 7691SOL    MW430532   4.799   3.834   4.395 -0.2823  0.2322 -0.3903
 7692SOL     OW30533   2.421   3.372   1.525  0.0692 -0.3722 -0.0371
 7692SOL    HW230534   2.409   3.283   1.494 -1.6760 -0.1703 -0.0532
 7692SOL    HW330535   2.335   3.413   1.515  0.5673  1.0067  0.9362
 7692SOL    MW430536   2.408   3.366   1.520 -0.4861  0.3406  0.4705
 7693SOL     OW30537   1.855   0.205   5.183  1.0073  0.5220 -0.0751
 7693SOL    HW230538   1.919   0.143   5.147  2.2960  2.9241 -2.2265
 7693SOL    HW330539   1.854   0.278   5.121 -2.7928  1.3119  0.6714
 7693SOL    MW430540   1.864   0.206   5.170  0.7435  0.4785  0.2961
 7694SOL     OW30541   3.345   1.730   3.545  0.2703  0.4125  0.1927
 7694SOL    HW230542   3.280   1.669   3.580  0.8919 -1.6813 -2.0763
 7694SOL    HW330543   3.408   1.740   3.616 -1.3513  0.7928  1.6605
 7694SOL    MW430544   3.345   1.723   3.559 -0.0952 -0.1093  0.3375
 7695SOL     OW30545   3.122   1.530   5.292 -0.3708 -0.0452 -0.1513
 7695SOL    HW230546   3.150   1.574   5.211  0.2567  0.1434  0.1658
 7695SOL    HW330547   3.192   1.548   5.355  0.3168 -2.1813 -0.2377
 7695SOL    MW430548   3.135   1.538   5.289 -0.0528 -0.3925 -0.1163
 7696SOL     OW30549   2.259   5.226   0.762  0.3836 -0.0945  0.4145
 7696SOL    HW230550   2.256   5.246   0.668  0.8040  0.3752  0.4975
 7696SOL    HW330551   2.187   5.277   0.800  1.2247  1.0180  0.5728
 7696SOL    MW430552   2.249   5.235   0.754 -0.2791  0.6212 -0.2958
 7697SOL     OW30553   1.131   5.960   0.008 -0.0724  0.6873 -0.0105
 7697SOL    HW230554   1.108   6.050   0.033  1.1678  0.5607  1.7504
 7697SOL    HW330555   1.117   5.958  -0.087 -1.2934  2.3696  0.0751
 7697SOL    MW430556   1.126   5.972  -0.001 -0.1137  0.0520  0.2519
 7698SOL     OW30557   0.859   2.696   4.933  0.0687  0.6233 -0.5813
 7698SOL    HW230558   0.893   2.619   4.888  0.5958 -0.4887  1.5970
 7698SOL    HW330559   0.878   2.769   4.873  2.6822 -0.4679 -1.2373
 7698SOL    MW430560   0.866   2.696   4.919  0.8396 -0.1442  0.2190
 7699SOL     OW30561   4.447   4.861   4.356 -0.2133  0.0075 -0.4976
 7699SOL    HW230562   4.503   4.785   4.341  0.9177  0.6825  0.1955
 7699SOL    HW330563   4.410   4.881   4.270  1.2126  0.0124 -1.1363
 7699SOL    MW430564   4.449   4.853   4.343 -0.5792 -0.0562 -0.5355
 7700SOL     OW30565   0.784   5.847   2.293 -0.0351  0.1052 -0.2452
 7700SOL    HW230566   0.827   5.763   2.311 -0.9265 -0.1937  0.5531
 7700SOL    HW330567   0.750   5.875   2.377 -1.7532  0.1408 -0.9245
 7700SOL    MW430568   0.785   5.839   2.306 -0.7162  0.2390 -0.5776
 7701SOL     OW30569   1.250   0.256   5.281  0.1145 -0.0803  0.4297
 7701SOL    HW230570   1.261   0.320   5.211 -0.4612 -0.4294  0.0136
 7701SOL    HW330571   1.157   0.234   5.279  0.3871 -1.2582  0.2831
 7701SOL    MW430572   1.239   0.262   5.271  0.5958  0.2055 -0.0188
 7702SOL     OW30573   4.451   1.044   1.682 -0.0170 -0.3136  0.1705
 7702SOL    HW230574   4.492   0.957   1.685  0.7193  0.0138 -0.2625
 7702SOL    HW330575   4.398   1.048   1.762  2.0735 -0.1032  1.6107
 7702SOL    MW430576   4.449   1.033   1.693 -0.3500  0.1399 -0.0889
 7703SOL     OW30577   5.335   6.167   5.389 -0.1700  0.6811  0.0769
 7703SOL    HW230578   5.367   6.127   5.308 -1.5318 -1.0404  0.3132
 7703SOL    HW330579   5.392   6.242   5.403  0.3961  0.7611 -2.2265
 7703SOL    MW430580   5.347   6.172   5.380 -0.1341 -0.0214  0.3799
 7704SOL     OW30581   4.053   2.279   5.631 -0.5607  0.1149  0.2396
 7704SOL    HW230582   4.021   2.228   5.556 -0.0632 -1.5210  1.0971
 7704SOL    HW330583   4.138   2.314   5.602 -0.1580 -0.8842  0.1857
 7704SOL    MW430584   4.060   2.277   5.617  0.0039 -0.3258 -0.3194
 7705SOL     OW30585   5.309   4.207   2.512 -0.4200  0.3443  0.2071
 7705SOL    HW230586   5.307   4.161   2.428 -0.9353  0.5873  0.0800
 7705SOL    HW330587   5.332   4.139   2.576  2.2575  0.5945 -0.3844
 7705SOL    MW430588   5.311   4.192   2.510  0.3917  0.0722 -0.3485
 7706SOL     OW30589   6.238   0.273   5.470 -0.0312  0.0841 -0.7110
 7706SOL    HW230590   6.280   0.358   5.485  1.3651 -0.7559  0.4179
 7706SOL    HW330591   6.302   0.209   5.502 -1.2585 -1.3718 -1.0691
 7706SOL    MW430592   6.252   0.276   5.476  0.4382 -0.1217 -0.0659
 7707SOL     OW30593   2.372   1.893   2.786 -0.0442  0.3569 -0.1864
 7707SOL    HW230594   2.442   1.949   2.818  1.9443 -0.7568 -2.3599
 7707SOL    HW330595   2.342   1.934   2.705  0.1068 -0.6850 -0.7874
 7707SOL    MW430596   2.377   1.906   2.780  0.0669 -0.0852  0.1947
 7708SOL     OW30597   1.419   1.399   3.448  0.0019  0.0928  0.0473
 7708SOL    HW230598   1.450   1.423   3.361  0.3087 -0.8327 -0.1149
 7708SOL    HW330599   1.478   1.444   3.508 -0.0022  0.4671 -0.2215
 7708SOL    MW430600   1.431   1.408   3.444 -0.0431 -0.7094 -0.2506
 7709SOL     OW30601   2.456   3.712   1.817 -0.2729 -0.1927 -0.0315
 7709SOL    HW230602   2.362   3.696   1.821  0.0459 -2.1953  0.4568
 7709SOL    HW330603   2.467   3.773   1.744 -1.8355 -0.9064 -0.9100
 7709SOL    MW430604   2.445   3.718   1.808 -0.1542  0.3999 -0.3534
 7710SOL     OW30605   0.913   4.720   6.147  0.1538  0.5571  0.2255
 7710SOL    HW230606   0.841   4.741   6.087  0.9979  0.0602 -1.0020
 7710SOL    HW330607   0.887   4.637   6.187 -0.6007  1.0918  0.8717
 7710SOL    MW430608   0.900   4.712   6.144 -0.4043 -0.2771  0.4360
 7711SOL     OW30609   6.308   3.965   2.043 -0.2348 -0.2572  0.6254
 7711SOL    HW230610   6.396   3.945   2.073  0.3824 -2.6864 -2.3329
 7711SOL    HW330611   6.319   4.041   1.985  0.5076 -2.0277 -1.7298
 7711SOL    MW430612   6.321   3.973   2.039 -0.0954 -0.8448 -0.1284
 7712SOL     OW30613   4.589   0.691   3.851  0.7482 -0.9379 -0.6327
 7712SOL    HW230614   4.511   0.663   3.803 -0.5113 -2.2495  1.9693
 7712SOL    HW330615   4.580   0.785   3.860  1.4828 -0.4821 -3.5598
 7712SOL    MW430616   4.578   0.699   3.846  0.1808  0.0964 -0.0156
 7713SOL     OW30617   0.436   0.486   5.607 -1.1257 -0.0839 -0.3618
 7713SOL    HW230618   0.447   0.405   5.657 -0.9356 -0.0673 -0.3773
 7713SOL    HW330619   0.359   0.470   5.552 -0.2386 -0.7968 -1.4298
 7713SOL    MW430620   0.427   0.473   5.606 -0.0845 -0.1565  0.4133
 7714SOL     OW30621   3.619   5.141   2.052  0.0357  0.2303 -0.5462
 7714SOL    HW230622   3.679   5.214   2.034  2.2577 -1.2491  0.4262
 7714SOL    HW330623   3.663   5.064   2.014 -1.1138 -0.9662  0.4408
 7714SOL    MW430624   3.632   5.140   2.044  0.4984  0.0530 -0.3038
 7715SOL     OW30625   2.611   0.272   0.709  0.1792 -0.3427  0.0067
 7715SOL    HW230626   2.651   0.195   0.668  2.7803 -0.9058  3.1578
 7715SOL    HW330627   2.681   0.337   0.710 -1.5559  1.6486 -1.3387
 7715SOL    MW430628   2.626   0.270   0.704  0.0556  0.2527  0.0411
 7716SOL     OW30629   0.452   4.686   1.097  0.2131 -0.0844 -0.1732
 7716SOL    HW230630   0.496   4.696   1.012  0.1904 -1.3294 -0.3575
 7716SOL    HW330631   0.522   4.663   1.158  0.7350  3.6417  0.8552
 7716SOL    MW430632   0.467   4.684   1.094  0.5468  0.0218  0.0651
 7717SOL     OW30633   1.677   4.521   1.100  0.5339  0.2991  0.1721
 7717SOL    HW230634   1.740   4.567   1.045 -0.2479 -1.7273 -2.6506
 7717SOL    HW330635   1.671   4.433   1.062 -0.7060 -1.0220  3.0794
 7717SOL    MW430636   1.685   4.515   1.088 -0.0397 -0.0470 -0.3489
 7718SOL     OW30637   4.043   1.978   6.182 -0.1226 -0.1749  0.4185
 7718SOL    HW230638   4.099   2.036   6.233  0.3513  0.0519 -0.3613
 7718SOL    HW330639   3.963   1.971   6.234  0.0653  0.6542  0.8280
 7718SOL    MW430640   4.040   1.985   6.196 -0.1326 -0.3043 -0.2560
 7719SOL     OW30641   3.978   3.017   2.180  0.3797  0.0298  0.1720
 7719SOL    HW230642   3.893   2.988   2.147  0.8782  0.6433 -1.8063
 7719SOL    HW330643   3.970   3.012   2.275 -1.6613 -0.4806  0.0237
 7719SOL    MW430644   3.966   3.013   2.188 -0.2599  0.1529  0.1974
 7720SOL     OW30645   4.203   4.521   2.265 -0.2372 -0.1250  0.3337
 7720SOL    HW230646   4.244   4.597   2.222  0.5830  0.3553  1.9039
 7720SOL    HW330647   4.125   4.557   2.306 -1.0022 -0.5788 -0.6873
 7720SOL    MW430648   4.198   4.536   2.264 -0.2656 -0.5093 -0.6576
 7721SOL     OW30649   0.130   1.227   1.141 -0.7271 -0.5457  0.1281
 7721SOL    HW230650   0.181   1.147   1.129  0.6759  0.0003  1.9765
 7721SOL    HW330651   0.159   1.285   1.071 -0.0938 -0.8810  0.1043
 7721SOL    MW430652   0.140   1.224   1.131  0.0141 -0.2511 -0.6009
 7722SOL     OW30653   1.231   2.639   0.497 -0.0902 -0.3641 -0.4345
 7722SOL    HW230654   1.259   2.551   0.471 -1.3491 -0.8218 -0.3542
 7722SOL    HW330655   1.157   2.658   0.438 -0.6454  0.0925  0.3935
 7722SOL    MW430656   1.225   2.630   0.486 -0.2369  0.0580  0.1145
 7723SOL     OW30657   5.343   3.853   2.100 -0.2572  0.6682  0.8065
 7723SOL    HW230658   5.418   3.828   2.154  1.1664 -0.0076 -1.3367
 7723SOL    HW330659   5.357   3.946   2.082 -0.5365  0.8077  1.3127
 7723SOL    MW430660   5.355   3.862   2.104  0.0849  0.3925  1.1433
 7724SOL     OW30661   0.571   1.717   2.077 -0.1582  0.2381 -0.0940
 7724SOL    HW230662   0.553   1.623   2.077 -1.2290  0.4274  0.0084
 7724SOL    HW330663   0.488   1.757   2.050  0.9743  1.0416 -2.6419
 7724SOL    MW430664   0.557   1.710   2.074 -0.1751  0.3349 -0.0651
 7725SOL     OW30665   5.384   3.346   1.624  0.1909 -0.0373  0.1359
 7725SOL    HW230666   5.407   3.348   1.717  1.2642  1.3986 -0.1151
 7725SOL    HW330667   5.439   3.415   1.585 -0.2310 -0.6244 -1.5598
 7725SOL    MW430668   5.394   3.356   1.631 -0.6034  0.2032 -0.6734
 7726SOL     OW30669   0.491   0.205   2.481  0.0126  0.1324 -0.0369
 7726SOL    HW230670   0.448   0.249   2.407 -0.3307  1.8252  1.1044
 7726SOL    HW330671   0.569   0.165   2.443 -0.4450  0.5045 -1.4180
 7726SOL    MW430672   0.496   0.205   2.466 -0.0761 -0.0333 -0.1811
 7727SOL     OW30673   3.630   3.617   0.146 -0.1632  0.0100 -0.3006
 7727SOL    HW230674   3.685   3.687   0.182 -0.8479  0.2627  0.2743
 7727SOL    HW330675   3.676   3.589   0.066  1.5642 -0.7802  0.8970
 7727SOL    MW430676   3.644   3.623   0.140 -0.6942 -0.5745  0.3113
 7728SOL     OW30677   4.249   5.523   6.425 -0.5134 -0.6323  0.1352
 7728SOL    HW230678   4.339   5.503   6.400 -0.0202  1.6430 -0.1886
 7728SOL    HW330679   4.196   5.458   6.379  0.7453  0.0446 -2.4706
 7728SOL    MW430680   4.254   5.512   6.416  0.8379 -0.6808  0.5383
 7729SOL     OW30681   1.109   0.415   3.774 -0.1594 -0.4374 -0.2724
 7729SOL    HW230682   1.054   0.350   3.819 -2.7545  2.4187  1.1065
 7729SOL    HW330683   1.178   0.435   3.836 -1.2657  0.4087  0.7338
 7729SOL    MW430684   1.111   0.409   3.788 -0.6007 -0.9743 -0.0503
 7730SOL     OW30685   1.855   4.595   5.961 -0.0042 -0.1657  0.3208
 7730SOL    HW230686   1.868   4.687   5.936  1.5826 -0.0140  1.4827
 7730SOL    HW330687   1.856   4.547   5.878 -1.4050  0.9011 -0.3421
 7730SOL    MW430688   1.857   4.601   5.946 -0.0442  0.0707 -0.0382
 7731SOL     OW30689   2.089   0.923   1.570 -0.0731  0.2710 -0.0724
 7731SOL    HW230690   2.051   0.976   1.500  0.8800 -0.0432 -0.8577
 7731SOL    HW330691   2.036   0.942   1.646  0.0477  2.1238 -0.3973
 7731SOL    MW430692   2.077   0.932   1.570  0.2932  0.0672  0.0203
 7732SOL     OW30693   4.373   2.533   3.771  0.0707  0.1071 -0.4776
 7732SOL    HW230694   4.442   2.598   3.760 -1.1537  1.5398 -0.0155
 7732SOL    HW330695   4.412   2.466   3.828  0.7888  1.3583  0.5532
 7732SOL    MW430696   4.387   2.532   3.777 -0.8493 -0.4405 -0.1642
 7733SOL     OW30697   0.890   4.418   1.667 -0.0033  0.5794 -0.2983
 7733SOL    HW230698   0.932   4.471   1.599 -2.4858  1.3107 -1.3650
 7733SOL    HW330699   0.891   4.329   1.631  0.5730  0.5887 -0.3167
 7733SOL    MW430700   0.896   4.413   1.653  0.0624 -0.0557  0.0325
 7734SOL     OW30701   3.297   3.135   4.582 -0.5464  0.5072  0.9740
 7734SOL    HW230702   3.241   3.179   4.645  2.2564  2.5170  2.3131
 7734SOL    HW330703   3.339   3.206   4.533  1.1288 -0.8192  0.3507
 7734SOL    MW430704   3.295   3.150   4.584 -0.0651 -0.6335 -0.1594
 7735SOL     OW30705   4.843   3.573   5.012 -0.2624 -0.1748  0.1539
 7735SOL    HW230706   4.899   3.591   4.936 -1.9148  0.2416 -1.0167
 7735SOL    HW330707   4.840   3.478   5.017  0.4216 -0.2017  0.1313
 7735SOL    MW430708   4.850   3.563   5.002 -0.1949 -0.3914 -0.0797
 7736SOL     OW30709   1.768   1.698   5.234 -0.7344 -0.3480  0.1442
 7736SOL    HW230710   1.737   1.635   5.300 -1.3232  1.4335  1.6790
 7736SOL    HW330711   1.818   1.762   5.284 -1.4865  1.2672 -1.0610
 7736SOL    MW430712   1.770   1.698   5.250 -0.5250 -0.5131 -0.2453
 7737SOL     OW30713   4.531   2.401   2.089 -0.5713  0.3677  0.5167
 7737SOL    HW230714   4.459   2.434   2.142 -0.5661  1.5695 -0.1908
 7737SOL    HW330715   4.532   2.307   2.105 -2.0634  0.3859  0.8100
 7737SOL    MW430716   4.522   2.393   2.098  0.3637  0.3880 -0.7428
 7738SOL     OW30717   2.428   0.422   2.767 -0.0714  0.8955  0.3661
 7738SOL    HW230718   2.448   0.410   2.860 -2.6597  1.0692  1.0084
 7738SOL    HW330719   2.423   0.517   2.756  0.4713  0.8844 -0.0413
 7738SOL    MW430720   2.430   0.433   2.778 -0.0302 -0.1963 -0.3978
 7739SOL     OW30721   5.698   0.517   2.794 -0.1386 -0.0695 -0.1759
 7739SOL    HW230722   5.618   0.569   2.805 -0.1350  0.0888 -0.8480
 7739SOL    HW330723   5.671   0.426   2.806 -0.4246 -0.0183 -0.4488
 7739SOL    MW430724   5.684   0.512   2.797  0.2214  0.0593 -0.2596
 7740SOL     OW30725   5.629   5.678   5.685 -0.4846  0.3557 -0.4297
 7740SOL    HW230726   5.648   5.727   5.765  0.5661  0.0368 -0.4669
 7740SOL    HW330727   5.629   5.743   5.615 -1.1847  0.6021 -0.2093
 7740SOL    MW430728   5.632   5.693   5.686 -0.5519 -0.6081  0.1169
 7741SOL     OW30729   5.153   6.210   5.654 -0.0787  0.1942 -0.0974
 7741SOL    HW230730   5.211   6.134   5.659  0.5340  0.5354 -1.5821
 7741SOL    HW330731   5.208   6.285   5.675 -0.2182  0.4301 -0.5745
 7741SOL    MW430732   5.168   6.210   5.658 -0.9739 -0.3200  0.3228
 7742SOL     OW30733   4.391   4.971   5.842 -0.3509  0.0180 -0.1793
 7742SOL    HW230734   4.443   4.903   5.884  0.7738 -0.3343 -2.0117
 7742SOL    HW330735   4.302   4.956   5.872  0.1393 -1.2530  0.7061
 7742SOL    MW430736   4.386   4.960   5.851  0.0646  0.2552  0.2876
 7743SOL     OW30737   5.594   4.504   0.925  0.3516 -0.1935  0.0343
 7743SOL    HW230738   5.642   4.577   0.965 -2.3367  1.2956  0.8616
 7743SOL    HW330739   5.590   4.438   0.994 -0.7626  0.6753  0.8446
 7743SOL    MW430740   5.599   4.505   0.940  0.7667  0.0130 -0.3271
 7744SOL     OW30741   2.921   3.569   1.413 -0.4656 -0.1639  0.0297
 7744SOL    HW230742   2.834   3.585   1.376  0.5927  1.7822 -1.8675
 7744SOL    HW330743   2.906   3.564   1.507 -2.5463  0.7656 -0.1833
 7744SOL    MW430744   2.907   3.570   1.420 -0.0573 -0.7961  0.1665
 7745SOL     OW30745   6.324   1.612   1.257  0.7062 -0.5947 -0.4262
 7745SOL    HW230746   6.259   1.631   1.325 -0.8437 -0.4165 -1.8955
 7745SOL    HW330747   6.348   1.521   1.273  0.6569 -0.4477  0.5870
 7745SOL    MW430748   6.318   1.603   1.268  0.1055  0.4306 -0.2497
 7746SOL     OW30749   5.920   0.570   4.659 -0.4259  0.6328  0.0466
 7746SOL    HW230750   5.864   0.641   4.692 -1.1485  1.0539 -1.9491
 7746SOL    HW330751   5.874   0.490   4.683 -0.6637  0.9070  0.5159
 7746SOL    MW430752   5.906   0.569   4.666  0.1105  0.7852 -0.0576
 7747SOL     OW30753   4.730   0.794   1.985 -0.3492  0.1525 -0.1565
 7747SOL    HW230754   4.730   0.841   2.068 -1.0410  2.1622 -1.2253
 7747SOL    HW330755   4.640   0.764   1.974 -0.1539 -0.5160  0.0130
 7747SOL    MW430756   4.718   0.796   1.995 -0.0434 -0.1745 -0.1557
 7748SOL     OW30757   0.760   6.282   0.400  0.2194 -0.0158 -0.2420
 7748SOL    HW230758   0.842   6.330   0.390  0.4478 -0.4069 -0.2533
 7748SOL    HW330759   0.699   6.329   0.343  0.9314 -0.8613 -1.7421
 7748SOL    MW430760   0.763   6.295   0.391 -0.1808  0.0103 -0.2173
 7749SOL     OW30761   2.391   5.803   5.190 -0.3891 -0.0286 -0.3725
 7749SOL    HW230762   2.389   5.708   5.185  0.6006 -0.0257 -1.4532
 7749SOL    HW330763   2.459   5.829   5.127 -0.7484  1.3967 -0.2202
 7749SOL    MW430764   2.400   5.794   5.181  0.7327  0.2106  0.2994
 7750SOL     OW30765   3.972   0.311   1.667  0.0964 -0.6551 -0.6290
 7750SOL    HW230766   3.989   0.357   1.748 -0.7803 -1.4028  0.0015
 7750SOL    HW330767   3.948   0.379   1.605  3.6955  0.3269 -1.2061
 7750SOL    MW430768   3.971   0.326   1.669 -0.2197  0.0928 -0.3272
 7751SOL     OW30769   5.493   3.921   3.474 -0.5071 -0.0202 -0.0312
 7751SOL    HW230770   5.533   3.986   3.417  0.3166 -0.1676  0.3702
 7751SOL    HW330771   5.566   3.885   3.524 -1.0152 -0.9567  0.0492
 7751SOL    MW430772   5.508   3.925   3.473  0.4926  0.6493  0.6178
 7752SOL     OW30773   1.757   4.540   4.858  0.2547 -0.0340  0.1664
 7752SOL    HW230774   1.740   4.633   4.842 -1.0024 -0.7034 -3.4856
 7752SOL    HW330775   1.852   4.532   4.850  0.2865  0.8297 -0.5524
 7752SOL    MW430776   1.768   4.551   4.855 -0.1197 -0.5058 -0.2930
 7753SOL     OW30777   2.513   1.406   2.470 -0.2218  0.3158 -0.3452
 7753SOL    HW230778   2.456   1.389   2.395 -0.6977  0.4613 -0.0197
 7753SOL    HW330779   2.587   1.347   2.457 -0.1830  0.5158 -1.0573
 7753SOL    MW430780   2.515   1.396   2.458 -0.0123 -0.1510 -0.0492
 7754SOL     OW30781   2.328   1.114   4.752 -0.1384  0.6609 -0.4268
 7754SOL    HW230782   2.395   1.061   4.709 -1.8213 -2.1665  0.1767
 7754SOL    HW330783   2.363   1.129   4.840  0.3420  0.4506 -0.5764
 7754SOL    MW430784   2.341   1.109   4.758 -0.3046  0.4058  0.1384
 7755SOL     OW30785   5.349   0.821   5.153 -0.3951 -0.0794 -0.1481
 7755SOL    HW230786   5.302   0.882   5.210  0.5858 -0.4908  1.1581
 7755SOL    HW330787   5.329   0.735   5.190  0.1355 -0.3626 -0.5240
 7755SOL    MW430788   5.340   0.818   5.166  0.2255  0.4693 -0.1671
 7756SOL     OW30789   5.571   5.176   5.671 -0.1444  0.3095  0.5408
 7756SOL    HW230790   5.611   5.263   5.672  0.1600  0.1999 -0.6344
 7756SOL    HW330791   5.639   5.118   5.707  0.8063  0.1357 -1.3855
 7756SOL    MW430792   5.586   5.180   5.676  0.2418  0.2698 -0.2206
 7757SOL     OW30793   2.752   2.235   6.097 -0.3221  0.1638  0.1251
 7757SOL    HW230794   2.837   2.194   6.077 -0.0407 -1.0602  3.2818
 7757SOL    HW330795   2.688   2.166   6.077 -0.6197  0.9661 -1.9138
 7757SOL    MW430796   2.755   2.220   6.091  0.2461 -0.7474 -0.5048
 7758SOL     OW30797   0.479   0.608   4.314 -0.4363 -0.0295 -0.5885
 7758SOL    HW230798   0.431   0.541   4.363 -0.2580  0.7666  0.7289
 7758SOL    HW330799   0.566   0.570   4.300 -0.2448  0.0167  0.4008
 7758SOL    MW430800   0.485   0.594   4.319  0.1979  0.0929 -0.1724
 7759SOL     OW30801   6.164   5.473   4.639  0.0573  0.6110 -0.2943
 7759SOL    HW230802   6.189   5.417   4.713 -1.2176  0.6152  0.1667
 7759SOL    HW330803   6.127   5.551   4.680 -0.0308  0.9178 -0.9454
 7759SOL    MW430804   6.162   5.476   4.654 -0.4169  0.6552 -0.4161
 7760SOL     OW30805   3.752   2.547   1.358  0.0343  0.3517  0.4049
 7760SOL    HW230806   3.842   2.552   1.326  0.2861  0.3723  1.0971
 7760SOL    HW330807   3.760   2.503   1.443 -0.3908  1.9943  1.3270
 7760SOL    MW430808   3.765   2.542   1.365  0.0720 -0.2810  0.0319
 7761SOL     OW30809   0.633   4.882   5.609  0.6345 -0.3880 -0.0054
 7761SOL    HW230810   0.588   4.849   5.687  0.3723  1.5057  0.6970
 7761SOL    HW330811   0.718   4.911   5.642  0.2582  1.0755 -0.2425
 7761SOL    MW430812   0.638   4.881   5.624 -0.6474 -0.5784  0.0768
 7762SOL     OW30813   5.836   2.704   5.614  0.1547 -0.3651 -0.2101
 7762SOL    HW230814   5.882   2.664   5.687 -0.8592 -1.9411 -0.3807
 7762SOL    HW330815   5.743   2.685   5.630 -0.7496  3.8884  0.8604
 7762SOL    MW430816   5.830   2.696   5.625 -0.0488  0.0635 -0.4940
 7763SOL     OW30817   2.932   5.576   1.247 -0.6452 -0.1139  0.1709
 7763SOL    HW230818   2.959   5.617   1.329  0.7260 -3.2164  1.4684
 7763SOL    HW330819   3.015   5.555   1.203 -1.2786 -0.7780 -0.7459
 7763SOL    MW430820   2.947   5.579   1.252 -0.5063  0.2086  0.3674
 7764SOL     OW30821   4.352   0.488   0.330 -0.1752  0.2136 -0.0218
 7764SOL    HW230822   4.352   0.426   0.404 -1.0635  0.7215  0.4222
 7764SOL    HW330823   4.427   0.545   0.347  0.3182 -0.3866 -0.1384
 7764SOL    MW430824   4.362   0.487   0.342 -0.9708 -0.8263 -0.1711
 7765SOL     OW30825   0.882   1.239   4.061 -0.4812 -0.3769  0.2026
 7765SOL    HW230826   0.913   1.152   4.035  1.5994 -0.2198  1.9047
 7765SOL    HW330827   0.929   1.300   4.004 -0.6756 -0.2881  0.1351
 7765SOL    MW430828   0.892   1.235   4.050  0.5613  0.6191 -0.1077
 7766SOL     OW30829   1.100   3.670   0.702  0.2209 -0.7920 -0.5931
 7766SOL    HW230830   1.152   3.591   0.686 -0.8671 -1.6298 -0.1261
 7766SOL    HW330831   1.080   3.704   0.615  0.8356 -0.9377 -0.7943
 7766SOL    MW430832   1.104   3.664   0.688 -0.0505  0.1396  0.9077
 7767SOL     OW30833   3.232   1.145   1.247 -0.6013 -0.6677 -0.1934
 7767SOL    HW230834   3.276   1.063   1.223  1.0126 -0.0029  0.3733
 7767SOL    HW330835   3.274   1.211   1.192 -1.2116 -0.0792  0.0466
 7767SOL    MW430836   3.244   1.143   1.237 -0.2589  0.5872  0.2840
 7768SOL     OW30837   3.117   0.762   0.743  0.0740 -0.0623 -0.2410
 7768SOL    HW230838   3.093   0.785   0.653  0.4686 -1.8595 -0.8584
 7768SOL    HW330839   3.179   0.690   0.733  0.6473  0.1437  1.4754
 7768SOL    MW430840   3.122   0.755   0.729  0.6939 -0.4813 -0.1768
 7769SOL     OW30841   1.795   0.418   4.289  0.1130  0.1243 -0.1792
 7769SOL    HW230842   1.818   0.326   4.304  0.5603  0.1579 -0.6629
 7769SOL    HW330843   1.811   0.460   4.374  0.8907 -0.0493 -0.2294
 7769SOL    MW430844   1.800   0.411   4.302 -0.2167  0.0890  0.5474
 7770SOL     OW30845   2.474   4.917   2.956  0.7612  0.4498 -0.0800
 7770SOL    HW230846   2.535   4.987   2.932  1.9533 -1.3546 -2.7151
 7770SOL    HW330847   2.423   4.901   2.876 -0.7378 -0.5006  1.0119
 7770SOL    MW430848   2.475   4.924   2.942  0.0189 -0.3804  0.6252
 7771SOL     OW30849   2.825   1.884   2.777  0.0875  0.3674 -0.2401
 7771SOL    HW230850   2.854   1.903   2.866 -0.2929 -0.6917  0.1252
 7771SOL    HW330851   2.745   1.833   2.789  0.8799 -1.1362 -1.1718
 7771SOL    MW430852   2.818   1.880   2.790  0.4759 -0.2065  0.0269
 7772SOL     OW30853   3.573   2.136   4.537 -0.2814 -0.0559  0.2378
 7772SOL    HW230854   3.632   2.210   4.549 -1.4225  0.8691  0.3515
 7772SOL    HW330855   3.622   2.061   4.569  0.2022  0.9360  1.9437
 7772SOL    MW430856   3.587   2.136   4.543 -0.0259  0.4185 -0.1150
 7773SOL     OW30857   0.018   5.410   3.916  0.0459  0.6412  0.2286
 7773SOL    HW230858   0.051   5.321   3.919 -0.8760  0.2944  0.3272
 7773SOL    HW330859   0.094   5.465   3.937  0.2616 -0.1894  1.6747
 7773SOL    MW430860   0.033   5.406   3.919  0.3320  0.1523 -0.8632
 7774SOL     OW30861   5.235   4.858   0.929 -0.5673  0.4842 -0.0112
 7774SOL    HW230862   5.269   4.781   0.975  1.7779  0.1901 -2.0112
 7774SOL    HW330863   5.286   4.931   0.964  0.7160  0.3589 -1.5341
 7774SOL    MW430864   5.246   4.857   0.940  0.5742 -0.2884  0.3011
 7775SOL     OW30865   4.802   4.881   4.499  0.5098  0.3413  0.7685
 7775SOL    HW230866   4.859   4.871   4.422  0.2061 -0.7692  0.6614
 7775SOL    HW330867   4.805   4.974   4.519  1.2387  0.5264 -0.0997
 7775SOL    MW430868   4.810   4.892   4.491 -0.1893 -0.1820 -0.5425
 7776SOL     OW30869   2.107   5.478   0.295 -0.0531 -0.5740  0.6037
 7776SOL    HW230870   2.079   5.388   0.313  3.6984 -1.9667  0.2713
 7776SOL    HW330871   2.120   5.481   0.200  2.0783 -0.5048  0.8456
 7776SOL    MW430872   2.105   5.467   0.285 -0.0417 -0.1867 -0.1829
 7777SOL     OW30873   5.040   2.997   4.054  0.4666 -0.5046 -0.2260
 7777SOL    HW230874   5.133   2.978   4.040  0.0304 -1.7844 -1.6656
 7777SOL    HW330875   4.998   2.911   4.059 -0.6312  0.0494  0.6043
 7777SOL    MW430876   5.047   2.983   4.052  0.5474  0.1672  0.3407
 7778SOL     OW30877   3.768   1.196   3.104  0.7516  0.3059 -0.6162
 7778SOL    HW230878   3.738   1.240   3.184  0.3214  0.4095 -0.8320
 7778SOL    HW330879   3.859   1.224   3.094  0.1733  2.0401 -1.3480
 7778SOL    MW430880   3.776   1.206   3.114  0.0373 -0.2634  0.0382
 7779SOL     OW30881   5.811   2.432   3.315  0.1006 -0.4757 -0.2878
 7779SOL    HW230882   5.718   2.410   3.314  0.1529 -0.7138  0.0177
 7779SOL    HW330883   5.815   2.521   3.280 -0.2708 -0.3636 -0.0512
 7779SOL    MW430884   5.799   2.441   3.310  0.3763  0.3575 -0.2264
 7780SOL     OW30885   0.515   3.684   1.341 -0.0972 -0.1980  0.4957
 7780SOL    HW230886   0.583   3.723   1.395 -0.3310  1.2490 -0.2026
 7780SOL    HW330887   0.505   3.744   1.267 -1.5979 -0.7720  0.1792
 7780SOL    MW430888   0.523   3.697   1.338 -0.6336 -0.2532  0.5929
 7781SOL     OW30889   5.340   0.312   0.972  0.1326 -0.4216 -0.2279
 7781SOL    HW230890   5.298   0.274   1.049  2.6284 -0.2593  1.3588
 7781SOL    HW330891   5.411   0.365   1.009  0.4004  0.9985 -2.6154
 7781SOL    MW430892   5.344   0.314   0.987  0.3610 -0.0435 -0.4008
 7782SOL     OW30893   4.325   5.981   2.927  0.2962  0.3409  0.6336
 7782SOL    HW230894   4.313   5.916   2.995 -0.6407 -1.1944 -0.9158
 7782SOL    HW330895   4.377   5.937   2.860  0.3275  1.4625 -0.1156
 7782SOL    MW430896   4.330   5.967   2.927  0.1107 -0.4131 -0.1619
 7783SOL     OW30897   4.097   4.816   1.521 -0.2501 -0.3414 -0.1163
 7783SOL    HW230898   4.036   4.805   1.593 -3.7461  1.0514 -2.5768
 7783SOL    HW330899   4.061   4.762   1.451  0.4828  1.6475 -2.1535
 7783SOL    MW430900   4.084   4.807   1.521 -0.1478  0.0304 -0.2596
 7784SOL     OW30901   5.671   0.914   2.221  0.3530 -0.8468 -0.1525
 7784SOL    HW230902   5.622   0.832   2.232  1.5061 -1.5768 -0.3092
 7784SOL    HW330903   5.672   0.928   2.127 -0.7529 -0.0575 -0.0702
 7784SOL    MW430904   5.665   0.905   2.210 -0.2920  0.2729 -0.0412
 7785SOL     OW30905   1.762   1.472   1.206  0.0336  0.3875  0.2657
 7785SOL    HW230906   1.843   1.424   1.221  2.2813  3.6869 -0.2371
 7785SOL    HW330907   1.729   1.439   1.123  0.4671 -1.4553  0.7911
 7785SOL    MW430908   1.768   1.461   1.197 -0.1274 -0.0135 -0.2935
 7786SOL     OW30909   0.979   1.632   5.800 -0.1787 -0.1920 -0.1199
 7786SOL    HW230910   1.042   1.663   5.735  0.9949 -0.0990  1.0265
 7786SOL    HW330911   0.973   1.537   5.785 -0.5770 -0.0525 -0.9024
 7786SOL    MW430912   0.986   1.623   5.790 -0.4866 -0.1690 -0.0423
 7787SOL     OW30913   3.481   2.083   1.619  0.0034 -0.3903 -0.2360
 7787SOL    HW230914   3.535   2.133   1.558 -1.8202 -0.9898 -2.4649
 7787SOL    HW330915   3.506   1.992   1.605  0.7259 -0.4362  1.1664
 7787SOL    MW430916   3.491   2.078   1.609  0.4644 -0.8175  0.1055
 7788SOL     OW30917   5.147   1.306   3.839 -1.0523 -0.0917  0.6623
 7788SOL    HW230918   5.123   1.280   3.750 -0.1744 -1.3419  0.7530
 7788SOL    HW330919   5.210   1.377   3.826 -1.0054 -0.1965  0.2864
 7788SOL    MW430920   5.152   1.311   3.825  0.0958 -0.3442 -0.7270
 7789SOL     OW30921   6.402   2.835   6.409 -0.1959  0.2028 -0.2336
 7789SOL    HW230922   6.348   2.905   6.372 -0.6540 -0.3825 -0.6938
 7789SOL    HW330923   6.473   2.823   6.346 -1.0185 -0.8463 -0.9879
 7789SOL    MW430924   6.404   2.843   6.396  0.3101  1.0399  0.0583
 7790SOL     OW30925   0.408   1.861   4.850  0.2857  0.2738  0.4913
 7790SOL    HW230926   0.362   1.900   4.776 -0.2696  0.4878  0.9472
 7790SOL    HW330927   0.339   1.836   4.912  0.4385 -2.8653 -0.4213
 7790SOL    MW430928   0.393   1.862   4.849 -0.0726 -0.3292 -0.2792
 7791SOL     OW30929   0.577   2.286   2.151  0.1294 -0.3949 -0.2821
 7791SOL    HW230930   0.515   2.358   2.150 -0.7303 -1.1162 -0.1106
 7791SOL    HW330931   0.566   2.244   2.236  1.7034  0.1642  0.2407
 7791SOL    MW430932   0.568   2.290   2.162 -0.5122  0.3766  0.1643
 7792SOL     OW30933   1.706   5.383   0.315  0.5432  0.5257  0.5864
 7792SOL    HW230934   1.772   5.414   0.376  0.9344 -1.4895  1.2579
 7792SOL    HW330935   1.703   5.288   0.328  0.0298  0.1124 -1.9153
 7792SOL    MW430936   1.714   5.374   0.324 -0.5733  0.5531 -0.2072
 7793SOL     OW30937   0.200   1.080   5.396  0.5886 -0.1818 -0.1414
 7793SOL    HW230938   0.117   1.047   5.363  0.0315  0.0542  0.9517
 7793SOL    HW330939   0.200   1.173   5.372  0.2628 -0.0495  0.3508
 7793SOL    MW430940   0.189   1.088   5.389 -0.2880  0.5678  0.0946
 7794SOL     OW30941   5.378   3.817   5.213 -0.3039 -0.4375 -0.2172
 7794SOL    HW230942   5.433   3.807   5.290 -0.7519 -2.2552 -0.0779
 7794SOL    HW330943   5.290   3.795   5.243 -0.4678 -1.2990 -1.2493
 7794SOL    MW430944   5.374   3.813   5.227  0.0397 -0.1861 -0.2027
 7795SOL     OW30945   5.451   4.534   4.166 -0.4207 -0.8575  0.6318
 7795SOL    HW230946   5.382   4.598   4.149  1.8832  1.2002 -1.8931
 7795SOL    HW330947   5.443   4.471   4.094 -0.1419 -1.0586  0.7754
 7795SOL    MW430948   5.441   4.534   4.154  0.3698 -0.7055 -0.0058
 7796SOL     OW30949   2.237   5.848   2.082  0.2590 -0.2736  0.6633
 7796SOL    HW230950   2.294   5.831   2.008  1.1113 -0.1331  1.2683
 7796SOL    HW330951   2.271   5.929   2.121  0.3269 -0.7614  1.6616
 7796SOL    MW430952   2.249   5.857   2.078  0.4782 -0.0182  0.2262
 7797SOL     OW30953   0.186   5.544   0.526 -0.2877  0.1143 -0.4526
 7797SOL    HW230954   0.137   5.521   0.604 -0.3846  0.4114 -0.4231
 7797SOL    HW330955   0.238   5.467   0.506  3.1838  1.4145  2.4656
 7797SOL    MW430956   0.186   5.531   0.533 -0.4269  0.6226  0.1247
 7798SOL     OW30957   5.232   0.184   1.183 -0.3175 -0.3726 -0.2398
 7798SOL    HW230958   5.140   0.201   1.160 -0.2949 -0.6451 -0.5322
 7798SOL    HW330959   5.253   0.251   1.249 -0.5117  0.1407 -0.6975
 7798SOL    MW430960   5.222   0.195   1.189 -0.1783  0.1765 -0.6938
 7799SOL     OW30961   2.561   3.022   1.836  0.4775 -0.0165 -0.1828
 7799SOL    HW230962   2.639   2.995   1.790  0.5642 -0.4901  0.2352
 7799SOL    HW330963   2.575   3.115   1.854  0.6672  0.0475 -0.6441
 7799SOL    MW430964   2.573   3.031   1.832 -0.2859 -0.0877 -0.1495
 7800SOL     OW30965   3.832   5.131   3.798 -0.2202  0.2107  0.0769
 7800SOL    HW230966   3.806   5.118   3.890  2.4475  0.1248  0.8873
 7800SOL    HW330967   3.817   5.046   3.757  0.6394 -0.4112  1.0090
 7800SOL    MW430968   3.826   5.118   3.805 -0.1257  0.0683 -0.1678
 7801SOL     OW30969   1.041   3.859   4.454  0.7439  0.2518  0.4446
 7801SOL    HW230970   1.071   3.945   4.483  0.8120  0.7163 -0.8916
 7801SOL    HW330971   0.956   3.847   4.495  0.3109  1.3841 -0.0753
 7801SOL    MW430972   1.034   3.869   4.463  0.0090  0.5325  0.2544
 7802SOL     OW30973   2.801   5.129   1.324  0.1652 -0.1769 -0.7144
 7802SOL    HW230974   2.849   5.185   1.385  0.4974 -2.6713  1.4786
 7802SOL    HW330975   2.869   5.080   1.278 -0.1591 -1.2182 -0.1145
 7802SOL    MW430976   2.816   5.130   1.326  0.2386 -0.4857  0.0802
 7803SOL     OW30977   5.991   0.325   0.742  0.1172 -0.0008  0.0692
 7803SOL    HW230978   5.958   0.327   0.652 -1.7497 -1.5811  0.6352
 7803SOL    HW330979   6.016   0.415   0.761  1.8027  0.1516 -2.4235
 7803SOL    MW430980   5.990   0.337   0.733 -0.5820  0.4950  0.4682
 7804SOL     OW30981   2.182   4.503   2.427  0.4749  0.2761  0.1409
 7804SOL    HW230982   2.136   4.537   2.350 -0.3592  0.1658  0.5856
 7804SOL    HW330983   2.188   4.578   2.486  1.2625  0.4044 -0.0878
 7804SOL    MW430984   2.177   4.517   2.425 -0.1693 -0.4463  1.1237
 7805SOL     OW30985   4.220   1.258   1.113  0.4113 -0.4163  0.0140
 7805SOL    HW230986   4.241   1.349   1.092 -3.6089  0.0170 -3.3136
 7805SOL    HW330987   4.258   1.207   1.041  1.2877 -1.2683  1.0339
 7805SOL    MW430988   4.228   1.263   1.101 -0.5234 -0.0200  0.0027
 7806SOL     OW30989   1.238   0.922   4.476  0.0001  0.0169 -0.2666
 7806SOL    HW230990   1.314   0.978   4.490  1.1040 -1.5181  0.1621
 7806SOL    HW330991   1.165   0.983   4.469  1.0482  1.4736  0.7302
 7806SOL    MW430992   1.239   0.937   4.477 -0.3688 -0.2539 -0.4425
 7807SOL     OW30993   4.462   6.089   4.263  0.6123 -0.3628 -0.3442
 7807SOL    HW230994   4.389   6.086   4.202  0.3970 -1.0686 -0.0518
 7807SOL    HW330995   4.540   6.078   4.208  0.8945  3.9714 -1.2358
 7807SOL    MW430996   4.463   6.087   4.247 -0.3020  0.4928  0.3897
 7808SOL     OW30997   6.365   2.176   5.515 -0.1400  0.8891  0.1618
 7808SOL    HW230998   6.440   2.189   5.573 -0.4130  2.1497  0.2587
 7808SOL    HW330999   6.376   2.242   5.446 -0.8739  0.7199 -0.1301
 7808SOL    MW431000   6.377   2.186   5.513  0.1117  0.3955  0.0891
 7809SOL     OW31001   5.741   5.250   4.119 -0.1633 -0.1657  0.0355
 7809SOL    HW231002   5.744   5.336   4.077 -1.2270  0.3018  0.8557
 7809SOL    HW331003   5.738   5.269   4.212 -3.0645 -0.9274  0.2050
 7809SOL    MW431004   5.741   5.263   4.125 -0.4532  0.2990  0.0231
 7810SOL     OW31005   0.898   0.963   3.981  0.2302 -0.2779 -0.2287
 7810SOL    HW231006   0.919   0.879   4.021 -1.9739 -2.5578 -3.4162
 7810SOL    HW331007   0.959   0.970   3.907  0.2334  0.8394 -0.1346
 7810SOL    MW431008   0.909   0.953   3.977 -0.1012 -0.2590 -0.4802
 7811SOL     OW31009   5.250   5.863   2.724 -1.3949 -0.0271  0.1546
 7811SOL    HW231010   5.178   5.800   2.727 -1.9947  0.6099 -0.2729
 7811SOL    HW331011   5.303   5.835   2.650 -1.0992 -0.6045  0.5796
 7811SOL    MW431012   5.247   5.851   2.714  0.1673  0.1707 -0.2470
 7812SOL     OW31013   4.979   4.727   1.834  0.2462 -0.7810 -0.1896
 7812SOL    HW231014   5.004   4.775   1.913  1.2174  1.0641 -1.5440
 7812SOL    HW331015   4.883   4.733   1.831  0.2804  0.1118  0.2588
 7812SOL    MW431016   4.969   4.734   1.844  0.1970 -0.3469  0.2167
 7813SOL     OW31017   5.715   3.324   3.413  0.5931 -0.1222  0.3690
 7813SOL    HW231018   5.666   3.255   3.368  2.0199 -1.6821  1.0889
 7813SOL    HW331019   5.657   3.400   3.410 -1.8570 -1.8086  1.1320
 7813SOL    MW431020   5.701   3.325   3.406 -0.1465  0.3567 -0.3663
 7814SOL     OW31021   4.586   5.917   3.512  0.3435 -0.6185 -0.1401
 7814SOL    HW231022   4.565   6.006   3.484  0.0998 -0.7429 -0.3598
 7814SOL    HW331023   4.581   5.921   3.608  2.8727  0.2156  0.0123
 7814SOL    MW431024   4.582   5.929   3.521 -0.0121  0.2458  0.0960
 7815SOL     OW31025   2.353   0.563   6.349 -0.1254  0.1769  0.2651
 7815SOL    HW231026   2.280   0.625   6.353 -0.1407  0.2800 -1.2458
 7815SOL    HW331027   2.415   0.603   6.288  1.0220 -0.1197  1.1959
 7815SOL    MW431028   2.352   0.577   6.342 -0.1225 -0.5234  0.2062
 7816SOL     OW31029   4.945   6.109   2.710 -0.0955  0.0728 -0.5049
 7816SOL    HW231030   5.037   6.101   2.687 -0.0879 -2.5559  0.1922
 7816SOL    HW331031   4.921   6.024   2.746 -1.7800  1.8566  3.1111
 7816SOL    MW431032   4.954   6.097   2.711  0.1801 -0.0955 -0.0733
 7817SOL     OW31033   3.164   1.537   1.256  0.4970  0.2074  0.3438
 7817SOL    HW231034   3.142   1.628   1.237  0.8028  0.5719  1.6389
 7817SOL    HW331035   3.082   1.496   1.281  0.0185 -0.3729 -1.9396
 7817SOL    MW431036   3.151   1.543   1.257 -0.0180 -0.1764  0.0579
 7818SOL     OW31037   2.566   2.897   1.366  0.0752  0.1339 -0.2644
 7818SOL    HW231038   2.479   2.865   1.341  0.5279 -3.2591  1.8968
 7818SOL    HW331039   2.615   2.899   1.284 -0.9144 -1.9827 -0.9863
 7818SOL    MW431040   2.561   2.893   1.351 -0.3806  0.8852 -0.0494
 7819SOL     OW31041   4.326   5.806   1.298  0.3003 -0.6587  0.2145
 7819SOL    HW231042   4.270   5.736   1.330  1.1598 -1.5571 -0.1760
 7819SOL    HW331043   4.268   5.863   1.247 -0.3065 -1.4053  0.0608
 7819SOL    MW431044   4.311   5.805   1.296  0.0571  0.7267 -0.2768
 7820SOL     OW31045   2.395   4.899   5.910 -0.4840 -0.2212  0.0429
 7820SOL    HW231046   2.421   4.810   5.935 -3.3695 -1.2328 -0.2418
 7820SOL    HW331047   2.416   4.952   5.986 -0.0801 -1.4176  0.7978
 7820SOL    MW431048   2.401   4.894   5.923  0.2022  0.0150 -0.2231
 7821SOL     OW31049   1.202   5.367   0.649 -0.1423 -0.1699  0.2153
 7821SOL    HW231050   1.280   5.378   0.594 -2.2286  2.0477 -2.5841
 7821SOL    HW331051   1.137   5.327   0.591 -1.6552 -0.3426  1.9292
 7821SOL    MW431052   1.204   5.363   0.634  0.3417 -0.3251 -0.6197
 7822SOL     OW31053   0.580   5.196   3.636 -0.3562  0.7942 -0.2040
 7822SOL    HW231054   0.671   5.166   3.643  0.3033  2.6302 -0.3289
 7822SOL    HW331055   0.545   5.185   3.724  0.4762  1.4611  0.2328
 7822SOL    MW431056   0.587   5.190   3.649  0.5155 -0.5788  0.8509
 7823SOL     OW31057   2.165   4.128   1.282  0.1855 -0.2244 -0.1774
 7823SOL    HW231058   2.258   4.120   1.299  0.2032  1.3909  0.7324
 7823SOL    HW331059   2.145   4.057   1.221  1.5284 -2.0561  1.3990
 7823SOL    MW431060   2.174   4.117   1.276 -0.1447 -0.5840  0.4399
 7824SOL     OW31061   1.862   0.421   5.025 -0.4321 -0.4619 -0.3389
 7824SOL    HW231062   1.918   0.499   5.022 -1.0190 -0.0676 -1.7429
 7824SOL    HW331063   1.778   0.453   5.060 -0.3397 -0.7064  0.1232
 7824SOL    MW431064   1.858   0.435   5.030 -0.0113 -0.0710  0.1317
 7825SOL     OW31065   2.963   3.055   5.235 -0.6646  0.0464 -0.4202
 7825SOL    HW231066   2.939   2.964   5.252  0.0994  0.0981  1.0005
 7825SOL    HW331067   3.058   3.056   5.235 -0.6531  1.0701  0.8928
 7825SOL    MW431068   2.972   3.044   5.237  0.1030  0.2458  0.0553
 7826SOL     OW31069   2.101   3.567   2.902  0.0588  0.0558  0.1941
 7826SOL    HW231070   2.074   3.551   2.993  3.8101 -4.0520  0.9537
 7826SOL    HW331071   2.196   3.580   2.907  0.1285  1.7203 -3.0419
 7826SOL    MW431072   2.110   3.567   2.915  0.1860  0.3623 -0.3539
 7827SOL     OW31073   2.712   3.109   4.495 -0.2108  0.0472 -0.3216
 7827SOL    HW231074   2.739   3.060   4.417 -0.8897 -0.1290 -0.4507
 7827SOL    HW331075   2.767   3.074   4.565 -0.7229 -0.9520 -0.3942
 7827SOL    MW431076   2.723   3.098   4.494 -0.6425 -0.2833  0.0301
 7828SOL     OW31077   0.976   6.221   0.072 -0.8202 -0.3807 -0.5303
 7828SOL    HW231078   0.996   6.259  -0.013 -0.4279  2.8626  0.8722
 7828SOL    HW331079   1.053   6.239   0.126 -0.8260 -2.8237  0.4474
 7828SOL    MW431080   0.989   6.228   0.068  0.1941  0.1206 -0.3516
 7829SOL     OW31081   3.753   0.913   3.224  0.1292 -0.3037  0.3345
 7829SOL    HW231082   3.742   0.914   3.319 -0.0481 -1.2702  0.3411
 7829SOL    HW331083   3.732   1.001   3.195  0.8203  0.1802  1.2635
 7829SOL    MW431084   3.749   0.925   3.232  0.2279 -0.0002 -0.4393
 7830SOL     OW31085   1.963   3.834   1.819 -0.0087  0.1893  0.2744
 7830SOL    HW231086   1.979   3.928   1.825  0.4749  0.0899  0.6489
 7830SOL    HW331087   1.892   3.817   1.880 -1.0652  0.5183 -0.8262
 7830SOL    MW431088   1.956   3.844   1.828  0.0413  0.3660 -0.5089
 7831SOL     OW31089   5.071   3.054   6.159 -0.7985  0.3346 -0.0141
 7831SOL    HW231090   5.043   3.098   6.079 -1.4784  0.4308  0.2657
 7831SOL    HW331091   5.160   3.084   6.173 -1.2030  1.5471  0.0954
 7831SOL    MW431092   5.079   3.064   6.151 -0.4620  0.2860 -0.0281
 7832SOL     OW31093   0.026   1.777   6.187 -0.1360  0.0188 -0.3995
 7832SOL    HW231094  -0.016   1.851   6.142 -0.8492 -0.0357  0.1526
 7832SOL    HW331095   0.021   1.705   6.124  1.7734  0.7509 -1.4769
 7832SOL    MW431096   0.020   1.778   6.173  0.2307  0.4384  0.9847
 7833SOL     OW31097   3.655   3.909   5.850 -0.6176  0.1063  0.2527
 7833SOL    HW231098   3.680   4.001   5.865 -1.5483  0.3363  0.4520
 7833SOL    HW331099   3.581   3.914   5.790 -1.7188 -0.4142  1.5130
 7833SOL    MW431100   3.649   3.922   5.844  0.4575 -0.5132 -0.6082
 7834SOL     OW31101   2.674   5.406   0.306 -0.0836  0.2469  0.6112
 7834SOL    HW231102   2.724   5.407   0.224 -0.4099  0.6465  0.4115
 7834SOL    HW331103   2.723   5.465   0.364  0.4999 -0.5381  0.9218
 7834SOL    MW431104   2.687   5.414   0.303  0.5389 -0.0780  0.1736
 7835SOL     OW31105   5.775   4.390   0.765 -0.4019  0.3776  0.2380
 7835SOL    HW231106   5.714   4.430   0.827 -2.0166 -0.3452 -0.8019
 7835SOL    HW331107   5.728   4.314   0.731  0.4608  0.6725 -1.7669
 7835SOL    MW431108   5.761   4.385   0.769  0.1543 -0.7736  0.6517
 7836SOL     OW31109   2.162   2.310   2.850  0.2516  0.2630 -0.1104
 7836SOL    HW231110   2.099   2.379   2.869  0.2382 -0.1900  1.6104
 7836SOL    HW331111   2.145   2.242   2.915  2.1003 -0.1495  0.0059
 7836SOL    MW431112   2.152   2.310   2.861  0.8594 -0.4333  0.0020
 7837SOL     OW31113   1.513   1.842   5.547 -0.5007  0.4917  0.2228
 7837SOL    HW231114   1.479   1.927   5.573 -0.1699  0.2097  1.6692
 7837SOL    HW331115   1.501   1.787   5.625 -1.7268 -1.0923 -1.0146
 7837SOL    MW431116   1.507   1.846   5.561  0.2205  0.2391  0.1319
 7838SOL     OW31117   6.071   2.940   3.165  0.0883  0.0531  0.0598
 7838SOL    HW231118   6.115   2.909   3.086 -1.3980 -1.7691 -0.1369
 7838SOL    HW331119   6.137   2.992   3.211  1.8624 -1.1157 -1.0404
 7838SOL    MW431120   6.086   2.943   3.161 -0.2509 -0.3600 -0.0658
 7839SOL     OW31121   1.285   0.500   1.991  0.0747 -0.4526  0.1867
 7839SOL    HW231122   1.275   0.492   2.086  0.0895  0.7274  0.3082
 7839SOL    HW331123   1.309   0.412   1.962  0.9951 -0.6393  1.3965
 7839SOL    MW431124   1.287   0.487   2.000 -0.8289 -0.4108  0.1133
 7840SOL     OW31125   4.967   0.333   5.260 -0.0070  0.2918 -0.3028
 7840SOL    HW231126   4.945   0.247   5.223 -0.8231 -0.2262  1.2745
 7840SOL    HW331127   5.031   0.313   5.329  0.0407  0.9953 -0.1398
 7840SOL    MW431128   4.972   0.319   5.264  0.2544  0.1468  0.2474
 7841SOL     OW31129   4.339   0.662   3.722  0.1637 -0.4401 -0.2578
 7841SOL    HW231130   4.332   0.716   3.643  3.5819  1.0028  0.2805
 7841SOL    HW331131   4.269   0.695   3.779 -0.2781  0.7378 -1.4192
 7841SOL    MW431132   4.329   0.674   3.719 -0.3320  0.7286  0.1227
 7842SOL     OW31133   2.583   4.032   1.881  0.7238 -1.0862  0.3838
 7842SOL    HW231134   2.601   4.029   1.975 -0.5807  0.8477  0.7494
 7842SOL    HW331135   2.489   4.015   1.874  0.9740 -2.1973 -0.6932
 7842SOL    MW431136   2.573   4.029   1.892  0.7379 -0.2200  0.0630
 7843SOL     OW31137   0.744   2.447   0.615 -0.2632 -0.1539 -0.5174
 7843SOL    HW231138   0.835   2.447   0.585 -0.5709 -1.1272 -1.5227
 7843SOL    HW331139   0.743   2.505   0.691  0.6088  2.2748 -2.2412
 7843SOL    MW431140   0.756   2.454   0.621 -0.1792  0.4597 -0.2076
 7844SOL     OW31141   5.903   2.514   0.744 -0.3195  0.1046 -0.1597
 7844SOL    HW231142   5.909   2.432   0.792  1.5546  1.3869  2.0379
 7844SOL    HW331143   5.837   2.565   0.791  2.5890  1.9525  2.2882
 7844SOL    MW431144   5.895   2.510   0.757 -0.0059 -0.0725 -0.4901
 7845SOL     OW31145   5.242   4.914   4.866 -0.6723 -0.4561  0.1933
 7845SOL    HW231146   5.176   4.983   4.869  0.1069  0.3099  0.0551
 7845SOL    HW331147   5.254   4.896   4.773  1.5457  1.6406 -0.0212
 7845SOL    MW431148   5.235   4.920   4.854  0.1371  0.1841 -0.2058
 7846SOL     OW31149   3.403   2.370   4.896  0.3945 -0.2033  0.3865
 7846SOL    HW231150   3.495   2.365   4.871  0.6240 -1.3858  1.3819
 7846SOL    HW331151   3.357   2.320   4.829  0.4000  0.7465 -0.3519
 7846SOL    MW431152   3.409   2.363   4.884 -0.3580 -0.1245  0.7675
 7847SOL     OW31153   1.009   2.107   6.396  0.5798  0.3204 -0.3283
 7847SOL    HW231154   0.921   2.115   6.431  0.9054 -0.4304  0.7118
 7847SOL    HW331155   1.018   2.015   6.373  1.1316  0.3762 -0.3514
 7847SOL    MW431156   0.999   2.096   6.397  0.1767  0.2870  0.3699
 7848SOL     OW31157   6.073   0.067   1.677 -0.2433 -0.0174  0.1549
 7848SOL    HW231158   6.044  -0.021   1.702 -1.0662  0.2029  0.0331
 7848SOL    HW331159   5.999   0.102   1.628  0.4190  0.4281 -0.5391
 7848SOL    MW431160   6.059   0.060   1.674 -0.0590 -0.3131 -0.1140
 7849SOL     OW31161   4.354   1.485   5.329  0.3869  0.1298  0.4478
 7849SOL    HW231162   4.435   1.479   5.379 -0.7710  1.0660  2.6077
 7849SOL    HW331163   4.381   1.510   5.241  2.4567 -0.1907  0.9354
 7849SOL    MW431164   4.368   1.487   5.324 -0.2646 -0.1503 -0.7026
 7850SOL     OW31165   3.822   1.955   5.225 -0.2498 -0.0782  0.1807
 7850SOL    HW231166   3.871   1.875   5.243 -2.4930 -1.4526  0.5110
 7850SOL    HW331167   3.737   1.925   5.193 -0.9487  2.1933 -0.2902
 7850SOL    MW431168   3.817   1.941   5.223 -0.2887 -0.3903  0.6823
 7851SOL     OW31169   0.288   2.205   2.560  0.0180  0.4068 -0.1141
 7851SOL    HW231170   0.350   2.191   2.489  1.0916  0.5652  0.7575
 7851SOL    HW331171   0.218   2.257   2.522  0.3092  0.0395 -1.1756
 7851SOL    MW431172   0.287   2.210   2.546 -0.6393 -0.0266  0.1028
 7852SOL     OW31173   5.904   2.154   1.960  0.1949 -0.0526 -0.5364
 7852SOL    HW231174   5.842   2.224   1.978 -0.9830 -0.8827 -1.2277
 7852SOL    HW331175   5.979   2.197   1.919  1.0362  1.2536  2.1635
 7852SOL    MW431176   5.906   2.169   1.957 -0.1152  0.2406 -0.0722
 7853SOL     OW31177   5.256   0.745   0.773 -0.2623 -0.2733  0.0828
 7853SOL    HW231178   5.212   0.769   0.691  0.4678 -0.1325 -0.2773
 7853SOL    HW331179   5.227   0.655   0.790 -1.0860 -0.0115  0.1292
 7853SOL    MW431180   5.246   0.736   0.764  0.9127  0.2515  0.6764
 7854SOL     OW31181   2.872   5.613   6.291 -0.0158 -0.0320  0.3596
 7854SOL    HW231182   2.832   5.658   6.216 -0.8277 -0.3886  0.5666
 7854SOL    HW331183   2.933   5.677   6.327 -1.4698  1.1129  0.9280
 7854SOL    MW431184   2.874   5.628   6.286 -0.0096  0.0713  0.1601
 7855SOL     OW31185   2.207   0.775   0.442  0.1757 -0.0914 -0.2101
 7855SOL    HW231186   2.129   0.734   0.406  1.8325 -2.1663 -1.6920
 7855SOL    HW331187   2.237   0.715   0.511  1.4631 -0.3026 -0.9280
 7855SOL    MW431188   2.201   0.762   0.447 -0.3533 -0.0821  0.0582
 7856SOL     OW31189   1.549   0.201   0.020 -0.4478 -0.1324 -0.5536
 7856SOL    HW231190   1.554   0.217  -0.075  1.3581 -1.7800 -0.7841
 7856SOL    HW331191   1.640   0.193   0.048 -0.9417  0.5732  1.4019
 7856SOL    MW431192   1.562   0.202   0.011 -0.2296  0.5302  0.1146
 7857SOL     OW31193   6.173   6.113   1.109 -0.4956 -0.8071  0.5587
 7857SOL    HW231194   6.144   6.193   1.066  0.5672 -1.3878 -1.3911
 7857SOL    HW331195   6.266   6.106   1.087 -0.7237 -2.9498  0.0031
 7857SOL    MW431196   6.181   6.122   1.100  0.1677 -0.5310  0.0185
 7858SOL     OW31197   1.637   5.989   2.541  0.1835 -0.3743  0.0172
 7858SOL    HW231198   1.564   6.049   2.554 -0.9442 -1.1888 -2.1883
 7858SOL    HW331199   1.715   6.044   2.553 -0.8012  1.3089 -0.9795
 7858SOL    MW431200   1.638   6.004   2.544 -0.5226  0.1414 -0.3457
 7859SOL     OW31201   0.195   0.155   4.864 -0.1614 -0.3294  0.2930
 7859SOL    HW231202   0.118   0.171   4.918 -0.8971  1.7010 -1.2113
 7859SOL    HW331203   0.190   0.062   4.841 -2.2002 -0.2286  0.2019
 7859SOL    MW431204   0.184   0.145   4.868  0.2199  0.2322  0.5855
 7860SOL     OW31205   5.463   0.117   0.795  0.0756  0.1018  0.2630
 7860SOL    HW231206   5.432   0.189   0.850  0.9290  0.3240  0.4691
 7860SOL    HW331207   5.540   0.082   0.841  1.0467  0.5439 -0.9616
 7860SOL    MW431208   5.469   0.122   0.809 -0.5703 -0.0565  0.5879
 7861SOL     OW31209   1.653   5.533   4.970  0.4114 -0.4345 -0.3216
 7861SOL    HW231210   1.645   5.533   4.875  1.3665 -0.4105 -0.4137
 7861SOL    HW331211   1.658   5.626   4.994  3.1321 -0.4422 -0.5598
 7861SOL    MW431212   1.653   5.546   4.961 -0.0915 -0.1416  0.0831
 7862SOL     OW31213   4.608   1.970   6.140 -0.0747  0.1719 -0.3552
 7862SOL    HW231214   4.514   1.979   6.122 -0.5723 -1.0672  1.3209
 7862SOL    HW331215   4.650   2.027   6.076 -2.0654  2.3310  0.1248
 7862SOL    MW431216   4.601   1.978   6.129  0.2497  0.0123 -0.2133
 7863SOL     OW31217   2.861   1.190   0.158  0.0855  0.4207  0.8062
 7863SOL    HW231218   2.862   1.274   0.113 -1.0728  0.3039  0.5248
 7863SOL    HW331219   2.848   1.211   0.250  0.1996  0.5683  0.7874
 7863SOL    MW431220   2.859   1.204   0.164 -0.4483  0.1226 -0.1999
 7864SOL     OW31221   5.019   4.450   5.643  0.2261  0.4576 -0.4445
 7864SOL    HW231222   4.981   4.492   5.565  0.0751 -0.5817 -0.9474
 7864SOL    HW331223   5.024   4.520   5.707 -3.2180  0.5672 -0.0928
 7864SOL    MW431224   5.014   4.465   5.641  0.4197 -0.1179 -0.3369
 7865SOL     OW31225   6.048   0.068   5.604 -0.6237  0.2538  0.1116
 7865SOL    HW231226   6.095   0.012   5.544  0.8318  1.0609  0.4648
 7865SOL    HW331227   6.008   0.136   5.549 -0.6819  0.0483 -0.0987
 7865SOL    MW431228   6.049   0.070   5.589  0.1627 -0.3212 -0.3527
 7866SOL     OW31229   4.123   1.452   4.343  0.1053 -0.2723 -0.3900
 7866SOL    HW231230   4.045   1.404   4.315 -1.1733  0.1639  2.1538
 7866SOL    HW331231   4.094   1.543   4.350  0.5640 -0.2175  1.3639
 7866SOL    MW431232   4.109   1.458   4.340  0.0137  0.0821  0.6217
 7867SOL     OW31233   3.243   0.378   3.885  0.0874  0.3775 -0.5943
 7867SOL    HW231234   3.248   0.296   3.933 -0.2120  1.2803  1.0534
 7867SOL    HW331235   3.192   0.356   3.806  0.4954 -1.1189 -0.4760
 7867SOL    MW431236   3.237   0.364   3.881  0.2152  0.3873 -0.2451
 7868SOL     OW31237   3.204   3.163   2.514 -0.0893  0.0008 -0.1392
 7868SOL    HW231238   3.223   3.212   2.594 -1.1308  0.0483  0.0968
 7868SOL    HW331239   3.282   3.174   2.459 -0.4044  2.2128 -0.2339
 7868SOL    MW431240   3.217   3.171   2.517  0.3450 -0.1829  0.0685
 7869SOL     OW31241   1.941   4.050   5.114 -0.2010  0.5623  0.3648
 7869SOL    HW231242   1.852   4.045   5.078  0.4751  0.3862 -1.3595
 7869SOL    HW331243   1.962   4.144   5.113 -0.2305  0.5696  0.4224
 7869SOL    MW431244   1.932   4.062   5.109 -0.1491 -0.1490  0.3100
 7870SOL     OW31245   1.549   1.717   2.180  0.4521 -0.6599 -0.7909
 7870SOL    HW231246   1.543   1.659   2.256 -0.7957  1.3115  0.7116
 7870SOL    HW331247   1.458   1.738   2.159  0.8589  0.5886 -1.3853
 7870SOL    MW431248   1.536   1.712   2.187 -0.2078  0.3454  0.1603
 7871SOL     OW31249   6.403   1.711   0.511  0.2362 -0.1063 -0.4376
 7871SOL    HW231250   6.374   1.630   0.554  2.0296 -0.2061  0.6966
 7871SOL    HW331251   6.419   1.771   0.583  2.9787 -0.1435 -0.9193
 7871SOL    MW431252   6.401   1.708   0.526  0.2231  0.2325  0.0045
 7872SOL     OW31253   3.540   2.536   2.518 -0.0146  0.6254  0.0421
 7872SOL    HW231254   3.578   2.451   2.497 -0.6445 -0.0053  1.3098
 7872SOL    HW331255   3.453   2.515   2.553  0.5908  1.5815  2.3320
 7872SOL    MW431256   3.533   2.522   2.520  0.4369  0.7224 -0.1795
 7873SOL     OW31257   0.205   0.998   3.905  0.3664  0.2381  0.6045
 7873SOL    HW231258   0.278   1.052   3.936  0.1099  0.7236  0.3844
 7873SOL    HW331259   0.129   1.029   3.955 -0.0224  0.9299 -0.3806
 7873SOL    MW431260   0.204   1.009   3.916  0.5332  0.3495 -0.2806
 7874SOL     OW31261   0.664   2.628   5.158  0.5945  0.1724  0.4975
 7874SOL    HW231262   0.717   2.645   5.080 -0.8858 -2.8668 -1.3526
 7874SOL    HW331263   0.698   2.545   5.192  2.2308  2.1245  4.1934
 7874SOL    MW431264   0.675   2.620   5.152  0.4893  0.3077 -0.1147
 7875SOL     OW31265   3.808   1.785   0.775  0.0527  0.2350 -0.5991
 7875SOL    HW231266   3.839   1.749   0.858 -0.8057  0.6159 -0.1076
 7875SOL    HW331267   3.782   1.708   0.724 -1.6044  0.1054  0.3802
 7875SOL    MW431268   3.809   1.770   0.779  0.6976 -0.3472 -0.3263
 7876SOL     OW31269   6.223   3.552   2.156 -0.5662 -0.1140 -0.5350
 7876SOL    HW231270   6.276   3.567   2.078  1.3111 -1.1363  0.4582
 7876SOL    HW331271   6.276   3.587   2.228 -2.8290  2.0741  0.2359
 7876SOL    MW431272   6.237   3.559   2.155  0.4276  0.5402 -0.2132
 7877SOL     OW31273   3.504   0.960   5.298 -0.4509 -0.7288 -0.3373
 7877SOL    HW231274   3.542   1.007   5.224 -0.3273 -0.1916  0.0567
 7877SOL    HW331275   3.580   0.938   5.353 -0.7439  1.0766  0.8714
 7877SOL    MW431276   3.519   0.963   5.296 -0.0602 -0.1134 -0.7561
 7878SOL     OW31277   4.483   0.424   5.018  0.2472  0.4132 -0.2348
 7878SOL    HW231278   4.406   0.405   5.071 -0.5280  1.3819 -0.9670
 7878SOL    HW331279   4.453   0.412   4.928  1.0987  0.3185 -0.5148
 7878SOL    MW431280   4.469   0.420   5.013 -0.0499 -0.4090  0.2290
 7879SOL     OW31281   5.759   1.833   2.213 -0.5517  0.1636  0.3417
 7879SOL    HW231282   5.685   1.894   2.214 -1.2121 -0.6402  1.3958
 7879SOL    HW331283   5.755   1.793   2.126 -1.2389  0.2741  0.3169
 7879SOL    MW431284   5.748   1.836   2.201  0.2204  0.1208  0.4554
 7880SOL     OW31285   2.634   1.137   2.109  0.3693 -0.1543  0.2938
 7880SOL    HW231286   2.607   1.093   2.029  0.1056  0.0132  0.2912
 7880SOL    HW331287   2.571   1.108   2.175 -0.8576  1.5079 -0.0677
 7880SOL    MW431288   2.622   1.128   2.107  0.0128  0.0747 -0.3684
 7881SOL     OW31289   4.764   5.863   4.803 -0.9190 -0.4320 -0.4389
 7881SOL    HW231290   4.746   5.799   4.734 -2.5887  0.0981 -0.5378
 7881SOL    HW331291   4.769   5.947   4.757 -2.1130 -0.0659  0.0455
 7881SOL    MW431292   4.762   5.866   4.787 -0.1142 -0.0637  0.3256
 7882SOL     OW31293   4.053   1.966   3.470  0.2279  0.2193 -0.0885
 7882SOL    HW231294   3.977   1.986   3.415  0.1459 -2.1315 -0.9419
 7882SOL    HW331295   4.024   1.894   3.526  1.1638  0.7785  1.1546
 7882SOL    MW431296   4.039   1.959   3.470  0.5206 -0.1093  0.1675
 7883SOL     OW31297   0.766   0.571   4.373  0.2338  0.4953  0.1273
 7883SOL    HW231298   0.810   0.543   4.292 -1.7052 -0.4675 -0.6542
 7883SOL    HW331299   0.836   0.571   4.439  1.1407 -2.7135 -0.6396
 7883SOL    MW431300   0.781   0.567   4.371  0.1139  0.1252  0.0081
 7884SOL     OW31301   4.492   5.403   1.331  0.7787  0.1006  0.2001
 7884SOL    HW231302   4.418   5.386   1.389  0.2425  2.0261  0.1442
 7884SOL    HW331303   4.554   5.453   1.384  0.2108  2.0255 -0.8294
 7884SOL    MW431304   4.491   5.407   1.345 -0.0686  0.6730  0.0187
 7885SOL     OW31305   3.882   3.841   0.868 -0.0701  0.4492  0.1506
 7885SOL    HW231306   3.944   3.804   0.931 -0.2259 -0.3918 -0.1788
 7885SOL    HW331307   3.861   3.769   0.809 -0.6023  0.9905 -0.3428
 7885SOL    MW431308   3.888   3.827   0.869 -0.5086 -0.7686 -0.4011
 7886SOL     OW31309   0.235   1.358   0.878  0.2446 -0.2974 -0.1147
 7886SOL    HW231310   0.283   1.440   0.882  1.8431 -1.2276  2.1293
 7886SOL    HW331311   0.234   1.335   0.785 -0.0284  2.0756 -0.7653
 7886SOL    MW431312   0.241   1.366   0.866 -0.0009  0.2891  0.2855
 7887SOL     OW31313   3.402   3.466   4.141  0.3158 -0.5046 -0.4921
 7887SOL    HW231314   3.406   3.375   4.111  2.7171  0.1673 -2.6344
 7887SOL    HW331315   3.433   3.517   4.065 -0.6294  2.0803  0.7456
 7887SOL    MW431316   3.407   3.461   4.127 -0.0225  0.8900 -0.1715
 7888SOL     OW31317   4.404   5.050   2.430 -0.2002 -0.5068 -0.2311
 7888SOL    HW231318   4.447   4.969   2.402 -2.2203 -1.1415 -1.7709
 7888SOL    HW331319   4.353   5.077   2.354 -0.0500  1.9144  0.4631
 7888SOL    MW431320   4.403   5.043   2.417  0.3023 -0.5852  0.1309
 7889SOL     OW31321   4.180   0.735   4.289 -0.4712 -0.0566 -0.6369
 7889SOL    HW231322   4.086   0.726   4.276 -0.3360 -0.3328 -1.4746
 7889SOL    HW331323   4.198   0.827   4.270 -0.5277 -0.0780 -0.7984
 7889SOL    MW431324   4.170   0.746   4.285 -0.1968  0.3965  0.2369
 7890SOL     OW31325   4.730   0.748   5.631 -0.9317  0.4217  0.0727
 7890SOL    HW231326   4.716   0.677   5.694 -1.1815  0.3601 -0.0515
 7890SOL    HW331327   4.671   0.817   5.660 -0.7631  0.5429  0.1326
 7890SOL    MW431328   4.721   0.748   5.643 -0.2329 -0.4928 -0.0410
 7891SOL     OW31329   2.594   4.674   0.678 -0.1766 -0.0856  0.6263
 7891SOL    HW231330   2.555   4.719   0.603  1.4295  1.2252  0.5117
 7891SOL    HW331331   2.561   4.722   0.754  0.2086  0.2075  0.6075
 7891SOL    MW431332   2.584   4.686   0.678  0.3303 -0.1672  0.1646
 7892SOL     OW31333   3.284   1.421   2.915  0.2453 -0.6064 -0.1786
 7892SOL    HW231334   3.316   1.354   2.975  0.6823 -0.4604 -0.2417
 7892SOL    HW331335   3.363   1.470   2.890  0.1756 -1.0719 -1.3779
 7892SOL    MW431336   3.299   1.419   2.919  0.0159  0.3259  0.5847
 7893SOL     OW31337   0.999   1.321   4.307 -0.6081  0.2517 -0.1910
 7893SOL    HW231338   0.927   1.345   4.365 -1.0102  0.4278 -0.7569
 7893SOL    HW331339   0.957   1.302   4.223  0.1069  1.4960 -0.8573
 7893SOL    MW431340   0.984   1.322   4.304 -0.4733 -0.3236  0.1729
 7894SOL     OW31341   2.096   0.824   3.596 -0.8131 -0.0142  0.1234
 7894SOL    HW231342   2.049   0.741   3.585  1.9314 -1.6876  0.0135
 7894SOL    HW331343   2.078   0.850   3.686 -2.2216 -0.3762 -0.0378
 7894SOL    MW431344   2.088   0.817   3.607 -0.0171 -0.5778  0.2375
 7895SOL     OW31345   3.511   6.048   5.020 -0.0465 -0.4367  0.1548
 7895SOL    HW231346   3.430   6.017   4.979  1.4343 -1.9525 -1.7885
 7895SOL    HW331347   3.562   6.086   4.949  1.1748  0.0624  1.2471
 7895SOL    MW431348   3.507   6.049   5.005 -0.0290 -0.2701 -0.2469
 7896SOL     OW31349   0.042   1.104   4.333  0.1331  0.5775 -0.0518
 7896SOL    HW231350   0.050   1.036   4.267  2.1886 -0.2852  0.9807
 7896SOL    HW331351   0.126   1.150   4.330  0.6644 -0.0637  2.4839
 7896SOL    MW431352   0.054   1.101   4.324  0.3202  0.0179  0.2827
 7897SOL     OW31353   2.729   4.767   2.955 -0.2560  0.1607  0.1035
 7897SOL    HW231354   2.647   4.802   2.921 -0.3296  0.5434  0.6636
 7897SOL    HW331355   2.714   4.674   2.965 -0.2127  0.0256 -0.9681
 7897SOL    MW431356   2.716   4.760   2.951 -0.2656 -0.1678  0.0485
 7898SOL     OW31357   0.276   3.162   0.332  0.1197  0.5924 -0.5685
 7898SOL    HW231358   0.319   3.212   0.402  0.2627 -0.0673 -0.1753
 7898SOL    HW331359   0.338   3.164   0.259 -0.2708  1.7693 -0.9003
 7898SOL    MW431360   0.290   3.169   0.332  0.7125  0.3270 -0.4193
 7899SOL     OW31361   5.608   1.291   2.426 -0.3573 -0.4031  0.1726
 7899SOL    HW231362   5.669   1.217   2.428 -0.0644 -0.1428  1.5828
 7899SOL    HW331363   5.647   1.356   2.485 -0.2618  1.1758 -1.5116
 7899SOL    MW431364   5.621   1.290   2.434 -0.6191  0.5845 -0.8519
 7900SOL     OW31365   5.651   5.822   4.111 -0.3075 -0.0104 -0.0312
 7900SOL    HW231366   5.738   5.860   4.127 -0.0635 -0.8451  0.7254
 7900SOL    HW331367   5.647   5.748   4.171 -1.5569  0.0214 -0.0625
 7900SOL    MW431368   5.662   5.817   4.121  0.5071 -0.2772 -0.3841
 7901SOL     OW31369   1.089   6.381   3.028  0.1010 -0.3855 -0.1737
 7901SOL    HW231370   1.107   6.307   3.086 -0.1784  0.1621  0.6258
 7901SOL    HW331371   1.167   6.436   3.034  1.3253 -1.7236 -2.5700
 7901SOL    MW431372   1.102   6.379   3.037 -0.0308  0.3178 -0.1388
 7902SOL     OW31373   5.271   4.298   2.829 -0.3750 -0.0899 -0.3214
 7902SOL    HW231374   5.340   4.276   2.767 -0.2038  0.1665 -0.2243
 7902SOL    HW331375   5.289   4.389   2.853 -0.6930 -0.0521 -0.2258
 7902SOL    MW431376   5.282   4.307   2.824  0.0389  0.0241 -0.3689
 7903SOL     OW31377   3.852   0.545   1.548  0.2564 -0.3648 -0.1897
 7903SOL    HW231378   3.809   0.630   1.560 -1.0155 -0.8869 -0.7910
 7903SOL    HW331379   3.780   0.485   1.526  1.3622 -1.1700 -1.8261
 7903SOL    MW431380   3.836   0.548   1.547  0.1853 -0.1220 -0.2363
 7904SOL     OW31381   3.636   1.973   6.237 -0.1053  0.1010  0.5225
 7904SOL    HW231382   3.638   1.878   6.246 -2.3347 -0.0042  0.4484
 7904SOL    HW331383   3.571   1.989   6.168  1.1155  1.6523 -0.3273
 7904SOL    MW431384   3.627   1.963   6.229  0.2189  0.0624  0.0576
 7905SOL     OW31385   5.976   6.259   5.781 -0.2432 -0.0096  0.4454
 7905SOL    HW231386   5.914   6.228   5.715  0.6824 -0.3737 -0.2802
 7905SOL    HW331387   5.982   6.354   5.765 -0.5568  0.0131  0.4667
 7905SOL    MW431388   5.969   6.268   5.770 -0.2644  0.6593  0.2513
 7906SOL     OW31389   0.336   5.907   4.833 -0.1719  0.2602 -0.4909
 7906SOL    HW231390   0.287   5.847   4.778  0.3489 -0.4507 -0.1985
 7906SOL    HW331391   0.392   5.850   4.886 -0.4471  0.9398  0.5552
 7906SOL    MW431392   0.337   5.891   4.833 -0.2783  0.0965  0.4728
 7907SOL     OW31393   5.918   5.879   4.123  0.0449 -0.4176 -0.9070
 7907SOL    HW231394   5.910   5.889   4.028  0.5519 -0.9757 -1.0115
 7907SOL    HW331395   5.894   5.965   4.158  0.1726 -0.1128 -1.5562
 7907SOL    MW431396   5.914   5.892   4.115 -0.0581 -0.0371  0.3065
 7908SOL     OW31397   4.564   1.968   0.596  0.1359  0.8412  0.2417
 7908SOL    HW231398   4.635   2.000   0.651  0.8573  0.9780 -0.7464
 7908SOL    HW331399   4.574   1.873   0.596 -0.7088  0.7282  1.4405
 7908SOL    MW431400   4.574   1.960   0.603 -0.3138 -0.1977  0.4463
 7909SOL     OW31401   2.399   6.133   1.977  0.1812 -0.2071  0.0246
 7909SOL    HW231402   2.456   6.210   1.975  1.0652 -0.8279  0.4492
 7909SOL    HW331403   2.388   6.114   2.070  1.2136 -1.4696 -0.0918
 7909SOL    MW431404   2.405   6.141   1.989 -0.0574 -0.5530  0.4281
 7910SOL     OW31405   1.069   1.008   3.487 -0.7350 -0.1487  0.2183
 7910SOL    HW231406   1.150   1.054   3.463 -1.1444  0.1738 -0.6023
 7910SOL    HW331407   1.004   1.078   3.497 -0.9652 -0.4219  0.6603
 7910SOL    MW431408   1.071   1.023   3.485 -0.4313  0.2947  0.0780
 7911SOL     OW31409   4.819   6.157   3.150 -0.1141  0.0974 -0.3800
 7911SOL    HW231410   4.806   6.189   3.061  1.3227 -2.5939 -1.6503
 7911SOL    HW331411   4.905   6.190   3.175 -0.7238  1.2780  0.2931
 7911SOL    MW431412   4.828   6.166   3.142 -0.0028 -0.6582 -0.1376
 7912SOL     OW31413   1.432   1.742   5.828  0.2582 -0.2212 -0.3206
 7912SOL    HW231414   1.426   1.831   5.863 -4.3944 -0.9071  1.2154
 7912SOL    HW331415   1.484   1.695   5.893 -1.9316  0.2542  1.9324
 7912SOL    MW431416   1.438   1.748   5.841 -0.1538 -0.4197 -0.3599
 7913SOL     OW31417   4.200   3.457   3.509 -0.7979 -0.0987  0.9342
 7913SOL    HW231418   4.177   3.403   3.584  1.4236 -0.2642  1.5724
 7913SOL    HW331419   4.249   3.399   3.451  1.1678  1.0307  1.3768
 7913SOL    MW431420   4.203   3.442   3.511  0.4967 -0.5890  0.5481
 7914SOL     OW31421   5.966   1.620   4.923 -0.1529 -0.7498 -0.4080
 7914SOL    HW231422   6.037   1.565   4.890  1.9004  0.5768  1.5264
 7914SOL    HW331423   5.936   1.668   4.846 -0.0353 -2.4411 -1.5607
 7914SOL    MW431424   5.971   1.619   4.908  0.4561 -0.3042 -0.0152
 7915SOL     OW31425   3.859   0.404   3.274  0.0381 -0.0065  0.0307
 7915SOL    HW231426   3.803   0.329   3.252  0.5038  0.2505 -2.2624
 7915SOL    HW331427   3.944   0.365   3.291 -0.2980 -0.1983  1.3661
 7915SOL    MW431428   3.863   0.389   3.273  0.7010  0.0726  0.3513
 7916SOL     OW31429   4.156   4.298   0.971  0.3420 -0.4801 -0.6370
 7916SOL    HW231430   4.143   4.235   1.041  0.6784 -0.2720 -0.3810
 7916SOL    HW331431   4.200   4.249   0.902 -0.8326 -0.9209 -1.0872
 7916SOL    MW431432   4.160   4.284   0.971  0.2923 -0.3923  0.0652
 7917SOL     OW31433   3.141   2.564   5.720 -0.1690 -0.3631 -0.1811
 7917SOL    HW231434   3.076   2.601   5.780  1.5489  0.0622  1.5074
 7917SOL    HW331435   3.225   2.600   5.750  0.7957 -0.2335 -2.7845
 7917SOL    MW431436   3.144   2.574   5.732 -0.3489 -0.7084 -0.4518
 7918SOL     OW31437   5.788   5.989   2.916  0.5428  0.3660 -0.0209
 7918SOL    HW231438   5.823   6.027   2.997 -0.9118  1.3367  0.2011
 7918SOL    HW331439   5.717   5.932   2.946  0.9483 -0.4420 -0.5478
 7918SOL    MW431440   5.783   5.986   2.931  0.6272 -0.1147  0.1001
 7919SOL     OW31441   2.017   1.898   1.390 -0.2739  0.1408  0.4316
 7919SOL    HW231442   2.029   1.916   1.483  0.7150 -1.6172  0.6913
 7919SOL    HW331443   1.954   1.826   1.386 -0.9872  0.7829 -0.3198
 7919SOL    MW431444   2.010   1.891   1.401 -0.4140 -0.3091  0.1359
 7920SOL     OW31445   0.552   5.855   5.416  0.2747  0.2450 -0.4458
 7920SOL    HW231446   0.498   5.929   5.445  0.0933  0.5774 -1.5919
 7920SOL    HW331447   0.546   5.857   5.320 -0.0988 -1.5141 -0.4887
 7920SOL    MW431448   0.544   5.865   5.407 -0.4327 -0.3231 -0.3678
 7921SOL     OW31449   2.859   5.971   0.063 -0.0172  0.2110  1.0022
 7921SOL    HW231450   2.825   5.882   0.075 -0.9368  0.0070 -2.3091
 7921SOL    HW331451   2.941   5.961   0.015 -1.3669  1.1091 -1.7181
 7921SOL    MW431452   2.865   5.958   0.059 -0.4526  0.0836 -0.2995
 7922SOL     OW31453   0.496   4.410   3.804 -0.4038  0.4979 -0.0764
 7922SOL    HW231454   0.450   4.364   3.734 -0.6501 -0.5583  0.7615
 7922SOL    HW331455   0.458   4.376   3.885  1.4296  0.0005  0.6347
 7922SOL    MW431456   0.485   4.400   3.805 -0.2130 -0.0796 -0.9442
 7923SOL     OW31457   6.206   2.650   3.960 -0.2519  0.2127  0.1545
 7923SOL    HW231458   6.233   2.649   4.052  0.5215  0.5154 -0.0639
 7923SOL    HW331459   6.253   2.725   3.922  1.2178 -1.2378 -1.0243
 7923SOL    MW431460   6.216   2.660   3.967 -0.1381  0.4369  0.2389
 7924SOL     OW31461   4.507   6.095   2.655  0.2429 -0.3545  0.9705
 7924SOL    HW231462   4.523   6.186   2.633  0.8607 -0.6493  0.1366
 7924SOL    HW331463   4.573   6.074   2.721  1.3763 -0.7029 -0.2180
 7924SOL    MW431464   4.518   6.104   2.661  0.3922  0.0902 -0.5548
 7925SOL     OW31465   2.289   5.617   5.821  0.0316 -0.7356 -0.0510
 7925SOL    HW231466   2.360   5.616   5.757 -1.7267 -0.8281 -2.1190
 7925SOL    HW331467   2.269   5.709   5.833  0.3136 -0.7217  0.3199
 7925SOL    MW431468   2.296   5.629   5.814 -0.5962 -0.0352  0.0217
 7926SOL     OW31469   5.855   5.205   6.373  0.3329 -0.7462  0.4779
 7926SOL    HW231470   5.836   5.252   6.455  0.7129 -0.9763  0.7000
 7926SOL    HW331471   5.888   5.273   6.314  2.1550 -0.9362  1.2224
 7926SOL    MW431472   5.857   5.221   6.376  0.1264  0.3477  0.2163
 7927SOL     OW31473   5.138   0.947   4.721  0.3742  0.2996  0.1454
 7927SOL    HW231474   5.063   0.909   4.767  0.3171 -0.8912 -0.8831
 7927SOL    HW331475   5.214   0.906   4.762  0.3882  0.2841  0.1033
 7927SOL    MW431476   5.138   0.936   4.733 -0.6458 -0.3728 -0.2931
 7928SOL     OW31477   3.167   3.925   2.062  0.1811  0.3389 -0.2752
 7928SOL    HW231478   3.173   3.863   2.134 -2.1405 -1.0470 -1.1348
 7928SOL    HW331479   3.198   3.875   1.986  0.6795  1.0919 -0.5708
 7928SOL    MW431480   3.172   3.910   2.061 -0.0214  0.7627 -0.0250
 7929SOL     OW31481   0.162   0.790   0.219  0.2505 -0.5964  0.0047
 7929SOL    HW231482   0.168   0.879   0.254 -1.4970 -1.0332  1.5780
 7929SOL    HW331483   0.068   0.776   0.204  0.3768 -2.5079  0.7413
 7929SOL    MW431484   0.150   0.800   0.222 -0.5813  0.8894 -0.4438
 7930SOL     OW31485   4.253   0.477   2.348 -0.0774  0.1272  0.1796
 7930SOL    HW231486   4.178   0.457   2.291 -0.3647  1.2763  0.1266
 7930SOL    HW331487   4.324   0.498   2.287 -0.2202  0.7843  0.2342
 7930SOL    MW431488   4.253   0.477   2.332  0.4559 -0.5291  0.5494
 7931SOL     OW31489   4.908   1.558   1.867 -0.3630  0.1648 -0.3057
 7931SOL    HW231490   4.927   1.627   1.804 -3.2762 -1.3679 -3.1369
 7931SOL    HW331491   4.816   1.567   1.888 -0.7289 -2.4629 -0.3621
 7931SOL    MW431492   4.899   1.568   1.861  0.2561 -0.1154 -0.0631
 7932SOL     OW31493   2.230   1.645   2.378  0.6487 -0.5014 -0.3866
 7932SOL    HW231494   2.187   1.610   2.455  0.7667  0.3173  0.0584
 7932SOL    HW331495   2.324   1.638   2.397  0.6769 -0.2242 -0.4111
 7932SOL    MW431496   2.237   1.640   2.390 -0.2641  0.4201  0.4843
 7933SOL     OW31497   2.615   0.433   1.077  0.5798  0.1273  0.1522
 7933SOL    HW231498   2.677   0.476   1.136  2.0278 -0.7832 -0.6490
 7933SOL    HW331499   2.554   0.388   1.136  0.6487  1.0619  0.9593
 7933SOL    MW431500   2.615   0.433   1.093 -0.6826  0.1260 -0.2246
 7934SOL     OW31501   3.454   2.306   0.040  0.0576  0.3115  0.5974
 7934SOL    HW231502   3.362   2.326   0.060  0.1690  0.2012  1.2664
 7934SOL    HW331503   3.460   2.313  -0.055  0.0125  3.0991  0.7212
 7934SOL    MW431504   3.443   2.310   0.030 -0.0941 -0.5153 -0.2339
 7935SOL     OW31505   4.527   1.063   2.908  0.4172  0.2878  0.0379
 7935SOL    HW231506   4.501   1.050   2.817  1.5728 -1.5128 -0.0964
 7935SOL    HW331507   4.601   1.003   2.921  1.9832  2.3364  1.4376
 7935SOL    MW431508   4.534   1.053   2.898 -0.1817 -0.5651 -0.3431
 7936SOL     OW31509   2.767   0.212   0.091 -0.5649  0.0406 -0.1871
 7936SOL    HW231510   2.712   0.211   0.169  0.8589  1.9024  0.9155
 7936SOL    HW331511   2.777   0.304   0.070 -0.7150 -0.4124 -2.4775
 7936SOL    MW431512   2.761   0.224   0.099 -0.3505  0.2298  0.2808
 7937SOL     OW31513   3.294   2.629   4.967  0.3684 -0.2470 -0.2595
 7937SOL    HW231514   3.324   2.547   4.929  0.0297  0.1303 -1.3913
 7937SOL    HW331515   3.236   2.602   5.038  1.7004 -0.9685  0.6011
 7937SOL    MW431516   3.290   2.615   4.971 -0.1212 -0.0384 -0.6227
 7938SOL     OW31517   6.221   4.169   0.249 -0.3112  0.0872 -0.2855
 7938SOL    HW231518   6.195   4.225   0.322  0.7414  0.3862 -0.1096
 7938SOL    HW331519   6.146   4.113   0.233 -0.8292  0.5245  0.5449
 7938SOL    MW431520   6.208   4.169   0.256  0.4142 -0.1364 -0.1031
 7939SOL     OW31521   5.657   0.521   3.314  0.8261 -0.5138  0.0195
 7939SOL    HW231522   5.747   0.549   3.329  0.5445  0.0871  0.7030
 7939SOL    HW331523   5.610   0.552   3.392 -0.6044  2.1412 -1.7330
 7939SOL    MW431524   5.663   0.529   3.326 -0.0993  0.1857  0.1238
 7940SOL     OW31525   3.001   4.090   0.365 -0.7539  0.1631 -0.2397
 7940SOL    HW231526   2.999   4.003   0.404 -2.2289 -0.3851 -1.4362
 7940SOL    HW331527   3.016   4.149   0.439 -2.0938 -0.9374  0.9664
 7940SOL    MW431528   3.003   4.087   0.380 -0.1193  0.5599  0.1268
 7941SOL     OW31529   2.389   0.961   2.828 -0.1271 -0.4108  0.6073
 7941SOL    HW231530   2.323   0.936   2.893  0.3168  0.5683  1.4720
 7941SOL    HW331531   2.463   0.991   2.880  1.1431 -1.7744 -0.3371
 7941SOL    MW431532   2.390   0.962   2.844 -0.4963 -0.3865 -0.1767
 7942SOL     OW31533   5.139   2.647   2.702  0.7907  0.1100  0.3060
 7942SOL    HW231534   5.213   2.708   2.709  1.3482 -0.4815 -0.1809
 7942SOL    HW331535   5.122   2.640   2.608 -1.1640  1.6934  0.4908
 7942SOL    MW431536   5.147   2.654   2.691 -0.0483 -0.0393  0.0883
 7943SOL     OW31537   3.910   4.310   4.313  0.1305  0.1275  0.0608
 7943SOL    HW231538   4.004   4.305   4.298  0.2133 -0.9490  0.7771
 7943SOL    HW331539   3.873   4.337   4.229  1.0094 -0.3310 -0.4830
 7943SOL    MW431540   3.917   4.313   4.300 -0.0986 -0.3173 -0.1251
 7944SOL     OW31541   2.953   1.640   4.411 -0.3684  0.5055 -0.3481
 7944SOL    HW231542   2.979   1.628   4.319 -1.0697  0.5534 -0.5552
 7944SOL    HW331543   2.857   1.646   4.409 -0.4533 -0.3066  0.4723
 7944SOL    MW431544   2.944   1.639   4.399  0.1301  0.0250  1.0783
 7945SOL     OW31545   2.265   1.533   5.505  0.5983  0.1380  0.1314
 7945SOL    HW231546   2.186   1.522   5.452 -0.0995 -0.1918  1.1993
 7945SOL    HW331547   2.336   1.540   5.442 -0.2223 -0.1038 -0.8422
 7945SOL    MW431548   2.264   1.532   5.490  0.3600 -0.3134  0.0453
 7946SOL     OW31549   0.503   2.702   2.974 -0.1711 -0.1934 -0.0260
 7946SOL    HW231550   0.470   2.625   3.020  0.4486 -1.2568 -1.2860
 7946SOL    HW331551   0.438   2.718   2.905 -0.5223  0.7021  0.4907
 7946SOL    MW431552   0.490   2.694   2.971  0.2761  0.2835  0.5486
 7947SOL     OW31553   0.535   4.750   0.404 -0.2451 -0.0913  0.2749
 7947SOL    HW231554   0.598   4.799   0.456  0.3996 -1.3230  0.6974
 7947SOL    HW331555   0.450   4.776   0.438  0.1537 -0.7717  1.8974
 7947SOL    MW431556   0.532   4.760   0.415  0.0847  0.1103 -0.1015
 7948SOL     OW31557   1.792   2.837   1.134  0.5019  0.1835 -0.0810
 7948SOL    HW231558   1.804   2.871   1.045 -2.1172 -0.2950 -0.6814
 7948SOL    HW331559   1.701   2.810   1.138  0.1842  1.2967  3.1742
 7948SOL    MW431560   1.782   2.838   1.123 -0.1956 -0.2206  0.0042
 7949SOL     OW31561   0.568   0.942   2.117  0.1137 -0.4877 -0.1784
 7949SOL    HW231562   0.533   0.868   2.067  0.5540 -2.5332  2.3245
 7949SOL    HW331563   0.549   1.019   2.063 -2.8389 -2.1044 -1.6865
 7949SOL    MW431564   0.561   0.943   2.104 -0.3765 -0.0932  0.0608
 7950SOL     OW31565   3.688   5.955   1.789  0.2225 -0.3863  0.1513
 7950SOL    HW231566   3.640   5.989   1.864  0.2718 -1.0194  0.4753
 7950SOL    HW331567   3.775   5.934   1.824  1.0823  1.6251 -0.6215
 7950SOL    MW431568   3.693   5.957   1.803 -0.3886  0.3470 -0.0015
 7951SOL     OW31569   4.563   5.942   2.047  0.0471  0.3498 -0.0080
 7951SOL    HW231570   4.494   6.004   2.024 -0.4010 -0.7700 -1.9794
 7951SOL    HW331571   4.528   5.893   2.121 -0.3575  1.1955  0.3742
 7951SOL    MW431572   4.549   5.943   2.053 -0.5348  0.6765  0.3082
 7952SOL     OW31573   4.714   0.111   6.153  0.0479 -0.5901  0.0908
 7952SOL    HW231574   4.666   0.055   6.213 -0.5229 -1.9665 -1.5726
 7952SOL    HW331575   4.782   0.055   6.117  1.6146  0.7457  0.8206
 7952SOL    MW431576   4.717   0.096   6.156 -0.7018  0.0161 -0.4148
 7953SOL     OW31577   4.010   5.895   0.852 -0.1011  0.1199  0.2987
 7953SOL    HW231578   3.947   5.900   0.923 -1.3142  1.9944 -0.8075
 7953SOL    HW331579   4.055   5.980   0.853 -0.6053  0.4659 -1.5061
 7953SOL    MW431580   4.008   5.907   0.861  0.1178 -0.1515  0.6963
 7954SOL     OW31581   3.512   2.415   5.966  0.1148 -0.7727  0.1385
 7954SOL    HW231582   3.469   2.481   5.912  0.6061 -0.4349  0.1571
 7954SOL    HW331583   3.441   2.377   6.019 -0.1551 -0.1911  0.2008
 7954SOL    MW431584   3.497   2.419   5.966  0.8564 -0.6027 -0.3641
 7955SOL     OW31585   6.216   5.300   3.443  0.1406 -0.2805  0.3396
 7955SOL    HW231586   6.235   5.316   3.535  0.8225 -1.3228  0.3955
 7955SOL    HW331587   6.281   5.235   3.416  0.0998  0.1831 -0.9403
 7955SOL    MW431588   6.227   5.293   3.451 -0.3410 -0.0072  0.6205
 7956SOL     OW31589   6.044   2.410   3.098  0.3176 -0.5164  0.0080
 7956SOL    HW231590   5.996   2.327   3.109  0.2870 -0.3255  1.5130
 7956SOL    HW331591   6.010   2.466   3.168  2.9958 -0.5068  1.4126
 7956SOL    MW431592   6.033   2.406   3.109  0.1290  0.4151 -0.0203
 7957SOL     OW31593   4.510   1.103   5.439  0.3375  0.2786  0.4514
 7957SOL    HW231594   4.520   1.129   5.348  0.0989 -0.5211  0.1884
 7957SOL    HW331595   4.425   1.137   5.466 -0.5828 -1.3156 -0.2932
 7957SOL    MW431596   4.500   1.111   5.431 -0.1346 -0.0695 -0.2417
 7958SOL     OW31597   5.467   6.149   1.689  0.1664 -0.3619  0.0113
 7958SOL    HW231598   5.452   6.054   1.689 -0.7990 -0.2266 -0.3475
 7958SOL    HW331599   5.399   6.183   1.630 -0.5110  0.6886  1.3517
 7958SOL    MW431600   5.456   6.141   1.681  0.4444  0.3217  0.0855
 7959SOL     OW31601   2.088   3.195   1.935 -0.4587 -0.2318  0.4455
 7959SOL    HW231602   2.165   3.164   1.888 -1.9313  0.5066 -2.7494
 7959SOL    HW331603   2.102   3.289   1.946 -1.5617  0.2424 -1.7442
 7959SOL    MW431604   2.100   3.203   1.930  0.6408  0.6852  0.2279
 7960SOL     OW31605   1.004   2.971   2.894 -0.0332 -0.4933  0.3476
 7960SOL    HW231606   0.960   2.901   2.941  2.6312 -2.3206  0.3459
 7960SOL    HW331607   0.964   2.970   2.807 -0.0632 -2.0639  0.3434
 7960SOL    MW431608   0.993   2.962   2.889 -0.5445 -0.6310 -0.5748
 7961SOL     OW31609   0.515   1.881   1.008  0.2027  0.1409 -0.3700
 7961SOL    HW231610   0.565   1.807   0.973  0.7924 -0.0597  0.8583
 7961SOL    HW331611   0.579   1.953   1.013  0.3532 -0.0663  1.0431
 7961SOL    MW431612   0.530   1.881   1.004 -0.3747  0.1192 -0.4081
 7962SOL     OW31613   6.364   4.735   1.848 -0.4521 -0.7632 -0.5116
 7962SOL    HW231614   6.416   4.740   1.928  2.3361 -0.7647 -2.2148
 7962SOL    HW331615   6.372   4.821   1.808  0.9102 -1.6593 -2.3129
 7962SOL    MW431616   6.372   4.747   1.853  1.0305 -0.3906  0.1623
 7963SOL     OW31617   4.339   1.214   3.710 -0.1269  0.0750 -0.0719
 7963SOL    HW231618   4.409   1.259   3.662 -0.9258  0.3620 -0.9789
 7963SOL    HW331619   4.283   1.284   3.742 -0.6153 -0.2133 -0.2967
 7963SOL    MW431620   4.341   1.229   3.708  0.0022 -0.6568 -0.5714
 7964SOL     OW31621   3.910   5.991   1.209  0.3708 -0.0986  0.2199
 7964SOL    HW231622   3.844   5.934   1.170 -0.5036  0.6999  0.4781
 7964SOL    HW331623   3.904   6.073   1.160  0.8768  0.1306  0.5265
 7964SOL    MW431624   3.901   5.994   1.198 -0.5407  0.0987 -0.4778
 7965SOL     OW31625   0.697   4.288   1.045  0.0852  0.5317 -0.9449
 7965SOL    HW231626   0.629   4.333   0.996 -0.2335  1.3403  0.2113
 7965SOL    HW331627   0.681   4.312   1.137  1.0754 -0.3909 -0.5063
 7965SOL    MW431628   0.686   4.297   1.051  0.1072  1.1789 -0.0184
 7966SOL     OW31629   4.516   1.419   2.274  0.3105  0.5229 -0.2610
 7966SOL    HW231630   4.464   1.448   2.199  0.3225 -0.0468 -0.5019
 7966SOL    HW331631   4.493   1.326   2.283 -1.6402  1.1439  2.0241
 7966SOL    MW431632   4.506   1.410   2.265 -0.0958  0.3401  0.0202
 7967SOL     OW31633   3.840   3.039   1.792 -0.5897 -0.5733  0.3531
 7967SOL    HW231634   3.891   3.082   1.723 -1.4128 -0.7564 -0.3916
 7967SOL    HW331635   3.776   3.105   1.820 -1.3762 -1.0429 -0.2775
 7967SOL    MW431636   3.838   3.053   1.786 -0.0891  0.0081 -0.0031
 7968SOL     OW31637   3.914   1.741   5.785 -0.3704  0.3815  0.4450
 7968SOL    HW231638   3.985   1.750   5.849  0.7056  0.0335 -0.6592
 7968SOL    HW331639   3.849   1.805   5.812 -0.0163  0.1342  1.9743
 7968SOL    MW431640   3.915   1.751   5.797  0.0346 -0.0755  0.3161
 7969SOL     OW31641   2.834   1.702   5.725  0.1418 -0.2233 -0.0159
 7969SOL    HW231642   2.770   1.633   5.741  0.2361 -0.0731  1.1162
 7969SOL    HW331643   2.849   1.701   5.631 -0.9389 -0.7825 -0.1885
 7969SOL    MW431644   2.828   1.693   5.715 -0.0305  0.0420  0.2542
 7970SOL     OW31645   5.607   2.676   4.172 -0.0197  0.4855  0.0333
 7970SOL    HW231646   5.664   2.674   4.248 -0.7100 -0.3301  0.5495
 7970SOL    HW331647   5.658   2.720   4.105  0.0560  2.6110  1.4021
 7970SOL    MW431648   5.621   2.681   4.173  0.2774  0.5671  0.6971
 7971SOL     OW31649   4.031   4.562   5.954 -0.3621 -0.0554 -0.2118
 7971SOL    HW231650   4.113   4.600   5.923  0.1824 -0.9385  0.1131
 7971SOL    HW331651   4.013   4.490   5.893  0.0394 -0.9783  0.7256
 7971SOL    MW431652   4.040   4.558   5.942 -0.0676 -0.3132  0.0487
 7972SOL     OW31653   0.730   0.219   4.397  0.7165 -0.7752  0.5075
 7972SOL    HW231654   0.756   0.262   4.478  1.5181  2.2947 -1.2334
 7972SOL    HW331655   0.804   0.162   4.375  1.6978  0.4097  0.6269
 7972SOL    MW431656   0.743   0.217   4.405  0.7214  0.2837  0.2707
 7973SOL     OW31657   1.399   3.512   5.761 -0.2358  0.1512 -0.2412
 7973SOL    HW231658   1.358   3.429   5.784  0.4507 -0.0950  0.0893
 7973SOL    HW331659   1.329   3.560   5.715 -0.5979 -0.6462 -0.5532
 7973SOL    MW431660   1.384   3.508   5.758 -0.4867  0.0535  0.3053
 7974SOL     OW31661   1.729   0.061   4.540  0.3437  0.0527  0.3816
 7974SOL    HW231662   1.812   0.014   4.526 -0.1867 -0.7541 -0.1531
 7974SOL    HW331663   1.675   0.037   4.464 -0.3784  0.5771  0.7172
 7974SOL    MW431664   1.733   0.052   4.528 -0.3194  0.1121  0.3206
 7975SOL     OW31665   6.159   3.084   0.985 -0.2283 -0.4124 -0.1595
 7975SOL    HW231666   6.125   3.105   1.072 -2.8585  0.1168 -1.2044
 7975SOL    HW331667   6.116   3.001   0.963 -0.4510 -0.0054 -1.3383
 7975SOL    MW431668   6.149   3.076   0.993  0.1594  0.1349  0.3585
 7976SOL     OW31669   4.767   1.693   2.479 -0.0750 -0.0723  0.1010
 7976SOL    HW231670   4.749   1.627   2.546 -0.1098  0.8222  1.0110
 7976SOL    HW331671   4.842   1.659   2.431  0.7371 -0.1806  1.3952
 7976SOL    MW431672   4.774   1.680   2.481  0.1480 -0.0078  0.2573
 7977SOL     OW31673   3.355   1.292   0.877  0.0876 -0.6289  0.1284
 7977SOL    HW231674   3.271   1.329   0.848  0.4155  0.1456  0.1454
 7977SOL    HW331675   3.369   1.329   0.964  1.3439  0.7556 -0.6264
 7977SOL    MW431676   3.346   1.302   0.884 -0.5685 -0.1896  0.3860
 7978SOL     OW31677   1.753   2.076   5.128  0.5048 -0.1423  0.4686
 7978SOL    HW231678   1.799   2.157   5.107  0.5909 -0.4890 -0.7232
 7978SOL    HW331679   1.778   2.015   5.058 -1.5001 -0.4416 -0.0402
 7978SOL    MW431680   1.763   2.078   5.116 -0.4497  0.1609 -0.4471
 7979SOL     OW31681   1.921   1.166   4.590  0.0943 -0.3925 -0.3282
 7979SOL    HW231682   1.954   1.140   4.676  1.4049 -1.6928 -1.1694
 7979SOL    HW331683   1.871   1.090   4.559  0.6611 -0.4190 -1.2103
 7979SOL    MW431684   1.919   1.153   4.597 -0.4478  0.0335  0.2989
 7980SOL     OW31685   6.031   6.157   0.188 -0.4164  0.0842 -0.2883
 7980SOL    HW231686   6.084   6.208   0.249 -0.0950 -0.8033  0.1884
 7980SOL    HW331687   5.993   6.088   0.242  0.0957 -0.8861 -1.1430
 7980SOL    MW431688   6.033   6.155   0.204 -0.1405  0.1023  0.5482
 7981SOL     OW31689   2.750   2.523   2.181  0.5902  0.5038 -1.1178
 7981SOL    HW231690   2.672   2.479   2.216  2.6603 -1.3876  1.5945
 7981SOL    HW331691   2.743   2.613   2.213  0.6355 -0.2878  1.3974
 7981SOL    MW431692   2.739   2.529   2.190  0.0899 -0.2540  0.6644
 7982SOL     OW31693   0.418   5.372   1.935  0.4133  0.7374 -0.4396
 7982SOL    HW231694   0.467   5.453   1.924  2.9860 -0.9899 -3.5603
 7982SOL    HW331695   0.476   5.315   1.987 -0.6343  0.3080  0.3103
 7982SOL    MW431696   0.432   5.375   1.941 -0.1515 -0.0971  0.1664
 7983SOL     OW31697   1.471   1.683   4.176 -0.5985 -0.2138  0.0588
 7983SOL    HW231698   1.488   1.777   4.182  3.0438 -0.6625 -0.4037
 7983SOL    HW331699   1.494   1.649   4.263  1.3238 -0.9302 -0.6631
 7983SOL    MW431700   1.477   1.691   4.188 -0.7236  0.1457  0.0761
 7984SOL     OW31701   1.675   4.435   6.081  0.2602  0.0325 -0.0981
 7984SOL    HW231702   1.732   4.498   6.038 -0.8837  0.8674 -0.4436
 7984SOL    HW331703   1.626   4.486   6.146 -0.1275 -0.6432  0.1558
 7984SOL    MW431704   1.676   4.450   6.084  0.0726  0.1412  0.5630
 7985SOL     OW31705   2.920   5.876   2.208  0.1363  0.5392  0.0685
 7985SOL    HW231706   3.011   5.905   2.214  1.0363 -1.9480 -0.3155
 7985SOL    HW331707   2.876   5.919   2.281  2.0810  0.2810  1.4602
 7985SOL    MW431708   2.927   5.885   2.218  1.0234 -0.3760  0.0772
 7986SOL     OW31709   0.793   3.935   5.790  0.1732  0.1012 -0.1042
 7986SOL    HW231710   0.705   3.914   5.757  0.6701 -0.5075 -1.0989
 7986SOL    HW331711   0.777   3.993   5.864 -1.0311  0.9528 -0.9728
 7986SOL    MW431712   0.779   3.940   5.795 -0.1590 -0.1473  0.0982
 7987SOL     OW31713   3.114   4.223   1.900 -0.5332 -0.3071 -0.1922
 7987SOL    HW231714   3.021   4.239   1.880 -0.2707 -1.3893 -2.6355
 7987SOL    HW331715   3.155   4.210   1.815  2.1185  1.1523  0.7491
 7987SOL    MW431716   3.107   4.224   1.886 -0.3440 -0.1767 -0.5106
 7988SOL     OW31717   2.778   1.937   1.834  0.4076 -0.3978  0.0598
 7988SOL    HW231718   2.864   1.895   1.827  0.9008  0.7291 -1.1052
 7988SOL    HW331719   2.781   2.008   1.770 -1.2917 -0.1424  0.2151
 7988SOL    MW431720   2.790   1.940   1.825  0.0637 -0.2893 -0.4619
 7989SOL     OW31721   1.089   2.605   2.010  0.1617 -0.3265  0.0791
 7989SOL    HW231722   1.023   2.569   1.951  0.1910 -1.2637  0.5892
 7989SOL    HW331723   1.160   2.541   2.009  0.0010 -0.5649  1.4067
 7989SOL    MW431724   1.089   2.592   2.002 -0.5259  0.0391 -0.3885
 7990SOL     OW31725   0.944   4.691   5.399  0.3752  0.2081 -0.3853
 7990SOL    HW231726   0.952   4.600   5.371 -1.0661  0.4484 -1.7214
 7990SOL    HW331727   0.926   4.686   5.493  0.4173 -0.8696 -0.4195
 7990SOL    MW431728   0.943   4.678   5.408  0.2742 -0.0051 -0.2276
 7991SOL     OW31729   6.244   0.477   3.458 -0.0700  0.1402 -0.2308
 7991SOL    HW231730   6.316   0.466   3.520 -0.4520 -1.5248 -0.0271
 7991SOL    HW331731   6.165   0.459   3.508 -0.6276  1.5071 -0.5645
 7991SOL    MW431732   6.243   0.473   3.473 -0.1506  0.0598  0.5777
 7992SOL     OW31733   4.662   1.695   0.600 -0.4111 -0.3029  0.2706
 7992SOL    HW231734   4.752   1.725   0.587  0.1213 -1.7122  0.5646
 7992SOL    HW331735   4.662   1.605   0.567 -1.8500 -0.1604 -0.1896
 7992SOL    MW431736   4.674   1.687   0.594 -0.6165  0.1776  0.1592
 7993SOL     OW31737   2.930   6.317   2.640 -0.3710 -0.3980  0.4136
 7993SOL    HW231738   2.942   6.226   2.614  0.9345 -0.7471  2.0748
 7993SOL    HW331739   2.838   6.336   2.621 -0.5030 -1.8736 -0.4947
 7993SOL    MW431740   2.919   6.308   2.634  0.6577  0.0257  0.2072
 7994SOL     OW31741   3.088   5.460   0.152  0.3862 -0.6285  0.3706
 7994SOL    HW231742   3.086   5.552   0.181 -0.2304 -0.3444 -0.5449
 7994SOL    HW331743   3.069   5.410   0.231 -2.1484  0.1681  0.3387
 7994SOL    MW431744   3.085   5.466   0.166  0.3272 -0.2906  1.0198
 7995SOL     OW31745   0.115   6.197   2.865 -0.2906  0.1345 -0.5475
 7995SOL    HW231746   0.193   6.162   2.820 -0.4848  1.0141 -1.6133
 7995SOL    HW331747   0.130   6.178   2.957  0.7855 -0.4855 -0.8312
 7995SOL    MW431748   0.127   6.190   2.871  0.2769 -0.3620 -0.1970
 7996SOL     OW31749   5.636   4.355   6.059  0.1366  0.2535  0.5238
 7996SOL    HW231750   5.541   4.340   6.066  0.1094 -0.9769 -1.5972
 7996SOL    HW331751   5.663   4.380   6.148 -2.2767  1.4159  1.0250
 7996SOL    MW431752   5.627   4.356   6.072  0.1700  0.1528  0.3155
 7997SOL     OW31753   4.211   3.778   3.890  0.2157 -0.3561 -0.2278
 7997SOL    HW231754   4.121   3.780   3.858  0.6147 -0.7546 -1.4026
 7997SOL    HW331755   4.215   3.701   3.946 -0.1443 -0.4028 -0.2624
 7997SOL    MW431756   4.199   3.768   3.893 -0.2007  0.3527 -0.0293
 7998SOL     OW31757   0.112   4.808   5.951 -0.4193 -0.2115  0.1580
 7998SOL    HW231758   0.026   4.845   5.972 -0.7089  0.4499 -1.9602
 7998SOL    HW331759   0.092   4.724   5.910 -0.0913 -0.0149 -0.4226
 7998SOL    MW431760   0.098   4.802   5.948 -0.4881 -0.3910 -0.5573
 7999SOL     OW31761   1.932   0.329   4.772 -0.0606  0.2533 -0.3570
 7999SOL    HW231762   1.872   0.382   4.720  0.2308  0.4692 -0.4785
 7999SOL    HW331763   1.909   0.348   4.863 -1.2048 -0.8491 -0.3947
 7999SOL    MW431764   1.921   0.339   4.777  0.2446  0.2013 -0.4978
 8000SOL     OW31765   6.011   1.256   0.650 -0.5689  0.2470 -0.0536
 8000SOL    HW231766   6.077   1.187   0.661 -0.0382  0.8703  0.8943
 8000SOL    HW331767   5.981   1.274   0.740 -0.3080  1.6055 -0.2197
 8000SOL    MW431768   6.016   1.249   0.664  0.2906  0.3597 -0.5390
 8001SOL     OW31769   0.989   1.638   5.298  0.4055 -0.1019  0.1253
 8001SOL    HW231770   1.020   1.729   5.295  0.0158  0.2018  2.9293
 8001SOL    HW331771   1.011   1.602   5.212 -0.3435  2.9296 -1.4808
 8001SOL    MW431772   0.996   1.645   5.286 -0.6365  0.0721 -0.1837
 8002SOL     OW31773   1.490   4.906   1.253  0.3076  0.6307  0.2493
 8002SOL    HW231774   1.423   4.960   1.295 -0.2416  1.7982 -1.9596
 8002SOL    HW331775   1.552   4.969   1.217  2.3919 -0.4113  1.8030
 8002SOL    MW431776   1.489   4.921   1.254 -0.0675  0.0265 -0.3904
 8003SOL     OW31777   1.541   4.061   2.031  0.4536 -0.3937  0.5849
 8003SOL    HW231778   1.464   4.005   2.021  2.7662 -4.1083  1.7099
 8003SOL    HW331779   1.597   4.040   1.956  1.2780  0.7293  0.8455
 8003SOL    MW431780   1.538   4.051   2.020 -0.3973  0.3597 -0.4717
 8004SOL     OW31781   1.059   3.975   6.119 -0.4894  0.0361  0.0318
 8004SOL    HW231782   1.102   3.971   6.204 -1.4636 -0.4982  0.5153
 8004SOL    HW331783   1.043   3.883   6.096  0.8820  0.0998 -1.3291
 8004SOL    MW431784   1.062   3.962   6.127 -0.0492  0.7786 -0.0561
 8005SOL     OW31785   3.449   4.756   4.188  0.1664  0.2850  0.1094
 8005SOL    HW231786   3.450   4.666   4.219  0.2596  0.1360 -0.3174
 8005SOL    HW331787   3.500   4.754   4.107  1.3316  0.9839  0.8063
 8005SOL    MW431788   3.456   4.744   4.181  0.3055  0.1515 -0.1399
 8006SOL     OW31789   3.933   2.188   2.502  0.0240 -0.0442  0.2781
 8006SOL    HW231790   3.950   2.094   2.497  0.1829  0.0174 -0.4189
 8006SOL    HW331791   3.938   2.208   2.596  0.6455 -0.6064  0.3736
 8006SOL    MW431792   3.936   2.178   2.514  0.4613  0.3842  0.3328
 8007SOL     OW31793   3.738   6.420   2.988  0.2535  0.9679  0.0955
 8007SOL    HW231794   3.659   6.462   2.954  0.4710  0.6972 -0.7747
 8007SOL    HW331795   3.716   6.327   2.995  0.5144  0.8763 -0.2392
 8007SOL    MW431796   3.725   6.413   2.984  0.6356  0.5685  0.6739
 8008SOL     OW31797   2.516   5.739   2.432 -0.0360 -0.2142  0.5001
 8008SOL    HW231798   2.558   5.679   2.494  1.3095 -0.2505 -0.3887
 8008SOL    HW331799   2.474   5.682   2.368 -0.7451 -0.1837  0.9355
 8008SOL    MW431800   2.516   5.723   2.432 -0.3035  0.4298  0.0546
 8009SOL     OW31801   2.455   5.587   2.202  0.1751 -0.4971 -0.4413
 8009SOL    HW231802   2.487   5.649   2.136 -2.7167  1.9575  0.2332
 8009SOL    HW331803   2.362   5.576   2.180 -0.9022  0.3978  3.0928
 8009SOL    MW431804   2.447   5.594   2.190  0.3424  0.1369  0.0069
 8010SOL     OW31805   4.295   0.294   4.459  0.1490  0.7457 -0.4373
 8010SOL    HW231806   4.217   0.335   4.495 -2.0224 -1.2852 -2.4791
 8010SOL    HW331807   4.313   0.342   4.379 -0.2033  0.0154 -0.9627
 8010SOL    MW431808   4.287   0.306   4.453 -0.5785 -0.2440 -0.2992
 8011SOL     OW31809   3.293   0.547   0.720  0.3075  0.4608 -0.1066
 8011SOL    HW231810   3.285   0.555   0.625  0.3984  0.6376 -0.0986
 8011SOL    HW331811   3.358   0.613   0.745  2.0589 -1.1523 -0.1882
 8011SOL    MW431812   3.300   0.557   0.711  0.8068 -0.4183  0.0253
 8012SOL     OW31813   1.482   2.773   0.226  0.1109 -0.2738 -0.1036
 8012SOL    HW231814   1.466   2.803   0.315  1.1186 -1.4592  0.5005
 8012SOL    HW331815   1.463   2.679   0.228 -1.3071 -0.0591 -1.5175
 8012SOL    MW431816   1.477   2.765   0.238  0.3366 -0.2477  0.3950
 8013SOL     OW31817   4.899   1.656   3.450 -0.4852  0.3792  0.2537
 8013SOL    HW231818   4.974   1.715   3.449  0.6478 -1.0017 -0.8578
 8013SOL    HW331819   4.894   1.623   3.360 -0.5486 -1.8344  1.0216
 8013SOL    MW431820   4.908   1.659   3.438  0.3909 -0.0381 -0.1878
 8014SOL     OW31821   2.311   4.071   0.599  0.2233 -0.3222 -0.2588
 8014SOL    HW231822   2.263   4.007   0.547  1.7560  0.0455 -2.2649
 8014SOL    HW331823   2.257   4.085   0.677 -1.9133 -1.3165 -1.4886
 8014SOL    MW431824   2.298   4.064   0.603  0.7262 -0.1241 -0.6362
 8015SOL     OW31825   0.862   2.997   4.894  0.6112  0.3221  0.4022
 8015SOL    HW231826   0.917   3.011   4.971  0.1231 -0.5575  0.9271
 8015SOL    HW331827   0.911   3.037   4.822  1.9043 -0.3541  0.8719
 8015SOL    MW431828   0.876   3.004   4.895  0.4920  0.1058  0.0215
 8016SOL     OW31829   5.109   2.430   0.903 -0.6022  0.7415 -0.9334
 8016SOL    HW231830   5.139   2.451   0.814  1.4963  1.0014 -0.2246
 8016SOL    HW331831   5.134   2.507   0.955  0.5020 -0.4183  0.3218
 8016SOL    MW431832   5.117   2.443   0.898 -0.8075  0.2309  0.8261
 8017SOL     OW31833   4.799   3.171   0.379  0.4560  0.0931  0.6458
 8017SOL    HW231834   4.791   3.081   0.348 -0.4635  0.5107 -0.4391
 8017SOL    HW331835   4.889   3.196   0.357  0.5795 -0.4230  0.5550
 8017SOL    MW431836   4.810   3.163   0.372  0.1050  0.0335 -0.2833
 8018SOL     OW31837   2.468   4.912   5.575  0.5666  0.6463 -0.2324
 8018SOL    HW231838   2.482   4.835   5.631 -0.2341  0.7091  0.0640
 8018SOL    HW331839   2.556   4.933   5.541  0.6723 -0.9683 -1.0826
 8018SOL    MW431840   2.482   4.905   5.578  0.2416  0.2397  0.0154
 8019SOL     OW31841   4.852   6.290   2.508 -0.2311 -0.3108  0.3192
 8019SOL    HW231842   4.759   6.304   2.526 -0.4653 -1.4835  0.1467
 8019SOL    HW331843   4.879   6.226   2.573  1.7101  3.3719  3.5348
 8019SOL    MW431844   4.843   6.283   2.519  0.0227  0.3959 -0.1824
 8020SOL     OW31845   3.555   3.874   5.424 -0.1148 -0.2567 -0.1973
 8020SOL    HW231846   3.502   3.813   5.474  0.2248  1.0349  1.8932
 8020SOL    HW331847   3.516   3.875   5.337 -1.0099 -2.3046  0.1350
 8020SOL    MW431848   3.543   3.866   5.419 -0.3158 -0.5841  0.3479
 8021SOL     OW31849   2.031   5.537   5.885  0.2141 -0.6183 -0.7743
 8021SOL    HW231850   2.117   5.562   5.850  0.9567 -1.6999  0.1705
 8021SOL    HW331851   2.007   5.609   5.943  1.2168 -0.9737  0.1225
 8021SOL    MW431852   2.039   5.550   5.888  0.1534 -0.0926 -0.1057
 8022SOL     OW31853   5.210   1.946   2.945 -0.0736 -0.0335  0.3823
 8022SOL    HW231854   5.152   2.019   2.924  0.2136  0.2483  0.5501
 8022SOL    HW331855   5.247   1.920   2.861  0.6121  0.6970  0.4471
 8022SOL    MW431856   5.207   1.952   2.931 -0.0938 -0.7582  0.1332
 8023SOL     OW31857   0.446   3.465   0.250  0.3304 -0.0887  0.2447
 8023SOL    HW231858   0.506   3.539   0.245  1.5107 -1.0524 -0.1434
 8023SOL    HW331859   0.501   3.388   0.244 -0.6952 -1.0757  2.2750
 8023SOL    MW431860   0.461   3.465   0.249  0.2800 -0.0103 -0.2193
 8024SOL     OW31861   4.283   2.058   2.539 -0.5553 -0.3625  0.4850
 8024SOL    HW231862   4.340   1.981   2.548 -1.3472 -0.7198  4.5382
 8024SOL    HW331863   4.339   2.126   2.502  0.6023 -2.3782 -1.7312
 8024SOL    MW431864   4.298   2.057   2.535 -0.0275 -0.1968  0.0051
 8025SOL     OW31865   2.994   1.342   4.439  0.0822  0.0883 -0.0431
 8025SOL    HW231866   2.902   1.365   4.426 -0.1540 -0.6482  0.2847
 8025SOL    HW331867   3.040   1.426   4.443 -0.2326  0.4447 -2.5133
 8025SOL    MW431868   2.988   1.356   4.438 -1.1134  0.4134  0.8740
 8026SOL     OW31869   2.641   2.860   3.893  0.3352  0.0367  0.0296
 8026SOL    HW231870   2.575   2.926   3.913  0.1418 -0.0493 -0.3207
 8026SOL    HW331871   2.712   2.877   3.955 -0.6610 -0.8441  1.4437
 8026SOL    MW431872   2.642   2.871   3.904  0.2444 -0.1096 -0.0021
 8027SOL     OW31873   5.811   2.946   0.723  0.1540  0.0193 -0.8150
 8027SOL    HW231874   5.763   3.009   0.670 -0.7665 -0.6878 -0.8307
 8027SOL    HW331875   5.799   2.977   0.813 -0.5916 -0.3235 -0.7928
 8027SOL    MW431876   5.803   2.958   0.728  0.0200 -0.2708 -0.7908
 8028SOL     OW31877   3.183   2.883   0.233  0.4887 -0.2321 -0.0274
 8028SOL    HW231878   3.184   2.948   0.303  0.8109  0.3717 -0.5819
 8028SOL    HW331879   3.220   2.929   0.157 -2.2040 -0.0103 -1.3302
 8028SOL    MW431880   3.188   2.898   0.232  0.1821  0.3428 -0.0470
 8029SOL     OW31881   3.929   1.914   2.565  0.7586  0.3137 -0.2437
 8029SOL    HW231882   3.851   1.907   2.619  0.6294 -1.7831 -0.6300
 8029SOL    HW331883   3.997   1.868   2.615  0.8507 -0.9174 -1.4545
 8029SOL    MW431884   3.928   1.907   2.579 -0.1569  0.1324 -0.1785
 8030SOL     OW31885   5.685   4.484   2.680  0.4505 -0.7068  0.0869
 8030SOL    HW231886   5.630   4.476   2.602 -0.7047 -1.1408  0.9218
 8030SOL    HW331887   5.644   4.553   2.731  2.5333  1.2414 -0.7175
 8030SOL    MW431888   5.672   4.492   2.677  0.0885  0.5116  0.1741
 8031SOL     OW31889   5.517   2.340   4.709  0.1837  0.2125 -0.1599
 8031SOL    HW231890   5.606   2.364   4.733  0.7805  0.5077 -2.4462
 8031SOL    HW331891   5.508   2.248   4.735  1.1448  0.1867  0.0872
 8031SOL    MW431892   5.527   2.331   4.715  0.0812  0.2680  0.3153
 8032SOL     OW31893   1.860   5.767   4.729 -0.2743 -0.0093 -0.5899
 8032SOL    HW231894   1.852   5.814   4.812  0.8347  0.1148 -0.5334
 8032SOL    HW331895   1.780   5.715   4.722  0.3902 -1.4437  1.4684
 8032SOL    MW431896   1.848   5.766   4.739 -0.1640 -0.6368  0.0795
 8033SOL     OW31897   4.143   0.345   1.927 -0.4754  0.7977  0.1501
 8033SOL    HW231898   4.184   0.271   1.970  1.7576  1.8222 -0.0345
 8033SOL    HW331899   4.192   0.355   1.845 -0.8208  2.3386  0.0919
 8033SOL    MW431900   4.155   0.337   1.922 -0.3087  0.2671  0.1209
 8034SOL     OW31901   3.549   1.629   4.642 -0.9051 -0.3077  0.1269
 8034SOL    HW231902   3.508   1.707   4.604  0.1400  0.0590 -0.2884
 8034SOL    HW331903   3.617   1.663   4.700 -0.5098 -0.9057  0.0201
 8034SOL    MW431904   3.553   1.644   4.644  0.3959 -0.2240 -0.5282
 8035SOL     OW31905   1.627   3.602   6.125 -0.0996  0.2891 -0.1093
 8035SOL    HW231906   1.541   3.640   6.146 -1.5739 -1.1522 -2.9093
 8035SOL    HW331907   1.648   3.547   6.201 -1.0465  1.5621  1.1396
 8035SOL    MW431908   1.618   3.600   6.138  0.2419  0.4882  0.0291
 8036SOL     OW31909   0.126   2.399   0.021  0.4516  0.4271  0.1391
 8036SOL    HW231910   0.179   2.322   0.042  0.6162  1.0065  2.0960
 8036SOL    HW331911   0.187   2.472   0.023  0.1586  0.7138 -0.9474
 8036SOL    MW431912   0.141   2.399   0.024 -0.0959 -0.6964  0.5053
 8037SOL     OW31913   3.382   1.998   0.909 -0.5996 -0.3365  0.1923
 8037SOL    HW231914   3.320   2.024   0.841  0.2320  1.3026  0.0133
 8037SOL    HW331915   3.426   1.921   0.873  0.0087  0.6540 -1.2700
 8037SOL    MW431916   3.379   1.992   0.895  0.0477  0.3181  0.1518
 8038SOL     OW31917   5.407   3.797   0.957 -0.3549  0.6038  0.0034
 8038SOL    HW231918   5.409   3.704   0.978  0.1880  0.6440  0.1306
 8038SOL    HW331919   5.331   3.807   0.899  0.5219 -0.1826 -1.3132
 8038SOL    MW431920   5.397   3.786   0.952 -0.1988  0.5693 -0.1577
 8039SOL     OW31921   1.565   0.757   2.946  0.1671  0.2322  0.2344
 8039SOL    HW231922   1.599   0.840   2.981  4.3200  0.7303 -4.0535
 8039SOL    HW331923   1.491   0.782   2.891  0.2991  0.8670  0.3415
 8039SOL    MW431924   1.559   0.771   2.944 -0.3767  0.6134  0.5672
 8040SOL     OW31925   4.215   0.088   0.986  0.1673  0.3560 -0.1704
 8040SOL    HW231926   4.151   0.136   0.933 -1.0579 -0.6724  0.3346
 8040SOL    HW331927   4.261   0.032   0.923  1.6187  2.0947 -0.7677
 8040SOL    MW431928   4.213   0.087   0.970  0.5941 -0.4525  0.1429
 8041SOL     OW31929   4.607   4.778   0.316  0.1670 -0.4211 -0.1053
 8041SOL    HW231930   4.528   4.734   0.284 -0.4850 -0.0188  0.9024
 8041SOL    HW331931   4.606   4.762   0.410 -0.7575  2.7132  0.5103
 8041SOL    MW431932   4.596   4.770   0.324 -0.0762  0.4453  0.2160
 8042SOL     OW31933   6.382   4.264   3.407  0.2577  0.1299  0.6900
 8042SOL    HW231934   6.356   4.258   3.499 -1.2563  1.4827  0.3803
 8042SOL    HW331935   6.347   4.184   3.367  0.5107 -0.2315  1.1723
 8042SOL    MW431936   6.374   4.252   3.414 -0.4256 -0.0820 -0.1220
 8043SOL     OW31937   5.861   1.510   1.524 -0.1960 -0.1246  0.7170
 8043SOL    HW231938   5.865   1.435   1.584 -0.6084 -1.1795 -0.5429
 8043SOL    HW331939   5.768   1.526   1.512 -0.1419 -0.6478 -0.5070
 8043SOL    MW431940   5.849   1.502   1.531  0.1056  0.1143  0.4691
 8044SOL     OW31941   3.750   1.664   6.284  0.0902  0.5139 -0.1903
 8044SOL    HW231942   3.808   1.715   6.341  0.0549 -0.0235  0.3440
 8044SOL    HW331943   3.706   1.602   6.344 -1.1412  0.9972 -0.5545
 8044SOL    MW431944   3.752   1.662   6.300  0.5806 -0.0510 -0.0303
 8045SOL     OW31945   4.353   1.203   0.096  0.2045  0.5367  0.3354
 8045SOL    HW231946   4.387   1.196   0.185 -1.7098  1.4063  1.2028
 8045SOL    HW331947   4.390   1.284   0.062  1.8993 -0.3960 -0.1580
 8045SOL    MW431948   4.362   1.212   0.103  0.1779  0.0193  0.5005
 8046SOL     OW31949   0.249   4.631   2.301  0.2369 -0.7103  0.4945
 8046SOL    HW231950   0.344   4.630   2.300  0.2470 -0.2078 -0.4224
 8046SOL    HW331951   0.224   4.540   2.316  0.8691 -1.1037 -0.7067
 8046SOL    MW431952   0.258   4.619   2.303 -0.1229 -0.5531 -0.2110
 8047SOL     OW31953   4.731   6.452   4.909 -0.4572 -0.1129 -0.3765
 8047SOL    HW231954   4.738   6.544   4.933 -3.8551 -0.0264  0.7667
 8047SOL    HW331955   4.784   6.406   4.974  3.0065  0.9688 -2.1461
 8047SOL    MW431956   4.739   6.458   4.920 -0.2879  0.1310 -0.3951
 8048SOL     OW31957   0.620   1.606   1.609 -0.1036 -0.1949  0.1776
 8048SOL    HW231958   0.598   1.517   1.584 -0.5372 -0.5685  1.7450
 8048SOL    HW331959   0.570   1.662   1.550 -0.6988 -1.0011 -0.0867
 8048SOL    MW431960   0.611   1.602   1.598  0.1239 -0.2105  0.4096
 8049SOL     OW31961   0.115   3.941   5.350  0.0962 -0.0134  0.0776
 8049SOL    HW231962   0.148   4.031   5.347 -0.1367  0.1367  1.2456
 8049SOL    HW331963   0.138   3.903   5.265  0.8099  0.9368 -0.1660
 8049SOL    MW431964   0.123   3.948   5.339  0.0720  0.1670  0.2769
 8050SOL     OW31965   4.152   0.464   3.649 -0.4277  0.1863 -0.1316
 8050SOL    HW231966   4.072   0.513   3.627 -1.0947  0.1263  1.8998
 8050SOL    HW331967   4.219   0.531   3.659 -1.0012  0.6165  1.2054
 8050SOL    MW431968   4.150   0.479   3.648  0.1461  0.1193  0.1354
 8051SOL     OW31969   2.009   0.662   1.200  0.3216  0.1623 -0.5854
 8051SOL    HW231970   1.953   0.642   1.125 -0.7706 -0.1939  0.3082
 8051SOL    HW331971   2.072   0.726   1.166 -2.2207  2.6120 -1.0005
 8051SOL    MW431972   2.010   0.668   1.185 -0.2553 -0.4550 -0.4937
 8052SOL     OW31973   4.427   5.979   0.988 -0.2430 -0.1321 -0.0298
 8052SOL    HW231974   4.373   6.022   1.055 -2.1356 -0.8808 -0.9920
 8052SOL    HW331975   4.444   5.892   1.024  1.2518  0.4213  0.7072
 8052SOL    MW431976   4.422   5.973   1.002  0.2252 -0.0106 -0.7918
 8053SOL     OW31977   0.526   3.744   4.070  0.1178  0.3690  0.2354
 8053SOL    HW231978   0.511   3.654   4.042 -1.1685  0.7588 -0.4412
 8053SOL    HW331979   0.621   3.754   4.071  0.2629 -0.9216  0.0951
 8053SOL    MW431980   0.536   3.734   4.066  0.3223 -0.0554 -0.5016
 8054SOL     OW31981   4.865   0.362   0.587 -0.2316 -0.0043 -0.2990
 8054SOL    HW231982   4.952   0.321   0.590 -0.8963 -1.6436 -1.8114
 8054SOL    HW331983   4.817   0.311   0.523 -2.6084  0.3484  1.0971
 8054SOL    MW431984   4.870   0.350   0.579  0.2765  0.4638 -0.2509
 8055SOL     OW31985   5.981   0.669   6.289 -0.0437 -0.2866  0.0487
 8055SOL    HW231986   5.968   0.657   6.383  0.1754 -1.6201 -0.0697
 8055SOL    HW331987   6.075   0.685   6.280 -0.2791  1.3099  0.1698
 8055SOL    MW431988   5.992   0.670   6.300 -0.0721  0.2646  0.1538
 8056SOL     OW31989   5.954   3.376   1.939  0.2907 -0.5273 -0.2590
 8056SOL    HW231990   5.869   3.348   1.972  0.3900 -0.8844 -0.3042
 8056SOL    HW331991   5.946   3.371   1.844  0.4139 -0.7073 -0.2587
 8056SOL    MW431992   5.942   3.372   1.931 -0.3434  0.0111  0.0065
 8057SOL     OW31993   2.581   3.489   1.731 -0.1406  0.0758  0.0776
 8057SOL    HW231994   2.527   3.457   1.658 -0.4799 -0.5689  0.6106
 8057SOL    HW331995   2.534   3.567   1.762 -0.1157  0.2212 -0.2359
 8057SOL    MW431996   2.568   3.495   1.725  0.2158  0.2299 -0.7295
 8058SOL     OW31997   3.863   5.194   4.762  0.1134 -0.2830  0.2841
 8058SOL    HW231998   3.820   5.162   4.841  2.8825 -0.0715  2.0240
 8058SOL    HW331999   3.949   5.152   4.763  1.0362  1.3992 -1.4414
 8058SOL    MW432000   3.869   5.184   4.773 -0.3343 -0.3683 -0.4519
 8059SOL     OW32001   1.870   2.947   0.900  0.7519 -0.4994  0.2311
 8059SOL    HW232002   1.929   2.938   0.825 -0.1365  0.8441 -0.6677
 8059SOL    HW332003   1.905   3.021   0.949 -0.6284  0.8685 -0.7788
 8059SOL    MW432004   1.883   2.956   0.896  0.0584  0.1401 -0.3171
 8060SOL     OW32005   4.318   2.231   0.631  0.5294 -0.2889  0.0532
 8060SOL    HW232006   4.340   2.174   0.704 -0.6275  0.1684  0.7741
 8060SOL    HW332007   4.310   2.172   0.556 -0.6960 -1.0944  0.7968
 8060SOL    MW432008   4.320   2.216   0.631  0.1529  0.0937  0.0847
 8061SOL     OW32009   4.180   1.022   4.672 -0.7078  0.1906 -0.2813
 8061SOL    HW232010   4.136   1.064   4.598 -2.4568 -0.3797  0.3941
 8061SOL    HW332011   4.142   1.063   4.749  0.0248 -0.2677  0.3375
 8061SOL    MW432012   4.169   1.033   4.672  0.1507  0.4214  0.6491
 8062SOL     OW32013   6.252   6.172   5.770  0.0275  0.0251 -0.1669
 8062SOL    HW232014   6.248   6.132   5.682 -1.3137 -0.9346  0.2864
 8062SOL    HW332015   6.163   6.203   5.785 -0.3846 -1.8493  1.7180
 8062SOL    MW432016   6.240   6.171   5.760 -0.2412  0.6530 -0.3145
 8063SOL     OW32017   1.254   2.110   0.484  0.4826  0.0129  0.0001
 8063SOL    HW232018   1.326   2.057   0.451 -0.0658 -0.7347 -0.0174
 8063SOL    HW332019   1.177   2.054   0.477  0.0219  0.5273  0.7160
 8063SOL    MW432020   1.253   2.096   0.479 -0.4104  0.4811 -0.2109
 8064SOL     OW32021   5.847   4.434   0.489  0.3122  0.2759  0.0250
 8064SOL    HW232022   5.834   4.412   0.581  1.1220 -0.2429  0.0316
 8064SOL    HW332023   5.940   4.415   0.474  0.1725  0.3085 -0.9063
 8064SOL    MW432024   5.858   4.428   0.499 -0.4147  0.1853  0.0896
 8065SOL     OW32025   4.691   3.700   1.904  0.7093 -0.5373 -0.5560
 8065SOL    HW232026   4.722   3.628   1.957 -0.7889 -0.6387  0.2469
 8065SOL    HW332027   4.751   3.772   1.922  0.6786 -0.8134  0.6787
 8065SOL    MW432028   4.703   3.700   1.913 -0.4029 -0.5692  0.1225
 8066SOL     OW32029   2.799   6.100   5.917 -0.3013  0.0902 -0.0020
 8066SOL    HW232030   2.757   6.185   5.930  0.3494  0.5302 -0.7200
 8066SOL    HW332031   2.829   6.101   5.826 -0.3463 -0.9397 -0.0449
 8066SOL    MW432032   2.798   6.111   5.907  0.1287  0.4808 -0.0803
 8067SOL     OW32033   1.782   5.160   5.555 -0.0091 -0.2011  0.4491
 8067SOL    HW232034   1.814   5.152   5.465  2.3936  0.0282  1.2091
 8067SOL    HW332035   1.717   5.230   5.552 -0.0708 -0.3023 -1.1198
 8067SOL    MW432036   1.778   5.168   5.543  0.1747 -0.6651 -0.1117
 8068SOL     OW32037   2.801   3.536   3.788 -0.5168  0.1290 -0.1162
 8068SOL    HW232038   2.718   3.577   3.809 -0.3801 -0.2169  1.1548
 8068SOL    HW332039   2.848   3.532   3.871  0.5395 -0.1965 -0.7130
 8068SOL    MW432040   2.796   3.541   3.801 -0.3513 -1.2270  0.0418
 8069SOL     OW32041   4.476   5.155   1.806 -0.0203  0.2998 -0.1293
 8069SOL    HW232042   4.556   5.112   1.777  0.6594  0.2596  1.6663
 8069SOL    HW332043   4.405   5.101   1.771  0.7435 -0.1431 -1.0332
 8069SOL    MW432044   4.477   5.143   1.797 -0.2411 -0.2687 -0.1951
 8070SOL     OW32045   5.516   1.254   1.361 -0.0708 -0.1883 -0.2300
 8070SOL    HW232046   5.592   1.196   1.351 -0.7937 -1.3167  0.6329
 8070SOL    HW332047   5.477   1.228   1.444 -2.1200 -0.4863 -1.2363
 8070SOL    MW432048   5.521   1.243   1.371 -0.2095  0.4482 -0.3409
 8071SOL     OW32049   2.839   3.900   1.700 -0.2532  0.1300  0.0543
 8071SOL    HW232050   2.842   3.905   1.795  1.8239 -0.2940  0.0616
 8071SOL    HW332051   2.754   3.860   1.681 -0.0001 -1.4319  1.8442
 8071SOL    MW432052   2.829   3.895   1.710  0.2326 -0.0494  0.2128
 8072SOL     OW32053   2.916   1.737   1.447 -0.5151  0.0526 -0.1500
 8072SOL    HW232054   2.953   1.682   1.516 -0.6351  2.8434  2.3460
 8072SOL    HW332055   2.824   1.711   1.442 -0.6031  0.0659  1.0653
 8072SOL    MW432056   2.909   1.726   1.455 -0.3558  0.4756 -0.2431
 8073SOL     OW32057   0.613   2.925   3.699  0.4547 -0.0355  0.0266
 8073SOL    HW232058   0.567   2.865   3.759  1.9364 -0.2800  0.9637
 8073SOL    HW332059   0.578   2.904   3.613  0.8974 -2.2421  0.3287
 8073SOL    MW432060   0.602   2.915   3.696 -0.5046  0.3266  0.1255
 8074SOL     OW32061   4.399   0.716   5.622  0.3076  0.3099  0.3121
 8074SOL    HW232062   4.402   0.644   5.685 -3.4203 -0.3890 -0.1180
 8074SOL    HW332063   4.408   0.674   5.537 -1.6922  0.2771  0.0711
 8074SOL    MW432064   4.401   0.701   5.619 -0.0240  0.2992  0.6522
 8075SOL     OW32065   5.599   4.795   4.806  0.3692  0.2704 -0.9234
 8075SOL    HW232066   5.608   4.770   4.897  0.2149  0.4172 -0.8654
 8075SOL    HW332067   5.597   4.713   4.758  1.3271  0.2191 -0.8825
 8075SOL    MW432068   5.600   4.781   4.811 -0.4022  0.6668 -0.1828
 8076SOL     OW32069   5.835   2.355   2.346  0.0306  0.7274 -0.1770
 8076SOL    HW232070   5.849   2.266   2.377  0.6495  0.1979 -1.8624
 8076SOL    HW332071   5.740   2.361   2.333 -0.3711  1.2470  2.4613
 8076SOL    MW432072   5.824   2.344   2.348  0.2331 -0.7492  0.4623
 8077SOL     OW32073   1.983   6.462   0.612 -0.1967 -0.2059  0.0373
 8077SOL    HW232074   1.994   6.367   0.621  1.5412 -0.1166 -0.7151
 8077SOL    HW332075   2.069   6.494   0.587 -0.6128  1.6686  0.8099
 8077SOL    MW432076   1.996   6.454   0.610 -0.3235  0.4856 -0.1862
 8078SOL     OW32077   4.331   1.713   2.484 -0.3110 -0.0344 -0.0396
 8078SOL    HW232078   4.276   1.740   2.557 -0.1219 -0.6840  0.3546
 8078SOL    HW332079   4.390   1.647   2.521  0.1909  0.0631 -0.6387
 8078SOL    MW432080   4.332   1.708   2.498  0.3016 -0.5954  0.5098
 8079SOL     OW32081   6.029   0.390   1.524  0.5915  0.2391 -0.6134
 8079SOL    HW232082   6.057   0.425   1.439  1.1965  0.1039 -0.4769
 8079SOL    HW332083   6.111   0.368   1.569  0.2643 -2.0895 -1.0182
 8079SOL    MW432084   6.044   0.391   1.519 -0.3303  0.4153  0.0185
 8080SOL     OW32085   5.710   4.682   0.511  0.1765 -0.0703  0.3312
 8080SOL    HW232086   5.761   4.602   0.516 -1.3610 -1.0780  0.6631
 8080SOL    HW332087   5.638   4.661   0.450 -0.6872  0.7712  1.0239
 8080SOL    MW432088   5.707   4.669   0.504 -0.4262 -0.2759  0.1990
 8081SOL     OW32089   3.482   3.015   5.396  0.6105 -0.4391 -0.4410
 8081SOL    HW232090   3.502   3.094   5.445  1.4343 -2.2253  2.2771
 8081SOL    HW332091   3.551   3.009   5.330  2.3540 -0.4279  1.3028
 8081SOL    MW432092   3.494   3.025   5.394  1.0633 -0.9050 -0.6218
 8082SOL     OW32093   0.526   4.369   1.853  0.3405 -0.0290  0.2030
 8082SOL    HW232094   0.465   4.437   1.881  0.6209  0.0960  0.5137
 8082SOL    HW332095   0.549   4.393   1.763 -1.7766 -1.2784 -0.7651
 8082SOL    MW432096   0.521   4.381   1.844  0.3966 -0.2846 -0.0445
 8083SOL     OW32097   5.237   4.966   0.480 -0.0537 -0.3781 -0.0099
 8083SOL    HW232098   5.285   4.908   0.539 -0.1808 -0.8272 -0.3400
 8083SOL    HW332099   5.229   4.916   0.399 -2.6913 -1.1022  0.5964
 8083SOL    MW432100   5.242   4.952   0.477  0.3360  0.6270 -0.3516
 8084SOL     OW32101   5.365   1.580   4.744  0.0504 -0.6984 -0.0243
 8084SOL    HW232102   5.287   1.619   4.704  0.5256  2.1978  1.5773
 8084SOL    HW332103   5.437   1.635   4.713  1.0696 -1.5538  0.7749
 8084SOL    MW432104   5.364   1.593   4.734 -0.1842  0.1092 -0.4130
 8085SOL     OW32105   3.932   1.067   6.309 -0.0554  0.3465  0.6509
 8085SOL    HW232106   3.894   1.142   6.263 -0.2532 -0.2842 -0.2436
 8085SOL    HW332107   4.027   1.080   6.301 -0.0894  0.2420  0.0553
 8085SOL    MW432108   3.940   1.079   6.302 -0.0404  0.1266 -0.0554
 8086SOL     OW32109   1.373   3.688   6.201  0.2905  0.3290 -0.1003
 8086SOL    HW232110   1.289   3.653   6.169  0.6127 -0.7111  0.1413
 8086SOL    HW332111   1.376   3.778   6.169 -1.1307  0.5340  0.2784
 8086SOL    MW432112   1.362   3.695   6.193  0.3538 -0.0687  0.0866
 8087SOL     OW32113   4.206   2.526   4.035  0.5193 -0.1614  0.6613
 8087SOL    HW232114   4.262   2.544   3.960  1.0384 -0.6752  0.9187
 8087SOL    HW332115   4.267   2.516   4.108  0.3813 -3.5959  0.4588
 8087SOL    MW432116   4.221   2.527   4.035 -0.2491  0.1309 -0.2143
 8088SOL     OW32117   3.058   5.811   1.811  0.0233  0.1976 -0.6493
 8088SOL    HW232118   3.140   5.765   1.796 -0.5633 -0.9089 -0.6086
 8088SOL    HW332119   2.998   5.743   1.843 -0.2167  1.4295  1.7417
 8088SOL    MW432120   3.061   5.796   1.813  0.2635  0.3473  0.0124
 8089SOL     OW32121   5.951   1.989   2.790  0.1332 -0.4390 -0.0551
 8089SOL    HW232122   5.891   2.046   2.837 -0.6744  0.3089 -1.8864
 8089SOL    HW332123   5.896   1.918   2.756  0.6436 -0.8217 -0.0977
 8089SOL    MW432124   5.936   1.987   2.792 -0.5457  0.1187  0.5674
 8090SOL     OW32125   0.640   3.484   2.060  0.0122 -0.2174 -0.4729
 8090SOL    HW232126   0.701   3.433   2.006  1.1798  0.9572 -0.3266
 8090SOL    HW332127   0.665   3.463   2.150  0.2865  0.3491 -0.4126
 8090SOL    MW432128   0.652   3.474   2.065 -0.1265 -0.1877  0.6404
 8091SOL     OW32129   3.108   3.023   2.173 -0.2241  0.0443  0.3193
 8091SOL    HW232130   3.115   3.118   2.181  1.2834  0.0438 -0.6814
 8091SOL    HW332131   3.147   3.003   2.089 -0.5539 -1.4813  0.4987
 8091SOL    MW432132   3.114   3.033   2.163 -0.5371 -0.5159 -0.3919
 8092SOL     OW32133   5.568   4.742   0.215  0.0690 -0.8263  0.0684
 8092SOL    HW232134   5.648   4.786   0.188 -0.6587  0.0541 -0.6903
 8092SOL    HW332135   5.497   4.797   0.181 -0.8704 -1.0226  1.6104
 8092SOL    MW432136   5.569   4.755   0.207  0.2914 -0.0112 -0.3355
 8093SOL     OW32137   2.253   4.735   2.569 -0.2575 -0.0837 -0.2763
 8093SOL    HW232138   2.294   4.793   2.506  0.8591 -0.8547 -0.2935
 8093SOL    HW332139   2.225   4.792   2.641  1.3718  0.4261  0.0000
 8093SOL    MW432140   2.255   4.750   2.570 -0.0777 -0.4272  0.6528
 8094SOL     OW32141   0.514   5.398   2.312  0.0657  0.0421 -0.1355
 8094SOL    HW232142   0.484   5.443   2.391  0.7853  1.1424 -0.4634
 8094SOL    HW332143   0.466   5.316   2.312  0.1653 -0.0525  1.5236
 8094SOL    MW432144   0.503   5.393   2.322  0.2725  0.1009  0.1884
 8095SOL     OW32145   5.689   5.649   4.327  0.3908  0.0795  0.4261
 8095SOL    HW232146   5.606   5.635   4.372 -0.3145  0.3308 -0.7367
 8095SOL    HW332147   5.756   5.629   4.392 -0.5804 -0.2321  1.3563
 8095SOL    MW432148   5.687   5.644   4.341 -0.1995 -0.0242 -0.0617
 8096SOL     OW32149   1.053   0.490   6.313  0.1954  0.0520 -0.1783
 8096SOL    HW232150   1.117   0.493   6.384  1.8352 -0.3093 -1.5699
 8096SOL    HW332151   0.985   0.430   6.345  0.3799  0.6447  1.4387
 8096SOL    MW432152   1.052   0.482   6.327 -0.0948 -0.2444  0.3618
 8097SOL     OW32153   5.831   1.563   1.068 -0.4083 -0.5061  0.0525
 8097SOL    HW232154   5.891   1.629   1.034  0.9441 -1.9772 -0.5598
 8097SOL    HW332155   5.758   1.613   1.105 -0.0873  1.2673 -1.5698
 8097SOL    MW432156   5.829   1.578   1.068 -0.3001 -0.0478 -0.1538
 8098SOL     OW32157   0.396   0.387   4.507  0.9057 -0.1997 -0.4479
 8098SOL    HW232158   0.442   0.308   4.537 -1.4964 -1.6988 -0.4547
 8098SOL    HW332159   0.313   0.354   4.472 -0.4964  2.4252  0.2128
 8098SOL    MW432160   0.391   0.372   4.506  0.0610  0.5316 -0.4963
 8099SOL     OW32161   1.447   2.522   2.588  0.0837  0.1186 -0.2089
 8099SOL    HW232162   1.493   2.536   2.672 -1.4079  0.0853  0.6416
 8099SOL    HW332163   1.471   2.433   2.562 -0.5338 -0.3987  0.9164
 8099SOL    MW432164   1.457   2.512   2.596 -0.7729 -0.1956 -0.0761
 8100SOL     OW32165   3.710   5.593   2.534 -0.6585 -0.2774  0.6443
 8100SOL    HW232166   3.731   5.614   2.625 -0.1144  1.3997  0.1623
 8100SOL    HW332167   3.639   5.654   2.511  1.5424  1.8180 -1.0611
 8100SOL    MW432168   3.703   5.604   2.543  0.1134 -0.2288  0.3912
 8101SOL     OW32169   6.019   5.865   3.342 -0.1045  0.2056  0.3004
 8101SOL    HW232170   5.996   5.794   3.402 -1.3425 -1.4375 -1.9588
 8101SOL    HW332171   6.108   5.844   3.313 -0.1932 -0.0124  0.1834
 8101SOL    MW432172   6.028   5.853   3.346 -0.7081  0.0486 -0.0870
 8102SOL     OW32173   3.005   5.091   2.177 -0.2350  0.2447  0.0393
 8102SOL    HW232174   3.030   5.110   2.087 -0.2984 -0.9473 -0.2482
 8102SOL    HW332175   3.024   5.171   2.225  0.9770  0.4850 -0.8033
 8102SOL    MW432176   3.011   5.104   2.171  0.2306  0.1226 -0.1646
 8103SOL     OW32177   0.923   3.977   5.549  0.3629  0.1591  0.1333
 8103SOL    HW232178   0.882   3.968   5.635  0.5146 -0.8561  0.1173
 8103SOL    HW332179   1.011   4.012   5.568  1.0078 -1.5893  0.5681
 8103SOL    MW432180   0.929   3.980   5.563 -0.1865 -0.3651  0.0495
 8104SOL     OW32181   3.417   3.496   5.532 -0.3500 -0.1349 -0.0789
 8104SOL    HW232182   3.334   3.447   5.530  0.7039 -2.0185 -0.2192
 8104SOL    HW332183   3.440   3.508   5.440  1.7780 -3.8399 -0.2378
 8104SOL    MW432184   3.409   3.491   5.520 -0.1447 -0.0660 -0.3159
 8105SOL     OW32185   3.444   5.749   5.557  0.0551 -1.0234  0.7200
 8105SOL    HW232186   3.419   5.709   5.640  0.7791 -0.1016  1.3965
 8105SOL    HW332187   3.425   5.682   5.491 -1.8756 -1.2744  1.4486
 8105SOL    MW432188   3.438   5.735   5.559  0.1790 -0.1579 -0.6030
 8106SOL     OW32189   0.835   2.508   3.762  0.1658  0.3809  0.2634
 8106SOL    HW232190   0.748   2.507   3.722 -0.0421  0.8572  0.6895
 8106SOL    HW332191   0.845   2.597   3.795  0.3418  0.0008  1.2485
 8106SOL    MW432192   0.825   2.520   3.761 -0.0062 -0.6195 -0.1845
 8107SOL     OW32193   3.167   3.960   4.000  0.1273  0.4953  0.1619
 8107SOL    HW232194   3.217   3.991   4.076  0.5064  0.5894 -0.1190
 8107SOL    HW332195   3.190   4.022   3.930 -1.1810  1.1573  0.2873
 8107SOL    MW432196   3.177   3.973   4.001  0.3204  0.3063 -1.0448
 8108SOL     OW32197   4.666   5.788   5.922 -0.1836 -0.2787 -0.7727
 8108SOL    HW232198   4.620   5.727   5.979  1.5991 -1.2758 -0.3127
 8108SOL    HW332199   4.739   5.821   5.976 -0.8709  2.0160 -1.1272
 8108SOL    MW432200   4.670   5.784   5.937  0.4306  0.5019 -0.2054
 8109SOL     OW32201   6.383   0.602   1.651 -0.0864  0.7183  0.3644
 8109SOL    HW232202   6.304   0.655   1.662 -0.2429  0.5805 -0.0596
 8109SOL    HW332203   6.410   0.581   1.740 -0.8104  0.3644  0.5126
 8109SOL    MW432204   6.376   0.606   1.664  0.3347 -0.0838  0.0817
 8110SOL     OW32205   1.519   5.158   4.888 -0.1105  0.0421  0.2746
 8110SOL    HW232206   1.526   5.234   4.829 -0.7121  0.5181  0.7941
 8110SOL    HW332207   1.563   5.186   4.968  0.7857 -0.6360  0.0320
 8110SOL    MW432208   1.525   5.172   4.891  0.6251  0.5782  0.1713
 8111SOL     OW32209   1.625   4.163   1.537 -0.2894 -0.2886  0.2981
 8111SOL    HW232210   1.529   4.169   1.542 -0.1680  1.2855  1.1128
 8111SOL    HW332211   1.640   4.092   1.474 -2.0012  0.9261 -1.6302
 8111SOL    MW432212   1.614   4.154   1.529 -0.5734  0.0413  0.8547
 8112SOL     OW32213   3.757   3.080   6.091 -0.1127 -0.2424 -0.0089
 8112SOL    HW232214   3.834   3.029   6.067  0.4594  1.2834 -1.7001
 8112SOL    HW332215   3.778   3.169   6.062 -2.7484  0.1148 -1.0897
 8112SOL    MW432216   3.770   3.085   6.084 -0.1263 -0.0048  0.0698
 8113SOL     OW32217   0.156   4.248   4.699 -0.5023 -0.6079  0.0702
 8113SOL    HW232218   0.156   4.185   4.771  2.2786  1.7039  2.3527
 8113SOL    HW332219   0.085   4.308   4.720 -0.3725 -0.5461  0.3474
 8113SOL    MW432220   0.147   4.247   4.711 -0.0680  0.1761 -0.6766
 8114SOL     OW32221   2.755   3.631   1.095  0.1343 -0.0734 -0.0965
 8114SOL    HW232222   2.763   3.619   1.000 -0.9286 -0.5068 -0.1421
 8114SOL    HW332223   2.743   3.543   1.130  0.5798  0.0761  0.4565
 8114SOL    MW432224   2.755   3.618   1.087  0.1338 -0.0326 -0.0862
 8115SOL     OW32225   4.153   5.662   0.755 -0.7640 -0.0320  0.1229
 8115SOL    HW232226   4.236   5.710   0.747 -0.7363 -0.0517  0.2964
 8115SOL    HW332227   4.086   5.730   0.743 -0.7244  0.0380  0.2911
 8115SOL    MW432228   4.155   5.678   0.752 -0.3757 -0.3156  0.0120
 8116SOL     OW32229   4.916   0.699   6.010 -0.2604 -0.2831 -0.0414
 8116SOL    HW232230   4.828   0.678   6.041 -0.2048  0.6388  0.7940
 8116SOL    HW332231   4.940   0.624   5.955 -0.6567 -1.6438  1.5484
 8116SOL    MW432232   4.907   0.686   6.007  0.1239  0.0115 -0.1774
 8117SOL     OW32233   1.280   1.708   0.585 -0.9172  0.3527  0.4811
 8117SOL    HW232234   1.356   1.755   0.620  0.3285 -0.7589 -0.6512
 8117SOL    HW332235   1.213   1.719   0.653  0.9673 -0.6281  2.6362
 8117SOL    MW432236   1.281   1.716   0.599 -0.3173 -0.0583 -0.3213
 8118SOL     OW32237   3.409   2.633   5.781  0.1224 -0.2439 -0.0857
 8118SOL    HW232238   3.407   2.709   5.839  1.8899 -0.6323  0.5454
 8118SOL    HW332239   3.429   2.668   5.695  3.8361 -0.1274  0.6733
 8118SOL    MW432240   3.411   2.648   5.777  0.1860  0.4025  0.3041
 8119SOL     OW32241   4.691   0.926   0.839  0.2059  0.1037  0.4000
 8119SOL    HW232242   4.698   0.909   0.933 -4.7151 -2.5801  0.6118
 8119SOL    HW332243   4.712   0.843   0.797  0.6281  0.7777 -0.7865
 8119SOL    MW432244   4.695   0.913   0.846 -0.4847  0.2809 -0.3464
 8120SOL     OW32245   6.397   6.269   4.569  0.1701 -0.3924 -0.9834
 8120SOL    HW232246   6.419   6.177   4.559 -1.1965 -1.3556  2.8936
 8120SOL    HW332247   6.465   6.304   4.626 -0.1542  0.5981 -1.1766
 8120SOL    MW432248   6.409   6.262   4.575  0.2764  0.2304  0.6178
 8121SOL     OW32249   5.066   3.217   3.475  0.2167 -0.3241  0.5226
 8121SOL    HW232250   5.138   3.234   3.415 -0.6566  0.0749 -0.4527
 8121SOL    HW332251   5.061   3.121   3.481 -0.1389 -0.3956 -0.6379
 8121SOL    MW432252   5.075   3.206   3.468  0.3031  0.0500 -0.4827
 8122SOL     OW32253   2.085   1.999   6.426 -0.1789 -0.0343  0.4403
 8122SOL    HW232254   1.999   2.028   6.455 -0.0004  0.9880 -0.0117
 8122SOL    HW332255   2.145   2.067   6.459  0.4606 -0.7392  0.7673
 8122SOL    MW432256   2.082   2.012   6.434 -0.5195 -0.3937 -0.5420
 8123SOL     OW32257   1.353   2.434   5.469 -0.3530  0.3832 -0.2310
 8123SOL    HW232258   1.436   2.394   5.494 -1.0179 -0.5547  0.5392
 8123SOL    HW332259   1.376   2.522   5.438  0.8405  0.3826  0.6306
 8123SOL    MW432260   1.367   2.440   5.468  0.6151 -0.2563  0.6609
 8124SOL     OW32261   3.714   5.707   4.441  0.2464 -0.2898  0.4791
 8124SOL    HW232262   3.687   5.618   4.418  0.8486 -0.3250 -0.1274
 8124SOL    HW332263   3.632   5.758   4.442 -0.1844 -0.9718  1.4625
 8124SOL    MW432264   3.700   5.702   4.438 -0.2888 -0.3787 -0.0587
 8125SOL     OW32265   2.294   0.190   6.075  0.1149  0.0687  0.2331
 8125SOL    HW232266   2.273   0.247   6.149 -0.7969  0.1457 -0.0803
 8125SOL    HW332267   2.297   0.102   6.113  2.6173  0.3747  0.9484
 8125SOL    MW432268   2.292   0.186   6.090  0.6334 -0.4764  0.0133
 8126SOL     OW32269   4.972   4.625   3.508 -0.6854 -0.3965 -0.2597
 8126SOL    HW232270   4.886   4.584   3.515  0.2366 -2.2693  0.8790
 8126SOL    HW332271   4.991   4.656   3.596  0.1190 -0.6755 -0.3306
 8126SOL    MW432272   4.963   4.624   3.520 -0.0263  1.1009 -0.4387
 8127SOL     OW32273   3.537   5.844   1.573  0.0726  0.4394  0.4559
 8127SOL    HW232274   3.609   5.882   1.623  0.9922 -1.0579  0.3375
 8127SOL    HW332275   3.463   5.843   1.634  1.0916 -1.0737  1.7522
 8127SOL    MW432276   3.537   5.849   1.588  0.0417 -0.1419  0.0513
 8128SOL     OW32277   4.579   6.308   0.218  0.8516  0.6965 -0.0688
 8128SOL    HW232278   4.650   6.253   0.185  0.8578  0.6124  0.0843
 8128SOL    HW332279   4.502   6.251   0.217  0.4393  1.2139 -1.6766
 8128SOL    MW432280   4.578   6.294   0.213 -0.0303  0.5162  0.2541
 8129SOL     OW32281   1.124   1.199   2.002 -0.6160 -0.0465 -0.0872
 8129SOL    HW232282   1.106   1.224   1.911 -1.9810 -4.4306 -1.2973
 8129SOL    HW332283   1.038   1.194   2.043  0.0644  3.3373  2.1039
 8129SOL    MW432284   1.110   1.201   1.995 -0.3552  0.4641 -0.2553
 8130SOL     OW32285   3.824   3.476   2.583  0.2610  0.1746 -0.0172
 8130SOL    HW232286   3.751   3.433   2.538 -0.5277  1.3377  0.0948
 8130SOL    HW332287   3.782   3.529   2.651  1.1314  1.5825 -0.5382
 8130SOL    MW432288   3.808   3.477   2.586  0.5259 -0.1121 -0.5458
 8131SOL     OW32289   1.858   6.431   5.675  0.2246 -0.2889 -0.4036
 8131SOL    HW232290   1.831   6.339   5.675  1.2339 -0.6423 -2.3984
 8131SOL    HW332291   1.815   6.469   5.751 -1.6687 -2.0015 -0.5388
 8131SOL    MW432292   1.849   6.424   5.685 -0.0556 -0.3200  0.3669
 8132SOL     OW32293   2.810   1.847   4.930  0.1249  0.0021  0.2420
 8132SOL    HW232294   2.886   1.801   4.895  0.9937  1.1032  0.6154
 8132SOL    HW332295   2.767   1.783   4.987  1.3222 -0.3353  0.7857
 8132SOL    MW432296   2.814   1.833   4.933 -0.3214 -0.2710  0.6067
 8133SOL     OW32297   4.677   1.685   0.905 -0.0010 -0.1112 -0.1396
 8133SOL    HW232298   4.758   1.727   0.935  1.0803 -2.1188 -0.0012
 8133SOL    HW332299   4.681   1.690   0.810  0.7104 -0.8373 -0.1690
 8133SOL    MW432300   4.689   1.691   0.897  0.0380 -0.6844  0.1025
 8134SOL     OW32301   5.341   5.252   0.874  0.0135  0.0855 -0.3190
 8134SOL    HW232302   5.412   5.307   0.908  0.6127 -1.3255  0.7987
 8134SOL    HW332303   5.354   5.252   0.779  0.0589  1.7511 -0.3431
 8134SOL    MW432304   5.352   5.259   0.866  0.3222  0.6113  0.1091
 8135SOL     OW32305   4.983   2.337   2.388 -0.3347 -0.0041 -0.0869
 8135SOL    HW232306   5.050   2.271   2.406  0.6995  0.5006 -1.8312
 8135SOL    HW332307   5.031   2.420   2.385 -0.9651  0.3404 -1.6000
 8135SOL    MW432308   4.998   2.339   2.390 -0.8051  0.4842  0.3609
 8136SOL     OW32309   5.264   1.349   1.259 -0.4286 -0.5386 -0.1577
 8136SOL    HW232310   5.344   1.298   1.270 -0.4444 -0.5416 -0.0566
 8136SOL    HW332311   5.208   1.294   1.205 -0.1553 -0.3102 -0.6894
 8136SOL    MW432312   5.268   1.335   1.253  0.0911  0.1315  0.3155
 8137SOL     OW32313   4.849   1.168   1.827 -0.0371 -0.2770 -0.6259
 8137SOL    HW232314   4.882   1.080   1.845  0.5417 -0.2269 -1.3892
 8137SOL    HW332315   4.924   1.225   1.844 -0.7982  0.2511  1.2789
 8137SOL    MW432316   4.863   1.164   1.832  0.0772 -0.4879  0.5646
 8138SOL     OW32317   3.397   1.598   0.918 -0.4231  0.0176 -0.6003
 8138SOL    HW232318   3.442   1.601   1.002  1.7611  0.5052 -1.7232
 8138SOL    HW332319   3.441   1.664   0.864 -1.0253 -1.0272 -2.4792
 8138SOL    MW432320   3.409   1.607   0.922  0.7152 -0.3064  0.5142
 8139SOL     OW32321   3.233   5.264   3.034 -0.3915 -0.2092  0.0853
 8139SOL    HW232322   3.219   5.240   3.126 -0.9942 -0.8863 -0.1740
 8139SOL    HW332323   3.285   5.344   3.038  2.9392 -2.2369  0.9939
 8139SOL    MW432324   3.238   5.271   3.047  0.1978  0.3624  0.0574
 8140SOL     OW32325   1.234   1.288   1.459 -0.3959  0.2157  0.1925
 8140SOL    HW232326   1.268   1.322   1.376 -0.2290 -0.4184 -0.0089
 8140SOL    HW332327   1.181   1.359   1.495  0.2452  0.8244 -0.0301
 8140SOL    MW432328   1.232   1.302   1.453  0.1549  0.0073 -0.2831
 8141SOL     OW32329   3.104   2.082   2.143  0.0392  0.1655 -0.6869
 8141SOL    HW232330   3.148   2.148   2.196 -2.0143  2.1603 -1.3158
 8141SOL    HW332331   3.160   2.005   2.150  0.5458  0.6826  3.3275
 8141SOL    MW432332   3.117   2.081   2.151  0.2452  0.4595 -0.0040
 8142SOL     OW32333   5.255   3.324   6.095 -0.1472 -0.4454 -0.2112
 8142SOL    HW232334   5.294   3.288   6.016 -0.3381  0.5891 -0.8070
 8142SOL    HW332335   5.172   3.362   6.066 -0.1429  0.0994  0.4466
 8142SOL    MW432336   5.249   3.325   6.081 -0.1151  0.1972 -0.3465
 8143SOL     OW32337   4.787   5.531   0.297  0.1314 -0.4631 -0.3001
 8143SOL    HW232338   4.882   5.541   0.293  0.1003  0.0507  0.1089
 8143SOL    HW332339   4.769   5.454   0.243  0.5699  0.6286 -2.0815
 8143SOL    MW432340   4.797   5.522   0.289 -0.4568 -0.5039  0.4839
 8144SOL     OW32341   3.948   5.383   0.647  0.4935 -0.2109  0.3036
 8144SOL    HW232342   3.903   5.298   0.638  0.3774 -0.1148 -0.0323
 8144SOL    HW332343   3.883   5.447   0.619  1.2142 -0.1540 -1.3675
 8144SOL    MW432344   3.933   5.380   0.642 -0.3960 -0.3583 -0.2901
 8145SOL     OW32345   1.672   3.102   1.762  0.0214 -0.3054 -0.2820
 8145SOL    HW232346   1.601   3.079   1.701 -0.2142  0.8989 -0.5104
 8145SOL    HW332347   1.644   3.067   1.846 -0.5969 -0.3268 -0.4869
 8145SOL    MW432348   1.659   3.095   1.765 -0.0559 -0.0995 -0.6371
 8146SOL     OW32349   6.364   0.245   0.480  0.0093  0.0101  0.2976
 8146SOL    HW232350   6.433   0.297   0.438 -1.6006  1.8669 -0.1852
 8146SOL    HW332351   6.388   0.243   0.572 -0.4383  2.6397  0.5246
 8146SOL    MW432352   6.376   0.251   0.486  0.0838  0.0841  0.7793
 8147SOL     OW32353   0.901   4.667   4.260 -0.0978  0.5551 -0.0626
 8147SOL    HW232354   0.834   4.601   4.279 -0.6883  0.4630 -2.2081
 8147SOL    HW332355   0.969   4.652   4.326  1.2011 -4.1809 -2.0282
 8147SOL    MW432356   0.901   4.656   4.271  0.1005  0.2786  0.2155
 8148SOL     OW32357   3.135   3.675   0.828 -0.1913  0.1804  0.7612
 8148SOL    HW232358   3.081   3.754   0.820  2.2924  1.9113 -0.0908
 8148SOL    HW332359   3.074   3.608   0.858 -2.7414  2.0396  0.1159
 8148SOL    MW432360   3.120   3.677   0.831  0.1755  0.1004  0.7845
 8149SOL     OW32361   5.617   5.253   5.145  0.1932  0.0086 -0.0332
 8149SOL    HW232362   5.665   5.182   5.103 -0.5070  0.4598 -1.6820
 8149SOL    HW332363   5.623   5.234   5.238  3.4751  0.0154 -0.1464
 8149SOL    MW432364   5.624   5.241   5.151 -0.1725 -0.2491  0.1912
 8150SOL     OW32365   5.383   2.167   4.163  0.1145  0.2447  0.3366
 8150SOL    HW232366   5.360   2.148   4.254 -0.6483  1.6774  0.4724
 8150SOL    HW332367   5.449   2.236   4.169 -0.2503  0.6499 -0.2011
 8150SOL    MW432368   5.389   2.174   4.176  0.3365 -0.4201  0.3315
 8151SOL     OW32369   3.103   2.231   0.916 -0.1647  0.3537 -0.5316
 8151SOL    HW232370   3.022   2.180   0.910  0.3986 -0.4788 -1.2219
 8151SOL    HW332371   3.121   2.236   1.010 -1.0412  0.6062 -0.3687
 8151SOL    MW432372   3.094   2.225   0.928 -0.1100  0.1326 -0.4098
 8152SOL     OW32373   1.435   3.269   4.150  0.0947  0.2093  0.5347
 8152SOL    HW232374   1.417   3.204   4.083 -2.8734  1.5101 -0.1086
 8152SOL    HW332375   1.456   3.349   4.102  2.3723  0.1390  1.2898
 8152SOL    MW432376   1.435   3.271   4.135 -0.1264 -0.5503  0.3422
 8153SOL     OW32377   1.503   4.356   4.444  0.0022 -0.2705 -0.5254
 8153SOL    HW232378   1.412   4.335   4.467 -0.0056 -0.1147 -0.4149
 8153SOL    HW332379   1.550   4.349   4.527  0.1387 -0.6037 -0.6267
 8153SOL    MW432380   1.497   4.352   4.458  0.5174  0.7084 -0.1732
 8154SOL     OW32381   3.172   0.225   2.923  0.1844 -0.5590 -0.1853
 8154SOL    HW232382   3.181   0.222   3.019 -0.0352 -1.3288 -0.1817
 8154SOL    HW332383   3.226   0.299   2.896 -0.2079  0.0257  0.5889
 8154SOL    MW432384   3.180   0.235   2.932  0.7536  0.1040  0.3806
 8155SOL     OW32385   3.984   6.186   5.473 -0.9207  0.4514  0.2657
 8155SOL    HW232386   3.978   6.176   5.568  0.2860 -1.9312  0.1529
 8155SOL    HW332387   3.996   6.281   5.460  2.2885  0.5434  2.7633
 8155SOL    MW432388   3.985   6.197   5.484 -0.3127 -0.0954  0.6462
 8156SOL     OW32389   3.362   4.614   0.519 -0.1895 -0.0486  0.0032
 8156SOL    HW232390   3.367   4.667   0.598  0.5039  0.0979 -0.1314
 8156SOL    HW332391   3.326   4.530   0.548  3.8155 -1.5423  1.3324
 8156SOL    MW432392   3.358   4.610   0.533 -0.0759 -0.4762 -0.2917
 8157SOL     OW32393   2.882   4.967   0.696  0.4318  0.2511 -0.6312
 8157SOL    HW232394   2.797   5.012   0.705  0.7356  0.6514  0.4967
 8157SOL    HW332395   2.879   4.926   0.610 -0.6442  0.8206 -0.8842
 8157SOL    MW432396   2.870   4.968   0.686 -0.8030  0.2312 -0.2065
 8158SOL     OW32397   0.862   1.696   1.489 -0.5590 -0.6801 -0.0363
 8158SOL    HW232398   0.844   1.790   1.480 -0.8675 -0.8780 -2.2219
 8158SOL    HW332399   0.786   1.660   1.533 -0.6674  0.0277  0.3565
 8158SOL    MW432400   0.850   1.704   1.493  0.7689  0.1398  0.1134
 8159SOL     OW32401   2.487   0.102   0.906  0.0693 -0.4263 -0.0329
 8159SOL    HW232402   2.554   0.152   0.859  1.5552 -0.5842  1.8061
 8159SOL    HW332403   2.406   0.150   0.891  1.1736  1.6461  0.3926
 8159SOL    MW432404   2.485   0.115   0.898 -0.1682 -0.2125  0.6784
 8160SOL     OW32405   1.642   4.566   1.701  0.7636 -0.1712  0.3258
 8160SOL    HW232406   1.694   4.541   1.624  0.4974 -2.3788  0.8072
 8160SOL    HW332407   1.668   4.505   1.769 -3.5698 -2.6215  0.1265
 8160SOL    MW432408   1.652   4.555   1.700  0.1519  0.5154  0.1867
 8161SOL     OW32409   4.733   0.456   3.877 -0.1791 -0.0763 -0.1338
 8161SOL    HW232410   4.729   0.424   3.787  1.2290  0.0479 -0.2678
 8161SOL    HW332411   4.689   0.541   3.875  0.4025  0.2159 -0.8488
 8161SOL    MW432412   4.727   0.463   3.865 -0.3608 -0.0245  0.4931
 8162SOL     OW32413   3.330   5.785   1.772  0.2627 -0.5959 -0.4605
 8162SOL    HW232414   3.362   5.738   1.850 -1.9856 -0.9196  0.3383
 8162SOL    HW332415   3.340   5.877   1.795 -2.9284 -0.5707  1.5395
 8162SOL    MW432416   3.336   5.791   1.786  0.0927 -0.3908 -0.2112
 8163SOL     OW32417   1.441   5.254   2.862 -0.2007  0.5357  0.0063
 8163SOL    HW232418   1.465   5.303   2.941 -0.3705 -0.8944  0.9994
 8163SOL    HW332419   1.379   5.189   2.893 -0.1987 -0.1231 -1.3057
 8163SOL    MW432420   1.436   5.252   2.877 -0.4745 -0.9112  0.0517
 8164SOL     OW32421   3.226   3.093   5.226 -0.6382  0.0636  0.1189
 8164SOL    HW232422   3.287   3.110   5.298 -0.3279  0.0495 -0.1362
 8164SOL    HW332423   3.282   3.061   5.154 -0.7720  1.2247 -0.5354
 8164SOL    MW432424   3.241   3.091   5.226  0.1415  0.0964 -0.1113
 8165SOL     OW32425   6.154   0.885   2.895 -0.2542 -0.1367 -0.3609
 8165SOL    HW232426   6.182   0.911   2.982  1.4731 -2.6021 -0.0756
 8165SOL    HW332427   6.065   0.919   2.887  0.5694  2.6754  1.1641
 8165SOL    MW432428   6.146   0.893   2.905 -0.5671 -0.3313 -0.2402
 8166SOL     OW32429   2.308   5.678   3.893 -0.1054  0.7311 -0.3864
 8166SOL    HW232430   2.217   5.676   3.924  0.3232 -0.0783  0.8713
 8166SOL    HW332431   2.308   5.616   3.820 -0.5367  0.6303 -0.3080
 8166SOL    MW432432   2.296   5.669   3.887 -0.4192 -0.0499  0.2071
 8167SOL     OW32433   5.834   1.242   3.651  0.1162  0.5948  0.4719
 8167SOL    HW232434   5.751   1.290   3.645  0.1074  0.4318 -0.9169
 8167SOL    HW332435   5.808   1.153   3.675  0.0925  1.1038  2.4937
 8167SOL    MW432436   5.819   1.236   3.654 -0.4468 -0.0059 -0.2148
 8168SOL     OW32437   0.458   2.220   5.220  0.2566  0.4019 -0.1533
 8168SOL    HW232438   0.418   2.268   5.291  0.5934 -1.1408  1.1359
 8168SOL    HW332439   0.536   2.271   5.196  0.7130  0.4134  1.2998
 8168SOL    MW432440   0.463   2.233   5.226 -0.6635  0.1009  0.0086
 8169SOL     OW32441   5.148   1.799   0.783 -0.3048 -0.5066 -0.6005
 8169SOL    HW232442   5.215   1.736   0.759  0.7077  0.2067  0.2523
 8169SOL    HW332443   5.191   1.859   0.844 -1.4522  0.5308 -0.7478
 8169SOL    MW432444   5.162   1.799   0.788 -0.2195 -0.2406  0.1004
 8170SOL     OW32445   5.172   6.423   4.518  0.2574  0.0204 -0.0397
 8170SOL    HW232446   5.264   6.419   4.544  0.4029  0.4764 -0.4457
 8170SOL    HW332447   5.138   6.499   4.565  0.9354  1.8593 -2.2994
 8170SOL    MW432448   5.180   6.433   4.528  0.4579  0.1041 -0.7831
 8171SOL     OW32449   3.644   3.167   0.721 -0.0817  0.1571 -0.2419
 8171SOL    HW232450   3.675   3.102   0.658  0.1846  0.5857 -0.5595
 8171SOL    HW332451   3.561   3.199   0.685 -0.5663 -0.4984  0.2649
 8171SOL    MW432452   3.637   3.163   0.708 -0.2192  0.0271  0.2824
 8172SOL     OW32453   4.524   2.873   0.751 -0.2468 -0.2358  0.3467
 8172SOL    HW232454   4.609   2.918   0.753  0.1603 -0.9340 -0.5361
 8172SOL    HW332455   4.541   2.788   0.792  0.1681 -1.4389 -2.1076
 8172SOL    MW432456   4.538   2.868   0.757 -0.5604  0.2117 -0.0943
 8173SOL     OW32457   1.260   6.298   6.027 -0.3092  0.1047 -1.1092
 8173SOL    HW232458   1.243   6.223   5.970 -0.3376 -1.2692  0.6079
 8173SOL    HW332459   1.191   6.360   6.006 -1.4427 -1.1581 -1.2614
 8173SOL    MW432460   1.249   6.296   6.017 -0.6964  0.8294 -0.3808
 8174SOL     OW32461   4.613   4.021   1.808  0.1466  0.1047 -0.3757
 8174SOL    HW232462   4.700   4.035   1.845  2.0532 -2.8302 -3.1792
 8174SOL    HW332463   4.565   3.972   1.875  0.9550  0.9354  0.8432
 8174SOL    MW432464   4.618   4.016   1.822  0.0656  0.0727 -0.1292
 8175SOL     OW32465   1.276   6.298   3.689 -0.3551  0.6865  0.5189
 8175SOL    HW232466   1.203   6.289   3.627 -0.5574 -0.6665  0.9298
 8175SOL    HW332467   1.291   6.209   3.721  0.5740  1.1762  1.4781
 8175SOL    MW432468   1.268   6.285   3.685 -0.0415 -0.5106  0.0070
 8176SOL     OW32469   5.932   1.877   6.024  0.1158 -0.2918 -0.0744
 8176SOL    HW232470   5.844   1.896   6.059 -0.2517 -1.5473 -0.2604
 8176SOL    HW332471   5.962   1.961   5.989 -1.0062  0.1656 -0.0062
 8176SOL    MW432472   5.924   1.891   6.024 -0.5538  0.0528 -0.6426
 8177SOL     OW32473   0.502   3.572   6.013 -0.3386 -0.6496 -0.1019
 8177SOL    HW232474   0.538   3.483   6.014 -0.1162 -0.5625  0.4642
 8177SOL    HW332475   0.527   3.608   6.098 -1.6625 -0.5321  0.2586
 8177SOL    MW432476   0.510   3.565   6.024 -0.1122  0.2601  0.3963
 8178SOL     OW32477   2.528   4.856   4.741 -0.2911 -0.0104  0.5250
 8178SOL    HW232478   2.523   4.761   4.730  0.0346 -0.0415  0.6429
 8178SOL    HW332479   2.533   4.890   4.652 -0.3317 -0.1098  0.4850
 8178SOL    MW432480   2.528   4.848   4.728  0.2266 -0.0542  0.6586
 8179SOL     OW32481   2.985   3.543   5.634 -0.3056 -0.4280  0.1198
 8179SOL    HW232482   3.020   3.552   5.723  1.2020 -0.6105 -0.4257
 8179SOL    HW332483   2.927   3.467   5.639 -1.1561  0.2648  1.2030
 8179SOL    MW432484   2.982   3.534   5.647  0.2461 -0.3645 -0.0770
 8180SOL     OW32485   1.155   1.111   3.006 -0.2334 -0.0514  0.0054
 8180SOL    HW232486   1.122   1.200   2.992 -0.2380 -0.3819 -2.5411
 8180SOL    HW332487   1.077   1.056   3.006 -0.1147 -0.2212 -0.1164
 8180SOL    MW432488   1.140   1.116   3.004  0.3925 -0.6573 -0.3556
 8181SOL     OW32489   4.705   5.400   2.733 -0.6004 -0.1554  0.5917
 8181SOL    HW232490   4.702   5.433   2.823 -0.5370 -0.2478  0.6272
 8181SOL    HW332491   4.628   5.343   2.727 -0.9188  0.2895  0.4181
 8181SOL    MW432492   4.694   5.397   2.744  0.2824 -0.1824 -0.2003
 8182SOL     OW32493   5.495   2.972   1.023  0.0604 -0.0500 -0.2675
 8182SOL    HW232494   5.501   2.914   1.098 -0.3371  0.6370  0.3069
 8182SOL    HW332495   5.443   3.047   1.054 -2.5349 -0.9936 -2.0199
 8182SOL    MW432496   5.489   2.975   1.037  0.0203 -0.1308  0.4424
 8183SOL     OW32497   5.740   6.310   1.668  0.4751  0.3523 -0.0472
 8183SOL    HW232498   5.665   6.256   1.693 -0.6834  1.9357  0.0914
 8183SOL    HW332499   5.800   6.305   1.743 -0.9311  1.4905  1.2334
 8183SOL    MW432500   5.738   6.302   1.681  0.0101 -0.5806 -0.2063
 8184SOL     OW32501   4.908   1.265   2.776 -0.4249 -0.5286  0.2439
 8184SOL    HW232502   4.958   1.201   2.827  0.0225  0.6772  1.3718
 8184SOL    HW332503   4.970   1.336   2.759 -0.9355 -0.3264 -0.9118
 8184SOL    MW432504   4.923   1.266   2.780  0.3310 -0.2030 -0.3425
 8185SOL     OW32505   1.450   1.983   5.976  0.1482  0.5629 -0.1700
 8185SOL    HW232506   1.383   2.001   6.043 -0.3275 -1.8447  0.0624
 8185SOL    HW332507   1.530   1.966   6.027  0.3410  0.9269 -0.3437
 8185SOL    MW432508   1.452   1.983   5.992 -0.0769 -0.4392  0.4234
 8186SOL     OW32509   5.222   2.975   5.606 -0.1311 -0.4404 -0.3412
 8186SOL    HW232510   5.230   3.070   5.594 -0.6779 -0.3324  0.0815
 8186SOL    HW332511   5.202   2.964   5.699 -0.7609 -0.9122 -0.5189
 8186SOL    MW432512   5.220   2.986   5.616 -0.3653  0.2589 -0.2095
 8187SOL     OW32513   5.161   3.191   5.349  0.5115  0.3069  0.0593
 8187SOL    HW232514   5.201   3.256   5.290  1.0086  1.0685  1.2004
 8187SOL    HW332515   5.171   3.229   5.436  1.3562 -1.6106  0.8342
 8187SOL    MW432516   5.168   3.205   5.353 -0.3868  0.2612  0.3606
 8188SOL     OW32517   0.167   6.403   3.640 -0.3995  0.5219  0.4477
 8188SOL    HW232518   0.135   6.493   3.628 -0.8493  0.3319  0.1693
 8188SOL    HW332519   0.121   6.371   3.718 -2.2922 -0.3416 -0.9329
 8188SOL    MW432520   0.157   6.411   3.648 -0.3819  0.9566  0.1170
 8189SOL     OW32521   4.998   5.070   4.848  0.7395 -0.0354  0.0676
 8189SOL    HW232522   4.912   5.031   4.829  1.2281 -1.1177 -0.0084
 8189SOL    HW332523   4.995   5.156   4.807 -0.3220 -0.0426  0.0889
 8189SOL    MW432524   4.986   5.076   4.840  0.1859 -0.0841 -0.3265
 8190SOL     OW32525   6.272   1.553   6.087  0.0910 -0.0157  0.3700
 8190SOL    HW232526   6.294   1.460   6.091 -0.7492 -0.2814 -0.7952
 8190SOL    HW332527   6.248   1.568   5.996  2.5406  1.9178 -0.0724
 8190SOL    MW432528   6.272   1.542   6.076 -0.0691 -0.0515  0.1133
 8191SOL     OW32529   3.823   0.742   2.272 -0.4791  0.3488 -0.7300
 8191SOL    HW232530   3.871   0.803   2.328 -2.2710  2.3664 -1.2178
 8191SOL    HW332531   3.833   0.657   2.313  2.4920  0.8625 -0.2250
 8191SOL    MW432532   3.830   0.739   2.284 -0.1296 -0.3473 -0.4204
 8192SOL     OW32533   1.677   4.685   3.278 -0.1125  0.7911  0.2637
 8192SOL    HW232534   1.754   4.628   3.281 -0.5979  0.1280  0.3741
 8192SOL    HW332535   1.712   4.772   3.259  0.4947  0.1288 -2.0040
 8192SOL    MW432536   1.692   4.689   3.276  0.6134  0.0864 -0.5266
 8193SOL     OW32537   5.172   4.918   1.420 -0.5950 -0.3511 -0.2926
 8193SOL    HW232538   5.191   4.974   1.345  2.3540 -1.7879 -0.7655
 8193SOL    HW332539   5.109   4.854   1.387 -1.3643  0.5912 -0.7204
 8193SOL    MW432540   5.166   4.917   1.406 -0.4717 -0.0553  0.0654
 8194SOL     OW32541   2.527   4.187   3.013  0.0954 -0.0174  0.4552
 8194SOL    HW232542   2.503   4.097   2.991 -0.2595  0.1605  0.1056
 8194SOL    HW332543   2.571   4.220   2.935 -1.0635  0.5772  0.0406
 8194SOL    MW432544   2.530   4.179   3.000 -0.3388  0.0653 -0.0475
 8195SOL     OW32545   0.254   6.483   5.666  0.4238  0.1123 -0.3344
 8195SOL    HW232546   0.210   6.400   5.686  2.1315 -0.5553  0.8207
 8195SOL    HW332547   0.186   6.536   5.624 -0.7996 -1.7449 -0.8396
 8195SOL    MW432548   0.239   6.479   5.663  0.3792 -0.2453  0.1144
 8196SOL     OW32549   4.362   3.443   2.887  0.0460 -0.7138  0.6723
 8196SOL    HW232550   4.452   3.477   2.885  0.3757 -1.5041  1.5950
 8196SOL    HW332551   4.308   3.521   2.903  0.6290 -0.3290  0.8199
 8196SOL    MW432552   4.367   3.458   2.889 -0.5609  0.5713 -0.3987
 8197SOL     OW32553   4.007   5.189   1.644  0.3452 -0.3430  0.3343
 8197SOL    HW232554   4.009   5.284   1.631  0.4875 -0.3766  0.0977
 8197SOL    HW332555   4.019   5.178   1.738  2.1363 -0.1757  0.1736
 8197SOL    MW432556   4.009   5.200   1.655 -0.2686  0.6653  0.5075
 8198SOL     OW32557   6.342   0.691   5.295  0.2216 -0.6345 -0.2850
 8198SOL    HW232558   6.267   0.687   5.237  0.1345 -2.7491 -0.0752
 8198SOL    HW332559   6.411   0.644   5.250  1.3093  0.8324 -0.2416
 8198SOL    MW432560   6.341   0.684   5.282  0.1117 -0.1702 -0.1000
 8199SOL     OW32561   4.003   4.280   5.997 -0.1768 -0.1890 -0.3236
 8199SOL    HW232562   3.933   4.222   6.025 -1.4228  0.9234 -1.0488
 8199SOL    HW332563   3.994   4.286   5.902  0.7450  0.1762 -0.4034
 8199SOL    MW432564   3.993   4.273   5.988 -0.2632  0.0217 -0.5628
 8200SOL     OW32565   5.796   5.210   4.806 -0.5064  0.2739 -0.4581
 8200SOL    HW232566   5.743   5.282   4.841 -1.9246 -0.5096 -0.8670
 8200SOL    HW332567   5.797   5.145   4.877  0.5181  0.5600 -0.1980
 8200SOL    MW432568   5.789   5.211   4.820  0.3978  0.0470 -0.5947
 8201SOL     OW32569   3.334   3.287   0.883 -0.2372 -0.5720  0.3788
 8201SOL    HW232570   3.311   3.213   0.938 -1.1605  0.2447  1.1425
 8201SOL    HW332571   3.259   3.347   0.891  0.8994  0.8803  0.5747
 8201SOL    MW432572   3.321   3.285   0.891  0.0664 -0.3384  0.2032
 8202SOL     OW32573   0.366   4.397   4.541  0.2707  0.2871 -0.2068
 8202SOL    HW232574   0.321   4.481   4.539 -0.6685 -0.2056 -0.3722
 8202SOL    HW332575   0.319   4.346   4.607  1.2031  0.0882  0.3209
 8202SOL    MW432576   0.354   4.402   4.549 -0.0141  0.5901  0.4060
 8203SOL     OW32577   1.530   3.847   4.878  0.4556  0.3803  0.0482
 8203SOL    HW232578   1.527   3.898   4.798  2.3596 -0.1855 -0.4394
 8203SOL    HW332579   1.439   3.840   4.907 -0.0906  1.8290 -1.2591
 8203SOL    MW432580   1.517   3.853   4.871 -0.1953 -0.4606 -0.0135
 8204SOL     OW32581   5.184   6.336   0.237 -0.2355 -0.3657 -0.3216
 8204SOL    HW232582   5.142   6.393   0.301  0.5968 -0.0004 -0.0932
 8204SOL    HW332583   5.209   6.258   0.287  1.3984  0.3707  0.0798
 8204SOL    MW432584   5.182   6.333   0.252  0.5494  0.2131  0.2868
 8205SOL     OW32585   0.754   0.744   6.351  0.0070 -0.2345 -0.5217
 8205SOL    HW232586   0.718   0.781   6.270  0.2117 -1.1023 -1.0208
 8205SOL    HW332587   0.805   0.815   6.390  0.7016 -0.0956 -1.6494
 8205SOL    MW432588   0.756   0.758   6.346  0.0727 -0.0142 -0.0166
 8206SOL     OW32589   1.428   3.099   2.892 -0.0546  0.4055 -0.0998
 8206SOL    HW232590   1.365   3.119   2.822 -1.0726  0.4799  0.8180
 8206SOL    HW332591   1.486   3.033   2.853 -1.4440 -0.5724 -0.5854
 8206SOL    MW432592   1.427   3.093   2.877  0.3877 -0.3240  0.0121
 8207SOL     OW32593   4.162   1.649   1.129 -0.2589 -0.6899  0.0369
 8207SOL    HW232594   4.068   1.634   1.116 -0.2422 -0.6851 -0.0865
 8207SOL    HW332595   4.205   1.582   1.076 -0.2021 -2.0666  1.7336
 8207SOL    MW432596   4.155   1.638   1.120  0.3230  0.0421  0.1906
 8208SOL     OW32597   3.764   2.215   6.319  0.4427 -0.4461 -0.9308
 8208SOL    HW232598   3.736   2.128   6.291  0.9325 -1.0553  0.3744
 8208SOL    HW332599   3.766   2.210   6.415  1.7779  0.6033 -0.8740
 8208SOL    MW432600   3.760   2.203   6.328  0.0916 -0.3844  0.3349
 8209SOL     OW32601   2.976   0.907   4.592 -0.0577 -0.4620  0.2366
 8209SOL    HW232602   3.007   0.946   4.510  0.3608 -1.7015 -0.2188
 8209SOL    HW332603   3.045   0.928   4.656  0.6342 -1.2528 -0.2302
 8209SOL    MW432604   2.989   0.915   4.590  0.5552  0.5579  0.3660
 8210SOL     OW32605   5.374   3.469   4.462 -0.2443  0.1459 -0.1783
 8210SOL    HW232606   5.399   3.427   4.380  0.7642  1.4087 -0.5549
 8210SOL    HW332607   5.366   3.397   4.524  1.3013 -0.6472 -0.8314
 8210SOL    MW432608   5.376   3.454   4.460  0.3331 -0.3313  0.0621
 8211SOL     OW32609   4.435   1.274   4.835 -0.8617 -0.4437 -0.0263
 8211SOL    HW232610   4.452   1.180   4.837  1.3796 -0.1514  3.2282
 8211SOL    HW332611   4.374   1.289   4.908 -0.3129  0.7162  0.2144
 8211SOL    MW432612   4.429   1.264   4.845  0.1176  0.1460  0.0727
 8212SOL     OW32613   2.565   5.109   0.317  0.1715  0.3521 -0.7454
 8212SOL    HW232614   2.488   5.152   0.353  0.0343 -0.2104 -0.3389
 8212SOL    HW332615   2.556   5.117   0.222 -1.9567 -2.2667 -0.8876
 8212SOL    MW432616   2.554   5.115   0.309 -0.1310 -0.1717  0.9797
 8213SOL     OW32617   4.435   4.396   3.547  0.8175 -0.5551 -0.0606
 8213SOL    HW232618   4.513   4.452   3.544  0.5405 -0.2054 -2.3070
 8213SOL    HW332619   4.405   4.391   3.456 -2.7782  0.7121  0.8725
 8213SOL    MW432620   4.441   4.403   3.534  0.1923 -0.1124  0.2894
 8214SOL     OW32621   0.623   4.184   4.630 -0.7091 -0.0754  0.3658
 8214SOL    HW232622   0.642   4.120   4.562  1.9796 -1.4290  2.2102
 8214SOL    HW332623   0.667   4.264   4.602 -0.0908 -0.4572  0.2364
 8214SOL    MW432624   0.631   4.186   4.617 -0.3766  0.1218 -0.0609
 8215SOL     OW32625   5.962   5.077   6.110  0.2713  0.0533 -0.5062
 8215SOL    HW232626   6.026   5.133   6.153 -0.9594  0.6909  0.5655
 8215SOL    HW332627   5.933   5.017   6.178 -0.1919 -0.3034 -1.0063
 8215SOL    MW432628   5.966   5.076   6.124  0.2532  0.0494  0.2838
 8216SOL     OW32629   4.768   2.261   4.417 -0.4752 -0.1900 -0.6172
 8216SOL    HW232630   4.788   2.318   4.492 -1.6003  0.2508 -0.6416
 8216SOL    HW332631   4.853   2.251   4.372  1.4423 -4.3217  3.2060
 8216SOL    MW432632   4.782   2.267   4.421  0.4494  0.1161 -0.4437
 8217SOL     OW32633   3.122   4.513   5.145  0.3706  0.6130  0.2930
 8217SOL    HW232634   3.034   4.522   5.109  0.1535  0.5258  0.8073
 8217SOL    HW332635   3.168   4.591   5.115  0.7953 -0.3882 -1.8779
 8217SOL    MW432636   3.116   4.524   5.136 -0.0555 -0.2613 -0.0694
 8218SOL     OW32637   5.731   6.346   5.231  0.3262 -0.2709  0.0265
 8218SOL    HW232638   5.810   6.398   5.215  1.0899 -1.4179 -0.0108
 8218SOL    HW332639   5.747   6.263   5.187 -0.7638 -0.6556  0.3175
 8218SOL    MW432640   5.744   6.342   5.223  0.2700  0.6108 -0.0464
 8219SOL     OW32641   4.532   1.520   1.612  0.5326 -0.2155  0.4277
 8219SOL    HW232642   4.589   1.472   1.551  0.7712 -1.5820  1.6855
 8219SOL    HW332643   4.470   1.566   1.555 -1.7100 -4.3859 -0.8820
 8219SOL    MW432644   4.531   1.520   1.596  0.6598  0.6604 -0.1678
 8220SOL     OW32645   2.058   3.589   5.022  0.4858  0.2536 -0.2914
 8220SOL    HW232646   2.009   3.561   4.944 -2.0728  0.6179  1.0482
 8220SOL    HW332647   2.061   3.510   5.077 -2.1837  1.1312  1.2883
 8220SOL    MW432648   2.052   3.575   5.019 -0.8436  0.1791 -0.0488
 8221SOL     OW32649   3.293   5.879   1.117  0.2965 -0.3499 -0.5947
 8221SOL    HW232650   3.326   5.866   1.028 -0.4688 -0.6275 -0.8493
 8221SOL    HW332651   3.228   5.949   1.108  0.0302 -0.5611 -0.3003
 8221SOL    MW432652   3.289   5.887   1.104  0.1986  0.1800  0.0079
 8222SOL     OW32653   1.918   5.328   6.023 -0.3876  0.4524  0.0159
 8222SOL    HW232654   1.972   5.383   5.966 -1.0167  0.1032 -0.9329
 8222SOL    HW332655   1.920   5.372   6.108  1.9217  0.1179  0.1996
 8222SOL    MW432656   1.926   5.341   6.026 -0.1341 -0.4928  0.2305
 8223SOL     OW32657   0.336   0.379   3.761 -0.1030 -0.4174  0.5890
 8223SOL    HW232658   0.368   0.445   3.700  1.8005 -1.2496  0.6044
 8223SOL    HW332659   0.358   0.295   3.720 -0.5652 -1.0222  1.5283
 8223SOL    MW432660   0.343   0.377   3.748 -0.3088 -0.4620  0.1458
 8224SOL     OW32661   1.399   5.578   2.535  0.0957 -0.4331  0.2897
 8224SOL    HW232662   1.373   5.493   2.570 -1.6314 -0.9759 -2.0447
 8224SOL    HW332663   1.446   5.557   2.454 -0.2580  0.8275 -0.2667
 8224SOL    MW432664   1.402   5.564   2.529  0.0774 -0.1931  0.4051
 8225SOL     OW32665   3.492   4.280   4.469 -0.8719 -0.0966  0.0875
 8225SOL    HW232666   3.410   4.262   4.516 -1.6957  0.7888 -0.9422
 8225SOL    HW332667   3.501   4.207   4.408 -1.4282  0.2714 -0.4573
 8225SOL    MW432668   3.482   4.268   4.467 -0.8572 -0.1925  0.0540
 8226SOL     OW32669   3.396   4.596   1.121  0.3567  0.2050 -0.7059
 8226SOL    HW232670   3.437   4.512   1.141  0.2554  0.3022 -0.0769
 8226SOL    HW332671   3.446   4.660   1.172  1.2923  0.7199 -2.1931
 8226SOL    MW432672   3.408   4.593   1.130 -0.2934 -0.2086 -0.2557
 8227SOL     OW32673   6.094   5.456   2.475  0.0683  0.0094  0.1115
 8227SOL    HW232674   6.039   5.531   2.499 -0.1636 -0.2272  0.3287
 8227SOL    HW332675   6.128   5.423   2.558 -0.7020 -0.7871  0.1269
 8227SOL    MW432676   6.091   5.462   2.489 -0.2002  0.7280 -0.5634
 8228SOL     OW32677   3.812   3.783   2.416 -0.5505  0.4361 -0.0648
 8228SOL    HW232678   3.850   3.788   2.504  0.9577  2.1010 -0.7507
 8228SOL    HW332679   3.860   3.713   2.373  1.0749  1.7816 -0.5581
 8228SOL    MW432680   3.823   3.774   2.422 -0.0341  0.2209  0.1835
 8229SOL     OW32681   0.315   3.110   4.731  0.2669 -0.2188  0.0896
 8229SOL    HW232682   0.383   3.120   4.664  0.1941  0.2090  0.0783
 8229SOL    HW332683   0.344   3.036   4.783  1.0048  0.2695  0.3969
 8229SOL    MW432684   0.328   3.102   4.729 -0.1859 -0.1407 -0.6561
 8230SOL     OW32685   3.112   5.019   4.424  0.3700 -0.2081 -0.1075
 8230SOL    HW232686   3.183   5.067   4.381  0.4604 -1.3088 -1.2466
 8230SOL    HW332687   3.136   5.019   4.516  0.7862  1.2079 -0.1951
 8230SOL    MW432688   3.125   5.025   4.430  0.0741  0.5574  0.2054
 8231SOL     OW32689   1.754   2.980   0.397  0.1503  0.4056  0.1866
 8231SOL    HW232690   1.729   2.909   0.456 -2.1499  0.7760 -0.2550
 8231SOL    HW332691   1.708   3.056   0.430  2.1762  1.6369  0.3455
 8231SOL    MW432692   1.745   2.980   0.409 -0.2296 -0.0204 -0.3167
 8232SOL     OW32693   1.550   2.044   6.344  0.0693  0.1237  0.3378
 8232SOL    HW232694   1.463   2.042   6.305  0.0541 -0.6060  0.4001
 8232SOL    HW332695   1.549   1.975   6.411  0.3018  0.9354  1.1947
 8232SOL    MW432696   1.538   2.035   6.348 -0.1093  0.1107 -0.3402
 8233SOL     OW32697   1.746   0.853   3.804  0.5173 -0.2544 -0.2166
 8233SOL    HW232698   1.681   0.837   3.872  0.0189 -0.8808 -0.8183
 8233SOL    HW332699   1.762   0.947   3.807 -1.3899  0.1331 -0.9063
 8233SOL    MW432700   1.740   0.863   3.813 -0.2202  0.3744  0.1815
 8234SOL     OW32701   4.581   1.982   2.834 -0.6868  0.5726 -0.0404
 8234SOL    HW232702   4.658   1.993   2.890 -0.6182  0.5319 -0.1268
 8234SOL    HW332703   4.566   2.068   2.797 -1.8269  1.0681  1.4530
 8234SOL    MW432704   4.589   1.995   2.837  0.1672  0.5242 -0.3130
 8235SOL     OW32705   3.828   6.199   6.426  0.2556 -0.3401  0.0829
 8235SOL    HW232706   3.864   6.217   6.513  0.0359  0.0843  0.0896
 8235SOL    HW332707   3.856   6.110   6.406 -1.3167 -1.1926  1.4184
 8235SOL    MW432708   3.836   6.189   6.435 -0.6960 -0.5686  0.3360
 8236SOL     OW32709   0.803   2.423   1.055 -0.1661  0.2877 -0.1856
 8236SOL    HW232710   0.735   2.443   1.119 -0.6875 -0.1317 -0.5965
 8236SOL    HW332711   0.814   2.504   1.005  0.2584  0.6226  0.4341
 8236SOL    MW432712   0.796   2.437   1.057  0.4052  0.1485  0.1958
 8237SOL     OW32713   2.497   1.396   0.018 -0.2002  0.1725  0.2515
 8237SOL    HW232714   2.534   1.308   0.023 -0.0047  0.2291 -0.1274
 8237SOL    HW332715   2.403   1.381   0.004  0.0609 -0.0034 -1.5543
 8237SOL    MW432716   2.489   1.382   0.017  0.0957  0.0940 -0.5219
 8238SOL     OW32717   1.148   5.998   3.433  0.0026  0.6329  0.1791
 8238SOL    HW232718   1.173   5.940   3.361 -0.7796  1.2376 -0.5926
 8238SOL    HW332719   1.202   5.968   3.507 -1.0021 -1.6637  0.0784
 8238SOL    MW432720   1.159   5.986   3.434 -1.1001 -0.4255  0.0265
 8239SOL     OW32721   4.506   3.098   1.735 -0.0429  0.2336  0.1518
 8239SOL    HW232722   4.445   3.048   1.791 -0.0269 -1.3516 -1.1512
 8239SOL    HW332723   4.450   3.132   1.665  0.4627 -0.9655 -0.8784
 8239SOL    MW432724   4.490   3.096   1.733  0.3769 -0.0982  0.2520
 8240SOL     OW32725   1.601   3.766   1.763  0.3923 -0.1145 -0.4958
 8240SOL    HW232726   1.632   3.732   1.679 -3.4988 -1.1159 -1.7307
 8240SOL    HW332727   1.603   3.862   1.753 -0.8623 -0.2176 -2.1785
 8240SOL    MW432728   1.605   3.774   1.751 -0.0784  0.1971  0.4656
 8241SOL     OW32729   5.014   1.951   3.406 -0.0796 -0.0981  0.0514
 8241SOL    HW232730   5.014   1.883   3.340  0.5921 -0.6158  0.5691
 8241SOL    HW332731   5.092   2.004   3.386  0.7452 -0.8928  1.0444
 8241SOL    MW432732   5.024   1.949   3.395  0.0342  0.8812 -0.0404
 8242SOL     OW32733   0.357   1.372   3.790 -0.0658  0.1149 -0.5763
 8242SOL    HW232734   0.348   1.378   3.695 -0.2918  1.6296 -0.4935
 8242SOL    HW332735   0.385   1.460   3.817  0.2355 -0.3513  0.7345
 8242SOL    MW432736   0.360   1.385   3.781  0.1513 -0.0218  0.5809
 8243SOL     OW32737   0.997   0.704   2.149 -0.0934 -0.0603  0.0012
 8243SOL    HW232738   1.079   0.753   2.152  0.4440 -0.7112 -2.1154
 8243SOL    HW332739   0.930   0.766   2.179  1.0490  0.7106  1.0436
 8243SOL    MW432740   0.999   0.719   2.153  0.2469  0.2978  0.1023
 8244SOL     OW32741   4.261   0.134   3.147  0.5696 -0.1674 -0.0261
 8244SOL    HW232742   4.240   0.163   3.058 -0.5551 -1.0824 -0.0981
 8244SOL    HW332743   4.338   0.078   3.137  1.8502  1.5519 -0.0823
 8244SOL    MW432744   4.268   0.130   3.134  0.0432  0.0136 -0.2419
 8245SOL     OW32745   0.562   4.132   3.530  0.0357 -0.5337  0.3349
 8245SOL    HW232746   0.476   4.120   3.569  0.2977  0.4417  1.2804
 8245SOL    HW332747   0.621   4.140   3.606  0.5567  1.5341 -0.2096
 8245SOL    MW432748   0.559   4.132   3.545 -0.1828 -0.3355  0.3241
 8246SOL     OW32749   4.603   5.623   5.682 -0.2878  0.5152  0.7157
 8246SOL    HW232750   4.618   5.693   5.746 -0.3099 -0.2032  1.5094
 8246SOL    HW332751   4.669   5.640   5.614 -0.6827  1.6566  0.5852
 8246SOL    MW432752   4.614   5.635   5.681  0.3153  0.1691  0.1219
 8247SOL     OW32753   5.371   0.900   5.548  0.0880  0.2556  0.2142
 8247SOL    HW232754   5.448   0.844   5.538 -0.5612 -0.3688 -1.5574
 8247SOL    HW332755   5.391   0.978   5.497 -0.7555 -0.2699 -0.9673
 8247SOL    MW432756   5.384   0.903   5.540  0.4152  0.3051 -0.2008
 8248SOL     OW32757   3.128   6.217   5.507 -0.6155 -0.2926  0.1097
 8248SOL    HW232758   3.194   6.277   5.474 -3.5136  1.2460 -3.7521
 8248SOL    HW332759   3.169   6.130   5.501  0.6824  0.3797 -3.7611
 8248SOL    MW432760   3.142   6.213   5.502  0.1330 -0.4947  0.4880
 8249SOL     OW32761   0.992   5.453   3.294  0.4260 -0.4741  0.3278
 8249SOL    HW232762   0.917   5.508   3.318 -1.2993 -2.0488 -1.2227
 8249SOL    HW332763   0.995   5.385   3.361  2.4768  1.2325  2.1643
 8249SOL    MW432764   0.983   5.452   3.306 -0.0842  0.8624 -0.2820
 8250SOL     OW32765   5.128   6.481   3.063 -0.0862 -0.1622  0.1454
 8250SOL    HW232766   5.098   6.412   3.004 -0.0642 -1.4940  1.6260
 8250SOL    HW332767   5.081   6.560   3.035 -2.6311 -1.4991  0.4534
 8250SOL    MW432768   5.118   6.483   3.051 -0.3292 -0.0202  0.1137
 8251SOL     OW32769   2.450   4.937   0.606 -0.7347 -0.6075 -0.1908
 8251SOL    HW232770   2.400   5.006   0.562 -1.0847 -0.7365 -0.0002
 8251SOL    HW332771   2.507   4.901   0.538  1.5291  1.7312  0.2970
 8251SOL    MW432772   2.451   4.942   0.591 -0.2846 -0.4734 -0.1219
 8252SOL     OW32773   1.209   0.792   1.291  0.1397  0.0261 -0.5825
 8252SOL    HW232774   1.216   0.855   1.362 -0.4764 -2.3715  1.7585
 8252SOL    HW332775   1.299   0.774   1.266  0.3655  0.8687 -0.3957
 8252SOL    MW432776   1.222   0.798   1.297 -0.0308 -0.1431 -0.3796
 8253SOL     OW32777   6.049   4.539   3.159 -0.2004  0.3176  0.2375
 8253SOL    HW232778   6.057   4.618   3.105  3.5013  1.4737  2.1239
 8253SOL    HW332779   6.060   4.467   3.097  1.0734  1.4876 -0.9821
 8253SOL    MW432780   6.052   4.540   3.144 -0.1519  0.2364  0.5165
 8254SOL     OW32781   4.739   2.690   6.385 -0.1034 -0.3663  0.4302
 8254SOL    HW232782   4.823   2.711   6.343 -0.7402  1.0137 -0.2306
 8254SOL    HW332783   4.762   2.632   6.458  1.6559  1.4884  1.4493
 8254SOL    MW432784   4.754   2.685   6.389 -0.1128  0.0163  0.0499
 8255SOL     OW32785   2.367   0.543   5.809  0.0281  0.1428 -0.8920
 8255SOL    HW232786   2.354   0.448   5.815 -1.4774  0.2716 -1.5492
 8255SOL    HW332787   2.387   0.558   5.717  0.3970  0.4590 -0.7624
 8255SOL    MW432788   2.368   0.533   5.798 -0.4444 -0.2809  0.2550
 8256SOL     OW32789   4.979   0.339   4.153  0.2182  0.1442 -0.5226
 8256SOL    HW232790   4.949   0.430   4.161 -0.1336 -0.0897  1.2975
 8256SOL    HW332791   5.032   0.324   4.231  1.0464 -0.9407 -1.2717
 8256SOL    MW432792   4.982   0.349   4.164  0.3159  0.2394 -0.1093
 8257SOL     OW32793   4.924   5.309   5.596  0.0171  0.1703  0.1044
 8257SOL    HW232794   5.004   5.275   5.636  0.0743 -0.2177 -0.3252
 8257SOL    HW332795   4.881   5.232   5.561 -0.1389  0.4745 -0.3830
 8257SOL    MW432796   4.929   5.294   5.597  0.3937  0.1945 -0.0653
 8258SOL     OW32797   0.437   5.267   1.090  0.3565  0.5356  0.2578
 8258SOL    HW232798   0.517   5.316   1.111  0.0323  1.2978 -0.2166
 8258SOL    HW332799   0.451   5.236   1.000  0.7198 -0.5967  0.6892
 8258SOL    MW432800   0.450   5.269   1.081 -0.0275 -0.0300 -0.2098
 8259SOL     OW32801   1.217   4.579   2.755  0.5813  0.0121  0.0465
 8259SOL    HW232802   1.258   4.526   2.822  1.3368 -0.4988 -0.7890
 8259SOL    HW332803   1.229   4.529   2.674 -1.1230  0.1614 -0.3411
 8259SOL    MW432804   1.224   4.566   2.753  0.0092 -0.3330  0.6356
 8260SOL     OW32805   4.957   0.954   5.076 -0.0670  0.3093 -0.3031
 8260SOL    HW232806   4.961   0.880   5.015 -0.4057  0.8432 -0.9781
 8260SOL    HW332807   4.950   0.913   5.163  0.4145 -0.4523 -0.6116
 8260SOL    MW432808   4.957   0.939   5.080  0.1207  0.0745  0.2369
 8261SOL     OW32809   3.050   0.551   2.897  0.2501 -0.1642 -0.5896
 8261SOL    HW232810   2.982   0.484   2.908 -0.4486  0.5026 -0.7511
 8261SOL    HW332811   3.049   0.570   2.803  0.7507 -0.2327 -0.6123
 8261SOL    MW432812   3.041   0.545   2.886 -0.6299  0.2579 -0.5439
 8262SOL     OW32813   3.496   1.733   4.037 -0.4505 -0.3758  0.1662
 8262SOL    HW232814   3.542   1.651   4.019  0.6466  0.1716  0.3989
 8262SOL    HW332815   3.506   1.746   4.131  0.3415  0.5606 -0.0301
 8262SOL    MW432816   3.504   1.724   4.047 -0.1947  0.0427  0.1175
 8263SOL     OW32817   0.911   4.250   0.512 -0.0376  0.0081  0.0856
 8263SOL    HW232818   0.896   4.238   0.606  0.8188 -1.1589  0.0835
 8263SOL    HW332819   0.911   4.345   0.500 -1.4180  0.1677  1.0444
 8263SOL    MW432820   0.909   4.261   0.522 -0.4991 -0.2532 -0.0504
 8264SOL     OW32821   0.521   0.067   6.325 -0.2651  0.1322 -0.1786
 8264SOL    HW232822   0.475   0.137   6.370 -1.3850 -0.6323 -0.0732
 8264SOL    HW332823   0.542   0.003   6.393 -1.1111 -0.5802 -0.5539
 8264SOL    MW432824   0.518   0.068   6.340  0.0215 -0.1971 -0.3420
 8265SOL     OW32825   3.548   4.244   1.519  0.3188 -0.4607 -0.0062
 8265SOL    HW232826   3.514   4.275   1.603  1.9027  0.3437  0.3957
 8265SOL    HW332827   3.482   4.270   1.455 -0.9737 -1.2097  0.9959
 8265SOL    MW432828   3.535   4.252   1.522 -0.0361  0.4937 -0.2815
 8266SOL     OW32829   2.466   5.048   6.128 -0.1955 -0.4382  0.1168
 8266SOL    HW232830   2.382   5.081   6.160  0.4945 -0.3852  2.0133
 8266SOL    HW332831   2.512   5.018   6.207  1.9723  0.4511 -0.7270
 8266SOL    MW432832   2.461   5.048   6.143 -0.2581 -0.0245 -0.4271
 8267SOL     OW32833   4.899   2.765   5.611  0.0559 -0.4952  0.3672
 8267SOL    HW232834   4.974   2.706   5.602  0.3592 -0.0744  0.1437
 8267SOL    HW332835   4.823   2.711   5.587  0.1205 -1.3107  1.8238
 8267SOL    MW432836   4.899   2.750   5.607 -0.4906  0.0136  0.1398
 8268SOL     OW32837   2.946   6.073   1.775 -0.0270 -0.2889  1.0640
 8268SOL    HW232838   2.999   5.994   1.782  1.3818  0.6116  0.9899
 8268SOL    HW332839   2.891   6.057   1.698 -0.5442 -1.6135  1.6742
 8268SOL    MW432840   2.946   6.060   1.766  0.4763  0.0895 -0.1391
 8269SOL     OW32841   3.003   4.612   0.466  0.4431 -0.4444  0.0706
 8269SOL    HW232842   3.030   4.546   0.402 -1.4069 -2.5821  1.3350
 8269SOL    HW332843   2.958   4.562   0.535 -0.3051  2.0676  1.5485
 8269SOL    MW432844   3.000   4.597   0.467  0.2002  0.9837 -0.9943
 8270SOL     OW32845   6.055   2.406   2.206 -0.1496  0.9301  0.1422
 8270SOL    HW232846   6.051   2.391   2.112  0.4802  0.0047  0.2571
 8270SOL    HW332847   5.964   2.396   2.235 -0.4387  1.7612 -0.4299
 8270SOL    MW432848   6.042   2.403   2.198  0.0324 -0.2576  0.2023
 8271SOL     OW32849   4.339   0.402   1.748  0.5503 -0.1572  0.2625
 8271SOL    HW232850   4.333   0.362   1.661 -0.0002  0.1197  0.1653
 8271SOL    HW332851   4.433   0.404   1.767  1.0639  2.9335 -1.8293
 8271SOL    MW432852   4.350   0.397   1.739  0.2712  0.4559 -0.2160
 8272SOL     OW32853   3.090   4.983   3.817 -0.0908 -0.2928  0.1114
 8272SOL    HW232854   3.071   5.035   3.895  1.2206 -1.0444  0.9659
 8272SOL    HW332855   3.006   4.947   3.790 -0.7769  1.0545  0.3739
 8272SOL    MW432856   3.077   4.985   3.824  0.3130  0.1538  0.0187
 8273SOL     OW32857   2.977   0.736   3.375  0.1933 -0.0666 -0.1262
 8273SOL    HW232858   2.988   0.807   3.312 -0.3709  1.8022  1.7862
 8273SOL    HW332859   2.889   0.702   3.357 -0.5417  1.4032  0.5031
 8273SOL    MW432860   2.967   0.741   3.364 -0.3758 -0.1212  0.1979
 8274SOL     OW32861   4.220   1.313   1.493  0.2875 -0.4433  0.4648
 8274SOL    HW232862   4.307   1.285   1.464  0.4092  0.6214 -0.2385
 8274SOL    HW332863   4.181   1.234   1.531  2.2309 -0.5400  2.4636
 8274SOL    MW432864   4.227   1.299   1.494  0.0432  0.6470 -0.4857
 8275SOL     OW32865   1.649   2.134   3.540 -0.3513 -0.3775 -0.1790
 8275SOL    HW232866   1.650   2.210   3.598 -0.3302  0.9448 -1.8610
 8275SOL    HW332867   1.557   2.121   3.518 -0.3834 -1.0150  0.3030
 8275SOL    MW432868   1.637   2.142   3.545 -0.1937 -0.2204 -0.4372
 8276SOL     OW32869   2.622   4.226   1.687 -0.4563  0.0525 -0.6313
 8276SOL    HW232870   2.690   4.271   1.738 -2.0191  1.3867  0.3883
 8276SOL    HW332871   2.591   4.156   1.745 -3.0671  2.3011  0.9675
 8276SOL    MW432872   2.627   4.223   1.701  0.1949 -0.8109 -0.0619
 8277SOL     OW32873   5.126   2.343   3.453  0.5606 -0.6560 -0.2771
 8277SOL    HW232874   5.133   2.334   3.548 -3.5795  1.5604  0.4897
 8277SOL    HW332875   5.044   2.298   3.431 -0.3784  1.7626 -2.1832
 8277SOL    MW432876   5.116   2.336   3.463  0.5618  0.2647 -0.4055
 8278SOL     OW32877   0.236   5.470   1.042 -0.4709  0.6274 -0.0347
 8278SOL    HW232878   0.290   5.509   0.973 -0.6023  0.4902 -0.2132
 8278SOL    HW332879   0.298   5.418   1.094 -0.0208  2.1185  1.0059
 8278SOL    MW432880   0.252   5.468   1.040 -0.2844 -0.8161  0.2832
 8279SOL     OW32881   3.033   0.959   3.520 -0.0735  0.2809  0.9471
 8279SOL    HW232882   2.974   1.016   3.470  1.1431  0.1091 -0.7786
 8279SOL    HW332883   2.999   0.871   3.503  0.4758  0.2045  0.1918
 8279SOL    MW432884   3.020   0.955   3.511  0.1776 -0.2200 -0.8148
 8280SOL     OW32885   1.199   2.613   3.292  0.3173 -0.2081 -0.3259
 8280SOL    HW232886   1.282   2.640   3.253  0.8337 -1.1926  0.0563
 8280SOL    HW332887   1.181   2.680   3.358 -0.7354  1.6611 -2.3941
 8280SOL    MW432888   1.208   2.626   3.295  0.2147  0.2324 -0.2598
 8281SOL     OW32889   1.911   4.470   4.246  0.5088 -0.1804 -0.2339
 8281SOL    HW232890   1.877   4.429   4.166 -0.7891  0.8830 -0.2581
 8281SOL    HW332891   1.896   4.405   4.315 -3.1354  0.7614  0.0545
 8281SOL    MW432892   1.905   4.456   4.245 -0.3252 -0.5565  0.3239
 8282SOL     OW32893   2.815   3.248   1.587  0.0637 -0.3545  0.1591
 8282SOL    HW232894   2.883   3.189   1.620 -0.5645 -0.1746  1.8623
 8282SOL    HW332895   2.734   3.199   1.594 -0.1532 -0.1440 -0.7412
 8282SOL    MW432896   2.813   3.234   1.592  0.0754  0.8420 -0.3286
 8283SOL     OW32897   4.537   5.879   4.463 -0.4092  0.0187 -0.4344
 8283SOL    HW232898   4.541   5.945   4.393 -2.0862 -0.7744 -1.3450
 8283SOL    HW332899   4.475   5.916   4.527 -0.2943 -0.0692 -0.2726
 8283SOL    MW432900   4.529   5.893   4.462  0.3733  0.0590 -0.2843
 8284SOL     OW32901   2.300   4.026   1.876 -0.1106  0.0808 -0.1638
 8284SOL    HW232902   2.302   4.119   1.897 -0.1458  0.0391  0.0269
 8284SOL    HW332903   2.241   4.020   1.801  1.2931  0.4355 -1.3418
 8284SOL    MW432904   2.292   4.037   1.869 -0.1403 -0.1520 -0.2415
 8285SOL     OW32905   2.734   5.593   0.504 -0.1238  0.4043 -0.4070
 8285SOL    HW232906   2.694   5.680   0.496  1.1109  1.3321  2.2190
 8285SOL    HW332907   2.666   5.539   0.543 -0.1982  0.7986  0.0183
 8285SOL    MW432908   2.720   5.597   0.508  0.3804 -0.1439 -0.4465
 8286SOL     OW32909   0.314   6.437   6.127  0.1788 -0.1087 -0.0554
 8286SOL    HW232910   0.223   6.434   6.158 -0.7661  2.5857 -2.1672
 8286SOL    HW332911   0.364   6.470   6.203 -0.6675 -1.1185  0.9732
 8286SOL    MW432912   0.309   6.441   6.141  0.0070 -0.2074 -0.7595
 8287SOL     OW32913   4.993   4.840   3.290 -1.0272  0.2106 -0.1610
 8287SOL    HW232914   5.018   4.772   3.352 -0.6558 -0.3102 -0.8703
 8287SOL    HW332915   4.897   4.841   3.294 -1.0171 -0.0100  0.2184
 8287SOL    MW432916   4.983   4.831   3.299  0.2825  0.0880  0.1509
 8288SOL     OW32917   2.830   1.375   3.523 -0.0815  0.0044  0.0489
 8288SOL    HW232918   2.758   1.326   3.484  1.0585 -1.1524 -0.6947
 8288SOL    HW332919   2.860   1.434   3.453 -0.2925  0.4948  0.3613
 8288SOL    MW432920   2.825   1.377   3.509  0.0919  0.0130  0.0909
 8289SOL     OW32921   0.422   5.823   6.208 -0.2632  0.0467 -0.0619
 8289SOL    HW232922   0.410   5.821   6.303  4.5659  0.1435  0.8001
 8289SOL    HW332923   0.436   5.916   6.188 -1.7999  0.1046 -1.0723
 8289SOL    MW432924   0.422   5.835   6.217 -0.5067  0.4247 -0.3491
 8290SOL     OW32925   1.470   6.470   5.950 -0.4834  0.4264 -0.7049
 8290SOL    HW232926   1.421   6.536   5.901 -2.2086 -1.3131 -1.4798
 8290SOL    HW332927   1.403   6.414   5.989  0.8980 -1.0288 -0.3074
 8290SOL    MW432928   1.455   6.471   5.948  0.8603 -0.5277  0.2750
 8291SOL     OW32929   4.139   4.703   5.152 -0.0155  0.3237  0.5364
 8291SOL    HW232930   4.136   4.612   5.182  0.4829  0.3261  0.6144
 8291SOL    HW332931   4.162   4.698   5.060 -0.2003  0.3622  0.4888
 8291SOL    MW432932   4.142   4.691   5.144  0.4220  0.1340  0.2065
 8292SOL     OW32933   5.191   1.525   1.456  0.0181 -0.1114 -0.0662
 8292SOL    HW232934   5.253   1.598   1.452  0.3259 -0.3828 -0.3457
 8292SOL    HW332935   5.217   1.468   1.383 -1.6514  0.6298 -1.2927
 8292SOL    MW432936   5.203   1.527   1.446  0.2629  0.1515 -1.0466
 8293SOL     OW32937   1.283   5.033   1.388  0.7514  0.4810  0.2378
 8293SOL    HW232938   1.244   5.106   1.341 -0.6982 -0.9516 -0.9029
 8293SOL    HW332939   1.249   5.041   1.477 -1.3600 -0.1179 -0.4713
 8293SOL    MW432940   1.274   5.044   1.394  0.2290  0.0039  0.4363
 8294SOL     OW32941   3.036   0.963   3.194  0.1124  0.1760 -0.1255
 8294SOL    HW232942   2.974   1.030   3.222  0.5012  1.0398 -1.2195
 8294SOL    HW332943   2.989   0.912   3.128  0.5358  0.8295 -0.9529
 8294SOL    MW432944   3.022   0.965   3.189  0.1515 -0.4500 -0.4035
 8295SOL     OW32945   5.178   4.481   1.817  0.5042 -0.1431  0.3905
 8295SOL    HW232946   5.130   4.443   1.744 -0.0983  1.1979  0.0564
 8295SOL    HW332947   5.114   4.485   1.888 -0.2405  2.4829 -0.3218
 8295SOL    MW432948   5.163   4.477   1.817  0.6919 -0.6521 -0.1864
 8296SOL     OW32949   5.335   3.456   0.593  0.1654  0.4687 -0.0441
 8296SOL    HW232950   5.298   3.491   0.512  1.0691 -0.5442 -0.9256
 8296SOL    HW332951   5.388   3.381   0.565 -0.5903 -0.7543  1.6098
 8296SOL    MW432952   5.337   3.451   0.579 -0.6081 -0.0690 -0.1899
 8297SOL     OW32953   5.790   4.158   2.122 -0.1009 -0.2117 -0.0915
 8297SOL    HW232954   5.724   4.101   2.082 -0.8242  0.6071 -0.0832
 8297SOL    HW332955   5.819   4.109   2.199  0.0036 -0.9984 -0.6177
 8297SOL    MW432956   5.785   4.144   2.127  0.6211  0.4684 -0.0477
 8298SOL     OW32957   1.667   0.486   5.742  0.2066 -0.3072 -0.0909
 8298SOL    HW232958   1.631   0.470   5.829 -0.8045  0.3968 -0.3665
 8298SOL    HW332959   1.759   0.506   5.758  0.0408 -0.2068  0.8095
 8298SOL    MW432960   1.675   0.486   5.756 -0.2688 -0.3609  0.3139
 8299SOL     OW32961   1.368   1.433   0.576 -0.4475  0.1369 -0.4703
 8299SOL    HW232962   1.461   1.417   0.556 -0.0604 -0.5008  1.6253
 8299SOL    HW332963   1.366   1.526   0.601 -0.4844  0.2919 -1.0344
 8299SOL    MW432964   1.380   1.443   0.576 -0.1053 -0.2769 -0.1126
 8300SOL     OW32965   0.333   1.636   5.277  0.2844 -0.2513  0.0857
 8300SOL    HW232966   0.290   1.700   5.221  1.2999  0.2941 -0.0944
 8300SOL    HW332967   0.336   1.677   5.363  0.3659 -0.3204  0.1160
 8300SOL    MW432968   0.328   1.650   5.281 -0.0401 -0.0801  0.3835
 8301SOL     OW32969   4.421   3.365   0.787  0.2116 -0.0316  0.1777
 8301SOL    HW232970   4.413   3.288   0.843 -0.1018  0.4807  0.8561
 8301SOL    HW332971   4.364   3.347   0.712  0.8034 -0.8171 -0.0914
 8301SOL    MW432972   4.413   3.353   0.785  0.1305 -0.0924 -0.0201
 8302SOL     OW32973   4.133   3.649   5.057 -0.6772  0.0274 -0.0133
 8302SOL    HW232974   4.162   3.740   5.068 -1.4419 -0.0205  3.3725
 8302SOL    HW332975   4.037   3.655   5.055 -0.7795 -0.7502  1.5008
 8302SOL    MW432976   4.124   3.662   5.058 -0.5046  0.2263  0.1898
 8303SOL     OW32977   2.521   0.945   3.666 -0.0672  0.2192 -0.2277
 8303SOL    HW232978   2.452   0.912   3.608  0.3268 -0.2383 -0.4403
 8303SOL    HW332979   2.599   0.950   3.610  0.0713  0.7532  0.0062
 8303SOL    MW432980   2.522   0.942   3.651  0.0437 -0.4915 -0.3629
 8304SOL     OW32981   0.999   0.643   3.522  0.0416 -0.2064 -0.4765
 8304SOL    HW232982   0.970   0.552   3.515  0.7429 -0.4968  0.2701
 8304SOL    HW332983   0.987   0.664   3.615  0.5809  0.2171 -0.4998
 8304SOL    MW432984   0.993   0.634   3.533 -0.0249  0.2615  0.4670
 8305SOL     OW32985   1.945   4.258   5.928 -0.4060  0.5456  0.2840
 8305SOL    HW232986   1.922   4.166   5.915 -1.2146  0.8317 -0.4289
 8305SOL    HW332987   1.951   4.294   5.839  2.0021  0.7115  0.4614
 8305SOL    MW432988   1.943   4.251   5.914  0.5319 -0.4645  0.1585
 8306SOL     OW32989   5.197   0.593   2.843  0.0843 -0.2732  0.1402
 8306SOL    HW232990   5.208   0.498   2.848  0.8550 -0.2875 -1.3139
 8306SOL    HW332991   5.159   0.608   2.757  1.9531  0.8594 -0.5529
 8306SOL    MW432992   5.194   0.582   2.833 -0.3675 -0.6090 -0.4396
 8307SOL     OW32993   1.104   4.899   3.106  0.1410 -0.1534 -0.1318
 8307SOL    HW232994   1.026   4.851   3.080 -0.4576  0.3556  0.6723
 8307SOL    HW332995   1.095   4.910   3.201  0.4668  1.1821 -0.2376
 8307SOL    MW432996   1.093   4.894   3.115  0.4619 -0.1253  0.9981
 8308SOL     OW32997   1.363   0.462   0.927  0.4869 -0.1689 -0.4210
 8308SOL    HW232998   1.354   0.554   0.902 -2.6816 -0.0667  0.6865
 8308SOL    HW332999   1.287   0.444   0.982  1.5465 -3.2105  0.2508
 8308SOL    MW433000   1.352   0.472   0.931 -0.1308 -0.8304  0.6595
 8309SOL     OW33001   4.256   5.803   3.118  0.0949  0.3483 -0.1403
 8309SOL    HW233002   4.337   5.760   3.145  0.4654  0.0500 -1.6223
 8309SOL    HW333003   4.190   5.770   3.179  0.9340 -0.0305  0.5823
 8309SOL    MW433004   4.258   5.793   3.129 -0.4682  0.0351 -0.2597
 8310SOL     OW33005   5.846   2.222   0.592 -0.0589  0.0132  0.2145
 8310SOL    HW233006   5.845   2.228   0.496  1.6464  0.0559  0.1665
 8310SOL    HW333007   5.882   2.136   0.611 -2.2697 -0.8349  0.8679
 8310SOL    MW433008   5.851   2.212   0.582  0.4022  0.2109  0.6213
 8311SOL     OW33009   5.116   2.651   3.678  0.4635  0.3885  0.4018
 8311SOL    HW233010   5.146   2.641   3.588 -2.0125  0.1293 -0.4606
 8311SOL    HW333011   5.116   2.561   3.713  2.8455  0.6312  1.2438
 8311SOL    MW433012   5.120   2.638   3.671 -0.6993  0.4711  0.6493
 8312SOL     OW33013   0.818   3.139   6.301 -0.1232  0.0325 -0.0056
 8312SOL    HW233014   0.794   3.216   6.352  0.0362  0.6207 -0.7921
 8312SOL    HW333015   0.735   3.100   6.275 -0.3003  1.5481 -1.9616
 8312SOL    MW433016   0.804   3.144   6.304  0.0282  0.5985 -0.3169
 8313SOL     OW33017   0.547   5.547   3.221 -0.2059 -0.3114 -0.2662
 8313SOL    HW233018   0.462   5.578   3.190 -0.3875 -1.1488 -0.6450
 8313SOL    HW333019   0.532   5.455   3.242  0.3864 -0.2355  0.5340
 8313SOL    MW433020   0.533   5.539   3.220  0.7453  0.0658 -0.2906
 8314SOL     OW33021   0.840   4.470   5.927  0.1773  0.1138  0.3174
 8314SOL    HW233022   0.795   4.416   5.862 -0.2666 -1.0481  1.5497
 8314SOL    HW333023   0.922   4.424   5.944 -0.6738 -0.8258  2.1671
 8314SOL    MW433024   0.845   4.457   5.921 -0.6989 -0.0179  0.2148
 8315SOL     OW33025   2.254   4.651   4.896  0.0759 -0.3342  0.5050
 8315SOL    HW233026   2.292   4.690   4.974  1.6710  1.1415 -0.9085
 8315SOL    HW333027   2.326   4.649   4.833 -0.9055 -2.3181 -0.6500
 8315SOL    MW433028   2.268   4.656   4.898 -0.0532  0.1149  0.2585
 8316SOL     OW33029   4.930   5.566   5.002 -0.2052 -0.5339 -0.3998
 8316SOL    HW233030   5.003   5.619   4.970 -0.6601 -0.8387 -2.0584
 8316SOL    HW333031   4.971   5.484   5.030  0.7655  1.1367  3.9212
 8316SOL    MW433032   4.945   5.562   5.001 -0.7082 -0.5689  0.3865
 8317SOL     OW33033   4.205   2.847   0.670  0.1997 -0.2494 -0.0812
 8317SOL    HW233034   4.257   2.774   0.638  0.7044  0.9911 -2.2427
 8317SOL    HW333035   4.256   2.925   0.648 -0.8459  0.8231  1.1447
 8317SOL    MW433036   4.218   2.848   0.663 -0.5960 -0.3110  0.3236
 8318SOL     OW33037   6.014   5.122   2.679  0.2994  0.3085  0.6676
 8318SOL    HW233038   6.090   5.179   2.691  0.4286  0.2798  0.0242
 8318SOL    HW333039   5.940   5.175   2.707  0.5167  0.4487  0.9955
 8318SOL    MW433040   6.014   5.136   2.684 -0.4460 -0.4769 -0.9109
 8319SOL     OW33041   0.085   4.365   4.051  0.1048  0.2441  0.5330
 8319SOL    HW233042   0.057   4.329   3.966  1.1189 -0.5628  0.5243
 8319SOL    HW333043   0.181   4.357   4.050  0.1865  0.9666  1.4338
 8319SOL    MW433044   0.094   4.359   4.039  0.2987 -0.1467 -0.2421
 8320SOL     OW33045   0.204   0.818   2.473  0.5840 -0.0560  0.1622
 8320SOL    HW233046   0.225   0.826   2.566  2.7546  1.9512 -0.3910
 8320SOL    HW333047   0.150   0.894   2.453 -0.9121 -1.1186 -0.0415
 8320SOL    MW433048   0.200   0.829   2.482 -0.0989 -0.6310 -0.5322
 8321SOL     OW33049   4.995   4.120   0.203  0.1496 -0.3821 -0.1396
 8321SOL    HW233050   4.914   4.125   0.254  0.0478  0.4704 -0.3534
 8321SOL    HW333051   5.065   4.122   0.268  0.0432  1.4997 -0.0110
 8321SOL    MW433052   4.993   4.121   0.218  0.0311  0.1651 -0.5041
 8322SOL     OW33053   2.802   2.821   6.097  0.1141  0.1534  0.1071
 8322SOL    HW233054   2.747   2.892   6.064  1.1302  0.4097 -1.1006
 8322SOL    HW333055   2.744   2.745   6.101 -0.2586  0.3209 -1.5327
 8322SOL    MW433056   2.787   2.820   6.094 -0.8125  0.3511  0.1003
 8323SOL     OW33057   2.451   0.762   1.334 -0.1076 -0.1352  0.2106
 8323SOL    HW233058   2.425   0.672   1.315  1.1269 -0.6450  0.8396
 8323SOL    HW333059   2.532   0.774   1.285  0.7803 -0.0334  1.6348
 8323SOL    MW433060   2.458   0.751   1.325  0.0653 -0.2151 -1.0270
 8324SOL     OW33061   1.077   0.292   1.590  0.5038 -0.0004 -0.3444
 8324SOL    HW233062   1.134   0.272   1.515 -0.2143  0.6735 -1.1010
 8324SOL    HW333063   1.067   0.387   1.587  0.0225 -0.0302  0.2806
 8324SOL    MW433064   1.083   0.302   1.580  0.2632 -0.5208 -0.1550
 8325SOL     OW33065   1.584   4.354   5.384 -0.0920  0.0835 -0.0656
 8325SOL    HW233066   1.508   4.411   5.396  1.7163  2.4653  1.1032
 8325SOL    HW333067   1.628   4.389   5.306  0.8352  0.0797  0.4380
 8325SOL    MW433068   1.580   4.366   5.375  0.2519  0.0649  0.6002
 8326SOL     OW33069   1.966   1.668   1.906  0.5125  0.6147  0.2124
 8326SOL    HW233070   2.058   1.664   1.931  0.1033  0.3477  1.7355
 8326SOL    HW333071   1.941   1.576   1.893  0.6493  0.7293 -1.0038
 8326SOL    MW433072   1.975   1.655   1.907 -0.1898  0.8634 -0.3857
 8327SOL     OW33073   6.163   6.173   2.703 -0.5372 -0.1815 -0.0689
 8327SOL    HW233074   6.084   6.218   2.732  0.1398  0.0209  1.5221
 8327SOL    HW333075   6.200   6.231   2.636 -2.0944 -0.6414 -1.3935
 8327SOL    MW433076   6.158   6.187   2.698  0.3025 -0.7147  0.4977
 8328SOL     OW33077   4.073   2.911   1.413  0.3261  0.1047  0.2928
 8328SOL    HW233078   4.056   2.877   1.325  0.1234 -1.6420  0.9683
 8328SOL    HW333079   4.045   2.841   1.471  0.4503  1.2375  1.7658
 8328SOL    MW433080   4.067   2.897   1.409 -0.4873 -0.2164 -0.5002
 8329SOL     OW33081   5.623   0.269   3.180 -0.2434 -0.2342 -0.4963
 8329SOL    HW233082   5.624   0.345   3.238 -0.4594 -1.5222  1.3121
 8329SOL    HW333083   5.709   0.267   3.139 -0.3799  1.1843 -0.8978
 8329SOL    MW433084   5.634   0.279   3.182  0.3085 -0.2442  0.1989
 8330SOL     OW33085   1.489   2.407   6.239 -0.0408  0.0806 -0.0664
 8330SOL    HW233086   1.556   2.355   6.284  1.6934  0.8955 -1.5633
 8330SOL    HW333087   1.482   2.487   6.290  0.4565  0.1639 -0.1191
 8330SOL    MW433088   1.497   2.411   6.252  0.9104  0.1417 -0.1347
 8331SOL     OW33089   3.026   3.887   2.870  0.3340  0.1975 -0.1620
 8331SOL    HW233090   3.032   3.841   2.954  1.3323 -0.4136 -0.5594
 8331SOL    HW333091   3.110   3.873   2.828  0.0159  0.8958 -1.0795
 8331SOL    MW433092   3.038   3.879   2.876  0.1357  0.6338 -0.4995
 8332SOL     OW33093   0.122   5.245   0.942 -0.1608 -0.2523  0.4626
 8332SOL    HW233094   0.157   5.315   0.998  0.0118  0.3982 -0.4366
 8332SOL    HW333095   0.035   5.227   0.977 -0.1441  0.3068  0.8039
 8332SOL    MW433096   0.115   5.252   0.954  0.3283 -0.0610  0.0792
 8333SOL     OW33097   0.664   2.041   1.785  0.2431  0.4095 -0.2924
 8333SOL    HW233098   0.663   1.946   1.775  2.4845  0.2617  0.2596
 8333SOL    HW333099   0.574   2.065   1.805 -0.5757 -1.4527 -1.5282
 8333SOL    MW433100   0.652   2.032   1.786  0.3980  0.7559 -0.4930
 8334SOL     OW33101   5.408   5.542   1.108  0.3459  0.5224  0.0541
 8334SOL    HW233102   5.409   5.636   1.090  1.0083  0.5094  0.0014
 8334SOL    HW333103   5.327   5.528   1.156 -0.1167  0.9995 -0.5716
 8334SOL    MW433104   5.398   5.552   1.112  0.2139  0.2407 -0.8813
 8335SOL     OW33105   2.069   2.905   4.432 -0.4560 -0.0569 -0.5684
 8335SOL    HW233106   2.064   3.000   4.444 -2.6417 -0.1429 -0.4238
 8335SOL    HW333107   2.158   2.889   4.401  0.2103  1.9413  0.1857
 8335SOL    MW433108   2.080   2.915   4.430 -0.7640  0.6051  0.1474
 8336SOL     OW33109   4.617   3.990   4.054 -0.1213 -0.6447  0.2981
 8336SOL    HW233110   4.646   4.036   4.133  1.3599 -1.1395  0.0612
 8336SOL    HW333111   4.674   3.913   4.048 -0.4085 -0.7698 -1.0954
 8336SOL    MW433112   4.628   3.986   4.064  0.0440 -0.1575 -0.1502
 8337SOL     OW33113   5.974   0.108   5.213  0.0643  0.1336  0.7159
 8337SOL    HW233114   5.944   0.150   5.294  1.3761  1.2345  0.6750
 8337SOL    HW333115   5.947   0.167   5.143  0.5839  0.1426  0.5176
 8337SOL    MW433116   5.967   0.121   5.215  0.4611  0.3911  0.1481
 8338SOL     OW33117   6.276   4.638   3.604 -0.3434  0.1987  0.2344
 8338SOL    HW233118   6.269   4.603   3.515  0.6088 -0.5338  0.4269
 8338SOL    HW333119   6.203   4.599   3.652  0.5072 -1.3050  0.3584
 8338SOL    MW433120   6.265   4.628   3.599 -0.3430  0.2829  0.5068
 8339SOL     OW33121   1.244   6.041   3.799 -0.3203 -0.2596 -0.1319
 8339SOL    HW233122   1.292   6.058   3.880 -0.5798 -1.3705  0.2753
 8339SOL    HW333123   1.158   6.081   3.813 -0.6100 -1.0549  0.4431
 8339SOL    MW433124   1.239   6.048   3.811  0.0440  0.5442  0.3366
 8340SOL     OW33125   4.431   2.654   1.446  0.4251 -0.2276 -0.2686
 8340SOL    HW233126   4.421   2.594   1.371  3.0905 -0.4280 -0.5574
 8340SOL    HW333127   4.420   2.741   1.408  1.7292 -0.3278 -0.9373
 8340SOL    MW433128   4.428   2.658   1.431 -0.3159  0.4462 -0.0552
 8341SOL     OW33129   5.325   3.180   1.109  0.1945  0.0089  0.1869
 8341SOL    HW233130   5.377   3.233   1.169 -0.3042  0.6795  0.0345
 8341SOL    HW333131   5.283   3.243   1.051 -0.4595 -0.5445  0.0387
 8341SOL    MW433132   5.326   3.195   1.109 -0.0711 -0.1847 -0.4953
 8342SOL     OW33133   2.601   3.336   3.739  0.5439 -0.2834 -0.4500
 8342SOL    HW233134   2.687   3.379   3.748 -0.2834  1.4586 -0.4531
 8342SOL    HW333135   2.583   3.301   3.827  0.9496 -0.0601 -0.2731
 8342SOL    MW433136   2.610   3.337   3.752 -0.3345  0.0854 -0.2713
 8343SOL     OW33137   0.799   5.131   1.721  0.7151 -0.3092 -0.3100
 8343SOL    HW233138   0.821   5.224   1.711  0.5420 -0.4353 -2.2480
 8343SOL    HW333139   0.763   5.106   1.636  0.5209 -2.1064  0.2631
 8343SOL    MW433140   0.797   5.140   1.709  0.1950  0.3460  0.5887
 8344SOL     OW33141   1.709   0.100   2.429  0.2518 -0.4649  0.1784
 8344SOL    HW233142   1.775   0.160   2.395  0.2289 -1.3853 -1.6032
 8344SOL    HW333143   1.632   0.155   2.443  1.1438  0.4782  1.5758
 8344SOL    MW433144   1.707   0.115   2.426  0.2711  0.0096 -0.2777
 8345SOL     OW33145   6.384   1.813   2.605 -0.3306  0.1210 -0.0134
 8345SOL    HW233146   6.367   1.732   2.654 -1.2869 -0.3042 -0.9866
 8345SOL    HW333147   6.427   1.871   2.668 -1.1099 -0.5556  1.1865
 8345SOL    MW433148   6.387   1.810   2.620  0.4083  0.2879 -0.2866
 8346SOL     OW33149   0.600   5.343   4.459 -0.3142 -0.4934  0.2691
 8346SOL    HW233150   0.588   5.345   4.364 -1.5462  2.9032  0.3579
 8346SOL    HW333151   0.693   5.358   4.472 -0.4112  0.8670 -0.4389
 8346SOL    MW433152   0.611   5.345   4.448 -0.9219 -0.2876  0.0511
 8347SOL     OW33153   1.155   1.722   1.891  0.2693  0.0240  0.2213
 8347SOL    HW233154   1.197   1.678   1.817 -1.3077  0.8906 -1.2834
 8347SOL    HW333155   1.136   1.810   1.859 -1.9028 -0.0609  1.0574
 8347SOL    MW433156   1.158   1.728   1.877  0.2320  0.0608 -0.4292
 8348SOL     OW33157   4.690   2.785   5.823 -0.6297 -0.1508 -0.9720
 8348SOL    HW233158   4.689   2.760   5.916 -2.9625 -0.0664 -0.9096
 8348SOL    HW333159   4.782   2.776   5.797 -0.0665 -1.0922  1.0920
 8348SOL    MW433160   4.702   2.780   5.832 -0.0679 -0.0992 -0.6685
 8349SOL     OW33161   1.039   1.004   6.242  0.3090  0.3857 -0.2426
 8349SOL    HW233162   1.128   1.011   6.277 -0.1810 -1.5601  1.6044
 8349SOL    HW333163   1.049   1.023   6.148  2.9522 -1.1790 -0.3945
 8349SOL    MW433164   1.052   1.007   6.234 -0.5339 -0.2256  0.0089
 8350SOL     OW33165   0.898   5.607   2.379  0.3146  0.4577  0.2069
 8350SOL    HW233166   0.985   5.644   2.397 -0.1846  1.6986  0.1787
 8350SOL    HW333167   0.872   5.566   2.462  0.3572  1.2847  0.6395
 8350SOL    MW433168   0.906   5.606   2.392 -0.6745 -0.2599  1.1358
 8351SOL     OW33169   3.029   4.003   4.322  0.2610  0.6282  0.0871
 8351SOL    HW233170   3.086   4.061   4.273  0.1969 -0.4262 -1.3087
 8351SOL    HW333171   2.942   4.017   4.284  0.3502 -0.7818 -0.7187
 8351SOL    MW433172   3.025   4.012   4.311 -0.2523 -0.0107  0.2399
 8352SOL     OW33173   2.156   4.747   4.501  0.8573  0.0849  0.3838
 8352SOL    HW233174   2.244   4.763   4.466  0.2141 -2.9418 -3.4189
 8352SOL    HW333175   2.156   4.654   4.521 -1.0988  0.3236  1.6691
 8352SOL    MW433176   2.168   4.737   4.499 -0.3300  0.2332  0.0810
 8353SOL     OW33177   3.839   3.486   3.786 -0.7676 -0.1100 -0.3191
 8353SOL    HW233178   3.806   3.457   3.701  0.3653 -1.9390 -0.2065
 8353SOL    HW333179   3.862   3.578   3.774 -1.5298 -0.0839 -1.7003
 8353SOL    MW433180   3.838   3.494   3.773 -0.2778 -0.4430 -0.4701
 8354SOL     OW33181   5.882   6.124   4.257 -0.2906  0.1346 -0.3128
 8354SOL    HW233182   5.890   6.196   4.195 -0.2604  0.4252  0.0283
 8354SOL    HW333183   5.794   6.133   4.293  0.1151  0.6737  0.5609
 8354SOL    MW433184   5.871   6.135   4.253  0.1723  0.3590  0.6094
 8355SOL     OW33185   2.618   4.506   4.498 -0.5147 -0.0872  0.1093
 8355SOL    HW233186   2.685   4.446   4.531  0.1915  0.8467  0.4024
 8355SOL    HW333187   2.553   4.448   4.458 -0.4290 -1.1265  1.3886
 8355SOL    MW433188   2.618   4.490   4.497  0.5219 -0.2423 -0.1194
 8356SOL     OW33189   0.542   1.594   5.950  0.4687  0.4383 -0.5848
 8356SOL    HW233190   0.473   1.548   5.902  1.1121 -1.2003 -0.0152
 8356SOL    HW333191   0.591   1.642   5.884 -0.4355  0.5915 -1.1552
 8356SOL    MW433192   0.539   1.594   5.935 -0.1002 -0.0450 -0.4625
 8357SOL     OW33193   4.636   0.381   1.100  0.7259 -0.5992 -0.3792
 8357SOL    HW233194   4.709   0.442   1.091  1.3296 -1.3037 -0.3639
 8357SOL    HW333195   4.629   0.366   1.194 -0.0706  0.1998 -0.2953
 8357SOL    MW433196   4.644   0.387   1.111  0.2338  0.0194  0.0866
 8358SOL     OW33197   3.999   3.915   4.623  0.1261  0.6434  0.3508
 8358SOL    HW233198   3.965   3.834   4.661 -0.9208  0.3503 -1.1088
 8358SOL    HW333199   3.954   3.984   4.671  0.2101  0.3455  0.8744
 8358SOL    MW433200   3.989   3.913   4.634  0.3044  0.8093 -0.3112
 8359SOL     OW33201   0.550   1.404   2.683  0.0269  0.6024 -0.3297
 8359SOL    HW233202   0.469   1.386   2.636  1.1663 -2.7232 -1.3308
 8359SOL    HW333203   0.522   1.443   2.765 -2.4985  0.4647 -1.0330
 8359SOL    MW433204   0.536   1.406   2.687  0.2211 -0.5467  0.1516
 8360SOL     OW33205   4.475   0.529   2.164 -0.4632 -0.1306  0.4780
 8360SOL    HW233206   4.550   0.528   2.223  0.1820  1.5065 -0.2410
 8360SOL    HW333207   4.487   0.451   2.109  0.4770 -0.1333  0.6675
 8360SOL    MW433208   4.486   0.519   2.164 -0.2511 -0.2836 -0.3136
 8361SOL     OW33209   4.899   6.056   0.223  0.4055 -0.1722 -0.1749
 8361SOL    HW233210   4.910   6.149   0.205  1.7139 -0.4729 -1.0829
 8361SOL    HW333211   4.820   6.051   0.278  0.9526  1.5631  0.8445
 8361SOL    MW433212   4.890   6.068   0.228 -0.2001  0.3261  0.3592
 8362SOL     OW33213   2.910   1.532   1.916  0.1712  0.5199  0.2641
 8362SOL    HW233214   2.815   1.536   1.915  0.0255 -0.9579  2.3659
 8362SOL    HW333215   2.931   1.438   1.917  1.7287  0.7768 -1.2108
 8362SOL    MW433216   2.900   1.520   1.916  0.3414  0.1374  0.0563
 8363SOL     OW33217   3.363   2.587   3.562 -0.3012 -0.7384 -0.2444
 8363SOL    HW233218   3.334   2.677   3.576  1.1906 -0.4984  1.9749
 8363SOL    HW333219   3.407   2.563   3.644  2.5234 -2.2279 -2.0139
 8363SOL    MW433220   3.365   2.596   3.575 -0.1032  0.3729 -0.2959
 8364SOL     OW33221   0.941   4.637   2.755  0.2126 -0.5378  0.0070
 8364SOL    HW233222   0.906   4.682   2.678  0.2355  0.6608  0.6626
 8364SOL    HW333223   1.036   4.633   2.739  0.2233 -0.2502 -0.0104
 8364SOL    MW433224   0.949   4.643   2.742 -0.4450 -0.0940 -0.1707
 8365SOL     OW33225   0.486   5.609   4.745  0.0915 -0.3230 -1.0344
 8365SOL    HW233226   0.476   5.622   4.651 -0.6110 -2.2234 -1.2645
 8365SOL    HW333227   0.428   5.536   4.766  0.6221 -0.2771  0.7862
 8365SOL    MW433228   0.477   5.601   4.735  0.0159  0.4673 -0.4430
 8366SOL     OW33229   1.924   3.614   6.223 -0.0186  0.3083  0.2669
 8366SOL    HW233230   1.879   3.646   6.301 -0.3767  1.1385 -0.2757
 8366SOL    HW333231   2.015   3.601   6.251  0.3682  2.6704  0.2939
 8366SOL    MW433232   1.930   3.616   6.237 -0.3039  0.0029 -0.1138
 8367SOL     OW33233   0.603   6.198   2.032  0.1554  0.2866  0.3704
 8367SOL    HW233234   0.678   6.190   2.091  1.0213 -1.8336 -0.8826
 8367SOL    HW333235   0.571   6.108   2.022 -1.9211  0.9973  0.0254
 8367SOL    MW433236   0.609   6.185   2.038  0.2087  0.2638 -0.1659
 8368SOL     OW33237   0.593   5.652   1.100  0.1869  0.3995  0.1271
 8368SOL    HW233238   0.548   5.677   1.181  0.6372  0.7188  0.2843
 8368SOL    HW333239   0.679   5.693   1.107  0.9150 -1.1003  0.3251
 8368SOL    MW433240   0.598   5.661   1.112  0.1487  0.6275 -0.5874
 8369SOL     OW33241   0.254   5.864   4.119 -0.2536 -1.3331 -0.0654
 8369SOL    HW233242   0.199   5.835   4.191  0.1894 -1.3744  0.2646
 8369SOL    HW333243   0.196   5.867   4.043 -1.2380  0.6723  0.6926
 8369SOL    MW433244   0.239   5.861   4.119 -0.2662  0.2286 -0.5781
 8370SOL     OW33245   1.706   2.784   6.161  0.2856 -0.6386  0.3747
 8370SOL    HW233246   1.718   2.711   6.222  1.3025 -1.4834 -0.7908
 8370SOL    HW333247   1.761   2.762   6.087 -0.6079  0.5736 -0.6828
 8370SOL    MW433248   1.715   2.771   6.160 -0.8069  0.2769  0.2835
 8371SOL     OW33249   2.176   5.871   6.127 -0.1290 -0.1828 -0.7454
 8371SOL    HW233250   2.227   5.864   6.046 -0.9660 -1.0673 -1.2106
 8371SOL    HW333251   2.100   5.815   6.113 -0.9698  0.6940  0.1480
 8371SOL    MW433252   2.173   5.862   6.114 -0.0344  0.0042 -0.0210
 8372SOL     OW33253   1.253   3.152   5.392 -0.1253  0.3146 -0.0422
 8372SOL    HW233254   1.259   3.057   5.388 -2.0223 -0.0279  2.5849
 8372SOL    HW333255   1.302   3.176   5.470 -0.8441  1.3361  0.1126
 8372SOL    MW433256   1.260   3.143   5.402 -0.0854 -0.4494 -0.0083
 8373SOL     OW33257   3.613   3.849   2.072  0.0917 -0.1219  0.3838
 8373SOL    HW233258   3.572   3.770   2.107 -1.1932  1.2562  2.1354
 8373SOL    HW333259   3.694   3.859   2.123  1.7568 -1.7524 -1.7376
 8373SOL    MW433260   3.619   3.840   2.083  0.2053  0.0895 -0.5412
 8374SOL     OW33261   4.084   6.184   4.217 -0.2856 -0.0205 -0.2477
 8374SOL    HW233262   4.143   6.213   4.147 -0.7273  0.3362 -0.4819
 8374SOL    HW333263   3.997   6.180   4.175 -0.6131  0.5198  0.3634
 8374SOL    MW433264   4.080   6.187   4.202  0.2388  0.1848  0.2941
 8375SOL     OW33265   1.777   0.799   0.822  0.2376  0.0793  0.4859
 8375SOL    HW233266   1.688   0.790   0.789 -0.3600  0.5731  1.8658
 8375SOL    HW333267   1.781   0.889   0.856  0.5820 -0.5510  2.2542
 8375SOL    MW433268   1.766   0.810   0.822 -0.4091  0.1165 -0.4086
 8376SOL     OW33269   3.811   0.657   0.351  0.0351 -0.7319 -0.2255
 8376SOL    HW233270   3.870   0.670   0.425 -1.5180  0.1166  0.9139
 8376SOL    HW333271   3.867   0.663   0.274  1.4885 -0.3393  0.8268
 8376SOL    MW433272   3.826   0.659   0.351 -0.1525  0.9138 -0.3819
 8377SOL     OW33273   0.936   4.732   4.662  0.6285  0.0358 -0.5362
 8377SOL    HW233274   0.865   4.697   4.717  2.1127 -2.1743  0.0928
 8377SOL    HW333275   0.992   4.780   4.724  0.5431  0.3993 -0.7392
 8377SOL    MW433276   0.934   4.734   4.678  0.1227  0.2261  0.6584
 8378SOL     OW33277   0.270   5.640   3.163 -0.0822 -0.5781  0.9927
 8378SOL    HW233278   0.232   5.554   3.181  0.0203 -0.6836  0.6990
 8378SOL    HW333279   0.242   5.661   3.074 -0.2392 -0.2360  1.1212
 8378SOL    MW433280   0.261   5.631   3.154  0.3594  0.7064  0.9816
 8379SOL     OW33281   3.671   1.304   5.923 -0.1099  0.4357 -0.4147
 8379SOL    HW233282   3.702   1.273   5.838  0.6049 -1.3527  0.4293
 8379SOL    HW333283   3.591   1.254   5.940  0.8646 -0.7905  0.8246
 8379SOL    MW433284   3.665   1.293   5.914  0.2551 -0.2870  0.3122
 8380SOL     OW33285   1.946   6.036   5.768  0.0263  0.3549 -0.6050
 8380SOL    HW233286   1.914   6.084   5.692  0.1088  0.7735 -0.3818
 8380SOL    HW333287   1.975   6.105   5.828 -0.6068  0.0587  0.0556
 8380SOL    MW433288   1.945   6.052   5.766 -0.1914  0.5368  0.2038
 8381SOL     OW33289   6.316   6.294   5.397 -0.0583 -0.6024 -0.0467
 8381SOL    HW233290   6.254   6.313   5.327  0.5091 -0.5482 -0.5359
 8381SOL    HW333291   6.285   6.211   5.433  0.7577 -1.6508 -1.6445
 8381SOL    MW433292   6.304   6.285   5.393 -0.0711  0.1260  0.0895
 8382SOL     OW33293   3.229   4.872   1.807 -0.2802 -0.2062  0.0473
 8382SOL    HW233294   3.285   4.927   1.753  1.0071 -1.4227  0.0847
 8382SOL    HW333295   3.164   4.837   1.746  0.1758 -0.2997 -0.3883
 8382SOL    MW433296   3.228   4.874   1.792 -0.1082  0.6976 -0.2583
 8383SOL     OW33297   3.804   4.845   5.369  0.2943  0.1112  0.1883
 8383SOL    HW233298   3.803   4.760   5.326  1.3526  1.1871 -2.2187
 8383SOL    HW333299   3.885   4.886   5.338 -0.5962  2.3075  0.5271
 8383SOL    MW433300   3.815   4.839   5.359 -0.5664  0.0713  1.1345
 8384SOL     OW33301   0.158   5.423   5.706  0.0026 -0.0418 -0.2880
 8384SOL    HW233302   0.161   5.417   5.801 -1.4906  2.0183 -0.0480
 8384SOL    HW333303   0.068   5.449   5.686  1.0292  2.7037 -1.9807
 8384SOL    MW433304   0.146   5.426   5.716 -0.2719 -0.0599 -0.3374
 8385SOL     OW33305   0.693   2.091   0.698  0.5406 -0.6025 -0.8440
 8385SOL    HW233306   0.611   2.076   0.745  1.4546  0.9852  1.3735
 8385SOL    HW333307   0.738   2.007   0.703  0.1058 -0.7959  0.0982
 8385SOL    MW433308   0.688   2.078   0.704  0.2985 -0.2931 -0.1134
 8386SOL     OW33309   4.240   0.665   1.793  0.1133  0.4284  0.2153
 8386SOL    HW233310   4.311   0.715   1.833  0.3849 -0.1823  0.5072
 8386SOL    HW333311   4.274   0.576   1.786 -0.5220  0.1880  0.1055
 8386SOL    MW433312   4.254   0.660   1.798 -0.0956  0.3176  0.1790
 8387SOL     OW33313   2.140   5.142   1.408  0.0644  0.1251  0.2185
 8387SOL    HW233314   2.092   5.144   1.325  2.1786 -1.7573 -1.1724
 8387SOL    HW333315   2.221   5.190   1.390  1.8244 -2.6139  0.1957
 8387SOL    MW433316   2.145   5.148   1.395  0.1497  0.0340  0.0781
 8388SOL     OW33317   4.358   3.961   2.599 -0.4217 -0.2698 -0.1779
 8388SOL    HW233318   4.356   4.053   2.628  0.2094  0.0421 -1.0614
 8388SOL    HW333319   4.432   3.923   2.645 -1.8980 -0.9266  1.7792
 8388SOL    MW433320   4.367   3.968   2.609  0.0328  0.5222 -1.0352
 8389SOL     OW33321   0.819   2.381   4.094  0.1605 -0.1278  0.2236
 8389SOL    HW233322   0.885   2.391   4.163  0.5234 -1.1475  0.0419
 8389SOL    HW333323   0.866   2.343   4.021 -0.5105 -0.3069 -0.1232
 8389SOL    MW433324   0.834   2.377   4.094 -0.2143  0.0140 -0.3894
 8390SOL     OW33325   5.134   3.108   4.939  0.2398 -0.2304  0.5683
 8390SOL    HW233326   5.147   3.194   4.979  0.0984  0.4200 -0.7475
 8390SOL    HW333327   5.059   3.071   4.986 -0.3068  0.7635  0.5061
 8390SOL    MW433328   5.126   3.114   4.951 -0.0977 -0.4460  0.0265
 8391SOL     OW33329   1.485   3.146   5.211 -0.1975 -0.8570 -0.0210
 8391SOL    HW233330   1.442   3.104   5.137 -1.4428  0.1104  0.1298
 8391SOL    HW333331   1.415   3.168   5.271  0.4485  0.9585  0.1343
 8391SOL    MW433332   1.470   3.144   5.209 -0.5647 -0.3293  0.1161
 8392SOL     OW33333   3.282   5.711   6.181  0.3309  0.1969 -0.8102
 8392SOL    HW233334   3.199   5.723   6.135 -0.5567  1.2301  0.9699
 8392SOL    HW333335   3.314   5.799   6.198 -0.8409  0.1020  2.9555
 8392SOL    MW433336   3.275   5.724   6.178 -0.3855 -0.5059 -0.4794
 8393SOL     OW33337   1.194   2.378   5.728 -0.4210  0.3455 -0.1206
 8393SOL    HW233338   1.103   2.388   5.698 -0.3615 -1.3844 -1.0255
 8393SOL    HW333339   1.246   2.427   5.664 -0.6528  0.7148 -0.0302
 8393SOL    MW433340   1.189   2.386   5.716  0.2671 -0.5464 -0.2014
 8394SOL     OW33341   4.313   1.761   0.827 -0.2301 -0.4661 -0.2569
 8394SOL    HW233342   4.272   1.693   0.880  0.1514 -0.4742  0.0316
 8394SOL    HW333343   4.258   1.838   0.840  0.2924 -0.2452  0.7843
 8394SOL    MW433344   4.301   1.762   0.836  0.1088  0.3351  0.1957
 8395SOL     OW33345   6.024   5.386   4.405  0.2211  0.1365  0.0459
 8395SOL    HW233346   6.060   5.419   4.487  0.8232  0.1995 -0.2423
 8395SOL    HW333347   5.961   5.452   4.378 -1.0652 -0.5562  1.1902
 8395SOL    MW433348   6.020   5.399   4.412 -0.1211 -0.1750 -0.0134
 8396SOL     OW33349   3.663   6.253   0.300 -0.2876 -0.0949 -0.2741
 8396SOL    HW233350   3.656   6.342   0.333  0.6611  0.8205 -2.3702
 8396SOL    HW333351   3.721   6.208   0.362  1.6163  1.6042 -0.7381
 8396SOL    MW433352   3.670   6.259   0.312  0.0904  0.1434 -0.4632
 8397SOL     OW33353   2.807   2.817   3.674 -0.3940  0.3189  0.5430
 8397SOL    HW233354   2.768   2.833   3.760  0.5555  0.7182  0.9095
 8397SOL    HW333355   2.885   2.765   3.692 -2.0787 -2.8074 -0.4144
 8397SOL    MW433356   2.812   2.812   3.687  0.4128 -0.4935  0.5910
 8398SOL     OW33357   5.834   1.785   2.655  0.0104 -0.1863 -0.4894
 8398SOL    HW233358   5.790   1.816   2.576 -0.3880 -0.7903 -0.5076
 8398SOL    HW333359   5.763   1.757   2.713  0.2704  0.6406  0.2605
 8398SOL    MW433360   5.819   1.786   2.652 -0.2104 -0.1116  0.1549
 8399SOL     OW33361   1.065   3.344   4.830 -0.2779 -0.2566  0.0227
 8399SOL    HW233362   1.009   3.295   4.770  0.7951 -1.6772  0.1449
 8399SOL    HW333363   1.005   3.382   4.894 -1.2432 -0.3406 -0.8094
 8399SOL    MW433364   1.050   3.343   4.830 -0.1121 -0.0311 -0.0058
 8400SOL     OW33365   0.062   4.146   6.020  0.0679  0.4489 -0.1992
 8400SOL    HW233366   0.026   4.128   6.107 -0.4973  1.0942 -0.2830
 8400SOL    HW333367   0.021   4.229   5.995  2.0499  1.5147 -0.0792
 8400SOL    MW433368   0.051   4.155   6.028  0.2845 -0.3963 -0.5197
 8401SOL     OW33369   6.291   3.654   4.466  0.1307 -0.2493  0.2914
 8401SOL    HW233370   6.268   3.574   4.417  1.3347 -0.9374  0.7986
 8401SOL    HW333371   6.237   3.723   4.426  0.1429 -1.0339 -1.1491
 8401SOL    MW433372   6.281   3.652   4.454  0.5596 -0.1308 -0.5033
 8402SOL     OW33373   4.100   5.351   3.991  0.6909  0.3193 -0.4262
 8402SOL    HW233374   4.110   5.411   4.064 -0.6681  0.1953 -0.1321
 8402SOL    HW333375   4.058   5.403   3.922  1.1639  0.1940 -0.8194
 8402SOL    MW433376   4.096   5.365   3.991 -0.3477 -0.7845 -0.3753
 8403SOL     OW33377   0.288   2.594   0.457  0.7186  0.2340  0.1400
 8403SOL    HW233378   0.355   2.528   0.478  0.6188  0.5195  1.4478
 8403SOL    HW333379   0.338   2.671   0.431  0.8313 -0.5597 -2.2187
 8403SOL    MW433380   0.304   2.595   0.456  0.0737  0.4715  0.3778
 8404SOL     OW33381   0.003   5.049   5.283  0.3509  0.6641  0.3477
 8404SOL    HW233382   0.073   5.114   5.286  0.6356  0.4048 -0.5052
 8404SOL    HW333383  -0.013   5.027   5.375  1.1701  0.9517  0.5653
 8404SOL    MW433384   0.010   5.055   5.296 -0.3952 -0.0242  0.5277
 8405SOL     OW33385   2.005   0.654   4.981  0.2461 -0.4525 -0.0181
 8405SOL    HW233386   2.001   0.732   4.926 -2.1534  0.0980  0.8107
 8405SOL    HW333387   2.044   0.685   5.063  1.5062 -0.7106 -0.4951
 8405SOL    MW433388   2.010   0.669   4.985  0.2277 -0.4913 -0.1203
 8406SOL     OW33389   6.143   6.065   1.646 -0.1817  0.8589 -0.3800
 8406SOL    HW233390   6.148   6.060   1.551 -0.4645 -1.0411 -0.3448
 8406SOL    HW333391   6.106   5.980   1.673  1.6261  0.5743  1.5062
 8406SOL    MW433392   6.139   6.053   1.637 -0.6836  0.4365  0.4014
 8407SOL     OW33393   0.539   0.917   0.444  0.8270 -0.4801 -0.4028
 8407SOL    HW233394   0.554   0.913   0.349 -1.7024  0.6749 -0.9296
 8407SOL    HW333395   0.550   1.009   0.466  3.5849 -1.0179  0.9432
 8407SOL    MW433396   0.542   0.928   0.434  0.1182 -0.1641 -0.4550
 8408SOL     OW33397   3.459   5.364   4.984  0.0043  0.1202  0.0011
 8408SOL    HW233398   3.457   5.316   4.902 -1.8336  0.1213  0.0252
 8408SOL    HW333399   3.552   5.363   5.009  0.5089 -0.3903 -1.7434
 8408SOL    MW433400   3.471   5.358   4.977  0.3844  0.1466 -0.2738
 8409SOL     OW33401   5.580   5.984   1.970 -0.0840 -0.1344 -0.1053
 8409SOL    HW233402   5.672   5.992   1.945 -0.1370 -0.4649 -0.4082
 8409SOL    HW333403   5.537   5.949   1.893 -0.6373  0.9002 -0.2829
 8409SOL    MW433404   5.586   5.981   1.957  0.5351 -0.3972  0.7878
 8410SOL     OW33405   5.684   6.236   2.154 -0.0182  0.4147  1.0331
 8410SOL    HW233406   5.759   6.176   2.152  0.1055  0.5636 -0.5311
 8410SOL    HW333407   5.691   6.282   2.237  1.1785 -0.1433  1.2576
 8410SOL    MW433408   5.695   6.234   2.164 -0.3846 -0.2224  0.4302
 8411SOL     OW33409   3.948   2.696   1.570 -0.4106 -0.2117  0.9301
 8411SOL    HW233410   3.868   2.740   1.599 -0.4362  0.3445  0.0410
 8411SOL    HW333411   3.923   2.603   1.565 -0.9234 -0.0777  0.9110
 8411SOL    MW433412   3.934   2.689   1.573  0.1005  0.6226  0.3249
 8412SOL     OW33413   4.448   4.147   4.537 -0.5640  0.4528  0.2025
 8412SOL    HW233414   4.484   4.139   4.625  0.7853  2.1672 -0.1205
 8412SOL    HW333415   4.498   4.084   4.485  0.6907  1.4415  0.1499
 8412SOL    MW433416   4.460   4.138   4.541  0.6058  0.2078 -0.2121
 8413SOL     OW33417   3.596   2.176   0.778 -0.1564  0.1578 -0.2827
 8413SOL    HW233418   3.614   2.241   0.846  2.9334 -1.4794  0.6529
 8413SOL    HW333419   3.522   2.126   0.812 -0.6468  1.3001  0.3897
 8413SOL    MW433420   3.589   2.178   0.791  0.3041  0.0227 -0.4108
 8414SOL     OW33421   4.364   3.838   4.335  0.7422 -0.0321 -0.3780
 8414SOL    HW233422   4.343   3.923   4.295  0.1457 -0.4473 -0.9599
 8414SOL    HW333423   4.436   3.804   4.282 -0.6606 -1.0061 -1.7329
 8414SOL    MW433424   4.371   3.845   4.323 -0.1791  0.0652  0.6219
 8415SOL     OW33425   2.994   4.293   4.016 -0.3760 -0.4290 -0.4507
 8415SOL    HW233426   3.001   4.282   3.921  0.8530 -0.0523 -0.4214
 8415SOL    HW333427   3.064   4.238   4.051 -0.4700 -0.1346  0.2050
 8415SOL    MW433428   3.004   4.284   4.008 -0.7633 -0.7135  0.2545
 8416SOL     OW33429   3.998   0.716   3.547  0.4905  0.4014  0.0307
 8416SOL    HW233430   3.979   0.774   3.621  1.2621  0.6135  0.0745
 8416SOL    HW333431   4.041   0.773   3.483  2.2077 -0.3228  0.4961
 8416SOL    MW433432   4.001   0.731   3.549 -0.2550  0.1860 -0.3239
 8417SOL     OW33433   2.902   0.389   4.977 -0.1947 -0.5564 -0.0518
 8417SOL    HW233434   2.870   0.479   4.985  0.3778 -0.1836 -1.5572
 8417SOL    HW333435   2.957   0.375   5.053 -1.9657 -0.3897  1.3320
 8417SOL    MW433436   2.905   0.399   4.988  0.0630 -0.0346 -0.7900
 8418SOL     OW33437   2.939   5.732   4.606 -0.0078 -0.6202  0.2852
 8418SOL    HW233438   3.019   5.730   4.659  2.0027 -2.1991 -2.5311
 8418SOL    HW333439   2.907   5.641   4.608 -1.6606 -0.0663  1.1592
 8418SOL    MW433440   2.945   5.720   4.613 -0.3731  0.1702  0.1857
 8419SOL     OW33441   5.736   5.500   5.222  0.4095 -0.3652 -0.3268
 8419SOL    HW233442   5.703   5.411   5.211 -1.3835  0.5385 -2.9304
 8419SOL    HW333443   5.812   5.504   5.164 -0.1499  0.0748 -1.0457
 8419SOL    MW433444   5.742   5.489   5.213 -0.2998  0.1104 -0.2923
 8420SOL     OW33445   5.159   0.513   1.576 -0.4483  0.3749 -0.3919
 8420SOL    HW233446   5.131   0.483   1.663  1.0583  0.9956  0.3396
 8420SOL    HW333447   5.172   0.607   1.586  0.2837  0.3639 -1.1413
 8420SOL    MW433448   5.157   0.522   1.589 -0.2100  0.0893 -0.2876
 8421SOL     OW33449   3.075   1.163   1.465 -0.7102  0.7121  0.1038
 8421SOL    HW233450   3.137   1.162   1.392 -0.2838  2.1650  0.4052
 8421SOL    HW333451   3.010   1.229   1.440 -1.6171 -0.1065  0.2267
 8421SOL    MW433452   3.074   1.172   1.452 -0.3649  0.1402  0.0519
 8422SOL     OW33453   1.794   2.007   5.717  0.0260 -0.1840  0.7520
 8422SOL    HW233454   1.802   1.967   5.630 -0.6456 -0.4417  0.8069
 8422SOL    HW333455   1.725   2.073   5.707  0.1902  0.0289  1.0068
 8422SOL    MW433456   1.786   2.010   5.704 -0.1808  0.3580 -0.0843
 8423SOL     OW33457   1.178   0.108   4.163  0.0817 -0.4439  0.1470
 8423SOL    HW233458   1.261   0.155   4.163  1.4768 -2.7889  0.4107
 8423SOL    HW333459   1.188   0.040   4.097 -2.5234  0.5967 -1.4682
 8423SOL    MW433460   1.190   0.105   4.154  0.1755 -0.4215 -1.3224
 8424SOL     OW33461   4.591   6.363   2.578 -0.2648 -0.5277 -0.1623
 8424SOL    HW233462   4.568   6.419   2.652  0.5357 -0.3834 -0.0159
 8424SOL    HW333463   4.522   6.380   2.513 -0.8280 -0.4624  0.4385
 8424SOL    MW433464   4.579   6.373   2.579 -0.0166 -0.2697 -0.1410
 8425SOL     OW33465   0.557   3.426   3.412  0.3367  0.0810  0.4731
 8425SOL    HW233466   0.544   3.520   3.412  1.7929  0.3077  0.2003
 8425SOL    HW333467   0.640   3.413   3.458  2.7685 -0.5969 -3.5572
 8425SOL    MW433468   0.566   3.436   3.418 -0.2785  0.2079  0.6616
 8426SOL     OW33469   6.167   3.424   4.321 -0.2688  0.5408  0.2433
 8426SOL    HW233470   6.086   3.379   4.299 -0.6068  1.6036 -0.7697
 8426SOL    HW333471   6.235   3.374   4.276 -0.5374  0.4996 -0.1205
 8426SOL    MW433472   6.166   3.411   4.312 -0.0448 -0.2557  0.1168
 8427SOL     OW33473   5.841   4.427   4.085  0.4976 -0.2296 -0.3609
 8427SOL    HW233474   5.782   4.368   4.132  0.9257  0.2555  0.8107
 8427SOL    HW333475   5.785   4.495   4.049  0.4119  0.8791  1.7262
 8427SOL    MW433476   5.826   4.428   4.086  0.2653  0.3002 -0.2559
 8428SOL     OW33477   0.916   3.797   6.418  0.3614  0.1329  0.0101
 8428SOL    HW233478   0.921   3.751   6.502 -1.2256  1.4987  0.9411
 8428SOL    HW333479   0.882   3.733   6.357 -0.3601 -0.3619  0.9037
 8428SOL    MW433480   0.912   3.783   6.421  0.2875 -0.3725  0.1463
 8429SOL     OW33481   0.952   1.196   0.159  0.1147 -0.3842 -0.3185
 8429SOL    HW233482   1.046   1.201   0.139  0.1394 -1.1089 -0.3995
 8429SOL    HW333483   0.914   1.268   0.108  0.8800  1.3357  1.4060
 8429SOL    MW433484   0.960   1.206   0.149 -0.3008 -0.1082  0.1077
 8430SOL     OW33485   4.482   1.834   1.014 -0.4954 -0.3983 -0.1899
 8430SOL    HW233486   4.417   1.814   0.947 -0.6210 -0.0980 -0.1572
 8430SOL    HW333487   4.560   1.785   0.987 -1.0247 -1.5412  0.2925
 8430SOL    MW433488   4.484   1.825   1.002  0.1451 -0.0731  0.2134
 8431SOL     OW33489   5.281   1.243   3.235 -0.5908  0.0031 -0.2610
 8431SOL    HW233490   5.283   1.307   3.307 -1.6547  1.1513 -1.2078
 8431SOL    HW333491   5.364   1.255   3.190 -0.5082  0.2623 -0.0432
 8431SOL    MW433492   5.292   1.253   3.239  0.1795 -0.1137  0.2607
 8432SOL     OW33493   2.948   4.426   2.949  0.1020 -0.3041 -0.0459
 8432SOL    HW233494   2.855   4.444   2.931 -0.3345 -0.1354  2.0568
 8432SOL    HW333495   2.954   4.331   2.952  0.1575 -0.3335 -0.8089
 8432SOL    MW433496   2.936   4.416   2.947  0.8198  0.2372  0.2949
 8433SOL     OW33497   4.208   2.140   2.804  0.3145  0.1531 -0.2066
 8433SOL    HW233498   4.271   2.096   2.861 -0.6657 -0.6146  0.3399
 8433SOL    HW333499   4.240   2.125   2.716  1.5407  0.8402  0.1076
 8433SOL    MW433500   4.220   2.132   2.800 -0.0097 -0.4377 -0.3542
 8434SOL     OW33501   6.340   5.344   0.038  0.0765  0.2333 -0.1406
 8434SOL    HW233502   6.399   5.332   0.112 -1.5540 -0.7079  1.0712
 8434SOL    HW333503   6.395   5.384  -0.030  1.7010  0.8202  1.4320
 8434SOL    MW433504   6.355   5.348   0.038  0.4700 -0.1263 -1.0106
 8435SOL     OW33505   2.062   1.839   1.703 -0.0609  0.3630 -0.1360
 8435SOL    HW233506   2.151   1.803   1.698 -0.4438 -0.7936  0.7617
 8435SOL    HW333507   2.021   1.790   1.774 -2.0414 -0.5081 -1.7704
 8435SOL    MW433508   2.068   1.828   1.712  0.0223 -0.2700  0.0825
 8436SOL     OW33509   3.000   3.737   2.500 -0.3442  0.3380  0.2016
 8436SOL    HW233510   3.045   3.653   2.484  1.6367  1.0163  1.7779
 8436SOL    HW333511   2.957   3.725   2.585 -0.2382  0.8412  0.3274
 8436SOL    MW433512   3.000   3.724   2.509 -0.2129 -0.1517 -0.2491
 8437SOL     OW33513   5.472   4.961   5.035 -0.7201  0.2674 -0.1424
 8437SOL    HW233514   5.433   4.983   5.119  1.2540  3.2874  0.1136
 8437SOL    HW333515   5.396   4.949   4.977 -2.0786 -0.3832  1.6587
 8437SOL    MW433516   5.457   4.962   5.038  0.4796 -0.2054 -0.0419
 8438SOL     OW33517   2.102   4.848   5.301 -0.6724  1.1070 -0.5615
 8438SOL    HW233518   2.182   4.822   5.256  0.8602 -0.3095  2.6212
 8438SOL    HW333519   2.050   4.767   5.306  0.3100  0.5318  2.1154
 8438SOL    MW433520   2.106   4.834   5.296  0.1177 -0.2839  0.2745
 8439SOL     OW33521   5.971   1.322   2.585 -0.5926 -0.0635  0.0437
 8439SOL    HW233522   6.005   1.301   2.499 -0.1364 -1.0030  0.4474
 8439SOL    HW333523   5.984   1.243   2.637  1.7708  1.3546  1.7951
 8439SOL    MW433524   5.977   1.309   2.581  0.4075  0.0933 -0.0867
 8440SOL     OW33525   2.360   3.381   5.250  0.1139  0.5584 -0.1583
 8440SOL    HW233526   2.425   3.340   5.307 -0.0422 -0.6306 -0.8089
 8440SOL    HW333527   2.356   3.472   5.281  2.2985  0.7644 -0.3134
 8440SOL    MW433528   2.368   3.388   5.262 -0.8102 -0.1027 -0.0739
 8441SOL     OW33529   5.872   1.326   2.973 -0.1905  0.2665 -0.0636
 8441SOL    HW233530   5.780   1.331   2.945 -0.9131 -0.8662  1.8974
 8441SOL    HW333531   5.867   1.298   3.064  2.1493 -0.9344 -0.2408
 8441SOL    MW433532   5.859   1.323   2.981 -0.8448 -0.1756  0.3184
 8442SOL     OW33533   2.771   0.127   1.854 -0.1854 -0.2192 -0.2336
 8442SOL    HW233534   2.772   0.157   1.763  2.6711 -1.3095 -0.6761
 8442SOL    HW333535   2.841   0.062   1.858 -0.6150 -0.6253  2.6417
 8442SOL    MW433536   2.780   0.123   1.842 -0.1310 -0.3286 -0.2928
 8443SOL     OW33537   2.495   3.047   2.471  0.1992  0.4775  0.7440
 8443SOL    HW233538   2.515   3.095   2.391 -0.6368 -0.8971 -0.3430
 8443SOL    HW333539   2.577   3.046   2.520  1.1907 -0.0605 -0.8644
 8443SOL    MW433540   2.508   3.053   2.467 -0.1532  0.2736  0.1494
 8444SOL     OW33541   2.081   5.589   4.726  0.4550 -0.2151  0.1493
 8444SOL    HW233542   2.008   5.650   4.718  0.6503 -0.0731 -0.7084
 8444SOL    HW333543   2.154   5.633   4.683  0.6208 -1.0160 -0.4210
 8444SOL    MW433544   2.081   5.602   4.719 -0.1240 -0.3868 -0.5665
 8445SOL     OW33545   2.683   0.968   5.599 -1.0970 -0.2449  0.0172
 8445SOL    HW233546   2.755   0.974   5.662 -1.0132  0.1912 -0.1194
 8445SOL    HW333547   2.682   0.876   5.573  0.6411  0.0718 -1.4077
 8445SOL    MW433548   2.692   0.957   5.604  0.3515 -0.2120 -0.1857
 8446SOL     OW33549   3.412   2.859   2.339  0.0961 -0.4227 -0.2921
 8446SOL    HW233550   3.490   2.869   2.394 -1.3479 -1.6430  2.1033
 8446SOL    HW333551   3.339   2.863   2.400 -1.6606 -1.1324 -2.2480
 8446SOL    MW433552   3.413   2.861   2.354  0.3166  0.2897 -0.2119
 8447SOL     OW33553   1.908   3.521   5.373 -0.0743 -1.2719 -0.5417
 8447SOL    HW233554   1.814   3.520   5.357 -0.1780  0.4519 -0.2867
 8447SOL    HW333555   1.938   3.603   5.333  0.8968 -0.5614  1.4854
 8447SOL    MW433556   1.899   3.532   5.365  0.5729  0.4863  0.4166
 8448SOL     OW33557   0.486   5.532   2.908 -0.0116 -0.4385  0.2804
 8448SOL    HW233558   0.517   5.490   2.828  0.7644  0.5035  0.0616
 8448SOL    HW333559   0.540   5.495   2.978  1.1530  0.6466 -0.0023
 8448SOL    MW433560   0.497   5.522   2.907  0.3544 -0.1995  0.4877
 8449SOL     OW33561   4.151   5.344   4.431  0.1308 -0.1113  0.1155
 8449SOL    HW233562   4.096   5.414   4.464  0.9785  1.0381 -0.8026
 8449SOL    HW333563   4.228   5.344   4.488  0.3132 -0.0131 -0.1262
 8449SOL    MW433564   4.154   5.353   4.443  0.5074 -1.0195  0.2614
 8450SOL     OW33565  -0.005   3.185   0.904 -0.2845  0.6325  0.3388
 8450SOL    HW233566   0.047   3.169   0.983  1.4372 -0.6795 -0.9637
 8450SOL    HW333567  -0.085   3.135   0.916  0.0549  0.2806  1.1862
 8450SOL    MW433568  -0.009   3.176   0.916  0.5631 -0.2627 -0.3154
 8451SOL     OW33569   5.379   1.257   1.607  0.3059  0.4903 -0.7204
 8451SOL    HW233570   5.439   1.200   1.654 -0.3117  0.1630 -0.3228
 8451SOL    HW333571   5.293   1.239   1.645 -0.1970  0.2916 -1.8798
 8451SOL    MW433572   5.376   1.247   1.618  0.0959  0.5263  0.1695
 8452SOL     OW33573   0.925   1.659   1.222 -0.4792  0.1747  0.5356
 8452SOL    HW233574   1.017   1.640   1.241  0.5560  2.5022 -1.6557
 8452SOL    HW333575   0.891   1.694   1.304  1.0735  0.8561  0.9282
 8452SOL    MW433576   0.933   1.661   1.235 -0.4246 -0.0028 -0.2770
 8453SOL     OW33577   6.042   2.913   0.125 -0.3763 -0.3630  0.3745
 8453SOL    HW233578   6.100   2.871   0.188  0.2872 -0.3026 -0.1832
 8453SOL    HW333579   5.954   2.885   0.150 -0.2229  0.3872  1.8917
 8453SOL    MW433580   6.038   2.904   0.137  0.5179 -0.2103  0.3819
 8454SOL     OW33581   0.928   4.644   1.829 -0.1347 -0.1574  0.0415
 8454SOL    HW233582   0.937   4.709   1.759  0.0401 -0.1848  0.0372
 8454SOL    HW333583   0.912   4.561   1.783 -1.9191  0.1308  0.0918
 8454SOL    MW433584   0.927   4.642   1.814 -0.0053 -0.2011 -0.2893
 8455SOL     OW33585   0.393   4.144   5.561  0.1125 -0.4255  0.1772
 8455SOL    HW233586   0.353   4.163   5.645 -0.0215 -1.4683  0.3684
 8455SOL    HW333587   0.326   4.167   5.497 -0.7100 -1.8555  0.4809
 8455SOL    MW433588   0.379   4.149   5.563  0.2310 -0.1256 -0.6402
 8456SOL     OW33589   3.517   5.204   4.763  0.0796  0.0159  0.0819
 8456SOL    HW233590   3.465   5.129   4.732 -0.0235  0.3224 -0.4827
 8456SOL    HW333591   3.568   5.232   4.687  1.7904 -0.8479  0.8559
 8456SOL    MW433592   3.517   5.198   4.749 -0.4906 -0.1301  0.1035
 8457SOL     OW33593   5.564   5.072   6.077  0.5793 -0.2676 -0.5403
 8457SOL    HW233594   5.483   5.122   6.080 -0.8244 -2.4785  0.9096
 8457SOL    HW333595   5.627   5.131   6.035 -1.5875  1.7336 -1.1680
 8457SOL    MW433596   5.562   5.087   6.072  0.3474 -0.0236  0.2532
 8458SOL     OW33597   0.187   4.482   0.959  0.1177  0.3934  0.6507
 8458SOL    HW233598   0.112   4.427   0.938 -0.0589  0.9570 -0.2477
 8458SOL    HW333599   0.155   4.543   1.025 -0.5866  1.4126 -0.5887
 8458SOL    MW433600   0.173   4.482   0.965 -0.5000 -0.4420  0.8793
 8459SOL     OW33601   4.423   1.168   2.181 -0.4457 -0.1497 -0.2129
 8459SOL    HW233602   4.486   1.159   2.110 -1.1880  0.4552 -0.9644
 8459SOL    HW333603   4.418   1.081   2.220  0.8231 -0.2123 -0.1609
 8459SOL    MW433604   4.430   1.155   2.177 -0.1880  0.0038 -0.1456
 8460SOL     OW33605   4.596   1.148   1.973 -0.2689  0.1261  0.3007
 8460SOL    HW233606   4.592   1.240   1.948  0.7881  0.6464  1.8940
 8460SOL    HW333607   4.688   1.124   1.960 -0.3242 -0.4070  0.8314
 8460SOL    MW433608   4.608   1.157   1.968 -0.2520 -0.4398 -0.4402
 8461SOL     OW33609   1.743   4.675   3.967 -0.1620  0.4142 -0.1348
 8461SOL    HW233610   1.798   4.710   4.037  1.0432 -0.9875 -0.3117
 8461SOL    HW333611   1.673   4.628   4.013 -0.3100  0.8660  0.1083
 8461SOL    MW433612   1.741   4.673   3.983  0.0067  0.0979  0.5034
 8462SOL     OW33613   1.807   0.593   4.517  0.4207 -0.2942 -0.0988
 8462SOL    HW233614   1.895   0.622   4.542  0.2060 -0.3755  0.8044
 8462SOL    HW333615   1.766   0.568   4.600 -0.0706 -1.3263 -0.6273
 8462SOL    MW433616   1.814   0.593   4.531 -0.3058  0.4072  0.0515
 8463SOL     OW33617   4.672   1.422   0.520 -0.4197  0.2227  0.5306
 8463SOL    HW233618   4.660   1.341   0.571  1.0653 -0.6636 -0.4787
 8463SOL    HW333619   4.697   1.392   0.433 -2.4593  1.7259 -0.6601
 8463SOL    MW433620   4.673   1.407   0.516  0.5753  0.0128 -0.0348
 8464SOL     OW33621   0.474   3.623   0.840 -0.3299 -0.2690 -0.0989
 8464SOL    HW233622   0.395   3.646   0.890  1.0124  0.7175  1.6828
 8464SOL    HW333623   0.518   3.557   0.894  0.5591 -0.0870 -0.5816
 8464SOL    MW433624   0.469   3.617   0.854  0.1416 -0.2135 -0.3871
 8465SOL     OW33625   0.624   2.915   2.845 -0.1417 -0.7630 -0.2041
 8465SOL    HW233626   0.645   2.970   2.921 -1.9420  0.5383 -0.5923
 8465SOL    HW333627   0.587   2.835   2.883 -1.0341 -0.1225  0.3031
 8465SOL    MW433628   0.622   2.912   2.860  0.3103 -0.1826  0.3876
 8466SOL     OW33629   5.703   0.460   0.057 -0.4782 -1.1338  0.2421
 8466SOL    HW233630   5.661   0.533   0.011 -0.9786 -1.6606 -0.1651
 8466SOL    HW333631   5.749   0.412  -0.012  0.9611 -0.4745  0.7101
 8466SOL    MW433632   5.703   0.463   0.042  0.2560 -0.2480  0.6029
 8467SOL     OW33633   6.041   2.826   6.272  0.3368  0.5486 -0.2432
 8467SOL    HW233634   6.053   2.859   6.361  0.6134  1.9791 -0.7877
 8467SOL    HW333635   6.129   2.799   6.246  0.4583  1.1664 -0.4756
 8467SOL    MW433636   6.054   2.826   6.281 -0.3483  0.0655 -0.2417
 8468SOL     OW33637   5.877   2.097   2.452 -0.7050 -0.3525  0.5908
 8468SOL    HW233638   5.916   2.081   2.366  0.0668  0.7847  0.7096
 8468SOL    HW333639   5.952   2.105   2.511 -1.1085  1.3707  0.9213
 8468SOL    MW433640   5.892   2.096   2.448  0.2041 -0.8135 -0.0843
 8469SOL     OW33641   1.056   6.191   1.552 -0.2747 -0.3584 -0.4471
 8469SOL    HW233642   1.035   6.272   1.506  2.0538 -0.0493 -1.1239
 8469SOL    HW333643   0.975   6.140   1.551 -1.7040  1.7733 -0.3355
 8469SOL    MW433644   1.043   6.195   1.546 -0.1140 -0.6112 -0.3608
 8470SOL     OW33645   1.565   1.630   3.509 -0.3406 -0.1310 -0.3025
 8470SOL    HW233646   1.493   1.643   3.570  0.3223  0.6561  0.3364
 8470SOL    HW333647   1.625   1.703   3.527  1.2561 -1.4745  0.1136
 8470SOL    MW433648   1.564   1.641   3.520 -0.1197 -0.1875 -0.3472
 8471SOL     OW33649   2.634   3.583   1.449  0.4092 -0.5509  0.0436
 8471SOL    HW233650   2.666   3.585   1.538  2.2723 -2.6832 -0.4989
 8471SOL    HW333651   2.568   3.513   1.448 -2.3409  1.8319  0.4625
 8471SOL    MW433652   2.629   3.574   1.460 -0.2680  0.7756  0.0809
 8472SOL     OW33653   5.682   2.104   1.040 -0.0869  0.5218 -0.0568
 8472SOL    HW233654   5.723   2.190   1.053  0.5357  0.1698  0.3027
 8472SOL    HW333655   5.631   2.115   0.959  0.8234  0.9274 -0.6032
 8472SOL    MW433656   5.681   2.117   1.031 -0.3287 -0.2837  0.1844
 8473SOL     OW33657   0.012   2.863   2.052 -0.0289 -0.1796 -0.0082
 8473SOL    HW233658  -0.003   2.955   2.031  2.6250  0.1305 -1.0453
 8473SOL    HW333659   0.007   2.817   1.968 -1.4197 -1.0426  0.5086
 8473SOL    MW433660   0.010   2.869   2.038  0.2979  0.0044  0.3049
 8474SOL     OW33661   1.084   1.592   2.280 -0.1198  0.0707 -1.1283
 8474SOL    HW233662   1.031   1.537   2.223 -2.0670  0.8703 -0.1544
 8474SOL    HW333663   1.026   1.619   2.350  1.4315  1.4271 -0.2777
 8474SOL    MW433664   1.070   1.588   2.282 -0.1793 -0.3919  0.6090
 8475SOL     OW33665   2.720   1.126   1.285 -0.4735  0.5011 -0.4851
 8475SOL    HW233666   2.794   1.168   1.242 -0.1273 -0.0057 -0.3953
 8475SOL    HW333667   2.653   1.194   1.290  0.4922  1.4261  0.7604
 8475SOL    MW433668   2.721   1.140   1.280 -0.1836  0.3912  0.0850
 8476SOL     OW33669   3.568   5.311   0.753 -0.9900 -0.2371 -0.0294
 8476SOL    HW233670   3.580   5.254   0.829 -0.3878 -0.4621 -0.2900
 8476SOL    HW333671   3.503   5.375   0.782 -0.0619  0.2719  1.0063
 8476SOL    MW433672   3.561   5.312   0.767  0.3350  0.9167 -0.7199
 8477SOL     OW33673   5.212   2.253   1.556 -0.2023  0.1299 -0.1666
 8477SOL    HW233674   5.171   2.300   1.483 -0.5293  0.1422  0.0194
 8477SOL    HW333675   5.165   2.169   1.559  0.0819 -0.0325 -0.2216
 8477SOL    MW433676   5.200   2.248   1.547 -0.2087  0.4971  0.2546
 8478SOL     OW33677   4.153   3.572   1.619 -0.4390 -0.3354  0.4008
 8478SOL    HW233678   4.231   3.614   1.582 -1.4447  0.1396 -1.3007
 8478SOL    HW333679   4.174   3.562   1.712  2.3470 -1.8708 -0.2624
 8478SOL    MW433680   4.166   3.576   1.626  0.0429  0.3195  0.2633
 8479SOL     OW33681   0.649   5.489   3.653  0.6892  0.2284 -0.6307
 8479SOL    HW233682   0.599   5.407   3.656  0.3938  0.3779 -1.1697
 8479SOL    HW333683   0.732   5.468   3.695  0.5399 -0.2962 -0.5864
 8479SOL    MW433684   0.653   5.475   3.659 -0.1417 -0.2396 -0.4381
 8480SOL     OW33685   2.212   3.185   3.490  0.1249  0.2434 -0.2185
 8480SOL    HW233686   2.150   3.249   3.524  0.2981  0.7725 -0.8793
 8480SOL    HW333687   2.169   3.148   3.413  0.4676  0.3414 -0.4619
 8480SOL    MW433688   2.198   3.188   3.485 -0.3235 -0.0196  0.2527
 8481SOL     OW33689   3.294   1.534   1.822  0.0300  0.4799 -0.0579
 8481SOL    HW233690   3.229   1.516   1.890  0.2664  0.8410  0.2690
 8481SOL    HW333691   3.276   1.470   1.753  0.6971 -0.8296  0.9554
 8481SOL    MW433692   3.283   1.523   1.821  0.2680  0.3486  0.0772
 8482SOL     OW33693   4.946   1.769   0.984 -0.2834  0.3242  0.1565
 8482SOL    HW233694   5.019   1.783   0.923  0.9369  1.5041  1.7888
 8482SOL    HW333695   4.946   1.675   1.000 -0.1087  0.1063 -1.0168
 8482SOL    MW433696   4.956   1.758   0.978 -0.3185  0.3540  0.0370
 8483SOL     OW33697   2.440   0.461   0.327  0.6533  0.4339 -0.0760
 8483SOL    HW233698   2.420   0.479   0.418  0.4907  0.6315 -0.1506
 8483SOL    HW333699   2.480   0.374   0.328  0.4464  0.3411  0.1558
 8483SOL    MW433700   2.443   0.452   0.339 -0.0990 -0.4232  0.4355
 8484SOL     OW33701   4.165   3.724   5.580  0.1202  0.5875  0.2972
 8484SOL    HW233702   4.213   3.799   5.543 -0.3690  0.2241 -1.1276
 8484SOL    HW333703   4.144   3.669   5.505 -0.2696 -0.5771  1.2221
 8484SOL    MW433704   4.168   3.727   5.566  0.0047 -0.0117  0.1377
 8485SOL     OW33705   2.461   2.345   5.928 -0.0304  0.1206  0.1530
 8485SOL    HW233706   2.545   2.302   5.911 -0.6012 -0.1146 -2.5439
 8485SOL    HW333707   2.423   2.296   6.000  1.3474 -0.9520  0.2003
 8485SOL    MW433708   2.467   2.333   5.935  0.4881  0.2585 -0.1886
 8486SOL     OW33709   1.011   0.647   5.507 -0.2267 -0.1013  0.0887
 8486SOL    HW233710   1.052   0.703   5.573 -1.1564 -0.2511  0.8121
 8486SOL    HW333711   0.955   0.588   5.557 -0.4066 -0.6951 -0.7874
 8486SOL    MW433712   1.009   0.646   5.522 -0.3404 -0.2955 -0.1239
 8487SOL     OW33713   5.767   5.075   4.391 -0.1755  0.3620 -0.0809
 8487SOL    HW233714   5.821   5.074   4.312  1.0350  2.9692  0.5970
 8487SOL    HW333715   5.726   5.162   4.391 -2.7366 -0.7439  0.5647
 8487SOL    MW433716   5.769   5.086   4.380  0.2152  0.3275 -0.3567
 8488SOL     OW33717   3.009   2.734   2.191 -0.2936  0.8683  0.6183
 8488SOL    HW233718   3.010   2.724   2.286  0.7046 -1.4073  0.4082
 8488SOL    HW333719   3.029   2.827   2.177  0.7260  0.9913  2.5841
 8488SOL    MW433720   3.011   2.745   2.202 -0.0099  0.2732  0.2788
 8489SOL     OW33721   1.900   6.278   3.223 -0.5197  0.1100 -0.1268
 8489SOL    HW233722   1.919   6.189   3.252  0.6474  0.4498  0.1986
 8489SOL    HW333723   1.914   6.276   3.128 -0.3201 -0.0140 -0.0949
 8489SOL    MW433724   1.905   6.266   3.214 -0.0646  0.7204 -0.5552
 8490SOL     OW33725   3.451   1.175   2.733 -0.3847  0.5663  0.2068
 8490SOL    HW233726   3.483   1.124   2.659 -0.8807  1.6733 -0.8066
 8490SOL    HW333727   3.390   1.116   2.778  1.3878 -0.8123  0.9348
 8490SOL    MW433728   3.447   1.160   2.729 -0.7182  0.2277 -0.4825
 8491SOL     OW33729   2.707   0.444   4.653 -0.3144  0.2728  0.7164
 8491SOL    HW233730   2.773   0.384   4.687 -0.3294  0.1825  0.5844
 8491SOL    HW333731   2.624   0.398   4.666 -0.4549  0.7860  1.7927
 8491SOL    MW433732   2.704   0.430   4.659  0.2274 -0.5787  0.0818
 8492SOL     OW33733   1.766   4.658   2.407  0.4357 -0.1576 -0.1394
 8492SOL    HW233734   1.838   4.700   2.361 -1.1856  0.5793 -2.1902
 8492SOL    HW333735   1.726   4.729   2.458  0.0059 -0.0756 -0.5764
 8492SOL    MW433736   1.770   4.673   2.408  0.0435  0.4644 -0.5101
 8493SOL     OW33737   4.857   3.477   0.371  0.0180 -0.4873  0.0586
 8493SOL    HW233738   4.882   3.477   0.278 -1.1972  0.7387 -0.3071
 8493SOL    HW333739   4.775   3.427   0.373  0.9684 -2.1270  0.8100
 8493SOL    MW433740   4.849   3.470   0.359  0.0728 -0.4066 -0.9466
 8494SOL     OW33741   6.285   3.665   5.383  0.2846 -0.1057 -0.5713
 8494SOL    HW233742   6.193   3.689   5.367  0.1256 -0.2538  0.0649
 8494SOL    HW333743   6.298   3.685   5.476  1.2883  1.1572 -0.9642
 8494SOL    MW433744   6.274   3.671   5.393 -0.0353  0.4407  0.2906
 8495SOL     OW33745   2.957   3.536   3.560 -0.4148  0.1085 -0.1279
 8495SOL    HW233746   3.037   3.498   3.595 -1.6454 -3.5617 -0.8561
 8495SOL    HW333747   2.896   3.535   3.634 -1.2132 -2.0187 -0.7202
 8495SOL    MW433748   2.959   3.531   3.574  0.1278  0.2468 -0.2568
 8496SOL     OW33749   4.683   4.368   1.452 -0.1177  0.3665  0.1909
 8496SOL    HW233750   4.667   4.447   1.504 -0.1702  0.8166 -0.5061
 8496SOL    HW333751   4.761   4.388   1.401 -2.0972  1.3697 -2.6727
 8496SOL    MW433752   4.691   4.381   1.452 -0.1038  0.6278  0.0641
 8497SOL     OW33753   1.230   1.798   0.115  0.5614  0.6977  0.2676
 8497SOL    HW233754   1.287   1.783   0.039  1.3637  1.7536  0.6354
 8497SOL    HW333755   1.154   1.742   0.099  1.6584 -0.7078 -0.2791
 8497SOL    MW433756   1.227   1.789   0.103  0.7646  0.2461 -0.1390
 8498SOL     OW33757   3.191   3.895   5.902 -0.2281  0.1004 -0.1648
 8498SOL    HW233758   3.131   3.820   5.900 -0.3366  0.1253  1.3600
 8498SOL    HW333759   3.275   3.859   5.873 -0.9272  0.0568 -2.2941
 8498SOL    MW433760   3.194   3.880   5.898  0.3802 -0.5140 -0.2596
 8499SOL     OW33761   1.755   5.254   1.992  0.5457 -0.1277 -0.1241
 8499SOL    HW233762   1.759   5.343   2.026 -0.2936 -0.9373  2.3303
 8499SOL    HW333763   1.701   5.260   1.913 -1.3358  1.2457  1.1941
 8499SOL    MW433764   1.748   5.267   1.986 -0.1235  0.8484 -0.2001
 8500SOL     OW33765   3.547   3.276   6.221  0.0972  0.2031 -0.2010
 8500SOL    HW233766   3.472   3.323   6.187 -0.1643 -0.2855 -0.3111
 8500SOL    HW333767   3.611   3.278   6.149 -0.0116  0.1677 -0.2989
 8500SOL    MW433768   3.546   3.282   6.207  0.2506  0.3887 -0.0230
 8501SOL     OW33769   0.168   6.360   0.009 -0.1229 -0.0397 -0.4127
 8501SOL    HW233770   0.200   6.282  -0.037  1.0547  0.3932 -0.3778
 8501SOL    HW333771   0.077   6.341   0.029  0.0431 -1.2555 -0.7307
 8501SOL    MW433772   0.160   6.347   0.005 -0.1171  0.0551  0.4187
 8502SOL     OW33773   5.207   2.518   6.286 -0.6351  0.2069  0.2364
 8502SOL    HW233774   5.296   2.485   6.274 -0.8966 -0.4743  0.1393
 8502SOL    HW333775   5.168   2.514   6.199 -0.9644 -0.1045  0.3964
 8502SOL    MW433776   5.214   2.513   6.273  0.0251 -0.1037  0.0487
 8503SOL     OW33777   2.130   0.651   5.921 -0.1988 -0.1244 -0.7428
 8503SOL    HW233778   2.125   0.592   5.996  2.3040  0.9374  0.3667
 8503SOL    HW333779   2.200   0.615   5.867  0.5949  1.1525 -0.6168
 8503SOL    MW433780   2.139   0.639   5.924  0.2818 -0.5041  0.0437
 8504SOL     OW33781   4.502   2.584   0.766  0.3202 -0.6022 -0.4470
 8504SOL    HW233782   4.426   2.588   0.709 -0.5437 -0.1972  0.6993
 8504SOL    HW333783   4.486   2.509   0.823  0.0140  0.3719  0.8028
 8504SOL    MW433784   4.490   2.574   0.766  0.1269  0.3076  0.1561
 8505SOL     OW33785   2.317   4.182   4.689  0.2783  0.4158  0.1853
 8505SOL    HW233786   2.370   4.189   4.769 -0.5032  0.5852  0.7053
 8505SOL    HW333787   2.231   4.151   4.720  0.3443 -0.8000 -0.7499
 8505SOL    MW433788   2.313   4.179   4.704 -0.1993 -0.1744 -0.3402
 8506SOL     OW33789   2.798   6.245   6.330  0.2334  0.1519  0.3383
 8506SOL    HW233790   2.835   6.165   6.368 -1.7259  0.0207  2.1128
 8506SOL    HW333791   2.852   6.316   6.365  0.4884 -0.2183  0.6972
 8506SOL    MW433792   2.810   6.244   6.340  0.4011 -0.5466  0.1984
 8507SOL     OW33793   1.745   2.081   1.667  0.2375  0.2323  0.2879
 8507SOL    HW233794   1.657   2.043   1.660  0.7429 -1.0243  0.5729
 8507SOL    HW333795   1.757   2.096   1.761  0.2416  0.6543  0.2241
 8507SOL    MW433796   1.735   2.078   1.678 -0.3265 -0.1974 -0.2062
 8508SOL     OW33797   2.515   1.095   2.370 -0.3086 -0.0464  0.1873
 8508SOL    HW233798   2.569   1.056   2.440  1.7414  2.2696  0.0237
 8508SOL    HW333799   2.425   1.086   2.402  0.3199 -1.7923  1.6740
 8508SOL    MW433800   2.511   1.089   2.383  0.4735 -0.0943  0.2981
 8509SOL     OW33801   3.200   1.677   5.075 -0.0421 -0.2121 -0.3379
 8509SOL    HW233802   3.253   1.744   5.117  1.4624 -2.1488  1.0494
 8509SOL    HW333803   3.243   1.661   4.991  0.2042 -0.1744 -0.2173
 8509SOL    MW433804   3.212   1.683   5.069  0.2176 -0.5435  0.2975
 8510SOL     OW33805   3.404   1.532   2.475  0.5494 -0.1081  0.1439
 8510SOL    HW233806   3.391   1.530   2.381  0.8949  1.3447  0.0475
 8510SOL    HW333807   3.366   1.450   2.506 -1.3757  0.2713 -1.0442
 8510SOL    MW433808   3.397   1.521   2.467 -0.1150  0.0204 -0.1430
 8511SOL     OW33809   3.476   4.199   3.955 -0.0958 -0.3996  0.0694
 8511SOL    HW233810   3.566   4.210   3.926  0.4589  1.0522  2.0944
 8511SOL    HW333811   3.482   4.151   4.038 -1.3786 -2.0207 -0.7151
 8511SOL    MW433812   3.489   4.194   3.962 -0.1637 -0.1348  0.2313
 8512SOL     OW33813   5.933   3.960   6.310 -0.3549 -0.5686 -0.1231
 8512SOL    HW233814   5.954   3.980   6.401 -1.7239  1.4716 -0.1918
 8512SOL    HW333815   6.009   3.912   6.278  0.8242  0.0200  1.6614
 8512SOL    MW433816   5.946   3.956   6.318 -0.1152 -0.6741 -0.2455
 8513SOL     OW33817   3.037   3.251   0.214 -0.3635  0.0840  0.1889
 8513SOL    HW233818   3.110   3.312   0.205 -1.1984  1.6585  2.7997
 8513SOL    HW333819   2.966   3.304   0.250 -1.5689 -2.1394  1.3058
 8513SOL    MW433820   3.037   3.266   0.218  0.1024  0.2610 -0.0956
 8514SOL     OW33821   4.891   3.989   2.595 -0.1202  0.0955  0.3052
 8514SOL    HW233822   4.922   3.901   2.576  0.1976  0.2548  0.0738
 8514SOL    HW333823   4.905   4.000   2.689  0.7744  0.2535  0.1651
 8514SOL    MW433824   4.897   3.979   2.605 -0.5091  0.0692 -0.1110
 8515SOL     OW33825   3.869   5.936   3.532 -0.1088 -0.5223  0.0974
 8515SOL    HW233826   3.916   5.887   3.464  0.7699 -2.5655  2.0366
 8515SOL    HW333827   3.837   5.869   3.592 -0.1777  1.2115  2.1284
 8515SOL    MW433828   3.871   5.921   3.531  0.1683  0.1083 -0.2160
 8516SOL     OW33829   5.414   5.603   4.345 -0.2366  0.0628 -0.4458
 8516SOL    HW233830   5.354   5.642   4.409 -0.3165 -0.3963 -0.2356
 8516SOL    HW333831   5.393   5.510   4.346  0.6331 -0.1393 -0.1971
 8516SOL    MW433832   5.403   5.596   4.354  0.5033  0.0057 -0.2678
 8517SOL     OW33833   4.912   4.076   6.266 -0.2487  0.2528  0.0046
 8517SOL    HW233834   4.858   4.098   6.191 -0.2563  0.8620  0.1811
 8517SOL    HW333835   4.985   4.139   6.262  0.4252 -0.5181 -0.2025
 8517SOL    MW433836   4.915   4.087   6.256 -0.6743  0.1124  0.2644
 8518SOL     OW33837   4.393   4.320   3.893 -0.4361 -0.1338 -0.0441
 8518SOL    HW233838   4.401   4.225   3.890  1.9676  0.0338 -1.0126
 8518SOL    HW333839   4.381   4.346   3.801  1.9678  0.6115 -0.2301
 8518SOL    MW433840   4.393   4.311   3.880  0.0924 -0.3240 -0.7218
 8519SOL     OW33841   3.978   2.793   5.133 -0.0293  0.1594  0.3415
 8519SOL    HW233842   3.894   2.777   5.176  0.6859 -0.5610  1.5133
 8519SOL    HW333843   3.954   2.836   5.050 -1.5327  0.0985  0.7072
 8519SOL    MW433844   3.963   2.796   5.128  0.6532 -0.5336 -0.2116
 8520SOL     OW33845   0.591   4.396   2.862 -0.3429  0.1315  0.0469
 8520SOL    HW233846   0.681   4.421   2.845  0.0132 -0.9932  0.2070
 8520SOL    HW333847   0.556   4.466   2.916  0.9475 -0.2267  1.3883
 8520SOL    MW433848   0.598   4.408   2.867  0.2634 -0.1870  0.3009
 8521SOL     OW33849   4.359   2.187   1.328 -0.3248  0.0267  0.1454
 8521SOL    HW233850   4.362   2.131   1.250 -0.8384 -0.9730  0.8070
 8521SOL    HW333851   4.395   2.271   1.300  0.5342 -0.6552 -0.8807
 8521SOL    MW433852   4.364   2.190   1.314  0.1875 -0.1514  0.0625
 8522SOL     OW33853   1.525   6.105   0.229  0.2374 -0.0754  0.5274
 8522SOL    HW233854   1.490   6.189   0.197 -0.9308 -0.6723  0.1590
 8522SOL    HW333855   1.500   6.042   0.161  3.5778 -0.3091 -0.6493
 8522SOL    MW433856   1.517   6.108   0.215  0.0803  0.2500 -0.4138
 8523SOL     OW33857   0.247   3.778   3.468 -0.3576  0.0029  0.5183
 8523SOL    HW233858   0.205   3.696   3.442  0.1476  0.3517 -1.5563
 8523SOL    HW333859   0.175   3.837   3.488 -0.7333 -0.7850  1.5617
 8523SOL    MW433860   0.232   3.775   3.467 -0.4410  0.1467  0.3107
 8524SOL     OW33861   4.394   2.076   0.835 -0.5827 -0.0443 -0.2879
 8524SOL    HW233862   4.383   2.020   0.912 -1.8501 -0.7054 -0.9056
 8524SOL    HW333863   4.465   2.035   0.786 -0.2653 -0.0416  0.1590
 8524SOL    MW433864   4.402   2.063   0.839 -0.0259 -0.0884 -0.5159
 8525SOL     OW33865   5.207   0.822   1.900  0.4415 -0.0281  0.1763
 8525SOL    HW233866   5.206   0.781   1.986  1.1685 -1.6547 -0.5459
 8525SOL    HW333867   5.222   0.915   1.918  1.5834 -0.4651  1.7634
 8525SOL    MW433868   5.209   0.829   1.914  0.0146 -0.6500 -0.1832
 8526SOL     OW33869   4.260   3.063   2.158 -0.2268 -0.1968 -0.1883
 8526SOL    HW233870   4.325   3.064   2.229  1.5868 -2.2500 -1.6563
 8526SOL    HW333871   4.178   3.038   2.200  0.8966 -1.8055  1.1566
 8526SOL    MW433872   4.258   3.060   2.173 -0.3157  0.7206 -0.2081
 8527SOL     OW33873   5.540   1.034   0.231 -0.1672  0.6612  0.2258
 8527SOL    HW233874   5.608   1.067   0.172  0.4278  0.6751  0.9086
 8527SOL    HW333875   5.465   1.017   0.174  1.0106 -1.2017 -0.8874
 8527SOL    MW433876   5.539   1.036   0.215 -0.1342  0.6065  0.3283
 8528SOL     OW33877   5.327   1.947   0.914  0.5371 -0.5140  0.0557
 8528SOL    HW233878   5.360   1.927   1.002 -0.4617  0.9733  0.8123
 8528SOL    HW333879   5.306   2.040   0.917  0.6321 -0.4008 -1.8284
 8528SOL    MW433880   5.328   1.957   0.926 -0.3270 -0.0386  0.0062
 8529SOL     OW33881   1.393   5.424   5.116  0.3599  0.2863  0.0886
 8529SOL    HW233882   1.464   5.474   5.077 -1.1157  1.6320 -0.9993
 8529SOL    HW333883   1.370   5.471   5.196  1.5493 -0.9240  1.1942
 8529SOL    MW433884   1.399   5.437   5.121  0.4553  0.3060  0.1887
 8530SOL     OW33885   2.131   4.364   3.481  0.1596 -0.2850 -0.1288
 8530SOL    HW233886   2.186   4.383   3.557  0.3704 -0.9045 -0.1174
 8530SOL    HW333887   2.193   4.338   3.413  0.1120  1.7559 -1.0169
 8530SOL    MW433888   2.147   4.363   3.482  0.4643  0.2245  0.6360
 8531SOL     OW33889   2.449   4.091   1.310 -0.2089 -0.0473  0.1095
 8531SOL    HW233890   2.502   4.018   1.280 -0.4331 -0.6932  1.1972
 8531SOL    HW333891   2.501   4.132   1.379 -0.6819 -0.0670  0.4855
 8531SOL    MW433892   2.463   4.086   1.315  0.5575  0.0417  0.4516
 8532SOL     OW33893   2.360   1.936   0.556 -0.1378 -0.0239  0.4391
 8532SOL    HW233894   2.327   1.937   0.466 -2.2312  1.5795  1.1486
 8532SOL    HW333895   2.363   1.843   0.579 -0.6807 -0.3984 -0.8776
 8532SOL    MW433896   2.356   1.924   0.547 -0.1644  0.1036  0.1601
 8533SOL     OW33897   1.032   3.678   4.230  0.6765 -0.3979 -0.1987
 8533SOL    HW233898   1.065   3.590   4.248 -0.0658 -0.6356  0.0394
 8533SOL    HW333899   1.039   3.723   4.315  2.8090  0.3950 -0.7122
 8533SOL    MW433900   1.038   3.672   4.244  0.4248 -0.1776 -0.1108
 8534SOL     OW33901   1.833   2.583   0.412  0.4483  0.0121  0.0805
 8534SOL    HW233902   1.887   2.516   0.454  0.0950 -1.1037 -1.1790
 8534SOL    HW333903   1.772   2.534   0.357 -0.9139  1.3044  0.3467
 8534SOL    MW433904   1.832   2.568   0.411 -0.3246 -0.3348  0.0853
 8535SOL     OW33905   4.751   5.779   2.479  0.7809  0.3570 -0.0075
 8535SOL    HW233906   4.823   5.747   2.533 -0.0894  1.2180  1.7483
 8535SOL    HW333907   4.783   5.771   2.389  2.4855 -0.6426  0.6399
 8535SOL    MW433908   4.765   5.774   2.474 -0.3877  0.0035  0.1941
 8536SOL     OW33909   0.179   1.385   3.013 -0.2770  0.0755 -0.8579
 8536SOL    HW233910   0.209   1.469   3.046 -0.0370  0.1401 -1.2308
 8536SOL    HW333911   0.083   1.389   3.019 -0.2459 -0.8444  2.1226
 8536SOL    MW433912   0.170   1.396   3.018  0.0002  0.0042  0.1906
 8537SOL     OW33913   6.193   1.943   1.910 -0.1573  0.2751 -0.2479
 8537SOL    HW233914   6.244   1.888   1.970  1.4719  2.3350  0.3601
 8537SOL    HW333915   6.254   1.964   1.839 -0.6570  1.4630 -0.3456
 8537SOL    MW433916   6.208   1.938   1.908 -0.3398 -0.4301  0.3588
 8538SOL     OW33917   6.305   5.736   1.257  0.3396 -0.3528  0.4293
 8538SOL    HW233918   6.358   5.737   1.337  1.3582  0.1422 -0.2329
 8538SOL    HW333919   6.257   5.653   1.262  0.2673 -0.2619  1.6207
 8538SOL    MW433920   6.306   5.725   1.268  0.1384  0.4455 -0.3041
 8539SOL     OW33921   2.602   1.320   6.161 -0.1146 -0.4647 -0.8455
 8539SOL    HW233922   2.543   1.266   6.108 -0.2979  0.9568 -2.1443
 8539SOL    HW333923   2.564   1.315   6.249 -1.4046 -0.6695 -1.3772
 8539SOL    MW433924   2.589   1.312   6.166 -0.5151  0.0217 -0.2160
 8540SOL     OW33925   2.820   3.214   1.312  1.0362 -0.2999  0.2431
 8540SOL    HW233926   2.820   3.230   1.407  0.0522  0.0516  0.1908
 8540SOL    HW333927   2.890   3.150   1.299 -0.9026 -2.9030  1.6588
 8540SOL    MW433928   2.829   3.208   1.323  0.2304  0.2508  0.5258
 8541SOL     OW33929   6.179   1.608   3.458  0.8218 -0.2159  0.3328
 8541SOL    HW233930   6.147   1.697   3.473  2.6323  0.3850  0.9321
 8541SOL    HW333931   6.219   1.582   3.541  0.2157 -1.6582  0.2115
 8541SOL    MW433932   6.180   1.616   3.471  0.4569  0.2622  0.1594
 8542SOL     OW33933   5.797   0.381   4.198  0.1017  0.9199  0.5207
 8542SOL    HW233934   5.705   0.356   4.201  0.0822  0.7324 -0.9894
 8542SOL    HW333935   5.801   0.461   4.250 -1.0256  1.2330  0.1589
 8542SOL    MW433936   5.785   0.388   4.205  0.2966 -0.2609 -0.7755
 8543SOL     OW33937   6.339   4.084   3.019  0.3223  0.3940 -0.3646
 8543SOL    HW233938   6.342   4.120   2.931  1.4348  1.2805  0.0149
 8543SOL    HW333939   6.256   4.036   3.023 -0.0378  0.8827 -1.6704
 8543SOL    MW433940   6.329   4.082   3.008 -0.3404 -0.2001 -0.3822
 8544SOL     OW33941   3.877   3.009   1.008  0.2835 -0.4643  0.1505
 8544SOL    HW233942   3.965   3.043   0.992  0.6881 -0.7476  1.6737
 8544SOL    HW333943   3.860   2.954   0.932  1.9233 -1.3563  0.3707
 8544SOL    MW433944   3.887   3.006   0.996 -0.2094 -0.2052 -0.0826
 8545SOL     OW33945   2.558   1.330   1.208  0.4211 -0.0757  0.6097
 8545SOL    HW233946   2.492   1.328   1.277  1.0997  0.5842  1.2862
 8545SOL    HW333947   2.606   1.411   1.223 -0.0621  0.6111 -1.2374
 8545SOL    MW433948   2.555   1.341   1.219  0.1283 -0.8267 -0.0339
 8546SOL     OW33949   2.457   2.924   0.477  0.3028 -0.6928 -0.4987
 8546SOL    HW233950   2.366   2.952   0.467 -0.1349 -1.0818  1.8084
 8546SOL    HW333951   2.474   2.868   0.401 -0.9953  0.3198 -1.5681
 8546SOL    MW433952   2.447   2.920   0.466 -0.7306 -0.1247  0.3576
 8547SOL     OW33953   5.264   3.833   2.428  0.1589 -0.3363 -0.6361
 8547SOL    HW233954   5.294   3.873   2.510 -0.2284 -0.8975 -0.2089
 8547SOL    HW333955   5.274   3.902   2.362 -1.3750  0.7879  0.2463
 8547SOL    MW433956   5.270   3.847   2.430  0.1150  0.0861 -0.4796
 8548SOL     OW33957   5.920   1.248   0.210 -0.3177  0.6541  0.3139
 8548SOL    HW233958   5.885   1.288   0.130  1.3624  0.2164 -0.7000
 8548SOL    HW333959   6.015   1.261   0.203  0.0332 -1.1511  1.2601
 8548SOL    MW433960   5.928   1.255   0.199 -0.4034 -0.1993 -0.2190
 8549SOL     OW33961   3.499   2.185   3.035  0.8990  0.0410 -0.3487
 8549SOL    HW233962   3.448   2.173   3.115  1.3301  0.5845  0.0156
 8549SOL    HW333963   3.539   2.099   3.019  0.6797 -0.1154 -0.0702
 8549SOL    MW433964   3.498   2.172   3.043 -0.1116  0.5256 -0.3722
 8550SOL     OW33965   4.564   4.870   3.007  0.2534  0.0688 -0.2183
 8550SOL    HW233966   4.484   4.817   3.014  0.1226  0.2681 -0.1822
 8550SOL    HW333967   4.571   4.892   2.914 -0.3801  1.0247 -0.0615
 8550SOL    MW433968   4.554   4.866   2.996 -0.1714  0.1002  0.3261
 8551SOL     OW33969   2.974   0.692   4.897  0.0640 -0.5014  0.0135
 8551SOL    HW233970   2.894   0.716   4.850  0.2745  1.4767  0.5936
 8551SOL    HW333971   3.041   0.684   4.828 -0.2515 -0.4789 -0.2986
 8551SOL    MW433972   2.973   0.694   4.882  0.0544 -0.4744  0.2528
 8552SOL     OW33973   2.356   2.639   4.557  0.1430 -0.2251  0.6607
 8552SOL    HW233974   2.432   2.690   4.531 -1.9114  2.1119 -1.3443
 8552SOL    HW333975   2.390   2.571   4.616  3.5721  1.1659  0.4660
 8552SOL    MW433976   2.370   2.637   4.562 -0.0100  0.7944  0.1090
 8553SOL     OW33977   3.904   4.051   1.614 -0.1189  0.3528  0.1949
 8553SOL    HW233978   3.849   4.091   1.683 -0.8722 -0.0019 -0.1886
 8553SOL    HW333979   3.901   3.957   1.633 -0.3630  0.2486 -0.3328
 8553SOL    MW433980   3.896   4.044   1.626  0.1855  0.7516 -0.2804
 8554SOL     OW33981   5.113   2.132   1.216 -0.2845  0.3168 -0.0569
 8554SOL    HW233982   5.169   2.206   1.239 -1.2274  0.8833  0.4772
 8554SOL    HW333983   5.079   2.100   1.300  0.2754 -0.8752 -0.2570
 8554SOL    MW433984   5.115   2.138   1.230  0.5092  0.0108 -0.6768
 8555SOL     OW33985   4.153   6.178   5.040  0.0928 -0.0370  0.0701
 8555SOL    HW233986   4.168   6.131   4.958  0.6131 -0.7321  0.5483
 8555SOL    HW333987   4.072   6.140   5.074  0.1892 -0.1596  0.1622
 8555SOL    MW433988   4.145   6.167   5.033 -0.0305  0.0912 -0.3374
 8556SOL     OW33989   2.385   4.489   0.687 -0.5101  0.3260  0.2927
 8556SOL    HW233990   2.398   4.412   0.630  0.0845 -0.1549  1.0616
 8556SOL    HW333991   2.473   4.518   0.709 -0.7359  1.0417  0.2787
 8556SOL    MW433992   2.398   4.482   0.682 -0.1709  0.2308 -0.5492
 8557SOL     OW33993   5.179   1.989   0.429  0.1625 -0.4225  0.5373
 8557SOL    HW233994   5.109   2.009   0.368  0.2836  1.0146  0.8267
 8557SOL    HW333995   5.225   1.914   0.390 -1.2180 -1.0671  0.1102
 8557SOL    MW433996   5.176   1.982   0.416 -0.4766 -0.3332 -0.1602
 8558SOL     OW33997   2.514   1.980   5.220 -0.6777 -0.0794 -0.3533
 8558SOL    HW233998   2.503   2.033   5.141  0.2322  0.0670 -0.3929
 8558SOL    HW333999   2.442   2.007   5.278  0.4976  2.1702  0.1646
 8558SOL    MW434000   2.503   1.990   5.217 -0.7368  0.0423 -0.0983
 8559SOL     OW34001   1.689   1.051   1.758 -0.2898 -0.2071 -0.1576
 8559SOL    HW234002   1.661   1.101   1.835 -0.5656 -1.6805  0.7442
 8559SOL    HW334003   1.632   0.975   1.757 -0.8923  0.2252 -2.3886
 8559SOL    MW434004   1.678   1.048   1.768  0.7093 -0.0258  0.5834
 8560SOL     OW34005   4.765   2.065   4.140  0.4128 -0.0005  0.2436
 8560SOL    HW234006   4.714   2.025   4.070  0.0181  0.1537  0.4412
 8560SOL    HW334007   4.855   2.064   4.108  0.3215 -0.5016 -0.0001
 8560SOL    MW434008   4.770   2.060   4.127 -0.0025 -0.3077 -0.4234
 8561SOL     OW34009   2.334   2.910   4.405  0.2242 -0.5318  0.0328
 8561SOL    HW234010   2.406   2.939   4.461  0.9534 -2.2048 -0.0001
 8561SOL    HW334011   2.318   2.985   4.347  1.9526 -0.1165  0.0272
 8561SOL    MW434012   2.342   2.924   4.405 -0.0251 -0.0758  0.5704
 8562SOL     OW34013   0.182   0.422   4.945 -0.0824 -0.0579  0.0217
 8562SOL    HW234014   0.207   0.337   4.908 -1.6956  0.1569 -1.7556
 8562SOL    HW334015   0.204   0.485   4.877 -1.7285  0.5529  0.0055
 8562SOL    MW434016   0.188   0.419   4.931  0.1686 -0.0880  0.1767
 8563SOL     OW34017   0.058   2.314   0.287 -0.7817  0.2107  0.6031
 8563SOL    HW234018   0.065   2.309   0.191 -0.6778 -1.4653  0.6648
 8563SOL    HW334019   0.141   2.352   0.314  0.5528 -2.1635  0.1643
 8563SOL    MW434020   0.070   2.318   0.278 -0.2010  0.3881  0.2827
 8564SOL     OW34021   1.354   3.781   4.218  0.0170 -0.5184 -0.3231
 8564SOL    HW234022   1.350   3.711   4.283  1.7204 -0.9335 -0.6216
 8564SOL    HW334023   1.313   3.744   4.140 -1.0754 -0.3908  0.1744
 8564SOL    MW434024   1.348   3.767   4.217 -0.5788  0.1212  0.2554
 8565SOL     OW34025   1.119   0.335   2.548 -0.2757 -0.2232 -0.1904
 8565SOL    HW234026   1.122   0.374   2.461 -0.5731  0.9512  0.3068
 8565SOL    HW334027   1.038   0.283   2.549 -0.2562 -0.2642 -0.6159
 8565SOL    MW434028   1.109   0.333   2.537 -0.5213  0.4861  0.2811
 8566SOL     OW34029   0.699   4.209   3.762  0.0276  0.4707 -0.0899
 8566SOL    HW234030   0.757   4.210   3.838  0.7857 -0.5009 -0.6384
 8566SOL    HW334031   0.627   4.269   3.786  0.9149  1.1952  0.8466
 8566SOL    MW434032   0.697   4.217   3.775 -0.1115  0.4438  0.3170
 8567SOL     OW34033   5.599   1.041   3.181  0.4187 -0.4185  0.8073
 8567SOL    HW234034   5.688   1.023   3.151  1.1979  0.1146  2.6867
 8567SOL    HW334035   5.583   1.132   3.155 -0.0348 -0.8508 -0.5163
 8567SOL    MW434036   5.609   1.051   3.174 -0.5592  0.0634 -0.3974
 8568SOL     OW34037   2.335   6.287   5.645  0.1869 -0.0999  0.6971
 8568SOL    HW234038   2.389   6.336   5.706  0.7248 -1.2098  1.1324
 8568SOL    HW334039   2.395   6.228   5.601 -0.6091 -1.0998  0.9253
 8568SOL    MW434040   2.350   6.286   5.647  0.0640 -0.3860  0.3740
 8569SOL     OW34041   0.325   4.559   2.951  0.1067 -0.2401 -0.5320
 8569SOL    HW234042   0.384   4.528   3.020  0.1720  1.3484  0.1569
 8569SOL    HW334043   0.249   4.593   2.998 -0.5251 -0.5201 -1.3302
 8569SOL    MW434044   0.323   4.559   2.966  0.0666  0.1440 -0.1075
 8570SOL     OW34045   3.795   1.523   4.504  0.3179 -0.4855  0.5881
 8570SOL    HW234046   3.716   1.507   4.556  0.3576  1.6079  1.3868
 8570SOL    HW334047   3.860   1.552   4.568  0.9233  0.3527 -0.3834
 8570SOL    MW434048   3.793   1.525   4.519  0.0546  0.6141 -0.0633
 8571SOL     OW34049   1.679   4.058   5.007 -0.0603  0.2365 -0.2392
 8571SOL    HW234050   1.617   4.010   4.953  0.8744  0.3934 -1.5053
 8571SOL    HW334051   1.626   4.097   5.077 -1.2517 -0.2576 -0.8516
 8571SOL    MW434052   1.664   4.057   5.009 -0.1859 -0.2716 -0.1648
 8572SOL     OW34053   1.341   2.473   1.236 -0.1269  0.2995 -0.2813
 8572SOL    HW234054   1.263   2.527   1.223  0.3031  1.0811  0.3378
 8572SOL    HW334055   1.352   2.471   1.331  0.8096  0.4759 -0.3838
 8572SOL    MW434056   1.332   2.480   1.247  0.3466  0.0460 -0.0554
 8573SOL     OW34057   3.529   4.574   6.150  0.2077 -0.0317 -0.7722
 8573SOL    HW234058   3.577   4.518   6.089 -0.7280 -1.5398 -0.1850
 8573SOL    HW334059   3.579   4.656   6.152  1.7735 -0.9217 -1.4585
 8573SOL    MW434060   3.542   4.578   6.142 -0.0421 -0.2907  0.2266
 8574SOL     OW34061   0.510   0.364   1.285  0.1162 -0.2558 -0.2994
 8574SOL    HW234062   0.560   0.398   1.359 -0.5844 -1.1344  0.6064
 8574SOL    HW334063   0.569   0.304   1.241  0.0687 -0.8329  0.4132
 8574SOL    MW434064   0.524   0.361   1.289  0.1588  0.0499  0.4563
 8575SOL     OW34065   3.822   2.328   0.173  0.3889  0.0848 -0.8762
 8575SOL    HW234066   3.750   2.355   0.230 -0.2418 -0.8957 -1.1805
 8575SOL    HW334067   3.844   2.240   0.201  2.5850  0.9206  0.2546
 8575SOL    MW434068   3.815   2.320   0.184 -0.1881 -0.1552 -0.2393
 8576SOL     OW34069   0.380   3.859   0.570  0.1571 -0.2920  0.0711
 8576SOL    HW234070   0.469   3.843   0.541  0.1977 -1.3182  0.7211
 8576SOL    HW334071   0.325   3.806   0.513  0.1624 -1.5218  1.1677
 8576SOL    MW434072   0.384   3.850   0.559  0.0819  0.1044 -0.5284
 8577SOL     OW34073   0.999   5.409   5.557 -0.1107 -0.0537 -0.6028
 8577SOL    HW234074   1.004   5.442   5.467  0.1246 -1.0956 -0.9856
 8577SOL    HW334075   1.091   5.395   5.582 -0.1976 -0.1862 -0.3554
 8577SOL    MW434076   1.012   5.412   5.548 -0.2029  0.1063  0.1603
 8578SOL     OW34077   2.856   6.266   4.495 -0.2344  0.5723 -0.6358
 8578SOL    HW234078   2.949   6.254   4.514 -0.6758 -1.7030  0.4350
 8578SOL    HW334079   2.841   6.215   4.415 -0.9682 -1.1356  0.5275
 8578SOL    MW434080   2.866   6.257   4.487 -0.1052  0.4639 -0.0606
 8579SOL     OW34081   4.932   3.417   1.185 -0.0406 -0.5793  0.2273
 8579SOL    HW234082   4.943   3.351   1.253 -2.6649 -0.5024  0.8451
 8579SOL    HW334083   4.913   3.367   1.105 -0.6246 -0.6044  0.3806
 8579SOL    MW434084   4.931   3.402   1.183 -0.3153  0.5593 -0.1319
 8580SOL     OW34085   3.415   0.755   3.920  0.0636  0.2253  0.1265
 8580SOL    HW234086   3.354   0.746   3.846 -1.2352  2.8131  0.7961
 8580SOL    HW334087   3.372   0.709   3.992 -2.0989  3.3901  1.0607
 8580SOL    MW434088   3.401   0.747   3.919 -0.0067 -0.4242 -0.1483
 8581SOL     OW34089   4.243   5.072   1.416 -0.1376 -0.0640  0.1582
 8581SOL    HW234090   4.330   5.033   1.419 -0.1755 -0.1129  1.0523
 8581SOL    HW334091   4.252   5.155   1.463 -0.7413 -0.4542  0.9986
 8581SOL    MW434092   4.255   5.078   1.423 -0.0584  0.3570 -0.5751
 8582SOL     OW34093   2.070   4.610   1.915  0.1664  0.2216 -0.2815
 8582SOL    HW234094   2.039   4.561   1.839 -0.4673  0.6292 -0.2901
 8582SOL    HW334095   2.063   4.702   1.889  0.5253  0.3480  0.0542
 8582SOL    MW434096   2.065   4.616   1.902 -1.1098  0.4123 -0.6079
 8583SOL     OW34097   2.615   1.414   1.624  0.4773 -0.7494  0.2454
 8583SOL    HW234098   2.661   1.338   1.660  0.9735  0.1950  1.7001
 8583SOL    HW334099   2.560   1.444   1.696 -1.8710 -1.3645 -1.2043
 8583SOL    MW434100   2.614   1.408   1.638 -0.1869 -0.3124 -0.6206
 8584SOL     OW34101   1.969   4.559   6.318 -0.3214 -0.2825  0.0915
 8584SOL    HW234102   1.947   4.466   6.315  1.1300 -0.7073  1.4934
 8584SOL    HW334103   2.059   4.564   6.286  0.5372  0.2474  2.3693
 8584SOL    MW434104   1.978   4.548   6.313 -0.0747 -0.2161  0.5019
 8585SOL     OW34105   1.655   4.804   4.812 -0.3390 -0.0329  0.3077
 8585SOL    HW234106   1.606   4.768   4.738  1.5553 -0.0975 -0.9782
 8585SOL    HW334107   1.646   4.898   4.804  0.7726  0.0124 -0.7198
 8585SOL    MW434108   1.647   4.811   4.801  0.5255  0.0797  0.2804
 8586SOL     OW34109   1.625   3.082   4.241  0.0885  0.1496 -0.0168
 8586SOL    HW234110   1.589   3.142   4.177 -0.1634  0.7349  0.6571
 8586SOL    HW334111   1.679   3.022   4.191  0.1629  0.8040 -0.7252
 8586SOL    MW434112   1.627   3.082   4.226  0.3861  0.1231  0.9916
 8587SOL     OW34113   3.677   6.335   6.026  0.2089 -0.0751  0.1621
 8587SOL    HW234114   3.752   6.382   5.990  0.5538  0.7475  1.8587
 8587SOL    HW334115   3.698   6.242   6.014 -0.3301  0.0872 -2.9345
 8587SOL    MW434116   3.689   6.329   6.019  0.2395  0.0197  0.2327
 8588SOL     OW34117   5.235   0.684   2.166  0.2732 -0.3610  0.0028
 8588SOL    HW234118   5.170   0.630   2.211  1.7840 -0.7790  1.7839
 8588SOL    HW334119   5.312   0.682   2.223  2.4896 -1.2844 -2.7808
 8588SOL    MW434120   5.237   0.677   2.179 -0.4813 -0.0844  0.3948
 8589SOL     OW34121   4.708   4.993   4.834  0.4460 -0.2098 -0.1062
 8589SOL    HW234122   4.620   4.969   4.860  0.6263 -1.3975 -0.5108
 8589SOL    HW334123   4.697   5.069   4.777 -0.3450 -0.6059 -0.4848
 8589SOL    MW434124   4.695   5.000   4.830 -0.2180  0.1191 -0.4232
 8590SOL     OW34125   3.488   2.635   3.268 -0.1612  0.1813  0.4476
 8590SOL    HW234126   3.471   2.590   3.351  0.2195  0.0848  0.4738
 8590SOL    HW334127   3.480   2.566   3.202  0.7286  0.0051  0.5157
 8590SOL    MW434128   3.484   2.620   3.271  0.4877  0.6046  0.3360
 8591SOL     OW34129   3.338   2.752   0.676 -0.6385  0.2481  0.3545
 8591SOL    HW234130   3.403   2.819   0.698 -1.3596  1.0711  0.0122
 8591SOL    HW334131   3.269   2.763   0.740 -0.8535 -0.0304  0.1727
 8591SOL    MW434132   3.338   2.762   0.687  0.0310  0.3475 -0.2815
 8592SOL     OW34133   2.450   4.304   0.498  0.1184 -0.3408 -0.7012
 8592SOL    HW234134   2.401   4.224   0.519 -0.2626  0.0094 -0.2362
 8592SOL    HW334135   2.503   4.280   0.422 -0.7381 -0.7471 -1.1906
 8592SOL    MW434136   2.450   4.290   0.491 -0.3429  0.3477 -0.0150
 8593SOL     OW34137   3.015   6.367   2.163  0.1628  0.1354 -0.8257
 8593SOL    HW234138   2.975   6.429   2.224  1.5292  0.7415 -0.5251
 8593SOL    HW334139   2.941   6.337   2.109 -0.7345  1.0532 -0.1575
 8593SOL    MW434140   3.000   6.371   2.164  0.0131 -0.0335  0.1448
 8594SOL     OW34141   3.039   5.592   2.814  0.0586 -0.3732  0.0707
 8594SOL    HW234142   3.114   5.548   2.773 -0.0648 -1.3712  0.8809
 8594SOL    HW334143   2.984   5.521   2.846 -1.1507  0.3534 -0.3380
 8594SOL    MW434144   3.042   5.577   2.813  0.0178  0.9682 -0.1271
 8595SOL     OW34145   3.439   2.776   5.546 -0.8303 -0.2517 -0.2491
 8595SOL    HW234146   3.436   2.710   5.477  1.2297 -0.2613 -0.3943
 8595SOL    HW334147   3.482   2.851   5.505  2.0934 -0.8669  1.4219
 8595SOL    MW434148   3.444   2.777   5.532  0.2451 -0.1163 -0.2220
 8596SOL     OW34149   4.424   4.644   4.879 -0.0058 -0.9588  0.5505
 8596SOL    HW234150   4.440   4.630   4.786 -0.0705  1.4521  0.0965
 8596SOL    HW334151   4.505   4.615   4.922  0.9351 -0.0152 -0.5131
 8596SOL    MW434152   4.437   4.639   4.873  0.2067 -0.7208  0.1979
 8597SOL     OW34153   0.468   0.504   0.072  0.0516  0.2050 -0.7920
 8597SOL    HW234154   0.524   0.486  -0.004  0.4077 -0.7269 -0.3283
 8597SOL    HW334155   0.526   0.550   0.133  1.2694 -3.2406  0.8796
 8597SOL    MW434156   0.483   0.508   0.070  0.3866 -0.0008  0.3681
 8598SOL     OW34157   5.701   0.746   1.297  0.4374  0.4477  0.2894
 8598SOL    HW234158   5.687   0.768   1.205 -1.5872 -1.0771  0.1557
 8598SOL    HW334159   5.635   0.678   1.315 -0.0107  1.5344  3.1791
 8598SOL    MW434160   5.690   0.740   1.287  0.0518  0.0179 -0.4393
 8599SOL     OW34161   5.869   0.551   0.565  0.8369 -0.2146  0.3256
 8599SOL    HW234162   5.802   0.616   0.586  0.6610 -0.3613  0.2186
 8599SOL    HW334163   5.928   0.553   0.640  0.4536 -0.4178  0.6398
 8599SOL    MW434164   5.868   0.560   0.578 -0.1118 -0.2347  0.4575
 8600SOL     OW34165   5.431   0.536   0.591 -0.0003 -0.6787  0.0860
 8600SOL    HW234166   5.342   0.532   0.627  0.1945 -2.2169  0.4351
 8600SOL    HW334167   5.426   0.486   0.510  0.1838  0.6177 -0.7606
 8600SOL    MW434168   5.419   0.529   0.585 -0.0702 -0.2034 -0.0948
 8601SOL     OW34169   1.132   0.741   6.191 -0.0304 -0.6671 -0.2564
 8601SOL    HW234170   1.096   0.670   6.245  1.7187 -0.4166  1.3496
 8601SOL    HW334171   1.094   0.821   6.228  2.5293 -0.3260  1.9818
 8601SOL    MW434172   1.122   0.742   6.203  0.2897  0.2668 -0.3352
 8602SOL     OW34173   4.497   5.563   1.950 -0.5295  0.0619 -0.0451
 8602SOL    HW234174   4.535   5.640   1.908 -0.8225  0.7333  0.8932
 8602SOL    HW334175   4.542   5.557   2.034  0.6568 -1.7593 -0.7406
 8602SOL    MW434176   4.508   5.572   1.955 -0.2128  0.4087 -0.8182
 8603SOL     OW34177   2.647   1.961   6.148  0.5213 -0.2943 -0.5082
 8603SOL    HW234178   2.573   1.963   6.087 -0.1705 -0.0384  0.3203
 8603SOL    HW334179   2.701   1.888   6.117 -0.2164 -0.6585 -0.9727
 8603SOL    MW434180   2.644   1.951   6.136 -0.3350  0.0216 -0.2707
 8604SOL     OW34181   2.077   5.392   2.629  0.0180 -0.6223  0.4296
 8604SOL    HW234182   2.106   5.473   2.587  0.3231 -0.5919  0.6962
 8604SOL    HW334183   2.029   5.422   2.706 -1.2680 -0.6506 -0.3352
 8604SOL    MW434184   2.074   5.407   2.634  1.0834 -0.8149  0.1276
 8605SOL     OW34185   1.726   1.155   1.488  0.2523 -0.1799 -0.3824
 8605SOL    HW234186   1.736   1.118   1.576  1.9289  0.8959 -0.0674
 8605SOL    HW334187   1.668   1.094   1.442 -0.9465 -0.5884  1.5635
 8605SOL    MW434188   1.719   1.142   1.494  0.0613 -0.0747  1.0233
 8606SOL     OW34189   0.154   5.158   3.609  0.3286 -0.5507 -0.0210
 8606SOL    HW234190   0.160   5.134   3.702 -1.0858  1.3003  0.6019
 8606SOL    HW334191   0.083   5.104   3.575 -0.5424  0.2465  0.5061
 8606SOL    MW434192   0.146   5.148   3.617 -0.3869 -0.2676 -0.1767
 8607SOL     OW34193   1.025   3.004   1.486  0.0477 -0.1530 -0.0523
 8607SOL    HW234194   1.049   3.028   1.576  0.3958 -0.1058 -0.1561
 8607SOL    HW334195   0.988   2.916   1.494  0.9133 -0.5219  0.0179
 8607SOL    MW434196   1.024   2.996   1.499  0.2443 -0.0632  0.0405
 8608SOL     OW34197   2.081   5.017   3.461  0.1831  0.8515 -0.0350
 8608SOL    HW234198   2.140   4.953   3.422 -0.3865  0.6708 -0.6226
 8608SOL    HW334199   1.995   4.976   3.456 -0.4654  2.2997 -1.9117
 8608SOL    MW434200   2.077   5.003   3.455 -0.0533 -0.0632  0.1414
 8609SOL     OW34201   1.573   0.742   5.667 -0.0240  0.0581 -0.0007
 8609SOL    HW234202   1.604   0.659   5.702 -1.0008  0.2890  1.4818
 8609SOL    HW334203   1.556   0.725   5.574 -0.8205 -1.5555  0.4218
 8609SOL    MW434204   1.575   0.729   5.659  0.1733 -0.1399 -0.0369
 8610SOL     OW34205   5.003   2.470   4.052 -0.7852  0.1919  0.0975
 8610SOL    HW234206   5.078   2.449   3.996 -0.9695 -0.0156 -0.0720
 8610SOL    HW334207   5.006   2.405   4.122 -2.6110 -1.8532 -1.5881
 8610SOL    MW434208   5.013   2.459   4.054 -0.2327 -0.2209  0.4172
 8611SOL     OW34209   0.618   5.323   6.176 -0.0418 -0.5398  0.0779
 8611SOL    HW234210   0.665   5.402   6.147 -2.2379  1.1309  0.7921
 8611SOL    HW334211   0.685   5.271   6.220  0.9780  2.4848  2.5001
 8611SOL    MW434212   0.633   5.327   6.178 -0.0580  0.3651  0.1274
 8612SOL     OW34213   3.766   2.352   1.856  0.2071  0.3234  0.1656
 8612SOL    HW234214   3.702   2.282   1.865  1.6853 -1.0632  0.3280
 8612SOL    HW334215   3.788   2.377   1.945 -1.5950  2.2991  0.1396
 8612SOL    MW434216   3.760   2.346   1.869 -0.3936  0.3215 -0.1490
 8613SOL     OW34217   3.367   4.981   1.598 -0.0280 -0.5275  0.1971
 8613SOL    HW234218   3.413   4.903   1.566 -0.6607 -0.4374 -0.9933
 8613SOL    HW334219   3.422   5.054   1.570  0.4680 -0.5233  1.1474
 8613SOL    MW434220   3.381   4.980   1.590  0.1569 -0.3301  0.4046
 8614SOL     OW34221   2.014   2.308   1.839  0.0597 -0.3974 -0.2797
 8614SOL    HW234222   2.030   2.385   1.784  2.4400  0.0278  0.8917
 8614SOL    HW334223   1.994   2.344   1.926  1.0201 -1.0614  0.2383
 8614SOL    MW434224   2.013   2.323   1.843  0.0061  0.1298 -0.5626
 8615SOL     OW34225   4.752   0.608   1.727  0.2643 -0.0768 -1.0042
 8615SOL    HW234226   4.779   0.603   1.635 -0.1096  0.6349 -1.1573
 8615SOL    HW334227   4.703   0.690   1.733  3.5070  1.9433  0.6443
 8615SOL    MW434228   4.749   0.618   1.715 -0.2268  0.2916  0.3644
 8616SOL     OW34229   4.007   5.507   5.920 -0.3918  0.3808 -0.0091
 8616SOL    HW234230   4.094   5.547   5.918  0.1925 -0.8653 -0.8950
 8616SOL    HW334231   3.989   5.484   5.829 -0.3367 -2.0486  0.5155
 8616SOL    MW434232   4.016   5.509   5.908 -0.0209  0.5424  0.6457
 8617SOL     OW34233   0.873   4.383   2.809  0.4441 -0.4877 -0.6553
 8617SOL    HW234234   0.941   4.325   2.776  3.5104  0.8278  2.6940
 8617SOL    HW334235   0.902   4.471   2.786 -0.5658  0.0835  0.1289
 8617SOL    MW434236   0.886   4.387   2.802  0.1445 -0.3293 -0.4785
 8618SOL     OW34237   1.457   3.779   0.045 -0.1426  0.2665  0.1379
 8618SOL    HW234238   1.389   3.752   0.106  0.8939 -2.0712  0.3629
 8618SOL    HW334239   1.426   3.748  -0.040  0.2373 -0.0737  0.1188
 8618SOL    MW434240   1.444   3.771   0.042  0.2679  0.1209  0.1376
 8619SOL     OW34241   2.110   2.765   4.657  0.0279  0.3046  0.0369
 8619SOL    HW234242   2.084   2.811   4.577  0.8663 -0.2017 -0.5457
 8619SOL    HW334243   2.198   2.730   4.637  0.1993  0.0773  1.1366
 8619SOL    MW434244   2.119   2.766   4.644  0.1327 -0.1178 -0.0312
 8620SOL     OW34245   0.447   2.768   4.631 -0.0911 -0.1809 -0.5012
 8620SOL    HW234246   0.497   2.842   4.596  0.2908 -0.0394  0.3181
 8620SOL    HW334247   0.506   2.693   4.624 -0.2598 -0.2917 -0.7723
 8620SOL    MW434248   0.461   2.768   4.625 -0.0255 -0.5977 -0.3790
 8621SOL     OW34249   5.666   4.062   2.601  0.0551 -0.3662 -0.2294
 8621SOL    HW234250   5.623   4.141   2.633 -0.5886  0.0149 -1.9342
 8621SOL    HW334251   5.706   4.088   2.518 -0.5360 -1.9018 -1.0489
 8621SOL    MW434252   5.666   4.075   2.594 -0.1168  0.0663  0.4936
 8622SOL     OW34253   3.977   1.267   0.868 -0.4101 -0.2433 -0.6719
 8622SOL    HW234254   3.901   1.288   0.813 -2.2867 -1.2163  1.3715
 8622SOL    HW334255   3.948   1.287   0.957  2.1939  0.4370  0.1164
 8622SOL    MW434256   3.963   1.272   0.873 -0.2253  0.0643  0.2420
 8623SOL     OW34257   3.378   1.995   4.804  0.0661  0.5023 -0.2548
 8623SOL    HW234258   3.296   2.008   4.852  0.9195  1.1506  1.1084
 8623SOL    HW334259   3.446   2.023   4.865  1.2556  0.9184 -1.6970
 8623SOL    MW434260   3.376   2.001   4.818  0.2087  0.0308 -0.3645
 8624SOL     OW34261   2.492   3.560   4.509  0.3618  0.3286  0.1816
 8624SOL    HW234262   2.507   3.480   4.458  2.0186  0.6171  0.1597
 8624SOL    HW334263   2.461   3.624   4.445 -0.1720 -0.0507  0.0505
 8624SOL    MW434264   2.490   3.558   4.494  1.0784  0.3306  0.0652
 8625SOL     OW34265   6.379   1.334   0.868 -0.0194  0.2597 -0.2447
 8625SOL    HW234266   6.377   1.316   0.774 -0.3371  0.6692 -0.3198
 8625SOL    HW334267   6.470   1.359   0.885 -0.1328  0.9528 -0.5995
 8625SOL    MW434268   6.391   1.335   0.858 -0.1792  0.5453  0.3851
 8626SOL     OW34269   3.248   1.243   5.066  0.0921 -0.4797 -0.4588
 8626SOL    HW234270   3.301   1.323   5.066  2.2573 -1.8311  0.3663
 8626SOL    HW334271   3.209   1.239   5.153  1.4889 -1.2176  0.1579
 8626SOL    MW434272   3.250   1.253   5.077  0.2030 -0.0290 -0.2878
 8627SOL     OW34273   1.767   4.061   0.321  0.5026  0.0365  0.8720
 8627SOL    HW234274   1.688   4.007   0.321  0.5478 -0.0334  1.3027
 8627SOL    HW334275   1.738   4.147   0.352  0.3880  0.3255 -0.0297
 8627SOL    MW434276   1.753   4.065   0.325  0.1016 -0.4046  0.0405
 8628SOL     OW34277   2.164   4.170   2.358  0.1605 -0.4179  0.0594
 8628SOL    HW234278   2.104   4.095   2.357 -1.0087  0.3993 -3.0207
 8628SOL    HW334279   2.161   4.201   2.448 -2.1313 -1.9243  0.6058
 8628SOL    MW434280   2.156   4.164   2.369 -0.7525 -0.3285  0.3500
 8629SOL     OW34281   3.422   3.887   5.184  0.6704 -0.4616  0.2816
 8629SOL    HW234282   3.384   3.935   5.110  1.6366  0.6965  0.4984
 8629SOL    HW334283   3.349   3.842   5.224 -0.5789  1.9505  0.8975
 8629SOL    MW434284   3.408   3.887   5.179  0.3973 -0.2273 -0.3649
 8630SOL     OW34285   3.218   4.748   0.928 -0.5344  0.0492  0.0276
 8630SOL    HW234286   3.262   4.686   0.986  0.3698  1.3540  0.8037
 8630SOL    HW334287   3.286   4.774   0.866 -0.5915  1.0162  0.3485
 8630SOL    MW434288   3.233   4.743   0.927 -0.3617 -0.0621 -0.1857
 8631SOL     OW34289   3.680   4.091   0.245  0.4632 -0.0791  0.6494
 8631SOL    HW234290   3.744   4.160   0.229 -0.3279  0.6649  0.6423
 8631SOL    HW334291   3.713   4.016   0.196  0.4708  0.7806 -0.7155
 8631SOL    MW434292   3.693   4.090   0.237 -0.0659 -0.0496  0.1792
 8632SOL     OW34293   5.436   2.630   5.220 -0.3597 -0.0491  0.2974
 8632SOL    HW234294   5.482   2.654   5.301  1.3664 -1.0919 -0.3338
 8632SOL    HW334295   5.410   2.539   5.233 -1.0567  0.1131  0.0951
 8632SOL    MW434296   5.438   2.621   5.233  0.3014 -0.9632  0.1821
 8633SOL     OW34297   3.409   5.598   4.677 -0.1774  0.4742  0.4003
 8633SOL    HW234298   3.476   5.621   4.741 -1.3514 -0.6401  2.1142
 8633SOL    HW334299   3.428   5.653   4.601  2.1937  0.7258  1.1047
 8633SOL    MW434300   3.421   5.608   4.676  0.6864 -0.3685  0.2691
 8634SOL     OW34301   1.248   5.335   4.737 -0.4342 -0.1536  0.1119
 8634SOL    HW234302   1.334   5.340   4.697 -0.1447 -0.3526  0.7066
 8634SOL    HW334303   1.187   5.352   4.665  0.0994  0.0313 -0.2994
 8634SOL    MW434304   1.251   5.338   4.722  0.4371  0.1184 -0.0297
 8635SOL     OW34305   1.635   3.588   1.233 -0.4696  0.2409 -0.2984
 8635SOL    HW234306   1.614   3.643   1.309  1.7321 -2.2808  2.3911
 8635SOL    HW334307   1.563   3.525   1.228  0.0623 -0.4785  0.7068
 8635SOL    MW434308   1.622   3.587   1.242 -0.7907 -0.0999  0.2611
 8636SOL     OW34309   1.019   6.234   5.520 -0.2860 -0.1147  0.1431
 8636SOL    HW234310   0.972   6.200   5.596  1.1842 -1.2695  0.5781
 8636SOL    HW334311   1.069   6.309   5.555  0.4677 -0.7070  0.3572
 8636SOL    MW434312   1.020   6.240   5.535  0.0221  0.0402  0.0149
 8637SOL     OW34313   5.233   6.447   1.776  0.1052 -0.1285  0.1982
 8637SOL    HW234314   5.296   6.383   1.808 -0.4881 -1.1858 -0.6783
 8637SOL    HW334315   5.277   6.491   1.703 -0.2139 -1.0008 -0.5387
 8637SOL    MW434316   5.247   6.444   1.770  0.1551  0.0907 -0.0849
 8638SOL     OW34317   3.515   0.708   1.067 -0.0128  0.0099 -0.1608
 8638SOL    HW234318   3.598   0.670   1.098  0.8799 -0.0119 -2.3718
 8638SOL    HW334319   3.450   0.676   1.129  1.1285 -2.8739 -0.2717
 8638SOL    MW434320   3.518   0.698   1.079  0.5119  0.0287  0.6887
 8639SOL     OW34321   4.511   5.715   4.242 -0.6062  0.7298  0.0517
 8639SOL    HW234322   4.505   5.750   4.331 -0.6707 -0.7780  0.6722
 8639SOL    HW334323   4.604   5.699   4.230 -0.7864 -0.9210  0.6309
 8639SOL    MW434324   4.523   5.718   4.252 -0.1966  0.2821  0.0512
 8640SOL     OW34325   2.859   4.511   3.784  0.1318 -0.1834 -0.0210
 8640SOL    HW234326   2.869   4.419   3.805  0.3331 -0.4803 -1.3138
 8640SOL    HW334327   2.949   4.546   3.786  0.0030  0.1102  0.9684
 8640SOL    MW434328   2.872   4.504   3.787 -0.0592  0.7831 -0.0354
 8641SOL     OW34329   3.710   6.326   3.558 -0.4165  0.1124  0.5532
 8641SOL    HW234330   3.743   6.400   3.610 -0.9484  0.3846  0.5142
 8641SOL    HW334331   3.787   6.295   3.510 -0.2769  0.9653  0.1886
 8641SOL    MW434332   3.725   6.332   3.559 -0.1892  0.2041  0.2164
 8642SOL     OW34333   3.034   1.875   0.711 -0.2354 -0.0656 -0.2307
 8642SOL    HW234334   3.086   1.797   0.690  0.0819  0.1201 -0.1385
 8642SOL    HW334335   2.989   1.852   0.793  0.1790 -0.0054  0.0210
 8642SOL    MW434336   3.035   1.861   0.719  0.2851 -0.5241  0.2710
 8643SOL     OW34337   1.241   4.609   5.589  0.2740  0.6024  0.0175
 8643SOL    HW234338   1.167   4.550   5.603 -0.6326  1.6387 -0.3687
 8643SOL    HW334339   1.215   4.691   5.629  0.9261  1.2016 -0.7465
 8643SOL    MW434340   1.228   4.612   5.596  0.3415  0.0846  0.2099
 8644SOL     OW34341   3.243   2.167   3.696  0.0838  0.1606  0.5878
 8644SOL    HW234342   3.216   2.085   3.653  1.1339 -0.5783  1.2934
 8644SOL    HW334343   3.332   2.150   3.726  0.2129  1.4810  1.0029
 8644SOL    MW434344   3.251   2.154   3.694 -0.0591 -0.1161 -0.1756
 8645SOL     OW34345   4.702   0.790   2.495  0.5209  0.1956 -0.1842
 8645SOL    HW234346   4.753   0.835   2.563 -0.1038  1.6512 -0.6352
 8645SOL    HW334347   4.638   0.738   2.544  1.4961 -0.5222  0.3601
 8645SOL    MW434348   4.700   0.789   2.511  0.0982  0.3477 -0.7224
 8646SOL     OW34349   6.410   1.637   5.023  0.0452  0.0170  0.4402
 8646SOL    HW234350   6.365   1.594   5.097 -0.6424  0.2294  0.1498
 8646SOL    HW334351   6.452   1.565   4.976 -0.4418 -0.2545  0.4109
 8646SOL    MW434352   6.410   1.622   5.027  0.5713  0.2069  0.4895
 8647SOL     OW34353   3.014   2.469   3.861  0.2745 -0.6634 -0.4774
 8647SOL    HW234354   2.929   2.435   3.891 -0.1642  0.6310 -0.1793
 8647SOL    HW334355   3.018   2.447   3.768  0.2382 -1.9390 -0.1987
 8647SOL    MW434356   3.003   2.462   3.853  0.6675  0.0268  0.5899
 8648SOL     OW34357   4.792   0.888   4.537  0.0264 -0.5998  0.0527
 8648SOL    HW234358   4.750   0.882   4.451 -0.3057 -1.0914  0.2463
 8648SOL    HW334359   4.863   0.824   4.535 -0.1568 -0.8109  0.2409
 8648SOL    MW434360   4.796   0.879   4.526 -0.0200  0.1675 -0.1861
 8649SOL     OW34361   5.705   0.771   4.705  0.3548  0.3651 -0.2299
 8649SOL    HW234362   5.625   0.721   4.684  0.3242 -0.5285  1.7995
 8649SOL    HW334363   5.682   0.862   4.686 -1.8613  0.3807  2.0430
 8649SOL    MW434364   5.691   0.776   4.700 -0.0784  0.0739  0.1066
 8650SOL     OW34365   6.175   0.492   1.951 -0.1484  0.6972  0.7122
 8650SOL    HW234366   6.152   0.407   1.914 -0.8557  0.5615  1.4291
 8650SOL    HW334367   6.091   0.530   1.977  0.3782  0.0280  3.7720
 8650SOL    MW434368   6.161   0.486   1.950  0.4379 -0.3808 -0.4349
 8651SOL     OW34369   3.362   2.197   4.381 -0.3377 -0.2658 -0.4000
 8651SOL    HW234370   3.432   2.166   4.438 -0.4183 -1.7015 -1.0269
 8651SOL    HW334371   3.404   2.263   4.326  1.5611 -3.3711 -3.0526
 8651SOL    MW434372   3.377   2.201   4.381 -0.5802 -0.3383 -0.4905
 8652SOL     OW34373   1.557   0.226   6.164 -0.2980  0.2263  0.1860
 8652SOL    HW234374   1.538   0.133   6.147 -1.2166  0.5450 -0.6175
 8652SOL    HW334375   1.649   0.236   6.144 -0.3314 -0.3831 -0.3020
 8652SOL    MW434376   1.566   0.215   6.159  0.0792 -0.1824 -0.0933
 8653SOL     OW34377   2.133   2.052   5.015  0.1010 -0.4580 -0.3547
 8653SOL    HW234378   2.055   2.034   4.961  0.1265  0.5406 -0.7375
 8653SOL    HW334379   2.171   1.965   5.031 -1.2818 -1.0074  0.1355
 8653SOL    MW434380   2.127   2.038   5.010  0.6212 -0.6306  0.1594
 8654SOL     OW34381   3.397   1.499   2.197 -0.2065 -0.2061  0.7499
 8654SOL    HW234382   3.439   1.570   2.149  1.9934 -2.1373 -0.3485
 8654SOL    HW334383   3.313   1.487   2.153 -0.4018  1.3278  0.6484
 8654SOL    MW434384   3.391   1.506   2.185 -0.1391  0.3661 -0.5374
 8655SOL     OW34385   2.993   1.289   5.003  0.0899  0.3109  0.1266
 8655SOL    HW234386   2.973   1.308   4.911  1.8637 -1.1466 -0.6365
 8655SOL    HW334387   3.086   1.267   5.002 -0.2199 -1.3253  2.0014
 8655SOL    MW434388   3.003   1.288   4.990 -0.0926  0.3796 -0.4015
 8656SOL     OW34389   3.902   0.088   5.883 -0.3159 -0.3513 -0.5816
 8656SOL    HW234390   3.878   0.155   5.947  0.5915 -0.3296 -0.2512
 8656SOL    HW334391   3.844   0.104   5.809  0.0744  0.9774 -0.6202
 8656SOL    MW434392   3.891   0.099   5.882  0.0673  0.2182 -0.2623
 8657SOL     OW34393   2.940   3.413   2.575  0.7965  0.1039 -1.0206
 8657SOL    HW234394   2.858   3.452   2.604  0.2753 -0.2749 -1.9520
 8657SOL    HW334395   2.917   3.323   2.551  2.2253 -1.3919  2.4740
 8657SOL    MW434396   2.926   3.406   2.576  0.3735 -0.2708 -0.0991
 8658SOL     OW34397   6.329   2.744   3.338  0.0298 -0.3533  0.3051
 8658SOL    HW234398   6.323   2.770   3.430 -1.2686  1.6476 -0.2789
 8658SOL    HW334399   6.339   2.649   3.340 -1.5903 -0.5498  2.4981
 8658SOL    MW434400   6.329   2.735   3.350 -0.2035 -0.3844 -0.4295
 8659SOL     OW34401   1.271   5.159   0.826  0.4217  0.0727 -0.1896
 8659SOL    HW234402   1.217   5.221   0.778 -0.2848 -0.4264 -0.0617
 8659SOL    HW334403   1.216   5.081   0.834  0.4209  0.2090  1.6170
 8659SOL    MW434404   1.256   5.157   0.821  0.1396 -0.3880  0.7424
 8660SOL     OW34405   0.518   1.235   5.323 -0.1807 -0.3060 -0.3232
 8660SOL    HW234406   0.459   1.235   5.248  1.9250 -0.3063 -2.0851
 8660SOL    HW334407   0.590   1.293   5.297  2.2320 -2.7770  0.3174
 8660SOL    MW434408   0.520   1.243   5.310  0.4505  0.6750  0.2015
 8661SOL     OW34409   1.003   4.027   2.956  0.4082  0.2380 -0.1414
 8661SOL    HW234410   0.990   4.100   3.017 -0.7533 -0.5115  0.5437
 8661SOL    HW334411   0.947   3.958   2.990  1.6421 -1.0516 -0.6677
 8661SOL    MW434412   0.994   4.028   2.969  0.4592 -0.6580  0.4087
 8662SOL     OW34413   5.042   0.878   1.112 -0.2652 -0.3895 -0.2473
 8662SOL    HW234414   5.047   0.787   1.140 -0.6263 -0.5891 -0.7990
 8662SOL    HW334415   5.122   0.891   1.061  0.4344  0.0008  0.9209
 8662SOL    MW434416   5.053   0.867   1.109  0.2963 -0.7189 -0.1787
 8663SOL     OW34417   5.777   0.916   0.009 -0.5354 -0.0408  0.3841
 8663SOL    HW234418   5.868   0.907   0.040  0.7230 -1.4530 -3.2125
 8663SOL    HW334419   5.765   1.010  -0.002  1.7793  0.0826 -2.1291
 8663SOL    MW434420   5.788   0.927   0.012  0.1296 -0.0820 -0.0501
 8664SOL     OW34421   1.592   2.918   3.874 -0.0868 -0.3528 -0.0242
 8664SOL    HW234422   1.527   2.848   3.875 -0.5715  0.0903  0.8797
 8664SOL    HW334423   1.613   2.930   3.781 -0.3976 -1.3220 -0.2268
 8664SOL    MW434424   1.586   2.910   3.862  0.1879  0.2361 -0.0191
 8665SOL     OW34425   1.487   2.780   1.866  0.4286 -0.4298  0.0037
 8665SOL    HW234426   1.515   2.717   1.932  1.0153 -1.0752 -0.8414
 8665SOL    HW334427   1.544   2.763   1.791  0.7519  1.2753 -0.1593
 8665SOL    MW434428   1.498   2.769   1.865 -0.2973  0.2570 -0.1434
 8666SOL     OW34429   2.132   6.466   5.683  0.0553 -0.0512  0.0448
 8666SOL    HW234430   2.180   6.390   5.652 -0.6593 -0.3075 -0.4661
 8666SOL    HW334431   2.040   6.439   5.683 -0.1327  0.5299  0.6907
 8666SOL    MW434432   2.126   6.453   5.679 -0.3802 -0.2918  0.2524
 8667SOL     OW34433   5.170   3.611   1.131  0.0538  0.0602 -0.9020
 8667SOL    HW234434   5.126   3.670   1.070  1.9283  1.1289 -1.2858
 8667SOL    HW334435   5.103   3.545   1.153 -1.6819  1.5390 -1.4982
 8667SOL    MW434436   5.155   3.610   1.126 -0.1869  0.1367 -0.3555
 8668SOL     OW34437   3.037   0.663   4.214 -0.4060  0.0810 -0.0967
 8668SOL    HW234438   3.116   0.614   4.193  0.1435  0.4989  0.9242
 8668SOL    HW334439   3.013   0.706   4.132 -0.4904 -1.2981 -0.8247
 8668SOL    MW434440   3.044   0.663   4.201 -0.4405 -0.0266 -0.0282
 8669SOL     OW34441   6.034   2.153   3.272  0.2890  0.4670 -0.1074
 8669SOL    HW234442   6.080   2.073   3.296 -2.0634 -0.4090  1.9200
 8669SOL    HW334443   6.040   2.208   3.350 -2.5533  0.0392  0.4937
 8669SOL    MW434444   6.041   2.150   3.286 -0.2998 -0.2340  0.0530
 8670SOL     OW34445   2.414   2.949   5.563  0.2195  0.4010  0.0243
 8670SOL    HW234446   2.382   3.039   5.561 -1.3440 -0.1192  0.3953
 8670SOL    HW334447   2.421   2.928   5.656  1.0708  0.2920 -0.0554
 8670SOL    MW434448   2.411   2.958   5.575 -0.1632  0.1824 -0.4322
 8671SOL     OW34449   6.035   4.281   4.604  0.5523 -0.0379  0.0641
 8671SOL    HW234450   6.070   4.216   4.665  1.2172  1.3096  1.1779
 8671SOL    HW334451   5.942   4.287   4.626  0.6037 -0.2102  0.3280
 8671SOL    MW434452   6.027   4.273   4.615 -0.2272 -0.1525  0.4227
 8672SOL     OW34453   5.731   5.275   1.372  0.2874  0.1822  0.3543
 8672SOL    HW234454   5.744   5.325   1.452 -0.0646  0.0132  0.5181
 8672SOL    HW334455   5.663   5.212   1.393  0.1988  0.1284 -0.0741
 8672SOL    MW434456   5.724   5.273   1.385  0.1436  0.3085 -0.0243
 8673SOL     OW34457   1.654   2.193   0.516 -0.2044  0.1893 -0.2299
 8673SOL    HW234458   1.602   2.178   0.596  1.0060 -2.0181  0.2217
 8673SOL    HW334459   1.713   2.264   0.539 -0.3987  0.1040  0.5627
 8673SOL    MW434460   1.655   2.200   0.530  0.7163 -0.0557  0.3852
 8674SOL     OW34461   2.144   3.774   1.382  0.2588 -0.3404  0.6063
 8674SOL    HW234462   2.176   3.691   1.347  1.0332  0.1408  0.1354
 8674SOL    HW334463   2.142   3.833   1.307  1.9569  0.7202  1.3314
 8674SOL    MW434464   2.148   3.771   1.368 -0.3459  0.1841 -0.1266
 8675SOL     OW34465   2.557   4.675   4.068 -0.0904  0.1011  0.2329
 8675SOL    HW234466   2.516   4.591   4.047 -1.1507  0.7031 -0.1283
 8675SOL    HW334467   2.651   4.659   4.055 -0.0145 -1.6727  2.3739
 8675SOL    MW434468   2.564   4.661   4.063 -0.4184 -0.1490  0.2053
 8676SOL     OW34469   4.593   5.210   2.054  0.3995 -0.8804  0.2006
 8676SOL    HW234470   4.668   5.266   2.035  0.4159 -0.8188  0.4429
 8676SOL    HW334471   4.544   5.206   1.972  0.3215 -0.3967  0.2230
 8676SOL    MW434472   4.596   5.217   2.041 -0.2740  0.2202  0.3589
 8677SOL     OW34473   2.300   2.018   5.373 -0.3776 -0.1021 -0.2419
 8677SOL    HW234474   2.284   1.947   5.435 -0.0359 -0.0816 -0.1334
 8677SOL    HW334475   2.279   2.098   5.422 -1.2842 -0.1496 -0.5258
 8677SOL    MW434476   2.295   2.019   5.388  0.3929  0.2615 -0.9174
 8678SOL     OW34477   0.017   1.816   0.780  0.3012  0.2794  0.0665
 8678SOL    HW234478  -0.042   1.766   0.837  0.1889 -0.2863 -0.5378
 8678SOL    HW334479   0.016   1.904   0.816 -2.5660  0.8581 -1.1507
 8678SOL    MW434480   0.009   1.821   0.792 -0.0621  0.2499 -0.0100
 8679SOL     OW34481   0.106   3.679   3.849 -0.4902 -0.3609 -0.6267
 8679SOL    HW234482   0.087   3.743   3.917 -1.1023 -0.6106 -0.5589
 8679SOL    HW334483   0.187   3.711   3.808 -0.5509  0.2167 -0.3083
 8679SOL    MW434484   0.114   3.692   3.852 -0.6085  0.5001  0.3735
 8680SOL     OW34485   6.319   6.034   4.219  0.1681  0.1061 -0.2970
 8680SOL    HW234486   6.283   6.052   4.132  2.7658  1.0895 -1.2924
 8680SOL    HW334487   6.336   6.120   4.256  1.7217 -0.2601 -0.0696
 8680SOL    MW434488   6.317   6.047   4.212  0.0337  0.1828 -0.2169
 8681SOL     OW34489   6.322   3.469   1.441 -0.3517  0.5396  0.0423
 8681SOL    HW234490   6.327   3.379   1.409 -1.1520  1.0231 -1.5741
 8681SOL    HW334491   6.231   3.495   1.424  0.4925  2.4828 -2.0559
 8681SOL    MW434492   6.311   3.461   1.434  0.6056  0.2544 -0.2803
 8682SOL     OW34493   5.496   6.096   0.657 -0.1384 -0.0828 -0.0141
 8682SOL    HW234494   5.572   6.048   0.624 -0.5221 -0.7691  0.0763
 8682SOL    HW334495   5.506   6.185   0.622  0.3805 -0.3306 -0.5056
 8682SOL    MW434496   5.507   6.101   0.648  0.4297 -0.0031  0.2162
 8683SOL     OW34497   2.002   4.313   5.140  0.1165  0.2390 -0.3771
 8683SOL    HW234498   1.988   4.336   5.232  0.3222 -1.1183  0.0165
 8683SOL    HW334499   2.094   4.335   5.123  0.0733  0.5090 -0.2627
 8683SOL    MW434500   2.012   4.319   5.150  0.0116 -0.1209  0.2259
 8684SOL     OW34501   3.981   1.937   1.501 -0.7214 -0.1649  0.3537
 8684SOL    HW234502   3.943   2.017   1.465 -0.2930 -0.3659 -0.5810
 8684SOL    HW334503   3.911   1.872   1.493  0.2212 -0.9880 -2.9712
 8684SOL    MW434504   3.967   1.939   1.495  0.0059  0.9381  0.1663
 8685SOL     OW34505   2.007   3.799   5.594  0.4554 -0.0838 -0.6040
 8685SOL    HW234506   2.007   3.866   5.526  1.1856  0.9636  0.3935
 8685SOL    HW334507   1.916   3.773   5.602  0.0109  1.4622 -0.3802
 8685SOL    MW434508   1.995   3.805   5.586  0.4671 -0.0319  0.1509
 8686SOL     OW34509   5.277   3.029   1.809  0.2356  0.1412 -0.6770
 8686SOL    HW234510   5.333   2.954   1.790  0.0723  0.0849 -0.9480
 8686SOL    HW334511   5.263   3.070   1.724 -0.2824  0.0497 -0.6375
 8686SOL    MW434512   5.283   3.024   1.795  0.1922  0.4348  0.1384
 8687SOL     OW34513   3.119   2.011   0.242 -0.0219 -0.3621 -0.7070
 8687SOL    HW234514   3.165   2.087   0.276 -0.1885 -0.7441  0.4037
 8687SOL    HW334515   3.188   1.956   0.204  0.3082 -0.4201 -0.0341
 8687SOL    MW434516   3.134   2.014   0.241  0.1525 -0.2259  0.5059
 8688SOL     OW34517   3.250   6.098   3.687  0.0552  0.2888 -0.2578
 8688SOL    HW234518   3.204   6.177   3.716  0.4535  0.5521 -0.3431
 8688SOL    HW334519   3.274   6.117   3.596 -0.3810 -0.1706 -0.4732
 8688SOL    MW434520   3.247   6.111   3.679 -0.3173  0.3064  0.7182
 8689SOL     OW34521   1.725   6.473   3.795  0.5209 -0.4122  0.0371
 8689SOL    HW234522   1.737   6.412   3.721  1.7034 -0.3248  0.1356
 8689SOL    HW334523   1.788   6.443   3.860  0.0228 -0.0056  0.7093
 8689SOL    MW434524   1.735   6.461   3.794  0.2597 -0.1250  0.2100
 8690SOL     OW34525   6.267   2.238   4.446 -0.1532  0.1778 -0.1240
 8690SOL    HW234526   6.203   2.287   4.393  1.6315  0.1169 -2.5271
 8690SOL    HW334527   6.318   2.306   4.491 -1.1761  0.2639  0.9398
 8690SOL    MW434528   6.265   2.253   4.445 -0.0097 -0.2868  0.3175
 8691SOL     OW34529   4.786   5.668   5.477  0.0657 -0.0401 -0.0931
 8691SOL    HW234530   4.807   5.739   5.417  0.7170 -0.5945 -0.5397
 8691SOL    HW334531   4.822   5.589   5.435 -1.0547 -0.7122  0.1534
 8691SOL    MW434532   4.794   5.667   5.464  0.5389 -0.0464  0.4175
 8692SOL     OW34533   1.939   2.643   0.802 -0.3025 -0.2688 -0.1639
 8692SOL    HW234534   2.011   2.582   0.786 -0.4708 -0.5159  0.0178
 8692SOL    HW334535   1.958   2.718   0.745 -0.4055 -0.7386 -0.8253
 8692SOL    MW434536   1.951   2.645   0.792 -0.4323  0.0644  0.5333
 8693SOL     OW34537   0.000   6.069   3.093  0.1281 -0.0191 -0.2367
 8693SOL    HW234538  -0.043   6.061   3.178 -0.5545 -0.7725 -0.6290
 8693SOL    HW334539  -0.071   6.095   3.033  0.1020 -1.6562 -0.9718
 8693SOL    MW434540  -0.015   6.072   3.096  0.0874 -0.1680 -0.2317
 8694SOL     OW34541   2.019   5.204   3.081  0.0354 -0.8891 -0.3727
 8694SOL    HW234542   2.111   5.205   3.110 -0.2337  0.1080  0.4703
 8694SOL    HW334543   2.007   5.115   3.047  1.2255 -1.1373 -0.2132
 8694SOL    MW434544   2.030   5.192   3.080  0.0064 -0.4399 -0.1611
 8695SOL     OW34545   3.433   3.976   5.663  0.1297 -0.1906  0.3706
 8695SOL    HW234546   3.370   3.906   5.649  1.6418 -1.7377  0.9814
 8695SOL    HW334547   3.459   4.002   5.575 -0.7815 -0.0460  0.1283
 8695SOL    MW434548   3.428   3.970   5.650 -0.1120 -0.0951  0.4886
 8696SOL     OW34549   0.321   0.502   1.682  0.5311 -0.1123 -0.1247
 8696SOL    HW234550   0.313   0.434   1.749 -0.2090 -0.5745 -0.6581
 8696SOL    HW334551   0.319   0.454   1.599 -0.4453  0.5849 -0.5231
 8696SOL    MW434552   0.319   0.487   1.680 -0.3349 -0.0887 -0.3443
 8697SOL     OW34553   2.884   1.875   3.540 -0.4024  0.3484 -0.6790
 8697SOL    HW234554   2.894   1.816   3.466  1.4363  0.2806 -0.4316
 8697SOL    HW334555   2.860   1.959   3.500 -3.1427 -0.4955 -1.0227
 8697SOL    MW434556   2.883   1.878   3.525 -0.5837 -0.7369 -0.0709
 8698SOL     OW34557   2.019   6.457   2.327 -0.0189  0.2792  0.6313
 8698SOL    HW234558   1.998   6.364   2.315  0.0974  0.0113  2.2300
 8698SOL    HW334559   2.085   6.458   2.397  1.2380  1.4726 -0.5119
 8698SOL    MW434560   2.025   6.445   2.335  0.2929 -0.6064  0.4092
 8699SOL     OW34561   0.484   3.820   1.753  0.3629 -0.1935 -0.6879
 8699SOL    HW234562   0.508   3.766   1.828  1.1164  0.3420 -0.5348
 8699SOL    HW334563   0.457   3.904   1.790  0.4793 -0.0158 -0.9994
 8699SOL    MW434564   0.483   3.824   1.768 -0.6983  0.1188  0.4220
 8700SOL     OW34565   4.300   6.009   4.038  0.2455  0.0015 -0.1311
 8700SOL    HW234566   4.339   5.967   3.961  2.8201  0.2282  0.9312
 8700SOL    HW334567   4.281   6.098   4.010 -1.2427 -0.6126 -1.1815
 8700SOL    MW434568   4.303   6.015   4.024  0.4976  0.7705 -0.0621
 8701SOL     OW34569   0.239   1.265   3.272 -0.1159  0.2762 -0.2100
 8701SOL    HW234570   0.197   1.286   3.189  2.0192  0.2191 -1.3772
 8701SOL    HW334571   0.175   1.212   3.319 -1.7569  1.1643 -1.3738
 8701SOL    MW434572   0.225   1.261   3.268 -0.3053 -0.3523  0.0184
 8702SOL     OW34573   5.676   0.867   1.024  0.1033  0.6203 -0.7748
 8702SOL    HW234574   5.628   0.801   0.975  1.4294  0.3097 -1.6885
 8702SOL    HW334575   5.764   0.832   1.034 -0.1280  0.5535  2.0685
 8702SOL    MW434576   5.681   0.854   1.019  0.1923 -0.4779  0.0722
 8703SOL     OW34577   6.014   6.244   1.817  0.0627  0.1760 -0.1285
 8703SOL    HW234578   6.073   6.272   1.888 -0.4996  1.4953 -0.1477
 8703SOL    HW334579   6.070   6.193   1.758  1.0870  0.9880  0.1046
 8703SOL    MW434580   6.029   6.241   1.819 -0.5852 -0.1080 -0.4946
 8704SOL     OW34581   1.190   0.909   2.476  0.0865 -0.4282 -0.1966
 8704SOL    HW234582   1.123   0.854   2.515  1.9043 -2.1249  0.7025
 8704SOL    HW334583   1.198   0.877   2.386  0.4679 -1.0229  0.0410
 8704SOL    MW434584   1.182   0.897   2.469 -0.1891 -0.1641 -0.1930
 8705SOL     OW34585   3.139   1.509   3.568  0.5513  0.6181 -0.6975
 8705SOL    HW234586   3.154   1.420   3.601  0.7364  0.5210 -1.0351
 8705SOL    HW334587   3.116   1.560   3.645  1.0956  0.4225 -0.4072
 8705SOL    MW434588   3.138   1.504   3.582  0.2132 -0.1762 -0.0902
 8706SOL     OW34589   3.388   1.537   5.891  0.2735  0.3075  0.0190
 8706SOL    HW234590   3.466   1.521   5.945  0.4242 -0.5586 -0.4349
 8706SOL    HW334591   3.407   1.494   5.807 -0.0537  1.4321 -0.6545
 8706SOL    MW434592   3.401   1.529   5.887  0.8369 -0.5699 -0.2153
 8707SOL     OW34593   0.153   4.773   3.083 -0.3400 -0.4208  0.3530
 8707SOL    HW234594   0.075   4.750   3.033 -2.0766  0.6600  2.3669
 8707SOL    HW334595   0.201   4.832   3.026 -2.0134  0.4309 -0.2549
 8707SOL    MW434596   0.149   4.778   3.069  0.1366  0.0524 -0.4172
 8708SOL     OW34597   0.277   5.829   5.695 -0.3395 -0.0988  0.0194
 8708SOL    HW234598   0.357   5.778   5.703  0.7474  1.7138  1.6506
 8708SOL    HW334599   0.305   5.913   5.660 -1.3526  0.8945  1.4615
 8708SOL    MW434600   0.291   5.833   5.691 -0.0344 -0.2966  0.3582
 8709SOL     OW34601   5.673   4.228   4.189  0.6493  0.1799  0.0884
 8709SOL    HW234602   5.731   4.162   4.227 -0.0634 -0.3703  0.2321
 8709SOL    HW334603   5.595   4.180   4.162 -0.5659  1.1730  1.6196
 8709SOL    MW434604   5.670   4.213   4.191  0.8620  0.6208 -1.0177
 8710SOL     OW34605   1.206   2.203   2.076  0.2935  0.3285 -0.0107
 8710SOL    HW234606   1.268   2.145   2.119  0.3372  0.0194 -0.4832
 8710SOL    HW334607   1.259   2.278   2.048  0.2851  0.4797  0.3613
 8710SOL    MW434608   1.221   2.205   2.078 -0.4568 -0.3754 -0.5169
 8711SOL     OW34609   2.035   3.142   1.445  0.0901 -0.5624  0.2582
 8711SOL    HW234610   2.018   3.168   1.536  0.4492 -2.0683  0.7835
 8711SOL    HW334611   1.962   3.178   1.395 -0.5926 -0.4748  1.2909
 8711SOL    MW434612   2.023   3.150   1.451  0.4330  0.2018  0.0763
 8712SOL     OW34613   2.028   0.114   6.010 -0.9995 -0.4269 -0.0060
 8712SOL    HW234614   2.018   0.031   5.964  1.2293 -1.3040  0.9257
 8712SOL    HW334615   2.119   0.138   5.997 -0.1237 -0.8595  3.9823
 8712SOL    MW434616   2.038   0.107   6.002  0.8560  0.1190  0.8093
 8713SOL     OW34617   0.679   4.879   0.922  0.0570 -0.7069  0.3682
 8713SOL    HW234618   0.627   4.826   0.862 -0.9898  0.4109  0.2309
 8713SOL    HW334619   0.734   4.817   0.969  0.5944 -1.6549 -1.4232
 8713SOL    MW434620   0.679   4.864   0.920  0.4363 -0.0028 -0.5211
 8714SOL     OW34621   3.732   4.640   1.642 -0.9941  0.5774  0.4650
 8714SOL    HW234622   3.637   4.635   1.650 -0.9027  0.0327  1.3529
 8714SOL    HW334623   3.765   4.588   1.715 -0.0145 -0.3773 -0.5979
 8714SOL    MW434624   3.724   4.632   1.652 -0.4196 -0.3404  0.3164
 8715SOL     OW34625   3.782   4.241   3.589  0.0402  0.3035  0.1018
 8715SOL    HW234626   3.690   4.247   3.562 -0.0979 -1.3445  0.1476
 8715SOL    HW334627   3.816   4.165   3.543  0.6898 -0.6461  2.0600
 8715SOL    MW434628   3.775   4.232   3.579 -0.2038  0.0463  0.5816
 8716SOL     OW34629   2.637   3.070   0.053 -0.4642  0.0175 -0.2457
 8716SOL    HW234630   2.602   3.144   0.102 -0.0609 -0.4374  0.7543
 8716SOL    HW334631   2.667   3.009   0.120  2.9859  0.6983 -0.9576
 8716SOL    MW434632   2.637   3.072   0.068 -0.6106  0.2469  0.1525
 8717SOL     OW34633   1.544   3.479   4.490  0.3928 -0.3777  0.2087
 8717SOL    HW234634   1.537   3.477   4.586 -0.1067 -1.1834  0.1627
 8717SOL    HW334635   1.561   3.571   4.470  0.5753 -0.2091  1.0753
 8717SOL    MW434636   1.546   3.491   4.500  0.5672 -0.0745 -0.2286
 8718SOL     OW34637   5.095   2.725   1.697 -0.3401 -0.0209 -0.4592
 8718SOL    HW234638   5.018   2.772   1.727 -0.4358  0.1902 -1.0198
 8718SOL    HW334639   5.167   2.787   1.709 -0.3834  0.0756 -0.6910
 8718SOL    MW434640   5.095   2.739   1.703 -0.2761  0.4109  0.4814
 8719SOL     OW34641   2.381   2.337   3.797  0.4313 -0.1928  0.4189
 8719SOL    HW234642   2.449   2.391   3.756  1.2115 -1.3184  0.1864
 8719SOL    HW334643   2.392   2.251   3.759 -0.3519 -0.7025  1.2888
 8719SOL    MW434644   2.391   2.333   3.787  0.5296  0.9266  0.4814
 8720SOL     OW34645   2.971   6.046   2.982 -0.0777  0.1448 -0.3871
 8720SOL    HW234646   2.955   5.972   2.923  1.4363 -0.5935  0.0946
 8720SOL    HW334647   3.061   6.072   2.964  0.3956 -0.0477  1.5275
 8720SOL    MW434648   2.981   6.040   2.972  0.2696  0.6347 -0.3840
 8721SOL     OW34649   0.737   5.211   2.345 -0.5493  0.2458  0.4929
 8721SOL    HW234650   0.832   5.216   2.349 -0.5001  0.7475 -0.7263
 8721SOL    HW334651   0.707   5.301   2.354 -0.9214  0.0743  1.0217
 8721SOL    MW434652   0.745   5.224   2.347 -0.0787  1.1053  0.2194
 8722SOL     OW34653   4.300   1.732   0.559 -0.6058 -0.3473  0.4606
 8722SOL    HW234654   4.303   1.727   0.654 -0.8949 -1.5765  0.4260
 8722SOL    HW334655   4.341   1.650   0.529 -0.9977 -0.2274 -0.4577
 8722SOL    MW434656   4.306   1.721   0.567  0.1795 -0.8438  0.4428
 8723SOL     OW34657   0.623   0.685   5.558 -0.1436 -0.6505 -0.0390
 8723SOL    HW234658   0.558   0.630   5.601  0.2100  0.0136  1.4077
 8723SOL    HW334659   0.605   0.773   5.589 -0.3756  0.0082 -1.9203
 8723SOL    MW434660   0.612   0.689   5.568 -0.1763  0.6434 -0.6272
 8724SOL     OW34661   5.678   1.619   5.605  0.3978 -0.4923 -0.6203
 8724SOL    HW234662   5.599   1.568   5.622  0.0384 -0.0243 -0.8925
 8724SOL    HW334663   5.706   1.651   5.691 -0.4421  0.4311 -0.6834
 8724SOL    MW434664   5.671   1.616   5.618 -0.6877 -0.0956 -0.8542
 8725SOL     OW34665   0.614   2.179   6.236 -0.4195 -0.7066  0.1408
 8725SOL    HW234666   0.618   2.085   6.256 -2.0999 -0.8554 -0.0638
 8725SOL    HW334667   0.528   2.207   6.266 -0.1206  0.6853 -0.2078
 8725SOL    MW434668   0.603   2.170   6.242  0.8180 -0.2981  0.0926
 8726SOL     OW34669   0.029   0.690   3.143 -0.1744 -0.8386 -0.2440
 8726SOL    HW234670   0.092   0.680   3.215 -1.4402 -1.5553  0.8150
 8726SOL    HW334671  -0.056   0.695   3.187 -0.8952 -0.2113 -1.6575
 8726SOL    MW434672   0.026   0.689   3.159  0.0678  0.6231  0.6448
 8727SOL     OW34673   5.613   0.147   5.515 -0.6277 -0.3012 -0.5039
 8727SOL    HW234674   5.579   0.231   5.545 -0.1246  0.2261 -1.3701
 8727SOL    HW334675   5.646   0.104   5.595 -1.3957  0.0755  0.0211
 8727SOL    MW434676   5.613   0.152   5.530  0.4253 -0.0836 -0.2651
 8728SOL     OW34677   2.910   0.164   0.375  0.3595  0.3455  0.0550
 8728SOL    HW234678   2.916   0.255   0.345  2.0472 -0.1927 -1.4426
 8728SOL    HW334679   2.975   0.118   0.322  1.4527 -1.2604  2.6417
 8728SOL    MW434680   2.919   0.170   0.364 -0.7595  0.1349  0.0573
 8729SOL     OW34681   0.338   4.330   0.288 -0.3125 -0.5850 -0.0079
 8729SOL    HW234682   0.331   4.324   0.383  1.8265 -1.1198  0.1874
 8729SOL    HW334683   0.410   4.270   0.267  0.8831  1.3394 -1.6863
 8729SOL    MW434684   0.347   4.321   0.298 -0.4496 -0.1158  0.1255
 8730SOL     OW34685   0.903   1.973   3.095 -0.1894  0.7140  0.1837
 8730SOL    HW234686   0.835   1.986   3.029 -0.4221 -1.1332  0.0041
 8730SOL    HW334687   0.985   1.971   3.045 -0.4307 -1.5058 -0.2454
 8730SOL    MW434688   0.905   1.974   3.080 -0.5967  0.0349  0.4617
 8731SOL     OW34689   5.370   4.181   0.708 -0.0627 -0.2712  0.3070
 8731SOL    HW234690   5.357   4.204   0.800 -0.3893  1.5884 -0.1639
 8731SOL    HW334691   5.464   4.165   0.700 -0.1374 -1.1698  1.0981
 8731SOL    MW434692   5.380   4.182   0.719  0.2969 -0.0990  0.1958
 8732SOL     OW34693   1.012   0.196   3.350 -0.3666  0.4414  0.0713
 8732SOL    HW234694   1.085   0.256   3.334  0.7716 -0.3423  2.0660
 8732SOL    HW334695   0.964   0.236   3.422  1.2356 -1.6217  2.4392
 8732SOL    MW434696   1.015   0.209   3.357  0.0105 -0.7393  0.0435
 8733SOL     OW34697   5.568   3.922   3.098  0.0150  0.6900 -0.4733
 8733SOL    HW234698   5.500   3.900   3.035  1.0534 -0.7504 -1.1555
 8733SOL    HW334699   5.591   3.838   3.138  1.2248  1.1800 -0.0887
 8733SOL    MW434700   5.562   3.908   3.095 -0.2537  0.1264 -0.1075
 8734SOL     OW34701   4.542   4.549   0.073 -0.3577 -0.2577 -0.2825
 8734SOL    HW234702   4.502   4.536   0.159  0.9558 -0.6915  0.2868
 8734SOL    HW334703   4.522   4.469   0.024  0.2911 -0.7232  0.1995
 8734SOL    MW434704   4.534   4.537   0.078  0.0145  0.0486  0.5427
 8735SOL     OW34705   5.420   1.131   2.535  0.5139  0.1462  0.0818
 8735SOL    HW234706   5.458   1.208   2.493 -1.2110  0.8503 -0.2731
 8735SOL    HW334707   5.464   1.127   2.621  2.4873 -0.0468 -0.8715
 8735SOL    MW434708   5.431   1.141   2.541  0.3180  0.0786  0.0207
 8736SOL     OW34709   4.853   2.808   1.809 -0.2321 -1.0750  0.2562
 8736SOL    HW234710   4.801   2.761   1.874 -0.0749 -1.0676  0.3912
 8736SOL    HW334711   4.793   2.825   1.737  0.3147 -3.7189 -0.9256
 8736SOL    MW434712   4.838   2.804   1.808  0.2932  0.8650  0.1019
 8737SOL     OW34713   3.692   2.336   3.718 -0.0901 -0.2929 -0.8464
 8737SOL    HW234714   3.715   2.403   3.782  0.1171 -0.5019 -0.6955
 8737SOL    HW334715   3.713   2.375   3.634  0.6203 -0.3927 -0.7243
 8737SOL    MW434716   3.698   2.350   3.716 -0.0572 -0.4454  0.1099
 8738SOL     OW34717   5.220   5.510   4.108 -0.0225  0.6214  0.0629
 8738SOL    HW234718   5.315   5.521   4.102  0.1141 -0.0039  0.9204
 8738SOL    HW334719   5.185   5.585   4.059  0.9028  0.5445 -0.7607
 8738SOL    MW434720   5.228   5.522   4.101 -0.8548  0.4961  0.3852
 8739SOL     OW34721   6.061   5.959   4.690 -0.0462  0.2466 -0.1392
 8739SOL    HW234722   6.157   5.960   4.693 -0.0098 -1.0326 -0.1391
 8739SOL    HW334723   6.039   5.866   4.685 -1.3293  0.4399  1.1638
 8739SOL    MW434724   6.071   5.947   4.690 -0.1261  0.4665  0.1096
 8740SOL     OW34725   5.024   1.032   2.896  0.7876 -0.2121 -0.2484
 8740SOL    HW234726   5.052   0.986   2.816  0.1977  0.2444 -0.7307
 8740SOL    HW334727   4.939   0.994   2.917  1.7299 -1.6378  1.2444
 8740SOL    MW434728   5.017   1.021   2.888  0.1243 -0.1731  0.3014
 8741SOL     OW34729   2.421   0.442   3.731 -0.0984 -0.1055  0.1209
 8741SOL    HW234730   2.376   0.514   3.776 -2.2731 -1.2318 -0.1204
 8741SOL    HW334731   2.456   0.481   3.651 -1.4302  0.6632 -0.1174
 8741SOL    MW434732   2.419   0.456   3.727 -0.1429  0.0174  0.0816
 8742SOL     OW34733   5.402   1.175   5.849 -0.0738 -0.5475  0.2939
 8742SOL    HW234734   5.315   1.134   5.845 -0.5477  0.3795  0.6835
 8742SOL    HW334735   5.461   1.110   5.813 -1.0189 -0.9836 -0.5294
 8742SOL    MW434736   5.398   1.161   5.844 -0.3371 -0.8756 -0.2736
 8743SOL     OW34737   2.704   4.066   3.177  0.4961 -0.5879 -0.1244
 8743SOL    HW234738   2.632   4.103   3.125 -0.4733  0.1364  1.6556
 8743SOL    HW334739   2.783   4.083   3.124 -0.6171 -1.8771 -2.3839
 8743SOL    MW434740   2.705   4.073   3.163  0.0710  0.2854  0.2410
 8744SOL     OW34741   0.695   2.088   2.904  0.1980  0.3728  0.3543
 8744SOL    HW234742   0.653   2.061   2.986  0.7609 -1.4193  0.1103
 8744SOL    HW334743   0.654   2.033   2.838  0.0850  1.4782 -0.5150
 8744SOL    MW434744   0.684   2.077   2.906  0.3454  0.4964 -0.5834
 8745SOL     OW34745   5.308   2.091   6.177 -0.1278 -0.1857  0.5826
 8745SOL    HW234746   5.390   2.098   6.226  1.2452  0.1946 -1.6491
 8745SOL    HW334747   5.319   2.014   6.121 -1.9613 -1.0565  1.3175
 8745SOL    MW434748   5.320   2.082   6.176 -0.4085  0.3131 -0.0690
 8746SOL     OW34749   3.741   4.311   6.332 -0.4370  0.0848  0.2596
 8746SOL    HW234750   3.771   4.294   6.421 -0.6220  0.0333  0.3122
 8746SOL    HW334751   3.750   4.226   6.288 -0.7909 -0.0064  0.3588
 8746SOL    MW434752   3.746   4.297   6.338 -0.0030  0.0412  0.1108
 8747SOL     OW34753   1.328   6.363   4.397  0.3225 -0.2031 -0.4670
 8747SOL    HW234754   1.283   6.447   4.409  1.9017  0.4815  1.0811
 8747SOL    HW334755   1.321   6.319   4.481  3.0020  0.2339  0.0808
 8747SOL    MW434756   1.321   6.368   4.409 -0.3685  0.0127  0.1093
 8748SOL     OW34757   6.043   3.425   5.172  0.4146  0.3962  0.5853
 8748SOL    HW234758   6.007   3.432   5.260  0.6413  1.0000  0.6386
 8748SOL    HW334759   5.975   3.461   5.115  0.6179  0.8156  0.6056
 8748SOL    MW434760   6.030   3.431   5.176  0.0469 -0.4083  0.2630
 8749SOL     OW34761   4.994   4.964   5.976 -0.4206 -0.3130 -0.0882
 8749SOL    HW234762   4.976   4.996   6.065 -1.0422  0.1327 -0.3637
 8749SOL    HW334763   5.055   4.892   5.988  0.4373  0.5003  0.6114
 8749SOL    MW434764   4.999   4.959   5.989  0.3307  0.2186 -0.2388
 8750SOL     OW34765   1.712   3.982   2.617 -0.3438 -0.5853  0.2903
 8750SOL    HW234766   1.620   4.007   2.618 -0.5489 -1.2338  1.9415
 8750SOL    HW334767   1.753   4.041   2.554 -1.6361  0.6387  0.5525
 8750SOL    MW434768   1.705   3.993   2.609  0.3286 -0.7705 -0.4113
 8751SOL     OW34769   3.018   2.613   1.213  0.1598 -0.7546 -0.1283
 8751SOL    HW234770   3.110   2.635   1.228  0.3410 -0.4383 -1.5455
 8751SOL    HW334771   2.978   2.694   1.182 -0.2164 -1.2857 -1.0682
 8751SOL    MW434772   3.025   2.626   1.211  0.2729 -0.2661 -0.0891
 8752SOL     OW34773   6.219   0.333   3.230  0.0393  0.3479  0.5445
 8752SOL    HW234774   6.128   0.306   3.219  0.0923 -0.1906  1.4104
 8752SOL    HW334775   6.218   0.391   3.306  0.0574  2.2522 -0.8218
 8752SOL    MW434776   6.207   0.337   3.238  0.4718  0.4212  0.0903
 8753SOL     OW34777   2.751   3.981   5.937 -0.5221 -0.3165  1.1652
 8753SOL    HW234778   2.744   3.998   5.843  0.0081 -1.6710  0.8561
 8753SOL    HW334779   2.672   4.020   5.974 -0.2326  1.1489  0.3106
 8753SOL    MW434780   2.740   3.989   5.929  0.2136  0.2544  0.1761
 8754SOL     OW34781   3.532   0.987   1.874  0.2575 -0.0250 -0.1793
 8754SOL    HW234782   3.511   1.055   1.937  1.1308 -0.3330  0.4757
 8754SOL    HW334783   3.627   0.997   1.859  0.3812 -1.0317 -0.1320
 8754SOL    MW434784   3.542   0.997   1.880 -0.1096  0.4304 -0.4077
 8755SOL     OW34785   3.743   5.554   3.403 -0.1027 -0.0775 -0.1480
 8755SOL    HW234786   3.815   5.491   3.409  0.3155  0.3566 -0.4546
 8755SOL    HW334787   3.748   5.603   3.485  2.7952  2.8912 -1.8085
 8755SOL    MW434788   3.753   5.552   3.415 -0.1798 -0.2511 -0.6332
 8756SOL     OW34789   4.709   4.856   3.276  0.2570 -0.0487 -0.2963
 8756SOL    HW234790   4.686   4.824   3.189 -0.6955  2.2540 -0.9565
 8756SOL    HW334791   4.665   4.797   3.337 -0.9191 -0.3591 -1.4279
 8756SOL    MW434792   4.700   4.844   3.273  0.0188  0.1744 -0.0497
 8757SOL     OW34793   1.002   5.299   3.519  0.0109 -0.6175 -0.5714
 8757SOL    HW234794   0.936   5.239   3.552 -1.7234  1.9495  0.9944
 8757SOL    HW334795   1.085   5.266   3.555 -1.1508 -0.9677  1.9984
 8757SOL    MW434796   1.004   5.287   3.528 -0.2029 -0.4596  0.4196
 8758SOL     OW34797   2.404   3.966   4.985 -0.3093  0.2998  0.0772
 8758SOL    HW234798   2.319   3.923   4.992 -0.5642  0.6669 -0.6193
 8758SOL    HW334799   2.464   3.908   5.032 -0.4944 -1.2309 -1.4539
 8758SOL    MW434800   2.401   3.953   4.992 -0.1992  0.6468  0.1485
 8759SOL     OW34801   1.296   5.342   4.030 -0.7704  0.2392  1.0016
 8759SOL    HW234802   1.328   5.346   4.121 -0.2714 -0.6689  0.8793
 8759SOL    HW334803   1.350   5.406   3.984  1.8247 -2.0688  0.5602
 8759SOL    MW434804   1.308   5.351   4.036  0.6439  0.2583  0.6134
 8760SOL     OW34805   3.159   2.781   5.524 -0.3245  0.2013 -0.2472
 8760SOL    HW234806   3.157   2.693   5.562 -0.1565 -1.4715 -3.7045
 8760SOL    HW334807   3.252   2.800   5.513 -0.3756  0.2277 -0.6535
 8760SOL    MW434808   3.171   2.772   5.527 -0.4651 -0.2387 -0.3226
 8761SOL     OW34809   5.901   2.909   4.493  0.5065  0.0005  0.1580
 8761SOL    HW234810   5.876   2.966   4.565  0.0363  0.0747 -0.0634
 8761SOL    HW334811   5.832   2.842   4.489 -0.2537  0.8141 -1.1220
 8761SOL    MW434812   5.889   2.908   4.502 -0.0104 -0.3093 -0.4504
 8762SOL     OW34813   5.587   5.393   0.935 -0.2923  0.1753 -0.2550
 8762SOL    HW234814   5.535   5.456   0.984  1.8166  0.3239  2.0068
 8762SOL    HW334815   5.657   5.367   0.996  0.2582 -2.6146 -1.8959
 8762SOL    MW434816   5.590   5.398   0.949  0.4523  0.5007  0.2484
 8763SOL     OW34817   5.099   4.934   5.426  0.0008 -0.3137  0.2197
 8763SOL    HW234818   5.165   4.869   5.449 -0.1549  0.0464  1.7433
 8763SOL    HW334819   5.040   4.937   5.501 -1.3989 -0.1625 -0.8481
 8763SOL    MW434820   5.100   4.926   5.439  0.0265 -0.0890 -0.7314
 8764SOL     OW34821   2.370   5.893   1.824  0.1122  0.0411  0.4614
 8764SOL    HW234822   2.397   5.896   1.732  0.1795  2.7632  0.4805
 8764SOL    HW334823   2.373   5.985   1.853 -3.5740 -0.2126  2.1395
 8764SOL    MW434824   2.374   5.906   1.816  0.5907  0.5078 -0.4251
 8765SOL     OW34825   0.396   2.385   0.931  0.5130  0.4327 -0.0864
 8765SOL    HW234826   0.306   2.378   0.960  0.6936  1.5945  0.8027
 8765SOL    HW334827   0.444   2.325   0.989  0.3244 -0.2485 -0.6137
 8765SOL    MW434828   0.391   2.376   0.942 -0.0061 -0.9166  0.4550
 8766SOL     OW34829   2.473   0.431   4.945 -0.1100  0.2444  0.0012
 8766SOL    HW234830   2.462   0.376   4.867  2.3197  0.6647 -0.7177
 8766SOL    HW334831   2.493   0.369   5.015  2.8381  0.0808 -0.8500
 8766SOL    MW434832   2.474   0.415   4.944 -0.0003  0.1172 -0.4478
 8767SOL     OW34833   1.729   3.580   0.468 -0.2800 -0.1849 -0.1192
 8767SOL    HW234834   1.788   3.507   0.488 -1.6780 -1.0770  0.9650
 8767SOL    HW334835   1.710   3.619   0.553  0.4336  1.4774 -0.6861
 8767SOL    MW434836   1.734   3.575   0.482 -0.0602  0.2467 -0.0714
 8768SOL     OW34837   6.146   0.331   0.041  0.0015 -0.1981 -0.7188
 8768SOL    HW234838   6.147   0.239   0.066 -0.8013  0.7215  3.4107
 8768SOL    HW334839   6.062   0.343  -0.004 -0.0558 -1.3736 -0.9553
 8768SOL    MW434840   6.135   0.321   0.038  0.1468  0.2425  0.5300
 8769SOL     OW34841   0.800   4.526   2.333 -0.2411  0.3594  0.1890
 8769SOL    HW234842   0.798   4.438   2.369 -2.1989 -0.5238 -1.8322
 8769SOL    HW334843   0.880   4.528   2.280  0.5387  0.3023  1.3427
 8769SOL    MW434844   0.810   4.515   2.331 -0.1004 -0.2311 -0.2944
 8770SOL     OW34845   3.597   3.161   3.735 -0.6141 -0.1436 -0.2259
 8770SOL    HW234846   3.582   3.084   3.681  2.6340 -0.0157 -1.5182
 8770SOL    HW334847   3.672   3.138   3.790 -2.3103  0.6018  2.6432
 8770SOL    MW434848   3.605   3.148   3.735 -0.1339 -0.1496  0.1533
 8771SOL     OW34849   5.410   4.887   0.055  0.4787  0.2259  0.0765
 8771SOL    HW234850   5.454   4.965   0.021  2.7276 -0.5356  1.0676
 8771SOL    HW334851   5.376   4.843  -0.023  0.8324  1.2185 -0.6671
 8771SOL    MW434852   5.412   4.892   0.040  0.0994 -0.1392 -0.2388
 8772SOL     OW34853   1.905   2.237   1.486  0.1531 -0.1552  0.2564
 8772SOL    HW234854   1.862   2.175   1.545 -0.3802 -0.0024  0.0390
 8772SOL    HW334855   1.993   2.247   1.521 -0.5439  0.9432  1.8118
 8772SOL    MW434856   1.911   2.230   1.499 -0.4187  0.0459 -0.5308
 8773SOL     OW34857   5.013   4.647   1.569  0.1109 -0.2619 -0.4393
 8773SOL    HW234858   5.103   4.632   1.540  0.2281 -0.2444 -0.0900
 8773SOL    HW334859   5.021   4.673   1.661 -0.1164  1.4815 -0.8698
 8773SOL    MW434860   5.026   4.649   1.578 -0.6374  0.6227 -0.1743
 8774SOL     OW34861   4.729   2.907   5.320  0.1486  0.2683  0.4771
 8774SOL    HW234862   4.661   2.931   5.383 -0.2837  2.0665 -0.5763
 8774SOL    HW334863   4.694   2.829   5.277 -1.0101  0.8224  0.3585
 8774SOL    MW434864   4.715   2.900   5.322 -0.0404 -0.2638 -0.2701
 8775SOL     OW34865   6.133   2.275   0.493 -0.2291 -0.1905  0.0626
 8775SOL    HW234866   6.056   2.219   0.494 -0.2432 -0.1743 -0.1049
 8775SOL    HW334867   6.122   2.330   0.415 -0.2319  0.0678  0.2441
 8775SOL    MW434868   6.122   2.275   0.483 -0.2878 -0.6898  0.3586
 8776SOL     OW34869   4.059   4.971   1.195  0.0474 -0.5166  0.4899
 8776SOL    HW234870   4.135   4.975   1.254 -0.0470  0.3842  0.5621
 8776SOL    HW334871   4.057   4.880   1.166  0.9480 -0.6430  0.7665
 8776SOL    MW434872   4.069   4.959   1.198  0.1442  0.3392  0.0521
 8777SOL     OW34873   5.140   5.307   2.363 -0.1671 -0.0003  0.2148
 8777SOL    HW234874   5.182   5.385   2.327 -0.9598 -0.4710 -1.9073
 8777SOL    HW334875   5.067   5.340   2.415 -0.2402  0.6927 -0.3181
 8777SOL    MW434876   5.136   5.321   2.365  0.3183 -0.2572 -0.0300
 8778SOL     OW34877   4.997   4.369   1.602 -0.2295 -0.1862  0.1801
 8778SOL    HW234878   4.933   4.341   1.667  1.5969  0.2458  2.2783
 8778SOL    HW334879   4.972   4.460   1.581 -2.2066 -1.0500 -1.6168
 8778SOL    MW434880   4.985   4.378   1.608  0.3425 -0.0740  0.3278
 8779SOL     OW34881   4.259   4.701   4.057 -0.4213 -0.1020  0.5129
 8779SOL    HW234882   4.178   4.718   4.105  0.4831  1.1902  1.6551
 8779SOL    HW334883   4.309   4.783   4.064  0.6641 -0.6043 -0.8289
 8779SOL    MW434884   4.255   4.714   4.064 -0.6625  0.5137 -0.0864
 8780SOL     OW34885   5.009   0.102   0.362  0.0450 -0.6115 -0.1035
 8780SOL    HW234886   4.918   0.131   0.361  0.2070 -0.0874 -1.0361
 8780SOL    HW334887   5.059   0.180   0.337  0.7035 -1.0331 -0.1223
 8780SOL    MW434888   5.004   0.116   0.359  0.0638  0.4811 -0.3090
 8781SOL     OW34889   1.213   5.148   2.985 -0.3483 -0.0705  0.2823
 8781SOL    HW234890   1.156   5.218   3.017 -0.1003  0.0743  0.4130
 8781SOL    HW334891   1.175   5.068   3.020 -1.4207 -0.1483 -0.9891
 8781SOL    MW434892   1.201   5.146   2.994 -0.7570  0.4437  0.3327
 8782SOL     OW34893   1.675   0.420   0.599  0.6591 -0.4220 -0.5544
 8782SOL    HW234894   1.596   0.468   0.624  1.4186  0.8292 -0.4500
 8782SOL    HW334895   1.665   0.402   0.506  1.2485  1.8394 -1.1307
 8782SOL    MW434896   1.663   0.424   0.590  0.6980 -0.4098  0.0149
 8783SOL     OW34897   0.821   5.036   0.716 -0.4349  0.3235  0.1142
 8783SOL    HW234898   0.914   5.015   0.709 -0.4618  0.2159  0.0822
 8783SOL    HW334899   0.786   4.974   0.780 -0.6507 -0.1827 -0.4842
 8783SOL    MW434900   0.828   5.025   0.723  0.3586 -0.1005 -0.1739
 8784SOL     OW34901   5.643   1.490   0.060  0.0642 -0.1544  0.0914
 8784SOL    HW234902   5.692   1.484   0.142  2.5483  1.0892 -1.2067
 8784SOL    HW334903   5.559   1.528   0.085  0.9575  0.6916  1.9983
 8784SOL    MW434904   5.638   1.494   0.074  0.1035 -0.1920  0.9154
 8785SOL     OW34905   2.089   2.687   1.920 -0.4217  0.4371  0.7349
 8785SOL    HW234906   2.084   2.633   1.841  0.0313  0.3765  0.7448
 8785SOL    HW334907   2.180   2.677   1.951 -0.4562  0.8508  0.9843
 8785SOL    MW434908   2.101   2.679   1.914 -0.0105 -0.2048 -0.1344
 8786SOL     OW34909   3.075   3.212   4.722  0.1923  0.2197  0.4935
 8786SOL    HW234910   3.077   3.227   4.817 -0.3606  0.5723  0.4517
 8786SOL    HW334911   3.005   3.147   4.710  1.0810 -0.7656  0.4447
 8786SOL    MW434912   3.066   3.205   4.733  0.6178 -0.8128  0.4259
 8787SOL     OW34913   1.801   4.626   2.865  0.2976 -0.2376 -0.0719
 8787SOL    HW234914   1.773   4.568   2.795  0.6160 -0.3616 -0.0965
 8787SOL    HW334915   1.739   4.610   2.936  1.1839 -1.6127  0.4295
 8787SOL    MW434916   1.789   4.617   2.865 -0.3315  0.0697  0.4354
 8788SOL     OW34917   2.675   6.273   5.554  0.0942 -0.3167  0.7311
 8788SOL    HW234918   2.595   6.247   5.508 -0.2754  3.3355 -1.0541
 8788SOL    HW334919   2.738   6.203   5.535 -0.9262 -0.4131 -3.0437
 8788SOL    MW434920   2.673   6.260   5.545 -0.0571 -0.0738 -0.0786
 8789SOL     OW34921   0.079   1.590   5.700  0.1494  0.3071 -0.6623
 8789SOL    HW234922   0.096   1.611   5.792 -2.4102 -0.0252 -0.0196
 8789SOL    HW334923   0.107   1.499   5.690 -1.2768 -0.2897  0.3718
 8789SOL    MW434924   0.085   1.581   5.711 -0.3761 -0.7083  0.5702
 8790SOL     OW34925   5.196   0.144   4.944  0.2770 -0.4025  0.6216
 8790SOL    HW234926   5.121   0.087   4.962  0.7567 -1.1336  0.3689
 8790SOL    HW334927   5.268   0.104   4.992  0.5678  0.1463  0.6506
 8790SOL    MW434928   5.196   0.131   4.953 -0.1369  0.3220  0.6877
 8791SOL     OW34929   0.192   3.290   5.736 -0.6566  0.0405 -0.4540
 8791SOL    HW234930   0.252   3.232   5.783  0.8876  0.0707 -2.2595
 8791SOL    HW334931   0.177   3.246   5.652 -0.3004  1.7029 -1.4488
 8791SOL    MW434932   0.198   3.276   5.731 -0.0273  0.2666 -0.2289
 8792SOL     OW34933   0.258   1.802   4.227  0.0498 -0.1674 -0.2035
 8792SOL    HW234934   0.239   1.797   4.321  1.8544 -1.3194  0.1533
 8792SOL    HW334935   0.336   1.857   4.221 -0.0511 -0.1074 -1.0231
 8792SOL    MW434936   0.266   1.808   4.239 -0.7513 -0.9636 -0.1389
 8793SOL     OW34937   5.211   3.687   4.715 -0.2133 -0.5892 -0.2636
 8793SOL    HW234938   5.225   3.592   4.717 -0.4060 -0.8075 -3.6783
 8793SOL    HW334939   5.125   3.699   4.756 -0.5884 -2.0086 -0.5667
 8793SOL    MW434940   5.201   3.676   4.721  0.4503  0.1310  0.0796
 8794SOL     OW34941   1.277   1.816   1.617  0.4489 -0.1809 -0.2153
 8794SOL    HW234942   1.333   1.808   1.540 -0.6790 -0.9134 -0.9889
 8794SOL    HW334943   1.213   1.883   1.594 -1.4521 -2.1314 -0.9645
 8794SOL    MW434944   1.276   1.824   1.604 -0.1171  0.6216  0.3491
 8795SOL     OW34945   5.350   1.617   0.550  0.2319  0.0239  0.4911
 8795SOL    HW234946   5.377   1.536   0.592  0.4229 -0.9671 -1.4373
 8795SOL    HW334947   5.368   1.685   0.615  4.3105 -0.9055  0.6270
 8795SOL    MW434948   5.356   1.615   0.564 -0.0311  0.0118 -0.1114
 8796SOL     OW34949   3.701   4.015   1.452 -0.5141 -0.0366  0.5025
 8796SOL    HW234950   3.645   4.088   1.478  0.7553  1.3514 -0.4701
 8796SOL    HW334951   3.777   4.020   1.510  1.5143  2.0255 -2.0552
 8796SOL    MW434952   3.704   4.025   1.463  0.5830 -0.4210  0.0804
 8797SOL     OW34953   5.536   3.548   2.973 -0.1318  0.4884 -0.3060
 8797SOL    HW234954   5.606   3.588   2.921  1.0068 -0.8715  0.1429
 8797SOL    HW334955   5.520   3.464   2.931 -0.6766  0.2771  0.3139
 8797SOL    MW434956   5.543   3.542   2.961 -0.6545  0.0610  0.2112
 8798SOL     OW34957   5.537   2.771   1.237  0.3408  0.1938  0.3108
 8798SOL    HW234958   5.627   2.786   1.266  1.4542 -2.0696 -1.6365
 8798SOL    HW334959   5.485   2.783   1.317  2.2640  1.9188  1.4264
 8798SOL    MW434960   5.542   2.774   1.252 -0.4779  0.0800 -0.0089
 8799SOL     OW34961   2.173   5.569   6.267 -0.2871  0.7511 -0.0561
 8799SOL    HW234962   2.221   5.513   6.328 -0.1207  1.2066  0.2380
 8799SOL    HW334963   2.228   5.573   6.189 -1.5792 -1.7523 -1.2019
 8799SOL    MW434964   2.187   5.562   6.265 -0.1943  1.0121  0.1655
 8800SOL     OW34965   5.926   4.820   5.816 -0.5786 -0.2030 -0.0591
 8800SOL    HW234966   5.993   4.877   5.853 -1.1457  0.7738 -0.5123
 8800SOL    HW334967   5.860   4.813   5.885 -1.0502  0.6228 -0.4169
 8800SOL    MW434968   5.926   4.826   5.830  0.6402 -0.4032 -0.3395
 8801SOL     OW34969   2.557   0.575   6.136  0.8647  0.3475 -0.3598
 8801SOL    HW234970   2.532   0.492   6.096 -0.0984  0.1071  0.6918
 8801SOL    HW334971   2.555   0.638   6.065  1.2437 -0.4592 -1.0991
 8801SOL    MW434972   2.554   0.572   6.122 -0.0039 -0.5056  0.0095
 8802SOL     OW34973   2.929   2.054   5.115  0.0884  0.7378  0.7150
 8802SOL    HW234974   2.869   2.024   5.047 -0.2876 -0.6404  1.6257
 8802SOL    HW334975   3.016   2.046   5.075 -0.2421  1.9620 -0.3184
 8802SOL    MW434976   2.933   2.049   5.101  0.4611  0.3768  0.1410
 8803SOL     OW34977   4.240   2.797   4.922  0.1746 -0.5451 -0.2007
 8803SOL    HW234978   4.151   2.767   4.905  0.3500 -0.5709 -1.1527
 8803SOL    HW334979   4.230   2.874   4.978 -0.3860 -1.1267  0.5172
 8803SOL    MW434980   4.227   2.803   4.927 -0.0369 -0.1438  0.2415
 8804SOL     OW34981   1.280   4.370   3.962 -0.6401 -0.1325 -0.1943
 8804SOL    HW234982   1.362   4.324   3.941 -1.3786 -1.8407  0.4373
 8804SOL    HW334983   1.282   4.378   4.057 -1.0184  0.1931 -0.2138
 8804SOL    MW434984   1.291   4.365   3.972  0.1688 -0.1008 -0.6358
 8805SOL     OW34985   4.561   0.256   5.969 -0.0756  0.8369  0.0055
 8805SOL    HW234986   4.562   0.200   5.891 -1.1270  1.9253 -0.8191
 8805SOL    HW334987   4.602   0.202   6.037  0.2143 -0.4066 -1.1081
 8805SOL    MW434988   4.567   0.241   5.968 -0.5170 -0.4491 -0.0195
 8806SOL     OW34989   0.294   4.863   0.476 -0.3506  0.4056 -0.2932
 8806SOL    HW234990   0.206   4.825   0.478 -0.4678  0.7079  0.2560
 8806SOL    HW334991   0.288   4.934   0.412 -0.1439 -0.4483 -1.2893
 8806SOL    MW434992   0.282   4.867   0.468 -0.0624 -0.5525 -0.3411
 8807SOL     OW34993   1.213   5.030   4.515 -0.7152 -0.0906  0.2369
 8807SOL    HW234994   1.286   5.054   4.571 -2.2113  1.9848  1.4461
 8807SOL    HW334995   1.202   5.106   4.456 -2.0451 -0.2273  0.2796
 8807SOL    MW434996   1.221   5.043   4.514  0.6730  0.4040  0.4864
 8808SOL     OW34997   4.081   4.496   5.370  0.5368  0.2803 -0.1737
 8808SOL    HW234998   3.989   4.495   5.344  1.0177  1.2355 -2.0932
 8808SOL    HW334999   4.115   4.410   5.343 -0.3848 -1.3607  3.2882
 8808SOL    MW435000   4.073   4.485   5.363 -0.2519  0.3815 -0.0623
 8809SOL     OW35001   3.298   1.972   5.855  0.0202  0.4731  0.0011
 8809SOL    HW235002   3.322   1.926   5.775  2.8725 -0.9278  1.5031
 8809SOL    HW335003   3.208   1.945   5.872  0.0329 -0.7715 -1.6601
 8809SOL    MW435004   3.290   1.963   5.847  0.0367 -0.3832  0.2411
 8810SOL     OW35005   6.274   4.511   4.138  0.0332 -0.4042  0.4052
 8810SOL    HW235006   6.196   4.458   4.124 -0.8257  0.1397  2.7627
 8810SOL    HW335007   6.347   4.452   4.115 -0.9706 -1.8310  0.7612
 8810SOL    MW435008   6.273   4.496   4.133  0.2958  0.1939 -0.3051
 8811SOL     OW35009   4.851   2.848   3.004  0.3148  0.3482 -0.3268
 8811SOL    HW235010   4.903   2.793   3.062 -0.0647  0.2419 -0.0802
 8811SOL    HW335011   4.892   2.934   3.008  2.1183 -0.3400 -2.2318
 8811SOL    MW435012   4.863   2.852   3.012  0.5176  0.1499 -0.9508
 8812SOL     OW35013   4.766   5.397   4.198 -0.0987  0.0172 -0.1315
 8812SOL    HW235014   4.763   5.493   4.190  0.3594 -0.0897 -1.9501
 8812SOL    HW335015   4.674   5.370   4.199 -0.2338  0.3862 -1.1849
 8812SOL    MW435016   4.754   5.406   4.197  0.0105 -0.0852  0.5962
 8813SOL     OW35017   5.367   4.075   0.045  0.0452 -0.1346 -0.1750
 8813SOL    HW235018   5.282   4.119   0.033  1.1252  1.8857 -1.0349
 8813SOL    HW335019   5.384   4.082   0.139  0.0173  1.0321 -0.2339
 8813SOL    MW435020   5.358   4.082   0.056  0.7529  0.2212  0.1531
 8814SOL     OW35021   6.015   0.271   3.968  0.1363  0.8401 -0.0548
 8814SOL    HW235022   6.001   0.350   4.021  1.1686  0.3526  0.9942
 8814SOL    HW335023   6.073   0.217   4.021 -1.1671 -0.9931 -0.3878
 8814SOL    MW435024   6.021   0.274   3.982  0.4004  0.2492 -0.7474
 8815SOL     OW35025   5.291   1.314   6.367  0.1208  0.4629  0.7080
 8815SOL    HW235026   5.204   1.276   6.352 -0.2360  1.4885  0.0847
 8815SOL    HW335027   5.298   1.319   6.463 -0.5308  0.4219  0.7644
 8815SOL    MW435028   5.280   1.310   6.378  0.3118 -0.2791 -0.0025
 8816SOL     OW35029   3.111   1.894   1.866 -0.6002  0.1031  0.4897
 8816SOL    HW235030   3.081   1.857   1.949 -1.2244 -1.5659 -0.4357
 8816SOL    HW335031   3.196   1.935   1.887 -0.4325 -0.8682  1.7998
 8816SOL    MW435032   3.118   1.895   1.880  0.0236 -0.2195 -0.9164
 8817SOL     OW35033   0.523   3.316   4.606 -0.0702  0.1076 -0.1691
 8817SOL    HW235034   0.593   3.359   4.558  1.0933 -0.7060  0.7136
 8817SOL    HW335035   0.451   3.378   4.606 -0.0749  0.1907 -2.7871
 8817SOL    MW435036   0.523   3.330   4.600  0.2342 -0.0934  0.4173
 8818SOL     OW35037   5.587   4.108   3.288 -0.2037  0.5194  0.0192
 8818SOL    HW235038   5.593   4.042   3.219  0.8583 -1.8657  2.2118
 8818SOL    HW335039   5.672   4.151   3.287  0.7331 -1.1507  1.2211
 8818SOL    MW435040   5.599   4.105   3.279 -0.0048  0.0829 -0.2891
 8819SOL     OW35041   4.211   5.690   6.190 -0.0412 -0.1044  0.1848
 8819SOL    HW235042   4.253   5.634   6.255  1.5954  2.5934  1.6359
 8819SOL    HW335043   4.126   5.711   6.228 -0.8125 -1.7318 -0.5222
 8819SOL    MW435044   4.205   5.685   6.203 -0.2545 -0.1159 -0.1706
 8820SOL     OW35045   4.881   2.256   5.777 -0.1213  0.1822  0.2551
 8820SOL    HW235046   4.810   2.299   5.729  0.7502  0.7111 -0.5942
 8820SOL    HW335047   4.905   2.182   5.723 -0.4832 -0.4089  0.8897
 8820SOL    MW435048   4.874   2.252   5.763 -0.2105 -0.0393 -0.4849
 8821SOL     OW35049   4.869   4.260   4.341 -0.1915  0.2666  0.1789
 8821SOL    HW235050   4.831   4.326   4.282 -1.4869 -0.5130  0.1034
 8821SOL    HW335051   4.946   4.228   4.294 -0.0599  1.0838 -0.1839
 8821SOL    MW435052   4.874   4.265   4.327 -0.3808  0.1815 -0.0791
 8822SOL     OW35053   3.244   4.748   5.068  0.2891 -0.0834 -0.3951
 8822SOL    HW235054   3.310   4.718   5.006 -0.0733  0.0791 -0.8671
 8822SOL    HW335055   3.197   4.818   5.021  1.8705  2.1169  1.0614
 8822SOL    MW435056   3.247   4.754   5.054 -0.0955  0.5098  0.0495
 8823SOL     OW35057   2.537   4.847   1.418  0.3887  0.1221  0.6415
 8823SOL    HW235058   2.457   4.886   1.382 -0.7696  0.1119  3.0315
 8823SOL    HW335059   2.512   4.757   1.439  1.3477 -0.1838  0.5108
 8823SOL    MW435060   2.523   4.840   1.416 -0.6147 -0.2929  0.5911
 8824SOL     OW35061   2.669   5.388   5.039  0.1269 -0.6076 -0.2295
 8824SOL    HW235062   2.705   5.304   5.067 -0.2984 -0.4950  0.6790
 8824SOL    HW335063   2.601   5.365   4.975 -0.5865 -1.0118  0.6526
 8824SOL    MW435064   2.665   5.374   5.034  0.7626 -0.2039 -0.0439
 8825SOL     OW35065   4.722   4.180   0.016 -0.1613 -0.1572 -0.4946
 8825SOL    HW235066   4.744   4.184   0.109  0.7226 -0.9385 -0.6496
 8825SOL    HW335067   4.797   4.136  -0.024 -0.0885  1.0451 -1.7342
 8825SOL    MW435068   4.735   4.174   0.023  0.3958 -0.5829 -0.4227
 8826SOL     OW35069  -0.005   2.657   1.853 -0.2219  0.0121 -0.1431
 8826SOL    HW235070  -0.083   2.705   1.825  0.7863  2.7844  1.3383
 8826SOL    HW335071  -0.032   2.609   1.931 -1.0052 -0.9967 -1.0242
 8826SOL    MW435072  -0.019   2.657   1.860  0.4086 -0.1121 -0.2238
 8827SOL     OW35073   3.243   6.089   0.357 -0.2407 -0.7914 -0.9355
 8827SOL    HW235074   3.327   6.095   0.402 -0.1296 -0.3338 -1.1902
 8827SOL    HW335075   3.191   6.159   0.395 -0.5135 -1.0887 -0.7639
 8827SOL    MW435076   3.247   6.099   0.368  0.2774  0.1736  0.4112
 8828SOL     OW35077   3.113   4.113   1.151 -0.4137 -0.0268 -0.2562
 8828SOL    HW235078   3.189   4.076   1.195  0.6710  0.1162 -1.9106
 8828SOL    HW335079   3.051   4.040   1.144  1.0858 -1.2178 -2.1196
 8828SOL    MW435080   3.115   4.099   1.156 -0.2073 -0.1342 -0.0574
 8829SOL     OW35081   0.485   2.623   0.755  0.1000 -0.7208  0.1709
 8829SOL    HW235082   0.492   2.592   0.845  2.7509  0.1245  0.3299
 8829SOL    HW335083   0.453   2.547   0.706 -0.1131 -1.5893  1.6037
 8829SOL    MW435084   0.481   2.609   0.760  0.1296  0.1959  0.2184
 8830SOL     OW35085   2.435   0.916   6.168  0.8576 -0.1297  0.3767
 8830SOL    HW235086   2.466   0.999   6.132  1.8676 -0.4539  0.4599
 8830SOL    HW335087   2.509   0.883   6.220 -0.5581  0.3650  2.8473
 8830SOL    MW435088   2.449   0.922   6.170  0.2620 -0.6625 -0.0250
 8831SOL     OW35089   1.787   1.041   0.960  0.0192 -0.5110  1.1131
 8831SOL    HW235090   1.853   1.030   1.028 -0.4813  0.1139  1.7226
 8831SOL    HW335091   1.768   1.135   0.960 -0.7942 -0.6681  0.8892
 8831SOL    MW435092   1.793   1.052   0.969 -0.1325 -0.4543 -0.3535
 8832SOL     OW35093   0.908   3.057   5.361 -0.0592  0.6166  0.0132
 8832SOL    HW235094   0.963   3.061   5.282 -0.2639  1.4760 -0.1027
 8832SOL    HW335095   0.944   3.124   5.419 -0.0562  0.1502  0.5600
 8832SOL    MW435096   0.920   3.067   5.358  0.1606 -0.1406 -0.3403
 8833SOL     OW35097   2.092   0.362   5.282  0.3031 -0.2419 -0.0300
 8833SOL    HW235098   2.002   0.350   5.252  0.1961 -0.0195  0.1938
 8833SOL    HW335099   2.135   0.409   5.210  0.4785 -1.1167 -0.5081
 8833SOL    MW435100   2.086   0.367   5.269 -0.3763 -0.0051  0.1584
 8834SOL     OW35101   3.519   2.253   1.378 -0.9077 -0.0885 -0.0853
 8834SOL    HW235102   3.503   2.342   1.411  1.0694 -0.1421  1.2056
 8834SOL    HW335103   3.528   2.263   1.284 -1.3642  0.9750 -0.0260
 8834SOL    MW435104   3.518   2.266   1.370 -0.3530 -0.0528 -0.0683
 8835SOL     OW35105   3.334   3.954   4.921 -0.5246 -0.0590 -0.6905
 8835SOL    HW235106   3.279   3.876   4.920 -0.7586  0.1061 -0.6488
 8835SOL    HW335107   3.272   4.027   4.922 -0.3148  0.1276  0.8053
 8835SOL    MW435108   3.319   3.953   4.921  0.4488  0.2562  0.0537
 8836SOL     OW35109   5.562   0.393   4.791  0.7884  0.3522 -0.3229
 8836SOL    HW235110   5.543   0.479   4.752 -0.4320  0.8300  1.1839
 8836SOL    HW335111   5.482   0.342   4.776  0.5562  0.3237  0.8741
 8836SOL    MW435112   5.549   0.398   4.784  0.0074 -0.0604 -0.5061
 8837SOL     OW35113   3.429   3.760   0.061 -0.4357  0.0442  0.0809
 8837SOL    HW235114   3.503   3.701   0.075 -0.7868 -0.6838 -0.9365
 8837SOL    HW335115   3.429   3.776  -0.034 -1.7480 -0.2109  0.0152
 8837SOL    MW435116   3.439   3.754   0.050 -0.4090 -0.0753 -0.4054
 8838SOL     OW35117   4.735   3.615   5.844 -0.0350  0.1015 -0.2516
 8838SOL    HW235118   4.647   3.653   5.849 -0.0798 -0.0350 -0.0187
 8838SOL    HW335119   4.784   3.657   5.914 -0.4665 -1.2683  0.9234
 8838SOL    MW435120   4.730   3.626   5.854 -0.0754 -0.8219  0.0837
 8839SOL     OW35121   3.501   2.923   4.415 -0.6039  0.0647 -0.5209
 8839SOL    HW235122   3.588   2.890   4.394  0.0500  1.6497 -0.5063
 8839SOL    HW335123   3.495   2.916   4.510  0.4366  1.9498 -0.2642
 8839SOL    MW435124   3.512   2.918   4.425 -0.1562 -0.3834 -0.2346
 8840SOL     OW35125   4.325   1.817   2.021 -0.0189  0.0441 -0.4846
 8840SOL    HW235126   4.295   1.814   1.930  0.7369  1.5761 -0.8010
 8840SOL    HW335127   4.294   1.902   2.054 -2.0246 -1.2669  1.3403
 8840SOL    MW435128   4.317   1.828   2.014 -0.5197  0.2169  0.0434
 8841SOL     OW35129   0.974   1.378   4.760 -0.2372  0.3744 -0.4566
 8841SOL    HW235130   1.001   1.325   4.685  0.2739  1.6169 -1.1714
 8841SOL    HW335131   1.003   1.467   4.739  2.3432  0.3538  2.3666
 8841SOL    MW435132   0.981   1.383   4.747 -0.3691 -0.1561  0.2646
 8842SOL     OW35133   1.672   3.612   4.829  0.0186 -0.1309  0.2762
 8842SOL    HW235134   1.609   3.540   4.823  1.1013 -1.3023  1.9504
 8842SOL    HW335135   1.618   3.688   4.849 -1.0824 -0.6203 -0.7123
 8842SOL    MW435136   1.656   3.612   4.831 -0.4110  0.0738  0.5955
 8843SOL     OW35137   1.367   5.711   4.687 -0.6035 -0.0801  0.3391
 8843SOL    HW235138   1.298   5.684   4.747 -0.6768  0.1655  0.3663
 8843SOL    HW335139   1.382   5.803   4.708 -0.1307 -0.1822  0.4688
 8843SOL    MW435140   1.360   5.720   4.698  0.1249 -0.6373  0.1392
 8844SOL     OW35141   2.305   6.335   6.135 -0.2530 -0.7769 -0.0226
 8844SOL    HW235142   2.247   6.259   6.133  0.7351 -1.5212 -0.7119
 8844SOL    HW335143   2.358   6.323   6.213  0.2599 -1.0723 -0.4120
 8844SOL    MW435144   2.304   6.324   6.145 -0.2064  0.2837 -0.1878
 8845SOL     OW35145   2.613   0.366   1.586  0.3175 -0.1311 -0.1465
 8845SOL    HW235146   2.538   0.367   1.527  0.1126  0.7231  0.1186
 8845SOL    HW335147   2.686   0.400   1.534  0.1771  0.4513  0.0269
 8845SOL    MW435148   2.613   0.370   1.572  0.2312 -0.2513 -0.4227
 8846SOL     OW35149   5.849   4.323   1.900  0.6553 -0.5843  0.4697
 8846SOL    HW235150   5.814   4.277   1.977 -0.9219  0.4958  0.4614
 8846SOL    HW335151   5.794   4.401   1.893  0.6179 -0.7701 -1.8923
 8846SOL    MW435152   5.837   4.327   1.910  0.2214  0.3953 -0.2278
 8847SOL     OW35153   2.025   2.898   3.940  0.3826  0.3575  0.1485
 8847SOL    HW235154   2.071   2.836   3.997  1.8608 -0.9091 -2.2216
 8847SOL    HW335155   1.958   2.846   3.897 -0.2024  1.0958  0.1490
 8847SOL    MW435156   2.022   2.883   3.942  0.0041 -0.3446  0.1014
 8848SOL     OW35157   1.862   4.223   4.840 -0.5641 -0.1868  0.2215
 8848SOL    HW235158   1.801   4.276   4.788 -2.1384 -0.0899  2.0258
 8848SOL    HW335159   1.805   4.165   4.891  1.0524 -2.6875 -0.6393
 8848SOL    MW435160   1.846   4.223   4.840 -0.8850 -0.3379 -0.0913
 8849SOL     OW35161   1.266   4.790   0.465  0.5332  0.1302  0.5721
 8849SOL    HW235162   1.253   4.705   0.507  1.0198 -0.1816  0.1113
 8849SOL    HW335163   1.291   4.849   0.536  0.6729 -0.2246  0.8196
 8849SOL    MW435164   1.267   4.786   0.480 -0.2701 -0.1796 -0.2976
 8850SOL     OW35165   4.350   5.893   5.775  0.1186 -0.7162  0.1019
 8850SOL    HW235166   4.411   5.924   5.842  1.0563 -1.9887 -0.1256
 8850SOL    HW335167   4.277   5.954   5.780 -0.6143 -1.6413  3.3987
 8850SOL    MW435168   4.349   5.905   5.785 -0.0897  0.1436 -0.0345
 8851SOL     OW35169   2.943   5.389   4.895 -0.4997  0.7222  0.4896
 8851SOL    HW235170   2.855   5.393   4.931 -0.8058  2.0420 -0.3280
 8851SOL    HW335171   2.930   5.394   4.800  0.3739 -0.9197  0.2436
 8851SOL    MW435172   2.930   5.390   4.887  0.4063  0.6536 -0.9346
 8852SOL     OW35173   3.895   0.924   5.864 -0.4004 -0.7280 -0.2522
 8852SOL    HW235174   3.824   0.900   5.804  0.9332 -0.3037 -2.0771
 8852SOL    HW335175   3.974   0.889   5.823  0.7493  0.8501  0.5086
 8852SOL    MW435176   3.896   0.916   5.851  0.1217  0.3737  0.7056
 8853SOL     OW35177   2.689   2.163   4.676  0.0598  0.5472  0.0099
 8853SOL    HW235178   2.630   2.184   4.604  0.9189  0.2311 -0.8114
 8853SOL    HW335179   2.639   2.103   4.731 -0.6338  0.8388 -0.2842
 8853SOL    MW435180   2.675   2.158   4.674 -0.0768  0.3526 -0.2515
 8854SOL     OW35181   2.263   0.834   5.544 -0.3208 -0.6183 -0.0595
 8854SOL    HW235182   2.292   0.877   5.464  2.2386 -2.5185 -0.2877
 8854SOL    HW335183   2.259   0.904   5.609  0.2193  0.5256 -1.2144
 8854SOL    MW435184   2.267   0.849   5.542 -0.5621 -0.8127  0.1481
 8855SOL     OW35185   5.547   2.068   6.316 -0.0146 -0.3540 -0.0546
 8855SOL    HW235186   5.542   2.132   6.387  0.8539 -1.2434  0.8454
 8855SOL    HW335187   5.543   1.983   6.360  3.4864 -1.0057 -0.6847
 8855SOL    MW435188   5.546   2.065   6.331  0.9509  0.2528 -0.0349
 8856SOL     OW35189   0.660   0.969   0.787  0.5313  0.1894  0.0250
 8856SOL    HW235190   0.681   1.038   0.849 -0.6850 -1.0121  1.8796
 8856SOL    HW335191   0.735   0.966   0.727  1.9172  1.1725  1.6398
 8856SOL    MW435192   0.673   0.978   0.787  0.2076 -0.2133  0.0385
 8857SOL     OW35193   3.828   2.981   5.600  0.1268  0.2384 -0.0443
 8857SOL    HW235194   3.801   2.943   5.683 -1.1048  0.4663 -0.3205
 8857SOL    HW335195   3.803   2.917   5.534  0.1102  0.5328 -0.3288
 8857SOL    MW435196   3.821   2.968   5.602 -0.2209 -0.3014 -0.3280
 8858SOL     OW35197   4.853   0.573   1.084  0.5636  0.9210 -0.2919
 8858SOL    HW235198   4.876   0.525   1.005 -1.2681 -1.9088  0.7527
 8858SOL    HW335199   4.920   0.549   1.147  0.7312  1.3243 -0.3143
 8858SOL    MW435200   4.865   0.564   1.082 -0.2857  0.6907  0.2408
 8859SOL     OW35201   4.696   4.010   5.810 -0.5214 -1.0176 -0.0580
 8859SOL    HW235202   4.792   4.001   5.809 -0.4535 -0.3499 -1.2425
 8859SOL    HW335203   4.666   3.950   5.742 -0.7369  0.6663 -1.5001
 8859SOL    MW435204   4.705   4.001   5.801 -0.0258  0.0815 -0.4195
 8860SOL     OW35205   0.077   3.537   5.202 -0.3305 -0.2867  0.1645
 8860SOL    HW235206   0.158   3.488   5.187 -0.6035 -0.7248  0.0902
 8860SOL    HW335207   0.073   3.548   5.297 -0.3186 -0.5092  0.1932
 8860SOL    MW435208   0.087   3.532   5.213  0.2282  0.1065  0.6624
 8861SOL     OW35209   3.787   4.983   2.573  0.3789  0.1045 -0.1820
 8861SOL    HW235210   3.812   4.948   2.487 -2.8258  0.5745 -1.4469
 8861SOL    HW335211   3.713   4.928   2.601 -0.3157  1.5792  1.0309
 8861SOL    MW435212   3.781   4.971   2.565  0.0602 -0.1973  0.4201
 8862SOL     OW35213   2.204   1.077   5.710 -0.3094 -0.4145 -0.5181
 8862SOL    HW235214   2.192   1.072   5.804 -2.3582  1.7219 -0.5732
 8862SOL    HW335215   2.281   1.134   5.699 -1.0114  0.6531 -0.0936
 8862SOL    MW435216   2.213   1.084   5.721  0.0713 -0.4483 -0.0907
 8863SOL     OW35217   4.202   1.067   6.256 -0.0802 -0.3699 -0.5438
 8863SOL    HW235218   4.292   1.064   6.289 -0.4930  0.5866  0.7206
 8863SOL    HW335219   4.183   0.977   6.231  0.8552 -0.7846  0.1832
 8863SOL    MW435220   4.211   1.055   6.257  0.2451 -0.5239  0.3262
 8864SOL     OW35221   3.692   1.134   4.335  0.2987  0.3891 -0.4864
 8864SOL    HW235222   3.647   1.095   4.259 -0.5147 -1.5916  0.9162
 8864SOL    HW335223   3.624   1.140   4.402  1.8101 -1.8270  1.4068
 8864SOL    MW435224   3.677   1.130   4.333 -0.1663 -0.3239  0.0832
 8865SOL     OW35225   0.741   6.080   5.429 -0.2833 -0.3894 -0.1401
 8865SOL    HW235226   0.700   5.994   5.423 -1.1893  0.0571 -0.7536
 8865SOL    HW335227   0.680   6.138   5.384  0.4972  0.5105 -0.0714
 8865SOL    MW435228   0.727   6.076   5.422  0.3619  0.2539 -0.5498
 8866SOL     OW35229   3.869   0.116   5.199  0.6593  0.3771  0.0250
 8866SOL    HW235230   3.961   0.142   5.207  0.2841  1.7251  0.0548
 8866SOL    HW335231   3.822   0.169   5.263 -0.0010 -1.2405  0.9539
 8866SOL    MW435232   3.875   0.126   5.208 -0.2962  0.1456  0.1846
 8867SOL     OW35233   0.990   0.366   4.515 -0.4864 -0.1288 -0.1647
 8867SOL    HW235234   0.999   0.381   4.421 -0.1982  1.6065  0.0996
 8867SOL    HW335235   1.064   0.413   4.554 -1.6024  0.7471  1.0270
 8867SOL    MW435236   1.001   0.374   4.508 -0.3133 -0.1923  0.2243
 8868SOL     OW35237   1.696   5.870   2.833  0.0720 -0.3808  0.0583
 8868SOL    HW235238   1.692   5.964   2.847  1.2410 -0.0790 -1.4964
 8868SOL    HW335239   1.727   5.835   2.917 -2.0201  0.3931  1.2351
 8868SOL    MW435240   1.699   5.877   2.846 -0.0543  0.3180  0.3397
 8869SOL     OW35241   5.729   3.410   5.753  0.1718  0.1948 -0.1170
 8869SOL    HW235242   5.734   3.347   5.825  0.5346  0.0555 -0.2621
 8869SOL    HW335243   5.806   3.465   5.764  0.8809 -0.5775 -1.0956
 8869SOL    MW435244   5.740   3.409   5.764  0.2875 -0.2877  0.4393
 8870SOL     OW35245   1.321   4.053   4.266 -0.2164 -0.0389  0.4322
 8870SOL    HW235246   1.320   3.963   4.233 -0.9011  0.0956  0.0793
 8870SOL    HW335247   1.414   4.072   4.278  0.0196 -0.3378 -0.7447
 8870SOL    MW435248   1.333   4.044   4.263  0.2142 -1.0569 -0.1164
 8871SOL     OW35249   2.897   3.829   0.822 -0.6783 -0.1202  0.2075
 8871SOL    HW235250   2.843   3.751   0.829 -0.3118 -0.5184 -1.0795
 8871SOL    HW335251   2.848   3.886   0.763 -0.4238  0.1639  0.2668
 8871SOL    MW435252   2.883   3.826   0.815  0.1843  0.6306 -0.0768
 8872SOL     OW35253   2.393   4.352   4.394  0.3763  0.1682  0.1598
 8872SOL    HW235254   2.336   4.393   4.330  1.0407  2.4907  0.9216
 8872SOL    HW335255   2.366   4.261   4.396 -1.1004  0.4906 -1.8166
 8872SOL    MW435256   2.382   4.346   4.386  0.5143  0.5410 -0.1522
 8873SOL     OW35257   2.899   1.918   3.062  0.8457 -0.0257  0.0071
 8873SOL    HW235258   2.866   1.865   3.134  0.3458  0.2269 -0.0338
 8873SOL    HW335259   2.853   2.002   3.070 -0.1354 -0.3977 -1.3175
 8873SOL    MW435260   2.889   1.922   3.072 -0.0249  0.1259  0.2770
 8874SOL     OW35261   4.842   3.535   0.624  0.0165 -0.0365 -0.4857
 8874SOL    HW235262   4.928   3.535   0.667 -0.1768 -3.6057  0.2141
 8874SOL    HW335263   4.860   3.503   0.536 -0.5416 -0.4188 -0.4653
 8874SOL    MW435264   4.856   3.531   0.618  0.4460 -0.8441  0.6046
 8875SOL     OW35265   3.101   1.514   5.742 -0.0699 -0.8330  0.0066
 8875SOL    HW235266   3.109   1.477   5.830  0.0308  2.6283  1.6258
 8875SOL    HW335267   3.016   1.483   5.711 -0.3609 -1.7200  1.5762
 8875SOL    MW435268   3.091   1.505   5.750  0.2282 -0.1617 -0.0815
 8876SOL     OW35269   0.953   2.203   0.766 -0.1282  0.6219 -0.6464
 8876SOL    HW235270   0.860   2.193   0.744  0.3816 -0.7911 -2.4400
 8876SOL    HW335271   0.982   2.279   0.716 -0.0247  0.2513 -1.1533
 8876SOL    MW435272   0.945   2.211   0.756 -0.4780  0.5319  0.3029
 8877SOL     OW35273   3.589   5.337   6.171  0.6443 -0.1687 -0.2575
 8877SOL    HW235274   3.570   5.272   6.238  2.5317 -1.3381 -0.8134
 8877SOL    HW335275   3.665   5.385   6.205  1.6030 -0.7590 -1.5145
 8877SOL    MW435276   3.596   5.335   6.185 -0.4610  0.1385  0.1332
 8878SOL     OW35277   3.955   1.892   3.175  0.3826  0.2886  0.2320
 8878SOL    HW235278   3.895   1.939   3.233 -1.1701 -1.6675  0.3101
 8878SOL    HW335279   3.942   1.933   3.089 -0.3968  0.4796  0.4298
 8878SOL    MW435280   3.945   1.904   3.171 -0.7777  0.7348 -0.0842
 8879SOL     OW35281   4.756   0.090   4.433 -0.5518 -0.0122  0.0397
 8879SOL    HW235282   4.709   0.009   4.453 -0.4048  0.0554  0.6793
 8879SOL    HW335283   4.689   0.149   4.399 -1.2829  0.6150  2.3642
 8879SOL    MW435284   4.741   0.087   4.431 -0.2561 -0.3894  0.0175
 8880SOL     OW35285   0.508   3.710   2.007  0.1742  0.3793  0.1072
 8880SOL    HW235286   0.519   3.773   2.078  0.7717 -0.8017  1.1005
 8880SOL    HW335287   0.559   3.634   2.035  0.0994 -0.2590 -1.4174
 8880SOL    MW435288   0.516   3.709   2.020  0.6969  0.6428 -0.2575
 8881SOL     OW35289   1.414   2.891   4.502 -0.6753 -0.1089 -0.4254
 8881SOL    HW235290   1.411   2.869   4.408 -1.0039  0.4010 -0.5357
 8881SOL    HW335291   1.508   2.890   4.523 -0.5581  0.3669 -0.8998
 8881SOL    MW435292   1.426   2.888   4.492  0.3965 -0.0122  0.6264
 8882SOL     OW35293   6.254   0.332   1.689 -0.2411 -0.2303  0.2647
 8882SOL    HW235294   6.277   0.424   1.700  1.0846 -0.2171 -2.0060
 8882SOL    HW335295   6.334   0.284   1.712 -0.9213 -0.8534  1.4412
 8882SOL    MW435296   6.267   0.338   1.694 -0.1372 -0.4125  0.0469
 8883SOL     OW35297   0.424   5.029   5.479  0.2928 -0.4651 -0.2342
 8883SOL    HW235298   0.504   4.992   5.518  0.5053 -0.5255 -0.7301
 8883SOL    HW335299   0.364   4.954   5.474  0.9788 -0.9501 -1.9327
 8883SOL    MW435300   0.427   5.014   5.484 -0.3377 -0.8470  0.2083
 8884SOL     OW35301   2.987   4.325   5.701 -0.3223  0.0551  0.1185
 8884SOL    HW235302   3.042   4.254   5.733 -0.5229  0.9048  2.5975
 8884SOL    HW335303   3.029   4.405   5.734 -1.7876  0.8625  0.1242
 8884SOL    MW435304   3.000   4.326   5.710  0.4626  0.4885 -0.1433
 8885SOL     OW35305   6.179   4.352   2.731 -0.1608  0.1211 -0.0693
 8885SOL    HW235306   6.096   4.345   2.684  0.4198  0.1896 -1.1199
 8885SOL    HW335307   6.154   4.384   2.818 -1.3086 -0.5629 -0.1185
 8885SOL    MW435308   6.165   4.355   2.737  0.5197  0.0456 -0.3738
 8886NA      NA35309   6.223   1.992   5.460  0.3394 -0.3350 -0.1646
 8887NA      NA35310   5.453   6.174   2.107  0.2842  0.3758 -0.2226
 8888NA      NA35311   0.638   3.036   2.610 -0.3847  0.2022 -0.1158
 8889NA      NA35312   4.405   5.526   4.113 -0.0743 -0.3256 -0.0699
 8890NA      NA35313   5.006   5.916   5.175  0.6336  0.0093 -0.1052
 8891NA      NA35314   5.931   6.046   4.500  0.1741 -0.4461  0.1938
 8892NA      NA35315   3.977   5.041   1.428 -0.0001  0.0486  0.4939
   6.42900   6.42900   6.42900
