A-SYNC WITH FASUDIL
35315
  121NASP     N    1   1.235   1.145   4.209 -0.5080 -0.1964 -0.4423
  121NASP    H1    2   1.324   1.165   4.254  0.3503 -1.4505 -1.5082
  121NASP    H2    3   1.253   1.080   4.135  2.5185 -0.9862  0.8002
  121NASP    H3    4   1.176   1.116   4.285 -0.7608  0.1390 -0.5104
  121NASP    CA    5   1.182   1.270   4.161  0.1196 -0.5754  0.4338
  121NASP    HA    6   1.258   1.310   4.095 -1.4223 -0.5062 -1.3685
  121NASP    CB    7   1.047   1.259   4.087 -0.8229 -0.9168  0.0320
  121NASP   HB1    8   1.083   1.240   3.986  1.3854 -0.6282  0.7181
  121NASP   HB2    9   1.004   1.359   4.093 -1.4649 -0.9273 -2.9840
  121NASP    CG   10   0.945   1.156   4.135 -0.4811  0.4235  0.3982
  121NASP   OD1   11   0.842   1.142   4.062 -0.3415 -0.3754 -0.5687
  121NASP   OD2   12   0.962   1.083   4.234 -0.1207  0.5312  0.8935
  121NASP     C   13   1.161   1.365   4.274  0.1195 -0.2145  0.0432
  121NASP     O   14   1.073   1.338   4.362  0.5856 -0.2825 -0.0937
  122ASN      N   15   1.240   1.474   4.278 -0.0075  0.1995 -0.6224
  122ASN      H   16   1.316   1.489   4.214  0.5297  0.1734 -0.0067
  122ASN     CA   17   1.223   1.587   4.376  0.1018 -0.0555  0.0492
  122ASN     HA   18   1.166   1.560   4.465 -0.4661 -0.9417 -0.5638
  122ASN     CB   19   1.362   1.615   4.438  0.1962  0.0597  0.6986
  122ASN    HB1   20   1.356   1.712   4.487  1.3385 -0.0615  1.1260
  122ASN    HB2   21   1.440   1.620   4.362 -0.6136 -0.7111 -0.1970
  122ASN     CG   22   1.407   1.507   4.547 -0.2997  0.0886  0.0991
  122ASN    OD1   23   1.333   1.424   4.590 -0.0888 -0.1938 -0.1295
  122ASN    ND2   24   1.531   1.506   4.587 -0.4471  0.3117 -0.2403
  122ASN   HD21   25   1.557   1.446   4.664  0.9684 -0.8690 -1.5487
  122ASN   HD22   26   1.596   1.574   4.551  0.3654 -1.1059 -1.6140
  122ASN      C   27   1.163   1.710   4.311 -0.3316  0.2603 -0.0671
  122ASN      O   28   1.206   1.746   4.202  0.0432 -0.1433 -0.4222
  123GLU      N   29   1.066   1.773   4.381  0.2907 -0.4241 -0.3348
  123GLU      H   30   1.066   1.756   4.480 -1.3443  1.1803  0.0064
  123GLU     CA   31   0.985   1.883   4.325  0.2547  0.3464 -0.4550
  123GLU     HA   32   1.039   1.928   4.242  1.8651  0.9598  0.8650
  123GLU     CB   33   0.850   1.835   4.270 -0.0708 -0.0457 -0.6243
  123GLU    HB1   34   0.781   1.918   4.257 -2.5456 -1.6671  1.2320
  123GLU    HB2   35   0.794   1.777   4.344 -1.0840  0.6719 -0.8123
  123GLU     CG   36   0.868   1.742   4.146  0.0250  0.2821 -0.2320
  123GLU    HG1   37   0.921   1.651   4.174 -0.3018  0.6439  1.6651
  123GLU    HG2   38   0.931   1.793   4.073  1.4112  1.3668  1.6508
  123GLU     CD   39   0.731   1.705   4.085  0.3588 -0.4920  0.5408
  123GLU    OE1   40   0.719   1.707   3.962  0.1886  0.1589  0.2087
  123GLU    OE2   41   0.639   1.660   4.154  0.3395 -0.1453 -0.2803
  123GLU      C   42   0.968   1.992   4.430  0.3025 -0.5254 -0.3319
  123GLU      O   43   0.928   1.962   4.540 -0.0532  0.4173 -0.1609
  124ALA      N   44   0.990   2.120   4.395  0.3016 -0.2589  0.3521
  124ALA      H   45   1.026   2.126   4.301 -0.6851 -4.5653 -0.5497
  124ALA     CA   46   0.951   2.242   4.466  0.2609  0.5514 -0.7858
  124ALA     HA   47   1.011   2.244   4.557 -0.0610 -0.5827 -0.5382
  124ALA     CB   48   0.982   2.374   4.390 -0.3865 -0.7857 -1.0505
  124ALA    HB1   49   0.954   2.461   4.449 -1.7538 -1.2098 -1.0420
  124ALA    HB2   50   0.927   2.374   4.296  0.9393 -1.2580 -1.8522
  124ALA    HB3   51   1.089   2.376   4.367  0.2609 -2.2837  1.4325
  124ALA      C   52   0.805   2.240   4.520 -0.1487 -0.4996  0.0013
  124ALA      O   53   0.719   2.189   4.448  0.1115 -0.6555  0.4951
  125TYR      N   54   0.774   2.287   4.639  0.2011  0.3796 -0.4922
  125TYR      H   55   0.846   2.333   4.693 -1.0733  1.6817  0.1551
  125TYR     CA   56   0.635   2.318   4.691  0.1580 -0.2655  0.3958
  125TYR     HA   57   0.571   2.232   4.672  1.8573 -1.5233  0.1431
  125TYR     CB   58   0.633   2.377   4.831  0.5360 -0.1168 -0.8224
  125TYR    HB1   59   0.532   2.402   4.863  0.1405 -1.1228 -1.2316
  125TYR    HB2   60   0.678   2.476   4.830  0.2438  0.0132 -1.1698
  125TYR     CG   61   0.702   2.289   4.940 -0.5968  1.0864  0.1975
  125TYR    CD1   62   0.633   2.194   5.012 -0.0847  0.4021  0.1360
  125TYR    HD1   63   0.526   2.187   4.998 -0.2877  1.9563  0.6529
  125TYR    CE1   64   0.692   2.124   5.110 -0.4599 -0.2013 -0.2555
  125TYR    HE1   65   0.632   2.052   5.165 -0.7833 -1.4917 -2.1861
  125TYR     CZ   66   0.830   2.138   5.132  0.3829 -0.0181 -0.7317
  125TYR     OH   67   0.896   2.064   5.225  0.0422 -0.5936 -0.4736
  125TYR     HH   68   0.829   2.011   5.270  0.1960 -1.3005 -1.0441
  125TYR    CE2   69   0.900   2.241   5.067 -0.7747  0.8360  0.3956
  125TYR    HE2   70   1.004   2.254   5.094  0.1685 -1.4804 -1.6957
  125TYR    CD2   71   0.835   2.318   4.973 -0.8129 -0.9221  0.3787
  125TYR    HD2   72   0.889   2.393   4.917  2.0734 -3.0617  0.0953
  125TYR      C   73   0.574   2.416   4.595  0.4864  0.0733 -0.6042
  125TYR      O   74   0.640   2.477   4.511  0.0256  0.6096 -0.4445
  126GLU      N   75   0.446   2.431   4.609 -0.1516 -0.1733 -0.3930
  126GLU      H   76   0.394   2.395   4.688 -1.0318  2.7403  0.4854
  126GLU     CA   77   0.359   2.518   4.520  0.1995  0.0920  0.3951
  126GLU     HA   78   0.418   2.549   4.433 -1.6454 -1.2763 -1.4604
  126GLU     CB   79   0.235   2.425   4.474 -0.1729 -0.1978  0.4054
  126GLU    HB1   80   0.154   2.486   4.434  1.1019  0.7828 -0.7958
  126GLU    HB2   81   0.201   2.368   4.561 -0.2266 -1.6135 -0.5152
  126GLU     CG   82   0.276   2.326   4.363  0.1083 -0.1622 -0.1002
  126GLU    HG1   83   0.346   2.257   4.410 -0.0398  1.3079  2.4881
  126GLU    HG2   84   0.329   2.387   4.290  2.2403  1.0813  2.3296
  126GLU     CD   85   0.164   2.240   4.305  0.9723 -0.0427 -0.5122
  126GLU    OE1   86   0.055   2.220   4.371 -0.5580 -0.2471 -0.0669
  126GLU    OE2   87   0.178   2.185   4.192  0.1628 -0.3242 -0.1538
  126GLU      C   88   0.304   2.637   4.599  0.2307 -0.0928 -1.5095
  126GLU      O   89   0.284   2.637   4.721  0.1600  0.4799 -0.2507
  127MET      N   90   0.288   2.744   4.523  0.3530 -0.3600  0.0640
  127MET      H   91   0.315   2.737   4.426  0.1686  0.8029 -0.0799
  127MET     CA   92   0.220   2.865   4.564 -0.2146 -0.5042  0.3908
  127MET     HA   93   0.272   2.905   4.651 -0.7670  1.6174 -0.2097
  127MET     CB   94   0.220   2.971   4.450 -0.1051  0.0404 -0.5223
  127MET    HB1   95   0.154   3.052   4.480 -2.7580 -0.8537 -3.4094
  127MET    HB2   96   0.178   2.938   4.355 -1.6636 -1.1762  0.5264
  127MET     CG   97   0.356   3.032   4.444  0.3490 -0.7222  0.2088
  127MET    HG1   98   0.434   2.958   4.423  1.5689  0.4102  0.6319
  127MET    HG2   99   0.380   3.075   4.541  1.5434  0.4279 -0.5637
  127MET     SD  100   0.392   3.162   4.320 -0.5839  0.2312 -0.0517
  127MET     CE  101   0.277   3.287   4.364 -0.2341 -0.5059 -0.3558
  127MET    HE1  102   0.293   3.370   4.295  1.1152  0.0306  0.5426
  127MET    HE2  103   0.300   3.325   4.464  1.0654 -1.7251 -0.1557
  127MET    HE3  104   0.174   3.254   4.353 -0.1877 -1.1410  0.8990
  127MET      C  105   0.072   2.845   4.604 -0.0865  0.0044 -0.2906
  127MET      O  106   0.013   2.746   4.556  0.4239 -0.7928  0.4105
  128PRO      N  107   0.013   2.921   4.696 -0.6090 -0.0163  0.2995
  128PRO     CD  108   0.076   3.031   4.771  0.2785  0.4140 -0.7547
  128PRO    HD1  109   0.137   3.104   4.717 -0.8170  2.7272  0.9912
  128PRO    HD2  110   0.149   2.989   4.840  1.0900  1.7799 -0.7543
  128PRO     CG  111  -0.035   3.113   4.836  0.1192 -0.0746  0.4295
  128PRO    HG1  112  -0.059   3.190   4.763  1.6625 -1.3908 -1.5830
  128PRO    HG2  113  -0.019   3.145   4.938  0.5326  1.3222 -0.0508
  128PRO     CB  114  -0.147   3.012   4.845 -0.1228  0.0844  0.6501
  128PRO    HB1  115  -0.138   2.956   4.939 -0.1802  0.3549  0.8176
  128PRO    HB2  116  -0.249   3.052   4.847 -0.5397 -0.8405  3.4738
  128PRO     CA  117  -0.127   2.905   4.737  0.2888  0.3797  0.2986
  128PRO     HA  118  -0.146   2.808   4.782 -2.3219  0.8880  0.4822
  128PRO      C  119  -0.224   2.926   4.618 -0.4654 -0.0903  0.0195
  128PRO      O  120  -0.191   3.016   4.537  0.2492 -0.2367  0.2146
  129SER      N  121  -0.336   2.850   4.602 -0.0740 -0.0336 -0.3425
  129SER      H  122  -0.359   2.781   4.671  0.6050 -3.2266 -3.0651
  129SER     CA  123  -0.428   2.870   4.493 -0.6376 -0.1803  0.2647
  129SER     HA  124  -0.364   2.891   4.408 -0.4013  0.1112  0.5126
  129SER     CB  125  -0.504   2.749   4.453  0.1214  0.4269 -0.7027
  129SER    HB1  126  -0.536   2.772   4.351 -0.2263  0.9898 -0.4715
  129SER    HB2  127  -0.583   2.734   4.526  0.4314 -1.1630 -0.6655
  129SER     OG  128  -0.418   2.635   4.449 -0.1596  0.0301 -0.1086
  129SER    HG1  129  -0.472   2.561   4.422 -0.8704  0.7407 -0.7271
  129SER      C  130  -0.523   2.998   4.505 -0.3746 -0.3211 -0.4350
  129SER      O  131  -0.540   3.043   4.619  0.2911  0.1164 -0.7319
  130GLU      N  132  -0.570   3.055   4.389  0.6249  0.4597 -0.6945
  130GLU      H  133  -0.544   3.012   4.301 -0.1782 -0.7277 -0.3823
  130GLU     CA  134  -0.682   3.146   4.381  0.1701  0.5092 -0.1182
  130GLU     HA  135  -0.730   3.146   4.479  0.4180  0.4461  0.0042
  130GLU     CB  136  -0.645   3.291   4.360 -0.1130 -0.1996  0.0672
  130GLU    HB1  137  -0.584   3.302   4.270  0.5970  1.9245  0.7480
  130GLU    HB2  138  -0.581   3.316   4.445 -1.0283  2.1550  0.1461
  130GLU     CG  139  -0.760   3.386   4.353  0.1237 -0.0143 -0.0009
  130GLU    HG1  140  -0.822   3.369   4.441  2.3720  1.9454  2.0921
  130GLU    HG2  141  -0.820   3.356   4.266 -0.2269  0.6680  0.0001
  130GLU     CD  142  -0.731   3.534   4.347  0.0148 -0.0145  0.5392
  130GLU    OE1  143  -0.816   3.605   4.406 -0.6614 -0.0232  0.1425
  130GLU    OE2  144  -0.626   3.583   4.296 -0.2632  0.2377  0.4483
  130GLU      C  145  -0.776   3.094   4.276  0.4753 -0.5116  0.3222
  130GLU      O  146  -0.901   3.090   4.292 -0.1955 -0.1737 -0.7460
  131GLU      N  147  -0.723   3.065   4.158 -0.0503  0.0349 -0.8244
  131GLU      H  148  -0.626   3.090   4.142  0.6495 -0.9581  1.4292
  131GLU     CA  149  -0.800   3.017   4.048  0.1284  0.3732  0.1189
  131GLU     HA  150  -0.903   3.051   4.062  0.8548  1.7911  2.7104
  131GLU     CB  151  -0.735   3.064   3.915  0.0403 -0.1149  0.5996
  131GLU    HB1  152  -0.762   3.007   3.826 -2.0515 -0.3843  1.3609
  131GLU    HB2  153  -0.627   3.074   3.930 -0.0311  1.9916  0.0366
  131GLU     CG  154  -0.780   3.207   3.894 -0.0139 -0.5497  0.0299
  131GLU    HG1  155  -0.717   3.257   3.968  1.0252 -2.2102  0.3428
  131GLU    HG2  156  -0.886   3.208   3.920 -0.3720  0.2998 -1.3304
  131GLU     CD  157  -0.769   3.268   3.756 -0.0263  0.2918  0.9510
  131GLU    OE1  158  -0.674   3.233   3.677  0.4056  0.2255  0.2843
  131GLU    OE2  159  -0.847   3.356   3.721 -0.0458  1.3011 -0.3521
  131GLU      C  160  -0.806   2.862   4.046  0.4918  0.0492 -0.1934
  131GLU      O  161  -0.728   2.791   4.112 -0.5602 -0.0170 -0.0683
  132GLY      N  162  -0.887   2.809   3.954  0.4634  0.2997 -0.5465
  132GLY      H  163  -0.951   2.871   3.906 -1.0694 -0.3503  0.5602
  132GLY     CA  164  -0.870   2.670   3.902  0.2156 -0.0140  0.1773
  132GLY    HA1  165  -0.828   2.600   3.974  0.7476  1.2260  1.1078
  132GLY    HA2  166  -0.810   2.685   3.812 -2.5283  0.7745 -1.6457
  132GLY      C  167  -0.995   2.594   3.852  0.1453  0.4304 -0.1002
  132GLY      O  168  -0.979   2.514   3.757 -0.1712 -0.2668  0.2698
  133TYR      N  169  -1.105   2.609   3.913  0.2349 -0.6428  0.7302
  133TYR      H  170  -1.098   2.670   3.993 -0.8066  0.4134  0.0514
  133TYR     CA  171  -1.238   2.552   3.883  0.6750 -0.0295 -0.2019
  133TYR     HA  172  -1.221   2.491   3.794 -0.2245 -2.0183  0.9328
  133TYR     CB  173  -1.275   2.447   3.993 -0.5341 -0.8512  0.6384
  133TYR    HB1  174  -1.312   2.497   4.082 -1.5493 -1.3146  0.4981
  133TYR    HB2  175  -1.181   2.402   4.025 -0.1847 -2.4201 -2.1746
  133TYR     CG  176  -1.368   2.340   3.938  0.1606 -0.1706  0.0850
  133TYR    CD1  177  -1.324   2.219   3.879  0.3057 -0.3694 -0.3700
  133TYR    HD1  178  -1.219   2.193   3.875  0.2943 -0.3264 -1.1323
  133TYR    CE1  179  -1.416   2.124   3.837 -0.5145  0.5071 -0.2717
  133TYR    HE1  180  -1.380   2.029   3.800 -0.5895  0.5873 -0.5542
  133TYR     CZ  181  -1.551   2.154   3.849  0.7032 -0.5585  0.6561
  133TYR     OH  182  -1.632   2.051   3.808  0.1344  0.1237 -0.1090
  133TYR     HH  183  -1.586   1.967   3.802 -2.2260 -1.2468 -0.2731
  133TYR    CE2  184  -1.600   2.276   3.900  0.3888 -0.3728  0.0924
  133TYR    HE2  185  -1.707   2.283   3.911  0.3710  0.8545 -0.8021
  133TYR    CD2  186  -1.506   2.366   3.951  0.5676 -0.1229  0.3060
  133TYR    HD2  187  -1.539   2.461   3.991  1.1248  0.9847 -1.6838
  133TYR      C  188  -1.352   2.646   3.844 -0.4234 -0.6407  0.0951
  133TYR      O  189  -1.366   2.755   3.906  1.0252 -0.3873  0.3848
  134GLN      N  190  -1.435   2.608   3.747  0.1840  0.2181 -0.5128
  134GLN      H  191  -1.431   2.517   3.704 -0.2930  0.5394 -1.2654
  134GLN     CA  192  -1.545   2.691   3.706 -0.0242  0.4923 -0.3404
  134GLN     HA  193  -1.493   2.786   3.691  0.9676  0.3701  1.8784
  134GLN     CB  194  -1.614   2.634   3.583  0.8891  0.4373 -0.2913
  134GLN    HB1  195  -1.541   2.621   3.503  2.2052  1.5193  0.6865
  134GLN    HB2  196  -1.685   2.710   3.549 -0.1442  0.4416  1.7185
  134GLN     CG  197  -1.681   2.496   3.597 -0.3535  0.1351 -0.1466
  134GLN    HG1  198  -1.769   2.488   3.533 -1.1536 -0.5511  0.9936
  134GLN    HG2  199  -1.720   2.489   3.698  0.6126 -1.0662  0.1744
  134GLN     CD  200  -1.590   2.371   3.570 -0.4247 -0.3660 -0.0942
  134GLN    OE1  201  -1.472   2.370   3.598  0.0109  0.1402 -0.2354
  134GLN    NE2  202  -1.657   2.258   3.566 -0.7390 -0.2213 -0.0095
  134GLN   HE21  203  -1.611   2.168   3.576  0.2264  0.3316  0.7200
  134GLN   HE22  204  -1.756   2.274   3.572 -0.3481  2.1065  2.7076
  134GLN      C  205  -1.653   2.722   3.817 -0.5419  0.4278  0.1025
  134GLN      O  206  -1.682   2.638   3.906 -0.4896  0.4885  0.3381
  135ASP      N  207  -1.722   2.836   3.800  0.2994 -0.1843  0.3013
  135ASP      H  208  -1.703   2.889   3.717  2.1243 -1.3380 -0.0738
  135ASP     CA  209  -1.830   2.873   3.889 -0.1581  0.2486 -0.6250
  135ASP     HA  210  -1.786   2.865   3.988  1.5656 -3.3021 -1.5350
  135ASP     CB  211  -1.862   3.023   3.860 -0.2789  0.0989 -0.6159
  135ASP    HB1  212  -1.786   3.083   3.909 -0.9863  0.7000 -0.2401
  135ASP    HB2  213  -1.962   3.045   3.897 -0.7204  0.7082 -2.0998
  135ASP     CG  214  -1.879   3.044   3.707 -0.0589 -0.7226  0.1964
  135ASP    OD1  215  -1.785   3.023   3.626  0.5352  0.1514 -0.1833
  135ASP    OD2  216  -1.985   3.085   3.658 -0.0658 -0.1322  0.3082
  135ASP      C  217  -1.959   2.788   3.887  0.7375  0.2079  0.6622
  135ASP      O  218  -1.991   2.718   3.789 -0.1373  0.5656  0.0352
  136TYR      N  219  -2.034   2.788   3.998 -0.0886 -0.4379 -0.3863
  136TYR      H  220  -2.006   2.855   4.069  0.0781 -0.7143 -0.1930
  136TYR     CA  221  -2.159   2.717   4.010  0.1330 -0.4313  0.0502
  136TYR     HA  222  -2.152   2.613   3.979 -0.8679 -0.6212  0.4165
  136TYR     CB  223  -2.189   2.709   4.162 -0.3191 -0.1375 -1.3423
  136TYR    HB1  224  -2.274   2.771   4.192 -1.3849 -2.5085  0.9127
  136TYR    HB2  225  -2.103   2.745   4.218 -1.4472  0.5049  0.0396
  136TYR     CG  226  -2.217   2.573   4.215  0.2479  0.0018  0.2573
  136TYR    CD1  227  -2.130   2.463   4.198  0.6389 -0.0347  1.5141
  136TYR    HD1  228  -2.027   2.480   4.168  0.1268 -0.0136 -0.3077
  136TYR    CE1  229  -2.160   2.332   4.238  0.8427 -0.1830 -0.3010
  136TYR    HE1  230  -2.096   2.251   4.205  1.3189  0.5028 -1.0952
  136TYR     CZ  231  -2.288   2.297   4.293 -0.3423 -0.2513  0.2104
  136TYR     OH  232  -2.323   2.176   4.344 -0.3078  0.0720  0.0665
  136TYR     HH  233  -2.249   2.115   4.334  1.0755  1.7836 -0.7999
  136TYR    CE2  234  -2.373   2.408   4.314  1.1293 -0.6455 -0.4455
  136TYR    HE2  235  -2.470   2.376   4.348  1.3987 -0.5561  0.4268
  136TYR    CD2  236  -2.343   2.542   4.275 -0.2851 -0.6151  0.1386
  136TYR    HD2  237  -2.416   2.621   4.286  1.0196  0.5442  0.8319
  136TYR      C  238  -2.281   2.777   3.942 -0.4466 -0.5129  0.8747
  136TYR      O  239  -2.271   2.893   3.901  0.0826  0.3241  0.5898
  137GLU      N  240  -2.392   2.709   3.925  0.3580  0.7096 -0.6903
  137GLU      H  241  -2.389   2.615   3.962  2.6281  0.3712 -1.5562
  137GLU     CA  242  -2.516   2.770   3.872 -0.5572  0.7567 -0.0885
  137GLU     HA  243  -2.490   2.810   3.773 -0.7210  1.1302  0.0173
  137GLU     CB  244  -2.623   2.665   3.843 -0.5007  0.5865  0.7110
  137GLU    HB1  245  -2.720   2.709   3.821 -0.2173  0.5417 -0.7641
  137GLU    HB2  246  -2.640   2.598   3.928 -2.1377 -1.4886 -1.1282
  137GLU     CG  247  -2.586   2.571   3.727  0.7849 -0.4355  0.1949
  137GLU    HG1  248  -2.489   2.523   3.740  0.4367 -1.2217 -0.0177
  137GLU    HG2  249  -2.560   2.635   3.643  1.7250 -0.2947  0.5762
  137GLU     CD  250  -2.692   2.466   3.694  0.2825 -0.0943  0.3903
  137GLU    OE1  251  -2.779   2.449   3.779 -0.3289  0.4298 -0.4436
  137GLU    OE2  252  -2.697   2.410   3.584 -0.5159  0.1905  0.2195
  137GLU      C  253  -2.562   2.882   3.953  0.3475 -0.2321  0.0919
  137GLU      O  254  -2.539   2.879   4.079  0.1892  0.2983 -0.2448
  138PRO      N  255  -2.637   2.977   3.891  0.4824 -0.2769 -0.4720
  138PRO     CD  256  -2.669   2.987   3.750 -0.3907  0.2991  0.5815
  138PRO    HD1  257  -2.760   2.934   3.721 -0.8885  0.9610  0.9136
  138PRO    HD2  258  -2.581   2.961   3.692 -0.1948  1.0225  0.5482
  138PRO     CG  259  -2.691   3.135   3.733  0.0571 -0.2232  0.7200
  138PRO    HG1  260  -2.758   3.163   3.652  1.6351  2.7320  0.2879
  138PRO    HG2  261  -2.590   3.177   3.728  0.3464 -1.0334 -0.3944
  138PRO     CB  262  -2.751   3.188   3.864 -0.7162  0.0846  0.3925
  138PRO    HB1  263  -2.720   3.292   3.872 -0.8337  0.2545 -1.1908
  138PRO    HB2  264  -2.859   3.185   3.871 -0.8648  1.9037 -0.6039
  138PRO     CA  265  -2.687   3.097   3.971 -0.2840  0.2594 -0.3170
  138PRO     HA  266  -2.597   3.144   4.011  1.3487 -0.4612 -2.8981
  138PRO      C  267  -2.776   3.058   4.088  0.4888 -0.5077  0.4075
  138PRO      O  268  -2.841   2.955   4.080  0.3697  0.5224 -0.2115
  139GLU      N  269  -2.798   3.154   4.181  0.2532  0.3045 -0.1012
  139GLU      H  270  -2.741   3.236   4.167  1.4646 -0.9724 -3.8261
  139GLU     CA  271  -2.904   3.152   4.282 -0.4682 -0.4527 -0.0866
  139GLU     HA  272  -2.982   3.078   4.263 -1.1750 -0.1532  1.4745
  139GLU     CB  273  -2.842   3.096   4.412  0.1137  0.4521 -0.3318
  139GLU    HB1  274  -2.768   3.166   4.449  0.8132 -0.3978 -0.1008
  139GLU    HB2  275  -2.798   3.001   4.380  1.1812  0.5690  0.7604
  139GLU     CG  276  -2.940   3.076   4.528 -0.2202 -0.3290  0.4636
  139GLU    HG1  277  -3.010   3.000   4.492  0.9337 -1.7076  1.0329
  139GLU    HG2  278  -2.991   3.170   4.551 -0.1419 -0.5525  1.6466
  139GLU     CD  279  -2.880   3.019   4.658  0.2798 -0.2322  0.0028
  139GLU    OE1  280  -2.768   2.972   4.661  0.2004  0.1085  0.7514
  139GLU    OE2  281  -2.958   3.005   4.751 -0.0183  0.2895 -0.6518
  139GLU      C  282  -2.967   3.290   4.299 -0.4323  0.1968  0.0629
  139GLU      O  283  -2.895   3.391   4.298 -0.4287 -0.0234 -0.8741
  140CALA     N  284  -3.100   3.300   4.324  0.1787  0.2113  0.5032
  140CALA     H  285  -3.146   3.210   4.327 -0.6596  0.6270  0.3979
  140CALA    CA  286  -3.177   3.428   4.333  0.3529  0.1785 -0.5452
  140CALA    HA  287  -3.124   3.494   4.264  0.0298  1.5708  0.4961
  140CALA    CB  288  -3.314   3.404   4.271  0.8675  0.6615  0.0576
  140CALA   HB1  289  -3.369   3.498   4.271  2.5390  1.6745  0.7017
  140CALA   HB2  290  -3.371   3.335   4.333  0.6239  1.4669  0.7630
  140CALA   HB3  291  -3.292   3.381   4.167  0.5341  2.1270 -0.3644
  140CALA     C  292  -3.195   3.489   4.478 -0.0743 -0.1789  0.9507
  140CALA   OC1  293  -3.220   3.418   4.577  0.5918  0.0600 -0.2705
  140CALA   OC2  294  -3.164   3.611   4.491  0.2871 -0.1830 -0.4778
  141FAS      C  295   4.536   2.901   2.828 -0.2178 -0.0067  0.4068
  141FAS     C1  296   4.501   2.824   2.701  0.1456  0.6419  0.3946
  141FAS      N  297   4.605   2.717   2.664 -0.0074  0.2571 -0.5613
  141FAS     C2  298   4.621   2.593   2.764 -0.0041 -0.4671  0.0206
  141FAS     C3  299   4.544   2.587   2.891 -0.0351 -0.4003 -0.2690
  141FAS     N1  300   4.565   2.702   2.980  0.4830  0.0011  0.0619
  141FAS     C4  301   4.484   2.822   2.948 -0.3612  0.1598  0.2226
  141FAS      S  302   4.566   2.663   3.149  0.6335  0.1795 -0.2632
  141FAS      O  303   4.640   2.775   3.209 -0.1808  0.1635 -0.4551
  141FAS     O1  304   4.426   2.638   3.187 -0.0917  0.3000  0.2047
  141FAS     C5  305   4.680   2.527   3.176 -0.2962  0.1133 -0.2688
  141FAS     C6  306   4.626   2.401   3.207  0.0989  0.0629 -0.3723
  141FAS     C7  307   4.701   2.288   3.234  0.2494 -0.3365  0.4895
  141FAS     C8  308   4.835   2.298   3.225  0.3736 -0.6163 -0.1868
  141FAS     C9  309   4.894   2.423   3.196  0.1106  0.0922 -1.0255
  141FAS    C10  310   4.821   2.538   3.161 -0.1289  0.2628 -0.4755
  141FAS    C11  311   4.891   2.649   3.108  0.4553  0.8594  0.3707
  141FAS    C12  312   5.030   2.649   3.109  0.5583  0.5422  0.3108
  141FAS     N2  313   5.100   2.540   3.154 -0.3620  0.1156 -0.3055
  141FAS    C13  314   5.029   2.434   3.194 -0.5164  0.0995  0.5540
  141FAS      H  315   4.492   3.002   2.826 -0.9904 -0.3414  0.1049
  141FAS     H1  316   4.644   2.916   2.838 -0.4843  3.3446 -0.4655
  141FAS     H2  317   4.493   2.899   2.622  3.2782 -0.6985 -1.3656
  141FAS     H3  318   4.406   2.772   2.718  0.8676 -1.3119 -1.1138
  141FAS     H4  319   4.590   2.690   2.565  2.3674  2.8756 -1.8044
  141FAS     H5  320   4.715   2.603   2.818 -1.1194  2.9100  1.6021
  141FAS     H6  321   4.620   2.499   2.708  1.1950 -0.5289  0.0790
  141FAS     H7  322   4.571   2.495   2.943 -2.1878  0.1042  1.9599
  141FAS     H8  323   4.437   2.568   2.880 -0.3991  0.6611  1.1698
  141FAS     H9  324   4.495   2.886   3.036  0.6610  0.4643 -0.1058
  141FAS    H10  325   4.377   2.801   2.949 -0.3287 -0.0492  1.8108
  141FAS    H11  326   4.519   2.387   3.207  0.1828 -0.7613 -1.7031
  141FAS    H12  327   4.656   2.190   3.247 -0.4679 -0.4456 -2.1202
  141FAS    H13  328   4.901   2.213   3.242 -0.2876 -0.8664  1.3375
  141FAS    H14  329   4.831   2.730   3.068 -0.5390 -0.4921 -1.0339
  141FAS    H15  330   5.084   2.734   3.067 -0.4127  0.1623 -1.8659
  141FAS    H16  331   5.085   2.350   3.234 -1.3695 -0.9462 -0.3856
  141FAS    H17  332   4.699   2.760   2.658 -0.8345  2.6113  1.4976
  142SOL     OW  333   4.730   2.560   4.179  0.4718  0.1763 -0.0033
  142SOL    HW2  334   4.752   2.616   4.105  2.0216  0.5180  0.6848
  142SOL    HW3  335   4.711   2.621   4.251 -0.1121 -0.1633  0.1392
  142SOL    MW4  336   4.730   2.576   4.179 -0.1228  0.1794  0.7490
  143SOL     OW  337   2.467   4.869   6.268 -0.3173 -0.0159 -0.4684
  143SOL    HW2  338   2.458   4.931   6.196 -0.0114 -0.3235 -0.7749
  143SOL    HW3  339   2.380   4.866   6.308 -0.7887 -0.6739 -1.5023
  143SOL    MW4  340   2.454   4.877   6.264  0.1344  0.1077 -0.2597
  144SOL     OW  341   0.051   4.147   0.276 -0.2793 -0.2696  0.1014
  144SOL    HW2  342   0.058   4.089   0.352 -0.1863  2.0444  1.9620
  144SOL    HW3  343   0.139   4.182   0.264 -0.4393 -0.1077 -0.6640
  144SOL    MW4  344   0.063   4.144   0.285 -0.3778  0.6309 -0.1228
  145SOL     OW  345   2.074   6.015   1.088  0.0426  0.2246  0.1585
  145SOL    HW2  346   2.063   6.054   1.175 -1.7125 -1.0545  0.5604
  145SOL    HW3  347   2.122   5.934   1.105 -1.4098 -0.6701  0.1492
  145SOL    MW4  348   2.079   6.010   1.102 -0.2474 -0.3877  0.0564
  146SOL     OW  349   4.355   1.495   3.035  0.7408  0.3681  0.1823
  146SOL    HW2  350   4.270   1.495   3.078  1.2812 -1.3450  1.3633
  146SOL    HW3  351   4.349   1.424   2.971  0.7005  1.4432 -1.0581
  146SOL    MW4  352   4.343   1.485   3.032 -0.0524  0.0317  0.0415
  147SOL     OW  353   5.667   5.435   1.799 -0.4644  0.2267  0.9131
  147SOL    HW2  354   5.604   5.465   1.733 -0.6644 -3.1473 -0.6380
  147SOL    HW3  355   5.654   5.495   1.873 -1.3227  3.2460 -1.4487
  147SOL    MW4  356   5.657   5.447   1.800 -0.0998 -0.0201 -0.3475
  148SOL     OW  357   3.446   4.138   4.209  0.0821  0.0636 -0.2465
  148SOL    HW2  358   3.516   4.146   4.274  0.0709 -2.5355  0.2096
  148SOL    HW3  359   3.444   4.044   4.188 -1.2343  0.5297 -2.5508
  148SOL    MW4  360   3.455   4.127   4.215 -0.1933 -0.2918 -0.5140
  149SOL     OW  361   5.865   3.039   5.304  0.5623 -0.0981 -0.5579
  149SOL    HW2  362   5.774   3.041   5.335  0.1340 -1.0761 -1.6962
  149SOL    HW3  363   5.879   3.125   5.265  0.7292  0.7216  1.1731
  149SOL    MW4  364   5.855   3.050   5.303 -0.0076  0.0800  0.3357
  150SOL     OW  365   3.277   4.346   2.939 -0.9007 -0.0117  0.3938
  150SOL    HW2  366   3.223   4.425   2.943  1.7904  1.9844  0.2097
  150SOL    HW3  367   3.359   4.371   2.982  1.1564 -1.7387 -2.2432
  150SOL    MW4  368   3.280   4.360   2.946 -0.1236 -0.3665 -0.1470
  151SOL     OW  369   1.919   5.851   6.071  0.2661  0.0008 -0.1854
  151SOL    HW2  370   1.963   5.798   6.005 -0.9879  0.7470 -1.7105
  151SOL    HW3  371   1.984   5.916   6.098  0.0748  1.4671 -2.8312
  151SOL    MW4  372   1.933   5.853   6.066  0.3201  0.6501  0.1615
  152SOL     OW  373   5.621   4.312   6.111  0.1080  0.5708 -0.6123
  152SOL    HW2  374   5.546   4.362   6.144  0.3120 -0.5481  1.8032
  152SOL    HW3  375   5.584   4.254   6.045 -1.4277 -0.6265  1.1879
  152SOL    MW4  376   5.606   4.311   6.107  0.4161 -0.0814  0.0522
  153SOL     OW  377   2.879   3.918   1.700 -0.5780  0.7695  0.1292
  153SOL    HW2  378   2.934   3.953   1.771  2.5275  1.1219 -2.2139
  153SOL    HW3  379   2.904   3.969   1.623 -2.9414 -0.3563 -1.5072
  153SOL    MW4  380   2.890   3.930   1.699 -0.3834 -0.1723  0.0810
  154SOL     OW  381   4.454   1.813   5.940  0.4879  0.1359 -0.4568
  154SOL    HW2  382   4.543   1.833   5.969 -0.3809  0.0398  2.6343
  154SOL    HW3  383   4.436   1.875   5.870  2.7967  0.4707 -0.8154
  154SOL    MW4  384   4.463   1.824   5.935 -0.1494  0.0844  0.3735
  155SOL     OW  385   0.088   3.906   2.882  0.0121  1.2224  0.7190
  155SOL    HW2  386   0.171   3.865   2.858 -1.3351 -1.4878  0.2234
  155SOL    HW3  387   0.079   3.887   2.976 -1.2341 -1.0485  0.2230
  155SOL    MW4  388   0.098   3.898   2.892 -0.3302  0.2698 -0.4044
  156SOL     OW  389   1.806   0.691   3.523 -0.1796  0.3759 -0.3045
  156SOL    HW2  390   1.872   0.677   3.591  0.8487  2.7029 -0.7458
  156SOL    HW3  391   1.750   0.760   3.558 -2.1180 -1.1558 -0.1904
  156SOL    MW4  392   1.807   0.698   3.536  0.7529 -0.0239  0.0760
  157SOL     OW  393   4.322   5.947   1.156 -0.6239  0.5121  0.0663
  157SOL    HW2  394   4.326   5.959   1.251 -1.5838  0.8712  0.0767
  157SOL    HW3  395   4.243   5.995   1.130 -1.1145 -0.6839 -0.7276
  157SOL    MW4  396   4.312   5.955   1.165 -0.4279 -0.3429 -0.2751
  158SOL     OW  397   4.421   5.085   5.767 -0.0252 -0.2876 -0.0500
  158SOL    HW2  398   4.508   5.100   5.804 -0.3494  2.0047 -0.0445
  158SOL    HW3  399   4.365   5.070   5.843  0.0288  0.2802  0.1068
  158SOL    MW4  400   4.425   5.085   5.782 -0.5959  0.2028  0.0193
  159SOL     OW  401   3.166   4.197   3.444 -0.0960  0.2312 -0.7553
  159SOL    HW2  402   3.192   4.259   3.513 -0.5291  0.0351 -0.4118
  159SOL    HW3  403   3.248   4.177   3.398  0.1653  0.5153 -0.4210
  159SOL    MW4  404   3.180   4.203   3.447  0.2191  0.2435  0.0405
  160SOL     OW  405   5.341   1.569   3.893 -0.2279 -0.4530 -0.3846
  160SOL    HW2  406   5.296   1.544   3.973  0.1614 -0.2690 -0.1064
  160SOL    HW3  407   5.429   1.594   3.921  0.3761 -1.7823 -1.0434
  160SOL    MW4  408   5.347   1.569   3.907  0.7999 -0.3450 -0.1919
  161SOL     OW  409   1.012   4.603   0.917 -0.1690  0.1189  0.4513
  161SOL    HW2  410   1.062   4.571   0.992  1.6908  0.5483 -0.5376
  161SOL    HW3  411   1.062   4.573   0.840 -1.9625 -0.2308 -0.6358
  161SOL    MW4  412   1.025   4.595   0.917 -0.5831 -0.1558 -0.4494
  162SOL     OW  413   5.473   2.849   0.961 -0.6416 -0.1774 -0.0628
  162SOL    HW2  414   5.379   2.833   0.975 -0.8415  2.0156  1.8046
  162SOL    HW3  415   5.515   2.808   1.036 -0.2873  0.1615 -0.0732
  162SOL    MW4  416   5.466   2.842   0.973  0.4809  0.4230  0.1768
  163SOL     OW  417   4.389   6.409   3.871 -0.3927  0.2415  0.2044
  163SOL    HW2  418   4.370   6.423   3.778  0.0808  0.2840  0.1120
  163SOL    HW3  419   4.397   6.498   3.908  1.9743  0.2893 -0.2519
  163SOL    MW4  420   4.388   6.423   3.864 -0.8360  0.1921 -0.5981
  164SOL     OW  421   5.526   5.862   0.162  0.4304  0.0226 -0.2407
  164SOL    HW2  422   5.432   5.873   0.147  0.4335 -1.2594 -1.4058
  164SOL    HW3  423   5.534   5.846   0.256 -0.8484 -2.4368 -0.4604
  164SOL    MW4  424   5.515   5.861   0.172  0.0396 -0.6292  0.2014
  165SOL     OW  425   3.249   6.067   0.202  0.6965 -0.1979  0.0097
  165SOL    HW2  426   3.215   6.136   0.144  0.0960  0.3691  0.9976
  165SOL    HW3  427   3.226   6.097   0.290  0.4606 -1.6490  0.4683
  165SOL    MW4  428   3.241   6.080   0.206  0.1742  0.1572  0.3092
  166SOL     OW  429   1.885   2.275   1.036 -1.3777  0.0195 -0.1401
  166SOL    HW2  430   1.815   2.330   1.002 -0.5452  0.9536 -0.3832
  166SOL    HW3  431   1.963   2.330   1.032 -0.4195 -1.3390 -0.8545
  166SOL    MW4  432   1.886   2.289   1.031 -0.4984  0.0600  0.3519
  167SOL     OW  433   0.430   1.643   1.526  0.0476  0.0015 -0.2735
  167SOL    HW2  434   0.388   1.616   1.444  0.3215  2.4441 -1.3184
  167SOL    HW3  435   0.489   1.571   1.547 -0.7156 -1.1134 -1.6941
  167SOL    MW4  436   0.432   1.630   1.518 -1.2199  0.1872  0.0530
  168SOL     OW  437   1.656   4.717   3.078 -0.4168  0.3535 -0.3286
  168SOL    HW2  438   1.638   4.803   3.115  0.0451  0.4482 -0.3151
  168SOL    HW3  439   1.747   4.699   3.104 -0.1123  0.3895 -1.3473
  168SOL    MW4  440   1.666   4.726   3.087  0.0982 -0.2953 -0.6390
  169SOL     OW  441   4.564   0.354   2.011 -0.3920  0.3167  0.0500
  169SOL    HW2  442   4.567   0.449   2.000  0.7662  0.2238 -0.7108
  169SOL    HW3  443   4.656   0.327   2.004 -0.7404 -0.8839 -0.0561
  169SOL    MW4  444   4.576   0.363   2.008 -0.2918 -0.7762 -0.4016
  170SOL     OW  445   3.473   6.084   0.791 -0.8617 -0.0323 -0.0934
  170SOL    HW2  446   3.460   6.047   0.878 -0.8319  1.8567  0.7515
  170SOL    HW3  447   3.389   6.070   0.746 -1.0383 -0.5675  0.3894
  170SOL    MW4  448   3.460   6.077   0.796  0.3150  0.1557  0.2439
  171SOL     OW  449   1.699   5.309   3.829  0.5314 -0.2659 -0.0246
  171SOL    HW2  450   1.701   5.272   3.917  0.8446 -0.1840  0.0036
  171SOL    HW3  451   1.613   5.351   3.822  0.5770 -0.1165  0.3054
  171SOL    MW4  452   1.688   5.310   3.840 -0.2086  0.4583 -0.4403
  172SOL     OW  453   5.664   0.789   6.123 -0.5713 -0.2178 -0.2585
  172SOL    HW2  454   5.658   0.860   6.187 -2.8014 -0.5788 -0.0126
  172SOL    HW3  455   5.600   0.811   6.056 -0.5272 -1.4604 -0.7340
  172SOL    MW4  456   5.655   0.801   6.123  0.5190 -0.5135  0.0859
  173SOL     OW  457   0.830   4.317   3.105 -0.0993  0.0474 -0.2726
  173SOL    HW2  458   0.782   4.269   3.037 -0.8370  0.0430  0.2451
  173SOL    HW3  459   0.887   4.376   3.055  0.9760 -1.4680 -0.9260
  173SOL    MW4  460   0.832   4.319   3.089 -0.5333 -0.1072 -0.1934
  174SOL     OW  461   4.515   4.771   2.805  0.7908 -0.1972 -0.2714
  174SOL    HW2  462   4.505   4.697   2.865  1.1613 -0.3053 -0.3397
  174SOL    HW3  463   4.493   4.848   2.857 -1.3451 -0.4811 -0.6635
  174SOL    MW4  464   4.511   4.771   2.820  0.4047  0.4578  0.6838
  175SOL     OW  465   3.002   0.882   0.838 -0.9629  0.6021  0.1469
  175SOL    HW2  466   3.034   0.885   0.748  0.1565 -1.7596  0.4094
  175SOL    HW3  467   3.080   0.862   0.891 -1.9890 -0.3244  1.3707
  175SOL    MW4  468   3.017   0.880   0.833 -0.3328  0.2753 -0.1745
  176SOL     OW  469   1.670   1.964   0.521 -0.3180 -0.2511 -0.2368
  176SOL    HW2  470   1.641   1.918   0.599  1.0235  0.2746  0.6166
  176SOL    HW3  471   1.702   1.896   0.463 -2.7913 -0.8135 -1.0694
  176SOL    MW4  472   1.670   1.949   0.524  0.7398 -0.2066  0.1163
  177SOL     OW  473   5.093   1.104   3.595 -0.0582  0.0601 -0.7402
  177SOL    HW2  474   5.080   1.064   3.509 -0.1703  1.1730 -1.2590
  177SOL    HW3  475   5.172   1.063   3.628 -1.2724 -2.1039 -0.3315
  177SOL    MW4  476   5.102   1.093   3.588  1.0003  0.6061 -0.0552
  178SOL     OW  477   5.816   2.277   5.826 -0.0197  0.4428 -0.4256
  178SOL    HW2  478   5.882   2.345   5.820  1.7580 -1.2326 -1.0242
  178SOL    HW3  479   5.866   2.195   5.831 -2.0492 -0.8720 -0.3409
  178SOL    MW4  480   5.831   2.275   5.826  0.6385  0.1896 -0.2467
  179SOL     OW  481   0.493   4.544   4.077  0.3004 -0.1733  0.5458
  179SOL    HW2  482   0.573   4.523   4.126 -1.7512 -1.6419  3.5336
  179SOL    HW3  483   0.444   4.603   4.134 -1.0966  0.1704 -0.9190
  179SOL    MW4  484   0.497   4.549   4.091  0.3234 -1.1866  0.6561
  180SOL     OW  485   3.265   3.811   1.521  0.2042 -0.6357  0.0756
  180SOL    HW2  486   3.250   3.791   1.614  0.4330  0.3083  0.3215
  180SOL    HW3  487   3.320   3.889   1.522  1.0412 -1.1947 -0.8530
  180SOL    MW4  488   3.270   3.819   1.534 -0.3283  0.5882  0.2120
  181SOL     OW  489   5.362   0.084   1.323 -0.2773 -0.0404 -0.7434
  181SOL    HW2  490   5.425   0.020   1.355  2.1455  2.5187  0.0578
  181SOL    HW3  491   5.382   0.164   1.373  0.1543  2.7116 -4.7970
  181SOL    MW4  492   5.373   0.086   1.334  0.1544 -0.2385 -0.2180
  182SOL     OW  493   3.714   3.360   2.060 -0.4624  0.1756  0.1841
  182SOL    HW2  494   3.633   3.352   2.010 -1.3054  1.8834  1.1723
  182SOL    HW3  495   3.750   3.445   2.035 -0.1097  0.3803  1.3292
  182SOL    MW4  496   3.708   3.370   2.050  0.5798  0.7569 -0.3733
  183SOL     OW  497   2.409   2.250   4.256 -0.0548 -0.3310 -0.0058
  183SOL    HW2  498   2.324   2.284   4.283  0.3796  0.6385  0.1825
  183SOL    HW3  499   2.445   2.317   4.197  0.1872 -1.1595 -0.8269
  183SOL    MW4  500   2.403   2.263   4.252 -0.1627 -0.6733  0.2898
  184SOL     OW  501   2.106   5.153   5.115  0.1054 -0.5111 -0.3728
  184SOL    HW2  502   2.143   5.237   5.145 -0.7911 -0.5771  1.0294
  184SOL    HW3  503   2.177   5.090   5.124  0.4428 -0.1248 -0.3202
  184SOL    MW4  504   2.120   5.156   5.120  0.2907 -0.9456 -0.4885
  185SOL     OW  505   2.267   2.085   5.266  0.0970 -0.0474  0.1503
  185SOL    HW2  506   2.203   2.047   5.206 -0.2402  1.8617 -0.8035
  185SOL    HW3  507   2.217   2.150   5.316  0.8122 -0.1886  1.0646
  185SOL    MW4  508   2.252   2.089   5.265  0.1317  0.2558 -0.2511
  186SOL     OW  509   6.066   5.973   0.402  0.0026  0.5044 -0.3945
  186SOL    HW2  510   6.086   6.063   0.379 -0.6817  1.0523  1.0365
  186SOL    HW3  511   5.973   5.974   0.426  0.0628 -0.5062 -0.0658
  186SOL    MW4  512   6.057   5.985   0.402 -0.6175 -0.3759  0.1978
  187SOL     OW  513   3.985   4.036   0.216  0.3742 -0.0315  0.4067
  187SOL    HW2  514   3.934   3.963   0.181 -0.8132  0.2249  1.5077
  187SOL    HW3  515   3.971   4.108   0.155  0.1874 -0.2455  0.1974
  187SOL    MW4  516   3.976   4.036   0.204 -0.1368  0.0228 -0.9461
  188SOL     OW  517   5.853   0.543   1.437  0.2925  0.1133  0.2396
  188SOL    HW2  518   5.839   0.591   1.519 -0.7452 -0.9726  0.7177
  188SOL    HW3  519   5.816   0.600   1.369  0.0658  0.4799  0.6688
  188SOL    MW4  520   5.847   0.557   1.439 -0.3749 -0.0063 -0.0913
  189SOL     OW  521   3.052   3.117   3.798 -0.3929 -0.1676  0.0375
  189SOL    HW2  522   3.092   3.043   3.752  0.3704  0.0294  0.3681
  189SOL    HW3  523   3.123   3.155   3.850 -0.1888  2.1539 -1.7720
  189SOL    MW4  524   3.067   3.112   3.799  0.6601  0.3292  0.0686
  190SOL     OW  525   2.706   3.355   6.378 -0.2171 -0.5086 -0.4293
  190SOL    HW2  526   2.657   3.435   6.359 -1.9411 -1.6224 -0.9422
  190SOL    HW3  527   2.663   3.288   6.324  1.4223 -1.7025 -0.2965
  190SOL    MW4  528   2.694   3.357   6.368 -0.2416  0.0847 -0.6481
  191SOL     OW  529   0.803   3.871   4.063  0.2581 -0.3679  0.4355
  191SOL    HW2  530   0.722   3.832   4.094  0.7775 -1.9095 -0.0704
  191SOL    HW3  531   0.779   3.914   3.980  0.0505 -1.3097 -0.0082
  191SOL    MW4  532   0.789   3.872   4.056  0.2807 -0.1973 -0.0012
  192SOL     OW  533   0.737   5.782   0.890 -0.2984  0.0394  0.5197
  192SOL    HW2  534   0.732   5.876   0.872 -0.9165  0.4213  2.3841
  192SOL    HW3  535   0.825   5.769   0.925  0.0118 -0.2045 -0.3452
  192SOL    MW4  536   0.748   5.793   0.892  0.2407 -0.0645  0.3319
  193SOL     OW  537   2.213   0.779   1.706  0.0785 -0.1169 -0.4531
  193SOL    HW2  538   2.172   0.823   1.781 -0.9734  0.4098 -1.3248
  193SOL    HW3  539   2.159   0.802   1.631  1.1975 -0.5272 -1.4247
  193SOL    MW4  540   2.201   0.788   1.706  1.1859 -0.3031 -0.4175
  194SOL     OW  541   5.823   5.171   5.900  0.3916  0.1178 -0.3988
  194SOL    HW2  542   5.745   5.182   5.846  1.2995 -1.3365 -2.0838
  194SOL    HW3  543   5.813   5.084   5.939 -0.4347  1.2643  2.2267
  194SOL    MW4  544   5.812   5.161   5.898 -0.2413 -0.1587  0.3683
  195SOL     OW  545   5.264   5.314   0.456 -0.2576 -0.4440  0.1518
  195SOL    HW2  546   5.356   5.335   0.474 -0.1458 -0.3134 -0.5183
  195SOL    HW3  547   5.266   5.225   0.421 -0.1431  0.2462 -1.6901
  195SOL    MW4  548   5.277   5.305   0.454 -0.3252  0.4194 -0.3283
  196SOL     OW  549   2.416   0.018   3.427 -0.1758  0.3843 -0.4834
  196SOL    HW2  550   2.425  -0.051   3.362 -0.9657 -0.0689 -0.1215
  196SOL    HW3  551   2.491   0.005   3.486 -0.0631  0.1270 -0.6824
  196SOL    MW4  552   2.427   0.007   3.426  0.0126  0.3659 -0.5153
  197SOL     OW  553   3.343   4.330   3.880  0.0484  0.3051  0.1689
  197SOL    HW2  554   3.253   4.311   3.905  0.1017  0.1209  0.2236
  197SOL    HW3  555   3.356   4.422   3.904 -0.1883  0.3906 -0.0267
  197SOL    MW4  556   3.333   4.339   3.886  0.0511 -0.2535 -0.1118
  198SOL     OW  557   1.991   1.310   4.099 -0.4076  0.1289  0.1092
  198SOL    HW2  558   1.968   1.403   4.103  0.1637  0.2471  0.6794
  198SOL    HW3  559   1.949   1.279   4.018 -0.3475  0.9472 -0.2439
  198SOL    MW4  560   1.982   1.318   4.089  0.0139 -0.2886 -0.2438
  199SOL     OW  561   5.773   0.088   4.629  0.4864  0.2342 -0.3546
  199SOL    HW2  562   5.738   0.001   4.644 -0.3095  0.4788 -0.7880
  199SOL    HW3  563   5.742   0.113   4.542 -0.1625  1.3553  0.1688
  199SOL    MW4  564   5.765   0.080   4.620  0.6163  0.1909  0.1716
  200SOL     OW  565   5.557   5.365   0.516  0.3840  0.2858  0.4693
  200SOL    HW2  566   5.514   5.414   0.586 -0.0212 -0.5886  0.8521
  200SOL    HW3  567   5.645   5.346   0.550  0.2774  0.0875  0.6353
  200SOL    MW4  568   5.563   5.369   0.530 -0.1610 -0.5659 -0.6569
  201SOL     OW  569   1.796   4.343   3.090  0.2522  0.1088 -0.7234
  201SOL    HW2  570   1.849   4.280   3.040 -1.2321 -0.1089 -2.0771
  201SOL    HW3  571   1.796   4.307   3.179  1.8538 -0.2041 -0.8065
  201SOL    MW4  572   1.803   4.330   3.096  0.0337  0.4459  0.0532
  202SOL     OW  573   4.190   6.040   5.881  0.3290  0.1242  0.5041
  202SOL    HW2  574   4.117   5.993   5.921 -0.4072  2.1696  1.6736
  202SOL    HW3  575   4.158   6.065   5.795  0.7330 -1.4250 -0.1408
  202SOL    MW4  576   4.176   6.037   5.875 -0.1097 -0.1300  0.1707
  203SOL     OW  577   0.834   0.429   3.208  0.3208 -0.3280 -0.0797
  203SOL    HW2  578   0.833   0.347   3.258 -1.3337 -0.2043  0.1741
  203SOL    HW3  579   0.886   0.489   3.260  0.8455 -0.9804  0.1564
  203SOL    MW4  580   0.841   0.426   3.221 -0.3174  0.5345  0.3158
  204SOL     OW  581   4.824   4.463   1.236  0.3363 -0.1918 -0.0013
  204SOL    HW2  582   4.914   4.488   1.215  0.0070  1.4888  0.4793
  204SOL    HW3  583   4.791   4.425   1.155  1.9260 -2.2855  0.2425
  204SOL    MW4  584   4.832   4.461   1.223  0.5909  0.4153 -0.1681
  205SOL     OW  585   2.130   0.473   1.012 -0.3683  0.5078  0.0068
  205SOL    HW2  586   2.124   0.382   1.042  0.1050  0.4851  0.0318
  205SOL    HW3  587   2.204   0.474   0.952 -0.1453  0.9562  0.2831
  205SOL    MW4  588   2.139   0.461   1.008 -0.7707  0.5875  0.6555
  206SOL     OW  589   2.368   6.395   5.703  0.3790  0.1616 -0.3040
  206SOL    HW2  590   2.357   6.408   5.797  0.3639 -0.0606 -0.2741
  206SOL    HW3  591   2.289   6.432   5.664 -0.3008 -1.0232 -0.1219
  206SOL    MW4  592   2.356   6.402   5.710  0.2918 -0.3769 -0.3772
  207SOL     OW  593   1.031   6.238   4.243 -0.0231 -0.3535  0.0029
  207SOL    HW2  594   0.983   6.254   4.162  1.4572 -0.6233 -0.9784
  207SOL    HW3  595   1.086   6.162   4.224  0.3128 -0.4652  1.2890
  207SOL    MW4  596   1.032   6.230   4.230  0.6076  0.0030 -0.1387
  208SOL     OW  597   1.821   1.373   5.296  0.6539  0.0572 -0.1449
  208SOL    HW2  598   1.775   1.320   5.360  1.6838  0.5628  1.0720
  208SOL    HW3  599   1.807   1.329   5.213  0.7911 -1.6504  0.7012
  208SOL    MW4  600   1.813   1.360   5.294  0.0146 -0.4758 -0.5499
  209SOL     OW  601   3.374   3.098   2.398 -0.2812 -0.0473 -0.2927
  209SOL    HW2  602   3.466   3.073   2.395  0.2421  1.7937 -2.3534
  209SOL    HW3  603   3.344   3.069   2.484  2.0667 -1.1636  0.2235
  209SOL    MW4  604   3.382   3.091   2.409  0.5311 -0.2389 -0.0805
  210SOL     OW  605   3.747   1.666   6.148 -0.4795  0.1985  0.1299
  210SOL    HW2  606   3.825   1.695   6.196  0.0222  1.1681 -1.2207
  210SOL    HW3  607   3.741   1.572   6.168 -1.8165  0.9425  4.1705
  210SOL    MW4  608   3.757   1.657   6.157 -0.7915 -0.3778 -0.0417
  211SOL     OW  609   2.222   0.239   5.977  0.7089  0.1626  0.3359
  211SOL    HW2  610   2.227   0.335   5.977 -0.0886  0.2171  0.0390
  211SOL    HW3  611   2.161   0.219   5.905  1.0973 -0.5807  0.2106
  211SOL    MW4  612   2.214   0.249   5.967 -0.1123  0.2688 -0.1326
  212SOL     OW  613   3.976   0.308   4.770 -0.4091  0.0635 -0.3874
  212SOL    HW2  614   3.933   0.376   4.717 -0.1287 -0.2494 -1.0250
  212SOL    HW3  615   4.020   0.253   4.706  0.8143  0.2841  0.2466
  212SOL    MW4  616   3.976   0.310   4.754 -0.1869  0.2885  0.6356
  213SOL     OW  617   2.876   2.075   2.689  0.4130  0.1791  0.7317
  213SOL    HW2  618   2.795   2.126   2.686  0.4848  0.3782  1.7865
  213SOL    HW3  619   2.932   2.122   2.750  1.1493 -0.2150  0.3712
  213SOL    MW4  620   2.873   2.088   2.697  0.0854 -0.5974 -0.1312
  214SOL     OW  621   4.320   1.017   1.444  0.1869  0.3194  0.6520
  214SOL    HW2  622   4.364   0.945   1.490  2.5479  1.7200  0.7596
  214SOL    HW3  623   4.296   0.979   1.359  0.4227 -0.8747  1.0979
  214SOL    MW4  624   4.323   1.002   1.439 -0.0891  0.3490  0.5760
  215SOL     OW  625   5.795   2.473   6.240 -0.2796  0.3914 -0.0851
  215SOL    HW2  626   5.878   2.433   6.213 -0.3235  1.1488 -1.4603
  215SOL    HW3  627   5.740   2.399   6.264  0.9955 -0.0907  1.5276
  215SOL    MW4  628   5.799   2.458   6.239  0.1093  0.2353  0.0415
  216SOL     OW  629   0.074   2.912   4.131  0.2459 -0.0703 -0.0135
  216SOL    HW2  630   0.165   2.929   4.105  0.1089 -1.2299 -1.3918
  216SOL    HW3  631   0.060   2.820   4.109 -1.3720  0.1904 -0.1870
  216SOL    MW4  632   0.084   2.902   4.124 -0.3273 -0.0384 -0.0982
  217SOL     OW  633   0.323   2.766   0.233  0.1093 -0.6101 -0.0316
  217SOL    HW2  634   0.284   2.689   0.276 -0.2864 -0.4128 -0.0313
  217SOL    HW3  635   0.285   2.766   0.145  0.6700 -0.8264 -0.2760
  217SOL    MW4  636   0.313   2.756   0.227 -0.4537 -0.2077  0.3488
  218SOL     OW  637   0.461   2.531   2.065  0.0184 -0.2846 -0.5636
  218SOL    HW2  638   0.540   2.567   2.025  0.5668 -2.2868 -1.4418
  218SOL    HW3  639   0.469   2.436   2.052 -1.6902 -0.6845  0.8984
  218SOL    MW4  640   0.473   2.523   2.058 -0.2347  0.0063  0.0134
  219SOL     OW  641   1.693   2.877   1.687 -0.2206  0.3134  0.1149
  219SOL    HW2  642   1.626   2.946   1.691 -1.7463 -1.1095 -0.1358
  219SOL    HW3  643   1.678   2.834   1.603  2.7768  1.6159 -1.2421
  219SOL    MW4  644   1.682   2.881   1.676 -0.1121 -0.2978 -0.9267
  220SOL     OW  645   1.753   2.405   3.029 -0.4909  0.1027  0.0241
  220SOL    HW2  646   1.678   2.455   2.997 -0.0982  0.0797 -0.9838
  220SOL    HW3  647   1.773   2.344   2.958 -0.3671 -0.8291  0.8469
  220SOL    MW4  648   1.746   2.404   3.016 -0.0487 -0.1789 -0.1758
  221SOL     OW  649   3.344   5.450   0.700  0.3811  0.5084  0.6682
  221SOL    HW2  650   3.413   5.485   0.643  2.2436  1.8210  3.5040
  221SOL    HW3  651   3.372   5.361   0.719  1.3973  1.0391  1.8154
  221SOL    MW4  652   3.357   5.443   0.695  0.5297  0.4550 -0.2583
  222SOL     OW  653   5.524   4.930   1.410  0.0896  0.9100  0.6405
  222SOL    HW2  654   5.582   4.949   1.484  0.9260 -0.4745  0.3659
  222SOL    HW3  655   5.578   4.880   1.349 -1.8465 -2.1503  1.2175
  222SOL    MW4  656   5.539   4.926   1.412 -0.2102  0.8054  0.0771
  223SOL     OW  657   3.044   4.225   2.240 -0.2239 -0.0452 -0.6581
  223SOL    HW2  658   3.027   4.141   2.197 -1.9424  0.2210 -0.5652
  223SOL    HW3  659   2.981   4.285   2.201  0.6993  1.1156 -0.4165
  223SOL    MW4  660   3.033   4.222   2.229 -0.1392  0.2958  0.1458
  224SOL     OW  661   1.053   5.995   2.633  0.2273 -0.1313  0.3841
  224SOL    HW2  662   0.973   5.950   2.661 -0.3621  0.8300  0.2711
  224SOL    HW3  663   1.052   6.078   2.681 -0.2787  1.1112 -1.6733
  224SOL    MW4  664   1.042   6.000   2.643 -0.3126  0.2382 -0.0877
  225SOL     OW  665   4.570   4.539   2.951  0.5543 -0.4921 -0.0188
  225SOL    HW2  666   4.619   4.505   2.876  1.0406 -1.6363  0.7937
  225SOL    HW3  667   4.623   4.517   3.027  1.1423  2.5243  0.5923
  225SOL    MW4  668   4.583   4.532   2.951  0.0351  0.6555 -0.3435
  226SOL     OW  669   2.387   5.471   2.843 -0.3607 -0.1083 -0.5245
  226SOL    HW2  670   2.312   5.478   2.784  0.1227 -1.3748 -1.3300
  226SOL    HW3  671   2.462   5.498   2.790 -0.0913  0.0282 -0.0814
  226SOL    MW4  672   2.387   5.475   2.828 -0.2558 -0.1877 -0.2767
  227SOL     OW  673   5.073   3.562   4.348  0.6541 -0.1735  0.2211
  227SOL    HW2  674   5.167   3.580   4.349  0.5183  0.5716  0.6287
  227SOL    HW3  675   5.035   3.634   4.398 -0.1758 -0.2363 -0.3046
  227SOL    MW4  676   5.080   3.574   4.355  0.2221  0.4312 -0.2156
  228SOL     OW  677   3.864   0.720   4.819 -0.0886 -0.3175  0.4423
  228SOL    HW2  678   3.783   0.762   4.847 -1.1992 -2.4879  0.6913
  228SOL    HW3  679   3.895   0.673   4.897  1.0676 -0.0484  0.1635
  228SOL    MW4  680   3.857   0.719   4.833  0.3175 -0.1016 -0.6031
  229SOL     OW  681   0.846   2.265   2.984 -0.1295 -0.3324 -0.2588
  229SOL    HW2  682   0.890   2.341   2.946 -0.0804  0.0412  0.5293
  229SOL    HW3  683   0.902   2.238   3.056 -2.1582  1.4691  2.1830
  229SOL    MW4  684   0.859   2.271   2.988 -0.3411  0.0580 -0.0671
  230SOL     OW  685   5.583   4.798   2.674 -0.0335  0.3255  0.3930
  230SOL    HW2  686   5.666   4.846   2.668 -0.4176  0.9553  0.0198
  230SOL    HW3  687   5.608   4.713   2.711  0.9131  0.1461 -0.5957
  230SOL    MW4  688   5.597   4.794   2.678 -0.2259  0.3511 -0.1952
  231SOL     OW  689   0.981   2.678   5.452  0.3994 -0.6639  0.1599
  231SOL    HW2  690   0.936   2.645   5.530 -0.0553  1.3466  0.8126
  231SOL    HW3  691   1.051   2.733   5.485  0.2971  0.1087 -0.8367
  231SOL    MW4  692   0.984   2.681   5.466  0.0234 -0.2917  0.6516
  232SOL     OW  693   4.580   2.426   0.646 -0.4955 -0.2903 -0.5094
  232SOL    HW2  694   4.525   2.505   0.652  0.9159  0.7684 -1.0651
  232SOL    HW3  695   4.549   2.383   0.566  0.2843  0.9757 -1.5454
  232SOL    MW4  696   4.568   2.431   0.636  0.1095  0.3262  0.4077
  233SOL     OW  697   2.545   1.612   5.499  0.5898  0.1169 -0.0758
  233SOL    HW2  698   2.459   1.647   5.474  0.7508  1.7265  1.4238
  233SOL    HW3  699   2.532   1.577   5.588  0.8249 -2.3838 -0.9336
  233SOL    MW4  700   2.532   1.612   5.508  0.3749 -0.2143  0.2128
  234SOL     OW  701   2.972   5.811   3.969  0.4078  0.2173  0.3762
  234SOL    HW2  702   2.915   5.866   4.023 -1.1402  1.7030 -2.4917
  234SOL    HW3  703   2.919   5.734   3.949 -0.2848  1.1086 -1.4300
  234SOL    MW4  704   2.957   5.808   3.973  0.3203  0.3646 -0.0193
  235SOL     OW  705   1.566   0.956   3.401 -0.2067 -0.2715 -0.8792
  235SOL    HW2  706   1.627   0.953   3.474 -1.4591  0.7562  0.2577
  235SOL    HW3  707   1.620   0.943   3.324  1.3188 -0.1790  0.1375
  235SOL    MW4  708   1.581   0.954   3.401 -0.4428  0.1435  0.3350
  236SOL     OW  709   5.365   1.857   4.389 -0.8715  0.1833  0.3945
  236SOL    HW2  710   5.374   1.884   4.298  1.3980 -0.9149  0.2183
  236SOL    HW3  711   5.303   1.784   4.388 -0.3026 -0.2999 -0.3931
  236SOL    MW4  712   5.358   1.851   4.377  0.5858  0.5787 -0.0632
  237SOL     OW  713   5.822   0.842   5.734  0.0658 -0.0828 -0.3593
  237SOL    HW2  714   5.734   0.876   5.752  0.7325  1.6815 -0.2095
  237SOL    HW3  715   5.808   0.752   5.704 -1.7016 -0.2167  0.7201
  237SOL    MW4  716   5.809   0.835   5.732  0.3961 -0.2850 -0.7115
  238SOL     OW  717   5.776   2.028   0.787  0.3809 -0.1452 -0.5129
  238SOL    HW2  718   5.822   1.986   0.714  1.4851  1.4760 -0.8035
  238SOL    HW3  719   5.718   2.092   0.745  1.6100  1.3661 -0.0008
  238SOL    MW4  720   5.775   2.031   0.772 -0.4840  0.4379  0.2255
  239SOL     OW  721   1.869   5.183   3.391  0.2972 -0.6428  0.1173
  239SOL    HW2  722   1.866   5.257   3.331 -2.2094 -1.4172 -0.8387
  239SOL    HW3  723   1.812   5.209   3.464  1.4078 -0.6604  1.0110
  239SOL    MW4  724   1.861   5.196   3.393  0.6566  0.2418  0.0684
  240SOL     OW  725   1.455   4.115   4.898  0.0296  0.5811 -0.6201
  240SOL    HW2  726   1.507   4.169   4.956  0.7398 -1.2073  0.4769
  240SOL    HW3  727   1.369   4.110   4.941  0.4239 -0.3859  0.0782
  240SOL    MW4  728   1.450   4.122   4.911 -0.6102 -0.5463 -0.4874
  241SOL     OW  729   3.502   4.518   4.473  0.0803  0.6113 -0.3596
  241SOL    HW2  730   3.445   4.530   4.549  0.6631 -0.1608  0.2167
  241SOL    HW3  731   3.514   4.606   4.438 -1.1129  0.8464 -0.2409
  241SOL    MW4  732   3.496   4.531   4.478 -0.3687 -0.7480 -0.3721
  242SOL     OW  733   3.793   6.246   3.736 -0.1684  0.3353  0.4246
  242SOL    HW2  734   3.869   6.303   3.752  1.1603 -0.7191 -1.7352
  242SOL    HW3  735   3.826   6.157   3.745 -0.7864 -0.1778 -1.8402
  242SOL    MW4  736   3.807   6.242   3.740  0.3719 -0.3304 -0.5639
  243SOL     OW  737   0.309   2.278   4.836  0.8945  0.5718  0.1340
  243SOL    HW2  738   0.346   2.191   4.823  1.0083  0.6183  0.1441
  243SOL    HW3  739   0.216   2.268   4.817  1.0220  0.5919 -0.5173
  243SOL    MW4  740   0.302   2.265   4.832 -0.5336  0.6225 -0.5367
  244SOL     OW  741   3.269   4.274   1.317  0.0495 -0.1783  0.2106
  244SOL    HW2  742   3.295   4.359   1.352  0.0728  0.0315 -0.3069
  244SOL    HW3  743   3.197   4.245   1.373 -1.0568  0.9339 -0.6087
  244SOL    MW4  744   3.263   4.281   1.329  0.7523  0.1908 -0.2340
  245SOL     OW  745   3.278   1.188   0.721  0.3088  0.2075 -0.8553
  245SOL    HW2  746   3.373   1.184   0.713  0.2761  0.3472 -1.3368
  245SOL    HW3  747   3.259   1.147   0.806  0.7469 -0.4607 -1.0721
  245SOL    MW4  748   3.288   1.182   0.731 -0.4098  0.0128  0.4955
  246SOL     OW  749   4.275   4.965   2.527 -0.0472  0.4620  0.4395
  246SOL    HW2  750   4.248   5.016   2.451  0.0387  0.6355  0.5254
  246SOL    HW3  751   4.233   5.009   2.601 -0.5019  0.0252  0.4428
  246SOL    MW4  752   4.266   4.978   2.527  0.5151 -0.4248  0.1746
  247SOL     OW  753   4.674   1.839   1.610 -0.3669 -0.5142 -0.3619
  247SOL    HW2  754   4.678   1.760   1.555  0.7345 -0.0179 -1.0371
  247SOL    HW3  755   4.701   1.910   1.551 -1.3607  0.3728  0.2338
  247SOL    MW4  756   4.678   1.838   1.595  0.0662 -0.7718 -0.5715
  248SOL     OW  757   1.652   3.140   4.386 -0.1204 -0.7288 -0.0396
  248SOL    HW2  758   1.708   3.063   4.376  2.6081  1.1127 -0.0059
  248SOL    HW3  759   1.641   3.148   4.481 -1.0324 -1.4515 -0.0707
  248SOL    MW4  760   1.658   3.131   4.397 -0.1549 -0.0003 -0.6500
  249SOL     OW  761   4.334   5.856   2.578 -0.2403 -0.4485  0.7648
  249SOL    HW2  762   4.257   5.805   2.552  0.3297 -0.2206 -1.6548
  249SOL    HW3  763   4.409   5.800   2.554  0.3550  0.4521  0.4498
  249SOL    MW4  764   4.334   5.842   2.571  0.6990  0.8240 -0.4222
  250SOL     OW  765   0.219   2.287   3.054 -0.9271 -0.4865 -0.5264
  250SOL    HW2  766   0.314   2.276   3.055 -0.7780  0.6633 -0.4322
  250SOL    HW3  767   0.194   2.278   2.963 -0.5656  0.3696 -0.7190
  250SOL    MW4  768   0.229   2.285   3.042 -0.1196 -0.0032 -0.1448
  251SOL     OW  769   1.631   5.242   4.305  0.0048 -0.2176  0.7007
  251SOL    HW2  770   1.721   5.222   4.330  0.2006 -0.5873 -0.2476
  251SOL    HW3  771   1.586   5.158   4.310 -0.5073  0.1137  1.9904
  251SOL    MW4  772   1.637   5.228   4.309 -0.2151 -0.4352  0.9324
  252SOL     OW  773   5.147   5.428   2.921  0.4103 -0.0787  0.6781
  252SOL    HW2  774   5.114   5.439   2.832 -0.4688 -0.8290  0.8906
  252SOL    HW3  775   5.109   5.502   2.969  0.0387 -0.2438  0.6458
  252SOL    MW4  776   5.137   5.439   2.916  0.3878  0.3452 -0.0054
  253SOL     OW  777   4.679   3.106   4.504 -0.4356 -0.3061 -0.0713
  253SOL    HW2  778   4.659   3.161   4.429 -1.1664 -0.3113  0.1099
  253SOL    HW3  779   4.594   3.072   4.532 -0.2954  0.4178  1.3130
  253SOL    MW4  780   4.665   3.108   4.498  0.7238  0.0406 -0.1737
  254SOL     OW  781   4.375   5.032   0.089  0.1940  0.1859  0.8487
  254SOL    HW2  782   4.402   4.959   0.034 -0.4407 -2.0205  3.2719
  254SOL    HW3  783   4.432   5.104   0.063 -1.2796 -0.0327 -3.9069
  254SOL    MW4  784   4.386   5.032   0.079  0.5038 -0.2236  0.3613
  255SOL     OW  785   4.945   1.423   4.668 -0.7596  0.1285 -0.5023
  255SOL    HW2  786   5.028   1.408   4.622 -0.4062  1.3571 -0.2976
  255SOL    HW3  787   4.895   1.343   4.653  1.1586 -1.4738  0.8698
  255SOL    MW4  788   4.950   1.410   4.660 -0.6343 -0.4394 -0.5789
  256SOL     OW  789   4.458   1.505   0.555  0.2960  0.5088  0.1600
  256SOL    HW2  790   4.449   1.425   0.503  1.4399 -0.6924  1.7031
  256SOL    HW3  791   4.391   1.564   0.521 -1.0676 -1.3620 -0.5690
  256SOL    MW4  792   4.448   1.502   0.544  0.5611  0.2129 -0.0432
  257SOL     OW  793   1.656   5.507   6.078  0.2117 -0.1870  0.3495
  257SOL    HW2  794   1.642   5.413   6.075  2.3869 -0.5430 -0.6554
  257SOL    HW3  795   1.712   5.526   6.002 -0.2777  1.9322  0.4473
  257SOL    MW4  796   1.662   5.497   6.068  0.5919 -0.3121 -0.4923
  258SOL     OW  797   5.057   1.668   0.162 -0.1463 -0.0355 -0.3872
  258SOL    HW2  798   5.029   1.701   0.076 -0.1640 -0.1303 -0.4176
  258SOL    HW3  799   5.116   1.596   0.142 -1.3184 -1.0480 -0.3228
  258SOL    MW4  800   5.061   1.663   0.148 -0.3903 -0.0922  0.0738
  259SOL     OW  801   1.328   5.432   1.743 -0.1440  0.4062  0.1807
  259SOL    HW2  802   1.409   5.472   1.711  1.1804 -2.4721 -0.3496
  259SOL    HW3  803   1.314   5.473   1.829  1.6926  1.2185  0.1414
  259SOL    MW4  804   1.336   5.443   1.750 -0.5865 -0.0318  0.5473
  260SOL     OW  805   5.822   2.387   4.450  0.4450  0.0448 -0.2824
  260SOL    HW2  806   5.796   2.296   4.433 -0.5055  0.0764  0.9207
  260SOL    HW3  807   5.879   2.381   4.527 -0.9944  0.6220  0.8622
  260SOL    MW4  808   5.826   2.374   4.458 -0.3245 -0.0936 -0.3922
  261SOL     OW  809   1.255   3.137   2.958 -0.1165  0.0790  0.6044
  261SOL    HW2  810   1.202   3.186   2.894 -0.2222 -0.4484  0.2755
  261SOL    HW3  811   1.190   3.090   3.011 -0.0394  0.7285  1.2819
  261SOL    MW4  812   1.239   3.137   2.956 -0.3851 -0.5710 -0.4024
  262SOL     OW  813   6.451   0.224   3.961  0.0317  0.0175  0.7881
  262SOL    HW2  814   6.432   0.260   3.875 -1.0997  1.0628  1.4419
  262SOL    HW3  815   6.442   0.129   3.950 -1.0206  0.1932 -0.0326
  262SOL    MW4  816   6.447   0.216   3.948 -0.5829 -0.1112 -0.3294
  263SOL     OW  817   2.067   1.712   6.060 -0.0666 -0.3913  0.6603
  263SOL    HW2  818   2.100   1.657   6.131  1.2958  0.6558  0.8836
  263SOL    HW3  819   2.081   1.661   5.980 -0.3030 -1.0051  1.0113
  263SOL    MW4  820   2.073   1.698   6.059 -0.1482  0.3916  0.2659
  264SOL     OW  821   0.542   0.522   0.236 -0.3623 -0.2635  0.4096
  264SOL    HW2  822   0.562   0.586   0.168  2.3842 -0.6472  0.7284
  264SOL    HW3  823   0.450   0.537   0.257 -0.2087  2.5770 -0.5178
  264SOL    MW4  824   0.532   0.532   0.229  0.2396 -0.0119 -0.1257
  265SOL     OW  825   4.994   1.082   0.423  0.1984  0.0518  0.5308
  265SOL    HW2  826   5.046   1.035   0.489  0.7305 -0.2053 -0.0615
  265SOL    HW3  827   4.937   1.139   0.474  0.5189 -0.2309  1.2222
  265SOL    MW4  828   4.994   1.083   0.439  0.2652 -0.0032  0.6487
  266SOL     OW  829   6.395   2.839   6.166 -0.1700 -0.3407 -0.0385
  266SOL    HW2  830   6.364   2.842   6.075 -1.9969 -0.5308  0.5484
  266SOL    HW3  831   6.322   2.871   6.218  0.0902 -2.1361  1.5400
  266SOL    MW4  832   6.381   2.844   6.161 -0.2788  0.0743 -0.0858
  267SOL     OW  833   0.741   3.780   2.809 -1.0842  0.3797 -0.0945
  267SOL    HW2  834   0.719   3.861   2.762 -1.3711  1.8889  2.4723
  267SOL    HW3  835   0.791   3.809   2.885 -0.0433 -2.0104  0.2188
  267SOL    MW4  836   0.745   3.795   2.813  0.0077 -0.3648 -0.5270
  268SOL     OW  837   4.836   1.115   4.439  0.9302  0.0014  0.4824
  268SOL    HW2  838   4.819   1.027   4.471  1.4385 -0.7998 -1.2894
  268SOL    HW3  839   4.917   1.107   4.389 -0.2680  0.8712 -1.7692
  268SOL    MW4  840   4.844   1.102   4.436  0.0089 -0.1442  0.2642
  269SOL     OW  841   2.147   4.840   4.253  0.2033 -0.1764 -0.1039
  269SOL    HW2  842   2.101   4.812   4.332 -0.0455  0.5583  0.0240
  269SOL    HW3  843   2.078   4.867   4.192  0.4377  2.1731  0.5605
  269SOL    MW4  844   2.132   4.840   4.255 -0.1112 -0.1442 -0.3350
  270SOL     OW  845   5.145   5.077   3.390 -0.0705 -0.3014  0.1857
  270SOL    HW2  846   5.072   5.127   3.428  0.9502  0.7788  0.7978
  270SOL    HW3  847   5.122   4.986   3.408 -1.1072  0.0289  0.6819
  270SOL    MW4  848   5.132   5.072   3.398 -0.3184 -1.0462 -0.0263
  271SOL     OW  849   3.255   4.628   4.031  0.2647 -0.4776 -0.5745
  271SOL    HW2  850   3.170   4.588   4.048  0.0315  0.3974  0.4359
  271SOL    HW3  851   3.319   4.564   4.062 -0.0363 -0.9347 -0.8947
  271SOL    MW4  852   3.253   4.614   4.037  0.0178  0.0066  0.3092
  272SOL     OW  853   1.813   1.723   3.548 -0.3844  0.1556  0.0737
  272SOL    HW2  854   1.745   1.671   3.505 -0.0101  0.2110 -0.5969
  272SOL    HW3  855   1.857   1.770   3.477 -0.0696  0.6260  0.5679
  272SOL    MW4  856   1.810   1.722   3.533  0.0269  0.0349 -0.4098
  273SOL     OW  857   2.497   4.123   1.156 -0.4772 -0.2199 -0.8616
  273SOL    HW2  858   2.533   4.162   1.236 -2.0712 -1.5105  0.5637
  273SOL    HW3  859   2.443   4.193   1.119 -3.8415 -0.9870  2.0182
  273SOL    MW4  860   2.495   4.138   1.162  0.2843 -0.0321  0.1647
  274SOL     OW  861   0.248   6.182   1.532 -0.3702 -0.1500  0.0827
  274SOL    HW2  862   0.270   6.265   1.490 -1.8753  0.8106  1.0752
  274SOL    HW3  863   0.173   6.149   1.483  0.0138 -0.7574 -0.1014
  274SOL    MW4  864   0.241   6.189   1.520  0.1246  0.9057 -0.1714
  275SOL     OW  865   5.856   1.921   0.524  0.3518 -0.8527 -0.0820
  275SOL    HW2  866   5.926   1.856   0.515  0.9748 -0.5574  2.1013
  275SOL    HW3  867   5.895   2.003   0.492  1.8013 -0.2441  2.9255
  275SOL    MW4  868   5.870   1.923   0.519  0.2964  0.5165  0.3681
  276SOL     OW  869   3.490   4.622   6.127 -0.1014 -0.0416 -0.6004
  276SOL    HW2  870   3.556   4.659   6.069  0.5014 -1.2598 -0.7362
  276SOL    HW3  871   3.493   4.677   6.205 -2.0514  2.6412 -2.2342
  276SOL    MW4  872   3.499   4.634   6.130 -0.1605  0.3572  0.1640
  277SOL     OW  873   0.778   1.320   5.876  0.0288 -0.3405 -0.1122
  277SOL    HW2  874   0.783   1.230   5.908  0.7440  0.2037  1.3797
  277SOL    HW3  875   0.684   1.338   5.868 -0.2113 -0.3327  2.2351
  277SOL    MW4  876   0.766   1.311   5.879 -0.2796  0.4457  0.0406
  278SOL     OW  877   6.094   2.965   2.988  0.3443 -0.3588 -0.0047
  278SOL    HW2  878   6.161   2.921   2.936 -1.0578 -2.8041  0.1075
  278SOL    HW3  879   6.099   2.924   3.074 -0.2820  0.5335  0.4818
  278SOL    MW4  880   6.103   2.954   2.992 -0.1937 -0.5450 -0.2509
  279SOL     OW  881   4.738   5.892   2.701  0.0727 -0.2999 -0.1366
  279SOL    HW2  882   4.813   5.857   2.749  1.3534  1.1114 -1.0228
  279SOL    HW3  883   4.668   5.896   2.766  0.7522 -1.5773  0.7290
  279SOL    MW4  884   4.739   5.888   2.716 -0.3823 -0.0065 -0.0565
  280SOL     OW  885   2.548   0.670   1.156  0.1642 -0.4256  0.0543
  280SOL    HW2  886   2.567   0.632   1.242  0.2605 -0.5880 -0.0378
  280SOL    HW3  887   2.453   0.683   1.156  0.1056 -0.8237  0.0247
  280SOL    MW4  888   2.538   0.666   1.168 -0.1944 -0.2080  0.7547
  281SOL     OW  889   4.776   3.403   1.343  0.4306  0.4976 -0.3868
  281SOL    HW2  890   4.749   3.325   1.392  1.0355 -0.0275 -0.8633
  281SOL    HW3  891   4.704   3.465   1.354 -0.1227 -0.1818 -0.1131
  281SOL    MW4  892   4.763   3.401   1.351  0.1253 -0.0538 -0.2065
  282SOL     OW  893   5.335   5.322   3.563 -0.2927 -0.1560 -0.3404
  282SOL    HW2  894   5.326   5.228   3.575  0.5047 -0.4054 -1.5791
  282SOL    HW3  895   5.251   5.358   3.590 -0.9611 -1.3181 -0.8384
  282SOL    MW4  896   5.323   5.315   3.568  0.0064 -0.1240  0.1129
  283SOL     OW  897   0.951   5.168   4.160 -0.2794  0.4164  0.1111
  283SOL    HW2  898   0.952   5.091   4.104  0.3831  1.5106 -1.4573
  283SOL    HW3  899   1.005   5.144   4.235 -0.6547 -0.8699 -0.0080
  283SOL    MW4  900   0.958   5.155   4.162  0.3520 -0.1533 -0.2104
  284SOL     OW  901   1.610   2.584   5.787 -0.1811 -0.4071  0.1053
  284SOL    HW2  902   1.705   2.569   5.778 -0.0119  0.2921  0.6147
  284SOL    HW3  903   1.580   2.598   5.698  0.5576  1.2869  0.0691
  284SOL    MW4  904   1.619   2.584   5.774 -0.5055 -0.5143 -0.0529
  285SOL     OW  905   0.413   3.502   2.168 -0.0056 -0.2398  0.0166
  285SOL    HW2  906   0.442   3.511   2.259  0.8365 -1.0360 -0.1557
  285SOL    HW3  907   0.491   3.523   2.116 -0.1216 -1.0206 -0.4899
  285SOL    MW4  908   0.427   3.506   2.173 -0.5554 -0.2155 -0.3979
  286SOL     OW  909   1.871   2.953   5.506 -0.0294  0.3179 -0.4497
  286SOL    HW2  910   1.808   3.013   5.547  0.6628  0.3266  0.6411
  286SOL    HW3  911   1.953   2.968   5.554  1.0304  0.8587 -2.3466
  286SOL    MW4  912   1.873   2.963   5.518 -0.1170 -0.2542 -0.6516
  287SOL     OW  913   4.220   6.126   4.271 -0.1643  0.3019  0.0556
  287SOL    HW2  914   4.299   6.143   4.323 -1.0275  1.8781  0.9077
  287SOL    HW3  915   4.156   6.190   4.302 -1.6718 -0.6857 -0.8972
  287SOL    MW4  916   4.222   6.137   4.282 -0.2970 -0.3161  0.2056
  288SOL     OW  917   2.729   1.406   1.288  0.0515  0.6578  0.2186
  288SOL    HW2  918   2.757   1.454   1.365  0.4653 -1.8372  1.7276
  288SOL    HW3  919   2.810   1.369   1.252 -0.4345 -0.4663  0.2388
  288SOL    MW4  920   2.744   1.407   1.293  0.2922  0.7243 -0.2242
  289SOL     OW  921   3.199   1.159   1.000 -0.0728  0.1943 -0.0945
  289SOL    HW2  922   3.108   1.131   1.006 -0.0214  0.1375  0.3843
  289SOL    HW3  923   3.211   1.220   1.072  0.6462 -0.8362  0.6761
  289SOL    MW4  924   3.189   1.164   1.010  0.2571 -0.1022  0.5420
  290SOL     OW  925   0.842   1.692   0.332 -0.6797 -0.4973 -0.2411
  290SOL    HW2  926   0.750   1.716   0.349 -0.3294 -0.4204  1.8173
  290SOL    HW3  927   0.875   1.763   0.276 -0.9259  1.5026  1.9775
  290SOL    MW4  928   0.834   1.705   0.327  0.1877  0.1671 -0.2469
  291SOL     OW  929   5.663   3.737   3.751 -0.0997  0.1789  0.4091
  291SOL    HW2  930   5.631   3.668   3.693 -0.1279 -0.2880  0.9721
  291SOL    HW3  931   5.624   3.717   3.836  0.1392  0.7148  0.6484
  291SOL    MW4  932   5.653   3.725   3.755  0.0870 -0.2798 -0.6269
  292SOL     OW  933   3.977   5.936   5.997  0.0283 -0.3264 -0.0690
  292SOL    HW2  934   3.970   5.938   6.093 -0.1385  1.0691 -0.0783
  292SOL    HW3  935   3.992   5.844   5.975  3.3140 -0.3040  1.5227
  292SOL    MW4  936   3.978   5.924   6.007  0.2247 -0.1496  0.2163
  293SOL     OW  937   4.658   0.948   2.142 -0.3180 -0.3487 -0.0859
  293SOL    HW2  938   4.632   0.868   2.187  0.6127 -0.3419  0.4924
  293SOL    HW3  939   4.584   1.007   2.155 -1.1322 -1.2022 -0.7683
  293SOL    MW4  940   4.645   0.945   2.150 -0.5112 -0.3995  0.9105
  294SOL     OW  941   4.103   1.995   1.767  0.0474 -0.2044 -0.0852
  294SOL    HW2  942   4.049   2.053   1.713  0.6758 -0.7305 -1.3161
  294SOL    HW3  943   4.053   1.914   1.774  0.3861 -0.4662 -0.6793
  294SOL    MW4  944   4.090   1.992   1.761  0.4476 -0.3080  0.2735
  295SOL     OW  945   3.824   4.248   2.094  0.1441 -0.4119  0.8371
  295SOL    HW2  946   3.888   4.205   2.038 -0.3312 -0.4296  0.3032
  295SOL    HW3  947   3.816   4.191   2.170  0.2917 -0.7289  0.6152
  295SOL    MW4  948   3.832   4.235   2.096  0.6789 -0.7020  0.1761
  296SOL     OW  949   5.591   1.365   4.658 -0.4669 -0.1586  0.3531
  296SOL    HW2  950   5.637   1.380   4.575 -1.3192  0.4367 -0.0238
  296SOL    HW3  951   5.516   1.311   4.634 -0.1241 -0.9136  0.9288
  296SOL    MW4  952   5.587   1.359   4.644  0.1170  1.1230  0.0513
  297SOL     OW  953   4.863   5.350   4.729  0.1175  0.0000 -0.1891
  297SOL    HW2  954   4.929   5.417   4.714  1.5527 -1.3584 -0.2257
  297SOL    HW3  955   4.878   5.321   4.819 -0.4238 -0.3402 -0.2041
  297SOL    MW4  956   4.874   5.355   4.739  0.1842 -0.5493  0.3219
  298SOL     OW  957   3.856   2.868   0.022 -0.4290 -0.2646  0.2054
  298SOL    HW2  958   3.867   2.802  -0.046 -0.0669  0.3157 -0.3118
  298SOL    HW3  959   3.770   2.850   0.060 -0.5463 -0.7132 -0.2677
  298SOL    MW4  960   3.846   2.857   0.018 -0.1214  0.0189  0.3538
  299SOL     OW  961   1.118   0.536   0.324 -0.0328  0.5022 -0.6561
  299SOL    HW2  962   1.149   0.481   0.396 -0.8642  0.8699  0.0052
  299SOL    HW3  963   1.062   0.601   0.367  0.9961  1.9391 -1.3925
  299SOL    MW4  964   1.115   0.537   0.340 -0.0055  0.7829  0.3061
  300SOL     OW  965   2.389   4.301   1.418 -0.6289 -0.3554 -0.2077
  300SOL    HW2  966   2.309   4.268   1.376 -0.2502 -0.2571 -1.0445
  300SOL    HW3  967   2.365   4.314   1.509 -1.2174 -1.5090 -0.1762
  300SOL    MW4  968   2.375   4.298   1.424  0.1572  0.2466 -0.3747
  301SOL     OW  969   1.052   1.250   2.440 -0.4836 -0.2480  0.3331
  301SOL    HW2  970   1.013   1.207   2.516  0.7045  0.5656  1.4376
  301SOL    HW3  971   1.146   1.250   2.457 -0.2573  0.5761 -0.7954
  301SOL    MW4  972   1.059   1.245   2.452  0.3367  0.2173 -0.1796
  302SOL     OW  973   0.625   6.093   2.641  0.3966 -0.5573 -0.5786
  302SOL    HW2  974   0.676   6.034   2.697  0.5048  0.0174 -0.0582
  302SOL    HW3  975   0.535   6.083   2.673  0.6276  0.6723  0.5356
  302SOL    MW4  976   0.620   6.084   2.653  0.3052 -0.2526 -0.2179
  303SOL     OW  977   3.307   3.206   5.108 -0.1482 -0.1806  0.0598
  303SOL    HW2  978   3.270   3.183   5.022  0.7457 -1.6571  0.0394
  303SOL    HW3  979   3.373   3.272   5.088 -2.0466  1.8307  0.0002
  303SOL    MW4  980   3.311   3.211   5.094 -0.1291 -0.1869 -0.5693
  304SOL     OW  981   4.438   1.292   5.770  0.7867 -0.5259  0.4243
  304SOL    HW2  982   4.388   1.357   5.819  0.2159 -0.5678 -0.0919
  304SOL    HW3  983   4.400   1.293   5.682  1.8267 -0.4174 -0.0391
  304SOL    MW4  984   4.426   1.301   5.765  0.3303 -0.2306  0.4707
  305SOL     OW  985   3.267   4.831   3.720  0.0714  0.0608 -0.1047
  305SOL    HW2  986   3.200   4.770   3.687 -0.5103 -0.5002  1.9750
  305SOL    HW3  987   3.217   4.907   3.750  0.6389  0.7961 -0.9727
  305SOL    MW4  988   3.251   4.833   3.720  0.6582  0.1959 -0.0459
  306SOL     OW  989   4.620   2.660   6.372 -0.2855 -0.2446 -0.8538
  306SOL    HW2  990   4.552   2.687   6.310 -1.2034 -0.9397 -0.1917
  306SOL    HW3  991   4.600   2.709   6.452 -0.5080 -1.0384 -0.4052
  306SOL    MW4  992   4.608   2.670   6.374 -0.3078 -0.1255 -0.5098
  307SOL     OW  993   1.448   4.522   4.877 -0.5856  0.2676 -0.7215
  307SOL    HW2  994   1.501   4.496   4.802  0.5565  1.8839 -0.5098
  307SOL    HW3  995   1.359   4.497   4.853 -0.0257 -0.6539 -1.9364
  307SOL    MW4  996   1.443   4.515   4.864 -0.2819  0.1198  0.1488
  308SOL     OW  997   0.168   0.539   6.132 -0.0553  0.4532  0.3037
  308SOL    HW2  998   0.248   0.590   6.121  1.8378 -2.5756 -1.5854
  308SOL    HW3  999   0.104   0.580   6.074 -0.0061  2.9126  1.8360
  308SOL    MW4 1000   0.170   0.551   6.123  0.0727  0.4548  0.3881
  309SOL     OW 1001   3.128   4.711   4.694 -0.4300 -0.1299 -0.1883
  309SOL    HW2 1002   3.162   4.765   4.766  1.7322 -2.7511  0.9188
  309SOL    HW3 1003   3.055   4.662   4.732 -1.9958  1.4340 -1.0268
  309SOL    MW4 1004   3.123   4.712   4.708 -0.2816  0.0151  0.4458
  310SOL     OW 1005   1.783   2.707   0.318  0.3602 -0.2166  0.1125
  310SOL    HW2 1006   1.795   2.689   0.412  1.6262  1.0195  0.2294
  310SOL    HW3 1007   1.750   2.797   0.316  3.3246  0.9767 -0.6530
  310SOL    MW4 1008   1.780   2.717   0.330  0.2626  0.5599  0.5237
  311SOL     OW 1009   0.724   4.936   0.459 -0.2504 -0.0187 -0.2228
  311SOL    HW2 1010   0.716   5.019   0.507  2.6098  0.0228  0.3228
  311SOL    HW3 1011   0.776   4.958   0.381  1.7810 -1.4987  0.6408
  311SOL    MW4 1012   0.730   4.950   0.455 -0.9730 -0.0693  0.4409
  312SOL     OW 1013   2.161   0.961   5.110 -0.1760  0.0830  0.1080
  312SOL    HW2 1014   2.080   0.942   5.157  0.0017  0.5909  0.6494
  312SOL    HW3 1015   2.147   0.928   5.022 -2.1747  2.8074 -0.7466
  312SOL    MW4 1016   2.149   0.954   5.105 -0.3872 -0.7865 -0.1827
  313SOL     OW 1017   0.665   4.575   4.933 -0.1564 -0.9047  0.0202
  313SOL    HW2 1018   0.731   4.560   5.000  0.1687  1.8214  0.4227
  313SOL    HW3 1019   0.592   4.615   4.979  1.6474  5.1305 -1.4783
  313SOL    MW4 1020   0.664   4.578   4.948  0.1063 -0.0064  0.4277
  314SOL     OW 1021   2.878   6.092   5.337  0.1646  0.5465 -0.1486
  314SOL    HW2 1022   2.827   6.023   5.295 -2.0833  1.2390  1.2221
  314SOL    HW3 1023   2.820   6.126   5.405  2.9246  0.6877  2.3102
  314SOL    MW4 1024   2.863   6.088   5.340 -0.2005 -0.4610 -0.4469
  315SOL     OW 1025   0.383   0.578   1.082  0.3460  0.2382 -0.2271
  315SOL    HW2 1026   0.392   0.487   1.054  0.2699  0.0660  0.3153
  315SOL    HW3 1027   0.397   0.576   1.176  2.1862  1.0318 -0.4304
  315SOL    MW4 1028   0.386   0.566   1.091 -0.1535 -0.6325 -0.7208
  316SOL     OW 1029   0.468   2.320   0.370 -0.1639  0.1980  1.0761
  316SOL    HW2 1030   0.417   2.255   0.322 -0.5099  0.6347  0.8463
  316SOL    HW3 1031   0.557   2.311   0.336 -0.5241  0.9254 -0.1075
  316SOL    MW4 1032   0.473   2.310   0.359  0.1670  0.1204  1.1409
  317SOL     OW 1033   4.511   3.796   1.090 -0.7385 -0.4697 -0.0004
  317SOL    HW2 1034   4.593   3.808   1.136 -0.6032 -0.4080 -0.2537
  317SOL    HW3 1035   4.521   3.713   1.043 -0.8878 -0.5512  0.1105
  317SOL    MW4 1036   4.523   3.787   1.090 -0.4551  0.0296 -0.6898
  318SOL     OW 1037   5.184   3.223   4.775 -0.0762  0.1018  0.0689
  318SOL    HW2 1038   5.142   3.208   4.690  0.6502 -0.9634 -0.1160
  318SOL    HW3 1039   5.151   3.152   4.830  0.1369  0.2775  0.4238
  318SOL    MW4 1040   5.174   3.212   4.771  0.4246  0.2561 -0.1883
  319SOL     OW 1041   5.417   3.328   2.169 -0.2434 -0.0074  0.0487
  319SOL    HW2 1042   5.450   3.404   2.217 -0.0707  0.7603 -1.2363
  319SOL    HW3 1043   5.477   3.319   2.094 -2.3727  0.8941 -1.8738
  319SOL    MW4 1044   5.430   3.337   2.165 -0.0342  0.6157 -0.1828
  320SOL     OW 1045   5.079   1.921   1.077 -0.2085  0.2775 -0.3307
  320SOL    HW2 1046   5.020   1.875   1.017 -0.0554 -0.7520  0.2778
  320SOL    HW3 1047   5.134   1.852   1.113  2.3500  1.3619 -1.9209
  320SOL    MW4 1048   5.078   1.905   1.074  0.1330  0.2735 -0.2877
  321SOL     OW 1049   2.112   2.763   5.741 -0.3081  0.1884 -0.9381
  321SOL    HW2 1050   2.149   2.709   5.811  0.0992  1.1651 -0.3936
  321SOL    HW3 1051   2.081   2.699   5.676  1.0321 -0.6906 -0.7538
  321SOL    MW4 1052   2.113   2.747   5.742  0.1344  0.1185 -0.2127
  322SOL     OW 1053   1.058   6.245   2.763 -0.8812  0.1020  0.2425
  322SOL    HW2 1054   1.144   6.271   2.796 -1.8521  0.2696  2.8736
  322SOL    HW3 1055   1.039   6.308   2.693  0.1950  1.4886  1.1538
  322SOL    MW4 1056   1.067   6.257   2.758  0.1441 -0.3092 -0.3689
  323SOL     OW 1057   0.605   5.533   1.197 -0.0007 -0.3036  0.2260
  323SOL    HW2 1058   0.641   5.504   1.113 -1.4812 -1.6215 -0.0015
  323SOL    HW3 1059   0.618   5.628   1.197 -0.6509 -0.1585 -1.8445
  323SOL    MW4 1060   0.612   5.542   1.186 -0.1098  0.1338  0.6110
  324SOL     OW 1061   4.346   3.315   4.512 -0.1327 -0.2269  0.4084
  324SOL    HW2 1062   4.254   3.309   4.538 -0.2965  0.3611 -0.0115
  324SOL    HW3 1063   4.395   3.299   4.592 -0.5831 -1.4609  0.4620
  324SOL    MW4 1064   4.340   3.312   4.526 -0.3538 -0.0117 -0.3819
  325SOL     OW 1065   5.935   4.702   3.187  0.4385 -0.6916  0.3175
  325SOL    HW2 1066   5.906   4.618   3.222  0.1769 -0.5238  0.5191
  325SOL    HW3 1067   6.024   4.713   3.220 -0.2741  0.0885  2.1054
  325SOL    MW4 1068   5.943   4.692   3.196  0.3637  0.0968  0.4006
  326SOL     OW 1069   5.042   0.108   2.446 -0.4123 -0.7601 -0.6007
  326SOL    HW2 1070   5.009   0.188   2.405  2.8956  0.1397 -1.8366
  326SOL    HW3 1071   5.033   0.041   2.379 -1.1433 -0.9039 -0.3639
  326SOL    MW4 1072   5.036   0.110   2.432  0.2447  0.1589  0.1158
  327SOL     OW 1073   0.337   6.300   4.058 -0.5706  0.3750 -0.3896
  327SOL    HW2 1074   0.295   6.219   4.088 -0.1860  0.1070 -0.5591
  327SOL    HW3 1075   0.426   6.294   4.094 -0.6831  0.9483 -0.0047
  327SOL    MW4 1076   0.343   6.288   4.067 -0.3133  1.0167  0.7271
  328SOL     OW 1077   4.020   1.686   3.721 -0.0709 -0.2891 -0.1128
  328SOL    HW2 1078   3.942   1.642   3.754 -2.0957  0.8549 -2.9440
  328SOL    HW3 1079   4.045   1.746   3.791 -1.5182 -0.9363  1.0152
  328SOL    MW4 1080   4.013   1.689   3.735 -0.4920 -0.2315 -0.1592
  329SOL     OW 1081   0.728   4.033   1.629  0.2884  0.3304 -0.0703
  329SOL    HW2 1082   0.748   4.109   1.683  0.8286  0.1188  0.0448
  329SOL    HW3 1083   0.670   3.979   1.683  1.6291 -0.3702  0.7468
  329SOL    MW4 1084   0.723   4.036   1.643  0.3868 -0.0851 -0.3766
  330SOL     OW 1085   1.083   5.057   0.449  0.2646  0.0074  0.0977
  330SOL    HW2 1086   1.137   5.117   0.397 -0.9731  0.7105 -0.3938
  330SOL    HW3 1087   1.016   5.026   0.388 -2.2781  2.1608  1.6378
  330SOL    MW4 1088   1.082   5.060   0.434  0.0617 -0.1919 -0.2311
  331SOL     OW 1089   2.152   5.194   4.421 -0.3104  0.7712 -0.3038
  331SOL    HW2 1090   2.243   5.166   4.420 -0.3620  0.5982 -1.7855
  331SOL    HW3 1091   2.144   5.246   4.501  0.3552 -1.4977  1.3245
  331SOL    MW4 1092   2.163   5.197   4.431 -0.6527  0.3413  0.3975
  332SOL     OW 1093   3.469   3.079   0.048  0.1296 -0.1568  0.7282
  332SOL    HW2 1094   3.409   3.023  -0.001 -0.1244 -0.0653  0.9321
  332SOL    HW3 1095   3.421   3.102   0.128  0.5579 -0.3441  1.0438
  332SOL    MW4 1096   3.455   3.075   0.052 -0.1055 -0.2904  0.4103
  333SOL     OW 1097   4.338   1.932   1.633 -0.2549  0.2869  0.3456
  333SOL    HW2 1098   4.277   1.950   1.704  0.5453 -0.6060  1.2980
  333SOL    HW3 1099   4.385   1.853   1.661  0.5357  0.2941 -0.8760
  333SOL    MW4 1100   4.336   1.924   1.646  0.9451  0.1559  0.2149
  334SOL     OW 1101   4.514   0.792   2.677 -0.0937 -0.2214  0.3951
  334SOL    HW2 1102   4.548   0.871   2.718 -1.7282 -0.0362  1.5171
  334SOL    HW3 1103   4.454   0.824   2.610 -1.7042 -0.4105  1.6585
  334SOL    MW4 1104   4.510   0.806   2.674 -0.4888  0.2936 -0.8306
  335SOL     OW 1105   1.268   1.507   5.432 -0.5228 -0.1458 -0.4952
  335SOL    HW2 1106   1.195   1.526   5.374 -1.4935  0.0283  0.7303
  335SOL    HW3 1107   1.276   1.411   5.432 -0.2963 -0.1293 -1.1530
  335SOL    MW4 1108   1.260   1.497   5.424 -0.2511 -0.0406  0.1566
  336SOL     OW 1109   6.455   2.111   6.248  0.8180  0.5950 -0.1266
  336SOL    HW2 1110   6.524   2.142   6.306  0.4050 -0.1292  0.7864
  336SOL    HW3 1111   6.384   2.085   6.307  1.3678 -2.6626 -0.6895
  336SOL    MW4 1112   6.454   2.111   6.264  0.4777  0.3020 -0.6260
  337SOL     OW 1113   3.643   5.442   5.664 -0.0826 -0.2080  0.0341
  337SOL    HW2 1114   3.723   5.391   5.678  0.0001  0.2650  1.4493
  337SOL    HW3 1115   3.596   5.437   5.747 -2.1564 -1.4761 -1.1171
  337SOL    MW4 1116   3.647   5.435   5.677  0.4362  0.0322 -0.0399
  338SOL     OW 1117   4.390   2.213   2.271 -0.3614 -0.4713 -0.1647
  338SOL    HW2 1118   4.306   2.172   2.293 -0.0513 -1.2568 -0.3976
  338SOL    HW3 1119   4.456   2.148   2.295  0.3366  0.8612  1.7901
  338SOL    MW4 1120   4.388   2.199   2.277 -0.6419 -0.0818  0.0241
  339SOL     OW 1121   3.186   0.591   6.082 -0.2342 -0.3310  0.0983
  339SOL    HW2 1122   3.156   0.679   6.105  0.5443  0.1788 -0.7685
  339SOL    HW3 1123   3.178   0.586   5.987  0.4970 -0.8944  0.0502
  339SOL    MW4 1124   3.181   0.602   6.073 -0.4942 -0.2457  0.7204
  340SOL     OW 1125   5.429   6.096   3.600 -0.2445 -0.2491 -0.3080
  340SOL    HW2 1126   5.501   6.154   3.578 -0.5017  0.4504  0.5989
  340SOL    HW3 1127   5.461   6.044   3.674 -0.9968  0.8336  0.8342
  340SOL    MW4 1128   5.442   6.097   3.607  0.0745 -0.5429 -0.3440
  341SOL     OW 1129   5.579   2.680   1.159 -0.6798  0.1729 -0.4035
  341SOL    HW2 1130   5.518   2.613   1.189 -2.4733  1.3598 -1.1757
  341SOL    HW3 1131   5.619   2.714   1.239 -0.1454 -1.3953  0.0342
  341SOL    MW4 1132   5.576   2.676   1.173 -0.4035 -0.0095 -0.0382
  342SOL     OW 1133   1.147   3.775   3.744  0.2521  0.1259  0.2533
  342SOL    HW2 1134   1.123   3.851   3.797  2.8423  1.0405  0.2545
  342SOL    HW3 1135   1.143   3.808   3.654  2.5168  0.6860  0.3124
  342SOL    MW4 1136   1.143   3.790   3.739 -0.1722  0.1096 -0.4084
  343SOL     OW 1137   0.522   4.282   3.896 -0.0181 -0.2953 -0.1756
  343SOL    HW2 1138   0.474   4.289   3.978 -0.1825  0.0768 -0.3054
  343SOL    HW3 1139   0.474   4.215   3.846  0.3429 -0.8476  0.2088
  343SOL    MW4 1140   0.509   4.274   3.900  0.0908 -0.4972  0.5369
  344SOL     OW 1141   4.653   4.957   2.151  0.1644 -0.1973  0.2731
  344SOL    HW2 1142   4.743   4.939   2.178  0.1584 -0.9103 -0.1562
  344SOL    HW3 1143   4.623   5.025   2.211  1.0798  0.2522  0.2374
  344SOL    MW4 1144   4.661   4.963   2.162 -0.0925  0.0961 -0.4730
  345SOL     OW 1145   0.879   4.879   0.694 -0.3119  0.3787  0.2444
  345SOL    HW2 1146   0.877   4.785   0.679 -0.8130  0.5457 -0.7681
  345SOL    HW3 1147   0.845   4.918   0.614  0.3341  1.4511  0.4629
  345SOL    MW4 1148   0.874   4.872   0.682  0.1693  0.3778  0.0606
  346SOL     OW 1149   2.716   5.784   2.391 -0.2530 -0.1808 -0.2586
  346SOL    HW2 1150   2.622   5.787   2.379 -0.3281  2.2387  0.4146
  346SOL    HW3 1151   2.732   5.830   2.474  1.5534  0.0174 -0.6624
  346SOL    MW4 1152   2.706   5.791   2.401 -0.4280 -0.0866  0.4894
  347SOL     OW 1153   5.734   1.904   6.403  0.4223  0.4743 -0.0618
  347SOL    HW2 1154   5.689   1.849   6.338 -1.6798  1.2313  0.6811
  347SOL    HW3 1155   5.700   1.992   6.388 -0.7259  0.5511  2.5343
  347SOL    MW4 1156   5.724   1.908   6.392  0.4475  0.2273 -0.0772
  348SOL     OW 1157   3.755   5.099   2.602 -0.4697 -0.5291  0.4565
  348SOL    HW2 1158   3.708   5.066   2.679 -0.6320  0.1408  0.6615
  348SOL    HW3 1159   3.686   5.119   2.539 -0.4754  0.3727  0.7249
  348SOL    MW4 1160   3.740   5.098   2.604  0.0073 -0.1284  0.2583
  349SOL     OW 1161   5.124   1.038   5.736  0.4834  0.2906  0.0320
  349SOL    HW2 1162   5.102   1.113   5.682  0.1065  0.1211 -0.0502
  349SOL    HW3 1163   5.191   0.990   5.686  0.7278  0.5710  0.0884
  349SOL    MW4 1164   5.130   1.041   5.722  0.4439  0.5497  0.2610
  350SOL     OW 1165   2.723   0.548   6.354 -0.2240 -0.3457 -0.2823
  350SOL    HW2 1166   2.696   0.622   6.300  1.1877 -0.0716 -0.6555
  350SOL    HW3 1167   2.660   0.479   6.335 -0.0669 -0.0734 -1.8874
  350SOL    MW4 1168   2.711   0.549   6.345  0.5643 -0.3848 -0.1227
  351SOL     OW 1169   5.519   5.772   0.466 -0.1446  0.5360 -0.0195
  351SOL    HW2 1170   5.509   5.863   0.493  0.3686 -0.2074  2.9793
  351SOL    HW3 1171   5.606   5.747   0.498  0.4346 -0.5917 -2.2705
  351SOL    MW4 1172   5.529   5.781   0.473  0.0844  1.0657  0.2974
  352SOL     OW 1173   5.504   1.393   6.208 -0.0122  0.0069  0.1735
  352SOL    HW2 1174   5.426   1.441   6.235 -0.6044 -1.5082  1.3843
  352SOL    HW3 1175   5.568   1.411   6.277  0.0132 -0.3232  0.2395
  352SOL    MW4 1176   5.502   1.402   6.221  0.0015  0.3939  0.0841
  353SOL     OW 1177   5.942   3.386   1.240  0.3338  0.3763  0.1338
  353SOL    HW2 1178   5.996   3.308   1.253  0.9671  0.9512  1.1105
  353SOL    HW3 1179   5.918   3.383   1.147  0.0353 -1.1596  0.2330
  353SOL    MW4 1180   5.946   3.375   1.229 -0.0328  0.5778 -0.1469
  354SOL     OW 1181   6.165   2.775   2.222  0.0092 -0.4717 -0.1396
  354SOL    HW2 1182   6.259   2.767   2.239  0.4594  1.2836 -1.5413
  354SOL    HW3 1183   6.157   2.763   2.127 -0.8903  1.4264 -0.3462
  354SOL    MW4 1184   6.177   2.772   2.212  0.2122  0.0456 -0.5492
  355SOL     OW 1185   2.131   5.744   3.587  0.0537  0.1004 -0.1508
  355SOL    HW2 1186   2.147   5.731   3.680  1.1063  1.5200 -0.1066
  355SOL    HW3 1187   2.218   5.737   3.546 -0.4955 -1.4380 -1.1790
  355SOL    MW4 1188   2.144   5.741   3.594 -0.1212  0.0782  0.1988
  356SOL     OW 1189   1.533   2.326   5.848 -0.3538  0.0628  0.7212
  356SOL    HW2 1190   1.552   2.417   5.824 -0.8661 -0.4726 -2.0633
  356SOL    HW3 1191   1.452   2.330   5.898 -1.9005  1.0127 -1.6831
  356SOL    MW4 1192   1.525   2.338   5.851 -0.3599 -0.0181  0.1403
  357SOL     OW 1193   5.671   1.176   4.838  0.6186 -0.0886 -0.2752
  357SOL    HW2 1194   5.765   1.175   4.820  0.3947 -1.3951 -1.4710
  357SOL    HW3 1195   5.637   1.250   4.787  0.6278 -1.2390 -2.0364
  357SOL    MW4 1196   5.679   1.186   4.829 -0.0695 -0.4318 -0.2867
  358SOL     OW 1197   4.921   0.198   6.039 -0.2448 -1.0023 -0.3060
  358SOL    HW2 1198   4.903   0.220   5.948 -0.0202 -1.6230 -0.5057
  358SOL    HW3 1199   4.916   0.102   6.042 -2.2208 -0.9153  0.7493
  358SOL    MW4 1200   4.918   0.188   6.028 -0.3580 -0.2699  0.3677
  359SOL     OW 1201   4.232   3.104   4.891 -0.5089 -0.2463 -0.1492
  359SOL    HW2 1202   4.262   3.128   4.979  1.3038 -4.9289  0.8307
  359SOL    HW3 1203   4.138   3.089   4.901 -0.6889  1.1402  0.4494
  359SOL    MW4 1204   4.224   3.105   4.904  0.2370 -0.4987 -0.1555
  360SOL     OW 1205   0.518   2.533   0.961  0.4434 -0.1558  0.1302
  360SOL    HW2 1206   0.532   2.455   1.015  2.1882 -0.3203 -0.4959
  360SOL    HW3 1207   0.424   2.534   0.944  0.4855 -2.7129 -0.6895
  360SOL    MW4 1208   0.507   2.523   0.966 -0.1877  0.2176 -0.1003
  361SOL     OW 1209   1.020   6.419   4.677  0.1756  0.1779  0.1793
  361SOL    HW2 1210   1.029   6.504   4.720 -1.3375  0.5788 -0.2140
  361SOL    HW3 1211   1.064   6.357   4.736  0.4041  1.0804  0.9833
  361SOL    MW4 1212   1.027   6.422   4.691  0.0895  0.0139  0.2939
  362SOL     OW 1213   3.326   3.690   3.128  0.5935  0.3620  0.4820
  362SOL    HW2 1214   3.404   3.680   3.182  0.0185 -2.1701  0.9429
  362SOL    HW3 1215   3.269   3.749   3.178  0.9028 -0.3153  1.6597
  362SOL    MW4 1216   3.329   3.697   3.141 -0.6729 -0.0909 -0.1248
  363SOL     OW 1217   3.014   5.118   0.040  0.0881  0.0309 -0.0128
  363SOL    HW2 1218   2.959   5.075  -0.025 -0.0743 -0.9534  0.7530
  363SOL    HW3 1219   2.952   5.158   0.101  0.2316  1.4926 -0.7652
  363SOL    MW4 1220   2.999   5.118   0.040 -0.0917  0.1813 -0.6997
  364SOL     OW 1221   6.375   3.604   0.184  0.2342 -0.6130  0.1163
  364SOL    HW2 1222   6.281   3.613   0.200  0.0061 -0.6693 -1.0921
  364SOL    HW3 1223   6.383   3.601   0.088  1.6136  1.0346  0.1159
  364SOL    MW4 1224   6.364   3.605   0.173 -0.5708 -0.7190  0.3339
  365SOL     OW 1225   5.015   1.334   4.945  0.2228 -0.1308  0.0697
  365SOL    HW2 1226   5.008   1.405   4.881  1.6610 -0.4617 -0.5010
  365SOL    HW3 1227   5.028   1.255   4.892 -1.2482 -0.8335  0.6991
  365SOL    MW4 1228   5.016   1.333   4.930  0.2616  0.5263 -0.0006
  366SOL     OW 1229   5.506   0.042   3.040  0.4361 -0.1338  0.0971
  366SOL    HW2 1230   5.518  -0.024   3.109  0.9690 -1.3106 -1.0819
  366SOL    HW3 1231   5.481  -0.008   2.963 -1.6061  1.3053 -0.2495
  366SOL    MW4 1232   5.504   0.027   3.039  0.1785  0.0430  1.0680
  367SOL     OW 1233   4.826   4.951   0.415 -0.0736  0.7133 -0.5990
  367SOL    HW2 1234   4.768   5.014   0.372 -0.1098  0.4979 -0.8744
  367SOL    HW3 1235   4.899   5.003   0.447 -0.8919  1.1371  0.6403
  367SOL    MW4 1236   4.828   4.966   0.413 -0.0946 -0.3315  0.6090
  368SOL     OW 1237   5.377   5.993   5.031 -0.3423 -0.1771  0.2452
  368SOL    HW2 1238   5.316   5.961   4.965 -1.2560 -1.2038  1.5232
  368SOL    HW3 1239   5.336   5.970   5.114  0.4615  1.6228  1.2042
  368SOL    MW4 1240   5.363   5.986   5.033  0.0432 -0.2105 -0.1300
  369SOL     OW 1241   3.542   2.650   5.956 -0.1453 -0.1034  0.4414
  369SOL    HW2 1242   3.478   2.622   5.890 -1.8854  0.3689  1.8469
  369SOL    HW3 1243   3.497   2.637   6.040  1.8302 -0.2726  1.5339
  369SOL    MW4 1244   3.527   2.645   5.958  0.3192  0.3162 -0.1819
  370SOL     OW 1245   3.808   1.972   1.665 -0.2219 -0.0003  0.4147
  370SOL    HW2 1246   3.794   2.055   1.710 -0.5522  0.3332 -0.2959
  370SOL    HW3 1247   3.765   1.983   1.581  0.7471 -0.4730 -0.1534
  370SOL    MW4 1248   3.801   1.984   1.660 -0.0928 -0.4340  0.0891
  371SOL     OW 1249   3.664   4.067   1.947  0.0486  0.3688  0.0913
  371SOL    HW2 1250   3.693   4.146   1.992  1.5354 -0.4150  0.5847
  371SOL    HW3 1251   3.659   4.000   2.015  2.2261 -0.8184 -0.8226
  371SOL    MW4 1252   3.667   4.068   1.962 -0.1793 -0.0967  0.3086
  372SOL     OW 1253   2.083   5.219   3.782 -0.4406 -0.2285  0.0665
  372SOL    HW2 1254   2.056   5.212   3.874 -0.4778 -0.8506  0.0143
  372SOL    HW3 1255   2.038   5.146   3.738  1.6600 -1.6237  0.0757
  372SOL    MW4 1256   2.074   5.208   3.788 -0.5610 -0.6472 -0.7674
  373SOL     OW 1257   1.347   2.241   0.959  0.0796 -0.1311 -0.3270
  373SOL    HW2 1258   1.354   2.334   0.979 -1.3239 -0.2655  0.9548
  373SOL    HW3 1259   1.433   2.205   0.980  0.0812  0.5698  0.9093
  373SOL    MW4 1260   1.359   2.248   0.964 -0.2269 -0.2778 -0.1047
  374SOL     OW 1261   0.513   3.199   2.352  0.3078 -0.3162 -0.0497
  374SOL    HW2 1262   0.462   3.190   2.433 -0.6483 -2.3475 -0.7892
  374SOL    HW3 1263   0.590   3.144   2.366  0.0621 -0.8039 -0.5285
  374SOL    MW4 1264   0.516   3.190   2.365  0.5467  0.1455 -0.1587
  375SOL     OW 1265   2.996   0.055   0.907  0.6322 -0.0650  0.5152
  375SOL    HW2 1266   3.025   0.126   0.850  0.8407 -0.6672 -0.1534
  375SOL    HW3 1267   2.989  -0.021   0.849 -1.8785 -0.0749  0.7241
  375SOL    MW4 1268   2.999   0.054   0.892  0.8952 -0.2679  0.2015
  376SOL     OW 1269   1.134   1.052   1.886 -0.2709  0.3661 -0.0008
  376SOL    HW2 1270   1.162   0.999   1.961 -2.5566  0.4952  1.0324
  376SOL    HW3 1271   1.098   0.988   1.825 -0.8495  0.4889  0.2046
  376SOL    MW4 1272   1.133   1.037   1.888 -0.0260 -0.9419 -0.0924
  377SOL     OW 1273   3.629   5.340   4.724 -0.0469  0.0337  0.2196
  377SOL    HW2 1274   3.580   5.259   4.708  1.6459 -1.6365  2.7540
  377SOL    HW3 1275   3.702   5.337   4.661 -0.8754  0.4922 -0.8037
  377SOL    MW4 1276   3.632   5.329   4.713 -0.7299  0.1057  0.2101
  378SOL     OW 1277   4.722   3.837   2.268  0.6803 -0.1158  0.6264
  378SOL    HW2 1278   4.646   3.895   2.258  1.1982  0.4251 -0.2481
  378SOL    HW3 1279   4.797   3.890   2.242  1.3223 -0.7696  1.1042
  378SOL    MW4 1280   4.722   3.851   2.264  0.3528 -0.3480 -0.3851
  379SOL     OW 1281   1.947   2.326   4.904  0.1701 -0.0996  0.2752
  379SOL    HW2 1282   2.039   2.297   4.903  0.6250  1.1874  1.2195
  379SOL    HW3 1283   1.902   2.265   4.846  1.7014 -0.5003 -0.5558
  379SOL    MW4 1284   1.954   2.314   4.896 -0.1972 -0.2638  0.6644
  380SOL     OW 1285   0.145   5.123   0.972 -0.4366 -0.6548 -0.2757
  380SOL    HW2 1286   0.055   5.152   0.981 -0.3088 -0.6991  1.7877
  380SOL    HW3 1287   0.145   5.032   1.003  0.1616 -0.9559 -1.1173
  380SOL    MW4 1288   0.133   5.115   0.978 -0.2168  0.1171 -0.7681
  381SOL     OW 1289   0.497   1.512   4.995  0.2172 -0.0333  0.0121
  381SOL    HW2 1290   0.552   1.588   4.974  1.3804 -0.8584  0.0019
  381SOL    HW3 1291   0.547   1.464   5.061 -0.7863 -0.4832  0.4640
  381SOL    MW4 1292   0.511   1.516   5.001  0.0974  0.5673 -0.2519
  382SOL     OW 1293   3.107   1.007   0.553 -0.4542  0.3871 -0.3857
  382SOL    HW2 1294   3.186   0.956   0.533 -0.3253  0.0819  0.8547
  382SOL    HW3 1295   3.135   1.071   0.617 -1.7626 -1.5904  2.3787
  382SOL    MW4 1296   3.121   1.008   0.559  0.2668  0.3064  0.1767
  383SOL     OW 1297   1.242   4.380   6.048 -0.6994 -0.2674 -0.1379
  383SOL    HW2 1298   1.150   4.407   6.047 -0.8514 -0.7596 -1.6277
  383SOL    HW3 1299   1.244   4.307   6.110 -1.1198  0.3236  0.5943
  383SOL    MW4 1300   1.230   4.374   6.056 -0.2371 -0.3936 -0.4640
  384SOL     OW 1301   6.096   6.244   0.378 -0.3493 -0.3370  0.0643
  384SOL    HW2 1302   6.187   6.258   0.405  0.5553 -1.0051 -2.3692
  384SOL    HW3 1303   6.045   6.263   0.456  1.8796 -0.0303  1.5475
  384SOL    MW4 1304   6.102   6.248   0.392  0.0935  0.5076 -0.1894
  385SOL     OW 1305   1.144   0.091   5.620 -0.4663 -0.1832 -0.4679
  385SOL    HW2 1306   1.235   0.104   5.595  0.2391 -1.8397  1.0654
  385SOL    HW3 1307   1.128   0.158   5.687 -0.0693 -0.5266 -0.0289
  385SOL    MW4 1308   1.154   0.102   5.625 -0.0928 -0.6796 -0.4167
  386SOL     OW 1309   3.449   2.357   3.169 -0.5333  0.5550 -0.2956
  386SOL    HW2 1310   3.498   2.339   3.249 -0.5298 -0.8211 -0.5924
  386SOL    HW3 1311   3.500   2.426   3.125  0.9577 -0.5780 -0.4184
  386SOL    MW4 1312   3.462   2.364   3.174 -0.6328  0.2913  0.2124
  387SOL     OW 1313   6.169   3.529   5.867  0.1494 -0.5635  0.3455
  387SOL    HW2 1314   6.167   3.474   5.945 -1.3645 -0.4207  0.4495
  387SOL    HW3 1315   6.077   3.536   5.841  0.5656 -0.1474 -1.1241
  387SOL    MW4 1316   6.156   3.522   5.874 -0.2252  0.1464  0.7974
  388SOL     OW 1317   1.056   6.219   3.110 -0.3080 -0.1594  0.5590
  388SOL    HW2 1318   0.989   6.263   3.058  1.4024  2.9627  0.7629
  388SOL    HW3 1319   1.060   6.130   3.074 -3.9774 -0.2911  0.1094
  388SOL    MW4 1320   1.047   6.213   3.099  0.4845 -0.0555  0.3603
  389SOL     OW 1321   0.768   0.796   3.235  0.0975 -0.2815  0.3160
  389SOL    HW2 1322   0.778   0.884   3.272  0.9704 -0.3775  0.3285
  389SOL    HW3 1323   0.674   0.785   3.225  0.0024  1.0152 -0.5325
  389SOL    MW4 1324   0.757   0.806   3.238  0.1547 -0.3838  1.0096
  390SOL     OW 1325   4.673   0.578   5.884  0.0787  0.2801  0.2787
  390SOL    HW2 1326   4.769   0.581   5.881  0.1807 -1.2011  1.1745
  390SOL    HW3 1327   4.652   0.485   5.896 -1.4998  0.5043 -0.4966
  390SOL    MW4 1328   4.683   0.566   5.885  0.0794  0.6183  0.1653
  391SOL     OW 1329   6.053   5.641   4.370 -0.2434 -0.1650  0.3044
  391SOL    HW2 1330   6.087   5.587   4.299 -0.6377  0.4561 -0.3661
  391SOL    HW3 1331   6.084   5.729   4.351 -0.0746 -0.0455  1.0879
  391SOL    MW4 1332   6.062   5.646   4.358 -0.3770 -0.5663  0.3666
  392SOL     OW 1333   4.991   0.696   2.201 -0.2040  0.0904  0.4458
  392SOL    HW2 1334   5.075   0.734   2.174  0.8975 -2.1707  0.4387
  392SOL    HW3 1335   4.974   0.735   2.287  0.8546  0.5718  0.4596
  392SOL    MW4 1336   5.000   0.706   2.209  0.3113  0.3110  0.1044
  393SOL     OW 1337   2.982   4.540   4.036 -0.0836 -0.4570  0.0090
  393SOL    HW2 1338   2.943   4.560   4.121 -2.8980  0.2167 -1.3191
  393SOL    HW3 1339   2.959   4.614   3.981  0.1500 -1.6681 -1.7898
  393SOL    MW4 1340   2.974   4.552   4.040  0.1246  0.3942  0.1872
  394SOL     OW 1341   3.973   0.076   6.093  0.4717 -0.0491 -0.0093
  394SOL    HW2 1342   3.987   0.006   6.030  0.0173  0.9474 -1.2757
  394SOL    HW3 1343   4.050   0.074   6.150 -0.4633 -2.8558  1.3276
  394SOL    MW4 1344   3.985   0.067   6.092  0.0009  0.5099 -0.1345
  395SOL     OW 1345   2.620   3.395   4.783 -0.1354 -0.3080  0.4182
  395SOL    HW2 1346   2.645   3.325   4.842 -0.0957  0.5118  1.3916
  395SOL    HW3 1347   2.528   3.413   4.804  0.7450  2.1698  2.5480
  395SOL    MW4 1348   2.611   3.388   4.793 -0.2217  0.5496  0.8298
  396SOL     OW 1349   0.382   6.355   5.491  0.0083  0.3093 -0.3712
  396SOL    HW2 1350   0.291   6.328   5.476 -0.2567  0.2950  1.1469
  396SOL    HW3 1351   0.383   6.388   5.581  0.9473  2.6950 -1.1693
  396SOL    MW4 1352   0.370   6.356   5.501 -0.1387  0.4189 -0.2495
  397SOL     OW 1353   1.547   6.031   0.238  0.2703  0.1843  0.2957
  397SOL    HW2 1354   1.596   5.957   0.276  0.4828  0.4235  0.4885
  397SOL    HW3 1355   1.613   6.082   0.192  0.0409 -0.0094 -0.2553
  397SOL    MW4 1356   1.562   6.028   0.237  0.1656  0.2003  0.1816
  398SOL     OW 1357   3.473   0.922   5.900 -0.0241  0.4500  0.1229
  398SOL    HW2 1358   3.510   0.834   5.909  0.2280  0.6882  1.8157
  398SOL    HW3 1359   3.446   0.946   5.989 -2.0240  1.2699 -0.6482
  398SOL    MW4 1360   3.475   0.914   5.913 -0.1934 -0.4601  0.0360
  399SOL     OW 1361   1.340   3.170   4.086  0.7593 -0.5626 -0.2033
  399SOL    HW2 1362   1.287   3.120   4.148  0.8693 -0.0446  0.3143
  399SOL    HW3 1363   1.288   3.248   4.068  0.4151 -1.0281 -1.3012
  399SOL    MW4 1364   1.326   3.174   4.092  0.1966  0.3468 -0.3416
  400SOL     OW 1365   1.222   0.143   4.440  0.2936  0.1544 -0.0193
  400SOL    HW2 1366   1.247   0.195   4.517  0.9009 -2.4623  1.7012
  400SOL    HW3 1367   1.265   0.186   4.367  1.3652  1.6383  1.4098
  400SOL    MW4 1368   1.231   0.155   4.441  0.2724 -0.1545  0.0669
  401SOL     OW 1369   5.315   0.395   2.163 -0.3863  0.2303  0.7562
  401SOL    HW2 1370   5.319   0.401   2.258 -3.4658  0.0516  1.0153
  401SOL    HW3 1371   5.294   0.484   2.134 -1.3913 -0.0725  0.4813
  401SOL    MW4 1372   5.313   0.407   2.172  0.7963 -0.6956 -0.3112
  402SOL     OW 1373   4.340   3.949   3.549  0.2009  0.1155  0.1247
  402SOL    HW2 1374   4.314   4.027   3.599  2.7069  1.4343 -0.4352
  402SOL    HW3 1375   4.311   3.967   3.459 -1.9736 -1.0768  0.5222
  402SOL    MW4 1376   4.333   3.962   3.544 -0.3266  0.0024 -0.3400
  403SOL     OW 1377   5.928   0.931   3.177  0.0968 -0.2498  0.2965
  403SOL    HW2 1378   5.945   0.838   3.196  2.0229  0.1788  0.8339
  403SOL    HW3 1379   5.933   0.974   3.262 -0.5423  0.4014  0.0155
  403SOL    MW4 1380   5.931   0.924   3.191  0.0375 -0.2361 -0.1333
  404SOL     OW 1381   0.101   0.405   1.166  0.1895  0.1441 -0.6844
  404SOL    HW2 1382   0.083   0.497   1.146  0.8779  0.6425  0.8756
  404SOL    HW3 1383   0.044   0.356   1.106 -0.1367  1.5730 -1.5797
  404SOL    MW4 1384   0.091   0.410   1.156  0.1377  0.3617 -0.2317
  405SOL     OW 1385   3.167   1.309   1.804  0.0532  0.0700 -0.6311
  405SOL    HW2 1386   3.171   1.235   1.865  1.4659 -0.0587 -0.8331
  405SOL    HW3 1387   3.194   1.384   1.856  2.3774 -0.2215 -1.2906
  405SOL    MW4 1388   3.171   1.309   1.819  0.0881 -0.0805 -0.2968
  406SOL     OW 1389   2.630   5.257   5.760 -0.1372  0.0229  0.7757
  406SOL    HW2 1390   2.624   5.317   5.686 -1.4858 -0.2356  0.6579
  406SOL    HW3 1391   2.680   5.305   5.826  1.4197  0.1235 -0.4050
  406SOL    MW4 1392   2.636   5.271   5.759 -0.3132  0.7444  0.0321
  407SOL     OW 1393   2.541   1.066   4.049 -0.8854 -0.4034  0.2895
  407SOL    HW2 1394   2.606   1.136   4.061 -0.1949 -1.0796  0.6200
  407SOL    HW3 1395   2.521   1.068   3.955 -2.5995  1.7094  0.6310
  407SOL    MW4 1396   2.547   1.075   4.038  0.3649  1.2144 -0.3004
  408SOL     OW 1397   4.953   0.663   0.600 -0.0765 -0.0900 -0.2849
  408SOL    HW2 1398   4.883   0.635   0.540 -2.0032  0.1898  1.6808
  408SOL    HW3 1399   4.985   0.581   0.638  0.1351 -0.1758 -0.6501
  408SOL    MW4 1400   4.948   0.648   0.597 -0.0656 -0.3822 -0.4464
  409SOL     OW 1401   4.805   1.267   5.519  0.3804 -0.3292 -0.5694
  409SOL    HW2 1402   4.779   1.221   5.599  1.0229 -0.8849 -0.6783
  409SOL    HW3 1403   4.743   1.340   5.513 -2.0817 -2.3832 -1.5724
  409SOL    MW4 1404   4.793   1.271   5.529  0.0873  0.3765 -0.2330
  410SOL     OW 1405   1.051   2.022   1.799 -0.0520  0.1065 -0.0241
  410SOL    HW2 1406   1.131   2.003   1.749  1.1917 -1.2892  2.3051
  410SOL    HW3 1407   1.023   1.936   1.833 -0.5402  0.9972  1.9876
  410SOL    MW4 1408   1.058   2.008   1.797 -0.4432  0.0809  0.0241
  411SOL     OW 1409   6.019   0.616   2.934 -0.2771 -0.0214 -0.3741
  411SOL    HW2 1410   6.093   0.557   2.942 -0.4867 -0.3205 -0.5926
  411SOL    HW3 1411   5.960   0.572   2.872 -0.8709 -0.0274  0.1865
  411SOL    MW4 1412   6.021   0.603   2.927 -0.2276  0.5516 -0.2051
  412SOL     OW 1413   3.780   3.091   6.282  0.0145 -0.1661  0.1105
  412SOL    HW2 1414   3.783   3.006   6.327 -0.8595 -1.3650 -1.9730
  412SOL    HW3 1415   3.696   3.129   6.308 -0.6884 -1.0545 -0.7959
  412SOL    MW4 1416   3.769   3.085   6.292  0.0284  0.3807 -0.8163
  413SOL     OW 1417   1.199   3.765   5.905 -0.3141 -0.0408  0.0838
  413SOL    HW2 1418   1.179   3.831   5.971 -0.0276 -0.3379  0.4772
  413SOL    HW3 1419   1.117   3.717   5.893 -0.8833  1.1885 -1.1488
  413SOL    MW4 1420   1.186   3.767   5.912  0.1184 -0.1799  0.3490
  414SOL     OW 1421   6.105   0.003   2.850  0.0037 -0.4067 -0.7386
  414SOL    HW2 1422   6.130   0.090   2.818 -0.0892 -0.3039 -0.5341
  414SOL    HW3 1423   6.130   0.004   2.943 -0.1223 -0.5497 -0.7039
  414SOL    MW4 1424   6.112   0.015   2.858 -0.4471  0.6804  0.1615
  415SOL     OW 1425   3.294   4.411   0.390  0.5348 -0.3008 -0.0275
  415SOL    HW2 1426   3.357   4.409   0.318  0.4764  0.8972 -0.1297
  415SOL    HW3 1427   3.347   4.430   0.468  0.5976 -1.5894  0.2714
  415SOL    MW4 1428   3.310   4.414   0.391 -0.5436 -0.2632  0.0730
  416SOL     OW 1429   1.667   0.139   5.888 -0.1500  0.3318  0.4649
  416SOL    HW2 1430   1.700   0.213   5.939 -0.6590  0.2493  0.9208
  416SOL    HW3 1431   1.585   0.172   5.850 -1.1470 -0.4394  1.8411
  416SOL    MW4 1432   1.660   0.153   5.890 -0.4512  0.4902 -0.4785
  417SOL     OW 1433   4.494   4.313   1.365  0.1804  0.5802  0.3623
  417SOL    HW2 1434   4.578   4.284   1.330  0.4764  1.8778 -0.0481
  417SOL    HW3 1435   4.502   4.301   1.459  0.6496  0.2698  0.2897
  417SOL    MW4 1436   4.506   4.307   1.373 -0.3501 -0.1622  0.5056
  418SOL     OW 1437   3.397   4.715   5.778 -0.0208  0.3909  0.4100
  418SOL    HW2 1438   3.398   4.635   5.726  0.3068  1.8266 -1.9413
  418SOL    HW3 1439   3.479   4.713   5.827 -0.0542 -0.7156  0.4442
  418SOL    MW4 1440   3.408   4.704   5.778  0.1539  0.3717 -0.7240
  419SOL     OW 1441   5.265   4.747   0.477  0.0855  0.2092 -0.0353
  419SOL    HW2 1442   5.333   4.808   0.504 -0.9146  1.1136  0.5214
  419SOL    HW3 1443   5.236   4.706   0.559 -0.1594 -0.0475 -0.2471
  419SOL    MW4 1444   5.270   4.749   0.491  0.5223 -0.3757 -0.0437
  420SOL     OW 1445   6.017   1.813   6.359 -0.4792 -0.5517  0.1705
  420SOL    HW2 1446   5.932   1.843   6.391 -0.1240  1.8744 -0.9540
  420SOL    HW3 1447   5.996   1.757   6.284 -1.1207 -0.2502  0.1151
  420SOL    MW4 1448   6.003   1.810   6.353  0.0486  0.5063 -0.6826
  421SOL     OW 1449   2.343   1.603   4.561  0.4755 -0.0177  0.1645
  421SOL    HW2 1450   2.398   1.635   4.489 -0.2842 -1.8278 -1.2807
  421SOL    HW3 1451   2.391   1.529   4.597  0.8924  0.9263  1.6524
  421SOL    MW4 1452   2.356   1.598   4.556 -0.1167 -0.5928  0.0077
  422SOL     OW 1453   5.478   0.948   1.793 -0.6573  0.4690 -0.1730
  422SOL    HW2 1454   5.471   1.023   1.853  1.9184 -0.5131  1.5108
  422SOL    HW3 1455   5.478   0.872   1.851 -2.1396 -0.8300 -1.7793
  422SOL    MW4 1456   5.477   0.948   1.809 -0.0995 -0.2664 -0.4060
  423SOL     OW 1457   3.067   5.227   1.919 -0.0875  0.4982 -0.5008
  423SOL    HW2 1458   3.111   5.251   2.001 -1.6015  0.0485  0.4901
  423SOL    HW3 1459   3.096   5.138   1.902  0.9350  0.9115 -0.9563
  423SOL    MW4 1460   3.076   5.218   1.928 -0.1004  0.0345  0.1174
  424SOL     OW 1461   3.408   0.382   0.083 -0.0275 -0.0129  0.8613
  424SOL    HW2 1462   3.320   0.374   0.119 -0.9949  0.8357 -1.1464
  424SOL    HW3 1463   3.428   0.476   0.088 -0.8483  0.4173 -2.0399
  424SOL    MW4 1464   3.399   0.393   0.089 -0.2432  0.3785 -0.4603
  425SOL     OW 1465   2.099   1.924   3.658 -0.0404  0.0255 -0.0535
  425SOL    HW2 1466   2.127   1.968   3.738  1.9835  0.4309 -0.9156
  425SOL    HW3 1467   2.050   1.847   3.688  2.0224 -0.7204  1.6448
  425SOL    MW4 1468   2.096   1.919   3.672 -0.3618 -0.4540  0.2498
  426SOL     OW 1469   6.023   4.154   6.061 -0.0745 -0.2341 -0.0097
  426SOL    HW2 1470   6.067   4.094   6.121 -1.1903 -1.5506 -0.4747
  426SOL    HW3 1471   6.030   4.239   6.104  2.5959 -0.4174  0.0891
  426SOL    MW4 1472   6.030   4.158   6.075  0.2720  0.8831  0.2054
  427SOL     OW 1473   6.162   5.956   1.205  0.2300  0.3636  0.7830
  427SOL    HW2 1474   6.224   5.889   1.176  0.2931  0.0480  1.6300
  427SOL    HW3 1475   6.107   5.912   1.269 -2.0143  0.1343 -1.1696
  427SOL    MW4 1476   6.163   5.941   1.209  0.3557  0.1580 -0.0071
  428SOL     OW 1477   2.447   5.623   2.590 -0.2654 -0.5254  0.5272
  428SOL    HW2 1478   2.423   5.692   2.528 -0.7211 -0.8224  0.3669
  428SOL    HW3 1479   2.372   5.564   2.589 -0.2864 -0.5213  1.3757
  428SOL    MW4 1480   2.434   5.624   2.582  0.0959 -0.6149 -0.8508
  429SOL     OW 1481   1.819   1.878   1.237  0.3236  0.2332 -0.1184
  429SOL    HW2 1482   1.841   1.788   1.261  1.9392  0.5874 -0.2063
  429SOL    HW3 1483   1.828   1.881   1.142 -0.9444  0.1819 -0.2527
  429SOL    MW4 1484   1.823   1.867   1.227  0.1808  0.4492  0.0984
  430SOL     OW 1485   2.115   0.486   3.872  0.2961  0.0854 -0.3707
  430SOL    HW2 1486   2.099   0.423   3.943 -0.7096 -0.1765 -0.8064
  430SOL    HW3 1487   2.167   0.438   3.808 -0.2735 -0.2431 -0.5957
  430SOL    MW4 1488   2.120   0.471   3.873 -0.0901 -0.6309  0.2122
  431SOL     OW 1489   0.096   1.655   3.712  0.7836 -0.2805 -0.7778
  431SOL    HW2 1490   0.159   1.687   3.777  0.3548 -0.8136 -0.0839
  431SOL    HW3 1491   0.142   1.584   3.667  1.3027  0.4912 -1.4976
  431SOL    MW4 1492   0.111   1.650   3.715  0.8652 -0.3654  0.1962
  432SOL     OW 1493   0.970   2.603   0.410 -0.1524 -0.1882 -1.0880
  432SOL    HW2 1494   1.034   2.572   0.473 -1.6367  0.8248  1.0326
  432SOL    HW3 1495   1.008   2.684   0.375 -0.1410  0.2811 -0.0197
  432SOL    MW4 1496   0.983   2.610   0.413 -0.2157 -0.1001  0.6088
  433SOL     OW 1497   3.222   2.036   0.691  0.0543  0.3457 -0.6069
  433SOL    HW2 1498   3.213   1.941   0.700  1.2839  0.3744  1.8611
  433SOL    HW3 1499   3.151   2.072   0.745  1.5597  0.7181  1.2582
  433SOL    MW4 1500   3.211   2.028   0.700  0.0037 -0.2143  0.2629
  434SOL     OW 1501   4.759   4.762   0.059  0.3191  0.1371  0.4135
  434SOL    HW2 1502   4.831   4.699   0.054 -0.2475 -0.5879  1.3907
  434SOL    HW3 1503   4.704   4.742  -0.017  0.4879 -0.1122  0.3556
  434SOL    MW4 1504   4.762   4.751   0.048 -0.3148 -0.4852  0.1348
  435SOL     OW 1505   1.861   0.336   3.798 -0.0373  0.0214  0.3483
  435SOL    HW2 1506   1.786   0.394   3.807 -0.7491 -0.5884 -1.1925
  435SOL    HW3 1507   1.933   0.381   3.842 -0.7312  1.7555 -0.2184
  435SOL    MW4 1508   1.861   0.350   3.805 -0.6631  0.1171 -0.1784
  436SOL     OW 1509   4.503   6.322   3.579  0.8112  0.2078 -0.0452
  436SOL    HW2 1510   4.553   6.386   3.529  1.0573 -0.4302 -0.6297
  436SOL    HW3 1511   4.537   6.237   3.551 -1.4714 -0.3165 -1.4674
  436SOL    MW4 1512   4.514   6.319   3.569  0.0136 -0.8278  0.5061
  437SOL     OW 1513   4.032   3.657   5.653 -0.2346  0.3438  0.1442
  437SOL    HW2 1514   3.965   3.718   5.622 -0.1285  0.4264  0.0731
  437SOL    HW3 1515   4.003   3.571   5.624 -0.2138  0.4030 -0.0503
  437SOL    MW4 1516   4.019   3.654   5.645 -0.1524  0.5559  0.5178
  438SOL     OW 1517   1.259   0.249   1.076 -0.0402 -0.0679 -0.0107
  438SOL    HW2 1518   1.232   0.164   1.110 -1.8403  0.3804 -0.2195
  438SOL    HW3 1519   1.209   0.313   1.127 -0.1633  0.7726 -1.1335
  438SOL    MW4 1520   1.249   0.247   1.087  0.1042  0.2294 -0.7600
  439SOL     OW 1521   1.942   2.383   5.166 -0.4084  0.2383 -0.0321
  439SOL    HW2 1522   1.868   2.351   5.218  0.6492 -1.3249  0.6070
  439SOL    HW3 1523   1.935   2.336   5.083 -0.4367  0.4881 -0.1704
  439SOL    MW4 1524   1.932   2.372   5.162  0.0144 -0.6187 -0.6716
  440SOL     OW 1525   0.831   0.657   6.022 -0.6263 -0.3979 -0.0953
  440SOL    HW2 1526   0.788   0.693   6.100  1.7743 -1.3414  1.7576
  440SOL    HW3 1527   0.839   0.733   5.963 -2.8287  0.2515  0.3473
  440SOL    MW4 1528   0.826   0.672   6.025 -0.4143 -0.4274  0.4282
  441SOL     OW 1529   2.220   1.533   1.804  0.6903  0.0160  0.2901
  441SOL    HW2 1530   2.140   1.485   1.781  0.6747  0.5065 -0.7232
  441SOL    HW3 1531   2.221   1.607   1.744  1.3660  0.5985  1.0082
  441SOL    MW4 1532   2.209   1.536   1.793 -0.0598  0.2888  0.2702
  442SOL     OW 1533   4.800   1.962   3.225  0.0437  0.4838  0.3788
  442SOL    HW2 1534   4.841   1.879   3.199 -0.6866  0.8685 -2.4198
  442SOL    HW3 1535   4.707   1.942   3.230 -0.4471  1.4500 -2.5449
  442SOL    MW4 1536   4.793   1.948   3.222 -0.7541 -0.3020  0.3201
  443SOL     OW 1537   6.324   2.092   1.257 -0.1132  0.5170  0.8499
  443SOL    HW2 1538   6.383   2.050   1.320  0.9236  1.5192  0.5602
  443SOL    HW3 1539   6.381   2.134   1.194 -1.1403 -0.6656 -0.9526
  443SOL    MW4 1540   6.339   2.092   1.257  0.6444 -0.5459 -0.1461
  444SOL     OW 1541   6.365   3.245   5.223 -0.0551 -0.2165 -1.1096
  444SOL    HW2 1542   6.456   3.247   5.251 -0.4769 -0.0889  0.2972
  444SOL    HW3 1543   6.358   3.315   5.158  0.7453  0.0420 -0.9221
  444SOL    MW4 1544   6.376   3.255   5.218 -0.1502  0.3883 -0.2584
  445SOL     OW 1545   4.131   6.017   0.048 -0.1845  0.2222 -0.0749
  445SOL    HW2 1546   4.212   6.037   0.096 -1.1198  0.8909  1.2738
  445SOL    HW3 1547   4.064   6.069   0.091 -1.2969 -0.0620 -1.3954
  445SOL    MW4 1548   4.133   6.026   0.060  0.1897 -0.2826 -0.2330
  446SOL     OW 1549   6.143   0.895   3.690 -0.0504  0.1450  0.3033
  446SOL    HW2 1550   6.228   0.885   3.648 -0.0644  2.2322 -0.3509
  446SOL    HW3 1551   6.099   0.811   3.678  1.5074 -0.6158 -0.2692
  446SOL    MW4 1552   6.148   0.883   3.683 -0.6356  0.1491  0.3875
  447SOL     OW 1553   5.333   0.483   2.487  0.2153  0.1005  0.0693
  447SOL    HW2 1554   5.309   0.392   2.502 -0.1206 -0.1918 -1.9863
  447SOL    HW3 1555   5.263   0.534   2.528  0.1049 -0.5710  0.7247
  447SOL    MW4 1556   5.320   0.478   2.494 -0.1186  0.6080  0.0317
  448SOL     OW 1557   2.613   3.634   5.784  0.1685 -0.3139 -0.4869
  448SOL    HW2 1558   2.685   3.676   5.830 -0.2197 -1.1075  0.8793
  448SOL    HW3 1559   2.655   3.582   5.715  0.7538  0.8358 -1.0176
  448SOL    MW4 1560   2.628   3.633   5.781 -0.1675 -0.0563 -0.2843
  449SOL     OW 1561   2.990   2.239   5.991 -0.1110 -0.4135 -0.4189
  449SOL    HW2 1562   2.929   2.176   6.029 -0.9451  0.1754 -0.7289
  449SOL    HW3 1563   3.043   2.270   6.064 -2.0131  1.0698  0.4287
  449SOL    MW4 1564   2.989   2.235   6.006 -0.4234 -0.5116  0.6256
  450SOL     OW 1565   1.156   2.239   1.947  0.5690  0.2261  0.1917
  450SOL    HW2 1566   1.212   2.256   1.871  0.4915 -0.6305 -0.0704
  450SOL    HW3 1567   1.105   2.161   1.923 -0.8585  1.0751  0.3736
  450SOL    MW4 1568   1.157   2.231   1.934 -0.5239 -0.6821  1.0630
  451SOL     OW 1569   1.499   5.721   6.194 -0.2531  0.3289  0.2411
  451SOL    HW2 1570   1.426   5.707   6.134 -0.4754 -0.0635  0.6009
  451SOL    HW3 1571   1.540   5.635   6.202 -0.0927  0.4293  0.4800
  451SOL    MW4 1572   1.495   5.708   6.187  0.1409 -0.9414 -0.1992
  452SOL     OW 1573   2.250   5.948   5.829 -0.5150  0.3879  0.1309
  452SOL    HW2 1574   2.217   5.893   5.759  0.5772 -0.5029  0.2784
  452SOL    HW3 1575   2.172   5.977   5.876 -1.2648  0.9666 -1.4004
  452SOL    MW4 1576   2.236   5.945   5.826  0.6754  0.2233 -0.3698
  453SOL     OW 1577   3.586   4.645   2.598 -0.4754  0.3688 -0.5951
  453SOL    HW2 1578   3.667   4.655   2.648 -0.4000 -0.7265 -0.4908
  453SOL    HW3 1579   3.609   4.589   2.524 -1.1136  0.1218 -0.6151
  453SOL    MW4 1580   3.599   4.639   2.595  0.2769  1.0245 -0.4543
  454SOL     OW 1581   1.472   4.760   2.343  0.4902  0.3144  0.5136
  454SOL    HW2 1582   1.490   4.846   2.304 -3.2472  1.2883  0.4986
  454SOL    HW3 1583   1.436   4.709   2.271  3.2986 -1.6679  0.3477
  454SOL    MW4 1584   1.470   4.765   2.328  0.5649 -0.4081 -0.0367
  455SOL     OW 1585   4.979   4.483   3.970 -0.0253 -0.6287 -0.1527
  455SOL    HW2 1586   4.952   4.403   3.926 -0.0644 -0.5231 -0.3192
  455SOL    HW3 1587   4.900   4.512   4.017  0.5118 -1.8016  1.6161
  455SOL    MW4 1588   4.965   4.476   3.971 -0.1049 -0.1454  0.4619
  456SOL     OW 1589   0.052   5.945   6.264 -0.0208 -0.3234  0.3971
  456SOL    HW2 1590   0.067   5.892   6.342 -1.0573  1.0389  1.5621
  456SOL    HW3 1591   0.122   6.010   6.266 -0.6101  0.3073  0.7308
  456SOL    MW4 1592   0.063   5.946   6.275 -0.5110 -0.1124 -0.4845
  457SOL     OW 1593   2.408   1.444   3.332 -0.1792  0.5946  0.6126
  457SOL    HW2 1594   2.414   1.351   3.310  1.7117  1.1674 -1.7455
  457SOL    HW3 1595   2.463   1.487   3.267 -0.3654  3.3165  2.1231
  457SOL    MW4 1596   2.417   1.437   3.321  0.0988  0.0547 -0.1289
  458SOL     OW 1597   3.163   2.134   3.173  0.0009 -0.5679 -0.2498
  458SOL    HW2 1598   3.242   2.183   3.195  1.1254 -1.5438 -1.8310
  458SOL    HW3 1599   3.131   2.099   3.256  0.2534  1.2020  0.6407
  458SOL    MW4 1600   3.169   2.136   3.187 -0.9589 -0.1308 -0.1501
  459SOL     OW 1601   0.286   3.121   5.812 -0.4921 -0.5180  0.9299
  459SOL    HW2 1602   0.253   3.058   5.877 -0.7096 -2.0061 -0.5572
  459SOL    HW3 1603   0.312   3.067   5.737 -2.3068  1.2474 -1.1266
  459SOL    MW4 1604   0.285   3.105   5.811 -0.0986 -0.2667  0.1298
  460SOL     OW 1605   4.176   1.515   4.015 -0.5750  0.2565 -0.2532
  460SOL    HW2 1606   4.123   1.594   3.999 -0.6683  0.2284 -0.0854
  460SOL    HW3 1607   4.164   1.463   3.936 -1.0244  0.1237 -0.1044
  460SOL    MW4 1608   4.167   1.519   4.003  0.2231 -0.4059 -0.0629
  461SOL     OW 1609   0.365   0.439   0.662 -0.6104 -0.0063  0.2471
  461SOL    HW2 1610   0.338   0.375   0.728  1.0794  1.2906  2.3114
  461SOL    HW3 1611   0.440   0.397   0.618  0.8640  0.6641  1.9818
  461SOL    MW4 1612   0.372   0.425   0.665 -0.4709  0.0729 -0.4424
  462SOL     OW 1613   2.361   5.713   3.420 -0.5903  0.1190  0.0472
  462SOL    HW2 1614   2.347   5.801   3.385  3.1166  0.2932 -1.5068
  462SOL    HW3 1615   2.338   5.655   3.347 -0.2932  0.0177  0.0311
  462SOL    MW4 1616   2.356   5.717   3.405  0.1009 -0.6582  0.2025
  463SOL     OW 1617   1.674   4.730   0.367  0.0733 -0.0650 -0.0390
  463SOL    HW2 1618   1.642   4.640   0.354 -2.3407  0.4444  1.6025
  463SOL    HW3 1619   1.709   4.730   0.456  0.4063  0.5274 -0.1686
  463SOL    MW4 1620   1.674   4.718   0.377  0.0001 -0.4246 -0.2736
  464SOL     OW 1621   2.766   5.931   5.956 -0.5943 -0.0406  0.4547
  464SOL    HW2 1622   2.688   5.958   5.908 -0.5668 -0.3176  0.2452
  464SOL    HW3 1623   2.738   5.922   6.047 -0.7249  0.1810  0.4366
  464SOL    MW4 1624   2.752   5.933   5.961 -0.6923 -0.1281 -0.1727
  465SOL     OW 1625   1.406   4.378   3.914 -0.1441 -0.7293  0.3053
  465SOL    HW2 1626   1.426   4.381   3.820  0.0157 -1.3151  0.3111
  465SOL    HW3 1627   1.324   4.426   3.923  1.8687  3.0415  0.4777
  465SOL    MW4 1628   1.398   4.384   3.903 -0.5901 -0.0105  0.5227
  466SOL     OW 1629   0.104   4.997   3.681  0.5578  0.6473 -0.1290
  466SOL    HW2 1630   0.096   4.911   3.640 -0.4887  0.2555  0.8379
  466SOL    HW3 1631   0.173   5.041   3.631  0.6856 -0.5178 -1.0302
  466SOL    MW4 1632   0.112   4.991   3.669  0.0233 -0.6900  0.2665
  467SOL     OW 1633   2.984   4.511   5.106  0.1622 -0.1291  0.2882
  467SOL    HW2 1634   2.971   4.485   5.015  0.5740  2.5346 -0.6053
  467SOL    HW3 1635   2.998   4.606   5.103  0.9474 -0.0592  3.0574
  467SOL    MW4 1636   2.984   4.520   5.094  0.4905  0.0877  0.6525
  468SOL     OW 1637   0.343   3.805   2.837 -0.5163  0.1633 -0.3072
  468SOL    HW2 1638   0.314   3.747   2.907  0.7622 -0.4102 -0.2222
  468SOL    HW3 1639   0.364   3.746   2.765 -0.0047  0.5884 -0.5068
  468SOL    MW4 1640   0.342   3.789   2.837 -0.2222  0.0867  0.2393
  469SOL     OW 1641   0.451   4.171   5.496  0.1481  0.2988 -0.3716
  469SOL    HW2 1642   0.446   4.211   5.583  0.9402 -0.9743  0.3010
  469SOL    HW3 1643   0.386   4.218   5.444  0.0233  1.4383  0.7640
  469SOL    MW4 1644   0.442   4.182   5.501 -0.6265 -0.2673  0.0235
  470SOL     OW 1645   0.643   4.175   2.949  0.0596 -0.5361 -0.2451
  470SOL    HW2 1646   0.610   4.192   2.860  0.5160 -2.2659 -0.7733
  470SOL    HW3 1647   0.601   4.093   2.975  0.5153 -0.4354  0.8489
  470SOL    MW4 1648   0.633   4.167   2.940 -0.7944 -0.2907 -0.1191
  471SOL     OW 1649   6.222   4.365   2.523 -0.4915 -0.1294 -0.1628
  471SOL    HW2 1650   6.164   4.407   2.586 -0.4697  0.7798 -0.7225
  471SOL    HW3 1651   6.211   4.271   2.538 -3.3001 -0.0724 -1.3038
  471SOL    MW4 1652   6.213   4.358   2.534 -0.1837  0.2679  0.6598
  472SOL     OW 1653   1.830   0.084   0.320  0.2078  0.1318 -0.2717
  472SOL    HW2 1654   1.828   0.050   0.231 -0.5427 -1.1371  0.2032
  472SOL    HW3 1655   1.852   0.008   0.375  1.5424  1.0695  0.5662
  472SOL    MW4 1656   1.833   0.069   0.316 -0.2276 -0.1459  0.6498
  473SOL     OW 1657   1.906   1.749   5.487 -0.1036  0.0912 -0.1000
  473SOL    HW2 1658   1.967   1.822   5.487  1.1415 -0.9080  0.0594
  473SOL    HW3 1659   1.836   1.776   5.428 -0.5895  2.1136  1.3286
  473SOL    MW4 1660   1.905   1.762   5.479 -0.2408 -0.1736  0.1762
  474SOL     OW 1661   5.504   1.136   0.540 -0.5711 -0.2198  0.1758
  474SOL    HW2 1662   5.421   1.180   0.521 -0.8977 -0.1604  1.6328
  474SOL    HW3 1663   5.571   1.193   0.502 -1.0899  0.7007  0.6024
  474SOL    MW4 1664   5.502   1.149   0.533  0.1993 -0.1890 -0.1964
  475SOL     OW 1665   3.499   0.885   0.828 -0.2475  0.6588 -0.7175
  475SOL    HW2 1666   3.559   0.845   0.765  1.1120  2.2180 -0.4992
  475SOL    HW3 1667   3.535   0.973   0.843 -0.0561  0.1365  2.7589
  475SOL    MW4 1668   3.512   0.892   0.822  0.2375  0.3060  0.0799
  476SOL     OW 1669   5.984   4.951   1.619 -0.0191 -0.0267  0.4223
  476SOL    HW2 1670   6.077   4.969   1.636 -0.1396 -0.5999  1.8039
  476SOL    HW3 1671   5.937   5.007   1.681 -0.4513 -2.7425  2.7517
  476SOL    MW4 1672   5.990   4.961   1.629  0.1180 -0.3648  0.0438
  477SOL     OW 1673   2.787   3.351   4.190 -0.5780  0.1423 -0.1859
  477SOL    HW2 1674   2.819   3.287   4.127 -0.1646  0.3051 -0.1487
  477SOL    HW3 1675   2.784   3.433   4.141  0.9797  0.5432  0.3217
  477SOL    MW4 1676   2.791   3.354   4.175 -0.1701 -0.4384  0.2591
  478SOL     OW 1677   0.760   1.286   1.686 -0.8055  0.3560 -0.7898
  478SOL    HW2 1678   0.688   1.295   1.749 -0.0843  0.5606  0.0163
  478SOL    HW3 1679   0.778   1.192   1.683  0.1726  0.4907  0.4751
  478SOL    MW4 1680   0.753   1.275   1.694 -0.5620 -0.3775  0.9348
  479SOL     OW 1681   0.197   3.050   0.712 -0.5351 -0.3344 -0.3444
  479SOL    HW2 1682   0.229   3.097   0.789  1.7158 -2.0476 -0.1368
  479SOL    HW3 1683   0.149   3.116   0.662 -1.0192  1.1204  1.9071
  479SOL    MW4 1684   0.195   3.065   0.715  0.2713 -0.4871  0.3555
  480SOL     OW 1685   1.600   5.919   3.488 -0.7992  0.2979  0.3933
  480SOL    HW2 1686   1.591   6.004   3.444 -1.5075 -0.9777 -2.1124
  480SOL    HW3 1687   1.545   5.859   3.437 -0.0841 -1.7578  1.8832
  480SOL    MW4 1688   1.592   5.922   3.475 -0.0458  0.4451 -0.1135
  481SOL     OW 1689   6.174   1.786   1.639 -0.8527 -0.5865 -0.1860
  481SOL    HW2 1690   6.109   1.726   1.602  0.1237 -1.1864 -0.9543
  481SOL    HW3 1691   6.248   1.731   1.664  0.2762  0.3348 -1.3718
  481SOL    MW4 1692   6.175   1.771   1.638 -0.4339  0.5321 -0.1601
  482SOL     OW 1693   0.960   4.735   3.057 -0.0101 -0.2496  0.0148
  482SOL    HW2 1694   0.981   4.647   3.023  0.8269 -0.4723  1.0544
  482SOL    HW3 1695   0.867   4.746   3.037 -0.0889 -1.3005 -0.2970
  482SOL    MW4 1696   0.950   4.725   3.050  0.3483 -0.0241 -0.0880
  483SOL     OW 1697   1.802   1.419   0.114 -0.0445  0.4427 -0.4269
  483SOL    HW2 1698   1.793   1.351   0.181  0.1198  0.7447 -0.0964
  483SOL    HW3 1699   1.866   1.383   0.052  1.0447  0.8306  0.4387
  483SOL    MW4 1700   1.809   1.405   0.115 -0.3940 -0.9229 -0.0993
  484SOL     OW 1701   4.952   2.907   5.256 -0.3700  0.5554  0.0686
  484SOL    HW2 1702   5.045   2.925   5.243 -0.5887  1.5752 -0.1311
  484SOL    HW3 1703   4.950   2.826   5.308  0.6395  1.2587  1.2419
  484SOL    MW4 1704   4.964   2.898   5.261 -0.1636  0.2591 -0.4715
  485SOL     OW 1705   1.607   0.848   3.101  0.4117  0.8035  0.0241
  485SOL    HW2 1706   1.514   0.835   3.120  0.2415  1.7970 -0.0810
  485SOL    HW3 1707   1.612   0.849   3.005  0.4177  1.4398  0.0251
  485SOL    MW4 1708   1.595   0.846   3.090  0.3285  0.0781  0.6457
  486SOL     OW 1709   3.701   5.939   1.612  0.1897 -0.5760 -0.0462
  486SOL    HW2 1710   3.703   5.978   1.524 -2.1270  0.9589  0.4758
  486SOL    HW3 1711   3.667   5.851   1.598  2.1697 -1.2578 -0.8957
  486SOL    MW4 1712   3.697   5.933   1.598 -0.0688  0.0954 -0.4647
  487SOL     OW 1713   1.908   2.935   5.222 -0.8269  0.6716  0.0089
  487SOL    HW2 1714   1.835   2.944   5.161 -0.4790  1.3149 -0.3234
  487SOL    HW3 1715   1.868   2.943   5.308 -0.7717  4.7147 -0.1740
  487SOL    MW4 1716   1.893   2.937   5.225  0.1701 -0.3495 -0.0189
  488SOL     OW 1717   1.815   6.169   3.504 -0.6296 -0.1381 -0.6395
  488SOL    HW2 1718   1.779   6.185   3.591  0.2913 -0.7642 -0.1240
  488SOL    HW3 1719   1.900   6.214   3.504  0.0127 -1.3154 -0.7013
  488SOL    MW4 1720   1.822   6.177   3.515 -0.3351  0.2423  0.2893
  489SOL     OW 1721   3.466   4.082   5.324 -0.2111  0.1371  0.2977
  489SOL    HW2 1722   3.417   4.007   5.292 -2.2315  1.1937  0.7345
  489SOL    HW3 1723   3.553   4.073   5.285 -0.4627 -2.2589  0.1644
  489SOL    MW4 1724   3.471   4.071   5.315  0.4674 -0.1425 -0.0460
  490SOL     OW 1725   0.795   3.057   3.088 -0.1723 -0.5292  0.4137
  490SOL    HW2 1726   0.752   2.979   3.125  0.2727  0.1322  2.4630
  490SOL    HW3 1727   0.788   3.123   3.157 -0.5366  1.2840 -1.2759
  490SOL    MW4 1728   0.788   3.055   3.102 -0.2533  0.1303 -0.2480
  491SOL     OW 1729   2.861   0.280   0.574  0.3725 -0.1826 -0.0394
  491SOL    HW2 1730   2.882   0.316   0.488  1.9452  1.5373  1.0099
  491SOL    HW3 1731   2.893   0.189   0.570  1.2943  0.1662 -0.9599
  491SOL    MW4 1732   2.868   0.273   0.562  0.4138 -0.3567  0.0092
  492SOL     OW 1733   6.330   4.566   5.096 -0.4053  0.3755  0.1702
  492SOL    HW2 1734   6.239   4.549   5.123 -0.4282 -0.1265 -0.2050
  492SOL    HW3 1735   6.327   4.564   5.000 -0.0131  0.4445  0.1549
  492SOL    MW4 1736   6.317   4.564   5.087 -0.6314  0.1547 -0.0663
  493SOL     OW 1737   5.693   5.771   1.663 -0.2829 -0.4740 -0.0201
  493SOL    HW2 1738   5.645   5.691   1.640  0.5771 -1.2837  0.8911
  493SOL    HW3 1739   5.625   5.833   1.689 -0.8603 -2.0527  2.6394
  493SOL    MW4 1740   5.677   5.768   1.664  0.0250  0.3150 -0.1238
  494SOL     OW 1741   2.605   4.847   5.913 -0.3868 -0.1044  0.0254
  494SOL    HW2 1742   2.682   4.816   5.961  1.2941  0.9816 -1.8285
  494SOL    HW3 1743   2.547   4.771   5.909  0.9028 -1.1818  0.8322
  494SOL    MW4 1744   2.608   4.833   5.919  0.1371 -0.3294 -0.0720
  495SOL     OW 1745   5.879   3.861   2.722  0.2117  0.1868 -0.2194
  495SOL    HW2 1746   5.957   3.849   2.776  0.2003 -0.8602 -0.4240
  495SOL    HW3 1747   5.911   3.862   2.632 -0.1685 -2.2480 -0.4498
  495SOL    MW4 1748   5.894   3.860   2.717  0.0382  0.1574  0.0109
  496SOL     OW 1749   6.063   0.488   3.392  0.1719 -0.0754  0.1728
  496SOL    HW2 1750   6.153   0.522   3.398  1.0615 -2.0407 -1.2075
  496SOL    HW3 1751   6.025   0.535   3.318  0.4908 -0.1497 -0.0402
  496SOL    MW4 1752   6.070   0.499   3.383 -0.0867  0.1121  0.3729
  497SOL     OW 1753   1.728   4.005   3.118 -0.7887  0.3260  0.6500
  497SOL    HW2 1754   1.645   4.048   3.134 -1.3480 -0.7068  0.6311
  497SOL    HW3 1755   1.793   4.059   3.163 -1.5924  0.6196  1.4738
  497SOL    MW4 1756   1.726   4.018   3.126  0.1841 -0.0669  0.1401
  498SOL     OW 1757   5.355   2.476   2.620 -0.0131  0.1177 -0.4778
  498SOL    HW2 1758   5.332   2.475   2.713 -3.0923 -1.0802 -1.1009
  498SOL    HW3 1759   5.450   2.483   2.618  0.0051  3.4561  2.6427
  498SOL    MW4 1760   5.364   2.476   2.632  0.2789  0.0953 -0.8947
  499SOL     OW 1761   2.886   5.351   4.945  0.3071 -0.2682 -0.2230
  499SOL    HW2 1762   2.874   5.295   5.021 -1.2100  0.6236  0.2436
  499SOL    HW3 1763   2.970   5.395   4.960  0.3243 -0.5728  0.6210
  499SOL    MW4 1764   2.895   5.350   4.957  0.1300 -0.3207  0.4106
  500SOL     OW 1765   0.593   4.085   4.204 -0.0254  0.3313  0.1416
  500SOL    HW2 1766   0.593   3.994   4.173 -1.8102  0.4780 -0.3558
  500SOL    HW3 1767   0.686   4.105   4.217  0.4666 -1.2509 -0.6333
  500SOL    MW4 1768   0.606   4.075   4.202  0.3034 -0.1710 -0.0080
  501SOL     OW 1769   3.781   1.555   1.792  0.0731  0.3301  0.0998
  501SOL    HW2 1770   3.837   1.514   1.725  2.1610  0.0428  1.9134
  501SOL    HW3 1771   3.728   1.618   1.743 -0.7065 -1.9497 -2.2613
  501SOL    MW4 1772   3.781   1.558   1.777 -0.1339 -0.6142  0.1484
  502SOL     OW 1773   2.067   5.719   1.132 -0.1104  0.4386  0.3118
  502SOL    HW2 1774   2.011   5.759   1.198  0.1839  0.6988  0.4019
  502SOL    HW3 1775   2.130   5.667   1.182 -0.9055 -0.6985  0.1778
  502SOL    MW4 1776   2.068   5.717   1.147 -1.0228  0.0595  0.2926
  503SOL     OW 1777   5.969   1.065   5.647  0.1769  0.5392 -0.3707
  503SOL    HW2 1778   5.908   1.000   5.682 -0.5488  1.2624 -0.2380
  503SOL    HW3 1779   5.919   1.147   5.647  1.2887  1.2471  0.1408
  503SOL    MW4 1780   5.954   1.068   5.652  0.2561  0.1106  0.4820
  504SOL     OW 1781   4.503   0.153   5.179  0.1718  0.8492  0.2963
  504SOL    HW2 1782   4.473   0.204   5.254  2.9899  2.2248  0.6436
  504SOL    HW3 1783   4.577   0.203   5.145  0.1146 -0.6847 -2.3056
  504SOL    MW4 1784   4.509   0.167   5.185 -0.2675 -0.4073  0.9259
  505SOL     OW 1785   1.501   3.819   4.138 -0.4819 -0.1497  0.0721
  505SOL    HW2 1786   1.411   3.836   4.165 -0.6271 -0.7441 -0.0308
  505SOL    HW3 1787   1.506   3.724   4.129  0.2783 -0.1583  0.5100
  505SOL    MW4 1788   1.490   3.809   4.140  0.4590  0.4753 -0.3436
  506SOL     OW 1789   2.320   4.865   5.764  0.1531  0.4191 -0.0923
  506SOL    HW2 1790   2.251   4.863   5.697  0.6285 -1.8927 -0.5945
  506SOL    HW3 1791   2.363   4.949   5.752 -2.7680  2.1620  0.4900
  506SOL    MW4 1792   2.316   4.876   5.754  0.0205 -0.2066  0.3645
  507SOL     OW 1793   4.098   5.042   0.110  0.3290  0.5472 -0.2801
  507SOL    HW2 1794   4.056   5.011   0.190 -0.6743 -1.6597 -1.5691
  507SOL    HW3 1795   4.189   5.013   0.118  0.0794 -0.2178 -0.2234
  507SOL    MW4 1796   4.104   5.034   0.121  0.1184  0.4243 -0.5422
  508SOL     OW 1797   4.467   6.403   0.313 -0.8500  0.3300 -0.0965
  508SOL    HW2 1798   4.522   6.472   0.277  0.9777 -1.3330 -0.7126
  508SOL    HW3 1799   4.521   6.362   0.381 -2.6902  0.7889  1.7422
  508SOL    MW4 1800   4.482   6.407   0.317 -0.1576  0.0893 -0.2633
  509SOL     OW 1801   2.813   5.061   1.690 -0.3670 -0.1117  0.7776
  509SOL    HW2 1802   2.861   4.983   1.661 -1.2365 -0.4228  0.1161
  509SOL    HW3 1803   2.853   5.133   1.642 -0.7372 -0.4089  0.0044
  509SOL    MW4 1804   2.824   5.060   1.680  0.3408  0.6714 -0.9912
  510SOL     OW 1805   3.612   5.548   0.562 -0.0260 -0.1680  0.3171
  510SOL    HW2 1806   3.673   5.477   0.582  0.4970  0.1659 -0.0674
  510SOL    HW3 1807   3.648   5.588   0.482  1.2953  2.3409  2.0517
  510SOL    MW4 1808   3.625   5.544   0.554 -0.3146 -0.8128  0.1475
  511SOL     OW 1809   0.391   4.066   2.309 -0.0454  0.3986 -0.7029
  511SOL    HW2 1810   0.322   4.000   2.320 -1.3858  1.9963  1.1373
  511SOL    HW3 1811   0.465   4.017   2.274 -1.7627 -1.5881 -1.8192
  511SOL    MW4 1812   0.391   4.050   2.306  0.7129 -1.0747  0.2658
  512SOL     OW 1813   0.513   3.585   3.359 -0.1430 -0.2442  0.3749
  512SOL    HW2 1814   0.463   3.667   3.355 -0.3556 -0.4291 -1.4521
  512SOL    HW3 1815   0.599   3.609   3.325  0.0280 -0.6246  0.5417
  512SOL    MW4 1816   0.518   3.599   3.354 -0.2611  0.1139  0.4404
  513SOL     OW 1817   5.013   6.364   4.549 -0.2612  0.4914  0.2631
  513SOL    HW2 1818   5.058   6.279   4.547 -1.4813 -0.1866 -1.8975
  513SOL    HW3 1819   4.994   6.378   4.641 -1.5542 -2.4762  0.5655
  513SOL    MW4 1820   5.017   6.355   4.560 -0.1264  0.2811 -0.7858
  514SOL     OW 1821   1.683   0.119   1.514 -0.3111  0.3709 -0.5384
  514SOL    HW2 1822   1.778   0.127   1.504 -0.2252  0.3701  0.1930
  514SOL    HW3 1823   1.656   0.200   1.557 -0.1680 -0.8986  2.1573
  514SOL    MW4 1824   1.692   0.131   1.519 -0.1913 -0.1110 -0.0640
  515SOL     OW 1825   4.681   1.032   1.876 -0.2355  0.1253 -0.4397
  515SOL    HW2 1826   4.637   1.117   1.869 -1.6832 -0.5446  0.2387
  515SOL    HW3 1827   4.677   1.011   1.969  1.1184 -0.1850 -0.4323
  515SOL    MW4 1828   4.675   1.041   1.887 -0.0035 -0.4743  0.4069
  516SOL     OW 1829   0.079   1.258   2.856 -0.2479  0.1951  0.0357
  516SOL    HW2 1830  -0.003   1.276   2.811  1.1093  0.1957 -2.6503
  516SOL    HW3 1831   0.110   1.343   2.886 -0.7172  0.3313  0.1391
  516SOL    MW4 1832   0.072   1.272   2.854 -0.2110  0.0946  0.1383
  517SOL     OW 1833   3.755   1.302   3.132 -0.1357 -0.2437  0.2952
  517SOL    HW2 1834   3.808   1.224   3.148  0.4539 -0.4328 -2.1703
  517SOL    HW3 1835   3.813   1.360   3.082 -1.3210  0.7631  0.0475
  517SOL    MW4 1836   3.770   1.300   3.127 -0.5580 -0.4609 -0.2640
  518SOL     OW 1837   4.597   1.514   3.173 -0.2981 -0.0738  0.0512
  518SOL    HW2 1838   4.516   1.501   3.122  0.3655  1.5919 -1.5384
  518SOL    HW3 1839   4.635   1.427   3.179 -1.0998 -0.5448 -1.1658
  518SOL    MW4 1840   4.591   1.501   3.167 -0.5378  0.3678  0.6004
  519SOL     OW 1841   5.242   1.783   3.063  0.1757  0.6318 -0.2855
  519SOL    HW2 1842   5.301   1.715   3.097  1.7928  0.5072 -3.0258
  519SOL    HW3 1843   5.299   1.841   3.012 -1.8812  1.2488 -2.0325
  519SOL    MW4 1844   5.258   1.782   3.061  0.1349 -0.2694  0.2034
  520SOL     OW 1845   2.276   0.731   1.060 -0.4772  0.7464 -0.3418
  520SOL    HW2 1846   2.221   0.663   1.099  1.0716  0.9929  2.5998
  520SOL    HW3 1847   2.228   0.813   1.077 -0.1411  0.7847  0.4774
  520SOL    MW4 1848   2.262   0.733   1.068  0.6692  0.2773 -0.0504
  521SOL     OW 1849   2.515   0.502   4.741 -0.1621  0.2583 -0.2519
  521SOL    HW2 1850   2.498   0.590   4.774 -0.8030  0.5412 -1.2913
  521SOL    HW3 1851   2.428   0.468   4.720  0.1351 -0.3785 -0.4674
  521SOL    MW4 1852   2.501   0.509   4.743  0.5240  0.1429  0.1629
  522SOL     OW 1853   1.371   1.576   4.838 -0.4905 -0.0675  0.0888
  522SOL    HW2 1854   1.443   1.632   4.811 -0.2092 -0.2566  0.4440
  522SOL    HW3 1855   1.364   1.510   4.769  1.5261 -1.7617  1.3885
  522SOL    MW4 1856   1.379   1.575   4.825  0.4190 -0.1792  0.1906
  523SOL     OW 1857   2.184   2.075   1.177 -0.2188  0.1324 -0.5097
  523SOL    HW2 1858   2.141   2.067   1.262 -0.9480  0.6465 -0.8257
  523SOL    HW3 1859   2.156   1.997   1.128  0.2954 -0.2242 -0.2445
  523SOL    MW4 1860   2.175   2.063   1.181 -0.0856 -0.1905  0.1849
  524SOL     OW 1861   3.044   3.318   0.326 -0.4909 -0.1001  0.3918
  524SOL    HW2 1862   2.996   3.314   0.408  0.4181 -0.4229  0.9163
  524SOL    HW3 1863   3.026   3.405   0.291 -1.1561 -0.0878  0.7583
  524SOL    MW4 1864   3.035   3.329   0.332 -0.0643 -0.0857 -0.0457
  525SOL     OW 1865   2.638   1.495   0.732  0.1266 -0.3504  0.1247
  525SOL    HW2 1866   2.687   1.551   0.792  1.7534 -0.9793 -0.5665
  525SOL    HW3 1867   2.560   1.547   0.710 -0.1805  0.1750  2.1894
  525SOL    MW4 1868   2.634   1.509   0.737  0.0373  0.2627  0.5017
  526SOL     OW 1869   2.103   0.542   4.936 -0.0264  0.0387  0.8546
  526SOL    HW2 1870   2.021   0.495   4.922 -0.0580  0.5435 -0.9799
  526SOL    HW3 1871   2.164   0.501   4.875  1.0423 -0.1820  2.0451
  526SOL    MW4 1872   2.100   0.530   4.926  0.1953 -0.2014 -0.1770
  527SOL     OW 1873   1.312   1.420   2.073  0.3911  0.4273 -0.2512
  527SOL    HW2 1874   1.332   1.509   2.104 -0.0435 -0.1698  1.8930
  527SOL    HW3 1875   1.388   1.368   2.100 -0.2050 -0.1995  0.2813
  527SOL    MW4 1876   1.325   1.425   2.081  0.1017  0.1261  0.9564
  528SOL     OW 1877   0.856   3.129   3.541 -0.4392 -0.0629 -0.2757
  528SOL    HW2 1878   0.857   3.166   3.453  0.3268 -0.7689 -0.5807
  528SOL    HW3 1879   0.828   3.200   3.598  1.8941  1.2786 -0.6987
  528SOL    MW4 1880   0.852   3.143   3.537 -0.1174  0.1890 -0.2452
  529SOL     OW 1881   6.336   1.317   6.230  0.0456  0.3061 -0.3724
  529SOL    HW2 1882   6.429   1.329   6.248 -0.1345 -1.7008  2.3890
  529SOL    HW3 1883   6.325   1.222   6.220 -1.7420  0.4758 -0.3876
  529SOL    MW4 1884   6.347   1.306   6.231 -0.1299  0.3101 -0.3366
  530SOL     OW 1885   0.050   4.382   2.391 -0.1526  0.6871  0.5182
  530SOL    HW2 1886   0.044   4.459   2.335 -1.0725  2.0340  2.3971
  530SOL    HW3 1887  -0.037   4.373   2.430  0.1327 -0.9175  0.8521
  530SOL    MW4 1888   0.038   4.391   2.388 -0.6875 -0.6960 -0.3916
  531SOL     OW 1889   0.693   0.509   3.003 -0.1644  0.7475  0.4882
  531SOL    HW2 1890   0.744   0.475   3.077  0.6517  0.3838 -0.2160
  531SOL    HW3 1891   0.715   0.602   3.000  1.7164  0.3268 -0.7234
  531SOL    MW4 1892   0.703   0.517   3.012 -0.3366  0.3597  0.3342
  532SOL     OW 1893   1.873   0.956   5.583 -0.5368 -0.2015  0.3159
  532SOL    HW2 1894   1.916   1.013   5.647 -0.9571 -1.8914  2.2210
  532SOL    HW3 1895   1.815   0.901   5.636  0.3582 -2.8641 -1.2974
  532SOL    MW4 1896   1.871   0.957   5.599  0.0022  0.2411 -0.3448
  533SOL     OW 1897   5.557   5.560   2.050  0.5450 -0.5651 -0.2594
  533SOL    HW2 1898   5.616   5.623   2.092 -0.4224  1.5419 -1.8822
  533SOL    HW3 1899   5.502   5.527   2.121  0.2599  1.3897  0.4782
  533SOL    MW4 1900   5.558   5.564   2.065 -0.3901 -0.0695 -0.5499
  534SOL     OW 1901   0.057   3.996   5.521  0.0774  0.0116  0.5456
  534SOL    HW2 1902   0.055   3.923   5.583 -0.3593 -0.3871  0.0741
  534SOL    HW3 1903   0.052   4.074   5.575  1.1431 -0.2784  1.1014
  534SOL    MW4 1904   0.056   3.997   5.536 -0.3333 -0.0166  0.1201
  535SOL     OW 1905   3.674   0.723   2.242 -0.0176  0.3093 -0.0657
  535SOL    HW2 1906   3.727   0.702   2.318 -1.6883  0.7654  1.2991
  535SOL    HW3 1907   3.640   0.639   2.212 -1.6196  0.3401  1.4967
  535SOL    MW4 1908   3.676   0.709   2.248  0.2844  0.7396 -0.5475
  536SOL     OW 1909   5.720   2.085   4.089 -0.4617 -0.0144  0.8114
  536SOL    HW2 1910   5.814   2.075   4.073 -0.3620 -2.5067  2.3762
  536SOL    HW3 1911   5.678   2.041   4.014 -0.3317 -0.2747  0.8905
  536SOL    MW4 1912   5.727   2.078   4.077  0.0046  0.4453  0.3820
  537SOL     OW 1913   1.096   5.665   0.336 -0.0153  0.3670 -0.2257
  537SOL    HW2 1914   1.108   5.690   0.427  1.1493  0.1168 -0.2919
  537SOL    HW3 1915   1.181   5.631   0.309 -0.0279  1.4254 -1.7272
  537SOL    MW4 1916   1.109   5.664   0.344 -0.0528  0.7896  0.3981
  538SOL     OW 1917   3.235   2.886   2.898 -0.3420 -0.0490 -0.1541
  538SOL    HW2 1918   3.230   2.959   2.960  0.0819 -0.0568 -0.1089
  538SOL    HW3 1919   3.269   2.813   2.950 -1.1782 -0.4066 -0.0881
  538SOL    MW4 1920   3.239   2.886   2.913  0.0080 -1.0371 -0.3257
  539SOL     OW 1921   4.127   3.133   0.831  0.3808  0.1554 -0.1734
  539SOL    HW2 1922   4.110   3.096   0.745  1.4536  1.6718 -1.0885
  539SOL    HW3 1923   4.112   3.227   0.820  1.7530  0.5357  0.9525
  539SOL    MW4 1924   4.123   3.141   0.818 -0.6275 -0.3072 -0.3009
  540SOL     OW 1925   2.847   5.068   4.448 -0.0158  0.4334  0.2227
  540SOL    HW2 1926   2.855   5.153   4.404 -0.1620  0.8136  0.9162
  540SOL    HW3 1927   2.787   5.018   4.392 -1.4711  1.4627  0.7755
  540SOL    MW4 1928   2.840   5.073   4.435 -0.1935 -0.3212  0.1333
  541SOL     OW 1929   0.331   3.761   0.020 -0.4552  0.2587 -0.5770
  541SOL    HW2 1930   0.402   3.700   0.038 -0.9969  0.0289  0.9273
  541SOL    HW3 1931   0.374   3.846   0.006  0.1037  0.2334  0.8440
  541SOL    MW4 1932   0.346   3.764   0.020  0.2948  1.1541 -0.3165
  542SOL     OW 1933   4.926   2.345   0.485 -0.0994  0.5833 -0.2673
  542SOL    HW2 1934   4.875   2.387   0.415  0.8483  1.3924 -0.4951
  542SOL    HW3 1935   5.001   2.307   0.441 -0.4909 -0.6116  0.0680
  542SOL    MW4 1936   4.929   2.346   0.470 -0.3327  0.2442  0.3224
  543SOL     OW 1937   3.887   5.391   5.123 -0.2811 -0.0836  0.0455
  543SOL    HW2 1938   3.945   5.386   5.048  1.5524 -1.1461  1.4448
  543SOL    HW3 1939   3.925   5.459   5.178 -1.5385  0.6103  0.0765
  543SOL    MW4 1940   3.900   5.399   5.120 -0.1177 -0.2206 -0.8272
  544SOL     OW 1941   4.115   1.980   5.843  0.2670  0.1950 -0.4859
  544SOL    HW2 1942   4.066   1.978   5.926  0.7852  0.2871 -0.1703
  544SOL    HW3 1943   4.098   2.067   5.807 -0.1863  0.0554 -0.6208
  544SOL    MW4 1944   4.106   1.991   5.850  0.5365 -0.1606 -0.1224
  545SOL     OW 1945   2.145   4.276   2.274 -0.0156  0.1525  0.3013
  545SOL    HW2 1946   2.074   4.229   2.231 -0.2304  0.0714  0.7377
  545SOL    HW3 1947   2.102   4.328   2.342  0.4994 -1.4247  1.9299
  545SOL    MW4 1948   2.130   4.277   2.277  0.0929  0.4223 -0.7050
  546SOL     OW 1949   4.960   5.820   4.624  0.5410  0.1609 -0.0717
  546SOL    HW2 1950   4.900   5.756   4.586 -1.2049  1.6897 -0.0453
  546SOL    HW3 1951   4.993   5.869   4.548  0.2681  0.5199  0.0330
  546SOL    MW4 1952   4.956   5.818   4.609 -0.2116  0.2108 -0.1810
  547SOL     OW 1953   4.027   0.534   5.338  1.1678 -0.0038  0.5039
  547SOL    HW2 1954   3.949   0.514   5.392  0.4235  1.2646 -0.0704
  547SOL    HW3 1955   4.027   0.466   5.271  0.9408 -0.4045  0.9001
  547SOL    MW4 1956   4.016   0.522   5.337  0.4647  0.2965 -0.5644
  548SOL     OW 1957   2.478   1.181   3.232  0.3032 -0.2424  0.5311
  548SOL    HW2 1958   2.442   1.095   3.253  0.3746 -0.4511 -0.1690
  548SOL    HW3 1959   2.520   1.169   3.146  0.1617  0.5359  0.3469
  548SOL    MW4 1960   2.479   1.168   3.223 -0.2590  0.6654  0.4392
  549SOL     OW 1961   4.850   0.863   5.742 -0.0233  0.1276 -1.2532
  549SOL    HW2 1962   4.942   0.884   5.756  0.0490 -0.5424 -0.6453
  549SOL    HW3 1963   4.803   0.943   5.767  0.4083  0.6067 -1.9533
  549SOL    MW4 1964   4.856   0.876   5.747 -0.5823  0.3874  0.1675
  550SOL     OW 1965   5.094   5.346   5.313  0.0572 -0.5576  0.3516
  550SOL    HW2 1966   5.026   5.384   5.369 -0.1717 -0.0728 -0.2387
  550SOL    HW3 1967   5.079   5.386   5.228  1.8854  0.5424  0.5073
  550SOL    MW4 1968   5.083   5.356   5.309  0.3580  0.1690  0.3453
  551SOL     OW 1969   4.708   1.144   5.746 -0.0124 -0.3004  0.2356
  551SOL    HW2 1970   4.716   1.184   5.832  0.5926  0.9305 -0.3640
  551SOL    HW3 1971   4.614   1.136   5.731 -0.1709  1.4639  0.1397
  551SOL    MW4 1972   4.697   1.148   5.755  0.6187 -0.1557 -0.3792
  552SOL     OW 1973   4.505   6.340   4.228  0.0776 -0.1954 -0.5184
  552SOL    HW2 1974   4.420   6.382   4.241 -0.5364 -1.4971 -0.1339
  552SOL    HW3 1975   4.493   6.287   4.149  0.8852  0.4546 -1.0930
  552SOL    MW4 1976   4.492   6.339   4.219  0.2497 -0.0544  0.0975
  553SOL     OW 1977   2.150   4.194   1.292 -0.4812 -0.0757 -0.8228
  553SOL    HW2 1978   2.175   4.170   1.203  2.0773 -2.7330  0.4346
  553SOL    HW3 1979   2.075   4.139   1.312  0.7605 -1.7058 -0.4442
  553SOL    MW4 1980   2.144   4.184   1.283  0.6928  0.3702  0.8650
  554SOL     OW 1981   2.378   2.804   3.593  0.1304  0.0332 -0.3595
  554SOL    HW2 1982   2.357   2.827   3.684  0.2429  2.4692 -0.8804
  554SOL    HW3 1983   2.297   2.766   3.559 -0.3029  0.2394  0.4107
  554SOL    MW4 1984   2.364   2.802   3.601  0.2326 -0.6379 -0.2830
  555SOL     OW 1985   1.171   0.428   3.621 -0.1088  0.2002  0.2241
  555SOL    HW2 1986   1.258   0.464   3.603 -0.1127  0.4511  0.6808
  555SOL    HW3 1987   1.149   0.461   3.708 -0.8628  0.5303 -0.0765
  555SOL    MW4 1988   1.179   0.437   3.630 -0.2257  0.1059 -0.6062
  556SOL     OW 1989   5.689   4.499   3.681 -0.5137  0.4731 -0.0626
  556SOL    HW2 1990   5.599   4.530   3.694 -0.7866 -0.8642  1.6671
  556SOL    HW3 1991   5.724   4.491   3.770  0.9974  0.0431 -0.6680
  556SOL    MW4 1992   5.681   4.502   3.694 -0.5462 -0.6092  0.2847
  557SOL     OW 1993   1.781   3.160   2.883 -0.7672 -0.1869  0.5213
  557SOL    HW2 1994   1.778   3.182   2.789 -1.5403 -0.1905  0.5382
  557SOL    HW3 1995   1.696   3.120   2.901 -0.1880 -1.2447  0.9775
  557SOL    MW4 1996   1.769   3.158   2.873 -0.0858 -0.0154 -0.1501
  558SOL     OW 1997   4.609   3.781   5.509  0.2274  0.1030  0.3520
  558SOL    HW2 1998   4.550   3.854   5.491  0.4502  0.2154  0.0620
  558SOL    HW3 1999   4.690   3.823   5.539  0.3673 -0.0183  0.1496
  558SOL    MW4 2000   4.612   3.796   5.510  0.1131  0.3517 -0.0528
  559SOL     OW 2001   5.444   4.266   2.903  0.1047 -0.7594  0.3549
  559SOL    HW2 2002   5.462   4.359   2.921 -1.0570  0.1136 -2.3937
  559SOL    HW3 2003   5.377   4.242   2.967  0.5338  0.2413  1.2155
  559SOL    MW4 2004   5.437   4.275   2.914 -0.7296 -0.4313 -0.5467
  560SOL     OW 2005   1.933   6.162   3.166 -0.4856  0.3709  0.4906
  560SOL    HW2 2006   1.911   6.126   3.080 -1.8468  0.1042  0.9329
  560SOL    HW3 2007   2.017   6.205   3.153  1.6254 -3.3982  0.0327
  560SOL    MW4 2008   1.942   6.163   3.153 -0.0230 -0.0144  0.5573
  561SOL     OW 2009   1.193   0.333   5.810 -0.1384 -0.0251 -0.3374
  561SOL    HW2 2010   1.174   0.294   5.895 -0.0494  3.5769  1.5631
  561SOL    HW3 2011   1.122   0.396   5.796  0.0775 -0.2074 -2.7832
  561SOL    MW4 2012   1.181   0.336   5.819  0.0627 -0.2755  0.5887
  562SOL     OW 2013   3.613   0.967   1.280 -0.8045  0.3316 -0.2862
  562SOL    HW2 2014   3.535   0.950   1.332 -0.6248 -0.0887 -0.1514
  562SOL    HW3 2015   3.619   0.893   1.220  1.1192 -1.2216  1.6569
  562SOL    MW4 2016   3.604   0.955   1.279 -0.0750  0.2460  0.1492
  563SOL     OW 2017   2.026   4.294   3.525 -0.0485 -0.0629  0.0479
  563SOL    HW2 2018   2.113   4.266   3.495 -0.1861  0.4688 -0.9087
  563SOL    HW3 2019   2.038   4.314   3.618  0.1347 -2.8504  0.7043
  563SOL    MW4 2020   2.039   4.293   3.533 -0.2831  0.5055 -0.3297
  564SOL     OW 2021   1.648   5.830   5.987  0.2986  0.0961 -0.0538
  564SOL    HW2 2022   1.741   5.827   6.009  0.6694  0.3241 -1.5046
  564SOL    HW3 2023   1.604   5.794   6.065  1.4132  2.0508  1.5695
  564SOL    MW4 2024   1.654   5.825   6.000 -0.3782 -0.4064  0.1997
  565SOL     OW 2025   4.442   0.778   6.307 -0.5404 -0.2836 -0.0590
  565SOL    HW2 2026   4.454   0.782   6.212  1.2881  0.6490  0.1829
  565SOL    HW3 2027   4.414   0.688   6.324 -1.8961 -0.1893 -1.5507
  565SOL    MW4 2028   4.440   0.767   6.297  0.3671 -0.2772  0.2041
  566SOL     OW 2029   5.932   6.353   0.604  0.1732 -0.3225  0.1169
  566SOL    HW2 2030   5.910   6.373   0.695 -0.7750  0.8783 -0.3504
  566SOL    HW3 2031   5.863   6.396   0.553  1.4531  0.2231 -1.2254
  566SOL    MW4 2032   5.920   6.362   0.610  0.1908  0.2725 -0.4753
  567SOL     OW 2033   1.042   4.789   2.310  0.0105 -0.5070  0.4690
  567SOL    HW2 2034   1.005   4.875   2.327 -0.5300 -0.1453 -2.1149
  567SOL    HW3 2035   0.970   4.739   2.271  0.8719 -1.4152 -0.0171
  567SOL    MW4 2036   1.027   4.794   2.307  0.4858 -0.1196  0.1912
  568SOL     OW 2037   5.267   6.353   1.811 -0.2304 -0.2620 -0.4333
  568SOL    HW2 2038   5.230   6.413   1.876 -1.0227 -0.6361 -0.5223
  568SOL    HW3 2039   5.247   6.266   1.844  0.4114 -0.4690 -0.5899
  568SOL    MW4 2040   5.259   6.350   1.824 -0.2331 -0.0881 -0.4864
  569SOL     OW 2041   6.026   3.312   1.684 -0.1316  0.3308  0.1512
  569SOL    HW2 2042   6.104   3.321   1.629 -0.4504  0.5689 -0.2610
  569SOL    HW3 2043   5.956   3.286   1.624 -0.7361  1.6786  0.2376
  569SOL    MW4 2044   6.027   3.310   1.669 -0.4398  0.2325 -0.0744
  570SOL     OW 2045   4.280   1.342   6.388  0.1558 -0.0717  0.4951
  570SOL    HW2 2046   4.355   1.341   6.447  0.7667 -1.4942 -0.2540
  570SOL    HW3 2047   4.281   1.255   6.347 -0.6788  0.6225 -1.0625
  570SOL    MW4 2048   4.290   1.330   6.391  0.1360 -0.4895 -0.1922
  571SOL     OW 2049   5.880   2.306   3.381 -0.1702  0.0312 -0.3158
  571SOL    HW2 2050   5.908   2.214   3.385  0.3717  0.2143  0.5431
  571SOL    HW3 2051   5.844   2.323   3.468 -1.1078  0.3876 -0.7657
  571SOL    MW4 2052   5.879   2.296   3.393  0.0023  0.3945  0.4115
  572SOL     OW 2053   0.230   2.236   5.906 -0.6101 -0.4187  0.2892
  572SOL    HW2 2054   0.296   2.217   5.839 -0.3871 -0.3898  0.4969
  572SOL    HW3 2055   0.148   2.205   5.868 -0.6500  0.4978 -0.4053
  572SOL    MW4 2056   0.228   2.229   5.892 -0.2598  0.6250  0.0171
  573SOL     OW 2057   4.369   4.689   0.164  0.6203 -0.0993 -0.9349
  573SOL    HW2 2058   4.455   4.663   0.198  0.9857  1.1964 -0.8043
  573SOL    HW3 2059   4.388   4.734   0.082  0.3947  2.5826  0.3466
  573SOL    MW4 2060   4.383   4.692   0.158  0.0344  0.2688  0.2043
  574SOL     OW 2061   0.399   0.936   5.663 -0.3068  0.3073 -0.0769
  574SOL    HW2 2062   0.349   0.978   5.592 -1.6500  1.8248  1.6836
  574SOL    HW3 2063   0.344   0.945   5.740  2.0010  0.5813  1.6431
  574SOL    MW4 2064   0.385   0.943   5.664 -0.0896  0.4648 -0.6431
  575SOL     OW 2065   2.428   5.719   3.935  0.2415  0.0359  0.4149
  575SOL    HW2 2066   2.412   5.805   3.974 -0.3384 -0.6145  1.6487
  575SOL    HW3 2067   2.491   5.677   3.993 -0.1680 -0.7185  0.3284
  575SOL    MW4 2068   2.434   5.725   3.948  0.0091  0.2013  0.1419
  576SOL     OW 2069   5.637   4.793   4.862 -0.1318  0.2035 -0.6353
  576SOL    HW2 2070   5.554   4.799   4.910 -0.3549 -0.0855 -0.9822
  576SOL    HW3 2071   5.656   4.883   4.835  1.0182  0.7446  1.6778
  576SOL    MW4 2072   5.629   4.806   4.865 -0.3109  0.4283 -0.1165
  577SOL     OW 2073   1.641   1.633   2.092  0.2654  0.1722  0.2601
  577SOL    HW2 2074   1.678   1.720   2.080 -0.2216  0.1732 -1.5699
  577SOL    HW3 2075   1.557   1.636   2.046 -0.0498 -1.0701  0.7157
  577SOL    MW4 2076   1.635   1.645   2.084 -0.2225 -0.0804 -0.5943
  578SOL     OW 2077   3.649   0.723   3.583 -0.2864  0.1982 -0.3587
  578SOL    HW2 2078   3.715   0.675   3.533 -0.0844  1.3565 -1.2685
  578SOL    HW3 2079   3.691   0.807   3.603 -0.7654  0.1646  0.8375
  578SOL    MW4 2080   3.663   0.728   3.579  0.5765 -0.4935  0.8799
  579SOL     OW 2081   3.962   2.347   0.555 -0.2741 -0.1316 -0.4286
  579SOL    HW2 2082   3.927   2.327   0.469  0.5146 -0.9123 -0.5826
  579SOL    HW3 2083   4.046   2.390   0.537 -0.0619 -0.3807 -0.0525
  579SOL    MW4 2084   3.969   2.350   0.542  0.0803  0.6398  0.2926
  580SOL     OW 2085   0.151   3.464   1.924  0.1760 -0.0260 -0.5222
  580SOL    HW2 2086   0.075   3.478   1.867  0.6306 -2.3343 -1.8330
  580SOL    HW3 2087   0.136   3.377   1.963  1.0617  0.4689  1.0271
  580SOL    MW4 2088   0.139   3.454   1.922 -0.0648  0.7355  0.3820
  581SOL     OW 2089   3.412   2.396   2.173 -0.1560 -0.0433 -0.5765
  581SOL    HW2 2090   3.348   2.462   2.198  0.2476 -0.1287  0.7347
  581SOL    HW3 2091   3.360   2.322   2.141 -0.6491  0.3537 -0.6936
  581SOL    MW4 2092   3.397   2.395   2.172 -0.3167 -0.1656 -0.1076
  582SOL     OW 2093   5.962   4.217   4.691  0.1449 -0.2897  0.6527
  582SOL    HW2 2094   6.023   4.289   4.703  0.7123 -0.5580 -0.4481
  582SOL    HW3 2095   6.017   4.138   4.691 -0.1582 -0.5215 -0.5085
  582SOL    MW4 2096   5.977   4.216   4.692 -0.1820  0.6100  0.0667
  583SOL     OW 2097   3.110   4.227   5.396  0.3889 -0.5051 -0.1627
  583SOL    HW2 2098   3.155   4.218   5.480  0.5805 -0.5656 -0.2694
  583SOL    HW3 2099   3.116   4.320   5.376  0.4159 -0.5040 -0.1490
  583SOL    MW4 2100   3.117   4.238   5.405 -0.0068 -0.4385  0.0306
  584SOL     OW 2101   1.866   4.032   4.879 -0.1063 -0.0624 -0.6986
  584SOL    HW2 2102   1.814   4.094   4.829  1.1262  1.8468  0.2841
  584SOL    HW3 2103   1.925   3.993   4.815 -0.6744 -0.0040 -1.2685
  584SOL    MW4 2104   1.867   4.035   4.864  0.0948 -0.0585 -0.1005
  585SOL     OW 2105   0.195   1.676   2.290  0.7315 -0.4377  0.8883
  585SOL    HW2 2106   0.184   1.596   2.238  2.8812 -0.8888  1.0121
  585SOL    HW3 2107   0.168   1.652   2.378 -1.5646 -0.0893  0.3300
  585SOL    MW4 2108   0.190   1.662   2.294  0.1491  0.2260 -0.1466
  586SOL     OW 2109   1.327   0.220   2.579 -0.5058  0.4335 -0.7649
  586SOL    HW2 2110   1.338   0.125   2.578 -0.3147  0.4543 -2.0633
  586SOL    HW3 2111   1.410   0.253   2.613 -0.6229  0.1372 -0.1789
  586SOL    MW4 2112   1.339   0.212   2.584 -0.9518 -0.2825  0.2836
  587SOL     OW 2113   3.115   2.938   5.019 -0.3956 -0.6384 -0.3220
  587SOL    HW2 2114   3.090   2.954   5.110 -1.1851 -1.2805 -0.4088
  587SOL    HW3 2115   3.045   2.881   4.985 -0.5016  0.1976 -1.5504
  587SOL    MW4 2116   3.103   2.932   5.027  0.1538  0.1970 -0.6932
  588SOL     OW 2117   6.319   5.441   1.074  0.2248  0.4799  0.2049
  588SOL    HW2 2118   6.329   5.462   0.981  0.8578 -0.3882  0.0675
  588SOL    HW3 2119   6.228   5.413   1.083  0.5666 -0.9263 -0.4767
  588SOL    MW4 2120   6.308   5.440   1.063 -0.3014  0.1928  0.2214
  589SOL     OW 2121   6.047   5.655   0.691  0.2328 -0.1688  0.0021
  589SOL    HW2 2122   6.044   5.708   0.771 -1.8596  0.3407 -0.3406
  589SOL    HW3 2123   6.105   5.702   0.632  0.1173  0.5748  0.4714
  589SOL    MW4 2124   6.054   5.668   0.694 -0.2130 -0.2272  0.5503
  590SOL     OW 2125   1.066   2.784   1.504  0.4121  0.0177 -0.8079
  590SOL    HW2 2126   1.091   2.752   1.590  1.5915  3.5375  0.3107
  590SOL    HW3 2127   0.976   2.816   1.515  0.2590 -0.2933 -1.1259
  590SOL    MW4 2128   1.057   2.784   1.517  0.2517  0.2783 -0.1187
  591SOL     OW 2129   3.794   1.841   2.177  0.0877  0.1379 -0.2433
  591SOL    HW2 2130   3.838   1.875   2.255 -0.2043  1.6102 -0.6791
  591SOL    HW3 2131   3.702   1.833   2.202  0.2287 -0.7661 -0.0094
  591SOL    MW4 2132   3.788   1.845   2.190  0.2985 -0.0945  0.3121
  592SOL     OW 2133   3.385   2.724   0.854  0.2150 -0.2355  0.4806
  592SOL    HW2 2134   3.375   2.631   0.834 -2.0511  0.1400 -0.3928
  592SOL    HW3 2135   3.306   2.747   0.903 -0.0101  1.5218 -0.5984
  592SOL    MW4 2136   3.373   2.715   0.858 -0.9477 -0.0620  0.2281
  593SOL     OW 2137   2.086   2.867   0.914  0.5031  0.2788 -0.2217
  593SOL    HW2 2138   2.106   2.906   0.999 -0.3923 -2.4626  1.3388
  593SOL    HW3 2139   2.171   2.836   0.882  0.8157  1.1723 -0.3035
  593SOL    MW4 2140   2.100   2.868   0.921 -0.4835 -0.4412 -0.4046
  594SOL     OW 2141   4.204   3.512   1.870  0.6452 -0.3908  0.2174
  594SOL    HW2 2142   4.141   3.443   1.892 -0.6637  0.6372 -0.1812
  594SOL    HW3 2143   4.220   3.558   1.952  1.1975 -0.8910  0.3977
  594SOL    MW4 2144   4.198   3.509   1.884  0.6467  0.4131 -0.5410
  595SOL     OW 2145   2.630   0.258   4.431 -0.0553 -0.8476  0.2653
  595SOL    HW2 2146   2.681   0.305   4.496 -0.1433 -1.4073  0.7459
  595SOL    HW3 2147   2.693   0.203   4.385  0.3690  0.9852 -1.4980
  595SOL    MW4 2148   2.645   0.257   4.434 -0.7407  0.0374 -0.0842
  596SOL     OW 2149   6.041   2.733   1.300 -0.1979  0.7712  0.4833
  596SOL    HW2 2150   6.130   2.740   1.265 -0.9766  3.3946 -1.2890
  596SOL    HW3 2151   6.032   2.810   1.356 -1.9184  1.7111 -0.9760
  596SOL    MW4 2152   6.052   2.744   1.303 -0.0633 -0.0940  0.5239
  597SOL     OW 2153   4.884   4.800   3.629 -0.9565 -0.0510  0.5460
  597SOL    HW2 2154   4.931   4.762   3.703 -3.3577  0.0214  2.2180
  597SOL    HW3 2155   4.901   4.894   3.636  0.1456 -0.1866 -0.0278
  597SOL    MW4 2156   4.892   4.807   3.640  0.0072  0.1406  0.1717
  598SOL     OW 2157   3.943   1.615   5.508  0.0145  0.0844 -0.0479
  598SOL    HW2 2158   3.943   1.683   5.576 -3.0045  1.0563 -0.9086
  598SOL    HW3 2159   3.906   1.538   5.551  1.3061 -0.3957  0.2779
  598SOL    MW4 2160   3.938   1.614   5.523 -0.6557 -0.4355 -0.2389
  599SOL     OW 2161   1.732   2.636   5.099 -0.2300  0.5373  0.0195
  599SOL    HW2 2162   1.792   2.601   5.164  0.0237 -0.0385 -0.5106
  599SOL    HW3 2163   1.665   2.568   5.089 -0.3614  0.6956 -0.1915
  599SOL    MW4 2164   1.731   2.622   5.106 -0.0747  0.0954  0.1222
  600SOL     OW 2165   4.844   2.458   5.572  0.1978  0.2088  0.1230
  600SOL    HW2 2166   4.761   2.489   5.607 -0.0083  2.3469 -2.0241
  600SOL    HW3 2167   4.852   2.368   5.605 -2.5673  0.1968  0.9813
  600SOL    MW4 2168   4.834   2.450   5.581 -0.1189 -0.0183  0.7744
  601SOL     OW 2169   4.702   0.332   4.823  0.1258  0.2563 -0.3087
  601SOL    HW2 2170   4.630   0.395   4.825 -0.1249 -0.0411  0.1467
  601SOL    HW3 2171   4.667   0.257   4.776  0.0570  0.0233  0.1044
  601SOL    MW4 2172   4.688   0.331   4.817 -0.3423 -0.2511 -0.4466
  602SOL     OW 2173   3.309   2.243   5.354  0.2941 -0.7122  0.0767
  602SOL    HW2 2174   3.320   2.338   5.352  1.4068 -0.8379 -1.5398
  602SOL    HW3 2175   3.217   2.230   5.377 -0.1251  0.7967 -0.6268
  602SOL    MW4 2176   3.298   2.253   5.357  0.4892  0.9365  0.2013
  603SOL     OW 2177   3.651   6.418   3.881 -0.8445  0.2265  0.1455
  603SOL    HW2 2178   3.687   6.346   3.829 -1.0153  0.7099 -0.6694
  603SOL    HW3 2179   3.716   6.434   3.949 -0.8157 -0.7088  0.3438
  603SOL    MW4 2180   3.664   6.411   3.883 -0.0753 -0.4733  0.0546
  604SOL     OW 2181   0.201   6.297   3.725  0.1357  0.1941 -0.1279
  604SOL    HW2 2182   0.147   6.375   3.715  1.0806  1.0352  1.0502
  604SOL    HW3 2183   0.220   6.293   3.819  0.7853 -0.9788 -0.2949
  604SOL    MW4 2184   0.197   6.307   3.736  0.7126 -0.0577 -0.7103
  605SOL     OW 2185   1.282   0.312   5.439  0.0189 -0.7296 -0.3740
  605SOL    HW2 2186   1.299   0.292   5.347 -0.0628  1.6786 -0.9896
  605SOL    HW3 2187   1.205   0.368   5.438  1.1049  0.8920  0.9518
  605SOL    MW4 2188   1.274   0.317   5.427 -0.1817  0.0996  0.0264
  606SOL     OW 2189   2.421   3.927   5.012 -0.0227 -0.1578 -0.3778
  606SOL    HW2 2190   2.517   3.930   5.014 -0.0514  1.0780  1.0235
  606SOL    HW3 2191   2.397   3.974   4.933  0.5317  1.3074  0.2834
  606SOL    MW4 2192   2.431   3.934   5.002  0.4937 -0.3124 -0.1784
  607SOL     OW 2193   6.103   3.874   2.882 -0.2074 -0.0382  0.1019
  607SOL    HW2 2194   6.099   3.842   2.972  1.1055  0.4689  0.3540
  607SOL    HW3 2195   6.078   3.967   2.889 -1.1600 -0.2596 -0.2192
  607SOL    MW4 2196   6.099   3.882   2.895  0.0214  0.5912 -0.2938
  608SOL     OW 2197   3.343   4.531   4.707  0.8185  0.5135 -0.1303
  608SOL    HW2 2198   3.309   4.484   4.783  2.2158  0.2253  0.3457
  608SOL    HW3 2199   3.273   4.591   4.683  0.5866  1.0698  1.7797
  608SOL    MW4 2200   3.329   4.533   4.714 -0.4024  0.4042  0.4430
  609SOL     OW 2201   0.428   2.575   2.750 -0.3359  0.1155 -0.4793
  609SOL    HW2 2202   0.338   2.577   2.781 -1.2872  2.0613 -2.9479
  609SOL    HW3 2203   0.461   2.664   2.766  1.1830 -0.5588  0.3780
  609SOL    MW4 2204   0.421   2.587   2.756  0.6299 -0.0413 -0.1155
  610SOL     OW 2205   4.797   3.759   0.063  0.2397  0.4041  0.2576
  610SOL    HW2 2206   4.742   3.771  -0.014  1.5411 -1.3175 -1.0006
  610SOL    HW3 2207   4.745   3.797   0.135 -1.3469  1.3408 -1.2903
  610SOL    MW4 2208   4.783   3.766   0.062 -0.1617 -0.4942  0.8794
  611SOL     OW 2209   2.444   0.515   3.557  0.7770  0.2215  0.1312
  611SOL    HW2 2210   2.534   0.518   3.591  0.6651  0.0890  0.4419
  611SOL    HW3 2211   2.445   0.444   3.493  0.5034 -0.8371  1.2745
  611SOL    MW4 2212   2.456   0.506   3.553 -0.3184  0.0467 -0.3742
  612SOL     OW 2213   4.858   2.101   4.493  0.3759  0.2398  1.1293
  612SOL    HW2 2214   4.903   2.070   4.572  0.3259 -1.9891  0.3673
  612SOL    HW3 2215   4.926   2.101   4.425 -0.2342 -1.0808  0.4651
  612SOL    MW4 2216   4.873   2.097   4.494  0.0489 -0.2177  0.3118
  613SOL     OW 2217   2.164   2.530   5.104 -0.3613 -0.7446 -0.0483
  613SOL    HW2 2218   2.087   2.478   5.126 -1.4442  0.8121  0.0460
  613SOL    HW3 2219   2.159   2.606   5.163  0.5384  0.0243 -0.9256
  613SOL    MW4 2220   2.153   2.533   5.115  0.2847  0.3232 -0.6983
  614SOL     OW 2221   3.945   4.887   4.862  0.1214 -0.0823 -0.7176
  614SOL    HW2 2222   3.885   4.828   4.815  0.0378 -1.5583  1.1522
  614SOL    HW3 2223   4.032   4.855   4.840  0.0689 -2.0309  1.5081
  614SOL    MW4 2224   3.948   4.875   4.853 -0.0931 -0.2490 -0.8073
  615SOL     OW 2225   0.467   6.389   5.784 -0.1954  0.2872  0.0911
  615SOL    HW2 2226   0.477   6.306   5.832 -0.5354  0.2734  0.1351
  615SOL    HW3 2227   0.551   6.433   5.797  0.2223 -0.3203 -0.4473
  615SOL    MW4 2228   0.480   6.384   5.792  0.3089  0.3036  0.1592
  616SOL     OW 2229   1.527   5.192   5.189  0.1805 -0.1269 -0.1418
  616SOL    HW2 2230   1.450   5.140   5.211 -0.1800 -0.0353 -1.1282
  616SOL    HW3 2231   1.599   5.129   5.186  0.1889 -0.1806  0.9803
  616SOL    MW4 2232   1.526   5.177   5.191 -0.5029  0.2103 -0.0520
  617SOL     OW 2233   3.041   3.622   2.999  0.4895 -0.5189  0.1770
  617SOL    HW2 2234   3.018   3.670   2.920  0.8243 -3.3372 -1.7917
  617SOL    HW3 2235   3.125   3.658   3.026  0.5960  0.1795 -1.0200
  617SOL    MW4 2236   3.049   3.633   2.992 -0.5703 -0.1780  0.4214
  618SOL     OW 2237   2.641   3.707   2.809  0.2844  0.0493  0.5999
  618SOL    HW2 2238   2.620   3.705   2.716  1.1175  0.8652  0.3802
  618SOL    HW3 2239   2.563   3.741   2.851 -0.7179 -1.8757  0.4142
  618SOL    MW4 2240   2.628   3.711   2.803 -0.5070  0.0252 -0.3506
  619SOL     OW 2241   3.903   4.209   1.094 -0.2070 -0.1372 -0.3706
  619SOL    HW2 2242   3.902   4.155   1.015  0.4497 -0.7805  0.0522
  619SOL    HW3 2243   3.866   4.293   1.066  2.3465  0.5434 -2.0285
  619SOL    MW4 2244   3.898   4.213   1.080 -0.2571 -0.1215 -1.0076
  620SOL     OW 2245   0.169   4.738   6.175 -0.1070  0.2565 -0.1469
  620SOL    HW2 2246   0.206   4.668   6.228 -3.4982 -2.0175 -0.4667
  620SOL    HW3 2247   0.208   4.726   6.089 -0.8843 -1.5338 -0.2837
  620SOL    MW4 2248   0.179   4.727   6.171 -0.1718  0.1481  0.5145
  621SOL     OW 2249   2.760   0.380   4.649 -0.1761  0.0274  0.0722
  621SOL    HW2 2250   2.833   0.333   4.689  0.6212  1.1648  0.0051
  621SOL    HW3 2251   2.703   0.402   4.722  0.4815  0.7269  0.3925
  621SOL    MW4 2252   2.762   0.376   4.664  0.7157 -0.2112  0.2890
  622SOL     OW 2253   5.948   6.051   6.165  0.3479  0.3036  0.5489
  622SOL    HW2 2254   6.041   6.067   6.174  0.2558  0.8191  0.5974
  622SOL    HW3 2255   5.909   6.138   6.156 -0.0557  0.0567 -0.1353
  622SOL    MW4 2256   5.955   6.064   6.165 -0.1777  0.1681 -0.2514
  623SOL     OW 2257   5.128   2.535   5.585  0.0723  0.1501 -0.0833
  623SOL    HW2 2258   5.044   2.490   5.593 -0.8973  1.7716 -0.7557
  623SOL    HW3 2259   5.125   2.603   5.653  0.5460  0.6543 -0.5568
  623SOL    MW4 2260   5.117   2.538   5.595 -0.1689  0.3698 -0.1374
  624SOL     OW 2261   4.409   1.734   1.807  0.4821  0.5230  0.5046
  624SOL    HW2 2262   4.477   1.669   1.824  0.0249  0.5978  2.8957
  624SOL    HW3 2263   4.331   1.699   1.851 -1.0172  0.6078 -1.8679
  624SOL    MW4 2264   4.407   1.720   1.815  0.0973  0.5758 -0.3896
  625SOL     OW 2265   4.852   5.759   4.217 -0.1589  0.1495  0.2239
  625SOL    HW2 2266   4.788   5.829   4.230 -0.7713 -0.5490  1.1618
  625SOL    HW3 2267   4.828   5.719   4.133 -0.6609  0.2098  0.3324
  625SOL    MW4 2268   4.840   5.763   4.208  0.1863 -0.6560 -0.0709
  626SOL     OW 2269   2.719   5.920   2.644 -0.4813 -0.3862  0.7660
  626SOL    HW2 2270   2.674   5.856   2.699 -0.1524  0.4911  2.0870
  626SOL    HW3 2271   2.806   5.927   2.681  0.1323 -0.6051 -0.5774
  626SOL    MW4 2272   2.724   5.912   2.656 -0.1413 -0.6369  0.0948
  627SOL     OW 2273   3.915   0.558   2.021  0.1081 -0.1222  0.5955
  627SOL    HW2 2274   3.820   0.551   2.026 -0.2045  1.3522 -1.8355
  627SOL    HW3 2275   3.932   0.651   2.003  1.9177 -0.5861 -0.3614
  627SOL    MW4 2276   3.905   0.570   2.019 -0.1410 -0.3052  0.0516
  628SOL     OW 2277   3.760   3.533   5.314  0.0765  0.1846  0.3990
  628SOL    HW2 2278   3.812   3.579   5.248 -0.4705  2.0970  1.2103
  628SOL    HW3 2279   3.713   3.465   5.265  1.0159  0.3932 -0.8478
  628SOL    MW4 2280   3.761   3.530   5.299 -0.1675  0.1474 -0.0267
  629SOL     OW 2281   4.244   4.736   4.444 -0.0945  0.2970  0.7346
  629SOL    HW2 2282   4.314   4.723   4.380 -1.4601  0.0268 -0.7645
  629SOL    HW3 2283   4.277   4.697   4.525  0.7041 -1.5978 -0.4655
  629SOL    MW4 2284   4.258   4.729   4.446  0.4037  0.0276 -1.0889
  630SOL     OW 2285   0.661   5.938   4.194 -0.1706 -0.4890 -0.2585
  630SOL    HW2 2286   0.586   5.894   4.154  0.4911 -1.0760 -0.8624
  630SOL    HW3 2287   0.694   5.996   4.126  3.2060 -4.0975 -2.0709
  630SOL    MW4 2288   0.655   5.940   4.180  0.1996 -0.4685  0.3930
  631SOL     OW 2289   4.977   3.934   6.334 -0.4049  0.2745 -0.4191
  631SOL    HW2 2290   4.945   3.864   6.390  0.7138  0.2819  0.2684
  631SOL    HW3 2291   5.045   3.893   6.280 -0.5283  0.5761 -0.8143
  631SOL    MW4 2292   4.982   3.919   6.334 -0.2961 -0.1711  0.2894
  632SOL     OW 2293   0.241   2.974   5.505  0.1758 -0.2199  0.2521
  632SOL    HW2 2294   0.150   2.984   5.535 -0.5370 -2.0133 -1.1499
  632SOL    HW3 2295   0.244   2.886   5.467  2.1551  0.3310 -0.9768
  632SOL    MW4 2296   0.229   2.964   5.504  0.2069 -0.1301 -0.1775
  633SOL     OW 2297   3.914   6.137   0.212  0.5482  0.0624  0.2355
  633SOL    HW2 2298   3.936   6.170   0.300  0.7068  1.4154 -0.2824
  633SOL    HW3 2299   3.854   6.064   0.228 -0.5729  1.1882  1.4325
  633SOL    MW4 2300   3.909   6.132   0.226 -0.6746  0.1038  0.0549
  634SOL     OW 2301   0.570   6.273   4.242 -0.1378 -0.4665 -0.3206
  634SOL    HW2 2302   0.582   6.190   4.289 -1.6536 -0.6730 -0.2275
  634SOL    HW3 2303   0.656   6.293   4.206  0.0829 -2.5312 -1.0628
  634SOL    MW4 2304   0.583   6.264   4.244 -0.3226  0.1370  0.1299
  635SOL     OW 2305   1.530   2.366   1.824  0.0492  0.3523  0.0164
  635SOL    HW2 2306   1.521   2.345   1.917  1.3529  0.0172  0.0831
  635SOL    HW3 2307   1.590   2.299   1.790 -0.7952  0.1697 -1.1801
  635SOL    MW4 2308   1.537   2.355   1.832  0.5684  1.0980 -0.4415
  636SOL     OW 2309   6.061   3.826   0.056  0.1968 -0.7506  0.1855
  636SOL    HW2 2310   6.138   3.854   0.105 -0.4864 -0.9807  1.4442
  636SOL    HW3 2311   6.085   3.741   0.020  0.8546 -0.3941 -0.2459
  636SOL    MW4 2312   6.074   3.819   0.058  0.1373 -0.2683  0.1949
  637SOL     OW 2313   2.840   4.665   1.351 -0.3270 -0.2595  0.1892
  637SOL    HW2 2314   2.825   4.571   1.347  0.3406 -0.3584 -0.2040
  637SOL    HW3 2315   2.867   4.689   1.263 -1.5501  0.5013 -0.0016
  637SOL    MW4 2316   2.842   4.656   1.339 -0.8263  0.1486  0.2757
  638SOL     OW 2317   4.140   2.937   4.526 -0.6853 -0.1298  0.1542
  638SOL    HW2 2318   4.083   2.903   4.457 -0.4268  0.3558 -0.3081
  638SOL    HW3 2319   4.216   2.973   4.479 -0.8427  0.8658  0.6267
  638SOL    MW4 2320   4.142   2.937   4.510  0.0475 -0.1793  0.5001
  639SOL     OW 2321   1.247   2.222   0.231 -0.1840  0.1636 -0.1803
  639SOL    HW2 2322   1.340   2.240   0.245 -0.4368  0.7590  0.9008
  639SOL    HW3 2323   1.209   2.225   0.319 -1.2038 -0.2093 -0.5910
  639SOL    MW4 2324   1.254   2.225   0.245  0.1072 -0.0894  0.2755
  640SOL     OW 2325   5.230   4.907   2.999  0.2083  0.1785  0.4290
  640SOL    HW2 2326   5.317   4.894   2.962  0.4143 -0.6788  1.1670
  640SOL    HW3 2327   5.186   4.965   2.938  0.5174 -1.1891 -1.1604
  640SOL    MW4 2328   5.236   4.913   2.986 -0.0860  0.5080 -0.1148
  641SOL     OW 2329   2.738   4.120   1.350  0.3041 -0.6681  0.0435
  641SOL    HW2 2330   2.732   4.141   1.443 -0.6309  0.3602 -0.2223
  641SOL    HW3 2331   2.719   4.027   1.345  0.3195 -0.7230  0.8802
  641SOL    MW4 2332   2.735   4.111   1.361 -0.3276 -0.4701 -0.9427
  642SOL     OW 2333   6.371   5.741   0.835 -0.2301 -0.2448  0.0143
  642SOL    HW2 2334   6.404   5.776   0.752 -0.5033 -1.5281 -0.6657
  642SOL    HW3 2335   6.445   5.749   0.895  0.3522 -0.3465 -0.6746
  642SOL    MW4 2336   6.385   5.747   0.832  0.0420  0.0296 -0.2077
  643SOL     OW 2337   5.010   4.525   2.072 -0.4622  0.7291 -0.0043
  643SOL    HW2 2338   4.988   4.598   2.131 -2.5737  1.0788 -1.1457
  643SOL    HW3 2339   4.971   4.448   2.113 -0.8660  0.7649 -0.3163
  643SOL    MW4 2340   5.002   4.525   2.086  0.2506 -0.4081  0.5955
  644SOL     OW 2341   4.248   5.616   2.879 -0.2873 -0.4043  0.6924
  644SOL    HW2 2342   4.273   5.708   2.875 -0.0481 -0.5174 -0.9573
  644SOL    HW3 2343   4.240   5.589   2.787 -0.8947 -1.8807  1.1508
  644SOL    MW4 2344   4.250   5.625   2.866 -0.2112 -0.1989  0.3122
  645SOL     OW 2345   1.161   1.301   6.381 -0.0600  0.4246 -0.5452
  645SOL    HW2 2346   1.202   1.309   6.295  1.0019 -0.2980 -0.1226
  645SOL    HW3 2347   1.070   1.277   6.362 -0.1026  1.2646 -1.4784
  645SOL    MW4 2348   1.154   1.299   6.367 -0.2966 -0.5659  0.1398
  646SOL     OW 2349   3.840   6.297   5.607 -0.0012  0.0687 -0.3920
  646SOL    HW2 2350   3.763   6.242   5.625  0.4604 -0.5350 -0.2395
  646SOL    HW3 2351   3.811   6.386   5.628 -0.0605 -0.3719  1.5777
  646SOL    MW4 2352   3.826   6.301   5.612 -0.5377  0.1068  0.4729
  647SOL     OW 2353   2.338   3.792   6.143 -0.0580  0.3546 -0.1325
  647SOL    HW2 2354   2.375   3.718   6.095 -1.8354 -0.3717 -0.4594
  647SOL    HW3 2355   2.411   3.827   6.194  1.2993 -0.3197 -1.5681
  647SOL    MW4 2356   2.352   3.787   6.144  0.0291  0.2105 -0.5749
  648SOL     OW 2357   1.025   0.449   2.749  0.0151  0.4503  0.2203
  648SOL    HW2 2358   1.048   0.419   2.661 -0.1009  0.5590  0.1522
  648SOL    HW3 2359   1.109   0.452   2.795  0.0052 -0.1466  0.2838
  648SOL    MW4 2360   1.039   0.446   2.743 -0.0214  0.1473 -0.1860
  649SOL     OW 2361   0.670   2.594   1.899 -0.0021 -0.1732  0.2919
  649SOL    HW2 2362   0.641   2.516   1.853 -1.7071 -0.2157  1.3443
  649SOL    HW3 2363   0.738   2.564   1.959  0.0336 -0.6662  0.0036
  649SOL    MW4 2364   0.675   2.580   1.901  0.0786 -0.3370 -0.6636
  650SOL     OW 2365   4.074   3.496   2.883  0.6201 -0.5536 -0.0910
  650SOL    HW2 2366   4.165   3.518   2.905  0.2281  0.2976  0.7833
  650SOL    HW3 2367   4.057   3.414   2.930  0.4532  0.1345  1.0852
  650SOL    MW4 2368   4.084   3.488   2.892  0.6558  0.1029 -1.0153
  651SOL     OW 2369   3.931   3.918   4.182  0.2190  0.7079 -0.3347
  651SOL    HW2 2370   3.886   3.907   4.098  0.6423 -0.5925 -0.4065
  651SOL    HW3 2371   3.863   3.899   4.247  0.3989 -0.2528 -0.4236
  651SOL    MW4 2372   3.916   3.914   4.179 -0.1273  0.1524  0.0113
  652SOL     OW 2373   5.096   2.194   0.281 -0.1529 -0.1617  0.2671
  652SOL    HW2 2374   5.061   2.141   0.210  3.0150  1.1026 -2.5086
  652SOL    HW3 2375   5.159   2.137   0.325  1.0186  0.3036 -0.7606
  652SOL    MW4 2376   5.100   2.180   0.278 -0.2845  0.4594  0.3755
  653SOL     OW 2377   0.276   5.826   2.157  0.6321  0.2503  0.0019
  653SOL    HW2 2378   0.226   5.784   2.227 -0.8194 -0.5193 -1.4234
  653SOL    HW3 2379   0.211   5.877   2.109  1.3334 -0.2385 -1.5110
  653SOL    MW4 2380   0.260   5.827   2.160 -0.4955 -0.2919  0.8012
  654SOL     OW 2381   6.136   1.767   3.209 -0.0001 -0.3633  0.4247
  654SOL    HW2 2382   6.195   1.713   3.262 -0.0870 -0.3545  0.5305
  654SOL    HW3 2383   6.138   1.728   3.122 -0.6250 -0.9721  0.6776
  654SOL    MW4 2384   6.144   1.755   3.205  0.2131 -0.1325  0.7022
  655SOL     OW 2385   5.469   5.658   6.244 -0.8205 -0.1213 -0.4119
  655SOL    HW2 2386   5.416   5.582   6.218  0.0890 -0.8554 -0.1401
  655SOL    HW3 2387   5.481   5.648   6.338  1.1691 -0.8660 -0.7026
  655SOL    MW4 2388   5.463   5.647   6.253  0.1113  0.1344 -0.0650
  656SOL     OW 2389   5.490   5.577   0.091 -0.3302 -0.0092 -0.6511
  656SOL    HW2 2390   5.540   5.518   0.147 -0.5817 -0.4261 -0.8661
  656SOL    HW3 2391   5.522   5.665   0.114 -1.0469 -0.0912  0.8016
  656SOL    MW4 2392   5.500   5.581   0.101 -0.5097 -0.5462  0.1337
  657SOL     OW 2393   3.637   1.342   2.621 -0.1241  0.3114  0.1002
  657SOL    HW2 2394   3.620   1.284   2.547 -0.3550 -0.0047  0.3949
  657SOL    HW3 2395   3.668   1.423   2.582  0.2330 -0.0201 -0.3171
  657SOL    MW4 2396   3.639   1.345   2.606 -0.0443  0.2427 -0.3495
  658SOL     OW 2397   3.848   5.198   2.995 -0.2416  0.0602 -0.4979
  658SOL    HW2 2398   3.811   5.286   2.996  0.9621  0.5972 -0.6804
  658SOL    HW3 2399   3.938   5.210   3.026  0.0968 -1.0232 -1.0044
  658SOL    MW4 2400   3.855   5.211   2.999  0.3552  0.1309 -0.0340
  659SOL     OW 2401   6.366   6.180   1.208  0.4170  0.1494  0.8525
  659SOL    HW2 2402   6.289   6.124   1.198  0.2386  0.7962 -2.3770
  659SOL    HW3 2403   6.414   6.172   1.125  2.5552  1.6470  1.8221
  659SOL    MW4 2404   6.362   6.172   1.196 -0.2663  0.0860  0.5981
  660SOL     OW 2405   2.924   4.800   1.092  0.3561 -0.7215 -0.0850
  660SOL    HW2 2406   2.849   4.824   1.038  1.0513  0.3086 -0.6352
  660SOL    HW3 2407   2.970   4.883   1.107  1.0862 -1.2514  0.6964
  660SOL    MW4 2408   2.920   4.814   1.087 -0.2056 -0.6219 -0.3731
  661SOL     OW 2409   0.693   0.500   0.521 -0.2633  0.2377  0.1075
  661SOL    HW2 2410   0.756   0.530   0.587 -0.1026  0.1027  0.0147
  661SOL    HW3 2411   0.745   0.486   0.443 -0.3786 -0.0664  0.0843
  661SOL    MW4 2412   0.708   0.502   0.520 -0.4926 -0.3799  0.1514
  662SOL     OW 2413   5.649   0.984   6.334 -0.0012 -0.5885 -0.1552
  662SOL    HW2 2414   5.744   0.997   6.339 -0.1582  0.1369  1.7699
  662SOL    HW3 2415   5.631   0.911   6.393 -0.6386 -0.8126 -0.6121
  662SOL    MW4 2416   5.659   0.976   6.342 -0.6905 -0.3273 -0.2455
  663SOL     OW 2417   3.777   4.149   3.576 -0.0017 -0.4534 -0.3975
  663SOL    HW2 2418   3.827   4.214   3.528  1.4598 -0.4343  1.0836
  663SOL    HW3 2419   3.717   4.200   3.630  0.3379 -0.3812 -0.0907
  663SOL    MW4 2420   3.775   4.164   3.577 -0.3033  0.2716  0.1662
  664SOL     OW 2421   1.610   4.837   2.625  0.3590 -0.1639  0.2705
  664SOL    HW2 2422   1.539   4.875   2.677  1.9298  1.3630  1.4132
  664SOL    HW3 2423   1.681   4.824   2.688  1.0888 -1.7524 -0.8114
  664SOL    MW4 2424   1.610   4.840   2.640  0.0152  0.0991 -0.2483
  665SOL     OW 2425   4.451   2.392   1.051  0.4912 -0.2667  0.0703
  665SOL    HW2 2426   4.473   2.469   1.103 -1.2358 -0.9182  1.9270
  665SOL    HW3 2427   4.423   2.426   0.967 -0.2084  1.1672  0.8472
  665SOL    MW4 2428   4.450   2.407   1.047 -0.1782  0.1536  0.2134
  666SOL     OW 2429   0.711   3.248   2.091 -0.5636 -0.7715  0.2895
  666SOL    HW2 2430   0.716   3.160   2.053 -0.3114 -1.2253  1.3438
  666SOL    HW3 2431   0.622   3.253   2.126 -0.5792 -0.5940  0.2258
  666SOL    MW4 2432   0.700   3.237   2.090  0.5372 -0.2789  0.4920
  667SOL     OW 2433   1.120   3.521   4.264 -0.4087  0.0259  0.1128
  667SOL    HW2 2434   1.067   3.596   4.237 -1.4307 -0.7721 -0.1612
  667SOL    HW3 2435   1.067   3.478   4.331  0.2721 -0.3318  0.4302
  667SOL    MW4 2436   1.106   3.525   4.269  0.0841 -0.3996  0.0568
  668SOL     OW 2437   2.644   0.670   0.647  0.0339 -0.0211 -0.4185
  668SOL    HW2 2438   2.727   0.703   0.611  0.9707 -1.2367  0.5218
  668SOL    HW3 2439   2.618   0.735   0.711 -0.2064  0.7960 -1.3220
  668SOL    MW4 2440   2.652   0.683   0.650  0.3525  0.1411 -0.1354
  669SOL     OW 2441   6.355   1.031   2.606 -0.3409 -0.0974 -0.2229
  669SOL    HW2 2442   6.433   1.012   2.658 -1.3834  0.2036  1.5649
  669SOL    HW3 2443   6.331   1.121   2.630 -0.8192  0.0829 -1.3046
  669SOL    MW4 2444   6.362   1.041   2.616  0.5792  0.0925  0.1557
  670SOL     OW 2445   0.473   5.522   5.285 -0.7833 -0.4954  0.5016
  670SOL    HW2 2446   0.457   5.476   5.368 -0.4878  2.5344  2.4056
  670SOL    HW3 2447   0.429   5.607   5.296  0.1193  0.3907 -2.0530
  670SOL    MW4 2448   0.465   5.527   5.297  0.0210 -0.6887 -0.1774
  671SOL     OW 2449   1.953   2.224   3.878  0.1720  0.0256  0.1360
  671SOL    HW2 2450   2.046   2.244   3.872  0.4540 -1.0352  0.7029
  671SOL    HW3 2451   1.914   2.270   3.803  1.5640 -1.7744 -1.8287
  671SOL    MW4 2452   1.960   2.233   3.867  0.3471 -0.1358 -0.1021
  672SOL     OW 2453   2.530   5.420   3.198  0.0180  0.0650  0.2857
  672SOL    HW2 2454   2.474   5.343   3.192  0.0578  0.0607 -0.0284
  672SOL    HW3 2455   2.602   5.393   3.256 -0.2323  0.0293  0.5844
  672SOL    MW4 2456   2.532   5.406   3.205  0.0721  0.0437 -0.7627
  673SOL     OW 2457   2.930   4.768   3.892 -0.0761 -0.0982 -0.1330
  673SOL    HW2 2458   2.958   4.846   3.939 -1.8133 -0.3084  1.3698
  673SOL    HW3 2459   2.842   4.789   3.861 -0.5056 -1.3776  0.1556
  673SOL    MW4 2460   2.922   4.781   3.894  0.4634 -0.6228 -0.3705
  674SOL     OW 2461   4.727   0.777   0.966  0.6595  0.3393 -0.1595
  674SOL    HW2 2462   4.794   0.713   0.988  0.6912 -0.2818 -1.8679
  674SOL    HW3 2463   4.733   0.786   0.871 -0.0271  2.1337 -0.0759
  674SOL    MW4 2464   4.737   0.770   0.956  0.1596 -0.8077  0.1898
  675SOL     OW 2465   3.502   3.762   2.753 -0.5413  0.1169 -0.0398
  675SOL    HW2 2466   3.504   3.680   2.802  1.7929  0.3684  0.3840
  675SOL    HW3 2467   3.518   3.830   2.818 -0.2322  0.7139 -0.7278
  675SOL    MW4 2468   3.504   3.760   2.768 -0.3903  0.1606 -0.3455
  676SOL     OW 2469   2.050   5.655   2.756 -0.1322 -0.4145  0.0008
  676SOL    HW2 2470   2.025   5.692   2.671 -1.0282  0.9979  0.8271
  676SOL    HW3 2471   1.967   5.626   2.794 -0.1408  1.3313  1.4306
  676SOL    MW4 2472   2.036   5.656   2.750 -0.2497  0.0601 -0.0927
  677SOL     OW 2473   4.823   5.595   0.746 -0.1559  0.5690  0.5364
  677SOL    HW2 2474   4.730   5.616   0.743  0.0498  1.9586  2.1800
  677SOL    HW3 2475   4.844   5.591   0.839  1.4254  0.2359  0.1968
  677SOL    MW4 2476   4.814   5.597   0.758  0.1068  0.0963 -1.0471
  678SOL     OW 2477   3.585   4.754   4.396 -0.3086  0.1689  0.0185
  678SOL    HW2 2478   3.625   4.815   4.459  0.1741 -2.2215  2.1681
  678SOL    HW3 2479   3.655   4.736   4.333 -0.1418  1.0269 -0.0578
  678SOL    MW4 2480   3.599   4.760   4.396  0.4734  0.3820 -0.3717
  679SOL     OW 2481   5.073   0.332   6.253  0.1899 -0.6062  0.3013
  679SOL    HW2 2482   5.020   0.404   6.289 -1.8807 -1.8418 -0.0870
  679SOL    HW3 2483   5.056   0.334   6.159  0.5048 -1.3136  0.2257
  679SOL    MW4 2484   5.064   0.342   6.246  0.3001  0.2047 -0.5251
  680SOL     OW 2485   2.623   0.792   6.270  0.2558  0.0938 -0.4802
  680SOL    HW2 2486   2.567   0.840   6.331 -1.5414 -0.2586 -1.7506
  680SOL    HW3 2487   2.697   0.851   6.254  0.5891  0.3365  1.6930
  680SOL    MW4 2488   2.625   0.806   6.276 -0.4085 -0.2252 -0.6839
  681SOL     OW 2489   4.448   3.459   3.228  0.3775 -0.3588  0.3167
  681SOL    HW2 2490   4.406   3.531   3.275  1.7138 -0.8437  2.3502
  681SOL    HW3 2491   4.534   3.450   3.268  1.1597 -1.5561 -1.5055
  681SOL    MW4 2492   4.454   3.467   3.239 -0.4492  0.3807  0.3363
  682SOL     OW 2493   2.315   1.866   3.477  0.4460  0.4566  0.0893
  682SOL    HW2 2494   2.296   1.799   3.412  1.2440 -0.1715  0.4885
  682SOL    HW3 2495   2.231   1.880   3.522 -0.0025  0.5717 -0.7533
  682SOL    MW4 2496   2.301   1.859   3.474  0.3115 -0.4615  0.7427
  683SOL     OW 2497   1.301   3.101   1.178 -0.0478  0.1422  0.2384
  683SOL    HW2 2498   1.255   3.023   1.210 -0.0384  0.3580  0.7763
  683SOL    HW3 2499   1.263   3.116   1.091  0.1294 -0.6091  0.0190
  683SOL    MW4 2500   1.290   3.092   1.170 -0.4113  0.0142 -0.1951
  684SOL     OW 2501   4.634   4.839   3.775  0.3445 -0.3448  0.4633
  684SOL    HW2 2502   4.630   4.926   3.814  2.0586  0.5430 -1.2193
  684SOL    HW3 2503   4.720   4.834   3.734 -0.3335 -2.2165 -0.8898
  684SOL    MW4 2504   4.645   4.850   3.774  0.1951  0.1594  0.4119
  685SOL     OW 2505   1.223   4.776   2.531 -0.3580  0.1937 -0.3390
  685SOL    HW2 2506   1.302   4.763   2.479 -0.8140  0.0918 -1.0365
  685SOL    HW3 2507   1.152   4.771   2.466 -0.9954 -0.6052  0.3930
  685SOL    MW4 2508   1.224   4.774   2.515 -0.0241  0.5044  0.1187
  686SOL     OW 2509   4.085   1.043   4.718 -0.3356 -0.0739  0.0638
  686SOL    HW2 2510   3.994   1.047   4.744 -1.2439 -2.5535 -2.2431
  686SOL    HW3 2511   4.125   0.978   4.776  0.4211  1.9698  1.9690
  686SOL    MW4 2512   4.079   1.035   4.729  0.0213 -0.5577 -0.2390
  687SOL     OW 2513   2.212   4.568   1.266  0.1707 -0.3342 -0.2682
  687SOL    HW2 2514   2.133   4.517   1.247  0.9764 -1.4776 -0.6580
  687SOL    HW3 2515   2.275   4.503   1.298  0.8614  0.6064  0.3162
  687SOL    MW4 2516   2.210   4.552   1.268  0.1663 -0.1975  0.1953
  688SOL     OW 2517   2.768   4.186   0.761 -0.1163 -0.1771 -0.1410
  688SOL    HW2 2518   2.759   4.139   0.677 -2.1560 -0.4319  0.1717
  688SOL    HW3 2519   2.733   4.273   0.743  1.0749  0.3477  0.0162
  688SOL    MW4 2520   2.762   4.191   0.747 -0.1579  0.4959 -0.2021
  689SOL     OW 2521   0.936   4.054   0.703 -0.3213  0.0267  0.0593
  689SOL    HW2 2522   0.842   4.052   0.721 -0.4277  2.9267  0.2143
  689SOL    HW3 2523   0.975   4.091   0.782  0.7659  0.3885 -0.6222
  689SOL    MW4 2524   0.929   4.059   0.716  0.2789 -0.5560 -0.4511
  690SOL     OW 2525   3.683   5.776   3.174 -0.4409  0.3019  0.2394
  690SOL    HW2 2526   3.657   5.759   3.083  0.6868  0.8087 -0.1968
  690SOL    HW3 2527   3.718   5.865   3.173 -0.6434  0.4044  1.2283
  690SOL    MW4 2528   3.685   5.786   3.162 -0.1506  0.1611 -0.2661
  691SOL     OW 2529   3.681   0.182   1.084 -0.1118  0.0002  0.5224
  691SOL    HW2 2530   3.720   0.184   0.996  0.6831 -0.1230  0.8591
  691SOL    HW3 2531   3.734   0.244   1.135  0.3647 -0.9800  1.2673
  691SOL    MW4 2532   3.693   0.190   1.079 -0.4544  0.2169 -0.3794
  692SOL     OW 2533   0.698   5.822   0.211  0.3812 -0.2855  0.2984
  692SOL    HW2 2534   0.701   5.916   0.192 -0.3276 -0.3267 -0.0774
  692SOL    HW3 2535   0.605   5.802   0.218  0.5567 -0.5352  2.6441
  692SOL    MW4 2536   0.686   5.831   0.209 -0.2021  0.1983  0.0518
  693SOL     OW 2537   5.561   3.573   5.052 -0.1797 -0.5622 -0.6691
  693SOL    HW2 2538   5.571   3.665   5.073 -0.5818 -0.5668 -0.4422
  693SOL    HW3 2539   5.643   3.548   5.009 -0.0557 -0.1129 -0.6905
  693SOL    MW4 2540   5.573   3.582   5.049 -0.7153  0.1596  0.0579
  694SOL     OW 2541   2.848   3.205   4.428 -0.2397  0.5710 -0.2441
  694SOL    HW2 2542   2.757   3.215   4.456 -0.2897  2.3748 -0.9187
  694SOL    HW3 2543   2.856   3.263   4.353  1.6460  0.9398  0.1999
  694SOL    MW4 2544   2.837   3.214   4.422 -0.3393  0.0324 -0.3519
  695SOL     OW 2545   2.670   1.769   5.031  0.0470  0.3221 -0.2298
  695SOL    HW2 2546   2.612   1.811   5.095  1.0727  1.7578 -0.1847
  695SOL    HW3 2547   2.740   1.730   5.083  0.4273  0.7484 -0.4127
  695SOL    MW4 2548   2.672   1.770   5.046 -0.1573  0.1924  0.6614
  696SOL     OW 2549   2.280   2.854   3.853  0.0505  0.0030 -0.2113
  696SOL    HW2 2550   2.334   2.847   3.932  0.0905 -0.6056 -0.2820
  696SOL    HW3 2551   2.201   2.899   3.882  1.2423  2.3854 -0.4498
  696SOL    MW4 2552   2.277   2.859   3.867 -1.0271  0.6579 -0.4101
  697SOL     OW 2553   5.959   1.098   3.786  0.1664  0.0688  0.8737
  697SOL    HW2 2554   6.018   1.034   3.747  1.0314  0.4526  1.5175
  697SOL    HW3 2555   5.961   1.173   3.727 -0.8198 -0.4566  0.1378
  697SOL    MW4 2556   5.967   1.100   3.773 -0.1791  0.0356  0.7468
  698SOL     OW 2557   0.510   6.126   5.890  0.0227 -0.0616 -0.1338
  698SOL    HW2 2558   0.559   6.105   5.970  1.7813  0.8243 -0.9158
  698SOL    HW3 2559   0.531   6.054   5.830  0.9715  0.6526 -0.6957
  698SOL    MW4 2560   0.519   6.114   5.893 -0.0884  0.4744 -0.5831
  699SOL     OW 2561   0.940   0.734   2.636 -0.0384  0.0942 -0.2287
  699SOL    HW2 2562   0.978   0.666   2.690 -0.8582  0.9198  1.4796
  699SOL    HW3 2563   1.002   0.747   2.564  1.6911 -0.2341  1.1585
  699SOL    MW4 2564   0.953   0.727   2.633  0.2328 -0.0294 -0.5437
  700SOL     OW 2565   3.308   4.601   2.007 -0.0102 -0.8210 -0.3271
  700SOL    HW2 2566   3.289   4.581   1.916 -0.7367 -2.2183  0.1008
  700SOL    HW3 2567   3.404   4.595   2.013  0.1417  0.3206 -1.1913
  700SOL    MW4 2568   3.318   4.598   1.996 -0.5310 -0.0927  0.3975
  701SOL     OW 2569   4.683   1.756   5.715 -0.0477  0.2761 -0.2275
  701SOL    HW2 2570   4.623   1.788   5.648  1.2289  1.7078 -0.7657
  701SOL    HW3 2571   4.760   1.727   5.666  0.2218 -0.3104  0.5195
  701SOL    MW4 2572   4.685   1.756   5.700 -0.0063 -0.0020  0.0285
  702SOL     OW 2573   2.254   1.467   0.772 -0.0379 -0.4952  0.6521
  702SOL    HW2 2574   2.292   1.423   0.695  0.4058 -4.3237  2.8202
  702SOL    HW3 2575   2.162   1.440   0.772 -0.5965  1.2612  0.4035
  702SOL    MW4 2576   2.247   1.458   0.762  0.7002 -0.1397 -0.2055
  703SOL     OW 2577   1.886   4.040   5.796  1.1827  0.5339 -0.4389
  703SOL    HW2 2578   1.862   4.004   5.710  0.3590 -0.7326  0.2862
  703SOL    HW3 2579   1.926   3.967   5.842 -0.5595  0.4809  1.0999
  703SOL    MW4 2580   1.888   4.026   5.791 -0.1675 -0.1408 -0.1428
  704SOL     OW 2581   5.179   1.631   5.457 -0.0831  0.8017  0.3400
  704SOL    HW2 2582   5.201   1.705   5.401  2.7432  0.7477  1.2200
  704SOL    HW3 2583   5.220   1.555   5.416  1.9972  0.7473  2.2947
  704SOL    MW4 2584   5.187   1.631   5.444 -0.7583 -0.7534  0.2686
  705SOL     OW 2585   4.627   3.953   5.907 -0.9767 -0.3343  0.5433
  705SOL    HW2 2586   4.695   3.973   5.971  0.3182  0.7857 -1.0931
  705SOL    HW3 2587   4.623   3.857   5.905  1.0118 -0.4457  0.2823
  705SOL    MW4 2588   4.635   3.943   5.915  0.4237 -0.4565  0.3472
  706SOL     OW 2589   3.392   3.341   1.329 -0.3458 -0.4534 -0.1212
  706SOL    HW2 2590   3.330   3.385   1.387 -0.0357 -0.0240 -0.1119
  706SOL    HW3 2591   3.385   3.389   1.246 -1.1520 -1.3713 -0.6053
  706SOL    MW4 2592   3.383   3.353   1.326 -0.4260 -0.1776 -0.8904
  707SOL     OW 2593   6.161   1.876   5.999  0.0917 -0.3230  0.0031
  707SOL    HW2 2594   6.206   1.959   6.010  0.1897 -0.3795  0.0321
  707SOL    HW3 2595   6.071   1.893   6.027  0.1523 -0.2689  0.1662
  707SOL    MW4 2596   6.155   1.889   6.004 -0.1778  0.2922 -0.0572
  708SOL     OW 2597   2.682   4.599   0.163  0.0335 -0.3810 -0.1667
  708SOL    HW2 2598   2.712   4.660   0.096  2.5748  0.5634  1.6845
  708SOL    HW3 2599   2.597   4.568   0.130  0.1056  1.7027 -2.6945
  708SOL    MW4 2600   2.675   4.603   0.150  0.3335 -0.3442 -0.2668
  709SOL     OW 2601   2.737   5.866   0.007 -0.6156  0.2187  0.5266
  709SOL    HW2 2602   2.716   5.896  -0.082  2.8853  0.8778 -0.2306
  709SOL    HW3 2603   2.789   5.787  -0.006  1.6365  1.4071  1.8296
  709SOL    MW4 2604   2.741   5.860  -0.007  0.1241 -0.3061  0.1088
  710SOL     OW 2605   5.464   3.854   5.112  0.1754 -0.2205 -0.5244
  710SOL    HW2 2606   5.480   3.860   5.018  2.8179 -2.7503 -0.3583
  710SOL    HW3 2607   5.386   3.798   5.119 -0.1285  0.1064 -1.1670
  710SOL    MW4 2608   5.456   3.847   5.101 -0.2185 -0.2571 -0.0313
  711SOL     OW 2609   0.175   2.328   2.051 -0.6949  0.2117  0.0907
  711SOL    HW2 2610   0.170   2.278   1.970 -0.6148  0.8009 -0.2777
  711SOL    HW3 2611   0.216   2.268   2.114  0.4237  0.1956 -0.6393
  711SOL    MW4 2612   0.179   2.314   2.049  0.3071 -0.1472 -0.6381
  712SOL     OW 2613   4.450   3.815   1.578 -0.7325 -0.3713  0.2240
  712SOL    HW2 2614   4.530   3.765   1.592  0.4546  1.5419  0.5787
  712SOL    HW3 2615   4.421   3.790   1.490  1.6034  0.6412 -0.9109
  712SOL    MW4 2616   4.456   3.805   1.568  0.2855 -0.4040 -0.4413
  713SOL     OW 2617   2.193   2.226   4.850  0.1444  0.4435  0.0683
  713SOL    HW2 2618   2.268   2.286   4.840 -0.0200  0.8572  1.0940
  713SOL    HW3 2619   2.232   2.139   4.854  0.5096  0.5969 -0.1600
  713SOL    MW4 2620   2.208   2.223   4.849  0.2655 -0.2710  0.3164
  714SOL     OW 2621   1.870   1.780   0.073  0.0125 -0.1668  0.0591
  714SOL    HW2 2622   1.783   1.791   0.034  0.0193 -1.9702 -0.5749
  714SOL    HW3 2623   1.864   1.697   0.120  1.6590 -0.8328 -0.8143
  714SOL    MW4 2624   1.858   1.771   0.074 -0.3361 -0.0104 -0.0056
  715SOL     OW 2625   0.587   3.849   4.796  0.0382  0.6724  0.6156
  715SOL    HW2 2626   0.575   3.779   4.733  1.1261 -0.4601  1.6073
  715SOL    HW3 2627   0.572   3.929   4.746  0.7990 -0.1787 -1.0661
  715SOL    MW4 2628   0.583   3.850   4.781 -1.2557 -0.2193 -0.4555
  716SOL     OW 2629   1.448   5.785   0.027  0.4808  0.0841 -0.1494
  716SOL    HW2 2630   1.471   5.768  -0.065  2.5751  1.0101  0.1397
  716SOL    HW3 2631   1.393   5.863   0.024  0.0461 -0.2313 -0.6377
  716SOL    MW4 2632   1.444   5.793   0.014 -0.4004 -0.1920 -0.6244
  717SOL     OW 2633   4.068   5.375   6.180  0.3102  0.0024  0.1118
  717SOL    HW2 2634   4.057   5.396   6.087 -2.8747  0.2254  0.4353
  717SOL    HW3 2635   4.029   5.289   6.191  0.6058 -0.0070  1.2784
  717SOL    MW4 2636   4.062   5.367   6.169  0.5747  0.0890 -0.4531
  718SOL     OW 2637   4.019   4.905   0.344 -0.0729  0.0145 -0.5483
  718SOL    HW2 2638   3.963   4.896   0.421  2.4414 -0.8721  1.2715
  718SOL    HW3 2639   4.033   4.815   0.314  0.7807  0.1818 -0.6747
  718SOL    MW4 2640   4.013   4.892   0.350  0.3381 -0.4667  0.3805
  719SOL     OW 2641   1.340   1.598   0.293  0.1413 -0.0384 -0.0765
  719SOL    HW2 2642   1.333   1.609   0.388  1.7589  0.7861 -0.0238
  719SOL    HW3 2643   1.251   1.576   0.265 -0.7705  1.5394  1.3996
  719SOL    MW4 2644   1.327   1.596   0.302 -0.3352 -0.2137 -0.2959
  720SOL     OW 2645   1.339   3.143   3.789 -1.3437 -0.2829  0.3300
  720SOL    HW2 2646   1.309   3.059   3.757 -2.3478 -0.3553  1.4108
  720SOL    HW3 2647   1.353   3.130   3.883  0.0522  0.3254  0.2360
  720SOL    MW4 2648   1.337   3.130   3.797 -0.1311  0.4166  0.2434
  721SOL     OW 2649   2.451   3.130   0.976  0.5928  0.3319  0.2259
  721SOL    HW2 2650   2.516   3.193   1.008  1.5723 -0.7494  0.4141
  721SOL    HW3 2651   2.388   3.184   0.927  1.3990  1.4570  0.3899
  721SOL    MW4 2652   2.451   3.145   0.974 -0.3481 -0.1639  0.0369
  722SOL     OW 2653   2.014   0.700   3.724 -0.3559 -0.1157  0.6023
  722SOL    HW2 2654   2.074   0.774   3.734  0.8182 -1.0898  0.8832
  722SOL    HW3 2655   2.056   0.628   3.770  0.0018 -1.7989 -2.1216
  722SOL    MW4 2656   2.027   0.700   3.731  0.0156 -0.0893 -0.2221
  723SOL     OW 2657   5.401   1.216   2.780  0.1968  0.4753 -0.2423
  723SOL    HW2 2658   5.318   1.215   2.828  1.2048 -0.6784  1.5903
  723SOL    HW3 2659   5.462   1.169   2.837  2.4514  2.3801 -0.9377
  723SOL    MW4 2660   5.398   1.210   2.794  0.0993  0.9534 -0.1038
  724SOL     OW 2661   2.566   1.366   5.755  0.1914 -0.4256 -0.2895
  724SOL    HW2 2662   2.558   1.425   5.830 -0.1372 -0.4572 -0.2982
  724SOL    HW3 2663   2.552   1.279   5.792  0.0635 -0.4440 -0.3809
  724SOL    MW4 2664   2.563   1.362   5.770 -0.3611 -0.3630 -0.0588
  725SOL     OW 2665   1.885   4.089   0.795 -0.0615 -0.0239 -0.2948
  725SOL    HW2 2666   1.900   4.171   0.841 -0.1224  0.7259 -1.5745
  725SOL    HW3 2667   1.827   4.039   0.853  0.4814  0.5697  0.7741
  725SOL    MW4 2668   1.879   4.093   0.809  0.0476 -0.2587 -0.5657
  726SOL     OW 2669   6.087   0.834   2.800  0.2211 -1.0045  0.1598
  726SOL    HW2 2670   6.057   0.780   2.873  1.4546 -1.2513  0.5126
  726SOL    HW3 2671   6.099   0.921   2.837 -4.2496  0.3656 -0.9505
  726SOL    MW4 2672   6.085   0.838   2.815 -0.0176  0.2218 -0.1492
  727SOL     OW 2673   0.704   3.954   3.276  0.2208  0.1324 -0.0246
  727SOL    HW2 2674   0.725   4.044   3.302 -0.4764  0.6993 -1.3490
  727SOL    HW3 2675   0.610   3.956   3.255  0.3166 -0.7628 -0.5980
  727SOL    MW4 2676   0.694   3.966   3.277 -0.1087  0.7026 -0.6479
  728SOL     OW 2677   0.839   0.649   0.105 -0.2676  0.5833  0.2337
  728SOL    HW2 2678   0.911   0.710   0.122 -0.0224  0.7490 -1.2682
  728SOL    HW3 2679   0.766   0.705   0.080 -1.1119  0.4480  2.2557
  728SOL    MW4 2680   0.839   0.664   0.104  0.2724 -0.3228 -0.6443
  729SOL     OW 2681   3.465   0.343   6.009  0.0343 -0.1941  0.3367
  729SOL    HW2 2682   3.410   0.282   5.960  0.1688 -1.0809  1.2675
  729SOL    HW3 2683   3.415   0.363   6.088  0.5943 -0.1988  0.6983
  729SOL    MW4 2684   3.452   0.338   6.013 -0.0608  0.5472 -0.5015
  730SOL     OW 2685   3.733   3.660   5.830 -0.5751  0.3300 -0.1930
  730SOL    HW2 2686   3.788   3.624   5.900  0.4242  0.4448 -0.8862
  730SOL    HW3 2687   3.651   3.612   5.836 -0.7741  0.8177  1.4912
  730SOL    MW4 2688   3.730   3.649   5.840 -0.1005  0.1027  0.2656
  731SOL     OW 2689   3.411   4.271   3.290 -0.3388  0.9302  0.4621
  731SOL    HW2 2690   3.469   4.224   3.350 -1.0010 -0.3821  0.1321
  731SOL    HW3 2691   3.393   4.354   3.333  1.2197  1.0673  0.8822
  731SOL    MW4 2692   3.416   4.275   3.304 -0.5539 -0.1986 -0.2728
  732SOL     OW 2693   6.068   1.804   2.089  0.1168 -0.3152  0.0593
  732SOL    HW2 2694   6.151   1.819   2.135  1.0554 -2.8271 -0.6356
  732SOL    HW3 2695   6.074   1.713   2.059 -1.7573  0.2668 -2.3648
  732SOL    MW4 2696   6.080   1.794   2.091 -0.1729  0.2168 -0.4075
  733SOL     OW 2697   2.168   4.953   4.605  0.1328 -0.5230  0.5341
  733SOL    HW2 2698   2.121   4.985   4.682 -1.1948 -1.5874  0.2036
  733SOL    HW3 2699   2.169   5.027   4.545 -0.9844 -0.4340  0.6150
  733SOL    MW4 2700   2.162   4.967   4.607 -0.1378 -0.1690  0.8481
  734SOL     OW 2701   4.904   2.208   4.216  0.4471  0.3966  0.3879
  734SOL    HW2 2702   4.811   2.222   4.233 -0.5278 -3.0337 -1.2062
  734SOL    HW3 2703   4.917   2.239   4.127 -0.3243 -2.7935 -0.9665
  734SOL    MW4 2704   4.893   2.214   4.207  0.1040 -0.5554 -0.2807
  735SOL     OW 2705   2.153   2.490   6.367 -0.0235  0.0741 -0.2227
  735SOL    HW2 2706   2.224   2.486   6.303 -0.0020 -0.4384 -0.1690
  735SOL    HW3 2707   2.087   2.546   6.326  0.0836 -0.0728 -0.6029
  735SOL    MW4 2708   2.154   2.497   6.353 -0.1410 -0.3199  0.1952
  736SOL     OW 2709   3.201   3.599   4.942  0.2556  0.4208 -0.3476
  736SOL    HW2 2710   3.218   3.604   5.036 -1.0132  2.2206 -0.1589
  736SOL    HW3 2711   3.159   3.514   4.929  0.4059  0.1755  0.7193
  736SOL    MW4 2712   3.197   3.588   4.952 -0.1559  0.0807 -0.2548
  737SOL     OW 2713   2.060   1.398   0.397 -0.0625  0.1399 -0.2362
  737SOL    HW2 2714   1.985   1.433   0.444 -0.8838 -2.5793  0.6699
  737SOL    HW3 2715   2.136   1.430   0.444 -0.8152 -0.4888  1.4778
  737SOL    MW4 2716   2.060   1.407   0.409  0.3495  0.2346 -0.0699
  738SOL     OW 2717   6.002   5.579   4.650 -0.8536  0.2014 -0.1455
  738SOL    HW2 2718   5.907   5.572   4.644 -0.8302  0.9168 -1.9903
  738SOL    HW3 2719   6.030   5.602   4.562  1.0945 -0.5245  0.2355
  738SOL    MW4 2720   5.993   5.581   4.638 -0.3185  0.5783 -0.1688
  739SOL     OW 2721   0.170   2.214   0.073  0.2562  0.2719 -0.0062
  739SOL    HW2 2722   0.247   2.191   0.126 -0.0480  0.4758  0.5332
  739SOL    HW3 2723   0.169   2.310   0.073  0.4596  0.2839 -0.6966
  739SOL    MW4 2724   0.180   2.223   0.080  0.4945 -0.7471  0.2450
  740SOL     OW 2725   2.178   0.032   0.757 -0.5638  0.2786  0.2658
  740SOL    HW2 2726   2.242   0.043   0.828 -0.1667  1.6359 -0.2706
  740SOL    HW3 2727   2.230   0.036   0.677 -1.0543 -0.9075 -0.1363
  740SOL    MW4 2728   2.193   0.034   0.756  0.1043  0.0421  0.1890
  741SOL     OW 2729   0.895   0.419   4.953  0.4190 -0.1231  1.0412
  741SOL    HW2 2730   0.822   0.357   4.949 -1.9198  2.4569  1.2649
  741SOL    HW3 2731   0.945   0.402   4.873 -0.4918 -1.8100  0.7725
  741SOL    MW4 2732   0.892   0.408   4.942 -0.0767 -0.7870 -0.1542
  742SOL     OW 2733   3.475   3.801   1.881 -0.1771 -0.0381  0.5120
  742SOL    HW2 2734   3.514   3.813   1.967  1.0459 -3.3843  0.6133
  742SOL    HW3 2735   3.549   3.809   1.820 -0.5764  0.0161  0.0245
  742SOL    MW4 2736   3.490   3.803   1.884  0.2674  0.0110  0.0389
  743SOL     OW 2737   0.594   4.122   4.670  0.1274  0.1813 -0.2984
  743SOL    HW2 2738   0.579   4.180   4.745 -0.1394 -1.4275  0.9399
  743SOL    HW3 2739   0.518   4.135   4.614  0.5266  1.7134 -0.5487
  743SOL    MW4 2740   0.582   4.132   4.673 -0.0124  0.4076 -0.0147
  744SOL     OW 2741   0.393   4.266   4.163  0.2112 -0.3226 -0.3452
  744SOL    HW2 2742   0.313   4.215   4.178  0.2100 -0.2255  0.0005
  744SOL    HW3 2743   0.463   4.211   4.199  0.5240 -1.1619 -2.1456
  744SOL    MW4 2744   0.392   4.252   4.170  0.3865 -0.2470 -0.1450
  745SOL     OW 2745   5.061   2.837   0.723  0.5783 -0.3041  0.0466
  745SOL    HW2 2746   5.106   2.830   0.807 -0.1512 -0.4103  0.4445
  745SOL    HW3 2747   5.026   2.749   0.708 -1.4342  0.2789  0.8947
  745SOL    MW4 2748   5.062   2.824   0.732 -0.1125  0.5933 -0.4891
  746SOL     OW 2749   3.751   1.551   2.492  0.5105 -0.2910 -0.3687
  746SOL    HW2 2750   3.708   1.620   2.541  1.3793 -1.1365  1.6980
  746SOL    HW3 2751   3.843   1.554   2.520  0.9302 -1.1558 -1.5507
  746SOL    MW4 2752   3.758   1.560   2.502 -0.0604 -0.3340  0.6725
  747SOL     OW 2753   2.901   4.621   1.809 -0.2978  0.5341 -0.5490
  747SOL    HW2 2754   2.904   4.527   1.796  0.4418  0.6342 -1.1902
  747SOL    HW3 2755   2.945   4.636   1.892 -0.9048  0.2736 -0.1753
  747SOL    MW4 2756   2.907   4.611   1.818 -0.0516 -0.5099  0.5768
  748SOL     OW 2757   2.416   0.603   1.851  0.1199 -0.2827 -0.4997
  748SOL    HW2 2758   2.366   0.683   1.837  0.6490  0.1082 -0.1743
  748SOL    HW3 2759   2.388   0.572   1.938 -0.8773 -1.0438 -1.0640
  748SOL    MW4 2760   2.405   0.609   1.861 -0.1892 -0.1698 -0.2106
  749SOL     OW 2761   5.839   4.456   4.480  0.2518 -0.1341  0.3060
  749SOL    HW2 2762   5.812   4.365   4.491 -1.9556  0.1737 -1.7313
  749SOL    HW3 2763   5.812   4.499   4.561 -0.6591 -0.9005  0.4342
  749SOL    MW4 2764   5.832   4.450   4.492  0.3547 -0.1388 -0.5366
  750SOL     OW 2765   3.180   4.445   4.238 -0.0191  0.2092 -0.2867
  750SOL    HW2 2766   3.168   4.535   4.269  0.7866 -0.1240  1.0723
  750SOL    HW3 2767   3.275   4.433   4.234 -0.0264 -1.4001  2.2180
  750SOL    MW4 2768   3.191   4.455   4.241 -0.7524 -0.9374  0.3883
  751SOL     OW 2769   4.617   5.942   4.263  0.2397  0.0313 -0.3351
  751SOL    HW2 2770   4.543   5.996   4.290  0.6349  0.5603 -0.2784
  751SOL    HW3 2771   4.694   5.988   4.299  0.5952 -0.4694 -0.4501
  751SOL    MW4 2772   4.617   5.955   4.271  0.0284  0.1467  0.2284
  752SOL     OW 2773   5.237   5.659   4.495 -0.1654 -0.1461  0.2297
  752SOL    HW2 2774   5.318   5.673   4.543  0.5182 -1.8106 -0.3504
  752SOL    HW3 2775   5.253   5.700   4.410 -0.2434  0.2114  0.3848
  752SOL    MW4 2776   5.250   5.666   4.490 -0.1456  0.2624  0.6101
  753SOL     OW 2777   1.358   4.712   5.116  0.1316 -0.0862 -0.0181
  753SOL    HW2 2778   1.430   4.713   5.053 -0.1166 -0.0415 -0.3025
  753SOL    HW3 2779   1.362   4.799   5.157  0.5880 -0.2830  0.3721
  753SOL    MW4 2780   1.368   4.724   5.113 -0.1520 -0.1760  0.1342
  754SOL     OW 2781   0.733   0.046   6.075  0.1274 -0.0137  0.8413
  754SOL    HW2 2782   0.650   0.076   6.113  0.5680 -0.0498  1.8446
  754SOL    HW3 2783   0.728   0.073   5.983 -1.2266 -0.4942  0.7545
  754SOL    MW4 2784   0.721   0.054   6.068 -0.2225 -0.0864  0.2265
  755SOL     OW 2785   5.086   5.016   5.017 -0.2970  0.8502  0.1128
  755SOL    HW2 2786   5.110   5.104   4.990  1.4151  1.6807  3.7029
  755SOL    HW3 2787   4.998   5.025   5.054 -0.5783  0.7806 -0.5264
  755SOL    MW4 2788   5.078   5.029   5.018 -0.1011  0.0085  0.0522
  756SOL     OW 2789   0.741   5.132   6.095  0.5344 -0.0671  0.3366
  756SOL    HW2 2790   0.659   5.109   6.138  0.3080  1.4934  0.8324
  756SOL    HW3 2791   0.720   5.132   6.002  0.4531 -1.3669  0.3380
  756SOL    MW4 2792   0.727   5.129   6.089  0.4549  0.3167 -0.7638
  757SOL     OW 2793   0.988   1.887   4.922  0.3932  0.1600 -0.2339
  757SOL    HW2 2794   0.958   1.911   5.010 -3.0496 -1.8236 -0.7237
  757SOL    HW3 2795   1.025   1.800   4.932 -1.0150 -0.5435 -0.8487
  757SOL    MW4 2796   0.989   1.879   4.935 -0.0746  0.1690 -0.0381
  758SOL     OW 2797   2.984   4.074   2.692 -0.0390  0.1719 -0.1233
  758SOL    HW2 2798   2.936   4.156   2.707 -0.4504 -0.0710 -0.0900
  758SOL    HW3 2799   2.932   4.008   2.738 -0.3108 -0.2888 -1.0667
  758SOL    MW4 2800   2.971   4.076   2.700  0.2877 -0.1617 -0.1188
  759SOL     OW 2801   5.596   6.272   3.234  0.1452 -0.0832  0.2055
  759SOL    HW2 2802   5.670   6.253   3.177  0.3643 -0.4494  0.6098
  759SOL    HW3 2803   5.533   6.202   3.215  0.5674 -0.6959  1.0182
  759SOL    MW4 2804   5.597   6.260   3.224 -0.3659  0.2254  0.3571
  760SOL     OW 2805   1.376   3.164   5.307  0.0774 -0.6502  0.5245
  760SOL    HW2 2806   1.458   3.117   5.295 -0.7380 -1.7415 -1.0970
  760SOL    HW3 2807   1.389   3.248   5.264  0.1821 -1.0348 -0.2086
  760SOL    MW4 2808   1.388   3.168   5.300 -0.2839 -0.2540 -0.0412
  761SOL     OW 2809   0.765   0.382   5.743 -0.7558 -0.2947  0.3476
  761SOL    HW2 2810   0.702   0.425   5.685  0.3228 -0.1863 -0.7858
  761SOL    HW3 2811   0.837   0.446   5.753 -0.3898 -0.7709  0.8664
  761SOL    MW4 2812   0.767   0.396   5.737 -0.4021  0.1483  0.1819
  762SOL     OW 2813   2.735   6.214   5.563 -0.4469  0.0251  0.0883
  762SOL    HW2 2814   2.740   6.202   5.658 -0.9631 -1.2442 -0.0150
  762SOL    HW3 2815   2.712   6.306   5.551  2.3351  0.9577  1.0827
  762SOL    MW4 2816   2.732   6.224   5.574  0.3069 -0.6886  0.1583
  763SOL     OW 2817   4.332   6.340   5.008  0.1811  0.2776  0.1653
  763SOL    HW2 2818   4.263   6.343   5.074 -0.4178  1.5997 -0.4917
  763SOL    HW3 2819   4.410   6.313   5.056 -0.1479  1.6276  1.5169
  763SOL    MW4 2820   4.333   6.337   5.023 -0.1431 -0.4784  0.2235
  764SOL     OW 2821   1.966   2.266   4.197  0.2714 -0.0955 -0.0080
  764SOL    HW2 2822   2.047   2.317   4.205  0.0744 -0.0047  2.1102
  764SOL    HW3 2823   1.961   2.243   4.105  1.3935  2.0385 -0.6781
  764SOL    MW4 2824   1.976   2.270   4.186 -0.0307 -0.5494  0.4125
  765SOL     OW 2825   5.291   1.511   6.354 -0.2593  0.1350  0.2810
  765SOL    HW2 2826   5.287   1.606   6.364 -0.7097  0.0474  1.0769
  765SOL    HW3 2827   5.288   1.477   6.444 -1.4115 -0.6683 -0.0356
  765SOL    MW4 2828   5.290   1.519   6.367  0.3269 -0.1199  0.7214
  766SOL     OW 2829   2.595   5.850   2.104  0.2399 -0.0120  0.4112
  766SOL    HW2 2830   2.540   5.866   2.181 -0.3217 -0.5206  0.1218
  766SOL    HW3 2831   2.613   5.756   2.107  0.4146  0.0083  0.0482
  766SOL    MW4 2832   2.590   5.840   2.115 -0.3170  0.4346  0.1429
  767SOL     OW 2833   2.230   5.945   3.981  0.2675  0.2284  0.0405
  767SOL    HW2 2834   2.162   6.012   3.972 -0.1526 -0.4351 -2.0698
  767SOL    HW3 2835   2.186   5.862   3.964  1.2058 -0.4158  0.6291
  767SOL    MW4 2836   2.215   5.943   3.978 -0.6663 -0.3168 -0.2326
  768SOL     OW 2837   6.112   4.835   5.662 -0.2818  0.0034  0.6067
  768SOL    HW2 2838   6.089   4.928   5.668 -0.0419  0.0266  1.1891
  768SOL    HW3 2839   6.105   4.814   5.569  1.5016  1.0790  0.1850
  768SOL    MW4 2840   6.108   4.844   5.651  0.4178  0.0108 -0.1510
  769SOL     OW 2841   0.520   1.356   4.540 -0.0803 -0.0497  0.1445
  769SOL    HW2 2842   0.563   1.373   4.456 -1.4354 -0.3150 -0.6303
  769SOL    HW3 2843   0.515   1.442   4.582  1.3302 -0.0384  0.3437
  769SOL    MW4 2844   0.525   1.370   4.535  0.6320 -0.6164 -0.2396
  770SOL     OW 2845   2.061   2.281   1.498 -0.5560 -1.0783 -0.6092
  770SOL    HW2 2846   2.155   2.273   1.479 -0.4223  0.3143 -0.5671
  770SOL    HW3 2847   2.026   2.332   1.425 -1.1158 -0.7985 -0.1488
  770SOL    MW4 2848   2.069   2.286   1.486 -0.6371 -0.5749 -0.4886
  771SOL     OW 2849   2.641   2.230   3.583  0.3528 -0.0949  0.5549
  771SOL    HW2 2850   2.578   2.268   3.644 -0.1795  0.1399 -0.1301
  771SOL    HW3 2851   2.613   2.260   3.497  0.0510 -1.8141  0.0037
  771SOL    MW4 2852   2.629   2.239   3.579  0.2369  0.2085 -0.2230
  772SOL     OW 2853   0.924   1.811   2.699 -0.7810 -0.3043  0.0276
  772SOL    HW2 2854   0.946   1.726   2.659 -1.3765  0.2006 -1.4595
  772SOL    HW3 2855   0.829   1.809   2.708 -0.7548  0.0423  0.3763
  772SOL    MW4 2856   0.914   1.799   2.695 -0.4589 -0.2088 -0.0632
  773SOL     OW 2857   2.876   3.876   2.872  0.3267  0.1839  0.1500
  773SOL    HW2 2858   2.793   3.829   2.873 -0.2295  1.1255 -0.2522
  773SOL    HW3 2859   2.892   3.897   2.964 -0.8597  1.6225  0.0707
  773SOL    MW4 2860   2.867   3.873   2.884 -0.2876 -0.5656  0.4821
  774SOL     OW 2861   5.546   3.814   4.107  0.7084 -0.4378  0.8607
  774SOL    HW2 2862   5.460   3.794   4.146 -0.0981 -0.1478 -0.6886
  774SOL    HW3 2863   5.602   3.835   4.182  0.0707 -2.8060  2.1195
  774SOL    MW4 2864   5.542   3.814   4.122 -0.3615 -0.1309  0.0335
  775SOL     OW 2865   1.569   2.108   1.059  0.2566  0.7013  0.5726
  775SOL    HW2 2866   1.589   2.096   1.152  2.0581  1.6438  0.3521
  775SOL    HW3 2867   1.642   2.066   1.014 -0.4613  0.4988 -0.4237
  775SOL    MW4 2868   1.581   2.101   1.066 -0.0548  0.4192  0.1184
  776SOL     OW 2869   3.811   5.080   1.936 -0.0880 -0.3312 -0.0413
  776SOL    HW2 2870   3.877   5.136   1.895 -0.6389 -0.2407 -0.8050
  776SOL    HW3 2871   3.856   5.044   2.013  1.3426 -1.4314 -1.3252
  776SOL    MW4 2872   3.826   5.083   1.941 -0.1589 -0.1707 -0.0848
  777SOL     OW 2873   2.592   1.779   1.254  0.3329  0.3577  0.3235
  777SOL    HW2 2874   2.685   1.797   1.272  0.1158  1.0228  0.7954
  777SOL    HW3 2875   2.552   1.865   1.244 -0.1784  0.0652 -0.1960
  777SOL    MW4 2876   2.599   1.793   1.255  0.2759  0.6268 -0.2202
  778SOL     OW 2877   4.789   3.027   4.162 -0.2217  0.0606  0.7622
  778SOL    HW2 2878   4.862   2.974   4.131 -0.8811  0.1510 -1.0459
  778SOL    HW3 2879   4.723   2.963   4.188 -1.7465 -0.1860 -3.1380
  778SOL    MW4 2880   4.790   3.012   4.161  0.1472  0.2015  0.0801
  779SOL     OW 2881   3.757   0.963   3.621  0.2164  0.0300  0.4167
  779SOL    HW2 2882   3.702   1.013   3.561  1.5121  0.7423 -0.2156
  779SOL    HW3 2883   3.724   0.985   3.708 -0.1748  0.8462  0.0684
  779SOL    MW4 2884   3.746   0.972   3.624 -0.3042 -0.6711  0.0995
  780SOL     OW 2885   4.865   5.824   0.548  0.2741 -0.5108 -0.1017
  780SOL    HW2 2886   4.942   5.796   0.500  0.8920  0.8093  0.0722
  780SOL    HW3 2887   4.870   5.778   0.632  0.7381 -0.6109 -0.1863
  780SOL    MW4 2888   4.876   5.815   0.553  0.0847 -0.6542 -0.2821
  781SOL     OW 2889   4.988   5.727   1.240 -0.6467 -0.4173 -0.2850
  781SOL    HW2 2890   4.968   5.811   1.280 -0.6703 -0.2866 -0.5655
  781SOL    HW3 2891   4.971   5.662   1.308 -1.0805 -0.2303 -0.2135
  781SOL    MW4 2892   4.983   5.730   1.254 -0.7464  0.0289  0.0849
  782SOL     OW 2893   0.146   5.894   5.307  0.0738  0.3593  0.1283
  782SOL    HW2 2894   0.177   5.804   5.301 -0.9279  0.0896 -1.5003
  782SOL    HW3 2895   0.226   5.947   5.302  0.5163 -0.3870 -1.1293
  782SOL    MW4 2896   0.161   5.889   5.305  0.5351 -0.1350 -0.0436
  783SOL     OW 2897   2.949   1.530   4.399  0.6290 -0.7019  0.5665
  783SOL    HW2 2898   2.962   1.623   4.417  2.3595  0.1061 -3.6880
  783SOL    HW3 2899   2.998   1.485   4.467 -0.2270  1.4035  2.7336
  783SOL    MW4 2900   2.957   1.536   4.410  0.5227 -0.1207  0.0340
  784SOL     OW 2901   2.094   1.706   0.595  0.4746 -0.1395 -0.1385
  784SOL    HW2 2902   2.026   1.643   0.571  1.1212 -0.5166 -1.0453
  784SOL    HW3 2903   2.167   1.652   0.626  0.5062  0.2407  0.4614
  784SOL    MW4 2904   2.095   1.690   0.596  0.3115  0.6597  0.0464
  785SOL     OW 2905   2.447   0.840   1.565  0.3102  0.3467 -0.2962
  785SOL    HW2 2906   2.380   0.814   1.628  1.1145  0.4571  0.6333
  785SOL    HW3 2907   2.399   0.888   1.498 -1.0023 -2.2720 -1.3542
  785SOL    MW4 2908   2.432   0.843   1.565  0.3012  0.2519  0.1318
  786SOL     OW 2909   6.151   3.978   6.252 -0.2205 -0.2344 -0.2625
  786SOL    HW2 2910   6.231   4.018   6.287 -0.1737  0.1799 -0.8315
  786SOL    HW3 2911   6.102   3.951   6.330 -0.0053  0.4524  0.1195
  786SOL    MW4 2912   6.155   3.979   6.267  0.3414 -0.5778  1.0571
  787SOL     OW 2913   2.700   3.084   0.592  0.2548  0.2687 -0.0668
  787SOL    HW2 2914   2.728   3.027   0.663  1.4670  2.5838  1.4637
  787SOL    HW3 2915   2.757   3.061   0.518 -1.1650 -2.3071 -0.4667
  787SOL    MW4 2916   2.712   3.074   0.591  0.4944  0.3580 -0.0051
  788SOL     OW 2917   3.452   1.521   2.413  0.4099 -0.7232  0.0873
  788SOL    HW2 2918   3.489   1.530   2.325 -0.2277 -1.0736 -0.2215
  788SOL    HW3 2919   3.408   1.436   2.412 -1.6659  0.2656 -0.0538
  788SOL    MW4 2920   3.451   1.511   2.401  0.1769 -0.2101 -0.1200
  789SOL     OW 2921   0.093   5.642   4.932  0.1004  0.2556 -0.2542
  789SOL    HW2 2922   0.089   5.726   4.977  1.9661  1.5473 -2.3369
  789SOL    HW3 2923   0.006   5.630   4.895  0.2147  2.0407 -1.1798
  789SOL    MW4 2924   0.081   5.652   4.933  0.1899 -0.3010  0.7344
  790SOL     OW 2925   5.629   3.138   5.615  0.3671  0.5536  0.2540
  790SOL    HW2 2926   5.598   3.128   5.705 -2.2613 -0.2357 -0.6539
  790SOL    HW3 2927   5.549   3.137   5.562  1.8420  0.9657 -2.1047
  790SOL    MW4 2928   5.614   3.137   5.620 -0.1770  0.2020 -0.2438
  791SOL     OW 2929   6.259   3.235   0.859 -0.1708 -0.5044  0.4550
  791SOL    HW2 2930   6.182   3.189   0.824  0.1688 -0.9277  0.2492
  791SOL    HW3 2931   6.223   3.309   0.907 -0.6246  0.5009 -1.3753
  791SOL    MW4 2932   6.244   3.238   0.861  0.0170 -0.6960 -0.3507
  792SOL     OW 2933   0.426   2.538   3.059 -0.3196  0.5355 -0.5819
  792SOL    HW2 2934   0.496   2.582   3.011  0.7767 -1.5241 -1.0318
  792SOL    HW3 2935   0.347   2.555   3.009 -0.2571  3.1354  0.0772
  792SOL    MW4 2936   0.425   2.546   3.046 -0.1315 -0.2871  0.2896
  793SOL     OW 2937   5.745   0.310   1.884  0.8035 -0.6820  0.1859
  793SOL    HW2 2938   5.748   0.232   1.828  1.0335 -0.8804  0.4677
  793SOL    HW3 2939   5.816   0.297   1.947  1.0955 -0.0521 -0.0112
  793SOL    MW4 2940   5.755   0.298   1.885 -0.4343  0.4515 -0.5018
  794SOL     OW 2941   0.943   3.780   2.628 -0.0935  0.3701  0.1197
  794SOL    HW2 2942   0.874   3.778   2.694  0.0370 -1.2875  0.2568
  794SOL    HW3 2943   1.022   3.804   2.677 -0.2567  0.5658  0.2888
  794SOL    MW4 2944   0.945   3.783   2.643 -0.1363 -0.4577  0.1065
  795SOL     OW 2945   4.311   1.337   2.814  0.0104  0.2256 -0.7712
  795SOL    HW2 2946   4.271   1.250   2.817 -1.1401  0.6210 -2.8412
  795SOL    HW3 2947   4.244   1.394   2.777  0.8588  1.9513  0.2241
  795SOL    MW4 2948   4.297   1.333   2.810 -0.1831 -0.2941 -0.2753
  796SOL     OW 2949   4.658   5.077   3.908  0.0590 -0.1215  0.0888
  796SOL    HW2 2950   4.627   5.089   3.998 -1.6272 -0.8763 -0.3526
  796SOL    HW3 2951   4.747   5.044   3.918 -0.3371 -0.8630  1.5129
  796SOL    MW4 2952   4.666   5.074   3.922 -0.3134 -0.0747 -0.2902
  797SOL     OW 2953   5.834   0.052   5.753  0.1243  0.1959 -0.2658
  797SOL    HW2 2954   5.739   0.048   5.768 -0.0923  0.5677 -1.3956
  797SOL    HW3 2955   5.843   0.109   5.677  1.1461 -1.0185 -1.0938
  797SOL    MW4 2956   5.822   0.059   5.745  0.3737 -0.2270 -0.7978
  798SOL     OW 2957   4.086   3.688   3.199  0.0767 -0.1384 -0.0192
  798SOL    HW2 2958   4.024   3.738   3.146  0.2441  0.7261  0.5807
  798SOL    HW3 2959   4.035   3.616   3.234 -0.6371  0.6477  0.5939
  798SOL    MW4 2960   4.071   3.685   3.196  0.0304 -0.1882  0.1140
  799SOL     OW 2961   4.401   2.387   6.121 -0.6844 -0.3128  0.3228
  799SOL    HW2 2962   4.340   2.376   6.195 -0.5747 -1.9564  0.2220
  799SOL    HW3 2963   4.455   2.308   6.124 -0.1923 -0.0511 -1.0838
  799SOL    MW4 2964   4.400   2.375   6.131  0.4323  0.1262  0.1727
  800SOL     OW 2965   4.138   2.127   2.354  0.0703 -0.2849  0.0556
  800SOL    HW2 2966   4.143   2.037   2.320 -1.3521 -0.8528  1.2363
  800SOL    HW3 2967   4.060   2.127   2.410  0.1051  1.6689  0.1676
  800SOL    MW4 2968   4.128   2.115   2.357 -0.6144 -0.5235 -0.0832
  801SOL     OW 2969   3.585   3.672   3.246  0.0816 -0.0395  0.7054
  801SOL    HW2 2970   3.652   3.730   3.284 -0.3227  0.5051  0.6013
  801SOL    HW3 2971   3.633   3.620   3.182  0.7099 -0.7494  1.7308
  801SOL    MW4 2972   3.600   3.673   3.243 -0.2142  0.5117  0.4153
  802SOL     OW 2973   6.052   5.504   6.350  0.0593  0.7827  0.0917
  802SOL    HW2 2974   6.074   5.501   6.256 -2.3790 -0.2587 -0.5312
  802SOL    HW3 2975   5.963   5.539   6.353 -0.3064 -0.1639  1.9167
  802SOL    MW4 2976   6.043   5.508   6.338  0.4057  0.1819 -0.7342
  803SOL     OW 2977   4.135   1.117   5.029 -0.1140  0.3033  0.0287
  803SOL    HW2 2978   4.076   1.042   5.030 -0.7810  0.8199  0.7153
  803SOL    HW3 2979   4.085   1.187   5.071  1.9592  0.0316  3.2885
  803SOL    MW4 2980   4.120   1.117   5.034 -0.4077  0.4334 -0.1343
  804SOL     OW 2981   3.951   4.634   3.625  0.1315  0.4443 -0.5407
  804SOL    HW2 2982   3.958   4.597   3.713  0.7894  0.9094 -0.3891
  804SOL    HW3 2983   3.975   4.561   3.567  0.6083  0.3937 -0.2883
  804SOL    MW4 2984   3.955   4.619   3.629 -0.6128 -0.6064 -0.2115
  805SOL     OW 2985   2.448   4.887   1.479  0.6850 -0.4401 -0.3269
  805SOL    HW2 2986   2.466   4.971   1.521  3.3826 -1.0384 -0.0814
  805SOL    HW3 2987   2.468   4.822   1.546 -0.9700 -1.3204 -0.6437
  805SOL    MW4 2988   2.453   4.890   1.493  0.0181 -0.0951  0.0291
  806SOL     OW 2989   2.005   2.330   1.932 -0.1714 -0.4762  0.0728
  806SOL    HW2 2990   1.937   2.397   1.932 -0.4399 -0.7176 -1.2641
  806SOL    HW3 2991   1.985   2.276   1.855  1.0354 -1.0604  0.1486
  806SOL    MW4 2992   1.993   2.332   1.922 -0.3887  0.0988  0.4613
  807SOL     OW 2993   4.913   5.581   2.068 -0.1447 -0.4717 -0.3528
  807SOL    HW2 2994   4.833   5.566   2.118  0.0149 -0.6113 -0.1389
  807SOL    HW3 2995   4.931   5.497   2.025 -1.0778  0.0303 -1.8181
  807SOL    MW4 2996   4.904   5.568   2.069  0.2971  0.1920  0.0277
  808SOL     OW 2997   0.973   0.885   5.887  0.0212 -0.4417 -0.5182
  808SOL    HW2 2998   0.921   0.962   5.910 -0.6551 -1.4951  1.7764
  808SOL    HW3 2999   0.950   0.867   5.796 -1.6358  0.6779 -0.3719
  808SOL    MW4 3000   0.963   0.893   5.878  0.2945  0.1563 -0.9208
  809SOL     OW 3001   6.351   5.744   2.418  0.1892  0.3568 -0.0707
  809SOL    HW2 3002   6.425   5.684   2.418 -1.7409 -2.2229 -0.3997
  809SOL    HW3 3003   6.390   5.831   2.419  3.1749 -0.8543  1.2777
  809SOL    MW4 3004   6.366   5.747   2.418  0.4990  0.5754 -0.1793
  810SOL     OW 3005   2.351   2.803   0.810 -0.1289  0.5058 -0.0821
  810SOL    HW2 3006   2.379   2.745   0.739 -2.1310  1.2630 -1.5805
  810SOL    HW3 3007   2.394   2.887   0.791  0.3665  0.3536  0.3541
  810SOL    MW4 3008   2.361   2.807   0.798  0.4508 -0.6636 -0.3620
  811SOL     OW 3009   3.765   1.090   0.474 -0.4742  0.7062 -0.6189
  811SOL    HW2 3010   3.790   1.077   0.383 -3.3979 -0.5401 -1.3670
  811SOL    HW3 3011   3.714   1.171   0.474  1.4386  1.9781  0.4168
  811SOL    MW4 3012   3.761   1.099   0.462  0.3357 -0.0595  0.4072
  812SOL     OW 3013   3.755   2.637   0.612  0.8528 -0.2733  0.3601
  812SOL    HW2 3014   3.828   2.655   0.552  1.0923  1.9274  1.2177
  812SOL    HW3 3015   3.790   2.571   0.672  1.5732 -0.4244 -0.1982
  812SOL    MW4 3016   3.770   2.630   0.612 -0.3829 -0.5325 -0.8404
  813SOL     OW 3017   5.246   0.442   1.031 -0.4731 -0.1285 -0.2844
  813SOL    HW2 3018   5.273   0.475   1.116  0.3488 -0.5335 -0.3798
  813SOL    HW3 3019   5.231   0.521   0.978  0.5947  0.1210 -0.2397
  813SOL    MW4 3020   5.248   0.457   1.035  0.2683  0.1471 -0.2744
  814SOL     OW 3021   2.315   3.611   4.136 -0.0350  0.1919  0.2525
  814SOL    HW2 3022   2.326   3.689   4.190 -2.2565 -0.8857  2.4547
  814SOL    HW3 3023   2.321   3.538   4.197  2.1325 -1.4571 -1.7676
  814SOL    MW4 3024   2.317   3.612   4.151 -0.0530 -0.7425  0.0819
  815SOL     OW 3025   4.102   5.069   5.716 -0.6877  0.3956 -0.0470
  815SOL    HW2 3026   4.159   4.994   5.730 -0.8657  0.1472 -0.6307
  815SOL    HW3 3027   4.162   5.142   5.703 -0.4491 -0.0941 -1.9456
  815SOL    MW4 3028   4.117   5.069   5.716 -0.1771  0.0828  0.1134
  816SOL     OW 3029   3.617   5.186   3.467  0.5837 -0.0673  0.4037
  816SOL    HW2 3030   3.555   5.173   3.540 -0.6780  2.7332 -0.0393
  816SOL    HW3 3031   3.661   5.268   3.488  1.2313  0.0534 -1.3081
  816SOL    MW4 3032   3.615   5.195   3.480 -0.7162  0.1568 -1.0495
  817SOL     OW 3033   0.486   2.673   4.910  0.0841  0.1746  0.3837
  817SOL    HW2 3034   0.424   2.630   4.851 -0.8073  0.5512  1.0238
  817SOL    HW3 3035   0.450   2.659   4.998  1.5860 -0.7052  0.8946
  817SOL    MW4 3036   0.473   2.666   4.914  0.2660  0.0238 -1.1800
  818SOL     OW 3037   5.182   4.024   1.624  0.8486  0.1220 -0.4230
  818SOL    HW2 3038   5.117   4.072   1.572  1.9476 -0.8310 -2.8606
  818SOL    HW3 3039   5.256   4.084   1.632 -0.2496  1.2561  2.4646
  818SOL    MW4 3040   5.183   4.038   1.618  0.1034 -0.1955 -0.0156
  819SOL     OW 3041   4.013   4.574   3.326  0.1382  0.2070  0.6636
  819SOL    HW2 3042   4.047   4.567   3.237  1.3261  0.3400  1.0869
  819SOL    HW3 3043   3.938   4.633   3.319  0.2330  0.2296 -0.2402
  819SOL    MW4 3044   4.008   4.580   3.314  0.4454 -1.1454  0.4779
  820SOL     OW 3045   6.234   4.498   2.066  0.4800 -0.1680 -0.7478
  820SOL    HW2 3046   6.220   4.405   2.084  0.0416  0.0808  0.2446
  820SOL    HW3 3047   6.316   4.520   2.110  0.8205 -0.1733 -1.3577
  820SOL    MW4 3048   6.243   4.489   2.074  0.8055 -0.4441 -0.9775
  821SOL     OW 3049   1.575   5.102   1.724  0.4270 -0.1389 -0.1921
  821SOL    HW2 3050   1.589   5.146   1.640 -1.2377 -0.9813 -0.9629
  821SOL    HW3 3051   1.527   5.022   1.701 -0.6361 -0.0614  1.6198
  821SOL    MW4 3052   1.570   5.097   1.710 -0.1976 -0.1993 -0.4928
  822SOL     OW 3053   4.463   1.184   1.925 -0.0064 -0.3346 -0.2576
  822SOL    HW2 3054   4.403   1.111   1.913  0.3093 -0.5081 -0.8079
  822SOL    HW3 3055   4.422   1.237   1.994 -0.1201 -1.1398  0.3135
  822SOL    MW4 3056   4.450   1.182   1.933  0.8784  0.3867 -0.3317
  823SOL     OW 3057   3.935   2.098   1.360 -0.0541 -0.1899 -0.4557
  823SOL    HW2 3058   3.974   2.017   1.326 -1.4244 -0.8846 -0.4441
  823SOL    HW3 3059   3.985   2.168   1.319  0.9838 -1.0383 -0.6791
  823SOL    MW4 3060   3.946   2.096   1.350 -0.1104  0.2195  0.2556
  824SOL     OW 3061   1.741   5.497   1.862 -0.3091  0.5121 -0.4443
  824SOL    HW2 3062   1.830   5.480   1.831  0.1389  2.3268 -0.2882
  824SOL    HW3 3063   1.713   5.415   1.903  1.6901  0.2169  0.4395
  824SOL    MW4 3064   1.749   5.484   1.863  0.7775 -0.2329  0.1754
  825SOL     OW 3065   2.511   0.798   4.090  0.6656  0.0983 -0.3955
  825SOL    HW2 3066   2.472   0.776   4.174  1.3753  0.7870  0.1266
  825SOL    HW3 3067   2.498   0.893   4.081  0.5145  0.0176 -1.1004
  825SOL    MW4 3068   2.504   0.808   4.100  0.1369 -0.1292 -0.0705
  826SOL     OW 3069   5.908   5.672   1.807  0.6494 -0.0491 -0.4267
  826SOL    HW2 3070   5.986   5.727   1.819 -0.2088  1.0459  0.3621
  826SOL    HW3 3071   5.842   5.731   1.771 -0.2766 -0.5524  0.3750
  826SOL    MW4 3072   5.910   5.687   1.804 -0.7444  0.2358  0.0772
  827SOL     OW 3073   0.991   3.457  -0.002  0.1869 -0.2570  0.0889
  827SOL    HW2 3074   1.070   3.448  -0.055 -0.8149 -0.9089 -1.3787
  827SOL    HW3 3075   0.940   3.524  -0.047 -0.5110 -0.5347  0.4589
  827SOL    MW4 3076   0.995   3.465  -0.015  0.1803 -0.1661  0.1630
  828SOL     OW 3077   2.117   3.642   6.266 -0.4361  0.1012 -0.4104
  828SOL    HW2 3078   2.171   3.688   6.201 -1.9395  0.0813 -1.7159
  828SOL    HW3 3079   2.034   3.689   6.267 -0.4654  0.1112  1.5566
  828SOL    MW4 3080   2.113   3.654   6.258 -0.1760 -0.0525  0.0193
  829SOL     OW 3081   4.697   5.956   3.218  0.0495 -0.2771  0.1121
  829SOL    HW2 3082   4.772   5.900   3.199  0.5103  0.2691  0.3033
  829SOL    HW3 3083   4.729   6.045   3.202  0.5656  0.2954  3.5961
  829SOL    MW4 3084   4.711   5.961   3.213 -0.6761  0.0670  0.4651
  830SOL     OW 3085   1.588   5.312   4.957  0.2363 -0.0644 -0.1068
  830SOL    HW2 3086   1.666   5.267   4.923 -0.7235 -0.7473 -1.4847
  830SOL    HW3 3087   1.573   5.273   5.043  2.8458  1.8283  1.3792
  830SOL    MW4 3088   1.597   5.301   4.964 -0.4923  0.2347 -0.5824
  831SOL     OW 3089   0.482   5.302   2.652  0.7536  0.5127 -0.2277
  831SOL    HW2 3090   0.482   5.370   2.720 -0.7486  1.7862 -1.4244
  831SOL    HW3 3091   0.398   5.313   2.607  0.0811 -2.6682 -0.0194
  831SOL    MW4 3092   0.471   5.312   2.655  0.0853 -0.8514  0.1177
  832SOL     OW 3093   3.435   1.558   3.882 -0.1600  0.3217  0.1594
  832SOL    HW2 3094   3.452   1.593   3.794  1.0932 -1.0224 -0.1755
  832SOL    HW3 3095   3.475   1.622   3.941  1.2199  0.0243 -0.3941
  832SOL    MW4 3096   3.443   1.571   3.878  0.0422  0.8404 -0.1670
  833SOL     OW 3097   1.957   3.205   5.756 -0.1706  0.1160 -0.0896
  833SOL    HW2 3098   1.864   3.225   5.740 -0.1629  0.6711  0.5121
  833SOL    HW3 3099   1.997   3.211   5.670 -0.5172  0.8902 -0.2053
  833SOL    MW4 3100   1.950   3.209   5.743 -0.0898 -0.6688  0.0931
  834SOL     OW 3101   6.148   6.308   1.977 -0.7209  0.1374 -0.2278
  834SOL    HW2 3102   6.227   6.262   2.005 -0.2684  2.5850  3.0779
  834SOL    HW3 3103   6.107   6.249   1.913  1.7398 -2.9768  0.8359
  834SOL    MW4 3104   6.153   6.294   1.972  0.3358 -0.1738 -0.0794
  835SOL     OW 3105   1.179   4.545   1.143  0.2275  0.6149 -0.7165
  835SOL    HW2 3106   1.264   4.575   1.110 -0.0327  1.3854 -0.7158
  835SOL    HW3 3107   1.144   4.622   1.189 -0.2950  0.1767 -0.3807
  835SOL    MW4 3108   1.186   4.559   1.145 -0.2384  0.0106 -0.0801
  836SOL     OW 3109   3.146   2.334   5.592 -0.2904  0.2799  0.2187
  836SOL    HW2 3110   3.101   2.395   5.534 -0.2951  1.0583  1.0232
  836SOL    HW3 3111   3.076   2.297   5.646 -0.3858 -0.9869 -0.7325
  836SOL    MW4 3112   3.131   2.337   5.591 -0.4950  0.4537 -0.4269
  837SOL     OW 3113   2.905   3.366   2.394 -0.0459  0.2390  0.5166
  837SOL    HW2 3114   2.835   3.320   2.349  0.0088  1.3706 -0.8017
  837SOL    HW3 3115   2.985   3.321   2.367  0.0124  1.0665 -0.8012
  837SOL    MW4 3116   2.906   3.354   2.385  0.6291 -0.6874 -0.3564
  838SOL     OW 3117   5.254   3.300   1.492 -0.0825  0.4328  0.0237
  838SOL    HW2 3118   5.179   3.263   1.539 -0.2833 -0.6093 -1.0837
  838SOL    HW3 3119   5.219   3.378   1.449 -0.7663 -0.4942 -1.1547
  838SOL    MW4 3120   5.240   3.305   1.493  0.3312  0.0447 -0.3082
  839SOL     OW 3121   2.411   3.694   2.983 -0.6349  0.6175 -0.2846
  839SOL    HW2 3122   2.410   3.645   3.066 -0.2673 -0.4163 -0.8669
  839SOL    HW3 3123   2.329   3.743   2.982 -0.5241  0.8513  0.8062
  839SOL    MW4 3124   2.400   3.694   2.994  0.1660 -0.3184  0.0359
  840SOL     OW 3125   3.993   0.961   3.868  0.0272 -0.1233  0.4075
  840SOL    HW2 3126   4.041   1.014   3.932 -1.1871 -0.3679  1.5936
  840SOL    HW3 3127   4.048   0.884   3.853  0.5604  0.1787  0.7856
  840SOL    MW4 3128   4.006   0.958   3.875 -0.2660  0.5138 -0.6830
  841SOL     OW 3129   3.462   0.493   1.583  0.1543  0.1420  0.1268
  841SOL    HW2 3130   3.455   0.527   1.672 -0.8869  1.1681 -0.3238
  841SOL    HW3 3131   3.391   0.535   1.535  0.1255 -1.0983 -0.9813
  841SOL    MW4 3132   3.452   0.503   1.588  0.0024 -0.8611  0.4184
  842SOL     OW 3133   5.014   2.302   0.845  0.0866 -0.2420 -0.2197
  842SOL    HW2 3134   5.030   2.266   0.933 -0.4628  0.0034 -0.0154
  842SOL    HW3 3135   5.077   2.256   0.789  0.5271 -0.3166  0.3198
  842SOL    MW4 3136   5.025   2.291   0.849  0.1138 -0.3898 -0.0895
  843SOL     OW 3137   3.308   0.966   1.361  0.4088  0.0919 -0.2135
  843SOL    HW2 3138   3.288   0.945   1.452 -0.4534 -2.4604 -0.9110
  843SOL    HW3 3139   3.241   1.030   1.336  0.0815  0.1050  0.6804
  843SOL    MW4 3140   3.296   0.972   1.369  0.4695 -0.1926  0.0654
  844SOL     OW 3141   2.183   0.107   4.032  0.4209  0.1768 -0.0799
  844SOL    HW2 3142   2.255   0.149   3.985 -0.3566  0.7570 -0.7613
  844SOL    HW3 3143   2.107   0.118   3.975 -0.3894  0.2704  0.9972
  844SOL    MW4 3144   2.183   0.114   4.018  0.3653 -0.1345  0.2525
  845SOL     OW 3145   3.402   0.707   3.042 -0.4104 -0.5078  0.1327
  845SOL    HW2 3146   3.426   0.634   3.099 -0.1546 -1.2431 -0.8884
  845SOL    HW3 3147   3.345   0.761   3.095  1.2394 -0.2095  1.6834
  845SOL    MW4 3148   3.398   0.704   3.056  0.1976 -0.2646 -0.0185
  846SOL     OW 3149   0.322   0.498   5.322 -0.1223 -0.5758 -0.0348
  846SOL    HW2 3150   0.307   0.587   5.356  1.6909  0.1168 -0.9115
  846SOL    HW3 3151   0.259   0.489   5.251 -0.7352 -0.2250  0.4550
  846SOL    MW4 3152   0.312   0.509   5.318  0.4154  0.0643 -0.1649
  847SOL     OW 3153   1.095   2.890   5.609  0.2010  0.0747  0.4670
  847SOL    HW2 3154   1.094   2.976   5.651  0.1644  0.3142 -0.0262
  847SOL    HW3 3155   1.185   2.860   5.620  0.7657  1.0491 -1.1082
  847SOL    MW4 3156   1.107   2.897   5.616  0.3346  0.2186 -0.4945
  848SOL     OW 3157   1.092   0.785   2.909 -0.4426 -0.5333 -0.0605
  848SOL    HW2 3158   1.092   0.820   2.820 -0.9772 -0.7337 -0.1426
  848SOL    HW3 3159   1.001   0.788   2.936 -0.1048  0.8963  1.0277
  848SOL    MW4 3160   1.080   0.790   2.901 -0.0395 -0.1469  0.0183
  849SOL     OW 3161   4.146   2.470   2.029  0.3659 -0.1144 -0.3963
  849SOL    HW2 3162   4.143   2.551   1.978 -1.9875 -0.6666 -1.2616
  849SOL    HW3 3163   4.195   2.409   1.974  0.2848  0.0974 -0.7033
  849SOL    MW4 3164   4.152   2.473   2.015  0.4751  0.2739 -0.3545
  850SOL     OW 3165   2.436   4.118   4.429  0.1617  0.1539  0.2221
  850SOL    HW2 3166   2.512   4.089   4.379  2.8494  2.4927  2.5607
  850SOL    HW3 3167   2.419   4.207   4.398  0.6200  0.8972  1.9504
  850SOL    MW4 3168   2.444   4.126   4.418 -0.3388 -0.6884  0.1123
  851SOL     OW 3169   2.546   5.049   0.035 -0.4630  0.0075 -0.0119
  851SOL    HW2 3170   2.618   5.015   0.088 -0.5779 -1.7309 -0.9006
  851SOL    HW3 3171   2.534   4.984  -0.034 -0.0037  2.4084 -2.5077
  851SOL    MW4 3172   2.554   5.036   0.033  0.0075  0.1798 -0.2460
  852SOL     OW 3173   5.313   2.258   4.229 -0.0023  0.1004 -0.0248
  852SOL    HW2 3174   5.251   2.327   4.253 -0.1770 -0.9760  3.0286
  852SOL    HW3 3175   5.353   2.231   4.311  1.9320 -1.7143 -1.4447
  852SOL    MW4 3176   5.310   2.264   4.243  0.1768  0.0467  0.5325
  853SOL     OW 3177   1.045   5.316   2.077 -0.3484 -0.0045 -0.5204
  853SOL    HW2 3178   1.066   5.408   2.061  1.8895 -0.3799  0.0332
  853SOL    HW3 3179   0.976   5.319   2.143 -1.1484  1.2655 -1.3425
  853SOL    MW4 3180   1.038   5.329   2.083  0.1360  0.2075  0.2397
  854SOL     OW 3181   2.547   2.807   2.785  0.0162  0.3175 -0.2974
  854SOL    HW2 3182   2.554   2.738   2.719 -1.1095 -0.6507  0.5335
  854SOL    HW3 3183   2.609   2.782   2.853 -1.0487 -0.4131  0.4330
  854SOL    MW4 3184   2.556   2.795   2.785 -0.1228  0.0719  0.5925
  855SOL     OW 3185   5.172   6.264   3.215 -0.1559 -0.2587  0.4812
  855SOL    HW2 3186   5.236   6.195   3.195  0.4826  0.8119 -1.3832
  855SOL    HW3 3187   5.217   6.320   3.279 -0.2017 -0.8861  1.0688
  855SOL    MW4 3188   5.187   6.262   3.221  0.3948  0.0764 -0.1543
  856SOL     OW 3189   2.152   5.270   3.198 -0.2716  0.0307  0.3381
  856SOL    HW2 3190   2.100   5.329   3.143 -0.5836  0.8873  1.5385
  856SOL    HW3 3191   2.232   5.255   3.148  0.3014  2.3480  0.4940
  856SOL    MW4 3192   2.156   5.276   3.184  0.2254  0.1086  0.6078
  857SOL     OW 3193   4.795   1.179   1.530  0.0225 -0.4928  0.1798
  857SOL    HW2 3194   4.840   1.106   1.573  0.2761 -0.2857  0.2684
  857SOL    HW3 3195   4.791   1.152   1.438  0.6572 -0.3529  0.1067
  857SOL    MW4 3196   4.801   1.166   1.523 -0.1747 -0.1333 -0.1454
  858SOL     OW 3197   2.081   0.660   6.172  0.8323  0.1419  0.4224
  858SOL    HW2 3198   2.160   0.615   6.144  1.8631  0.3594  2.7693
  858SOL    HW3 3199   2.082   0.655   6.267 -2.4125 -0.5190  0.5598
  858SOL    MW4 3200   2.091   0.654   6.181 -0.3764 -0.4930  0.1503
  859SOL     OW 3201   3.672   2.222   1.171 -0.0523 -0.0789  0.3170
  859SOL    HW2 3202   3.748   2.198   1.118  1.1918  1.6057  1.2419
  859SOL    HW3 3203   3.619   2.278   1.114 -0.1792 -0.5809 -0.0595
  859SOL    MW4 3204   3.675   2.227   1.157 -0.2685 -0.4673 -0.1947
  860SOL     OW 3205   0.642   0.612   3.514 -0.0457 -0.2192  0.0787
  860SOL    HW2 3206   0.618   0.685   3.571 -0.7799  0.1242 -0.6513
  860SOL    HW3 3207   0.727   0.583   3.547  0.0063  0.6170  0.7142
  860SOL    MW4 3208   0.650   0.618   3.526 -0.0647 -0.0304 -0.7179
  861SOL     OW 3209   1.509   0.363   4.809 -0.3048  0.5605  0.2585
  861SOL    HW2 3210   1.498   0.274   4.843 -1.5719  0.6333  0.1043
  861SOL    HW3 3211   1.550   0.412   4.880 -0.1375 -0.0058  0.5579
  861SOL    MW4 3212   1.513   0.358   4.823  0.4214 -0.5768  0.0239
  862SOL     OW 3213   3.782   0.390   2.390  0.0388  0.2590 -0.2825
  862SOL    HW2 3214   3.853   0.378   2.327  0.9095  0.3510  0.6586
  862SOL    HW3 3215   3.824   0.427   2.467 -0.7562 -1.1716  0.8886
  862SOL    MW4 3216   3.797   0.394   2.392  0.3535  0.0715  0.1311
  863SOL     OW 3217   5.661   1.647   5.088 -0.4004 -0.0739  0.4837
  863SOL    HW2 3218   5.666   1.712   5.158  2.6752  0.9067 -0.4643
  863SOL    HW3 3219   5.679   1.564   5.132 -0.6004  0.2262  1.1536
  863SOL    MW4 3220   5.664   1.645   5.103  0.7019 -0.2245 -0.8371
  864SOL     OW 3221   0.675   1.217   4.796 -0.4557 -0.0067  0.6216
  864SOL    HW2 3222   0.631   1.257   4.722 -1.0115 -1.8923 -0.1207
  864SOL    HW3 3223   0.617   1.146   4.823  1.5870 -1.9348  0.2564
  864SOL    MW4 3224   0.662   1.213   4.790  0.1022 -0.3404  0.1645
  865SOL     OW 3225   0.797   1.099   0.693 -0.0650 -0.1603 -0.1736
  865SOL    HW2 3226   0.748   1.153   0.630 -0.6553 -0.5459 -0.0532
  865SOL    HW3 3227   0.881   1.143   0.702  1.2327 -1.5813 -3.4428
  865SOL    MW4 3228   0.802   1.112   0.686 -0.4163 -0.2556 -0.0501
  866SOL     OW 3229   1.111   2.098   3.498  0.5979 -0.3803 -0.3555
  866SOL    HW2 3230   1.042   2.058   3.445  0.6173 -2.3807  1.0220
  866SOL    HW3 3231   1.173   2.027   3.514  1.4688  0.6154  0.8933
  866SOL    MW4 3232   1.110   2.083   3.493 -0.3261  0.0940 -0.1264
  867SOL     OW 3233   2.230   1.704   1.577  0.7771  0.5452 -0.2138
  867SOL    HW2 3234   2.235   1.702   1.482 -1.6059  0.3293 -0.4082
  867SOL    HW3 3235   2.188   1.788   1.598  0.4191  0.1904  0.5631
  867SOL    MW4 3236   2.225   1.715   1.567  0.0877 -0.2513  0.3671
  868SOL     OW 3237   2.922   3.283   5.853  0.2545 -0.0462  1.1660
  868SOL    HW2 3238   2.945   3.247   5.767 -0.6608 -0.9001  1.2596
  868SOL    HW3 3239   2.957   3.372   5.852  0.8316 -0.2667  0.1622
  868SOL    MW4 3240   2.930   3.290   5.841 -0.2074  0.2076 -0.0176
  869SOL     OW 3241   0.968   5.095   1.138  0.1330 -0.1111  0.1158
  869SOL    HW2 3242   0.996   5.043   1.063  0.1180 -0.4878  0.3684
  869SOL    HW3 3243   0.877   5.070   1.153  0.2477 -0.3166  0.4892
  869SOL    MW4 3244   0.960   5.085   1.130 -0.0610  0.0095 -0.2865
  870SOL     OW 3245   4.531   1.961   0.024 -0.0577 -0.0610  0.7280
  870SOL    HW2 3246   4.623   1.964   0.049  0.4089  0.7831 -0.9555
  870SOL    HW3 3247   4.488   1.911   0.094  1.8533 -1.4268  0.9954
  870SOL    MW4 3248   4.537   1.955   0.036 -0.4142 -0.2519  0.3473
  871SOL     OW 3249   2.901   1.097   0.188  0.0029 -0.4530 -0.0072
  871SOL    HW2 3250   2.891   1.009   0.151  0.1141  0.4188 -2.2235
  871SOL    HW3 3251   2.880   1.156   0.116 -0.3320  1.3683  1.5117
  871SOL    MW4 3252   2.897   1.093   0.174 -0.1292 -0.4820 -0.3922
  872SOL     OW 3253   1.011   1.209   0.456 -0.3083 -0.2504 -0.1745
  872SOL    HW2 3254   0.994   1.285   0.512 -0.3023 -0.4132  0.0466
  872SOL    HW3 3255   1.096   1.227   0.416 -0.9016  0.4886 -1.1501
  872SOL    MW4 3256   1.020   1.222   0.458 -0.2836  0.0295  0.2267
  873SOL     OW 3257   3.697   4.816   5.239  0.0382 -0.2882 -0.1931
  873SOL    HW2 3258   3.663   4.810   5.150 -2.8441  1.8493  0.5941
  873SOL    HW3 3259   3.738   4.902   5.244 -1.9819  0.6817  1.0763
  873SOL    MW4 3260   3.698   4.827   5.228 -0.0644 -0.5566  0.1301
  874SOL     OW 3261   0.267   0.037   0.989  0.1792 -0.0691 -0.1439
  874SOL    HW2 3262   0.253   0.082   0.906  0.8375  0.1726 -0.1276
  874SOL    HW3 3263   0.197   0.068   1.045  0.5895  0.8960 -0.1509
  874SOL    MW4 3264   0.256   0.047   0.985  0.2926 -0.0871 -0.1238
  875SOL     OW 3265   3.460   4.822   3.227  0.0794 -0.0399  0.1039
  875SOL    HW2 3266   3.441   4.732   3.250  1.2750 -0.0323  1.1900
  875SOL    HW3 3267   3.486   4.818   3.135 -1.0781 -0.6025 -0.2192
  875SOL    MW4 3268   3.461   4.810   3.218  0.5915  0.1937 -0.0421
  876SOL     OW 3269   5.054   6.341   2.269 -0.5192 -0.0800  0.4756
  876SOL    HW2 3270   4.979   6.303   2.224  0.0142 -0.0753 -0.4605
  876SOL    HW3 3271   5.112   6.371   2.198  0.2679  0.0982  1.1708
  876SOL    MW4 3272   5.052   6.340   2.254  0.0204 -0.1890  0.2757
  877SOL     OW 3273   1.891   3.792   1.985 -0.8664 -0.3034 -0.2046
  877SOL    HW2 3274   1.796   3.801   1.995 -0.9100 -0.1148 -0.7306
  877SOL    HW3 3275   1.912   3.846   1.909  0.0957  2.0698  1.6062
  877SOL    MW4 3276   1.881   3.800   1.976  0.0871 -0.0838 -0.2747
  878SOL     OW 3277   1.071   2.054   1.395  0.4020  0.4964  0.3993
  878SOL    HW2 3278   1.122   2.050   1.314 -0.5548  0.6954 -0.2218
  878SOL    HW3 3279   1.039   2.145   1.399  0.0476  0.3594  0.7510
  878SOL    MW4 3280   1.074   2.066   1.385 -0.3582 -0.5696 -0.3174
  879SOL     OW 3281   1.084   4.670   4.771  0.1837  0.6067 -0.4387
  879SOL    HW2 3282   1.062   4.713   4.853 -0.3647  0.8001 -0.6812
  879SOL    HW3 3283   1.000   4.659   4.726  0.2413 -1.1086 -0.1976
  879SOL    MW4 3284   1.070   4.674   4.776 -0.0102  0.5617 -0.4367
  880SOL     OW 3285   3.582   1.999   5.285  0.3483  0.1771  0.3622
  880SOL    HW2 3286   3.659   2.052   5.264 -0.3016  0.5233 -1.3650
  880SOL    HW3 3287   3.514   2.032   5.226 -1.3376  0.3072  2.2629
  880SOL    MW4 3288   3.583   2.010   5.274  0.4171 -0.4253 -0.0423
  881SOL     OW 3289   0.319   1.614   4.467  0.0222 -0.1884 -0.0827
  881SOL    HW2 3290   0.345   1.633   4.558 -0.6017  0.9004 -0.1195
  881SOL    HW3 3291   0.368   1.677   4.414 -0.5940  0.0371 -0.3889
  881SOL    MW4 3292   0.329   1.625   4.472  0.7341 -0.9970  0.2479
  882SOL     OW 3293   1.612   0.941   0.624  0.2920 -0.3736 -0.1458
  882SOL    HW2 3294   1.697   0.967   0.590  1.0219 -1.0942  1.0613
  882SOL    HW3 3295   1.552   0.950   0.550  1.5310 -0.4536 -1.1771
  882SOL    MW4 3296   1.615   0.946   0.610  0.4799  0.8330 -0.7059
  883SOL     OW 3297   3.572   3.312   0.590 -0.2260 -0.4324 -0.0164
  883SOL    HW2 3298   3.609   3.250   0.527 -1.2959 -0.8495 -0.2489
  883SOL    HW3 3299   3.605   3.282   0.675 -1.6877 -2.0952  0.0212
  883SOL    MW4 3300   3.582   3.299   0.593 -0.3210 -0.0903 -0.3677
  884SOL     OW 3301   3.830   4.526   1.329 -0.1556  0.2140 -0.5161
  884SOL    HW2 3302   3.825   4.621   1.338  0.9225  0.1965  0.5010
  884SOL    HW3 3303   3.910   4.502   1.374  0.0172 -1.1069 -1.4693
  884SOL    MW4 3304   3.839   4.535   1.336 -0.0273 -0.1709  0.4014
  885SOL     OW 3305   5.590   1.331   1.453 -0.0946  0.3406 -0.6244
  885SOL    HW2 3306   5.600   1.418   1.415 -1.2197  0.5491 -0.4843
  885SOL    HW3 3307   5.617   1.271   1.384 -1.1825  0.7416 -1.4236
  885SOL    MW4 3308   5.595   1.335   1.439  0.4338  0.4951 -0.1097
  886SOL     OW 3309   5.301   4.745   2.143 -0.1110  0.1972 -0.2201
  886SOL    HW2 3310   5.295   4.773   2.234 -2.0602 -0.4395 -0.1133
  886SOL    HW3 3311   5.303   4.649   2.147 -2.4543  0.0539 -0.8644
  886SOL    MW4 3312   5.300   4.736   2.155 -0.6606  0.0723  0.1612
  887SOL     OW 3313   0.389   5.671   2.827 -0.0522 -0.0061 -0.1363
  887SOL    HW2 3314   0.353   5.729   2.895  0.0986 -0.0885  0.0165
  887SOL    HW3 3315   0.374   5.717   2.745  0.5749  0.5095  0.0300
  887SOL    MW4 3316   0.382   5.685   2.825 -0.3884 -0.6473  0.1648
  888SOL     OW 3317   3.139   3.864   5.618 -0.1133 -0.0383 -0.2578
  888SOL    HW2 3318   3.078   3.915   5.564  1.6514  1.6181 -0.7975
  888SOL    HW3 3319   3.122   3.894   5.707 -1.1997 -0.8194 -0.1816
  888SOL    MW4 3320   3.129   3.875   5.623 -0.1862 -0.1047 -0.5802
  889SOL     OW 3321   0.560   3.140   5.917  0.3577  0.0969 -0.6401
  889SOL    HW2 3322   0.560   3.141   6.013  1.4047  0.0541 -0.6354
  889SOL    HW3 3323   0.468   3.153   5.894  0.0452 -0.1868  0.3718
  889SOL    MW4 3324   0.548   3.142   5.927  0.2568 -0.4890 -0.1217
  890SOL     OW 3325   5.487   5.545   3.600 -0.4080  0.2232  0.4192
  890SOL    HW2 3326   5.423   5.479   3.574 -0.2634  0.1147  0.3352
  890SOL    HW3 3327   5.527   5.510   3.679  0.1464 -0.1092 -0.0039
  890SOL    MW4 3328   5.484   5.532   3.607 -0.0017  0.6127 -0.0111
  891SOL     OW 3329   1.866   1.071   0.813  0.7814 -0.6247 -0.2624
  891SOL    HW2 3330   1.790   1.025   0.848 -1.6142  1.5221 -2.2175
  891SOL    HW3 3331   1.872   1.043   0.722  0.1996  1.5926 -1.0596
  891SOL    MW4 3332   1.857   1.061   0.806  0.1437  0.3667 -0.1138
  892SOL     OW 3333   0.068   0.076   6.243 -0.1310  0.3593  0.0611
  892SOL    HW2 3334  -0.011   0.124   6.216  0.3441  0.2192 -1.7190
  892SOL    HW3 3335   0.135   0.144   6.251  0.6846  0.0727 -3.0055
  892SOL    MW4 3336   0.067   0.092   6.241  0.9616  0.5943 -0.5861
  893SOL     OW 3337   2.489   2.902   4.023  0.6626 -0.4766 -0.1217
  893SOL    HW2 3338   2.492   2.902   4.118 -1.7660 -1.4486  0.0255
  893SOL    HW3 3339   2.528   2.818   3.998  1.2747 -0.2330 -0.0081
  893SOL    MW4 3340   2.494   2.891   4.032 -0.3452 -0.1525 -0.3782
  894SOL     OW 3341   4.718   0.800   0.690 -0.3751 -0.3341  0.3023
  894SOL    HW2 3342   4.801   0.761   0.665 -0.2740  1.1710 -2.0593
  894SOL    HW3 3343   4.652   0.743   0.651 -0.5104 -1.4701  2.0870
  894SOL    MW4 3344   4.720   0.788   0.681 -0.0915 -0.1016 -0.0628
  895SOL     OW 3345   0.678   1.975   1.884  0.1220 -0.6226  0.3938
  895SOL    HW2 3346   0.586   1.951   1.891  0.4189 -2.3249 -0.9221
  895SOL    HW3 3347   0.714   1.960   1.971 -0.6150 -0.9113  0.6545
  895SOL    MW4 3348   0.670   1.970   1.896 -0.0273 -0.8807  0.0994
  896SOL     OW 3349   2.952   0.741   4.471  0.0565 -0.3525 -0.2296
  896SOL    HW2 3350   2.989   0.744   4.559  0.5526  2.3222 -0.4533
  896SOL    HW3 3351   2.865   0.703   4.483  0.8223 -1.8159  1.0832
  896SOL    MW4 3352   2.945   0.736   4.484  0.1752  0.2353  0.5647
  897SOL     OW 3353   4.262   4.238   4.300 -0.1897  0.7014 -0.3596
  897SOL    HW2 3354   4.339   4.195   4.264 -0.2567 -0.0936  0.4173
  897SOL    HW3 3355   4.297   4.307   4.357  0.0809 -1.5407  2.3677
  897SOL    MW4 3356   4.277   4.242   4.302  0.4402 -0.9465 -0.4244
  898SOL     OW 3357   0.315   2.509   1.787  0.0439 -0.2153  0.3131
  898SOL    HW2 3358   0.381   2.449   1.754  0.5363  0.0141  0.8482
  898SOL    HW3 3359   0.325   2.505   1.883 -0.1062  0.4904  0.3664
  898SOL    MW4 3360   0.325   2.501   1.796 -0.2741 -0.0113 -0.0033
  899SOL     OW 3361   2.772   2.593   3.774  0.2366  0.0922  0.6542
  899SOL    HW2 3362   2.702   2.619   3.714  0.8158 -0.6587 -0.3680
  899SOL    HW3 3363   2.826   2.672   3.783  0.9654 -0.1590 -1.0051
  899SOL    MW4 3364   2.770   2.607   3.767  0.4089 -0.2554  0.2196
  900SOL     OW 3365   3.451   1.979   2.124 -0.1294 -0.4214  0.2446
  900SOL    HW2 3366   3.375   1.949   2.174 -1.4365  0.8761 -0.8969
  900SOL    HW3 3367   3.510   2.015   2.190 -0.9231 -0.5679  1.0511
  900SOL    MW4 3368   3.449   1.980   2.139  0.0751  0.8127 -0.2606
  901SOL     OW 3369   5.944   3.128   2.544 -0.3243 -0.2327 -0.7673
  901SOL    HW2 3370   5.908   3.103   2.629  1.0081 -1.3338 -0.4792
  901SOL    HW3 3371   5.982   3.215   2.559  0.2501 -0.5803 -0.0936
  901SOL    MW4 3372   5.945   3.137   2.557  0.5213  0.0925  0.0532
  902SOL     OW 3373   2.295   0.414   6.404  0.5246 -0.0973 -0.3307
  902SOL    HW2 3374   2.284   0.359   6.481  1.1868 -0.3653 -0.4137
  902SOL    HW3 3375   2.219   0.396   6.350  0.6578 -0.8310 -0.2860
  902SOL    MW4 3376   2.284   0.404   6.407  0.6756 -0.2014  0.0245
  903SOL     OW 3377   5.249   3.209   6.324  0.1195  0.1677  0.0224
  903SOL    HW2 3378   5.307   3.283   6.344  0.6623 -0.3060  0.2237
  903SOL    HW3 3379   5.241   3.162   6.407 -1.1477  0.6349  0.1752
  903SOL    MW4 3380   5.256   3.213   6.338 -0.8476  0.5669  0.1800
  904SOL     OW 3381   2.059   5.474   6.068  0.3801  0.3240  0.0139
  904SOL    HW2 3382   1.999   5.499   6.139 -0.4738  0.2936 -0.6792
  904SOL    HW3 3383   2.004   5.426   6.006  0.8523  1.3556 -1.2426
  904SOL    MW4 3384   2.044   5.471   6.070  0.0691 -0.1253  0.4951
  905SOL     OW 3385   2.941   4.551   0.973  0.5591 -0.4532 -0.4388
  905SOL    HW2 3386   2.980   4.475   1.017  1.2712 -0.1855 -0.5975
  905SOL    HW3 3387   2.952   4.623   1.034 -1.1942 -0.7025  0.2257
  905SOL    MW4 3388   2.947   4.550   0.987 -0.0264 -0.3211  0.4166
  906SOL     OW 3389   3.767   2.428   1.621  0.1187  0.5661  0.2928
  906SOL    HW2 3390   3.672   2.435   1.624 -0.0484 -1.3946  0.7405
  906SOL    HW3 3391   3.798   2.491   1.686 -1.0767 -1.2091  2.7400
  906SOL    MW4 3392   3.759   2.437   1.630 -0.0161  0.0971  0.2172
  907SOL     OW 3393   5.143   3.135   4.493  0.6418  0.5847  0.0994
  907SOL    HW2 3394   5.060   3.159   4.452  1.5172 -0.1348 -2.2436
  907SOL    HW3 3395   5.139   3.040   4.502  1.4830  0.4510 -0.7553
  907SOL    MW4 3396   5.131   3.126   4.489  0.2623 -0.1160  0.3238
  908SOL     OW 3397   4.172   5.298   2.043 -0.2267 -0.1017 -0.7220
  908SOL    HW2 3398   4.119   5.273   1.967  0.1878  0.4260 -1.1912
  908SOL    HW3 3399   4.108   5.320   2.110 -0.6013 -0.5282 -0.9330
  908SOL    MW4 3400   4.157   5.298   2.042  0.2154  0.1216  0.1501
  909SOL     OW 3401   3.534   4.392   1.831  0.2005 -0.3377  0.4597
  909SOL    HW2 3402   3.539   4.435   1.917  1.4922 -1.7103  1.1265
  909SOL    HW3 3403   3.495   4.306   1.850 -4.0438  0.9785 -1.1040
  909SOL    MW4 3404   3.529   4.386   1.845  0.2864 -0.0737  0.1844
  910SOL     OW 3405   5.436   2.810   5.317  0.1605  0.2777 -0.1694
  910SOL    HW2 3406   5.371   2.853   5.261 -1.6556 -0.6314  1.1589
  910SOL    HW3 3407   5.423   2.717   5.300  0.9497  0.0710  0.3311
  910SOL    MW4 3408   5.426   2.803   5.307 -0.2029 -0.2543 -0.8124
  911SOL     OW 3409   3.230   1.166   4.974 -0.3733 -0.3328 -0.4851
  911SOL    HW2 3410   3.263   1.156   4.885  0.8591 -0.3145 -0.0475
  911SOL    HW3 3411   3.269   1.093   5.022 -0.1311  0.2888  0.2830
  911SOL    MW4 3412   3.240   1.155   4.969 -0.0985  0.0516 -0.2507
  912SOL     OW 3413   2.547   5.301   2.092  0.0060 -0.5784 -0.2369
  912SOL    HW2 3414   2.545   5.396   2.085 -1.1623 -0.4947  0.8751
  912SOL    HW3 3415   2.597   5.272   2.016  1.2184  0.9672 -0.0674
  912SOL    MW4 3416   2.553   5.309   2.081  0.1053 -0.0450 -0.1507
  913SOL     OW 3417   0.267   3.982   1.865  0.1028  0.5998 -0.0918
  913SOL    HW2 3418   0.234   3.949   1.781  0.2057  1.4133 -0.4600
  913SOL    HW3 3419   0.249   3.912   1.927  0.1937 -0.0952 -0.8296
  913SOL    MW4 3420   0.261   3.968   1.862 -0.1969 -0.4107  0.1868
  914SOL     OW 3421   5.505   5.248   6.062 -0.1151  0.1607  0.4023
  914SOL    HW2 3422   5.545   5.319   6.011  0.8590  0.8160  1.9871
  914SOL    HW3 3423   5.425   5.287   6.098  0.0825  0.2548  0.7442
  914SOL    MW4 3424   5.500   5.263   6.060  0.1836 -0.1547  0.1762
  915SOL     OW 3425   2.169   0.284   3.090  0.7168  0.3396 -0.4678
  915SOL    HW2 3426   2.223   0.346   3.043  0.9357 -0.5447 -1.4226
  915SOL    HW3 3427   2.118   0.337   3.151  0.9932  1.4305 -1.1632
  915SOL    MW4 3428   2.169   0.299   3.092 -0.2476 -0.8591 -0.2596
  916SOL     OW 3429   2.828   5.522   2.504  0.2654 -0.2104  0.0492
  916SOL    HW2 3430   2.922   5.535   2.514  0.1779 -0.1958  0.9208
  916SOL    HW3 3431   2.796   5.605   2.470  0.7819 -0.7439 -1.8480
  916SOL    MW4 3432   2.836   5.535   2.501 -0.2293  0.0226 -0.5120
  917SOL     OW 3433   3.454   2.124   0.842  0.6937 -0.0014  0.6060
  917SOL    HW2 3434   3.425   2.083   0.761  0.4972  2.4274 -0.6397
  917SOL    HW3 3435   3.549   2.129   0.835  0.5607  1.9874 -0.4698
  917SOL    MW4 3436   3.463   2.120   0.831 -0.4098 -0.0456  0.1608
  918SOL     OW 3437   4.738   0.405   6.109  0.2757  0.5643  0.2177
  918SOL    HW2 3438   4.691   0.334   6.153  1.6054  0.0347  0.8429
  918SOL    HW3 3439   4.822   0.366   6.084  0.9426  1.8566  0.3758
  918SOL    MW4 3440   4.743   0.390   6.111 -0.1819 -0.3783 -0.0196
  919SOL     OW 3441   4.140   4.724   6.266 -0.0514 -0.6491  0.2832
  919SOL    HW2 3442   4.065   4.767   6.306 -1.0208 -0.9234 -1.1468
  919SOL    HW3 3443   4.124   4.630   6.278 -1.0558 -0.8040 -1.8069
  919SOL    MW4 3444   4.128   4.717   6.273 -0.6021  0.0352 -0.1787
  920SOL     OW 3445   1.338   6.278   5.310 -0.1071  0.3322 -0.2720
  920SOL    HW2 3446   1.384   6.328   5.243 -0.6082  1.8058  0.4267
  920SOL    HW3 3447   1.273   6.227   5.261  1.1762 -0.5411 -1.1071
  920SOL    MW4 3448   1.335   6.278   5.295  0.0367  0.4276  0.0556
  921SOL     OW 3449   5.337   1.241   0.975  0.1669 -0.6915 -0.2236
  921SOL    HW2 3450   5.258   1.253   1.028 -0.6535 -0.5781 -1.4401
  921SOL    HW3 3451   5.313   1.177   0.908  1.0753 -0.5955 -0.6723
  921SOL    MW4 3452   5.324   1.234   0.973  0.0383  0.1284 -0.3439
  922SOL     OW 3453   4.829   4.845   6.164 -0.0298 -0.6625 -0.0846
  922SOL    HW2 3454   4.898   4.803   6.112 -0.7494  0.1051 -1.7298
  922SOL    HW3 3455   4.757   4.859   6.102 -0.7449  0.7569  1.0026
  922SOL    MW4 3456   4.829   4.841   6.149 -0.0242 -0.0802 -0.3227
  923SOL     OW 3457   6.319   4.386   3.328  0.0340  0.2769 -0.2486
  923SOL    HW2 3458   6.274   4.451   3.274 -0.4309 -0.3621 -0.6542
  923SOL    HW3 3459   6.249   4.331   3.363  0.4359 -0.1527 -0.1112
  923SOL    MW4 3460   6.304   4.387   3.325 -0.1344  0.4930 -0.4527
  924SOL     OW 3461   5.853   2.685  -0.001 -0.4460  0.4849 -0.0132
  924SOL    HW2 3462   5.818   2.646   0.079 -1.2213 -0.1174 -0.6353
  924SOL    HW3 3463   5.861   2.612  -0.063  0.2296  0.9226 -0.4651
  924SOL    MW4 3464   5.849   2.670   0.001  0.0811  0.2050  1.0438
  925SOL     OW 3465   4.604   3.598   5.289  0.3294 -0.2279  0.5820
  925SOL    HW2 3466   4.670   3.537   5.320  1.8111  0.2303 -1.4527
  925SOL    HW3 3467   4.629   3.682   5.328  0.5286 -0.2021  0.4029
  925SOL    MW4 3468   4.616   3.601   5.298 -0.4439  0.3410 -0.3300
  926SOL     OW 3469   5.884   0.939   4.980  0.4115 -0.4955 -0.0878
  926SOL    HW2 3470   5.834   0.883   4.921 -0.4766  0.1874 -0.0033
  926SOL    HW3 3471   5.900   1.019   4.930 -0.3278  0.0812  0.5821
  926SOL    MW4 3472   5.880   0.942   4.966  0.0981  0.5998 -0.0493
  927SOL     OW 3473   0.379   0.862   0.699 -0.0397 -0.6299 -0.1263
  927SOL    HW2 3474   0.379   0.940   0.755 -0.5037  0.1403 -1.1393
  927SOL    HW3 3475   0.471   0.840   0.687  0.2032  0.7163 -1.0411
  927SOL    MW4 3476   0.391   0.870   0.705  0.3256  0.0010  0.3941
  928SOL     OW 3477   3.973   4.757   4.444  0.6116  0.4581  0.1710
  928SOL    HW2 3478   3.955   4.846   4.474 -1.6400  0.7497 -1.7611
  928SOL    HW3 3479   4.068   4.754   4.431  0.6791  2.7278 -0.1566
  928SOL    MW4 3480   3.983   4.768   4.446 -0.1495 -0.2881  0.1052
  929SOL     OW 3481   4.443   5.161   4.931  0.5340  0.0350 -0.1054
  929SOL    HW2 3482   4.423   5.209   4.851  1.8323 -0.0441 -0.4988
  929SOL    HW3 3483   4.362   5.115   4.952 -0.0654  0.6845 -0.9289
  929SOL    MW4 3484   4.430   5.161   4.923 -0.0301  0.1801 -0.2631
  930SOL     OW 3485   0.104   1.114   2.338 -0.4335  0.2898  0.0222
  930SOL    HW2 3486   0.051   1.051   2.387  0.4889  0.3393  1.0968
  930SOL    HW3 3487   0.186   1.068   2.319 -0.5053  0.5129 -0.8879
  930SOL    MW4 3488   0.107   1.100   2.342 -0.1644  0.3990  0.1616
  931SOL     OW 3489   3.221   4.763   1.523  0.2243 -0.3080  0.3945
  931SOL    HW2 3490   3.229   4.703   1.597  1.2627 -2.2117 -1.2052
  931SOL    HW3 3491   3.132   4.799   1.532 -0.2622 -1.7225  1.6392
  931SOL    MW4 3492   3.210   4.760   1.534  0.5737 -0.2774  0.2344
  932SOL     OW 3493   4.979   4.725   0.364  0.6327 -0.0134 -0.1213
  932SOL    HW2 3494   4.925   4.804   0.367 -1.2839 -1.0284 -3.2787
  932SOL    HW3 3495   5.059   4.749   0.411 -1.2214  2.6033  2.0286
  932SOL    MW4 3496   4.982   4.739   0.371  0.2185 -0.0993 -0.3913
  933SOL     OW 3497   2.319   1.509   0.433  0.2961  0.1897  0.1044
  933SOL    HW2 3498   2.379   1.435   0.428  0.2867  0.2006 -0.2195
  933SOL    HW3 3499   2.347   1.567   0.362  0.8474  0.9073  0.8831
  933SOL    MW4 3500   2.331   1.507   0.423  0.1516 -0.3855  0.4465
  934SOL     OW 3501   5.873   4.890   4.375  0.0930  0.0758 -0.1138
  934SOL    HW2 3502   5.826   4.868   4.456  2.7229 -2.5243  0.8589
  934SOL    HW3 3503   5.895   4.983   4.385 -2.6580  0.7638  0.4446
  934SOL    MW4 3504   5.869   4.900   4.387  0.1638 -0.7525  0.7788
  935SOL     OW 3505   5.137   4.100   2.688 -0.3888 -0.2824  0.3241
  935SOL    HW2 3506   5.108   4.071   2.775 -0.8609  1.5348  0.8173
  935SOL    HW3 3507   5.140   4.196   2.695  0.5560 -0.1580 -1.3706
  935SOL    MW4 3508   5.134   4.109   2.701  0.0387  0.0309  0.1084
  936SOL     OW 3509   6.156   3.991   4.704 -0.0615  0.4131 -0.0132
  936SOL    HW2 3510   6.117   3.941   4.632 -0.7437  2.2604 -0.9932
  936SOL    HW3 3511   6.247   4.004   4.678 -0.0230  0.1486 -0.0126
  936SOL    MW4 3512   6.162   3.986   4.691  0.0884  0.6190 -0.0660
  937SOL     OW 3513   6.116   1.796   0.445  0.7175 -0.5259  0.2292
  937SOL    HW2 3514   6.137   1.754   0.362  1.6733 -1.2034  0.7894
  937SOL    HW3 3515   6.195   1.847   0.466  0.7590 -0.9119  1.0515
  937SOL    MW4 3516   6.129   1.797   0.437 -0.4248 -0.1435 -0.1575
  938SOL     OW 3517   0.228   4.725   5.628 -0.0913 -0.2156  0.2168
  938SOL    HW2 3518   0.202   4.806   5.585  0.7400  0.3056  0.6665
  938SOL    HW3 3519   0.168   4.717   5.702 -0.0341  0.1105  0.3014
  938SOL    MW4 3520   0.216   4.735   5.632  0.5502 -0.4054 -0.4306
  939SOL     OW 3521   5.189   5.496   1.805 -0.6029 -0.6399 -0.2771
  939SOL    HW2 3522   5.239   5.433   1.753 -2.5341 -3.3615  0.9203
  939SOL    HW3 3523   5.255   5.548   1.850  1.1018 -2.2082 -0.8505
  939SOL    MW4 3524   5.204   5.495   1.804 -0.0103  0.2725 -0.2808
  940SOL     OW 3525   6.047   2.376   6.194  0.2163  0.3964  0.2169
  940SOL    HW2 3526   6.065   2.458   6.147  0.1469  0.6307  0.5974
  940SOL    HW3 3527   6.094   2.386   6.277  2.9938 -1.2966 -1.0066
  940SOL    MW4 3528   6.056   2.388   6.199 -0.4624 -0.3403  0.0387
  941SOL     OW 3529   2.323   1.724   3.222  0.1979  0.2308  0.0589
  941SOL    HW2 3530   2.328   1.682   3.136  1.9488 -0.3764  0.4148
  941SOL    HW3 3531   2.413   1.721   3.256 -0.4612  0.3526  1.9596
  941SOL    MW4 3532   2.336   1.718   3.215 -0.2284  0.3461 -0.1655
  942SOL     OW 3533   5.645   3.824   5.954 -0.1395  0.3838 -0.4812
  942SOL    HW2 3534   5.640   3.877   5.875  2.3326  0.1505 -0.8761
  942SOL    HW3 3535   5.735   3.793   5.957 -0.8925 -1.9999  0.9059
  942SOL    MW4 3536   5.656   3.827   5.944  0.0259  0.2080  0.0207
  943SOL     OW 3537   2.685   6.225   5.856 -0.3068 -0.2536 -0.1729
  943SOL    HW2 3538   2.602   6.191   5.889 -0.0004 -0.4808  0.3699
  943SOL    HW3 3539   2.737   6.243   5.934 -0.9546  2.7895 -0.2966
  943SOL    MW4 3540   2.681   6.223   5.871 -0.0492 -0.4810 -0.0208
  944SOL     OW 3541   1.953   4.462   5.951  0.1051  0.4003  0.1532
  944SOL    HW2 3542   1.898   4.518   5.896 -0.4811  0.4494  0.7758
  944SOL    HW3 3543   1.902   4.449   6.031  0.5524 -0.4271  0.3133
  944SOL    MW4 3544   1.939   4.468   5.955  0.1430 -0.0712 -0.0672
  945SOL     OW 3545   3.411   1.787   0.135 -0.6043 -0.3155  0.0674
  945SOL    HW2 3546   3.505   1.771   0.138 -0.2693  1.0439 -1.5870
  945SOL    HW3 3547   3.388   1.815   0.223  0.8163  0.6594  0.1504
  945SOL    MW4 3548   3.420   1.788   0.147  0.0946  0.4789  0.6438
  946SOL     OW 3549   1.264   3.648   1.609 -0.7408 -0.0383  0.2311
  946SOL    HW2 3550   1.171   3.623   1.611 -0.9902  0.0931 -3.1210
  946SOL    HW3 3551   1.264   3.734   1.565  0.9520 -0.0519  0.1601
  946SOL    MW4 3552   1.252   3.656   1.603  0.4633  0.4535 -0.1507
  947SOL     OW 3553   6.389   6.182   2.041 -0.6779 -0.4810 -0.2891
  947SOL    HW2 3554   6.408   6.179   1.948  2.0023 -2.1052  0.2233
  947SOL    HW3 3555   6.448   6.249   2.076  0.2548 -1.7454  0.6003
  947SOL    MW4 3556   6.399   6.191   2.034  0.2444 -0.4204 -0.3231
  948SOL     OW 3557   6.091   1.141   2.263  0.1913  0.2096 -0.5413
  948SOL    HW2 3558   6.162   1.131   2.200 -0.6994  1.3395 -1.7858
  948SOL    HW3 3559   6.028   1.073   2.239  0.5320 -0.3491  0.1233
  948SOL    MW4 3560   6.092   1.131   2.252  0.1029 -0.3690  0.4111
  949SOL     OW 3561   4.880   0.141   3.166 -0.6004  0.1194 -0.1989
  949SOL    HW2 3562   4.917   0.085   3.097 -0.0814 -0.3178  0.4274
  949SOL    HW3 3563   4.813   0.086   3.207 -0.0601 -0.0648  0.4448
  949SOL    MW4 3564   4.876   0.126   3.162 -0.1670 -0.1813 -0.2907
  950SOL     OW 3565   4.392   1.290   3.766  0.9924  0.2192 -0.4450
  950SOL    HW2 3566   4.408   1.384   3.759 -0.5682  0.5875  0.5116
  950SOL    HW3 3567   4.423   1.267   3.854  1.6069 -0.2212 -0.7720
  950SOL    MW4 3568   4.398   1.300   3.777 -0.5289  0.2034 -0.3880
  951SOL     OW 3569   4.936   1.745   2.386  0.5062  0.6090 -0.3558
  951SOL    HW2 3570   4.986   1.724   2.465 -0.5361  1.9782  0.7438
  951SOL    HW3 3571   4.932   1.841   2.386  0.5095  0.6290 -2.1113
  951SOL    MW4 3572   4.942   1.755   2.397  0.4333 -0.4410  1.1750
  952SOL     OW 3573   1.730   4.764   1.707 -0.1415 -0.3066  0.1809
  952SOL    HW2 3574   1.752   4.799   1.793 -0.2926 -1.1477  0.5688
  952SOL    HW3 3575   1.797   4.799   1.648 -1.3333  2.1664  0.1740
  952SOL    MW4 3576   1.742   4.773   1.710  0.1220 -0.0716 -0.1178
  953SOL     OW 3577   5.519   4.451   4.919 -0.4780 -0.1465  0.2076
  953SOL    HW2 3578   5.565   4.473   5.000 -0.8291 -0.2758  0.4423
  953SOL    HW3 3579   5.432   4.491   4.929 -0.2165  0.6249 -0.4940
  953SOL    MW4 3580   5.513   4.459   4.931  0.4828  0.0830  0.2207
  954SOL     OW 3581   0.773   1.699   1.171  0.1387  0.5505 -0.1123
  954SOL    HW2 3582   0.818   1.619   1.197 -1.6923 -0.0958  1.3317
  954SOL    HW3 3583   0.803   1.765   1.233 -0.1010  0.3733  0.1978
  954SOL    MW4 3584   0.783   1.697   1.183  0.5752  0.3592  0.3302
  955SOL     OW 3585   2.884   1.120   5.799 -0.1985 -0.8180  1.0584
  955SOL    HW2 3586   2.842   1.047   5.753 -1.1736 -0.1816  0.9019
  955SOL    HW3 3587   2.969   1.086   5.825 -0.1217 -1.5999 -0.1196
  955SOL    MW4 3588   2.890   1.106   5.796  0.7687 -0.0773  0.1309
  956SOL     OW 3589   2.926   3.101   4.724 -0.2494  0.1860  0.2964
  956SOL    HW2 3590   3.006   3.126   4.678 -0.0221 -0.4767  0.3135
  956SOL    HW3 3591   2.902   3.016   4.687 -0.2349 -0.2157  1.1608
  956SOL    MW4 3592   2.934   3.093   4.713  0.1845 -0.3190  0.0010
  957SOL     OW 3593   4.946   3.139   5.974  0.8061 -0.4559  0.5470
  957SOL    HW2 3594   4.919   3.100   6.058  0.1247  1.9805  1.5559
  957SOL    HW3 3595   5.029   3.182   5.994 -0.5493  2.3153  0.8010
  957SOL    MW4 3596   4.953   3.140   5.988  0.1471 -0.0766  0.5916
  958SOL     OW 3597   1.350   0.539   5.584  0.4761 -0.4173 -0.1948
  958SOL    HW2 3598   1.341   0.453   5.544 -0.4216 -0.0317 -0.8640
  958SOL    HW3 3599   1.295   0.596   5.531 -0.4668  0.1969  1.3657
  958SOL    MW4 3600   1.341   0.535   5.572  0.2113 -0.0004  0.5205
  959SOL     OW 3601   3.354   1.661   3.032  0.5036 -0.1198 -0.0699
  959SOL    HW2 3602   3.314   1.584   3.073 -2.4407  1.0934 -0.4108
  959SOL    HW3 3603   3.352   1.728   3.100  0.0964  0.5403 -0.7278
  959SOL    MW4 3604   3.349   1.660   3.046 -0.0452 -0.0760  0.3039
  960SOL     OW 3605   4.715   1.304   0.847  0.4445 -0.6672  0.2361
  960SOL    HW2 3606   4.711   1.208   0.854  0.2158 -0.6113  0.8980
  960SOL    HW3 3607   4.661   1.336   0.918  1.3827 -0.0316  0.6911
  960SOL    MW4 3608   4.708   1.295   0.857 -0.6052  0.2723  0.0273
  961SOL     OW 3609   5.885   0.717   1.650  0.0740  0.0647 -0.0921
  961SOL    HW2 3610   5.965   0.738   1.601 -0.3219 -1.0772 -1.2902
  961SOL    HW3 3611   5.828   0.793   1.636  1.3416  1.4605  1.7986
  961SOL    MW4 3612   5.888   0.730   1.641  0.2650 -0.2531 -0.0282
  962SOL     OW 3613   6.461   0.015   1.220  0.5215  0.2835  0.3824
  962SOL    HW2 3614   6.463   0.018   1.316  1.1826  0.5214  0.3653
  962SOL    HW3 3615   6.406  -0.061   1.200  0.1362  0.4088  0.9471
  962SOL    MW4 3616   6.454   0.005   1.230  0.0450  0.5362 -0.6145
  963SOL     OW 3617   5.835   1.064   4.178 -0.0604 -0.4700 -0.3568
  963SOL    HW2 3618   5.878   1.139   4.137  1.4512  0.2351  2.2959
  963SOL    HW3 3619   5.742   1.083   4.169  0.2369  2.7207  1.7265
  963SOL    MW4 3620   5.828   1.076   4.171  0.3747  0.2304  0.3256
  964SOL     OW 3621   2.099   3.145   5.203 -0.8194  0.0033  0.2036
  964SOL    HW2 3622   2.041   3.070   5.215 -0.4729 -0.9281 -2.8601
  964SOL    HW3 3623   2.051   3.219   5.241 -2.4372 -1.3153  0.8506
  964SOL    MW4 3624   2.085   3.145   5.209 -0.2066  0.6416 -0.1165
  965SOL     OW 3625   5.752   5.213   1.578 -0.6041  0.5035 -0.9553
  965SOL    HW2 3626   5.737   5.264   1.658 -0.3643  0.8593 -1.1376
  965SOL    HW3 3627   5.726   5.123   1.602  0.6986  0.3423 -0.0825
  965SOL    MW4 3628   5.746   5.208   1.592 -0.1510  0.3043  0.0279
  966SOL     OW 3629   4.708   6.358   4.532  0.0477  0.4453 -0.2506
  966SOL    HW2 3630   4.797   6.347   4.501  0.0812 -0.9403  0.2689
  966SOL    HW3 3631   4.695   6.288   4.595 -0.7762  1.7940  1.1585
  966SOL    MW4 3632   4.718   6.348   4.536  0.4613  0.3893  0.5428
  967SOL     OW 3633   5.591   4.790   2.097  0.0146 -0.5714  0.9206
  967SOL    HW2 3634   5.508   4.771   2.142 -1.0984 -0.1973 -0.8883
  967SOL    HW3 3635   5.655   4.796   2.168 -1.4919 -0.8810  2.3784
  967SOL    MW4 3636   5.588   4.788   2.113 -0.4641 -0.0513  0.4570
  968SOL     OW 3637   4.823   1.927   0.077  1.0973 -0.4391 -0.0735
  968SOL    HW2 3638   4.851   2.017   0.056  0.4436 -0.2403 -0.1020
  968SOL    HW3 3639   4.846   1.876  -0.001  0.7521 -0.1413 -0.3741
  968SOL    MW4 3640   4.830   1.932   0.064  0.0723  0.1697 -0.0661
  969SOL     OW 3641   3.248   2.680   5.027  0.8470 -0.5837 -0.1482
  969SOL    HW2 3642   3.188   2.755   5.032  0.3344 -0.9422 -0.7993
  969SOL    HW3 3643   3.302   2.687   5.106 -0.3209 -0.4892  0.6613
  969SOL    MW4 3644   3.247   2.691   5.038  0.0138  0.2753  0.0347
  970SOL     OW 3645   1.002   4.617   5.920 -0.2635 -0.2514 -0.1330
  970SOL    HW2 3646   0.955   4.660   5.848 -0.6870  1.2399  0.9848
  970SOL    HW3 3647   1.012   4.685   5.987 -2.2587 -2.2215  2.3797
  970SOL    MW4 3648   0.997   4.632   5.919  0.0822  0.2183 -0.0801
  971SOL     OW 3649   5.584   1.258   0.825 -0.3839  0.3189  0.3374
  971SOL    HW2 3650   5.503   1.242   0.873  0.7686 -0.5714  2.1388
  971SOL    HW3 3651   5.644   1.292   0.892  1.2769 -0.8524 -0.4904
  971SOL    MW4 3652   5.581   1.261   0.840 -0.0836  0.1157 -0.4127
  972SOL     OW 3653   2.696   2.353   2.295  0.2498 -0.2557  0.0738
  972SOL    HW2 3654   2.691   2.317   2.207  1.9286  0.3933 -0.3122
  972SOL    HW3 3655   2.787   2.379   2.306 -0.1889  0.8032  1.5560
  972SOL    MW4 3656   2.707   2.352   2.285  0.1924 -0.0690  0.3143
  973SOL     OW 3657   5.910   4.100   5.628  0.2238 -0.1938  0.2653
  973SOL    HW2 3658   5.877   4.017   5.593 -0.5020 -0.3543  1.2766
  973SOL    HW3 3659   5.996   4.110   5.589  0.0930 -1.1545 -0.3012
  973SOL    MW4 3660   5.917   4.091   5.618  0.2419 -0.4617  0.2380
  974SOL     OW 3661   2.555   4.062   0.868  0.5408  0.2931  0.2967
  974SOL    HW2 3662   2.631   4.096   0.820  1.6059 -0.5652  1.2943
  974SOL    HW3 3663   2.585   4.059   0.959 -1.0512  0.8635  0.8702
  974SOL    MW4 3664   2.569   4.066   0.874  0.3418 -0.6551 -0.3813
  975SOL     OW 3665   3.953   2.868   4.342  0.0564 -0.3916 -0.0273
  975SOL    HW2 3666   3.941   2.861   4.247 -1.5799  0.7787  0.0490
  975SOL    HW3 3667   3.869   2.842   4.378  0.0633  0.9581  1.0131
  975SOL    MW4 3668   3.940   2.864   4.334 -1.1911  0.2587 -0.0685
  976SOL     OW 3669   0.121   3.101   1.660 -0.4035 -0.4625  0.2892
  976SOL    HW2 3670   0.033   3.137   1.673 -1.4321 -2.5538 -0.5348
  976SOL    HW3 3671   0.146   3.067   1.747 -0.2189  0.4684  0.6126
  976SOL    MW4 3672   0.113   3.101   1.673 -0.7410 -0.0695  0.4102
  977SOL     OW 3673   1.549   1.194   1.899  0.1474  0.2939  0.5283
  977SOL    HW2 3674   1.476   1.255   1.884  0.6217  0.9223  0.7050
  977SOL    HW3 3675   1.565   1.200   1.994 -0.7834 -1.2650  0.8232
  977SOL    MW4 3676   1.542   1.203   1.910  0.3509  0.1248  0.3492
  978SOL     OW 3677   5.574   2.264   4.675 -0.5282 -0.2298 -0.1439
  978SOL    HW2 3678   5.555   2.344   4.626 -0.9664 -0.1775  0.1071
  978SOL    HW3 3679   5.535   2.194   4.622  1.8331 -0.5810 -1.5748
  978SOL    MW4 3680   5.566   2.265   4.661  0.1123 -0.3541  0.0251
  979SOL     OW 3681   4.280   6.170   3.235 -0.5807 -0.5629 -0.3168
  979SOL    HW2 3682   4.198   6.204   3.199 -0.4304 -0.2626 -0.3858
  979SOL    HW3 3683   4.348   6.212   3.182 -0.3666 -0.2890  0.1741
  979SOL    MW4 3684   4.278   6.180   3.223 -0.2250 -0.3391 -0.6412
  980SOL     OW 3685   3.224   3.838   2.877 -0.0654 -0.2359  0.1034
  980SOL    HW2 3686   3.293   3.781   2.911 -0.4786 -0.5799  0.3770
  980SOL    HW3 3687   3.175   3.783   2.817 -0.3334 -0.1016  0.1995
  980SOL    MW4 3688   3.227   3.823   2.874 -1.2211 -0.5414 -0.9096
  981SOL     OW 3689   0.820   3.261   5.027 -0.2519  0.2726 -0.7953
  981SOL    HW2 3690   0.777   3.176   5.019 -1.1415  0.6190  0.1392
  981SOL    HW3 3691   0.777   3.316   4.962 -0.5510  0.3506 -0.5329
  981SOL    MW4 3692   0.809   3.257   5.017  0.3638 -0.0121 -1.1805
  982SOL     OW 3693   1.631   2.563   1.650 -0.0187  0.0050 -0.4128
  982SOL    HW2 3694   1.569   2.511   1.702  0.2929  0.4656  0.4430
  982SOL    HW3 3695   1.576   2.626   1.603 -0.1624  1.2538  1.3092
  982SOL    MW4 3696   1.616   2.565   1.650 -0.6423  0.1190  0.5145
  983SOL     OW 3697   6.225   3.445   4.813  0.4295 -0.4853  0.1294
  983SOL    HW2 3698   6.289   3.446   4.742 -0.5328  2.4145 -0.8242
  983SOL    HW3 3699   6.159   3.382   4.785  1.4563 -1.4976 -0.1289
  983SOL    MW4 3700   6.225   3.437   4.800  0.0109  0.5956 -0.0451
  984SOL     OW 3701   4.613   3.358   5.804  0.0006  0.0006  0.1543
  984SOL    HW2 3702   4.603   3.389   5.894  2.5382 -0.0903  0.5455
  984SOL    HW3 3703   4.624   3.263   5.813  1.6633  0.1442 -0.0606
  984SOL    MW4 3704   4.613   3.350   5.817 -0.3356 -0.2113 -0.2062
  985SOL     OW 3705   4.382   0.506   6.272 -0.0435 -0.3735  0.1816
  985SOL    HW2 3706   4.287   0.515   6.277 -0.2734 -2.3360  0.0136
  985SOL    HW3 3707   4.401   0.503   6.179 -0.0518 -1.6914  0.1939
  985SOL    MW4 3708   4.372   0.507   6.261 -0.3660 -0.1585 -0.5062
  986SOL     OW 3709   6.352   3.834   1.993 -0.1392 -0.7883 -0.1307
  986SOL    HW2 3710   6.290   3.768   1.962  1.2864 -2.6715  0.8597
  986SOL    HW3 3711   6.324   3.852   2.083 -0.5749  0.0550 -0.4244
  986SOL    MW4 3712   6.340   3.828   2.001  0.0410 -0.1053 -0.3600
  987SOL     OW 3713   2.385   0.826   5.184 -0.1485 -0.2129 -0.2940
  987SOL    HW2 3714   2.364   0.785   5.268 -1.1478  1.8228  0.5185
  987SOL    HW3 3715   2.304   0.867   5.156  1.0067  2.2074 -0.4006
  987SOL    MW4 3716   2.372   0.826   5.192 -0.7059 -0.2494  0.4717
  988SOL     OW 3717   0.655   0.843   0.669  0.2721  0.0259 -0.1980
  988SOL    HW2 3718   0.695   0.924   0.702 -1.9132  0.7282  0.9297
  988SOL    HW3 3719   0.700   0.773   0.716  2.0924  0.5385 -1.0835
  988SOL    MW4 3720   0.666   0.844   0.680 -0.1782  0.2710  0.1364
  989SOL     OW 3721   4.113   6.216   0.833 -0.1630 -0.7474 -1.1474
  989SOL    HW2 3722   4.030   6.263   0.819 -0.1615 -0.3399  0.0771
  989SOL    HW3 3723   4.178   6.285   0.846 -0.6932 -0.8247  3.8923
  989SOL    MW4 3724   4.110   6.231   0.833 -0.6739  0.8871  0.6316
  990SOL     OW 3725   6.038   0.642   0.659 -0.0877 -0.8184  0.2411
  990SOL    HW2 3726   5.958   0.668   0.614  1.2724  3.5277 -0.1520
  990SOL    HW3 3727   6.105   0.641   0.591  0.7082 -1.7982  0.9958
  990SOL    MW4 3728   6.036   0.645   0.644 -0.0659  0.2152  0.2497
  991SOL     OW 3729   4.674   1.811   2.841  0.8599  0.1460  0.0739
  991SOL    HW2 3730   4.750   1.836   2.789 -0.7649  2.3570 -1.3873
  991SOL    HW3 3731   4.645   1.892   2.883  0.4068 -1.0280  2.1443
  991SOL    MW4 3732   4.680   1.825   2.840 -0.2018 -0.0019 -0.3090
  992SOL     OW 3733   6.453   3.957   1.197  0.1381 -0.7239  0.3688
  992SOL    HW2 3734   6.419   3.959   1.107  0.9190 -1.6502  0.0359
  992SOL    HW3 3735   6.376   3.973   1.252 -0.8573 -2.6169 -0.3712
  992SOL    MW4 3736   6.438   3.960   1.192 -0.2517 -0.0241 -0.9658
  993SOL     OW 3737   0.056   5.973   3.887  0.5776 -0.5424  0.0506
  993SOL    HW2 3738  -0.006   6.009   3.824  2.0276 -0.2951 -1.2972
  993SOL    HW3 3739   0.022   5.887   3.908  0.3747 -0.8933 -1.5876
  993SOL    MW4 3740   0.043   5.967   3.881  0.0665  0.0139 -0.4396
  994SOL     OW 3741   0.608   0.952   2.712 -0.7218 -0.5811 -0.0087
  994SOL    HW2 3742   0.647   0.998   2.786 -0.5281  1.1901 -1.1648
  994SOL    HW3 3743   0.612   0.859   2.737 -1.5103 -0.0096  2.5947
  994SOL    MW4 3744   0.613   0.945   2.725  0.2983 -0.1878 -0.2803
  995SOL     OW 3745   2.250   2.486   4.605 -0.1525  0.4525 -0.1763
  995SOL    HW2 3746   2.309   2.445   4.667 -1.7476 -1.9710 -0.1602
  995SOL    HW3 3747   2.183   2.529   4.659 -0.6039 -0.2148 -0.1993
  995SOL    MW4 3748   2.249   2.486   4.620 -0.2780  0.7835  0.3666
  996SOL     OW 3749   4.867   4.918   4.691  0.1115 -0.3307 -0.1937
  996SOL    HW2 3750   4.795   4.966   4.732  1.8635  2.3909 -0.0928
  996SOL    HW3 3751   4.910   4.872   4.763  0.4473  0.7511  0.3164
  996SOL    MW4 3752   4.863   4.918   4.706  0.1503  0.2991 -0.2779
  997SOL     OW 3753   5.720   2.124   4.383 -0.1797 -0.3027  0.5388
  997SOL    HW2 3754   5.729   2.094   4.293 -0.8148 -2.7308  1.1965
  997SOL    HW3 3755   5.800   2.094   4.426 -0.0100  0.5862  0.8546
  997SOL    MW4 3756   5.732   2.116   4.377 -0.3196  0.0243  0.0892
  998SOL     OW 3757   3.067   4.675   6.297  0.1319 -0.0349  0.0797
  998SOL    HW2 3758   3.030   4.637   6.217  2.2507 -0.3343 -0.8250
  998SOL    HW3 3759   3.130   4.610   6.327 -0.3342  0.2697  1.7903
  998SOL    MW4 3760   3.070   4.662   6.290  0.1109  0.9239 -0.6406
  999SOL     OW 3761   0.242   2.737   5.360 -0.2380 -0.3091  0.4018
  999SOL    HW2 3762   0.299   2.697   5.294 -0.7100  1.9530 -1.5045
  999SOL    HW3 3763   0.166   2.766   5.311  0.3345  3.4145  1.4488
  999SOL    MW4 3764   0.240   2.735   5.345 -0.1023  0.1162 -0.0168
 1000SOL     OW 3765   5.271   5.239   4.962 -0.7407 -0.4123 -0.2229
 1000SOL    HW2 3766   5.232   5.309   5.015 -0.7525 -0.2452 -0.4461
 1000SOL    HW3 3767   5.317   5.184   5.024 -0.0736  0.2308 -0.1283
 1000SOL    MW4 3768   5.272   5.241   4.977  0.2513  0.3022 -0.3799
 1001SOL     OW 3769   0.525   4.300   5.126 -0.1543  0.6674 -0.2734
 1001SOL    HW2 3770   0.600   4.243   5.143 -2.1551 -2.9830 -2.3184
 1001SOL    HW3 3771   0.522   4.307   5.031 -2.1279  1.0364 -0.2233
 1001SOL    MW4 3772   0.535   4.293   5.116 -0.8109  0.4161  0.6538
 1002SOL     OW 3773   6.118   2.232   1.419  0.8921 -0.0766 -0.0273
 1002SOL    HW2 3774   6.190   2.201   1.364  1.5997 -1.1981  1.4526
 1002SOL    HW3 3775   6.139   2.323   1.439  1.4331 -0.1341 -0.3249
 1002SOL    MW4 3776   6.130   2.240   1.414 -0.3004  0.1666  0.3351
 1003SOL     OW 3777   3.360   5.974   1.744  0.0051  0.3115  0.4267
 1003SOL    HW2 3778   3.341   6.068   1.751 -0.3374  0.1215  3.0977
 1003SOL    HW3 3779   3.288   5.932   1.790  0.4986 -1.2353 -0.1631
 1003SOL    MW4 3780   3.348   5.981   1.751  0.3251  0.0743  0.0641
 1004SOL     OW 3781   3.052   0.518   2.269  0.3629  0.0616 -0.0737
 1004SOL    HW2 3782   3.017   0.445   2.218  1.0652  0.5253 -1.2705
 1004SOL    HW3 3783   3.027   0.596   2.219 -0.4386  0.6694  1.2177
 1004SOL    MW4 3784   3.044   0.519   2.256  1.0488 -0.2373 -0.3607
 1005SOL     OW 3785   4.163   6.219   0.561  0.1890  0.0233 -0.6844
 1005SOL    HW2 3786   4.137   6.129   0.544  0.4701 -0.0245 -0.8523
 1005SOL    HW3 3787   4.162   6.227   0.657  0.3552 -0.2097 -0.6655
 1005SOL    MW4 3788   4.159   6.208   0.572 -0.1299  0.5222  0.3321
 1006SOL     OW 3789   5.238   1.603   1.426 -0.2858 -0.1400  0.8640
 1006SOL    HW2 3790   5.177   1.530   1.434 -0.9944  0.3860  0.4199
 1006SOL    HW3 3791   5.196   1.675   1.473 -0.1329  0.2995  0.3446
 1006SOL    MW4 3792   5.225   1.603   1.433  0.3380 -0.2837 -0.2694
 1007SOL     OW 3793   2.298   4.250   3.659  0.2881 -0.0924  0.1419
 1007SOL    HW2 3794   2.261   4.251   3.747  1.3489  0.2525  0.6055
 1007SOL    HW3 3795   2.382   4.204   3.669  1.3113  1.6083 -0.2993
 1007SOL    MW4 3796   2.305   4.244   3.672 -0.4479 -0.2110  0.0974
 1008SOL     OW 3797   4.552   3.559   0.948  0.3415  0.1269  0.4847
 1008SOL    HW2 3798   4.628   3.560   0.890  1.4328  0.6649  1.8580
 1008SOL    HW3 3799   4.570   3.487   1.009 -1.3236 -1.1733 -0.4826
 1008SOL    MW4 3800   4.564   3.549   0.949  0.0226  0.3549 -0.1653
 1009SOL     OW 3801   1.329   0.731   1.809  0.1467 -0.0840  0.1920
 1009SOL    HW2 3802   1.384   0.779   1.870  0.3867 -0.0883 -0.0174
 1009SOL    HW3 3803   1.386   0.713   1.734  1.2300 -3.9194  1.7043
 1009SOL    MW4 3804   1.343   0.735   1.807 -0.2029  0.0506 -0.3169
 1010SOL     OW 3805   0.738   3.859   3.591 -0.2896 -0.0349  0.1732
 1010SOL    HW2 3806   0.730   3.915   3.668 -1.8852  0.6678 -0.4634
 1010SOL    HW3 3807   0.767   3.775   3.626  1.0934  0.8472  1.2722
 1010SOL    MW4 3808   0.741   3.855   3.606  0.2263 -0.2533 -0.9025
 1011SOL     OW 3809   4.005   3.473   4.245 -0.3042 -0.1845  0.0326
 1011SOL    HW2 3810   4.045   3.422   4.175 -0.9733 -0.4936 -0.1399
 1011SOL    HW3 3811   4.007   3.415   4.321 -1.2551 -0.5721 -0.2165
 1011SOL    MW4 3812   4.010   3.459   4.246  0.4718 -0.2983  0.2768
 1012SOL     OW 3813   5.079   6.254   6.077  0.1276  0.2278 -0.1869
 1012SOL    HW2 3814   5.082   6.158   6.080 -0.2422  0.1923 -0.7273
 1012SOL    HW3 3815   5.157   6.282   6.125  0.4952 -0.3538 -0.4293
 1012SOL    MW4 3816   5.090   6.245   6.083 -0.6958 -0.0718 -0.0991
 1013SOL     OW 3817   4.665   4.433   6.405 -0.2745 -0.2279  0.7094
 1013SOL    HW2 3818   4.684   4.388   6.488 -1.0283 -1.7699  0.0997
 1013SOL    HW3 3819   4.716   4.385   6.340  0.0403  0.7489  0.2233
 1013SOL    MW4 3820   4.674   4.420   6.408  0.1583 -0.1669  0.4904
 1014SOL     OW 3821   0.790   4.204   1.841 -0.1831 -0.8195 -0.1344
 1014SOL    HW2 3822   0.803   4.202   1.936  2.1244 -2.5083 -0.4097
 1014SOL    HW3 3823   0.821   4.290   1.814  2.6014 -1.6114  0.2896
 1014SOL    MW4 3824   0.796   4.215   1.850 -0.0420  0.3442 -0.0811
 1015SOL     OW 3825   4.024   1.865   4.219 -0.5175 -0.1204 -0.0087
 1015SOL    HW2 3826   3.995   1.954   4.196 -0.3808 -0.4908 -1.7654
 1015SOL    HW3 3827   3.945   1.819   4.245 -0.5052  0.6551  1.5519
 1015SOL    MW4 3828   4.010   1.871   4.220  0.4057  0.1869  0.1764
 1016SOL     OW 3829   0.710   3.260   4.360  0.1479 -0.4101 -0.6113
 1016SOL    HW2 3830   0.714   3.172   4.398 -0.0165 -0.4856 -0.7678
 1016SOL    HW3 3831   0.653   3.308   4.420  2.2095  0.3103  0.9044
 1016SOL    MW4 3832   0.703   3.255   4.373 -0.7258 -0.0479 -0.1078
 1017SOL     OW 3833   4.650   1.279   4.313 -0.6163  0.0314 -0.0342
 1017SOL    HW2 3834   4.721   1.217   4.333 -1.1132 -0.8816 -1.0193
 1017SOL    HW3 3835   4.683   1.330   4.240 -1.3241 -1.0697 -1.1643
 1017SOL    MW4 3836   4.664   1.278   4.306 -0.2861 -0.2229 -0.4099
 1018SOL     OW 3837   3.788   4.660   1.806 -0.4355 -0.0968  0.0968
 1018SOL    HW2 3838   3.810   4.574   1.771  1.1512  0.3185  0.0128
 1018SOL    HW3 3839   3.705   4.683   1.764  0.6538 -0.2529 -2.2796
 1018SOL    MW4 3840   3.780   4.652   1.796  0.5837  0.0440  0.0715
 1019SOL     OW 3841   3.838   4.636   2.707 -0.1093  0.2756  0.4637
 1019SOL    HW2 3842   3.849   4.614   2.800 -1.1098 -1.3685  0.2203
 1019SOL    HW3 3843   3.926   4.660   2.679  0.1214  1.3365  1.9546
 1019SOL    MW4 3844   3.851   4.636   2.716 -0.3559 -0.0930  0.6356
 1020SOL     OW 3845   1.556   4.444   6.348  0.1238 -0.2248 -0.1580
 1020SOL    HW2 3846   1.620   4.469   6.415  1.7146  0.5570 -1.8514
 1020SOL    HW3 3847   1.514   4.526   6.323 -0.6520 -0.5480  0.0734
 1020SOL    MW4 3848   1.559   4.458   6.353 -0.4002  0.1550  0.5172
 1021SOL     OW 3849   1.724   5.629   0.838 -0.2173 -0.0919 -0.0162
 1021SOL    HW2 3850   1.637   5.618   0.878 -0.3153 -2.7479 -0.7474
 1021SOL    HW3 3851   1.785   5.597   0.904 -0.0599 -0.8901 -0.5317
 1021SOL    MW4 3852   1.720   5.623   0.852  0.5862  0.0474 -0.7903
 1022SOL     OW 3853   5.339   3.064   3.578  0.1252 -0.5247 -0.7622
 1022SOL    HW2 3854   5.327   3.111   3.496 -0.0760 -1.3133 -1.1939
 1022SOL    HW3 3855   5.430   3.036   3.577 -0.4143 -2.4376 -1.7787
 1022SOL    MW4 3856   5.349   3.066   3.567  0.3951 -0.3423  0.0667
 1023SOL     OW 3857   2.359   6.104   6.287 -0.3065 -0.2799  0.0950
 1023SOL    HW2 3858   2.326   6.074   6.372 -2.0211  0.4429 -0.2874
 1023SOL    HW3 3859   2.364   6.199   6.296 -2.2671 -0.0167 -1.1761
 1023SOL    MW4 3860   2.356   6.112   6.300  0.0432 -0.2078 -0.3641
 1024SOL     OW 3861   4.613   5.045   1.842 -0.2411 -0.3146 -0.1702
 1024SOL    HW2 3862   4.586   5.086   1.924  0.6810 -0.5896  0.2793
 1024SOL    HW3 3863   4.600   4.951   1.857 -1.6154 -0.2751 -0.9244
 1024SOL    MW4 3864   4.608   5.038   1.855 -0.7258 -0.2214 -0.7990
 1025SOL     OW 3865   5.168   4.127   5.685  0.3475 -0.3657 -0.2031
 1025SOL    HW2 3866   5.086   4.175   5.674 -0.0218 -1.2209 -1.4070
 1025SOL    HW3 3867   5.218   4.147   5.606  0.6802 -1.0230 -0.1645
 1025SOL    MW4 3868   5.164   4.136   5.673  0.0758 -0.1062  0.2068
 1026SOL     OW 3869   3.485   1.317   3.987 -0.5856 -0.0998  0.3055
 1026SOL    HW2 3870   3.453   1.406   3.977 -0.1890 -0.1490 -2.0956
 1026SOL    HW3 3871   3.580   1.326   3.998 -0.3406 -0.2268 -1.4372
 1026SOL    MW4 3872   3.493   1.330   3.987  0.0206  0.1993  0.2949
 1027SOL     OW 3873   5.618   4.058   2.010  0.1468  0.2319  0.1093
 1027SOL    HW2 3874   5.584   4.133   2.058  0.1530  1.3184 -1.5065
 1027SOL    HW3 3875   5.541   4.015   1.973  0.0906 -0.9462  1.5098
 1027SOL    MW4 3876   5.603   4.062   2.011 -0.0045 -0.3621 -0.4510
 1028SOL     OW 3877   2.198   4.052   2.510  0.6303  0.5912 -0.1258
 1028SOL    HW2 3878   2.250   4.108   2.453  0.0004  0.8479 -0.4534
 1028SOL    HW3 3879   2.256   3.979   2.531  1.0397  0.7542 -0.6772
 1028SOL    MW4 3880   2.212   4.050   2.506 -0.0654  0.0387 -0.3346
 1029SOL     OW 3881   5.460   2.440   1.272  0.6366 -0.1743  0.3803
 1029SOL    HW2 3882   5.505   2.412   1.352 -1.5147 -0.0628  1.6772
 1029SOL    HW3 3883   5.498   2.383   1.204  1.9549 -0.8131  1.5789
 1029SOL    MW4 3884   5.471   2.429   1.274  0.6984 -0.0710 -0.4777
 1030SOL     OW 3885   2.788   0.644   0.288  0.2953 -0.2767  0.5425
 1030SOL    HW2 3886   2.695   0.626   0.273 -0.3598  1.0867  2.4841
 1030SOL    HW3 3887   2.807   0.718   0.230 -0.7293  1.4384  2.2729
 1030SOL    MW4 3888   2.778   0.652   0.278 -0.1764 -0.3646 -0.4441
 1031SOL     OW 3889   4.184   1.780   1.468  0.3222  0.3558 -0.2510
 1031SOL    HW2 3890   4.238   1.702   1.479  0.8528  0.6117 -0.9068
 1031SOL    HW3 3891   4.233   1.849   1.513  0.5275  0.5826 -0.8190
 1031SOL    MW4 3892   4.198   1.779   1.475  0.0548  0.0898 -0.2772
 1032SOL     OW 3893   4.947   6.207   4.041  0.2512  0.2572 -0.8206
 1032SOL    HW2 3894   4.964   6.250   3.957  2.4178 -0.3561 -0.7431
 1032SOL    HW3 3895   4.878   6.261   4.081 -1.0955  0.3667 -3.0895
 1032SOL    MW4 3896   4.940   6.220   4.035  0.9550  0.2021 -0.3535
 1033SOL     OW 3897   3.206   5.218   1.390 -0.0184  0.0778  0.2294
 1033SOL    HW2 3898   3.243   5.178   1.468  3.4248 -0.5436 -1.4983
 1033SOL    HW3 3899   3.224   5.312   1.400 -0.1817  0.0838  0.4598
 1033SOL    MW4 3900   3.213   5.225   1.401  0.1685 -0.0160  0.0795
 1034SOL     OW 3901   0.352   6.080   5.288 -0.3245  0.1542 -0.1751
 1034SOL    HW2 3902   0.394   6.158   5.325 -1.1840  1.1628 -1.2500
 1034SOL    HW3 3903   0.424   6.030   5.249  0.1356  0.8121 -0.1868
 1034SOL    MW4 3904   0.367   6.084   5.288 -0.1864  0.5601  0.2124
 1035SOL     OW 3905   5.799   0.768   4.750 -0.0273  0.2094 -0.3353
 1035SOL    HW2 3906   5.714   0.812   4.748 -0.4819 -0.6530 -0.7957
 1035SOL    HW3 3907   5.783   0.687   4.800  0.9397  0.8348  1.0709
 1035SOL    MW4 3908   5.786   0.763   4.756 -0.0618  0.4811  0.1968
 1036SOL     OW 3909   1.490   4.550   3.209 -0.2347 -0.0898  0.0887
 1036SOL    HW2 3910   1.555   4.603   3.163  1.0916 -0.0195  1.9383
 1036SOL    HW3 3911   1.523   4.544   3.298 -0.8704 -3.1381  0.2273
 1036SOL    MW4 3912   1.503   4.556   3.214 -0.2289  0.1421  0.3867
 1037SOL     OW 3913   1.763   6.410   3.989  0.0546 -0.2649 -0.3824
 1037SOL    HW2 3914   1.770   6.315   3.990 -1.7214 -0.4173 -0.2721
 1037SOL    HW3 3915   1.834   6.440   4.045  0.7979 -1.4980 -0.6291
 1037SOL    MW4 3916   1.773   6.402   3.996 -0.6331  0.1335 -0.1216
 1038SOL     OW 3917   3.741   6.284   1.909 -0.1752 -0.0011 -0.0610
 1038SOL    HW2 3918   3.827   6.271   1.948  0.1828  0.3663 -0.7147
 1038SOL    HW3 3919   3.711   6.369   1.944 -0.7963 -0.6631  1.0876
 1038SOL    MW4 3920   3.748   6.294   1.919  0.2008  0.1227  0.1683
 1039SOL     OW 3921   5.400   1.745   4.994  0.7278  0.7075 -0.4565
 1039SOL    HW2 3922   5.348   1.671   4.961 -0.5163  0.7412  1.3126
 1039SOL    HW3 3923   5.481   1.705   5.026  0.5814  0.2739 -0.6176
 1039SOL    MW4 3924   5.404   1.730   4.994  0.0201 -0.3838 -0.2475
 1040SOL     OW 3925   1.962   0.256   2.565 -0.4528 -0.2887 -0.6507
 1040SOL    HW2 3926   1.954   0.279   2.657 -1.7246  0.7924 -0.9935
 1040SOL    HW3 3927   2.038   0.198   2.561  1.5216  2.0228  0.6407
 1040SOL    MW4 3928   1.971   0.251   2.577 -0.1976  0.2283  0.3701
 1041SOL     OW 3929   0.693   3.396   0.055 -0.1003  0.5268 -0.8729
 1041SOL    HW2 3930   0.686   3.301   0.069  0.7756  0.5700 -0.0159
 1041SOL    HW3 3931   0.739   3.405  -0.028  2.6381  0.1164  0.4744
 1041SOL    MW4 3932   0.698   3.384   0.046  0.1066  0.0605  0.2700
 1042SOL     OW 3933   1.031   4.613   6.377  0.3038 -0.2589 -0.8725
 1042SOL    HW2 3934   1.019   4.707   6.369  1.1335  0.2025  2.1411
 1042SOL    HW3 3935   0.958   4.584   6.431  0.9098 -1.0846 -0.4847
 1042SOL    MW4 3936   1.020   4.621   6.383  0.5273 -0.0400  0.1257
 1043SOL     OW 3937   0.686   1.877   3.739 -0.1476 -0.4835 -0.2812
 1043SOL    HW2 3938   0.664   1.836   3.823 -0.7138 -1.6333 -0.9660
 1043SOL    HW3 3939   0.782   1.879   3.738 -0.0618 -2.3933 -0.4649
 1043SOL    MW4 3940   0.696   1.872   3.750  0.2419  0.1957 -0.0051
 1044SOL     OW 3941   2.751   0.154   5.256 -0.3458  0.8077 -0.2718
 1044SOL    HW2 3942   2.821   0.219   5.264  0.3900 -0.0666  0.6306
 1044SOL    HW3 3943   2.715   0.168   5.169  2.1084  0.1769 -1.4702
 1044SOL    MW4 3944   2.756   0.164   5.246 -0.2998 -0.6277  0.3073
 1045SOL     OW 3945   1.613   3.164   2.589 -0.4857  0.4178 -0.6909
 1045SOL    HW2 3946   1.683   3.126   2.536  1.2535  0.9626  1.1009
 1045SOL    HW3 3947   1.572   3.089   2.631 -0.0526  0.1809 -0.6805
 1045SOL    MW4 3948   1.617   3.149   2.587  0.4295  0.3952 -0.3941
 1046SOL     OW 3949   5.758   2.842   5.626  0.1249  0.2450 -0.1294
 1046SOL    HW2 3950   5.771   2.751   5.600  0.6899  0.4882 -0.7108
 1046SOL    HW3 3951   5.757   2.839   5.722 -2.0351 -0.6679 -0.1063
 1046SOL    MW4 3952   5.760   2.829   5.635  0.8948  0.0530 -0.1795
 1047SOL     OW 3953   0.118   0.830   5.101 -0.2311 -0.0928  0.1016
 1047SOL    HW2 3954   0.196   0.826   5.157 -1.4819 -0.5827  1.9020
 1047SOL    HW3 3955   0.083   0.741   5.104 -2.1748  0.6558  1.3315
 1047SOL    MW4 3956   0.124   0.818   5.108 -0.3957  0.0742  0.1478
 1048SOL     OW 3957   5.997   4.011   3.511 -0.1004 -0.3166 -0.0938
 1048SOL    HW2 3958   6.036   4.098   3.518  2.1551 -1.3397  1.1291
 1048SOL    HW3 3959   5.953   3.997   3.595  1.0624 -0.9903  0.4301
 1048SOL    MW4 3960   5.997   4.020   3.523  0.5179  0.0364  0.2736
 1049SOL     OW 3961   2.551   5.385   0.321  0.2003 -0.0448  0.1723
 1049SOL    HW2 3962   2.462   5.353   0.309 -0.1869  0.8739  0.5706
 1049SOL    HW3 3963   2.594   5.316   0.371 -0.1353 -0.7201 -0.4461
 1049SOL    MW4 3964   2.545   5.372   0.326  0.4649  0.3218  0.6286
 1050SOL     OW 3965   2.091   3.796   1.552  0.4053 -0.9011 -0.0431
 1050SOL    HW2 3966   2.029   3.729   1.525  0.9768 -2.1219  1.5062
 1050SOL    HW3 3967   2.050   3.838   1.627 -0.9017  2.0386 -2.1960
 1050SOL    MW4 3968   2.077   3.793   1.558  0.1651 -0.4459 -0.2200
 1051SOL     OW 3969   2.983   1.743   4.850  0.5755 -0.3088 -0.0904
 1051SOL    HW2 3970   3.063   1.785   4.818  0.3762  0.7973  0.8207
 1051SOL    HW3 3971   2.976   1.769   4.942 -1.2862  0.3323 -0.3673
 1051SOL    MW4 3972   2.992   1.752   4.858 -0.1663  0.3222  0.6007
 1052SOL     OW 3973   0.283   0.996   1.931  0.0157  0.4837  0.1406
 1052SOL    HW2 3974   0.352   0.932   1.949 -0.0185 -0.0977 -1.5564
 1052SOL    HW3 3975   0.318   1.079   1.965  1.3456  0.1103 -0.2360
 1052SOL    MW4 3976   0.297   0.999   1.938  0.7525 -0.1706 -0.8545
 1053SOL     OW 3977   0.486   5.371   5.524  0.7926 -0.4359  0.6041
 1053SOL    HW2 3978   0.418   5.304   5.532  0.1168  0.1535 -0.1093
 1053SOL    HW3 3979   0.515   5.386   5.614 -0.5388 -0.1796  1.0126
 1053SOL    MW4 3980   0.481   5.364   5.537  0.3348 -0.0968  0.0132
 1054SOL     OW 3981   0.572   2.517   5.931 -0.2226 -0.5970  0.5807
 1054SOL    HW2 3982   0.638   2.577   5.966 -1.1440 -0.4578  2.1871
 1054SOL    HW3 3983   0.527   2.483   6.009 -0.1014 -2.9620 -0.2900
 1054SOL    MW4 3984   0.575   2.520   5.946  0.2589 -0.0420 -0.5307
 1055SOL     OW 3985   0.713   0.088   4.396 -0.2396  0.1029 -0.2317
 1055SOL    HW2 3986   0.801   0.092   4.359 -0.6747 -0.8755 -1.4883
 1055SOL    HW3 3987   0.712   0.007   4.448 -0.5364 -0.1839 -0.6714
 1055SOL    MW4 3988   0.724   0.078   4.398 -0.3654 -0.7877  0.9508
 1056SOL     OW 3989   3.402   6.428   5.511 -0.4393  0.1318 -0.3289
 1056SOL    HW2 3990   3.427   6.452   5.422  0.2244  1.8974  0.3061
 1056SOL    HW3 3991   3.483   6.434   5.561 -0.6128 -1.7228  0.2650
 1056SOL    MW4 3992   3.416   6.432   5.506  0.1306 -0.0459  0.0373
 1057SOL     OW 3993   3.144   4.382   4.539 -0.4350  0.2247  0.0871
 1057SOL    HW2 3994   3.215   4.393   4.602 -0.7718 -0.7650  0.6661
 1057SOL    HW3 3995   3.171   4.432   4.462 -0.2428  1.9078  1.1899
 1057SOL    MW4 3996   3.157   4.390   4.537  0.2116  0.9076  0.0651
 1058SOL     OW 3997   5.007   0.034   5.091 -0.0109 -0.4153 -0.6924
 1058SOL    HW2 3998   4.983   0.094   5.161 -1.3536 -0.0144 -1.4624
 1058SOL    HW3 3999   5.080  -0.017   5.127 -1.3991 -1.0369  1.4432
 1058SOL    MW4 4000   5.014   0.035   5.105  0.1706 -0.0388 -0.7169
 1059SOL     OW 4001   4.646   2.905   5.167 -0.2758  0.1561 -0.6244
 1059SOL    HW2 4002   4.647   2.976   5.102  0.1415 -0.0548 -0.8486
 1059SOL    HW3 4003   4.734   2.906   5.204 -0.7405  0.7975  0.5105
 1059SOL    MW4 4004   4.657   2.915   5.163  0.5198  0.6279  0.2666
 1060SOL     OW 4005   0.164   5.320   2.857 -0.3183 -0.3924 -0.2094
 1060SOL    HW2 4006   0.244   5.360   2.892 -0.9729  1.2580 -0.4645
 1060SOL    HW3 4007   0.093   5.374   2.893 -1.0520  1.7159 -4.1571
 1060SOL    MW4 4008   0.165   5.333   2.866 -0.1860 -0.3030 -0.3579
 1061SOL     OW 4009   2.996   5.470   1.546 -0.8995 -0.0186 -0.2805
 1061SOL    HW2 4010   3.038   5.498   1.465 -0.7201 -1.5505 -0.7478
 1061SOL    HW3 4011   3.070   5.452   1.605 -1.0211  0.8109  0.1334
 1061SOL    MW4 4012   3.011   5.471   1.543 -0.6229  0.0742  0.1095
 1062SOL     OW 4013   3.911   4.466   6.015 -0.6412  0.1075  0.4093
 1062SOL    HW2 4014   3.839   4.441   5.957  0.2881 -1.4990 -0.1048
 1062SOL    HW3 4015   3.868   4.515   6.086 -1.8271  1.9400 -1.4550
 1062SOL    MW4 4016   3.896   4.469   6.017  0.2251 -0.5160 -0.5170
 1063SOL     OW 4017   2.637   2.652   4.010 -0.6367 -0.8560 -0.2617
 1063SOL    HW2 4018   2.710   2.667   4.070 -0.7603 -3.1067  0.5306
 1063SOL    HW3 4019   2.678   2.630   3.927 -0.3836 -1.9864  0.1479
 1063SOL    MW4 4020   2.652   2.651   4.007  0.1737  0.5763  0.0922
 1064SOL     OW 4021   6.378   4.806   2.299 -0.1596  0.1108  0.0700
 1064SOL    HW2 4022   6.345   4.843   2.217 -0.2037 -0.4886 -0.1871
 1064SOL    HW3 4023   6.467   4.840   2.307  0.1347 -0.4701 -0.6418
 1064SOL    MW4 4024   6.385   4.816   2.289 -0.2038 -0.2196  0.4837
 1065SOL     OW 4025   3.135   1.923   5.483  0.1582 -0.5298  0.1953
 1065SOL    HW2 4026   3.087   1.987   5.429 -0.7385 -0.1569  1.3759
 1065SOL    HW3 4027   3.078   1.910   5.559  0.8494 -1.9225  0.4891
 1065SOL    MW4 4028   3.121   1.930   5.486  0.0829  0.2723  0.1945
 1066SOL     OW 4029   2.905   4.405   2.106 -0.8332 -0.5254 -0.3637
 1066SOL    HW2 4030   2.948   4.490   2.093 -0.2947 -0.5509  1.0705
 1066SOL    HW3 4031   2.918   4.359   2.024  2.2326 -0.6588  0.0772
 1066SOL    MW4 4032   2.913   4.410   2.094  0.0056 -0.0084  0.6005
 1067SOL     OW 4033   2.035   5.894   1.894  0.6431 -0.5218 -0.0304
 1067SOL    HW2 4034   2.128   5.895   1.869  1.6471  0.8539  3.2717
 1067SOL    HW3 4035   2.011   5.987   1.897  0.1416 -0.6918  2.2364
 1067SOL    MW4 4036   2.044   5.907   1.891  0.1935 -0.1813 -0.5458
 1068SOL     OW 4037   0.802   0.576   1.869 -0.9264  0.2014 -0.4279
 1068SOL    HW2 4038   0.707   0.566   1.859 -0.5479 -1.5897 -2.9095
 1068SOL    HW3 4039   0.827   0.506   1.929 -1.2088  1.0839  0.7583
 1068SOL    MW4 4040   0.793   0.566   1.876 -0.1437  0.3636 -0.3975
 1069SOL     OW 4041   4.662   4.710   3.476  0.1045  0.0393  0.3381
 1069SOL    HW2 4042   4.707   4.679   3.397 -0.9309 -2.0906  0.5213
 1069SOL    HW3 4043   4.731   4.714   3.543  1.2040  2.7679 -0.7711
 1069SOL    MW4 4044   4.677   4.707   3.474  0.4311  0.2254  0.2147
 1070SOL     OW 4045   2.256   0.332   4.299  0.1562 -0.4441 -0.4252
 1070SOL    HW2 4046   2.192   0.324   4.228  0.0911  0.1206 -0.4289
 1070SOL    HW3 4047   2.246   0.421   4.331  1.1594 -0.2501 -0.6310
 1070SOL    MW4 4048   2.246   0.343   4.294 -0.0508  0.6954 -0.0721
 1071SOL     OW 4049   2.099   5.233   2.858 -0.7068 -0.0377 -0.0510
 1071SOL    HW2 4050   2.101   5.223   2.763 -0.6109 -0.2890 -0.0243
 1071SOL    HW3 4051   2.187   5.208   2.886 -1.2515 -1.6906  0.2637
 1071SOL    MW4 4052   2.111   5.228   2.849 -0.2278  0.2458  0.2260
 1072SOL     OW 4053   0.701   5.675   6.384  0.1993  0.2236  0.0692
 1072SOL    HW2 4054   0.731   5.584   6.387 -1.3384 -0.3315 -0.5695
 1072SOL    HW3 4055   0.721   5.709   6.471  1.7713 -0.3764 -0.0228
 1072SOL    MW4 4056   0.708   5.667   6.396  0.3813 -0.7954  0.2066
 1073SOL     OW 4057   1.447   1.090   4.016  0.1256 -0.1240  0.0553
 1073SOL    HW2 4058   1.531   1.109   4.057  0.3366 -0.4614 -0.2156
 1073SOL    HW3 4059   1.455   0.999   3.986  0.4849  0.5299 -1.9648
 1073SOL    MW4 4060   1.459   1.081   4.018 -0.1695  0.0589 -0.0577
 1074SOL     OW 4061   5.344   5.367   1.081  0.1737 -0.1604  0.8463
 1074SOL    HW2 4062   5.306   5.355   1.168 -1.3744  2.2006  0.5902
 1074SOL    HW3 4063   5.325   5.458   1.059  0.1159 -0.8020 -2.1712
 1074SOL    MW4 4064   5.337   5.377   1.089  1.1787  0.0714  0.0422
 1075SOL     OW 4065   4.733   0.375   3.155  0.2186 -0.0531  0.0690
 1075SOL    HW2 4066   4.793   0.301   3.143  1.7102  1.4169 -2.6210
 1075SOL    HW3 4067   4.775   0.431   3.220  1.6313  0.7046 -1.4131
 1075SOL    MW4 4068   4.746   0.373   3.162 -0.1113  0.1034 -0.1327
 1076SOL     OW 4069   5.222   3.766   5.322  0.3386 -0.1862 -0.3067
 1076SOL    HW2 4070   5.270   3.848   5.334 -0.3010  0.0957  0.3580
 1076SOL    HW3 4071   5.225   3.724   5.408 -2.8608  1.0799  0.5739
 1076SOL    MW4 4072   5.229   3.772   5.335 -0.8831 -0.6911 -0.2016
 1077SOL     OW 4073   4.471   3.348   1.651  0.0422  0.0381 -0.1180
 1077SOL    HW2 4074   4.380   3.378   1.656 -0.5298 -1.6118 -0.0524
 1077SOL    HW3 4075   4.503   3.353   1.741  0.3662  1.5612 -0.2904
 1077SOL    MW4 4076   4.464   3.352   1.663  0.6450 -0.1711  0.6146
 1078SOL     OW 4077   3.107   3.286   3.599  0.2348 -0.4649 -0.7481
 1078SOL    HW2 4078   3.073   3.220   3.660  1.1309  0.2609  0.5934
 1078SOL    HW3 4079   3.199   3.296   3.624  0.1412  1.2165 -0.9783
 1078SOL    MW4 4080   3.115   3.279   3.610 -0.6664  0.0076 -0.2309
 1079SOL     OW 4081   2.865   2.321   1.263 -0.5325  0.1891  0.1198
 1079SOL    HW2 4082   2.870   2.308   1.169  1.4458 -1.4290  0.3905
 1079SOL    HW3 4083   2.795   2.261   1.291  0.3062 -0.9319 -0.1059
 1079SOL    MW4 4084   2.856   2.311   1.255  0.2029 -0.4485  0.0571
 1080SOL     OW 4085   4.391   5.231   3.161 -1.1737 -0.4843 -0.3504
 1080SOL    HW2 4086   4.301   5.209   3.137 -1.8815  1.1686  0.6044
 1080SOL    HW3 4087   4.386   5.257   3.253  0.2544 -0.1562 -0.3359
 1080SOL    MW4 4088   4.379   5.231   3.170  0.6175  0.0400  0.0460
 1081SOL     OW 4089   0.889   6.424   3.737  0.0733  0.1617 -0.4544
 1081SOL    HW2 4090   0.823   6.435   3.805  0.0592  0.2825 -0.4869
 1081SOL    HW3 4091   0.970   6.404   3.785  0.0476  0.1728 -0.4063
 1081SOL    MW4 4092   0.891   6.423   3.753  0.5375 -0.2145 -0.5396
 1082SOL     OW 4093   4.639   1.754   2.210  0.4614 -0.2080 -0.2818
 1082SOL    HW2 4094   4.664   1.693   2.279  2.1515  0.1709 -0.5074
 1082SOL    HW3 4095   4.716   1.759   2.153 -0.4538  0.4219 -1.5132
 1082SOL    MW4 4096   4.653   1.747   2.212 -0.3821  0.0948  0.3027
 1083SOL     OW 4097   2.593   0.156   0.014 -0.1520 -0.1614 -0.5097
 1083SOL    HW2 4098   2.684   0.139  -0.011 -0.4528 -1.0703 -1.0076
 1083SOL    HW3 4099   2.563   0.222  -0.048 -0.9050 -2.4264 -2.6944
 1083SOL    MW4 4100   2.601   0.162   0.003  0.3321 -0.0815  0.3227
 1084SOL     OW 4101   3.417   1.719   5.272  0.7823  0.1994 -0.0774
 1084SOL    HW2 4102   3.420   1.786   5.340  1.2157  0.6832 -0.5677
 1084SOL    HW3 4103   3.328   1.685   5.276  0.6301  0.6365  0.3352
 1084SOL    MW4 4104   3.406   1.723   5.281 -0.4135  0.3574  0.0639
 1085SOL     OW 4105   4.912   2.758   2.162  0.2992 -0.5414 -0.3205
 1085SOL    HW2 4106   4.869   2.673   2.166  1.6472 -1.2766 -0.9899
 1085SOL    HW3 4107   4.987   2.745   2.105 -0.4462  1.5301 -1.9293
 1085SOL    MW4 4108   4.916   2.745   2.155 -0.4034 -0.4329  0.4050
 1086SOL     OW 4109   0.324   0.964   6.084 -0.2813 -0.0731 -0.2068
 1086SOL    HW2 4110   0.394   1.013   6.128 -0.3888  0.3929 -0.5494
 1086SOL    HW3 4111   0.257   0.953   6.151  0.4813 -1.3118  0.3998
 1086SOL    MW4 4112   0.325   0.969   6.099 -0.1156 -0.3245  0.2778
 1087SOL     OW 4113   1.224   6.256   1.745 -0.4412 -0.4063 -0.0389
 1087SOL    HW2 4114   1.233   6.337   1.695  0.5375  0.8014  1.9665
 1087SOL    HW3 4115   1.277   6.192   1.699 -0.0356  0.5048 -0.8476
 1087SOL    MW4 4116   1.232   6.258   1.733 -0.3758 -0.4728 -0.6618
 1088SOL     OW 4117   5.688   4.232   4.524  0.1002  0.5121 -0.0465
 1088SOL    HW2 4118   5.731   4.183   4.593 -0.4797  1.4253  0.9962
 1088SOL    HW3 4119   5.712   4.186   4.443 -0.3622 -1.4210  0.8599
 1088SOL    MW4 4120   5.697   4.220   4.522  0.1597 -0.4628  0.4899
 1089SOL     OW 4121   4.975   3.583   4.072  0.6686 -0.2276 -0.5263
 1089SOL    HW2 4122   4.897   3.636   4.088  1.3367  0.6713 -0.1141
 1089SOL    HW3 4123   5.004   3.557   4.160  1.7640  0.8759 -0.5198
 1089SOL    MW4 4124   4.969   3.587   4.086  0.0752 -1.1650 -0.3863
 1090SOL     OW 4125   4.177   3.715   0.434  0.1374  0.1211 -0.7543
 1090SOL    HW2 4126   4.244   3.756   0.380 -0.6380  3.5571  0.6321
 1090SOL    HW3 4127   4.208   3.728   0.524 -2.8223  2.9535  0.0140
 1090SOL    MW4 4128   4.190   3.722   0.439 -0.0086  0.0995 -0.1325
 1091SOL     OW 4129   0.872   2.708   3.247  0.6619 -0.2465  0.0521
 1091SOL    HW2 4130   0.793   2.761   3.238  1.1928  0.4384 -0.8385
 1091SOL    HW3 4131   0.920   2.723   3.165  1.8895 -0.3479  0.7258
 1091SOL    MW4 4132   0.868   2.717   3.235  0.0708  0.3669 -0.2062
 1092SOL     OW 4133   1.996   3.824   5.938  0.1345  0.3719 -0.0079
 1092SOL    HW2 4134   2.045   3.747   5.908  0.8864 -0.0693  2.1348
 1092SOL    HW3 4135   2.054   3.864   6.003 -0.7966  2.0387 -0.1701
 1092SOL    MW4 4136   2.010   3.819   5.943 -0.3792  0.2921 -0.0184
 1093SOL     OW 4137   0.487   3.264   3.417 -0.2785 -0.2816 -0.2091
 1093SOL    HW2 4138   0.524   3.238   3.502 -0.9803  1.0952  0.5547
 1093SOL    HW3 4139   0.451   3.352   3.433  0.0877  0.2416 -2.0902
 1093SOL    MW4 4140   0.487   3.272   3.431 -0.4039  0.1156  0.0321
 1094SOL     OW 4141   0.651   0.332   0.783  0.3262 -0.1244  0.2547
 1094SOL    HW2 4142   0.650   0.342   0.688  1.3244  1.9862  0.4161
 1094SOL    HW3 4143   0.744   0.335   0.806  0.1795 -1.7124  1.2356
 1094SOL    MW4 4144   0.663   0.333   0.774  0.2074 -0.1163  0.4753
 1095SOL     OW 4145   4.130   0.318   3.983  0.4101  0.5564 -0.0632
 1095SOL    HW2 4146   4.070   0.325   3.908 -0.6726 -2.0753  0.4524
 1095SOL    HW3 4147   4.090   0.373   4.051 -0.3918  0.3354 -0.3417
 1095SOL    MW4 4148   4.117   0.326   3.982  0.0503 -0.6371  0.5131
 1096SOL     OW 4149   3.496   3.909   3.640 -0.0781  0.1612 -0.4178
 1096SOL    HW2 4150   3.533   3.822   3.654  0.9120  0.9733  2.7774
 1096SOL    HW3 4151   3.527   3.961   3.713 -0.8070  3.2121 -2.0838
 1096SOL    MW4 4152   3.505   3.905   3.651 -0.0234 -0.1618 -0.3718
 1097SOL     OW 4153   0.047   1.067   4.837 -0.3937  0.0078  0.5662
 1097SOL    HW2 4154   0.035   0.983   4.883 -0.1953  0.3268  1.2066
 1097SOL    HW3 4155   0.041   1.044   4.744  0.5651 -0.8717  0.6987
 1097SOL    MW4 4156   0.045   1.053   4.831  0.1951  0.2858 -0.3504
 1098SOL     OW 4157   1.176   3.395   4.035 -0.4728 -0.3387  0.0790
 1098SOL    HW2 4158   1.106   3.332   4.052 -0.4089 -0.7280 -0.9954
 1098SOL    HW3 4159   1.190   3.439   4.118  0.1859 -2.4653  1.1928
 1098SOL    MW4 4160   1.169   3.392   4.048 -0.4520  0.1136  0.4537
 1099SOL     OW 4161   2.045   3.359   4.304 -0.1929  0.4346  0.1690
 1099SOL    HW2 4162   1.953   3.388   4.307 -0.5791 -0.5846 -0.9870
 1099SOL    HW3 4163   2.054   3.318   4.218  0.8932 -0.9776  0.9304
 1099SOL    MW4 4164   2.034   3.358   4.293 -0.4978  0.0067  0.0016
 1100SOL     OW 4165   3.942   2.513   2.743 -0.1523  0.0080 -0.1733
 1100SOL    HW2 4166   4.024   2.554   2.716 -0.6640  0.6728 -0.7669
 1100SOL    HW3 4167   3.951   2.501   2.837  1.0510 -0.9159 -0.3744
 1100SOL    MW4 4168   3.954   2.517   2.752  0.6329 -0.4819  0.1173
 1101SOL     OW 4169   3.275   0.384   6.234 -0.2163 -0.0903  0.8236
 1101SOL    HW2 4170   3.342   0.410   6.297 -0.6259  1.6942  0.5900
 1101SOL    HW3 4171   3.247   0.466   6.194  0.9571 -1.2645 -2.6913
 1101SOL    MW4 4172   3.280   0.398   6.237 -0.1976  0.6078 -0.6043
 1102SOL     OW 4173   1.131   1.780   1.112  0.4006 -0.1800 -0.1432
 1102SOL    HW2 4174   1.103   1.699   1.155  0.7843  0.5141  1.5120
 1102SOL    HW3 4175   1.205   1.810   1.164  0.5908  0.9755 -1.0353
 1102SOL    MW4 4176   1.137   1.773   1.125  0.7747 -1.1400  0.0405
 1103SOL     OW 4177   1.120   5.965   0.314  0.7305 -0.6133  0.2692
 1103SOL    HW2 4178   1.196   5.994   0.263  0.8602 -1.4480 -0.0288
 1103SOL    HW3 4179   1.112   5.871   0.294 -0.9769 -0.3371 -0.4761
 1103SOL    MW4 4180   1.129   5.956   0.304 -0.0635  0.2649 -0.0044
 1104SOL     OW 4181   6.357   5.449   3.532 -0.7686 -0.7096  0.2365
 1104SOL    HW2 4182   6.450   5.462   3.512 -0.7864  0.2570  0.7119
 1104SOL    HW3 4183   6.357   5.382   3.601 -0.5922 -2.5293 -1.4507
 1104SOL    MW4 4184   6.369   5.442   3.539 -0.2877 -0.5007 -0.8405
 1105SOL     OW 4185   3.159   5.836   1.889 -0.2563 -0.0281 -0.1725
 1105SOL    HW2 4186   3.072   5.828   1.852  0.0998 -0.0762 -1.0157
 1105SOL    HW3 4187   3.148   5.894   1.964 -1.4551 -2.0407  1.2921
 1105SOL    MW4 4188   3.146   5.843   1.894 -0.1304  0.0729  0.1117
 1106SOL     OW 4189   1.921   6.152   1.917  0.1772 -0.2535 -0.7465
 1106SOL    HW2 4190   1.907   6.213   1.844  1.2838 -0.2759 -1.0066
 1106SOL    HW3 4191   1.836   6.146   1.961 -0.2589  0.5111 -1.4590
 1106SOL    MW4 4192   1.908   6.159   1.913 -0.7921 -0.0180 -0.5120
 1107SOL     OW 4193   3.338   5.689   0.320  0.3392  0.3674 -0.2769
 1107SOL    HW2 4194   3.368   5.757   0.261  1.2950 -1.1039 -1.5351
 1107SOL    HW3 4195   3.401   5.618   0.311 -1.7059 -1.5331 -0.5635
 1107SOL    MW4 4196   3.350   5.689   0.311 -0.1278 -0.0958  0.0403
 1108SOL     OW 4197   1.844   2.122   4.740 -0.2097  0.1296  0.0024
 1108SOL    HW2 4198   1.755   2.155   4.744 -0.6803 -1.2056  1.3107
 1108SOL    HW3 4199   1.874   2.146   4.652 -1.5275  1.3631 -0.1480
 1108SOL    MW4 4200   1.837   2.130   4.729  0.5232 -0.0536  0.4471
 1109SOL     OW 4201   6.251   2.256   5.069 -0.4508 -0.0615 -0.5480
 1109SOL    HW2 4202   6.316   2.257   5.138  0.3222  1.1607 -1.2554
 1109SOL    HW3 4203   6.244   2.164   5.044 -0.9974 -0.5771  1.3413
 1109SOL    MW4 4204   6.259   2.244   5.074 -0.1964  0.1343  0.3952
 1110SOL     OW 4205   4.394   6.310   1.155  0.1583  0.0691  0.5545
 1110SOL    HW2 4206   4.337   6.237   1.132  0.4427 -0.0826  0.3195
 1110SOL    HW3 4207   4.477   6.290   1.110  0.1549  0.6662  0.2733
 1110SOL    MW4 4208   4.398   6.298   1.146 -0.4908 -0.2145  0.2883
 1111SOL     OW 4209   5.390   1.937   4.792 -0.7255 -0.3060 -0.4713
 1111SOL    HW2 4210   5.298   1.918   4.769 -0.9055 -1.1080  0.8072
 1111SOL    HW3 4211   5.404   1.890   4.874  1.1405 -1.0339 -1.1552
 1111SOL    MW4 4212   5.379   1.928   4.800 -0.0860 -0.2509 -0.0834
 1112SOL     OW 4213   5.955   5.434   3.752 -0.0115 -0.0477 -0.2510
 1112SOL    HW2 4214   5.936   5.410   3.842  0.8791  0.1954  0.0080
 1112SOL    HW3 4215   5.950   5.352   3.703 -4.4799  0.2954 -0.7607
 1112SOL    MW4 4216   5.952   5.420   3.757 -0.1326 -0.2121 -0.3883
 1113SOL     OW 4217   0.980   4.222   5.091 -0.0801 -0.0801  0.2310
 1113SOL    HW2 4218   0.965   4.315   5.111 -0.0393 -0.0635  0.1844
 1113SOL    HW3 4219   0.894   4.181   5.101  0.3351 -0.5198  2.8288
 1113SOL    MW4 4220   0.966   4.229   5.095 -0.6521 -0.0562 -0.0918
 1114SOL     OW 4221   2.487   6.247   1.045 -0.0724  0.1612 -0.2699
 1114SOL    HW2 4222   2.457   6.178   0.986 -0.0337  0.0040 -0.1070
 1114SOL    HW3 4223   2.427   6.242   1.120 -0.0927  0.3289 -0.2753
 1114SOL    MW4 4224   2.475   6.237   1.047  0.3809  0.5368  0.2288
 1115SOL     OW 4225   2.419   2.842   4.282 -0.3351  0.0512  0.5231
 1115SOL    HW2 4226   2.382   2.782   4.217 -0.7897  0.9570 -0.0659
 1115SOL    HW3 4227   2.419   2.791   4.363  1.1065 -1.4241 -0.3393
 1115SOL    MW4 4228   2.414   2.827   4.284 -0.4867 -0.1759  0.3921
 1116SOL     OW 4229   0.299   4.677   4.522 -0.5127 -0.4088 -0.4244
 1116SOL    HW2 4230   0.290   4.696   4.429  0.9582  0.5405 -0.4000
 1116SOL    HW3 4231   0.386   4.638   4.531 -1.2479 -2.0114  0.3590
 1116SOL    MW4 4232   0.309   4.674   4.511  0.0746 -0.1386  0.3658
 1117SOL     OW 4233   2.868   1.553   6.286  0.1631 -0.5710 -0.3357
 1117SOL    HW2 4234   2.883   1.647   6.276 -1.2077 -0.1803  0.7848
 1117SOL    HW3 4235   2.861   1.520   6.197 -0.6482  0.6507 -0.7557
 1117SOL    MW4 4236   2.869   1.561   6.273 -0.4906 -0.4600 -0.1286
 1118SOL     OW 4237   4.725   5.360   1.114 -0.4112  0.0934  0.3147
 1118SOL    HW2 4238   4.668   5.334   1.187  1.5688 -1.6403  1.3299
 1118SOL    HW3 4239   4.738   5.280   1.063 -1.2224  1.1261 -1.6466
 1118SOL    MW4 4240   4.719   5.346   1.117  0.4346  0.4441 -0.0794
 1119SOL     OW 4241   3.815   5.303   4.261 -0.0979 -0.1059 -0.1669
 1119SOL    HW2 4242   3.732   5.273   4.225 -0.3145  2.8295 -2.5294
 1119SOL    HW3 4243   3.814   5.398   4.247  1.2428  0.9677  4.9919
 1119SOL    MW4 4244   3.804   5.311   4.254 -0.2281  0.2689  0.0612
 1120SOL     OW 4245   3.496   5.030   2.140 -0.2760  0.1309  0.8135
 1120SOL    HW2 4246   3.522   5.016   2.049 -2.3151 -1.7166  0.4154
 1120SOL    HW3 4247   3.534   4.956   2.187 -1.8898 -0.7675  0.8023
 1120SOL    MW4 4248   3.504   5.018   2.134 -0.3634 -0.2883  0.1182
 1121SOL     OW 4249   0.723   1.757   1.745 -0.5683  0.0436  0.2737
 1121SOL    HW2 4250   0.644   1.709   1.769 -0.0813 -0.2057  1.4152
 1121SOL    HW3 4251   0.721   1.836   1.799  0.9103 -0.8758  1.7123
 1121SOL    MW4 4252   0.712   1.761   1.755 -0.1602  0.7742  0.0620
 1122SOL     OW 4253   5.979   2.344   2.821 -0.3279 -0.3955 -0.0313
 1122SOL    HW2 4254   5.939   2.430   2.834 -1.4190 -0.8125 -0.4958
 1122SOL    HW3 4255   5.922   2.284   2.869 -1.5229 -1.2841 -2.3966
 1122SOL    MW4 4256   5.966   2.348   2.829  0.0096 -0.2399  0.1031
 1123SOL     OW 4257   3.987   1.904   2.700 -0.0211  0.0190 -0.0945
 1123SOL    HW2 4258   3.988   1.999   2.690  0.5543  0.0807  0.4654
 1123SOL    HW3 4259   4.072   1.876   2.667 -0.5667 -0.4151 -1.1872
 1123SOL    MW4 4260   3.998   1.913   2.694 -0.6131  0.1656 -0.0431
 1124SOL     OW 4261   5.116   1.606   2.884 -0.1266 -0.4994  0.0144
 1124SOL    HW2 4262   5.084   1.554   2.959 -0.9143 -2.5582 -1.6349
 1124SOL    HW3 4263   5.169   1.675   2.924  1.4025 -2.8325  2.4048
 1124SOL    MW4 4264   5.119   1.608   2.899 -0.0164  0.2848 -1.1729
 1125SOL     OW 4265   3.684   5.838   6.381 -0.2189 -0.4357  0.0480
 1125SOL    HW2 4266   3.746   5.896   6.337 -0.8309  1.2449  1.3101
 1125SOL    HW3 4267   3.601   5.852   6.335 -0.4860  0.1079  0.6767
 1125SOL    MW4 4268   3.681   5.848   6.369 -0.5242  0.1278  0.8280
 1126SOL     OW 4269   1.117   3.105   2.117 -0.5642  0.0677 -0.6107
 1126SOL    HW2 4270   1.054   3.160   2.069 -2.3484  0.6694  2.1280
 1126SOL    HW3 4271   1.080   3.017   2.111 -0.1091 -0.0782 -1.3404
 1126SOL    MW4 4272   1.104   3.101   2.110  0.0297 -0.2733 -0.4668
 1127SOL     OW 4273   1.453   2.508   0.400 -0.3947  0.5908 -0.5340
 1127SOL    HW2 4274   1.378   2.534   0.347 -0.7880  0.2851 -0.1430
 1127SOL    HW3 4275   1.440   2.554   0.483 -1.8580 -1.7946  0.6941
 1127SOL    MW4 4276   1.441   2.518   0.404 -0.1787  0.6086  0.6375
 1128SOL     OW 4277   6.434   1.758   4.149 -0.6251 -0.1062 -0.2353
 1128SOL    HW2 4278   6.477   1.834   4.109 -2.5581  0.5081 -1.2821
 1128SOL    HW3 4279   6.467   1.756   4.239  1.5877  0.2651 -0.9829
 1128SOL    MW4 4280   6.444   1.768   4.155  0.5146  0.0638  0.0870
 1129SOL     OW 4281   1.869   1.550   0.558  0.0496 -0.4821  0.4250
 1129SOL    HW2 4282   1.818   1.587   0.630 -0.9289 -3.0445  1.1560
 1129SOL    HW3 4283   1.821   1.577   0.479 -0.6775 -0.2634  0.9250
 1129SOL    MW4 4284   1.856   1.558   0.557 -0.1095 -0.1147  0.3361
 1130SOL     OW 4285   2.429   2.111   5.492  0.1595 -0.3442  0.5353
 1130SOL    HW2 4286   2.486   2.187   5.483 -0.9198  0.6054  1.3743
 1130SOL    HW3 4287   2.371   2.115   5.416  1.2105 -1.3455 -0.3515
 1130SOL    MW4 4288   2.429   2.122   5.481  0.8018 -0.6219 -0.3462
 1131SOL     OW 4289   3.450   0.738   5.563 -0.1158 -0.4713 -0.7267
 1131SOL    HW2 4290   3.373   0.703   5.520 -0.0656 -0.5152 -0.7814
 1131SOL    HW3 4291   3.461   0.825   5.524  0.5203 -0.9052 -1.5493
 1131SOL    MW4 4292   3.442   0.745   5.552 -0.0299 -0.1607 -0.1325
 1132SOL     OW 4293   0.428   0.117   4.416 -0.2492  0.2545  0.1631
 1132SOL    HW2 4294   0.504   0.071   4.379  1.1468  2.5376  0.0528
 1132SOL    HW3 4295   0.356   0.092   4.359  0.0017 -3.0809  1.0569
 1132SOL    MW4 4296   0.429   0.107   4.404 -0.3506  0.3877  0.3847
 1133SOL     OW 4297   4.727   3.756   4.139 -0.3735  0.6278 -0.3300
 1133SOL    HW2 4298   4.713   3.839   4.092  0.2047  1.8422  1.5191
 1133SOL    HW3 4299   4.702   3.776   4.230 -1.0959 -1.5142 -0.0094
 1133SOL    MW4 4300   4.722   3.770   4.145 -0.1117  0.0089 -0.2903
 1134SOL     OW 4301   0.229   4.946   0.436  0.2195  0.0291  0.4172
 1134SOL    HW2 4302   0.159   5.012   0.438  0.9182  0.7649  1.1140
 1134SOL    HW3 4303   0.302   4.990   0.393  0.4858 -0.5148  0.3102
 1134SOL    MW4 4304   0.229   4.960   0.431  0.3680  0.1244  0.6600
 1135SOL     OW 4305   4.002   5.838   5.711 -0.2516  0.6354  0.1399
 1135SOL    HW2 4306   4.001   5.923   5.668 -2.4668  1.0151  0.8409
 1135SOL    HW3 4307   3.925   5.793   5.678 -0.2770 -0.2762  1.3709
 1135SOL    MW4 4308   3.992   5.843   5.701 -0.6062 -0.2554  0.3830
 1136SOL     OW 4309   5.546   5.176   1.127  0.1175  0.4626  0.5588
 1136SOL    HW2 4310   5.554   5.184   1.222  2.1112  0.3474  0.4317
 1136SOL    HW3 4311   5.512   5.262   1.099  0.4629  0.8420  1.2728
 1136SOL    MW4 4312   5.542   5.189   1.135 -0.3100 -0.4180 -0.0133
 1137SOL     OW 4313   1.926   5.028   0.222 -0.2124  0.5605 -0.6351
 1137SOL    HW2 4314   1.965   5.073   0.297  2.4034 -0.3087 -1.3549
 1137SOL    HW3 4315   1.973   5.063   0.146 -1.5026  0.0871 -1.6885
 1137SOL    MW4 4316   1.938   5.039   0.222  0.4343  0.4251 -0.2468
 1138SOL     OW 4317   1.628   2.093   2.223  0.2342  0.0144  0.1222
 1138SOL    HW2 4318   1.669   2.023   2.172 -1.6398 -0.4253 -0.8815
 1138SOL    HW3 4319   1.609   2.053   2.307 -1.2049 -0.8638 -0.5855
 1138SOL    MW4 4320   1.631   2.078   2.227 -0.1191 -0.0282  0.3038
 1139SOL     OW 4321   0.976   1.832   0.148 -0.1439 -0.1811 -0.0559
 1139SOL    HW2 4322   1.071   1.843   0.144  0.1432 -2.2261 -0.1828
 1139SOL    HW3 4323   0.941   1.915   0.116  1.5614  1.0379  1.0390
 1139SOL    MW4 4324   0.984   1.844   0.144 -0.1772  0.0330  0.1627
 1140SOL     OW 4325   3.181   4.266   6.198 -0.3283 -0.2122 -0.4597
 1140SOL    HW2 4326   3.088   4.269   6.223 -0.2005  0.7254 -0.0448
 1140SOL    HW3 4327   3.228   4.284   6.280  0.1523  1.3353 -1.0408
 1140SOL    MW4 4328   3.175   4.269   6.212 -0.2290  0.1792  0.0981
 1141SOL     OW 4329   2.660   1.227   0.864  0.1257 -0.1474  0.5027
 1141SOL    HW2 4330   2.689   1.314   0.839  0.1949 -0.4907 -0.6562
 1141SOL    HW3 4331   2.619   1.191   0.786 -1.7044 -0.4203  1.5211
 1141SOL    MW4 4332   2.659   1.234   0.851  0.8226 -0.4553 -0.5306
 1142SOL     OW 4333   0.391   4.780   0.029 -0.8335  0.0818  0.2761
 1142SOL    HW2 4334   0.314   4.835   0.014 -0.0449  1.3126  0.6421
 1142SOL    HW3 4335   0.356   4.690   0.032 -2.2487  0.6166  0.4685
 1142SOL    MW4 4336   0.376   4.775   0.028 -0.2733  0.3924  0.0039
 1143SOL     OW 4337   3.854   0.521   0.828 -0.2490  0.5374  0.0773
 1143SOL    HW2 4338   3.765   0.495   0.804 -0.7801  0.8828  1.5248
 1143SOL    HW3 4339   3.873   0.596   0.773 -0.4182 -0.1889 -1.0049
 1143SOL    MW4 4340   3.845   0.527   0.818 -0.3231 -0.2385 -0.5501
 1144SOL     OW 4341   2.490   1.633   2.524  0.1378 -0.3427 -0.8775
 1144SOL    HW2 4342   2.483   1.608   2.616  1.1272  0.0863 -0.6684
 1144SOL    HW3 4343   2.400   1.641   2.494 -0.2005 -0.0958  0.1685
 1144SOL    MW4 4344   2.477   1.631   2.532  0.4828 -0.4141  0.4238
 1145SOL     OW 4345   3.716   2.579   5.205  0.2735  0.2240  0.0004
 1145SOL    HW2 4346   3.628   2.609   5.181 -0.5137 -0.6186  1.6977
 1145SOL    HW3 4347   3.762   2.658   5.232  0.4167  0.8317 -1.8743
 1145SOL    MW4 4348   3.711   2.593   5.205  0.4586  0.4344 -0.4961
 1146SOL     OW 4349   4.589   0.467   2.459  0.3508  0.1030  0.2758
 1146SOL    HW2 4350   4.515   0.472   2.520 -0.9647 -1.3550 -1.1034
 1146SOL    HW3 4351   4.562   0.521   2.384  1.8928  1.7629  0.8561
 1146SOL    MW4 4352   4.575   0.475   2.457  0.2488 -0.1288 -0.1288
 1147SOL     OW 4353   4.054   4.099   1.992 -0.1846  0.6023  0.2345
 1147SOL    HW2 4354   4.101   4.112   1.910 -0.7926  0.0814 -0.2072
 1147SOL    HW3 4355   4.066   4.006   2.012 -1.7428  0.2322 -0.3612
 1147SOL    MW4 4356   4.062   4.088   1.984  0.2666 -0.2888 -0.0854
 1148SOL     OW 4357   3.631   6.147   5.174 -0.0312 -0.6251 -0.0086
 1148SOL    HW2 4358   3.595   6.073   5.223  0.6951 -0.4238  0.8495
 1148SOL    HW3 4359   3.701   6.108   5.121  0.4022 -0.5463  0.5009
 1148SOL    MW4 4360   3.636   6.132   5.173  0.3611  0.2712  0.3267
 1149SOL     OW 4361   4.934   3.450   5.291 -0.6457  0.0003  0.2484
 1149SOL    HW2 4362   4.919   3.535   5.249 -0.8027 -0.0541  0.1973
 1149SOL    HW3 4363   4.890   3.386   5.235 -0.0014 -0.1931 -0.0521
 1149SOL    MW4 4364   4.927   3.453   5.278 -0.6244  0.3233 -0.0347
 1150SOL     OW 4365   3.430   5.740   5.525  0.4774 -0.4856 -0.1280
 1150SOL    HW2 4366   3.491   5.781   5.463  1.8665 -2.0889  0.0854
 1150SOL    HW3 4367   3.395   5.665   5.476  0.0899 -0.6348  0.3762
 1150SOL    MW4 4368   3.434   5.736   5.510  0.6670 -0.4936 -1.1368
 1151SOL     OW 4369   5.370   3.507   1.900  0.4915  0.1038  0.3763
 1151SOL    HW2 4370   5.438   3.531   1.837  1.4379 -0.8275  1.0150
 1151SOL    HW3 4371   5.393   3.556   1.980 -0.9845  1.6739 -0.1097
 1151SOL    MW4 4372   5.382   3.517   1.903 -0.0991  0.1966  0.0204
 1152SOL     OW 4373   4.901   2.963   4.411  0.2821  0.3967  0.2989
 1152SOL    HW2 4374   4.829   3.005   4.458 -0.4513 -1.0625  0.5448
 1152SOL    HW3 4375   4.881   2.977   4.319  0.6840  1.5793  0.3721
 1152SOL    MW4 4376   4.889   2.971   4.405 -0.4881  0.3591  0.1409
 1153SOL     OW 4377   6.148   1.853   4.616  0.4765 -0.2702  0.2299
 1153SOL    HW2 4378   6.218   1.896   4.665  0.4501 -1.0717  1.0115
 1153SOL    HW3 4379   6.081   1.920   4.604  0.6506  0.0450  0.9873
 1153SOL    MW4 4380   6.148   1.867   4.621 -0.5893 -0.5767  0.3133
 1154SOL     OW 4381   1.074   4.047   3.855 -0.2450  0.0162  0.0961
 1154SOL    HW2 4382   1.040   4.114   3.795  1.0650  1.7729  1.1967
 1154SOL    HW3 4383   1.081   4.092   3.939  0.8657 -1.4713  0.8452
 1154SOL    MW4 4384   1.071   4.062   3.858 -0.4938 -0.1680 -0.5698
 1155SOL     OW 4385   3.861   4.893   2.433  0.4024 -0.2894 -0.3869
 1155SOL    HW2 4386   3.852   4.971   2.488 -0.5641 -0.7483  0.1222
 1155SOL    HW3 4387   3.917   4.835   2.484  3.2431  0.9868 -1.8255
 1155SOL    MW4 4388   3.867   4.896   2.447 -0.2999  0.2269 -0.2132
 1156SOL     OW 4389   3.505   1.810   6.235 -0.1127 -0.2338 -0.4916
 1156SOL    HW2 4390   3.546   1.805   6.321  0.2125  0.1269 -0.6167
 1156SOL    HW3 4391   3.578   1.800   6.173 -0.2010  0.4612 -0.7194
 1156SOL    MW4 4392   3.520   1.808   6.238 -0.2882 -0.0342  0.2958
 1157SOL     OW 4393   0.670   1.357   3.175  0.3131  0.6272  0.6005
 1157SOL    HW2 4394   0.657   1.380   3.267  0.4551 -0.6968  0.9724
 1157SOL    HW3 4395   0.607   1.286   3.159  1.8230 -0.7178  0.3255
 1157SOL    MW4 4396   0.660   1.351   3.185  0.6161 -0.1547  0.0098
 1158SOL     OW 4397   3.621   2.097   2.372  0.6499  0.2597 -0.0001
 1158SOL    HW2 4398   3.620   2.191   2.393  3.8636 -0.1876  2.9946
 1158SOL    HW3 4399   3.550   2.060   2.424 -0.1400  0.9051 -0.5998
 1158SOL    MW4 4400   3.611   2.105   2.381  0.5539 -0.2040 -0.0435
 1159SOL     OW 4401   2.431   4.897   3.379 -0.3099  0.0482 -0.2645
 1159SOL    HW2 4402   2.490   4.822   3.390 -0.4459  0.1783  1.9151
 1159SOL    HW3 4403   2.361   4.880   3.443 -0.5117  1.8663  0.0266
 1159SOL    MW4 4404   2.429   4.885   3.389 -0.5943 -0.1071 -0.1053
 1160SOL     OW 4405   0.486   5.069   3.230  0.7880 -0.2999 -0.0611
 1160SOL    HW2 4406   0.567   5.096   3.271 -0.1061  1.0406  0.8953
 1160SOL    HW3 4407   0.489   5.107   3.143  0.7961  0.5313  0.2920
 1160SOL    MW4 4408   0.497   5.077   3.224  0.4378  0.2533 -0.1226
 1161SOL     OW 4409   1.400   5.804   0.486 -1.1837 -0.6287  0.4458
 1161SOL    HW2 4410   1.331   5.789   0.550  0.2718 -1.3186  1.9311
 1161SOL    HW3 4411   1.379   5.744   0.414 -1.1428 -2.2389  1.7163
 1161SOL    MW4 4412   1.388   5.794   0.485 -0.1498  0.1441 -0.0728
 1162SOL     OW 4413   0.951   1.386   2.190  0.0709 -0.1889  0.3670
 1162SOL    HW2 4414   0.999   1.457   2.148 -1.7974  0.3638 -0.9288
 1162SOL    HW3 4415   1.017   1.341   2.243  1.8717  0.9029 -0.8396
 1162SOL    MW4 4416   0.966   1.389   2.192  0.5187 -0.6524 -0.6141
 1163SOL     OW 4417   1.420   3.285   2.415  0.0857 -0.0072 -0.0741
 1163SOL    HW2 4418   1.332   3.281   2.454 -0.8080 -1.0005 -2.0613
 1163SOL    HW3 4419   1.475   3.235   2.475 -0.6591  0.6848  1.2369
 1163SOL    MW4 4420   1.416   3.278   2.428 -0.1515  0.4155  0.6774
 1164SOL     OW 4421   5.743   0.711   1.233 -0.1702 -0.0722 -0.6671
 1164SOL    HW2 4422   5.679   0.766   1.278  0.4641  0.2613 -0.1459
 1164SOL    HW3 4423   5.770   0.762   1.157  2.1641  1.4475  1.0668
 1164SOL    MW4 4424   5.738   0.725   1.229 -0.0509 -0.3924  0.3805
 1165SOL     OW 4425   4.033   3.836   5.352 -0.3880  0.4888  0.0551
 1165SOL    HW2 4426   3.986   3.785   5.286 -0.7820 -0.7341  1.2341
 1165SOL    HW3 4427   4.123   3.807   5.345  0.0116  1.9307 -1.3628
 1165SOL    MW4 4428   4.038   3.825   5.342 -0.5041 -0.4206  0.1602
 1166SOL     OW 4429   4.937   4.497   2.630 -0.0345  0.4973 -0.1155
 1166SOL    HW2 4430   5.021   4.455   2.613 -1.3917 -1.1425 -3.9941
 1166SOL    HW3 4431   4.956   4.590   2.633  2.0147  0.1130  0.1060
 1166SOL    MW4 4432   4.950   4.504   2.628 -0.4244 -0.4331  0.2714
 1167SOL     OW 4433   0.100   3.229   3.300 -0.0743 -0.6417  0.5021
 1167SOL    HW2 4434   0.162   3.297   3.276  0.3082 -1.2647 -0.3434
 1167SOL    HW3 4435   0.076   3.249   3.391  0.6542  0.1311  0.5385
 1167SOL    MW4 4436   0.105   3.241   3.309 -0.2827  0.0129  0.5053
 1168SOL     OW 4437   1.841   3.498   1.748 -0.2470 -0.4455  0.1925
 1168SOL    HW2 4438   1.850   3.405   1.767 -0.7018 -0.4024  0.6122
 1168SOL    HW3 4439   1.748   3.517   1.760 -0.0754  0.1681  0.5778
 1168SOL    MW4 4440   1.830   3.488   1.752 -0.0817 -0.0455 -0.8086
 1169SOL     OW 4441   6.389   5.594   5.929  0.1510 -0.3302  0.0931
 1169SOL    HW2 4442   6.314   5.537   5.909 -0.7953  0.5364  1.0192
 1169SOL    HW3 4443   6.362   5.641   6.008  0.8469  1.5018 -0.7241
 1169SOL    MW4 4444   6.375   5.593   5.937 -0.8878 -0.2380 -0.1604
 1170SOL     OW 4445   3.566   4.755   4.992 -0.5264  0.3364 -0.0041
 1170SOL    HW2 4446   3.486   4.708   5.016 -0.7881  1.3510  1.1931
 1170SOL    HW3 4447   3.610   4.696   4.931 -1.1845 -1.1581  0.8963
 1170SOL    MW4 4448   3.561   4.741   4.987  0.0060 -0.4259 -0.6984
 1171SOL     OW 4449   5.375   2.398   5.581 -0.3709  0.0625  0.0985
 1171SOL    HW2 4450   5.423   2.439   5.653  1.9739  2.1357 -2.4276
 1171SOL    HW3 4451   5.305   2.459   5.560 -1.3120 -0.7376  0.8100
 1171SOL    MW4 4452   5.372   2.411   5.588 -0.2824 -0.2593  0.0797
 1172SOL     OW 4453   4.409   1.821   2.079 -0.1241 -0.0063  0.0731
 1172SOL    HW2 4454   4.417   1.790   1.989  0.3144 -2.4585  0.8959
 1172SOL    HW3 4455   4.487   1.788   2.124 -1.9509 -1.8758  2.1317
 1172SOL    MW4 4456   4.421   1.813   2.073 -0.5065  0.1814 -0.7252
 1173SOL     OW 4457   6.290   3.128   4.280  0.0069 -0.0188  0.5211
 1173SOL    HW2 4458   6.202   3.163   4.267 -0.4389 -1.6344 -1.3143
 1173SOL    HW3 4459   6.277   3.052   4.336 -0.1594 -1.5288 -1.4492
 1173SOL    MW4 4460   6.276   3.122   4.286  0.1117  0.0628  0.9573
 1174SOL     OW 4461   0.677   6.293   3.287 -0.2394 -0.9006 -0.4885
 1174SOL    HW2 4462   0.715   6.374   3.252 -1.0597 -0.7125 -0.9603
 1174SOL    HW3 4463   0.742   6.262   3.351 -0.7569  1.1430  1.1252
 1174SOL    MW4 4464   0.691   6.300   3.291  0.3580 -0.2011  1.0343
 1175SOL     OW 4465   4.538   1.905   4.450  0.4041 -0.0161  0.0591
 1175SOL    HW2 4466   4.564   1.911   4.542  0.1636 -1.6169  0.2604
 1175SOL    HW3 4467   4.601   1.844   4.411 -0.8623 -1.1459 -0.2781
 1175SOL    MW4 4468   4.550   1.898   4.457  0.3631 -0.2218  0.7013
 1176SOL     OW 4469   4.050   0.166   0.763 -0.7283  0.2291 -0.2493
 1176SOL    HW2 4470   4.115   0.203   0.703  1.2584 -2.5880 -0.0632
 1176SOL    HW3 4471   4.015   0.090   0.715 -3.8289  1.4908 -0.2322
 1176SOL    MW4 4472   4.054   0.161   0.749  0.6289  0.2575 -0.5794
 1177SOL     OW 4473   3.931   3.767   1.449 -0.3160 -0.7637  0.2222
 1177SOL    HW2 4474   3.990   3.721   1.509  1.3687  1.1450  0.1653
 1177SOL    HW3 4475   3.943   3.860   1.471 -1.5293 -0.1787 -1.4082
 1177SOL    MW4 4476   3.941   3.773   1.460  0.0300 -0.0607  0.7503
 1178SOL     OW 4477   0.676   3.045   4.730  0.5259  0.5413 -0.4393
 1178SOL    HW2 4478   0.769   3.036   4.753  0.2161 -1.4955  0.2244
 1178SOL    HW3 4479   0.672   3.020   4.638  0.5977  0.4591 -0.4198
 1178SOL    MW4 4480   0.688   3.041   4.721  0.4079  0.0672 -0.0464
 1179SOL     OW 4481   5.646   6.264   3.490  0.0940  0.2046  0.0168
 1179SOL    HW2 4482   5.717   6.201   3.481  0.0093  0.2092 -0.6944
 1179SOL    HW3 4483   5.614   6.278   3.401  0.8834  2.1400 -0.0274
 1179SOL    MW4 4484   5.651   6.258   3.477 -0.5844  0.0105  0.6936
 1180SOL     OW 4485   5.109   0.048   0.454  0.1100 -0.3281  0.1219
 1180SOL    HW2 4486   5.065   0.132   0.436  0.3199  0.2801  2.1942
 1180SOL    HW3 4487   5.130   0.014   0.368  0.9230  2.2442 -0.7991
 1180SOL    MW4 4488   5.106   0.055   0.440  0.0167 -0.2559 -0.0113
 1181SOL     OW 4489   1.948   4.996   5.672 -0.5243 -0.7413 -0.0066
 1181SOL    HW2 4490   1.873   5.023   5.619 -0.4248 -1.0370 -0.3061
 1181SOL    HW3 4491   1.937   4.901   5.681 -0.7617 -0.6349  0.8552
 1181SOL    MW4 4492   1.937   4.987   5.666 -0.2383 -0.0508  0.3427
 1182SOL     OW 4493   0.658   1.936   3.003 -0.3425  0.3678  0.7182
 1182SOL    HW2 4494   0.603   1.872   3.048 -0.1838 -1.1818 -1.1300
 1182SOL    HW3 4495   0.608   2.018   3.007 -1.2333 -0.1994  1.9009
 1182SOL    MW4 4496   0.644   1.938   3.009 -0.2855  0.3054  0.0629
 1183SOL     OW 4497   6.011   4.230   4.194 -0.0396  0.1176  0.2958
 1183SOL    HW2 4498   5.928   4.196   4.228  0.8405 -4.3205 -1.2282
 1183SOL    HW3 4499   6.078   4.181   4.241  1.7567  2.7602  0.6750
 1183SOL    MW4 4500   6.008   4.219   4.204  0.0122 -0.7509 -0.0485
 1184SOL     OW 4501   5.739   1.277   0.495  0.4223  0.1331  0.4364
 1184SOL    HW2 4502   5.760   1.195   0.539 -0.3975 -0.9928 -1.2074
 1184SOL    HW3 4503   5.767   1.264   0.405 -2.6389  0.4054 -0.6592
 1184SOL    MW4 4504   5.746   1.265   0.489  0.6289  0.0792 -0.4244
 1185SOL     OW 4505   0.776   0.956   0.144 -0.4652 -0.4491 -0.0475
 1185SOL    HW2 4506   0.749   0.877   0.190  0.0977 -0.1135  0.8934
 1185SOL    HW3 4507   0.868   0.942   0.123 -0.3185  0.0255  0.2692
 1185SOL    MW4 4508   0.785   0.944   0.147  0.0667 -0.5791  0.5792
 1186SOL     OW 4509   5.250   2.614   6.293  0.2564  0.1770 -0.3825
 1186SOL    HW2 4510   5.205   2.659   6.221  0.4283  0.1714 -0.4935
 1186SOL    HW3 4511   5.217   2.657   6.372 -0.4696 -0.2909 -0.4227
 1186SOL    MW4 4512   5.239   2.626   6.294 -0.3105 -0.4235 -0.2456
 1187SOL     OW 4513   2.068   4.479   2.033  0.4252 -0.4791  0.1843
 1187SOL    HW2 4514   2.140   4.517   1.982 -0.0469  1.9292  1.1759
 1187SOL    HW3 4515   2.111   4.432   2.104  1.0458  0.5125  0.4776
 1187SOL    MW4 4516   2.083   4.478   2.035  0.6033 -0.5366  0.0639
 1188SOL     OW 4517   2.098   5.104  -0.001 -0.2703  0.5159 -0.0063
 1188SOL    HW2 4518   2.157   5.176  -0.024 -1.5183  0.8543 -2.4381
 1188SOL    HW3 4519   2.156   5.035   0.032  1.1805  1.7856  0.1900
 1188SOL    MW4 4520   2.114   5.104   0.000 -0.0461  0.1354 -0.1694
 1189SOL     OW 4521   1.077   0.497   5.412  0.3603 -0.0139  0.0601
 1189SOL    HW2 4522   1.034   0.538   5.336 -0.0225  1.0164  0.8012
 1189SOL    HW3 4523   1.035   0.412   5.419  0.3067 -0.0743 -0.8046
 1189SOL    MW4 4524   1.066   0.491   5.403  0.2025 -0.0796  0.1590
 1190SOL     OW 4525   5.070   5.427   3.250 -0.2379 -0.0578 -0.7650
 1190SOL    HW2 4526   5.062   5.368   3.175 -1.3495 -1.0404  0.0739
 1190SOL    HW3 4527   5.066   5.369   3.326 -0.9326  1.0610  0.0824
 1190SOL    MW4 4528   5.068   5.411   3.250 -0.2768  0.1339  0.2480
 1191SOL     OW 4529   5.660   2.072   6.115 -0.1243 -0.0315  0.4822
 1191SOL    HW2 4530   5.625   2.142   6.060  1.6758  0.4715 -0.0972
 1191SOL    HW3 4531   5.685   2.115   6.197 -1.0801 -0.4351  1.0001
 1191SOL    MW4 4532   5.659   2.087   6.119  0.0724 -0.4896  0.2557
 1192SOL     OW 4533   6.465   0.127   4.598 -0.3836 -0.4053  0.2622
 1192SOL    HW2 4534   6.510   0.211   4.596  0.9483 -1.0159  1.9119
 1192SOL    HW3 4535   6.443   0.109   4.506 -0.1717  1.4360 -0.1859
 1192SOL    MW4 4536   6.468   0.136   4.586 -0.3011 -0.3463 -0.7078
 1193SOL     OW 4537   0.792   4.243   4.007  0.2320 -0.2295  0.7287
 1193SOL    HW2 4538   0.697   4.252   3.999 -0.1274 -2.6433  1.4646
 1193SOL    HW3 4539   0.827   4.287   3.929 -1.5511 -0.2774 -0.1391
 1193SOL    MW4 4540   0.784   4.250   3.996 -0.3547  0.0138 -0.5116
 1194SOL     OW 4541   3.524   1.065   2.718  0.0184  0.1551 -0.3035
 1194SOL    HW2 4542   3.430   1.074   2.702  0.4512  1.4342 -2.5962
 1194SOL    HW3 4543   3.544   1.135   2.780 -0.3955  0.5780 -0.6342
 1194SOL    MW4 4544   3.514   1.075   2.724 -0.2495  0.1101  0.1001
 1195SOL     OW 4545   2.144   4.017   3.612  0.0115  0.0587 -0.1985
 1195SOL    HW2 4546   2.197   4.097   3.608  0.8938 -0.4544  0.5900
 1195SOL    HW3 4547   2.058   4.046   3.642  0.1796  0.7807 -0.4091
 1195SOL    MW4 4548   2.140   4.031   3.616  0.0871 -0.1469 -0.0801
 1196SOL     OW 4549   3.705   2.425   2.153 -0.5185 -0.2197 -0.0987
 1196SOL    HW2 4550   3.613   2.398   2.162 -0.6763  0.7053  1.6262
 1196SOL    HW3 4551   3.755   2.346   2.171 -0.9334 -1.0517 -2.3126
 1196SOL    MW4 4552   3.699   2.411   2.156 -0.3518  0.2644  0.1935
 1197SOL     OW 4553   4.391   5.546   4.872  0.5277 -0.3816  0.0801
 1197SOL    HW2 4554   4.393   5.611   4.943  1.1466  1.2268 -1.3566
 1197SOL    HW3 4555   4.481   5.542   4.841 -0.1190  0.6189 -2.0717
 1197SOL    MW4 4556   4.403   5.554   4.877  0.7629 -0.0334 -0.1693
 1198SOL     OW 4557   5.011   3.505   1.426 -0.3274 -0.5502 -1.0891
 1198SOL    HW2 4558   4.929   3.459   1.410 -1.4128  0.5038  0.9879
 1198SOL    HW3 4559   5.021   3.503   1.521  1.9959 -0.5104 -1.2922
 1198SOL    MW4 4560   5.001   3.499   1.436 -0.5432  0.0842  0.5507
 1199SOL     OW 4561   6.053   5.353   5.596 -0.3145  0.1539 -0.0828
 1199SOL    HW2 4562   6.076   5.399   5.677 -0.0565  1.0472 -0.6552
 1199SOL    HW3 4563   6.096   5.403   5.527 -0.0898 -0.9154 -0.7284
 1199SOL    MW4 4564   6.061   5.366   5.597 -0.3562  0.0808 -0.3913
 1200SOL     OW 4565   2.131   1.146   3.845 -0.4898 -0.4853 -0.0523
 1200SOL    HW2 4566   2.074   1.218   3.819 -0.8534 -0.0470  1.7824
 1200SOL    HW3 4567   2.200   1.189   3.896  2.2104 -0.8328 -3.0635
 1200SOL    MW4 4568   2.133   1.161   3.848  0.0178 -0.4443  0.0255
 1201SOL     OW 4569   5.069   5.999   5.786  0.5092 -0.1988 -0.6582
 1201SOL    HW2 4570   5.036   5.911   5.768 -2.6587  0.7052 -0.0010
 1201SOL    HW3 4571   5.074   6.003   5.882 -0.4374  0.6071 -0.6190
 1201SOL    MW4 4572   5.065   5.988   5.796  0.2685 -0.4599 -0.5230
 1202SOL     OW 4573   3.432   0.237   0.961 -0.2499  0.2267 -0.5073
 1202SOL    HW2 4574   3.512   0.230   1.013 -0.2030  0.0193 -0.6080
 1202SOL    HW3 4575   3.396   0.149   0.960 -2.6547  0.9644  2.9479
 1202SOL    MW4 4576   3.438   0.225   0.968  0.1479 -0.3931  0.0135
 1203SOL     OW 4577   2.967   3.652   1.621  0.1645  0.1104 -0.3086
 1203SOL    HW2 4578   2.950   3.738   1.659  0.5132  0.5528 -1.1295
 1203SOL    HW3 4579   2.892   3.599   1.649 -0.3696  0.8486 -0.2907
 1203SOL    MW4 4580   2.955   3.657   1.630  0.1241 -0.1691  0.6047
 1204SOL     OW 4581   5.309   6.314   3.885  0.9301 -0.3378  0.1719
 1204SOL    HW2 4582   5.271   6.386   3.936 -1.1204 -0.1450 -1.4598
 1204SOL    HW3 4583   5.270   6.235   3.922 -1.0176 -0.1586 -1.3316
 1204SOL    MW4 4584   5.299   6.313   3.896  0.1176 -0.2663 -0.4302
 1205SOL     OW 4585   1.987   0.849   5.355  0.8387  0.1801 -0.6961
 1205SOL    HW2 4586   1.923   0.866   5.285  0.2800 -0.4602 -0.3495
 1205SOL    HW3 4587   1.934   0.842   5.434  1.4326  0.4957 -0.2611
 1205SOL    MW4 4588   1.972   0.851   5.356 -0.0193  0.2795 -0.0112
 1206SOL     OW 4589   5.358   4.119   3.522 -0.5836  0.0743  0.4707
 1206SOL    HW2 4590   5.380   4.196   3.575  0.3057  1.6437 -1.9989
 1206SOL    HW3 4591   5.431   4.059   3.536  0.7754  1.3981 -0.5704
 1206SOL    MW4 4592   5.371   4.121   3.531  0.2429  0.4050  0.2495
 1207SOL     OW 4593   1.475   4.569   1.281 -0.7978 -0.0231 -0.5051
 1207SOL    HW2 4594   1.414   4.567   1.355 -0.6704 -1.1438 -0.4089
 1207SOL    HW3 4595   1.556   4.532   1.317 -0.7661 -0.6751 -1.2270
 1207SOL    MW4 4596   1.478   4.564   1.296 -0.1199 -0.1030 -0.3280
 1208SOL     OW 4597   0.416   3.230   2.017 -0.0275 -0.3888 -0.3451
 1208SOL    HW2 4598   0.399   3.320   2.048 -0.3932  0.3191 -2.4359
 1208SOL    HW3 4599   0.442   3.241   1.925  2.3521 -2.2559  0.0057
 1208SOL    MW4 4600   0.417   3.244   2.009 -0.0730  0.1305  0.8705
 1209SOL     OW 4601   0.685   2.031   6.009 -0.4650 -0.3903  0.1662
 1209SOL    HW2 4602   0.709   2.116   5.971 -0.1690 -1.1615 -1.4568
 1209SOL    HW3 4603   0.639   2.053   6.090  0.8517  1.2815  0.5127
 1209SOL    MW4 4604   0.682   2.045   6.015  0.6155 -0.3104 -0.1056
 1210SOL     OW 4605   5.388   6.323   4.678  0.3856  0.0780  0.5418
 1210SOL    HW2 4606   5.373   6.417   4.672  1.5106  0.3627  1.7995
 1210SOL    HW3 4607   5.477   6.310   4.647 -0.5631 -0.9390 -2.0217
 1210SOL    MW4 4608   5.398   6.334   4.673  0.3299 -0.4838  0.3009
 1211SOL     OW 4609   1.130   5.089   4.545  0.3807 -0.1225  0.5595
 1211SOL    HW2 4610   1.047   5.123   4.579 -0.6784 -1.4698 -0.5546
 1211SOL    HW3 4611   1.186   5.166   4.535 -1.3357  1.0604 -0.2801
 1211SOL    MW4 4612   1.127   5.103   4.548  0.0593 -0.0119  0.4003
 1212SOL     OW 4613   2.286   5.471   0.912 -0.1472 -0.4818 -0.7139
 1212SOL    HW2 4614   2.246   5.553   0.884  1.2325  1.0209  1.3697
 1212SOL    HW3 4615   2.214   5.409   0.918 -1.8353  1.5100  0.8470
 1212SOL    MW4 4616   2.271   5.473   0.909  0.2557  0.0790 -0.0615
 1213SOL     OW 4617   4.860   2.407   2.588  0.1587  0.2501  0.6545
 1213SOL    HW2 4618   4.880   2.412   2.682 -0.6891  2.1670  0.7814
 1213SOL    HW3 4619   4.899   2.487   2.551  2.7489 -1.6635 -1.1520
 1213SOL    MW4 4620   4.868   2.418   2.595 -0.2070 -0.1635 -0.4593
 1214SOL     OW 4621   4.984   1.767   4.642  0.1092 -0.3969 -0.2439
 1214SOL    HW2 4622   5.026   1.852   4.654  0.9626 -0.7847 -0.3735
 1214SOL    HW3 4623   4.895   1.779   4.675  0.8625 -0.0565  1.8119
 1214SOL    MW4 4624   4.978   1.780   4.648  0.5056  0.0581 -0.0497
 1215SOL     OW 4625   1.306   5.203   2.423  0.4248  0.6226 -0.1798
 1215SOL    HW2 4626   1.229   5.196   2.480  0.5775  1.3794  0.1312
 1215SOL    HW3 4627   1.376   5.163   2.474  0.3729  0.4853 -0.2136
 1215SOL    MW4 4628   1.305   5.197   2.438  0.5316  0.5311  0.2311
 1216SOL     OW 4629   0.795   5.707   3.399 -0.1250 -0.0062  1.0402
 1216SOL    HW2 4630   0.836   5.778   3.450 -0.5839  0.5300  0.6683
 1216SOL    HW3 4631   0.866   5.673   3.345  0.1478  0.0274  1.3686
 1216SOL    MW4 4632   0.810   5.712   3.399  0.5308 -0.1160 -0.1129
 1217SOL     OW 4633   1.924   4.894   5.345  0.1940  0.0325  0.3379
 1217SOL    HW2 4634   2.018   4.903   5.330  0.3251 -0.1721  0.9809
 1217SOL    HW3 4635   1.911   4.800   5.355 -0.0080  0.0939  0.6699
 1217SOL    MW4 4636   1.935   4.883   5.345  0.0389  0.3991 -0.2973
 1218SOL     OW 4637   3.988   0.563   5.016  0.5545 -0.3459 -0.3944
 1218SOL    HW2 4638   3.962   0.479   5.056  0.8434 -0.3559 -0.2275
 1218SOL    HW3 4639   4.046   0.539   4.944  1.3080 -0.2557  0.1695
 1218SOL    MW4 4640   3.992   0.549   5.012  0.2758  0.4965 -0.4680
 1219SOL     OW 4641   1.270   2.301   2.267 -0.6929 -0.4294  0.3901
 1219SOL    HW2 4642   1.189   2.344   2.240 -0.2593 -0.4393 -1.0410
 1219SOL    HW3 4643   1.245   2.209   2.279 -0.9893 -0.3514  0.3879
 1219SOL    MW4 4644   1.256   2.294   2.265  0.0169  0.2847 -0.1599
 1220SOL     OW 4645   3.284   3.081   1.341 -0.0293  0.0381 -0.1782
 1220SOL    HW2 4646   3.207   3.046   1.296  0.1763 -0.0796 -0.4449
 1220SOL    HW3 4647   3.282   3.175   1.322  0.1124 -0.0268 -0.5223
 1220SOL    MW4 4648   3.273   3.089   1.333  0.1135  0.8027  0.4627
 1221SOL     OW 4649   6.399   5.410   2.358 -0.1283  0.1225 -0.1598
 1221SOL    HW2 4650   6.399   5.320   2.392  0.9936  0.3052  0.3707
 1221SOL    HW3 4651   6.309   5.440   2.371 -0.8944 -1.3598 -1.5921
 1221SOL    MW4 4652   6.387   5.402   2.364 -1.3061  0.5427 -0.0020
 1222SOL     OW 4653   2.168   2.724   0.532 -0.6814 -0.1274  0.0277
 1222SOL    HW2 4654   2.185   2.631   0.518 -1.5331 -0.0984 -1.3266
 1222SOL    HW3 4655   2.080   2.727   0.572 -0.0462  0.0421  1.5001
 1222SOL    MW4 4656   2.158   2.712   0.536 -0.0424 -0.2917  0.0377
 1223SOL     OW 4657   1.717   5.416   4.550  0.5180 -0.3708 -0.3548
 1223SOL    HW2 4658   1.666   5.484   4.594  0.8552 -0.7408  0.6354
 1223SOL    HW3 4659   1.652   5.359   4.511  0.2268  0.3791 -0.9915
 1223SOL    MW4 4660   1.702   5.418   4.551  0.2579 -0.5925  0.0673
 1224SOL     OW 4661   0.951   1.425   0.600 -0.3847  0.1262 -0.4510
 1224SOL    HW2 4662   0.888   1.427   0.672  0.7958 -0.5530  0.6583
 1224SOL    HW3 4663   1.028   1.471   0.634  0.5383 -1.0066 -0.9085
 1224SOL    MW4 4664   0.953   1.431   0.614  0.2039  0.1632 -0.0268
 1225SOL     OW 4665   6.281   3.561   2.801 -0.2841  0.3725  0.0885
 1225SOL    HW2 4666   6.238   3.636   2.761  2.4661  1.2462 -1.5661
 1225SOL    HW3 4667   6.234   3.485   2.767 -0.9259  1.2747 -1.1165
 1225SOL    MW4 4668   6.269   3.561   2.791  0.0011  0.2416 -0.3431
 1226SOL     OW 4669   1.447   2.951   4.973  0.0947  0.6658 -0.2765
 1226SOL    HW2 4670   1.419   2.861   4.956  1.7855  0.2383 -0.9176
 1226SOL    HW3 4671   1.382   3.005   4.927 -0.3514 -0.2474 -0.7438
 1226SOL    MW4 4672   1.435   2.946   4.965 -0.4118 -0.2698 -0.0623
 1227SOL     OW 4673   0.156   4.601   3.248 -0.2445 -0.1540 -0.0009
 1227SOL    HW2 4674   0.197   4.656   3.182 -0.9823  1.6677  0.9672
 1227SOL    HW3 4675   0.176   4.644   3.331  0.0947 -2.0034  0.9266
 1227SOL    MW4 4676   0.164   4.614   3.251 -0.2558  0.0261  0.4501
 1228SOL     OW 4677   1.264   1.271   6.114 -0.8204  0.3100 -0.1631
 1228SOL    HW2 4678   1.332   1.204   6.117 -0.6525  0.5239  1.5780
 1228SOL    HW3 4679   1.285   1.322   6.036  1.1530  0.5029  0.4441
 1228SOL    MW4 4680   1.275   1.269   6.104  0.6223  0.0168 -0.0840
 1229SOL     OW 4681   3.988   3.168   2.659 -0.0721 -0.1235 -0.4263
 1229SOL    HW2 4682   3.929   3.154   2.734  0.6567  0.8856  0.3749
 1229SOL    HW3 4683   4.074   3.146   2.693  0.0969 -1.1356 -1.4546
 1229SOL    MW4 4684   3.991   3.163   2.674 -0.1386  0.5144  0.1717
 1230SOL     OW 4685   2.334   4.910   2.286 -0.1237  0.0955 -0.2727
 1230SOL    HW2 4686   2.326   4.829   2.336 -0.0449  0.6041  0.5710
 1230SOL    HW3 4687   2.245   4.927   2.254 -0.3347  0.1590  0.3259
 1230SOL    MW4 4688   2.321   4.902   2.288 -0.3225  0.3216  0.3625
 1231SOL     OW 4689   3.243   0.605   5.437  0.2357 -0.3976 -0.3514
 1231SOL    HW2 4690   3.148   0.594   5.426  0.2724 -1.8313  0.5243
 1231SOL    HW3 4691   3.279   0.582   5.352 -0.2018  0.6127 -0.8391
 1231SOL    MW4 4692   3.235   0.601   5.424  0.4073  0.2085 -0.1645
 1232SOL     OW 4693   2.093   3.122   6.415 -0.0534  0.2050  0.0654
 1232SOL    HW2 4694   2.089   3.213   6.388 -0.4738  0.4822  1.0182
 1232SOL    HW3 4695   2.033   3.116   6.490 -0.5824 -1.0143 -0.4282
 1232SOL    MW4 4696   2.085   3.133   6.422  0.4307 -0.5041  0.1788
 1233SOL     OW 4697   4.120   4.576   3.065 -0.3219  0.0180  0.0085
 1233SOL    HW2 4698   4.200   4.528   3.082 -0.3786  0.2182  0.8568
 1233SOL    HW3 4699   4.075   4.525   2.998  0.3103 -0.3175 -0.1647
 1233SOL    MW4 4700   4.124   4.563   3.058  0.1890  0.4497  0.5591
 1234SOL     OW 4701   0.681   4.658   3.350  0.0092  0.5917 -0.1929
 1234SOL    HW2 4702   0.685   4.573   3.393  0.5569 -0.1893 -1.7262
 1234SOL    HW3 4703   0.607   4.650   3.289  0.2942  1.0904 -0.6082
 1234SOL    MW4 4704   0.672   4.646   3.347 -0.5251  0.2066  0.2788
 1235SOL     OW 4705   0.824   3.615   3.957 -0.6505 -0.1504 -0.3008
 1235SOL    HW2 4706   0.798   3.538   4.007 -1.7223 -1.2177 -2.3905
 1235SOL    HW3 4707   0.846   3.680   4.024 -1.7175 -1.5723  1.5401
 1235SOL    MW4 4708   0.824   3.614   3.972  0.3177  0.1984  0.1470
 1236SOL     OW 4709   3.298   6.165   5.470  0.0924 -0.2247 -0.0385
 1236SOL    HW2 4710   3.356   6.240   5.486 -0.0276 -0.0743 -0.3085
 1236SOL    HW3 4711   3.338   6.093   5.519  0.1206  0.0545  0.3538
 1236SOL    MW4 4712   3.311   6.165   5.479  0.4040 -0.3182 -0.2433
 1237SOL     OW 4713   0.797   5.683   1.607 -0.2978 -0.1397  0.4578
 1237SOL    HW2 4714   0.890   5.662   1.600 -0.7578 -2.3510  0.4421
 1237SOL    HW3 4715   0.753   5.613   1.560 -1.9633  1.2744 -0.1828
 1237SOL    MW4 4716   0.804   5.671   1.600  0.3559  0.1944  0.1152
 1238SOL     OW 4717   5.468   0.104   5.234  0.3872 -0.3619 -0.3505
 1238SOL    HW2 4718   5.497   0.189   5.200  1.5610 -0.7488 -0.3419
 1238SOL    HW3 4719   5.531   0.082   5.302  0.1805 -1.3070 -0.4456
 1238SOL    MW4 4720   5.480   0.112   5.238  0.1655  0.2167 -0.0774
 1239SOL     OW 4721   4.917   2.994   2.958  0.5904 -0.2902 -0.3841
 1239SOL    HW2 4722   4.962   3.077   2.975  0.4522 -0.1835 -0.5435
 1239SOL    HW3 4723   4.931   2.978   2.865  0.4451 -0.3458 -0.3959
 1239SOL    MW4 4724   4.925   3.003   2.948 -0.0821  0.2613  0.5737
 1240SOL     OW 4725   6.395   1.521   5.047 -0.1011  0.1547 -0.0827
 1240SOL    HW2 4726   6.329   1.540   5.115  0.7442 -1.1710  1.1804
 1240SOL    HW3 4727   6.373   1.433   5.017  0.5870  0.0475 -0.2784
 1240SOL    MW4 4728   6.383   1.512   5.052 -0.2922  0.1382 -0.0361
 1241SOL     OW 4729   5.810   6.430   2.869  0.3366  0.8232 -0.3328
 1241SOL    HW2 4730   5.906   6.430   2.863  0.3997  1.8984  0.3369
 1241SOL    HW3 4731   5.782   6.356   2.814  1.5082  0.9475 -1.1366
 1241SOL    MW4 4732   5.819   6.420   2.861 -0.1120 -0.3485  0.0682
 1242SOL     OW 4733   0.868   3.311   5.302 -0.0962  0.1617 -0.7519
 1242SOL    HW2 4734   0.877   3.263   5.219  2.8662 -0.7045 -0.0205
 1242SOL    HW3 4735   0.866   3.403   5.276 -0.8046 -0.1433 -1.8590
 1242SOL    MW4 4736   0.869   3.316   5.287  0.5181  0.0090  0.3776
 1243SOL     OW 4737   6.324   4.191   5.036  0.5118 -0.2099 -0.6010
 1243SOL    HW2 4738   6.363   4.175   5.122 -1.2868  0.1348  0.3333
 1243SOL    HW3 4739   6.298   4.105   5.005  0.1204 -0.2208 -0.2575
 1243SOL    MW4 4740   6.326   4.178   5.044 -0.1943 -0.1918 -0.2358
 1244SOL     OW 4741   3.055   3.853   2.436 -0.1691  0.3979  0.0794
 1244SOL    HW2 4742   2.980   3.911   2.421  0.7142  1.4753 -0.3516
 1244SOL    HW3 4743   3.106   3.897   2.504 -0.3929 -0.8076  1.0730
 1244SOL    MW4 4744   3.052   3.867   2.443 -0.0524 -0.1525 -0.7983
 1245SOL     OW 4745   0.478   0.614   5.128 -0.2979 -0.2110  0.2900
 1245SOL    HW2 4746   0.440   0.566   5.201 -1.0748 -0.6647 -0.3798
 1245SOL    HW3 4747   0.569   0.628   5.152  0.0843 -2.4214  0.3360
 1245SOL    MW4 4748   0.485   0.609   5.141  0.0301 -0.5231  0.4018
 1246SOL     OW 4749   6.333   3.569   2.400 -0.2871 -0.4372  0.0309
 1246SOL    HW2 4750   6.295   3.483   2.416 -0.0965 -0.6317 -0.5270
 1246SOL    HW3 4751   6.417   3.551   2.356  0.0211  0.0104  0.4228
 1246SOL    MW4 4752   6.339   3.555   2.396 -0.0076 -0.1550 -0.0036
 1247SOL     OW 4753   6.205   0.250   5.721  0.4473 -0.1346  0.0968
 1247SOL    HW2 4754   6.151   0.197   5.779 -2.5787 -0.1474 -2.4561
 1247SOL    HW3 4755   6.196   0.207   5.635  2.4310  1.4317 -0.9803
 1247SOL    MW4 4756   6.197   0.237   5.717 -0.1950  0.7881 -0.7520
 1248SOL     OW 4757   5.548   0.855   0.507  0.4395 -0.1449 -0.1181
 1248SOL    HW2 4758   5.513   0.937   0.542 -0.6036 -0.9366  0.8016
 1248SOL    HW3 4759   5.537   0.862   0.412 -0.3755  0.4650  0.0114
 1248SOL    MW4 4760   5.542   0.867   0.499  0.3918  0.5801 -0.0177
 1249SOL     OW 4761   3.230   3.471   3.255 -0.0560  0.2779 -0.3099
 1249SOL    HW2 4762   3.290   3.455   3.327 -0.6330 -2.1952 -0.3010
 1249SOL    HW3 4763   3.276   3.535   3.200  1.3944  0.4642  1.0384
 1249SOL    MW4 4764   3.244   3.477   3.257 -0.7617  0.2639 -0.0860
 1250SOL     OW 4765   6.067   1.597   3.700  0.3447 -0.0769 -0.1550
 1250SOL    HW2 4766   6.142   1.552   3.740  1.0267  1.0360 -0.1340
 1250SOL    HW3 4767   6.069   1.684   3.738  1.0564  1.0761 -2.6263
 1250SOL    MW4 4768   6.077   1.602   3.710  0.0118 -0.3885 -0.5520
 1251SOL     OW 4769   0.387   4.414   1.170 -0.1724  0.0320  0.0089
 1251SOL    HW2 4770   0.354   4.462   1.246  0.3562 -0.0088  0.2672
 1251SOL    HW3 4771   0.451   4.473   1.130 -0.8321  0.2687 -0.7144
 1251SOL    MW4 4772   0.391   4.428   1.175  0.2350  0.3077 -0.2333
 1252SOL     OW 4773   4.593   4.671   6.266 -0.4680 -0.1653 -0.1781
 1252SOL    HW2 4774   4.628   4.591   6.305 -0.0638  0.2949  0.4119
 1252SOL    HW3 4775   4.654   4.692   6.195 -0.5971 -0.3961 -0.3597
 1252SOL    MW4 4776   4.606   4.663   6.261 -0.0887 -0.0151  0.3252
 1253SOL     OW 4777   1.320   4.715   3.756  0.0231  0.5901  0.2509
 1253SOL    HW2 4778   1.343   4.791   3.703 -0.0330  0.6934  0.3734
 1253SOL    HW3 4779   1.260   4.664   3.702 -0.0934  0.7339  0.2434
 1253SOL    MW4 4780   1.315   4.719   3.742  0.8589 -0.0364  0.3080
 1254SOL     OW 4781   0.318   4.618   1.708 -0.0791  0.1713 -0.0333
 1254SOL    HW2 4782   0.352   4.620   1.618  0.1775  1.2178  0.0751
 1254SOL    HW3 4783   0.326   4.526   1.734  1.8269  0.1934 -0.3591
 1254SOL    MW4 4784   0.324   4.606   1.699 -0.3724  0.0376  0.1716
 1255SOL     OW 4785   0.765   0.710   5.560 -0.5745 -0.7892  0.1423
 1255SOL    HW2 4786   0.724   0.629   5.530  1.6830 -1.4005 -1.5929
 1255SOL    HW3 4787   0.720   0.779   5.512 -1.6636 -1.0914  0.6883
 1255SOL    MW4 4788   0.754   0.708   5.550  0.1335  0.3726 -0.2590
 1256SOL     OW 4789   4.499   3.569   2.492 -0.0179 -0.0577 -0.4399
 1256SOL    HW2 4790   4.416   3.607   2.521  0.4456 -0.1292  1.0673
 1256SOL    HW3 4791   4.492   3.565   2.397 -0.3009  3.2812 -0.6501
 1256SOL    MW4 4792   4.487   3.573   2.483 -0.2072 -0.0282  0.0112
 1257SOL     OW 4793   5.895   3.708   1.748  0.2429 -0.1258  0.3151
 1257SOL    HW2 4794   5.860   3.759   1.821  0.0717  0.2557 -0.0330
 1257SOL    HW3 4795   5.899   3.770   1.675 -2.0464 -1.1116 -0.7497
 1257SOL    MW4 4796   5.891   3.723   1.748  0.2725 -0.1582 -0.4055
 1258SOL     OW 4797   2.168   3.971   1.037 -0.0871 -0.8383  0.4884
 1258SOL    HW2 4798   2.233   3.921   1.088 -0.1454 -0.9503  0.4532
 1258SOL    HW3 4799   2.084   3.944   1.072 -0.1474 -1.2011  0.0821
 1258SOL    MW4 4800   2.166   3.960   1.048 -0.2492 -0.5565  0.2089
 1259SOL     OW 4801   4.243   3.475   5.461  0.6382 -0.2007  0.5626
 1259SOL    HW2 4802   4.150   3.456   5.452  0.4090  1.2291 -0.5884
 1259SOL    HW3 4803   4.251   3.568   5.439  2.3226 -0.2540  0.7657
 1259SOL    MW4 4804   4.232   3.485   5.457 -0.6693  0.1218  0.0368
 1260SOL     OW 4805   5.614   3.827   2.823  0.4709 -0.8314  0.3195
 1260SOL    HW2 4806   5.686   3.843   2.762 -0.2097  0.5512 -0.1764
 1260SOL    HW3 4807   5.656   3.804   2.905  1.5615  1.4818  0.4810
 1260SOL    MW4 4808   5.629   3.826   2.826  0.5196  0.5780  0.2544
 1261SOL     OW 4809   5.246   5.814   1.269 -0.8141  0.1927  0.2141
 1261SOL    HW2 4810   5.153   5.793   1.263 -0.6996 -1.5272  2.8345
 1261SOL    HW3 4811   5.276   5.814   1.179 -2.9063 -1.4170 -0.5688
 1261SOL    MW4 4812   5.237   5.811   1.257 -0.6042 -0.3001 -0.2744
 1262SOL     OW 4813   4.509   2.587   5.295 -0.0527  0.4637 -0.4444
 1262SOL    HW2 4814   4.557   2.582   5.378 -0.7486  0.4817 -0.0289
 1262SOL    HW3 4815   4.576   2.582   5.228  0.3803 -2.0482  0.0616
 1262SOL    MW4 4816   4.524   2.586   5.297 -0.2812 -0.3008  0.2983
 1263SOL     OW 4817   5.151   0.423   5.976  0.4495  0.1881  0.0426
 1263SOL    HW2 4818   5.156   0.335   5.937 -1.4707 -0.3370  0.8726
 1263SOL    HW3 4819   5.068   0.458   5.945  1.2372  1.7985 -0.3578
 1263SOL    MW4 4820   5.141   0.416   5.967 -0.1473 -0.0951 -0.2195
 1264SOL     OW 4821   4.696   2.302   2.873  0.0589 -0.2176 -0.6637
 1264SOL    HW2 4822   4.666   2.218   2.907  1.8110 -0.9775 -0.8736
 1264SOL    HW3 4823   4.777   2.320   2.923 -0.1579  1.2216 -0.7989
 1264SOL    MW4 4824   4.703   2.293   2.884 -0.2169 -0.0059 -0.1930
 1265SOL     OW 4825   3.659   5.115   3.929  0.4934  0.1776 -0.3996
 1265SOL    HW2 4826   3.708   5.048   3.977 -1.0553 -1.2822 -0.7785
 1265SOL    HW3 4827   3.687   5.105   3.838  1.6621  1.3606 -0.2039
 1265SOL    MW4 4828   3.669   5.105   3.924  0.2785 -0.0857  0.2144
 1266SOL     OW 4829   5.295   5.057   3.616 -0.0061 -0.1005 -0.1328
 1266SOL    HW2 4830   5.367   4.995   3.608 -0.1101 -0.2971  0.4176
 1266SOL    HW3 4831   5.262   5.068   3.527  1.9633  1.5320 -0.7169
 1266SOL    MW4 4832   5.300   5.050   3.603  0.2188  0.2304 -0.2761
 1267SOL     OW 4833   5.956   2.114   2.652 -0.0568 -0.1405  0.0931
 1267SOL    HW2 4834   5.867   2.114   2.620 -0.2538 -0.4867  0.6234
 1267SOL    HW3 4835   5.965   2.198   2.698 -0.4257 -0.5217  0.8776
 1267SOL    MW4 4836   5.946   2.125   2.654 -0.0222 -0.6753 -0.0415
 1268SOL     OW 4837   3.723   6.198   2.381  0.4055 -0.0993  0.2497
 1268SOL    HW2 4838   3.720   6.103   2.380  2.4952 -0.2129 -0.2426
 1268SOL    HW3 4839   3.784   6.219   2.452  3.3576  0.6287 -2.3205
 1268SOL    MW4 4840   3.731   6.188   2.390  0.7188  0.1168 -0.2146
 1269SOL     OW 4841   0.175   1.003   1.108 -0.0697  0.1223  0.4552
 1269SOL    HW2 4842   0.081   0.989   1.103  0.1821 -1.6323  0.2462
 1269SOL    HW3 4843   0.214   0.923   1.074  1.5224  1.8325 -2.0791
 1269SOL    MW4 4844   0.168   0.991   1.103 -0.0590  0.0545  0.1849
 1270SOL     OW 4845   0.468   0.163   2.757 -0.0109 -0.0044 -0.0608
 1270SOL    HW2 4846   0.472   0.185   2.664  1.6232 -1.4486 -0.3786
 1270SOL    HW3 4847   0.531   0.222   2.798 -0.7266  0.6278  0.1553
 1270SOL    MW4 4848   0.477   0.174   2.750 -0.8916 -0.1200  0.0200
 1271SOL     OW 4849   2.825   4.586   3.230  0.4114 -0.4346 -0.3345
 1271SOL    HW2 4850   2.878   4.508   3.243 -0.6654 -1.3756 -1.2865
 1271SOL    HW3 4851   2.759   4.559   3.165  0.2548  1.3835 -0.9829
 1271SOL    MW4 4852   2.823   4.572   3.223 -0.0847  0.0799  0.8092
 1272SOL     OW 4853   5.968   1.448   2.818 -0.1388 -0.0444  0.4213
 1272SOL    HW2 4854   5.947   1.355   2.806 -0.5999 -0.0571  1.2627
 1272SOL    HW3 4855   5.888   1.486   2.853  0.1090  0.6376  0.2548
 1272SOL    MW4 4856   5.955   1.441   2.821  0.0472  0.0681 -0.7890
 1273SOL     OW 4857   0.085   3.617   2.637  0.1262  0.6194 -0.1272
 1273SOL    HW2 4858   0.056   3.616   2.546  1.4276 -2.2272 -0.6465
 1273SOL    HW3 4859   0.006   3.601   2.688 -0.1959 -1.1190 -1.0733
 1273SOL    MW4 4860   0.071   3.615   2.632  0.0397  0.6005  0.0576
 1274SOL     OW 4861   3.468   2.743   4.873 -0.3221  0.0545  0.2332
 1274SOL    HW2 4862   3.394   2.728   4.932  0.3977  1.0165  1.4202
 1274SOL    HW3 4863   3.460   2.835   4.846  1.4338  0.7468  1.8650
 1274SOL    MW4 4864   3.457   2.753   4.877 -0.3874 -0.0676  0.2632
 1275SOL     OW 4865   1.490   5.862   1.534  0.3367  0.2294 -0.0286
 1275SOL    HW2 4866   1.494   5.776   1.575  0.8654  0.3931  0.2658
 1275SOL    HW3 4867   1.496   5.924   1.607  2.8439  0.5516 -0.4197
 1275SOL    MW4 4868   1.491   5.859   1.549 -0.1139  0.2786  0.4279
 1276SOL     OW 4869   3.946   0.357   6.004 -0.0597 -0.3341 -0.2146
 1276SOL    HW2 4870   3.933   0.277   6.055  0.3793  0.4130  1.1145
 1276SOL    HW3 4871   4.023   0.340   5.951  0.5667 -0.4956  0.7216
 1276SOL    MW4 4872   3.954   0.344   6.004  0.3121  0.0397 -0.5635
 1277SOL     OW 4873   2.279   5.432   3.792  0.7610  0.5528  0.6841
 1277SOL    HW2 4874   2.224   5.507   3.771  0.1107 -0.2169 -0.4716
 1277SOL    HW3 4875   2.223   5.356   3.777  1.3993 -0.1813  1.8405
 1277SOL    MW4 4876   2.265   5.432   3.788 -0.3791  0.3055 -0.1386
 1278SOL     OW 4877   3.504   0.289   0.677  0.2849  0.2020 -0.0037
 1278SOL    HW2 4878   3.501   0.384   0.675 -0.4866  0.1892 -1.5582
 1278SOL    HW3 4879   3.488   0.266   0.768  0.4331  1.5542  0.3827
 1278SOL    MW4 4880   3.501   0.298   0.688 -0.4013  0.3500 -0.5934
 1279SOL     OW 4881   5.342   0.040   0.602  0.0375 -0.3986  0.0451
 1279SOL    HW2 4882   5.263   0.041   0.547 -0.0828  0.4756  0.2297
 1279SOL    HW3 4883   5.308   0.026   0.691  0.0966 -0.0563  0.1197
 1279SOL    MW4 4884   5.327   0.038   0.607  0.2041 -0.0044 -0.4108
 1280SOL     OW 4885   5.570   0.887   2.608  0.0872 -0.5983  0.2844
 1280SOL    HW2 4886   5.492   0.940   2.590  0.4494 -0.1621 -0.0177
 1280SOL    HW3 4887   5.641   0.950   2.617  0.5162 -1.0295 -0.0148
 1280SOL    MW4 4888   5.569   0.902   2.607  0.3186  0.3483  0.0030
 1281SOL     OW 4889   0.890   4.995   2.078  0.2771 -0.0223  0.7846
 1281SOL    HW2 4890   0.916   5.008   2.170 -0.5422 -1.1163  1.1927
 1281SOL    HW3 4891   0.970   4.965   2.035  0.2658 -1.1266  1.5120
 1281SOL    MW4 4892   0.904   4.993   2.085 -0.3578  0.0380 -0.0336
 1282SOL     OW 4893   5.674   4.759   0.277 -0.0754 -0.5095 -0.1126
 1282SOL    HW2 4894   5.761   4.725   0.254 -0.5357 -1.8058 -0.0191
 1282SOL    HW3 4895   5.663   4.736   0.369 -1.0358 -1.5180 -0.4712
 1282SOL    MW4 4896   5.684   4.752   0.286  0.2663  0.8754 -0.2588
 1283SOL     OW 4897   0.299   3.708   0.706  0.4690 -0.0856  0.3795
 1283SOL    HW2 4898   0.237   3.691   0.636 -0.2262 -1.4812  1.2916
 1283SOL    HW3 4899   0.342   3.624   0.721  1.1517  0.3802  1.1128
 1283SOL    MW4 4900   0.297   3.695   0.699 -0.3454 -0.1901  0.3721
 1284SOL     OW 4901   1.701   1.296   6.170  1.0528  0.1196  0.6260
 1284SOL    HW2 4902   1.702   1.381   6.214  0.5902  0.6852 -0.4431
 1284SOL    HW3 4903   1.634   1.246   6.216 -2.2126  1.9801 -1.6884
 1284SOL    MW4 4904   1.693   1.300   6.182 -0.0304 -0.0583  0.2108
 1285SOL     OW 4905   4.078   5.886   2.208 -0.3712 -0.3364 -0.2425
 1285SOL    HW2 4906   4.001   5.917   2.160  0.3344  2.0701  0.0319
 1285SOL    HW3 4907   4.152   5.919   2.156  0.4523 -1.4261  0.2276
 1285SOL    MW4 4908   4.077   5.895   2.195  0.1638 -0.3677 -0.0851
 1286SOL     OW 4909   0.815   0.932   1.956 -0.2264  0.2756 -0.5450
 1286SOL    HW2 4910   0.897   0.904   1.995  0.5540  2.6559 -0.3492
 1286SOL    HW3 4911   0.823   1.027   1.946 -2.4271  0.4179 -1.7580
 1286SOL    MW4 4912   0.827   0.941   1.960 -0.3223  0.1123 -0.0904
 1287SOL     OW 4913   2.542   3.044   5.591 -0.4233 -0.7368 -0.1310
 1287SOL    HW2 4914   2.478   3.104   5.631  0.7333  0.5558 -0.1284
 1287SOL    HW3 4915   2.612   3.039   5.656  1.6890  1.7108 -1.9960
 1287SOL    MW4 4916   2.542   3.051   5.605 -0.1461 -0.3232  0.1086
 1288SOL     OW 4917   1.495   5.440   6.319  0.1625  0.1174  0.1465
 1288SOL    HW2 4918   1.420   5.411   6.267  0.0558 -0.0161  0.3723
 1288SOL    HW3 4919   1.487   5.391   6.401  0.3837  0.2536  0.2486
 1288SOL    MW4 4920   1.484   5.430   6.323  0.2093 -0.4408 -0.4001
 1289SOL     OW 4921   5.701   0.918   1.612 -0.2700 -0.1956  0.0547
 1289SOL    HW2 4922   5.653   0.903   1.531  0.8749 -0.7914 -0.5401
 1289SOL    HW3 4923   5.635   0.946   1.675 -1.1921  0.1667 -1.0529
 1289SOL    MW4 4924   5.686   0.920   1.610 -0.0564  0.1910  0.0578
 1290SOL     OW 4925   6.267   1.273   4.399 -0.1827 -0.0350 -0.3999
 1290SOL    HW2 4926   6.196   1.233   4.449 -0.7096  0.5002 -0.7054
 1290SOL    HW3 4927   6.223   1.331   4.337  0.5015 -0.0538 -0.9164
 1290SOL    MW4 4928   6.252   1.275   4.398 -0.4417  0.1452  0.3195
 1291SOL     OW 4929   4.825   1.137   1.235 -0.1872 -0.0876 -0.4167
 1291SOL    HW2 4930   4.825   1.231   1.254  0.9004 -0.1059 -0.2347
 1291SOL    HW3 4931   4.776   1.129   1.153  0.1012  0.6905 -0.6753
 1291SOL    MW4 4932   4.819   1.148   1.227 -0.2518 -0.2243 -0.2430
 1292SOL     OW 4933   2.013   4.067   0.286 -0.5841 -0.4020 -0.3389
 1292SOL    HW2 4934   2.089   4.108   0.245 -0.7923 -1.8409 -2.2987
 1292SOL    HW3 4935   1.982   4.132   0.349  0.3661  1.5379 -1.7628
 1292SOL    MW4 4936   2.019   4.081   0.289 -0.4430 -0.5738 -0.1345
 1293SOL     OW 4937   4.636   6.037   1.427  0.1386  0.4326  0.3465
 1293SOL    HW2 4938   4.724   6.030   1.391 -0.3092  0.3599 -0.7589
 1293SOL    HW3 4939   4.635   5.977   1.502  1.6886  2.0662  1.7648
 1293SOL    MW4 4940   4.647   6.028   1.432  0.4226 -1.0614  0.0861
 1294SOL     OW 4941   0.886   2.953   5.867 -0.4909 -0.4374  0.0392
 1294SOL    HW2 4942   0.970   2.908   5.872 -0.4643 -0.3431  0.4827
 1294SOL    HW3 4943   0.879   2.980   5.775  0.7050  0.9437  0.3025
 1294SOL    MW4 4944   0.896   2.951   5.855 -0.1772  0.5447 -0.8706
 1295SOL     OW 4945   4.747   0.658   2.580 -0.3860  0.4299 -0.1462
 1295SOL    HW2 4946   4.697   0.594   2.529  0.3002  0.3915 -0.7717
 1295SOL    HW3 4947   4.687   0.733   2.588 -1.7605 -0.7744  1.8041
 1295SOL    MW4 4948   4.732   0.660   2.574 -0.0051 -0.7347 -0.2045
 1296SOL     OW 4949   2.703   1.991   3.487  0.4583 -0.2386  0.1206
 1296SOL    HW2 4950   2.796   2.003   3.469  0.4570  1.1408  0.9178
 1296SOL    HW3 4951   2.677   2.070   3.534 -1.4850  0.1426 -1.4579
 1296SOL    MW4 4952   2.712   2.003   3.491 -0.0848  0.4100  0.1459
 1297SOL     OW 4953   1.197   1.410   2.766 -0.1024 -0.3638 -0.3013
 1297SOL    HW2 4954   1.155   1.331   2.735  0.4258 -0.5549 -0.5390
 1297SOL    HW3 4955   1.280   1.415   2.717  1.3362 -1.3177  1.8644
 1297SOL    MW4 4956   1.203   1.401   2.755 -0.0396  0.9251 -0.8154
 1298SOL     OW 4957   0.742   4.480   4.181  0.5999  0.3329 -0.3033
 1298SOL    HW2 4958   0.766   4.417   4.114  0.0335  0.8354 -0.9897
 1298SOL    HW3 4959   0.786   4.561   4.155 -0.1616  0.7069 -0.4345
 1298SOL    MW4 4960   0.751   4.483   4.169 -0.1856  0.3499  0.2347
 1299SOL     OW 4961   1.906   2.372   3.660 -0.0996  0.2752 -0.0420
 1299SOL    HW2 4962   1.863   2.447   3.699 -0.3155  0.5523 -0.8024
 1299SOL    HW3 4963   1.908   2.390   3.566  0.6016 -0.2766 -0.1526
 1299SOL    MW4 4964   1.901   2.384   3.653 -0.1766 -0.4942 -0.8264
 1300SOL     OW 4965   5.207   3.785   0.272 -0.4810 -0.4076  0.6468
 1300SOL    HW2 4966   5.249   3.845   0.333 -1.2212 -0.6749  1.4375
 1300SOL    HW3 4967   5.136   3.745   0.322 -1.9968  0.3903 -0.7913
 1300SOL    MW4 4968   5.203   3.787   0.287 -0.3816 -0.2176  0.2390
 1301SOL     OW 4969   1.295   4.924   0.087  0.0674  0.0079  0.5492
 1301SOL    HW2 4970   1.357   4.947   0.018 -0.5601 -0.7869 -0.3062
 1301SOL    HW3 4971   1.347   4.926   0.168  1.0917 -0.1630 -0.0863
 1301SOL    MW4 4972   1.310   4.927   0.089 -0.2184 -0.5921  0.6479
 1302SOL     OW 4973   0.538   0.999   3.968  0.1407 -0.5203  0.8297
 1302SOL    HW2 4974   0.556   1.061   4.039 -2.5129  0.4590  0.7529
 1302SOL    HW3 4975   0.492   0.927   4.011 -2.4971  0.5911  0.0705
 1302SOL    MW4 4976   0.534   0.998   3.983 -0.1657 -0.1919 -0.4510
 1303SOL     OW 4977   5.971   0.675   4.321  0.1204 -0.3963 -0.2181
 1303SOL    HW2 4978   5.932   0.615   4.386 -0.3039  0.2314  0.1117
 1303SOL    HW3 4979   5.995   0.618   4.248  1.5196 -1.2940  0.8606
 1303SOL    MW4 4980   5.969   0.659   4.320  0.1793  0.4017 -0.2526
 1304SOL     OW 4981   2.652   4.524   2.436 -0.5091  0.1230 -0.0864
 1304SOL    HW2 4982   2.630   4.558   2.522  0.7347  0.7823 -0.0076
 1304SOL    HW3 4983   2.737   4.563   2.416  0.5591 -2.2291 -0.4009
 1304SOL    MW4 4984   2.660   4.534   2.444  0.6248  0.7221 -0.0080
 1305SOL     OW 4985   6.074   3.892   4.428 -0.0655  0.2373  0.2940
 1305SOL    HW2 4986   6.069   3.830   4.356  1.1398  0.5238 -0.0711
 1305SOL    HW3 4987   6.106   3.973   4.388  2.0440 -0.0049  1.3233
 1305SOL    MW4 4988   6.078   3.895   4.413 -0.1596  0.1981 -0.7381
 1306SOL     OW 4989   2.620   4.833   3.987  0.6040  0.1695  0.0014
 1306SOL    HW2 4990   2.599   4.915   3.942  1.3646 -0.9037 -2.5124
 1306SOL    HW3 4991   2.537   4.804   4.025 -0.2448  0.8974 -1.2105
 1306SOL    MW4 4992   2.606   4.840   3.986  0.2164  0.4082 -0.2146
 1307SOL     OW 4993   5.163   6.294   2.794 -0.1811 -0.4704  0.5196
 1307SOL    HW2 4994   5.155   6.390   2.794  0.9465 -0.3093 -1.1942
 1307SOL    HW3 4995   5.257   6.279   2.800 -0.3567 -1.4873  0.8138
 1307SOL    MW4 4996   5.175   6.305   2.794  0.2018  0.1789  0.1605
 1308SOL     OW 4997   2.831   4.854   0.641  0.7130  0.3934 -0.2789
 1308SOL    HW2 4998   2.754   4.798   0.628  1.1017 -0.5843  1.3218
 1308SOL    HW3 4999   2.824   4.884   0.732  1.9396  0.7383 -0.2818
 1308SOL    MW4 5000   2.820   4.851   0.651  0.0478 -0.2896  0.0063
 1309SOL     OW 5001   4.462   3.887   2.721  0.2523 -0.0598  0.2716
 1309SOL    HW2 5002   4.385   3.856   2.674 -0.1153  0.6430  0.3983
 1309SOL    HW3 5003   4.514   3.808   2.737  1.0981 -0.1583 -2.5335
 1309SOL    MW4 5004   4.459   3.873   2.717 -0.6797  0.6056  0.6620
 1310SOL     OW 5005   1.136   6.002   4.136  0.5181  0.7370 -0.4256
 1310SOL    HW2 5006   1.113   6.001   4.043  1.5222 -0.5124 -0.6981
 1310SOL    HW3 5007   1.231   6.012   4.136  0.3609  2.5054  0.5461
 1310SOL    MW4 5008   1.146   6.003   4.124  0.3528  0.7781  0.0369
 1311SOL     OW 5009   4.526   5.113   1.590  0.3380 -0.0799  0.3235
 1311SOL    HW2 5010   4.553   5.113   1.682  0.3880 -0.7682  0.3136
 1311SOL    HW3 5011   4.493   5.202   1.575 -0.0166 -0.0674  1.1079
 1311SOL    MW4 5012   4.525   5.125   1.600 -0.3616  0.2325  0.2812
 1312SOL     OW 5013   5.962   6.066   5.884  0.7654  0.4798 -0.4066
 1312SOL    HW2 5014   6.046   6.046   5.843  1.7986  1.2549  1.2248
 1312SOL    HW3 5015   5.971   6.035   5.974 -0.7335  0.4971 -0.2317
 1312SOL    MW4 5016   5.974   6.060   5.890 -0.5719 -0.2133 -0.8532
 1313SOL     OW 5017   3.170   0.777   1.221  0.5507 -0.4463 -0.4910
 1313SOL    HW2 5018   3.207   0.848   1.274 -0.7733  0.5619 -0.8825
 1313SOL    HW3 5019   3.204   0.793   1.133 -0.2450  0.0756 -0.7076
 1313SOL    MW4 5020   3.180   0.788   1.216  0.3596 -0.1701  0.1653
 1314SOL     OW 5021   2.878   4.307   6.183 -0.1410 -0.2868 -0.0380
 1314SOL    HW2 5022   2.855   4.399   6.197  0.2050 -0.0359 -1.0522
 1314SOL    HW3 5023   2.795   4.263   6.167 -0.2676 -0.0686  0.0274
 1314SOL    MW4 5024   2.864   4.313   6.183 -0.2974 -0.0388 -0.6974
 1315SOL     OW 5025   4.422   4.971   2.964  0.4579 -0.5136  0.0879
 1315SOL    HW2 5026   4.334   4.939   2.981  0.0169  0.6584  0.1222
 1315SOL    HW3 5027   4.473   4.946   3.041  0.7676 -3.1723 -0.8604
 1315SOL    MW4 5028   4.417   4.963   2.976 -0.1267 -0.5578  0.1081
 1316SOL     OW 5029   5.989   5.128   2.428  0.4317  0.4762 -0.0811
 1316SOL    HW2 5030   5.972   5.206   2.375 -3.3806  0.0568  0.2419
 1316SOL    HW3 5031   5.978   5.055   2.368  0.0948  0.0994  0.4297
 1316SOL    MW4 5032   5.986   5.128   2.413 -0.6448 -0.2992 -0.8173
 1317SOL     OW 5033   1.896   5.075   1.102  0.0014  0.0792  0.4622
 1317SOL    HW2 5034   1.978   5.111   1.136 -0.4305  0.4411  1.1366
 1317SOL    HW3 5035   1.873   5.132   1.029  0.5042 -0.2037  0.0813
 1317SOL    MW4 5036   1.904   5.088   1.097  0.0597 -0.3822 -0.3458
 1318SOL     OW 5037   1.575   5.311   3.472 -0.0002  0.0213  0.1817
 1318SOL    HW2 5038   1.582   5.280   3.563 -0.5320  0.1273  0.2644
 1318SOL    HW3 5039   1.607   5.401   3.475  1.3939 -0.4386 -0.0280
 1318SOL    MW4 5040   1.580   5.319   3.485  0.1792 -0.5021 -0.0784
 1319SOL     OW 5041   1.153   5.236   3.047 -0.6570 -0.1641  0.1143
 1319SOL    HW2 5042   1.069   5.220   3.089 -0.1217  0.5812  1.5174
 1319SOL    HW3 5043   1.213   5.173   3.086 -0.3024  0.0988  0.0057
 1319SOL    MW4 5044   1.150   5.226   3.057  0.2775 -0.6616  0.1596
 1320SOL     OW 5045   2.992   5.296   5.549 -0.3425 -0.5928 -0.1515
 1320SOL    HW2 5046   2.980   5.391   5.544 -1.5841 -0.6390  1.1685
 1320SOL    HW3 5047   2.902   5.261   5.553  0.1039 -1.7649  0.0502
 1320SOL    MW4 5048   2.978   5.304   5.549  0.1165  0.0366 -0.2933
 1321SOL     OW 5049   0.894   2.185   3.745  0.7153  0.2549  0.5858
 1321SOL    HW2 5050   0.849   2.231   3.816 -2.0605 -0.4694 -0.5728
 1321SOL    HW3 5051   0.844   2.208   3.666  1.2290 -2.1018 -0.5147
 1321SOL    MW4 5052   0.881   2.194   3.744  0.6296  0.0464 -0.1472
 1322SOL     OW 5053   1.865   1.510   4.588  0.2759  0.1804  0.2250
 1322SOL    HW2 5054   1.946   1.493   4.540 -0.8155  1.1384 -2.1234
 1322SOL    HW3 5055   1.866   1.604   4.605 -0.4568  0.2446 -0.0582
 1322SOL    MW4 5056   1.876   1.520   4.584 -0.1936 -0.2224  0.3335
 1323SOL     OW 5057   2.181   5.864   1.504  0.0067  0.4858  0.1898
 1323SOL    HW2 5058   2.237   5.803   1.456 -0.4341  0.0506  0.2203
 1323SOL    HW3 5059   2.230   5.882   1.585 -0.2670 -0.5419  0.5970
 1323SOL    MW4 5060   2.195   5.858   1.508 -0.4732  0.0484  0.3055
 1324SOL     OW 5061   0.061   0.430   2.470  0.4548 -0.2308 -0.0694
 1324SOL    HW2 5062   0.034   0.360   2.529 -1.0542 -0.8094 -1.4068
 1324SOL    HW3 5063  -0.003   0.500   2.483 -0.7499 -0.9073 -1.9661
 1324SOL    MW4 5064   0.049   0.430   2.479 -0.5172 -0.1376  0.3430
 1325SOL     OW 5065   6.297   4.605   3.152  0.2353  0.1590 -0.1307
 1325SOL    HW2 5066   6.267   4.674   3.211  1.1973  0.8043 -0.3848
 1325SOL    HW3 5067   6.390   4.595   3.171  0.3724 -0.2177 -0.9430
 1325SOL    MW4 5068   6.305   4.613   3.162 -0.2977  0.0888 -0.2198
 1326SOL     OW 5069   2.275   6.060   5.376 -0.2782  0.0637  0.0916
 1326SOL    HW2 5070   2.300   6.142   5.332  0.5534  0.6237  1.5421
 1326SOL    HW3 5071   2.339   6.051   5.447 -0.8715 -1.4204  0.4656
 1326SOL    MW4 5072   2.287   6.070   5.379  0.2879  0.1638 -0.7401
 1327SOL     OW 5073   5.375   5.884   6.114  0.2965 -0.1267  0.2427
 1327SOL    HW2 5074   5.403   5.807   6.165  0.4288  0.9969  1.9608
 1327SOL    HW3 5075   5.455   5.916   6.072  0.2223 -0.9574 -0.5671
 1327SOL    MW4 5076   5.389   5.878   6.115 -0.3957 -0.4518  0.0250
 1328SOL     OW 5077   6.203   3.838   3.405 -0.3619  0.4475 -0.5992
 1328SOL    HW2 5078   6.191   3.820   3.312  0.0059  0.7034 -0.6964
 1328SOL    HW3 5079   6.125   3.887   3.430 -0.8795 -0.3715 -0.5691
 1328SOL    MW4 5080   6.191   3.842   3.396 -0.2652 -0.0050  0.3365
 1329SOL     OW 5081   3.210   2.408   1.232 -0.4673  0.1537 -0.5024
 1329SOL    HW2 5082   3.257   2.443   1.156 -0.7265 -1.5163 -1.4943
 1329SOL    HW3 5083   3.132   2.463   1.239  0.1196  1.0306 -0.7478
 1329SOL    MW4 5084   3.206   2.420   1.223  0.9213  0.5551  0.3915
 1330SOL     OW 5085   1.329   3.912   5.245  0.1179 -0.4640 -0.4073
 1330SOL    HW2 5086   1.414   3.957   5.252  0.4814 -0.9605 -1.3927
 1330SOL    HW3 5087   1.335   3.863   5.162 -0.6666 -1.4766  0.1133
 1330SOL    MW4 5088   1.341   3.911   5.235 -0.0644  0.2592 -0.0489
 1331SOL     OW 5089   3.315   4.352   2.661 -0.2533  0.5922  0.6414
 1331SOL    HW2 5090   3.284   4.266   2.634  1.3093 -0.0052  0.6469
 1331SOL    HW3 5091   3.321   4.347   2.756  1.4406  0.0914  0.5425
 1331SOL    MW4 5092   3.311   4.340   2.670 -0.2541 -0.8399 -0.1402
 1332SOL     OW 5093   6.068   1.576   1.345 -0.2455  0.1038  0.2988
 1332SOL    HW2 5094   6.126   1.500   1.337 -1.0134 -0.7030  1.8574
 1332SOL    HW3 5095   6.054   1.585   1.440 -0.8668  1.6681  0.0880
 1332SOL    MW4 5096   6.074   1.568   1.357  0.6606  0.9485 -0.3642
 1333SOL     OW 5097   4.382   2.798   0.368 -0.7608  0.0954  0.5003
 1333SOL    HW2 5098   4.331   2.879   0.365 -1.1837 -0.1903 -0.4598
 1333SOL    HW3 5099   4.455   2.814   0.308 -0.6843 -0.1315  0.5340
 1333SOL    MW4 5100   4.385   2.811   0.359 -0.1113 -0.0356  0.4116
 1334SOL     OW 5101   5.007   0.628   6.357 -0.6503 -0.1823 -0.4433
 1334SOL    HW2 5102   5.034   0.682   6.283 -1.9453 -0.2201 -0.9663
 1334SOL    HW3 5103   4.912   0.622   6.349 -0.9562  0.7286  1.8622
 1334SOL    MW4 5104   4.998   0.634   6.346  0.5356  0.1318 -0.5150
 1335SOL     OW 5105   3.525   5.221   0.954 -0.4372 -0.2537  0.6692
 1335SOL    HW2 5106   3.458   5.187   1.012 -1.0748 -1.2621 -0.5960
 1335SOL    HW3 5107   3.494   5.200   0.866 -0.0206  2.1319 -0.1295
 1335SOL    MW4 5108   3.512   5.214   0.950 -0.5294 -0.0547  0.1554
 1336SOL     OW 5109   5.074   5.996   4.440  0.3567 -0.4763 -0.2063
 1336SOL    HW2 5110   5.116   6.061   4.497  1.2205 -1.2319  0.0446
 1336SOL    HW3 5111   5.112   6.013   4.354  1.0728 -1.0478 -0.0135
 1336SOL    MW4 5112   5.085   6.007   4.436  0.2290  0.3680 -0.4341
 1337SOL     OW 5113   2.460   3.438   5.455 -0.3188  0.1120 -0.0111
 1337SOL    HW2 5114   2.424   3.364   5.407  1.0674 -0.7797  0.2677
 1337SOL    HW3 5115   2.481   3.502   5.387 -2.0237  0.4985 -0.2052
 1337SOL    MW4 5116   2.458   3.437   5.440  0.3326  0.1819  0.0114
 1338SOL     OW 5117   2.200   4.194   2.754 -0.3197 -0.2312  0.1563
 1338SOL    HW2 5118   2.155   4.277   2.733  2.3800  0.6292 -3.1967
 1338SOL    HW3 5119   2.174   4.135   2.683 -0.5118 -1.5999  1.3300
 1338SOL    MW4 5120   2.190   4.197   2.742  0.2520  0.2322  0.1711
 1339SOL     OW 5121   5.536   2.770   2.340 -0.1485  1.0452  0.3276
 1339SOL    HW2 5122   5.475   2.793   2.269 -1.6231 -0.2667  1.0943
 1339SOL    HW3 5123   5.581   2.692   2.308  0.1941  1.2633  0.2792
 1339SOL    MW4 5124   5.534   2.763   2.326  0.1232 -0.0745 -0.0304
 1340SOL     OW 5125   0.265   5.043   1.937  0.1541 -0.3599 -0.4501
 1340SOL    HW2 5126   0.255   4.967   1.879 -0.3900  0.9188 -2.1147
 1340SOL    HW3 5127   0.216   5.113   1.894 -1.7949  0.2428  2.4626
 1340SOL    MW4 5128   0.257   5.042   1.924  0.0800 -0.0829  0.8118
 1341SOL     OW 5129   1.802   5.747   3.388  0.1269  0.0655 -0.7134
 1341SOL    HW2 5130   1.736   5.715   3.328 -0.3186  1.2779 -0.9032
 1341SOL    HW3 5131   1.757   5.813   3.441  1.1487  0.8648 -0.7999
 1341SOL    MW4 5132   1.788   5.752   3.387  0.4384 -0.2064 -0.0978
 1342SOL     OW 5133   2.942   5.805   0.334 -0.2279 -0.0694 -0.0216
 1342SOL    HW2 5134   2.953   5.790   0.240  0.8731 -0.2491  0.1260
 1342SOL    HW3 5135   2.918   5.898   0.340 -0.1642 -0.0191 -0.4755
 1342SOL    MW4 5136   2.941   5.815   0.322  0.2841 -0.6730  0.4092
 1343SOL     OW 5137   6.301   1.126   2.102 -0.5749  0.2924 -0.1647
 1343SOL    HW2 5138   6.359   1.051   2.089 -1.2985 -0.4326  0.6560
 1343SOL    HW3 5139   6.356   1.191   2.147 -1.0084 -1.4326  3.2242
 1343SOL    MW4 5140   6.316   1.125   2.107  0.2246  0.7154  0.0461
 1344SOL     OW 5141   1.453   5.834   5.073  0.1025  0.2771 -0.3587
 1344SOL    HW2 5142   1.417   5.818   5.160 -1.2368  0.3643 -0.8814
 1344SOL    HW3 5143   1.468   5.747   5.037  1.3562  0.2310  0.2109
 1344SOL    MW4 5144   1.451   5.820   5.080 -0.5103  0.2811  0.4876
 1345SOL     OW 5145   6.235   1.714   1.179 -0.8290 -0.5084  0.0242
 1345SOL    HW2 5146   6.169   1.691   1.244 -1.6252  1.2485 -0.0957
 1345SOL    HW3 5147   6.198   1.789   1.133  2.1834  2.1455  1.5256
 1345SOL    MW4 5148   6.222   1.721   1.181 -0.7065 -0.3916  0.3620
 1346SOL     OW 5149   4.414   1.773   3.859 -0.0871 -0.5050 -0.1189
 1346SOL    HW2 5150   4.335   1.794   3.908 -0.1661 -0.6730 -0.1737
 1346SOL    HW3 5151   4.438   1.854   3.814 -0.6351 -0.6516 -0.6821
 1346SOL    MW4 5152   4.407   1.787   3.859 -0.4344 -0.0008 -0.0318
 1347SOL     OW 5153   3.007   4.906   2.430  0.1678  0.2483  0.2823
 1347SOL    HW2 5154   3.051   4.958   2.362  0.3943 -0.5402 -0.1830
 1347SOL    HW3 5155   2.991   4.821   2.389 -1.6443  0.4556  0.5003
 1347SOL    MW4 5156   3.011   4.902   2.416  0.2376 -0.2054  0.1877
 1348SOL     OW 5157   1.435   2.289   2.844  0.4397  0.0632  0.3183
 1348SOL    HW2 5158   1.486   2.360   2.804  0.3724  0.5269  1.0482
 1348SOL    HW3 5159   1.468   2.283   2.934  1.3500 -1.6927 -0.0847
 1348SOL    MW4 5160   1.446   2.297   2.851  0.2888  0.6134 -0.7335
 1349SOL     OW 5161   5.663   4.149   1.225  0.3128  0.0178  0.2517
 1349SOL    HW2 5162   5.581   4.113   1.191 -0.2000  1.6214 -0.3524
 1349SOL    HW3 5163   5.731   4.110   1.171 -0.2877  0.5521 -0.9327
 1349SOL    MW4 5164   5.661   4.139   1.213 -0.2857  0.2459  0.1124
 1350SOL     OW 5165   3.624   4.220   3.813 -0.0588 -0.7085  0.1607
 1350SOL    HW2 5166   3.680   4.230   3.889 -0.2095 -3.5134  0.7481
 1350SOL    HW3 5167   3.538   4.249   3.843  0.0948 -0.8300  0.7356
 1350SOL    MW4 5168   3.620   4.225   3.827 -0.0272  0.3414  0.0560
 1351SOL     OW 5169   2.393   4.371   3.301 -0.0936  0.3453 -0.6773
 1351SOL    HW2 5170   2.347   4.291   3.274  1.1803 -1.1932  1.3946
 1351SOL    HW3 5171   2.482   4.341   3.322  0.5080  2.3774 -0.1592
 1351SOL    MW4 5172   2.399   4.356   3.300  0.1859  0.5256  0.0911
 1352SOL     OW 5173   0.200   2.489   5.473  0.1742 -0.0594 -0.8773
 1352SOL    HW2 5174   0.108   2.509   5.459 -0.2405  0.7063  2.1983
 1352SOL    HW3 5175   0.243   2.574   5.474  0.6436 -0.2944 -0.6698
 1352SOL    MW4 5176   0.194   2.503   5.471  0.0751 -0.1578 -0.2248
 1353SOL     OW 5177   1.721   1.912   2.055  0.0240  0.8775  0.3656
 1353SOL    HW2 5178   1.816   1.902   2.065 -0.1298  0.9508  2.3712
 1353SOL    HW3 5179   1.710   1.965   1.976  1.5739 -0.3431 -0.7216
 1353SOL    MW4 5180   1.732   1.918   2.046 -0.1151 -0.2899  0.1016
 1354SOL     OW 5181   2.171   1.810   4.628  0.1298 -0.5409 -0.1521
 1354SOL    HW2 5182   2.212   1.724   4.615  0.1346 -0.4599 -0.7208
 1354SOL    HW3 5183   2.188   1.856   4.546 -3.3912 -1.4450 -1.5643
 1354SOL    MW4 5184   2.179   1.805   4.615  0.4271 -0.8979 -0.0779
 1355SOL     OW 5185   4.469   5.354   0.476  0.0415  0.1082 -0.1864
 1355SOL    HW2 5186   4.413   5.281   0.502  1.1377 -0.7169 -0.0441
 1355SOL    HW3 5187   4.465   5.416   0.549 -0.1987 -0.2284  0.0837
 1355SOL    MW4 5188   4.461   5.353   0.489  0.1900  0.1832 -0.2135
 1356SOL     OW 5189   5.552   0.826   5.489  0.5304  0.1793  0.2178
 1356SOL    HW2 5190   5.607   0.877   5.430  1.5906 -0.5327  0.5791
 1356SOL    HW3 5191   5.613   0.774   5.540 -0.4898 -0.8185  0.4537
 1356SOL    MW4 5192   5.567   0.826   5.488  0.0264  0.5050  0.3646
 1357SOL     OW 5193   1.338   2.641   5.923 -0.2307  0.1111  0.5104
 1357SOL    HW2 5194   1.424   2.655   5.884 -1.0105  3.1321 -0.3878
 1357SOL    HW3 5195   1.356   2.629   6.016  1.3276 -2.7553 -0.0510
 1357SOL    MW4 5196   1.351   2.641   5.930 -0.0858 -0.7801 -0.0850
 1358SOL     OW 5197   3.397   1.413   4.424 -0.1267 -0.1859  0.0387
 1358SOL    HW2 5198   3.458   1.340   4.432 -0.0051  0.0457  1.7008
 1358SOL    HW3 5199   3.319   1.375   4.383  0.7385 -0.7117 -1.1834
 1358SOL    MW4 5200   3.394   1.398   4.420  0.7848  0.1108 -0.2288
 1359SOL     OW 5201   6.409   3.590   3.064 -0.5500  0.0470 -0.6714
 1359SOL    HW2 5202   6.364   3.589   2.979 -1.2348  1.0462 -0.3390
 1359SOL    HW3 5203   6.490   3.638   3.048 -1.6245  2.0854 -0.3438
 1359SOL    MW4 5204   6.414   3.596   3.051 -0.0785  0.0893  0.0886
 1360SOL     OW 5205   2.793   1.257   6.415  0.1444  0.1734 -0.5426
 1360SOL    HW2 5206   2.841   1.280   6.335  0.3325  2.1840  0.1016
 1360SOL    HW3 5207   2.722   1.320   6.420  0.3492  0.3204  1.0590
 1360SOL    MW4 5208   2.790   1.268   6.405 -0.4451  0.0383 -0.0737
 1361SOL     OW 5209   5.931   0.988   6.353 -0.5898 -0.7251  0.0585
 1361SOL    HW2 5210   6.008   1.030   6.391 -0.8129  1.1998 -1.4394
 1361SOL    HW3 5211   5.946   0.894   6.365  1.0729 -0.3341  1.4672
 1361SOL    MW4 5212   5.943   0.981   6.360 -0.1497  0.1955  0.1820
 1362SOL     OW 5213   0.477   2.233   5.351  0.0660  0.7676  0.0809
 1362SOL    HW2 5214   0.518   2.319   5.340  0.8269  0.8355  2.6317
 1362SOL    HW3 5215   0.391   2.253   5.388 -0.0542  0.4505 -0.0276
 1362SOL    MW4 5216   0.471   2.247   5.355 -0.3972  0.4073  0.4324
 1363SOL     OW 5217   3.011   0.091   1.917 -0.4336 -0.6884  0.2943
 1363SOL    HW2 5218   3.083   0.114   1.859 -0.8187  0.2815  0.1849
 1363SOL    HW3 5219   2.937   0.077   1.859 -0.6151 -0.5405  0.4860
 1363SOL    MW4 5220   3.011   0.092   1.902 -0.6120  0.0162  0.3638
 1364SOL     OW 5221   0.682   5.145   1.951 -0.5013  0.5946  0.5698
 1364SOL    HW2 5222   0.749   5.096   1.999  0.8320  1.4044 -0.3851
 1364SOL    HW3 5223   0.623   5.078   1.917  0.5933 -0.2719  0.3061
 1364SOL    MW4 5224   0.683   5.130   1.953  0.3934  0.2881 -0.1501
 1365SOL     OW 5225   1.397   4.076   1.683  0.4863  0.0092  0.1818
 1365SOL    HW2 5226   1.329   4.142   1.697  1.3144  1.0057 -0.3523
 1365SOL    HW3 5227   1.384   4.013   1.753 -2.2087 -0.9020 -0.9780
 1365SOL    MW4 5228   1.386   4.077   1.694 -0.1165 -0.4910  0.2462
 1366SOL     OW 5229   5.221   0.175   5.821  0.1861 -0.1513 -0.9697
 1366SOL    HW2 5230   5.250   0.207   5.736 -2.0423 -0.5463 -1.9422
 1366SOL    HW3 5231   5.226   0.080   5.814  1.1815 -0.1718 -0.1829
 1366SOL    MW4 5232   5.225   0.167   5.809  0.1540  0.0658 -0.0765
 1367SOL     OW 5233   3.952   5.156   1.257 -0.4119 -0.3861 -0.3387
 1367SOL    HW2 5234   4.015   5.087   1.276 -0.7838 -1.5556 -2.9777
 1367SOL    HW3 5235   4.005   5.228   1.222 -0.2501 -0.1481  0.3803
 1367SOL    MW4 5236   3.967   5.156   1.255 -0.1670  0.0253 -0.0904
 1368SOL     OW 5237   2.923   3.492   0.778 -0.2641  0.0237  0.0085
 1368SOL    HW2 5238   3.016   3.476   0.791 -0.0301  0.4296 -1.0619
 1368SOL    HW3 5239   2.907   3.466   0.687 -0.4611  3.0744 -0.9384
 1368SOL    MW4 5240   2.933   3.486   0.768 -1.3572  0.4899 -0.0479
 1369SOL     OW 5241   1.243   4.351   2.875  0.1536 -0.5016 -0.2159
 1369SOL    HW2 5242   1.260   4.421   2.813  0.7505 -0.3156  0.1568
 1369SOL    HW3 5243   1.326   4.339   2.922 -0.4979 -0.1307  1.0661
 1369SOL    MW4 5244   1.256   4.358   2.873  0.0526  0.4251 -0.1921
 1370SOL     OW 5245   2.684   6.035   4.523  0.3349 -0.1064 -0.5117
 1370SOL    HW2 5246   2.767   6.006   4.560 -1.1048 -2.1054  1.4278
 1370SOL    HW3 5247   2.664   6.117   4.570 -0.5522 -1.6342  1.9796
 1370SOL    MW4 5248   2.692   6.042   4.534 -0.6595 -0.1359 -0.1140
 1371SOL     OW 5249   0.569   1.033   4.388  0.4219  0.6880  0.2855
 1371SOL    HW2 5250   0.509   0.989   4.449 -1.2067  2.5886  0.1665
 1371SOL    HW3 5251   0.655   1.022   4.427 -0.1071 -1.2400  1.0261
 1371SOL    MW4 5252   0.572   1.026   4.401 -0.0771  0.3675  0.0715
 1372SOL     OW 5253   2.358   5.175   5.725 -0.0503 -0.4967 -0.3699
 1372SOL    HW2 5254   2.450   5.194   5.743  0.2695  0.5967 -2.8094
 1372SOL    HW3 5255   2.310   5.223   5.793  1.1169 -0.9140  0.8109
 1372SOL    MW4 5256   2.364   5.184   5.737  0.1996  0.2065 -1.0746
 1373SOL     OW 5257   5.663   0.266   2.938 -0.0850 -0.0801  0.3328
 1373SOL    HW2 5258   5.574   0.283   2.969 -0.3031 -1.8997  0.8465
 1373SOL    HW3 5259   5.669   0.170   2.935  1.8240  0.0061  0.1879
 1373SOL    MW4 5260   5.652   0.255   2.942 -0.4274  0.3938  0.0865
 1374SOL     OW 5261   1.614   2.534   0.167 -0.0161 -0.1069 -0.1676
 1374SOL    HW2 5262   1.687   2.570   0.217 -0.2958 -0.2229  0.3319
 1374SOL    HW3 5263   1.551   2.505   0.233  0.4556 -2.1035 -0.5118
 1374SOL    MW4 5264   1.615   2.535   0.182  0.3698 -0.2408  0.1791
 1375SOL     OW 5265   3.411   4.149   1.865  0.6385 -0.1427  0.0885
 1375SOL    HW2 5266   3.361   4.165   1.945 -2.7960 -1.2951 -1.6155
 1375SOL    HW3 5267   3.484   4.093   1.893  0.7595  1.1654  2.6730
 1375SOL    MW4 5268   3.414   4.143   1.879  0.4843  0.3585 -0.4059
 1376SOL     OW 5269   2.184   3.186   2.569  0.4768  0.6227  0.5981
 1376SOL    HW2 5270   2.252   3.137   2.615  1.0046  0.3106 -0.4906
 1376SOL    HW3 5271   2.178   3.144   2.483 -0.4082  1.2688  0.3277
 1376SOL    MW4 5272   2.192   3.174   2.564 -0.1014  0.0272  0.1137
 1377SOL     OW 5273   0.288   3.682   4.518  0.6173  0.3148 -0.3445
 1377SOL    HW2 5274   0.307   3.754   4.457 -1.6849  0.7430 -0.6824
 1377SOL    HW3 5275   0.214   3.715   4.569  0.4980 -1.2509  0.5294
 1377SOL    MW4 5276   0.281   3.696   4.516  0.1999  0.0193 -0.1593
 1378SOL     OW 5277   1.657   5.082   0.141  0.2178  0.2102  0.4211
 1378SOL    HW2 5278   1.627   5.002   0.097  1.2774  0.0507 -0.0540
 1378SOL    HW3 5279   1.741   5.057   0.180  1.1217  1.3719 -0.6871
 1378SOL    MW4 5280   1.664   5.068   0.140  0.1819 -0.4280 -0.7281
 1379SOL     OW 5281   4.341   6.166   0.169  0.1824  0.2125  0.2069
 1379SOL    HW2 5282   4.387   6.236   0.216 -1.6028  2.4458 -1.1907
 1379SOL    HW3 5283   4.323   6.202   0.082  0.1648 -2.4350 -0.9756
 1379SOL    MW4 5284   4.345   6.180   0.164  0.0031 -0.5582  0.5237
 1380SOL     OW 5285   0.535   2.958   5.283  0.1854 -0.1136 -0.0977
 1380SOL    HW2 5286   0.567   3.037   5.326 -0.4384 -0.3125  0.7444
 1380SOL    HW3 5287   0.600   2.940   5.214  0.0353  1.4424 -0.6740
 1380SOL    MW4 5288   0.548   2.966   5.279 -0.0196  0.4486  0.5528
 1381SOL     OW 5289   5.400   6.075   3.182  0.2047  0.1901 -0.1747
 1381SOL    HW2 5290   5.394   6.025   3.263  1.0754  1.3439  0.6413
 1381SOL    HW3 5291   5.388   6.010   3.113 -1.2258 -0.7165  0.8722
 1381SOL    MW4 5292   5.398   6.060   3.184 -0.2031  0.1242 -0.0177
 1382SOL     OW 5293   0.696   0.266   1.208  0.5353  0.1579 -0.0093
 1382SOL    HW2 5294   0.621   0.277   1.267  1.5068  0.2088  1.2671
 1382SOL    HW3 5295   0.669   0.198   1.147 -0.7689  0.5964  0.0412
 1382SOL    MW4 5296   0.682   0.259   1.208 -0.1021  0.1911  0.4883
 1383SOL     OW 5297   2.592   1.721   1.617  0.1211 -0.0085 -0.2474
 1383SOL    HW2 5298   2.553   1.677   1.542 -1.3310  2.3358 -0.9909
 1383SOL    HW3 5299   2.639   1.796   1.579 -0.1757  0.9117  1.1143
 1383SOL    MW4 5300   2.593   1.725   1.602  0.0492 -0.7511  0.2247
 1384SOL     OW 5301   3.011   4.143   0.559 -0.3077 -0.6949 -0.5355
 1384SOL    HW2 5302   3.043   4.106   0.642 -1.0117 -1.0356 -0.4150
 1384SOL    HW3 5303   3.007   4.238   0.576  1.2839 -0.5517 -0.7752
 1384SOL    MW4 5304   3.015   4.151   0.572 -0.1854 -0.6300  0.2357
 1385SOL     OW 5305   0.506   2.194   3.019  0.2879 -0.6624 -0.3684
 1385SOL    HW2 5306   0.568   2.238   3.077 -0.4455  0.6535 -0.5467
 1385SOL    HW3 5307   0.525   2.228   2.932 -0.0631 -0.9737 -0.5728
 1385SOL    MW4 5308   0.517   2.204   3.015  0.2200  0.0121 -0.0700
 1386SOL     OW 5309   1.409   4.126   4.033  0.1026  0.0585  0.3013
 1386SOL    HW2 5310   1.471   4.140   4.105  1.1118  0.9773 -0.6948
 1386SOL    HW3 5311   1.418   4.205   3.979 -0.2141 -0.8575 -1.1319
 1386SOL    MW4 5312   1.418   4.138   4.036  0.4561 -0.0632 -0.1355
 1387SOL     OW 5313   2.904   3.272   1.947  0.0085  0.1427 -0.5364
 1387SOL    HW2 5314   2.874   3.196   1.997 -0.2355  0.3866 -0.3116
 1387SOL    HW3 5315   2.978   3.306   1.998 -0.2944  0.4423 -0.2956
 1387SOL    MW4 5316   2.910   3.266   1.960  0.2413  0.1108 -0.0395
 1388SOL     OW 5317   6.227   0.884   5.122  0.1443  0.5017 -0.3426
 1388SOL    HW2 5318   6.141   0.852   5.093  0.4679 -1.4934  0.6820
 1388SOL    HW3 5319   6.289   0.844   5.061  0.4747  0.1355  0.2244
 1388SOL    MW4 5320   6.224   0.874   5.110  0.5468  0.5440  0.3089
 1389SOL     OW 5321   5.211   2.669   5.828 -0.7170  0.1747  0.2597
 1389SOL    HW2 5322   5.224   2.763   5.818  0.5960 -0.0177  0.0245
 1389SOL    HW3 5323   5.297   2.634   5.848 -1.0123 -1.0919 -0.5183
 1389SOL    MW4 5324   5.224   2.677   5.829 -0.4594  0.2340 -0.0939
 1390SOL     OW 5325   0.244   0.167   0.332  0.5051 -0.2868 -0.3205
 1390SOL    HW2 5326   0.229   0.089   0.385 -0.0996  0.1330  0.1499
 1390SOL    HW3 5327   0.284   0.135   0.252  1.4260 -0.9486  0.3753
 1390SOL    MW4 5328   0.248   0.153   0.329  0.1859  0.2670 -0.1198
 1391SOL     OW 5329   0.436   4.003   3.241 -0.1699  0.6127  0.4667
 1391SOL    HW2 5330   0.468   3.964   3.159 -0.2418  0.1020  0.6772
 1391SOL    HW3 5331   0.385   4.079   3.213  1.2534  1.4737  0.1280
 1391SOL    MW4 5332   0.433   4.008   3.226  0.3369 -0.0307 -0.1422
 1392SOL     OW 5333   3.412   0.312   2.060  0.7254  0.6573  0.4739
 1392SOL    HW2 5334   3.353   0.339   2.131  0.3669  1.5773 -0.1602
 1392SOL    HW3 5335   3.389   0.220   2.045 -0.4635  0.9487  0.3505
 1392SOL    MW4 5336   3.401   0.303   2.068  0.2296  0.4155  0.0931
 1393SOL     OW 5337   4.689   6.072   6.350 -0.7250  0.3250 -0.5205
 1393SOL    HW2 5338   4.672   6.109   6.263  0.1482  0.4190 -0.6624
 1393SOL    HW3 5339   4.607   6.029   6.374 -0.7119 -0.4905 -1.7896
 1393SOL    MW4 5340   4.676   6.071   6.341  0.1200  0.2574 -0.3121
 1394SOL     OW 5341   2.895   4.618   0.350 -0.2558  0.4707  0.2204
 1394SOL    HW2 5342   2.869   4.564   0.425 -0.4000  0.2272 -0.0035
 1394SOL    HW3 5343   2.814   4.628   0.299 -0.4818  1.7640  0.7915
 1394SOL    MW4 5344   2.881   4.612   0.354 -0.2061 -0.3641 -0.3164
 1395SOL     OW 5345   3.474   5.564   5.135  0.0885  0.1338  0.2815
 1395SOL    HW2 5346   3.430   5.607   5.062  0.0952  1.9055  1.2634
 1395SOL    HW3 5347   3.518   5.490   5.096 -1.2126  0.1082 -1.2458
 1395SOL    MW4 5348   3.474   5.560   5.120  0.1205 -0.1145 -0.0014
 1396SOL     OW 5349   0.863   6.104   4.982 -0.4445  0.4340 -0.2790
 1396SOL    HW2 5350   0.957   6.094   4.992 -0.5152  0.0231  0.0398
 1396SOL    HW3 5351   0.851   6.190   4.943  0.0858  0.3072 -0.7325
 1396SOL    MW4 5352   0.874   6.114   4.978  0.2236  0.0943  0.1664
 1397SOL     OW 5353   3.248   4.485   6.015  1.2173 -0.4284  0.0838
 1397SOL    HW2 5354   3.236   4.420   6.084  1.5866  1.2937  1.8761
 1397SOL    HW3 5355   3.321   4.539   6.046 -0.4939  2.2002 -0.1721
 1397SOL    MW4 5356   3.256   4.484   6.029  0.4225 -0.4917 -0.2257
 1398SOL     OW 5357   3.875   3.735   0.818 -0.6468  0.6967 -0.2062
 1398SOL    HW2 5358   3.955   3.769   0.859 -1.1219  1.2916  0.2468
 1398SOL    HW3 5359   3.825   3.700   0.891 -0.6929  0.1025 -0.5225
 1398SOL    MW4 5360   3.879   3.735   0.833 -0.0815 -0.0033 -0.2500
 1399SOL     OW 5361   0.966   5.201   1.418  0.3564 -0.2536 -0.2770
 1399SOL    HW2 5362   1.020   5.124   1.397  1.1613  0.7200 -2.1005
 1399SOL    HW3 5363   1.021   5.252   1.477 -0.2361 -1.0982  1.0516
 1399SOL    MW4 5364   0.981   5.197   1.423  0.6855  0.5837 -0.1522
 1400SOL     OW 5365   0.279   5.304   5.831 -0.2306 -0.2737 -0.1826
 1400SOL    HW2 5366   0.228   5.335   5.755  0.3057 -0.3034 -0.5609
 1400SOL    HW3 5367   0.242   5.351   5.905  1.2412  2.1010 -0.8583
 1400SOL    MW4 5368   0.267   5.314   5.831  0.1303  0.3351 -0.3556
 1401SOL     OW 5369   4.059   6.320   4.429  0.3380 -0.2769  0.2285
 1401SOL    HW2 5370   4.102   6.289   4.509 -1.5048 -0.3046  1.2550
 1401SOL    HW3 5371   3.977   6.271   4.426  0.4274 -0.3845 -1.7950
 1401SOL    MW4 5372   4.054   6.309   4.439 -0.4495 -0.1360 -0.1485
 1402SOL     OW 5373   5.873   5.950   6.398  0.5300  0.3683  0.1953
 1402SOL    HW2 5374   5.895   5.990   6.314  1.7371  0.6376  0.6172
 1402SOL    HW3 5375   5.809   5.881   6.376  1.5606 -0.2293 -1.0786
 1402SOL    MW4 5376   5.867   5.946   6.384 -0.3112  0.2056  0.2737
 1403SOL     OW 5377   0.477   0.962   0.309 -0.0141  0.1292  0.1481
 1403SOL    HW2 5378   0.527   0.883   0.328 -1.9625 -1.0512  0.6753
 1403SOL    HW3 5379   0.453   0.954   0.216 -0.0061  0.2397  0.1353
 1403SOL    MW4 5380   0.480   0.951   0.299  0.2826 -0.1882  0.6778
 1404SOL     OW 5381   1.297   6.376   2.844 -0.1034  0.2453  0.4271
 1404SOL    HW2 5382   1.355   6.369   2.769 -0.8715 -0.1525 -0.1469
 1404SOL    HW3 5383   1.330   6.450   2.894 -0.1821  1.1646 -0.8389
 1404SOL    MW4 5384   1.309   6.385   2.841  0.9577  0.2974  0.0491
 1405SOL     OW 5385   5.697   6.305   4.273 -0.2029  0.1200 -0.4071
 1405SOL    HW2 5386   5.626   6.315   4.336 -0.4002  1.4824 -0.8170
 1405SOL    HW3 5387   5.767   6.361   4.307  1.4398 -2.5239  0.9586
 1405SOL    MW4 5388   5.697   6.314   4.286  0.6155 -0.2080  0.1644
 1406SOL     OW 5389   0.783   1.863   2.125 -0.6705 -0.2191  0.4106
 1406SOL    HW2 5390   0.726   1.925   2.170  0.2423  0.2701  0.9353
 1406SOL    HW3 5391   0.738   1.779   2.132 -0.9849  0.0219  1.4392
 1406SOL    MW4 5392   0.770   1.860   2.132 -0.4719 -0.1318 -0.5634
 1407SOL     OW 5393   2.209   4.829   6.371  0.4184  0.0364 -0.6282
 1407SOL    HW2 5394   2.157   4.780   6.307  1.7046  0.6077 -2.1958
 1407SOL    HW3 5395   2.208   4.775   6.450 -1.0836 -0.7841 -1.1735
 1407SOL    MW4 5396   2.202   4.816   6.373 -0.2624  0.0379  0.4208
 1408SOL     OW 5397   5.598   1.939   3.509  0.0732  0.0093 -0.4286
 1408SOL    HW2 5398   5.569   1.848   3.501 -0.6102  0.0872  0.9955
 1408SOL    HW3 5399   5.518   1.991   3.504  0.1684  0.3630  1.1959
 1408SOL    MW4 5400   5.584   1.934   3.507  0.3614  0.5220  0.0438
 1409SOL     OW 5401   4.455   5.759   5.051 -0.2759  0.1236 -0.3386
 1409SOL    HW2 5402   4.440   5.837   4.996  0.7308 -0.6669 -1.7794
 1409SOL    HW3 5403   4.534   5.779   5.101 -2.7186  2.0726  3.2347
 1409SOL    MW4 5404   4.463   5.772   5.050  0.8648 -0.0348  0.5170
 1410SOL     OW 5405   2.196   0.808   4.583  0.2901 -0.4452 -0.3288
 1410SOL    HW2 5406   2.258   0.873   4.549  0.1078 -0.6872 -1.1247
 1410SOL    HW3 5407   2.112   0.832   4.544 -0.4228  0.6435  1.6960
 1410SOL    MW4 5408   2.193   0.820   4.574  0.1111 -0.2141  0.4763
 1411SOL     OW 5409   1.769   3.430   4.354 -1.2301 -0.1060 -0.1068
 1411SOL    HW2 5410   1.746   3.472   4.437  1.1772 -0.9186  1.0549
 1411SOL    HW3 5411   1.761   3.336   4.372  3.3640 -0.5433  0.6979
 1411SOL    MW4 5412   1.765   3.423   4.367  0.2231 -0.2047 -0.0760
 1412SOL     OW 5413   1.141   4.191   4.102 -0.3007 -0.4063 -0.4010
 1412SOL    HW2 5414   1.222   4.142   4.086 -0.7171 -1.1249 -0.3415
 1412SOL    HW3 5415   1.094   4.138   4.166 -1.3562 -0.5938 -1.3135
 1412SOL    MW4 5416   1.146   4.177   4.109 -0.5012 -0.3714 -0.5568
 1413SOL     OW 5417   3.373   1.384   5.152 -0.5288  0.2007  0.1502
 1413SOL    HW2 5418   3.366   1.373   5.246  0.0870  2.0847  0.4502
 1413SOL    HW3 5419   3.382   1.295   5.118 -2.0085 -0.6014  1.7339
 1413SOL    MW4 5420   3.373   1.371   5.160  0.2496 -0.3848 -0.5741
 1414SOL     OW 5421   6.242   5.690   0.017  0.1692 -0.3135 -0.0233
 1414SOL    HW2 5422   6.190   5.612  -0.003  1.4969 -2.4125  3.6443
 1414SOL    HW3 5423   6.185   5.742   0.073  0.2670 -0.1179 -0.1073
 1414SOL    MW4 5424   6.228   5.686   0.022 -0.8663 -0.3571  0.2533
 1415SOL     OW 5425   5.674   6.271   4.683 -0.0240 -0.2094 -0.6514
 1415SOL    HW2 5426   5.683   6.270   4.778 -0.0069  0.6308 -0.6370
 1415SOL    HW3 5427   5.762   6.251   4.650  0.2204  0.5416 -0.4853
 1415SOL    MW4 5428   5.687   6.268   4.691  0.4996  0.1816  0.3794
 1416SOL     OW 5429   4.654   4.905   5.940 -0.3384 -0.1555 -0.2410
 1416SOL    HW2 5430   4.661   5.000   5.924 -1.1528  0.1973  1.3248
 1416SOL    HW3 5431   4.596   4.874   5.870  0.8224  0.2895 -1.4345
 1416SOL    MW4 5432   4.647   4.914   5.928  0.1045 -0.0291  0.4384
 1417SOL     OW 5433   4.628   6.131   6.085  0.3269 -0.2795 -0.0147
 1417SOL    HW2 5434   4.534   6.148   6.078  0.2194 -0.6683  0.4480
 1417SOL    HW3 5435   4.642   6.052   6.034  0.0969 -1.2298  1.3475
 1417SOL    MW4 5436   4.618   6.123   6.077  0.1257  0.2989 -0.1384
 1418SOL     OW 5437   0.722   0.197   0.333 -0.1452  0.0865 -0.0235
 1418SOL    HW2 5438   0.760   0.279   0.303  0.2975 -0.7839 -2.0175
 1418SOL    HW3 5439   0.764   0.180   0.417  0.2164  1.5747  0.1179
 1418SOL    MW4 5440   0.732   0.205   0.340 -0.0092  0.3962  0.0107
 1419SOL     OW 5441   4.292   1.797   6.183 -0.1166 -0.7232 -0.5168
 1419SOL    HW2 5442   4.342   1.818   6.104 -0.1791  0.6662 -0.2204
 1419SOL    HW3 5443   4.355   1.757   6.242  1.2418  2.7744  0.6067
 1419SOL    MW4 5444   4.307   1.794   6.180 -0.2423  0.3242  0.1127
 1420SOL     OW 5445   1.399   2.669   4.927  0.5920  0.2943  0.2189
 1420SOL    HW2 5446   1.469   2.604   4.936  0.4289  0.1848  0.7314
 1420SOL    HW3 5447   1.325   2.632   4.975  0.4834  0.8372  0.4803
 1420SOL    MW4 5448   1.399   2.656   4.934  0.3569 -0.5427  0.6369
 1421SOL     OW 5449   1.257   2.607   4.242  0.2920 -0.5345  0.2925
 1421SOL    HW2 5450   1.338   2.652   4.264 -0.6907  1.0213  0.9420
 1421SOL    HW3 5451   1.217   2.661   4.174 -0.6967 -0.6432  0.7598
 1421SOL    MW4 5452   1.262   2.620   4.236  0.5282  0.2414  0.5370
 1422SOL     OW 5453   1.100   5.394   1.252 -0.1417  0.1871  0.0383
 1422SOL    HW2 5454   1.045   5.333   1.302 -0.4475  1.1141  0.8534
 1422SOL    HW3 5455   1.072   5.382   1.161  0.7534 -1.8633 -0.0117
 1422SOL    MW4 5456   1.089   5.384   1.247  0.3538 -0.4740 -0.4456
 1423SOL     OW 5457   5.038   0.904   4.548 -0.4104  0.2560  0.0237
 1423SOL    HW2 5458   5.113   0.960   4.529 -0.4284  0.1051 -0.5243
 1423SOL    HW3 5459   5.041   0.837   4.480 -1.1254  0.3377 -0.0978
 1423SOL    MW4 5460   5.048   0.903   4.537 -0.9249  0.5364 -0.3135
 1424SOL     OW 5461   5.182   5.989   0.451 -0.6430  0.0458  0.0912
 1424SOL    HW2 5462   5.182   5.894   0.438 -1.6241  0.3179 -2.4992
 1424SOL    HW3 5463   5.142   6.002   0.537 -1.4459 -1.8671  0.0456
 1424SOL    MW4 5464   5.177   5.978   0.461 -0.5671 -0.2404  0.0250
 1425SOL     OW 5465   2.395   3.097   3.057  0.3841  0.5300  0.0721
 1425SOL    HW2 5466   2.314   3.118   3.104  0.1761 -0.6606  0.2833
 1425SOL    HW3 5467   2.430   3.182   3.030  1.2672  1.4834  3.6050
 1425SOL    MW4 5468   2.389   3.111   3.060  0.9125 -0.0031  0.7427
 1426SOL     OW 5469   5.708   5.799   2.433 -0.0602  0.4230  0.1028
 1426SOL    HW2 5470   5.745   5.788   2.346 -0.4521 -1.7468  0.1632
 1426SOL    HW3 5471   5.757   5.739   2.489 -0.1738  1.3763  1.2906
 1426SOL    MW4 5472   5.719   5.790   2.429  0.6981 -0.1749 -0.1683
 1427SOL     OW 5473   5.227   4.582   4.122  0.2341  0.4420  0.3283
 1427SOL    HW2 5474   5.169   4.531   4.065 -0.7313  0.6966  1.0630
 1427SOL    HW3 5475   5.309   4.533   4.121 -0.0324 -0.0135 -0.6105
 1427SOL    MW4 5476   5.230   4.569   4.114 -0.1869 -0.4253 -0.0182
 1428SOL     OW 5477   4.268   0.585   3.211  0.0381 -0.0571 -0.0932
 1428SOL    HW2 5478   4.332   0.524   3.174  0.6466 -0.7649  1.9856
 1428SOL    HW3 5479   4.202   0.530   3.252  0.5124  0.6171  1.6861
 1428SOL    MW4 5480   4.268   0.570   3.212  0.1422  0.1438  0.0981
 1429SOL     OW 5481   6.184   3.248   2.006  0.1929 -0.2193 -0.8452
 1429SOL    HW2 5482   6.185   3.202   2.090  0.0306 -1.0381 -1.2805
 1429SOL    HW3 5483   6.096   3.285   2.000  0.8560  1.7075  0.3081
 1429SOL    MW4 5484   6.173   3.247   2.017 -0.4557  0.0652 -0.2660
 1430SOL     OW 5485   3.053   1.481   0.359  0.0656 -0.7756 -0.4239
 1430SOL    HW2 5486   2.982   1.472   0.422 -0.3510 -1.3599 -0.9609
 1430SOL    HW3 5487   3.009   1.504   0.277  0.6118  0.1189 -0.4769
 1430SOL    MW4 5488   3.038   1.483   0.356  0.2620  0.0001  0.7015
 1431SOL     OW 5489   1.607   4.515   5.648  0.5643 -0.3158  0.4694
 1431SOL    HW2 5490   1.523   4.538   5.608  0.7781  0.8995  0.6688
 1431SOL    HW3 5491   1.649   4.458   5.584 -0.1119 -0.3532  0.0429
 1431SOL    MW4 5492   1.601   4.511   5.634 -0.4584  0.6538  0.3021
 1432SOL     OW 5493   4.823   4.655   5.558  0.4754 -0.1953 -0.2653
 1432SOL    HW2 5494   4.728   4.662   5.549  0.4095  1.0485  1.0058
 1432SOL    HW3 5495   4.851   4.600   5.485 -1.0136  0.9013 -1.7227
 1432SOL    MW4 5496   4.814   4.649   5.547  0.4086  0.2509 -0.5160
 1433SOL     OW 5497   2.441   5.590   5.650  0.7557  0.5482  0.1313
 1433SOL    HW2 5498   2.458   5.673   5.695  0.7106  0.0918  1.0266
 1433SOL    HW3 5499   2.367   5.552   5.698 -0.3015  0.7213 -1.2854
 1433SOL    MW4 5500   2.433   5.596   5.662  0.1274 -0.0489  0.1820
 1434SOL     OW 5501   6.268   2.433   5.667 -0.4219  0.0237  0.0374
 1434SOL    HW2 5502   6.333   2.450   5.735 -0.6685 -2.6522  1.1030
 1434SOL    HW3 5503   6.184   2.429   5.714 -0.8074 -0.4094 -0.6612
 1434SOL    MW4 5504   6.265   2.434   5.682  0.0288 -0.5298  0.6026
 1435SOL     OW 5505   2.355   3.899   1.237 -0.0259 -0.2179  0.0629
 1435SOL    HW2 5506   2.423   3.837   1.263 -0.8164 -0.6531  1.1811
 1435SOL    HW3 5507   2.401   3.982   1.229  0.4513 -0.1978  2.1991
 1435SOL    MW4 5508   2.370   3.901   1.240 -0.4684  0.1182 -0.0091
 1436SOL     OW 5509   1.333   4.143   5.496  0.2686 -0.0800  0.2201
 1436SOL    HW2 5510   1.244   4.113   5.478  0.8319 -1.9509  0.3870
 1436SOL    HW3 5511   1.359   4.191   5.417 -1.1726  1.2874  0.5190
 1436SOL    MW4 5512   1.325   4.146   5.483  0.1646 -0.1886  0.1694
 1437SOL     OW 5513   1.801   2.511   4.195  0.1717 -0.1974 -0.3197
 1437SOL    HW2 5514   1.826   2.419   4.184 -0.0438 -0.2552 -0.3225
 1437SOL    HW3 5515   1.770   2.538   4.109  0.2545 -0.1145 -0.3238
 1437SOL    MW4 5516   1.801   2.502   4.182  0.3424 -0.2383 -0.5757
 1438SOL     OW 5517   0.257   5.998   5.985  0.2621 -0.3341 -0.8355
 1438SOL    HW2 5518   0.172   6.042   5.981  0.1601 -0.0648  2.2297
 1438SOL    HW3 5519   0.320   6.066   5.962 -0.2464 -0.3806 -2.5405
 1438SOL    MW4 5520   0.254   6.012   5.981  0.0090 -0.4269 -0.3790
 1439SOL     OW 5521   4.336   3.983   4.470  0.4923 -0.5592 -0.2470
 1439SOL    HW2 5522   4.270   4.042   4.507  0.1056 -0.5340 -0.9483
 1439SOL    HW3 5523   4.336   3.907   4.528 -0.6529 -0.8545 -0.6053
 1439SOL    MW4 5524   4.327   3.980   4.482 -0.1809  0.1678 -0.4704
 1440SOL     OW 5525   5.367   0.119   4.926  0.4391 -0.0705 -0.3553
 1440SOL    HW2 5526   5.394   0.031   4.953  1.8682  0.7031  0.8368
 1440SOL    HW3 5527   5.348   0.164   5.008  1.1956  1.1888 -0.8545
 1440SOL    MW4 5528   5.368   0.113   4.940 -0.1094 -0.5264 -0.2629
 1441SOL     OW 5529   2.440   1.721   3.675 -0.4197  0.2936 -0.2510
 1441SOL    HW2 5530   2.407   1.775   3.603  0.1159  0.2218 -0.5565
 1441SOL    HW3 5531   2.372   1.656   3.690 -0.0628 -0.3801 -1.4419
 1441SOL    MW4 5532   2.427   1.720   3.668 -0.0076  0.2741  0.2015
 1442SOL     OW 5533   4.246   1.668   1.035 -0.2481  0.4216  0.1680
 1442SOL    HW2 5534   4.264   1.597   0.974  0.1388  0.2130  0.5260
 1442SOL    HW3 5535   4.172   1.636   1.088  1.4710 -0.7812  2.0037
 1442SOL    MW4 5536   4.238   1.655   1.034  0.4004  0.3093  0.0647
 1443SOL     OW 5537   2.003   3.169   4.934  0.6757  0.5206 -0.2036
 1443SOL    HW2 5538   2.023   3.161   5.027 -1.6456 -1.7651  0.2174
 1443SOL    HW3 5539   1.928   3.228   4.930 -2.2266 -2.8405  0.0328
 1443SOL    MW4 5540   1.996   3.175   4.946  0.1107  0.0571 -0.3627
 1444SOL     OW 5541   5.790   5.913   4.463  0.5133 -0.2826  0.1508
 1444SOL    HW2 5542   5.761   5.830   4.426 -0.0804  0.6269 -1.5434
 1444SOL    HW3 5543   5.720   5.940   4.522  0.6006 -0.8617  0.5207
 1444SOL    MW4 5544   5.777   5.906   4.466  0.6244  0.1774 -0.2299
 1445SOL     OW 5545   4.147   1.794   3.955 -0.0693 -0.4038 -0.4750
 1445SOL    HW2 5546   4.148   1.817   4.048  2.1144 -0.2748 -0.4874
 1445SOL    HW3 5547   4.151   1.879   3.910 -1.7985 -0.4267 -0.7464
 1445SOL    MW4 5548   4.147   1.808   3.961 -0.1308 -0.1454 -0.6857
 1446SOL     OW 5549   4.836   0.285   2.843  0.1056 -0.7078 -0.5788
 1446SOL    HW2 5550   4.760   0.247   2.887 -0.7075 -0.3425 -1.6365
 1446SOL    HW3 5551   4.881   0.334   2.912  0.0977 -1.9316  0.3554
 1446SOL    MW4 5552   4.832   0.286   2.858  0.1746 -0.4677  0.5309
 1447SOL     OW 5553   2.298   4.812   3.171 -0.1956 -0.1330 -0.1079
 1447SOL    HW2 5554   2.350   4.844   3.244  1.3988  0.8367 -1.5882
 1447SOL    HW3 5555   2.236   4.882   3.152 -1.0873 -0.6723  0.7068
 1447SOL    MW4 5556   2.297   4.825   3.178 -0.0415 -0.2514  0.7757
 1448SOL     OW 5557   0.048   0.627   1.647 -0.5075 -0.9025 -0.4553
 1448SOL    HW2 5558  -0.007   0.627   1.570  0.0758 -0.8035 -0.8815
 1448SOL    HW3 5559   0.068   0.719   1.663 -1.7429 -0.7932  0.6440
 1448SOL    MW4 5560   0.044   0.639   1.639  0.1171 -0.1879  0.0534
 1449SOL     OW 5561   1.299   3.171   4.887 -0.3105  0.0742 -0.3869
 1449SOL    HW2 5562   1.225   3.211   4.934 -0.6536 -1.9910  0.9356
 1449SOL    HW3 5563   1.372   3.231   4.904 -0.9289  0.4906  1.0333
 1449SOL    MW4 5564   1.299   3.184   4.896  0.1601 -0.4502  0.1394
 1450SOL     OW 5565   4.986   4.380   3.304  0.0700 -0.2106 -0.3137
 1450SOL    HW2 5566   5.014   4.449   3.364 -0.3038  0.3653 -0.7959
 1450SOL    HW3 5567   4.992   4.299   3.355 -1.2766  0.3862  0.8446
 1450SOL    MW4 5568   4.991   4.378   3.318 -0.0720  0.0678 -0.1174
 1451SOL     OW 5569   2.360   2.723   0.153  0.0029  0.1226  0.6312
 1451SOL    HW2 5570   2.350   2.630   0.169 -0.6324  0.1463  0.4063
 1451SOL    HW3 5571   2.275   2.761   0.177  0.1493  0.5954  0.4193
 1451SOL    MW4 5572   2.347   2.716   0.158 -0.0410 -0.0256  0.6344
 1452SOL     OW 5573   5.787   6.199   2.721 -0.2117 -0.0112  0.2575
 1452SOL    HW2 5574   5.834   6.150   2.788 -0.2661  3.0587  2.7160
 1452SOL    HW3 5575   5.855   6.225   2.658  0.2377 -0.9160  0.3548
 1452SOL    MW4 5576   5.802   6.196   2.721 -0.2816 -0.1442  0.0274
 1453SOL     OW 5577   0.350   6.197   0.973  0.3860 -0.5975  0.0087
 1453SOL    HW2 5578   0.313   6.285   0.966  1.0520 -0.3753 -1.1289
 1453SOL    HW3 5579   0.403   6.187   0.893 -1.2182 -2.7517 -0.9085
 1453SOL    MW4 5580   0.352   6.207   0.961  0.1821 -0.2288  0.2089
 1454SOL     OW 5581   2.064   6.166   0.184 -0.9979 -0.2281  0.0447
 1454SOL    HW2 5582   1.992   6.116   0.222 -3.2013  1.1578 -2.0055
 1454SOL    HW3 5583   2.138   6.105   0.182 -2.6842 -2.4001  0.3930
 1454SOL    MW4 5584   2.064   6.151   0.188  0.2946  0.5397  0.3584
 1455SOL     OW 5585   2.200   5.051   1.151  0.1505 -0.0529  0.2698
 1455SOL    HW2 5586   2.280   5.077   1.197 -0.0534  0.2631  0.4560
 1455SOL    HW3 5587   2.181   4.963   1.184  0.8891 -0.4838 -0.4191
 1455SOL    MW4 5588   2.208   5.043   1.162 -0.4400  0.5476  0.0255
 1456SOL     OW 5589   1.534   0.597   0.905 -0.2325  0.3793  0.1176
 1456SOL    HW2 5590   1.582   0.549   0.971  0.2145  0.7551  0.0693
 1456SOL    HW3 5591   1.481   0.660   0.954  0.1043  0.6629  0.1260
 1456SOL    MW4 5592   1.533   0.599   0.920 -0.2477 -0.6370  0.0580
 1457SOL     OW 5593   2.996   2.659   3.334  0.0919 -0.0812 -0.1053
 1457SOL    HW2 5594   2.951   2.619   3.259  1.0203  1.5531 -1.5938
 1457SOL    HW3 5595   3.089   2.648   3.315  0.3447 -0.2604  1.1775
 1457SOL    MW4 5596   3.002   2.652   3.321 -0.2216 -0.0054 -0.4329
 1458SOL     OW 5597   3.187   1.773   4.645 -0.1139  0.3116 -0.0584
 1458SOL    HW2 5598   3.149   1.766   4.558 -0.1296 -0.0342 -0.0256
 1458SOL    HW3 5599   3.242   1.851   4.641  0.4393 -0.0903 -0.5944
 1458SOL    MW4 5600   3.189   1.782   4.633  1.1214 -0.4627  0.3398
 1459SOL     OW 5601   3.801   5.764   4.454 -0.0345 -0.3107 -0.4757
 1459SOL    HW2 5602   3.849   5.681   4.456 -1.2882 -1.1111 -1.4622
 1459SOL    HW3 5603   3.783   5.779   4.361 -2.7288 -0.7365 -0.1139
 1459SOL    MW4 5604   3.805   5.755   4.442 -0.3298  0.1815 -0.1935
 1460SOL     OW 5605   4.371   6.340   5.888 -0.0925  0.4874 -0.6138
 1460SOL    HW2 5606   4.338   6.411   5.942  1.9561 -0.2801  1.8353
 1460SOL    HW3 5607   4.463   6.363   5.871  0.3615 -1.1170 -0.5265
 1460SOL    MW4 5608   4.379   6.352   5.893  0.0875  0.2976 -0.2837
 1461SOL     OW 5609   5.434   4.026   1.101  0.2633 -0.0262 -0.2431
 1461SOL    HW2 5610   5.433   4.079   1.021  0.9120 -1.5525 -1.3164
 1461SOL    HW3 5611   5.366   3.961   1.088 -0.1283  0.1624  0.7971
 1461SOL    MW4 5612   5.425   4.025   1.089  0.1899  0.5928  0.0949
 1462SOL     OW 5613   4.027   5.599   4.519  0.2483 -0.0182 -0.3705
 1462SOL    HW2 5614   4.095   5.637   4.574  1.2979 -1.1893 -0.8175
 1462SOL    HW3 5615   4.075   5.547   4.454 -1.0162  0.2175 -1.5313
 1462SOL    MW4 5616   4.042   5.597   4.518  0.4099  0.4153  0.4596
 1463SOL     OW 5617   1.075   1.122   3.701  0.3907  1.4020  0.3836
 1463SOL    HW2 5618   1.155   1.154   3.743 -0.7635  0.0538  4.0029
 1463SOL    HW3 5619   1.102   1.045   3.652  1.6738  2.5700 -0.8447
 1463SOL    MW4 5620   1.089   1.116   3.700  0.3471  0.1392  0.1247
 1464SOL     OW 5621   3.267   4.727   1.085 -0.3169  0.2713  0.1477
 1464SOL    HW2 5622   3.358   4.752   1.103 -0.2427 -0.3369  0.6483
 1464SOL    HW3 5623   3.217   4.808   1.096  0.2417  0.7708 -0.8074
 1464SOL    MW4 5624   3.273   4.741   1.089  0.2195  0.1136 -0.3271
 1465SOL     OW 5625   0.507   1.125   6.235  0.2164  0.2136  0.2649
 1465SOL    HW2 5626   0.470   1.199   6.187 -1.1773  1.4154  3.0193
 1465SOL    HW3 5627   0.570   1.165   6.296  0.2906 -1.0076  1.0128
 1465SOL    MW4 5628   0.511   1.140   6.237  0.0295 -0.5845  0.0468
 1466SOL     OW 5629   2.882   6.151   1.877  0.3900 -0.3963  0.0853
 1466SOL    HW2 5630   2.796   6.192   1.870 -1.3387 -3.8788 -2.3230
 1466SOL    HW3 5631   2.936   6.197   1.813 -0.3773  0.3216 -0.0657
 1466SOL    MW4 5632   2.878   6.162   1.868  0.0580 -0.7583  0.2983
 1467SOL     OW 5633   4.930   3.870   0.710 -0.1786 -0.4445 -0.2704
 1467SOL    HW2 5634   4.971   3.835   0.630  0.6323 -1.0850  0.4084
 1467SOL    HW3 5635   4.836   3.866   0.691  0.0192  1.5349 -2.0590
 1467SOL    MW4 5636   4.923   3.865   0.697  0.2754 -0.1731 -0.0161
 1468SOL     OW 5637   0.040   4.282   1.091  0.3639 -0.0322  0.2037
 1468SOL    HW2 5638   0.104   4.352   1.081  0.8830 -0.5861 -0.3916
 1468SOL    HW3 5639   0.080   4.205   1.051 -0.4479 -0.5300  0.3021
 1468SOL    MW4 5640   0.053   4.281   1.085 -0.5453  0.4876  0.1709
 1469SOL     OW 5641   0.276   1.938   3.344 -0.5040  0.0722 -0.0340
 1469SOL    HW2 5642   0.291   2.029   3.368 -0.9828  0.3251 -0.6865
 1469SOL    HW3 5643   0.196   1.913   3.389 -1.3788  0.5339 -1.2918
 1469SOL    MW4 5644   0.268   1.946   3.353 -0.4791  0.0027  0.0201
 1470SOL     OW 5645   4.595   3.550   1.958  0.2897 -0.2292 -0.2680
 1470SOL    HW2 5646   4.586   3.455   1.971  1.0832 -0.0736  1.7434
 1470SOL    HW3 5647   4.509   3.577   1.926 -0.4494 -1.4285  0.5973
 1470SOL    MW4 5648   4.582   3.541   1.956 -0.8309 -0.2572  0.8521
 1471SOL     OW 5649   2.718   4.993   5.730  0.3471 -0.0966  0.4185
 1471SOL    HW2 5650   2.694   5.086   5.735  0.6521 -0.0272  0.6121
 1471SOL    HW3 5651   2.658   4.950   5.790 -0.9124 -0.2560 -0.9021
 1471SOL    MW4 5652   2.707   5.000   5.738 -0.9329  0.2191  0.1371
 1472SOL     OW 5653   3.572   6.121   3.566 -0.0189  0.1763  0.0816
 1472SOL    HW2 5654   3.528   6.044   3.529  1.2288 -0.2766 -0.4956
 1472SOL    HW3 5655   3.622   6.088   3.640 -1.1238  0.8020  1.1483
 1472SOL    MW4 5656   3.573   6.107   3.571 -0.0732 -0.2366 -0.4822
 1473SOL     OW 5657   5.233   0.960   2.986  0.3757 -0.2986 -0.2116
 1473SOL    HW2 5658   5.318   0.986   3.020  1.0195 -0.6312 -1.4925
 1473SOL    HW3 5659   5.186   1.042   2.972  0.4283 -0.1211  0.6319
 1473SOL    MW4 5660   5.238   0.974   2.988 -0.5981  0.0314  0.4644
 1474SOL     OW 5661   0.827   2.076   0.094 -0.2587 -0.4534  0.1080
 1474SOL    HW2 5662   0.842   2.124   0.013 -2.0391 -2.4593 -1.5372
 1474SOL    HW3 5663   0.734   2.054   0.092 -0.3656 -0.5716  2.7369
 1474SOL    MW4 5664   0.817   2.080   0.083 -0.5834  0.5599  0.0361
 1475SOL     OW 5665   2.427   4.636   0.398 -0.5132  0.0348 -0.0011
 1475SOL    HW2 5666   2.355   4.628   0.461 -1.0982 -2.1554 -0.8379
 1475SOL    HW3 5667   2.491   4.570   0.426 -1.1573 -1.5801 -2.0497
 1475SOL    MW4 5668   2.426   4.626   0.410 -0.3049  0.0762  0.4971
 1476SOL     OW 5669   6.448   0.538   0.588 -0.5422 -0.0716  0.7174
 1476SOL    HW2 5670   6.444   0.460   0.532 -1.8025  0.9314 -0.6502
 1476SOL    HW3 5671   6.525   0.585   0.558 -1.2033  0.4533 -0.2101
 1476SOL    MW4 5672   6.458   0.534   0.577 -0.2559  0.5288  0.4513
 1477SOL     OW 5673   0.600   1.212   4.182 -1.1026  0.7877 -0.2417
 1477SOL    HW2 5674   0.684   1.178   4.153 -0.8737  1.4996 -0.4284
 1477SOL    HW3 5675   0.578   1.160   4.260  0.1998  1.5585  0.6696
 1477SOL    MW4 5676   0.608   1.201   4.189 -0.1809 -0.2686  0.1129
 1478SOL     OW 5677   4.390   2.423   3.461  0.2471 -0.6300  0.0262
 1478SOL    HW2 5678   4.420   2.378   3.540 -0.5625  2.1457  2.0368
 1478SOL    HW3 5679   4.294   2.419   3.465  0.1866 -0.2086 -0.6809
 1478SOL    MW4 5680   4.381   2.416   3.472  0.6346  0.0070 -0.0536
 1479SOL     OW 5681   4.846   3.530   6.174 -0.4719  0.2324  0.1721
 1479SOL    HW2 5682   4.902   3.459   6.206  0.4093  0.5160 -0.6630
 1479SOL    HW3 5683   4.907   3.589   6.129 -1.2503  1.3094  0.5132
 1479SOL    MW4 5684   4.861   3.528   6.172  0.0228  0.2759  0.5633
 1480SOL     OW 5685   2.402   2.643   5.624  0.2605  0.4996 -0.4040
 1480SOL    HW2 5686   2.359   2.589   5.558  0.4365 -0.8864  0.5800
 1480SOL    HW3 5687   2.330   2.689   5.668 -0.1275 -0.8251  0.3783
 1480SOL    MW4 5688   2.387   2.642   5.621  0.3795 -0.8660 -0.2067
 1481SOL     OW 5689   4.363   3.464   6.215 -0.2028 -0.2309  0.2773
 1481SOL    HW2 5690   4.443   3.431   6.174 -1.0738 -0.9279 -0.9267
 1481SOL    HW3 5691   4.336   3.393   6.274  0.6687  0.4817  1.5696
 1481SOL    MW4 5692   4.370   3.450   6.217 -0.1140 -0.0631 -0.0662
 1482SOL     OW 5693   4.503   2.103   6.082  0.5401  0.0195  0.4608
 1482SOL    HW2 5694   4.594   2.132   6.075  0.9602 -1.3990 -0.2260
 1482SOL    HW3 5695   4.483   2.063   5.997  0.2127 -2.2466  1.5279
 1482SOL    MW4 5696   4.512   2.102   6.070  0.4878  0.2676  0.7755
 1483SOL     OW 5697   4.336   1.207   0.803 -0.5408 -0.1175 -0.2191
 1483SOL    HW2 5698   4.412   1.152   0.822 -0.0562 -0.3223 -2.5256
 1483SOL    HW3 5699   4.302   1.173   0.721 -2.6682  0.5030  0.3564
 1483SOL    MW4 5700   4.342   1.195   0.795 -0.2968  0.7340 -0.6874
 1484SOL     OW 5701   5.615   3.770   2.339 -0.0608 -0.4402 -0.9117
 1484SOL    HW2 5702   5.640   3.862   2.339  0.4963 -0.5681  0.9394
 1484SOL    HW3 5703   5.578   3.756   2.251  0.0691  1.4612 -1.3158
 1484SOL    MW4 5704   5.613   3.780   2.327 -0.7620  0.0292  0.3303
 1485SOL     OW 5705   4.129   3.686   1.657  0.0452  0.7613 -0.2740
 1485SOL    HW2 5706   4.119   3.776   1.689  2.9026  0.4938  1.7440
 1485SOL    HW3 5707   4.149   3.635   1.735  0.2652 -1.3300 -1.6239
 1485SOL    MW4 5708   4.130   3.691   1.672 -0.1651 -0.0467 -0.7410
 1486SOL     OW 5709   3.510   2.478   2.781  0.4827 -0.2751 -0.2830
 1486SOL    HW2 5710   3.579   2.418   2.752  0.5602 -0.2905 -0.0617
 1486SOL    HW3 5711   3.429   2.429   2.766  0.5424 -0.4124 -0.1553
 1486SOL    MW4 5712   3.508   2.464   2.775 -0.5050 -0.0084 -0.7759
 1487SOL     OW 5713   4.571   4.427   5.311  0.3516 -0.3250 -0.0141
 1487SOL    HW2 5714   4.599   4.336   5.310  0.0811 -0.4098 -0.5077
 1487SOL    HW3 5715   4.556   4.448   5.219  0.4213  0.2198  0.0976
 1487SOL    MW4 5716   4.573   4.418   5.299 -0.4906  0.5868 -0.5293
 1488SOL     OW 5717   4.725   2.344   2.061 -0.6149 -0.0323 -0.0430
 1488SOL    HW2 5718   4.759   2.341   1.971 -0.3557 -1.6217  0.0671
 1488SOL    HW3 5719   4.780   2.281   2.109  0.1491  1.7627  1.5733
 1488SOL    MW4 5720   4.737   2.335   2.055  0.0526  0.0699 -0.5636
 1489SOL     OW 5721   3.397   4.337   2.352 -0.1068 -0.2802 -0.1365
 1489SOL    HW2 5722   3.387   4.267   2.416  4.2429 -1.6906 -0.6657
 1489SOL    HW3 5723   3.372   4.297   2.269 -0.7774 -0.1112 -0.0215
 1489SOL    MW4 5724   3.392   4.322   2.350 -0.3566 -0.0740  0.3156
 1490SOL     OW 5725   3.477   4.295   5.690  0.1698  0.0553  0.5397
 1490SOL    HW2 5726   3.551   4.331   5.641 -0.2447  1.6143  0.9926
 1490SOL    HW3 5727   3.444   4.224   5.636  0.4588  0.9599 -0.8836
 1490SOL    MW4 5728   3.483   4.290   5.677 -0.6839  0.0955 -0.0482
 1491SOL     OW 5729   6.368   1.965   0.479 -0.0036 -0.4004  0.6549
 1491SOL    HW2 5730   6.381   1.962   0.384 -2.2041  0.3411  0.2535
 1491SOL    HW3 5731   6.337   2.055   0.496  2.1140  0.0761  2.3840
 1491SOL    MW4 5732   6.365   1.977   0.469 -0.0468  0.1756  0.0257
 1492SOL     OW 5733   0.105   3.548   4.319  0.1612 -0.5958 -0.1521
 1492SOL    HW2 5734   0.138   3.576   4.404 -0.1027 -1.7555  0.3456
 1492SOL    HW3 5735   0.041   3.480   4.339  0.3053 -1.0870 -1.2869
 1492SOL    MW4 5736   0.101   3.543   4.333  0.7055 -0.5619  0.2535
 1493SOL     OW 5737   0.582   1.745   0.431 -0.0233  0.4535  0.0544
 1493SOL    HW2 5738   0.537   1.661   0.422  0.8405  0.1325 -1.7930
 1493SOL    HW3 5739   0.600   1.754   0.524 -2.3732 -0.1943  0.6298
 1493SOL    MW4 5740   0.578   1.735   0.442  0.5179 -0.1816 -0.0707
 1494SOL     OW 5741   5.915   0.658   0.342  0.6782 -0.5180 -0.5685
 1494SOL    HW2 5742   5.954   0.743   0.325 -0.4522  0.3104  0.7606
 1494SOL    HW3 5743   5.876   0.632   0.258  0.9681  0.3023 -0.9656
 1494SOL    MW4 5744   5.915   0.665   0.329  0.8870 -0.1288  0.4146
 1495SOL     OW 5745   4.894   3.462   4.703  0.2670  0.0886 -0.0154
 1495SOL    HW2 5746   4.805   3.496   4.703  0.7884  1.5072  1.2770
 1495SOL    HW3 5747   4.899   3.410   4.622 -0.9835  1.9466 -1.3753
 1495SOL    MW4 5748   4.883   3.459   4.692 -0.2369  0.0076  0.1032
 1496SOL     OW 5749   1.081   2.439   2.124  0.2366  0.2854 -0.0734
 1496SOL    HW2 5750   1.101   2.382   2.050  0.8119 -0.2462  0.4798
 1496SOL    HW3 5751   1.148   2.508   2.120 -0.4715  0.9613 -0.7547
 1496SOL    MW4 5752   1.093   2.441   2.114 -0.2248  0.0869  0.6801
 1497SOL     OW 5753   1.384   6.345   6.283 -0.2461  0.4370 -0.2655
 1497SOL    HW2 5754   1.298   6.372   6.317 -0.4394 -0.6524  0.1561
 1497SOL    HW3 5755   1.366   6.263   6.236  0.6175  0.0506  0.0678
 1497SOL    MW4 5756   1.370   6.338   6.281  0.3590 -0.0666  0.1972
 1498SOL     OW 5757   0.677   4.730   2.353  0.0586 -0.2152  0.4604
 1498SOL    HW2 5758   0.724   4.660   2.307 -0.3098  0.0526 -0.3474
 1498SOL    HW3 5759   0.728   4.744   2.433  2.4559  1.2548 -1.1806
 1498SOL    MW4 5760   0.690   4.723   2.357  0.3107  0.0592 -0.4513
 1499SOL     OW 5761   3.600   1.481   5.042 -0.0976 -0.2327 -0.5658
 1499SOL    HW2 5762   3.542   1.434   5.102  0.1502 -0.3418 -0.4094
 1499SOL    HW3 5763   3.661   1.527   5.100 -1.0741  1.2692 -0.6602
 1499SOL    MW4 5764   3.600   1.481   5.058  0.7164 -0.1096  1.1023
 1500SOL     OW 5765   2.122   6.045   6.134  0.8805  0.4495  0.1202
 1500SOL    HW2 5766   2.213   6.071   6.150  0.8045  0.9342 -0.2301
 1500SOL    HW3 5767   2.074   6.076   6.211  1.3235 -1.5787  1.2981
 1500SOL    MW4 5768   2.128   6.053   6.147 -0.3083  0.1772  0.1864
 1501SOL     OW 5769   4.066   4.364   3.660 -0.2830 -0.1753 -0.0161
 1501SOL    HW2 5770   4.156   4.375   3.692 -0.3988 -1.0225  0.6075
 1501SOL    HW3 5771   4.023   4.309   3.725 -1.3383  0.4247 -0.1814
 1501SOL    MW4 5772   4.072   4.359   3.673  0.3708  0.0790  0.3120
 1502SOL     OW 5773   6.254   0.360   1.659  0.2773  0.2719  0.7276
 1502SOL    HW2 5774   6.183   0.299   1.640  1.5035 -1.0805  0.2900
 1502SOL    HW3 5775   6.304   0.365   1.578  1.7846 -0.3726  1.5657
 1502SOL    MW4 5776   6.251   0.352   1.646 -0.0507 -0.1551  0.3504
 1503SOL     OW 5777   3.502   2.104   1.719  0.6080  0.5191 -0.2774
 1503SOL    HW2 5778   3.536   2.125   1.632 -0.0331  0.2293 -0.6004
 1503SOL    HW3 5779   3.574   2.126   1.779  1.3576 -0.0674 -0.9486
 1503SOL    MW4 5780   3.516   2.110   1.716  0.2731 -0.4565 -0.3795
 1504SOL     OW 5781   3.376   5.204   4.691  0.7239 -0.0819 -0.2959
 1504SOL    HW2 5782   3.359   5.201   4.597 -1.5953 -1.3517  0.0915
 1504SOL    HW3 5783   3.369   5.113   4.720 -0.9566  0.5201  1.4168
 1504SOL    MW4 5784   3.373   5.192   4.682 -0.8261  0.4400 -0.4421
 1505SOL     OW 5785   1.784   0.510   5.377  0.4038 -0.4842  0.8420
 1505SOL    HW2 5786   1.863   0.545   5.417 -0.3096  2.8086 -0.3564
 1505SOL    HW3 5787   1.715   0.572   5.401 -1.5945 -2.4648  0.6488
 1505SOL    MW4 5788   1.785   0.523   5.386  0.1655  0.8126 -0.2945
 1506SOL     OW 5789   5.109   0.056   6.346 -0.1866  0.3555 -0.2779
 1506SOL    HW2 5790   5.072   0.142   6.328 -0.8410  0.2929  0.7186
 1506SOL    HW3 5791   5.035  -0.004   6.342  0.4101 -0.3429 -1.9648
 1506SOL    MW4 5792   5.095   0.059   6.343 -0.3769  0.1176 -0.4367
 1507SOL     OW 5793   5.324   4.722   2.572  0.2673  0.8976 -0.8607
 1507SOL    HW2 5794   5.291   4.800   2.528  2.2304  1.9290 -0.6062
 1507SOL    HW3 5795   5.415   4.743   2.593  0.8553 -1.4574 -0.7805
 1507SOL    MW4 5796   5.332   4.735   2.569 -0.2139 -0.2599 -0.6756
 1508SOL     OW 5797   2.432   6.160   0.670 -0.2144 -0.7446  0.0841
 1508SOL    HW2 5798   2.503   6.218   0.643 -0.8918  0.0964  0.0651
 1508SOL    HW3 5799   2.422   6.099   0.598 -0.0041 -0.3914 -0.2481
 1508SOL    MW4 5800   2.440   6.160   0.657 -0.1132  0.3335  0.0069
 1509SOL     OW 5801   4.392   0.923   5.837 -0.5148  0.4383 -0.5487
 1509SOL    HW2 5802   4.330   0.946   5.906 -0.0740 -0.1996  0.0684
 1509SOL    HW3 5803   4.365   0.837   5.807 -0.3068  0.4283 -0.7129
 1509SOL    MW4 5804   4.380   0.915   5.842  0.4911 -0.4507 -0.3537
 1510SOL     OW 5805   5.816   4.160   4.910 -0.2912 -0.0534  0.1056
 1510SOL    HW2 5806   5.866   4.199   4.839 -0.8897  1.0364  0.2581
 1510SOL    HW3 5807   5.726   4.158   4.879 -0.3231 -1.1103  0.2066
 1510SOL    MW4 5808   5.811   4.165   4.897  0.7959  0.0379 -0.2190
 1511SOL     OW 5809   2.636   6.309   4.585 -0.2801  0.1736 -0.0767
 1511SOL    HW2 5810   2.721   6.352   4.589  0.0360 -0.0910 -2.4705
 1511SOL    HW3 5811   2.620   6.294   4.492 -1.7979 -2.0754  0.4394
 1511SOL    MW4 5812   2.645   6.313   4.573 -0.1661  0.1266  0.8993
 1512SOL     OW 5813   6.313   1.742   6.181  0.0399 -0.5333 -0.4264
 1512SOL    HW2 5814   6.393   1.795   6.180 -0.5742  0.4185 -0.8542
 1512SOL    HW3 5815   6.255   1.786   6.119 -0.3008 -2.0344 -1.2100
 1512SOL    MW4 5816   6.316   1.755   6.173 -0.1229  0.2452  0.2137
 1513SOL     OW 5817   3.678   0.091   2.063 -0.2431 -0.1777  0.2160
 1513SOL    HW2 5818   3.725   0.100   2.146 -0.5657  1.2371  0.2562
 1513SOL    HW3 5819   3.610   0.158   2.066 -0.8225 -0.6885 -0.8315
 1513SOL    MW4 5820   3.675   0.101   2.074 -0.2782  0.4917 -0.2276
 1514SOL     OW 5821   0.682   4.298   5.508 -0.5932  0.3456 -0.1478
 1514SOL    HW2 5822   0.619   4.235   5.474 -0.2283  0.5362 -1.2096
 1514SOL    HW3 5823   0.752   4.244   5.545 -0.9578  0.1335  0.2368
 1514SOL    MW4 5824   0.683   4.283   5.508 -0.3504 -0.1052 -0.5151
 1515SOL     OW 5825   5.118   4.278   6.241  0.4164 -0.4551 -0.6224
 1515SOL    HW2 5826   5.203   4.321   6.242  0.6053 -0.8254 -0.3070
 1515SOL    HW3 5827   5.118   4.223   6.320 -0.2719 -0.1532 -0.4076
 1515SOL    MW4 5828   5.129   4.276   6.252  0.1645 -0.0748  0.1235
 1516SOL     OW 5829   2.755   0.348   3.447  0.5058  0.6416 -0.1485
 1516SOL    HW2 5830   2.674   0.314   3.408 -0.2953 -0.1782  2.0375
 1516SOL    HW3 5831   2.759   0.439   3.417 -1.0792  0.6191 -0.5659
 1516SOL    MW4 5832   2.745   0.356   3.438  0.0893  0.3121  0.2348
 1517SOL     OW 5833   4.924   2.719   6.339  0.0008 -0.5876  0.0462
 1517SOL    HW2 5834   4.837   2.683   6.325 -0.1299  0.1444 -1.1468
 1517SOL    HW3 5835   4.974   2.693   6.262  0.8871 -1.1117  0.7786
 1517SOL    MW4 5836   4.919   2.711   6.327  0.1027 -0.4331  0.5060
 1518SOL     OW 5837   1.301   3.446   0.844 -0.1597 -0.2656  0.5846
 1518SOL    HW2 5838   1.215   3.437   0.885 -0.2702  0.6346  0.5606
 1518SOL    HW3 5839   1.283   3.436   0.750 -0.2703  0.1538  0.5615
 1518SOL    MW4 5840   1.287   3.443   0.837 -0.1590  0.0343  0.1101
 1519SOL     OW 5841   0.920   0.864   0.879  1.0255 -0.0335 -0.3613
 1519SOL    HW2 5842   0.930   0.918   0.801 -0.2372 -2.7280 -2.5850
 1519SOL    HW3 5843   0.833   0.885   0.912  0.9758  0.1043 -0.5742
 1519SOL    MW4 5844   0.910   0.874   0.873  0.1793 -0.2309 -0.4993
 1520SOL     OW 5845   5.276   3.643   1.566 -0.2778 -0.1529 -0.1243
 1520SOL    HW2 5846   5.278   3.738   1.578  0.2539 -0.1906  0.1313
 1520SOL    HW3 5847   5.220   3.611   1.637 -0.3015 -0.0464 -0.0957
 1520SOL    MW4 5848   5.269   3.651   1.577  0.1150 -0.1107 -0.6513
 1521SOL     OW 5849   0.150   5.972   1.938  0.6940 -0.4353  0.0563
 1521SOL    HW2 5850   0.063   5.934   1.944  0.4975  0.1052  0.8622
 1521SOL    HW3 5851   0.170   5.972   1.845 -0.0588 -0.8092 -0.1123
 1521SOL    MW4 5852   0.141   5.967   1.927 -0.0848 -0.2407  0.0039
 1522SOL     OW 5853   4.288   0.475   0.780  0.4503  0.1958 -0.1461
 1522SOL    HW2 5854   4.250   0.540   0.840 -1.9209 -0.5582 -0.7363
 1522SOL    HW3 5855   4.358   0.523   0.735 -1.4165  2.5119 -0.8125
 1522SOL    MW4 5856   4.292   0.490   0.782 -0.1904  0.7184 -0.3579
 1523SOL     OW 5857   1.309   3.503   5.733 -0.1277 -0.1704  0.7980
 1523SOL    HW2 5858   1.385   3.561   5.727 -0.8848  0.9405  1.4321
 1523SOL    HW3 5859   1.318   3.442   5.660 -0.2868  1.9648 -1.0947
 1523SOL    MW4 5860   1.320   3.503   5.723  0.0641  0.4409 -0.4409
 1524SOL     OW 5861   0.537   0.829   1.923 -0.1239 -0.0349 -0.2689
 1524SOL    HW2 5862   0.499   0.810   1.837 -1.2454  0.3628  0.1233
 1524SOL    HW3 5863   0.627   0.857   1.904 -0.4500  0.3272 -1.3242
 1524SOL    MW4 5864   0.544   0.830   1.909  0.5280 -0.2428  0.1344
 1525SOL     OW 5865   1.663   5.391   5.689 -0.1660  0.7491  0.1213
 1525SOL    HW2 5866   1.626   5.467   5.735  1.2856  0.7938  1.2910
 1525SOL    HW3 5867   1.625   5.396   5.602 -2.1293  1.3238  0.9542
 1525SOL    MW4 5868   1.653   5.402   5.684 -0.1937 -0.0833 -0.5823
 1526SOL     OW 5869   3.312   0.329   3.374  0.7369  0.1716  0.0577
 1526SOL    HW2 5870   3.241   0.288   3.324 -0.1951  0.8655  0.7743
 1526SOL    HW3 5871   3.337   0.263   3.439  0.8477 -0.1183 -0.2719
 1526SOL    MW4 5872   3.306   0.315   3.376  0.3827 -0.0012  0.2444
 1527SOL     OW 5873   4.085   3.956   1.721 -0.2520 -0.1413 -0.3202
 1527SOL    HW2 5874   4.108   3.974   1.630  0.1816 -1.3323 -0.4680
 1527SOL    HW3 5875   3.993   3.978   1.728 -1.1049 -2.7854 -1.8599
 1527SOL    MW4 5876   4.076   3.961   1.710  0.1339  1.0383 -0.2192
 1528SOL     OW 5877   5.371   3.835   6.365  0.1274  0.1439  0.3695
 1528SOL    HW2 5878   5.366   3.740   6.369  0.3096  0.1554  0.9800
 1528SOL    HW3 5879   5.444   3.853   6.306 -0.6077 -0.0806 -0.6178
 1528SOL    MW4 5880   5.380   3.825   6.358  0.1996  0.2921  0.1796
 1529SOL     OW 5881   0.248   1.401   2.088  0.3747 -0.1626 -0.3455
 1529SOL    HW2 5882   0.240   1.446   2.004 -0.8914  1.5061  0.6217
 1529SOL    HW3 5883   0.159   1.375   2.110  0.7798 -1.1604  0.2039
 1529SOL    MW4 5884   0.235   1.403   2.080 -0.1691 -0.6674 -0.2775
 1530SOL     OW 5885   0.215   1.433   4.252  0.2642  0.5295  0.4180
 1530SOL    HW2 5886   0.238   1.498   4.318 -0.9233  0.8040  0.5942
 1530SOL    HW3 5887   0.285   1.438   4.188  1.7764 -0.1760  1.9413
 1530SOL    MW4 5888   0.227   1.442   4.252 -0.0826 -0.2710  0.2317
 1531SOL     OW 5889   1.529   1.384   0.667  0.1787 -0.0544 -0.9326
 1531SOL    HW2 5890   1.598   1.327   0.632  0.3089 -0.2487 -0.3839
 1531SOL    HW3 5891   1.483   1.328   0.730  0.1330  0.3704 -0.5892
 1531SOL    MW4 5892   1.532   1.369   0.671 -0.1040 -0.7966  0.5149
 1532SOL     OW 5893   2.254   3.726   2.338  0.4331 -0.1724  0.1722
 1532SOL    HW2 5894   2.268   3.753   2.428 -0.6741  1.0450  0.0273
 1532SOL    HW3 5895   2.191   3.655   2.343 -0.9946  1.0438  0.3198
 1532SOL    MW4 5896   2.247   3.720   2.350  0.0940  0.2411  0.5554
 1533SOL     OW 5897   5.709   6.228   4.967  0.4990  0.5003  0.1465
 1533SOL    HW2 5898   5.708   6.299   5.032  0.7893  0.6055  0.0382
 1533SOL    HW3 5899   5.799   6.196   4.969  0.3955  0.2050  0.1156
 1533SOL    MW4 5900   5.721   6.233   4.976 -0.2264 -0.6279  0.2074
 1534SOL     OW 5901   3.265   4.040   2.680  0.4759  0.5696  0.1975
 1534SOL    HW2 5902   3.171   4.053   2.686 -0.2321 -2.3878 -2.0458
 1534SOL    HW3 5903   3.281   3.959   2.729  1.2635 -0.6940 -2.0128
 1534SOL    MW4 5904   3.255   4.031   2.688  0.0034 -0.0129  0.2035
 1535SOL     OW 5905   0.871   0.464   2.139 -0.4498  0.1417 -0.0359
 1535SOL    HW2 5906   0.795   0.489   2.193  0.1766 -1.0221  1.4655
 1535SOL    HW3 5907   0.945   0.467   2.200  0.5886  0.4317 -1.2711
 1535SOL    MW4 5908   0.871   0.468   2.154  0.7595 -0.0741  0.1154
 1536SOL     OW 5909   1.268   3.489   2.724  0.0854  0.1125  0.1159
 1536SOL    HW2 5910   1.213   3.412   2.741  1.5131 -0.6804  1.4136
 1536SOL    HW3 5911   1.358   3.458   2.739  0.8396  1.5855 -1.0992
 1536SOL    MW4 5912   1.273   3.475   2.728  0.0515  0.0585  0.7573
 1537SOL     OW 5913   3.204   3.036   4.298  0.4203 -0.1559 -0.4171
 1537SOL    HW2 5914   3.218   3.045   4.392  1.9735  0.4255 -0.6846
 1537SOL    HW3 5915   3.256   2.960   4.273 -1.9969 -1.9216 -0.4319
 1537SOL    MW4 5916   3.212   3.027   4.307  0.5516  0.0104 -0.4695
 1538SOL     OW 5917   3.363   2.933   0.496  0.2646 -0.4747  0.7217
 1538SOL    HW2 5918   3.356   2.839   0.478  2.5287 -0.7755  1.0832
 1538SOL    HW3 5919   3.276   2.958   0.527 -0.7529 -2.1625 -0.5828
 1538SOL    MW4 5920   3.351   2.924   0.498 -0.4281 -0.5770  0.8590
 1539SOL     OW 5921   6.348   1.955   5.644 -0.2409  0.0074 -0.1887
 1539SOL    HW2 5922   6.366   2.017   5.715 -1.6756  0.4291 -0.1671
 1539SOL    HW3 5923   6.414   1.887   5.654  0.7445  1.0144  0.4077
 1539SOL    MW4 5924   6.359   1.954   5.655  0.1844  0.2418 -0.1347
 1540SOL     OW 5925   4.810   4.585   3.236  0.2600  0.4180 -0.3449
 1540SOL    HW2 5926   4.832   4.639   3.160 -0.4892  1.2636  0.0338
 1540SOL    HW3 5927   4.875   4.514   3.234 -0.1682  0.0116 -2.1921
 1540SOL    MW4 5928   4.821   4.583   3.226  0.2763  0.4856  0.1397
 1541SOL     OW 5929   1.905   4.813   1.445  0.1640  0.3535  0.1411
 1541SOL    HW2 5930   1.979   4.873   1.455  0.5832 -0.2424  0.7526
 1541SOL    HW3 5931   1.941   4.727   1.465  0.0062 -0.3959 -2.3900
 1541SOL    MW4 5932   1.919   4.810   1.449  0.4788 -0.0261  0.5260
 1542SOL     OW 5933   3.604   5.052  -0.001  0.2385 -0.0640  0.1015
 1542SOL    HW2 5934   3.592   5.109  -0.077  1.7489 -0.5348 -0.5355
 1542SOL    HW3 5935   3.689   5.011  -0.016  1.0005  0.4965  2.4644
 1542SOL    MW4 5936   3.614   5.054  -0.013 -0.9025  0.3193 -0.3148
 1543SOL     OW 5937   6.442   5.809   5.765  0.4465 -0.4740 -0.0516
 1543SOL    HW2 5938   6.451   5.878   5.830 -0.4715 -0.0175 -0.3972
 1543SOL    HW3 5939   6.419   5.731   5.816 -1.5867  0.1712  0.0808
 1543SOL    MW4 5940   6.440   5.808   5.780  0.1022  0.4388  0.6456
 1544SOL     OW 5941   1.295   1.974   2.932  0.6282 -0.1453 -0.0595
 1544SOL    HW2 5942   1.375   2.007   2.973  0.8154  0.7503 -1.1004
 1544SOL    HW3 5943   1.307   1.991   2.838 -0.5765 -0.4440 -0.2848
 1544SOL    MW4 5944   1.307   1.980   2.925  0.3555 -0.0763 -0.3967
 1545SOL     OW 5945   0.216   1.716   6.358 -0.0277 -0.2826  0.6474
 1545SOL    HW2 5946   0.139   1.671   6.394 -0.7711 -0.7868 -1.4148
 1545SOL    HW3 5947   0.253   1.764   6.432 -2.1961 -0.2026  1.7606
 1545SOL    MW4 5948   0.210   1.716   6.373 -0.0981  0.4534 -0.2415
 1546SOL     OW 5949   5.358   3.071   2.499 -0.2081  0.0571 -0.0397
 1546SOL    HW2 5950   5.434   3.098   2.448 -0.2839 -0.5738 -0.4984
 1546SOL    HW3 5951   5.394   3.032   2.578  0.0444 -2.1148 -1.1571
 1546SOL    MW4 5952   5.373   3.069   2.502 -0.2090  0.3082 -0.0667
 1547SOL     OW 5953   1.173   6.224   0.167  0.5739  0.5075  0.1102
 1547SOL    HW2 5954   1.223   6.153   0.125 -0.3591 -0.4017  0.4970
 1547SOL    HW3 5955   1.096   6.234   0.111 -0.0985  0.0926  0.9455
 1547SOL    MW4 5956   1.169   6.216   0.154 -0.1722 -0.1717 -0.0481
 1548SOL     OW 5957   2.552   3.563   5.210 -0.2682  0.5501  0.1716
 1548SOL    HW2 5958   2.465   3.560   5.171  0.3051  1.2736 -1.2410
 1548SOL    HW3 5959   2.590   3.477   5.192  0.7573  1.5274 -2.8409
 1548SOL    MW4 5960   2.545   3.551   5.203 -0.2033 -0.1911 -0.4335
 1549SOL     OW 5961   6.120   0.241   0.983  0.0220  0.6082  0.1450
 1549SOL    HW2 5962   6.030   0.232   1.015 -0.1543 -0.8786 -0.7080
 1549SOL    HW3 5963   6.111   0.277   0.895  0.2448  0.2860 -0.0124
 1549SOL    MW4 5964   6.107   0.244   0.976  0.4386  0.4290 -0.2963
 1550SOL     OW 5965   3.343   4.080   5.586 -0.2788 -0.0040  0.0094
 1550SOL    HW2 5966   3.276   4.013   5.601 -0.5822  0.5159  1.1112
 1550SOL    HW3 5967   3.381   4.058   5.501 -0.3159 -1.6209  0.3761
 1550SOL    MW4 5968   3.339   4.068   5.577 -0.5895  0.2309 -0.0041
 1551SOL     OW 5969   4.592   3.055   0.073  0.3691 -0.6158 -0.1476
 1551SOL    HW2 5970   4.615   3.108   0.148 -0.5837 -1.7481  0.9899
 1551SOL    HW3 5971   4.498   3.039   0.082  0.4708 -1.7835 -0.8999
 1551SOL    MW4 5972   4.583   3.060   0.084  0.0119  0.1632  0.3565
 1552SOL     OW 5973   1.875   3.508   2.491 -0.5056  0.3277 -0.7184
 1552SOL    HW2 5974   1.943   3.512   2.423 -0.2723  0.2061 -0.4932
 1552SOL    HW3 5975   1.877   3.594   2.532 -0.4272  0.2934 -0.6516
 1552SOL    MW4 5976   1.884   3.520   2.487  0.3341  0.2843  0.3894
 1553SOL     OW 5977   3.405   5.446   3.489  0.2049  0.0834 -0.5474
 1553SOL    HW2 5978   3.428   5.449   3.396 -0.2163  0.1621 -0.6517
 1553SOL    HW3 5979   3.387   5.537   3.513 -1.3161 -0.1142 -0.8152
 1553SOL    MW4 5980   3.405   5.458   3.480 -0.9589  0.0293 -0.6520
 1554SOL     OW 5981   3.167   2.943   3.600  0.4657 -0.9202  0.1189
 1554SOL    HW2 5982   3.182   2.849   3.600  1.6446 -0.7860  1.8488
 1554SOL    HW3 5983   3.253   2.981   3.578  0.0751 -0.2453 -0.2896
 1554SOL    MW4 5984   3.181   2.936   3.597 -0.4109 -0.3663 -0.3288
 1555SOL     OW 5985   6.447   2.729   2.242 -0.1078 -0.0534  0.1816
 1555SOL    HW2 5986   6.482   2.791   2.306 -1.3819  1.1265 -0.2033
 1555SOL    HW3 5987   6.501   2.743   2.164  1.2991 -1.3336  0.8817
 1555SOL    MW4 5988   6.459   2.739   2.240  0.7390  0.5516 -0.0515
 1556SOL     OW 5989   4.778   0.241   4.042  0.2464 -0.8783 -0.4284
 1556SOL    HW2 5990   4.733   0.237   4.127  0.0085  0.1725 -0.4920
 1556SOL    HW3 5991   4.745   0.165   3.994  1.1624 -2.0899  0.7704
 1556SOL    MW4 5992   4.768   0.230   4.047  0.1091 -0.1894  0.9006
 1557SOL     OW 5993   3.815   5.576   3.319  0.3656  0.0971 -0.6500
 1557SOL    HW2 5994   3.880   5.644   3.337 -0.4414  0.3950  1.5021
 1557SOL    HW3 5995   3.750   5.618   3.264 -0.6355  1.4687  1.4583
 1557SOL    MW4 5996   3.815   5.590   3.314 -0.1691 -0.5861 -0.0647
 1558SOL     OW 5997   5.224   5.495   0.090 -0.7989  0.2275  0.0106
 1558SOL    HW2 5998   5.210   5.524   0.180 -0.8666 -1.4694  0.5758
 1558SOL    HW3 5999   5.318   5.507   0.076 -0.2872 -1.8672  1.2351
 1558SOL    MW4 6000   5.235   5.500   0.100  0.3707  0.1230  0.3235
 1559SOL     OW 6001   2.045   0.755   0.659 -0.0639 -0.0570  0.0341
 1559SOL    HW2 6002   2.082   0.684   0.606  0.2617  0.5635 -0.5911
 1559SOL    HW3 6003   2.108   0.767   0.730  0.5535  0.4455 -0.5709
 1559SOL    MW4 6004   2.058   0.748   0.661  0.1090 -0.0204  0.3134
 1560SOL     OW 6005   3.182   1.098   5.345  0.3455  0.2850 -0.4475
 1560SOL    HW2 6006   3.247   1.160   5.378 -1.3337  1.6323  0.4814
 1560SOL    HW3 6007   3.212   1.076   5.257  1.4864  1.7040 -0.4463
 1560SOL    MW4 6008   3.195   1.103   5.338  0.7976  0.2679  0.3335
 1561SOL     OW 6009   2.571   3.892   3.209 -0.2172  0.1160  0.4492
 1561SOL    HW2 6010   2.510   3.837   3.159 -1.3515  1.8577 -0.1707
 1561SOL    HW3 6011   2.525   3.910   3.291 -0.7681  1.7400 -0.1708
 1561SOL    MW4 6012   2.557   3.887   3.213 -0.0835 -0.2406  0.2082
 1562SOL     OW 6013   0.760   2.710   4.946 -0.7109 -0.7583  0.6162
 1562SOL    HW2 6014   0.667   2.699   4.963 -0.9719  0.0842 -0.1733
 1562SOL    HW3 6015   0.802   2.700   5.032 -1.6529  0.1301  1.2007
 1562SOL    MW4 6016   0.753   2.707   4.960  0.1218 -0.1280 -0.0998
 1563SOL     OW 6017   2.183   3.931   0.442  0.3528  0.7417  0.2253
 1563SOL    HW2 6018   2.122   3.986   0.392  0.4895  1.9779  1.3613
 1563SOL    HW3 6019   2.266   3.978   0.438  0.6987  0.1564  0.4746
 1563SOL    MW4 6020   2.186   3.944   0.435  0.2058  0.0018  0.0860
 1564SOL     OW 6021   3.611   4.890   0.400 -0.1663 -0.0125  0.3132
 1564SOL    HW2 6022   3.622   4.806   0.355  0.8999 -0.2883  1.0493
 1564SOL    HW3 6023   3.562   4.944   0.339  0.3665 -0.7135 -0.7572
 1564SOL    MW4 6024   3.606   4.886   0.386  0.3075 -0.3497 -0.1309
 1565SOL     OW 6025   6.314   5.404   1.361  0.2950 -0.3073 -0.1494
 1565SOL    HW2 6026   6.332   5.424   1.269  1.2677 -0.3873  0.0127
 1565SOL    HW3 6027   6.272   5.319   1.360  2.2390 -1.3293 -0.4072
 1565SOL    MW4 6028   6.311   5.396   1.349 -0.1864 -0.3450  0.7825
 1566SOL     OW 6029   0.881   4.317   1.395 -0.4737 -0.4092  0.2564
 1566SOL    HW2 6030   0.864   4.406   1.425  0.3071 -0.1234 -0.1106
 1566SOL    HW3 6031   0.798   4.287   1.358 -1.0161 -0.2050  1.2765
 1566SOL    MW4 6032   0.868   4.325   1.394 -0.4241 -0.2767  0.4590
 1567SOL     OW 6033   1.622   1.392   3.157  0.4400 -0.2331 -0.1499
 1567SOL    HW2 6034   1.658   1.442   3.084 -0.8618 -0.4248 -0.9431
 1567SOL    HW3 6035   1.620   1.302   3.125  0.5443 -0.4315  0.3975
 1567SOL    MW4 6036   1.627   1.387   3.143  0.0627 -0.2556 -0.0803
 1568SOL     OW 6037   5.258   0.235   2.558 -0.4388  0.3232 -1.0197
 1568SOL    HW2 6038   5.332   0.182   2.590 -1.9546  1.0249  4.7155
 1568SOL    HW3 6039   5.209   0.175   2.501  0.0590 -3.2625  1.8987
 1568SOL    MW4 6040   5.262   0.220   2.555  0.8077  0.7947 -0.0589
 1569SOL     OW 6041   5.368   1.168   0.223 -0.3743 -0.6626 -0.1250
 1569SOL    HW2 6042   5.339   1.184   0.313  0.7194 -0.1078  0.1499
 1569SOL    HW3 6043   5.287   1.157   0.174 -1.0488  0.5147  0.6588
 1569SOL    MW4 6044   5.354   1.169   0.229  0.0981  0.1379  0.1026
 1570SOL     OW 6045   3.342   4.808   2.464  0.2999 -0.2948 -0.5423
 1570SOL    HW2 6046   3.339   4.904   2.471 -1.9686 -0.0922 -2.8678
 1570SOL    HW3 6047   3.430   4.789   2.433  0.7668  1.0444 -0.1259
 1570SOL    MW4 6048   3.353   4.818   2.461 -0.3767  0.2041  0.0045
 1571SOL     OW 6049   6.385   1.054   5.522 -0.2066  0.9148  0.7768
 1571SOL    HW2 6050   6.363   1.126   5.464 -3.1018 -0.0086  0.5478
 1571SOL    HW3 6051   6.353   0.976   5.477 -1.0679 -0.0139  2.8589
 1571SOL    MW4 6052   6.378   1.053   5.508 -0.1349 -0.2215 -0.2036
 1572SOL     OW 6053   1.683   4.198   4.517  0.3258  0.0144  0.0242
 1572SOL    HW2 6054   1.775   4.226   4.519  0.6676 -1.0130 -0.4792
 1572SOL    HW3 6055   1.687   4.103   4.518 -0.6882 -0.0731 -1.2518
 1572SOL    MW4 6056   1.696   4.189   4.517  0.0807  0.0080 -1.0788
 1573SOL     OW 6057   3.184   4.990   1.801 -0.3836 -0.3507  0.0893
 1573SOL    HW2 6058   3.128   4.914   1.788 -0.0230 -1.0583  2.2329
 1573SOL    HW3 6059   3.234   4.998   1.720 -1.2404 -1.7061 -0.6001
 1573SOL    MW4 6060   3.183   4.981   1.789 -0.4275  0.7343 -0.3900
 1574SOL     OW 6061   1.203   5.711   4.005  0.3670  0.1752 -0.4310
 1574SOL    HW2 6062   1.110   5.693   3.992  0.7631 -0.7564 -2.2338
 1574SOL    HW3 6063   1.247   5.633   3.973  1.7432 -0.5927  2.8875
 1574SOL    MW4 6064   1.196   5.698   3.999 -0.2789 -0.6881 -0.4798
 1575SOL     OW 6065   6.196   4.953   1.160  0.0162 -0.4458 -0.1402
 1575SOL    HW2 6066   6.174   4.882   1.099 -1.0418  0.4190 -0.7916
 1575SOL    HW3 6067   6.255   5.010   1.110 -0.1400 -0.1987 -0.0404
 1575SOL    MW4 6068   6.201   4.951   1.145  0.5098  0.1802  0.2021
 1576SOL     OW 6069   2.687   1.959   5.995  0.3018 -0.3419  0.2300
 1576SOL    HW2 6070   2.613   1.997   5.948 -0.6332 -2.5653 -0.2090
 1576SOL    HW3 6071   2.700   2.017   6.070 -0.3089  1.4294 -0.9642
 1576SOL    MW4 6072   2.679   1.972   5.999  0.5706  0.0896  0.3396
 1577SOL     OW 6073   0.774   0.942   5.381 -0.1233 -0.1453 -0.0811
 1577SOL    HW2 6074   0.773   0.969   5.290  1.4770 -3.0456 -1.0738
 1577SOL    HW3 6075   0.846   0.991   5.421 -0.4098  0.6431 -0.5107
 1577SOL    MW4 6076   0.783   0.952   5.374 -0.0141 -0.0089  0.3269
 1578SOL     OW 6077   1.526   1.773   0.757 -0.0572 -0.3006 -0.3134
 1578SOL    HW2 6078   1.467   1.803   0.826  1.6820 -1.0918  1.6374
 1578SOL    HW3 6079   1.469   1.735   0.691 -1.7926  0.0911  0.8937
 1578SOL    MW4 6080   1.511   1.772   0.758  0.6302  0.6527 -0.1024
 1579SOL     OW 6081   5.847   2.387   1.341  0.0151  0.2637  0.5441
 1579SOL    HW2 6082   5.914   2.321   1.363  1.1957  0.5496 -1.8145
 1579SOL    HW3 6083   5.766   2.351   1.375  0.8940 -1.6203  0.7928
 1579SOL    MW4 6084   5.845   2.374   1.349 -0.0672 -0.3836  0.0659
 1580SOL     OW 6085   1.774   5.637   2.835  0.0562  0.2107  0.3062
 1580SOL    HW2 6086   1.780   5.733   2.832  1.9088  0.1098 -1.5522
 1580SOL    HW3 6087   1.720   5.614   2.760  1.2006 -0.2426 -0.4100
 1580SOL    MW4 6088   1.768   5.647   2.825 -0.0600  0.3485  0.3477
 1581SOL     OW 6089   3.769   1.235   4.008 -0.1043  0.0934 -0.1834
 1581SOL    HW2 6090   3.754   1.142   3.991  2.5663 -0.1385 -1.8038
 1581SOL    HW3 6091   3.788   1.273   3.922  4.2086  0.9380  0.8851
 1581SOL    MW4 6092   3.770   1.228   3.994 -0.1553 -0.2556 -0.2462
 1582SOL     OW 6093   4.475   6.061   5.385  0.6106 -0.1873 -0.2013
 1582SOL    HW2 6094   4.480   6.143   5.336 -0.0551 -0.1333 -0.1884
 1582SOL    HW3 6095   4.460   6.089   5.476 -1.6565 -0.3269 -0.4674
 1582SOL    MW4 6096   4.473   6.076   5.391  0.3526 -0.2504 -0.7518
 1583SOL     OW 6097   5.098   5.452   3.640 -0.2071 -0.0653  0.0505
 1583SOL    HW2 6098   5.060   5.479   3.724  1.8055 -0.4979  1.1627
 1583SOL    HW3 6099   5.034   5.391   3.604 -1.3883  0.5725  0.9902
 1583SOL    MW4 6100   5.085   5.447   3.647  0.0221 -0.5032 -0.0573
 1584SOL     OW 6101   0.534   0.061   5.289  0.4074  0.1254  0.1017
 1584SOL    HW2 6102   0.482   0.001   5.342 -2.3569  0.3258 -2.1650
 1584SOL    HW3 6103   0.565   0.008   5.216  2.6369  0.2690  0.8613
 1584SOL    MW4 6104   0.532   0.046   5.286  0.1921  0.0561 -0.0406
 1585SOL     OW 6105   4.295   1.117   6.244  0.1402  0.1675 -0.2362
 1585SOL    HW2 6106   4.369   1.163   6.205  0.5650 -0.0047  0.3408
 1585SOL    HW3 6107   4.333   1.072   6.320 -0.8121  1.1401  0.8455
 1585SOL    MW4 6108   4.310   1.117   6.249  0.1488 -0.1661 -0.3593
 1586SOL     OW 6109   4.343   0.668   4.639  0.3724 -0.2719  0.4677
 1586SOL    HW2 6110   4.349   0.738   4.574 -1.5059 -0.2912  0.2180
 1586SOL    HW3 6111   4.433   0.653   4.668  1.0737  0.6469 -1.1629
 1586SOL    MW4 6112   4.355   0.675   4.635  0.3372 -0.3366  0.2885
 1587SOL     OW 6113   4.214   3.682   4.919  0.1354 -0.6776  0.1305
 1587SOL    HW2 6114   4.146   3.749   4.916  0.2948 -0.4466  1.2053
 1587SOL    HW3 6115   4.274   3.711   4.988  1.3788 -0.8268 -0.8528
 1587SOL    MW4 6116   4.213   3.694   4.928  0.5135 -0.3622  0.0488
 1588SOL     OW 6117   0.394   1.501   5.382  0.1638  0.0431  0.0397
 1588SOL    HW2 6118   0.320   1.444   5.402 -0.1495  0.4318  0.0049
 1588SOL    HW3 6119   0.454   1.446   5.332 -0.1117 -0.2691  0.0513
 1588SOL    MW4 6120   0.392   1.486   5.378  0.6568 -0.1211 -0.0988
 1589SOL     OW 6121   3.692   4.596   2.994  0.1280 -0.2521  0.8751
 1589SOL    HW2 6122   3.733   4.626   3.076  1.6877 -0.9055  0.3789
 1589SOL    HW3 6123   3.649   4.514   3.017  1.5099 -1.0248  0.8540
 1589SOL    MW4 6124   3.692   4.589   3.008  0.0590  0.6955 -0.7141
 1590SOL     OW 6125   1.693   0.408   4.172  0.3726  0.4751 -0.0273
 1590SOL    HW2 6126   1.726   0.325   4.205  0.4628  0.5461  0.0601
 1590SOL    HW3 6127   1.678   0.461   4.250 -0.0011  0.4252 -0.0616
 1590SOL    MW4 6128   1.695   0.404   4.187  0.2596  0.5713 -0.3435
 1591SOL     OW 6129   1.069   0.533   6.033  0.0483  0.6737 -0.3081
 1591SOL    HW2 6130   1.072   0.469   6.105  0.8462 -0.0018 -0.9289
 1591SOL    HW3 6131   0.978   0.563   6.033 -0.2620 -0.2032  0.2284
 1591SOL    MW4 6132   1.057   0.528   6.043  0.7863  0.0703 -0.0209
 1592SOL     OW 6133   0.169   1.951   4.052  0.3798 -0.2132 -0.3542
 1592SOL    HW2 6134   0.199   1.983   3.967 -1.2298 -1.5785 -1.4895
 1592SOL    HW3 6135   0.148   2.031   4.101 -0.8972  0.5934 -2.1094
 1592SOL    MW4 6136   0.170   1.966   4.047  0.2460 -0.5139 -0.4487
 1593SOL     OW 6137   4.446   1.528   4.059 -0.2279  0.7186  0.1449
 1593SOL    HW2 6138   4.428   1.548   4.151 -0.0399  1.5506  0.0103
 1593SOL    HW3 6139   4.361   1.506   4.022 -0.0770 -1.2859  0.8961
 1593SOL    MW4 6140   4.433   1.528   4.067  0.2833 -0.1780 -0.5828
 1594SOL     OW 6141   4.425   2.992   0.939 -0.5638 -0.1795 -0.2064
 1594SOL    HW2 6142   4.453   2.903   0.958 -0.7671 -0.3930 -0.8815
 1594SOL    HW3 6143   4.365   2.983   0.865 -0.3669  0.5462 -0.4628
 1594SOL    MW4 6144   4.420   2.979   0.931  0.8653  0.2516  0.0059
 1595SOL     OW 6145   2.047   4.749   0.957 -0.3067  0.4139  0.3005
 1595SOL    HW2 6146   2.031   4.811   0.886  0.5555  0.4572  0.1360
 1595SOL    HW3 6147   2.011   4.792   1.034  1.6667  1.8451  0.4837
 1595SOL    MW4 6148   2.040   4.763   0.958  0.2450  0.0173  0.2029
 1596SOL     OW 6149   6.238   5.087   2.230  0.4507  0.1298  0.4612
 1596SOL    HW2 6150   6.187   5.155   2.186  0.5567  0.8592  1.4248
 1596SOL    HW3 6151   6.289   5.046   2.160  1.2194  1.7850  0.0062
 1596SOL    MW4 6152   6.238   5.091   2.215 -0.6045 -0.0990 -0.2414
 1597SOL     OW 6153   1.432   1.957   4.512 -0.0009 -0.2484  0.3398
 1597SOL    HW2 6154   1.346   1.979   4.550 -0.6551 -1.0431 -0.6325
 1597SOL    HW3 6155   1.469   1.893   4.571 -0.2049 -0.1154  0.6147
 1597SOL    MW4 6156   1.425   1.952   4.525  0.1238  0.1194 -0.6945
 1598SOL     OW 6157   0.926   0.820   4.168 -0.6552  0.7994 -0.4955
 1598SOL    HW2 6158   0.870   0.779   4.234  1.4533  0.2519  1.0641
 1598SOL    HW3 6159   0.902   0.913   4.170 -3.5349  0.2136 -2.0805
 1598SOL    MW4 6160   0.915   0.827   4.177 -0.2802 -0.1715  0.2680
 1599SOL     OW 6161   6.173   3.274   0.101 -0.1195  0.1139 -0.0214
 1599SOL    HW2 6162   6.086   3.276   0.140 -0.6937  0.2279 -1.2474
 1599SOL    HW3 6163   6.186   3.182   0.078  0.6308 -0.1274  1.3016
 1599SOL    MW4 6164   6.163   3.262   0.103  0.6505 -0.6396  0.1060
 1600SOL     OW 6165   3.828   4.517   5.007 -0.3534  0.0762 -0.1366
 1600SOL    HW2 6166   3.883   4.587   5.042 -1.7350  1.2269 -0.1641
 1600SOL    HW3 6167   3.780   4.485   5.084  0.5952 -1.1896 -0.0379
 1600SOL    MW4 6168   3.829   4.522   5.022 -0.9576  0.3783  0.5932
 1601SOL     OW 6169   3.982   3.030   0.618  0.0538  0.1523  0.5305
 1601SOL    HW2 6170   3.948   3.099   0.560  0.2288  0.6695  1.0373
 1601SOL    HW3 6171   3.903   2.988   0.654 -0.0547 -0.0781  0.0303
 1601SOL    MW4 6172   3.967   3.034   0.615  0.2320  0.0114  0.2855
 1602SOL     OW 6173   5.962   3.854   2.463 -0.1594 -0.0381 -0.4218
 1602SOL    HW2 6174   6.046   3.833   2.503  0.4159  2.1582 -0.3981
 1602SOL    HW3 6175   5.983   3.881   2.374 -0.8961  0.1408 -0.5511
 1602SOL    MW4 6176   5.976   3.855   2.456 -0.6891 -0.5486 -0.1596
 1603SOL     OW 6177   0.416   1.404   4.036 -0.0741 -0.0641  0.1159
 1603SOL    HW2 6178   0.374   1.351   3.968 -1.2138 -1.3711  1.7780
 1603SOL    HW3 6179   0.489   1.352   4.066 -0.2073  0.0453  0.6287
 1603SOL    MW4 6180   0.420   1.390   4.031 -0.3545 -0.4911  0.0424
 1604SOL     OW 6181   5.782   2.189   6.381 -0.0343 -0.9119  0.4899
 1604SOL    HW2 6182   5.877   2.195   6.379 -0.0943  0.8591  0.7162
 1604SOL    HW3 6183   5.757   2.228   6.465 -0.9725 -1.0619  0.3009
 1604SOL    MW4 6184   5.791   2.195   6.392  0.5494 -0.1274 -0.4683
 1605SOL     OW 6185   2.294   6.300   1.940 -0.0386  0.8282 -0.2291
 1605SOL    HW2 6186   2.283   6.267   1.851  0.7552  0.6004 -0.2516
 1605SOL    HW3 6187   2.305   6.222   1.994  0.1032  0.9869 -0.0229
 1605SOL    MW4 6188   2.294   6.286   1.936 -0.5917  0.2718 -0.3392
 1606SOL     OW 6189   1.071   1.023   1.053  0.1946  0.0299 -0.8071
 1606SOL    HW2 6190   1.033   0.969   0.984  0.2775  0.3906 -1.1462
 1606SOL    HW3 6191   1.026   1.107   1.044  1.4596  0.6583 -1.6043
 1606SOL    MW4 6192   1.060   1.027   1.042  0.7131  0.1856  0.1000
 1607SOL     OW 6193   1.287   5.166   1.835  0.7151  0.0270 -0.4326
 1607SOL    HW2 6194   1.324   5.252   1.817  3.7134 -0.8783  0.8823
 1607SOL    HW3 6195   1.280   5.163   1.931 -0.2852 -0.8613 -0.5155
 1607SOL    MW4 6196   1.291   5.177   1.845  0.0325  0.0981  0.0638
 1608SOL     OW 6197   3.489   3.642   0.947  0.2918  0.4373 -0.8898
 1608SOL    HW2 6198   3.460   3.732   0.933  0.4409  0.1312 -3.7643
 1608SOL    HW3 6199   3.481   3.601   0.861 -0.4618 -2.5312  0.4692
 1608SOL    MW4 6200   3.484   3.649   0.934 -0.6344 -0.4777 -0.2253
 1609SOL     OW 6201   5.064   0.587   5.127  0.4321 -0.2884  0.5783
 1609SOL    HW2 6202   4.986   0.563   5.177  0.9238 -0.6219  1.2099
 1609SOL    HW3 6203   5.049   0.552   5.039 -0.8576  1.1090  0.2051
 1609SOL    MW4 6204   5.052   0.579   5.122  0.4300 -0.4899 -0.0384
 1610SOL     OW 6205   2.252   5.337   1.469  0.7021 -0.0804 -0.0888
 1610SOL    HW2 6206   2.171   5.287   1.481  0.4691 -0.0089 -1.2653
 1610SOL    HW3 6207   2.282   5.355   1.558 -1.1093  0.7647  0.4110
 1610SOL    MW4 6208   2.245   5.333   1.482 -0.1262 -0.3724 -0.0738
 1611SOL     OW 6209   4.021   5.918   4.869  0.8257 -0.2304 -0.0317
 1611SOL    HW2 6210   4.106   5.961   4.863 -0.8807  3.3462 -1.6637
 1611SOL    HW3 6211   3.967   5.977   4.922 -0.7143 -2.4102  1.0085
 1611SOL    MW4 6212   4.025   5.931   4.875 -0.2923 -0.2355 -0.0777
 1612SOL     OW 6213   6.109   4.719   2.768  0.0420 -0.3526 -0.3220
 1612SOL    HW2 6214   6.150   4.774   2.701 -1.2082  0.4795 -0.4351
 1612SOL    HW3 6215   6.058   4.780   2.821  0.5759 -1.0757  1.0793
 1612SOL    MW4 6216   6.108   4.734   2.766  0.3239  0.2558 -0.2936
 1613SOL     OW 6217   2.077   1.977   5.494  0.1614  0.7520 -0.1887
 1613SOL    HW2 6218   2.152   1.940   5.447  0.7698 -0.1352  1.4350
 1613SOL    HW3 6219   2.112   2.007   5.577 -0.9669  2.0116 -0.1276
 1613SOL    MW4 6220   2.091   1.976   5.499  0.3669  0.7117 -0.4102
 1614SOL     OW 6221   3.240   1.108   2.629  0.2019 -0.1314 -0.7193
 1614SOL    HW2 6222   3.206   1.089   2.541 -0.9888  1.0084 -0.5275
 1614SOL    HW3 6223   3.267   1.199   2.625 -0.6855  0.2015  0.3280
 1614SOL    MW4 6224   3.239   1.117   2.617 -0.6070  0.3519 -0.1460
 1615SOL     OW 6225   5.795   0.301   3.905 -0.0192 -0.3971  0.2202
 1615SOL    HW2 6226   5.810   0.394   3.890 -1.4629 -0.3162 -0.9285
 1615SOL    HW3 6227   5.852   0.256   3.843  1.3508 -0.3337  1.3901
 1615SOL    MW4 6228   5.804   0.307   3.895 -0.2290  1.0320 -0.1711
 1616SOL     OW 6229   1.913   2.172   1.702 -0.0690  0.7116 -0.2162
 1616SOL    HW2 6230   1.959   2.090   1.683 -0.7639  0.3974 -0.6011
 1616SOL    HW3 6231   1.951   2.236   1.643  0.1333  0.5473 -0.2646
 1616SOL    MW4 6232   1.924   2.169   1.692 -0.4426  0.3236  0.0452
 1617SOL     OW 6233   2.781   5.987   4.120 -0.5168  1.0847  0.1655
 1617SOL    HW2 6234   2.820   6.050   4.181  0.8051 -0.7821  1.3656
 1617SOL    HW3 6235   2.717   5.940   4.173  0.3670 -0.3001  0.0625
 1617SOL    MW4 6236   2.778   5.989   4.135 -0.3654 -0.3297 -0.2889
 1618SOL     OW 6237   1.373   4.574   2.156 -0.2717  0.4596 -0.0356
 1618SOL    HW2 6238   1.328   4.601   2.076  0.9232  1.3535 -0.4476
 1618SOL    HW3 6239   1.333   4.490   2.179 -0.0988 -0.2532 -2.0528
 1618SOL    MW4 6240   1.362   4.566   2.148  0.1003  0.0153 -0.0669
 1619SOL     OW 6241   4.892   4.988   1.220  0.8362 -0.5677 -0.0369
 1619SOL    HW2 6242   4.918   5.002   1.129  0.8094  0.2685  0.0780
 1619SOL    HW3 6243   4.852   5.071   1.247  1.6227 -0.5050  1.0004
 1619SOL    MW4 6244   4.890   5.001   1.212 -0.3163 -0.5312  0.0352
 1620SOL     OW 6245   0.702   5.180   1.503 -0.2736  0.6101  0.2081
 1620SOL    HW2 6246   0.669   5.095   1.474 -2.4926  1.5865 -0.3417
 1620SOL    HW3 6247   0.788   5.189   1.461 -1.3074 -0.0862 -2.1803
 1620SOL    MW4 6248   0.709   5.170   1.494  0.6562 -0.2945  0.2442
 1621SOL     OW 6249   4.270   2.353   5.055 -0.8836  0.3136  0.1704
 1621SOL    HW2 6250   4.202   2.401   5.102 -0.4052 -0.2338  1.4596
 1621SOL    HW3 6251   4.258   2.262   5.081  1.1026  0.3548  1.4416
 1621SOL    MW4 6252   4.260   2.347   5.065  0.0146  0.4074 -0.3092
 1622SOL     OW 6253   5.140   4.448   1.491  0.1991  0.2210 -0.4792
 1622SOL    HW2 6254   5.137   4.399   1.573 -1.6217 -0.2078 -0.7406
 1622SOL    HW3 6255   5.160   4.382   1.425 -0.2306  0.1961 -0.5891
 1622SOL    MW4 6256   5.142   4.433   1.493 -0.1624  0.4712  0.0274
 1623SOL     OW 6257   3.662   1.859   5.774  0.3732  0.7538  0.0369
 1623SOL    HW2 6258   3.623   1.936   5.733  0.1678  0.0695 -1.1123
 1623SOL    HW3 6259   3.755   1.865   5.753  0.6254  1.4927  1.3018
 1623SOL    MW4 6260   3.669   1.870   5.766 -0.3312  0.1580 -0.0329
 1624SOL     OW 6261   3.309   0.530   2.207 -0.1689 -0.2378 -0.2420
 1624SOL    HW2 6262   3.216   0.534   2.229 -0.1091  0.7467 -0.1235
 1624SOL    HW3 6263   3.353   0.523   2.292 -0.1207 -0.2532 -0.2685
 1624SOL    MW4 6264   3.303   0.530   2.221 -0.4204  0.0271  0.6303
 1625SOL     OW 6265   0.218   4.836   2.541  0.2718 -0.0647 -0.2555
 1625SOL    HW2 6266   0.224   4.772   2.611  2.3473  0.1685 -0.1556
 1625SOL    HW3 6267   0.141   4.889   2.563  0.1394 -0.7949  1.1276
 1625SOL    MW4 6268   0.209   4.835   2.553  0.0775  0.6201 -1.2278
 1626SOL     OW 6269   3.483   3.582   0.652 -0.1016 -0.1441  0.3649
 1626SOL    HW2 6270   3.534   3.502   0.641  0.5071  0.2368  0.3832
 1626SOL    HW3 6271   3.423   3.583   0.577  1.7310  0.7249 -1.1593
 1626SOL    MW4 6272   3.482   3.572   0.641  0.1163 -0.1327  0.5039
 1627SOL     OW 6273   5.814   3.858   5.511  0.1536  0.0300 -0.0990
 1627SOL    HW2 6274   5.893   3.804   5.515  1.3681  1.7633  0.1591
 1627SOL    HW3 6275   5.810   3.888   5.420 -1.8236 -2.2505 -0.8908
 1627SOL    MW4 6276   5.824   3.855   5.499 -0.1728 -0.8263 -0.4599
 1628SOL     OW 6277   4.221   2.064   1.061 -0.3800 -0.6596 -0.2388
 1628SOL    HW2 6278   4.245   2.108   1.143 -1.1259 -0.1487 -0.2892
 1628SOL    HW3 6279   4.179   1.983   1.090  0.0568 -0.8588 -0.1369
 1628SOL    MW4 6280   4.219   2.059   1.076  0.5042 -0.8978 -0.2098
 1629SOL     OW 6281   4.854   1.228   0.210 -0.1289 -0.1417 -0.5024
 1629SOL    HW2 6282   4.818   1.157   0.158  1.1908 -1.8787  0.8287
 1629SOL    HW3 6283   4.885   1.186   0.291  2.0460  1.6728 -0.2751
 1629SOL    MW4 6284   4.854   1.213   0.214  0.6669  0.3562  0.0192
 1630SOL     OW 6285   0.917   1.556   3.891 -0.3251 -0.2586 -0.2881
 1630SOL    HW2 6286   0.923   1.541   3.797  0.5703 -0.7079 -0.1713
 1630SOL    HW3 6287   0.835   1.605   3.903 -0.7928 -0.7991 -1.2142
 1630SOL    MW4 6288   0.907   1.560   3.880  0.0580  0.4167  0.0620
 1631SOL     OW 6289   0.346   1.834   5.837 -0.2111  0.2423  0.0037
 1631SOL    HW2 6290   0.391   1.913   5.807 -0.6929  0.1419 -1.0418
 1631SOL    HW3 6291   0.359   1.833   5.931  0.1429  1.3555 -0.0197
 1631SOL    MW4 6292   0.354   1.844   5.845  0.0738 -0.3951 -0.3340
 1632SOL     OW 6293   4.058   2.453   5.196  0.7301 -0.1292 -0.4183
 1632SOL    HW2 6294   4.067   2.370   5.244  0.6429 -0.6447 -1.2761
 1632SOL    HW3 6295   3.995   2.434   5.127 -0.1167  0.9650  0.0262
 1632SOL    MW4 6296   4.051   2.439   5.193 -0.2103 -0.2034  0.2140
 1633SOL     OW 6297   6.369   0.967   0.795 -0.3486  0.2387  0.1786
 1633SOL    HW2 6298   6.404   0.878   0.804 -0.5974  0.1534  0.2947
 1633SOL    HW3 6299   6.276   0.955   0.779 -0.0143  0.3589 -2.3620
 1633SOL    MW4 6300   6.362   0.954   0.794 -0.2764 -0.2921  0.1335
 1634SOL     OW 6301   2.659   4.896   2.552  0.2684 -0.0113 -0.0527
 1634SOL    HW2 6302   2.652   4.812   2.598  2.4171 -1.2563 -1.7824
 1634SOL    HW3 6303   2.571   4.932   2.554 -0.5363 -1.8702  1.5343
 1634SOL    MW4 6304   2.647   4.890   2.558  0.0254 -0.1990  0.1576
 1635SOL     OW 6305   4.242   3.601   0.888  0.6933 -0.3782 -0.2968
 1635SOL    HW2 6306   4.338   3.594   0.889  0.7071 -0.2371 -0.5674
 1635SOL    HW3 6307   4.226   3.695   0.882  0.5331 -0.3702  0.1904
 1635SOL    MW4 6308   4.253   3.613   0.887 -0.1524 -0.7083  0.1288
 1636SOL     OW 6309   0.745   5.141   0.627  0.3365 -0.1702 -1.1113
 1636SOL    HW2 6310   0.738   5.139   0.722  0.2712 -3.7702 -1.0529
 1636SOL    HW3 6311   0.823   5.193   0.610 -0.6812  2.1555  0.7237
 1636SOL    MW4 6312   0.755   5.148   0.637 -0.3182 -0.2171  0.3386
 1637SOL     OW 6313   4.625   6.413   2.369 -0.5030 -0.5111  0.2386
 1637SOL    HW2 6314   4.682   6.339   2.347  0.1778  0.4372 -1.4126
 1637SOL    HW3 6315   4.536   6.379   2.359 -0.2172 -1.4131  0.6632
 1637SOL    MW4 6316   4.621   6.399   2.365 -0.3268  0.0559 -0.3338
 1638SOL     OW 6317   0.666   6.186   5.313 -0.0102 -0.0147 -0.5422
 1638SOL    HW2 6318   0.663   6.169   5.408  2.8328 -2.0172 -0.6987
 1638SOL    HW3 6319   0.754   6.220   5.298 -0.0590 -0.6998 -2.5970
 1638SOL    MW4 6320   0.677   6.189   5.324 -0.1023  0.2425 -0.1000
 1639SOL     OW 6321   6.335   3.427   4.079  0.2645  0.3002  0.3944
 1639SOL    HW2 6322   6.370   3.340   4.061  1.1701  0.8311 -0.5612
 1639SOL    HW3 6323   6.240   3.416   4.078  0.3731 -0.7344  0.6254
 1639SOL    MW4 6324   6.327   3.414   4.076  0.5584 -0.6736  0.2648
 1640SOL     OW 6325   1.776   1.066   2.062 -0.3311  0.0202  0.1290
 1640SOL    HW2 6326   1.857   1.079   2.013 -0.9320  0.4275 -0.7874
 1640SOL    HW3 6327   1.767   1.143   2.118 -1.0544  0.9400 -1.2005
 1640SOL    MW4 6328   1.785   1.078   2.063 -0.1666  0.2656 -0.2180
 1641SOL     OW 6329   2.677   4.053   3.858  0.6485 -0.1163 -0.5199
 1641SOL    HW2 6330   2.680   3.958   3.847  1.1661 -0.4040  1.6671
 1641SOL    HW3 6331   2.767   4.078   3.880  0.4541  0.8470 -0.7645
 1641SOL    MW4 6332   2.689   4.044   3.859 -0.0931 -0.5152 -0.6345
 1642SOL     OW 6333   3.587   3.850   2.123  0.1795 -0.0458 -0.0093
 1642SOL    HW2 6334   3.632   3.782   2.173  1.3874  1.3501  0.8788
 1642SOL    HW3 6335   3.510   3.872   2.175  1.3182  1.2526  1.2023
 1642SOL    MW4 6336   3.583   3.844   2.136  0.2784 -0.1570  0.6396
 1643SOL     OW 6337   6.160   3.079   2.243  0.0280 -0.2769 -0.0074
 1643SOL    HW2 6338   6.073   3.042   2.259 -0.0189  0.8765  3.3170
 1643SOL    HW3 6339   6.221   3.011   2.271  0.0735  0.1121  0.8742
 1643SOL    MW4 6340   6.156   3.066   2.249 -0.0595  0.1831 -0.2512
 1644SOL     OW 6341   0.956   3.216   2.327  0.4204 -0.4390  0.1580
 1644SOL    HW2 6342   0.872   3.171   2.336 -0.1356  0.5721  0.1724
 1644SOL    HW3 6343   1.009   3.158   2.273 -0.8711 -0.3363 -1.2827
 1644SOL    MW4 6344   0.952   3.203   2.321 -0.5470 -0.4339  0.0639
 1645SOL     OW 6345   4.369   2.933   1.648 -0.2552  0.0534 -0.3199
 1645SOL    HW2 6346   4.373   2.878   1.727 -1.5623 -0.1270 -0.3617
 1645SOL    HW3 6347   4.457   2.971   1.642  0.8261 -2.2285 -0.4294
 1645SOL    MW4 6348   4.381   2.931   1.658  0.1788  0.5422 -0.3375
 1646SOL     OW 6349   2.427   2.995   6.088  0.5368  0.3864  0.1177
 1646SOL    HW2 6350   2.435   2.928   6.020 -0.0632  0.6618 -0.2362
 1646SOL    HW3 6351   2.514   2.999   6.128  0.0773 -2.1001  1.5945
 1646SOL    MW4 6352   2.440   2.986   6.084  0.3762 -0.0924  0.2985
 1647SOL     OW 6353   5.989   1.553   1.612 -0.2900 -0.6204  0.4138
 1647SOL    HW2 6354   6.024   1.484   1.668  0.7510  0.2231  0.8282
 1647SOL    HW3 6355   5.910   1.583   1.657  0.7729  0.3562  1.7250
 1647SOL    MW4 6356   5.983   1.548   1.625 -0.5954 -0.3666 -0.0825
 1648SOL     OW 6357   5.483   4.598   2.360 -0.8664  0.2007 -0.0704
 1648SOL    HW2 6358   5.418   4.566   2.422  0.1748 -1.8510  0.0467
 1648SOL    HW3 6359   5.537   4.522   2.341 -0.3440  1.1016 -2.5000
 1648SOL    MW4 6360   5.481   4.584   2.366  0.2189  0.4393 -0.2137
 1649SOL     OW 6361   1.865   0.404   4.946 -0.1566  0.0226 -0.7739
 1649SOL    HW2 6362   1.877   0.335   4.880  1.5215 -1.8732  1.3723
 1649SOL    HW3 6363   1.810   0.364   5.013  1.4909  0.4250  0.8979
 1649SOL    MW4 6364   1.859   0.390   4.946  0.0472 -0.1897 -0.0046
 1650SOL     OW 6365   4.126   5.430   0.207 -0.0467  0.0540  0.7335
 1650SOL    HW2 6366   4.086   5.503   0.254 -1.9921 -0.7933  0.5059
 1650SOL    HW3 6367   4.055   5.366   0.198  1.2811 -1.3613 -0.1068
 1650SOL    MW4 6368   4.111   5.431   0.212  0.1445  0.0203 -0.1520
 1651SOL     OW 6369   3.396   2.503   5.432 -0.0754 -0.3246  0.4522
 1651SOL    HW2 6370   3.342   2.527   5.508  0.7220  1.0203  0.6255
 1651SOL    HW3 6371   3.459   2.440   5.467 -0.6794 -0.8860  0.5488
 1651SOL    MW4 6372   3.397   2.498   5.447 -0.2564  1.0333  0.0689
 1652SOL     OW 6373   0.497   6.354   1.175  0.0302  0.2125  0.1226
 1652SOL    HW2 6374   0.421   6.366   1.117 -0.3359 -1.7046  0.1472
 1652SOL    HW3 6375   0.507   6.259   1.182  0.7228  0.4033  2.3733
 1652SOL    MW4 6376   0.488   6.343   1.168 -0.0314 -0.0610 -0.3548
 1653SOL     OW 6377   5.117   4.135   0.044 -0.1252 -0.6208  0.5523
 1653SOL    HW2 6378   5.204   4.105   0.070  0.6014  0.0793 -0.9703
 1653SOL    HW3 6379   5.078   4.061  -0.001  1.0999  0.1298 -1.9053
 1653SOL    MW4 6380   5.124   4.121   0.042  0.0289 -0.3454  0.4496
 1654SOL     OW 6381   2.574   2.445   1.346 -0.2561  0.3977 -0.0219
 1654SOL    HW2 6382   2.600   2.355   1.364  2.4737  0.7587 -1.5969
 1654SOL    HW3 6383   2.599   2.494   1.425  0.7400  0.1757 -0.1936
 1654SOL    MW4 6384   2.581   2.440   1.359  0.2918 -0.7069  0.1280
 1655SOL     OW 6385   3.975   3.282   3.038 -0.0283 -0.1774 -0.3995
 1655SOL    HW2 6386   3.974   3.333   3.119 -1.1444 -0.6207 -0.1076
 1655SOL    HW3 6387   4.019   3.200   3.063 -1.3010 -0.7502  0.0727
 1655SOL    MW4 6388   3.981   3.278   3.052  0.1070  0.3686 -0.3560
 1656SOL     OW 6389   3.400   6.367   1.456  0.3992  0.3695 -0.4336
 1656SOL    HW2 6390   3.409   6.287   1.404 -3.6371 -1.0060  0.5938
 1656SOL    HW3 6391   3.457   6.353   1.531  0.5789 -1.0851 -0.8077
 1656SOL    MW4 6392   3.408   6.354   1.459  0.4267  0.4564 -0.3180
 1657SOL     OW 6393   3.820   4.361   1.805  0.7541 -0.6155 -0.4328
 1657SOL    HW2 6394   3.836   4.335   1.896  1.6362 -2.7229 -1.1410
 1657SOL    HW3 6395   3.726   4.381   1.802  0.7578 -0.2400  0.9692
 1657SOL    MW4 6396   3.810   4.360   1.817 -0.2458 -0.4130  0.6192
 1658SOL     OW 6397   6.215   2.636   0.625  0.3421  0.1026  0.7375
 1658SOL    HW2 6398   6.168   2.564   0.668 -0.3435  0.0548 -0.0782
 1658SOL    HW3 6399   6.180   2.715   0.666 -1.1772  0.1259 -0.4954
 1658SOL    MW4 6400   6.204   2.637   0.636 -0.0088  0.1330 -0.6755
 1659SOL     OW 6401   1.695   0.817   5.773 -0.0463 -0.9444  0.3273
 1659SOL    HW2 6402   1.627   0.849   5.713  0.0256  0.1035  0.7876
 1659SOL    HW3 6403   1.686   0.721   5.770 -1.3326 -0.8379  0.1394
 1659SOL    MW4 6404   1.685   0.808   5.765  0.0236  0.9747  0.2052
 1660SOL     OW 6405   0.206   3.963   0.452 -0.5170  0.3114  0.2890
 1660SOL    HW2 6406   0.230   3.920   0.369  2.3382 -0.2680  1.2883
 1660SOL    HW3 6407   0.153   3.898   0.498 -1.1542  0.1840 -0.6087
 1660SOL    MW4 6408   0.202   3.948   0.447  0.3497  1.1436 -0.1409
 1661SOL     OW 6409   5.196   4.670   4.703 -0.1262 -0.7092 -0.0597
 1661SOL    HW2 6410   5.276   4.619   4.696 -0.3863 -1.3367  1.1588
 1661SOL    HW3 6411   5.168   4.685   4.613 -0.2600 -3.0921 -0.4753
 1661SOL    MW4 6412   5.203   4.665   4.690  0.6744  0.1566 -0.0228
 1662SOL     OW 6413   0.248   5.536   0.545  0.8541  0.6818 -0.0507
 1662SOL    HW2 6414   0.274   5.444   0.545  1.8977  0.9583 -0.9663
 1662SOL    HW3 6415   0.236   5.558   0.452  0.9959  1.5745  0.1302
 1662SOL    MW4 6416   0.250   5.527   0.532  0.1382  0.1552 -0.0079
 1663SOL     OW 6417   4.708   5.236   3.034 -0.3472 -0.5317  0.1844
 1663SOL    HW2 6418   4.618   5.248   3.064 -1.0345  0.1268 -2.0205
 1663SOL    HW3 6419   4.701   5.177   2.959  1.0474 -0.3221 -0.1317
 1663SOL    MW4 6420   4.695   5.230   3.028 -0.0805  0.0067 -0.1680
 1664SOL     OW 6421   4.830   6.391   0.217 -0.5271  0.2059  0.5051
 1664SOL    HW2 6422   4.788   6.339   0.285  0.9634  0.1257  1.4007
 1664SOL    HW3 6423   4.780   6.472   0.213 -0.6894  0.1670  1.6429
 1664SOL    MW4 6424   4.818   6.395   0.225 -0.9407  0.2093 -0.1833
 1665SOL     OW 6425   0.097   0.294   2.159 -0.1880  0.0064  0.8897
 1665SOL    HW2 6426   0.033   0.333   2.101  0.7080 -1.1370 -0.9799
 1665SOL    HW3 6427   0.100   0.352   2.235 -2.3667  0.8385  0.4113
 1665SOL    MW4 6428   0.089   0.307   2.161 -0.1683  0.0710 -0.2125
 1666SOL     OW 6429   2.799   3.962   5.195 -0.1943 -0.3954 -0.0058
 1666SOL    HW2 6430   2.765   3.892   5.139  0.1687  0.8596 -1.8646
 1666SOL    HW3 6431   2.766   4.043   5.156  0.2130  0.5576  1.5145
 1666SOL    MW4 6432   2.790   3.963   5.183 -0.3075 -0.0258  0.1707
 1667SOL     OW 6433   5.936   2.618   2.289  0.0737 -0.0403  0.2055
 1667SOL    HW2 6434   5.878   2.612   2.213  0.3369  2.8790 -0.3741
 1667SOL    HW3 6435   6.005   2.679   2.262  1.6739 -0.9635  1.9427
 1667SOL    MW4 6436   5.937   2.626   2.276 -0.6939 -0.5929  0.4512
 1668SOL     OW 6437   1.825   1.802   4.604  0.2436  0.3341 -0.2460
 1668SOL    HW2 6438   1.767   1.805   4.528  1.1471  0.6564 -0.9515
 1668SOL    HW3 6439   1.870   1.886   4.604  1.2628 -0.1855 -0.1864
 1668SOL    MW4 6440   1.823   1.813   4.594  0.2838  0.3254 -0.1504
 1669SOL     OW 6441   1.622   5.540   2.596  0.0454 -0.0207  0.2860
 1669SOL    HW2 6442   1.653   5.452   2.574  1.1953 -0.1786  2.3104
 1669SOL    HW3 6443   1.530   5.527   2.620  0.1464 -0.6389  0.3715
 1669SOL    MW4 6444   1.614   5.526   2.596 -0.2765 -0.4267 -0.1085
 1670SOL     OW 6445   5.174   4.763   0.877  0.1852  0.4538  0.1414
 1670SOL    HW2 6446   5.087   4.776   0.915  0.0700  0.4496 -0.1223
 1670SOL    HW3 6447   5.161   4.696   0.810  0.2598  0.9472 -0.3679
 1670SOL    MW4 6448   5.161   4.756   0.873  0.5221 -0.1324 -0.0363
 1671SOL     OW 6449   5.849   1.642   3.538  0.8527 -0.0534 -0.3956
 1671SOL    HW2 6450   5.772   1.608   3.583  0.6307  1.6852  0.6349
 1671SOL    HW3 6451   5.923   1.617   3.593  0.7984  0.2171 -0.2002
 1671SOL    MW4 6452   5.848   1.634   3.551  0.0986  0.1066  0.3276
 1672SOL     OW 6453   0.440   3.250   1.301  0.0672 -0.7085 -0.0016
 1672SOL    HW2 6454   0.524   3.211   1.323  0.0569 -0.6689  0.1066
 1672SOL    HW3 6455   0.450   3.343   1.323  0.1425 -0.6193 -0.3944
 1672SOL    MW4 6456   0.453   3.257   1.307  0.4846  0.3188  0.2422
 1673SOL     OW 6457   1.716   1.004   4.932 -0.0044  0.1618 -0.0569
 1673SOL    HW2 6458   1.776   0.973   4.863 -2.4284 -0.2726 -2.1112
 1673SOL    HW3 6459   1.755   0.971   5.013  2.6030  0.0569 -1.2453
 1673SOL    MW4 6460   1.729   0.995   4.934 -0.3258 -0.3951 -0.0163
 1674SOL     OW 6461   3.105   3.817   4.584 -0.7096  0.0299  0.2463
 1674SOL    HW2 6462   3.081   3.812   4.676 -2.0128 -0.9291 -0.1246
 1674SOL    HW3 6463   3.149   3.734   4.566  2.3203  1.4080  0.7031
 1674SOL    MW4 6464   3.108   3.805   4.594 -0.1930  0.1387  0.2950
 1675SOL     OW 6465   4.995   4.045   3.271  0.3088  0.3190  0.2350
 1675SOL    HW2 6466   5.079   4.001   3.280  0.3165  0.3304  0.2179
 1675SOL    HW3 6467   4.988   4.065   3.178  0.0691 -0.1285  0.1535
 1675SOL    MW4 6468   5.005   4.042   3.260 -0.5223 -0.0417 -0.1884
 1676SOL     OW 6469   0.787   5.870   4.785  0.0191  0.4548  0.2775
 1676SOL    HW2 6470   0.749   5.798   4.835  4.4158 -1.0168  1.9256
 1676SOL    HW3 6471   0.812   5.935   4.851 -1.2046  2.2326 -0.9139
 1676SOL    MW4 6472   0.785   5.869   4.801  0.1606 -0.1867  0.8941
 1677SOL     OW 6473   1.064   3.297   2.763  0.5515 -0.3852 -0.8840
 1677SOL    HW2 6474   0.970   3.305   2.746  0.5218 -0.5366 -0.7937
 1677SOL    HW3 6475   1.097   3.246   2.689  0.2869 -1.7509 -0.0949
 1677SOL    MW4 6476   1.056   3.291   2.751  0.0902  0.0975  0.7422
 1678SOL     OW 6477   2.143   6.334   3.244  0.2164  0.6959  0.0164
 1678SOL    HW2 6478   2.135   6.336   3.339  1.1592  1.7534  0.0889
 1678SOL    HW3 6479   2.227   6.291   3.228 -0.9709 -1.6396 -0.4448
 1678SOL    MW4 6480   2.153   6.329   3.254 -0.3311 -0.0554  0.0789
 1679SOL     OW 6481   4.454   0.360   3.138 -0.3053 -0.0281 -0.6110
 1679SOL    HW2 6482   4.550   0.365   3.133 -0.1853 -2.2670 -2.4954
 1679SOL    HW3 6483   4.436   0.309   3.217 -0.0334  1.2774  0.3219
 1679SOL    MW4 6484   4.465   0.354   3.147  0.0118 -0.0164 -0.6257
 1680SOL     OW 6485   5.785   4.107   4.280  0.3790  0.1281  0.2337
 1680SOL    HW2 6486   5.721   4.139   4.217  1.7986 -0.5591 -1.6603
 1680SOL    HW3 6487   5.781   4.012   4.273 -0.3000 -0.0341  2.1517
 1680SOL    MW4 6488   5.776   4.099   4.271  0.3614 -0.3982 -0.3443
 1681SOL     OW 6489   0.057   1.253   3.178 -0.3241  0.4457  0.4048
 1681SOL    HW2 6490   0.033   1.161   3.190  0.2820  0.3808  1.1897
 1681SOL    HW3 6491   0.100   1.256   3.093 -0.5497  0.0452  0.2728
 1681SOL    MW4 6492   0.059   1.242   3.168  0.3716 -0.5544  0.7344
 1682SOL     OW 6493   3.440   3.416   4.710  0.0481  0.0798  0.1558
 1682SOL    HW2 6494   3.425   3.392   4.801 -0.7447 -0.2239 -0.0460
 1682SOL    HW3 6495   3.356   3.401   4.667  0.2617  0.7377 -0.5164
 1682SOL    MW4 6496   3.427   3.411   4.716 -0.1131 -0.0735 -0.2009
 1683SOL     OW 6497   2.714   2.783   0.346  0.4392 -0.6400  0.7421
 1683SOL    HW2 6498   2.712   2.689   0.362  0.7084 -0.6298  0.8427
 1683SOL    HW3 6499   2.625   2.813   0.362  0.6078 -0.6923  1.8304
 1683SOL    MW4 6500   2.702   2.775   0.350 -0.5551  0.1310 -0.3463
 1684SOL     OW 6501   3.576   1.160   2.432  0.5586 -0.1343  0.2253
 1684SOL    HW2 6502   3.551   1.068   2.441  2.7213 -0.8718 -0.7976
 1684SOL    HW3 6503   3.621   1.165   2.348 -2.5580  2.6530 -1.5590
 1684SOL    MW4 6504   3.578   1.149   2.422  0.1260  0.0813  0.1497
 1685SOL     OW 6505   5.312   3.298   3.760  0.0435 -0.3213 -0.4654
 1685SOL    HW2 6506   5.401   3.329   3.747 -0.6227  1.2221 -1.8047
 1685SOL    HW3 6507   5.298   3.235   3.690  0.4072 -1.3819  0.3976
 1685SOL    MW4 6508   5.322   3.294   3.749 -0.4676 -0.0033  0.2365
 1686SOL     OW 6509   3.738   4.671   4.791 -0.2967 -0.4418 -0.2155
 1686SOL    HW2 6510   3.707   4.610   4.723  1.3798 -0.7606 -0.7519
 1686SOL    HW3 6511   3.789   4.616   4.850 -0.6708  0.0650  0.5873
 1686SOL    MW4 6512   3.741   4.656   4.790 -0.2453 -0.2222  0.3614
 1687SOL     OW 6513   1.978   1.173   6.104  0.2858 -0.1735 -0.3749
 1687SOL    HW2 6514   1.889   1.192   6.076 -0.0791  1.8226  1.8444
 1687SOL    HW3 6515   1.978   1.079   6.123 -1.3977 -0.1525 -0.1850
 1687SOL    MW4 6516   1.966   1.163   6.103 -0.4188 -0.5676 -1.0408
 1688SOL     OW 6517   4.064   0.503   4.191 -0.0536 -0.0525  0.3401
 1688SOL    HW2 6518   4.015   0.445   4.250  0.2287 -0.9515 -0.2843
 1688SOL    HW3 6519   4.001   0.570   4.165 -0.3140  0.0875  1.2763
 1688SOL    MW4 6520   4.050   0.504   4.195  0.2635  0.6385 -0.0924
 1689SOL     OW 6521   0.756   2.457   3.363  0.4703 -0.2023 -0.0565
 1689SOL    HW2 6522   0.795   2.533   3.321  0.3897 -0.3078 -0.3237
 1689SOL    HW3 6523   0.723   2.490   3.447 -0.9740  0.4310 -0.8315
 1689SOL    MW4 6524   0.757   2.472   3.369 -0.0372  0.8628 -0.0907
 1690SOL     OW 6525   0.296   4.482   3.853 -0.5523 -0.0062  1.2001
 1690SOL    HW2 6526   0.371   4.441   3.896  0.2329  0.9640  0.7938
 1690SOL    HW3 6527   0.321   4.574   3.844 -1.3707  0.1243  0.1227
 1690SOL    MW4 6528   0.309   4.488   3.858  0.3067 -0.1194  0.2784
 1691SOL     OW 6529   1.591   4.017   5.254  0.0654  0.6096  0.4985
 1691SOL    HW2 6530   1.648   4.092   5.238  0.2191  0.1792 -1.1528
 1691SOL    HW3 6531   1.560   3.991   5.167  1.1009 -2.0661  0.8383
 1691SOL    MW4 6532   1.595   4.023   5.240 -0.4673 -0.5335  0.2758
 1692SOL     OW 6533   2.340   1.517   6.221  0.0571 -0.1455 -0.1518
 1692SOL    HW2 6534   2.343   1.445   6.158 -1.2153 -0.4610  0.1317
 1692SOL    HW3 6535   2.251   1.514   6.257  0.2538  1.0530  0.4659
 1692SOL    MW4 6536   2.329   1.507   6.218  0.1861  0.3692 -0.0540
 1693SOL     OW 6537   5.806   3.854   0.251 -0.2721  0.1580  0.1289
 1693SOL    HW2 6538   5.872   3.857   0.182 -1.2143 -0.8292 -0.8477
 1693SOL    HW3 6539   5.724   3.838   0.206 -0.8831 -0.8278  1.4982
 1693SOL    MW4 6540   5.804   3.853   0.236 -0.3002  0.3351  0.2466
 1694SOL     OW 6541   0.420   3.506   0.073 -0.4889 -0.3731  0.1556
 1694SOL    HW2 6542   0.511   3.484   0.050 -0.3229  0.4866 -0.0551
 1694SOL    HW3 6543   0.403   3.458   0.153  0.6961  0.6999  1.0871
 1694SOL    MW4 6544   0.430   3.497   0.080 -0.2024 -0.1463 -0.0618
 1695SOL     OW 6545   2.750   1.934   5.332  0.4397 -0.2357  0.0940
 1695SOL    HW2 6546   2.680   1.980   5.286 -0.0683 -1.8056 -0.7986
 1695SOL    HW3 6547   2.712   1.911   5.417  0.5354  0.5435  0.3547
 1695SOL    MW4 6548   2.735   1.937   5.337  0.6970  0.3830  0.0822
 1696SOL     OW 6549   4.572   3.646   2.837  0.1994 -0.3168 -0.0054
 1696SOL    HW2 6550   4.611   3.699   2.907  1.3057 -2.0933  0.7820
 1696SOL    HW3 6551   4.496   3.604   2.878  0.8996 -1.4307  0.1587
 1696SOL    MW4 6552   4.567   3.647   2.852  0.6127 -0.5741 -0.4111
 1697SOL     OW 6553   6.037   3.620   5.490 -0.6030  0.3065  0.0465
 1697SOL    HW2 6554   6.076   3.704   5.465 -0.6663  0.7209  1.2467
 1697SOL    HW3 6555   6.066   3.558   5.423 -0.2070  1.1985 -0.6203
 1697SOL    MW4 6556   6.046   3.623   5.478  0.6463 -0.0680 -0.0932
 1698SOL     OW 6557   4.252   2.485   3.758  0.7440 -0.0645 -0.1186
 1698SOL    HW2 6558   4.197   2.477   3.680 -1.7731  2.1950  1.2560
 1698SOL    HW3 6559   4.298   2.569   3.745  0.4157  0.2541  0.7553
 1698SOL    MW4 6560   4.251   2.495   3.746 -0.2279  0.5391 -0.0978
 1699SOL     OW 6561   4.303   3.948   1.992  0.2943  1.1886 -0.6275
 1699SOL    HW2 6562   4.348   3.953   2.076  0.7663  1.4855 -0.8871
 1699SOL    HW3 6563   4.360   3.997   1.932 -0.1153  1.1181 -1.0816
 1699SOL    MW4 6564   4.317   3.955   1.995  0.2808  0.0730  0.2642
 1700SOL     OW 6565   2.871   2.534   2.608 -0.1174  0.0734 -0.1522
 1700SOL    HW2 6566   2.880   2.486   2.525 -0.8207  1.9963 -1.4043
 1700SOL    HW3 6567   2.947   2.592   2.611 -1.2988  1.7334 -0.6935
 1700SOL    MW4 6568   2.882   2.535   2.598 -0.5060 -0.1262  0.6310
 1701SOL     OW 6569   4.106   0.677   0.075 -0.6016  0.2727  0.7448
 1701SOL    HW2 6570   4.104   0.613   0.004 -2.4316 -0.3759  1.3389
 1701SOL    HW3 6571   4.190   0.661   0.119 -0.3596 -0.6736 -0.0302
 1701SOL    MW4 6572   4.117   0.667   0.072  0.2643 -0.6339 -0.5122
 1702SOL     OW 6573   4.724   2.481   0.300 -0.1242 -0.2534 -0.5940
 1702SOL    HW2 6574   4.754   2.570   0.315 -0.8582  0.1847 -1.5549
 1702SOL    HW3 6575   4.726   2.471   0.205 -0.4283 -1.1246 -0.5193
 1702SOL    MW4 6576   4.728   2.491   0.289 -0.0769 -0.0783  0.4252
 1703SOL     OW 6577   0.199   2.999   1.923  0.0680  0.1087  0.3509
 1703SOL    HW2 6578   0.252   3.047   1.986 -1.6820  1.2666  1.0154
 1703SOL    HW3 6579   0.189   2.912   1.962  0.1231  0.3885  0.9961
 1703SOL    MW4 6580   0.205   2.994   1.936 -0.3844  0.0689 -0.5524
 1704SOL     OW 6581   3.460   2.953   5.857 -0.8566  0.0290 -0.3058
 1704SOL    HW2 6582   3.470   3.022   5.791 -0.1976  0.3220  0.0936
 1704SOL    HW3 6583   3.461   2.872   5.806  0.8060  0.1896 -0.5823
 1704SOL    MW4 6584   3.461   2.951   5.841 -0.1455 -0.1054 -0.0634
 1705SOL     OW 6585   3.239   1.554   1.975  0.5242 -0.2131 -0.5842
 1705SOL    HW2 6586   3.253   1.560   2.070  1.8321 -0.4649 -0.7514
 1705SOL    HW3 6587   3.308   1.607   1.937  0.3333 -0.5482 -1.4146
 1705SOL    MW4 6588   3.250   1.561   1.983 -0.3132 -0.1326 -0.7152
 1706SOL     OW 6589   2.879   0.342   6.076  0.6577  0.3751 -0.2142
 1706SOL    HW2 6590   2.876   0.357   6.170 -1.3004  0.1230 -0.1860
 1706SOL    HW3 6591   2.967   0.309   6.059  0.8698 -0.0932  1.6178
 1706SOL    MW4 6592   2.890   0.339   6.086  0.1373  0.7848 -0.2795
 1707SOL     OW 6593   3.385   6.376   3.985 -0.3723 -0.2173 -0.0090
 1707SOL    HW2 6594   3.474   6.386   3.952 -0.8393  1.8757 -0.7797
 1707SOL    HW3 6595   3.374   6.281   3.998  1.9185 -0.5176  0.0553
 1707SOL    MW4 6596   3.395   6.365   3.982 -0.2888 -0.3436 -0.1609
 1708SOL     OW 6597   5.415   0.573   5.453  0.0812  1.1328 -0.5845
 1708SOL    HW2 6598   5.384   0.560   5.364  1.6370  2.0369 -1.3014
 1708SOL    HW3 6599   5.483   0.641   5.445  1.0144  0.4564  1.1141
 1708SOL    MW4 6600   5.420   0.580   5.440 -0.2206  0.0721 -0.1314
 1709SOL     OW 6601   4.217   4.073   3.308 -0.4090 -0.4355  0.0452
 1709SOL    HW2 6602   4.227   4.167   3.319 -1.1540 -0.2305 -0.9025
 1709SOL    HW3 6603   4.267   4.053   3.229 -0.1168 -0.8763  0.3319
 1709SOL    MW4 6604   4.225   4.083   3.299 -0.5218  0.1017 -0.3062
 1710SOL     OW 6605   0.194   3.014   1.016 -0.1555  0.0120  0.3725
 1710SOL    HW2 6606   0.225   2.958   1.086 -1.2747 -1.7961 -0.5020
 1710SOL    HW3 6607   0.112   2.974   0.987 -0.9669  2.0454 -0.3952
 1710SOL    MW4 6608   0.187   3.002   1.021  0.2074 -0.3418  0.7076
 1711SOL     OW 6609   4.894   5.740   5.329 -0.7196 -0.2091 -0.2400
 1711SOL    HW2 6610   4.944   5.762   5.250 -1.6087 -1.7148 -1.2500
 1711SOL    HW3 6611   4.908   5.816   5.386 -0.2553  1.0487 -1.9116
 1711SOL    MW4 6612   4.903   5.753   5.326  0.2034  0.5446  0.1702
 1712SOL     OW 6613   5.564   5.286   5.426 -0.1543 -0.1475  0.1180
 1712SOL    HW2 6614   5.653   5.321   5.434 -0.5108  1.0611 -0.8396
 1712SOL    HW3 6615   5.572   5.215   5.362  0.0457  0.3372 -0.4089
 1712SOL    MW4 6616   5.577   5.281   5.418 -0.4562 -0.0350  0.2469
 1713SOL     OW 6617   4.555   3.853   3.407 -0.0938  0.0558 -0.3531
 1713SOL    HW2 6618   4.628   3.913   3.420  0.1669 -0.5158  0.9576
 1713SOL    HW3 6619   4.488   3.881   3.469 -0.7581  0.2042 -1.1235
 1713SOL    MW4 6620   4.555   3.864   3.417  0.4960  0.0077  0.1741
 1714SOL     OW 6621   1.842   0.085   0.030  0.2470  0.0551 -0.1485
 1714SOL    HW2 6622   1.748   0.097   0.018  0.0958 -1.4169 -0.6992
 1714SOL    HW3 6623   1.875   0.063  -0.057  0.8794 -0.6266  0.2498
 1714SOL    MW4 6624   1.834   0.083   0.017 -0.3519 -0.2266  1.0799
 1715SOL     OW 6625   2.930   3.630   0.293  0.2079 -0.2910  0.3723
 1715SOL    HW2 6626   2.863   3.566   0.267  0.4246  0.1640 -1.4283
 1715SOL    HW3 6627   2.885   3.688   0.354 -1.1913  0.2410 -1.0961
 1715SOL    MW4 6628   2.915   3.629   0.297 -0.9088 -0.0890  0.1737
 1716SOL     OW 6629   0.954   6.295   0.012  0.0793  0.3605 -0.2831
 1716SOL    HW2 6630   0.889   6.361   0.037  0.0580  0.0350  0.5653
 1716SOL    HW3 6631   0.969   6.311  -0.081 -1.7739 -0.0370 -0.6956
 1716SOL    MW4 6632   0.947   6.306   0.003 -0.1024 -0.1140  0.0486
 1717SOL     OW 6633   3.387   3.780   4.844  0.2203  0.1193  0.1865
 1717SOL    HW2 6634   3.320   3.715   4.867 -0.3833  0.6753  0.0110
 1717SOL    HW3 6635   3.414   3.755   4.755 -0.1832  0.2517  0.0255
 1717SOL    MW4 6636   3.382   3.768   4.835 -0.1379 -0.2210  0.5362
 1718SOL     OW 6637   0.229   5.215   2.220  0.0237  0.0266  0.2210
 1718SOL    HW2 6638   0.284   5.152   2.172  0.7719  0.2515  0.7663
 1718SOL    HW3 6639   0.200   5.277   2.153  0.8132  0.1663 -0.0105
 1718SOL    MW4 6640   0.233   5.215   2.205  0.5014  0.1391  0.3212
 1719SOL     OW 6641   1.638   6.105   3.029 -0.0279  0.0988  0.3581
 1719SOL    HW2 6642   1.633   6.092   3.124  0.8924 -1.0892  0.2660
 1719SOL    HW3 6643   1.688   6.030   2.997  1.3464  1.4553 -0.8487
 1719SOL    MW4 6644   1.644   6.093   3.037  0.4079 -0.8444  0.2871
 1720SOL     OW 6645   1.472   5.492   2.989 -0.1265 -0.0592  0.5470
 1720SOL    HW2 6646   1.533   5.543   3.041  0.9907 -0.9128  0.1179
 1720SOL    HW3 6647   1.513   5.406   2.981 -0.9372 -0.3692 -0.5575
 1720SOL    MW4 6648   1.485   5.487   2.995  0.8156 -0.1448  0.2722
 1721SOL     OW 6649   2.272   0.747   3.976 -0.4267  0.9651  0.1603
 1721SOL    HW2 6650   2.280   0.652   3.989  0.0164  1.0435  0.4755
 1721SOL    HW3 6651   2.351   0.783   4.015  0.3280  1.3187 -1.6068
 1721SOL    MW4 6652   2.284   0.739   3.983  0.2498  0.1344  0.1681
 1722SOL     OW 6653   6.159   4.980   5.300  0.2485 -0.4924 -0.1250
 1722SOL    HW2 6654   6.216   4.940   5.235  0.4932 -1.3655  0.6081
 1722SOL    HW3 6655   6.105   4.908   5.333  1.8120 -0.6301  2.4141
 1722SOL    MW4 6656   6.159   4.965   5.296 -0.0715  0.4887  0.1592
 1723SOL     OW 6657   1.813   3.114   2.000 -0.4700 -0.0500 -0.3196
 1723SOL    HW2 6658   1.905   3.104   1.976 -0.3454 -0.5475  0.3307
 1723SOL    HW3 6659   1.812   3.188   2.060 -0.5155  0.0647 -0.4636
 1723SOL    MW4 6660   1.825   3.122   2.005 -0.4658  0.2698 -0.1602
 1724SOL     OW 6661   6.191   2.158   0.588  0.4432 -0.1714  0.0742
 1724SOL    HW2 6662   6.271   2.210   0.578  0.2665  0.1226  0.1717
 1724SOL    HW3 6663   6.203   2.111   0.671 -0.6995  2.0803  1.6150
 1724SOL    MW4 6664   6.203   2.159   0.598  0.1497 -0.2066 -0.0139
 1725SOL     OW 6665   1.100   6.336   5.937  0.1229 -0.6011  0.2185
 1725SOL    HW2 6666   1.154   6.258   5.922  1.2975  0.2506 -0.2055
 1725SOL    HW3 6667   1.031   6.330   5.872  0.4295 -1.0957 -0.0736
 1725SOL    MW4 6668   1.098   6.325   5.927 -0.6463  0.3976  0.0031
 1726SOL     OW 6669   1.776   0.066   5.199 -0.1665 -0.0885  0.9368
 1726SOL    HW2 6670   1.683   0.073   5.218 -0.4579  1.6752 -0.8934
 1726SOL    HW3 6671   1.783  -0.004   5.134 -0.1996 -0.1261  0.9732
 1726SOL    MW4 6672   1.765   0.057   5.193 -0.3962 -0.5237  0.1133
 1727SOL     OW 6673   6.298   6.371   1.604  0.4613 -0.1532 -0.0411
 1727SOL    HW2 6674   6.372   6.424   1.573 -0.0015  0.0822 -0.7496
 1727SOL    HW3 6675   6.245   6.356   1.526 -1.0168  0.9127  0.7019
 1727SOL    MW4 6676   6.301   6.376   1.590 -0.3323  0.1653 -0.3747
 1728SOL     OW 6677   2.046   2.910   2.676 -0.1181  0.3616 -0.6936
 1728SOL    HW2 6678   2.040   2.957   2.759 -1.5662 -2.5855  1.0298
 1728SOL    HW3 6679   2.133   2.870   2.677 -0.6594 -0.8377  0.1387
 1728SOL    MW4 6680   2.057   2.911   2.687 -0.7744  0.6289  0.4606
 1729SOL     OW 6681   2.588   0.145   5.755 -0.1684 -0.4849 -0.1536
 1729SOL    HW2 6682   2.542   0.070   5.717 -0.2903 -0.2259 -0.5202
 1729SOL    HW3 6683   2.629   0.110   5.834  0.1904 -1.0572 -0.5813
 1729SOL    MW4 6684   2.587   0.130   5.760 -0.1890  0.2974  0.7981
 1730SOL     OW 6685   0.858   1.020   3.839  0.3637  0.0402 -0.2616
 1730SOL    HW2 6686   0.841   1.065   3.921 -0.7035  0.1260 -0.5163
 1730SOL    HW3 6687   0.938   1.060   3.805 -0.1821  1.2587 -0.1428
 1730SOL    MW4 6688   0.867   1.031   3.845 -0.0290 -0.4332 -0.2991
 1731SOL     OW 6689   6.322   1.250   5.348  0.8003  0.2862 -0.1230
 1731SOL    HW2 6690   6.289   1.232   5.260  1.4915  2.2366 -0.8481
 1731SOL    HW3 6691   6.250   1.295   5.393  0.9300  0.5938 -0.2138
 1731SOL    MW4 6692   6.309   1.254   5.342  0.4122 -0.5251  0.5614
 1732SOL     OW 6693   6.170   1.546   0.968 -0.0057 -0.0922 -0.3819
 1732SOL    HW2 6694   6.220   1.468   0.947  0.2602  0.3257 -1.3750
 1732SOL    HW3 6695   6.222   1.591   1.035  0.2837 -0.3211 -0.4518
 1732SOL    MW4 6696   6.183   1.542   0.974 -0.2203  0.0597  0.2769
 1733SOL     OW 6697   2.710   4.326   4.174 -0.3208 -0.0662 -0.1341
 1733SOL    HW2 6698   2.798   4.334   4.211 -0.1867 -1.2449 -0.1482
 1733SOL    HW3 6699   2.723   4.331   4.080 -0.1118 -1.2207 -0.1920
 1733SOL    MW4 6700   2.723   4.328   4.167  0.3696 -0.4214 -0.1808
 1734SOL     OW 6701   5.589   6.345   3.907 -0.5510  0.4046 -0.4109
 1734SOL    HW2 6702   5.619   6.417   3.851  0.9853  0.0114 -0.1281
 1734SOL    HW3 6703   5.500   6.327   3.876 -1.0636  2.5289 -0.3680
 1734SOL    MW4 6704   5.581   6.352   3.895  0.9422  0.3077 -0.1966
 1735SOL     OW 6705   5.608   3.518   3.932 -0.0060  0.0060 -0.4273
 1735SOL    HW2 6706   5.585   3.459   3.860 -1.4787  0.3402 -0.2693
 1735SOL    HW3 6707   5.527   3.527   3.982  0.6262  0.8833  0.4749
 1735SOL    MW4 6708   5.595   3.511   3.929  0.5313 -0.0300 -0.1903
 1736SOL     OW 6709   4.820   0.152   6.367  0.5902  0.0968  0.8461
 1736SOL    HW2 6710   4.805   0.151   6.272 -0.7376  0.4444  1.0335
 1736SOL    HW3 6711   4.766   0.081   6.401 -0.2460  1.0191  1.5015
 1736SOL    MW4 6712   4.811   0.143   6.359  0.0082 -0.5500  0.0771
 1737SOL     OW 6713   5.809   4.370   0.934  0.3673 -0.2151  0.2689
 1737SOL    HW2 6714   5.755   4.386   1.011  0.1322  0.7980 -0.0889
 1737SOL    HW3 6715   5.750   4.327   0.872  0.3609 -0.3658  0.3766
 1737SOL    MW4 6716   5.794   4.366   0.936  0.2347  0.2935 -0.1326
 1738SOL     OW 6717   5.026   0.472   3.079 -0.1444 -1.4364  0.4753
 1738SOL    HW2 6718   5.092   0.532   3.043  0.4741 -3.0263 -1.1804
 1738SOL    HW3 6719   4.946   0.524   3.084  0.4102 -0.4144 -0.7882
 1738SOL    MW4 6720   5.024   0.487   3.075  0.2865 -0.2070 -0.3643
 1739SOL     OW 6721   2.354   4.751   2.703 -0.1157  0.3315 -0.1841
 1739SOL    HW2 6722   2.314   4.708   2.628  0.0426 -0.2186  0.0428
 1739SOL    HW3 6723   2.362   4.843   2.677 -0.2107  0.1737 -0.7735
 1739SOL    MW4 6724   2.350   4.758   2.690 -0.7343 -0.2836  0.2317
 1740SOL     OW 6725   6.008   5.704   5.628  0.3517  0.1106 -0.2862
 1740SOL    HW2 6726   6.028   5.780   5.574 -0.0782  0.1383 -0.4055
 1740SOL    HW3 6727   6.031   5.731   5.717  1.1979  0.0171 -0.4636
 1740SOL    MW4 6728   6.014   5.717   5.632  0.0522 -0.8958 -0.1108
 1741SOL     OW 6729   1.163   1.709   2.515 -0.0345  0.2065  0.2381
 1741SOL    HW2 6730   1.204   1.793   2.536  1.0938 -0.6718  1.7925
 1741SOL    HW3 6731   1.092   1.731   2.455 -2.1648  2.7584  3.3497
 1741SOL    MW4 6732   1.159   1.723   2.510 -0.1344  0.4491 -0.1339
 1742SOL     OW 6733   2.604   4.657   2.693 -0.5879  0.4520 -0.4348
 1742SOL    HW2 6734   2.652   4.674   2.774 -0.6207  0.8048 -0.4879
 1742SOL    HW3 6735   2.515   4.686   2.711 -0.8202 -0.3254 -0.2917
 1742SOL    MW4 6736   2.598   4.663   2.706  0.1695 -0.0789  0.1812
 1743SOL     OW 6737   6.257   2.386   1.655 -0.1845 -0.4207 -0.1701
 1743SOL    HW2 6738   6.301   2.395   1.740 -0.4620 -0.8419  0.0258
 1743SOL    HW3 6739   6.190   2.455   1.656  1.6730  1.5044 -1.2736
 1743SOL    MW4 6740   6.254   2.396   1.666 -0.0999  0.1857  0.5465
 1744SOL     OW 6741   3.771   4.171   5.120 -0.0788  0.4217  0.3456
 1744SOL    HW2 6742   3.762   4.080   5.149 -2.3763  0.7890  1.0063
 1744SOL    HW3 6743   3.835   4.209   5.181  0.4265 -0.5760  0.4598
 1744SOL    MW4 6744   3.778   4.164   5.132 -0.0175  0.7936  0.3709
 1745SOL     OW 6745   4.479   4.648   4.316 -0.1097 -0.6093 -0.0845
 1745SOL    HW2 6746   4.573   4.647   4.298  0.1231 -0.3698  1.0394
 1745SOL    HW3 6747   4.440   4.603   4.241  0.8940 -0.6780 -0.5865
 1745SOL    MW4 6748   4.487   4.642   4.304 -0.0295 -0.0521 -0.2552
 1746SOL     OW 6749   3.038   5.767   1.183  0.0966 -0.5256  0.4805
 1746SOL    HW2 6750   3.102   5.795   1.118  0.8957  1.3215  1.9710
 1746SOL    HW3 6751   2.954   5.799   1.150 -0.0537 -2.3766 -1.1464
 1746SOL    MW4 6752   3.035   5.775   1.171 -0.0260 -0.6282  0.2302
 1747SOL     OW 6753   4.250   0.522   2.416  0.5348  0.2633 -0.1684
 1747SOL    HW2 6754   4.294   0.471   2.348  0.4925  0.2373 -0.1767
 1747SOL    HW3 6755   4.238   0.460   2.488  0.0846  0.1397 -0.3482
 1747SOL    MW4 6756   4.254   0.507   2.417  0.7534  0.4426 -0.4288
 1748SOL     OW 6757   0.137   4.415   5.145  0.3654  0.2686 -0.7556
 1748SOL    HW2 6758   0.052   4.459   5.136 -1.4444 -2.1834  2.3315
 1748SOL    HW3 6759   0.133   4.342   5.083  0.0416 -0.0308 -0.3897
 1748SOL    MW4 6760   0.125   4.411   5.136 -0.2100 -1.0688 -0.2566
 1749SOL     OW 6761   0.796   1.249   0.271 -0.2443 -0.6741  0.6131
 1749SOL    HW2 6762   0.791   1.154   0.260  0.3110 -0.6591  0.1425
 1749SOL    HW3 6763   0.876   1.263   0.322 -0.0849 -0.4328  0.2984
 1749SOL    MW4 6764   0.806   1.238   0.276 -0.6506  0.2194  0.6001
 1750SOL     OW 6765   2.813   0.878   5.670 -0.1794 -0.2448 -0.2604
 1750SOL    HW2 6766   2.855   0.898   5.587 -0.0182 -1.4985 -0.4852
 1750SOL    HW3 6767   2.728   0.843   5.646 -0.3520 -0.0968  0.1283
 1750SOL    MW4 6768   2.807   0.876   5.656 -0.8081 -0.2266  0.3085
 1751SOL     OW 6769   4.002   3.788   4.559  0.5641  0.6903 -0.4260
 1751SOL    HW2 6770   4.057   3.777   4.481  1.8927 -0.2733  0.5876
 1751SOL    HW3 6771   3.972   3.878   4.554  2.7884  1.4960 -0.7346
 1751SOL    MW4 6772   4.005   3.798   4.548 -0.3522  0.2135 -0.2563
 1752SOL     OW 6773   0.158   5.856   0.975  0.0541  0.1344  0.6293
 1752SOL    HW2 6774   0.182   5.837   1.066 -1.0599 -1.4934  0.6125
 1752SOL    HW3 6775   0.241   5.852   0.927  0.2430 -2.4955  1.0453
 1752SOL    MW4 6776   0.172   5.853   0.981 -0.4379  0.9606 -0.1248
 1753SOL     OW 6777   3.724   2.451   5.852  0.5463 -0.7123 -0.7539
 1753SOL    HW2 6778   3.667   2.528   5.860  0.0556 -1.0637 -0.8245
 1753SOL    HW3 6779   3.685   2.386   5.911  2.1086 -0.2416  0.8945
 1753SOL    MW4 6780   3.711   2.453   5.861 -0.2566 -0.1068 -0.2695
 1754SOL     OW 6781   4.074   5.402   0.710 -0.2333  0.6457 -0.2504
 1754SOL    HW2 6782   4.105   5.343   0.778 -0.3126 -1.0526 -1.6281
 1754SOL    HW3 6783   4.065   5.347   0.633 -0.3244  2.4707 -1.6035
 1754SOL    MW4 6784   4.077   5.387   0.709 -0.1665 -0.2035  0.0787
 1755SOL     OW 6785   0.156   4.118   4.108 -0.3667 -0.3655 -0.3122
 1755SOL    HW2 6786   0.105   4.066   4.171 -0.7499  1.5984  1.0801
 1755SOL    HW3 6787   0.113   4.203   4.107  2.3792  1.1154  0.2613
 1755SOL    MW4 6788   0.144   4.122   4.116 -0.1297  0.0992 -0.3736
 1756SOL     OW 6789   1.249   5.428   5.065  0.0751  0.0534  0.0907
 1756SOL    HW2 6790   1.273   5.421   4.973  2.5497  1.2067  0.5661
 1756SOL    HW3 6791   1.186   5.500   5.068  0.5786  0.5273 -0.6109
 1756SOL    MW4 6792   1.244   5.437   5.053 -0.0961 -0.9225  0.6331
 1757SOL     OW 6793   5.895   3.297   1.955  0.1466 -0.3045 -0.1419
 1757SOL    HW2 6794   5.933   3.311   1.868 -1.6584 -0.8396 -1.0573
 1757SOL    HW3 6795   5.863   3.384   1.980 -1.2558 -0.5430 -0.9969
 1757SOL    MW4 6796   5.896   3.311   1.947 -0.2381 -0.2689  0.3925
 1758SOL     OW 6797   3.978   5.594   3.068  0.0752 -0.4019  0.6847
 1758SOL    HW2 6798   4.073   5.597   3.079 -0.0362  0.5084  1.5585
 1758SOL    HW3 6799   3.943   5.611   3.156 -0.8923 -0.3763  0.3086
 1758SOL    MW4 6800   3.986   5.596   3.081 -0.2258 -0.4024 -0.2519
 1759SOL     OW 6801   1.629   1.628   3.331 -0.2822  0.3842  0.0553
 1759SOL    HW2 6802   1.562   1.614   3.399  1.5601  1.3489  2.2196
 1759SOL    HW3 6803   1.622   1.551   3.275 -2.5197 -0.0206  0.7733
 1759SOL    MW4 6804   1.619   1.616   3.333  0.1687 -0.0893 -0.4018
 1760SOL     OW 6805   1.513   2.253   0.266 -0.3084 -0.0834  0.0015
 1760SOL    HW2 6806   1.586   2.194   0.245 -0.6438 -0.1042 -1.1547
 1760SOL    HW3 6807   1.522   2.270   0.360  1.6543  0.5485 -0.2611
 1760SOL    MW4 6808   1.524   2.247   0.276 -0.5067 -0.5368  0.1110
 1761SOL     OW 6809   4.813   4.231   0.636 -0.1945  0.4068 -0.0281
 1761SOL    HW2 6810   4.754   4.204   0.566 -0.1877  0.2552  0.0251
 1761SOL    HW3 6811   4.850   4.314   0.606  0.7912 -0.2778 -0.7941
 1761SOL    MW4 6812   4.810   4.238   0.623  0.6070  0.2383  0.0933
 1762SOL     OW 6813   5.587   4.647   3.298  0.2452  0.0409 -0.1455
 1762SOL    HW2 6814   5.604   4.554   3.283  0.1672 -0.6714  3.3040
 1762SOL    HW3 6815   5.497   4.651   3.331  1.5082  0.6041  3.7950
 1762SOL    MW4 6816   5.577   4.636   3.301  0.2039 -0.3296  0.6866
 1763SOL     OW 6817   0.428   2.054   4.222  0.7070  0.1270  0.3137
 1763SOL    HW2 6818   0.336   2.056   4.196  0.7217  0.3883  0.2815
 1763SOL    HW3 6819   0.440   1.968   4.262  0.2758  0.3598  0.9470
 1763SOL    MW4 6820   0.418   2.043   4.224 -0.0352 -0.5904 -0.3188
 1764SOL     OW 6821   0.463   4.707   5.073  0.0921  0.2006 -0.1651
 1764SOL    HW2 6822   0.379   4.687   5.032 -0.2100  1.2510 -0.0846
 1764SOL    HW3 6823   0.458   4.667   5.160  0.1175 -0.6704 -0.5503
 1764SOL    MW4 6824   0.451   4.699   5.079 -0.0083 -0.7899  0.0948
 1765SOL     OW 6825   2.880   4.479   4.540  0.2165  0.3478 -0.1579
 1765SOL    HW2 6826   2.969   4.447   4.527  0.3352  0.9338 -0.8627
 1765SOL    HW3 6827   2.824   4.404   4.521  0.5438  0.0825 -0.0853
 1765SOL    MW4 6828   2.884   4.465   4.536  0.3314 -0.6859  0.8269
 1766SOL     OW 6829   0.835   4.141   2.110 -0.0816  0.1392  0.4586
 1766SOL    HW2 6830   0.903   4.184   2.163  0.5126 -1.2312  0.8555
 1766SOL    HW3 6831   0.868   4.052   2.096 -1.2543 -0.1912 -0.3624
 1766SOL    MW4 6832   0.848   4.135   2.115  0.6309  0.1731 -0.3389
 1767SOL     OW 6833   3.351   5.168   1.169  0.1796  0.8991 -0.3330
 1767SOL    HW2 6834   3.397   5.093   1.207  1.3561  1.3926 -0.7489
 1767SOL    HW3 6835   3.300   5.204   1.242 -0.2538 -0.1789 -0.0855
 1767SOL    MW4 6836   3.350   5.163   1.184 -0.1469  0.1424  0.0057
 1768SOL     OW 6837   4.213   0.199   4.664  0.2247  0.1129 -0.0053
 1768SOL    HW2 6838   4.253   0.115   4.686 -0.7653  0.1902  2.3509
 1768SOL    HW3 6839   4.273   0.237   4.599  1.4361 -1.7712 -0.0900
 1768SOL    MW4 6840   4.226   0.193   4.658 -0.3752 -0.5611  0.1046
 1769SOL     OW 6841   0.926   1.133   4.685 -0.4236 -0.1381 -0.4864
 1769SOL    HW2 6842   0.837   1.169   4.689 -0.6966 -0.1190 -3.9308
 1769SOL    HW3 6843   0.982   1.205   4.715 -1.4379  0.4182  0.1352
 1769SOL    MW4 6844   0.922   1.147   4.689  0.1684  0.5210  0.2154
 1770SOL     OW 6845   1.595   0.740   4.629 -0.2234 -0.8024 -0.1479
 1770SOL    HW2 6846   1.504   0.741   4.658 -0.0218  0.2464  0.4882
 1770SOL    HW3 6847   1.646   0.724   4.709  0.3738  2.6946  0.3142
 1770SOL    MW4 6848   1.590   0.738   4.643 -0.2142 -0.2072 -0.3628
 1771SOL     OW 6849   2.914   4.168   3.138  0.1280 -0.5803  0.0375
 1771SOL    HW2 6850   2.992   4.144   3.088 -0.9165 -2.9706 -0.5825
 1771SOL    HW3 6851   2.927   4.126   3.223  0.4837  0.9219  0.7773
 1771SOL    MW4 6852   2.926   4.160   3.143 -0.4119  0.1250 -0.4194
 1772SOL     OW 6853   5.203   4.753   1.745  0.1531 -0.5977  0.3839
 1772SOL    HW2 6854   5.202   4.804   1.663 -0.5130  1.6179  1.6830
 1772SOL    HW3 6855   5.162   4.670   1.721  0.7057 -0.3365 -1.7137
 1772SOL    MW4 6856   5.197   4.749   1.731 -0.4568 -0.2780 -0.2886
 1773SOL     OW 6857   4.930   6.222   4.837 -0.2701 -0.0622  0.5326
 1773SOL    HW2 6858   5.000   6.190   4.779  0.7687  0.4257  1.4722
 1773SOL    HW3 6859   4.952   6.184   4.922 -1.3940 -0.2208  0.7576
 1773SOL    MW4 6860   4.942   6.213   4.840  0.3955  0.1398 -0.0447
 1774SOL     OW 6861   3.846   1.804   1.131 -0.2055 -0.4549  0.1980
 1774SOL    HW2 6862   3.806   1.765   1.209 -0.1674  0.2203  0.5659
 1774SOL    HW3 6863   3.820   1.746   1.060 -1.2531 -0.4404  0.5379
 1774SOL    MW4 6864   3.837   1.791   1.132 -0.5374  0.0818  0.4180
 1775SOL     OW 6865   0.761   4.846   5.292  0.8619  0.3644  0.1762
 1775SOL    HW2 6866   0.692   4.820   5.231  1.0162 -1.2725  0.6556
 1775SOL    HW3 6867   0.766   4.941   5.283  0.1239  0.2772 -1.5260
 1775SOL    MW4 6868   0.752   4.855   5.283 -0.0372 -0.8114  0.1185
 1776SOL     OW 6869   1.652   3.756   1.688  0.1578 -0.5677  0.6970
 1776SOL    HW2 6870   1.621   3.670   1.660 -0.1582 -0.3987  0.5111
 1776SOL    HW3 6871   1.645   3.754   1.783  0.9101 -1.0258  0.7500
 1776SOL    MW4 6872   1.647   3.745   1.697 -0.3046  0.4200  0.2001
 1777SOL     OW 6873   0.062   5.990   2.454 -0.0389  0.0798 -0.1656
 1777SOL    HW2 6874   0.145   6.013   2.411  1.1386 -0.5897  1.6224
 1777SOL    HW3 6875   0.004   6.063   2.434  0.8812  0.4571 -1.6711
 1777SOL    MW4 6876   0.065   6.003   2.445  0.1307  0.5528 -0.5207
 1778SOL     OW 6877   4.164   0.135   3.265 -0.1613 -0.1224 -0.2250
 1778SOL    HW2 6878   4.160   0.113   3.172 -1.2969 -1.4725  0.1133
 1778SOL    HW3 6879   4.106   0.072   3.308 -0.0985  0.8176  1.3427
 1778SOL    MW4 6880   4.156   0.124   3.259 -0.0187  0.0394  0.4678
 1779SOL     OW 6881   1.320   6.174   1.072 -0.0056  0.0177  0.3720
 1779SOL    HW2 6882   1.233   6.135   1.062  0.6478 -1.4957  0.4586
 1779SOL    HW3 6883   1.338   6.214   0.987 -1.5786  2.1134  0.9317
 1779SOL    MW4 6884   1.311   6.174   1.060 -0.1471 -0.8084  0.1413
 1780SOL     OW 6885   4.047   5.196   5.340  0.4138 -0.4527 -0.1409
 1780SOL    HW2 6886   4.076   5.247   5.265 -1.1261  1.2198  0.3288
 1780SOL    HW3 6887   4.006   5.260   5.399  0.5549 -1.8812  1.6033
 1780SOL    MW4 6888   4.045   5.211   5.338 -0.0265  0.1458 -1.0820
 1781SOL     OW 6889   5.231   6.091   1.914  0.0973  0.5092  0.0954
 1781SOL    HW2 6890   5.208   6.084   2.006 -0.6173  3.6080  0.2628
 1781SOL    HW3 6891   5.153   6.063   1.867  0.8218 -2.1356  0.3113
 1781SOL    MW4 6892   5.218   6.087   1.920 -0.3275  0.5518  0.5273
 1782SOL     OW 6893   1.679   1.004   0.264 -0.0807 -0.3731 -0.4013
 1782SOL    HW2 6894   1.719   0.918   0.255 -1.1694 -0.9854  0.2685
 1782SOL    HW3 6895   1.590   0.985   0.296 -1.0543  0.8792 -2.2034
 1782SOL    MW4 6896   1.672   0.990   0.267  0.3947 -0.3999 -0.2567
 1783SOL     OW 6897   2.649   3.203   2.314 -0.2718  0.0930  0.3354
 1783SOL    HW2 6898   2.602   3.286   2.323 -2.0119 -0.9985  1.9633
 1783SOL    HW3 6899   2.659   3.170   2.403  1.4260 -0.9382 -0.1716
 1783SOL    MW4 6900   2.644   3.209   2.327 -0.3779 -0.0879  0.0676
 1784SOL     OW 6901   3.825   1.497   4.765 -0.0781 -0.1220  0.8734
 1784SOL    HW2 6902   3.733   1.489   4.738  0.1859 -1.6102  0.3556
 1784SOL    HW3 6903   3.874   1.486   4.683  0.5516  2.5109  0.8085
 1784SOL    MW4 6904   3.819   1.495   4.750 -0.2218 -0.2423 -0.4798
 1785SOL     OW 6905   4.051   3.356   3.988 -0.4647  0.1366  0.2142
 1785SOL    HW2 6906   4.051   3.260   3.992 -2.0478  0.1511  2.2292
 1785SOL    HW3 6907   4.133   3.378   3.944  1.5772 -2.0851  2.5564
 1785SOL    MW4 6908   4.062   3.346   3.983  0.0159  0.3247 -0.8867
 1786SOL     OW 6909   1.151   0.165   3.471  0.6502  0.6510  0.1058
 1786SOL    HW2 6910   1.202   0.181   3.391 -0.5334  1.0888 -0.5867
 1786SOL    HW3 6911   1.161   0.245   3.523  0.8325  0.6478  0.0786
 1786SOL    MW4 6912   1.159   0.177   3.467 -0.5414  0.5139  0.5841
 1787SOL     OW 6913   3.418   1.102   0.390 -0.0526 -0.0303 -0.8580
 1787SOL    HW2 6914   3.454   1.188   0.411 -0.7654  0.1086 -0.1278
 1787SOL    HW3 6915   3.369   1.116   0.309 -0.9507  0.4937 -0.2464
 1787SOL    MW4 6916   3.416   1.116   0.382 -0.1039  0.5745 -0.0665
 1788SOL     OW 6917   3.989   5.111   6.029 -0.3572  0.1212  0.1391
 1788SOL    HW2 6918   3.901   5.081   6.008 -1.1326  2.0591  0.4079
 1788SOL    HW3 6919   4.000   5.092   6.122 -0.0719 -1.0378 -0.1144
 1788SOL    MW4 6920   3.979   5.104   6.039  0.6786  0.2701 -0.4640
 1789SOL     OW 6921   4.310   0.549   3.718 -0.6388 -0.5858  0.6593
 1789SOL    HW2 6922   4.372   0.478   3.701 -1.2919 -0.7779 -1.2425
 1789SOL    HW3 6923   4.252   0.548   3.641 -0.9725  1.6838  0.8161
 1789SOL    MW4 6924   4.311   0.540   3.705  0.2875  0.3398  0.2168
 1790SOL     OW 6925   6.342   5.832   1.467  0.1013 -0.6856 -0.5823
 1790SOL    HW2 6926   6.299   5.767   1.523  0.5969 -0.1172  0.4896
 1790SOL    HW3 6927   6.349   5.789   1.381  0.0623 -1.9005  0.0016
 1790SOL    MW4 6928   6.337   5.818   1.463  0.6929 -0.1916  0.1528
 1791SOL     OW 6929   4.603   1.416   2.323  0.5693 -0.1446 -0.6883
 1791SOL    HW2 6930   4.669   1.399   2.257  0.6187 -0.4820 -0.5525
 1791SOL    HW3 6931   4.646   1.473   2.387  0.5580  0.0815 -0.8808
 1791SOL    MW4 6932   4.617   1.421   2.323 -0.4058  0.2948  0.4217
 1792SOL     OW 6933   4.653   5.232   2.548  0.4501 -0.6316 -0.2347
 1792SOL    HW2 6934   4.574   5.272   2.583  0.3153 -0.2492 -0.9496
 1792SOL    HW3 6935   4.622   5.155   2.500  0.4626 -0.2849 -0.8136
 1792SOL    MW4 6936   4.639   5.227   2.546 -0.4284 -0.2040  0.4070
 1793SOL     OW 6937   3.064   5.121   2.832  0.1191 -0.5105 -1.3733
 1793SOL    HW2 6938   2.969   5.134   2.834  0.4030  1.9981  0.1811
 1793SOL    HW3 6939   3.084   5.079   2.915  0.4802  0.1446 -1.1222
 1793SOL    MW4 6940   3.054   5.117   2.843 -0.2600 -0.5594  0.4057
 1794SOL     OW 6941   4.982   5.837   0.851 -0.4333 -0.0207 -0.4696
 1794SOL    HW2 6942   5.040   5.768   0.820 -0.1668 -0.1485  0.3063
 1794SOL    HW3 6943   4.904   5.791   0.884 -0.0373 -0.0018  0.5315
 1794SOL    MW4 6944   4.979   5.822   0.851  0.1434 -0.6447  0.3068
 1795SOL     OW 6945   5.509   6.091   1.961 -0.0973 -0.9621  0.5910
 1795SOL    HW2 6946   5.501   6.026   2.031 -1.2498  0.7421  2.1354
 1795SOL    HW3 6947   5.419   6.108   1.933 -0.0777  1.4508  1.7267
 1795SOL    MW4 6948   5.496   6.085   1.966  0.2789 -0.3968 -1.2591
 1796SOL     OW 6949   0.655   5.103   0.128 -0.2264  0.0427  0.4442
 1796SOL    HW2 6950   0.683   5.194   0.119 -1.5935  0.4293 -0.1607
 1796SOL    HW3 6951   0.631   5.077   0.039  1.7553 -1.4881  0.2908
 1796SOL    MW4 6952   0.655   5.112   0.115 -0.6100  0.6128  0.3216
 1797SOL     OW 6953   1.869   1.373   5.808  0.4813 -0.7308 -0.2041
 1797SOL    HW2 6954   1.864   1.394   5.715 -0.4942 -1.4755 -0.3421
 1797SOL    HW3 6955   1.920   1.292   5.811  4.4215  1.4848  0.3390
 1797SOL    MW4 6956   1.875   1.365   5.796  0.3390 -0.2253 -0.1094
 1798SOL     OW 6957   1.722   5.279   0.989 -0.0289  0.0423 -0.5778
 1798SOL    HW2 6958   1.690   5.329   0.914  0.6115 -2.8303 -2.9939
 1798SOL    HW3 6959   1.645   5.268   1.045 -0.6638  1.8391 -1.0303
 1798SOL    MW4 6960   1.708   5.284   0.986 -0.4226  0.5031 -0.1973
 1799SOL     OW 6961   1.101   5.903   2.003 -0.7935  0.2297  0.7750
 1799SOL    HW2 6962   1.054   5.870   2.080 -0.3613 -3.4450 -0.3472
 1799SOL    HW3 6963   1.033   5.943   1.948 -1.6971 -0.3051  1.4778
 1799SOL    MW4 6964   1.086   5.904   2.006  0.6906 -0.0395 -0.0828
 1800SOL     OW 6965   3.138   0.143   3.198  0.7007 -0.3145  0.5333
 1800SOL    HW2 6966   3.084   0.171   3.272  2.7772  0.8981  1.7009
 1800SOL    HW3 6967   3.144   0.221   3.143  1.7218 -0.2133  0.7588
 1800SOL    MW4 6968   3.132   0.157   3.201 -0.0687  0.2843  0.1874
 1801SOL     OW 6969   4.408   0.291   0.017 -0.0256  0.2852 -0.5435
 1801SOL    HW2 6970   4.335   0.287   0.078  1.4450  1.6277  1.4357
 1801SOL    HW3 6971   4.392   0.370  -0.035  0.3616  0.9813  0.3808
 1801SOL    MW4 6972   4.397   0.301   0.018 -0.0039 -0.0937 -0.0382
 1802SOL     OW 6973   2.705   5.113   1.344 -0.3229 -0.1187 -0.4928
 1802SOL    HW2 6974   2.704   5.019   1.325 -1.8239 -0.0579 -0.8099
 1802SOL    HW3 6975   2.790   5.128   1.386 -0.2970 -1.7105  0.0895
 1802SOL    MW4 6976   2.716   5.103   1.347 -0.1432 -0.3033 -0.3571
 1803SOL     OW 6977   6.177   4.121   5.507 -0.1788  0.0264  1.0856
 1803SOL    HW2 6978   6.225   4.164   5.436 -0.6094 -0.7904  0.2711
 1803SOL    HW3 6979   6.211   4.031   5.509  0.4843  0.2817  2.5534
 1803SOL    MW4 6980   6.187   4.115   5.498 -0.3331 -0.9017  0.0795
 1804SOL     OW 6981   4.356   0.567   0.178 -0.0654  0.1235  0.5143
 1804SOL    HW2 6982   4.444   0.544   0.150 -0.6847  0.2851 -1.8426
 1804SOL    HW3 6983   4.338   0.510   0.252  1.2014 -1.5521 -0.3905
 1804SOL    MW4 6984   4.365   0.556   0.184 -0.0606 -0.0055 -0.1643
 1805SOL     OW 6985   2.046   1.181   3.057  0.3584  0.5894  0.0620
 1805SOL    HW2 6986   1.959   1.177   3.018 -0.4186  0.2073  1.7330
 1805SOL    HW3 6987   2.080   1.092   3.048 -0.2066  0.2562  1.0309
 1805SOL    MW4 6988   2.039   1.169   3.051  0.4582  0.2366  0.2400
 1806SOL     OW 6989   0.324   5.971   4.860  0.2371  0.1147  0.3318
 1806SOL    HW2 6990   0.308   6.041   4.923 -0.6529  0.7492 -0.5586
 1806SOL    HW3 6991   0.337   5.893   4.913 -0.3407  0.6619  1.3048
 1806SOL    MW4 6992   0.324   5.970   4.875  0.0275 -0.1882 -0.3551
 1807SOL     OW 6993   2.714   1.538   1.775 -0.0464  0.1932 -0.0544
 1807SOL    HW2 6994   2.685   1.626   1.749 -0.2712  0.0589 -0.2591
 1807SOL    HW3 6995   2.633   1.491   1.794  0.0789  0.0553  0.1396
 1807SOL    MW4 6996   2.699   1.543   1.774  0.2030  0.0626 -0.8435
 1808SOL     OW 6997   0.847   5.312   3.710  0.0787  0.0626  0.3145
 1808SOL    HW2 6998   0.791   5.283   3.638 -1.9447  0.5737  1.6175
 1808SOL    HW3 6999   0.841   5.407   3.709  0.7761  0.1185  0.6152
 1808SOL    MW4 7000   0.839   5.320   3.700  0.5853  0.3393 -0.0418
 1809SOL     OW 7001   3.825   2.109   5.694  0.3223  0.1263 -0.0408
 1809SOL    HW2 7002   3.786   2.165   5.761 -1.4680 -0.3921 -0.5954
 1809SOL    HW3 7003   3.762   2.109   5.623  0.7135 -1.8294 -0.4448
 1809SOL    MW4 7004   3.812   2.116   5.693 -0.1088  0.4675 -0.0173
 1810SOL     OW 7005   2.400   6.208   3.231 -0.2298 -0.2333 -0.4251
 1810SOL    HW2 7006   2.486   6.173   3.206 -0.0295 -0.7468  0.8775
 1810SOL    HW3 7007   2.354   6.133   3.269 -0.0213  0.7208  1.8563
 1810SOL    MW4 7008   2.406   6.194   3.233 -0.1927 -0.3794 -0.6688
 1811SOL     OW 7009   1.167   4.901   5.482  0.1005 -0.0855  0.0399
 1811SOL    HW2 7010   1.244   4.916   5.427 -0.3804  1.1850 -0.3048
 1811SOL    HW3 7011   1.201   4.899   5.572  0.6179 -0.2158 -0.1583
 1811SOL    MW4 7012   1.182   4.902   5.487  0.3766 -0.4116  0.4668
 1812SOL     OW 7013   0.651   5.122   2.366  0.0012 -0.5770 -0.0530
 1812SOL    HW2 7014   0.637   5.193   2.429  1.6719  0.1740 -0.4807
 1812SOL    HW3 7015   0.679   5.166   2.286 -2.1042 -1.5174 -1.3825
 1812SOL    MW4 7016   0.653   5.137   2.364  0.2090 -0.1867 -0.0432
 1813SOL     OW 7017   1.973   1.766   0.868  0.1998 -0.6377  0.1272
 1813SOL    HW2 7018   2.035   1.765   0.794  0.8244 -0.7562  0.6451
 1813SOL    HW3 7019   1.893   1.730   0.831  0.1294  0.4249 -0.8108
 1813SOL    MW4 7020   1.971   1.761   0.853  0.1819 -0.2928  0.7926
 1814SOL     OW 7021   4.831   0.244   1.972 -0.6049 -0.2795 -0.0957
 1814SOL    HW2 7022   4.828   0.214   1.881 -0.5449  3.2802 -1.4057
 1814SOL    HW3 7023   4.925   0.254   1.990 -0.6622  0.1417 -0.0417
 1814SOL    MW4 7024   4.843   0.241   1.962  0.2114 -0.0411  0.5088
 1815SOL     OW 7025   2.778   3.140   1.106 -0.2351 -0.0752  0.3818
 1815SOL    HW2 7026   2.865   3.100   1.113  0.8333  2.2940  2.3856
 1815SOL    HW3 7027   2.779   3.185   1.022  0.7977  0.5175  0.6846
 1815SOL    MW4 7028   2.790   3.141   1.096 -0.3596 -0.3792 -0.1013
 1816SOL     OW 7029   5.494   1.830   1.571 -0.5460 -0.0150 -0.3512
 1816SOL    HW2 7030   5.588   1.846   1.557 -0.9039  1.3078 -1.5068
 1816SOL    HW3 7031   5.491   1.748   1.620  1.2396  0.3038  0.3780
 1816SOL    MW4 7032   5.506   1.822   1.575  0.3435 -0.3885  0.2481
 1817SOL     OW 7033   5.531   1.889   2.031  0.8531 -0.2427  0.5566
 1817SOL    HW2 7034   5.453   1.861   2.080  1.7523  0.5421  2.5405
 1817SOL    HW3 7035   5.499   1.960   1.975  0.0101 -0.3640  0.8655
 1817SOL    MW4 7036   5.516   1.894   2.030 -0.0552 -0.0953 -0.4406
 1818SOL     OW 7037   1.712   2.999   1.380  0.3215  0.2343  0.1252
 1818SOL    HW2 7038   1.689   2.907   1.369  0.8851  0.2557 -1.3508
 1818SOL    HW3 7039   1.678   3.042   1.302  1.1360  1.0706  0.2152
 1818SOL    MW4 7040   1.704   2.993   1.368 -0.0995  0.2259  0.3498
 1819SOL     OW 7041   3.901   3.557   6.034  0.1643 -0.2125  0.0539
 1819SOL    HW2 7042   3.834   3.555   6.102 -0.1643 -2.2868 -0.2466
 1819SOL    HW3 7043   3.941   3.644   6.041 -3.0836  1.4509 -0.3380
 1819SOL    MW4 7044   3.898   3.568   6.044  0.0108  0.5238  0.6699
 1820SOL     OW 7045   5.906   0.335   4.620 -0.6367  0.2678  0.9625
 1820SOL    HW2 7046   5.873   0.332   4.710 -1.6772  2.1225  0.6863
 1820SOL    HW3 7047   5.881   0.250   4.583 -1.1706 -0.0889  2.0948
 1820SOL    MW4 7048   5.898   0.323   4.627  0.4096 -0.3703  0.0072
 1821SOL     OW 7049   3.358   2.966   1.737  0.1191 -0.3863 -0.7430
 1821SOL    HW2 7050   3.397   3.009   1.661  0.2327  1.6927  0.4083
 1821SOL    HW3 7051   3.423   2.901   1.763  1.1986  0.5473 -1.0084
 1821SOL    MW4 7052   3.372   2.963   1.730  0.8998 -0.1913 -0.8388
 1822SOL     OW 7053   2.437   1.099   2.527 -0.2853  0.1469 -0.4479
 1822SOL    HW2 7054   2.386   1.094   2.446  0.7940  0.3376 -1.1483
 1822SOL    HW3 7055   2.526   1.116   2.499 -0.0673  1.3099  0.8442
 1822SOL    MW4 7056   2.442   1.100   2.512 -0.1575 -0.2815  0.1258
 1823SOL     OW 7057   4.944   4.115   5.916  0.1912 -0.5191 -0.0839
 1823SOL    HW2 7058   4.965   4.031   5.877 -1.4653 -0.5937 -0.9095
 1823SOL    HW3 7059   4.910   4.168   5.844  0.9580  0.7785  0.4689
 1823SOL    MW4 7060   4.942   4.111   5.902  0.0126  0.0225 -0.2419
 1824SOL     OW 7061   1.745   4.822   1.976  0.0284  0.2625  0.0249
 1824SOL    HW2 7062   1.778   4.912   1.976  0.6179  0.0546 -0.5007
 1824SOL    HW3 7063   1.795   4.778   2.045 -0.8251  0.5245  0.8340
 1824SOL    MW4 7064   1.756   4.828   1.985 -0.7264  0.0457 -0.2277
 1825SOL     OW 7065   3.763   5.383   2.697  0.2465 -0.0845  0.0589
 1825SOL    HW2 7066   3.708   5.436   2.640 -0.0046 -0.4563 -0.0490
 1825SOL    HW3 7067   3.750   5.293   2.667  0.6444 -0.2152  0.2562
 1825SOL    MW4 7068   3.754   5.378   2.685 -0.4728 -0.5463  0.3647
 1826SOL     OW 7069   3.391   5.401   5.597 -0.2703 -0.3705 -0.0643
 1826SOL    HW2 7070   3.483   5.425   5.604 -0.1079 -0.9123 -0.2683
 1826SOL    HW3 7071   3.361   5.443   5.517 -0.2215 -0.1194  0.0504
 1826SOL    MW4 7072   3.399   5.409   5.588 -0.5071  0.7023  0.1661
 1827SOL     OW 7073   3.550   6.248   6.053 -0.0357 -0.2952  0.2458
 1827SOL    HW2 7074   3.492   6.292   6.114 -0.2091 -0.0411 -0.0955
 1827SOL    HW3 7075   3.494   6.228   5.978  0.8278  2.1811 -1.1858
 1827SOL    MW4 7076   3.535   6.251   6.051  0.0944 -0.8622  0.0734
 1828SOL     OW 7077   1.509   0.132   1.314 -0.1734 -0.1054  0.0805
 1828SOL    HW2 7078   1.460   0.214   1.316 -1.4442 -0.8673  1.4420
 1828SOL    HW3 7079   1.567   0.137   1.390  1.3031  0.4177 -1.0360
 1828SOL    MW4 7080   1.510   0.143   1.324 -0.0147 -0.2765  0.2160
 1829SOL     OW 7081   4.493   3.290   4.770 -0.0286  0.4200  0.2883
 1829SOL    HW2 7082   4.572   3.336   4.796 -1.5104  2.2092  1.8444
 1829SOL    HW3 7083   4.422   3.332   4.819 -2.7080  2.0893 -4.3221
 1829SOL    MW4 7084   4.494   3.301   4.780  0.0141  0.3488 -0.2871
 1830SOL     OW 7085   1.220   4.660   4.438 -0.2607  0.0002 -0.2479
 1830SOL    HW2 7086   1.231   4.571   4.471  2.7494  0.4507  0.2560
 1830SOL    HW3 7087   1.170   4.705   4.506  1.1854 -0.4716  1.1871
 1830SOL    MW4 7088   1.215   4.654   4.452 -0.1135  0.2406 -0.8523
 1831SOL     OW 7089   4.180   0.555   2.718  0.0666 -0.3025  0.1903
 1831SOL    HW2 7090   4.267   0.521   2.697  1.5689  3.5088 -0.6358
 1831SOL    HW3 7091   4.193   0.612   2.793 -1.8793 -0.1671  0.4976
 1831SOL    MW4 7092   4.193   0.558   2.725 -0.1654  0.1782 -0.0657
 1832SOL     OW 7093   3.501   6.044   0.322 -0.1889  0.5069  0.6516
 1832SOL    HW2 7094   3.427   6.072   0.269  0.2632  0.6845  0.0960
 1832SOL    HW3 7095   3.574   6.038   0.260  0.1493 -0.1327  1.0950
 1832SOL    MW4 7096   3.501   6.047   0.307  0.7444 -0.3702  0.0291
 1833SOL     OW 7097   4.686   5.059   5.536  0.2948 -0.0509  0.4786
 1833SOL    HW2 7098   4.749   4.999   5.575 -0.3843 -1.1083  0.0259
 1833SOL    HW3 7099   4.739   5.125   5.491  1.1064 -1.2098 -0.3392
 1833SOL    MW4 7100   4.701   5.059   5.535  0.3742 -0.4730  0.3705
 1834SOL     OW 7101   3.913   3.166   2.117  0.3220  0.4913  0.2253
 1834SOL    HW2 7102   3.832   3.216   2.106 -0.1607 -0.2339  0.3736
 1834SOL    HW3 7103   3.957   3.206   2.192  0.1251  0.9161  0.1176
 1834SOL    MW4 7104   3.908   3.178   2.125  0.3509  0.0293  0.0022
 1835SOL     OW 7105   4.324   3.700   4.054  0.2738 -0.2150 -1.2336
 1835SOL    HW2 7106   4.403   3.661   4.016  0.9896 -0.5374  0.4893
 1835SOL    HW3 7107   4.291   3.633   4.114  0.7678  1.2626  0.7765
 1835SOL    MW4 7108   4.330   3.686   4.057 -0.6121 -0.1441  0.1425
 1836SOL     OW 7109   6.269   2.870   2.809  0.5043  0.6932  0.3188
 1836SOL    HW2 7110   6.225   2.892   2.727 -0.2407 -0.6143  0.3462
 1836SOL    HW3 7111   6.264   2.775   2.815  1.0905  0.7139  1.5897
 1836SOL    MW4 7112   6.263   2.861   2.799  0.4748 -0.1494 -0.5367
 1837SOL     OW 7113   2.316   4.516   3.546  0.5878 -0.1340 -0.3361
 1837SOL    HW2 7114   2.342   4.504   3.454  0.5360 -0.5730 -0.2980
 1837SOL    HW3 7115   2.327   4.429   3.585 -1.1307 -0.4044 -0.3758
 1837SOL    MW4 7116   2.320   4.503   3.539  0.2472  0.5990  0.1867
 1838SOL     OW 7117   0.779   4.211   3.365 -0.0884 -0.7662  0.0543
 1838SOL    HW2 7118   0.788   4.287   3.421  0.0205 -1.1588  0.5731
 1838SOL    HW3 7119   0.803   4.243   3.278  0.2472 -0.2848  0.3197
 1838SOL    MW4 7120   0.783   4.225   3.361 -0.3143 -0.6101 -0.3479
 1839SOL     OW 7121   1.890   5.424   0.708 -0.1502 -0.2746 -0.2835
 1839SOL    HW2 7122   1.981   5.452   0.699  0.0158  0.2934  2.4226
 1839SOL    HW3 7123   1.843   5.503   0.736 -1.3701 -0.7222 -0.9686
 1839SOL    MW4 7124   1.896   5.438   0.711  0.3729  0.1320  0.0496
 1840SOL     OW 7125   1.926   2.244   0.034 -0.0441  0.6083  0.5151
 1840SOL    HW2 7126   1.957   2.254   0.124  0.4260 -0.6816  0.5093
 1840SOL    HW3 7127   1.960   2.159   0.006 -2.9431 -0.5490  0.2268
 1840SOL    MW4 7128   1.935   2.234   0.042  0.1590  0.0559 -0.0019
 1841SOL     OW 7129   1.784   0.300   6.128  0.0767 -0.3224  0.4351
 1841SOL    HW2 7130   1.786   0.393   6.106 -2.4220 -0.4403 -0.7027
 1841SOL    HW3 7131   1.722   0.294   6.200  0.6196 -1.0575  0.8508
 1841SOL    MW4 7132   1.776   0.312   6.134  0.3562  0.3705  0.2647
 1842SOL     OW 7133   2.717   2.785   5.270  0.0117 -0.3223  0.3932
 1842SOL    HW2 7134   2.718   2.880   5.256  0.8876 -0.0661  1.9203
 1842SOL    HW3 7135   2.690   2.775   5.362 -0.8187 -1.6014  0.0332
 1842SOL    MW4 7136   2.714   2.796   5.281  0.0828 -0.8940  0.3993
 1843SOL     OW 7137   0.107   1.500   0.816  0.1909  0.2341 -0.1104
 1843SOL    HW2 7138   0.053   1.427   0.785 -0.3174 -0.5291  2.3720
 1843SOL    HW3 7139   0.052   1.577   0.802 -1.2197 -0.4278  1.4919
 1843SOL    MW4 7140   0.092   1.501   0.810 -0.2818 -0.0580  0.0144
 1844SOL     OW 7141   0.713   0.356   5.242 -0.3862 -0.6150  0.0585
 1844SOL    HW2 7142   0.686   0.304   5.317 -0.2109 -1.3103 -0.3499
 1844SOL    HW3 7143   0.719   0.445   5.275  0.8112 -1.0836  1.1614
 1844SOL    MW4 7144   0.710   0.361   5.256  0.0883 -0.8649  0.2288
 1845SOL     OW 7145   6.051   1.563   5.701  0.3638 -0.1312  0.0968
 1845SOL    HW2 7146   6.039   1.519   5.785  1.5333 -0.0178  0.3321
 1845SOL    HW3 7147   6.094   1.646   5.722  1.5828 -0.5361 -0.6872
 1845SOL    MW4 7148   6.055   1.568   5.715  0.3595  0.5576 -0.1945
 1846SOL     OW 7149   5.854   3.000   3.581 -0.7013 -0.3708  0.4294
 1846SOL    HW2 7150   5.823   3.085   3.614 -1.5795 -0.2638 -0.5994
 1846SOL    HW3 7151   5.776   2.959   3.544 -0.1875 -1.4277  0.4881
 1846SOL    MW4 7152   5.840   3.006   3.580  0.2254 -0.0572  0.0365
 1847SOL     OW 7153   3.169   4.358   1.057 -0.4450 -0.2426  0.3267
 1847SOL    HW2 7154   3.091   4.303   1.052  0.4834 -1.6354  0.5638
 1847SOL    HW3 7155   3.210   4.336   1.140  1.0847 -0.8149 -0.5252
 1847SOL    MW4 7156   3.164   4.348   1.067 -0.1267  0.8134  0.2013
 1848SOL     OW 7157   3.706   0.654   4.077 -0.2479 -0.3444  0.7847
 1848SOL    HW2 7158   3.678   0.694   3.994  0.3948 -1.1406  0.1729
 1848SOL    HW3 7159   3.793   0.690   4.092 -0.0376 -0.8113  0.6980
 1848SOL    MW4 7160   3.714   0.664   4.068 -0.1647  0.0320 -0.0921
 1849SOL     OW 7161   5.701   3.379   5.503  1.0140 -0.7570  0.0305
 1849SOL    HW2 7162   5.684   3.289   5.533 -0.7964 -0.4277  0.1217
 1849SOL    HW3 7163   5.676   3.378   5.411 -0.4159 -0.0314  0.3806
 1849SOL    MW4 7164   5.695   3.367   5.495 -0.8776 -0.6613 -0.7790
 1850SOL     OW 7165   4.395   5.632   2.302  0.1933  0.4605  0.2347
 1850SOL    HW2 7166   4.310   5.646   2.260  0.0234 -1.1793 -0.0281
 1850SOL    HW3 7167   4.458   5.671   2.241 -0.3292  1.4031  0.2771
 1850SOL    MW4 7168   4.392   5.639   2.289 -0.1784 -0.4378  0.5840
 1851SOL     OW 7169   2.702   2.547   3.369  0.1881 -0.2663 -0.4167
 1851SOL    HW2 7170   2.638   2.481   3.344 -0.1006 -0.2013  0.1284
 1851SOL    HW3 7171   2.784   2.499   3.376  0.1178 -0.4313 -0.7210
 1851SOL    MW4 7172   2.704   2.532   3.367  0.0084 -0.6098  0.0852
 1852SOL     OW 7173   5.632   6.304   1.668 -0.0191  0.1918  0.1393
 1852SOL    HW2 7174   5.698   6.374   1.667  1.6609 -1.3212 -0.3249
 1852SOL    HW3 7175   5.600   6.303   1.758  0.9059  0.6959  0.4872
 1852SOL    MW4 7176   5.637   6.313   1.680  0.6664 -0.3436 -0.0414
 1853SOL     OW 7177   0.725   0.108   5.769  0.1597  0.3399 -0.2415
 1853SOL    HW2 7178   0.776   0.184   5.742  1.3755 -0.5107 -0.4492
 1853SOL    HW3 7179   0.790   0.037   5.777 -0.6624 -0.2507  1.7042
 1853SOL    MW4 7180   0.740   0.108   5.766  0.1846  0.3196 -0.6117
 1854SOL     OW 7181   6.200   1.916   3.968  0.5127 -0.5606 -0.0049
 1854SOL    HW2 7182   6.142   1.975   4.017  2.5208  0.4993  1.2142
 1854SOL    HW3 7183   6.187   1.830   4.008  0.5101 -0.1342  0.9364
 1854SOL    MW4 7184   6.191   1.913   3.980  0.4513  0.5413 -0.2338
 1855SOL     OW 7185   3.504   0.701   6.202 -0.2605 -0.2459 -0.3720
 1855SOL    HW2 7186   3.505   0.787   6.162  0.0597 -0.0304  0.0775
 1855SOL    HW3 7187   3.422   0.698   6.252 -0.5640 -0.4393 -0.8799
 1855SOL    MW4 7188   3.494   0.712   6.204  0.1469 -0.0054  0.3137
 1856SOL     OW 7189   4.630   0.069   2.900 -0.1465  0.2427  0.1525
 1856SOL    HW2 7190   4.605   0.008   2.969  0.9881  1.3331  1.6059
 1856SOL    HW3 7191   4.683   0.017   2.840  0.5065 -0.3085  1.1712
 1856SOL    MW4 7192   4.634   0.054   2.901  0.2976  0.3131 -0.4055
 1857SOL     OW 7193   3.042   1.261   3.111 -0.0149 -0.3298 -0.5147
 1857SOL    HW2 7194   3.008   1.222   3.192 -1.7263  0.6995 -0.6756
 1857SOL    HW3 7195   3.119   1.310   3.138  0.0112 -0.8164  0.3136
 1857SOL    MW4 7196   3.048   1.262   3.125  0.2893 -0.1961  0.1305
 1858SOL     OW 7197   6.127   1.678   0.162 -1.1044  0.2793 -0.4594
 1858SOL    HW2 7198   6.124   1.733   0.083  0.7531 -0.9127 -1.4161
 1858SOL    HW3 7199   6.119   1.589   0.130  0.1798 -0.2581  0.6467
 1858SOL    MW4 7200   6.125   1.674   0.147  0.0391  0.0556 -0.1597
 1859SOL     OW 7201   1.486   4.390   1.858  0.2189 -0.0504 -0.2244
 1859SOL    HW2 7202   1.537   4.313   1.881  1.8376  0.8087 -0.7805
 1859SOL    HW3 7203   1.528   4.425   1.779 -1.1109  0.8218 -0.5908
 1859SOL    MW4 7204   1.498   4.385   1.851 -0.0284  0.6887 -0.1912
 1860SOL     OW 7205   6.347   4.262   6.175 -0.3498  0.2299  0.2090
 1860SOL    HW2 7206   6.294   4.295   6.103  0.6544  1.2045 -0.1237
 1860SOL    HW3 7207   6.287   4.257   6.249 -1.9587 -2.9501 -1.1465
 1860SOL    MW4 7208   6.332   4.266   6.175 -0.1907  0.4315  0.1848
 1861SOL     OW 7209   0.472   3.909   3.513 -0.1902  0.0010  0.0820
 1861SOL    HW2 7210   0.566   3.906   3.531 -0.3911 -0.4741  1.1370
 1861SOL    HW3 7211   0.463   3.971   3.441  0.9640 -0.1983 -0.2512
 1861SOL    MW4 7212   0.483   3.917   3.506  0.5033  0.0736  0.2851
 1862SOL     OW 7213   6.288   4.662   1.208 -0.2450 -0.0040 -0.5941
 1862SOL    HW2 7214   6.254   4.751   1.224  0.3024 -0.1243  1.5740
 1862SOL    HW3 7215   6.210   4.610   1.188 -0.8549  0.5359  0.3132
 1862SOL    MW4 7216   6.273   4.667   1.207  0.3682  0.3594 -0.2529
 1863SOL     OW 7217   0.690   1.538   5.576 -0.6978 -0.1681  0.2792
 1863SOL    HW2 7218   0.636   1.577   5.645 -0.8840  0.9434 -0.4761
 1863SOL    HW3 7219   0.719   1.455   5.613 -1.0889  0.2413  1.5589
 1863SOL    MW4 7220   0.687   1.532   5.590  0.3567  0.1870 -0.2868
 1864SOL     OW 7221   5.786   1.445   5.267 -0.0473  0.3675  0.5048
 1864SOL    HW2 7222   5.817   1.493   5.344 -0.2845 -0.7368  1.3176
 1864SOL    HW3 7223   5.848   1.372   5.257  0.0405  0.5533 -0.4202
 1864SOL    MW4 7224   5.798   1.441   5.276  0.0532  0.1114  0.1053
 1865SOL     OW 7225   5.868   2.555   3.715 -0.5439 -0.1357 -0.0813
 1865SOL    HW2 7226   5.898   2.609   3.789  0.9765 -0.5984 -0.3229
 1865SOL    HW3 7227   5.879   2.465   3.746  1.5631 -0.3722 -1.3637
 1865SOL    MW4 7228   5.873   2.550   3.729 -0.1587 -0.0178  0.3128
 1866SOL     OW 7229   0.417   1.277   3.542  0.5476 -0.4604 -0.1509
 1866SOL    HW2 7230   0.485   1.333   3.503 -0.5294  1.6061  0.7641
 1866SOL    HW3 7231   0.459   1.237   3.618  1.3636 -0.9897 -0.8617
 1866SOL    MW4 7232   0.432   1.279   3.547  0.3466 -0.5197 -0.0162
 1867SOL     OW 7233   4.986   0.874   3.671  0.1659  0.0233  0.3070
 1867SOL    HW2 7234   5.020   0.963   3.665  0.6477 -0.2076 -0.8314
 1867SOL    HW3 7235   5.029   0.827   3.599  0.3125 -1.2617  1.1927
 1867SOL    MW4 7236   4.996   0.879   3.660 -0.2460 -0.3809  0.6369
 1868SOL     OW 7237   0.202   4.302   5.399 -0.3824  0.0008  0.4875
 1868SOL    HW2 7238   0.182   4.341   5.314  1.0336  0.3599  0.3023
 1868SOL    HW3 7239   0.140   4.344   5.459 -1.8855 -0.7687 -0.4465
 1868SOL    MW4 7240   0.191   4.313   5.396  0.3274  0.1317 -0.3407
 1869SOL     OW 7241   2.717   0.195   0.279  0.3127  0.7354 -0.1171
 1869SOL    HW2 7242   2.679   0.184   0.367  1.1543 -0.4697  0.1278
 1869SOL    HW3 7243   2.658   0.147   0.222  0.5245  0.3219  0.0074
 1869SOL    MW4 7244   2.704   0.187   0.283 -0.0785  0.2521 -0.0472
 1870SOL     OW 7245   5.934   5.347   5.235 -0.3226 -0.1371 -0.1371
 1870SOL    HW2 7246   5.912   5.297   5.314 -0.6744  2.3520  1.4209
 1870SOL    HW3 7247   6.027   5.328   5.220 -0.5053 -1.4384  0.2082
 1870SOL    MW4 7248   5.944   5.338   5.243  0.9636  0.7164  0.1786
 1871SOL     OW 7249   4.141   4.847   0.754  0.0199 -0.1768 -0.0403
 1871SOL    HW2 7250   4.128   4.891   0.838 -0.9017  1.6838 -1.0845
 1871SOL    HW3 7251   4.103   4.760   0.766 -0.5849  0.2467  1.2991
 1871SOL    MW4 7252   4.134   4.841   0.766  0.4823  0.0656  0.4069
 1872SOL     OW 7253   1.063   4.591   5.519  0.3169  0.2790  0.1642
 1872SOL    HW2 7254   1.068   4.497   5.504  1.5197 -0.0567  2.2355
 1872SOL    HW3 7255   1.046   4.629   5.433 -0.4091 -1.8267 -0.6721
 1872SOL    MW4 7256   1.061   4.584   5.506 -0.3397  0.1222 -0.4354
 1873SOL     OW 7257   3.360   0.031   2.074  0.0273  0.1142  0.1472
 1873SOL    HW2 7258   3.277  -0.016   2.086  0.5359 -0.4249  1.7808
 1873SOL    HW3 7259   3.427  -0.037   2.077  0.6804  0.7747  1.1315
 1873SOL    MW4 7260   3.358   0.016   2.076  0.7179  0.1037  0.1170
 1874SOL     OW 7261   3.318   2.160   0.222  0.1816  0.0831  0.2962
 1874SOL    HW2 7262   3.404   2.165   0.264  0.0834  0.5319  0.4433
 1874SOL    HW3 7263   3.259   2.129   0.291 -0.0140  0.9947  0.5431
 1874SOL    MW4 7264   3.322   2.157   0.237 -0.1070  0.2746  0.2862
 1875SOL     OW 7265   0.226   2.938   3.563  0.0512 -0.2564 -0.0396
 1875SOL    HW2 7266   0.158   2.935   3.497  0.5187 -2.7770 -0.5135
 1875SOL    HW3 7267   0.231   3.030   3.589 -2.4060  0.2528 -1.1072
 1875SOL    MW4 7268   0.218   2.950   3.558  1.2091 -0.1024 -0.0393
 1876SOL     OW 7269   2.735   0.069   1.304 -0.0924  0.4818  0.3232
 1876SOL    HW2 7270   2.805   0.100   1.246  1.6083 -0.5675  1.7337
 1876SOL    HW3 7271   2.736   0.131   1.377  1.6370 -1.3433  1.9363
 1876SOL    MW4 7272   2.745   0.082   1.306  0.2946  0.3159 -0.6565
 1877SOL     OW 7273   2.724   4.878   0.900 -0.1366 -0.1640  0.3242
 1877SOL    HW2 7274   2.668   4.821   0.952 -0.0238 -0.6683 -0.0964
 1877SOL    HW3 7275   2.687   4.966   0.911 -1.6709 -0.6385 -0.8287
 1877SOL    MW4 7276   2.712   4.882   0.908  0.0907  0.6192 -0.0822
 1878SOL     OW 7277   3.481   5.490   4.251  0.0344 -0.9611  0.4671
 1878SOL    HW2 7278   3.512   5.542   4.177 -0.0659 -0.5856  0.6868
 1878SOL    HW3 7279   3.498   5.400   4.225 -2.0533 -0.9975 -0.9753
 1878SOL    MW4 7280   3.487   5.485   4.238  0.2291  0.1465 -0.3689
 1879SOL     OW 7281   4.302   2.492   5.461 -0.2375  0.0703 -0.4047
 1879SOL    HW2 7282   4.377   2.502   5.402 -0.3812 -0.0968 -0.6149
 1879SOL    HW3 7283   4.227   2.525   5.411 -0.0043  2.1875  0.5200
 1879SOL    MW4 7284   4.302   2.498   5.447 -0.4295  0.7078  0.5826
 1880SOL     OW 7285   5.368   0.680   4.672 -0.7883  0.0805  0.4605
 1880SOL    HW2 7286   5.453   0.638   4.683 -0.5352  0.1763 -0.9654
 1880SOL    HW3 7287   5.322   0.626   4.607 -1.8192  0.0265  1.2095
 1880SOL    MW4 7288   5.373   0.667   4.665 -0.1934 -0.6440 -0.7472
 1881SOL     OW 7289   2.252   2.379   1.799  0.2364  0.2175  0.4871
 1881SOL    HW2 7290   2.234   2.444   1.731  1.1996  0.7001  0.6777
 1881SOL    HW3 7291   2.181   2.389   1.861 -0.0162  0.5918  0.1447
 1881SOL    MW4 7292   2.241   2.389   1.798  0.4043  0.1301  0.6157
 1882SOL     OW 7293   5.141   3.697   5.033 -0.2672 -0.1214  0.1684
 1882SOL    HW2 7294   5.168   3.645   5.109 -0.8799 -1.0743 -0.2371
 1882SOL    HW3 7295   5.047   3.707   5.043 -0.1997  0.6532  0.0672
 1882SOL    MW4 7296   5.132   3.691   5.044  0.3434  0.7037 -0.1110
 1883SOL     OW 7297   5.775   4.232   1.473 -1.2300  0.5853  0.3786
 1883SOL    HW2 7298   5.839   4.173   1.513  1.7057  1.6119 -2.3706
 1883SOL    HW3 7299   5.724   4.175   1.415  0.5743  0.4078 -1.1164
 1883SOL    MW4 7300   5.777   4.216   1.471 -0.2825  0.1216 -0.2482
 1884SOL     OW 7301   2.765   3.137   5.422  0.1855  0.1431  0.4432
 1884SOL    HW2 7302   2.831   3.160   5.488  1.3387 -1.0826 -0.2091
 1884SOL    HW3 7303   2.692   3.101   5.473  0.1325  1.2420  1.1689
 1884SOL    MW4 7304   2.764   3.135   5.437  0.0399  0.3033 -0.0098
 1885SOL     OW 7305   5.836   2.428   0.690  0.2452 -0.1520  0.0258
 1885SOL    HW2 7306   5.860   2.429   0.598 -1.6852 -1.1795 -0.5545
 1885SOL    HW3 7307   5.782   2.506   0.702  1.7442  0.8147  0.6980
 1885SOL    MW4 7308   5.832   2.438   0.680 -0.2187 -0.2435  0.3060
 1886SOL     OW 7309   4.337   1.311   2.133 -0.3693 -0.1925  0.2069
 1886SOL    HW2 7310   4.258   1.267   2.164 -0.6197 -0.3227 -0.5862
 1886SOL    HW3 7311   4.406   1.283   2.194 -0.8738 -0.3042  0.7328
 1886SOL    MW4 7312   4.336   1.301   2.145 -0.8333 -0.5309  0.2795
 1887SOL     OW 7313   1.178   5.970   0.758 -0.1264 -0.2771 -0.0692
 1887SOL    HW2 7314   1.256   5.933   0.798  0.5330  1.1766  0.0613
 1887SOL    HW3 7315   1.210   6.019   0.683 -0.8735  0.5536  0.1311
 1887SOL    MW4 7316   1.192   5.972   0.753 -0.7225  0.0086  0.3176
 1888SOL     OW 7317   3.862   0.537   4.632 -0.1393 -0.0027 -0.4227
 1888SOL    HW2 7318   3.861   0.602   4.702 -0.3914  0.0081 -0.4343
 1888SOL    HW3 7319   3.942   0.556   4.583 -0.5155  0.6981 -0.7902
 1888SOL    MW4 7320   3.872   0.548   4.635  0.2547 -0.1734  0.5324
 1889SOL     OW 7321   2.934   2.958   4.309 -0.3909 -0.5170  0.4172
 1889SOL    HW2 7322   2.895   3.039   4.342 -1.2578  0.9001 -3.5243
 1889SOL    HW3 7323   3.028   2.973   4.315 -0.5163 -0.0355  1.4309
 1889SOL    MW4 7324   2.941   2.971   4.314 -0.3500 -0.0163  0.7480
 1890SOL     OW 7325   5.711   5.078   2.936  0.0010 -0.1202 -0.2476
 1890SOL    HW2 7326   5.628   5.038   2.910 -0.3789  0.8568 -0.6101
 1890SOL    HW3 7327   5.693   5.117   3.022  0.3167 -0.5838  0.0308
 1890SOL    MW4 7328   5.698   5.078   2.944 -0.1314  0.3892 -0.5260
 1891SOL     OW 7329   2.392   2.745   6.287 -0.4532 -0.1672  0.0556
 1891SOL    HW2 7330   2.386   2.742   6.382 -1.5639 -1.2958 -0.0224
 1891SOL    HW3 7331   2.323   2.806   6.261  1.2815  1.8809  0.0477
 1891SOL    MW4 7332   2.382   2.753   6.296  0.7434 -0.2880 -0.4228
 1892SOL     OW 7333   4.308   4.458   2.567 -0.3103  0.2277  0.5118
 1892SOL    HW2 7334   4.243   4.442   2.499 -0.7059 -0.6683  1.0819
 1892SOL    HW3 7335   4.324   4.553   2.564 -2.8569  0.7561  1.4441
 1892SOL    MW4 7336   4.302   4.469   2.558  0.2587  0.2248 -0.4436
 1893SOL     OW 7337   2.954   0.022   0.274  0.3944 -0.2678  0.0547
 1893SOL    HW2 7338   2.892   0.095   0.280  0.3707 -0.3550  1.0539
 1893SOL    HW3 7339   2.981   0.021   0.182  0.2057  0.8496 -0.0322
 1893SOL    MW4 7340   2.950   0.032   0.262  0.0152  0.5039 -0.5259
 1894SOL     OW 7341   2.617   2.182   0.969 -0.0832 -0.5200  0.7181
 1894SOL    HW2 7342   2.645   2.270   0.947 -1.9622 -0.2130 -0.7450
 1894SOL    HW3 7343   2.637   2.130   0.891  0.6910 -1.3446  1.4340
 1894SOL    MW4 7344   2.623   2.186   0.956  0.4487  0.0661  0.2856
 1895SOL     OW 7345   1.508   1.271   6.424 -0.3299 -0.1318 -0.2421
 1895SOL    HW2 7346   1.513   1.299   6.515 -0.3265 -0.0555 -0.2655
 1895SOL    HW3 7347   1.443   1.201   6.423 -0.1905 -0.2633 -0.1488
 1895SOL    MW4 7348   1.500   1.265   6.436  0.0327 -0.2537 -0.6531
 1896SOL     OW 7349   1.277   4.312   1.408 -0.5512 -0.5893  0.1147
 1896SOL    HW2 7350   1.223   4.331   1.485  0.9747  1.6679  0.7398
 1896SOL    HW3 7351   1.217   4.317   1.334 -1.0807  3.6340  0.5862
 1896SOL    MW4 7352   1.262   4.315   1.409  0.2189  0.4028  0.0246
 1897SOL     OW 7353   5.910   4.619   0.214 -0.2079  0.1020  0.1317
 1897SOL    HW2 7354   5.912   4.656   0.125  2.1348 -1.5378 -0.5739
 1897SOL    HW3 7355   5.850   4.545   0.207 -0.0225 -0.0293 -0.0779
 1897SOL    MW4 7356   5.902   4.614   0.201  0.3509 -0.3692  0.0852
 1898SOL     OW 7357   0.815   1.436   0.832  0.3606  0.0350 -0.1616
 1898SOL    HW2 7358   0.840   1.365   0.891  1.2795  1.0676  0.7165
 1898SOL    HW3 7359   0.719   1.440   0.840  0.4331 -0.0964  0.9678
 1898SOL    MW4 7360   0.805   1.427   0.841 -0.2797  0.5399 -0.1031
 1899SOL     OW 7361   0.738   3.301   0.607 -0.2667  0.8467 -0.0320
 1899SOL    HW2 7362   0.727   3.353   0.687  0.8268  0.0048  0.6994
 1899SOL    HW3 7363   0.649   3.290   0.573 -0.7357  1.3599  0.9898
 1899SOL    MW4 7364   0.725   3.306   0.613  0.1368  0.2678 -0.3142
 1900SOL     OW 7365   1.493   1.598   1.107 -0.3519  0.7700  0.2917
 1900SOL    HW2 7366   1.575   1.565   1.071 -0.2001  1.0421  0.3882
 1900SOL    HW3 7367   1.518   1.641   1.188 -0.8007 -0.6823  1.2522
 1900SOL    MW4 7368   1.507   1.599   1.113  1.2792  0.4035 -0.2497
 1901SOL     OW 7369   2.848   1.429   0.539  0.0282  0.2665  0.3327
 1901SOL    HW2 7370   2.886   1.357   0.589  0.9557  0.6698  0.2281
 1901SOL    HW3 7371   2.768   1.451   0.586 -2.1834 -3.0197 -1.4657
 1901SOL    MW4 7372   2.842   1.422   0.552  0.6821 -0.4787  0.5519
 1902SOL     OW 7373   2.323   0.844   2.310 -0.6429 -0.4975 -0.5720
 1902SOL    HW2 7374   2.355   0.772   2.257  0.1666  0.0258 -0.8029
 1902SOL    HW3 7375   2.239   0.812   2.345 -0.4553 -1.4151 -0.9295
 1902SOL    MW4 7376   2.316   0.830   2.308  0.0156 -0.2256 -0.2068
 1903SOL     OW 7377   1.016   6.003   1.403 -0.1826 -0.1756 -0.0358
 1903SOL    HW2 7378   0.927   5.990   1.436 -0.0959  0.8911  0.6602
 1903SOL    HW3 7379   1.010   6.082   1.350  0.0741 -0.8783 -1.1582
 1903SOL    MW4 7380   1.003   6.012   1.400  0.1329  1.0132 -0.1380
 1904SOL     OW 7381   5.422   1.601   3.174 -0.4966  0.0208  0.1776
 1904SOL    HW2 7382   5.453   1.517   3.207  0.3301  0.8844  1.7670
 1904SOL    HW3 7383   5.502   1.651   3.158 -0.8779 -0.0832 -2.6231
 1904SOL    MW4 7384   5.437   1.597   3.176  0.4851  0.3880 -0.0444
 1905SOL     OW 7385   6.089   1.276   0.849 -0.2986 -0.0630 -0.2089
 1905SOL    HW2 7386   6.048   1.316   0.773 -0.1150 -0.4430 -0.5106
 1905SOL    HW3 7387   6.037   1.198   0.867  0.4062 -0.6775 -0.7397
 1905SOL    MW4 7388   6.077   1.271   0.841  0.1568 -0.1817 -0.5101
 1906SOL     OW 7389   0.086   4.635   4.720  0.1682  0.1797  0.2093
 1906SOL    HW2 7390   0.139   4.635   4.640  1.2631  1.6189  0.8908
 1906SOL    HW3 7391   0.028   4.710   4.711 -0.6868 -0.4715  0.1684
 1906SOL    MW4 7392   0.085   4.645   4.709  0.1881 -0.0670 -0.3021
 1907SOL     OW 7393   1.338   1.026   2.856  0.1180  0.1352  0.3010
 1907SOL    HW2 7394   1.298   1.003   2.772  1.1561 -1.3057  0.1669
 1907SOL    HW3 7395   1.305   0.961   2.917  1.7139 -0.6903  0.3223
 1907SOL    MW4 7396   1.328   1.014   2.853 -0.6651  0.0194 -0.3629
 1908SOL     OW 7397   5.636   4.228   4.083 -0.6473  0.2949  0.2498
 1908SOL    HW2 7398   5.628   4.159   4.017 -3.4369  0.4211  0.3698
 1908SOL    HW3 7399   5.694   4.293   4.042 -1.4393 -0.1335 -1.6446
 1908SOL    MW4 7400   5.643   4.228   4.069 -0.2552 -0.4969 -0.0739
 1909SOL     OW 7401   2.756   2.482   0.986 -0.2051 -0.2492 -0.8405
 1909SOL    HW2 7402   2.713   2.539   0.921 -0.8377  0.5963  0.2840
 1909SOL    HW3 7403   2.748   2.529   1.069  0.3405 -1.4341 -0.0807
 1909SOL    MW4 7404   2.749   2.496   0.988 -0.5971  0.3575 -0.2756
 1910SOL     OW 7405   6.272   0.350   4.858  0.3030 -0.8347  0.2022
 1910SOL    HW2 7406   6.212   0.284   4.825 -1.1905  0.0560  0.9979
 1910SOL    HW3 7407   6.304   0.314   4.941  1.1361 -1.4472 -0.3739
 1910SOL    MW4 7408   6.269   0.337   4.865  0.3236  0.1170 -0.2442
 1911SOL     OW 7409   4.970   5.146   5.449  0.4305  0.5906 -0.2840
 1911SOL    HW2 7410   5.035   5.183   5.390  1.0930 -0.8719 -0.5111
 1911SOL    HW3 7411   4.957   5.057   5.418  0.0061  0.1282  1.1411
 1911SOL    MW4 7412   4.976   5.139   5.437 -0.1136  0.1866  0.1807
 1912SOL     OW 7413   4.492   1.146   2.284 -0.1072 -0.2419  0.5493
 1912SOL    HW2 7414   4.542   1.201   2.345 -1.2694  0.4814  0.8672
 1912SOL    HW3 7415   4.463   1.072   2.338 -0.1318 -0.2068  0.5844
 1912SOL    MW4 7416   4.495   1.143   2.300 -0.3402  0.0850  0.0943
 1913SOL     OW 7417   0.415   0.977   0.029  0.3421  0.1359  0.7211
 1913SOL    HW2 7418   0.462   1.010  -0.048  0.5771  0.7307  1.1056
 1913SOL    HW3 7419   0.333   1.026   0.030  0.3223  0.1018  0.8185
 1913SOL    MW4 7420   0.411   0.988   0.019  0.2043  0.8650 -0.0584
 1914SOL     OW 7421   3.910   3.022   0.969 -0.0515 -0.0987  0.0601
 1914SOL    HW2 7422   3.828   3.046   0.924  0.3053 -0.9193 -1.0831
 1914SOL    HW3 7423   3.978   3.070   0.921  0.5938 -2.6429 -1.8090
 1914SOL    MW4 7424   3.908   3.032   0.956 -0.4778  0.4813 -0.7507
 1915SOL     OW 7425   2.371   5.245   3.026  0.4791 -0.4061  0.1029
 1915SOL    HW2 7426   2.381   5.320   2.968 -0.5442 -0.1500  0.2388
 1915SOL    HW3 7427   2.425   5.176   2.986  1.1819  0.2983 -0.1850
 1915SOL    MW4 7428   2.380   5.246   3.013  0.4217  0.1007  0.0580
 1916SOL     OW 7429   0.197   1.969   3.781 -0.2229 -0.1304  0.3233
 1916SOL    HW2 7430   0.245   2.031   3.726  1.6710 -1.4816  0.3592
 1916SOL    HW3 7431   0.105   1.990   3.767  0.2579  0.5901 -2.1089
 1916SOL    MW4 7432   0.191   1.980   3.772 -0.4872  0.2119 -0.1313
 1917SOL     OW 7433   3.806   1.848   5.100  0.2987 -0.2892  0.2548
 1917SOL    HW2 7434   3.715   1.826   5.081  0.0970  0.8563 -0.2086
 1917SOL    HW3 7435   3.813   1.842   5.195 -1.2941  3.0711  0.7492
 1917SOL    MW4 7436   3.795   1.844   5.110  0.0709  0.4550 -0.2402
 1918SOL     OW 7437   3.049   0.251   2.162 -0.6397 -0.3563  0.7444
 1918SOL    HW2 7438   2.999   0.199   2.224 -0.7937  0.7837  1.6013
 1918SOL    HW3 7439   3.027   0.213   2.076 -0.1437 -2.1742  1.3689
 1918SOL    MW4 7440   3.039   0.239   2.159 -0.0503  0.4099  0.0892
 1919SOL     OW 7441   0.214   3.975   3.878  0.6350 -0.4678 -0.1977
 1919SOL    HW2 7442   0.182   3.890   3.905 -1.3595  0.3231  0.0880
 1919SOL    HW3 7443   0.202   4.031   3.955  0.8092  0.3434 -0.7449
 1919SOL    MW4 7444   0.208   3.971   3.891  0.2242  0.5648 -0.2706
 1920SOL     OW 7445   5.935   0.124   6.183 -0.0063  0.0854 -0.2011
 1920SOL    HW2 7446   5.993   0.116   6.259 -0.7204  0.4929  0.3969
 1920SOL    HW3 7447   5.898   0.037   6.171 -0.7875  0.2878  0.6534
 1920SOL    MW4 7448   5.938   0.111   6.191  0.1575  0.0998  0.0854
 1921SOL     OW 7449   0.517   5.752   4.398 -0.2416 -0.0041  0.1256
 1921SOL    HW2 7450   0.518   5.782   4.489 -0.1552 -0.5584  0.3135
 1921SOL    HW3 7451   0.592   5.795   4.358 -2.5791  3.6031 -0.8342
 1921SOL    MW4 7452   0.527   5.761   4.405  0.1734 -0.5217 -0.3795
 1922SOL     OW 7453   4.010   6.248   3.180  0.2972  0.0712 -0.1867
 1922SOL    HW2 7454   3.955   6.315   3.140 -0.1901 -0.1862  0.0428
 1922SOL    HW3 7455   4.013   6.272   3.273 -0.3903 -0.5645  0.0093
 1922SOL    MW4 7456   4.003   6.260   3.187 -0.0662 -0.3842 -0.4190
 1923SOL     OW 7457   4.159   5.093   4.962  0.1590 -0.2809  0.3086
 1923SOL    HW2 7458   4.111   5.135   4.891 -1.6184  0.2301  1.7155
 1923SOL    HW3 7459   4.162   5.000   4.938  1.8149  0.1958 -1.5804
 1923SOL    MW4 7460   4.153   5.086   4.950  0.0960 -0.1289 -0.2855
 1924SOL     OW 7461   1.387   5.318   3.260  0.6254  0.0286 -0.2992
 1924SOL    HW2 7462   1.464   5.289   3.310  0.2489 -1.4756 -0.5592
 1924SOL    HW3 7463   1.315   5.267   3.295 -0.2375  1.2544 -0.2271
 1924SOL    MW4 7464   1.388   5.308   3.271  0.0994  0.3921 -0.3228
 1925SOL     OW 7465   5.152   2.267   6.283 -0.3417 -0.1036  0.1414
 1925SOL    HW2 7466   5.197   2.352   6.276  1.7580 -1.2115 -0.7035
 1925SOL    HW3 7467   5.155   2.232   6.194 -1.1375 -1.0893  0.4927
 1925SOL    MW4 7468   5.159   2.274   6.270 -0.5063 -0.2567  0.5823
 1926SOL     OW 7469   2.899   5.288   4.284 -0.0864  0.5652  0.3281
 1926SOL    HW2 7470   2.880   5.300   4.191  1.8009  0.3784 -0.1156
 1926SOL    HW3 7471   2.849   5.358   4.327 -0.1462  1.3239 -0.9176
 1926SOL    MW4 7472   2.890   5.299   4.277  0.6482  0.7580  0.2461
 1927SOL     OW 7473   3.746   0.594   5.185  0.7264  0.2202  0.8082
 1927SOL    HW2 7474   3.741   0.542   5.266 -0.2117  1.1890  1.3975
 1927SOL    HW3 7475   3.817   0.656   5.200 -0.3565  1.3466  1.5007
 1927SOL    MW4 7476   3.754   0.595   5.198  0.3924 -0.2080 -0.6097
 1928SOL     OW 7477   3.376   2.046   3.445 -0.4836  0.2014  0.0693
 1928SOL    HW2 7478   3.360   2.141   3.453  1.9635  0.7301 -0.6086
 1928SOL    HW3 7479   3.391   2.018   3.535 -2.3934  0.1714  0.4217
 1928SOL    MW4 7480   3.376   2.055   3.458 -0.6613  0.1129 -0.2774
 1929SOL     OW 7481   5.835   2.599   1.567 -0.8560  0.2768  0.1580
 1929SOL    HW2 7482   5.834   2.558   1.481 -1.5336 -1.7703  1.0746
 1929SOL    HW3 7483   5.845   2.526   1.628  0.7899  1.7604  1.7915
 1929SOL    MW4 7484   5.837   2.584   1.564 -0.6328  0.4358  0.1504
 1930SOL     OW 7485   1.049   3.870   0.273  0.5700  0.4113 -0.2009
 1930SOL    HW2 7486   0.968   3.825   0.248  0.3160 -0.1406  1.5117
 1930SOL    HW3 7487   1.020   3.946   0.322  1.0915  0.1248  0.5586
 1930SOL    MW4 7488   1.034   3.874   0.276  0.4185  0.9611 -0.3816
 1931SOL     OW 7489   0.756   5.753   6.110  0.1806 -0.2417  0.1654
 1931SOL    HW2 7490   0.700   5.678   6.087 -0.7861  0.4332  0.2535
 1931SOL    HW3 7491   0.766   5.746   6.205 -0.4666  0.0918  0.2704
 1931SOL    MW4 7492   0.750   5.742   6.120 -0.0646  0.0552 -0.2248
 1932SOL     OW 7493   5.787   3.872   3.418 -0.0544  0.7971  1.2195
 1932SOL    HW2 7494   5.827   3.786   3.409 -0.4464  0.5673  1.6121
 1932SOL    HW3 7495   5.858   3.929   3.447  0.5768  0.9513 -0.4986
 1932SOL    MW4 7496   5.801   3.868   3.421  0.3309  0.9311 -0.2497
 1933SOL     OW 7497   1.570   3.486   3.011  0.7061  0.3550  0.1788
 1933SOL    HW2 7498   1.569   3.473   2.916 -0.8556  0.5299  0.1385
 1933SOL    HW3 7499   1.527   3.570   3.024  0.3723  0.0575  1.0766
 1933SOL    MW4 7500   1.564   3.495   3.000  0.4195  0.4569 -0.2791
 1934SOL     OW 7501   2.138   3.602   0.765 -0.3505  0.0498 -0.1023
 1934SOL    HW2 7502   2.143   3.697   0.765  1.0708  0.0098 -1.1229
 1934SOL    HW3 7503   2.206   3.574   0.704 -0.2865 -1.6467  0.6757
 1934SOL    MW4 7504   2.148   3.611   0.757 -0.0765  0.6050  0.0473
 1935SOL     OW 7505   2.520   3.809   0.767 -0.1787 -0.3514  0.8889
 1935SOL    HW2 7506   2.607   3.770   0.770 -1.1610 -2.9504 -0.7705
 1935SOL    HW3 7507   2.531   3.896   0.804  3.2916 -0.2048 -0.1982
 1935SOL    MW4 7508   2.533   3.815   0.772 -0.1181  0.3635 -0.0050
 1936SOL     OW 7509   0.890   1.783   6.200 -0.1773  0.2146 -0.1239
 1936SOL    HW2 7510   0.875   1.877   6.189 -0.7909  0.1597  0.1804
 1936SOL    HW3 7511   0.812   1.743   6.161 -0.3595 -0.1324  0.5929
 1936SOL    MW4 7512   0.877   1.790   6.193 -0.2389  0.4454  0.2399
 1937SOL     OW 7513   2.433   1.501   4.161 -0.3853 -0.0851  0.3051
 1937SOL    HW2 7514   2.425   1.574   4.098 -1.1339 -0.4623 -0.0434
 1937SOL    HW3 7515   2.433   1.544   4.247  0.9553  0.4650  0.0670
 1937SOL    MW4 7516   2.432   1.516   4.164  0.1167  0.4920  0.2702
 1938SOL     OW 7517   2.877   0.444   1.827  0.0807 -0.1037  0.1669
 1938SOL    HW2 7518   2.821   0.521   1.830 -0.4120 -0.3959 -0.9238
 1938SOL    HW3 7519   2.830   0.379   1.880 -1.7630 -1.0142 -2.3305
 1938SOL    MW4 7520   2.863   0.445   1.834 -0.1891 -0.2197 -0.0766
 1939SOL     OW 7521   5.838   1.862   5.500  0.7307 -0.3750  0.2513
 1939SOL    HW2 7522   5.920   1.912   5.509  0.4059  0.2924 -0.3874
 1939SOL    HW3 7523   5.780   1.900   5.565  0.6448 -0.2614  0.1074
 1939SOL    MW4 7524   5.841   1.874   5.509 -0.1207 -0.0559  0.0478
 1940SOL     OW 7525   6.017   1.175   4.513 -0.6879 -0.3755 -0.1512
 1940SOL    HW2 7526   5.984   1.092   4.479 -0.6746 -0.1545 -0.7152
 1940SOL    HW3 7527   5.971   1.242   4.463  0.5921 -0.0594 -0.9807
 1940SOL    MW4 7528   6.007   1.173   4.502  0.0476  0.4379 -0.0233
 1941SOL     OW 7529   0.957   5.381   3.395 -0.1344  0.0403 -0.4037
 1941SOL    HW2 7530   0.952   5.437   3.471  0.6007 -0.3080 -0.0841
 1941SOL    HW3 7531   0.973   5.440   3.322 -1.3202  0.4199 -0.3687
 1941SOL    MW4 7532   0.958   5.396   3.395 -0.3616  0.2089 -0.5517
 1942SOL     OW 7533   1.564   3.923   3.861  0.0225 -0.1191  0.3953
 1942SOL    HW2 7534   1.517   3.926   3.944  0.6419 -0.3550  0.7569
 1942SOL    HW3 7535   1.554   3.833   3.831  1.4657 -0.5627  1.1913
 1942SOL    MW4 7536   1.556   3.912   3.868 -0.6858  0.1819 -0.3405
 1943SOL     OW 7537   0.702   1.644   6.055  0.5011 -0.3558  0.4119
 1943SOL    HW2 7538   0.767   1.576   6.075  1.0064  0.0556  0.1968
 1943SOL    HW3 7539   0.640   1.639   6.128  1.5243  0.1561  1.3516
 1943SOL    MW4 7540   0.703   1.634   6.067 -0.3418  0.2555 -0.0588
 1944SOL     OW 7541   4.766   2.125   0.583 -0.1618  0.2496  0.3311
 1944SOL    HW2 7542   4.818   2.045   0.585  1.0608  0.9564 -1.1283
 1944SOL    HW3 7543   4.827   2.192   0.551 -1.7639  1.2654 -0.7144
 1944SOL    MW4 7544   4.781   2.124   0.579  0.4900 -0.2235 -0.0222
 1945SOL     OW 7545   0.225   0.998   5.450  0.2372  0.3273 -0.1680
 1945SOL    HW2 7546   0.247   1.072   5.394  1.0624  1.3099  1.3968
 1945SOL    HW3 7547   0.133   1.012   5.474 -0.4481 -0.6561 -2.0410
 1945SOL    MW4 7548   0.215   1.009   5.446  0.0818 -0.1530 -0.0023
 1946SOL     OW 7549   0.250   0.447   1.611  0.0737  0.2409 -0.3851
 1946SOL    HW2 7550   0.174   0.504   1.619 -1.3569 -1.6471  0.2709
 1946SOL    HW3 7551   0.264   0.413   1.700 -0.9858 -2.6456 -1.2058
 1946SOL    MW4 7552   0.242   0.450   1.624  0.1945  0.0488  0.3620
 1947SOL     OW 7553   2.724   2.968   5.795  0.1634 -0.2535  0.0913
 1947SOL    HW2 7554   2.684   3.004   5.874  1.2982 -0.3497  0.7368
 1947SOL    HW3 7555   2.694   2.877   5.793 -0.6236 -0.0004 -0.1215
 1947SOL    MW4 7556   2.715   2.961   5.805 -0.0513 -0.3438 -0.1060
 1948SOL     OW 7557   1.498   1.555   6.403 -0.0094 -0.1182  0.0405
 1948SOL    HW2 7558   1.498   1.459   6.406 -1.6080 -0.1221  1.5281
 1948SOL    HW3 7559   1.406   1.579   6.415  0.5771  1.6151  1.5617
 1948SOL    MW4 7560   1.486   1.545   6.405 -0.3879  0.3220  0.4624
 1949SOL     OW 7561   4.052   2.311   1.247 -0.3365  0.2996 -0.2787
 1949SOL    HW2 7562   4.009   2.380   1.297  0.0598  0.5976 -0.3469
 1949SOL    HW3 7563   4.145   2.322   1.265 -0.3090 -0.5515  0.1358
 1949SOL    MW4 7564   4.058   2.322   1.256  0.3685 -0.0338  0.2705
 1950SOL     OW 7565   3.101   3.295   5.309  0.1151  0.1321 -0.0684
 1950SOL    HW2 7566   3.039   3.339   5.251  0.5638  0.3047 -0.4252
 1950SOL    HW3 7567   3.153   3.239   5.250  2.3510  2.2626 -0.3080
 1950SOL    MW4 7568   3.100   3.293   5.293 -0.0948 -0.3753  0.2703
 1951SOL     OW 7569   5.256   3.879   5.758  0.5551 -0.5327  0.4347
 1951SOL    HW2 7570   5.340   3.901   5.799  1.6260 -0.7249 -1.5010
 1951SOL    HW3 7571   5.231   3.958   5.711  1.6403 -1.5720 -2.0755
 1951SOL    MW4 7572   5.264   3.892   5.757 -0.2325  0.3363 -0.5932
 1952SOL     OW 7573   3.985   1.977   6.083 -0.8889 -0.8910  0.2458
 1952SOL    HW2 7574   3.987   1.933   6.168  0.1708 -2.5947 -0.6072
 1952SOL    HW3 7575   4.003   2.068   6.102  2.2650 -1.6733  1.6556
 1952SOL    MW4 7576   3.987   1.983   6.096  0.0998 -0.6205 -0.0814
 1953SOL     OW 7577   6.187   3.749   2.579 -0.7779 -0.0521 -0.4734
 1953SOL    HW2 7578   6.245   3.824   2.595 -0.4714 -0.4267  0.1829
 1953SOL    HW3 7579   6.238   3.693   2.520 -0.4577 -0.3894  0.1165
 1953SOL    MW4 7580   6.201   3.752   2.573 -0.3770 -0.1765 -0.0394
 1954SOL     OW 7581   0.647   3.939   2.268 -0.1820 -0.0743 -0.0278
 1954SOL    HW2 7582   0.720   3.991   2.299  0.8019 -1.2752 -0.2710
 1954SOL    HW3 7583   0.669   3.917   2.177 -1.0513 -0.0710 -0.2516
 1954SOL    MW4 7584   0.659   3.943   2.260 -0.1952 -0.3208  0.7093
 1955SOL     OW 7585   2.736   1.768   3.684 -0.6231 -0.3567  0.0667
 1955SOL    HW2 7586   2.816   1.802   3.645  0.5129 -2.5061  0.3927
 1955SOL    HW3 7587   2.666   1.799   3.626  0.2846  2.2497  0.2279
 1955SOL    MW4 7588   2.737   1.777   3.671  0.0656  0.7384  0.2717
 1956SOL     OW 7589   0.886   6.333   5.759  0.5476 -0.1249 -0.6840
 1956SOL    HW2 7590   0.949   6.323   5.688  0.4004  0.0385 -0.8362
 1956SOL    HW3 7591   0.867   6.243   5.787  1.2903 -0.1566 -0.2443
 1956SOL    MW4 7592   0.892   6.319   5.753 -0.0290 -0.3071 -0.0767
 1957SOL     OW 7593   2.898   5.381   2.951 -0.0053  0.4177  0.0872
 1957SOL    HW2 7594   2.982   5.365   2.907  0.3564  1.9539  0.1621
 1957SOL    HW3 7595   2.912   5.351   3.041  0.2799  0.1512 -0.0435
 1957SOL    MW4 7596   2.911   5.375   2.957 -0.2058 -0.5210 -0.4043
 1958SOL     OW 7597   6.077   1.143   5.903 -0.1080  0.9240  0.1815
 1958SOL    HW2 7598   6.027   1.111   5.828 -0.6242  0.5305  0.6831
 1958SOL    HW3 7599   6.103   1.063   5.950  0.2665  1.1642  0.3906
 1958SOL    MW4 7600   6.074   1.128   5.900  0.1570 -0.2937  0.0660
 1959SOL     OW 7601   0.261   1.816   1.656 -0.0058 -0.0057  0.5361
 1959SOL    HW2 7602   0.327   1.765   1.608  0.0236  1.7632 -1.4615
 1959SOL    HW3 7603   0.186   1.757   1.664 -0.2846 -0.2232 -2.4536
 1959SOL    MW4 7604   0.260   1.802   1.650  0.5869 -0.2162 -0.3636
 1960SOL     OW 7605   2.346   5.870   1.127 -0.2596 -0.1263  0.2005
 1960SOL    HW2 7606   2.403   5.918   1.188  0.7832 -0.8290 -0.1775
 1960SOL    HW3 7607   2.351   5.920   1.046  1.1249 -1.0151 -0.3049
 1960SOL    MW4 7608   2.355   5.883   1.125 -0.7201 -0.2886  0.0687
 1961SOL     OW 7609   2.788   2.217   4.173 -0.2342 -0.0315  0.0804
 1961SOL    HW2 7610   2.811   2.232   4.081  0.1497  0.1378  0.2041
 1961SOL    HW3 7611   2.762   2.303   4.206 -2.0620 -0.3842 -0.3292
 1961SOL    MW4 7612   2.788   2.230   4.165  0.3405  0.5579  0.2570
 1962SOL     OW 7613   0.330   0.461   1.352 -0.3871 -0.5406 -0.0287
 1962SOL    HW2 7614   0.265   0.432   1.288 -0.9428  2.2298 -0.8687
 1962SOL    HW3 7615   0.279   0.476   1.432 -0.3854 -0.4483 -0.0449
 1962SOL    MW4 7616   0.315   0.459   1.354 -0.3321 -0.4542 -0.0332
 1963SOL     OW 7617   0.392   2.605   3.482  0.7404 -0.0420  0.2385
 1963SOL    HW2 7618   0.310   2.593   3.530  1.9142  0.7786  2.6372
 1963SOL    HW3 7619   0.398   2.529   3.425 -0.6075 -1.2835  1.6681
 1963SOL    MW4 7620   0.382   2.594   3.481 -0.1133  0.5078 -0.1283
 1964SOL     OW 7621   0.048   2.333   3.275  0.5767  0.2135 -0.3467
 1964SOL    HW2 7622   0.083   2.352   3.188 -1.5116  1.1994 -1.0549
 1964SOL    HW3 7623   0.114   2.278   3.316  2.4383  1.1571 -1.8953
 1964SOL    MW4 7624   0.061   2.328   3.269 -0.5623 -0.3738  0.4199
 1965SOL     OW 7625   5.459   4.301   2.478  0.4906  0.5469  0.6033
 1965SOL    HW2 7626   5.465   4.253   2.395 -0.3614  0.8617  0.3434
 1965SOL    HW3 7627   5.549   4.310   2.507  0.7161 -0.7542  0.3964
 1965SOL    MW4 7628   5.471   4.296   2.471  0.0731  0.4215 -0.3475
 1966SOL     OW 7629   2.882   0.943   6.290 -0.3304 -0.1369  0.1844
 1966SOL    HW2 7630   2.964   0.921   6.246  0.0775 -0.5813  1.1250
 1966SOL    HW3 7631   2.832   0.993   6.226 -0.0825 -1.4062 -1.0296
 1966SOL    MW4 7632   2.886   0.947   6.276 -0.1583 -0.0098 -0.0733
 1967SOL     OW 7633   3.072   5.340   0.811 -0.0692  0.4469 -0.3413
 1967SOL    HW2 7634   3.011   5.389   0.756 -1.9654 -0.6688  0.6559
 1967SOL    HW3 7635   3.041   5.355   0.901  0.7998 -0.5743  0.1593
 1967SOL    MW4 7636   3.060   5.349   0.816 -0.0793  0.2932 -0.1841
 1968SOL     OW 7637   4.034   5.495   4.915  0.0894  0.3033 -0.4595
 1968SOL    HW2 7638   4.015   5.424   4.854  0.0914 -1.1662  1.1851
 1968SOL    HW3 7639   3.950   5.540   4.926 -0.7459 -1.4392  0.8910
 1968SOL    MW4 7640   4.020   5.492   4.908  0.1688  0.4915 -0.0332
 1969SOL     OW 7641   1.256   4.033   0.602  0.1602 -0.0366 -0.1112
 1969SOL    HW2 7642   1.237   3.943   0.575 -0.9798  0.4747 -1.1194
 1969SOL    HW3 7643   1.172   4.078   0.596  0.7250  1.1197  0.3104
 1969SOL    MW4 7644   1.242   4.027   0.598  0.0391 -0.3099 -0.6186
 1970SOL     OW 7645   4.437   6.367   2.090 -0.0291 -0.0624 -0.1891
 1970SOL    HW2 7646   4.517   6.418   2.081 -0.8319  0.9158 -2.2413
 1970SOL    HW3 7647   4.366   6.428   2.070 -1.3874 -0.7863  1.9653
 1970SOL    MW4 7648   4.438   6.382   2.086 -0.0808 -0.2243  0.1332
 1971SOL     OW 7649   3.346   3.543   1.148 -0.4136 -0.3464 -0.2257
 1971SOL    HW2 7650   3.270   3.600   1.131  0.9311  1.6825  0.1813
 1971SOL    HW3 7651   3.399   3.552   1.069  1.1230  1.2167  0.9183
 1971SOL    MW4 7652   3.343   3.552   1.135  0.3041 -0.0876 -0.6986
 1972SOL     OW 7653   1.790   4.589   2.396 -0.1815  0.1685 -0.7739
 1972SOL    HW2 7654   1.716   4.587   2.335 -1.5411 -1.7629  0.8017
 1972SOL    HW3 7655   1.752   4.561   2.479  2.2956 -0.6601  0.1467
 1972SOL    MW4 7656   1.775   4.585   2.399 -0.1864 -0.0473 -0.4210
 1973SOL     OW 7657   4.034   4.909   3.646  0.1353 -0.0164  0.1694
 1973SOL    HW2 7658   3.985   4.829   3.629 -1.0526  1.0991 -2.1827
 1973SOL    HW3 7659   4.124   4.880   3.661 -0.7036 -1.9315  2.1092
 1973SOL    MW4 7660   4.040   4.895   3.646 -0.2453  0.5450  0.5409
 1974SOL     OW 7661   1.486   6.429   2.251 -0.0506 -0.0766 -0.1930
 1974SOL    HW2 7662   1.428   6.498   2.218 -0.0922 -0.4515 -0.9355
 1974SOL    HW3 7663   1.518   6.462   2.335  1.2930  1.6254 -1.3130
 1974SOL    MW4 7664   1.483   6.443   2.258  0.1912 -0.5182 -0.0233
 1975SOL     OW 7665   4.590   0.035   0.861  0.0955 -0.4179  0.2535
 1975SOL    HW2 7666   4.565   0.096   0.931 -1.6764 -1.9508  1.0352
 1975SOL    HW3 7667   4.653  -0.024   0.903  1.3032  0.4135 -0.3207
 1975SOL    MW4 7668   4.595   0.035   0.876 -0.0373  0.6028  0.0145
 1976SOL     OW 7669   1.460   3.765   0.618 -0.2353  0.1837  0.0431
 1976SOL    HW2 7670   1.518   3.693   0.594  0.1190 -0.0795  1.5726
 1976SOL    HW3 7671   1.424   3.740   0.703 -1.1948  1.1726 -0.0447
 1976SOL    MW4 7672   1.463   3.752   0.626 -0.5190  0.2418 -0.2136
 1977SOL     OW 7673   0.278   2.207   3.404 -0.1299  0.3316  0.5327
 1977SOL    HW2 7674   0.358   2.248   3.370  0.5222 -0.8608  0.5575
 1977SOL    HW3 7675   0.286   2.215   3.499 -0.0369  0.2395  0.5341
 1977SOL    MW4 7676   0.290   2.213   3.412 -0.2713 -0.4796 -0.5922
 1978SOL     OW 7677   0.743   2.058   0.966 -0.0362  0.1901 -0.1638
 1978SOL    HW2 7678   0.823   2.006   0.969  1.1144  1.8310 -0.9980
 1978SOL    HW3 7679   0.684   2.015   1.027  1.6584 -0.7809  0.8600
 1978SOL    MW4 7680   0.746   2.046   0.975  0.0959  0.2688 -0.1782
 1979SOL     OW 7681   3.994   3.838   2.342 -0.0818 -0.1037  0.3208
 1979SOL    HW2 7682   3.944   3.802   2.415  1.6611 -2.4529  0.4912
 1979SOL    HW3 7683   3.961   3.791   2.265 -0.0076  0.3192  0.0306
 1979SOL    MW4 7684   3.983   3.827   2.342  0.1847 -0.1747  0.0054
 1980SOL     OW 7685   6.365   3.346   4.416  0.4682 -0.4325 -0.1930
 1980SOL    HW2 7686   6.349   3.262   4.372  0.0066 -1.2299  1.4178
 1980SOL    HW3 7687   6.285   3.396   4.402 -0.3839 -1.3455  1.1124
 1980SOL    MW4 7688   6.352   3.341   4.409 -0.0383 -0.1040 -0.0585
 1981SOL     OW 7689   3.968   6.100   1.622 -0.3841 -0.0882 -0.2300
 1981SOL    HW2 7690   4.036   6.148   1.670 -0.3174 -0.9745  0.5967
 1981SOL    HW3 7691   3.908   6.168   1.592 -0.5919  0.4829  1.3844
 1981SOL    MW4 7692   3.969   6.116   1.624  0.1601  0.0801 -0.5823
 1982SOL     OW 7693   3.918   1.055   3.168  0.4625  0.1771  0.2094
 1982SOL    HW2 7694   4.003   1.032   3.206 -0.5146 -1.2238  1.6843
 1982SOL    HW3 7695   3.892   0.977   3.119 -0.6512 -0.0168  1.0712
 1982SOL    MW4 7696   3.925   1.042   3.166  0.1322 -0.1497 -0.2317
 1983SOL     OW 7697   5.766   2.842   5.917 -0.2211 -0.5308  0.0942
 1983SOL    HW2 7698   5.709   2.909   5.955 -0.6482 -0.4621 -0.6365
 1983SOL    HW3 7699   5.740   2.761   5.961 -2.1222 -0.8151 -1.4122
 1983SOL    MW4 7700   5.755   2.840   5.928  0.4955  0.0237  0.6273
 1984SOL     OW 7701   3.109   5.484   0.534  0.0917  0.1653 -0.1705
 1984SOL    HW2 7702   3.174   5.462   0.601 -0.4265 -0.5025  0.1331
 1984SOL    HW3 7703   3.118   5.578   0.522  1.5957 -0.0123 -0.6569
 1984SOL    MW4 7704   3.119   5.494   0.542  0.4351 -0.4098 -0.4219
 1985SOL     OW 7705   2.328   6.042   2.474 -0.1783 -0.4146 -0.2364
 1985SOL    HW2 7706   2.414   6.078   2.495 -0.4152  0.7447 -1.0907
 1985SOL    HW3 7707   2.285   6.030   2.558  1.1265 -1.8760  0.2579
 1985SOL    MW4 7708   2.333   6.045   2.488  0.2147  0.7705 -0.5366
 1986SOL     OW 7709   0.046   5.880   0.591 -0.1140 -0.4450  0.5910
 1986SOL    HW2 7710   0.023   5.960   0.639  1.5757  1.0570 -0.9332
 1986SOL    HW3 7711  -0.032   5.862   0.537 -0.9399 -0.5311  1.7659
 1986SOL    MW4 7712   0.032   5.888   0.590  0.2859 -0.2466  0.4597
 1987SOL     OW 7713   5.616   1.465   1.918  0.0054  0.2234  0.1350
 1987SOL    HW2 7714   5.617   1.509   2.003  0.0984 -0.7429  0.6441
 1987SOL    HW3 7715   5.594   1.374   1.938  1.1149 -0.2640 -0.7597
 1987SOL    MW4 7716   5.613   1.459   1.932  0.3546 -0.4645  0.0576
 1988SOL     OW 7717   0.488   2.804   3.997 -0.2547 -0.0841  0.5048
 1988SOL    HW2 7718   0.462   2.895   4.009  0.6194  0.2307  0.1003
 1988SOL    HW3 7719   0.448   2.778   3.913 -0.5634 -0.1003  0.6562
 1988SOL    MW4 7720   0.479   2.812   3.987 -0.2358 -0.0175  0.4307
 1989SOL     OW 7721   3.570   2.086   5.553  0.1368  0.5228  0.2758
 1989SOL    HW2 7722   3.513   2.161   5.570 -0.5128  0.1433 -0.1845
 1989SOL    HW3 7723   3.556   2.065   5.461  0.0540 -0.3737  0.4770
 1989SOL    MW4 7724   3.561   2.093   5.543  0.3273 -0.3596 -0.2752
 1990SOL     OW 7725   0.578   4.746   2.733 -0.6932  0.2071 -0.3711
 1990SOL    HW2 7726   0.495   4.788   2.713 -0.4294  0.8286 -0.1695
 1990SOL    HW3 7727   0.561   4.652   2.721 -2.2345  0.0194  2.3461
 1990SOL    MW4 7728   0.565   4.739   2.729  0.2821  0.2369 -0.0768
 1991SOL     OW 7729   5.552   1.814   6.204  0.1829  0.1024 -0.1542
 1991SOL    HW2 7730   5.515   1.751   6.142 -0.7319 -0.0675  0.5424
 1991SOL    HW3 7731   5.562   1.894   6.152 -2.9147  0.7254 -0.0060
 1991SOL    MW4 7732   5.548   1.816   6.189  0.4787  0.4545 -0.1704
 1992SOL     OW 7733   2.596   4.541   3.059  0.4727 -0.4449 -0.5884
 1992SOL    HW2 7734   2.615   4.447   3.056  0.1178 -0.5666  0.6541
 1992SOL    HW3 7735   2.511   4.549   3.014 -0.0587 -0.8884  0.3052
 1992SOL    MW4 7736   2.587   4.529   3.052  0.6095 -0.1764  0.2002
 1993SOL     OW 7737   4.844   2.963   1.473  0.0408 -0.0749 -0.3112
 1993SOL    HW2 7738   4.837   2.894   1.407 -2.5946  0.5105 -0.7295
 1993SOL    HW3 7739   4.837   2.917   1.557  0.4662 -0.5207 -0.5165
 1993SOL    MW4 7740   4.842   2.947   1.476  0.0471  0.3488 -0.5754
 1994SOL     OW 7741   1.557   5.886   1.149 -0.4345 -0.2130  0.0249
 1994SOL    HW2 7742   1.563   5.791   1.154 -0.1175 -0.2207 -0.4531
 1994SOL    HW3 7743   1.644   5.915   1.123 -0.5598  0.1970  0.0487
 1994SOL    MW4 7744   1.569   5.877   1.146 -0.4728 -0.0592  0.1359
 1995SOL     OW 7745   5.804   1.858   1.984 -0.3930  0.4233 -0.3811
 1995SOL    HW2 7746   5.723   1.842   2.031  0.2817  0.5838  0.8635
 1995SOL    HW3 7747   5.872   1.817   2.037  0.3809  0.4844 -1.2865
 1995SOL    MW4 7748   5.802   1.850   1.997  0.5856  0.6417 -0.4548
 1996SOL     OW 7749   1.896   4.542   4.652  0.2834 -0.0542  0.2077
 1996SOL    HW2 7750   1.891   4.500   4.737 -1.3588  0.7252  0.5339
 1996SOL    HW3 7751   1.837   4.617   4.658  1.3438  0.9470 -1.1053
 1996SOL    MW4 7752   1.888   4.546   4.664 -0.1599  0.0270  0.9135
 1997SOL     OW 7753   5.969   4.870   1.997  0.6929  0.1215  0.1145
 1997SOL    HW2 7754   5.901   4.912   1.945 -1.3513 -2.0169  0.8941
 1997SOL    HW3 7755   5.963   4.777   1.975  2.6797 -0.2669  0.9899
 1997SOL    MW4 7756   5.959   4.863   1.987 -0.1479  1.0256 -0.4030
 1998SOL     OW 7757   4.027   3.898   4.921  0.2243 -0.0684  0.1554
 1998SOL    HW2 7758   3.932   3.886   4.920  0.1600  0.1808  1.5508
 1998SOL    HW3 7759   4.044   3.946   5.002  1.6363 -0.9929  0.4422
 1998SOL    MW4 7760   4.016   3.903   4.932  0.0470  0.2009  0.8020
 1999SOL     OW 7761   5.324   1.965   3.744  0.3803  0.2293 -1.1574
 1999SOL    HW2 7762   5.301   1.877   3.715 -0.6526 -0.6146  1.8758
 1999SOL    HW3 7763   5.401   1.953   3.800  0.0953  1.2255 -0.5257
 1999SOL    MW4 7764   5.331   1.952   3.748  0.9229 -0.5163  0.0680
 2000SOL     OW 7765   2.743   5.562   1.507 -0.3246 -0.3764  0.2072
 2000SOL    HW2 7766   2.709   5.530   1.423  0.0512 -0.4762  0.0865
 2000SOL    HW3 7767   2.827   5.516   1.517  0.1895  0.5009  0.0729
 2000SOL    MW4 7768   2.750   5.551   1.497  0.1912  0.2782 -0.0599
 2001SOL     OW 7769   4.833   1.799   2.031 -0.6114  0.2927 -0.2275
 2001SOL    HW2 7770   4.859   1.738   1.962 -4.2038 -0.6562 -0.9601
 2001SOL    HW3 7771   4.916   1.831   2.067  1.4384 -0.6513 -3.6268
 2001SOL    MW4 7772   4.847   1.795   2.026  0.0764 -0.5030  0.3591
 2002SOL     OW 7773   5.112   0.274   1.813 -0.1489 -0.3889  0.2719
 2002SOL    HW2 7774   5.045   0.242   1.752  0.1842 -0.0504 -0.2791
 2002SOL    HW3 7775   5.195   0.256   1.769  0.0707  0.4403  0.3402
 2002SOL    MW4 7776   5.114   0.267   1.799 -0.5333 -0.0400  0.0511
 2003SOL     OW 7777   3.101   5.987   4.894  0.9190 -0.1676  0.4984
 2003SOL    HW2 7778   3.053   5.988   4.811  2.1631 -0.3442 -0.2402
 2003SOL    HW3 7779   3.043   5.939   4.954  0.5263 -1.1192 -0.5943
 2003SOL    MW4 7780   3.087   5.981   4.891  0.0924 -0.0381 -0.1785
 2004SOL     OW 7781   1.767   2.537   4.486 -0.1247 -0.6038 -0.0010
 2004SOL    HW2 7782   1.736   2.621   4.518  2.1697 -0.3058  1.6643
 2004SOL    HW3 7783   1.759   2.544   4.391 -1.0612  1.0293  0.1558
 2004SOL    MW4 7784   1.762   2.549   4.477  0.2973  0.3590  0.2500
 2005SOL     OW 7785   5.999   5.784   1.345 -0.5374 -0.1042 -0.4457
 2005SOL    HW2 7786   6.009   5.727   1.269 -0.5845  0.3725 -0.8143
 2005SOL    HW3 7787   6.034   5.733   1.418 -1.3796 -0.9481 -0.6095
 2005SOL    MW4 7788   6.005   5.770   1.344  0.1031  0.0341  0.2624
 2006SOL     OW 7789   5.973   4.183   3.928 -0.7184 -0.1783  0.2691
 2006SOL    HW2 7790   5.977   4.201   4.022  1.5515  0.6051  0.0908
 2006SOL    HW3 7791   6.063   4.191   3.898 -1.7149  3.2939 -2.6179
 2006SOL    MW4 7792   5.985   4.186   3.936 -0.2915 -0.6785  0.0831
 2007SOL     OW 7793   1.810   3.689   5.004  0.3876 -0.5635  0.1589
 2007SOL    HW2 7794   1.903   3.701   5.024  0.1128  0.3875  0.9645
 2007SOL    HW3 7795   1.764   3.733   5.076 -0.6904 -0.5217 -0.5294
 2007SOL    MW4 7796   1.816   3.696   5.016 -0.1233 -0.6745 -0.4354
 2008SOL     OW 7797   5.438   0.218   5.959 -0.3765 -1.0241  0.3041
 2008SOL    HW2 7798   5.461   0.134   5.997  1.8807 -0.1077  1.1351
 2008SOL    HW3 7799   5.350   0.205   5.923 -0.5426 -3.3796  1.3802
 2008SOL    MW4 7800   5.429   0.205   5.959  0.2217 -0.4238  0.0224
 2009SOL     OW 7801   4.515   1.948   3.237  0.6692 -0.6430  0.0321
 2009SOL    HW2 7802   4.473   2.019   3.285  0.4782  0.0047 -1.0638
 2009SOL    HW3 7803   4.444   1.886   3.220  0.2753  0.1012 -1.1714
 2009SOL    MW4 7804   4.500   1.949   3.241  0.4272  0.0679  0.0599
 2010SOL     OW 7805   4.858   0.048   2.659 -0.0138 -0.2893 -0.2560
 2010SOL    HW2 7806   4.925   0.057   2.591  0.3322 -3.9208 -0.5946
 2010SOL    HW3 7807   4.862   0.130   2.708  2.9090  0.6490 -1.8349
 2010SOL    MW4 7808   4.867   0.060   2.657 -0.1565  0.2008 -0.3234
 2011SOL     OW 7809   3.744   2.895   0.674 -0.5437  0.1920  0.5506
 2011SOL    HW2 7810   3.741   2.800   0.665 -0.2905 -0.0233  2.3294
 2011SOL    HW3 7811   3.655   2.919   0.701 -0.4024  0.3481  0.8837
 2011SOL    MW4 7812   3.732   2.886   0.677  0.1705 -0.2211  0.3057
 2012SOL     OW 7813   4.416   3.723   1.849  0.0301  0.4671 -0.6256
 2012SOL    HW2 7814   4.387   3.728   1.758  1.4435  2.1757 -1.0417
 2012SOL    HW3 7815   4.396   3.809   1.885  1.1324  0.4313  0.1265
 2012SOL    MW4 7816   4.410   3.735   1.842  0.2780 -0.0816 -0.2299
 2013SOL     OW 7817   2.922   1.128   0.970  0.0187 -0.4768  0.0354
 2013SOL    HW2 7818   2.829   1.150   0.958 -0.5733 -2.0628  1.4569
 2013SOL    HW3 7819   2.932   1.042   0.930  1.1597  0.1338 -1.0596
 2013SOL    MW4 7820   2.911   1.120   0.963  0.1726  0.0289  0.3713
 2014SOL     OW 7821   0.984   0.180   2.895  0.3843 -0.1842  0.0554
 2014SOL    HW2 7822   1.025   0.248   2.842  0.0689 -1.7098 -2.2990
 2014SOL    HW3 7823   1.007   0.098   2.851 -1.8956 -1.3755  0.9040
 2014SOL    MW4 7824   0.992   0.178   2.882  0.2466 -0.0808 -0.3238
 2015SOL     OW 7825   0.216   3.265   3.924 -0.0833 -0.2373  0.1472
 2015SOL    HW2 7826   0.219   3.354   3.957 -0.7906  0.2707 -1.0895
 2015SOL    HW3 7827   0.127   3.234   3.944  0.7391 -1.4106  2.3341
 2015SOL    MW4 7828   0.205   3.272   3.931 -0.5292  0.5289 -0.0522
 2016SOL     OW 7829   3.738   3.890   5.184 -0.1707 -0.4064 -0.2016
 2016SOL    HW2 7830   3.662   3.865   5.131 -0.5390  0.6009 -0.1640
 2016SOL    HW3 7831   3.721   3.853   5.270  0.1666 -1.5770 -0.6177
 2016SOL    MW4 7832   3.726   3.882   5.188 -0.4727  0.3305  0.1624
 2017SOL     OW 7833   5.581   2.652   1.943 -0.0392 -0.3837  0.1177
 2017SOL    HW2 7834   5.508   2.703   1.977  1.0400  1.6311 -0.4474
 2017SOL    HW3 7835   5.599   2.690   1.857  1.8752 -0.5966  0.3771
 2017SOL    MW4 7836   5.574   2.664   1.936 -0.1715 -0.0625 -0.7023
 2018SOL     OW 7837   0.391   6.279   3.192  1.1265  0.0319 -0.3289
 2018SOL    HW2 7838   0.464   6.256   3.250  2.2803  0.0150 -1.7138
 2018SOL    HW3 7839   0.415   6.364   3.156 -0.9905  1.4366  1.3968
 2018SOL    MW4 7840   0.404   6.287   3.195 -0.5274 -0.2737  0.3265
 2019SOL     OW 7841   4.887   5.888   6.288 -0.0278  0.2072  0.9819
 2019SOL    HW2 7842   4.818   5.954   6.299 -0.4801 -0.1887  0.5990
 2019SOL    HW3 7843   4.898   5.850   6.375 -2.0695 -1.4472  0.5845
 2019SOL    MW4 7844   4.879   5.892   6.301  0.0338 -0.6607 -0.2808
 2020SOL     OW 7845   2.232   1.701   1.298 -0.2008 -0.0230  0.7807
 2020SOL    HW2 7846   2.287   1.623   1.297 -0.4986 -0.2594  1.7791
 2020SOL    HW3 7847   2.236   1.734   1.208  2.0996  0.3635  0.9566
 2020SOL    MW4 7848   2.240   1.695   1.286 -0.0579 -0.1549  0.2313
 2021SOL     OW 7849   5.395   0.201   1.706  0.0436  0.5049  0.2062
 2021SOL    HW2 7850   5.420   0.219   1.797  0.8343 -0.4434  0.1923
 2021SOL    HW3 7851   5.387   0.106   1.702  0.1669  0.5283 -0.7541
 2021SOL    MW4 7852   5.397   0.191   1.717 -0.3627  0.6128  0.1089
 2022SOL     OW 7853   5.130   3.087   1.711 -0.2537 -0.0420  0.2726
 2022SOL    HW2 7854   5.170   3.023   1.653 -0.6306 -1.4897  1.5646
 2022SOL    HW3 7855   5.201   3.116   1.768 -0.3581 -0.2782  0.5252
 2022SOL    MW4 7856   5.144   3.083   1.711 -0.5273  0.0333  0.5132
 2023SOL     OW 7857   1.270   2.266   4.743 -0.0644  0.0060  0.6183
 2023SOL    HW2 7858   1.193   2.315   4.714  0.9584  2.4927  1.8253
 2023SOL    HW3 7859   1.287   2.298   4.832  2.3014 -0.5314  0.4364
 2023SOL    MW4 7860   1.262   2.277   4.751 -0.1286 -0.1851 -0.0002
 2024SOL     OW 7861   0.950   3.056   4.759 -0.2872 -0.2178  0.0916
 2024SOL    HW2 7862   1.015   3.116   4.722  0.0688 -0.3098  0.5577
 2024SOL    HW3 7863   0.944   2.984   4.696 -0.5567  0.1958 -0.3636
 2024SOL    MW4 7864   0.957   3.054   4.745 -0.1630  0.0229  0.2089
 2025SOL     OW 7865   6.338   5.394   2.080  0.0119  0.5274 -0.4172
 2025SOL    HW2 7866   6.350   5.396   2.175  0.9919 -0.6924 -0.4955
 2025SOL    HW3 7867   6.426   5.402   2.045 -0.3078  0.5924 -1.2241
 2025SOL    MW4 7868   6.351   5.396   2.088 -0.1460 -0.2964  0.0166
 2026SOL     OW 7869   2.964   0.401   4.975  0.0169 -0.2113 -0.3749
 2026SOL    HW2 7870   2.971   0.389   5.070 -0.1063  2.9865  0.1453
 2026SOL    HW3 7871   3.048   0.438   4.949 -1.2184  2.6633 -0.7073
 2026SOL    MW4 7872   2.976   0.404   4.984 -0.0026  0.0222 -0.0299
 2027SOL     OW 7873   2.107   2.751   3.214  0.8569 -0.0188  0.2853
 2027SOL    HW2 7874   2.175   2.793   3.161  0.6031  1.9982  1.4563
 2027SOL    HW3 7875   2.028   2.756   3.160  0.8250  1.0897  0.4239
 2027SOL    MW4 7876   2.105   2.757   3.200  0.0431 -0.4118  0.2680
 2028SOL     OW 7877   5.764   0.871   0.979  0.3821  0.2955 -0.2432
 2028SOL    HW2 7878   5.694   0.929   1.009 -0.4778 -0.1872 -1.2564
 2028SOL    HW3 7879   5.731   0.834   0.897  1.0753 -1.3010  0.1658
 2028SOL    MW4 7880   5.751   0.874   0.972  0.0068  0.1302  0.1103
 2029SOL     OW 7881   3.272   5.670   6.105 -0.0893 -0.2971  0.2421
 2029SOL    HW2 7882   3.291   5.677   6.012 -0.2966  0.4848  0.2501
 2029SOL    HW3 7883   3.178   5.685   6.111  0.4753  4.7432  0.9821
 2029SOL    MW4 7884   3.262   5.673   6.094  0.2084  0.7979 -0.3639
 2030SOL     OW 7885   1.903   4.888   2.720  0.4247 -0.2354 -0.2394
 2030SOL    HW2 7886   1.933   4.810   2.767  0.3241 -1.2194 -1.7507
 2030SOL    HW3 7887   1.892   4.954   2.788 -0.0826 -1.7138  1.1836
 2030SOL    MW4 7888   1.905   4.886   2.735 -0.1402 -0.2948  0.0592
 2031SOL     OW 7889   0.144   1.512   2.954 -0.1568  0.5133  1.0697
 2031SOL    HW2 7890   0.186   1.555   3.028 -0.2244  1.0159  0.8175
 2031SOL    HW3 7891   0.141   1.578   2.885 -2.3872  0.8738  1.4398
 2031SOL    MW4 7892   0.149   1.526   2.954 -0.7390  0.5335 -0.1980
 2032SOL     OW 7893   5.734   4.377   0.170  0.0539 -0.5283  0.1369
 2032SOL    HW2 7894   5.700   4.385   0.259 -0.2736  1.1953 -0.1165
 2032SOL    HW3 7895   5.661   4.400   0.114  0.6098 -0.3908 -0.5437
 2032SOL    MW4 7896   5.720   4.381   0.175  0.3408 -0.1416 -0.2757
 2033SOL     OW 7897   0.553   1.186   3.751  0.0043  0.2150  0.2971
 2033SOL    HW2 7898   0.615   1.249   3.786  0.4919  0.3109 -0.7063
 2033SOL    HW3 7899   0.545   1.120   3.820 -1.3450  1.8800  1.8256
 2033SOL    MW4 7900   0.560   1.186   3.765  0.0547 -0.0291  0.7613
 2034SOL     OW 7901   3.351   0.198   2.878 -0.3081  0.0537  0.3462
 2034SOL    HW2 7902   3.304   0.133   2.826  1.1430 -0.7499 -0.0162
 2034SOL    HW3 7903   3.386   0.260   2.813  0.3100 -0.1453  0.4906
 2034SOL    MW4 7904   3.349   0.198   2.862  0.2890 -0.4318 -0.5532
 2035SOL     OW 7905   3.945   6.295   4.932  0.1506  0.3109  0.0538
 2035SOL    HW2 7906   3.996   6.372   4.958 -0.3884  0.2351  1.4251
 2035SOL    HW3 7907   3.862   6.331   4.900 -0.4539  0.3021  1.5285
 2035SOL    MW4 7908   3.941   6.310   4.931  0.2221  0.7227 -0.1381
 2036SOL     OW 7909   2.772   0.819   2.342 -0.3812  0.2241 -0.0730
 2036SOL    HW2 7910   2.864   0.842   2.348 -0.2690 -0.3230  0.3621
 2036SOL    HW3 7911   2.755   0.767   2.420 -0.5446 -1.4597 -1.1742
 2036SOL    MW4 7912   2.782   0.815   2.353 -0.1716 -0.1206  0.2900
 2037SOL     OW 7913   0.925   5.738   2.140  0.8011 -0.2920  0.8208
 2037SOL    HW2 7914   0.852   5.685   2.109  1.1126 -2.0382  2.8462
 2037SOL    HW3 7915   0.894   5.778   2.221  1.4911  0.4157  0.7544
 2037SOL    MW4 7916   0.912   5.736   2.146  0.2234 -0.3802  0.0220
 2038SOL     OW 7917   5.508   5.319   4.319 -0.7899 -0.2414 -0.1213
 2038SOL    HW2 7918   5.470   5.262   4.252 -0.7026  0.0935 -0.4597
 2038SOL    HW3 7919   5.505   5.406   4.280  0.5813 -0.2409 -0.2739
 2038SOL    MW4 7920   5.503   5.323   4.305  0.2624  0.5837 -0.3667
 2039SOL     OW 7921   4.446   0.193   3.346 -0.3165 -0.5021  0.0147
 2039SOL    HW2 7922   4.362   0.147   3.342 -0.4368 -0.4173  1.1676
 2039SOL    HW3 7923   4.507   0.128   3.381 -0.3610  0.0198  1.1072
 2039SOL    MW4 7924   4.443   0.178   3.351  0.0543 -0.1309 -0.2335
 2040SOL     OW 7925   5.804   2.177   2.970 -0.0487  0.0637 -0.4626
 2040SOL    HW2 7926   5.748   2.144   3.040 -0.1556 -2.6067 -1.6950
 2040SOL    HW3 7927   5.747   2.181   2.894  0.1600  2.5910 -0.5666
 2040SOL    MW4 7928   5.789   2.173   2.969 -0.2122 -0.6496 -0.1870
 2041SOL     OW 7929   5.657   2.657   3.531  0.5105 -0.4266 -0.2668
 2041SOL    HW2 7930   5.688   2.666   3.442  0.7087  0.1417 -0.1424
 2041SOL    HW3 7931   5.716   2.593   3.571  0.9019 -0.1018 -0.3197
 2041SOL    MW4 7932   5.668   2.650   3.525 -0.9728  0.1531  0.1019
 2042SOL     OW 7933   0.319   1.133   1.294  0.1985  0.1145  0.2369
 2042SOL    HW2 7934   0.285   1.073   1.228 -0.3412  2.0112 -1.2916
 2042SOL    HW3 7935   0.411   1.107   1.305 -0.2007 -1.4122  0.1688
 2042SOL    MW4 7936   0.327   1.122   1.287  0.5211 -0.1118  0.1556
 2043SOL     OW 7937   3.617   4.619   0.298 -0.6449  0.2896 -0.1558
 2043SOL    HW2 7938   3.677   4.559   0.343  0.4361  1.2695 -0.2257
 2043SOL    HW3 7939   3.651   4.624   0.209 -1.1961  0.3945 -0.3633
 2043SOL    MW4 7940   3.630   4.612   0.292  0.4230  0.2177  0.1038
 2044SOL     OW 7941   2.942   4.528   4.835  0.7109 -0.0703  0.1204
 2044SOL    HW2 7942   2.903   4.454   4.789  1.6396 -1.7594  1.8742
 2044SOL    HW3 7943   2.868   4.577   4.870  0.0299 -2.2434  1.9527
 2044SOL    MW4 7944   2.927   4.525   4.834 -0.1289  0.0015  0.3757
 2045SOL     OW 7945   2.661   0.378   2.003  0.1942  0.4193 -0.4557
 2045SOL    HW2 7946   2.590   0.350   2.061  1.1429  0.6594  0.8863
 2045SOL    HW3 7947   2.685   0.465   2.036  0.0348  1.0525 -1.9331
 2045SOL    MW4 7948   2.654   0.386   2.015  0.0640 -0.0880  0.7760
 2046SOL     OW 7949   3.132   4.609   3.227 -0.4327 -0.8078  0.4331
 2046SOL    HW2 7950   3.118   4.613   3.132  0.2068 -0.4855  0.3464
 2046SOL    HW3 7951   3.084   4.531   3.255 -0.9736 -0.6673 -0.0925
 2046SOL    MW4 7952   3.124   4.599   3.218 -0.0353  0.1119 -0.4311
 2047SOL     OW 7953   1.822   2.129   4.430 -0.9087 -0.3792  0.4481
 2047SOL    HW2 7954   1.730   2.149   4.410 -0.3714  0.4819 -1.2285
 2047SOL    HW3 7955   1.873   2.185   4.373  0.6926 -1.1849  1.0192
 2047SOL    MW4 7956   1.816   2.139   4.420 -0.1471  0.1059  0.3374
 2048SOL     OW 7957   3.813   4.783   3.205 -0.2294 -0.1344  0.4747
 2048SOL    HW2 7958   3.759   4.848   3.251  0.3101  1.0513 -0.5002
 2048SOL    HW3 7959   3.838   4.827   3.123 -0.1702 -1.7337 -0.4019
 2048SOL    MW4 7960   3.809   4.798   3.200 -0.2067 -0.2972 -0.2708
 2049SOL     OW 7961   3.916   2.449   3.026  0.0169 -0.0018 -0.0937
 2049SOL    HW2 7962   3.985   2.446   3.092 -0.0520 -0.3120 -0.0342
 2049SOL    HW3 7963   3.843   2.402   3.066 -0.0680 -0.0833 -0.3414
 2049SOL    MW4 7964   3.915   2.443   3.040  0.0946 -0.0588  0.4379
 2050SOL     OW 7965   0.042   3.249   2.048 -0.2139  0.5071  0.1390
 2050SOL    HW2 7966   0.082   3.163   2.052 -0.5477  0.3799  0.9385
 2050SOL    HW3 7967  -0.045   3.234   2.009 -0.4756  0.3968  0.7532
 2050SOL    MW4 7968   0.036   3.236   2.043 -0.2549 -0.0283  0.0667
 2051SOL     OW 7969   5.338   2.616   3.275  0.7825  0.3098  0.6700
 2051SOL    HW2 7970   5.328   2.590   3.367  1.1852  0.4745  0.7639
 2051SOL    HW3 7971   5.258   2.585   3.233  1.5928 -1.8191  0.6051
 2051SOL    MW4 7972   5.326   2.609   3.282  0.2473 -0.0750  0.1855
 2052SOL     OW 7973   4.241   3.343   0.218 -0.1533 -0.3380 -0.0687
 2052SOL    HW2 7974   4.331   3.374   0.212 -0.4625  0.3336 -1.9020
 2052SOL    HW3 7975   4.202   3.397   0.287  0.8417 -0.6723  0.7744
 2052SOL    MW4 7976   4.248   3.355   0.226  0.6317  0.1250  0.4396
 2053SOL     OW 7977   0.273   3.200   3.676  0.0165 -0.1520  0.0073
 2053SOL    HW2 7978   0.252   3.235   3.762  1.9710 -0.9868  0.8847
 2053SOL    HW3 7979   0.255   3.272   3.615  0.3149  1.0507  1.3049
 2053SOL    MW4 7980   0.268   3.214   3.679 -0.4828 -0.4332  0.3303
 2054SOL     OW 7981   4.264   0.941   1.157 -0.2056 -0.4303 -0.4387
 2054SOL    HW2 7982   4.180   0.895   1.157 -1.6058  1.9265 -0.5978
 2054SOL    HW3 7983   4.243   1.028   1.124  2.2754  0.3352 -0.1944
 2054SOL    MW4 7984   4.250   0.946   1.153 -0.2456  0.0603 -0.2145
 2055SOL     OW 7985   4.350   4.068   0.388  0.3201  0.2972  1.0380
 2055SOL    HW2 7986   4.419   4.066   0.322  1.3083  2.2027  1.9243
 2055SOL    HW3 7987   4.300   4.147   0.370 -3.3445 -2.1776 -1.0712
 2055SOL    MW4 7988   4.353   4.078   0.377  0.2027 -0.0058  0.3069
 2056SOL     OW 7989   1.608   2.915   1.071  0.7873  0.2432  0.2083
 2056SOL    HW2 7990   1.650   2.948   0.992 -0.3267  0.9863 -0.0992
 2056SOL    HW3 7991   1.595   2.992   1.126  1.2981 -0.2210  1.0103
 2056SOL    MW4 7992   1.612   2.929   1.068  0.2870  1.2537  0.0367
 2057SOL     OW 7993   0.702   6.015   2.010 -0.0677  0.2760  0.0753
 2057SOL    HW2 7994   0.781   6.053   2.049 -0.3229  0.1552  0.7101
 2057SOL    HW3 7995   0.663   6.089   1.962 -0.6850  0.8983  1.4996
 2057SOL    MW4 7996   0.708   6.030   2.009  0.6069 -0.1903  0.0559
 2058SOL     OW 7997   3.700   3.879   1.194  0.1093  0.1149 -0.6727
 2058SOL    HW2 7998   3.724   3.902   1.284  1.2452 -1.7040 -0.4664
 2058SOL    HW3 7999   3.611   3.843   1.201 -0.6257  1.8518 -0.6220
 2058SOL    MW4 8000   3.691   3.877   1.207  0.1600  0.5565  0.6011
 2059SOL     OW 8001   3.497   5.505   3.226  0.5343 -0.7949  0.2796
 2059SOL    HW2 8002   3.583   5.465   3.237  0.0078 -2.1291 -0.2638
 2059SOL    HW3 8003   3.446   5.440   3.178 -0.2718  0.6830 -0.9408
 2059SOL    MW4 8004   3.502   5.491   3.221 -0.2762  0.0767  0.0144
 2060SOL     OW 8005   5.463   1.871   5.407  0.3407  0.5357 -0.3138
 2060SOL    HW2 8006   5.395   1.849   5.343  0.3026 -0.2928 -0.0066
 2060SOL    HW3 8007   5.456   1.966   5.418 -1.6197  0.3486  0.6376
 2060SOL    MW4 8008   5.453   1.880   5.400  0.2418 -0.5452  0.1807
 2061SOL     OW 8009   6.198   4.839   2.523  0.1047 -0.6405  0.0263
 2061SOL    HW2 8010   6.250   4.807   2.449  1.1434  1.6249 -0.3234
 2061SOL    HW3 8011   6.114   4.863   2.485  0.2971 -0.3876 -0.2452
 2061SOL    MW4 8012   6.194   4.838   2.508  0.0695 -0.3021 -0.2766
 2062SOL     OW 8013   5.181   2.043   2.485  0.0749 -0.0565  0.1965
 2062SOL    HW2 8014   5.150   2.047   2.395  1.2473  0.8224 -0.1907
 2062SOL    HW3 8015   5.158   2.129   2.522  1.5489  0.4322  0.0457
 2062SOL    MW4 8016   5.174   2.055   2.478 -0.2115  0.1757 -0.0790
 2063SOL     OW 8017   2.659   2.178   1.386 -0.1393  0.0906 -0.0289
 2063SOL    HW2 8018   2.688   2.093   1.420 -2.0365 -0.3549  0.6178
 2063SOL    HW3 8019   2.599   2.156   1.315  1.0709  0.9741 -1.3801
 2063SOL    MW4 8020   2.655   2.164   1.381 -0.1733 -0.0301  0.1816
 2064SOL     OW 8021   5.105   1.303   5.583 -0.3562  0.0828  0.7505
 2064SOL    HW2 8022   5.158   1.327   5.507  2.1684 -1.4606  1.9038
 2064SOL    HW3 8023   5.016   1.297   5.549  0.2169  2.1964 -1.4322
 2064SOL    MW4 8024   5.100   1.306   5.569  0.5122  0.5688 -0.0512
 2065SOL     OW 8025   1.195   2.402   5.504  0.2977 -0.3775 -0.0919
 2065SOL    HW2 8026   1.143   2.324   5.484  0.6604 -1.0125  1.3366
 2065SOL    HW3 8027   1.168   2.426   5.592 -0.2208  1.4707 -0.7131
 2065SOL    MW4 8028   1.184   2.395   5.513 -0.4679  0.3893 -0.1108
 2066SOL     OW 8029   6.423   2.701   3.085  0.1427  0.1468 -0.0154
 2066SOL    HW2 8030   6.414   2.666   3.173 -2.5971 -0.7254 -0.5465
 2066SOL    HW3 8031   6.396   2.793   3.093 -0.0369  0.0868  0.0751
 2066SOL    MW4 8032   6.418   2.709   3.097 -0.1304  0.2889 -0.1733
 2067SOL     OW 8033   3.924   4.979   2.177  0.4795  0.0003 -0.3789
 2067SOL    HW2 8034   3.914   4.981   2.272  0.4611  0.6255 -0.3861
 2067SOL    HW3 8035   3.898   4.891   2.152  1.0765 -0.3680  0.2611
 2067SOL    MW4 8036   3.919   4.968   2.186  1.0064  0.1153 -0.1770
 2068SOL     OW 8037   2.558   6.141   2.625  0.2920 -0.2365  0.0942
 2068SOL    HW2 8038   2.609   6.061   2.635  1.1033  0.2784  0.1945
 2068SOL    HW3 8039   2.518   6.154   2.711  0.4779 -0.3243  0.1957
 2068SOL    MW4 8040   2.559   6.132   2.638  0.3014  0.3288 -0.3462
 2069SOL     OW 8041   4.758   3.021   3.199 -0.2998  0.7392 -0.5220
 2069SOL    HW2 8042   4.770   3.011   3.104  0.0629  0.6837 -0.4725
 2069SOL    HW3 8043   4.726   2.936   3.228 -2.3465  1.3291 -0.8792
 2069SOL    MW4 8044   4.755   3.009   3.190 -0.4031  0.5102  0.1124
 2070SOL     OW 8045   0.997   3.351   0.495  0.7035  0.1607 -0.1638
 2070SOL    HW2 8046   1.001   3.397   0.411  0.0208  1.2251  0.3622
 2070SOL    HW3 8047   0.903   3.336   0.509  0.7928  0.2220  0.5264
 2070SOL    MW4 8048   0.985   3.355   0.485 -0.2672 -0.4114 -0.0747
 2071SOL     OW 8049   2.959   1.819   0.194  0.0697  0.4835 -0.4312
 2071SOL    HW2 8050   2.956   1.915   0.192 -1.0644  0.5592 -4.4267
 2071SOL    HW3 8051   2.868   1.793   0.208  0.5639 -0.1655  2.1147
 2071SOL    MW4 8052   2.947   1.828   0.196  0.0310 -0.0241 -0.0594
 2072SOL     OW 8053   2.548   2.844   1.548  0.5034 -0.5562  0.3541
 2072SOL    HW2 8054   2.496   2.879   1.476  0.6587  1.5263  1.1864
 2072SOL    HW3 8055   2.484   2.807   1.609 -0.0298  1.5207  1.1270
 2072SOL    MW4 8056   2.533   2.844   1.546 -0.3071 -0.1436  0.2072
 2073SOL     OW 8057   3.184   5.373   5.785  0.0881  0.5087  0.5930
 2073SOL    HW2 8058   3.119   5.311   5.754  1.6625 -0.8236 -0.1950
 2073SOL    HW3 8059   3.252   5.373   5.717  1.8077  0.4191  2.2146
 2073SOL    MW4 8060   3.185   5.365   5.772  0.7457  0.6894  0.0142
 2074SOL     OW 8061   1.943   1.721   3.815  0.1596 -0.1363  0.8459
 2074SOL    HW2 8062   1.913   1.793   3.870 -0.6935  0.0511  0.1591
 2074SOL    HW3 8063   1.863   1.688   3.774  0.7620 -0.3566 -0.1703
 2074SOL    MW4 8064   1.928   1.726   3.817  0.0609  0.0637 -0.5909
 2075SOL     OW 8065   4.265   3.447   3.840 -0.4484  0.2455  0.3783
 2075SOL    HW2 8066   4.249   3.383   3.771 -1.5240  1.0211 -0.1138
 2075SOL    HW3 8067   4.298   3.525   3.794  3.8433 -0.8290  1.2093
 2075SOL    MW4 8068   4.267   3.449   3.825 -0.0514 -0.5662 -0.4571
 2076SOL     OW 8069   2.856   2.378   3.615 -1.2265 -0.2987 -0.1110
 2076SOL    HW2 8070   2.765   2.351   3.604 -1.6061  0.8428  0.0681
 2076SOL    HW3 8071   2.851   2.456   3.670 -0.1964  0.2276 -0.7345
 2076SOL    MW4 8072   2.844   2.385   3.621  0.2457  0.8544 -0.5908
 2077SOL     OW 8073   1.953   4.421   1.313  0.1614  0.4175  0.3429
 2077SOL    HW2 8074   1.952   4.446   1.405  0.5356  0.6398  0.2897
 2077SOL    HW3 8075   1.993   4.334   1.312 -0.3602  0.1763  0.4452
 2077SOL    MW4 8076   1.959   4.413   1.325  0.2327  0.0168  0.5105
 2078SOL     OW 8077   0.977   3.309   1.991  0.4888  0.2252  0.0359
 2078SOL    HW2 8078   0.904   3.267   2.037  0.0448  0.4547 -0.4447
 2078SOL    HW3 8079   0.968   3.402   2.013  1.6101  0.0741  1.2952
 2078SOL    MW4 8080   0.966   3.316   2.000  0.4287  0.3916  0.1406
 2079SOL     OW 8081   5.858   4.024   3.168 -0.3676  0.0459  0.3329
 2079SOL    HW2 8082   5.829   3.988   3.252  0.1681  2.7852  1.8423
 2079SOL    HW3 8083   5.812   3.973   3.102 -1.1959 -1.9041  2.3052
 2079SOL    MW4 8084   5.848   4.013   3.171  0.1481 -0.1339  0.8587
 2080SOL     OW 8085   0.340   2.614   4.158 -0.5177 -0.3433  0.2637
 2080SOL    HW2 8086   0.400   2.549   4.195  0.6592  1.8060  2.4198
 2080SOL    HW3 8087   0.395   2.671   4.105 -0.8020  1.0147  1.3770
 2080SOL    MW4 8088   0.355   2.613   4.156  0.2738  0.5363  0.4868
 2081SOL     OW 8089   3.239   4.208   0.072 -0.0540 -0.3421  0.3093
 2081SOL    HW2 8090   3.273   4.135   0.020 -0.1454  0.7913 -1.4102
 2081SOL    HW3 8091   3.216   4.168   0.156  0.7638 -2.1034 -0.2424
 2081SOL    MW4 8092   3.241   4.193   0.076 -0.0767  0.6847  0.2652
 2082SOL     OW 8093   3.093   0.076   1.543 -0.1200  0.0947 -0.2300
 2082SOL    HW2 8094   3.040   0.155   1.552  0.1738  0.1937  0.8050
 2082SOL    HW3 8095   3.124   0.078   1.453 -0.8420  0.6864 -0.4809
 2082SOL    MW4 8096   3.090   0.087   1.532 -0.2353 -0.2390  0.2335
 2083SOL     OW 8097   5.926   5.539   0.305 -0.6463  0.5014  0.1090
 2083SOL    HW2 8098   5.994   5.489   0.260 -0.1459  0.4278  0.9412
 2083SOL    HW3 8099   5.945   5.631   0.284 -1.9650  0.3819 -1.9935
 2083SOL    MW4 8100   5.937   5.545   0.296 -0.0511 -0.1349  0.0413
 2084SOL     OW 8101   4.944   3.788   4.486  0.3035 -0.4304  0.1679
 2084SOL    HW2 8102   4.853   3.795   4.456  0.8504  1.8627 -1.1854
 2084SOL    HW3 8103   4.995   3.832   4.419  2.1708  0.4865  2.0638
 2084SOL    MW4 8104   4.938   3.795   4.473  0.1321 -0.7499 -0.3419
 2085SOL     OW 8105   5.371   3.873   0.705  0.2554  0.1110  0.0840
 2085SOL    HW2 8106   5.446   3.832   0.663 -0.4279 -0.0155 -1.0584
 2085SOL    HW3 8107   5.323   3.914   0.633 -0.8780  0.0125  0.7573
 2085SOL    MW4 8108   5.375   3.873   0.690  0.0808  0.1022  0.3201
 2086SOL     OW 8109   1.362   1.567   3.473 -0.5217 -0.8121 -0.1388
 2086SOL    HW2 8110   1.304   1.575   3.548 -0.2190 -0.4234  0.0561
 2086SOL    HW3 8111   1.314   1.511   3.411 -1.5067  0.2557 -0.3716
 2086SOL    MW4 8112   1.348   1.560   3.475 -0.0862  0.3325 -0.0043
 2087SOL     OW 8113   5.469   0.060   0.141 -0.2983  0.5640 -0.0023
 2087SOL    HW2 8114   5.390   0.006   0.135  1.7276 -2.6270 -0.4697
 2087SOL    HW3 8115   5.493   0.075   0.049 -0.0180  0.9728  0.1398
 2087SOL    MW4 8116   5.462   0.054   0.128 -0.4190  0.4350  0.3835
 2088SOL     OW 8117   1.672   2.048   1.819  0.6494 -0.6978 -0.4333
 2088SOL    HW2 8118   1.763   2.057   1.789  0.6161 -0.3760 -0.4369
 2088SOL    HW3 8119   1.621   2.040   1.739  0.4201  1.3682 -0.5418
 2088SOL    MW4 8120   1.677   2.048   1.805  0.2109  0.0254 -0.6561
 2089SOL     OW 8121   0.421   1.768   5.499 -0.0722 -0.5176 -0.1360
 2089SOL    HW2 8122   0.384   1.741   5.584  1.2717  0.6246  0.8627
 2089SOL    HW3 8123   0.424   1.688   5.448 -1.4895 -1.1220  0.6627
 2089SOL    MW4 8124   0.416   1.754   5.504  0.1910  0.0756  0.3021
 2090SOL     OW 8125   0.701   2.513   3.656  0.5080  0.1900  0.2155
 2090SOL    HW2 8126   0.661   2.598   3.641 -0.0880 -0.2702 -0.9566
 2090SOL    HW3 8127   0.657   2.479   3.734  1.2035  1.2031  1.0756
 2090SOL    MW4 8128   0.690   2.520   3.664  0.1811 -0.1785 -0.6033
 2091SOL     OW 8129   1.318   5.445   2.283  0.6450  0.6175 -0.1778
 2091SOL    HW2 8130   1.311   5.366   2.335 -0.4614 -0.1457 -1.4334
 2091SOL    HW3 8131   1.229   5.479   2.277  1.2096  2.5500  1.1628
 2091SOL    MW4 8132   1.306   5.439   2.289  0.1819 -0.1902  0.3337
 2092SOL     OW 8133   1.696   3.123   5.598 -0.2931  0.2354  0.4045
 2092SOL    HW2 8134   1.680   3.197   5.539 -1.5790 -0.5534 -0.2828
 2092SOL    HW3 8135   1.610   3.104   5.637  0.0033 -0.9146  0.5328
 2092SOL    MW4 8136   1.682   3.130   5.595  0.3877 -0.2520  0.3487
 2093SOL     OW 8137   5.218   0.081   4.406  0.0572  1.0176 -0.0975
 2093SOL    HW2 8138   5.273   0.011   4.371  1.0959  2.7062 -2.0946
 2093SOL    HW3 8139   5.133   0.040   4.421  1.1805 -1.1180  0.8109
 2093SOL    MW4 8140   5.214   0.066   4.403  0.2832 -0.0048  0.6524
 2094SOL     OW 8141   5.478   4.965   0.627  0.3483  0.1137 -0.0533
 2094SOL    HW2 8142   5.398   4.982   0.675  0.4313 -0.3627  0.2557
 2094SOL    HW3 8143   5.546   5.011   0.676  0.4362 -0.3878  0.3050
 2094SOL    MW4 8144   5.477   4.973   0.640  0.5876  0.3981 -0.4517
 2095SOL     OW 8145   1.452   5.309   0.130  0.0487 -0.0454  0.5929
 2095SOL    HW2 8146   1.509   5.233   0.138  1.8474  1.4350  2.9892
 2095SOL    HW3 8147   1.379   5.291   0.190  0.3497  0.0106  0.9766
 2095SOL    MW4 8148   1.450   5.297   0.139  0.0041  0.0851 -0.4590
 2096SOL     OW 8149   0.170   2.819   0.006 -0.0231 -0.0220 -0.1132
 2096SOL    HW2 8150   0.109   2.766  -0.046 -0.5268 -1.8276  2.1705
 2096SOL    HW3 8151   0.178   2.901  -0.043 -2.2142 -0.7425 -1.8400
 2096SOL    MW4 8152   0.163   2.823  -0.008  0.1406 -0.1889 -0.0881
 2097SOL     OW 8153   5.092   3.277   3.049  0.3290 -0.3691  0.7399
 2097SOL    HW2 8154   5.104   3.345   2.983 -1.3956 -1.6891 -1.0811
 2097SOL    HW3 8155   5.178   3.235   3.057  0.9524  0.8405  0.5689
 2097SOL    MW4 8156   5.105   3.280   3.041 -0.1036  0.0901 -0.1036
 2098SOL     OW 8157   0.969   5.361   4.767 -0.1432 -0.0853 -0.3275
 2098SOL    HW2 8158   1.008   5.294   4.824 -1.2991 -0.6030 -0.1089
 2098SOL    HW3 8159   0.922   5.311   4.701 -0.3972  0.5231 -0.6103
 2098SOL    MW4 8160   0.968   5.346   4.766 -0.2419  0.0531  0.6505
 2099SOL     OW 8161   1.940   2.019   5.894 -0.5505 -0.5185 -0.4906
 2099SOL    HW2 8162   1.932   1.981   5.981  3.7442 -1.2166 -0.1619
 2099SOL    HW3 8163   1.959   1.945   5.837  1.3431  0.3521 -1.0782
 2099SOL    MW4 8164   1.942   2.004   5.898  0.3124  0.8118 -0.1520
 2100SOL     OW 8165   1.672   0.378   1.674  0.2266  0.1253  0.4682
 2100SOL    HW2 8166   1.698   0.360   1.764  1.3002  0.3363  0.2128
 2100SOL    HW3 8167   1.753   0.405   1.630 -0.2816  0.0417 -0.5563
 2100SOL    MW4 8168   1.686   0.380   1.680  0.5695 -0.0350 -0.2717
 2101SOL     OW 8169   4.278   5.204   3.669  0.6031 -0.0572 -0.2989
 2101SOL    HW2 8170   4.303   5.116   3.699  1.4452  0.3577  0.2492
 2101SOL    HW3 8171   4.186   5.213   3.694  0.8732 -0.2909  0.8054
 2101SOL    MW4 8172   4.269   5.193   3.676  0.4469 -0.0920  0.0541
 2102SOL     OW 8173   0.513   3.347   5.636  0.1251  0.1969  0.6947
 2102SOL    HW2 8174   0.576   3.339   5.708 -0.5586 -0.0535  1.2781
 2102SOL    HW3 8175   0.430   3.365   5.679 -0.2581  0.2402 -0.0489
 2102SOL    MW4 8176   0.510   3.348   5.651  0.3351  0.1090 -0.2230
 2103SOL     OW 8177   3.110   6.231   4.125 -0.6184 -0.0045 -0.1950
 2103SOL    HW2 8178   3.080   6.242   4.034 -1.0386  1.3021  0.0803
 2103SOL    HW3 8179   3.096   6.139   4.143  0.1345 -0.4511 -1.6898
 2103SOL    MW4 8180   3.104   6.221   4.115 -0.0248 -0.2193 -0.0777
 2104SOL     OW 8181   2.116   2.741   1.372  0.2912  0.0146  0.3893
 2104SOL    HW2 8182   2.192   2.795   1.352  0.1833  0.4401  1.0886
 2104SOL    HW3 8183   2.138   2.699   1.455  1.0040 -2.2014 -0.8307
 2104SOL    MW4 8184   2.129   2.742   1.380 -0.1584 -0.0789 -0.9618
 2105SOL     OW 8185   2.366   5.215   4.907 -0.7076  0.6252 -0.0852
 2105SOL    HW2 8186   2.288   5.259   4.941  0.0899  0.6375  1.8659
 2105SOL    HW3 8187   2.401   5.276   4.842 -2.5120  0.4267 -1.3363
 2105SOL    MW4 8188   2.360   5.229   4.903  0.3234  0.4012  0.6558
 2106SOL     OW 8189   0.476   5.496   3.197  0.0551 -0.5607 -0.1717
 2106SOL    HW2 8190   0.567   5.512   3.172  0.3134 -1.1493  0.3772
 2106SOL    HW3 8191   0.469   5.533   3.286 -0.0288 -1.2058  0.0951
 2106SOL    MW4 8192   0.487   5.503   3.206  0.8991  0.5762  0.1936
 2107SOL     OW 8193   3.616   4.277   4.876  0.2749 -0.0425 -0.2023
 2107SOL    HW2 8194   3.528   4.279   4.913  0.7867 -0.3072  1.0805
 2107SOL    HW3 8195   3.672   4.247   4.947  1.2761 -0.8670 -1.2840
 2107SOL    MW4 8196   3.612   4.273   4.890 -0.3793 -0.0719 -0.4691
 2108SOL     OW 8197   6.426   2.880   3.398  0.1985  0.6378 -0.5950
 2108SOL    HW2 8198   6.462   2.794   3.377  0.0688  0.7311 -1.2161
 2108SOL    HW3 8199   6.427   2.927   3.315 -3.8092 -0.2206 -1.3426
 2108SOL    MW4 8200   6.431   2.875   3.385 -0.6388 -0.0524 -0.4331
 2109SOL     OW 8201   0.549   2.783   2.967 -0.1631 -0.1524  0.1573
 2109SOL    HW2 8202   0.619   2.808   2.906 -0.3332 -2.5118 -1.1447
 2109SOL    HW3 8203   0.488   2.856   2.966  0.6510  0.5440 -1.2866
 2109SOL    MW4 8204   0.551   2.796   2.959 -0.2120 -0.1398 -0.1117
 2110SOL     OW 8205   5.003   5.218   5.749  0.1531  0.2872  0.0042
 2110SOL    HW2 8206   4.968   5.215   5.660 -1.1739  0.0474  0.4964
 2110SOL    HW3 8207   5.073   5.153   5.750 -0.5017 -0.4486 -0.5912
 2110SOL    MW4 8208   5.007   5.209   5.737 -0.2549 -0.1716  0.1271
 2111SOL     OW 8209   3.719   6.345   3.443 -0.5065  0.4485  0.3733
 2111SOL    HW2 8210   3.704   6.294   3.522 -0.9020 -0.5513 -0.3259
 2111SOL    HW3 8211   3.667   6.302   3.375  0.8204  0.4960 -0.7322
 2111SOL    MW4 8212   3.710   6.333   3.444 -0.6848  0.0500 -0.2645
 2112SOL     OW 8213   3.885   5.651   0.089  0.1146  0.5573  0.2838
 2112SOL    HW2 8214   3.963   5.705   0.096  0.7452 -0.2436 -0.4415
 2112SOL    HW3 8215   3.838   5.686   0.014 -1.5503  2.6503  2.1348
 2112SOL    MW4 8216   3.889   5.663   0.080 -0.7230 -0.2719 -0.4491
 2113SOL     OW 8217   5.386   4.566   5.890 -0.0351  0.1744 -0.2618
 2113SOL    HW2 8218   5.346   4.495   5.840 -0.7607  0.5610 -0.2525
 2113SOL    HW3 8219   5.472   4.579   5.850 -0.3700  0.0813 -1.0160
 2113SOL    MW4 8220   5.392   4.558   5.878 -0.6875 -0.0299  0.4325
 2114SOL     OW 8221   4.047   1.405   1.785 -0.1179  0.3836  0.3693
 2114SOL    HW2 8222   4.081   1.470   1.847  1.8995  1.9969 -2.2189
 2114SOL    HW3 8223   4.036   1.325   1.837  1.1085  1.7124  2.8460
 2114SOL    MW4 8224   4.050   1.403   1.800 -0.0898  0.2435 -0.0961
 2115SOL     OW 8225   4.078   1.398   0.580  0.1202 -0.1461 -0.0636
 2115SOL    HW2 8226   4.100   1.442   0.662 -2.5530  1.1795  0.0393
 2115SOL    HW3 8227   4.024   1.324   0.606 -0.2715 -0.0565 -0.6075
 2115SOL    MW4 8228   4.074   1.394   0.594 -0.2987 -0.9457 -0.1302
 2116SOL     OW 8229   2.794   4.476   0.608  0.6472 -0.4642  0.4361
 2116SOL    HW2 8230   2.884   4.455   0.633  0.3778  0.5045  2.4097
 2116SOL    HW3 8231   2.754   4.511   0.688 -0.8850  1.0465 -0.9181
 2116SOL    MW4 8232   2.801   4.478   0.622  0.0430 -0.3514  0.0738
 2117SOL     OW 8233   1.942   0.864   4.494 -0.3490 -0.1769 -0.0809
 2117SOL    HW2 8234   1.853   0.835   4.472 -0.6633  0.4994  0.2792
 2117SOL    HW3 8235   1.953   0.946   4.446 -1.6232  2.1848  3.2621
 2117SOL    MW4 8236   1.932   0.871   4.485  0.0792  0.1264  0.1209
 2118SOL     OW 8237   1.439   5.648   0.921 -0.5753  0.0834  0.0002
 2118SOL    HW2 8238   1.432   5.743   0.909 -0.0340  0.2277  0.7225
 2118SOL    HW3 8239   1.380   5.629   0.994 -0.8425 -0.1704 -0.2791
 2118SOL    MW4 8240   1.430   5.658   0.929  0.1587 -0.0505  0.0493
 2119SOL     OW 8241   1.553   0.597   5.166 -0.2530 -0.3091 -0.1424
 2119SOL    HW2 8242   1.591   0.509   5.173 -0.0719 -0.3605 -1.5624
 2119SOL    HW3 8243   1.530   0.620   5.256  1.8653 -0.8242  0.5864
 2119SOL    MW4 8244   1.555   0.588   5.179 -0.1000 -0.4408  0.1602
 2120SOL     OW 8245   6.033   1.242   1.517  0.6996  0.0433 -0.5868
 2120SOL    HW2 8246   5.943   1.244   1.548  0.9898 -0.7631  0.3564
 2120SOL    HW3 8247   6.030   1.187   1.439  0.4925 -0.6496 -0.1036
 2120SOL    MW4 8248   6.021   1.235   1.511  0.4308  0.4497  0.3145
 2121SOL     OW 8249   0.291   4.992   4.929 -0.3211  0.1444  0.2252
 2121SOL    HW2 8250   0.378   5.010   4.967 -0.4825  0.4221  0.4659
 2121SOL    HW3 8251   0.310   4.965   4.839  0.2579 -2.7378  1.0971
 2121SOL    MW4 8252   0.305   4.991   4.922  0.0104  0.0511 -0.2949
 2122SOL     OW 8253   5.228   6.286   5.178  0.4306 -0.5276 -0.3491
 2122SOL    HW2 8254   5.270   6.293   5.263 -2.0016  1.4322  0.8225
 2122SOL    HW3 8255   5.300   6.295   5.115  1.8962  2.4807  1.5238
 2122SOL    MW4 8256   5.243   6.288   5.181  0.2550  1.2985  0.4675
 2123SOL     OW 8257   5.350   0.332   6.224  0.1829 -0.6248  0.4805
 2123SOL    HW2 8258   5.256   0.333   6.241  0.1583 -0.6748  0.3484
 2123SOL    HW3 8259   5.357   0.334   6.128  0.3110 -1.2115  0.4764
 2123SOL    MW4 8260   5.338   0.333   6.213 -0.1772  0.1732  0.2286
 2124SOL     OW 8261   4.234   3.202   2.030  0.1427 -0.2211 -0.0793
 2124SOL    HW2 8262   4.236   3.121   2.080  0.3695 -0.7924 -0.9933
 2124SOL    HW3 8263   4.173   3.185   1.958  0.9381  0.0754 -0.8400
 2124SOL    MW4 8264   4.226   3.189   2.027  0.3874 -0.1596 -0.8487
 2125SOL     OW 8265   1.543   5.449   0.505 -0.2834 -0.1102 -0.3489
 2125SOL    HW2 8266   1.488   5.466   0.581 -0.2461 -0.5879 -0.2131
 2125SOL    HW3 8267   1.569   5.357   0.514  0.6909  0.1563 -0.3079
 2125SOL    MW4 8268   1.539   5.439   0.516 -0.5875  0.2573  0.0905
 2126SOL     OW 8269   4.720   0.621   6.278  0.5214 -0.3019  0.3282
 2126SOL    HW2 8270   4.717   0.538   6.231 -0.0992 -0.8155  1.2665
 2126SOL    HW3 8271   4.654   0.675   6.233 -0.2293 -0.8649  0.7315
 2126SOL    MW4 8272   4.711   0.618   6.266  0.0084 -0.2991 -0.3250
 2127SOL     OW 8273   3.112   1.600   1.511 -0.2877  0.2591 -0.0837
 2127SOL    HW2 8274   3.124   1.620   1.418 -0.3536  1.0879  0.0716
 2127SOL    HW3 8275   3.194   1.626   1.552 -0.4305  0.3447  0.1513
 2127SOL    MW4 8276   3.124   1.606   1.504 -0.3604 -0.0606  0.3914
 2128SOL     OW 8277   3.839   5.467   1.693 -0.2255  0.6610  0.2794
 2128SOL    HW2 8278   3.749   5.467   1.658  0.1515 -1.1076 -0.8401
 2128SOL    HW3 8279   3.892   5.505   1.623  0.0429  0.6914  0.4993
 2128SOL    MW4 8280   3.834   5.472   1.679  0.3895  0.3515 -0.8005
 2129SOL     OW 8281   0.427   0.843   1.098 -0.0261 -0.3700  0.5943
 2129SOL    HW2 8282   0.408   0.751   1.084  2.2979 -0.9278  0.7470
 2129SOL    HW3 8283   0.441   0.851   1.193  1.1682 -0.1794  0.4171
 2129SOL    MW4 8284   0.426   0.832   1.109 -0.3064  0.2510  0.5552
 2130SOL     OW 8285   1.744   6.001   2.291 -0.2644 -0.0040 -0.4740
 2130SOL    HW2 8286   1.749   5.922   2.345 -0.8081  1.1914  1.4239
 2130SOL    HW3 8287   1.660   6.041   2.314 -0.1037  1.0253 -1.5565
 2130SOL    MW4 8288   1.734   5.996   2.301  0.1569 -0.1572  0.2546
 2131SOL     OW 8289   2.156   5.765   4.745  0.2938 -0.2459 -0.0138
 2131SOL    HW2 8290   2.182   5.842   4.795 -0.8075 -0.8125  1.4986
 2131SOL    HW3 8291   2.223   5.700   4.766  0.5778 -0.0744 -0.3700
 2131SOL    MW4 8292   2.168   5.767   4.754  0.7963 -0.1909 -0.6658
 2132SOL     OW 8293   1.922   4.582   3.148 -0.6731  0.3053 -0.1058
 2132SOL    HW2 8294   2.013   4.556   3.162 -0.1280  1.7980 -0.6913
 2132SOL    HW3 8295   1.880   4.503   3.113  1.1906  0.4200 -2.9868
 2132SOL    MW4 8296   1.929   4.568   3.145  0.0668 -0.1296  0.5381
 2133SOL     OW 8297   1.304   5.929   4.727 -0.5473  0.1367 -0.7404
 2133SOL    HW2 8298   1.264   5.968   4.650  0.0378 -2.2288 -2.3616
 2133SOL    HW3 8299   1.267   5.840   4.731  0.5515 -0.3052  0.8281
 2133SOL    MW4 8300   1.294   5.922   4.718 -0.2019  0.0996  0.3030
 2134SOL     OW 8301   1.098   3.023   3.598  0.3709 -0.1846  0.0591
 2134SOL    HW2 8302   1.008   3.056   3.593 -0.9101 -3.2746  0.3604
 2134SOL    HW3 8303   1.096   2.941   3.548  2.4772 -1.3301  1.6990
 2134SOL    MW4 8304   1.086   3.016   3.591  0.0634 -0.0948 -0.5396
 2135SOL     OW 8305   1.996   4.744   3.666 -0.1394 -0.1794  0.1625
 2135SOL    HW2 8306   1.985   4.684   3.592 -0.0132 -1.0338  0.8121
 2135SOL    HW3 8307   2.082   4.720   3.702  0.0504  0.6119  0.2473
 2135SOL    MW4 8308   2.006   4.733   3.661  0.3100 -0.4466  0.1973
 2136SOL     OW 8309   4.435   2.371   1.489  0.9064 -0.4755  0.3813
 2136SOL    HW2 8310   4.380   2.351   1.565 -0.8117 -1.3017 -1.0098
 2136SOL    HW3 8311   4.524   2.352   1.518  0.3519 -0.2628  2.3370
 2136SOL    MW4 8312   4.440   2.366   1.503  0.4871 -0.1419 -0.5624
 2137SOL     OW 8313   4.482   4.726   2.229 -0.0494 -0.5348 -0.2220
 2137SOL    HW2 8314   4.520   4.808   2.197 -0.4555  0.6767  2.1468
 2137SOL    HW3 8315   4.552   4.686   2.281 -0.8815  0.0259  1.3885
 2137SOL    MW4 8316   4.496   4.731   2.232 -0.4392  0.4881  0.0246
 2138SOL     OW 8317   2.423   1.063   1.740  0.0563  0.6290  0.6527
 2138SOL    HW2 8318   2.454   0.982   1.700  0.7958  0.9577  0.5321
 2138SOL    HW3 8319   2.334   1.075   1.707 -0.1092 -0.2057  0.7896
 2138SOL    MW4 8320   2.416   1.054   1.731 -0.3288 -0.2705 -0.5221
 2139SOL     OW 8321   3.324   2.295   2.634 -0.2354  0.0472  0.5434
 2139SOL    HW2 8322   3.298   2.211   2.672 -2.3487  0.8820  1.0849
 2139SOL    HW3 8323   3.346   2.274   2.544 -0.3691 -1.1570  0.7690
 2139SOL    MW4 8324   3.323   2.281   2.627  0.7847 -0.0861 -0.1630
 2140SOL     OW 8325   0.410   2.562   2.345  0.3941  0.1901 -0.1833
 2140SOL    HW2 8326   0.388   2.479   2.389  3.0263 -1.1488 -1.1703
 2140SOL    HW3 8327   0.413   2.540   2.252  1.5632  1.2712 -0.4312
 2140SOL    MW4 8328   0.407   2.548   2.339  0.0888  0.4231  0.2778
 2141SOL     OW 8329   4.248   4.248   1.765  0.0253 -0.0429 -0.1323
 2141SOL    HW2 8330   4.171   4.264   1.710 -0.5346  0.1758  0.7080
 2141SOL    HW3 8331   4.310   4.317   1.740  0.0882 -0.4083 -1.0326
 2141SOL    MW4 8332   4.246   4.259   1.754 -0.3572  0.0603  0.1575
 2142SOL     OW 8333   3.428   3.468   3.463  0.0244  0.1047 -0.1274
 2142SOL    HW2 8334   3.458   3.379   3.481  0.9608  0.6906  1.3044
 2142SOL    HW3 8335   3.499   3.509   3.414 -0.2592  0.1855 -0.4797
 2142SOL    MW4 8336   3.441   3.462   3.459 -0.4007 -0.6525  0.2785
 2143SOL     OW 8337   3.027   4.781   3.424  0.5252  0.3660 -0.3859
 2143SOL    HW2 8338   3.063   4.870   3.420  0.4815  0.3967 -0.1556
 2143SOL    HW3 8339   3.070   4.734   3.353  1.7589  0.1339  0.4722
 2143SOL    MW4 8340   3.037   4.787   3.414 -0.2840  0.1115 -0.1385
 2144SOL     OW 8341   0.739   2.224   3.503 -0.6317  0.2132 -0.0146
 2144SOL    HW2 8342   0.763   2.295   3.444  1.1043  0.7943  1.3073
 2144SOL    HW3 8343   0.772   2.145   3.460 -0.2450  0.5138 -0.2814
 2144SOL    MW4 8344   0.746   2.223   3.489  0.3697  0.6036 -0.0656
 2145SOL     OW 8345   4.926   1.368   1.664  0.3619 -0.6462 -0.0639
 2145SOL    HW2 8346   4.949   1.322   1.744  2.2528 -0.0213 -0.1821
 2145SOL    HW3 8347   4.868   1.308   1.617  0.3602 -1.6077  1.1193
 2145SOL    MW4 8348   4.921   1.354   1.668 -0.0983 -0.1090 -0.2173
 2146SOL     OW 8349   0.403   0.692   6.075  0.3976 -0.1291 -0.2761
 2146SOL    HW2 8350   0.400   0.787   6.082 -1.3886 -0.1876  0.3758
 2146SOL    HW3 8351   0.455   0.675   5.997  0.4487  1.3817 -0.6050
 2146SOL    MW4 8352   0.410   0.702   6.066  0.1765 -0.2016 -0.3077
 2147SOL     OW 8353   1.297   2.796   4.669  0.4357 -0.0682  0.1544
 2147SOL    HW2 8354   1.313   2.713   4.623  0.8679  0.0811  0.0307
 2147SOL    HW3 8355   1.325   2.779   4.759  2.0551  0.4047 -0.2125
 2147SOL    MW4 8356   1.303   2.783   4.675 -0.6424 -0.4454  0.2952
 2148SOL     OW 8357   2.393   5.832   6.226 -0.5417 -0.3552  0.4081
 2148SOL    HW2 8358   2.381   5.812   6.133  1.8497 -0.4017  0.0331
 2148SOL    HW3 8359   2.379   5.926   6.233  1.6367  0.1019 -0.5385
 2148SOL    MW4 8360   2.390   5.842   6.215  0.2050 -0.9316 -0.0132
 2149SOL     OW 8361   6.416   1.052   0.543 -0.1689  0.6346  0.0240
 2149SOL    HW2 8362   6.503   1.052   0.503 -0.6825  0.2963 -1.1349
 2149SOL    HW3 8363   6.428   1.005   0.626  0.1445 -2.3220 -1.5646
 2149SOL    MW4 8364   6.429   1.045   0.549 -0.4390  0.6814  0.2226
 2150SOL     OW 8365   0.383   4.553   0.417  0.1110  0.2194  0.4124
 2150SOL    HW2 8366   0.435   4.611   0.361 -1.0393 -0.5153 -1.5343
 2150SOL    HW3 8367   0.432   4.471   0.418  0.0052  0.1554  0.2895
 2150SOL    MW4 8368   0.397   4.550   0.410  0.0679  0.3531 -0.5154
 2151SOL     OW 8369   5.843   2.529   4.225 -0.2372 -0.2409  0.1705
 2151SOL    HW2 8370   5.771   2.520   4.162 -0.3165  0.3654  0.1695
 2151SOL    HW3 8371   5.808   2.493   4.307 -1.5148  2.4316  0.8998
 2151SOL    MW4 8372   5.829   2.523   4.227 -0.3360 -0.3316  0.5937
 2152SOL     OW 8373   0.993   5.408   0.252 -0.3937 -0.2762 -0.1565
 2152SOL    HW2 8374   1.006   5.501   0.272  1.2502 -0.4173 -0.4517
 2152SOL    HW3 8375   0.901   5.392   0.274 -1.1673  1.7818 -1.5252
 2152SOL    MW4 8376   0.982   5.418   0.257  0.3744 -0.3575 -0.0739
 2153SOL     OW 8377   1.953   2.822   0.666  0.2657 -0.0473 -0.1242
 2153SOL    HW2 8378   1.981   2.830   0.757  2.3551  0.5747 -0.7636
 2153SOL    HW3 8379   1.857   2.831   0.670  0.1811 -1.2117  2.0960
 2153SOL    MW4 8380   1.944   2.824   0.678  0.0093  0.4520  0.3127
 2154SOL     OW 8381   5.394   4.363   1.890  0.2970  0.0364  0.1856
 2154SOL    HW2 8382   5.473   4.415   1.877  1.7202 -1.9556  0.3165
 2154SOL    HW3 8383   5.360   4.392   1.975  1.1490  0.6163  0.3418
 2154SOL    MW4 8384   5.400   4.373   1.900  0.6441 -0.2689  0.0944
 2155SOL     OW 8385   1.595   4.583   3.460 -0.2271 -0.1865 -0.3450
 2155SOL    HW2 8386   1.574   4.559   3.551 -0.7686 -0.5058 -0.5552
 2155SOL    HW3 8387   1.691   4.576   3.456 -0.2861 -1.3044 -0.1100
 2155SOL    MW4 8388   1.605   4.579   3.472 -0.5862 -0.1897 -0.0806
 2156SOL     OW 8389   4.950   2.287   5.949  0.1322 -0.0645  0.3611
 2156SOL    HW2 8390   5.043   2.264   5.947  0.4863  1.1964  1.0758
 2156SOL    HW3 8391   4.914   2.249   5.869  1.4287  0.0896 -0.3230
 2156SOL    MW4 8392   4.958   2.279   5.938 -0.6616  0.2819 -0.4540
 2157SOL     OW 8393   1.658   0.400   1.066  0.5636 -0.0628 -0.0969
 2157SOL    HW2 8394   1.633   0.318   1.024 -1.5033  1.3819 -1.9094
 2157SOL    HW3 8395   1.600   0.407   1.141  0.0354  0.2034 -0.5261
 2157SOL    MW4 8396   1.647   0.390   1.070 -0.3242  0.2516 -0.1898
 2158SOL     OW 8397   1.754   1.634   0.794  0.0027  0.1137  0.4700
 2158SOL    HW2 8398   1.728   1.565   0.856 -2.2893 -0.8939 -1.4191
 2158SOL    HW3 8399   1.676   1.690   0.787  0.9105  1.3626 -0.0295
 2158SOL    MW4 8400   1.740   1.632   0.801 -0.1531  0.0033 -0.5283
 2159SOL     OW 8401   2.905   2.330   5.099 -0.7313  0.3862  0.0908
 2159SOL    HW2 8402   2.879   2.288   5.018  0.5921  0.6715 -0.5027
 2159SOL    HW3 8403   2.879   2.421   5.089 -0.2097  0.5059 -0.1797
 2159SOL    MW4 8404   2.898   2.336   5.087 -0.1419  0.1499 -0.9561
 2160SOL     OW 8405   6.375   2.344   6.139  0.3289  0.1646  0.1649
 2160SOL    HW2 8406   6.342   2.365   6.226  0.6793 -1.5191  0.7412
 2160SOL    HW3 8407   6.395   2.250   6.143 -1.6845 -0.4717 -2.3729
 2160SOL    MW4 8408   6.373   2.334   6.151 -0.4213 -0.1557 -0.4622
 2161SOL     OW 8409   2.913   5.384   3.755  0.2617  0.1585 -0.4689
 2161SOL    HW2 8410   2.981   5.443   3.724 -0.9344  1.6948 -0.2562
 2161SOL    HW3 8411   2.904   5.319   3.684  2.1172 -0.2761 -0.3670
 2161SOL    MW4 8412   2.921   5.383   3.741 -0.9903  0.1955  0.6638
 2162SOL     OW 8413   2.339   3.649   1.538  0.0827 -0.0450 -0.5711
 2162SOL    HW2 8414   2.253   3.692   1.538 -1.0239 -2.1267 -0.2643
 2162SOL    HW3 8415   2.360   3.637   1.445 -0.2792 -0.1396 -0.6417
 2162SOL    MW4 8416   2.330   3.653   1.526  0.0654  0.1793 -0.5297
 2163SOL     OW 8417   3.153   2.424   0.413 -0.4357  0.3368  0.3736
 2163SOL    HW2 8418   3.095   2.414   0.337 -1.1522 -0.6006  1.0252
 2163SOL    HW3 8419   3.115   2.368   0.480  0.8344  0.2576  1.0593
 2163SOL    MW4 8420   3.141   2.415   0.412  0.6976 -0.5309 -0.6246
 2164SOL     OW 8421   1.748   5.586   5.219 -0.6479  0.0844 -0.4959
 2164SOL    HW2 8422   1.658   5.576   5.190  0.0572 -0.9406 -2.5932
 2164SOL    HW3 8423   1.758   5.521   5.289 -1.1816 -0.8539 -1.2583
 2164SOL    MW4 8424   1.738   5.576   5.224 -0.2092 -0.3204 -0.0002
 2165SOL     OW 8425   0.174   2.008   4.542 -0.1047  0.5101  0.0253
 2165SOL    HW2 8426   0.151   2.092   4.502 -0.2105  0.6442  0.3700
 2165SOL    HW3 8427   0.261   2.022   4.580  0.1159  0.3001 -0.3966
 2165SOL    MW4 8428   0.182   2.021   4.542  0.4499  0.7188  0.7227
 2166SOL     OW 8429   2.228   4.416   5.873 -0.5006  0.1909 -0.0289
 2166SOL    HW2 8430   2.142   4.446   5.902 -0.1209  0.7065  0.5914
 2166SOL    HW3 8431   2.290   4.466   5.926  0.1525 -1.6472  1.0428
 2166SOL    MW4 8432   2.225   4.426   5.884  0.0258 -0.3848 -0.9291
 2167SOL     OW 8433   4.347   3.258   0.590 -0.6736 -0.5796 -0.1106
 2167SOL    HW2 8434   4.289   3.319   0.634  1.4319  0.8176  0.8877
 2167SOL    HW3 8435   4.413   3.235   0.655  0.4928 -1.2750 -1.4583
 2167SOL    MW4 8436   4.348   3.263   0.604  0.3003 -0.0433 -0.2355
 2168SOL     OW 8437   0.636   3.201   6.197 -0.0284  0.5601 -0.1717
 2168SOL    HW2 8438   0.612   3.290   6.171 -0.1081  0.6527  0.2131
 2168SOL    HW3 8439   0.721   3.187   6.157 -1.0914 -0.1188 -2.3734
 2168SOL    MW4 8440   0.644   3.211   6.188 -0.4405 -0.0706  0.0574
 2169SOL     OW 8441   1.696   6.020   6.259  0.1923 -0.1406 -0.0738
 2169SOL    HW2 8442   1.652   6.060   6.334  0.3658  0.1413 -0.1226
 2169SOL    HW3 8443   1.764   5.965   6.299  1.9230  1.8986 -0.0551
 2169SOL    MW4 8444   1.700   6.018   6.274 -0.0970  0.1279  0.0395
 2170SOL     OW 8445   1.890   4.930   3.309 -0.1692 -0.0428 -0.3622
 2170SOL    HW2 8446   1.891   5.019   3.346  2.4454 -0.1902  0.1233
 2170SOL    HW3 8447   1.844   4.878   3.375 -0.3157  0.6616  0.1107
 2170SOL    MW4 8448   1.884   4.935   3.323 -0.0397 -0.1009  0.0196
 2171SOL     OW 8449   1.591   2.081   1.340 -0.6804  0.2509  0.3117
 2171SOL    HW2 8450   1.677   2.118   1.321 -0.1359 -1.6377 -1.2443
 2171SOL    HW3 8451   1.537   2.156   1.363  0.3087  2.0256 -2.6473
 2171SOL    MW4 8452   1.596   2.095   1.341  0.3484  0.3177 -0.5388
 2172SOL     OW 8453   4.901   3.864   2.768  0.5082  0.2924 -0.1818
 2172SOL    HW2 8454   4.826   3.885   2.712 -0.0571  1.0158  0.8066
 2172SOL    HW3 8455   4.965   3.824   2.709  0.0856  1.3627 -1.4103
 2172SOL    MW4 8456   4.899   3.861   2.753  0.0737  0.0491  0.0426
 2173SOL     OW 8457   3.362   5.403   6.140 -0.2644  0.4752  0.0145
 2173SOL    HW2 8458   3.286   5.345   6.135  0.2016 -0.0971 -0.5950
 2173SOL    HW3 8459   3.326   5.491   6.130 -1.0971  0.3978  1.8840
 2173SOL    MW4 8460   3.347   5.407   6.138 -0.4997 -0.0786  0.5984
 2174SOL     OW 8461   5.544   0.538   6.142  0.5472  0.0629  0.6523
 2174SOL    HW2 8462   5.605   0.611   6.144  1.1032 -0.3908  0.7662
 2174SOL    HW3 8463   5.574   0.480   6.212 -1.2776  0.7933  2.0966
 2174SOL    MW4 8464   5.556   0.540   6.151 -0.0985  0.0448  0.2254
 2175SOL     OW 8465   5.234   4.220   3.070 -0.1239 -0.2401 -0.4595
 2175SOL    HW2 8466   5.157   4.267   3.038  0.3598  0.3595 -0.7529
 2175SOL    HW3 8467   5.215   4.128   3.050 -1.0173 -0.1667  0.0035
 2175SOL    MW4 8468   5.221   4.214   3.063 -0.3971 -0.0431  0.0272
 2176SOL     OW 8469   6.095   0.475   2.568  0.2070  0.3595 -0.4518
 2176SOL    HW2 8470   6.068   0.446   2.481  1.3607 -0.2527 -0.6116
 2176SOL    HW3 8471   6.020   0.526   2.600 -0.0102  1.1044 -2.0352
 2176SOL    MW4 8472   6.081   0.478   2.561  0.2876  0.0161 -0.4762
 2177SOL     OW 8473   3.857   2.464   1.929 -0.4926 -0.0269  0.4730
 2177SOL    HW2 8474   3.941   2.451   1.973 -0.9990 -1.9279  0.9652
 2177SOL    HW3 8475   3.793   2.426   1.988 -1.1744 -3.0579 -1.9066
 2177SOL    MW4 8476   3.860   2.457   1.943  0.5024  0.0748 -0.1515
 2178SOL     OW 8477   5.870   2.856   2.874  0.3339  0.3304  0.1606
 2178SOL    HW2 8478   5.832   2.935   2.836  0.8786 -0.0474 -1.2101
 2178SOL    HW3 8479   5.959   2.882   2.899  0.8432 -0.0746 -1.1623
 2178SOL    MW4 8480   5.877   2.870   2.873  0.4674 -0.0895 -0.2032
 2179SOL     OW 8481   4.435   6.053   2.375  0.3534  0.0862 -0.1661
 2179SOL    HW2 8482   4.388   5.993   2.433  0.3516  1.2297  1.0470
 2179SOL    HW3 8483   4.524   6.019   2.372 -0.0955 -1.1015 -1.1052
 2179SOL    MW4 8484   4.441   6.041   2.382  0.2563 -0.0593 -0.4255
 2180SOL     OW 8485   1.008   5.008   3.932 -0.2438 -0.4046  0.3927
 2180SOL    HW2 8486   1.088   4.966   3.962  0.4087  0.2354 -0.3992
 2180SOL    HW3 8487   1.037   5.089   3.891 -1.1388 -0.9037 -1.3221
 2180SOL    MW4 8488   1.022   5.013   3.931  0.3323  0.3000  0.1413
 2181SOL     OW 8489   0.060   5.953   3.079  0.1668 -0.2290  0.2204
 2181SOL    HW2 8490   0.131   5.927   3.021 -0.0303  1.8908 -1.0575
 2181SOL    HW3 8491  -0.011   5.892   3.059 -0.3641  1.2322 -2.8242
 2181SOL    MW4 8492   0.060   5.942   3.069  0.1821  0.1044  0.3422
 2182SOL     OW 8493   3.288   0.695   6.412 -0.1841  0.8318  0.6779
 2182SOL    HW2 8494   3.252   0.777   6.446 -0.7324  0.4329  1.0766
 2182SOL    HW3 8495   3.348   0.664   6.481  1.3001  1.7078 -0.1593
 2182SOL    MW4 8496   3.291   0.702   6.426  0.1307  0.1148 -0.3085
 2183SOL     OW 8497   4.037   1.060   4.453 -0.4233  0.5765  0.0598
 2183SOL    HW2 8498   4.060   1.067   4.545  1.0884  1.6930 -0.3520
 2183SOL    HW3 8499   3.950   1.021   4.452 -0.0130 -0.4842  1.8964
 2183SOL    MW4 8500   4.029   1.056   4.465 -0.2215  0.0012  0.1128
 2184SOL     OW 8501   2.875   3.865   0.490 -0.6395  0.5616 -0.1859
 2184SOL    HW2 8502   2.970   3.857   0.502 -0.6838 -0.8192 -0.5878
 2184SOL    HW3 8503   2.839   3.857   0.578 -0.4501 -0.1946 -0.1745
 2184SOL    MW4 8504   2.883   3.863   0.503  0.0955  0.2912  0.4286
 2185SOL     OW 8505   3.822   1.064   4.790  0.0500  0.1715  0.0383
 2185SOL    HW2 8506   3.755   1.103   4.735  0.9563  0.1948 -1.0897
 2185SOL    HW3 8507   3.818   1.114   4.872 -0.7526  0.6974 -0.3154
 2185SOL    MW4 8508   3.813   1.076   4.794 -0.2995 -0.3200  0.3851
 2186SOL     OW 8509   2.593   1.038   0.080  0.0108  0.0751 -0.4176
 2186SOL    HW2 8510   2.570   1.042   0.173 -2.6514  2.3529 -1.0309
 2186SOL    HW3 8511   2.656   1.109   0.069 -0.8516  0.8519 -0.5517
 2186SOL    MW4 8512   2.598   1.048   0.091 -0.1671  0.2353 -0.0141
 2187SOL     OW 8513   2.031   0.494   0.497 -0.1680  0.3246  0.4585
 2187SOL    HW2 8514   2.117   0.459   0.520 -1.3335 -2.3793  1.0517
 2187SOL    HW3 8515   1.980   0.489   0.578 -1.1711  0.9632 -0.1110
 2187SOL    MW4 8516   2.035   0.489   0.511 -0.1434  0.1215  0.0958
 2188SOL     OW 8517   6.292   4.372   2.911  0.0141 -0.1271  0.2822
 2188SOL    HW2 8518   6.307   4.466   2.903 -1.0280 -0.0249 -0.7541
 2188SOL    HW3 8519   6.367   4.331   2.868  1.0880  0.1752  1.7945
 2188SOL    MW4 8520   6.304   4.379   2.905  0.2130 -0.3031  0.2550
 2189SOL     OW 8521   2.604   2.103   0.694 -0.2022  0.6413  0.7520
 2189SOL    HW2 8522   2.525   2.096   0.640  0.4645  1.2281 -0.3292
 2189SOL    HW3 8523   2.650   2.020   0.680 -0.6857  0.2454  1.4864
 2189SOL    MW4 8524   2.600   2.091   0.685  0.0972 -0.1919  0.7644
 2190SOL     OW 8525   2.377   5.229   5.453 -0.2576  0.1173  0.7580
 2190SOL    HW2 8526   2.293   5.250   5.414  0.3243 -0.0877 -0.6392
 2190SOL    HW3 8527   2.362   5.236   5.548 -1.9475 -0.3463  0.5486
 2190SOL    MW4 8528   2.364   5.233   5.461  0.3861  0.1929  0.2827
 2191SOL     OW 8529   4.579   4.337   2.521 -0.0510 -0.4612 -0.3161
 2191SOL    HW2 8530   4.629   4.356   2.600 -0.1364 -0.5178 -0.2494
 2191SOL    HW3 8531   4.491   4.371   2.539 -0.2285 -0.9919 -0.1672
 2191SOL    MW4 8532   4.574   4.344   2.534 -0.5840  0.0586 -0.1629
 2192SOL     OW 8533   6.382   2.997   3.158  0.1669  0.2489  0.0936
 2192SOL    HW2 8534   6.458   3.056   3.160  0.9197 -0.6944  2.7870
 2192SOL    HW3 8535   6.307   3.054   3.173  0.5464  0.8937 -0.3966
 2192SOL    MW4 8536   6.382   3.012   3.160 -0.1070 -0.1567 -0.0495
 2193SOL     OW 8537   5.839   1.905   2.343  0.4427  0.4619 -0.2892
 2193SOL    HW2 8538   5.804   1.979   2.392  0.6784  0.5274 -0.2196
 2193SOL    HW3 8539   5.874   1.944   2.262 -0.7820  0.2474 -0.9569
 2193SOL    MW4 8540   5.839   1.920   2.338 -0.0856  0.2014  0.5303
 2194SOL     OW 8541   3.361   5.763   3.235  0.2740 -0.0630  0.0730
 2194SOL    HW2 8542   3.409   5.682   3.214  0.2636 -0.5253  1.7140
 2194SOL    HW3 8543   3.416   5.807   3.300  1.0473  2.0752 -1.8777
 2194SOL    MW4 8544   3.375   5.758   3.241  0.5490  0.6054 -0.4847
 2195SOL     OW 8545   2.460   2.856   2.451  0.5607  0.0550 -0.4436
 2195SOL    HW2 8546   2.440   2.837   2.359  0.9512 -2.9304 -0.0038
 2195SOL    HW3 8547   2.392   2.811   2.500  0.6809  1.1574  0.7707
 2195SOL    MW4 8548   2.449   2.847   2.445  0.0178  0.2839  0.4106
 2196SOL     OW 8549   0.719   0.406   6.270  0.0407  0.2479  0.3081
 2196SOL    HW2 8550   0.814   0.405   6.263 -0.0891 -0.1902 -2.8491
 2196SOL    HW3 8551   0.700   0.364   6.354  2.5839 -2.3015 -0.2625
 2196SOL    MW4 8552   0.729   0.401   6.281  0.4297  0.3821  0.0279
 2197SOL     OW 8553   0.551   3.490   3.732 -0.0710 -0.4890  0.2711
 2197SOL    HW2 8554   0.507   3.415   3.690  1.0970  0.2825 -2.6106
 2197SOL    HW3 8555   0.487   3.560   3.729 -0.1927 -0.6002  0.2723
 2197SOL    MW4 8556   0.537   3.489   3.726  0.0119 -0.0204 -0.0315
 2198SOL     OW 8557   4.084   3.686   1.224 -0.2621 -0.5399 -0.5210
 2198SOL    HW2 8558   4.085   3.591   1.233 -0.5572 -0.6083 -1.1913
 2198SOL    HW3 8559   4.033   3.716   1.300  2.6953 -0.6394  1.7131
 2198SOL    MW4 8560   4.077   3.678   1.235  0.2441  0.1097 -0.0737
 2199SOL     OW 8561   1.094   3.864   6.377 -0.5551  0.1097 -0.0224
 2199SOL    HW2 8562   1.164   3.928   6.362  0.0487 -0.8539 -1.6463
 2199SOL    HW3 8563   1.078   3.867   6.471 -1.2162  3.2910 -0.1526
 2199SOL    MW4 8564   1.101   3.873   6.388 -0.6588 -0.3106 -0.2384
 2200SOL     OW 8565   5.450   4.311   3.706 -0.2999 -0.5913  0.7082
 2200SOL    HW2 8566   5.429   4.242   3.769  0.6019 -1.0738  0.4960
 2200SOL    HW3 8567   5.532   4.283   3.666 -0.5822 -0.0214 -0.3032
 2200SOL    MW4 8568   5.458   4.298   3.709  0.4404  0.4542  0.0527
 2201SOL     OW 8569   6.296   3.886   0.940  0.5679  0.0950  0.5478
 2201SOL    HW2 8570   6.234   3.819   0.911 -0.2410  0.5874  1.1053
 2201SOL    HW3 8571   6.382   3.842   0.937  0.0053 -1.1268  1.3473
 2201SOL    MW4 8572   6.299   3.871   0.936 -0.3058 -0.4937  0.0199
 2202SOL     OW 8573   5.680   5.126   5.225  0.2962  0.0536  0.2818
 2202SOL    HW2 8574   5.695   5.035   5.251  0.3183  0.9289  3.7331
 2202SOL    HW3 8575   5.764   5.170   5.241  0.5963  0.6027 -2.2912
 2202SOL    MW4 8576   5.693   5.120   5.230 -0.3275  0.2928 -0.4102
 2203SOL     OW 8577   4.519   2.021   3.774 -0.5478 -0.2631  0.0553
 2203SOL    HW2 8578   4.609   2.036   3.743 -0.1922 -1.0199  0.6805
 2203SOL    HW3 8579   4.525   2.034   3.869 -0.8673 -1.3989  0.2346
 2203SOL    MW4 8580   4.532   2.025   3.783  0.2024 -0.1164 -0.4810
 2204SOL     OW 8581   1.623   4.174   1.966  0.2362  0.3446  0.6504
 2204SOL    HW2 8582   1.701   4.193   1.914  0.3747  0.1778  0.7956
 2204SOL    HW3 8583   1.643   4.210   2.052 -0.4799  1.7105  0.2676
 2204SOL    MW4 8584   1.636   4.181   1.971  0.0719  0.3125  0.5013
 2205SOL     OW 8585   0.302   6.109   2.366 -0.3940  0.4221  0.0962
 2205SOL    HW2 8586   0.371   6.061   2.320  0.7500  0.5496  1.6110
 2205SOL    HW3 8587   0.345   6.190   2.396 -1.1950  0.5112  1.0564
 2205SOL    MW4 8588   0.317   6.114   2.364  0.0137  0.4968  0.0784
 2206SOL     OW 8589   4.094   2.589   0.102 -0.4361 -0.3410 -0.3366
 2206SOL    HW2 8590   4.113   2.683   0.106  1.6053 -0.7196  2.8895
 2206SOL    HW3 8591   4.001   2.583   0.125  0.0685  0.8753  2.5104
 2206SOL    MW4 8592   4.084   2.601   0.106  0.2849 -0.0657  0.2813
 2207SOL     OW 8593   0.508   0.186   3.353 -0.1511  0.1104  0.1271
 2207SOL    HW2 8594   0.499   0.129   3.276  2.4038  1.3013 -1.1780
 2207SOL    HW3 8595   0.518   0.274   3.317  1.9742  0.6076  1.7185
 2207SOL    MW4 8596   0.508   0.190   3.338 -0.1876 -0.1927  0.0428
 2208SOL     OW 8597   3.980   6.353   2.009  0.7000  0.1702  0.9695
 2208SOL    HW2 8598   4.020   6.440   2.011  0.4348  0.3718 -1.0235
 2208SOL    HW3 8599   4.046   6.298   1.966  0.5294 -0.4526  1.4829
 2208SOL    MW4 8600   3.994   6.357   2.004  0.2209 -0.1109  0.3130
 2209SOL     OW 8601   2.006   4.659   5.752  0.3068 -0.3611 -0.5455
 2209SOL    HW2 8602   1.925   4.684   5.707 -0.2332 -2.0142 -0.5672
 2209SOL    HW3 8603   2.052   4.603   5.689 -0.5636 -2.8966  0.9150
 2209SOL    MW4 8604   2.001   4.655   5.738 -0.4202 -0.3474 -0.2322
 2210SOL     OW 8605   1.865   3.736   4.697 -0.0903  0.2094 -0.0267
 2210SOL    HW2 8606   1.958   3.714   4.697  0.2382  1.5503  0.4072
 2210SOL    HW3 8607   1.841   3.736   4.789 -0.6920 -0.7658 -0.1698
 2210SOL    MW4 8608   1.874   3.733   4.709  0.0041  0.4356  0.7602
 2211SOL     OW 8609   3.717   1.903   0.366  0.4891 -0.4931 -0.3499
 2211SOL    HW2 8610   3.785   1.890   0.300 -0.0517 -0.4704 -0.9302
 2211SOL    HW3 8611   3.649   1.953   0.320  0.3807  0.0758  0.4144
 2211SOL    MW4 8612   3.717   1.908   0.351 -0.1354  0.0477  0.2184
 2212SOL     OW 8613   1.765   5.070   5.478  0.2393  0.2901 -0.2773
 2212SOL    HW2 8614   1.804   5.012   5.414 -0.8464 -1.5652  0.6448
 2212SOL    HW3 8615   1.671   5.068   5.459 -0.0645  0.0013  1.0787
 2212SOL    MW4 8616   1.758   5.062   5.467 -0.0711 -0.8365  0.0864
 2213SOL     OW 8617   1.897   2.619   1.002  0.0946 -0.7734 -0.1167
 2213SOL    HW2 8618   1.809   2.601   0.968  0.0106 -0.1843 -0.2261
 2213SOL    HW3 8619   1.883   2.685   1.070  0.6780  1.2721 -1.8464
 2213SOL    MW4 8620   1.883   2.625   1.006  0.0916 -0.3369  0.0189
 2214SOL     OW 8621   6.040   0.343   6.423  0.0940  0.0873 -0.3563
 2214SOL    HW2 8622   5.985   0.341   6.502  0.2007  0.0806 -0.2830
 2214SOL    HW3 8623   6.078   0.255   6.419 -0.6833 -0.2457 -0.9540
 2214SOL    MW4 8624   6.038   0.331   6.433 -0.3206 -0.2986  0.6625
 2215SOL     OW 8625   2.714   0.649   2.105  0.3178 -0.3590  0.1523
 2215SOL    HW2 8626   2.731   0.715   2.172 -1.4166  0.5481 -0.2539
 2215SOL    HW3 8627   2.705   0.698   2.024  0.5175 -1.2557 -0.4273
 2215SOL    MW4 8628   2.715   0.664   2.103  0.3742 -0.2574 -0.3724
 2216SOL     OW 8629   0.805   3.142   3.940 -0.3909  0.2994 -0.1854
 2216SOL    HW2 8630   0.842   3.058   3.916  0.0356 -0.0282  1.4939
 2216SOL    HW3 8631   0.809   3.194   3.860  1.3531 -0.5509 -0.6938
 2216SOL    MW4 8632   0.810   3.138   3.927  0.3041 -0.3538 -0.5164
 2217SOL     OW 8633   2.805   2.907   2.350  0.4048  0.3029  0.3387
 2217SOL    HW2 8634   2.786   2.960   2.273  0.3501  0.0087  0.1459
 2217SOL    HW3 8635   2.726   2.914   2.404 -1.5120 -3.0208 -1.6510
 2217SOL    MW4 8636   2.792   2.915   2.347 -0.4855 -0.1002  0.4979
 2218SOL     OW 8637   2.245   3.118   4.803 -0.3026 -0.1571 -0.7437
 2218SOL    HW2 8638   2.162   3.146   4.841 -0.5461  0.8319 -1.9192
 2218SOL    HW3 8639   2.242   3.023   4.806 -1.2380 -0.1225 -0.2709
 2218SOL    MW4 8640   2.234   3.109   4.808 -0.4906 -0.5703  0.4906
 2219SOL     OW 8641   5.935   0.566   1.040 -0.8077  0.4508  0.2771
 2219SOL    HW2 8642   5.963   0.655   1.060 -0.8702  0.2576  1.2851
 2219SOL    HW3 8643   5.883   0.574   0.960  0.5773  1.0674 -0.5879
 2219SOL    MW4 8644   5.932   0.578   1.032 -0.0243 -0.1829  0.2459
 2220SOL     OW 8645   0.810   5.880   2.724 -0.3870  0.5028  0.0469
 2220SOL    HW2 8646   0.826   5.895   2.817 -0.8826 -1.0183  0.3980
 2220SOL    HW3 8647   0.767   5.795   2.720 -2.3266  1.4788 -1.4038
 2220SOL    MW4 8648   0.807   5.871   2.736  0.4146 -0.2264 -0.1165
 2221SOL     OW 8649   5.630   1.621   2.149 -0.3257 -0.0568 -0.0101
 2221SOL    HW2 8650   5.582   1.703   2.136 -0.0696 -0.1664 -1.9464
 2221SOL    HW3 8651   5.671   1.631   2.234 -0.3841  1.7899 -0.1499
 2221SOL    MW4 8652   5.629   1.633   2.158 -0.0627  0.8457  0.0347
 2222SOL     OW 8653   0.741   3.472   4.851  0.0117 -0.2687  0.4836
 2222SOL    HW2 8654   0.655   3.503   4.822 -0.3593 -1.4434  0.2723
 2222SOL    HW3 8655   0.801   3.503   4.783 -0.4007 -0.3211  0.0852
 2222SOL    MW4 8656   0.737   3.480   4.838  0.2671 -0.1740 -0.0251
 2223SOL     OW 8657   5.189   0.667   2.968 -0.0721 -0.6760 -0.3502
 2223SOL    HW2 8658   5.173   0.761   2.971 -0.4986 -0.7789  1.0736
 2223SOL    HW3 8659   5.284   0.658   2.979  0.4350 -0.3222 -3.4469
 2223SOL    MW4 8660   5.199   0.678   2.970 -0.1451  0.3383  0.1073
 2224SOL     OW 8661   5.372   4.125   3.894  0.0551  0.0064  0.1428
 2224SOL    HW2 8662   5.299   4.079   3.853  1.0091 -2.1325  0.7193
 2224SOL    HW3 8663   5.344   4.137   3.985 -1.7208  4.0279 -0.7208
 2224SOL    MW4 8664   5.358   4.120   3.901  0.2084 -0.3694 -0.9117
 2225SOL     OW 8665   2.865   1.583   2.962  0.1402 -0.4897  0.3508
 2225SOL    HW2 8666   2.883   1.631   2.881 -3.3230  2.1579  0.9425
 2225SOL    HW3 8667   2.933   1.613   3.022 -0.6185  2.0865  0.0273
 2225SOL    MW4 8668   2.877   1.593   2.959 -0.7160 -0.0129 -0.0380
 2226SOL     OW 8669   2.463   5.511   0.703 -0.3854  0.0013 -0.2707
 2226SOL    HW2 8670   2.378   5.492   0.742 -1.2449  0.8637 -1.6478
 2226SOL    HW3 8671   2.505   5.425   0.696 -1.5056 -0.5597 -0.3755
 2226SOL    MW4 8672   2.458   5.497   0.707  0.9189 -0.0903  0.3455
 2227SOL     OW 8673   1.081   5.391   1.596 -0.2058 -0.3946 -0.2106
 2227SOL    HW2 8674   1.028   5.417   1.671  0.3322  1.0169 -0.2867
 2227SOL    HW3 8675   1.170   5.385   1.631 -0.1047 -0.7430 -0.5202
 2227SOL    MW4 8676   1.086   5.394   1.610 -0.0165  0.0252 -0.5919
 2228SOL     OW 8677   6.220   3.821   5.425  0.5915 -0.0764  0.4763
 2228SOL    HW2 8678   6.316   3.812   5.427  0.6285  0.1288  3.0968
 2228SOL    HW3 8679   6.197   3.807   5.334  3.0340 -1.1590 -0.0676
 2228SOL    MW4 8680   6.230   3.818   5.414 -0.0824  0.1117  0.3168
 2229SOL     OW 8681   2.344   6.070   0.898  0.1615 -0.4122  0.4902
 2229SOL    HW2 8682   2.383   6.097   0.814  1.4877  1.3800  1.6068
 2229SOL    HW3 8683   2.257   6.108   0.897  0.0800 -0.5887 -0.1399
 2229SOL    MW4 8684   2.338   6.078   0.887 -0.1579 -0.7301 -1.0032
 2230SOL     OW 8685   1.441   0.479   3.040  0.0133 -0.0133  0.3722
 2230SOL    HW2 8686   1.380   0.488   2.966  1.3428  2.4753 -0.5235
 2230SOL    HW3 8687   1.385   0.489   3.118 -0.9188  0.9073 -0.3867
 2230SOL    MW4 8688   1.425   0.481   3.041  0.2893 -0.3540 -0.0880
 2231SOL     OW 8689   3.112   2.733   5.478  0.0178  0.8719  0.2254
 2231SOL    HW2 8690   3.186   2.790   5.498  1.4459 -1.1999  1.1724
 2231SOL    HW3 8691   3.048   2.750   5.547  0.6512  0.9765  0.7962
 2231SOL    MW4 8692   3.113   2.743   5.489 -0.3260  0.4979 -0.3093
 2232SOL     OW 8693   4.807   3.142   4.740 -0.3348 -0.7920  0.1861
 2232SOL    HW2 8694   4.857   3.061   4.726 -1.2142 -1.8243  2.5001
 2232SOL    HW3 8695   4.746   3.145   4.666 -0.2614 -2.2229  0.0238
 2232SOL    MW4 8696   4.806   3.131   4.728  0.0069  0.3094 -0.0509
 2233SOL     OW 8697   2.664   1.829   2.387  0.4469  0.4262 -0.3458
 2233SOL    HW2 8698   2.633   1.917   2.366 -0.0895  0.5020  0.7249
 2233SOL    HW3 8699   2.595   1.791   2.441  0.8387 -0.5293 -0.4895
 2233SOL    MW4 8700   2.651   1.836   2.391 -0.2313  0.3451  0.0721
 2234SOL     OW 8701   3.066   1.117   1.346 -0.5973 -0.1875  0.0341
 2234SOL    HW2 8702   3.075   1.179   1.419  0.3280  0.9665 -1.0010
 2234SOL    HW3 8703   2.995   1.059   1.372  2.1085 -2.3735  3.6396
 2234SOL    MW4 8704   3.058   1.118   1.359  0.3301 -0.2221 -0.1721
 2235SOL     OW 8705   4.340   2.776   6.303  0.2273  0.0617  0.5086
 2235SOL    HW2 8706   4.367   2.834   6.231  0.0454  0.3676  0.6865
 2235SOL    HW3 8707   4.277   2.716   6.262 -1.5169  1.5519  0.8412
 2235SOL    MW4 8708   4.335   2.776   6.288  0.2253 -0.4836 -0.3684
 2236SOL     OW 8709   5.777   5.461   3.182  0.5795 -0.5034 -0.6185
 2236SOL    HW2 8710   5.707   5.438   3.244 -0.7230  0.0686 -1.8235
 2236SOL    HW3 8711   5.854   5.475   3.237 -0.3598 -0.6962  0.7964
 2236SOL    MW4 8712   5.778   5.460   3.197 -0.2731 -0.4561 -0.1741
 2237SOL     OW 8713   0.761   6.289   1.289 -0.5487  0.1917 -0.6012
 2237SOL    HW2 8714   0.758   6.200   1.253 -0.0943  0.1573 -0.5568
 2237SOL    HW3 8715   0.682   6.331   1.256 -0.6106 -0.1354 -0.8705
 2237SOL    MW4 8716   0.750   6.283   1.280  0.4562 -0.5138 -0.7706
 2238SOL     OW 8717   5.258   2.045   2.195 -0.3951  0.1072  0.0332
 2238SOL    HW2 8718   5.332   2.070   2.139  0.2361 -0.1107  0.7413
 2238SOL    HW3 8719   5.275   1.954   2.218 -0.6828  0.1683  0.5128
 2238SOL    MW4 8720   5.270   2.037   2.191 -0.0794 -0.4647  0.6847
 2239SOL     OW 8721   2.889   6.426   4.520  0.9997 -0.3860 -0.1533
 2239SOL    HW2 8722   2.945   6.375   4.579  1.1850 -0.6630 -0.5648
 2239SOL    HW3 8723   2.948   6.456   4.451  0.9949  0.8085  0.3371
 2239SOL    MW4 8724   2.904   6.423   4.519 -0.0662  0.3614 -0.5708
 2240SOL     OW 8725   3.006   3.519   3.432  0.1170 -0.0646 -0.4399
 2240SOL    HW2 8726   2.934   3.551   3.378  0.3110  1.6818  0.2331
 2240SOL    HW3 8727   3.076   3.499   3.371 -0.0114  0.9159 -0.9322
 2240SOL    MW4 8728   3.005   3.521   3.417 -0.2078 -0.3263  0.2525
 2241SOL     OW 8729   3.886   1.891   5.373  0.1634  0.2632  0.0629
 2241SOL    HW2 8730   3.802   1.863   5.409  0.4262 -0.0972  0.4124
 2241SOL    HW3 8731   3.883   1.987   5.375  0.4031  0.2666  1.6516
 2241SOL    MW4 8732   3.875   1.900   5.378 -0.1904 -0.0127 -0.0570
 2242SOL     OW 8733   0.664   2.529   5.524 -0.3310  0.3066 -0.3997
 2242SOL    HW2 8734   0.645   2.622   5.515  0.7180  0.6797  1.0226
 2242SOL    HW3 8735   0.589   2.494   5.572 -0.2860  0.6039 -0.1093
 2242SOL    MW4 8736   0.652   2.536   5.529  0.2135  0.0700  0.0040
 2243SOL     OW 8737   2.852   4.636   4.289  0.4551  0.1943  0.0428
 2243SOL    HW2 8738   2.860   4.618   4.383  0.8262 -0.5798 -0.1319
 2243SOL    HW3 8739   2.854   4.731   4.283  1.9945  0.2354  0.6905
 2243SOL    MW4 8740   2.853   4.646   4.301  0.3072  0.0725  0.0017
 2244SOL     OW 8741   3.755   5.454   2.983  0.4256 -0.7099  0.5004
 2244SOL    HW2 8742   3.779   5.429   2.894 -0.9640 -1.8172  0.4004
 2244SOL    HW3 8743   3.835   5.490   3.020  1.4843 -1.7422 -0.6715
 2244SOL    MW4 8744   3.768   5.455   2.976  0.0259  0.3679 -0.3347
 2245SOL     OW 8745   5.941   6.382   0.171  0.0114  0.1987  0.3520
 2245SOL    HW2 8746   6.007   6.335   0.222  0.8753  0.2103 -0.7103
 2245SOL    HW3 8747   5.857   6.352   0.205  0.5349  0.6737  2.2057
 2245SOL    MW4 8748   5.939   6.372   0.182  0.3273  0.0343 -0.8885
 2246SOL     OW 8749   2.878   1.439   0.993  0.0994  0.1073  0.1609
 2246SOL    HW2 8750   2.914   1.409   1.077  0.3224  0.0220  0.0354
 2246SOL    HW3 8751   2.953   1.441   0.934 -0.4138 -1.8875 -0.6184
 2246SOL    MW4 8752   2.893   1.435   0.996  0.0113  0.0692 -0.1896
 2247SOL     OW 8753   3.543   5.858   5.933  0.1030  0.2303 -0.2405
 2247SOL    HW2 8754   3.595   5.938   5.937  1.1604 -0.4621  0.1625
 2247SOL    HW3 8755   3.602   5.789   5.963 -0.6151 -0.7934 -1.1029
 2247SOL    MW4 8756   3.557   5.860   5.938 -0.0229 -0.7808  0.2249
 2248SOL     OW 8757   1.699   4.845   4.311  0.7151  0.3698  0.2416
 2248SOL    HW2 8758   1.697   4.751   4.328 -0.7814  0.0114 -1.5649
 2248SOL    HW3 8759   1.713   4.885   4.397 -0.2927 -1.4630  1.3186
 2248SOL    MW4 8760   1.700   4.838   4.325  1.0294 -0.4309 -0.0373
 2249SOL     OW 8761   1.880   5.686   4.753  0.3406  0.3743 -0.6678
 2249SOL    HW2 8762   1.971   5.717   4.760  0.0461  0.9759  0.8569
 2249SOL    HW3 8763   1.871   5.623   4.824  0.2298 -1.5355 -2.2905
 2249SOL    MW4 8764   1.891   5.682   4.764  0.2162 -0.0190 -0.3018
 2250SOL     OW 8765   3.428   2.875   3.879 -0.3080  0.3646  0.1920
 2250SOL    HW2 8766   3.483   2.907   3.951 -1.6231  1.9774  0.5659
 2250SOL    HW3 8767   3.472   2.905   3.800  0.0427  0.4596  0.4213
 2250SOL    MW4 8768   3.441   2.883   3.878 -0.3167 -0.1364  0.1040
 2251SOL     OW 8769   2.661   1.028   3.012  0.6368  0.3974  0.3087
 2251SOL    HW2 8770   2.729   1.020   2.945  0.2828 -0.1156 -0.0022
 2251SOL    HW3 8771   2.580   1.041   2.963  0.5180  1.0942  0.6783
 2251SOL    MW4 8772   2.659   1.028   2.997 -0.2461 -0.7377 -0.0840
 2252SOL     OW 8773   3.236   2.279   3.451  0.2932  0.3509  0.1471
 2252SOL    HW2 8774   3.296   2.351   3.470  0.2929  0.2445  0.5699
 2252SOL    HW3 8775   3.192   2.262   3.534  1.5915 -1.3203  0.5492
 2252SOL    MW4 8776   3.238   2.286   3.464  0.2413  0.5062 -0.2094
 2253SOL     OW 8777   1.371   6.125   2.922  0.7812 -0.1396 -0.3661
 2253SOL    HW2 8778   1.360   6.211   2.880 -0.9716 -0.4253 -0.5609
 2253SOL    HW3 8779   1.463   6.124   2.950  0.9328  1.6542 -0.6612
 2253SOL    MW4 8780   1.382   6.136   2.920 -0.3265 -0.5842 -0.6215
 2254SOL     OW 8781   0.535   4.339   4.825 -0.3756 -0.0668 -0.0955
 2254SOL    HW2 8782   0.602   4.403   4.850 -0.1773 -0.2219 -0.2296
 2254SOL    HW3 8783   0.472   4.390   4.773 -1.0263  0.3594  1.0660
 2254SOL    MW4 8784   0.535   4.354   4.821 -0.5336  0.1122  0.5345
 2255SOL     OW 8785   1.375   5.889   5.667 -0.4699  0.2271 -0.0161
 2255SOL    HW2 8786   1.367   5.860   5.757 -0.7172 -0.5859 -0.2904
 2255SOL    HW3 8787   1.455   5.941   5.664 -1.6807  2.3097  1.1993
 2255SOL    MW4 8788   1.384   5.892   5.678  0.2089  0.1279 -0.6363
 2256SOL     OW 8789   3.041   4.622   3.672  0.2201 -0.1967 -0.1381
 2256SOL    HW2 8790   3.005   4.674   3.600 -3.2607 -0.5336  1.1725
 2256SOL    HW3 8791   2.998   4.656   3.750 -0.7765 -3.6837  1.0034
 2256SOL    MW4 8792   3.031   4.633   3.672  0.3516 -0.2760 -0.6559
 2257SOL     OW 8793   0.592   0.197   1.907  0.4960 -0.1123  0.2860
 2257SOL    HW2 8794   0.611   0.111   1.869  0.0547  0.4134 -1.1890
 2257SOL    HW3 8795   0.678   0.237   1.921  0.6598  0.4036 -1.9392
 2257SOL    MW4 8796   0.606   0.191   1.904  0.1440 -0.3068 -1.1179
 2258SOL     OW 8797   5.900   2.891   0.674  0.2422  0.3089 -0.0383
 2258SOL    HW2 8798   5.835   2.821   0.680  0.8478 -0.5409 -2.5720
 2258SOL    HW3 8799   5.970   2.863   0.733 -0.0640 -0.6068 -0.0894
 2258SOL    MW4 8800   5.901   2.878   0.683  0.2485  0.1393 -0.2406
 2259SOL     OW 8801   1.909   0.909   6.190 -0.1731  0.2809  0.7376
 2259SOL    HW2 8802   1.948   0.822   6.183  0.6578  0.7187 -0.4847
 2259SOL    HW3 8803   1.897   0.922   6.284 -0.2316 -1.1018  0.9473
 2259SOL    MW4 8804   1.913   0.899   6.202  0.7075 -0.1325  0.8063
 2260SOL     OW 8805   0.457   4.677   3.563 -0.2709 -0.8232  0.1309
 2260SOL    HW2 8806   0.460   4.582   3.553  2.3687 -0.9796  1.5257
 2260SOL    HW3 8807   0.540   4.708   3.526 -0.2805  0.7414  1.3123
 2260SOL    MW4 8808   0.469   4.668   3.556 -0.0402  0.2181  0.2945
 2261SOL     OW 8809   3.587   0.292   4.696 -0.0911 -0.2801 -0.5831
 2261SOL    HW2 8810   3.536   0.232   4.641 -1.3456  0.7538 -0.5985
 2261SOL    HW3 8811   3.549   0.378   4.678  0.5571  0.2898  0.6910
 2261SOL    MW4 8812   3.575   0.295   4.687  0.6106  0.0783  0.3731
 2262SOL     OW 8813   3.446   3.229   3.061  0.3342 -0.0187  0.4578
 2262SOL    HW2 8814   3.370   3.180   3.028  0.0508  1.2208 -0.7831
 2262SOL    HW3 8815   3.408   3.298   3.115  0.6372  0.0835  0.5404
 2262SOL    MW4 8816   3.431   3.231   3.064  0.1434 -0.0080  0.7587
 2263SOL     OW 8817   5.437   2.129   2.510  0.3916  0.1640  0.4230
 2263SOL    HW2 8818   5.413   2.170   2.593 -0.9067  0.7721 -0.2274
 2263SOL    HW3 8819   5.354   2.096   2.474  0.8033  0.6133 -0.9948
 2263SOL    MW4 8820   5.423   2.130   2.516 -0.2644 -0.3752 -0.1891
 2264SOL     OW 8821   4.640   3.360   2.264 -0.2710  0.8638 -0.1615
 2264SOL    HW2 8822   4.716   3.303   2.255 -0.5592  0.2789  0.9504
 2264SOL    HW3 8823   4.588   3.344   2.185  0.5951  1.0329 -0.7714
 2264SOL    MW4 8824   4.643   3.351   2.253  0.1722  0.1893 -0.1088
 2265SOL     OW 8825   6.088   4.490   4.147  0.2316  0.1762  0.1935
 2265SOL    HW2 8826   6.076   4.398   4.171 -0.6452 -0.1604 -1.4125
 2265SOL    HW3 8827   6.102   4.534   4.230 -0.6252 -1.2182  1.1298
 2265SOL    MW4 8828   6.088   4.484   4.161 -0.4370  0.0014  0.2362
 2266SOL     OW 8829   0.194   4.224   4.969 -0.5703  0.3144  0.0445
 2266SOL    HW2 8830   0.252   4.168   5.020 -0.4863  0.1345 -0.2419
 2266SOL    HW3 8831   0.110   4.178   4.970 -1.1157  1.2884  1.6684
 2266SOL    MW4 8832   0.191   4.210   4.976  0.2849  0.0027 -0.2888
 2267SOL     OW 8833   4.012   4.254   3.922 -0.0053  0.3483 -0.4373
 2267SOL    HW2 8834   3.935   4.259   3.978  2.2114  0.2633  2.8733
 2267SOL    HW3 8835   4.051   4.169   3.941  0.9429  0.3753 -2.0264
 2267SOL    MW4 8836   4.007   4.243   3.932 -0.3948 -0.0465 -0.1886
 2268SOL     OW 8837   2.157   4.295   4.808 -0.1452 -0.6484 -0.1382
 2268SOL    HW2 8838   2.197   4.349   4.740  2.9954 -0.0968  1.8995
 2268SOL    HW3 8839   2.216   4.304   4.883 -0.7524 -4.9550  1.1542
 2268SOL    MW4 8840   2.170   4.303   4.809 -0.2617  0.1317  0.2862
 2269SOL     OW 8841   2.319   4.787   1.984 -0.2640  0.1333  0.0943
 2269SOL    HW2 8842   2.259   4.800   2.058 -0.1061  2.2533 -0.0972
 2269SOL    HW3 8843   2.404   4.770   2.025 -0.1963  1.1990  0.4200
 2269SOL    MW4 8844   2.322   4.786   1.999  0.1140 -0.1569 -0.4439
 2270SOL     OW 8845   6.386   2.443   2.316 -0.4785  0.5710 -0.3397
 2270SOL    HW2 8846   6.456   2.382   2.294 -0.7850 -0.4750  1.3766
 2270SOL    HW3 8847   6.410   2.525   2.272  2.4476  0.5933  1.0432
 2270SOL    MW4 8848   6.398   2.446   2.308 -0.8130 -0.0363 -0.2765
 2271SOL     OW 8849   2.785   4.371   1.247 -0.1413 -0.4003 -0.1323
 2271SOL    HW2 8850   2.769   4.283   1.281 -0.4159 -0.7257 -1.0774
 2271SOL    HW3 8851   2.699   4.402   1.220 -0.2274  0.6234  1.2419
 2271SOL    MW4 8852   2.772   4.363   1.248 -0.3804 -0.1218 -0.0760
 2272SOL     OW 8853   6.255   0.610   1.806  0.4541 -0.0053  0.7763
 2272SOL    HW2 8854   6.224   0.531   1.762 -2.4386  1.3039  0.2206
 2272SOL    HW3 8855   6.338   0.631   1.762 -1.6615  0.5723 -3.4767
 2272SOL    MW4 8856   6.262   0.603   1.794  0.0501  0.2722  0.4853
 2273SOL     OW 8857   1.327   5.545   5.395 -0.6021  0.1978 -0.2447
 2273SOL    HW2 8858   1.238   5.521   5.369 -1.1301 -0.9267  2.2680
 2273SOL    HW3 8859   1.325   5.544   5.491  2.3833 -0.9230 -0.0811
 2273SOL    MW4 8860   1.315   5.542   5.405 -0.7422  0.6158  0.2863
 2274SOL     OW 8861   2.983   2.089   5.310  0.4092  0.5866 -0.5279
 2274SOL    HW2 8862   3.000   2.082   5.216  1.3952 -0.2700 -0.2946
 2274SOL    HW3 8863   2.892   2.062   5.320  0.7588 -0.8817 -1.0583
 2274SOL    MW4 8864   2.973   2.085   5.299  0.7479 -0.1278  0.1529
 2275SOL     OW 8865   2.617   5.276   0.731 -0.0836  0.7927  0.8909
 2275SOL    HW2 8866   2.645   5.224   0.656 -1.2970 -1.4493  1.9060
 2275SOL    HW3 8867   2.683   5.345   0.737  0.4277  0.6690 -1.7889
 2275SOL    MW4 8868   2.630   5.278   0.722 -0.3815 -0.6728  0.2568
 2276SOL     OW 8869   6.009   6.282   3.290  0.1118  0.3151  0.2090
 2276SOL    HW2 8870   6.076   6.334   3.246  1.6603 -2.0428 -0.4074
 2276SOL    HW3 8871   5.942   6.267   3.223  0.6960 -0.2320 -0.2603
 2276SOL    MW4 8872   6.009   6.286   3.275 -0.6078  0.1796  0.1748
 2277SOL     OW 8873   2.873   6.071   0.518  0.1587 -0.2292  0.4221
 2277SOL    HW2 8874   2.841   6.158   0.542 -0.3698 -0.3204  0.0641
 2277SOL    HW3 8875   2.834   6.013   0.582  0.5605 -0.2006  0.6982
 2277SOL    MW4 8876   2.864   6.075   0.529 -0.4977  0.3669 -0.3022
 2278SOL     OW 8877   1.532   2.789   1.896 -0.0536  0.3042  0.1253
 2278SOL    HW2 8878   1.581   2.805   1.816 -0.5310  1.8739  0.0930
 2278SOL    HW3 8879   1.578   2.839   1.963 -1.0485  1.0534  0.2844
 2278SOL    MW4 8880   1.544   2.798   1.894  0.0121 -0.4148 -0.0989
 2279SOL     OW 8881   0.836   2.038   2.403  0.5587 -0.3596 -0.1758
 2279SOL    HW2 8882   0.803   2.122   2.373 -0.2575 -0.0141  1.5633
 2279SOL    HW3 8883   0.886   2.059   2.482 -2.7580 -1.7727  2.5378
 2279SOL    MW4 8884   0.838   2.052   2.409  0.1207 -0.6888 -0.4028
 2280SOL     OW 8885   6.110   0.040   4.550  0.0831 -0.0452 -0.2828
 2280SOL    HW2 8886   6.179  -0.019   4.520 -0.6725 -0.9540 -0.2603
 2280SOL    HW3 8887   6.055   0.054   4.472 -0.7118 -0.7642  0.1342
 2280SOL    MW4 8888   6.112   0.034   4.535  0.5730 -0.3993  0.4333
 2281SOL     OW 8889   1.423   3.712   3.708  0.1329  0.5031  0.1494
 2281SOL    HW2 8890   1.415   3.616   3.708  2.1935  0.2427  2.0842
 2281SOL    HW3 8891   1.336   3.743   3.734 -1.1597 -0.6695 -2.3999
 2281SOL    MW4 8892   1.410   3.703   3.711 -0.4392 -0.5430  0.4710
 2282SOL     OW 8893   0.123   3.339   6.067  0.2298 -0.0478 -0.0251
 2282SOL    HW2 8894   0.070   3.299   5.998 -0.8509 -0.0773  0.7873
 2282SOL    HW3 8895   0.087   3.427   6.077  1.3330  0.4751 -0.4770
 2282SOL    MW4 8896   0.111   3.345   6.059 -0.0046  0.5070  0.3122
 2283SOL     OW 8897   0.902   2.296   0.830  0.0939 -0.3335 -0.6444
 2283SOL    HW2 8898   0.832   2.240   0.865  1.4062 -1.6538 -0.0463
 2283SOL    HW3 8899   0.860   2.382   0.818 -1.4818 -0.9442  0.1904
 2283SOL    MW4 8900   0.887   2.300   0.833 -0.3334 -0.1238 -0.0585
 2284SOL     OW 8901   2.783   0.439   0.792  0.0171 -0.1404  0.1977
 2284SOL    HW2 8902   2.813   0.381   0.722  0.2052  0.5602 -0.3119
 2284SOL    HW3 8903   2.756   0.519   0.747  3.3540  1.7074  1.1222
 2284SOL    MW4 8904   2.784   0.441   0.777 -0.2930  0.3901  0.0017
 2285SOL     OW 8905   4.050   3.143   0.117  0.7987 -0.6398  0.1422
 2285SOL    HW2 8906   4.119   3.202   0.147  0.4664 -0.0805 -0.1779
 2285SOL    HW3 8907   4.095   3.060   0.101  1.2798 -0.4622  0.5464
 2285SOL    MW4 8908   4.065   3.140   0.118  0.2380  0.4953 -0.1763
 2286SOL     OW 8909   5.316   3.246   2.786 -0.1787 -0.1830 -0.3491
 2286SOL    HW2 8910   5.315   3.161   2.830  1.3488 -0.2300 -0.3770
 2286SOL    HW3 8911   5.261   3.234   2.709  2.0664 -1.9717 -1.7879
 2286SOL    MW4 8912   5.308   3.234   2.782 -0.1696 -0.2805  0.3380
 2287SOL     OW 8913   2.766   1.585   5.316 -0.6718 -0.2554  0.3326
 2287SOL    HW2 8914   2.714   1.616   5.390 -0.0728 -1.0524  1.1075
 2287SOL    HW3 8915   2.706   1.530   5.265 -1.3839  1.1233 -0.3756
 2287SOL    MW4 8916   2.751   1.582   5.319 -0.3970 -0.0405 -0.3198
 2288SOL     OW 8917   1.102   3.276   5.021 -0.0920 -0.0879  0.1427
 2288SOL    HW2 8918   1.119   3.206   5.084 -0.5965 -1.8798 -1.6341
 2288SOL    HW3 8919   1.007   3.275   5.009 -0.6475  3.3161  2.6492
 2288SOL    MW4 8920   1.092   3.267   5.028  0.1564  0.0849 -0.5314
 2289SOL     OW 8921   1.069   3.870   1.047  0.0742 -0.1257 -0.1512
 2289SOL    HW2 8922   1.140   3.906   0.993 -1.3054  0.0209 -1.9322
 2289SOL    HW3 8923   1.082   3.911   1.133  1.6747  0.4899 -0.6455
 2289SOL    MW4 8924   1.080   3.880   1.051  0.1272 -0.1796  0.6912
 2290SOL     OW 8925   0.644   2.223   4.145 -0.0496 -0.4968 -0.2069
 2290SOL    HW2 8926   0.682   2.195   4.228 -2.0479  2.0909  1.7430
 2290SOL    HW3 8927   0.558   2.179   4.143 -1.9160  2.6638  1.4369
 2290SOL    MW4 8928   0.637   2.213   4.156 -0.7605  0.1353 -0.5598
 2291SOL     OW 8929   6.027   1.946   1.453  0.1988  0.2283 -0.2495
 2291SOL    HW2 8930   6.098   1.896   1.495  0.7907  0.8167 -0.5343
 2291SOL    HW3 8931   6.055   2.037   1.460 -0.2471  0.4163 -0.9031
 2291SOL    MW4 8932   6.040   1.951   1.460 -0.3010  0.4774 -0.4077
 2292SOL     OW 8933   5.395   0.310   0.253 -0.2251  0.2553 -0.0085
 2292SOL    HW2 8934   5.326   0.347   0.198  1.5254  0.7133 -2.0217
 2292SOL    HW3 8935   5.405   0.220   0.221 -0.5127 -0.1156  0.9195
 2292SOL    MW4 8936   5.387   0.303   0.241 -0.3351  0.0405  0.3139
 2293SOL     OW 8937   3.679   3.636   2.297  0.1603  0.1758  0.0596
 2293SOL    HW2 8938   3.763   3.596   2.318  1.6134  2.2383 -1.4457
 2293SOL    HW3 8939   3.647   3.669   2.381  1.5802  0.6712  0.4287
 2293SOL    MW4 8940   3.686   3.635   2.311 -0.1376  0.1113  0.0701
 2294SOL     OW 8941   0.534   1.658   1.036  0.3124 -0.5407  0.0838
 2294SOL    HW2 8942   0.514   1.566   1.055  0.1984 -0.0762  2.5776
 2294SOL    HW3 8943   0.611   1.678   1.090  0.5852  0.7305 -0.7237
 2294SOL    MW4 8944   0.542   1.649   1.046  0.0697 -0.3847  0.0160
 2295SOL     OW 8945   3.041   0.914   2.374  0.0996 -0.9256 -0.1697
 2295SOL    HW2 8946   3.041   0.848   2.443 -2.0600 -1.4281 -0.5684
 2295SOL    HW3 8947   3.115   0.892   2.319  0.1894 -2.2174  0.4418
 2295SOL    MW4 8948   3.051   0.903   2.376 -0.4492  0.6879 -0.3083
 2296SOL     OW 8949   3.822   6.300   1.502  0.2406 -0.2663  0.2670
 2296SOL    HW2 8950   3.791   6.352   1.428  0.1660 -1.7291 -0.7800
 2296SOL    HW3 8951   3.754   6.311   1.569  1.1771  2.5298  0.8966
 2296SOL    MW4 8952   3.809   6.308   1.501 -0.3398 -0.4536 -0.1304
 2297SOL     OW 8953   5.797   5.568   0.762  0.5698  0.3966  0.7094
 2297SOL    HW2 8954   5.808   5.473   0.755  0.1345  0.4343 -1.0326
 2297SOL    HW3 8955   5.880   5.604   0.729  0.4078  0.6271  0.5517
 2297SOL    MW4 8956   5.809   5.560   0.756  0.0910 -0.3995  0.4375
 2298SOL     OW 8957   6.286   1.234   5.731  0.1648  0.1090 -0.2683
 2298SOL    HW2 8958   6.247   1.161   5.780 -3.5819  1.1467 -1.3984
 2298SOL    HW3 8959   6.332   1.192   5.658  1.0646 -1.1771  0.9679
 2298SOL    MW4 8960   6.287   1.218   5.728  0.1518  0.1782 -1.0667
 2299SOL     OW 8961   3.440   3.406   5.328 -0.4273  0.0408 -0.6622
 2299SOL    HW2 8962   3.514   3.347   5.346 -0.9020 -1.2246 -2.5045
 2299SOL    HW3 8963   3.363   3.358   5.358 -0.5898  1.1430  0.7873
 2299SOL    MW4 8964   3.440   3.392   5.334  0.5876 -0.1906  0.0624
 2300SOL     OW 8965   4.091   2.868   0.173 -0.8168 -0.1058 -0.1716
 2300SOL    HW2 8966   4.006   2.894   0.138 -1.4355 -1.1481  0.5115
 2300SOL    HW3 8967   4.072   2.838   0.262  0.2610 -0.3791 -0.0204
 2300SOL    MW4 8968   4.077   2.868   0.180 -0.3192 -0.1349 -0.2245
 2301SOL     OW 8969   2.778   5.108   5.367 -0.6063  0.1369  0.5085
 2301SOL    HW2 8970   2.813   5.034   5.417  1.0937  1.7146  1.8169
 2301SOL    HW3 8971   2.688   5.083   5.346  0.3377 -2.9390 -0.4867
 2301SOL    MW4 8972   2.771   5.094   5.371  0.6265 -0.5277 -0.1086
 2302SOL     OW 8973   3.405   1.489   0.976  0.1952  0.0351  0.8225
 2302SOL    HW2 8974   3.410   1.487   0.881 -3.4982  2.2673  0.3571
 2302SOL    HW3 8975   3.496   1.498   1.005  1.3715  0.2671 -2.5173
 2302SOL    MW4 8976   3.418   1.490   0.968  0.1253 -0.3578  0.0652
 2303SOL     OW 8977   1.147   5.573   2.012  0.3473 -0.0541  0.1734
 2303SOL    HW2 8978   1.233   5.613   2.001  0.4092  0.3151  1.8099
 2303SOL    HW3 8979   1.086   5.646   2.008  0.1399 -0.2529 -0.4382
 2303SOL    MW4 8980   1.151   5.588   2.010 -0.2194 -0.0375 -0.1944
 2304SOL     OW 8981   1.818   0.732   0.162  0.2125 -0.5395  0.4742
 2304SOL    HW2 8982   1.899   0.693   0.129  0.0307 -1.2853  0.8886
 2304SOL    HW3 8983   1.823   0.719   0.257  0.2980  0.7420  0.6638
 2304SOL    MW4 8984   1.829   0.725   0.171 -0.2867  0.0327 -0.3850
 2305SOL     OW 8985   1.095   5.199   0.686  0.6310  0.1030  0.6211
 2305SOL    HW2 8986   1.064   5.148   0.761 -1.4247  1.5255  0.7908
 2305SOL    HW3 8987   1.055   5.156   0.610 -2.6981  2.3604  0.8868
 2305SOL    MW4 8988   1.086   5.186   0.686 -0.0691  0.3624 -0.1398
 2306SOL     OW 8989   4.523   0.755   2.985 -0.4141  0.2882  0.3224
 2306SOL    HW2 8990   4.610   0.738   2.947 -1.4773 -3.2516 -0.8608
 2306SOL    HW3 8991   4.475   0.800   2.916 -0.1740  0.3908  0.2197
 2306SOL    MW4 8992   4.528   0.759   2.971  0.0457 -0.0882  0.3853
 2307SOL     OW 8993   3.011   5.637   6.148 -0.2502 -0.2416  0.5049
 2307SOL    HW2 8994   2.959   5.597   6.218  1.2930 -2.6282  0.4028
 2307SOL    HW3 8995   2.958   5.624   6.069 -0.7566 -0.0435  0.8034
 2307SOL    MW4 8996   2.997   5.630   6.147  0.0216  0.0815  0.0688
 2308SOL     OW 8997   0.873   4.848   1.605 -0.0629 -0.4043 -0.2213
 2308SOL    HW2 8998   0.936   4.908   1.644 -0.0127 -0.9945  0.6267
 2308SOL    HW3 8999   0.819   4.903   1.549  0.2252  0.3642  0.2482
 2308SOL    MW4 9000   0.874   4.863   1.603 -0.0153  0.6478 -0.0054
 2309SOL     OW 9001   0.548   3.772   4.147  0.2369  0.1741 -0.5850
 2309SOL    HW2 9002   0.543   3.760   4.241 -0.3963  2.5448 -0.2522
 2309SOL    HW3 9003   0.499   3.699   4.110 -1.2447  0.2973  1.0295
 2309SOL    MW4 9004   0.541   3.761   4.154  0.4251 -0.1693  0.4084
 2310SOL     OW 9005   3.038   5.118   4.682  0.7020 -0.7171  0.6118
 2310SOL    HW2 9006   3.013   5.090   4.771  0.0638 -2.7209 -0.1388
 2310SOL    HW3 9007   2.957   5.151   4.644  0.8716 -0.2988  0.6085
 2310SOL    MW4 9008   3.024   5.119   4.689 -0.1318 -0.1444 -0.1150
 2311SOL     OW 9009   2.154   0.647   5.823  0.3344 -0.2687  0.0217
 2311SOL    HW2 9010   2.113   0.733   5.835  0.1880 -0.4406  0.8735
 2311SOL    HW3 9011   2.233   0.665   5.772  0.0016  0.2840 -0.3128
 2311SOL    MW4 9012   2.159   0.661   5.818 -0.5157  0.0011 -0.0094
 2312SOL     OW 9013   5.863   1.323   5.663 -0.1434 -0.3316 -0.1427
 2312SOL    HW2 9014   5.921   1.372   5.604  0.8994  0.5913  1.5697
 2312SOL    HW3 9015   5.802   1.390   5.695 -0.3597 -0.7113  0.2318
 2312SOL    MW4 9016   5.862   1.339   5.659  0.3335 -0.1296 -0.0800
 2313SOL     OW 9017   1.299   0.917   1.175 -0.6365  0.0304 -0.0439
 2313SOL    HW2 9018   1.267   0.881   1.258 -0.6288  0.0102 -0.0498
 2313SOL    HW3 9019   1.224   0.964   1.139 -0.3328  0.9408  0.4859
 2313SOL    MW4 9020   1.285   0.918   1.182  0.0202 -0.2441  0.2522
 2314SOL     OW 9021   3.814   0.260   1.784 -0.2551 -0.3115 -0.8713
 2314SOL    HW2 9022   3.827   0.330   1.720  1.4851  0.6126  0.4032
 2314SOL    HW3 9023   3.865   0.186   1.750  0.9504  0.2905 -0.4265
 2314SOL    MW4 9024   3.823   0.259   1.771 -0.4504  0.1156  0.0119
 2315SOL     OW 9025   2.331   4.350   4.350  0.5284 -0.7633 -0.0440
 2315SOL    HW2 9026   2.393   4.421   4.363  0.3106 -0.7023  0.6818
 2315SOL    HW3 9027   2.286   4.371   4.268 -1.1927  1.1756  1.3191
 2315SOL    MW4 9028   2.333   4.362   4.341 -0.2412 -0.2162 -0.1668
 2316SOL     OW 9029   5.682   0.048   1.130  0.2323 -0.7044  0.9546
 2316SOL    HW2 9030   5.593   0.071   1.105  0.2308 -1.6303  0.0390
 2316SOL    HW3 9031   5.689  -0.045   1.111  1.2483 -0.7449  1.4720
 2316SOL    MW4 9032   5.671   0.039   1.124 -0.2498 -0.0726 -0.0461
 2317SOL     OW 9033   0.309   3.406   5.870 -0.0840  0.1682 -0.3452
 2317SOL    HW2 9034   0.242   3.406   5.938  0.5994  0.7285  0.3451
 2317SOL    HW3 9035   0.313   3.316   5.839 -0.3808 -0.0903  0.3698
 2317SOL    MW4 9036   0.301   3.394   5.875  0.6348  0.1034  0.7478
 2318SOL     OW 9037   0.926   4.833   3.733 -0.0203  0.3279  0.1659
 2318SOL    HW2 9038   0.947   4.898   3.800 -0.8075  0.9138 -0.1395
 2318SOL    HW3 9039   0.962   4.751   3.767  2.6593  1.2332 -0.3227
 2318SOL    MW4 9040   0.933   4.831   3.746  0.2137 -0.0641 -0.0592
 2319SOL     OW 9041   0.843   2.560   2.092 -0.5419 -0.4409 -0.2457
 2319SOL    HW2 9042   0.923   2.510   2.110 -0.2345 -0.3448 -1.3236
 2319SOL    HW3 9043   0.842   2.628   2.159 -0.2617 -1.0613  0.4074
 2319SOL    MW4 9044   0.854   2.562   2.104  0.1277  0.2175 -0.3426
 2320SOL     OW 9045   3.458   5.864   6.218  0.3102 -0.6699 -0.4510
 2320SOL    HW2 9046   3.408   5.783   6.207  0.8603 -0.8696 -1.6580
 2320SOL    HW3 9047   3.479   5.892   6.128  2.9356 -0.9634 -0.0241
 2320SOL    MW4 9048   3.454   5.857   6.204 -0.1100  0.2888 -0.5824
 2321SOL     OW 9049   5.618   3.907   6.230  0.8332 -0.2096  0.2945
 2321SOL    HW2 9050   5.684   3.976   6.241  0.1835  0.6077 -0.7589
 2321SOL    HW3 9051   5.614   3.893   6.136 -0.7563  0.0219  0.3006
 2321SOL    MW4 9052   5.626   3.915   6.219 -0.2246 -0.5131  0.6285
 2322SOL     OW 9053   3.891   1.355   1.165  0.5651 -0.9359 -0.0314
 2322SOL    HW2 9054   3.912   1.285   1.226  0.5138 -0.5223  0.4623
 2322SOL    HW3 9055   3.962   1.418   1.174 -0.7400  0.4011  1.5445
 2322SOL    MW4 9056   3.903   1.354   1.174  0.5850  0.2763  0.1528
 2323SOL     OW 9057   5.215   0.601   3.698 -0.0959  0.4581  0.6326
 2323SOL    HW2 9058   5.136   0.551   3.713 -1.7855  3.3158  2.2240
 2323SOL    HW3 9059   5.203   0.640   3.611  1.8839 -2.7505 -1.2750
 2323SOL    MW4 9060   5.203   0.600   3.688 -0.2573 -0.3501  0.2522
 2324SOL     OW 9061   5.815   3.656   0.444 -0.0972 -0.5293 -0.0161
 2324SOL    HW2 9062   5.824   3.720   0.373  0.5850 -0.5348  0.0569
 2324SOL    HW3 9063   5.742   3.688   0.497  1.1169  0.9574  0.8216
 2324SOL    MW4 9064   5.807   3.669   0.441  0.6500  0.4124 -0.3986
 2325SOL     OW 9065   6.013   6.129   1.767 -0.1880 -0.1750  0.3892
 2325SOL    HW2 9066   6.008   6.173   1.683  1.8959  0.2220  0.4107
 2325SOL    HW3 9067   5.923   6.131   1.801 -0.7630  1.0688 -1.0902
 2325SOL    MW4 9068   6.000   6.135   1.761  0.2382  0.3750  0.1297
 2326SOL     OW 9069   1.048   3.578   1.029 -0.1637  0.1598  0.4266
 2326SOL    HW2 9070   1.019   3.583   0.938 -0.0909  0.0611  0.3976
 2326SOL    HW3 9071   1.072   3.668   1.052 -0.8666  0.3121  0.5762
 2326SOL    MW4 9072   1.047   3.591   1.020  0.6374 -0.2013 -0.1202
 2327SOL     OW 9073   5.246   1.962   5.660 -0.0020 -0.3416 -0.1236
 2327SOL    HW2 9074   5.236   2.040   5.605  0.1714 -0.2271  0.0051
 2327SOL    HW3 9075   5.305   1.990   5.730  0.0047 -0.5693 -0.0385
 2327SOL    MW4 9076   5.253   1.976   5.662  0.8413  0.2792  0.5165
 2328SOL     OW 9077   1.293   1.749   5.665  0.4041  0.9123  0.7108
 2328SOL    HW2 9078   1.224   1.711   5.720 -0.5934  1.5743 -0.0420
 2328SOL    HW3 9079   1.368   1.691   5.678 -1.2714 -1.9114 -1.0549
 2328SOL    MW4 9080   1.294   1.736   5.674 -0.0703 -0.3225 -0.2885
 2329SOL     OW 9081   3.410   2.023   5.847  0.4034 -0.1445  0.2524
 2329SOL    HW2 9082   3.377   1.934   5.837  1.5952 -0.7631  1.4415
 2329SOL    HW3 9083   3.391   2.045   5.939 -0.0275  0.9075 -0.0715
 2329SOL    MW4 9084   3.403   2.014   5.858 -0.6877 -0.0231 -0.5493
 2330SOL     OW 9085   3.424   3.919   0.891 -0.4979  0.5295  0.2760
 2330SOL    HW2 9086   3.398   3.969   0.814 -0.8084  1.1019  0.7392
 2330SOL    HW3 9087   3.502   3.964   0.923 -0.3668  0.2903  0.2908
 2330SOL    MW4 9088   3.431   3.932   0.885  0.0164 -0.1364  0.3421
 2331SOL     OW 9089   0.247   5.063   4.317 -0.0258  0.1477 -0.1465
 2331SOL    HW2 9090   0.205   5.149   4.311  0.0142  0.1203 -0.9895
 2331SOL    HW3 9091   0.223   5.030   4.404  0.8711  1.4654  0.6335
 2331SOL    MW4 9092   0.238   5.070   4.328 -0.0508  0.1228  0.2762
 2332SOL     OW 9093   4.609   3.669   5.957 -0.4144  0.4392 -0.3017
 2332SOL    HW2 9094   4.523   3.640   5.925  0.3851 -0.7274 -1.4623
 2332SOL    HW3 9095   4.619   3.625   6.041 -0.5961 -0.1147 -0.5626
 2332SOL    MW4 9096   4.599   3.660   5.964 -0.0501 -0.4915 -0.0227
 2333SOL     OW 9097   0.645   1.042   3.517 -0.1135  0.5717  0.6194
 2333SOL    HW2 9098   0.617   1.097   3.591 -1.2981  0.8331 -0.0004
 2333SOL    HW3 9099   0.700   0.974   3.558 -0.6324  0.7899  1.7301
 2333SOL    MW4 9100   0.648   1.040   3.532 -0.7296  0.3385 -0.5061
 2334SOL     OW 9101   5.307   5.786   4.222  0.2434  0.0562 -0.8124
 2334SOL    HW2 9102   5.232   5.790   4.163  1.4472 -0.7171 -2.4673
 2334SOL    HW3 9103   5.325   5.878   4.244 -2.0003  0.2108  0.8071
 2334SOL    MW4 9104   5.299   5.799   4.217 -0.5902  0.0939 -0.4039
 2335SOL     OW 9105   1.064   4.085   3.051 -0.2123  0.6956  0.2608
 2335SOL    HW2 9106   1.076   4.146   3.124 -0.0061  0.8759  0.0785
 2335SOL    HW3 9107   1.147   4.037   3.046 -0.4044  0.3361  0.4582
 2335SOL    MW4 9108   1.077   4.087   3.060  0.1435  0.2861 -0.1532
 2336SOL     OW 9109   3.434   4.557   0.672  0.0540 -0.9025 -0.3841
 2336SOL    HW2 9110   3.500   4.621   0.699 -0.7739 -0.7781  1.5511
 2336SOL    HW3 9111   3.367   4.610   0.628 -0.1891 -0.5444  0.3891
 2336SOL    MW4 9112   3.434   4.573   0.670  0.6025 -0.1295 -0.4260
 2337SOL     OW 9113   4.225   3.651   2.143  0.5534  0.2826  0.1310
 2337SOL    HW2 9114   4.187   3.575   2.185  0.8130  0.7670  1.2808
 2337SOL    HW3 9115   4.320   3.639   2.150  0.6116  1.3417  1.5622
 2337SOL    MW4 9116   4.233   3.640   2.149 -0.0520  0.6819 -0.4495
 2338SOL     OW 9117   6.376   2.907   2.457  0.0728 -0.5819  0.3593
 2338SOL    HW2 9118   6.284   2.889   2.479 -0.7976  2.1583 -0.6804
 2338SOL    HW3 9119   6.394   2.992   2.496  1.5684 -0.1683 -1.1121
 2338SOL    MW4 9120   6.366   2.916   2.465 -0.3246 -0.0376  0.2085
 2339SOL     OW 9121   0.683   5.365   0.226 -0.1747 -0.0834  0.1396
 2339SOL    HW2 9122   0.671   5.379   0.320 -0.2726  3.3592 -0.2781
 2339SOL    HW3 9123   0.608   5.406   0.185  0.5363 -0.3396 -1.5178
 2339SOL    MW4 9124   0.672   5.372   0.233  0.0784 -0.1448  0.0364
 2340SOL     OW 9125   3.038   3.251   1.212  0.2929  0.4630 -0.1455
 2340SOL    HW2 9126   3.090   3.274   1.135  1.3931  1.0573  0.7446
 2340SOL    HW3 9127   3.026   3.156   1.206  2.6527  0.0779  0.3087
 2340SOL    MW4 9128   3.043   3.242   1.201  0.4420  0.0636 -0.8129
 2341SOL     OW 9129   5.435   4.581   3.706  0.3862 -0.4045  0.4448
 2341SOL    HW2 9130   5.391   4.603   3.624 -0.8470  0.8270  1.3904
 2341SOL    HW3 9131   5.428   4.485   3.712 -2.0279 -0.3004  0.4319
 2341SOL    MW4 9132   5.428   4.571   3.696 -0.6773 -0.5802  0.0974
 2342SOL     OW 9133   5.023   5.350   1.962 -0.1101 -0.3635  0.0014
 2342SOL    HW2 9134   4.979   5.270   1.931  0.1962 -0.7099  0.4450
 2342SOL    HW3 9135   5.064   5.386   1.884  0.2045 -0.9365 -0.1053
 2342SOL    MW4 9136   5.022   5.344   1.948 -0.1389  0.2379  0.2002
 2343SOL     OW 9137   3.531   5.651   1.831  0.2808  0.1511  0.0948
 2343SOL    HW2 9138   3.527   5.746   1.846 -1.7468  0.6153 -2.5660
 2343SOL    HW3 9139   3.441   5.622   1.845  0.6073 -1.1498 -0.4091
 2343SOL    MW4 9140   3.518   5.660   1.835  0.2421  0.0976  0.0857
 2344SOL     OW 9141   3.624   1.682   3.226  0.2709 -0.1153 -0.1177
 2344SOL    HW2 9142   3.705   1.697   3.275 -0.0882 -2.1220  1.2293
 2344SOL    HW3 9143   3.564   1.749   3.259  1.0611  0.7504 -0.3886
 2344SOL    MW4 9144   3.627   1.693   3.237  0.3065  0.3464  0.0350
 2345SOL     OW 9145   1.350   3.021   4.526  0.3184 -0.2705  0.1175
 2345SOL    HW2 9146   1.347   2.943   4.582  2.5677 -0.6304 -0.1521
 2345SOL    HW3 9147   1.325   2.988   4.439 -0.7287 -0.2316  0.3881
 2345SOL    MW4 9148   1.346   3.006   4.522 -0.1346  0.0944  0.3576
 2346SOL     OW 9149   2.199   5.830   5.217 -0.0356 -0.0354  0.1982
 2346SOL    HW2 9150   2.227   5.904   5.271 -0.1665  0.0604  0.1371
 2346SOL    HW3 9151   2.104   5.824   5.232 -0.8367  2.3836 -2.8495
 2346SOL    MW4 9152   2.190   5.839   5.226  0.4310  0.0919  0.3368
 2347SOL     OW 9153   1.338   2.308   0.687 -0.3055 -0.2126  0.5609
 2347SOL    HW2 9154   1.422   2.336   0.653 -1.2012  0.6558 -1.0250
 2347SOL    HW3 9155   1.347   2.315   0.782  0.8329  1.5936  0.3638
 2347SOL    MW4 9156   1.350   2.312   0.695  0.7491  0.6329  0.0350
 2348SOL     OW 9157   0.991   2.087   2.616  0.3253  0.0951  0.1043
 2348SOL    HW2 9158   0.982   2.002   2.658 -0.8783  0.0239 -0.2704
 2348SOL    HW3 9159   1.055   2.134   2.670  0.7195 -0.8990  0.5238
 2348SOL    MW4 9160   0.998   2.082   2.629 -0.5023  0.3450  0.0832
 2349SOL     OW 9161   2.815   2.021   1.144  0.1086  0.1004 -0.2624
 2349SOL    HW2 9162   2.863   1.957   1.090  0.1341  0.1658 -0.3170
 2349SOL    HW3 9163   2.744   2.051   1.087 -1.2317 -1.4831  0.4794
 2349SOL    MW4 9164   2.812   2.016   1.129 -0.0405  0.4433  0.4569
 2350SOL     OW 9165   1.459   6.078   2.347  0.0697 -0.0364 -0.3112
 2350SOL    HW2 9166   1.412   6.072   2.264  0.6296 -1.1692 -0.5630
 2350SOL    HW3 9167   1.403   6.031   2.409  0.8288 -1.3910 -0.6124
 2350SOL    MW4 9168   1.445   6.071   2.344 -0.5959  0.4840  0.2615
 2351SOL     OW 9169   2.489   2.648   0.562 -0.0533  0.5652 -0.7289
 2351SOL    HW2 9170   2.453   2.708   0.496 -2.6298 -1.0678 -0.9331
 2351SOL    HW3 9171   2.542   2.586   0.511  0.3020  0.9671 -0.8616
 2351SOL    MW4 9172   2.491   2.648   0.546  0.3481  0.1637 -0.1215
 2352SOL     OW 9173   2.772   2.714   1.976  0.0933 -0.1705  0.2682
 2352SOL    HW2 9174   2.796   2.627   1.944 -1.8071 -0.5332 -0.3073
 2352SOL    HW3 9175   2.801   2.716   2.067 -1.8118 -2.2942  1.0048
 2352SOL    MW4 9176   2.779   2.703   1.983  0.5352  0.2932  0.0895
 2353SOL     OW 9177   5.084   2.951   4.788  0.2662 -0.3692  0.3211
 2353SOL    HW2 9178   5.040   2.897   4.853  2.6681 -2.0490  0.6394
 2353SOL    HW3 9179   5.083   2.899   4.708  1.7221 -0.4817  0.3582
 2353SOL    MW4 9180   5.078   2.937   4.786 -0.2448 -0.1486 -0.4688
 2354SOL     OW 9181   2.505   1.196   4.920  0.1974  0.4214  0.3294
 2354SOL    HW2 9182   2.419   1.194   4.962 -0.2840  1.7335 -0.5346
 2354SOL    HW3 9183   2.565   1.229   4.988  0.6348 -3.0721  1.8405
 2354SOL    MW4 9184   2.502   1.200   4.935 -0.3920  0.2044 -0.0148
 2355SOL     OW 9185   0.265   2.218   0.985  0.1152 -0.1337  0.4759
 2355SOL    HW2 9186   0.295   2.207   0.895  2.5858 -2.2697  1.4278
 2355SOL    HW3 9187   0.336   2.264   1.029 -0.8788  0.5125  1.4438
 2355SOL    MW4 9188   0.278   2.222   0.979 -0.3121  0.0454 -0.2061
 2356SOL     OW 9189   0.953   6.346   6.173 -0.2116  0.1633 -0.0056
 2356SOL    HW2 9190   0.879   6.399   6.144 -0.5246 -0.5116 -0.4510
 2356SOL    HW3 9191   1.012   6.343   6.098 -0.4336 -0.5364 -0.1592
 2356SOL    MW4 9192   0.951   6.353   6.160 -0.0650  0.7371  0.6353
 2357SOL     OW 9193   1.181   5.526   3.017  0.1039  0.0006  0.2249
 2357SOL    HW2 9194   1.273   5.527   2.988 -0.1318 -0.7947 -0.6030
 2357SOL    HW3 9195   1.163   5.433   3.032 -0.6620  0.1233  0.0758
 2357SOL    MW4 9196   1.191   5.514   3.015  0.0649  0.4234 -0.2390
 2358SOL     OW 9197   3.163   2.902   3.975  0.2572 -0.2971 -0.4808
 2358SOL    HW2 9198   3.249   2.861   3.972  0.8302  0.1976  3.5836
 2358SOL    HW3 9199   3.180   2.995   3.988 -0.9860  0.2052 -2.0886
 2358SOL    MW4 9200   3.176   2.909   3.977  0.2820  0.1881 -0.2659
 2359SOL     OW 9201   1.514   3.185   6.160  0.2705  0.0166  0.0421
 2359SOL    HW2 9202   1.606   3.159   6.150  0.0174 -0.6739 -0.6319
 2359SOL    HW3 9203   1.511   3.275   6.127  0.3859 -0.5663 -1.6635
 2359SOL    MW4 9204   1.526   3.193   6.154  0.2731  0.1102 -0.3408
 2360SOL     OW 9205   0.106   6.404   2.428  0.1757 -0.2302  0.1903
 2360SOL    HW2 9206   0.118   6.403   2.333 -0.6256  1.7410  0.0190
 2360SOL    HW3 9207   0.190   6.374   2.464  0.6256 -0.5898 -1.1256
 2360SOL    MW4 9208   0.119   6.400   2.420 -0.2262 -0.5241  0.1752
 2361SOL     OW 9209   3.018   0.743   2.098  0.1819 -0.0637 -0.1110
 2361SOL    HW2 9210   2.934   0.727   2.055  0.5552  3.3711 -2.4947
 2361SOL    HW3 9211   3.083   0.733   2.029  1.2448  1.7193  0.5741
 2361SOL    MW4 9212   3.016   0.739   2.083 -0.0370  0.1204  0.0132
 2362SOL     OW 9213   2.576   0.524   1.403  0.6253 -0.1501 -0.3172
 2362SOL    HW2 9214   2.631   0.589   1.446  0.9787 -1.1837  0.8810
 2362SOL    HW3 9215   2.628   0.443   1.405 -0.1231 -0.6727 -1.0124
 2362SOL    MW4 9216   2.590   0.522   1.409 -0.0709  0.1196 -0.1025
 2363SOL     OW 9217   5.589   1.193   4.052  0.0554  0.0243 -0.1230
 2363SOL    HW2 9218   5.600   1.264   4.114 -0.2156 -0.1968  0.1847
 2363SOL    HW3 9219   5.523   1.225   3.990 -0.5886 -0.2155  0.4207
 2363SOL    MW4 9220   5.581   1.207   4.052 -0.6046  0.1094 -0.0946
 2364SOL     OW 9221   6.085   3.249   3.814 -0.1350  0.4215 -0.3847
 2364SOL    HW2 9222   6.180   3.240   3.805 -0.1182 -0.6682  0.6424
 2364SOL    HW3 9223   6.060   3.309   3.743  1.5974  2.5461  0.6654
 2364SOL    MW4 9224   6.095   3.256   3.804  0.1593  0.2019  0.2832
 2365SOL     OW 9225   2.800   5.616   3.892 -1.2396  0.1059 -0.3079
 2365SOL    HW2 9226   2.745   5.568   3.954  0.6559 -0.6778  0.8443
 2365SOL    HW3 9227   2.836   5.549   3.835  1.3706  0.0295  1.2659
 2365SOL    MW4 9228   2.797   5.601   3.893 -0.0678  0.2107  0.3500
 2366SOL     OW 9229   0.043   3.132   6.352  0.3801 -0.1729 -0.2166
 2366SOL    HW2 9230   0.086   3.152   6.268 -2.1943  4.1892 -0.7810
 2366SOL    HW3 9231   0.088   3.187   6.416  0.4841 -1.3431  0.7509
 2366SOL    MW4 9232   0.055   3.142   6.349  0.7751 -0.1872 -0.2344
 2367SOL     OW 9233   4.506   0.470   1.450 -0.3300 -0.4063 -0.0963
 2367SOL    HW2 9234   4.549   0.508   1.373 -0.1508 -0.4608 -0.0237
 2367SOL    HW3 9235   4.496   0.377   1.428 -2.5541  0.0076 -1.0985
 2367SOL    MW4 9236   4.511   0.463   1.437  0.4328  0.5347 -0.3884
 2368SOL     OW 9237   3.817   2.598   0.204  0.1578 -0.1061  0.0228
 2368SOL    HW2 9238   3.734   2.630   0.169  0.2373  0.4370  0.3339
 2368SOL    HW3 9239   3.846   2.666   0.264  0.8965 -0.2275 -0.1871
 2368SOL    MW4 9240   3.810   2.611   0.207 -0.3304  0.4035 -0.4028
 2369SOL     OW 9241   6.309   2.293   4.547  0.0470 -0.4177  0.3469
 2369SOL    HW2 9242   6.288   2.205   4.579  0.4763 -0.7392 -0.2474
 2369SOL    HW3 9243   6.370   2.279   4.475  0.1126  0.3704  0.2394
 2369SOL    MW4 9244   6.314   2.280   4.542  0.3499  0.1203  0.5092
 2370SOL     OW 9245   3.747   2.844   4.890 -0.1931  0.0916  0.3143
 2370SOL    HW2 9246   3.661   2.812   4.916 -0.6663 -0.1376 -1.4002
 2370SOL    HW3 9247   3.731   2.891   4.807  1.3676 -0.3061 -0.2427
 2370SOL    MW4 9248   3.733   2.846   4.882  0.1953  0.2943 -0.4171
 2371SOL     OW 9249   5.709   4.847   4.142  0.0652  0.1285 -1.0920
 2371SOL    HW2 9250   5.755   4.774   4.101  1.0980 -0.3226  0.7481
 2371SOL    HW3 9251   5.770   4.881   4.207 -1.6816  0.3566  0.5330
 2371SOL    MW4 9252   5.723   4.842   4.145  0.0277  0.2192  0.0610
 2372SOL     OW 9253   1.323   1.928   3.493  0.4307  0.2815 -0.5948
 2372SOL    HW2 9254   1.300   1.876   3.417  0.3714 -1.1027  0.3266
 2372SOL    HW3 9255   1.397   1.981   3.465  1.0615 -0.9431 -1.3239
 2372SOL    MW4 9256   1.329   1.928   3.480  0.1747  0.3262  0.5716
 2373SOL     OW 9257   4.653   5.309   0.714  0.2842  0.0640 -0.0554
 2373SOL    HW2 9258   4.631   5.218   0.695 -0.6459 -0.1779  1.9723
 2373SOL    HW3 9259   4.697   5.340   0.634 -3.6702 -0.6651 -2.8008
 2373SOL    MW4 9260   4.656   5.301   0.701 -0.3593  0.0280  0.5962
 2374SOL     OW 9261   5.406   2.089   1.526  0.7306 -0.0341  0.0811
 2374SOL    HW2 9262   5.436   1.998   1.525 -0.9414 -0.6221  0.4957
 2374SOL    HW3 9263   5.363   2.101   1.441 -1.7061 -0.6259  1.1446
 2374SOL    MW4 9264   5.405   2.079   1.515  0.5125  0.3338 -0.8543
 2375SOL     OW 9265   4.525   2.857   5.838  0.4433  0.0804  0.4210
 2375SOL    HW2 9266   4.534   2.787   5.902 -0.5265  0.2656  0.7845
 2375SOL    HW3 9267   4.599   2.915   5.855  0.0383  0.2774  1.5737
 2375SOL    MW4 9268   4.536   2.856   5.849  0.1122 -0.9183  0.2033
 2376SOL     OW 9269   0.526   5.069   6.248  0.2258  0.0270  0.1739
 2376SOL    HW2 9270   0.557   4.982   6.270 -0.9444 -0.9306 -1.6871
 2376SOL    HW3 9271   0.453   5.054   6.188  0.4853  2.2947 -0.8093
 2376SOL    MW4 9272   0.520   5.056   6.243  0.2787 -0.0648 -0.0191
 2377SOL     OW 9273   5.772   2.602   2.884 -0.3601 -0.3313  0.0022
 2377SOL    HW2 9274   5.819   2.685   2.886 -2.5329  1.0194 -1.0929
 2377SOL    HW3 9275   5.772   2.572   2.975 -0.0719  1.1988  0.5271
 2377SOL    MW4 9276   5.778   2.609   2.896  0.1623 -0.2933 -0.1864
 2378SOL     OW 9277   2.682   0.363   3.158 -0.3147  0.3834  0.0084
 2378SOL    HW2 9278   2.716   0.280   3.125 -2.0967 -0.6586  0.6208
 2378SOL    HW3 9279   2.635   0.401   3.084 -0.0921  0.5041 -0.0715
 2378SOL    MW4 9280   2.680   0.357   3.144 -0.0192 -0.2404 -0.0596
 2379SOL     OW 9281   2.077   5.705   0.413  0.2903  0.0460  0.3546
 2379SOL    HW2 9282   2.087   5.801   0.413 -1.8288  0.3028 -0.0154
 2379SOL    HW3 9283   2.090   5.680   0.321  0.0663  0.0729  0.3156
 2379SOL    MW4 9284   2.080   5.715   0.401 -0.4481 -0.6716  0.6234
 2380SOL     OW 9285   1.632   0.938   2.548  0.5483 -0.6560 -0.4591
 2380SOL    HW2 9286   1.644   0.845   2.563  3.9281 -0.0788  1.4165
 2380SOL    HW3 9287   1.716   0.969   2.515 -0.3747  1.7679 -0.7761
 2380SOL    MW4 9288   1.644   0.930   2.546 -0.8104  0.7989 -1.0515
 2381SOL     OW 9289   6.165   0.101   5.475 -0.5757 -0.2333 -0.4306
 2381SOL    HW2 9290   6.177   0.009   5.455  0.8276 -0.5242  1.4756
 2381SOL    HW3 9291   6.230   0.146   5.420 -0.5787 -0.4826 -0.6364
 2381SOL    MW4 9292   6.175   0.095   5.465  0.1939 -0.0480 -0.3057
 2382SOL     OW 9293   2.604   2.245   0.307 -0.0214  0.2284 -0.1603
 2382SOL    HW2 9294   2.548   2.212   0.238  0.2440 -0.9016  0.1428
 2382SOL    HW3 9295   2.544   2.270   0.378 -0.1690 -1.0119  0.1796
 2382SOL    MW4 9296   2.589   2.244   0.307  0.1736  0.1463  0.1253
 2383SOL     OW 9297   1.968   0.344   0.098 -0.1330 -0.1099 -0.4279
 2383SOL    HW2 9298   1.960   0.256   0.064 -0.2441 -0.5225  0.6236
 2383SOL    HW3 9299   1.932   0.339   0.187  1.2798  0.6148  0.2252
 2383SOL    MW4 9300   1.962   0.332   0.105 -0.4921  0.1394 -0.7668
 2384SOL     OW 9301   6.091   4.087   0.963  0.0356 -0.8768 -0.0991
 2384SOL    HW2 9302   6.174   4.042   0.977  0.5728 -0.4067 -1.5770
 2384SOL    HW3 9303   6.115   4.179   0.953 -0.7592 -0.6145  0.2773
 2384SOL    MW4 9304   6.105   4.094   0.963  0.1626 -0.0845 -0.2644
 2385SOL     OW 9305   6.126   2.463   2.032 -0.0097  0.0540  0.1523
 2385SOL    HW2 9306   6.137   2.419   2.117 -1.7299 -1.6460 -0.4167
 2385SOL    HW3 9307   6.207   2.445   1.985  0.6467  0.3392  1.1335
 2385SOL    MW4 9308   6.138   2.455   2.037  0.2618 -0.5521 -0.3795
 2386SOL     OW 9309   1.258   4.714   1.472 -0.2295 -0.1546 -0.0595
 2386SOL    HW2 9310   1.198   4.740   1.402 -0.2050  0.9284  0.3072
 2386SOL    HW3 9311   1.207   4.653   1.526 -0.7232  0.1063 -0.2241
 2386SOL    MW4 9312   1.243   4.709   1.470 -0.1731  0.1974  0.2215
 2387SOL     OW 9313   0.056   4.065   5.269  0.2120  0.6420  0.4403
 2387SOL    HW2 9314   0.043   4.038   5.360  1.4062 -2.2143 -0.1391
 2387SOL    HW3 9315   0.147   4.096   5.266  1.1825 -2.0030 -0.2571
 2387SOL    MW4 9316   0.066   4.066   5.281  0.0107 -0.6792  0.0482
 2388SOL     OW 9317   3.559   4.062   3.419  0.7682  0.5023 -1.2683
 2388SOL    HW2 9318   3.634   4.091   3.471  1.5707 -0.4365 -1.8565
 2388SOL    HW3 9319   3.513   3.999   3.475  0.9084  0.4381 -1.2255
 2388SOL    MW4 9320   3.563   4.057   3.433  0.1362  0.2040 -0.3109
 2389SOL     OW 9321   2.786   1.158   3.750  0.1240 -0.3630  0.2045
 2389SOL    HW2 9322   2.809   1.247   3.725  1.3160 -0.5089  0.7136
 2389SOL    HW3 9323   2.690   1.156   3.745  0.0751  0.9497  0.2255
 2389SOL    MW4 9324   2.777   1.169   3.746 -0.1918  0.7816  0.3951
 2390SOL     OW 9325   1.646   3.464   6.092 -0.1838 -0.0223  0.4485
 2390SOL    HW2 9326   1.692   3.547   6.076 -3.1541  1.8456  0.8084
 2390SOL    HW3 9327   1.671   3.440   6.182  1.1872  0.0995  0.1240
 2390SOL    MW4 9328   1.655   3.472   6.102  0.2031 -0.1025  0.0925
 2391SOL     OW 9329   1.031   6.259   5.524 -0.4980  0.2375 -0.3279
 2391SOL    HW2 9330   1.113   6.308   5.512  0.6342 -1.8105 -1.5262
 2391SOL    HW3 9331   0.991   6.257   5.437  0.3016 -2.2036 -0.7317
 2391SOL    MW4 9332   1.037   6.265   5.511 -0.4354  0.0605  0.2127
 2392SOL     OW 9333   0.871   4.580   2.194 -0.3069 -0.0656 -0.3847
 2392SOL    HW2 9334   0.815   4.575   2.116  1.4185 -0.1652 -1.6749
 2392SOL    HW3 9335   0.913   4.494   2.198 -0.4544 -0.0928  0.7420
 2392SOL    MW4 9336   0.869   4.568   2.184  0.7012 -0.5597  0.4227
 2393SOL     OW 9337   0.309   0.814   4.877  0.4422 -0.3866 -0.0634
 2393SOL    HW2 9338   0.242   0.827   4.944 -0.7022  0.1960 -1.2724
 2393SOL    HW3 9339   0.313   0.720   4.864 -1.2785 -0.3631 -1.0409
 2393SOL    MW4 9340   0.301   0.803   4.884 -0.1549 -0.0650 -0.0365
 2394SOL     OW 9341   4.329   1.557   1.520 -0.6200  0.0399  0.3718
 2394SOL    HW2 9342   4.315   1.509   1.602  2.5438 -0.7615  0.5886
 2394SOL    HW3 9343   4.409   1.518   1.484 -1.4577  0.9360 -2.7036
 2394SOL    MW4 9344   4.338   1.545   1.526 -0.3945 -0.0898 -0.3208
 2395SOL     OW 9345   6.301   0.255   6.135  0.0280 -0.2301 -0.0323
 2395SOL    HW2 9346   6.368   0.306   6.090  1.7327 -0.6759  1.8883
 2395SOL    HW3 9347   6.237   0.321   6.164  1.4112  0.7022  1.0578
 2395SOL    MW4 9348   6.301   0.271   6.133 -0.3711  0.0456 -0.2327
 2396SOL     OW 9349   2.500   4.652   0.728  0.0813 -0.3419 -0.1797
 2396SOL    HW2 9350   2.480   4.735   0.771  1.7743 -0.5707  1.1355
 2396SOL    HW3 9351   2.523   4.593   0.800 -0.7444 -1.8783 -1.1154
 2396SOL    MW4 9352   2.500   4.655   0.743 -0.0464 -0.3697  0.0195
 2397SOL     OW 9353   3.069   4.046   0.812 -0.3347  0.0604 -0.0978
 2397SOL    HW2 9354   2.995   4.099   0.842 -0.4768 -0.7414  1.0803
 2397SOL    HW3 9355   3.140   4.067   0.873  0.4730  0.8917 -1.2747
 2397SOL    MW4 9356   3.068   4.055   0.824  0.0473 -0.3593 -0.3812
 2398SOL     OW 9357   3.340   4.727   2.775 -0.5584  0.2739  0.0881
 2398SOL    HW2 9358   3.397   4.714   2.700 -0.7885 -1.1792  0.1280
 2398SOL    HW3 9359   3.266   4.778   2.741 -1.0998 -1.1212 -0.9281
 2398SOL    MW4 9360   3.338   4.732   2.760  0.5843 -0.6416  0.3221
 2399SOL     OW 9361   3.038   3.678   2.110 -0.2140 -0.5623 -0.0717
 2399SOL    HW2 9362   3.044   3.639   2.023  1.0379 -0.6147  0.0140
 2399SOL    HW3 9363   3.112   3.640   2.158  0.0237  0.6210  0.5322
 2399SOL    MW4 9364   3.049   3.668   2.105  0.1895 -0.1356  0.1662
 2400SOL     OW 9365   5.043   3.664   6.036  0.1013 -0.1685  0.6074
 2400SOL    HW2 9366   5.100   3.738   6.058  0.1449  0.3740 -1.2044
 2400SOL    HW3 9367   5.103   3.592   6.017  0.1536  0.0207  0.0313
 2400SOL    MW4 9368   5.059   3.665   6.036  0.0830 -0.2148 -0.0124
 2401SOL     OW 9369   6.129   3.524   3.668 -0.7772 -0.4441 -0.8955
 2401SOL    HW2 9370   6.088   3.610   3.659 -1.7832 -0.6607  1.1724
 2401SOL    HW3 9371   6.062   3.463   3.637 -0.6318 -0.5844 -0.9313
 2401SOL    MW4 9372   6.115   3.527   3.662  0.0590  0.0223  0.1651
 2402SOL     OW 9373   2.508   2.371   3.794  0.0963 -0.3306  0.4612
 2402SOL    HW2 9374   2.415   2.349   3.791  0.2822 -1.0771 -0.5036
 2402SOL    HW3 9375   2.513   2.458   3.754 -0.1845 -0.2979  0.4964
 2402SOL    MW4 9376   2.497   2.379   3.788  0.3250  0.1632  0.3101
 2403SOL     OW 9377   6.217   2.230   3.311  0.0455  0.1985 -0.6343
 2403SOL    HW2 9378   6.169   2.310   3.335 -0.4802 -0.1804 -0.4092
 2403SOL    HW3 9379   6.309   2.258   3.305  0.0268  0.5761  0.5856
 2403SOL    MW4 9380   6.223   2.244   3.313 -0.0634  0.2814  0.2163
 2404SOL     OW 9381   2.852   4.795   2.812  0.2508  0.0957  0.2350
 2404SOL    HW2 9382   2.908   4.872   2.799 -0.1651  0.4881  0.7576
 2404SOL    HW3 9383   2.900   4.725   2.768  0.6493  0.6395 -0.2319
 2404SOL    MW4 9384   2.866   4.796   2.804  0.0025  0.4496  0.1799
 2405SOL     OW 9385   6.342   5.145   5.425 -0.4116 -0.2696 -0.0486
 2405SOL    HW2 9386   6.310   5.226   5.384  0.3854  0.8361  1.3981
 2405SOL    HW3 9387   6.287   5.076   5.389 -0.2702  0.7286 -2.3119
 2405SOL    MW4 9388   6.330   5.147   5.415 -0.1868  0.6261  0.1840
 2406SOL     OW 9389   4.712   4.832   2.619 -0.3858  0.2518 -0.1679
 2406SOL    HW2 9390   4.799   4.801   2.643  0.2340  2.8832  1.4213
 2406SOL    HW3 9391   4.653   4.786   2.678  0.1480 -0.0368  0.1485
 2406SOL    MW4 9392   4.716   4.822   2.630 -0.3852 -0.0576 -0.2673
 2407SOL     OW 9393   5.884   5.552   2.317 -0.5729 -0.9110 -0.0138
 2407SOL    HW2 9394   5.914   5.560   2.408 -0.1720 -1.8225 -0.0578
 2407SOL    HW3 9395   5.965   5.542   2.266 -0.8452 -1.3255 -0.3683
 2407SOL    MW4 9396   5.899   5.552   2.322 -0.0884  0.0137 -0.6076
 2408SOL     OW 9397   5.647   3.594   5.681  0.5519  0.1363  0.0646
 2408SOL    HW2 9398   5.656   3.530   5.611  0.7236 -1.3766  1.3964
 2408SOL    HW3 9399   5.738   3.612   5.708  0.4472 -0.0434  0.5419
 2408SOL    MW4 9400   5.660   3.588   5.675  0.3200 -0.3373 -0.2859
 2409SOL     OW 9401   2.862   3.714   6.187 -0.1721 -0.0162  0.4793
 2409SOL    HW2 9402   2.877   3.778   6.256  2.1187  0.1358 -0.1002
 2409SOL    HW3 9403   2.943   3.663   6.183 -0.8734 -1.0954 -0.9910
 2409SOL    MW4 9404   2.874   3.716   6.196 -0.1497  0.0601 -0.2484
 2410SOL     OW 9405   0.462   3.786   5.659  0.7517 -0.0104 -0.2033
 2410SOL    HW2 9406   0.396   3.732   5.702  0.9030  0.1014  0.1763
 2410SOL    HW3 9407   0.419   3.818   5.579 -0.0229  0.9056  0.5574
 2410SOL    MW4 9408   0.447   3.783   5.654  0.7903 -0.4660 -0.0049
 2411SOL     OW 9409   2.321   4.224   5.328  0.3583  0.3966  0.8799
 2411SOL    HW2 9410   2.292   4.172   5.403  0.0817 -0.8228 -0.0418
 2411SOL    HW3 9411   2.413   4.243   5.346  0.2062  0.3951  1.6779
 2411SOL    MW4 9412   2.329   4.220   5.340 -0.2217 -0.1117  0.1333
 2412SOL     OW 9413   3.844   4.972   1.544 -0.1942 -0.0514  0.1926
 2412SOL    HW2 9414   3.839   4.918   1.465  1.4499  0.0966 -0.0493
 2412SOL    HW3 9415   3.891   4.917   1.607  3.5377  1.7071 -0.7350
 2412SOL    MW4 9416   3.850   4.957   1.542 -0.1217  0.0256  0.3463
 2413SOL     OW 9417   0.491   1.802   4.323  0.2491 -0.4188 -0.3781
 2413SOL    HW2 9418   0.545   1.848   4.388  1.1036 -1.7085 -0.1253
 2413SOL    HW3 9419   0.554   1.752   4.271 -0.4263  0.5809 -2.2390
 2413SOL    MW4 9420   0.507   1.802   4.325  0.1234 -0.4400  0.0637
 2414SOL     OW 9421   3.056   3.061   2.590 -0.1968 -0.3249  0.1237
 2414SOL    HW2 9422   3.071   3.092   2.500 -1.5967  1.0774  0.3162
 2414SOL    HW3 9423   3.135   3.012   2.612  0.8416  0.5910 -1.3393
 2414SOL    MW4 9424   3.069   3.059   2.581 -0.1543  0.2995  0.2997
 2415SOL     OW 9425   5.273   3.341   0.296  0.7751  0.6102  0.1722
 2415SOL    HW2 9426   5.204   3.298   0.246 -0.3316  0.4774  1.7059
 2415SOL    HW3 9427   5.280   3.429   0.257 -0.9190  0.9353  0.5250
 2415SOL    MW4 9428   5.265   3.347   0.285  0.0815 -0.7026 -0.8331
 2416SOL     OW 9429   4.252   3.065   2.970 -0.4194 -0.1135  0.4915
 2416SOL    HW2 9430   4.234   2.974   2.993  0.6793 -0.2302  0.9655
 2416SOL    HW3 9431   4.283   3.105   3.051 -1.8869  0.9813  0.5462
 2416SOL    MW4 9432   4.254   3.058   2.984  0.2879  0.0433  0.1375
 2417SOL     OW 9433   6.465   5.056   4.584  0.3909 -0.0938  0.7341
 2417SOL    HW2 9434   6.382   5.013   4.604  1.2287 -1.5911  1.0723
 2417SOL    HW3 9435   6.446   5.150   4.597 -1.9966 -0.0647 -1.8476
 2417SOL    MW4 9436   6.451   5.063   4.589 -0.5017  0.1981 -0.4386
 2418SOL     OW 9437   1.192   5.654   6.334 -0.0718  0.8241  0.0863
 2418SOL    HW2 9438   1.131   5.726   6.350  0.5540  2.4641 -3.8725
 2418SOL    HW3 9439   1.273   5.681   6.378 -0.6467  1.1609  0.9617
 2418SOL    MW4 9440   1.195   5.667   6.342  0.4008  0.1175 -0.5216
 2419SOL     OW 9441   2.868   3.552   5.537 -0.2761  0.3446 -0.2532
 2419SOL    HW2 9442   2.804   3.621   5.524 -1.1068 -0.5839 -1.2441
 2419SOL    HW3 9443   2.816   3.476   5.562  0.3893 -0.4949 -1.3322
 2419SOL    MW4 9444   2.853   3.551   5.539 -0.0041  0.3031  0.1375
 2420SOL     OW 9445   5.995   2.981   5.552  0.4518  0.5344 -0.2094
 2420SOL    HW2 9446   5.916   2.928   5.566  0.0128  1.5116  1.2437
 2420SOL    HW3 9447   5.980   3.025   5.469  1.1770 -2.1488 -1.8865
 2420SOL    MW4 9448   5.983   2.980   5.543 -0.0013  0.3734 -0.0782
 2421SOL     OW 9449   5.231   5.328   2.158 -0.2349 -0.2393  0.3321
 2421SOL    HW2 9450   5.155   5.344   2.101  1.2237 -0.0075 -1.6321
 2421SOL    HW3 9451   5.277   5.255   2.116  1.0310  0.1064  1.0879
 2421SOL    MW4 9452   5.227   5.320   2.145  0.6650  0.2675  0.4937
 2422SOL     OW 9453   1.922   3.273   2.635  0.0628 -0.1995 -0.0265
 2422SOL    HW2 9454   1.901   3.358   2.596  0.4212  0.3358  0.9264
 2422SOL    HW3 9455   2.014   3.258   2.612  0.3700  0.2691  0.8731
 2422SOL    MW4 9456   1.931   3.282   2.627  0.1867 -0.7755 -0.6627
 2423SOL     OW 9457   6.160   2.146   6.021 -0.3998 -0.1567 -0.3444
 2423SOL    HW2 9458   6.107   2.132   5.943 -2.2071 -0.7443  0.9092
 2423SOL    HW3 9459   6.127   2.228   6.058  0.5614  0.2101 -0.2666
 2423SOL    MW4 9460   6.149   2.155   6.016 -0.2973  0.0860  0.0611
 2424SOL     OW 9461   2.315   5.004   1.816 -0.4845 -0.1549 -0.0276
 2424SOL    HW2 9462   2.321   4.926   1.871 -1.9618  0.4714  1.0933
 2424SOL    HW3 9463   2.334   5.077   1.876 -1.8523  0.5199 -0.3613
 2424SOL    MW4 9464   2.318   5.004   1.831 -0.0109 -0.1292  0.4609
 2425SOL     OW 9465   1.733   2.151   5.764 -0.0306  0.3794 -1.0719
 2425SOL    HW2 9466   1.772   2.134   5.850  1.2583  1.1204 -1.4780
 2425SOL    HW3 9467   1.653   2.200   5.782 -1.3550 -1.9429 -0.1591
 2425SOL    MW4 9468   1.728   2.155   5.778  0.0164  0.4450 -0.1393
 2426SOL     OW 9469   1.481   4.890   1.577  0.2910  0.3053  0.2340
 2426SOL    HW2 9470   1.407   4.836   1.549  0.3797  0.2265  0.1509
 2426SOL    HW3 9471   1.553   4.828   1.591  0.5546  0.4610 -0.4066
 2426SOL    MW4 9472   1.481   4.875   1.575  0.1271  0.5092  0.1211
 2427SOL     OW 9473   1.552   2.714   6.388  0.2028 -0.4955 -0.1147
 2427SOL    HW2 9474   1.557   2.641   6.451  0.8579 -2.4606 -2.3010
 2427SOL    HW3 9475   1.471   2.698   6.340 -0.4032  1.1021  0.3336
 2427SOL    MW4 9476   1.542   2.702   6.390 -0.3410 -0.5204  0.0934
 2428SOL     OW 9477   2.153   1.067   1.676 -0.0328  0.2766 -0.1467
 2428SOL    HW2 9478   2.090   1.027   1.616  2.3309 -0.0623 -2.6339
 2428SOL    HW3 9479   2.129   1.160   1.677  1.4134  0.8868 -4.0546
 2428SOL    MW4 9480   2.142   1.074   1.668  0.1741 -0.5707 -0.1615
 2429SOL     OW 9481   4.156   2.264   0.844 -0.0338  0.0857 -0.4538
 2429SOL    HW2 9482   4.094   2.201   0.806  0.4088 -0.6644  0.0227
 2429SOL    HW3 9483   4.179   2.225   0.929 -0.7430  1.5319  0.4474
 2429SOL    MW4 9484   4.151   2.250   0.850  0.7683 -0.1212 -0.1505
 2430SOL     OW 9485   2.240   4.295   6.317 -0.8908 -0.1682  0.1288
 2430SOL    HW2 9486   2.313   4.237   6.295  0.2798  1.5954 -0.9373
 2430SOL    HW3 9487   2.220   4.275   6.408  1.0283 -0.6188  0.4907
 2430SOL    MW4 9488   2.247   4.285   6.326 -0.1679 -0.4079 -0.1414
 2431SOL     OW 9489   1.022   3.760   5.192 -0.4575  0.0025 -0.1016
 2431SOL    HW2 9490   0.949   3.703   5.171 -0.4660 -0.4045  0.9878
 2431SOL    HW3 9491   1.031   3.817   5.116 -0.8949 -0.9846 -0.9036
 2431SOL    MW4 9492   1.014   3.760   5.179 -0.6267  0.1371 -0.9245
 2432SOL     OW 9493   5.322   0.577   5.846  0.5724 -0.0643 -0.8858
 2432SOL    HW2 9494   5.390   0.511   5.841  0.6321 -0.3456  1.9572
 2432SOL    HW3 9495   5.251   0.536   5.896  0.8888  2.1065  1.6149
 2432SOL    MW4 9496   5.321   0.563   5.852 -0.1904  0.5425 -0.3848
 2433SOL     OW 9497   2.674   2.029   3.867  0.2997 -0.2675  0.0862
 2433SOL    HW2 9498   2.743   2.095   3.875 -1.2463  1.7542 -2.0977
 2433SOL    HW3 9499   2.690   1.989   3.782 -1.8182  1.0599 -0.9990
 2433SOL    MW4 9500   2.685   2.033   3.857 -0.4440 -0.0023  0.4188
 2434SOL     OW 9501   4.759   5.722   6.095 -0.3607 -0.1488  0.0856
 2434SOL    HW2 9502   4.702   5.657   6.135 -1.1594  0.8437  0.6239
 2434SOL    HW3 9503   4.798   5.769   6.168 -0.8979  0.8894 -0.2678
 2434SOL    MW4 9504   4.756   5.720   6.110 -0.0461  0.4919  0.1017
 2435SOL     OW 9505   2.562   0.059   3.957  0.3357  0.1442  0.0013
 2435SOL    HW2 9506   2.517   0.122   3.900 -0.2637  0.8616  1.2413
 2435SOL    HW3 9507   2.628   0.111   4.003  0.8653 -0.4469 -0.0636
 2435SOL    MW4 9508   2.565   0.074   3.955 -0.1498 -0.0700  0.4070
 2436SOL     OW 9509   3.112   1.399   3.476 -0.4715 -0.7694 -0.4405
 2436SOL    HW2 9510   3.167   1.335   3.521 -0.3079 -1.5312 -1.6759
 2436SOL    HW3 9511   3.037   1.412   3.534  0.5824 -0.3459  0.8789
 2436SOL    MW4 9512   3.109   1.392   3.490  0.5747 -0.2015 -1.1569
 2437SOL     OW 9513   2.561   2.601   3.599  0.1330  0.7082  0.2702
 2437SOL    HW2 9514   2.499   2.672   3.582 -1.7715 -1.3653 -2.5257
 2437SOL    HW3 9515   2.613   2.595   3.518  2.2014  0.6117  1.5215
 2437SOL    MW4 9516   2.560   2.610   3.586 -0.2757 -0.7001  0.3086
 2438SOL     OW 9517   5.594   0.733   0.820  0.5884 -0.1483  0.3472
 2438SOL    HW2 9518   5.526   0.734   0.753  1.7159 -0.3245 -0.8435
 2438SOL    HW3 9519   5.609   0.641   0.838  0.4147 -0.1060  0.7140
 2438SOL    MW4 9520   5.587   0.721   0.814 -0.7816 -0.3259  0.6297
 2439SOL     OW 9521   5.420   0.197   1.068 -0.0361  0.1442  0.0239
 2439SOL    HW2 9522   5.382   0.282   1.046  0.2424  0.2457 -0.0740
 2439SOL    HW3 9523   5.419   0.194   1.164  0.3408  0.4384  0.0391
 2439SOL    MW4 9524   5.415   0.208   1.078  0.0180  0.4534 -0.1390
 2440SOL     OW 9525   1.738   5.001   5.065 -0.5487  0.1145  0.0918
 2440SOL    HW2 9526   1.810   4.938   5.065  0.6377  1.3115  2.5931
 2440SOL    HW3 9527   1.779   5.084   5.091 -2.4452  1.4018 -0.7954
 2440SOL    MW4 9528   1.753   5.004   5.068 -0.4657 -0.0695  0.4029
 2441SOL     OW 9529   4.317   1.599   5.799 -0.0976  0.1839 -0.3392
 2441SOL    HW2 9530   4.392   1.641   5.840 -0.3392 -0.5924  0.9608
 2441SOL    HW3 9531   4.257   1.671   5.780  1.0062  0.8357 -1.5595
 2441SOL    MW4 9532   4.319   1.614   5.802 -0.1501  0.1042 -0.4823
 2442SOL     OW 9533   2.977   1.261   2.753 -0.1722  0.4603 -0.2272
 2442SOL    HW2 9534   3.025   1.342   2.736 -0.6911  0.8283  0.0216
 2442SOL    HW3 9535   2.902   1.288   2.806 -0.1202 -0.2521  0.2191
 2442SOL    MW4 9536   2.973   1.275   2.758 -0.5052 -0.0784  0.4699
 2443SOL     OW 9537   3.790   3.203   1.717 -0.5138 -0.2475 -0.0584
 2443SOL    HW2 9538   3.841   3.199   1.636 -1.1166  1.3468 -0.5641
 2443SOL    HW3 9539   3.717   3.261   1.696 -0.6563  0.2487  1.6648
 2443SOL    MW4 9540   3.787   3.210   1.704 -0.6871 -0.3030 -0.1259
 2444SOL     OW 9541   5.342   0.942   4.512 -0.0186 -0.1778 -0.6974
 2444SOL    HW2 9542   5.394   0.910   4.439  1.2430 -1.6133  0.7362
 2444SOL    HW3 9543   5.318   0.864   4.561  0.9784  0.8399  1.5613
 2444SOL    MW4 9544   5.346   0.928   4.509  0.5006  0.4260  0.1849
 2445SOL     OW 9545   2.060   4.957   2.506  0.2273  0.1392  0.1382
 2445SOL    HW2 9546   2.128   4.892   2.492 -0.4905 -0.4878 -0.5276
 2445SOL    HW3 9547   2.007   4.923   2.577 -0.5121 -0.3306 -0.6159
 2445SOL    MW4 9548   2.062   4.944   2.513 -0.3969 -0.4382  0.1721
 2446SOL     OW 9549   6.442   3.156   2.576 -0.4975  0.3354 -0.0598
 2446SOL    HW2 9550   6.392   3.217   2.523  0.8179  1.7913  0.3026
 2446SOL    HW3 9551   6.431   3.187   2.666 -1.8228 -1.4635  0.4490
 2446SOL    MW4 9552   6.434   3.168   2.581 -0.1096 -0.5053 -0.0074
 2447SOL     OW 9553   0.485   1.685   2.306 -0.0453  0.0400  0.2444
 2447SOL    HW2 9554   0.390   1.672   2.305 -0.1041  0.2167  1.5654
 2447SOL    HW3 9555   0.497   1.771   2.345  0.6498  0.1350 -0.1675
 2447SOL    MW4 9556   0.474   1.694   2.311  0.2986 -0.4628  0.4167
 2448SOL     OW 9557   6.276   6.098   6.389  0.5227 -0.3329  0.4170
 2448SOL    HW2 9558   6.328   6.054   6.322  0.0852 -0.7550  0.3517
 2448SOL    HW3 9559   6.327   6.176   6.412 -0.3541  1.0453 -1.9828
 2448SOL    MW4 9560   6.290   6.102   6.383  0.4478 -0.8810 -0.1731
 2449SOL     OW 9561   2.615   0.675   5.309 -0.4235  0.1137 -0.4212
 2449SOL    HW2 9562   2.572   0.661   5.225  1.1383 -0.0737 -1.2194
 2449SOL    HW3 9563   2.703   0.703   5.287 -0.2325  0.8996  1.1680
 2449SOL    MW4 9564   2.621   0.677   5.295  0.2909 -0.6076 -0.3298
 2450SOL     OW 9565   6.260   3.903   3.786 -0.1065 -0.1018  0.2641
 2450SOL    HW2 9566   6.325   3.969   3.763  1.0525 -1.3532 -0.1545
 2450SOL    HW3 9567   6.299   3.856   3.860 -1.7166  0.8120  1.7783
 2450SOL    MW4 9568   6.273   3.906   3.793  0.0960  0.6600 -0.7142
 2451SOL     OW 9569   4.600   3.054   1.221 -0.3241 -0.6881  0.6357
 2451SOL    HW2 9570   4.593   3.099   1.305 -2.2621 -2.0657  1.3021
 2451SOL    HW3 9571   4.526   2.993   1.221  1.0956 -2.5137 -1.0054
 2451SOL    MW4 9572   4.589   3.052   1.232 -0.3581  0.2151 -0.1001
 2452SOL     OW 9573   5.646   6.274   2.430 -0.3568  0.1944 -0.5017
 2452SOL    HW2 9574   5.700   6.262   2.509 -0.7054  2.6594  0.2025
 2452SOL    HW3 9575   5.706   6.258   2.357  0.7154  0.5616  0.2733
 2452SOL    MW4 9576   5.661   6.271   2.431  0.0578  0.7351 -0.5327
 2453SOL     OW 9577   4.506   3.311   2.742  0.1048  0.3796  0.3980
 2453SOL    HW2 9578   4.505   3.395   2.696  2.2174  0.0249 -0.4343
 2453SOL    HW3 9579   4.568   3.323   2.814 -0.8326  0.0014  1.3021
 2453SOL    MW4 9580   4.514   3.323   2.746  0.2136  0.1945 -0.0919
 2454SOL     OW 9581   3.428   1.805   4.352  0.6272  0.0532 -0.5380
 2454SOL    HW2 9582   3.407   1.759   4.270  0.3969 -0.1662 -0.3559
 2454SOL    HW3 9583   3.476   1.741   4.404  1.0132  0.2810 -0.6064
 2454SOL    MW4 9584   3.431   1.791   4.348 -0.2989 -0.0261  0.3441
 2455SOL     OW 9585   4.189   2.327   5.930 -0.3465  0.1269  0.3790
 2455SOL    HW2 9586   4.266   2.354   5.979 -0.5613  1.0233  0.2347
 2455SOL    HW3 9587   4.142   2.268   5.989 -0.0294  0.3116  0.8131
 2455SOL    MW4 9588   4.193   2.322   5.944 -0.2770  0.7032 -0.0503
 2456SOL     OW 9589   3.738   5.773   3.532 -0.0520 -0.7488  0.1418
 2456SOL    HW2 9590   3.794   5.721   3.474  1.4857  0.0642  0.8286
 2456SOL    HW3 9591   3.776   5.861   3.529 -0.5336 -0.4657  1.6249
 2456SOL    MW4 9592   3.751   5.778   3.524 -0.1342 -0.5014 -0.4409
 2457SOL     OW 9593   4.804   5.576   3.654 -0.3924  0.0884 -0.0693
 2457SOL    HW2 9594   4.763   5.560   3.739  2.9556 -0.8543  1.5726
 2457SOL    HW3 9595   4.841   5.664   3.661 -1.0489  0.4626 -1.0385
 2457SOL    MW4 9596   4.804   5.586   3.666 -0.3814  0.0843 -0.1876
 2458SOL     OW 9597   5.393   4.544   0.256  0.2896 -0.3955 -0.0913
 2458SOL    HW2 9598   5.485   4.531   0.279  0.8449  0.8037 -1.5091
 2458SOL    HW3 9599   5.367   4.621   0.307  1.1215  1.4008 -2.2141
 2458SOL    MW4 9600   5.402   4.552   0.266  0.0686  0.3575  0.0817
 2459SOL     OW 9601   2.735   6.309   4.296 -0.0123 -0.2511 -0.2239
 2459SOL    HW2 9602   2.741   6.371   4.224 -1.6793  1.6268  1.1594
 2459SOL    HW3 9603   2.821   6.315   4.339  0.1206  0.5160 -0.5714
 2459SOL    MW4 9604   2.747   6.318   4.292  0.4132 -0.3548 -0.3472
 2460SOL     OW 9605   1.126   2.880   4.941  0.0072 -0.9252 -0.3557
 2460SOL    HW2 9606   1.075   2.924   4.874 -0.2716 -0.4925  0.1310
 2460SOL    HW3 9607   1.133   2.944   5.012 -0.8178 -1.8241  0.5700
 2460SOL    MW4 9608   1.120   2.894   4.942 -0.2637 -0.1203  0.2170
 2461SOL     OW 9609   6.073   6.413   4.879  0.4538  0.6728  0.3979
 2461SOL    HW2 9610   6.027   6.330   4.889 -0.1777  0.8675 -0.7548
 2461SOL    HW3 9611   6.156   6.389   4.838 -0.7262  0.8120 -2.2565
 2461SOL    MW4 9612   6.078   6.399   4.875 -0.0995 -0.2797  0.0924
 2462SOL     OW 9613   5.046   0.493   4.871  0.4231  0.0912  0.3070
 2462SOL    HW2 9614   5.110   0.447   4.816 -0.3502 -1.0276  0.3020
 2462SOL    HW3 9615   4.973   0.511   4.811 -1.0943 -2.5053  1.2304
 2462SOL    MW4 9616   5.045   0.489   4.856  0.0902  0.8729 -0.5546
 2463SOL     OW 9617   3.736   4.869   5.622 -0.2500 -0.2386  0.7470
 2463SOL    HW2 9618   3.647   4.870   5.589 -0.1827 -2.9100  0.2080
 2463SOL    HW3 9619   3.782   4.937   5.572 -1.6155  0.1047 -0.0766
 2463SOL    MW4 9620   3.730   4.878   5.611 -0.5304 -0.3815  0.2380
 2464SOL     OW 9621   6.033   0.774   1.898  0.1324  0.2754  0.2247
 2464SOL    HW2 9622   5.983   0.771   1.816  0.5365  0.4191 -0.0293
 2464SOL    HW3 9623   6.113   0.725   1.879  0.4186  0.6716  0.3977
 2464SOL    MW4 9624   6.037   0.767   1.884  0.1501 -0.0939  0.1911
 2465SOL     OW 9625   3.815   4.869   6.128 -0.7877 -0.8028 -0.0460
 2465SOL    HW2 9626   3.870   4.836   6.057 -0.6235 -1.4420  0.3703
 2465SOL    HW3 9627   3.769   4.944   6.090  0.9674  0.2758 -0.1751
 2465SOL    MW4 9628   3.817   4.875   6.114 -0.0511 -0.3920  0.4106
 2466SOL     OW 9629   5.592   0.212   4.409  0.4137  0.0970  0.3724
 2466SOL    HW2 9630   5.585   0.176   4.321  1.5104  0.3078  0.1950
 2466SOL    HW3 9631   5.578   0.306   4.399 -2.9125 -0.2126  0.8962
 2466SOL    MW4 9632   5.589   0.219   4.396  0.3135  0.5789 -0.4667
 2467SOL     OW 9633   2.026   0.191   2.191 -0.1323 -0.3332  0.3069
 2467SOL    HW2 9634   2.113   0.157   2.211  0.7531  0.3069 -2.0819
 2467SOL    HW3 9635   2.025   0.279   2.229 -0.0116 -0.6228  0.9754
 2467SOL    MW4 9636   2.037   0.198   2.198 -0.1590 -0.1008 -0.7146
 2468SOL     OW 9637   3.829   2.044   3.155  0.0190 -0.4771  0.4397
 2468SOL    HW2 9638   3.873   1.985   3.093 -0.3605  1.0901 -1.3825
 2468SOL    HW3 9639   3.799   1.985   3.225 -0.5885 -2.5133 -1.4141
 2468SOL    MW4 9640   3.831   2.028   3.156 -0.2553  0.1504 -0.0796
 2469SOL     OW 9641   1.793   5.950   4.162 -0.1743 -0.6598 -0.0776
 2469SOL    HW2 9642   1.881   5.962   4.199 -1.1900  1.6724  1.9169
 2469SOL    HW3 9643   1.787   6.016   4.093 -0.5406 -0.3479  0.2433
 2469SOL    MW4 9644   1.804   5.961   4.158  0.1871  0.1951  0.0201
 2470SOL     OW 9645   4.977   1.737   3.155 -0.3634 -0.1678  0.1083
 2470SOL    HW2 9646   5.072   1.749   3.149 -0.3021 -0.5852  0.1666
 2470SOL    HW3 9647   4.964   1.698   3.242 -0.5207 -0.7059 -0.1510
 2470SOL    MW4 9648   4.988   1.733   3.166 -0.4229 -0.2842 -1.2733
 2471SOL     OW 9649   2.251   0.638   3.413  0.5770 -0.3937 -0.0728
 2471SOL    HW2 9650   2.173   0.616   3.464  0.7826  0.2718  0.5509
 2471SOL    HW3 9651   2.324   0.603   3.464  0.7001 -0.9258 -0.6038
 2471SOL    MW4 9652   2.251   0.631   3.427 -0.3195 -0.0939 -0.2937
 2472SOL     OW 9653   4.767   0.015   4.941  0.1688 -0.6276 -0.0656
 2472SOL    HW2 9654   4.829  -0.042   4.897  0.3968  0.4936 -1.2495
 2472SOL    HW3 9655   4.817   0.054   5.013  0.3267 -1.0406  0.0524
 2472SOL    MW4 9656   4.782   0.013   4.945  0.0230 -0.3256 -0.2916
 2473SOL     OW 9657   5.296   4.816   6.187 -0.0736  0.4771  0.1346
 2473SOL    HW2 9658   5.388   4.788   6.183 -0.4752 -1.1785  1.4243
 2473SOL    HW3 9659   5.266   4.812   6.096  0.5390 -1.2053 -0.0323
 2473SOL    MW4 9660   5.304   4.812   6.174  0.4349 -0.1656 -0.3884
 2474SOL     OW 9661   1.332   1.195   4.934 -0.6416  0.2951 -0.5117
 2474SOL    HW2 9662   1.298   1.273   4.976 -1.6212 -0.3937  0.0010
 2474SOL    HW3 9663   1.255   1.141   4.915 -0.0128 -0.4305 -1.0989
 2474SOL    MW4 9664   1.318   1.198   4.937  0.2046 -0.5293 -0.3142
 2475SOL     OW 9665   5.658   1.683   4.354 -0.2473 -0.1872  0.2065
 2475SOL    HW2 9666   5.697   1.695   4.441 -2.1343 -0.7542  1.1962
 2475SOL    HW3 9667   5.584   1.744   4.352  0.4622  0.6670 -1.4969
 2475SOL    MW4 9668   5.653   1.692   4.365 -0.6334  0.2523  0.1988
 2476SOL     OW 9669   0.291   0.585   2.501  0.1605  0.3480  0.2399
 2476SOL    HW2 9670   0.345   0.550   2.429  1.0562  1.2502  0.4447
 2476SOL    HW3 9671   0.214   0.528   2.503 -0.8310  1.3984 -2.6660
 2476SOL    MW4 9672   0.288   0.573   2.492  0.2454 -0.4510 -1.0929
 2477SOL     OW 9673   1.099   5.405   4.191 -0.1435 -0.0275  0.1444
 2477SOL    HW2 9674   1.055   5.328   4.153  0.3596  0.6296 -1.9188
 2477SOL    HW3 9675   1.027   5.458   4.227 -0.5764 -1.0178  0.7807
 2477SOL    MW4 9676   1.083   5.402   4.191  0.1220 -0.1064  0.2805
 2478SOL     OW 9677   2.895   1.100   2.199  0.3469 -0.7165  0.0644
 2478SOL    HW2 9678   2.818   1.053   2.166 -0.8069  0.9047  0.3193
 2478SOL    HW3 9679   2.943   1.034   2.249 -1.5617 -1.4840  0.9945
 2478SOL    MW4 9680   2.891   1.085   2.201 -0.0749  0.0108 -0.3364
 2479SOL     OW 9681   3.812   2.309   3.974 -0.5847  0.8580 -0.1401
 2479SOL    HW2 9682   3.889   2.364   3.966 -0.6653  0.8077 -1.5539
 2479SOL    HW3 9683   3.744   2.355   3.925 -1.1664  0.3812  0.1958
 2479SOL    MW4 9684   3.813   2.322   3.967 -0.5077 -0.2893 -0.3618
 2480SOL     OW 9685   2.287   4.245   1.679 -0.2791 -0.3671 -0.4105
 2480SOL    HW2 9686   2.334   4.229   1.760 -0.8577  0.0095  0.0043
 2480SOL    HW3 9687   2.281   4.159   1.637 -1.4717 -0.8745  0.7625
 2480SOL    MW4 9688   2.292   4.232   1.684  0.1612  0.0476 -0.2689
 2481SOL     OW 9689   5.204   2.487   1.001 -0.0071 -0.2954  0.0714
 2481SOL    HW2 9690   5.172   2.463   0.914  2.5531  1.6451 -1.5452
 2481SOL    HW3 9691   5.289   2.443   1.008  0.0713  0.0259  1.3638
 2481SOL    MW4 9692   5.211   2.478   0.991  0.3320  0.8921  0.6789
 2482SOL     OW 9693   6.165   0.254   3.577 -0.6539  0.2881  0.1243
 2482SOL    HW2 9694   6.088   0.203   3.603 -0.3521 -0.0283  0.4115
 2482SOL    HW3 9695   6.130   0.322   3.519 -0.9269 -0.9292 -1.2074
 2482SOL    MW4 9696   6.150   0.256   3.573 -0.7642  0.1489 -0.2759
 2483SOL     OW 9697   0.062   0.377   5.883  0.0614  0.4627  0.2218
 2483SOL    HW2 9698   0.018   0.299   5.850 -1.5319  0.4577  2.1996
 2483SOL    HW3 9699   0.154   0.352   5.889 -0.3525 -1.1296  0.4125
 2483SOL    MW4 9700   0.069   0.363   5.879 -0.5989 -0.1264 -0.7350
 2484SOL     OW 9701   5.500   1.790   5.807 -0.0373  0.4178 -0.2169
 2484SOL    HW2 9702   5.584   1.755   5.775 -0.1495  1.2440 -1.4674
 2484SOL    HW3 9703   5.434   1.739   5.761 -0.2107  0.7530 -0.3400
 2484SOL    MW4 9704   5.502   1.778   5.797  0.3069 -0.2146 -0.0339
 2485SOL     OW 9705   2.677   2.526   0.387 -0.0796  0.2181  0.1794
 2485SOL    HW2 9706   2.667   2.447   0.334  0.7101  1.0202 -1.2132
 2485SOL    HW3 9707   2.727   2.497   0.463  2.3364 -0.2264 -1.4680
 2485SOL    MW4 9708   2.682   2.512   0.390  0.9124 -0.1168  1.2561
 2486SOL     OW 9709   5.351   0.574   6.377 -0.0732  0.3122 -0.0523
 2486SOL    HW2 9710   5.302   0.628   6.314  0.8831 -0.3231 -1.4016
 2486SOL    HW3 9711   5.354   0.487   6.336 -0.4186 -0.4322  1.4423
 2486SOL    MW4 9712   5.345   0.570   6.363 -0.1119  0.3384 -0.2779
 2487SOL     OW 9713   0.859   3.052   0.726 -0.0463  0.5464 -0.6047
 2487SOL    HW2 9714   0.824   3.130   0.684 -2.8144  0.6194  1.5119
 2487SOL    HW3 9715   0.782   2.998   0.743  1.1305 -0.3973  2.2969
 2487SOL    MW4 9716   0.844   3.055   0.723  0.3892 -0.0639 -0.1222
 2488SOL     OW 9717   4.664   3.171   3.416 -0.0909  0.2111  0.2492
 2488SOL    HW2 9718   4.640   3.108   3.483  0.6117  0.2932  0.5843
 2488SOL    HW3 9719   4.680   3.118   3.338  0.0535  0.0260  0.4067
 2488SOL    MW4 9720   4.663   3.156   3.414 -0.6074  0.3454 -0.2246
 2489SOL     OW 9721   5.450   1.634   6.023 -0.2403  0.0766 -0.2055
 2489SOL    HW2 9722   5.487   1.680   5.948  0.4426  2.7080  1.6175
 2489SOL    HW3 9723   5.506   1.557   6.034 -0.4661 -0.4705 -2.4289
 2489SOL    MW4 9724   5.462   1.630   6.014 -0.0659 -0.3804 -0.3851
 2490SOL     OW 9725   0.196   0.413   0.080  0.6013 -0.1123  0.1842
 2490SOL    HW2 9726   0.225   0.484   0.138 -1.0005  1.7657 -1.1532
 2490SOL    HW3 9727   0.112   0.386   0.116  0.3475 -0.0385 -0.3437
 2490SOL    MW4 9728   0.189   0.419   0.093 -0.2212 -0.2045 -0.3061
 2491SOL     OW 9729   4.866   3.708   3.663 -1.0611 -0.0372  0.2351
 2491SOL    HW2 9730   4.933   3.643   3.683 -0.8702  0.0357 -0.1623
 2491SOL    HW3 9731   4.829   3.680   3.579 -1.9591 -0.4232  0.7415
 2491SOL    MW4 9732   4.870   3.696   3.654  0.0478 -0.6134 -0.1094
 2492SOL     OW 9733   0.794   3.807   0.203 -0.7441  0.0320  0.6397
 2492SOL    HW2 9734   0.774   3.720   0.237  2.1272 -0.8684  0.2745
 2492SOL    HW3 9735   0.811   3.793   0.110 -0.2028  0.9716  0.5883
 2492SOL    MW4 9736   0.793   3.794   0.195  0.2659 -0.5886 -0.5260
 2493SOL     OW 9737   1.729   4.700   0.647 -0.3029 -0.2099 -0.1456
 2493SOL    HW2 9738   1.679   4.663   0.720 -0.5904 -0.1272 -0.2974
 2493SOL    HW3 9739   1.815   4.659   0.654  0.4225  1.4333  1.5865
 2493SOL    MW4 9740   1.734   4.690   0.658  0.4891 -0.4303 -0.0611
 2494SOL     OW 9741   5.978   2.618   3.467  0.5364 -0.0913 -0.1285
 2494SOL    HW2 9742   5.950   2.593   3.555  0.2474  1.2055  0.1687
 2494SOL    HW3 9743   6.034   2.695   3.481  0.2450  0.3073 -1.0845
 2494SOL    MW4 9744   5.982   2.625   3.481  0.0783 -0.0854  0.1526
 2495SOL     OW 9745   4.660   4.155   0.872 -1.2274  0.3376 -0.0956
 2495SOL    HW2 9746   4.700   4.211   0.805 -1.1564  1.1137  0.5802
 2495SOL    HW3 9747   4.576   4.197   0.891 -1.4944 -0.1946 -0.0984
 2495SOL    MW4 9748   4.654   4.168   0.865  0.1953  0.2244 -0.3650
 2496SOL     OW 9749   4.798   3.732   2.995 -0.1015 -0.5369  0.8614
 2496SOL    HW2 9750   4.840   3.754   2.912 -0.1497  0.7068  1.1537
 2496SOL    HW3 9751   4.871   3.710   3.053  0.0257 -0.2048  0.8319
 2496SOL    MW4 9752   4.813   3.732   2.992 -0.1214 -0.1487  0.0884
 2497SOL     OW 9753   3.906   3.084   4.628  0.2844  0.1400  0.3021
 2497SOL    HW2 9754   3.821   3.040   4.623 -0.0284  0.5338  1.5880
 2497SOL    HW3 9755   3.969   3.019   4.598 -0.5028  0.0231 -1.2131
 2497SOL    MW4 9756   3.903   3.070   4.623 -1.2527 -0.4815  0.2429
 2498SOL     OW 9757   6.056   3.132   1.277  0.4758  0.1228 -0.3363
 2498SOL    HW2 9758   5.991   3.091   1.221  0.8046 -0.6665 -0.1588
 2498SOL    HW3 9759   6.083   3.062   1.337 -0.7458  1.2303  1.6275
 2498SOL    MW4 9760   6.051   3.117   1.278 -0.3986 -0.1650 -0.3120
 2499SOL     OW 9761   4.433   1.698   5.353 -0.0087  0.1018 -0.2887
 2499SOL    HW2 9762   4.407   1.724   5.265 -0.5105 -0.7273 -0.3853
 2499SOL    HW3 9763   4.371   1.630   5.378  1.3400 -1.0967 -0.0807
 2499SOL    MW4 9764   4.422   1.693   5.345 -0.6064  0.1442 -0.3286
 2500SOL     OW 9765   1.893   0.980   0.566 -0.1839 -0.4349  0.1466
 2500SOL    HW2 9766   1.958   1.013   0.504  1.5468 -1.4128  1.3571
 2500SOL    HW3 9767   1.925   0.893   0.590  0.3584  0.6336  3.8977
 2500SOL    MW4 9768   1.906   0.973   0.561 -0.1220  0.0558  0.8383
 2501SOL     OW 9769   3.845   1.269   2.804 -0.1144  0.3131  0.2042
 2501SOL    HW2 9770   3.796   1.298   2.728  1.4065  0.9252 -0.5965
 2501SOL    HW3 9771   3.880   1.350   2.842  1.2145 -0.1590  0.0487
 2501SOL    MW4 9772   3.843   1.284   2.799 -0.9073 -0.0243 -0.0077
 2502SOL     OW 9773   1.215   3.530   4.945  0.0473  0.2584 -0.1958
 2502SOL    HW2 9774   1.294   3.488   4.910  1.4384  1.2187  1.6467
 2502SOL    HW3 9775   1.171   3.461   4.995 -0.4078 -0.3264 -1.3654
 2502SOL    MW4 9776   1.220   3.515   4.947  0.4280 -0.2159  0.2696
 2503SOL     OW 9777   1.861   3.210   3.508 -0.1862  0.1754  0.4192
 2503SOL    HW2 9778   1.871   3.208   3.412  0.0582  0.7152  0.4277
 2503SOL    HW3 9779   1.768   3.192   3.523 -0.3193  0.5467  0.0556
 2503SOL    MW4 9780   1.850   3.207   3.497  0.4547  0.3775 -0.4735
 2504SOL     OW 9781   3.208   3.449   0.791 -0.8793 -0.1754  0.9585
 2504SOL    HW2 9782   3.273   3.432   0.723 -1.9076  0.6271 -0.2825
 2504SOL    HW3 9783   3.225   3.383   0.858  0.2379 -0.9249 -0.0220
 2504SOL    MW4 9784   3.219   3.438   0.791  0.1707  0.0846  0.1963
 2505SOL     OW 9785   2.593   6.365   0.587  0.0704  0.2557 -0.2045
 2505SOL    HW2 9786   2.597   6.389   0.680  1.0170  0.2093 -0.2301
 2505SOL    HW3 9787   2.509   6.401   0.557  0.7601  2.2357  0.1095
 2505SOL    MW4 9788   2.582   6.373   0.596  0.1989  0.1359 -0.3797
 2506SOL     OW 9789   4.871   4.541   4.554 -0.1023 -0.2455  0.1226
 2506SOL    HW2 9790   4.868   4.561   4.647 -0.4566  2.3485 -0.3714
 2506SOL    HW3 9791   4.949   4.485   4.543  1.4338  1.4879  1.6350
 2506SOL    MW4 9792   4.881   4.536   4.565 -0.5673 -0.0264 -0.6931
 2507SOL     OW 9793   3.898   5.981   6.277  0.1490  0.2693 -0.6841
 2507SOL    HW2 9794   3.893   6.076   6.270 -0.0082  0.6479  2.8444
 2507SOL    HW3 9795   3.975   5.964   6.330  0.8368 -1.7013 -2.1884
 2507SOL    MW4 9796   3.907   5.991   6.283  0.1929 -0.3122 -0.5880
 2508SOL     OW 9797   2.992   1.877   5.719 -0.1503 -0.1583 -0.0991
 2508SOL    HW2 9798   2.964   1.877   5.810 -0.8100 -1.0421 -0.2838
 2508SOL    HW3 9799   3.002   1.784   5.697  0.2254  0.0550 -0.8563
 2508SOL    MW4 9800   2.989   1.865   5.728 -0.2123  0.1480 -0.4529
 2509SOL     OW 9801   1.004   3.450   3.003  0.3628  0.0759 -0.2183
 2509SOL    HW2 9802   0.910   3.446   3.023  0.5085  0.6648  0.6145
 2509SOL    HW3 9803   1.013   3.398   2.923 -0.5753 -0.5131  0.0411
 2509SOL    MW4 9804   0.992   3.443   2.995  0.3290  0.2062 -0.3172
 2510SOL     OW 9805   4.965   3.199   2.073  0.4765  0.1600 -0.6069
 2510SOL    HW2 9806   4.969   3.278   2.020 -0.0006  1.2809  0.9409
 2510SOL    HW3 9807   5.032   3.142   2.036 -0.3153  0.5767 -2.8277
 2510SOL    MW4 9808   4.975   3.202   2.061 -0.6447 -0.2924 -1.1246
 2511SOL     OW 9809   4.146   1.121   4.039 -0.2447  0.2502  0.0021
 2511SOL    HW2 9810   4.089   1.181   4.087  2.2751  1.8626  1.2123
 2511SOL    HW3 9811   4.229   1.168   4.031  1.0630 -2.0927 -1.3358
 2511SOL    MW4 9812   4.149   1.135   4.044  0.0712  0.0519 -0.3433
 2512SOL     OW 9813   1.917   3.307   0.401  0.5734  0.1047  0.9196
 2512SOL    HW2 9814   1.960   3.363   0.336 -0.3355  1.4800  1.4612
 2512SOL    HW3 9815   1.948   3.340   0.486 -0.5194  0.2562  1.2713
 2512SOL    MW4 9816   1.927   3.319   0.404  0.0098 -0.0413  0.0092
 2513SOL     OW 9817   5.526   2.183   5.431  0.0636  0.1047 -0.3776
 2513SOL    HW2 9818   5.581   2.195   5.353  1.3304 -0.2900  0.4141
 2513SOL    HW3 9819   5.520   2.270   5.470  1.9094 -0.1632  0.6342
 2513SOL    MW4 9820   5.533   2.196   5.426  0.2822 -0.2559 -0.1435
 2514SOL     OW 9821   5.272   5.119   4.510 -0.2404 -0.1184  0.3708
 2514SOL    HW2 9822   5.287   5.164   4.426 -0.9947  0.6666  0.6400
 2514SOL    HW3 9823   5.187   5.151   4.539 -0.8041 -1.7559  0.5859
 2514SOL    MW4 9824   5.263   5.129   4.503 -0.0986 -0.7649  0.2767
 2515SOL     OW 9825   2.824   3.599   4.044 -0.5174  0.2676  0.2091
 2515SOL    HW2 9826   2.763   3.616   3.971  1.6767 -2.0138 -2.3724
 2515SOL    HW3 9827   2.886   3.672   4.040 -0.4767  0.2175 -0.1475
 2515SOL    MW4 9828   2.824   3.611   4.034 -0.3827 -0.0442 -0.0826
 2516SOL     OW 9829   2.389   3.444   6.259 -0.1143 -0.9659 -0.5675
 2516SOL    HW2 9830   2.479   3.463   6.285 -0.4425  0.8656 -0.6256
 2516SOL    HW3 9831   2.342   3.432   6.341 -0.6295  2.2910 -0.2765
 2516SOL    MW4 9832   2.394   3.445   6.273 -0.0433 -0.0170 -0.2635
 2517SOL     OW 9833   1.518   3.687   5.725 -0.3925  0.0659  0.6157
 2517SOL    HW2 9834   1.494   3.741   5.650 -1.1054 -1.4962 -0.3365
 2517SOL    HW3 9835   1.529   3.749   5.797 -1.6237  1.4339 -0.3122
 2517SOL    MW4 9836   1.516   3.702   5.724 -0.6075 -0.2293 -0.4192
 2518SOL     OW 9837   4.798   2.765   1.669 -0.5675  0.5109 -0.3202
 2518SOL    HW2 9838   4.720   2.724   1.707  1.0466 -0.3769  2.2774
 2518SOL    HW3 9839   4.840   2.695   1.620 -0.4539  0.4831 -0.1824
 2518SOL    MW4 9840   4.793   2.751   1.667  0.3525  0.1476 -0.5625
 2519SOL     OW 9841   0.838   5.806   2.390  0.1881 -0.0466 -0.0780
 2519SOL    HW2 9842   0.903   5.816   2.459 -1.8535  1.5524  1.7711
 2519SOL    HW3 9843   0.807   5.895   2.372 -1.4851 -0.7294 -0.8711
 2519SOL    MW4 9844   0.842   5.819   2.397  0.2924  0.0092 -0.0784
 2520SOL     OW 9845   2.684   3.376   5.618  0.3518  0.2589  0.0367
 2520SOL    HW2 9846   2.652   3.320   5.688  0.3206  0.9711  0.6129
 2520SOL    HW3 9847   2.612   3.379   5.555 -0.1414  0.6415  0.6015
 2520SOL    MW4 9848   2.670   3.369   5.619  0.2995 -0.1335 -0.4264
 2521SOL     OW 9849   5.468   1.283   3.662  0.0668 -0.0401 -0.4096
 2521SOL    HW2 9850   5.419   1.275   3.744  2.9455 -0.2370  1.4209
 2521SOL    HW3 9851   5.519   1.202   3.657 -1.4159 -0.9243 -3.4627
 2521SOL    MW4 9852   5.468   1.271   3.672 -0.2886 -0.1717  0.1014
 2522SOL     OW 9853   2.156   0.178   3.496 -0.0128 -0.0607 -1.0564
 2522SOL    HW2 9854   2.210   0.133   3.431 -0.3480  0.5075 -1.7451
 2522SOL    HW3 9855   2.087   0.220   3.444  0.0332  0.8608 -0.3904
 2522SOL    MW4 9856   2.154   0.178   3.480 -0.2482 -0.6958 -0.3647
 2523SOL     OW 9857   6.417   2.697   1.927 -0.8648  0.3115 -0.3155
 2523SOL    HW2 9858   6.405   2.750   1.849  1.4589  1.4528  0.0149
 2523SOL    HW3 9859   6.510   2.673   1.926 -0.5783  0.9781  2.4347
 2523SOL    MW4 9860   6.428   2.701   1.917  0.4444 -0.3963 -0.1760
 2524SOL     OW 9861   5.615   5.881   5.674  0.1170  0.2458 -0.0612
 2524SOL    HW2 9862   5.681   5.942   5.641  2.7719 -1.5053  1.5905
 2524SOL    HW3 9863   5.647   5.795   5.647 -1.6829 -0.6593  0.5631
 2524SOL    MW4 9864   5.628   5.878   5.666 -0.2288  0.2498  0.0404
 2525SOL     OW 9865   1.960   6.189   6.340 -0.4127  0.3822  0.2663
 2525SOL    HW2 9866   2.006   6.200   6.424  0.2328 -0.1953  0.0018
 2525SOL    HW3 9867   1.878   6.146   6.363 -0.4546  0.6675  0.6556
 2525SOL    MW4 9868   1.956   6.185   6.354  0.2903  0.0581  0.2489
 2526SOL     OW 9869   1.518   6.371   1.687  0.0109  0.9424  0.1645
 2526SOL    HW2 9870   1.484   6.354   1.599  0.6079  1.0025 -0.0775
 2526SOL    HW3 9871   1.579   6.444   1.676  1.1651  0.0294  0.3921
 2526SOL    MW4 9872   1.521   6.379   1.674 -0.7411  0.7305 -0.3023
 2527SOL     OW 9873   4.367   1.544   4.343  0.1265  0.2347  0.8683
 2527SOL    HW2 9874   4.321   1.626   4.363 -0.0716 -0.3141  2.9199
 2527SOL    HW3 9875   4.299   1.476   4.350  0.5801 -0.2495  0.6289
 2527SOL    MW4 9876   4.352   1.546   4.347  0.5833  0.1084  0.2606
 2528SOL     OW 9877   2.279   0.518   6.033 -0.1720 -0.2589  0.4832
 2528SOL    HW2 9878   2.244   0.576   5.966  0.0321  0.3835  0.9229
 2528SOL    HW3 9879   2.373   0.518   6.018 -0.1468 -0.2795  0.6403
 2528SOL    MW4 9880   2.287   0.526   6.022  0.5762 -0.7010  0.1220
 2529SOL     OW 9881   3.209   1.559   0.030 -0.6112  0.1224 -0.4608
 2529SOL    HW2 9882   3.290   1.549   0.080 -0.6475 -2.6492 -0.7954
 2529SOL    HW3 9883   3.234   1.612  -0.045  0.9326 -0.7130 -0.5824
 2529SOL    MW4 9884   3.223   1.565   0.027  0.4060 -0.2299 -0.2832
 2530SOL     OW 9885   5.526   5.560   4.170 -0.0467 -0.1714 -0.0555
 2530SOL    HW2 9886   5.620   5.572   4.181  0.1546 -0.6433 -1.0925
 2530SOL    HW3 9887   5.486   5.635   4.214  0.6821 -1.1975  2.5394
 2530SOL    MW4 9888   5.533   5.571   4.177  0.2229  0.3855 -0.2104
 2531SOL     OW 9889   3.569   5.200   0.251  0.2026  0.2737  0.3386
 2531SOL    HW2 9890   3.482   5.190   0.289  0.4474 -2.2684  0.3916
 2531SOL    HW3 9891   3.558   5.182   0.158  0.9777 -2.5393  0.7138
 2531SOL    MW4 9892   3.556   5.196   0.244  0.0817 -0.1819 -0.2027
 2532SOL     OW 9893   5.617   5.882   5.957 -0.3160  0.6106 -0.8559
 2532SOL    HW2 9894   5.610   5.902   5.863  0.3230  0.3464 -0.9633
 2532SOL    HW3 9895   5.694   5.826   5.964 -0.9768 -0.2563 -0.3000
 2532SOL    MW4 9896   5.626   5.878   5.945  0.2061  0.1321 -0.6253
 2533SOL     OW 9897   5.517   0.510   4.465 -0.1774 -0.1226  0.0513
 2533SOL    HW2 9898   5.604   0.541   4.489 -0.1834  1.2381 -1.4428
 2533SOL    HW3 9899   5.502   0.549   4.378 -1.6903 -1.5003 -0.3465
 2533SOL    MW4 9900   5.527   0.519   4.457 -0.3634 -0.5619  0.2561
 2534SOL     OW 9901   5.593   5.775   4.900  0.3528 -0.5154 -0.0924
 2534SOL    HW2 9902   5.578   5.735   4.985  1.0197 -0.4991  0.0411
 2534SOL    HW3 9903   5.668   5.834   4.914 -0.6637  0.8610 -0.2539
 2534SOL    MW4 9904   5.601   5.778   4.913 -0.3106 -0.0794  0.2623
 2535SOL     OW 9905   0.091   4.716   5.896  0.3327 -0.2154  0.3895
 2535SOL    HW2 9906  -0.004   4.714   5.900  0.3417 -0.2995  0.5934
 2535SOL    HW3 9907   0.114   4.809   5.896  0.2503 -0.1950  0.3369
 2535SOL    MW4 9908   0.082   4.728   5.897 -0.1006  0.0252 -0.9830
 2536SOL     OW 9909   2.741   0.443   5.534 -0.3207 -0.2051 -0.3451
 2536SOL    HW2 9910   2.658   0.427   5.488 -0.2595 -2.5511  0.2184
 2536SOL    HW3 9911   2.722   0.515   5.594 -0.4408  2.9355 -3.7425
 2536SOL    MW4 9912   2.727   0.450   5.536  0.1325 -0.0902 -0.5826
 2537SOL     OW 9913   5.724   5.814   3.875 -0.9629  0.3697 -0.3371
 2537SOL    HW2 9914   5.630   5.828   3.881 -1.0109  0.1319 -0.5855
 2537SOL    HW3 9915   5.760   5.901   3.855 -1.0728  0.5836  0.3606
 2537SOL    MW4 9916   5.716   5.828   3.873  0.4449 -0.3170  0.5815
 2538SOL     OW 9917   6.105   4.105   2.553 -0.1491  0.1351 -0.0229
 2538SOL    HW2 9918   6.018   4.136   2.575 -0.3759 -0.8739  0.5868
 2538SOL    HW3 9919   6.147   4.090   2.638  0.0052 -1.0192 -0.2879
 2538SOL    MW4 9920   6.099   4.107   2.567  0.1248  0.1808 -0.0944
 2539SOL     OW 9921   1.118   0.030   1.529 -0.2896 -0.2260 -0.0319
 2539SOL    HW2 9922   1.206   0.034   1.494 -1.3942  1.9443 -2.9255
 2539SOL    HW3 9923   1.071  -0.031   1.472 -1.1874  0.3864  0.0157
 2539SOL    MW4 9924   1.123   0.023   1.517  0.4982  0.1731 -0.4851
 2540SOL     OW 9925   3.953   4.600   3.924  0.2278  0.3960  0.6348
 2540SOL    HW2 9926   4.014   4.551   3.980 -0.8162 -2.7736 -0.7726
 2540SOL    HW3 9927   3.866   4.568   3.949 -0.4809  1.1734 -0.7355
 2540SOL    MW4 9928   3.950   4.589   3.935 -0.6951 -0.5398 -0.0866
 2541SOL     OW 9929   6.229   4.274   3.861  0.0179 -0.2412  0.4539
 2541SOL    HW2 9930   6.177   4.345   3.824 -1.8097 -1.6321  0.2529
 2541SOL    HW3 9931   6.293   4.253   3.793  0.6062  1.1762  0.5284
 2541SOL    MW4 9932   6.231   4.281   3.847  0.5335 -0.0200 -0.0943
 2542SOL     OW 9933   6.246   4.527   3.726 -0.0565 -0.0530 -0.4906
 2542SOL    HW2 9934   6.184   4.546   3.656 -1.2305  0.4495  0.6510
 2542SOL    HW3 9935   6.259   4.611   3.771  0.2808 -0.4686  0.2164
 2542SOL    MW4 9936   6.240   4.540   3.723 -0.3054 -0.2372  0.8166
 2543SOL     OW 9937   2.113   6.244   5.546  0.5338 -0.1152 -0.6981
 2543SOL    HW2 9938   2.039   6.266   5.490 -0.3463 -0.0572  0.4701
 2543SOL    HW3 9939   2.159   6.175   5.499  0.1805  0.3682 -1.7856
 2543SOL    MW4 9940   2.109   6.238   5.532 -0.3449  0.1314 -0.1919
 2544SOL     OW 9941   1.979   0.430   5.862  0.4606 -0.1730 -0.0650
 2544SOL    HW2 9942   1.989   0.363   5.794 -1.0342 -1.1090  0.5771
 2544SOL    HW3 9943   2.038   0.500   5.835  0.7201 -0.9694 -1.7419
 2544SOL    MW4 9944   1.988   0.430   5.849 -0.0154  0.2694  0.0140
 2545SOL     OW 9945   5.449   1.125   6.193  0.2075  0.5785 -0.0167
 2545SOL    HW2 9946   5.460   1.219   6.207 -0.5387  1.0415 -2.1538
 2545SOL    HW3 9947   5.519   1.085   6.244  0.8553  2.3194  0.5307
 2545SOL    MW4 9948   5.460   1.132   6.201 -0.2221  0.8849 -0.1237
 2546SOL     OW 9949   5.549   2.437   4.154  0.3679  0.4021  0.1957
 2546SOL    HW2 9950   5.502   2.507   4.199  1.5225  0.9288  0.6003
 2546SOL    HW3 9951   5.490   2.362   4.158 -0.9139  1.3476 -0.2894
 2546SOL    MW4 9952   5.535   2.436   4.160 -0.4194 -0.2079  0.3639
 2547SOL     OW 9953   2.255   4.563   0.604 -0.0559 -0.1156 -0.0289
 2547SOL    HW2 9954   2.229   4.471   0.613  0.3300 -0.2475 -0.2694
 2547SOL    HW3 9955   2.315   4.578   0.677  1.0948 -0.4869 -0.8795
 2547SOL    MW4 9956   2.259   4.553   0.615  0.1409 -0.3781  0.0637
 2548SOL     OW 9957   3.629   0.342   5.757 -0.0193  0.5054  0.5985
 2548SOL    HW2 9958   3.708   0.395   5.752 -0.4370  1.0299 -1.3460
 2548SOL    HW3 9959   3.582   0.375   5.833  0.6271  1.6540  0.5235
 2548SOL    MW4 9960   3.633   0.353   5.766  0.3556 -0.6166 -0.3462
 2549SOL     OW 9961   2.479   2.102   5.857  0.1508  0.0241 -0.1588
 2549SOL    HW2 9962   2.539   2.141   5.794  0.4384 -2.4430 -1.5387
 2549SOL    HW3 9963   2.396   2.097   5.811  0.0458 -0.6642  0.0910
 2549SOL    MW4 9964   2.476   2.107   5.842  0.3934  0.1973 -0.8191
 2550SOL     OW 9965   3.767   1.191   2.207 -0.2616  0.7675  0.7122
 2550SOL    HW2 9966   3.758   1.120   2.144  0.9186  0.7096  0.5877
 2550SOL    HW3 9967   3.806   1.263   2.157 -1.2285  1.4327  0.8915
 2550SOL    MW4 9968   3.771   1.191   2.192  0.3218  0.3073  0.5862
 2551SOL     OW 9969   2.321   3.808   5.268 -0.1682  0.0232  0.2399
 2551SOL    HW2 9970   2.312   3.715   5.248  0.6726  0.3642 -2.0559
 2551SOL    HW3 9971   2.329   3.850   5.182 -1.0116  2.2819  1.1906
 2551SOL    MW4 9972   2.321   3.801   5.254  0.6522  0.1167  0.0857
 2552SOL     OW 9973   0.441   2.458   5.671  0.3286  0.1342  0.1982
 2552SOL    HW2 9974   0.402   2.373   5.656 -3.1689  1.5886  0.2415
 2552SOL    HW3 9975   0.484   2.450   5.757 -0.1506 -1.4710  0.3180
 2552SOL    MW4 9976   0.442   2.446   5.681 -1.0803 -0.0066  0.6041
 2553SOL     OW 9977   2.985   2.870   1.783  0.2217  0.7213  0.1896
 2553SOL    HW2 9978   2.936   2.938   1.736 -0.1514  0.3101 -0.0164
 2553SOL    HW3 9979   2.927   2.844   1.854  0.2312  0.3912  0.0769
 2553SOL    MW4 9980   2.971   2.876   1.786  0.4742  0.8257  0.5793
 2554SOL     OW 9981   2.952   4.177   0.032 -0.3723 -0.5940  0.1869
 2554SOL    HW2 9982   2.931   4.225  -0.049 -2.1969 -0.1506  0.8641
 2554SOL    HW3 9983   3.047   4.185   0.041 -0.1333 -0.5879 -1.8618
 2554SOL    MW4 9984   2.962   4.184   0.022  0.0174 -0.4826 -0.9861
 2555SOL     OW 9985   4.865   2.178   5.668  0.4790  0.2248  0.8070
 2555SOL    HW2 9986   4.895   2.089   5.681  0.4675 -0.0959 -1.0820
 2555SOL    HW3 9987   4.772   2.176   5.691 -0.0071 -0.7654 -1.0098
 2555SOL    MW4 9988   4.856   2.166   5.673 -0.0855 -0.2620 -0.8871
 2556SOL     OW 9989   5.805   3.209   6.288 -0.2611 -0.2044  0.0651
 2556SOL    HW2 9990   5.883   3.199   6.233 -0.9999  0.5796 -1.1720
 2556SOL    HW3 9991   5.798   3.126   6.336  0.9576 -0.5251 -0.2728
 2556SOL    MW4 9992   5.815   3.197   6.287  0.1605 -0.1098  0.0960
 2557SOL     OW 9993   1.927   2.636   2.818  0.3940 -0.1683 -0.0029
 2557SOL    HW2 9994   1.840   2.616   2.782  0.2037 -0.0805  0.3958
 2557SOL    HW3 9995   1.960   2.707   2.763 -0.9556  1.7518  1.4889
 2557SOL    MW4 9996   1.920   2.643   2.806  0.7896  0.2216 -0.5183
 2558SOL     OW 9997   2.445   1.805   6.227 -0.0599  0.2337 -0.4049
 2558SOL    HW2 9998   2.429   1.858   6.148  0.7200 -0.7731 -1.2674
 2558SOL    HW3 9999   2.406   1.720   6.207  1.0995 -0.3730 -0.1676
 2558SOL    MW410000   2.438   1.801   6.214 -0.4187 -0.1205 -0.7424
 2559SOL     OW10001   2.953   5.282   6.105  0.0375 -0.1087  0.1263
 2559SOL    HW210002   3.025   5.251   6.050 -0.2117 -1.6673  0.6278
 2559SOL    HW310003   2.996   5.310   6.186  0.0537 -2.1957  0.9186
 2559SOL    MW410004   2.968   5.281   6.108 -0.2697 -0.3805  0.3397
 2560SOL     OW10005   3.280   3.144   2.102  0.0357  0.0388 -0.1382
 2560SOL    HW210006   3.228   3.064   2.101 -1.5449  1.0013  0.4314
 2560SOL    HW310007   3.321   3.145   2.188 -0.9480  0.4058  0.3529
 2560SOL    MW410008   3.278   3.134   2.113  0.0935 -0.6337  0.2200
 2561SOL     OW10009   2.961   2.050   3.389 -0.3969  0.0020 -0.6450
 2561SOL    HW210010   2.941   2.029   3.298  1.1671 -0.8672 -0.8210
 2561SOL    HW310011   2.957   2.146   3.393  1.1953  0.1609 -2.0678
 2561SOL    MW410012   2.958   2.060   3.377  0.0277 -0.1643 -0.1872
 2562SOL     OW10013   1.986   2.286   0.288 -0.1281 -0.2498 -0.0018
 2562SOL    HW210014   1.982   2.381   0.278 -0.9906 -0.4223 -1.6194
 2562SOL    HW310015   1.911   2.264   0.342  0.8301  0.0845  1.5229
 2562SOL    MW410016   1.976   2.295   0.294  0.5466 -0.0723  0.0609
 2563SOL     OW10017   6.337   0.376   4.179  0.3668 -0.5349  0.7441
 2563SOL    HW210018   6.406   0.430   4.218  0.1326 -0.4072  0.9872
 2563SOL    HW310019   6.380   0.330   4.107  0.4422  0.3962  0.1786
 2563SOL    MW410020   6.352   0.377   4.175 -0.2660 -0.0241  0.2679
 2564SOL     OW10021   3.717   0.329   3.045  0.4939  0.2164  0.7789
 2564SOL    HW210022   3.765   0.251   3.018  0.2694  0.8906 -1.8359
 2564SOL    HW310023   3.784   0.398   3.047  0.1939  0.5216  0.2901
 2564SOL    MW410024   3.732   0.328   3.042 -0.8382 -0.0881 -0.0080
 2565SOL     OW10025   5.516   3.446   2.390  0.3452  0.3503  0.4334
 2565SOL    HW210026   5.520   3.360   2.432 -0.5427  0.1004  0.0241
 2565SOL    HW310027   5.471   3.501   2.454  2.0318  0.8727  1.2472
 2565SOL    MW410028   5.511   3.442   2.404 -0.0858  0.1573  0.5340
 2566SOL     OW10029   5.841   2.063   5.013  0.0820 -0.3050  0.4996
 2566SOL    HW210030   5.823   2.126   5.082  0.8466 -0.7330  1.0970
 2566SOL    HW310031   5.806   1.980   5.046  0.3651 -0.4939  0.3273
 2566SOL    MW410032   5.834   2.060   5.026  0.2743 -0.9510  0.2429
 2567SOL     OW10033   0.595   1.453   2.482 -0.3663  0.1531  0.2472
 2567SOL    HW210034   0.524   1.413   2.531 -1.6897  2.3293  0.2128
 2567SOL    HW310035   0.555   1.526   2.435  1.7832  1.1571 -0.1902
 2567SOL    MW410036   0.581   1.458   2.482  0.0245 -0.0403  0.3020
 2568SOL     OW10037   3.417   2.485   0.315 -0.0459 -0.0229 -0.0854
 2568SOL    HW210038   3.458   2.552   0.370  0.0301  0.3870 -0.6279
 2568SOL    HW310039   3.325   2.485   0.342  0.3171 -1.0528  1.2414
 2568SOL    MW410040   3.410   2.494   0.325 -0.0300 -0.4004  0.5309
 2569SOL     OW10041   2.049   3.992   4.005  1.0446 -0.1684  0.2056
 2569SOL    HW210042   2.130   3.956   3.968  0.5792 -1.1011  0.0699
 2569SOL    HW310043   1.979   3.943   3.961  0.4472 -0.5125  1.5109
 2569SOL    MW410044   2.051   3.981   3.994  0.5314  0.1937  0.9270
 2570SOL     OW10045   1.775   2.458   6.376 -0.0548  0.2092  0.3388
 2570SOL    HW210046   1.846   2.400   6.406  0.6793  0.4535 -0.8578
 2570SOL    HW310047   1.722   2.474   6.454 -0.6539 -2.5744  0.5856
 2570SOL    MW410048   1.778   2.453   6.390  0.0423  0.3425  0.0706
 2571SOL     OW10049   5.371   4.294   0.392  0.8585  0.4921 -0.6319
 2571SOL    HW210050   5.340   4.371   0.345  0.8176  0.0484 -1.3363
 2571SOL    HW310051   5.294   4.265   0.441  0.3056 -0.2323 -1.8827
 2571SOL    MW410052   5.357   4.301   0.392 -0.6248 -0.0965 -0.6070
 2572SOL     OW10053   4.571   5.045   0.693  0.1402 -0.3553  0.1334
 2572SOL    HW210054   4.551   4.963   0.649 -2.8374 -0.2633  1.1219
 2572SOL    HW310055   4.536   5.034   0.781 -1.7559  2.4347 -0.1368
 2572SOL    MW410056   4.564   5.033   0.699 -0.1159  0.5024 -0.3546
 2573SOL     OW10057   5.560   3.447   0.629  0.0581 -0.1058  0.4860
 2573SOL    HW210058   5.472   3.446   0.592  0.5255 -2.2172 -0.7654
 2573SOL    HW310059   5.549   3.417   0.720 -0.7562  2.1935  1.2024
 2573SOL    MW410060   5.547   3.443   0.636 -0.1523 -0.2809  0.1652
 2574SOL     OW10061   3.214   3.787   1.794  0.0806 -0.1609 -0.1054
 2574SOL    HW210062   3.304   3.762   1.810  0.9464 -0.6011 -4.4573
 2574SOL    HW310063   3.162   3.711   1.819  0.9226 -0.1233  1.8658
 2574SOL    MW410064   3.219   3.774   1.799  0.1488 -0.3048 -0.0241
 2575SOL     OW10065   5.167   1.651   4.459  0.0436 -0.2928 -0.2623
 2575SOL    HW210066   5.188   1.563   4.490  1.3017  0.5851  1.5937
 2575SOL    HW310067   5.108   1.686   4.526  1.7828  1.2136  0.5578
 2575SOL    MW410068   5.162   1.644   4.472  0.2665 -0.8858 -0.4982
 2576SOL     OW10069   6.286   3.901   4.929 -0.1435  0.8815 -0.0789
 2576SOL    HW210070   6.214   3.923   4.870  0.1055  1.2200 -0.2541
 2576SOL    HW310071   6.335   3.832   4.884 -0.1561  0.8914 -0.1075
 2576SOL    MW410072   6.283   3.894   4.916 -0.0303  0.2513  0.4544
 2577SOL     OW10073   0.668   5.107   5.828 -0.0622 -0.1376  0.4718
 2577SOL    HW210074   0.589   5.062   5.796 -0.2224  0.4557  0.0273
 2577SOL    HW310075   0.710   5.141   5.749  1.5077 -1.7994  0.5102
 2577SOL    MW410076   0.663   5.105   5.813 -0.7076 -0.4373  0.4668
 2578SOL     OW10077   4.226   3.026   0.421 -0.1255  0.5000 -0.2910
 2578SOL    HW210078   4.234   3.112   0.462  1.8024 -0.3346  1.2430
 2578SOL    HW310079   4.160   2.980   0.473 -2.4173  1.4711 -2.1032
 2578SOL    MW410080   4.218   3.031   0.433 -0.9010 -0.5594 -0.4589
 2579SOL     OW10081   1.176   2.875   1.275  0.4162 -0.5625 -1.0190
 2579SOL    HW210082   1.147   2.862   1.365  0.6630 -0.3922 -0.9153
 2579SOL    HW310083   1.095   2.878   1.224  0.3220 -2.5505 -1.0568
 2579SOL    MW410084   1.161   2.873   1.280  0.0841  0.4378  0.0438
 2580SOL     OW10085   2.851   3.654   2.469 -0.2886 -0.0064  0.3623
 2580SOL    HW210086   2.864   3.568   2.429  0.7450  0.5915 -0.6479
 2580SOL    HW310087   2.904   3.714   2.416  1.3161  0.8186  2.7241
 2580SOL    MW410088   2.860   3.651   2.456 -0.3941 -0.6690  0.2724
 2581SOL     OW10089   2.830   3.074   2.124 -0.1476  0.4623 -0.4257
 2581SOL    HW210090   2.780   3.135   2.178 -0.6068 -0.4610  0.2077
 2581SOL    HW310091   2.763   3.028   2.073  0.0544 -0.7574  0.3977
 2581SOL    MW410092   2.815   3.076   2.124 -0.1092  0.1405 -0.2634
 2582SOL     OW10093   2.109   4.777   6.030 -0.6313 -0.0299 -0.2741
 2582SOL    HW210094   2.081   4.713   6.094 -2.1995 -0.0890 -0.9787
 2582SOL    HW310095   2.099   4.733   5.946 -0.1955  0.6033 -0.6706
 2582SOL    MW410096   2.104   4.763   6.027 -0.4706 -0.1128  0.1799
 2583SOL     OW10097   5.033   2.891   4.140  0.1420  0.3883 -0.1859
 2583SOL    HW210098   5.053   2.864   4.051  1.1814  2.1383 -0.5420
 2583SOL    HW310099   5.115   2.930   4.172 -0.7303  1.4256  0.8665
 2583SOL    MW410100   5.047   2.893   4.133 -0.0693 -0.2133 -0.4898
 2584SOL     OW10101   4.058   1.365   4.854 -0.7006  0.2761 -0.2593
 2584SOL    HW210102   3.976   1.407   4.827 -0.2694  0.2565 -1.6608
 2584SOL    HW310103   4.100   1.339   4.772 -0.0769 -1.2235  0.5082
 2584SOL    MW410104   4.053   1.367   4.840  0.1386  0.5312 -0.1221
 2585SOL     OW10105   4.298   6.286   1.555 -0.3690  0.5509  0.5547
 2585SOL    HW210106   4.228   6.304   1.492  0.2160 -0.5483 -0.4442
 2585SOL    HW310107   4.379   6.303   1.507  0.1918 -2.9656 -0.0037
 2585SOL    MW410108   4.299   6.291   1.540 -0.0075  0.1410  0.6187
 2586SOL     OW10109   3.696   3.578   6.224  0.1825  0.0905  0.0806
 2586SOL    HW210110   3.693   3.658   6.276 -0.5440 -0.4468  0.8871
 2586SOL    HW310111   3.613   3.577   6.177 -0.5239 -0.9626  1.2834
 2586SOL    MW410112   3.685   3.589   6.224 -0.4326 -0.5629  0.6798
 2587SOL     OW10113   4.382   3.409   5.214 -0.0379 -0.0302  0.2442
 2587SOL    HW210114   4.467   3.446   5.238 -0.0739  0.7118 -0.7314
 2587SOL    HW310115   4.334   3.404   5.297  0.5782  0.5451  0.6421
 2587SOL    MW410116   4.387   3.413   5.228 -0.5861 -0.0926 -0.4229
 2588SOL     OW10117   3.787   4.607   5.710  0.4113  0.0031 -0.4924
 2588SOL    HW210118   3.764   4.537   5.649  1.8483 -0.3216 -0.7081
 2588SOL    HW310119   3.767   4.687   5.662 -1.4902 -0.2284 -0.1458
 2588SOL    MW410120   3.781   4.608   5.696  0.3854 -0.0203 -0.2011
 2589SOL     OW10121   0.145   3.809   0.930 -0.1745  0.0051 -0.1178
 2589SOL    HW210122   0.210   3.798   1.000  0.0339 -0.7548 -0.4256
 2589SOL    HW310123   0.189   3.777   0.851 -0.6855  0.1249 -0.4526
 2589SOL    MW410124   0.159   3.803   0.929  0.4048  0.0894 -0.0651
 2590SOL     OW10125   3.172   1.100   2.894 -0.0114 -0.1112  0.8487
 2590SOL    HW210126   3.196   1.098   2.801 -1.7046 -1.9247  0.4031
 2590SOL    HW310127   3.091   1.150   2.897  0.8103  1.2513  1.6101
 2590SOL    MW410128   3.165   1.106   2.882 -0.0560  0.5569 -0.1553
 2591SOL     OW10129   4.216   2.179   0.040  0.5349  0.2272  0.3022
 2591SOL    HW210130   4.203   2.119   0.114  0.0628  0.6441  0.5621
 2591SOL    HW310131   4.234   2.121  -0.035 -0.3604 -0.2619  0.4556
 2591SOL    MW410132   4.217   2.163   0.040 -0.3594  0.2277 -0.3769
 2592SOL     OW10133   3.713   3.041   6.001  0.1390  0.1894 -0.2260
 2592SOL    HW210134   3.739   3.051   6.092  0.2677  1.0343 -0.3561
 2592SOL    HW310135   3.625   3.003   6.006 -0.7936  2.3028  0.3023
 2592SOL    MW410136   3.705   3.037   6.014 -0.3606 -0.0339  0.0099
 2593SOL     OW10137   2.273   3.764   1.861  0.6763  0.1533  0.0511
 2593SOL    HW210138   2.274   3.674   1.892  0.5175  0.1426  0.0275
 2593SOL    HW310139   2.364   3.784   1.839  0.6995 -0.0217 -0.0056
 2593SOL    MW410140   2.285   3.755   1.862  0.1674 -0.4286  0.0232
 2594SOL     OW10141   1.516   3.008   2.906  0.0608  0.4385 -0.6223
 2594SOL    HW210142   1.526   2.922   2.946  0.1958  0.3183 -0.9030
 2594SOL    HW310143   1.433   3.042   2.939 -0.1329  0.0766 -0.7314
 2594SOL    MW410144   1.507   3.001   2.915  0.1980  0.1624 -0.3662
 2595SOL     OW10145   5.072   3.290   0.850 -0.3206  0.5335  0.0397
 2595SOL    HW210146   5.117   3.232   0.789  1.1979  0.2529  1.3772
 2595SOL    HW310147   5.127   3.369   0.854 -0.9211  0.9503  0.3173
 2595SOL    MW410148   5.085   3.293   0.843  0.3714 -0.1132  0.3706
 2596SOL     OW10149   6.027   0.929   0.261  0.2039 -0.0656 -0.0492
 2596SOL    HW210150   5.981   1.007   0.230  1.6374  0.4201 -1.0156
 2596SOL    HW310151   6.087   0.962   0.328  1.0128 -0.2749 -0.6552
 2596SOL    MW410152   6.029   0.944   0.266 -0.4378  0.4390  0.0489
 2597SOL     OW10153   0.554   2.820   5.535 -0.1246 -0.0804 -0.1841
 2597SOL    HW210154   0.523   2.870   5.459 -0.7434 -0.1784 -0.0049
 2597SOL    HW310155   0.477   2.813   5.592  0.5753  0.8292  0.9111
 2597SOL    MW410156   0.540   2.825   5.532 -0.1184 -0.5664  0.1460
 2598SOL     OW10157   2.483   0.046   1.473  0.6140 -0.2345 -0.1778
 2598SOL    HW210158   2.461  -0.014   1.401  3.7147 -3.0804  0.9492
 2598SOL    HW310159   2.538   0.113   1.433 -1.2402  0.8026 -1.1102
 2598SOL    MW410160   2.488   0.047   1.458 -0.4743 -0.3087  0.2377
 2599SOL     OW10161   5.083   4.213   3.534  0.6604 -0.2451 -0.5239
 2599SOL    HW210162   5.045   4.141   3.585  0.3382 -0.8971 -1.6557
 2599SOL    HW310163   5.167   4.179   3.504  0.7790  0.0738 -0.5518
 2599SOL    MW410164   5.089   4.199   3.537 -0.3067 -0.0508  0.4222
 2600SOL     OW10165   2.259   3.333   0.472 -0.4336 -0.3807 -0.4619
 2600SOL    HW210166   2.205   3.413   0.467  1.0744  0.6369 -1.1936
 2600SOL    HW310167   2.204   3.266   0.431 -1.4573  0.4336 -0.4965
 2600SOL    MW410168   2.244   3.335   0.466 -0.7181 -0.1905  0.4218
 2601SOL     OW10169   1.314   0.123   3.997  0.0584 -0.3886 -0.1022
 2601SOL    HW210170   1.224   0.138   4.025 -0.9458 -3.5057 -1.2668
 2601SOL    HW310171   1.358   0.207   4.011 -2.8182  1.0354  1.1525
 2601SOL    MW410172   1.308   0.136   4.003  0.6145 -0.1223 -0.1908
 2602SOL     OW10173   4.017   3.319   4.502 -0.0662  0.2283  0.2685
 2602SOL    HW210174   4.034   3.397   4.556 -1.2061 -0.1649  1.2612
 2602SOL    HW310175   3.969   3.260   4.560  0.6777 -1.1928 -0.4987
 2602SOL    MW410176   4.013   3.322   4.517 -0.2694 -1.0609 -0.7218
 2603SOL     OW10177   6.190   4.497   5.379  0.4161  0.3311  0.2264
 2603SOL    HW210178   6.283   4.513   5.394  0.4621 -0.7387  1.1298
 2603SOL    HW310179   6.154   4.585   5.363  1.5186  0.7900  0.1171
 2603SOL    MW410180   6.198   4.511   5.379  0.0049 -0.5395 -0.2243
 2604SOL     OW10181   4.636   3.800   6.256 -0.0543 -0.2736 -0.4113
 2604SOL    HW210182   4.547   3.782   6.283 -0.4959 -0.8500 -2.1079
 2604SOL    HW310183   4.633   3.888   6.217 -0.1011 -0.6904 -1.3594
 2604SOL    MW410184   4.624   3.809   6.254  0.0434  0.5562 -0.1904
 2605SOL     OW10185   6.393   2.221   0.296 -0.3020  0.5130  1.1260
 2605SOL    HW210186   6.404   2.295   0.237 -0.3255 -0.5650 -0.2831
 2605SOL    HW310187   6.449   2.152   0.260  0.5758  0.1660  3.0216
 2605SOL    MW410188   6.402   2.222   0.283 -0.3226 -0.2612 -0.2589
 2606SOL     OW10189   2.461   1.279   0.291  0.2072 -0.0020  0.2787
 2606SOL    HW210190   2.548   1.316   0.278 -0.3709  1.2715 -0.1341
 2606SOL    HW310191   2.477   1.190   0.323  1.6668  0.8551  2.1339
 2606SOL    MW410192   2.475   1.272   0.294 -0.2799  0.5130 -0.1841
 2607SOL     OW10193   2.833   0.850   5.262 -0.2030 -0.0503 -0.4683
 2607SOL    HW210194   2.874   0.909   5.325  2.7039 -2.4104  0.0589
 2607SOL    HW310195   2.865   0.880   5.177 -1.8060  1.3645 -0.6201
 2607SOL    MW410196   2.843   0.862   5.259 -0.0699 -0.3181 -0.2297
 2608SOL     OW10197   3.797   3.897   0.612 -0.2981  0.7210 -0.3001
 2608SOL    HW210198   3.815   3.856   0.696  1.2784  3.1548  0.6598
 2608SOL    HW310199   3.882   3.926   0.580 -1.1746  2.3839 -1.3010
 2608SOL    MW410200   3.810   3.896   0.619  0.4537 -0.4534 -0.2962
 2609SOL     OW10201   6.037   2.742   0.377 -1.0143 -0.3009 -0.5322
 2609SOL    HW210202   6.125   2.709   0.362 -1.0657 -2.1060  2.2333
 2609SOL    HW310203   6.048   2.834   0.398  0.1776 -0.4372 -0.5366
 2609SOL    MW410204   6.050   2.750   0.378 -0.0656 -0.1906 -0.0182
 2610SOL     OW10205   5.267   0.667   2.054  0.8593  0.0636  0.5004
 2610SOL    HW210206   5.223   0.625   1.980 -0.2278 -0.2167  1.2897
 2610SOL    HW310207   5.351   0.697   2.018 -0.1482  1.0336 -1.1611
 2610SOL    MW410208   5.272   0.666   2.039 -0.4919 -0.1596 -0.2548
 2611SOL     OW10209   2.115   5.700   0.135  0.1718  0.4304 -0.0995
 2611SOL    HW210210   2.192   5.649   0.109  0.1492  0.3014  0.0845
 2611SOL    HW310211   2.041   5.641   0.119 -0.0942  1.2280 -2.1741
 2611SOL    MW410212   2.116   5.686   0.129  0.0934  0.2267  0.2333
 2612SOL     OW10213   3.921   4.247   0.041  0.5507  0.1011  1.4174
 2612SOL    HW210214   3.990   4.257  -0.024  1.4325 -0.6769  2.2032
 2612SOL    HW310215   3.935   4.318   0.103 -3.0803  3.8872 -1.4986
 2612SOL    MW410216   3.932   4.257   0.041 -0.7908  0.1034  0.6392
 2613SOL     OW10217   3.061   2.213   1.056 -0.1568  0.2059 -0.4607
 2613SOL    HW210218   3.138   2.157   1.043  0.4016  1.0565 -0.9614
 2613SOL    HW310219   3.083   2.267   1.132 -0.4923  0.0627 -0.2633
 2613SOL    MW410220   3.074   2.213   1.064  0.0896  0.1251  0.2145
 2614SOL     OW10221   4.059   2.850   5.514 -0.3206 -0.2916  0.3898
 2614SOL    HW210222   4.061   2.781   5.447 -1.3910  0.1029 -0.0823
 2614SOL    HW310223   4.000   2.916   5.477 -1.3357 -0.2986  1.9367
 2614SOL    MW410224   4.051   2.849   5.500 -0.1578  0.0220 -0.4396
 2615SOL     OW10225   5.949   4.849   2.939 -0.1867 -0.2702  0.4066
 2615SOL    HW210226   5.918   4.811   3.021  0.2982  0.2313  0.8259
 2615SOL    HW310227   5.975   4.939   2.962 -0.7262  0.1155 -0.4373
 2615SOL    MW410228   5.948   4.856   2.953  1.2085  0.5268  1.1817
 2616SOL     OW10229   2.653   4.853   1.283  0.1696  0.8001 -0.0637
 2616SOL    HW210230   2.602   4.836   1.362  2.0732  0.3557  1.1274
 2616SOL    HW310231   2.729   4.796   1.291  0.0891  0.2106 -2.5927
 2616SOL    MW410232   2.656   4.843   1.294 -0.0477 -0.1932  0.6709
 2617SOL     OW10233   5.503   0.950   0.956  0.2938  0.1493  0.1718
 2617SOL    HW210234   5.446   0.920   1.027  1.5620 -0.5942  0.9313
 2617SOL    HW310235   5.527   0.870   0.909  2.7889 -0.0144  1.5158
 2617SOL    MW410236   5.499   0.935   0.959  0.6822 -0.1924 -0.5136
 2618SOL     OW10237   4.337   2.222   1.988  0.0504 -0.2958 -0.5905
 2618SOL    HW210238   4.347   2.207   2.082 -1.6047 -2.1158 -0.6313
 2618SOL    HW310239   4.410   2.175   1.947  2.1436  2.4117 -0.1962
 2618SOL    MW410240   4.348   2.214   1.995 -0.1459 -0.4114  0.1286
 2619SOL     OW10241   1.717   0.179   4.360  0.3011 -0.5278 -0.2524
 2619SOL    HW210242   1.632   0.135   4.358  0.3574 -0.6202 -0.7966
 2619SOL    HW310243   1.719   0.223   4.445  0.0176 -1.1328  0.0754
 2619SOL    MW410244   1.706   0.179   4.370 -0.2786  0.0810  0.3051
 2620SOL     OW10245   5.073   5.467   0.349 -0.0458  0.2410  0.1447
 2620SOL    HW210246   4.987   5.434   0.376 -0.0595 -0.0413 -0.2322
 2620SOL    HW310247   5.133   5.395   0.367 -0.1354 -0.1619 -1.0393
 2620SOL    MW410248   5.069   5.453   0.355 -0.0910 -0.1943  0.5868
 2621SOL     OW10249   1.925   2.585   1.616  0.3614 -0.8293 -0.3684
 2621SOL    HW210250   1.940   2.673   1.650 -0.0296 -0.0389 -2.1506
 2621SOL    HW310251   1.832   2.568   1.633  1.0664 -2.2219  2.7855
 2621SOL    MW410252   1.914   2.594   1.623 -0.1499  0.3189 -0.5793
 2622SOL     OW10253   1.422   5.440   2.018  0.2957 -0.6392 -0.3675
 2622SOL    HW210254   1.373   5.417   2.097  0.2136 -0.1035 -0.2636
 2622SOL    HW310255   1.488   5.371   2.011  4.0023  2.0898  3.2608
 2622SOL    MW410256   1.424   5.428   2.028 -0.2571 -0.2674  0.0479
 2623SOL     OW10257   2.296   2.281   2.245 -0.9975 -0.4636  0.3875
 2623SOL    HW210258   2.345   2.290   2.163 -0.6410 -0.2044  0.6258
 2623SOL    HW310259   2.341   2.212   2.293 -1.9087 -1.4444 -0.1294
 2623SOL    MW410260   2.308   2.273   2.240 -0.1899 -0.4514  0.3572
 2624SOL     OW10261   0.786   6.297   4.570  0.0320  0.1496  0.2009
 2624SOL    HW210262   0.866   6.343   4.597  0.3065  0.2162 -0.6945
 2624SOL    HW310263   0.812   6.205   4.564 -0.3444 -0.0488  1.3286
 2624SOL    MW410264   0.800   6.291   4.573 -0.4161  0.5339  0.0277
 2625SOL     OW10265   3.532   6.234   3.238 -0.0290 -0.4669  0.3494
 2625SOL    HW210266   3.497   6.297   3.176 -0.3964 -1.4304 -0.4489
 2625SOL    HW310267   3.456   6.182   3.265  0.5967 -2.0380 -0.7685
 2625SOL    MW410268   3.517   6.235   3.234  0.1122 -0.0429  0.3748
 2626SOL     OW10269   1.248   2.068   1.608 -0.2731 -0.4747 -0.2752
 2626SOL    HW210270   1.244   2.162   1.626  0.4857 -0.6821  1.1223
 2626SOL    HW310271   1.182   2.054   1.540 -0.3817  1.0682 -0.5241
 2626SOL    MW410272   1.239   2.079   1.602 -0.0288  0.6585 -0.9052
 2627SOL     OW10273   5.598   4.248   5.205  0.4387  0.0195 -0.0755
 2627SOL    HW210274   5.690   4.233   5.184  0.1667 -0.0712 -1.2484
 2627SOL    HW310275   5.588   4.344   5.201  0.8937  0.1830  1.9090
 2627SOL    MW410276   5.608   4.259   5.202  0.0096  0.0568  0.1863
 2628SOL     OW10277   0.524   2.189   0.824  0.5667 -0.3815  0.1278
 2628SOL    HW210278   0.610   2.171   0.862  1.2643  1.9956 -0.1510
 2628SOL    HW310279   0.519   2.131   0.748  2.5165  0.3049 -0.6067
 2628SOL    MW410280   0.535   2.179   0.819  0.2724 -0.0214 -0.2446
 2629SOL     OW10281   6.363   4.654   2.892 -0.1590  0.2232 -0.6013
 2629SOL    HW210282   6.277   4.656   2.850 -0.3703 -2.3317 -0.4742
 2629SOL    HW310283   6.344   4.654   2.986  0.0467  0.7486 -0.5571
 2629SOL    MW410284   6.349   4.654   2.899 -0.1442 -0.2793 -0.2716
 2630SOL     OW10285   1.204   0.455   1.897  0.0638  0.1618 -0.0358
 2630SOL    HW210286   1.236   0.535   1.858 -0.6833  0.5877  0.1912
 2630SOL    HW310287   1.188   0.396   1.823 -0.8636  0.7805 -0.3447
 2630SOL    MW410288   1.206   0.458   1.882  0.2254 -0.4401 -0.1519
 2631SOL     OW10289   6.225   4.281   1.290 -0.1043 -0.1288  0.6349
 2631SOL    HW210290   6.219   4.275   1.194 -1.7407 -0.5205  0.7351
 2631SOL    HW310291   6.319   4.294   1.307  0.4128 -1.3400 -0.9546
 2631SOL    MW410292   6.237   4.282   1.280  0.3558  0.3818 -0.3718
 2632SOL     OW10293   0.916   4.959   5.867  0.2830  0.3332 -0.2561
 2632SOL    HW210294   0.927   4.884   5.808  0.5588 -1.7275  2.2245
 2632SOL    HW310295   0.830   4.994   5.845 -0.5435 -1.7016 -0.5160
 2632SOL    MW410296   0.906   4.953   5.856 -0.2644 -0.2704 -0.0231
 2633SOL     OW10297   2.089   5.011   3.139 -0.2348  0.4057  0.2336
 2633SOL    HW210298   2.094   5.105   3.156  1.5064  0.3968 -0.1098
 2633SOL    HW310299   2.028   4.977   3.205 -3.4436  2.1851 -1.5266
 2633SOL    MW410300   2.081   5.019   3.150 -0.3504  0.3488 -0.1331
 2634SOL     OW10301   3.363   0.702   2.577 -0.5885 -0.1272  0.3226
 2634SOL    HW210302   3.272   0.715   2.551 -0.3001  1.2540 -0.0825
 2634SOL    HW310303   3.358   0.668   2.666 -1.4988  0.5330  0.5356
 2634SOL    MW410304   3.350   0.699   2.586  0.4074  0.3868  0.0539
 2635SOL     OW10305   2.006   4.910   0.748  0.0595  0.1667 -0.5613
 2635SOL    HW210306   2.059   4.864   0.683 -0.0035 -1.9528  0.7825
 2635SOL    HW310307   2.065   4.975   0.785  0.8758 -0.3285 -0.9595
 2635SOL    MW410308   2.020   4.913   0.744  0.1430  0.0011 -0.2941
 2636SOL     OW10309   0.577   3.998   5.829  0.3761  0.1435 -0.4310
 2636SOL    HW210310   0.670   4.012   5.808  0.2541  1.3542 -0.2761
 2636SOL    HW310311   0.549   3.929   5.769  1.0681  0.6442 -1.3709
 2636SOL    MW410312   0.586   3.991   5.818  0.1823 -0.1616 -0.3737
 2637SOL     OW10313   6.044   4.540   1.112 -0.1797 -0.7002  0.2505
 2637SOL    HW210314   5.986   4.514   1.184 -0.1721 -1.3515  0.0328
 2637SOL    HW310315   6.096   4.461   1.094  1.0527 -0.0275  0.7065
 2637SOL    MW410316   6.043   4.526   1.119 -0.1839 -0.1237 -0.1966
 2638SOL     OW10317   3.730   6.426   0.444  0.0593 -0.4767  0.5745
 2638SOL    HW210318   3.762   6.513   0.470  2.4827 -1.2161  0.2997
 2638SOL    HW310319   3.728   6.429   0.349 -0.0271 -0.6749  0.5704
 2638SOL    MW410320   3.734   6.438   0.435  0.2645  0.3550 -0.4884
 2639SOL     OW10321   6.035   5.070   5.042 -0.3883 -0.0314 -0.1996
 2639SOL    HW210322   6.099   5.050   5.111 -0.0998  1.5882  0.0468
 2639SOL    HW310323   6.087   5.109   4.971 -1.2026  3.0246  0.7141
 2639SOL    MW410324   6.050   5.073   5.042 -0.2992 -0.1163 -0.8924
 2640SOL     OW10325   4.458   2.959   4.724 -0.1720 -0.2704 -0.5393
 2640SOL    HW210326   4.425   3.023   4.787  0.9958 -0.0520 -0.1238
 2640SOL    HW310327   4.395   2.887   4.728 -0.7634  0.2649 -0.0064
 2640SOL    MW410328   4.446   2.958   4.733  0.2354 -0.4597  0.0526
 2641SOL     OW10329   4.020   0.801   3.454  0.1331  0.2635 -0.5781
 2641SOL    HW210330   3.956   0.794   3.383 -0.6161  0.2268  0.0873
 2641SOL    HW310331   3.988   0.873   3.509  0.3393 -0.1360  0.0812
 2641SOL    MW410332   4.008   0.810   3.452 -0.0482  0.4682 -0.4714
 2642SOL     OW10333   3.626   3.149   4.910 -0.2004  0.5082 -0.0717
 2642SOL    HW210334   3.602   3.239   4.887  2.0496  0.7966 -1.5397
 2642SOL    HW310335   3.578   3.096   4.847  0.5994  0.8916 -1.0400
 2642SOL    MW410336   3.616   3.154   4.898  0.0890 -0.2859 -0.4609
 2643SOL     OW10337   5.419   0.340   3.297 -0.1938  0.1383  0.4493
 2643SOL    HW210338   5.456   0.260   3.334  2.4507  0.0789 -2.0299
 2643SOL    HW310339   5.424   0.404   3.368 -2.0350 -1.7007  2.3686
 2643SOL    MW410340   5.424   0.338   3.311  0.0454  0.0071 -0.3714
 2644SOL     OW10341   1.369   5.974   2.102 -0.6295  0.5454 -1.2727
 2644SOL    HW210342   1.411   6.051   2.064 -0.9286  1.4012  0.0590
 2644SOL    HW310343   1.281   5.974   2.065 -0.6970  0.9813 -1.1218
 2644SOL    MW410344   1.363   5.984   2.092  0.2687 -0.1612  0.0234
 2645SOL     OW10345   5.052   0.775   3.944  0.4975 -0.3667 -0.5712
 2645SOL    HW210346   5.044   0.782   3.849  0.1040  1.5394 -0.4356
 2645SOL    HW310347   5.146   0.774   3.960  0.5850  0.9494 -0.9102
 2645SOL    MW410348   5.064   0.776   3.934  0.2432  0.0614 -0.3206
 2646SOL     OW10349   1.589   3.783   3.500 -0.6923 -0.4445 -0.5024
 2646SOL    HW210350   1.520   3.772   3.565 -1.2781  0.4043 -0.9616
 2646SOL    HW310351   1.563   3.727   3.427 -0.8402 -0.2205 -0.6244
 2646SOL    MW410352   1.577   3.774   3.499 -0.3770  0.2379 -0.5880
 2647SOL     OW10353   4.786   0.406   4.532  0.0650  0.3109  0.3004
 2647SOL    HW210354   4.716   0.444   4.585  0.4045  0.2557  0.7958
 2647SOL    HW310355   4.834   0.349   4.593 -0.5283 -1.0560 -0.4586
 2647SOL    MW410356   4.783   0.403   4.547 -0.7000 -0.3279 -0.1179
 2648SOL     OW10357   1.456   2.745   1.239 -0.3402  0.3253 -0.1813
 2648SOL    HW210358   1.522   2.793   1.189  0.5192 -0.8741 -0.2182
 2648SOL    HW310359   1.375   2.796   1.226  0.4321  1.4857 -0.6047
 2648SOL    MW410360   1.454   2.758   1.230  0.3754 -0.5311  0.0359
 2649SOL     OW10361   3.717   6.074   5.923  0.3051  0.0599 -0.0145
 2649SOL    HW210362   3.786   6.042   5.981 -0.5947  0.9061  1.6004
 2649SOL    HW310363   3.669   6.138   5.976 -1.5700 -0.3239 -1.1499
 2649SOL    MW410364   3.720   6.078   5.937  0.2153  0.4225  0.0868
 2650SOL     OW10365   1.378   2.592   6.194 -0.5717  0.0842 -0.9896
 2650SOL    HW210366   1.421   2.508   6.179 -0.8193  0.0397 -1.4748
 2650SOL    HW310367   1.288   2.568   6.216  0.0776  0.0703  2.0012
 2650SOL    MW410368   1.372   2.577   6.195 -0.5197 -0.4580  0.0763
 2651SOL     OW10369   4.991   2.482   1.210 -0.1618  0.0068 -0.1418
 2651SOL    HW210370   4.910   2.476   1.159 -0.0447 -1.0183 -0.2165
 2651SOL    HW310371   5.060   2.490   1.145 -0.0649 -0.7128 -0.1312
 2651SOL    MW410372   4.989   2.482   1.195  0.6029  0.0629  0.4290
 2652SOL     OW10373   5.746   4.777   3.660 -0.1790 -0.6540 -0.4141
 2652SOL    HW210374   5.731   4.683   3.659  0.9134 -0.8575  0.4086
 2652SOL    HW310375   5.703   4.808   3.739 -0.1829 -0.5187 -0.4684
 2652SOL    MW410376   5.739   4.769   3.670  0.0677  0.2114 -0.2674
 2653SOL     OW10377   4.214   0.236   2.580  0.4231  0.3744 -0.2854
 2653SOL    HW210378   4.158   0.182   2.525 -0.9920  2.1870 -0.7198
 2653SOL    HW310379   4.302   0.200   2.567 -0.2862 -1.0553 -1.4553
 2653SOL    MW410380   4.218   0.225   2.571  0.5277  0.0999  0.1086
 2654SOL     OW10381   2.852   4.810   0.056 -0.3753 -0.6962 -0.4254
 2654SOL    HW210382   2.909   4.742   0.021  0.7230  0.2225 -0.4903
 2654SOL    HW310383   2.844   4.873  -0.016 -1.0859 -0.5806 -0.2482
 2654SOL    MW410384   2.859   4.809   0.041  0.6764 -0.0340 -0.3340
 2655SOL     OW10385   1.999   0.888   0.972 -0.2563 -0.2049  0.5987
 2655SOL    HW210386   1.966   0.803   0.943  0.1582 -0.4908  0.9608
 2655SOL    HW310387   1.978   0.948   0.901  1.7523 -1.0963 -0.8191
 2655SOL    MW410388   1.992   0.885   0.959  0.2861 -0.4030  0.0044
 2656SOL     OW10389   2.461   2.711   5.206 -0.0567  0.1167  0.1002
 2656SOL    HW210390   2.551   2.732   5.231  0.0876  1.4605 -1.4028
 2656SOL    HW310391   2.431   2.787   5.156 -2.5209  0.3156  1.6700
 2656SOL    MW410392   2.469   2.724   5.203  0.2769 -0.2272  0.2115
 2657SOL     OW10393   5.781   0.241   0.774 -0.1653 -0.0206 -0.3565
 2657SOL    HW210394   5.858   0.281   0.734  1.1745 -0.7936  1.3330
 2657SOL    HW310395   5.730   0.208   0.700 -0.2290  2.7606 -1.6862
 2657SOL    MW410396   5.785   0.242   0.759  0.4465 -0.5320 -0.0168
 2658SOL     OW10397   5.204   4.405   2.653 -0.1202 -0.0100  0.4454
 2658SOL    HW210398   5.233   4.475   2.711  0.2747  0.1112  0.1109
 2658SOL    HW310399   5.286   4.369   2.617 -0.3940  0.5079 -0.7161
 2658SOL    MW410400   5.219   4.409   2.656 -0.0305 -0.7114 -0.4219
 2659SOL     OW10401   1.312   0.334   4.622  0.0647  0.0479 -0.3371
 2659SOL    HW210402   1.305   0.422   4.584 -1.2314  0.1371  0.0709
 2659SOL    HW310403   1.376   0.344   4.693  2.0629  0.0099 -2.0449
 2659SOL    MW410404   1.319   0.347   4.627 -0.4498  0.0080 -0.1592
 2660SOL     OW10405   2.368   0.120   0.958  0.0131 -0.3060 -0.0221
 2660SOL    HW210406   2.439   0.072   0.915  0.4001 -0.1917  0.4865
 2660SOL    HW310407   2.401   0.139   1.046 -0.6720 -0.3054  0.2404
 2660SOL    MW410408   2.382   0.116   0.964  0.3620 -0.2762  0.3930
 2661SOL     OW10409   3.392   5.169   0.694 -0.3288  0.6857  0.2879
 2661SOL    HW210410   3.363   5.147   0.605 -0.6503 -1.5109  0.8820
 2661SOL    HW310411   3.317   5.148   0.750  0.2044  1.1025  1.1820
 2661SOL    MW410412   3.378   5.163   0.689 -0.1378  0.7252 -0.0490
 2662SOL     OW10413   5.806   0.452   3.562  0.4907  0.5823  0.2175
 2662SOL    HW210414   5.795   0.494   3.648  0.5522  1.2824 -0.1084
 2662SOL    HW310415   5.897   0.470   3.539  1.1326 -1.4445  0.9476
 2662SOL    MW410416   5.817   0.460   3.570 -0.2955  0.6370 -0.2078
 2663SOL     OW10417   1.472   0.225   2.007  0.0419  0.2593 -0.4567
 2663SOL    HW210418   1.568   0.229   2.004  0.0976 -0.2463  0.2585
 2663SOL    HW310419   1.447   0.292   2.071 -0.1234  0.7640 -1.0437
 2663SOL    MW410420   1.482   0.234   2.015  0.7003  0.3919  0.4545
 2664SOL     OW10421   2.094   3.966   5.085  0.6116  0.3553 -0.3073
 2664SOL    HW210422   2.161   4.033   5.100  1.3603  0.2597 -2.7366
 2664SOL    HW310423   2.031   4.008   5.026 -0.2133 -0.3184  0.0714
 2664SOL    MW410424   2.095   3.980   5.079 -0.7249 -0.3461  0.1739
 2665SOL     OW10425   2.639   3.375   1.896 -0.0905  0.0106 -0.4590
 2665SOL    HW210426   2.655   3.440   1.964 -1.4403 -0.8149  0.6963
 2665SOL    HW310427   2.718   3.319   1.898  0.3951  0.6865 -0.4034
 2665SOL    MW410428   2.652   3.376   1.905  0.4314 -0.5070  0.0432
 2666SOL     OW10429   0.394   2.015   0.478 -0.0389  0.0518 -0.4356
 2666SOL    HW210430   0.411   2.039   0.386 -0.3939 -1.0618 -0.8076
 2666SOL    HW310431   0.481   1.993   0.513  0.0578  0.1612 -0.6050
 2666SOL    MW410432   0.408   2.015   0.470 -0.1868 -0.4524 -0.0274
 2667SOL     OW10433   0.510   0.618   4.481  0.7176  0.3267 -0.5946
 2667SOL    HW210434   0.498   0.538   4.430  0.9857 -0.8099  1.0572
 2667SOL    HW310435   0.432   0.671   4.461 -0.7986 -1.4598  0.2345
 2667SOL    MW410436   0.498   0.614   4.472 -0.1618  0.1973 -0.3294
 2668SOL     OW10437   2.617   3.825   4.097 -0.1076  0.9233  0.2880
 2668SOL    HW210438   2.523   3.834   4.082 -0.6312 -2.2707  0.9964
 2668SOL    HW310439   2.639   3.898   4.155 -2.7698  0.2303  2.3674
 2668SOL    MW410440   2.608   3.836   4.102 -0.2806  0.1443 -0.2471
 2669SOL     OW10441   2.267   5.749   2.962 -0.0288 -0.6949 -0.9411
 2669SOL    HW210442   2.314   5.814   3.015 -1.7519  0.2115 -0.4172
 2669SOL    HW310443   2.309   5.666   2.982  0.1007 -0.2054  1.0240
 2669SOL    MW410444   2.279   5.747   2.972  0.3450  0.7229 -0.4877
 2670SOL     OW10445   3.446   5.929   2.374 -0.5052  0.2216 -0.0084
 2670SOL    HW210446   3.535   5.939   2.342  0.2415 -1.7421  1.2852
 2670SOL    HW310447   3.441   5.989   2.449  0.1530 -0.4858  0.6280
 2670SOL    MW410448   3.457   5.938   2.380 -0.1366 -1.0176 -0.2578
 2671SOL     OW10449   1.314   4.910   3.540  0.6342  0.3189  0.9935
 2671SOL    HW210450   1.219   4.921   3.536  0.5723 -0.0486  1.4320
 2671SOL    HW310451   1.345   4.988   3.585  0.6272  0.8641  0.0727
 2671SOL    MW410452   1.305   4.922   3.545 -0.4324  0.6488 -0.5628
 2672SOL     OW10453   0.200   1.981   3.092  0.0289 -0.2563  0.6017
 2672SOL    HW210454   0.215   1.970   3.186  0.4879 -1.1331  0.4329
 2672SOL    HW310455   0.218   2.074   3.075 -3.2470  0.7716  1.9429
 2672SOL    MW410456   0.204   1.992   3.102 -0.5813 -0.0361 -0.4225
 2673SOL     OW10457   2.014   3.438   3.613  0.4962 -0.2579  0.0587
 2673SOL    HW210458   1.938   3.483   3.576 -0.6765 -1.1832  1.2679
 2673SOL    HW310459   2.012   3.351   3.573  0.6052 -0.4694  0.5139
 2673SOL    MW410460   2.004   3.432   3.603 -0.2620  0.1853 -0.5248
 2674SOL     OW10461   0.549   4.309   2.323  0.1912  0.4555  0.0829
 2674SOL    HW210462   0.475   4.248   2.324  0.0870  0.4999 -1.4517
 2674SOL    HW310463   0.564   4.326   2.230  1.2917  1.4825  0.4222
 2674SOL    MW410464   0.542   4.303   2.311  0.5670 -0.7064 -0.2597
 2675SOL     OW10465   5.743   2.292   3.680 -0.0233 -0.4469  0.2326
 2675SOL    HW210466   5.657   2.274   3.642 -1.0626  0.5557  1.9609
 2675SOL    HW310467   5.782   2.206   3.695 -1.5663 -0.9994  1.2156
 2675SOL    MW410468   5.737   2.279   3.677  0.2021 -0.2435 -0.0144
 2676SOL     OW10469   5.622   0.620   3.234  0.0872 -0.0589  0.4244
 2676SOL    HW210470   5.585   0.626   3.322 -0.2453  0.7892  0.2356
 2676SOL    HW310471   5.640   0.711   3.210  2.1050 -0.4133  0.4221
 2676SOL    MW410472   5.620   0.633   3.243  0.3889  0.0717  0.0622
 2677SOL     OW10473   2.667   2.216   2.046 -0.0463 -0.2183  0.5966
 2677SOL    HW210474   2.577   2.197   2.023 -0.1491 -2.6913  2.6779
 2677SOL    HW310475   2.715   2.134   2.031  1.3249  0.2887  1.9016
 2677SOL    MW410476   2.662   2.203   2.041  0.4521 -0.4490 -0.4518
 2678SOL     OW10477   5.285   4.838   5.906 -0.1796 -0.4472  0.4228
 2678SOL    HW210478   5.363   4.882   5.941  0.3335 -0.1168 -1.0489
 2678SOL    HW310479   5.305   4.744   5.915  0.4087 -0.3666  0.0615
 2678SOL    MW410480   5.298   4.831   5.911  0.1665  0.2569 -0.1909
 2679SOL     OW10481   3.137   2.619   4.129 -0.3951  0.4225  0.1304
 2679SOL    HW210482   3.148   2.551   4.195  0.6620 -0.0297 -0.4990
 2679SOL    HW310483   3.194   2.690   4.158  0.6729 -0.0804 -0.6770
 2679SOL    MW410484   3.146   2.619   4.142  0.1138 -0.1554 -0.2680
 2680SOL     OW10485   2.136   1.669   4.034 -0.5457 -0.4355 -0.0439
 2680SOL    HW210486   2.056   1.675   3.982  0.4830 -0.1088 -1.6775
 2680SOL    HW310487   2.201   1.635   3.973  1.1217  1.5284  0.5282
 2680SOL    MW410488   2.134   1.666   4.019 -0.4058 -0.0968 -0.2363
 2681SOL     OW10489   1.236   2.058   6.299 -0.1722 -0.0829 -0.0166
 2681SOL    HW210490   1.280   2.003   6.235 -1.1717 -0.7931 -0.1116
 2681SOL    HW310491   1.302   2.124   6.323  0.5357 -0.4055 -1.0150
 2681SOL    MW410492   1.251   2.059   6.294 -0.2271  0.2832  0.2236
 2682SOL     OW10493   3.700   1.106   5.296 -0.0936  0.3602 -0.4546
 2682SOL    HW210494   3.741   1.189   5.320 -0.6332  0.3972  0.3965
 2682SOL    HW310495   3.764   1.039   5.321 -0.4922  0.4209  0.7965
 2682SOL    MW410496   3.714   1.108   5.303 -0.4033  0.5371 -0.3943
 2683SOL     OW10497   2.490   0.349   2.497 -0.3433 -0.1864  0.3254
 2683SOL    HW210498   2.575   0.382   2.526 -1.0359  1.0891  0.9743
 2683SOL    HW310499   2.497   0.254   2.504  0.4883 -0.0346  1.9075
 2683SOL    MW410500   2.502   0.340   2.501 -0.4904  0.2454 -0.0281
 2684SOL     OW10501   1.788   1.556   4.126  0.0121  0.0203  0.4119
 2684SOL    HW210502   1.831   1.619   4.184  1.0023 -0.0149 -0.2672
 2684SOL    HW310503   1.722   1.607   4.079  1.9766  1.0014 -1.4326
 2684SOL    MW410504   1.785   1.571   4.128 -0.3430 -0.6551 -0.1234
 2685SOL     OW10505   2.715   4.098   0.477  0.2176  0.0093 -0.6516
 2685SOL    HW210506   2.737   4.159   0.407 -0.1095 -0.4690 -1.1816
 2685SOL    HW310507   2.780   4.028   0.470  1.4304  0.9181  0.8013
 2685SOL    MW410508   2.726   4.097   0.467  0.3441  0.1693  0.9912
 2686SOL     OW10509   0.901   4.185   0.108  0.4861 -0.0422 -0.6361
 2686SOL    HW210510   0.846   4.121   0.062  2.2993 -2.3367  0.1830
 2686SOL    HW310511   0.970   4.207   0.046  0.5426  0.2110 -0.4845
 2686SOL    MW410512   0.903   4.179   0.094 -0.1251 -0.4844  0.7496
 2687SOL     OW10513   2.595   5.556   4.079 -0.4150 -0.3772  0.1573
 2687SOL    HW210514   2.529   5.539   4.145 -2.3422  0.2748 -1.5009
 2687SOL    HW310515   2.595   5.478   4.024  0.5682 -0.5689  0.4090
 2687SOL    MW410516   2.587   5.544   4.080 -0.0194 -0.2447 -0.1139
 2688SOL     OW10517   0.576   2.040   2.222 -0.9958 -0.1637  0.1019
 2688SOL    HW210518   0.576   2.124   2.177  0.1704 -0.4546 -0.4677
 2688SOL    HW310519   0.487   2.006   2.208 -0.5428 -0.4947 -2.4957
 2688SOL    MW410520   0.564   2.047   2.214  0.2706 -0.3210  0.3883
 2689SOL     OW10521   2.703   1.898   6.359  0.3189  0.2112  0.0181
 2689SOL    HW210522   2.632   1.871   6.301 -0.8343  0.4814  1.2516
 2689SOL    HW310523   2.686   1.851   6.441 -0.7951  3.2525  1.7017
 2689SOL    MW410524   2.691   1.888   6.362 -0.0751 -0.3945 -0.1402
 2690SOL     OW10525   4.904   3.323   4.440  0.3564 -0.6404 -0.3255
 2690SOL    HW210526   4.847   3.324   4.363  1.6600 -0.6968 -1.3280
 2690SOL    HW310527   4.969   3.391   4.423 -0.2143  0.4536  1.4739
 2690SOL    MW410528   4.905   3.332   4.428  0.1550  0.2306  0.6561
 2691SOL     OW10529   6.016   1.712   0.804  0.0799 -0.6050 -0.5437
 2691SOL    HW210530   5.927   1.677   0.810 -0.1396 -0.1273 -0.9660
 2691SOL    HW310531   6.069   1.651   0.855 -0.6577 -0.2939  0.6217
 2691SOL    MW410532   6.011   1.699   0.811  0.1359 -0.3093 -0.3560
 2692SOL     OW10533   0.805   6.332   4.098 -0.4481  0.5018 -0.6485
 2692SOL    HW210534   0.787   6.413   4.051  1.0498  0.0666 -2.0477
 2692SOL    HW310535   0.784   6.262   4.036 -0.1693 -0.1313 -0.0509
 2692SOL    MW410536   0.800   6.333   4.084 -0.1081  0.2742 -0.2196
 2693SOL     OW10537   4.556   0.158   6.193  0.0548 -0.4186 -0.4633
 2693SOL    HW210538   4.544   0.205   6.275 -2.2656  1.5656 -1.8149
 2693SOL    HW310539   4.605   0.079   6.217  0.0322  0.4205  2.6716
 2693SOL    MW410540   4.561   0.154   6.207  0.1143 -0.0229  0.0231
 2694SOL     OW10541   3.042   3.915   1.392  0.1815 -0.0981  0.0860
 2694SOL    HW210542   2.973   3.849   1.393 -0.7655  0.8551  0.6635
 2694SOL    HW310543   3.122   3.867   1.412 -0.5033 -1.0458  0.6499
 2694SOL    MW410544   3.043   3.900   1.395  0.5836 -0.0940  0.3446
 2695SOL     OW10545   1.337   1.072   5.214 -0.2788  0.5776 -0.3085
 2695SOL    HW210546   1.319   1.106   5.127 -1.2512 -0.1143 -0.3944
 2695SOL    HW310547   1.329   0.977   5.204  2.2467  0.2672 -0.0609
 2695SOL    MW410548   1.334   1.064   5.201 -0.5372  0.4002  0.4958
 2696SOL     OW10549   0.398   3.203   3.050 -0.5414 -0.4807  0.1020
 2696SOL    HW210550   0.363   3.117   3.072  0.7214 -1.0030  0.1098
 2696SOL    HW310551   0.356   3.225   2.967 -0.7359 -1.1749  0.0119
 2696SOL    MW410552   0.388   3.195   3.042 -0.4814  0.0551  0.1349
 2697SOL     OW10553   1.078   5.595   5.762 -0.0213 -0.1943  0.3138
 2697SOL    HW210554   1.022   5.622   5.689  0.7835  0.3987 -0.1012
 2697SOL    HW310555   1.166   5.591   5.724  0.4376  0.2966  1.2922
 2697SOL    MW410556   1.082   5.598   5.747  0.2030  0.4456 -0.0600
 2698SOL     OW10557   3.797   1.918   4.639 -0.5686  0.4500  0.7088
 2698SOL    HW210558   3.720   1.958   4.680 -1.6300 -1.3569  0.5807
 2698SOL    HW310559   3.851   1.890   4.713  0.0807  1.8513  0.7992
 2698SOL    MW410560   3.794   1.919   4.655  0.7031 -0.2574  0.5889
 2699SOL     OW10561   1.171   6.354   0.592  0.2460 -0.2417  0.1181
 2699SOL    HW210562   1.114   6.380   0.521 -0.4853 -0.8763  0.4543
 2699SOL    HW310563   1.206   6.269   0.565  0.4950 -0.1732  0.2175
 2699SOL    MW410564   1.168   6.346   0.579 -0.3017  0.4059  0.1658
 2700SOL     OW10565   1.328   0.476   2.159  0.0800 -1.0994  0.2565
 2700SOL    HW210566   1.306   0.453   2.069  1.5294 -2.7440  0.2719
 2700SOL    HW310567   1.252   0.446   2.210 -0.8168 -0.0231 -0.3975
 2700SOL    MW410568   1.315   0.469   2.154  0.0557  0.3523 -0.0436
 2701SOL     OW10569   0.494   2.686   0.647 -0.2027  0.0890 -0.0894
 2701SOL    HW210570   0.482   2.592   0.660 -0.0500  0.3036  1.9282
 2701SOL    HW310571   0.547   2.692   0.567  1.6250 -1.6680  0.8775
 2701SOL    MW410572   0.499   2.674   0.638  0.2917  0.1939 -0.5525
 2702SOL     OW10573   5.744   5.630   5.594 -0.2253 -0.7856  0.2491
 2702SOL    HW210574   5.746   5.655   5.502 -1.1632 -1.3549  0.0621
 2702SOL    HW310575   5.836   5.619   5.619 -0.0098 -2.1674 -1.0487
 2702SOL    MW410576   5.757   5.632   5.585 -0.0578  0.8636 -0.6377
 2703SOL     OW10577   0.681   6.232   1.550 -0.1491 -0.4286  0.8160
 2703SOL    HW210578   0.681   6.234   1.454 -0.7813 -0.7864  0.8055
 2703SOL    HW310579   0.773   6.220   1.573  0.1485  0.6667  0.2861
 2703SOL    MW410580   0.693   6.231   1.540 -0.4175  0.1068  0.3885
 2704SOL     OW10581   2.595   6.303   1.653  0.7987  0.3998 -0.1397
 2704SOL    HW210582   2.558   6.375   1.602 -2.6755 -0.4252  0.9410
 2704SOL    HW310583   2.662   6.265   1.596  0.8294  2.7457 -1.8146
 2704SOL    MW410584   2.599   6.307   1.639 -0.4384  0.3795 -0.3766
 2705SOL     OW10585   4.202   4.675   2.301 -0.8393 -0.3039 -0.2313
 2705SOL    HW210586   4.296   4.684   2.285 -1.1104  1.6067 -1.0159
 2705SOL    HW310587   4.188   4.581   2.303  1.2469 -0.6656  0.9725
 2705SOL    MW410588   4.213   4.664   2.299 -0.1247 -0.3805 -0.3658
 2706SOL     OW10589   2.455   1.989   4.025 -0.0746  0.4006  0.1855
 2706SOL    HW210590   2.533   2.014   3.975  0.3276  1.3407  1.2158
 2706SOL    HW310591   2.465   2.036   4.109 -1.5260  0.1837  0.5055
 2706SOL    MW410592   2.466   1.999   4.030 -0.3833  0.0968  0.4872
 2707SOL     OW10593   4.761   1.014   3.488  0.3354  0.0596 -0.0828
 2707SOL    HW210594   4.678   1.047   3.523  0.1843  0.6815 -1.0003
 2707SOL    HW310595   4.820   1.014   3.564 -0.8493 -1.7278  0.9231
 2707SOL    MW410596   4.758   1.018   3.503  0.1135 -0.0603 -0.4321
 2708SOL     OW10597   6.051   3.110   6.139  0.2546  0.2312 -0.3408
 2708SOL    HW210598   6.089   3.196   6.119 -0.5719  0.5644 -0.5174
 2708SOL    HW310599   6.110   3.073   6.205  0.4062  1.1023  0.0343
 2708SOL    MW410600   6.064   3.116   6.145 -0.3262 -0.1815 -0.4899
 2709SOL     OW10601   2.692   0.652   1.805 -0.4815  0.7347  0.7232
 2709SOL    HW210602   2.704   0.667   1.711  1.7054  1.5784  1.0967
 2709SOL    HW310603   2.599   0.628   1.813 -1.2738  2.6766 -1.4007
 2709SOL    MW410604   2.681   0.651   1.793 -0.4263  0.2818  0.2177
 2710SOL     OW10605   0.900   1.204   1.952 -0.2987  0.1062 -0.2751
 2710SOL    HW210606   0.986   1.205   1.910  0.3948 -1.5164  0.9914
 2710SOL    HW310607   0.899   1.284   2.004 -0.2307  0.9466 -1.5114
 2710SOL    MW410608   0.911   1.215   1.953  0.6623 -1.0874  0.1460
 2711SOL     OW10609   3.550   0.566   0.710  0.4455  0.4564 -0.1810
 2711SOL    HW210610   3.531   0.570   0.616 -1.1216 -0.5329  0.0537
 2711SOL    HW310611   3.478   0.613   0.751  0.5096 -0.0837  0.5763
 2711SOL    MW410612   3.538   0.572   0.703  0.1424 -0.1829 -0.6242
 2712SOL     OW10613   4.846   5.613   1.020 -0.3743 -0.5718  0.3612
 2712SOL    HW210614   4.827   5.528   1.061  0.3600 -0.7004  0.4458
 2712SOL    HW310615   4.888   5.664   1.090  1.1064 -0.8709 -0.2700
 2712SOL    MW410616   4.849   5.608   1.035  0.4516 -0.0040  0.4575
 2713SOL     OW10617   0.456   2.845   2.371 -0.1748 -0.1409 -0.3432
 2713SOL    HW210618   0.468   2.750   2.366 -1.9938 -0.4888  0.7210
 2713SOL    HW310619   0.444   2.862   2.464 -0.8756  0.9765 -0.6234
 2713SOL    MW410620   0.456   2.834   2.382  0.4006  0.0731 -0.5587
 2714SOL     OW10621   0.173   3.746   2.066 -0.1837  0.3977  0.1393
 2714SOL    HW210622   0.090   3.770   2.025  0.0283  0.0016 -0.5353
 2714SOL    HW310623   0.183   3.653   2.047 -0.1664  0.1634  1.2591
 2714SOL    MW410624   0.164   3.737   2.058  0.0089  0.2409  0.7387
 2715SOL     OW10625   4.459   2.702   1.477  0.0830  0.3449 -0.1636
 2715SOL    HW210626   4.395   2.709   1.547  0.7406  1.6872  0.3432
 2715SOL    HW310627   4.434   2.769   1.414 -1.3128 -1.7387 -1.9594
 2715SOL    MW410628   4.447   2.712   1.478 -0.4862  0.2726  0.1401
 2716SOL     OW10629   4.787   6.177   5.254 -0.5176 -0.0549  0.4161
 2716SOL    HW210630   4.761   6.109   5.316 -1.0940  0.2903  0.5636
 2716SOL    HW310631   4.786   6.258   5.306  2.4346 -0.1825  0.8804
 2716SOL    MW410632   4.784   6.179   5.269 -0.0831  0.4606  0.2624
 2717SOL     OW10633   3.607   1.589   5.732 -0.3525  0.3368  0.4588
 2717SOL    HW210634   3.620   1.683   5.746 -1.5131  0.4771  0.7340
 2717SOL    HW310635   3.691   1.550   5.757  0.4045  1.3528 -0.3917
 2717SOL    MW410636   3.620   1.597   5.737  0.4655 -0.0689 -0.9194
 2718SOL     OW10637   3.851   0.426   1.216  0.3608 -0.0075 -0.2842
 2718SOL    HW210638   3.928   0.420   1.160  1.8562  1.1292  1.5537
 2718SOL    HW310639   3.808   0.507   1.190  0.5219  0.0318 -0.4285
 2718SOL    MW410640   3.855   0.436   1.205  0.0063  0.0762  0.2094
 2719SOL     OW10641   0.720   5.568   4.044 -0.1636  0.6453 -0.0411
 2719SOL    HW210642   0.805   5.588   4.005 -0.4991  1.4020 -0.4056
 2719SOL    HW310643   0.691   5.488   4.000  1.1112 -0.6427  1.2993
 2719SOL    MW410644   0.728   5.560   4.033  0.6385  0.1131 -0.4964
 2720SOL     OW10645   0.998   4.338   2.238 -0.6567  0.6498 -0.3287
 2720SOL    HW210646   0.997   4.334   2.334 -2.4314 -1.3194 -0.3471
 2720SOL    HW310647   1.088   4.316   2.214 -0.5478 -0.3923  0.8886
 2720SOL    MW410648   1.009   4.334   2.248 -0.9456 -0.3956 -0.4390
 2721SOL     OW10649   5.067   5.662   1.631  0.1285  0.6519  0.5884
 2721SOL    HW210650   5.104   5.618   1.708 -0.9193  1.3764  1.5357
 2721SOL    HW310651   5.121   5.740   1.620  2.3271 -0.9833 -1.4099
 2721SOL    MW410652   5.079   5.666   1.640 -0.2816  0.1252 -0.0591
 2722SOL     OW10653   2.487   1.577   2.786  0.2610 -0.3332  0.4072
 2722SOL    HW210654   2.545   1.651   2.804  1.6841 -1.0944 -0.8873
 2722SOL    HW310655   2.420   1.582   2.855  1.0679  1.3771  1.1145
 2722SOL    MW410656   2.486   1.587   2.798 -0.1432  0.0604 -0.2939
 2723SOL     OW10657   4.324   6.094   2.101 -0.0729 -0.5749  0.4764
 2723SOL    HW210658   4.354   6.183   2.082 -0.5677 -0.4709  0.1781
 2723SOL    HW310659   4.379   6.066   2.175  0.1333 -0.0507  0.5281
 2723SOL    MW410660   4.335   6.102   2.108 -0.4269  0.3465 -0.8098
 2724SOL     OW10661   4.511   0.805   1.842  0.2775  0.2329  0.1998
 2724SOL    HW210662   4.540   0.770   1.757  0.7390  0.9540  0.0538
 2724SOL    HW310663   4.557   0.888   1.851 -0.7965  0.8170  0.5383
 2724SOL    MW410664   4.521   0.811   1.832 -0.3918 -0.2882  0.4093
 2725SOL     OW10665   5.700   2.230   5.225 -0.1605 -0.5081 -0.0400
 2725SOL    HW210666   5.763   2.272   5.285  0.1268 -0.9291 -0.0372
 2725SOL    HW310667   5.675   2.299   5.165 -0.2098 -0.1570  0.3756
 2725SOL    MW410668   5.705   2.244   5.225  0.1727  0.0501  0.2733
 2726SOL     OW10669   3.940   1.225   2.428 -0.5065 -0.1231 -0.7916
 2726SOL    HW210670   3.873   1.222   2.359 -1.8654  2.5823  0.2604
 2726SOL    HW310671   3.906   1.167   2.497 -0.0490 -1.3877 -1.6005
 2726SOL    MW410672   3.926   1.217   2.428 -0.0808  0.0840 -0.6138
 2727SOL     OW10673   1.315   2.843   0.125 -0.0132  0.3830 -0.0817
 2727SOL    HW210674   1.292   2.931   0.095  1.0614  1.4809  2.1052
 2727SOL    HW310675   1.403   2.828   0.089 -0.1829  0.1965 -0.4266
 2727SOL    MW410676   1.323   2.853   0.116 -0.1982 -0.1629 -0.1193
 2728SOL     OW10677   5.023   4.756   6.004 -0.7024 -0.0057  0.1938
 2728SOL    HW210678   5.088   4.793   5.944 -0.9842  0.0801 -0.0600
 2728SOL    HW310679   5.001   4.671   5.966  0.6104 -0.8684  1.2509
 2728SOL    MW410680   5.029   4.750   5.991 -0.6981 -0.4238  0.0481
 2729SOL     OW10681   1.434   3.004   1.638 -1.2377  0.4356 -0.0782
 2729SOL    HW210682   1.380   3.055   1.578 -1.6178  1.8796  1.3967
 2729SOL    HW310683   1.387   3.008   1.721 -0.7961 -1.6078  0.3127
 2729SOL    MW410684   1.421   3.011   1.641  0.3778  0.3968 -0.9783
 2730SOL     OW10685   1.082   1.682   5.844  0.3277  0.2214  0.9888
 2730SOL    HW210686   1.087   1.610   5.782  0.8715 -0.1423  1.4441
 2730SOL    HW310687   1.126   1.650   5.923 -1.2394  0.2993  1.9374
 2730SOL    MW410688   1.088   1.669   5.847 -0.4728 -0.4799  0.3815
 2731SOL     OW10689   2.177   5.159   3.455  0.1602  0.0351 -0.1768
 2731SOL    HW210690   2.175   5.202   3.369 -0.4660 -0.5088 -0.4380
 2731SOL    HW310691   2.086   5.149   3.479  0.3389  0.9969  0.9852
 2731SOL    MW410692   2.165   5.164   3.447  0.0998  0.2712 -0.0845
 2732SOL     OW10693   2.514   1.961   4.533  0.3531  0.0851 -0.0339
 2732SOL    HW210694   2.425   1.978   4.505  0.4906  2.1764  0.6192
 2732SOL    HW310695   2.505   1.907   4.612 -0.2550 -0.6311 -0.5773
 2732SOL    MW410696   2.501   1.956   4.540  0.4009  0.4830 -0.1775
 2733SOL     OW10697   2.420   2.354   2.540  0.0435  0.4599  0.0227
 2733SOL    HW210698   2.454   2.442   2.556  0.8260  0.3720 -1.0041
 2733SOL    HW310699   2.368   2.362   2.460  1.0407 -0.2030 -0.7245
 2733SOL    MW410700   2.418   2.367   2.531 -0.2635 -0.6771  0.2394
 2734SOL     OW10701   1.101   1.353   4.745  0.0165  0.2717 -0.0039
 2734SOL    HW210702   1.183   1.329   4.703  0.5602 -0.0581  1.2148
 2734SOL    HW310703   1.055   1.406   4.679  1.1925  0.4664 -0.6933
 2734SOL    MW410704   1.105   1.357   4.731 -0.5686  0.3606 -0.0277
 2735SOL     OW10705   6.148   0.005   4.202  0.1709  0.0564 -0.8833
 2735SOL    HW210706   6.169  -0.075   4.155 -0.7629 -0.6337 -0.1624
 2735SOL    HW310707   6.133   0.070   4.133 -1.7102 -1.0645 -1.6085
 2735SOL    MW410708   6.149   0.003   4.186 -0.5742 -0.1235 -0.2949
 2736SOL     OW10709   6.310   1.387   4.648 -0.1772  0.3748  0.2453
 2736SOL    HW210710   6.314   1.348   4.561 -0.2059 -1.0359  0.8306
 2736SOL    HW310711   6.325   1.480   4.635 -1.6797  0.4302 -1.4328
 2736SOL    MW410712   6.312   1.394   4.635 -0.2216  0.6476 -0.1565
 2737SOL     OW10713   6.201   0.911   2.413  0.4962  0.4207  0.1121
 2737SOL    HW210714   6.182   0.987   2.358  1.3453 -0.0546 -0.8841
 2737SOL    HW310715   6.258   0.946   2.482  0.7420  0.7322 -0.2402
 2737SOL    MW410716   6.206   0.926   2.415  0.1173 -0.4647 -0.4808
 2738SOL     OW10717   4.117   0.562   4.478  0.2781 -0.5407 -0.3696
 2738SOL    HW210718   4.153   0.540   4.392  2.6370 -2.0299  0.8741
 2738SOL    HW310719   4.194   0.587   4.529 -1.0385  0.0774  1.3734
 2738SOL    MW410720   4.132   0.562   4.473  0.2182 -0.3602 -0.5388
 2739SOL     OW10721   1.046   5.626   3.283  0.4833  0.0317 -0.2638
 2739SOL    HW210722   1.077   5.594   3.199  0.8842  1.8934 -0.8703
 2739SOL    HW310723   1.081   5.715   3.290 -0.2725  0.2431  1.4730
 2739SOL    MW410724   1.054   5.634   3.273  0.3133 -0.4255  0.2511
 2740SOL     OW10725   6.172   1.186   5.107  0.0029  0.3197  0.0229
 2740SOL    HW210726   6.221   1.220   5.033  0.2127 -0.3376 -0.1482
 2740SOL    HW310727   6.183   1.091   5.102 -0.9611  0.1830  0.2094
 2740SOL    MW410728   6.180   1.178   5.097 -0.7348 -0.4924  0.0819
 2741SOL     OW10729   6.052   5.379   1.017  0.0306 -0.1660  0.5269
 2741SOL    HW210730   6.065   5.356   0.924  0.1166  0.8359  0.2786
 2741SOL    HW310731   5.964   5.348   1.037 -0.3170  0.3674 -0.1354
 2741SOL    MW410732   6.042   5.372   1.007  0.3578  0.1142  0.3561
 2742SOL     OW10733   4.087   3.865   0.957  0.5711 -0.4258  0.0300
 2742SOL    HW210734   4.161   3.926   0.968 -1.5053  2.3169 -0.1130
 2742SOL    HW310735   4.070   3.832   1.046 -0.0815  1.5811  0.7103
 2742SOL    MW410736   4.095   3.869   0.971  0.2647 -0.4635  0.4195
 2743SOL     OW10737   3.679   4.664   0.804 -0.0365  0.0278 -0.9580
 2743SOL    HW210738   3.645   4.633   0.888 -0.3933 -1.5664 -1.6578
 2743SOL    HW310739   3.687   4.759   0.815  1.5653 -0.3218  1.4331
 2743SOL    MW410740   3.675   4.672   0.816 -0.0142 -0.1196 -0.0848
 2744SOL     OW10741   0.380   1.421   6.411 -0.0532  0.1057 -0.3745
 2744SOL    HW210742   0.458   1.366   6.407 -0.5594 -0.5934 -0.8589
 2744SOL    HW310743   0.400   1.495   6.354 -0.3713 -0.9307 -1.9194
 2744SOL    MW410744   0.393   1.423   6.403 -0.2511 -0.8066  0.0274
 2745SOL     OW10745   2.458   0.293   2.167 -0.5739  0.7066 -0.1314
 2745SOL    HW210746   2.395   0.305   2.096 -0.7140 -1.0047 -0.3353
 2745SOL    HW310747   2.425   0.349   2.238 -1.7412  0.6388 -0.5934
 2745SOL    MW410748   2.445   0.302   2.167 -0.4514 -0.0566 -0.3264
 2746SOL     OW10749   4.791   3.453   0.650 -0.2556  0.3658 -0.6470
 2746SOL    HW210750   4.814   3.376   0.702  0.5422  0.8292 -0.2891
 2746SOL    HW310751   4.698   3.444   0.633  0.0705 -1.3919 -1.7743
 2746SOL    MW410752   4.782   3.441   0.654  0.0515 -0.2194  0.0755
 2747SOL     OW10753   2.358   3.010   2.726  0.5177 -0.2385  0.3805
 2747SOL    HW210754   2.337   3.043   2.813 -0.2106 -0.2916  0.2325
 2747SOL    HW310755   2.418   2.936   2.742 -0.8615 -1.2738  0.9496
 2747SOL    MW410756   2.363   3.004   2.739  0.4144 -0.2131 -0.4141
 2748SOL     OW10757   4.578   3.610   3.948  0.2763  0.3729  0.3700
 2748SOL    HW210758   4.610   3.658   4.025 -0.4703  0.1324  0.8375
 2748SOL    HW310759   4.637   3.535   3.941  1.3626  1.2580 -0.2821
 2748SOL    MW410760   4.590   3.606   3.957 -0.2723 -0.0369  0.2414
 2749SOL     OW10761   3.360   4.172   5.907  0.5988  0.0805 -0.4592
 2749SOL    HW210762   3.400   4.211   5.829  0.8630  0.3742 -0.1748
 2749SOL    HW310763   3.323   4.246   5.955  1.5051  0.0482  0.3190
 2749SOL    MW410764   3.360   4.187   5.903 -0.4238 -0.3075 -0.3121
 2750SOL     OW10765   3.287   2.179   2.037  0.1626 -0.4158 -0.3096
 2750SOL    HW210766   3.235   2.126   1.976  0.4471  0.4107 -1.2989
 2750SOL    HW310767   3.348   2.117   2.077 -0.9201 -1.2207  0.1637
 2750SOL    MW410768   3.288   2.163   2.034  0.0146 -0.1005 -0.5033
 2751SOL     OW10769   4.315   4.874   4.034  0.3269 -0.7002 -0.3273
 2751SOL    HW210770   4.298   4.930   4.110  1.2962 -0.7917 -0.0240
 2751SOL    HW310771   4.229   4.858   3.995 -0.1273 -0.2824  0.4915
 2751SOL    MW410772   4.302   4.879   4.039  0.2993 -0.5795  0.5921
 2752SOL     OW10773   3.655   1.966   3.372  0.2019  0.6991  0.0305
 2752SOL    HW210774   3.572   2.001   3.404  0.6940  1.2342  0.7358
 2752SOL    HW310775   3.677   1.896   3.434  0.0045  0.1771 -0.4788
 2752SOL    MW410776   3.647   1.962   3.384  0.4222  0.2029 -0.4283
 2753SOL     OW10777   3.838   4.520   6.283 -0.3847  0.0710 -0.1962
 2753SOL    HW210778   3.788   4.548   6.359 -0.5057 -1.0325  0.1505
 2753SOL    HW310779   3.927   4.508   6.316  0.5489  3.4187 -1.1085
 2753SOL    MW410780   3.844   4.522   6.297  0.0708  0.1176 -0.1482
 2754SOL     OW10781   4.195   1.625   2.792 -0.6759 -0.1453  0.4451
 2754SOL    HW210782   4.287   1.638   2.769  0.0119 -3.0386  1.1631
 2754SOL    HW310783   4.147   1.640   2.710  0.8058 -1.6646 -0.7757
 2754SOL    MW410784   4.201   1.629   2.778 -0.5123  0.1953 -0.8067
 2755SOL     OW10785   4.253   5.301   5.678 -0.0178  0.3218  0.1044
 2755SOL    HW210786   4.289   5.368   5.621  0.0012 -0.0913 -0.3811
 2755SOL    HW310787   4.327   5.242   5.696 -0.3767 -0.4045 -0.7137
 2755SOL    MW410788   4.268   5.302   5.673  0.0336 -0.0869  0.3799
 2756SOL     OW10789   6.401   1.761   0.753 -0.9434 -0.1716 -0.0435
 2756SOL    HW210790   6.347   1.838   0.770  0.1503  0.9729 -1.5853
 2756SOL    HW310791   6.363   1.722   0.674  0.6049  0.8467 -1.3604
 2756SOL    MW410792   6.389   1.766   0.745  0.4213 -0.4762  0.3345
 2757SOL     OW10793   6.041   2.468   5.820  0.8777  0.1087 -0.2824
 2757SOL    HW210794   6.006   2.532   5.759  2.1937  0.5244 -0.6504
 2757SOL    HW310795   6.074   2.521   5.893  0.7819 -0.2524  0.0237
 2757SOL    MW410796   6.041   2.484   5.822 -0.0749 -0.3435 -0.1234
 2758SOL     OW10797   0.944   2.256   1.101  0.0471  0.1645 -0.3600
 2758SOL    HW210798   0.950   2.270   1.007  3.1615 -1.6808 -0.5717
 2758SOL    HW310799   0.949   2.161   1.112  0.6838  0.3849  1.6917
 2758SOL    MW410800   0.945   2.245   1.090  0.4799  0.0982  0.5886
 2759SOL     OW10801   5.180   4.364   4.799  0.4110  0.2698 -0.6824
 2759SOL    HW210802   5.168   4.375   4.704  1.9950 -2.2269 -1.2559
 2759SOL    HW310803   5.163   4.271   4.815  0.2044  0.6266  1.5206
 2759SOL    MW410804   5.176   4.353   4.788 -0.3858 -0.3875 -0.3537
 2760SOL     OW10805   2.043   0.801   1.510 -0.1934  0.0123  0.0228
 2760SOL    HW210806   1.980   0.759   1.570  0.0203 -0.1784  0.1173
 2760SOL    HW310807   2.060   0.735   1.443 -0.0127  0.0211  0.0579
 2760SOL    MW410808   2.037   0.787   1.509  0.2041  0.0379 -0.0460
 2761SOL     OW10809   3.638   2.829   0.382  0.6767 -0.0304 -0.1271
 2761SOL    HW210810   3.654   2.901   0.443 -0.2301  0.9562 -0.9866
 2761SOL    HW310811   3.572   2.775   0.424 -0.3668  0.9552 -0.4151
 2761SOL    MW410812   3.631   2.832   0.395 -0.6322 -0.1194  0.0344
 2762SOL     OW10813   0.728   0.836   2.222 -1.0351 -0.0805  0.4001
 2762SOL    HW210814   0.745   0.876   2.136 -1.0777  1.4740  1.0933
 2762SOL    HW310815   0.693   0.907   2.275 -1.5943 -1.1775  1.5441
 2762SOL    MW410816   0.726   0.850   2.217 -0.0303  0.4565  0.6959
 2763SOL     OW10817   4.950   5.263   3.466 -0.3042 -0.5836 -0.0910
 2763SOL    HW210818   4.872   5.279   3.414  0.3651 -0.0886 -0.9664
 2763SOL    HW310819   4.918   5.217   3.544 -1.6426  0.7145  0.1857
 2763SOL    MW410820   4.936   5.259   3.470 -0.2714  0.6162 -0.4291
 2764SOL     OW10821   4.781   2.469   1.024  0.3888  0.0257 -0.1428
 2764SOL    HW210822   4.784   2.484   0.929  0.0318  0.2920 -0.1134
 2764SOL    HW310823   4.706   2.411   1.037 -0.0369  0.6169  0.0579
 2764SOL    MW410824   4.772   2.463   1.013  0.0133 -0.7179 -0.7426
 2765SOL     OW10825   0.166   1.347   5.487  0.1573 -0.1781 -0.2470
 2765SOL    HW210826   0.084   1.393   5.473  0.3423 -0.2765 -1.7675
 2765SOL    HW310827   0.157   1.310   5.575 -0.7277  1.1999  0.2824
 2765SOL    MW410828   0.154   1.348   5.497 -0.1498 -0.3110  0.1848
 2766SOL     OW10829   0.952   3.894   2.034  0.0505  0.3585  0.1199
 2766SOL    HW210830   0.987   3.870   1.948 -0.6479 -0.7504  0.1296
 2766SOL    HW310831   1.010   3.851   2.096  0.4393  1.0033  0.2195
 2766SOL    MW410832   0.965   3.885   2.031 -0.1303  0.0963  0.2961
 2767SOL     OW10833   2.559   1.133   5.458 -0.4416 -0.3223  0.1890
 2767SOL    HW210834   2.562   1.076   5.381 -2.3650 -0.1963 -0.0290
 2767SOL    HW310835   2.648   1.169   5.465 -0.2915 -0.0991 -2.1549
 2767SOL    MW410836   2.571   1.130   5.449 -0.3419 -0.3303 -0.4121
 2768SOL     OW10837   5.310   0.960   5.541  0.2393 -0.1667 -0.4062
 2768SOL    HW210838   5.394   0.924   5.511  1.0878  0.3139  1.2741
 2768SOL    HW310839   5.244   0.905   5.499  1.4477 -2.7898  0.9029
 2768SOL    MW410840   5.313   0.948   5.531  0.4148 -0.1289  0.6360
 2769SOL     OW10841   4.660   1.812   3.584 -0.3443  0.1060 -1.4880
 2769SOL    HW210842   4.567   1.831   3.598 -0.4284 -0.7393 -0.8278
 2769SOL    HW310843   4.661   1.738   3.523 -0.1984 -1.5422  0.4354
 2769SOL    MW410844   4.648   1.805   3.577  0.2394  0.0259 -0.3688
 2770SOL     OW10845   6.401   0.120   4.314 -0.2586  0.0324 -0.0838
 2770SOL    HW210846   6.398   0.211   4.284  0.9452 -0.5973 -2.3978
 2770SOL    HW310847   6.312   0.088   4.301 -0.6617  0.8123  0.6320
 2770SOL    MW410848   6.389   0.128   4.308 -0.1554 -0.0990  0.2441
 2771SOL     OW10849   1.782   1.367   4.351  0.4883 -0.0228 -0.6611
 2771SOL    HW210850   1.766   1.433   4.283  0.5801  2.0459  1.2335
 2771SOL    HW310851   1.805   1.417   4.429 -0.8424 -2.2363  1.2873
 2771SOL    MW410852   1.783   1.382   4.352 -0.5709 -0.2923  0.0569
 2772SOL     OW10853   3.990   4.191   2.512 -0.4303 -0.6238  0.7130
 2772SOL    HW210854   3.941   4.166   2.433  1.2473 -0.5788 -0.3985
 2772SOL    HW310855   3.938   4.262   2.550 -1.1862 -0.5112 -0.4484
 2772SOL    MW410856   3.976   4.197   2.506 -0.1872 -0.1507  0.1704
 2773SOL     OW10857   1.743   5.900   0.760 -0.3103  0.4371  0.0337
 2773SOL    HW210858   1.717   5.900   0.668  1.6780  0.2039 -0.5684
 2773SOL    HW310859   1.735   5.808   0.788  1.4551  0.0390 -0.6597
 2773SOL    MW410860   1.739   5.888   0.752  0.1709  0.3438 -0.2545
 2774SOL     OW10861   0.306   1.565   0.626  0.2794  0.1074  0.0745
 2774SOL    HW210862   0.292   1.645   0.575  1.1535 -0.5704 -1.3037
 2774SOL    HW310863   0.230   1.560   0.684 -1.0432  0.6719 -1.5305
 2774SOL    MW410864   0.294   1.575   0.627  0.0138 -0.4659  0.2664
 2775SOL     OW10865   2.781   2.250   3.167  0.5590  0.4872 -0.2462
 2775SOL    HW210866   2.851   2.287   3.221 -0.2944 -0.2274  1.4386
 2775SOL    HW310867   2.816   2.166   3.137  1.2777  1.1674 -1.3786
 2775SOL    MW410868   2.795   2.244   3.170  0.3090  0.4450  0.4385
 2776SOL     OW10869   1.517   2.137   4.102  0.3035 -0.4040 -0.0774
 2776SOL    HW210870   1.541   2.135   4.009  1.2924  0.1824  0.1499
 2776SOL    HW310871   1.483   2.225   4.116  2.4926  0.4047  0.6313
 2776SOL    MW410872   1.516   2.148   4.092 -0.2789  0.3427 -0.2136
 2777SOL     OW10873   2.558   3.386   0.705 -0.2449  0.6160  0.0930
 2777SOL    HW210874   2.482   3.354   0.754 -0.7183  0.5767 -0.6361
 2777SOL    HW310875   2.552   3.341   0.620 -0.1744  1.6279 -0.4629
 2777SOL    MW410876   2.547   3.376   0.700 -0.4633  0.8437 -0.1993
 2778SOL     OW10877   5.351   3.222   3.358 -0.8937  0.4962  0.3702
 2778SOL    HW210878   5.440   3.199   3.386 -1.4041 -1.0409  0.8478
 2778SOL    HW310879   5.338   3.171   3.278 -0.1185  3.4228 -1.8026
 2778SOL    MW410880   5.361   3.212   3.351 -0.0745 -0.7621  0.0923
 2779SOL     OW10881   1.014   4.592   0.456  0.2194 -0.1643  0.2070
 2779SOL    HW210882   1.077   4.625   0.392 -0.7675 -0.0755 -0.7513
 2779SOL    HW310883   1.038   4.501   0.469 -0.4643 -0.6085 -1.4449
 2779SOL    MW410884   1.025   4.585   0.449 -0.7421  0.1895 -0.0510
 2780SOL     OW10885   0.342   5.095   5.528  0.0547 -0.0006 -0.0551
 2780SOL    HW210886   0.253   5.060   5.535 -0.3007  1.0980  1.8524
 2780SOL    HW310887   0.395   5.038   5.583  0.1928  0.3087  0.1363
 2780SOL    MW410888   0.337   5.083   5.536  0.2001 -0.2799  0.4471
 2781SOL     OW10889   5.412   4.221   4.583 -0.1024 -0.8670  0.3227
 2781SOL    HW210890   5.371   4.136   4.564 -1.3604 -0.1585 -0.2156
 2781SOL    HW310891   5.504   4.208   4.558 -0.0915 -2.2958  0.9787
 2781SOL    MW410892   5.419   4.208   4.577  0.4776  0.5959  0.1126
 2782SOL     OW10893   2.831   5.278   4.023 -0.3943 -0.0419  0.2435
 2782SOL    HW210894   2.889   5.203   4.039 -0.4625 -0.2430 -0.4010
 2782SOL    HW310895   2.851   5.304   3.933 -0.3536  0.7398  0.4769
 2782SOL    MW410896   2.841   5.271   4.013 -0.7936  0.4077 -0.4245
 2783SOL     OW10897   3.545   4.812   2.943 -0.4937 -0.4087  0.5398
 2783SOL    HW210898   3.482   4.775   2.881 -0.4194 -1.4793  1.0926
 2783SOL    HW310899   3.603   4.739   2.965 -0.2651  0.0687  1.5548
 2783SOL    MW410900   3.545   4.798   2.937 -0.6276 -0.5491  0.3794
 2784SOL     OW10901   5.274   5.075   0.333 -0.0368  0.4613 -0.0028
 2784SOL    HW210902   5.217   5.043   0.263 -0.0378  0.8747 -0.1937
 2784SOL    HW310903   5.361   5.040   0.311 -0.0111  0.7018 -0.2866
 2784SOL    MW410904   5.278   5.066   0.321 -0.4991 -0.4799  0.0797
 2785SOL     OW10905   0.705   1.698   0.018  0.3767  0.3065  0.1772
 2785SOL    HW210906   0.776   1.745  -0.026  0.0845 -1.6226 -2.6247
 2785SOL    HW310907   0.745   1.616   0.047 -0.5062 -0.5763 -0.9801
 2785SOL    MW410908   0.720   1.694   0.016  0.1427  0.1450 -0.0782
 2786SOL     OW10909   4.019   5.457   5.507 -0.0785  0.0533  0.3052
 2786SOL    HW210910   4.112   5.434   5.516  0.2213  1.0943 -0.0064
 2786SOL    HW310911   4.015   5.512   5.428 -0.6641  1.4852  1.2884
 2786SOL    MW410912   4.031   5.461   5.498  0.1856 -0.2984 -0.4619
 2787SOL     OW10913   3.160   3.842   3.278 -0.3047 -0.7426  0.1011
 2787SOL    HW210914   3.177   3.928   3.238 -0.5037 -1.0833 -0.7427
 2787SOL    HW310915   3.082   3.811   3.233 -0.1910 -1.4000  0.3581
 2787SOL    MW410916   3.152   3.850   3.266  0.5448 -0.0267  0.4824
 2788SOL     OW10917   3.562   3.644   3.725 -0.1156 -0.1722 -0.1891
 2788SOL    HW210918   3.573   3.641   3.820  0.8926  2.8477 -0.1149
 2788SOL    HW310919   3.627   3.583   3.691  0.6779 -0.0298  1.0266
 2788SOL    MW410920   3.572   3.635   3.733 -0.0064  0.4761 -0.4001
 2789SOL     OW10921   5.400   6.313   4.332 -0.3544 -0.5132  0.5872
 2789SOL    HW210922   5.429   6.225   4.307 -1.5039 -1.0635  1.1215
 2789SOL    HW310923   5.440   6.370   4.266  3.3593 -0.9555  2.2381
 2789SOL    MW410924   5.409   6.309   4.320 -0.7920 -0.3783 -0.2485
 2790SOL     OW10925   0.713   0.257   4.607 -0.0712  0.6070  0.5915
 2790SOL    HW210926   0.751   0.339   4.575 -2.9946  1.8806  0.0528
 2790SOL    HW310927   0.701   0.205   4.528 -1.4597  1.1743  0.3896
 2790SOL    MW410928   0.717   0.261   4.592  0.1597 -0.4532 -0.5188
 2791SOL     OW10929   2.428   4.586   2.288 -0.0747  0.2244 -0.3557
 2791SOL    HW210930   2.414   4.510   2.232  0.0491  0.0107 -0.0988
 2791SOL    HW310931   2.504   4.563   2.342  1.1002  1.2456 -1.5164
 2791SOL    MW410932   2.436   4.573   2.288  0.7681 -0.1667 -0.8521
 2792SOL     OW10933   2.508   5.406   5.232  0.4657  0.4843 -0.7844
 2792SOL    HW210934   2.488   5.369   5.317 -0.5818  2.1781 -0.2333
 2792SOL    HW310935   2.524   5.331   5.175  1.6275 -0.6657  0.9812
 2792SOL    MW410936   2.508   5.391   5.235 -0.1685 -0.3116 -0.5449
 2793SOL     OW10937   1.534   4.718   1.054 -0.4905 -0.1371  0.2246
 2793SOL    HW210938   1.583   4.798   1.071  1.7024 -1.1604 -0.8358
 2793SOL    HW310939   1.527   4.676   1.140  0.6736 -0.0384  0.3884
 2793SOL    MW410940   1.540   4.723   1.068  0.6532 -0.4608  0.1861
 2794SOL     OW10941   5.875   0.726   2.298 -0.4255  0.7428 -0.1652
 2794SOL    HW210942   5.890   0.753   2.389 -2.2419  2.2379 -0.2419
 2794SOL    HW310943   5.893   0.804   2.246  0.3657 -0.0319 -1.1002
 2794SOL    MW410944   5.879   0.740   2.303  0.5197  0.3359  0.0646
 2795SOL     OW10945   3.058   0.585   0.089 -0.0072  0.4871 -0.1654
 2795SOL    HW210946   3.133   0.617   0.038 -0.0148  1.4907  0.4474
 2795SOL    HW310947   2.982   0.630   0.051 -0.4424 -1.0719 -1.2763
 2795SOL    MW410948   3.058   0.595   0.077  0.3165 -0.2961 -0.5510
 2796SOL     OW10949   2.370   6.323   5.325 -0.4331 -0.2992  0.2562
 2796SOL    HW210950   2.352   6.367   5.242 -0.4230 -0.5623  0.1118
 2796SOL    HW310951   2.323   6.374   5.390 -0.1289  0.1371  0.1424
 2796SOL    MW410952   2.362   6.335   5.322  0.1707 -0.3229 -0.7714
 2797SOL     OW10953   2.937   5.796   5.018 -0.5591  0.5636 -0.5194
 2797SOL    HW210954   2.855   5.833   5.051 -1.4964 -3.1181  1.9042
 2797SOL    HW310955   2.909   5.721   4.966  1.2482 -0.6193  0.1421
 2797SOL    MW410956   2.923   5.791   5.015  0.0541 -0.8573  0.0010
 2798SOL     OW10957   5.743   4.563   1.358  0.3227  0.1429 -0.2354
 2798SOL    HW210958   5.751   4.592   1.449 -0.8535  1.3506 -0.4928
 2798SOL    HW310959   5.809   4.494   1.349 -0.3930 -0.9274  1.9033
 2798SOL    MW410960   5.753   4.557   1.369 -0.4263  0.1541 -0.4250
 2799SOL     OW10961   6.168   2.428   4.873 -0.1597  0.3114  0.1802
 2799SOL    HW210962   6.195   2.352   4.925  0.0628 -2.2415 -3.3096
 2799SOL    HW310963   6.249   2.462   4.836 -0.5749 -0.0548 -1.1171
 2799SOL    MW410964   6.182   2.423   4.875  0.3742 -0.2210  0.5914
 2800SOL     OW10965   1.465   2.188   6.424  0.1909 -0.0533 -0.1232
 2800SOL    HW210966   1.484   2.270   6.377  0.6617 -0.6596 -1.0180
 2800SOL    HW310967   1.505   2.200   6.510  0.3089  0.6353 -0.2683
 2800SOL    MW410968   1.473   2.200   6.429 -0.1547 -0.3827 -0.1259
 2801SOL     OW10969   4.971   4.312   3.000 -0.5094  0.0053  0.0310
 2801SOL    HW210970   4.906   4.303   3.070 -2.3290  0.9295 -1.4651
 2801SOL    HW310971   4.938   4.256   2.930 -0.3299  1.3848 -1.1825
 2801SOL    MW410972   4.958   4.303   3.000  0.1342 -0.1216 -0.4245
 2802SOL     OW10973   1.282   4.091   4.675  0.5312  0.1325 -0.6410
 2802SOL    HW210974   1.355   4.111   4.733 -0.3534  0.5819  0.3544
 2802SOL    HW310975   1.319   4.099   4.587  2.3585 -2.2474 -0.2016
 2802SOL    MW410976   1.297   4.094   4.671  0.0928 -0.2767 -0.6716
 2803SOL     OW10977   1.211   2.669   2.101  0.6259  0.5547  0.1251
 2803SOL    HW210978   1.273   2.681   2.174  0.1567  0.6875  0.5094
 2803SOL    HW310979   1.144   2.736   2.116  0.5623  0.6300 -0.4724
 2803SOL    MW410980   1.211   2.680   2.113  0.4946  0.0909  0.5063
 2804SOL     OW10981   2.861   2.711   4.198 -0.6078  0.0276  0.3217
 2804SOL    HW210982   2.879   2.796   4.239 -0.8400  0.7700 -1.0513
 2804SOL    HW310983   2.948   2.678   4.174 -0.6108  0.7782 -0.8249
 2804SOL    MW410984   2.875   2.718   4.201  0.2640  0.0432 -0.0590
 2805SOL     OW10985   0.289   5.340   0.183 -0.5016  0.7511 -0.2146
 2805SOL    HW210986   0.339   5.389   0.118 -1.6160 -0.8158 -2.3331
 2805SOL    HW310987   0.200   5.337   0.148 -1.4706  0.9481  2.0410
 2805SOL    MW410988   0.284   5.346   0.170  0.4221 -0.7151  0.7884
 2806SOL     OW10989   1.116   0.987   4.958 -0.0904  0.8869 -0.0492
 2806SOL    HW210990   1.153   0.955   4.875  0.8754  1.7625  0.0169
 2806SOL    HW310991   1.028   0.949   4.961  1.5010 -3.2250  0.8688
 2806SOL    MW410992   1.109   0.978   4.947  0.0193  0.1097  0.8071
 2807SOL     OW10993   3.192   6.399   2.766  0.0023 -0.5517 -0.1457
 2807SOL    HW210994   3.214   6.375   2.676  0.4231  0.7437 -0.4133
 2807SOL    HW310995   3.119   6.460   2.758  0.4147  0.0175  0.3422
 2807SOL    MW410996   3.186   6.404   2.753 -0.0372 -0.3735  0.3348
 2808SOL     OW10997   3.971   2.676   4.894  0.2076 -0.5160 -0.4649
 2808SOL    HW210998   4.049   2.732   4.897  0.4598 -0.8748  2.2747
 2808SOL    HW310999   3.897   2.736   4.903 -0.0055 -0.0914 -3.8269
 2808SOL    MW411000   3.972   2.691   4.896  0.4548 -0.4163 -0.0534
 2809SOL     OW11001   3.969   0.774   1.446 -0.1151 -0.1711 -0.0694
 2809SOL    HW211002   3.881   0.738   1.456  0.1164 -0.7922 -0.2550
 2809SOL    HW311003   3.983   0.778   1.351 -0.4161  1.1035 -0.0833
 2809SOL    MW411004   3.959   0.770   1.435  0.2179 -0.5934  0.0711
 2810SOL     OW11005   4.836   3.424   1.721  0.3956  0.3072  0.1068
 2810SOL    HW211006   4.874   3.353   1.670 -0.3778  0.1840 -0.3141
 2810SOL    HW311007   4.858   3.403   1.812  0.3871 -0.3279 -0.0344
 2810SOL    MW411008   4.844   3.412   1.726 -0.3367 -0.6928 -0.4024
 2811SOL     OW11009   1.141   6.284   2.019 -0.4199  0.2778  0.0972
 2811SOL    HW211010   1.147   6.272   1.924  0.3642  0.3161  0.1319
 2811SOL    HW311011   1.065   6.232   2.046  0.0334 -0.6598 -0.3991
 2811SOL    MW411012   1.132   6.275   2.010  0.4032  0.2133 -0.3441
 2812SOL     OW11013   0.971   1.484   5.348  0.1643  0.4646  0.1927
 2812SOL    HW211014   0.878   1.505   5.337 -0.4101 -1.4481  0.8730
 2812SOL    HW311015   0.981   1.401   5.301  1.4816  0.5246  0.3479
 2812SOL    MW411016   0.960   1.476   5.340  0.6322  0.0633 -0.4965
 2813SOL     OW11017   1.347   3.275   5.583 -0.1996 -0.0520  0.6945
 2813SOL    HW211018   1.398   3.215   5.637  0.2558  0.1122  0.4517
 2813SOL    HW311019   1.342   3.233   5.497  1.2715  0.8654  0.1361
 2813SOL    MW411020   1.353   3.262   5.578  0.4947 -0.3757 -0.3357
 2814SOL     OW11021   2.104   0.093   1.944 -0.1666 -0.5269  0.2184
 2814SOL    HW211022   2.074   0.119   2.031  0.5919 -0.7810  0.5563
 2814SOL    HW311023   2.151   0.012   1.957  2.9561  1.1206  0.1388
 2814SOL    MW411024   2.106   0.086   1.957 -0.0195 -0.5418 -0.0628
 2815SOL     OW11025   3.813   1.859   3.986  0.8196 -0.0137  0.0809
 2815SOL    HW211026   3.832   1.914   4.063 -0.8612 -0.2273  0.6894
 2815SOL    HW311027   3.812   1.921   3.913  0.4708  0.5313  0.5339
 2815SOL    MW411028   3.815   1.875   3.987  0.2320  0.3114  0.4383
 2816SOL     OW11029   4.769   0.543   2.194 -0.2843  0.2226 -0.6547
 2816SOL    HW211030   4.756   0.544   2.099  0.4193 -0.5080 -0.7654
 2816SOL    HW311031   4.852   0.588   2.208  0.9432 -1.9293 -0.6324
 2816SOL    MW411032   4.778   0.549   2.183 -0.3813 -0.1368 -0.4396
 2817SOL     OW11033   0.441   4.579   2.340  0.1088  0.3293  0.9761
 2817SOL    HW211034   0.527   4.621   2.345  0.8683 -0.9290 -0.6063
 2817SOL    HW311035   0.460   4.486   2.323 -1.5563 -0.1638  1.5366
 2817SOL    MW411036   0.455   4.572   2.339 -0.0632  0.3072 -0.0698
 2818SOL     OW11037   3.302   2.087   6.120  1.2870 -0.3192  0.3750
 2818SOL    HW211038   3.310   2.075   6.215 -0.8069 -0.4579  0.5659
 2818SOL    HW311039   3.246   2.015   6.091 -1.0167  1.6750 -0.4054
 2818SOL    MW411040   3.296   2.076   6.129  0.3179  0.4555 -0.0869
 2819SOL     OW11041   4.356   4.743   3.248  0.2809 -0.4552  0.1052
 2819SOL    HW211042   4.441   4.779   3.221 -0.2415  0.3437 -0.5058
 2819SOL    HW311043   4.292   4.800   3.207 -0.5720 -1.6055 -0.1871
 2819SOL    MW411044   4.359   4.755   3.239  0.0255 -0.5557  0.2395
 2820SOL     OW11045   2.064   6.140   3.873 -0.2739  0.1906 -0.2358
 2820SOL    HW211046   2.124   6.202   3.913 -0.1719 -0.1656  0.1777
 2820SOL    HW311047   2.111   6.107   3.796  0.0963 -0.1484  0.1337
 2820SOL    MW411048   2.078   6.143   3.868  0.7341  0.0204 -0.4059
 2821SOL     OW11049   3.353   4.898   0.237 -0.4661  0.9050  0.2728
 2821SOL    HW211050   3.292   4.830   0.266  1.7753 -1.8586 -1.0759
 2821SOL    HW311051   3.313   4.934   0.158 -0.0665 -1.4634 -1.0832
 2821SOL    MW411052   3.339   4.894   0.230  0.9878  0.3278  0.3538
 2822SOL     OW11053   6.023   1.906   2.836  0.0614 -0.0550  0.0841
 2822SOL    HW211054   6.015   1.954   2.918 -0.4871 -0.5181  0.3083
 2822SOL    HW311055   6.012   1.973   2.768 -0.2397  0.2075  0.3881
 2822SOL    MW411056   6.020   1.921   2.838  0.0666  0.6531  0.2223
 2823SOL     OW11057   0.544   3.494   1.370  0.4886 -0.0632 -0.0735
 2823SOL    HW211058   0.565   3.513   1.278  0.0222 -1.2310 -0.4491
 2823SOL    HW311059   0.627   3.469   1.409  0.6333  0.1106 -0.2654
 2823SOL    MW411060   0.558   3.493   1.363 -0.0146  0.1475  0.5870
 2824SOL     OW11061   5.670   6.307   0.181 -0.1761 -0.2837  0.6553
 2824SOL    HW211062   5.587   6.355   0.177  0.6069  1.0576 -0.4503
 2824SOL    HW311063   5.685   6.278   0.091  0.7430 -0.1605  0.7597
 2824SOL    MW411064   5.661   6.310   0.169 -0.0828 -0.0542  0.4779
 2825SOL     OW11065   3.804   3.327   5.706 -0.8013 -0.1761  0.1947
 2825SOL    HW211066   3.719   3.363   5.731  0.2527  2.9928 -0.3948
 2825SOL    HW311067   3.835   3.282   5.785 -2.7845 -1.0183  0.5416
 2825SOL    MW411068   3.797   3.326   5.720  0.4504  0.0590  0.3107
 2826SOL     OW11069   2.465   4.596   6.216  0.4670 -0.6338  0.1775
 2826SOL    HW211070   2.446   4.581   6.123  0.9090 -0.0919 -0.0071
 2826SOL    HW311071   2.456   4.691   6.227 -1.6434 -0.8787  1.1707
 2826SOL    MW411072   2.461   4.607   6.205 -0.3454 -0.0893  0.3441
 2827SOL     OW11073   1.106   0.192   3.140  0.0814 -0.4273 -0.5419
 2827SOL    HW211074   1.065   0.195   3.053 -0.3852  0.1996 -0.3067
 2827SOL    HW311075   1.188   0.145   3.125 -1.1732 -2.6654 -0.8091
 2827SOL    MW411076   1.112   0.186   3.126  0.5440 -0.2731  0.1043
 2828SOL     OW11077   2.268   6.280   4.011 -0.1045 -0.2900  0.1767
 2828SOL    HW211078   2.236   6.370   4.015  2.0812  0.5362  0.5912
 2828SOL    HW311079   2.233   6.239   4.091 -1.0064  0.2087  0.0508
 2828SOL    MW411080   2.259   6.286   4.022 -0.2795  0.0769 -0.2617
 2829SOL     OW11081   0.292   3.756   3.325 -0.0537 -0.2144 -0.1874
 2829SOL    HW211082   0.213   3.739   3.376 -0.8077  0.3100 -1.1570
 2829SOL    HW311083   0.304   3.851   3.329 -0.0998 -0.1724 -0.9506
 2829SOL    MW411084   0.283   3.766   3.332  0.4328  0.1516  0.2407
 2830SOL     OW11085   0.392   0.283   5.488 -0.0864 -0.6358 -0.3239
 2830SOL    HW211086   0.377   0.331   5.570  0.5375  0.1447 -0.6559
 2830SOL    HW311087   0.374   0.347   5.419 -0.6147 -1.2896 -0.8091
 2830SOL    MW411088   0.388   0.298   5.490  0.3226 -0.2264 -0.3288
 2831SOL     OW11089   5.796   3.274   0.545 -0.3996  0.5588 -0.2844
 2831SOL    HW211090   5.760   3.207   0.486 -1.4232 -0.2249  1.1680
 2831SOL    HW311091   5.728   3.340   0.552 -0.9866 -0.1494  1.2353
 2831SOL    MW411092   5.783   3.274   0.538  0.1954  0.1078  0.4462
 2832SOL     OW11093   3.053   1.851   4.065  0.4031  0.1954 -0.3328
 2832SOL    HW211094   3.068   1.760   4.088 -0.9681  0.1585  0.5219
 2832SOL    HW311095   2.958   1.859   4.058  0.5000  1.5387 -0.4708
 2832SOL    MW411096   3.043   1.840   4.067 -0.3642  0.2364  0.1622
 2833SOL     OW11097   5.948   0.850   2.563  0.2127  0.0956 -0.2032
 2833SOL    HW211098   5.985   0.823   2.647  2.2034 -2.2555 -1.7037
 2833SOL    HW311099   6.024   0.872   2.508 -1.0564  2.2191 -1.2743
 2833SOL    MW411100   5.963   0.850   2.566 -0.1089  0.5075 -0.6429
 2834SOL     OW11101   1.141   2.517   0.616  0.7520  0.6061  0.2980
 2834SOL    HW211102   1.175   2.428   0.626  0.6699  0.4946 -0.3897
 2834SOL    HW311103   1.219   2.571   0.602  0.6685  0.3305 -1.4226
 2834SOL    MW411104   1.156   2.512   0.616  0.1948 -0.7580 -0.0650
 2835SOL     OW11105   2.544   2.940   4.681 -0.0933  0.6858 -0.1257
 2835SOL    HW211106   2.576   3.014   4.733  0.3596 -0.9903  2.0889
 2835SOL    HW311107   2.486   2.981   4.616 -1.2942  2.8421  2.1395
 2835SOL    MW411108   2.541   2.955   4.679  0.4118  0.1670  0.4430
 2836SOL     OW11109   1.834   3.779   6.356  0.0453  0.0150  0.0616
 2836SOL    HW211110   1.865   3.807   6.442 -0.7352  1.1335  0.0124
 2836SOL    HW311111   1.739   3.771   6.366  0.1185 -1.4851 -0.2717
 2836SOL    MW411112   1.825   3.782   6.369  0.0104  0.1782  0.1275
 2837SOL     OW11113   5.860   2.409   1.773  0.6979 -0.5015 -0.0628
 2837SOL    HW211114   5.918   2.333   1.771  0.2343 -0.8590  0.0051
 2837SOL    HW311115   5.839   2.422   1.866 -1.1632 -1.7917 -0.2577
 2837SOL    MW411116   5.865   2.401   1.785  0.1469 -0.1929 -0.3050
 2838SOL     OW11117   2.511   1.020   0.356 -0.3323 -0.4430  0.2900
 2838SOL    HW211118   2.537   1.042   0.445 -0.8991  0.7659  0.1794
 2838SOL    HW311119   2.432   0.968   0.366  0.4890 -1.6853  0.5280
 2838SOL    MW411120   2.504   1.016   0.369  0.2470 -0.3840 -0.1212
 2839SOL     OW11121   0.156   1.399   3.598  0.3853  0.3528 -0.1565
 2839SOL    HW211122   0.120   1.425   3.514  1.7481 -0.4614 -1.0337
 2839SOL    HW311123   0.219   1.330   3.577 -1.8158 -2.4950  1.8438
 2839SOL    MW411124   0.160   1.393   3.584  0.3830  0.2663  0.3755
 2840SOL     OW11125   1.024   3.879   4.880 -0.0136 -0.4686  0.1566
 2840SOL    HW211126   1.017   3.974   4.869  0.7797 -0.2726  1.1687
 2840SOL    HW311127   1.019   3.844   4.792  0.1719  0.5555 -0.2742
 2840SOL    MW411128   1.022   3.887   4.867  0.2338 -0.3556 -0.2114
 2841SOL     OW11129   6.458   4.082   5.957  0.1313  0.1150  0.1050
 2841SOL    HW211130   6.443   4.104   6.049 -0.5135 -0.3833  0.1269
 2841SOL    HW311131   6.405   4.004   5.942 -0.1746  0.4792 -0.8132
 2841SOL    MW411132   6.449   4.075   5.967 -0.0075 -0.5210 -1.0763
 2842SOL     OW11133   2.317   6.220   4.528 -0.6660  0.0487 -0.3246
 2842SOL    HW211134   2.289   6.309   4.549 -1.1959 -0.0888 -0.4320
 2842SOL    HW311135   2.384   6.231   4.461 -0.6543  0.3710 -0.2639
 2842SOL    MW411136   2.322   6.233   4.522 -0.0114 -0.0271 -0.2117
 2843SOL     OW11137   5.303   2.920   5.771 -0.5138 -0.7177  0.4899
 2843SOL    HW211138   5.230   2.952   5.718 -0.0419  0.9156  0.7416
 2843SOL    HW311139   5.362   2.880   5.707 -1.6996 -2.2508  0.3165
 2843SOL    MW411140   5.301   2.919   5.756 -0.5648  0.0685  0.5389
 2844SOL     OW11141   1.577   1.734   1.328 -0.1865 -0.2465  0.2855
 2844SOL    HW211142   1.591   1.698   1.416  0.4040 -0.1733  0.2273
 2844SOL    HW311143   1.657   1.785   1.310 -0.4095 -0.0599 -0.1932
 2844SOL    MW411144   1.590   1.736   1.337 -0.2228 -0.2700 -0.1441
 2845SOL     OW11145   0.197   1.353   3.884 -0.2823  0.4948  0.1706
 2845SOL    HW211146   0.121   1.392   3.928 -0.6162  2.5325 -1.9837
 2845SOL    HW311147   0.191   1.385   3.794  1.7338 -1.4182 -0.7351
 2845SOL    MW411148   0.186   1.363   3.878 -0.3543  0.5666  0.4508
 2846SOL     OW11149   0.567   0.734   0.053  0.2920 -0.4358  0.1805
 2846SOL    HW211150   0.502   0.803   0.060  0.6341  0.0042 -0.7986
 2846SOL    HW311151   0.568   0.711  -0.040  1.2628 -0.6968  0.2445
 2846SOL    MW411152   0.559   0.740   0.042 -0.4544 -0.4162 -0.6385
 2847SOL     OW11153   6.385   0.798   3.600 -0.1843  0.3270  0.6843
 2847SOL    HW211154   6.422   0.742   3.668  2.8977  0.0482 -1.0341
 2847SOL    HW311155   6.443   0.874   3.598  0.8561 -0.3824 -2.5818
 2847SOL    MW411156   6.398   0.801   3.608  0.4501 -0.4425 -0.0095
 2848SOL     OW11157   6.063   2.933   1.746 -0.1704 -0.7302 -0.2441
 2848SOL    HW211158   6.093   2.873   1.814  2.8349  1.3965  0.5313
 2848SOL    HW311159   6.003   2.992   1.791  1.8136  0.6759  0.7544
 2848SOL    MW411160   6.059   2.933   1.761 -0.3595 -0.0532  0.1627
 2849SOL     OW11161   0.103   1.074   3.521  0.6007  0.2129 -0.2873
 2849SOL    HW211162   0.049   1.120   3.585  0.9394  1.6554 -1.0114
 2849SOL    HW311163   0.168   1.027   3.574 -0.6210 -0.6076  0.5323
 2849SOL    MW411164   0.104   1.074   3.536  0.5458  0.3137 -0.3408
 2850SOL     OW11165   3.240   3.629   3.709  0.4727 -0.2414 -0.4978
 2850SOL    HW211166   3.333   3.613   3.695  0.5404  0.3590 -0.7609
 2850SOL    HW311167   3.221   3.708   3.658  0.3710  1.0956  1.5057
 2850SOL    MW411168   3.250   3.638   3.700 -0.0592 -0.0374 -0.0807
 2851SOL     OW11169   0.439   5.771   6.290  0.1558 -0.6088  0.3192
 2851SOL    HW211170   0.525   5.731   6.296  0.5659  0.0023 -0.9572
 2851SOL    HW311171   0.419   5.771   6.196 -1.1732 -0.6093  0.5726
 2851SOL    MW411172   0.448   5.766   6.278  0.0091  0.0297 -0.2366
 2852SOL     OW11173   5.460   4.129   1.526 -0.0385 -0.0311 -0.0262
 2852SOL    HW211174   5.503   4.211   1.546 -2.1649  1.0506  0.4481
 2852SOL    HW311175   5.395   4.152   1.459 -0.5760 -1.3285  0.0142
 2852SOL    MW411176   5.457   4.143   1.520 -0.3486 -0.3123  0.0688
 2853SOL     OW11177   1.311   3.509   0.365 -0.1477  0.2549 -0.1167
 2853SOL    HW211178   1.226   3.533   0.328  0.1843  0.3705 -0.8283
 2853SOL    HW311179   1.373   3.568   0.323  0.4885 -0.8460 -0.7814
 2853SOL    MW411180   1.308   3.520   0.355  0.0996 -0.3741  0.5662
 2854SOL     OW11181   4.690   0.921   4.595 -0.0912 -0.1760  0.1137
 2854SOL    HW211182   4.664   0.863   4.523  0.1368  2.1290 -1.9702
 2854SOL    HW311183   4.607   0.954   4.629 -0.1902 -1.0148  0.7109
 2854SOL    MW411184   4.676   0.918   4.590 -0.2099  0.2718 -0.0204
 2855SOL     OW11185   5.995   6.332   2.589 -0.7215 -0.0785  0.0674
 2855SOL    HW211186   6.059   6.369   2.650 -0.5866 -0.2710  0.0425
 2855SOL    HW311187   6.046   6.308   2.511 -0.9852  0.7107 -0.3595
 2855SOL    MW411188   6.010   6.334   2.587 -0.3286  0.6795  0.5922
 2856SOL     OW11189   5.531   1.915   3.940 -0.5983  0.2828  0.0894
 2856SOL    HW211190   5.489   1.919   4.026 -0.5788  1.5469  0.0563
 2856SOL    HW311191   5.564   1.825   3.934  0.5201  0.5039  1.9567
 2856SOL    MW411192   5.530   1.904   3.951 -0.0787 -0.1837 -0.4901
 2857SOL     OW11193   4.897   2.044   2.977  0.1844 -0.0011  0.2069
 2857SOL    HW211194   4.924   1.963   2.934 -2.5855 -0.7485 -0.3036
 2857SOL    HW311195   4.853   2.015   3.058 -1.5448  0.8756 -0.3699
 2857SOL    MW411196   4.895   2.029   2.982 -0.4235 -0.3818 -0.5934
 2858SOL     OW11197   4.724   2.154   2.629  0.3292  0.0955  0.0671
 2858SOL    HW211198   4.723   2.199   2.714  0.4751  0.2502 -0.0126
 2858SOL    HW311199   4.802   2.187   2.586  0.6996 -0.6003  0.1993
 2858SOL    MW411200   4.734   2.165   2.635  0.5115 -0.0643  0.5425
 2859SOL     OW11201   0.974   3.504   6.127 -0.5019  0.1192  0.5367
 2859SOL    HW211202   0.964   3.599   6.117 -1.9139  0.0661  1.1903
 2859SOL    HW311203   1.062   3.485   6.093 -0.7409  1.4445 -0.9305
 2859SOL    MW411204   0.984   3.514   6.121  0.0248 -0.2637 -0.1379
 2860SOL     OW11205   4.346   3.828   4.696 -0.8099  0.4017 -0.0773
 2860SOL    HW211206   4.371   3.904   4.748 -1.9972  0.4044  0.5098
 2860SOL    HW311207   4.322   3.761   4.761 -0.1045 -0.3810 -0.5897
 2860SOL    MW411208   4.346   3.829   4.711 -0.2197  0.5549 -0.4686
 2861SOL     OW11209   3.534   3.668   5.045  0.8246 -0.0469 -0.5660
 2861SOL    HW211210   3.486   3.711   4.974  0.6993 -1.6191 -1.4993
 2861SOL    HW311211   3.621   3.653   5.009  0.8594 -0.5569 -0.2785
 2861SOL    MW411212   3.539   3.672   5.031  0.5771  0.2460 -0.2978
 2862SOL     OW11213   5.569   3.514   4.665  0.3868 -0.3423  0.2536
 2862SOL    HW211214   5.577   3.524   4.570 -1.1458 -1.3873 -0.0149
 2862SOL    HW311215   5.659   3.501   4.695  1.4336  3.8080 -0.4955
 2862SOL    MW411216   5.582   3.513   4.656 -0.5505  0.4744  0.6698
 2863SOL     OW11217   2.070   5.504   3.431 -0.2923 -0.5295 -0.2385
 2863SOL    HW211218   2.095   5.580   3.483 -2.5311 -0.2722  0.5650
 2863SOL    HW311219   2.051   5.436   3.495 -3.3198 -0.1408 -0.5832
 2863SOL    MW411220   2.071   5.505   3.446  0.1151 -0.1044 -0.1364
 2864SOL     OW11221   6.384   0.907   5.836 -0.2558  0.4283  0.5501
 2864SOL    HW211222   6.316   0.906   5.903 -1.4979  0.3314 -0.6715
 2864SOL    HW311223   6.336   0.902   5.753  1.2111  1.0134 -0.3689
 2864SOL    MW411224   6.369   0.906   5.834 -0.6357  0.0519  0.4403
 2865SOL     OW11225   3.242   0.094   1.775  0.0151 -0.3860 -0.0830
 2865SOL    HW211226   3.315   0.156   1.772  1.2021 -1.4928  2.5762
 2865SOL    HW311227   3.234   0.062   1.685  0.4341  2.3408 -1.1696
 2865SOL    MW411228   3.251   0.098   1.763  0.1918 -0.0453 -0.1576
 2866SOL     OW11229   3.364   6.294   3.495 -0.1929  0.2282  0.1927
 2866SOL    HW211230   3.436   6.245   3.535  0.6016  1.2185  0.0181
 2866SOL    HW311231   3.327   6.233   3.431  0.2983 -0.4039  0.4943
 2866SOL    MW411232   3.369   6.280   3.492 -0.0111  0.1510  0.0818
 2867SOL     OW11233   6.091   0.438   3.861  0.0762  0.3081  0.6428
 2867SOL    HW211234   6.114   0.478   3.945  5.0976  2.5448 -1.3907
 2867SOL    HW311235   6.139   0.355   3.859 -0.2567  0.1185  0.1193
 2867SOL    MW411236   6.100   0.432   3.872  0.5528 -0.4206 -0.1976
 2868SOL     OW11237   2.825   6.419   4.875 -0.2455 -0.3117  0.3468
 2868SOL    HW211238   2.744   6.463   4.897 -0.6028 -1.2062  0.8649
 2868SOL    HW311239   2.890   6.457   4.934 -0.3418  0.1869  0.1390
 2868SOL    MW411240   2.823   6.430   4.886 -0.3308 -0.3498  0.1671
 2869SOL     OW11241   4.597   1.238   2.976 -0.1082 -0.1294  0.2681
 2869SOL    HW211242   4.557   1.153   2.958  0.3709 -0.6295  1.4554
 2869SOL    HW311243   4.691   1.223   2.973 -0.0120  0.1689  1.2034
 2869SOL    MW411244   4.604   1.225   2.973  0.0953  0.3022  0.3204
 2870SOL     OW11245   2.674   3.749   3.813  0.0760 -0.2857  0.3320
 2870SOL    HW211246   2.630   3.740   3.897  0.4114 -1.7804  0.3706
 2870SOL    HW311247   2.616   3.705   3.750  0.8776 -1.1164  0.1643
 2870SOL    MW411248   2.661   3.742   3.816  0.0632 -0.4149 -0.2195
 2871SOL     OW11249   0.190   1.085   3.930  0.4731 -0.8062  0.3611
 2871SOL    HW211250   0.235   1.077   4.015  0.9562 -2.3116 -0.0043
 2871SOL    HW311251   0.175   1.179   3.920  1.4481 -0.4851  1.5802
 2871SOL    MW411252   0.194   1.096   3.940  0.2570  0.2363  0.3454
 2872SOL     OW11253   1.838   2.587   2.012 -0.3027 -0.1655 -0.0844
 2872SOL    HW211254   1.877   2.624   2.091  0.2014  0.4253 -0.6045
 2872SOL    HW311255   1.770   2.649   1.988 -1.0810 -0.8100  0.3904
 2872SOL    MW411256   1.834   2.600   2.020 -0.3372  0.0667 -0.7654
 2873SOL     OW11257   1.582   5.232   1.471 -0.4661 -0.3337 -0.2975
 2873SOL    HW211258   1.545   5.166   1.412 -0.1895  0.7545 -1.7438
 2873SOL    HW311259   1.506   5.283   1.500 -0.6193 -0.9558  0.4192
 2873SOL    MW411260   1.567   5.230   1.467  0.0044  0.0929 -0.3911
 2874SOL     OW11261   4.574   1.354   1.569  0.0584 -0.0352 -0.1039
 2874SOL    HW211262   4.643   1.288   1.570  0.1801  0.0947  0.4929
 2874SOL    HW311263   4.610   1.425   1.514  0.7048  0.3460  0.7953
 2874SOL    MW411264   4.588   1.355   1.562  0.2317  0.7332  0.4627
 2875SOL     OW11265   3.595   6.344   0.816  0.4968  0.1500 -0.0258
 2875SOL    HW211266   3.565   6.254   0.801  1.8399 -0.1305 -1.3000
 2875SOL    HW311267   3.647   6.340   0.895  1.7048 -0.5160 -0.8281
 2875SOL    MW411268   3.598   6.332   0.824 -0.4702  0.2531  0.0723
 2876SOL     OW11269   1.868   0.455   0.724 -0.1777 -0.2241 -0.3905
 2876SOL    HW211270   1.897   0.375   0.767 -0.5747  0.1663  0.6443
 2876SOL    HW311271   1.856   0.518   0.796  0.3479  0.8338 -1.1893
 2876SOL    MW411272   1.871   0.453   0.739 -0.2214 -0.0388 -0.1656
 2877SOL     OW11273   3.339   5.459   1.135  0.3274 -0.4150  0.3058
 2877SOL    HW211274   3.333   5.365   1.148  0.0824 -0.4935 -0.3737
 2877SOL    HW311275   3.264   5.495   1.184  0.5459 -0.5542  0.7417
 2877SOL    MW411276   3.328   5.451   1.143 -0.0114 -0.3023  0.6949
 2878SOL     OW11277   5.380   3.666   0.899  0.8707  0.2868  0.0155
 2878SOL    HW211278   5.371   3.730   0.829  2.1020 -1.0656 -1.4638
 2878SOL    HW311279   5.332   3.703   0.973  0.4796  2.2821 -1.1875
 2878SOL    MW411280   5.372   3.679   0.900  0.5223  0.6606  0.0160
 2879SOL     OW11281   5.135   1.246   2.872 -0.4096  0.4252 -0.9096
 2879SOL    HW211282   5.113   1.320   2.928  2.2756  1.3645 -0.9541
 2879SOL    HW311283   5.094   1.266   2.788 -2.9863 -0.1335  0.1317
 2879SOL    MW411284   5.127   1.258   2.868  0.2121  0.0512  0.5514
 2880SOL     OW11285   3.864   0.171   5.413 -0.5923 -0.1364  0.0704
 2880SOL    HW211286   3.910   0.211   5.340 -1.5840  0.8343 -0.0344
 2880SOL    HW311287   3.835   0.086   5.379  0.9351 -0.7190  0.0938
 2880SOL    MW411288   3.866   0.165   5.399 -0.3697 -0.1546 -0.0271
 2881SOL     OW11289   4.495   5.363   4.137  0.2099  0.3775  0.2579
 2881SOL    HW211290   4.433   5.419   4.091  0.6171 -0.8581 -1.9825
 2881SOL    HW311291   4.540   5.421   4.198 -2.6470  1.4393  1.5047
 2881SOL    MW411292   4.493   5.378   4.139  0.1169  0.6311 -0.2581
 2882SOL     OW11293   1.041   2.762   3.451 -0.2863 -0.3780 -0.3123
 2882SOL    HW211294   1.107   2.693   3.457 -0.4850 -0.6352 -1.0172
 2882SOL    HW311295   0.987   2.738   3.376 -1.6239 -0.5404  0.6723
 2882SOL    MW411296   1.042   2.750   3.442 -0.1697  0.0359  0.2395
 2883SOL     OW11297   2.327   3.786   2.594 -0.0611  0.3394  0.2216
 2883SOL    HW211298   2.300   3.720   2.658  1.2454 -1.0192 -0.5427
 2883SOL    HW311299   2.415   3.758   2.567  1.2654  3.3367  1.0485
 2883SOL    MW411300   2.335   3.774   2.599  0.4911  0.0164  0.6235
 2884SOL     OW11301   5.769   2.066   1.764 -0.0855 -0.1864 -0.3591
 2884SOL    HW211302   5.784   2.001   1.832  0.9270  1.6001  1.2199
 2884SOL    HW311303   5.855   2.105   1.749 -0.9483  1.9737  0.0388
 2884SOL    MW411304   5.782   2.062   1.771  0.0089  0.5495 -0.2705
 2885SOL     OW11305   4.301   0.931   3.625  0.8764  0.2809 -0.0421
 2885SOL    HW211306   4.220   0.975   3.601  1.1078 -0.5920 -2.7018
 2885SOL    HW311307   4.309   0.859   3.563  2.3249 -1.3652  1.8927
 2885SOL    MW411308   4.292   0.927   3.614 -0.3532 -0.0871  0.4767
 2886SOL     OW11309   1.369   4.208   2.663  0.0256 -0.3926 -0.4594
 2886SOL    HW211310   1.347   4.115   2.659 -0.6267 -0.2016 -2.1091
 2886SOL    HW311311   1.326   4.240   2.743 -1.1389 -1.1663 -0.7576
 2886SOL    MW411312   1.360   4.200   2.673  0.1611  0.3246  0.4202
 2887SOL     OW11313   5.376   2.025   5.907 -0.0599  0.2236 -0.2518
 2887SOL    HW211314   5.430   1.949   5.882  0.8107  0.1872  1.5896
 2887SOL    HW311315   5.434   2.100   5.894  1.0216  0.0787  3.0087
 2887SOL    MW411316   5.391   2.025   5.902 -0.0316  0.6439 -0.1366
 2888SOL     OW11317   5.627   2.235   2.764 -0.1355 -0.2784 -0.8930
 2888SOL    HW211318   5.640   2.323   2.727 -0.4270 -1.0737 -3.0229
 2888SOL    HW311319   5.537   2.235   2.796  0.3836  0.6903  0.7173
 2888SOL    MW411320   5.617   2.247   2.764 -0.2357  0.2733 -0.0559
 2889SOL     OW11321   0.176   0.737   5.393 -0.0469 -0.4237  0.4205
 2889SOL    HW211322   0.198   0.829   5.409  1.8848 -0.7432 -0.1325
 2889SOL    HW311323   0.175   0.697   5.480 -1.3042  0.1769  0.7016
 2889SOL    MW411324   0.179   0.744   5.407  0.6423 -0.0775 -0.0577
 2890SOL     OW11325   1.265   5.131   2.126  0.2217  0.5729 -0.4318
 2890SOL    HW211326   1.192   5.188   2.104  0.2282  1.2213  1.0784
 2890SOL    HW311327   1.263   5.126   2.222  0.5848 -1.4943 -0.4780
 2890SOL    MW411328   1.255   5.138   2.136 -0.2505 -0.0800  0.2585
 2891SOL     OW11329   1.796   6.136   3.959  0.1542  0.1239 -0.0087
 2891SOL    HW211330   1.888   6.131   3.935  0.1268 -0.4043 -0.0187
 2891SOL    HW311331   1.753   6.072   3.902  0.0164 -0.7893  1.0659
 2891SOL    MW411332   1.802   6.127   3.949 -0.0812 -0.0557  0.0888
 2892SOL     OW11333   0.641   3.586   1.102  0.1608 -0.6179 -0.5518
 2892SOL    HW211334   0.664   3.554   1.015  1.3518 -0.8187 -0.1771
 2892SOL    HW311335   0.656   3.681   1.098 -0.7604 -0.4683 -0.8472
 2892SOL    MW411336   0.646   3.594   1.090  0.0307  0.2540  0.2708
 2893SOL     OW11337   4.420   0.719   5.427  0.3049  0.2627  0.0640
 2893SOL    HW211338   4.500   0.757   5.462  0.4404  0.5236 -0.5281
 2893SOL    HW311339   4.444   0.686   5.341 -0.2157  0.3214 -0.1090
 2893SOL    MW411340   4.434   0.719   5.421 -0.4394 -0.2015 -0.0144
 2894SOL     OW11341   6.111   3.734   6.139  0.6208  0.1251  0.1239
 2894SOL    HW211342   6.129   3.827   6.152  0.9836  0.1271 -0.3642
 2894SOL    HW311343   6.043   3.731   6.072 -0.9680  0.1006  1.6392
 2894SOL    MW411344   6.105   3.746   6.132  0.3895 -0.4560 -0.3964
 2895SOL     OW11345   3.568   5.243   4.168  0.6043  0.6435 -0.2987
 2895SOL    HW211346   3.583   5.178   4.100 -4.4783  0.9910 -2.1138
 2895SOL    HW311347   3.498   5.207   4.222  0.8055  2.6912  1.4811
 2895SOL    MW411348   3.561   5.230   4.167  0.0005 -0.5008 -0.1863
 2896SOL     OW11349   2.922   6.012   4.671 -0.0774  0.2467 -0.1580
 2896SOL    HW211350   2.987   6.066   4.627 -0.8089 -0.1304 -1.8131
 2896SOL    HW311351   2.921   5.930   4.620  0.3355 -0.9763  1.7007
 2896SOL    MW411352   2.930   6.008   4.658 -0.0964  0.5446  0.2224
 2897SOL     OW11353   3.768   3.866   4.833  0.2489 -0.4139  0.5944
 2897SOL    HW211354   3.699   3.898   4.892  0.0442 -1.0718  0.7235
 2897SOL    HW311355   3.743   3.900   4.747  0.5235  0.5125  0.8665
 2897SOL    MW411356   3.755   3.875   4.829 -0.1840 -0.2796 -0.4516
 2898SOL     OW11357   6.415   5.410   5.083 -0.3763 -0.7434 -0.4685
 2898SOL    HW211358   6.455   5.492   5.057  0.5748 -0.7365  0.8926
 2898SOL    HW311359   6.459   5.343   5.029  0.1174 -0.5340 -0.3327
 2898SOL    MW411360   6.426   5.412   5.072  0.2225 -0.4600  0.3690
 2899SOL     OW11361   2.491   3.651   0.993 -0.1508  0.2707  0.0168
 2899SOL    HW211362   2.501   3.704   0.914 -0.2274  0.0147 -0.1666
 2899SOL    HW311363   2.397   3.650   1.009  0.0250  2.8144  1.8317
 2899SOL    MW411364   2.480   3.658   0.985  0.4219 -0.1117 -0.1620
 2900SOL     OW11365   4.496   5.979   0.783 -0.0784  0.2308  0.0244
 2900SOL    HW211366   4.400   5.985   0.785 -0.1255  0.0483 -0.9135
 2900SOL    HW311367   4.519   6.001   0.693  0.8128  0.8841  0.3996
 2900SOL    MW411368   4.486   5.983   0.771 -0.0662 -0.5597  0.0670
 2901SOL     OW11369   1.413   3.311   1.902  0.3337  0.1875 -0.2088
 2901SOL    HW211370   1.450   3.227   1.876  0.8934  0.7915 -1.4629
 2901SOL    HW311371   1.325   3.312   1.864 -0.2371 -0.4062  1.0406
 2901SOL    MW411372   1.406   3.300   1.894  0.5532 -0.0876 -0.4088
 2902SOL     OW11373   0.353   0.475   5.695 -0.2353 -0.3075  0.2591
 2902SOL    HW211374   0.359   0.434   5.782 -0.9909  0.2119  0.5679
 2902SOL    HW311375   0.262   0.504   5.689 -0.6360 -1.7491 -1.3671
 2902SOL    MW411376   0.342   0.473   5.706 -0.6502 -0.0774 -0.6285
 2903SOL     OW11377   2.412   0.477   4.059 -0.4826  0.4266  0.0928
 2903SOL    HW211378   2.443   0.480   4.150 -1.1284  2.4814  0.3101
 2903SOL    HW311379   2.486   0.509   4.008  0.2588 -1.7542 -0.2717
 2903SOL    MW411380   2.426   0.482   4.064  0.0962 -0.3864  0.0364
 2904SOL     OW11381   6.143   1.527   2.619  0.3142  0.3051  0.2103
 2904SOL    HW211382   6.089   1.496   2.692  2.4138  1.0917  2.2362
 2904SOL    HW311383   6.118   1.619   2.607 -0.7070 -0.0807 -0.7651
 2904SOL    MW411384   6.133   1.535   2.627 -0.2783  0.2668 -0.1266
 2905SOL     OW11385   4.155   1.817   5.310 -0.4477 -1.3610 -0.6312
 2905SOL    HW211386   4.180   1.888   5.251  0.9541  0.0834  1.5687
 2905SOL    HW311387   4.075   1.848   5.352  1.2098  0.0063  1.8072
 2905SOL    MW411388   4.148   1.831   5.308 -0.4324 -0.5122  0.2049
 2906SOL     OW11389   4.379   5.884   6.158  0.6474 -1.0955 -0.0795
 2906SOL    HW211390   4.320   5.809   6.154 -0.4028 -0.3409  0.4450
 2906SOL    HW311391   4.397   5.897   6.251  1.1705 -0.9594 -0.1948
 2906SOL    MW411392   4.373   5.876   6.170 -0.0450 -0.1308 -0.0282
 2907SOL     OW11393   5.184   1.394   2.253 -0.3160  0.5282 -0.5132
 2907SOL    HW211394   5.122   1.456   2.213  0.5529  1.0440 -1.0928
 2907SOL    HW311395   5.132   1.316   2.270 -1.2513  1.1334 -0.5154
 2907SOL    MW411396   5.169   1.392   2.250  0.0093  0.3340 -0.0169
 2908SOL     OW11397   2.019   0.457   2.345 -0.5630 -0.1715 -0.7034
 2908SOL    HW211398   2.025   0.550   2.367 -1.0347  0.0966 -1.6303
 2908SOL    HW311399   2.013   0.412   2.429  0.5610  0.5605 -0.2145
 2908SOL    MW411400   2.019   0.463   2.359 -0.1033 -0.5459 -0.1241
 2909SOL     OW11401   4.183   5.215   4.496 -0.6780  0.0895 -0.5441
 2909SOL    HW211402   4.246   5.202   4.425  1.4841  0.2324  1.2373
 2909SOL    HW311403   4.200   5.143   4.557 -1.9885  0.3763  0.2008
 2909SOL    MW411404   4.193   5.204   4.495 -0.4532 -0.3582 -0.1469
 2910SOL     OW11405   3.917   4.887   5.849  0.1261  0.4152 -0.4975
 2910SOL    HW211406   3.985   4.953   5.836 -0.9117  1.4683 -0.7975
 2910SOL    HW311407   3.850   4.910   5.784 -0.7355 -0.2772  0.1268
 2910SOL    MW411408   3.917   4.899   5.838 -0.2198  0.1722 -0.0267
 2911SOL     OW11409   2.045   2.380   2.182 -0.2417 -0.5934  0.5338
 2911SOL    HW211410   2.011   2.364   2.093 -1.5177  3.2840  0.1075
 2911SOL    HW311411   2.111   2.313   2.195 -2.0338 -3.1393 -2.1602
 2911SOL    MW411412   2.049   2.369   2.172 -0.4854  0.0448 -0.0592
 2912SOL     OW11413   6.200   5.576   3.748 -0.3273 -0.3817  0.0448
 2912SOL    HW211414   6.131   5.511   3.758  0.0201 -0.5916  1.2143
 2912SOL    HW311415   6.219   5.577   3.654 -1.7687 -0.4643 -0.2606
 2912SOL    MW411416   6.194   5.568   3.737  0.4899  0.3780  0.1639
 2913SOL     OW11417   2.326   3.846   4.275 -0.2991  0.1556  0.8875
 2913SOL    HW211418   2.233   3.831   4.291 -0.6130 -1.1225 -1.6043
 2913SOL    HW311419   2.369   3.815   4.354 -1.8501 -2.0859  0.9574
 2913SOL    MW411420   2.319   3.840   4.288  0.2687 -0.3220 -0.6014
 2914SOL     OW11421   3.632   4.040   0.188 -0.0384 -0.2332  0.3488
 2914SOL    HW211422   3.721   4.020   0.217  0.3592 -1.1134 -1.3899
 2914SOL    HW311423   3.582   4.048   0.270  1.7210  0.8977  1.3917
 2914SOL    MW411424   3.637   4.039   0.203 -0.0302 -0.2978  1.3019
 2915SOL     OW11425   1.426   5.813   2.969  0.2699 -0.0364  0.0165
 2915SOL    HW211426   1.487   5.804   2.896 -0.2424  2.6333 -0.8327
 2915SOL    HW311427   1.394   5.903   2.963 -2.5390 -0.8362  1.4043
 2915SOL    MW411428   1.430   5.823   2.959 -0.1216  0.0627 -0.2171
 2916SOL     OW11429   0.629   3.194   5.416  0.2508 -0.0110  0.1251
 2916SOL    HW211430   0.592   3.258   5.477 -0.0124  0.3514 -0.4075
 2916SOL    HW311431   0.696   3.242   5.368  1.4098 -0.6490  1.0381
 2916SOL    MW411432   0.633   3.209   5.418  0.4908  0.0160 -0.1223
 2917SOL     OW11433   1.435   6.236   2.050  0.6257  0.7569  0.1816
 2917SOL    HW211434   1.464   6.303   2.112  0.1682  1.4203 -0.3021
 2917SOL    HW311435   1.344   6.259   2.030  0.6726  0.3834 -0.5033
 2917SOL    MW411436   1.427   6.248   2.056  0.3176 -0.6915 -0.4185
 2918SOL     OW11437   2.292   0.731   0.121  0.2440  0.1981  0.1839
 2918SOL    HW211438   2.300   0.797   0.190  3.2678 -0.8261  0.9913
 2918SOL    HW311439   2.292   0.781   0.039  0.8015  1.2731  0.8231
 2918SOL    MW411440   2.293   0.746   0.119 -0.3456  0.2271 -0.0979
 2919SOL     OW11441   2.083   0.748   2.435 -0.0343 -0.2898  0.2861
 2919SOL    HW211442   2.016   0.817   2.429  0.8961  0.5754 -0.6491
 2919SOL    HW311443   2.120   0.758   2.522 -0.8426 -0.5128  0.6637
 2919SOL    MW411444   2.079   0.759   2.446 -0.0160  0.2736 -0.0627
 2920SOL     OW11445   5.306   4.518   5.373  0.2281  0.0308  0.3062
 2920SOL    HW211446   5.300   4.496   5.466  0.1073  0.6955  0.4588
 2920SOL    HW311447   5.220   4.553   5.351  0.1590 -0.3947 -0.1349
 2920SOL    MW411448   5.294   4.520   5.383  0.5245 -0.1424  0.0980
 2921SOL     OW11449   5.409   4.496   4.630 -0.1697  0.2260  0.3067
 2921SOL    HW211450   5.409   4.400   4.641 -2.0932  0.0187 -1.0135
 2921SOL    HW311451   5.444   4.510   4.543  0.1454  0.7411  0.5164
 2921SOL    MW411452   5.413   4.485   4.620 -0.3070 -0.1278 -0.0450
 2922SOL     OW11453   2.439   1.745   1.856  0.0615 -0.3430  0.7116
 2922SOL    HW211454   2.486   1.723   1.776 -0.1633  1.5653  0.0130
 2922SOL    HW311455   2.501   1.723   1.926  0.0203 -2.6341  0.1185
 2922SOL    MW411456   2.453   1.739   1.855 -0.1781  0.1696 -0.2155
 2923SOL     OW11457   0.986   0.232   5.436 -0.2341 -0.2642  0.0140
 2923SOL    HW211458   1.038   0.176   5.494  0.0477 -0.1938 -0.1666
 2923SOL    HW311459   0.895   0.210   5.455 -0.1776  0.3423  1.0759
 2923SOL    MW411460   0.981   0.222   5.446 -0.1462 -0.1584  0.1298
 2924SOL     OW11461   1.945   1.342   3.755  0.0582  0.6250  0.0090
 2924SOL    HW211462   1.999   1.383   3.687 -0.5162 -0.3359 -1.0416
 2924SOL    HW311463   1.862   1.389   3.751  0.4158  1.3755  0.8948
 2924SOL    MW411464   1.941   1.354   3.746 -0.0135 -0.0583 -0.3578
 2925SOL     OW11465   0.107   4.192   1.987 -0.2198  0.1512 -0.4803
 2925SOL    HW211466   0.105   4.179   2.081 -0.7542 -1.7958 -0.7298
 2925SOL    HW311467   0.170   4.128   1.954  0.9815  1.6946 -1.3641
 2925SOL    MW411468   0.115   4.182   1.995  0.1936 -0.3965  0.1210
 2926SOL     OW11469   4.586   3.555   4.698  0.1513 -0.5211 -0.4404
 2926SOL    HW211470   4.565   3.582   4.609 -1.6310 -0.2882  0.0057
 2926SOL    HW311471   4.519   3.490   4.720 -1.1032  1.2916  1.5911
 2926SOL    MW411472   4.574   3.550   4.689  0.2938 -0.7959 -0.3363
 2927SOL     OW11473   4.791   1.215   0.525  0.3263  0.1141  0.5424
 2927SOL    HW211474   4.773   1.304   0.492  1.7301 -0.4378 -1.9173
 2927SOL    HW311475   4.705   1.172   0.524 -0.3653  1.3818  1.7114
 2927SOL    MW411476   4.777   1.221   0.520  0.0708  0.0509  0.3473
 2928SOL     OW11477   2.262   5.313   0.553 -0.5194 -0.4222 -0.1048
 2928SOL    HW211478   2.325   5.244   0.571 -0.5718 -0.4281  0.0560
 2928SOL    HW311479   2.239   5.301   0.460  1.9446  1.4142 -1.0472
 2928SOL    MW411480   2.267   5.303   0.543 -0.3564  0.2453  0.1622
 2929SOL     OW11481   0.257   4.750   3.011  0.5438 -0.3934 -0.1828
 2929SOL    HW211482   0.222   4.839   3.011  0.6437 -0.3355  0.9465
 2929SOL    HW311483   0.253   4.722   2.920 -2.6171 -0.4744 -0.1190
 2929SOL    MW411484   0.252   4.758   2.999  0.1976 -0.7777  0.1678
 2930SOL     OW11485   4.220   4.788   5.754 -0.6588 -0.1424 -0.0690
 2930SOL    HW211486   4.218   4.792   5.850  0.0303  0.8533 -0.0705
 2930SOL    HW311487   4.155   4.723   5.731 -2.0516  0.8086  1.0160
 2930SOL    MW411488   4.211   4.780   5.764 -0.2339  0.7824  0.0516
 2931SOL     OW11489   4.217   3.077   1.079  0.0911 -0.4140  0.6603
 2931SOL    HW211490   4.292   3.020   1.062  1.4668  1.4283  0.1691
 2931SOL    HW311491   4.193   3.110   0.992 -0.3349  0.1536  0.9934
 2931SOL    MW411492   4.224   3.074   1.065  0.0860 -0.2277  0.6438
 2932SOL     OW11493   3.738   4.251   1.305  0.1771 -0.1176 -0.0640
 2932SOL    HW211494   3.754   4.342   1.330 -0.7411  0.4851 -1.5526
 2932SOL    HW311495   3.803   4.233   1.237  0.4723 -0.6451  0.3514
 2932SOL    MW411496   3.749   4.261   1.300  0.0652 -0.1913 -0.0578
 2933SOL     OW11497   5.558   5.037   2.402  0.5400  0.2464  0.3859
 2933SOL    HW211498   5.616   4.962   2.412  0.0755 -0.3085 -0.9931
 2933SOL    HW311499   5.594   5.102   2.463  2.6373 -0.0540 -0.4592
 2933SOL    MW411500   5.570   5.036   2.412  0.3238  0.0645 -0.1000
 2934SOL     OW11501   2.541   4.286   4.855  0.2914  0.1292  0.4553
 2934SOL    HW211502   2.501   4.370   4.877 -0.2350 -0.2596  1.0379
 2934SOL    HW311503   2.593   4.303   4.776 -1.1785  0.6153 -0.4373
 2934SOL    MW411504   2.543   4.299   4.848  0.0893  0.4967  0.8066
 2935SOL     OW11505   2.321   1.168   4.290 -0.0466 -0.1260  0.0000
 2935SOL    HW211506   2.231   1.152   4.263 -0.6611  0.6910  1.4255
 2935SOL    HW311507   2.370   1.173   4.209 -1.4659  0.4235 -0.8714
 2935SOL    MW411508   2.315   1.167   4.276  0.0624  1.1990 -0.2693
 2936SOL     OW11509   1.554   3.804   6.365  0.1983 -0.0685 -0.0504
 2936SOL    HW211510   1.501   3.792   6.286 -0.1056  0.8351  0.0067
 2936SOL    HW311511   1.490   3.811   6.435  0.3437  1.6169 -0.0545
 2936SOL    MW411512   1.538   3.803   6.364  0.2123  0.3283  0.3970
 2937SOL     OW11513   5.096   4.539   1.148 -0.0338 -0.1982  0.9201
 2937SOL    HW211514   5.107   4.633   1.159 -0.3794 -0.1384  0.7615
 2937SOL    HW311515   5.182   4.502   1.170  0.4098  0.2329 -0.0278
 2937SOL    MW411516   5.109   4.546   1.153 -0.0619 -0.1753 -0.1231
 2938SOL     OW11517   5.366   3.854   2.443 -0.3275 -0.0101  0.0120
 2938SOL    HW211518   5.366   3.928   2.504  0.4924 -0.2386  0.3088
 2938SOL    HW311519   5.459   3.841   2.423 -0.3511 -1.7295  0.8941
 2938SOL    MW411520   5.379   3.862   2.448  0.7275  0.7606 -0.6488
 2939SOL     OW11521   0.507   5.641   3.444  0.0435 -0.2442  0.3864
 2939SOL    HW211522   0.601   5.654   3.430 -0.0755  0.9947  0.6429
 2939SOL    HW311523   0.501   5.594   3.527  0.4239  0.0425  0.5785
 2939SOL    MW411524   0.519   5.637   3.453 -0.1318  0.2624  0.7566
 2940SOL     OW11525   1.631   6.127   4.800  0.0816  0.4836  0.0701
 2940SOL    HW211526   1.543   6.103   4.829  0.3527  1.9687  2.3255
 2940SOL    HW311527   1.677   6.043   4.792 -1.0669 -0.2029  0.4829
 2940SOL    MW411528   1.626   6.112   4.803 -0.1284 -0.2548  0.1303
 2941SOL     OW11529   4.792   6.214   3.129  0.2890 -0.5245  0.6045
 2941SOL    HW211530   4.844   6.266   3.068 -2.3686 -0.5572 -1.9455
 2941SOL    HW311531   4.818   6.244   3.216  3.0236  0.8028 -0.5524
 2941SOL    MW411532   4.802   6.225   3.132  0.5285  1.0634 -0.0997
 2942SOL     OW11533   2.591   0.442   2.890  0.2724  0.2398 -0.0138
 2942SOL    HW211534   2.560   0.351   2.887 -0.4108  0.3887  1.3740
 2942SOL    HW311535   2.532   0.489   2.831  0.3376 -0.1412 -0.3890
 2942SOL    MW411536   2.579   0.436   2.882 -0.2871  0.1748  0.3296
 2943SOL     OW11537   2.511   5.943   1.594 -0.1031 -0.3788  0.1647
 2943SOL    HW211538   2.514   5.960   1.688 -2.0049 -2.5730  0.7036
 2943SOL    HW311539   2.593   5.897   1.576  0.0825 -0.3191  0.8282
 2943SOL    MW411540   2.523   5.939   1.604  0.1300  0.0405  0.6085
 2944SOL     OW11541   2.043   5.696   2.073 -0.3855 -0.2674 -0.0664
 2944SOL    HW211542   1.960   5.660   2.106 -1.4236  0.9317 -1.2724
 2944SOL    HW311543   2.018   5.753   2.000  1.6172 -0.8425 -1.2915
 2944SOL    MW411544   2.029   5.699   2.068 -0.5997 -0.6021  0.4566
 2945SOL     OW11545   0.053   6.263   1.776  0.4860 -0.5259 -0.6740
 2945SOL    HW211546  -0.023   6.299   1.731  0.9714  0.9352 -0.4067
 2945SOL    HW311547   0.111   6.234   1.706  0.1617 -0.6171 -0.9068
 2945SOL    MW411548   0.051   6.264   1.761 -0.0374 -0.7538  0.0580
 2946SOL     OW11549   1.559   0.344   2.694 -0.3346 -0.2978  0.3737
 2946SOL    HW211550   1.602   0.425   2.670 -1.2304 -0.2162 -1.1134
 2946SOL    HW311551   1.619   0.301   2.755  0.2754  1.3282  0.9595
 2946SOL    MW411552   1.572   0.349   2.699 -0.1691  0.4395 -0.4491
 2947SOL     OW11553   0.855   5.191   4.586  0.2848  0.2007  0.3649
 2947SOL    HW211554   0.811   5.203   4.502  1.5088  0.8608 -0.2231
 2947SOL    HW311555   0.821   5.108   4.620 -0.0632 -0.1947 -0.9004
 2947SOL    MW411556   0.845   5.182   4.580  0.2685  0.0411 -0.2092
 2948SOL     OW11557   4.836   6.136   5.768  0.0714 -0.1313 -0.6005
 2948SOL    HW211558   4.773   6.079   5.810  1.4278 -0.8488  0.5548
 2948SOL    HW311559   4.919   6.088   5.773  1.1046  1.6096 -0.2503
 2948SOL    MW411560   4.839   6.122   5.774  0.4908 -0.3419  0.3753
 2949SOL     OW11561   1.891   5.536   1.040 -0.2696  0.0283  0.5859
 2949SOL    HW211562   1.924   5.455   1.079  0.8020 -0.0884 -0.4983
 2949SOL    HW311563   1.954   5.603   1.066 -0.1126  0.1439 -0.0580
 2949SOL    MW411564   1.904   5.534   1.048  0.4667  0.0647  0.3817
 2950SOL     OW11565   6.291   6.276   5.354  0.0510 -0.2877 -0.7082
 2950SOL    HW211566   6.383   6.262   5.335 -0.0635 -0.7639 -0.9310
 2950SOL    HW311567   6.245   6.229   5.285 -0.3796 -2.3008  0.8698
 2950SOL    MW411568   6.297   6.268   5.343 -0.7037 -0.0758 -0.2992
 2951SOL     OW11569   5.598   1.977   1.262 -0.4548 -0.4479 -0.0477
 2951SOL    HW211570   5.618   1.887   1.236 -1.7156 -0.9124  0.4753
 2951SOL    HW311571   5.624   1.982   1.354  2.7428  0.7838 -0.9025
 2951SOL    MW411572   5.604   1.966   1.271 -0.6032 -0.0782 -0.0604
 2952SOL     OW11573   6.156   5.536   2.426  0.0577  0.0428  0.1161
 2952SOL    HW211574   6.196   5.623   2.430  1.2340 -0.4955  0.4919
 2952SOL    HW311575   6.176   5.496   2.511 -0.1522 -0.7272 -0.1863
 2952SOL    MW411576   6.164   5.542   2.438  0.1308 -0.1483 -0.3539
 2953SOL     OW11577   2.582   5.484   2.391  0.5038  0.0999 -0.0690
 2953SOL    HW211578   2.674   5.476   2.415  0.2974 -0.5072  0.5675
 2953SOL    HW311579   2.540   5.520   2.470  0.2981  0.9760 -0.5700
 2953SOL    MW411580   2.589   5.488   2.405  0.1676  0.2600  0.1392
 2954SOL     OW11581   1.306   4.984   3.046  0.0051  0.2052 -0.1591
 2954SOL    HW211582   1.307   4.923   3.120  2.2830 -0.9355 -1.0514
 2954SOL    HW311583   1.247   4.943   2.983  0.1015 -0.1479 -0.0244
 2954SOL    MW411584   1.298   4.970   3.048  0.0783  0.0087 -0.4933
 2955SOL     OW11585   2.534   0.373   6.277 -0.5501  0.7846  0.2898
 2955SOL    HW211586   2.498   0.309   6.217  0.4583  0.8283 -0.3826
 2955SOL    HW311587   2.459   0.402   6.329 -1.0301 -0.9305  0.6242
 2955SOL    MW411588   2.520   0.369   6.276  0.1772 -0.3123 -0.6685
 2956SOL     OW11589   5.614   0.471   1.163 -0.1871 -0.1938 -0.5039
 2956SOL    HW211590   5.600   0.410   1.235 -0.5330 -0.7462 -1.0187
 2956SOL    HW311591   5.663   0.543   1.201 -3.1158  1.1176  1.0605
 2956SOL    MW411592   5.619   0.472   1.177 -0.8992  0.3203 -0.0111
 2957SOL     OW11593   2.181   2.410   4.303  0.1886 -0.0180  0.0076
 2957SOL    HW211594   2.218   2.475   4.243  0.4366 -1.0948 -1.0520
 2957SOL    HW311595   2.196   2.447   4.391  0.2369  1.3729 -0.5619
 2957SOL    MW411596   2.188   2.424   4.307 -0.2321 -0.1198  0.2647
 2958SOL     OW11597   6.034   5.165   0.096  0.3838 -0.3013  0.2301
 2958SOL    HW211598   5.942   5.138   0.101  0.0019  0.8280 -0.4124
 2958SOL    HW311599   6.055   5.161   0.003  1.0190 -0.6084  0.3806
 2958SOL    MW411600   6.025   5.161   0.085  0.1081  0.5455 -0.7878
 2959SOL     OW11601   1.324   3.466   3.595  0.4840  0.2540  0.4238
 2959SOL    HW211602   1.253   3.425   3.645  0.1537 -0.6694 -0.7673
 2959SOL    HW311603   1.401   3.414   3.617  0.4665  0.2407  0.4542
 2959SOL    MW411604   1.325   3.454   3.605 -0.1587 -0.1110 -0.1343
 2960SOL     OW11605   5.158   6.172   4.211  0.2846  0.1393  0.2910
 2960SOL    HW211606   5.221   6.234   4.248 -0.4989  0.3240  1.3513
 2960SOL    HW311607   5.084   6.226   4.183  0.7289 -0.0343 -1.2976
 2960SOL    MW411608   5.157   6.188   4.212  0.3029  0.2261 -0.5590
 2961SOL     OW11609   2.994   1.838   1.661 -0.0226 -0.1706  0.4659
 2961SOL    HW211610   3.002   1.779   1.736  1.4783 -0.2050  0.3208
 2961SOL    HW311611   3.042   1.793   1.590 -0.5346  0.3284 -0.2138
 2961SOL    MW411612   3.001   1.824   1.661 -0.3763  0.1936 -0.1706
 2962SOL     OW11613   6.297   2.058   4.243 -0.0994 -0.0262 -0.2285
 2962SOL    HW211614   6.373   2.100   4.282 -0.2782  0.4918 -0.4288
 2962SOL    HW311615   6.291   2.096   4.155 -0.1052 -0.6682 -0.5076
 2962SOL    MW411616   6.306   2.069   4.236 -0.4963  0.4667 -0.2032
 2963SOL     OW11617   5.139   4.904   1.969 -0.2991 -0.4352 -0.3067
 2963SOL    HW211618   5.199   4.853   2.024 -0.3189 -0.2867 -0.1446
 2963SOL    HW311619   5.145   4.864   1.883 -2.4354 -2.5506  0.4168
 2963SOL    MW411620   5.147   4.892   1.965  0.0010  0.2410  0.5222
 2964SOL     OW11621   4.341   1.450   5.533  0.3318  0.2195  0.3934
 2964SOL    HW211622   4.301   1.507   5.598  1.3511  2.4712 -0.7897
 2964SOL    HW311623   4.270   1.427   5.473  0.2981  2.5314 -0.5767
 2964SOL    MW411624   4.327   1.455   5.533  0.0646  0.1394  0.0658
 2965SOL     OW11625   0.522   3.437   6.058  0.1894  0.0459  0.2491
 2965SOL    HW211626   0.595   3.475   6.009  0.6401 -2.1925 -0.9202
 2965SOL    HW311627   0.449   3.433   5.996  0.4057 -1.7053  0.0519
 2965SOL    MW411628   0.522   3.442   6.044 -0.5014 -0.2951 -0.4063
 2966SOL     OW11629   2.061   5.279   5.655 -0.3421 -0.3038 -0.6920
 2966SOL    HW211630   2.009   5.305   5.731  0.5442 -0.3398 -0.0634
 2966SOL    HW311631   2.050   5.184   5.649 -0.8481 -0.2332 -0.9447
 2966SOL    MW411632   2.053   5.270   5.664 -0.3827  1.0715  0.0258
 2967SOL     OW11633   1.743   3.490   4.619 -0.2210 -0.4353 -0.4408
 2967SOL    HW211634   1.794   3.569   4.636 -1.3610 -0.0157  1.3119
 2967SOL    HW311635   1.800   3.418   4.649 -1.0980  0.1170  3.0319
 2967SOL    MW411636   1.757   3.491   4.625  0.0849 -0.1826  0.1074
 2968SOL     OW11637   4.389   3.897   6.064  0.0037 -0.5224  0.5404
 2968SOL    HW211638   4.352   3.814   6.033 -1.3407  0.9478 -2.0977
 2968SOL    HW311639   4.462   3.914   6.004 -0.9612  1.0990 -0.2384
 2968SOL    MW411640   4.394   3.888   6.052  0.1085  0.1558  0.6520
 2969SOL     OW11641   2.667   5.966   1.034 -0.4629  0.1647  0.0911
 2969SOL    HW211642   2.601   6.012   1.086 -1.0902 -0.2413 -0.3284
 2969SOL    HW311643   2.623   5.885   1.007  0.3917 -0.3612  0.2523
 2969SOL    MW411644   2.653   5.961   1.038  0.3900  0.4644  0.1389
 2970SOL     OW11645   3.138   0.874   0.245  0.0263  0.2672  0.1444
 2970SOL    HW211646   3.158   0.937   0.177  0.8270  2.3323  2.1686
 2970SOL    HW311647   3.112   0.927   0.320  0.4481 -1.8185  1.8632
 2970SOL    MW411648   3.137   0.889   0.246  0.5735 -0.7511  0.4583
 2971SOL     OW11649   1.920   1.233   6.378 -0.0084 -0.4109 -0.2957
 2971SOL    HW211650   1.953   1.236   6.288  1.2765  0.8625  0.1689
 2971SOL    HW311651   1.826   1.221   6.368 -0.0905  1.0668 -1.8832
 2971SOL    MW411652   1.912   1.232   6.365  0.1843  0.4229 -0.5309
 2972SOL     OW11653   5.453   3.593   2.843  0.1388 -0.0795  0.3057
 2972SOL    HW211654   5.510   3.669   2.853 -1.0409  1.2750 -2.2964
 2972SOL    HW311655   5.368   3.621   2.876  0.2232 -1.0927  1.4614
 2972SOL    MW411656   5.449   3.606   2.849 -0.7289 -0.2407  0.2167
 2973SOL     OW11657   1.805   2.203   0.511 -0.5244  0.4548  0.1045
 2973SOL    HW211658   1.881   2.197   0.570 -0.5441  1.2860  0.2233
 2973SOL    HW311659   1.775   2.112   0.503  0.5876  0.0829 -0.0897
 2973SOL    MW411660   1.811   2.190   0.518  0.2149 -0.6900 -0.4743
 2974SOL     OW11661   3.724   2.219   4.830  0.4429  0.0711  0.2203
 2974SOL    HW211662   3.734   2.281   4.758 -0.6833 -1.1491 -1.0406
 2974SOL    HW311663   3.706   2.274   4.907  1.8365  1.3978 -0.3581
 2974SOL    MW411664   3.723   2.234   4.831 -0.2447 -0.0178 -0.4616
 2975SOL     OW11665   2.981   0.166   2.763 -0.2118 -0.0445  0.3162
 2975SOL    HW211666   3.009   0.256   2.781  0.0502 -0.2184  0.7910
 2975SOL    HW311667   2.924   0.174   2.687  0.7489  0.3854 -0.3857
 2975SOL    MW411668   2.977   0.179   2.755 -0.0723 -0.3158  0.0759
 2976SOL     OW11669   3.360   4.111   0.708 -1.0343  0.3754 -0.4534
 2976SOL    HW211670   3.357   4.198   0.748 -1.1359  0.5561 -0.8418
 2976SOL    HW311671   3.442   4.111   0.658 -1.5337  0.6386 -1.3005
 2976SOL    MW411672   3.371   4.122   0.706 -0.0887 -0.0177 -0.2135
 2977SOL     OW11673   0.192   1.354   1.175 -0.0549  0.1949 -0.1290
 2977SOL    HW211674   0.217   1.271   1.216 -0.5638 -0.5394 -1.2644
 2977SOL    HW311675   0.117   1.333   1.120  0.6508  1.1090 -1.5241
 2977SOL    MW411676   0.185   1.341   1.173 -0.0964  0.0095 -0.5130
 2978SOL     OW11677   2.029   2.005   6.378  0.2368 -0.3807 -0.6121
 2978SOL    HW211678   1.976   1.939   6.422  0.4487 -1.1490 -1.4926
 2978SOL    HW311679   2.119   1.982   6.400  0.2817  0.1183 -0.2407
 2978SOL    MW411680   2.034   1.993   6.387 -0.2098 -0.2083 -0.3956
 2979SOL     OW11681   2.220   4.766   3.837  0.2210 -0.3630  0.2637
 2979SOL    HW211682   2.249   4.752   3.927  3.1052 -0.1912 -0.5348
 2979SOL    HW311683   2.298   4.751   3.784 -1.2169  0.1987 -2.1716
 2979SOL    MW411684   2.234   4.762   3.842  0.3979 -0.1256 -0.3495
 2980SOL     OW11685   4.047   2.255   5.619  0.4014 -0.2833  0.0639
 2980SOL    HW211686   3.983   2.195   5.657  2.0453 -1.7980  0.5809
 2980SOL    HW311687   4.088   2.205   5.548  2.2144 -0.0366  0.8772
 2980SOL    MW411688   4.044   2.241   5.614  0.3485  0.0051 -0.2434
 2981SOL     OW11689   1.493   2.309   2.105  0.0765 -0.5850  0.0120
 2981SOL    HW211690   1.405   2.307   2.142 -0.0475 -2.2289 -0.3000
 2981SOL    HW311691   1.542   2.244   2.156  0.9186 -0.1851 -0.2672
 2981SOL    MW411692   1.488   2.300   2.117  0.4589 -0.4204  0.3123
 2982SOL     OW11693   0.472   2.386   3.295 -0.4839  0.5430  0.3989
 2982SOL    HW211694   0.567   2.387   3.308 -0.3687  1.5949 -0.4180
 2982SOL    HW311695   0.458   2.438   3.216 -1.5695 -1.3271 -0.7231
 2982SOL    MW411696   0.483   2.393   3.286 -0.1424 -0.1173 -0.4818
 2983SOL     OW11697   1.120   5.795   4.335 -0.4230 -0.1678  0.1528
 2983SOL    HW211698   1.125   5.868   4.397  0.0598  0.0338 -0.1262
 2983SOL    HW311699   1.114   5.836   4.249 -0.5421 -0.4535  0.0236
 2983SOL    MW411700   1.120   5.810   4.332 -0.1145 -1.2508 -0.1861
 2984SOL     OW11701   3.551   0.845   0.321  0.6565 -0.0697 -0.4407
 2984SOL    HW211702   3.490   0.891   0.378  0.4526 -2.3032  1.3178
 2984SOL    HW311703   3.604   0.913   0.281  0.7100  1.6588  2.3464
 2984SOL    MW411704   3.550   0.860   0.323 -0.1400 -0.2147  0.3366
 2985SOL     OW11705   2.488   1.552   1.360  0.4342  0.6279  0.6198
 2985SOL    HW211706   2.563   1.495   1.342  0.2328  0.3165  0.7602
 2985SOL    HW311707   2.508   1.633   1.312 -0.0784 -0.1796 -1.0417
 2985SOL    MW411708   2.501   1.555   1.351 -0.2208  0.1753 -0.4842
 2986SOL     OW11709   5.633   4.789   4.515  0.9201  0.8167 -0.2553
 2986SOL    HW211710   5.639   4.744   4.600  4.6189 -2.2655 -1.8375
 2986SOL    HW311711   5.547   4.831   4.516 -0.2195 -1.0608  4.0021
 2986SOL    MW411712   5.623   4.789   4.526 -0.5192  0.2792 -0.5818
 2987SOL     OW11713   2.085   3.211   0.816  0.7649  0.1269 -0.5311
 2987SOL    HW211714   2.090   3.139   0.754  0.2736 -0.1839 -0.2211
 2987SOL    HW311715   2.033   3.176   0.889  0.7221  0.7166 -0.2715
 2987SOL    MW411716   2.078   3.197   0.818 -0.2992 -0.1960  0.1431
 2988SOL     OW11717   1.757   5.989   1.476  0.4055  0.4741 -0.3221
 2988SOL    HW211718   1.686   5.932   1.505  1.9920 -0.2092  2.6262
 2988SOL    HW311719   1.812   5.932   1.422  0.2644  0.1454 -0.1274
 2988SOL    MW411720   1.755   5.974   1.473  0.6813  0.1334  0.2889
 2989SOL     OW11721   1.020   1.748   5.264  0.5156 -0.6455 -0.4658
 2989SOL    HW211722   0.990   1.678   5.321  0.2002 -0.3634 -0.2771
 2989SOL    HW311723   1.097   1.784   5.308 -0.5950  0.5506  0.5684
 2989SOL    MW411724   1.026   1.744   5.277  0.6115  0.2400  0.6542
 2990SOL     OW11725   4.596   4.334   2.164 -0.3039  0.1211  0.2986
 2990SOL    HW211726   4.656   4.356   2.093  0.5017  0.3761  1.0339
 2990SOL    HW311727   4.640   4.263   2.211 -0.6010  0.2696  0.8057
 2990SOL    MW411728   4.610   4.328   2.161 -0.1799  0.3385  0.2016
 2991SOL     OW11729   0.303   2.831   1.199 -0.2741  0.2877  0.0506
 2991SOL    HW211730   0.252   2.751   1.188 -1.1195  0.6932  0.7977
 2991SOL    HW311731   0.261   2.876   1.273  1.2245  0.6137  0.7431
 2991SOL    MW411732   0.291   2.826   1.207 -0.0063  0.5504  0.0733
 2992SOL     OW11733   0.374   1.052   2.640 -0.0781  0.0949 -0.3798
 2992SOL    HW211734   0.362   1.025   2.549 -0.5802  0.1499 -0.3299
 2992SOL    HW311735   0.462   1.022   2.662  0.1983  0.4318 -1.0074
 2992SOL    MW411736   0.384   1.044   2.631  0.3316 -0.1877 -0.0584
 2993SOL     OW11737   3.132   1.730   1.247 -0.3630  0.0482  0.4093
 2993SOL    HW211738   3.205   1.693   1.197 -0.4111 -0.9612  1.0531
 2993SOL    HW311739   3.166   1.813   1.280  0.2707 -0.1054  0.1588
 2993SOL    MW411740   3.146   1.736   1.245  0.1841 -0.3983 -0.0427
 2994SOL     OW11741   6.177   1.819   4.338  1.1214  0.0566  0.0313
 2994SOL    HW211742   6.190   1.836   4.431  0.6272 -1.6072  0.4318
 2994SOL    HW311743   6.252   1.859   4.296  0.7414  1.9085  1.0015
 2994SOL    MW411744   6.188   1.827   4.345  0.1083  0.2459 -0.1642
 2995SOL     OW11745   3.398   1.001   6.145  0.1399 -0.2546  0.3702
 2995SOL    HW211746   3.355   1.086   6.152 -0.9338 -0.6499 -1.0947
 2995SOL    HW311747   3.443   0.991   6.229 -2.6728  0.1301  2.0515
 2995SOL    MW411748   3.399   1.011   6.157 -0.0096 -0.0885 -0.6957
 2996SOL     OW11749   1.491   3.664   4.856 -0.3145 -0.2077 -0.3333
 2996SOL    HW211750   1.400   3.672   4.883 -0.3325  0.5732 -0.6020
 2996SOL    HW311751   1.541   3.707   4.925 -0.1248 -0.8417 -0.0689
 2996SOL    MW411752   1.486   3.671   4.868 -0.5381  0.2165  0.1870
 2997SOL     OW11753   1.616   0.336   0.653  0.7702 -0.0653 -0.2712
 2997SOL    HW211754   1.541   0.347   0.711 -0.1638 -1.9436 -1.0517
 2997SOL    HW311755   1.689   0.378   0.700 -0.4872  0.7483  1.0382
 2997SOL    MW411756   1.616   0.343   0.667 -0.2023  0.0302  0.8607
 2998SOL     OW11757   2.569   5.110   0.947  0.2481 -0.8245 -0.3397
 2998SOL    HW211758   2.493   5.127   1.003  0.7564 -0.8796  0.3880
 2998SOL    HW311759   2.558   5.170   0.873 -0.7777 -1.2108 -0.5270
 2998SOL    MW411760   2.557   5.120   0.945 -0.6538  0.6969  0.9634
 2999SOL     OW11761   4.452   0.974   4.771 -0.2931 -0.0252 -0.1903
 2999SOL    HW211762   4.364   0.957   4.804 -0.1432  0.7234  0.6182
 2999SOL    HW311763   4.468   1.066   4.790  0.8807 -0.2812  0.1884
 2999SOL    MW411764   4.443   0.984   4.778 -0.0242 -0.3182  0.3356
 3000SOL     OW11765   5.451   5.917   3.841  0.3301 -0.1425  0.2543
 3000SOL    HW211766   5.394   5.857   3.793  1.7196  0.6579 -2.6117
 3000SOL    HW311767   5.393   5.960   3.905 -1.7159 -1.0682 -0.8924
 3000SOL    MW411768   5.435   5.915   3.843  0.3347  0.2944  0.1678
 3001SOL     OW11769   1.589   0.024   0.428  0.1471  0.6059 -0.1380
 3001SOL    HW211770   1.532   0.101   0.418  0.1476  0.5236 -0.7618
 3001SOL    HW311771   1.672   0.050   0.388  0.2465  0.3850 -0.0745
 3001SOL    MW411772   1.592   0.038   0.422  0.1994  0.0212 -0.3277
 3002SOL     OW11773   0.937   5.023   2.736  0.0384  0.6066 -0.1681
 3002SOL    HW211774   0.900   4.949   2.687 -0.7432  0.4891  0.5855
 3002SOL    HW311775   1.005   4.983   2.791 -0.7265  0.3479  0.6161
 3002SOL    MW411776   0.941   5.008   2.736 -0.1853  0.4191 -0.6364
 3003SOL     OW11777   0.293   1.997   1.259 -0.2200  0.1106  0.1234
 3003SOL    HW211778   0.265   2.080   1.223 -0.0895 -0.3309 -1.0330
 3003SOL    HW311779   0.290   1.936   1.186 -1.6564 -1.2380  1.2392
 3003SOL    MW411780   0.289   2.000   1.245 -0.3262 -0.0420  0.3893
 3004SOL     OW11781   3.371   0.487   5.214  0.3451  0.1381 -0.2042
 3004SOL    HW211782   3.424   0.459   5.289 -0.6107  0.0604  0.4667
 3004SOL    HW311783   3.332   0.407   5.181  0.2648  0.2526 -0.3845
 3004SOL    MW411784   3.373   0.473   5.220 -0.3152  0.2134 -0.0848
 3005SOL     OW11785   4.549   2.893   4.252  0.3777 -0.7218  0.0638
 3005SOL    HW211786   4.519   2.968   4.304  2.2073  0.7050 -0.8081
 3005SOL    HW311787   4.581   2.830   4.316 -2.1416 -1.2838  0.8747
 3005SOL    MW411788   4.549   2.895   4.267 -0.7827 -0.6025 -0.3309
 3006SOL     OW11789   6.000   5.102   3.055 -0.2267  0.2714  0.1701
 3006SOL    HW211790   6.086   5.067   3.078  1.0796  1.5839 -2.2829
 3006SOL    HW311791   5.939   5.058   3.115  1.8968 -2.1315  0.7465
 3006SOL    MW411792   6.003   5.092   3.066  0.2567 -0.3256 -0.3198
 3007SOL     OW11793   2.659   1.474   2.398 -0.4465  0.0507 -0.0126
 3007SOL    HW211794   2.610   1.545   2.439 -2.0814 -1.4315  0.6978
 3007SOL    HW311795   2.730   1.455   2.460  0.4568  1.4847 -0.5464
 3007SOL    MW411796   2.662   1.481   2.412  0.4342  0.1422  0.2812
 3008SOL     OW11797   3.863   0.254   0.474  0.0047  0.6177  0.3220
 3008SOL    HW211798   3.861   0.349   0.472 -0.3721  0.6032 -0.2683
 3008SOL    HW311799   3.885   0.229   0.384  0.3181  0.1525  0.5223
 3008SOL    MW411800   3.866   0.263   0.462  0.0090  0.4659  0.0316
 3009SOL     OW11801   1.496   1.749   2.398  0.3045  0.3415 -0.3135
 3009SOL    HW211802   1.465   1.666   2.434 -0.2808  1.0918  0.9763
 3009SOL    HW311803   1.562   1.724   2.333  0.5795 -1.0997  0.4817
 3009SOL    MW411804   1.501   1.735   2.394 -0.4550 -0.1820  0.0585
 3010SOL     OW11805   5.879   4.215   5.219  0.4708 -0.4132 -0.0117
 3010SOL    HW211806   5.845   4.127   5.237 -1.6805  0.3593 -0.0421
 3010SOL    HW311807   5.974   4.205   5.226  0.2234 -2.3267  1.8899
 3010SOL    MW411808   5.887   4.202   5.222 -0.1032  0.2475  0.2618
 3011SOL     OW11809   2.582   2.234   4.673 -0.0245  0.7771  0.3524
 3011SOL    HW211810   2.557   2.152   4.629  0.8367  0.6235  0.1258
 3011SOL    HW311811   2.582   2.299   4.602  0.2124  0.7722  0.3461
 3011SOL    MW411812   2.579   2.231   4.658 -0.0782 -0.5761 -0.0937
 3012SOL     OW11813   1.498   1.214   4.338 -0.3721  0.1647  0.0822
 3012SOL    HW211814   1.546   1.134   4.320 -0.8144  0.1207 -1.0482
 3012SOL    HW311815   1.564   1.284   4.334 -0.0620 -0.0928  0.6367
 3012SOL    MW411816   1.513   1.213   4.335  0.0409  0.7050  0.4261
 3013SOL     OW11817   0.816   1.124   3.318 -0.0665  0.2425 -0.3898
 3013SOL    HW211818   0.760   1.191   3.278  1.5468  2.4772  0.8322
 3013SOL    HW311819   0.768   1.098   3.397 -0.4457  0.3721 -0.5716
 3013SOL    MW411820   0.802   1.130   3.323  0.1138 -0.0640 -0.2035
 3014SOL     OW11821   3.820   5.479   3.889  0.7728 -0.5057  0.2530
 3014SOL    HW211822   3.875   5.407   3.859 -0.8858 -1.6473 -0.2252
 3014SOL    HW311823   3.743   5.476   3.831  0.2544  1.1092  0.7883
 3014SOL    MW411824   3.817   5.469   3.877 -0.4419 -0.3146 -0.6084
 3015SOL     OW11825   1.644   4.290   0.495  0.0343 -0.0835  0.6030
 3015SOL    HW211826   1.617   4.299   0.586  0.9425  1.3100  0.7697
 3015SOL    HW311827   1.717   4.227   0.498 -0.0986 -0.2288  0.8006
 3015SOL    MW411828   1.650   4.283   0.507 -0.0099 -0.5092 -0.4862
 3016SOL     OW11829   2.893   1.313   2.498 -0.8442  0.1770  0.5798
 3016SOL    HW211830   2.870   1.236   2.446  2.6249 -0.4700 -0.2483
 3016SOL    HW311831   2.917   1.278   2.584 -0.9523  0.5437  0.7616
 3016SOL    MW411832   2.893   1.298   2.502 -0.0359  0.0006 -0.3979
 3017SOL     OW11833   2.531   3.953   1.513 -0.5391 -0.1921 -0.2152
 3017SOL    HW211834   2.440   3.978   1.528 -0.2525  0.2051  1.0082
 3017SOL    HW311835   2.554   3.897   1.587  0.5865  0.7635  0.1958
 3017SOL    MW411836   2.522   3.949   1.525 -0.2337  0.3900  0.0850
 3018SOL     OW11837   5.965   6.115   4.385 -0.4803  0.4084 -0.1642
 3018SOL    HW211838   5.961   6.172   4.462 -1.2192  0.4307 -0.2090
 3018SOL    HW311839   5.900   6.047   4.403  0.6144 -0.6121  0.0320
 3018SOL    MW411840   5.956   6.113   4.397 -0.6964  0.7838  0.2413
 3019SOL     OW11841   5.096   2.689   4.349 -0.8305  0.2994 -0.4517
 3019SOL    HW211842   5.068   2.728   4.266 -2.3760 -0.4395 -0.3082
 3019SOL    HW311843   5.099   2.595   4.331 -0.1570  0.2213  0.0473
 3019SOL    MW411844   5.093   2.682   4.336 -0.0149  0.0437 -0.6467
 3020SOL     OW11845   4.415   0.258   3.926  0.2014  0.2917  0.3390
 3020SOL    HW211846   4.331   0.303   3.936  0.4141  0.6444  0.5547
 3020SOL    HW311847   4.481   0.323   3.952  0.6210  0.4200 -0.9550
 3020SOL    MW411848   4.413   0.272   3.931 -0.2577  0.1271 -0.0064
 3021SOL     OW11849   2.618   1.123   1.331  0.1685  0.0897 -0.5594
 3021SOL    HW211850   2.591   1.186   1.263  1.1972  0.2841 -0.8034
 3021SOL    HW311851   2.604   1.170   1.413  2.4578  1.2954 -0.7944
 3021SOL    MW411852   2.612   1.138   1.333 -0.0358 -0.1849  0.4390
 3022SOL     OW11853   1.535   4.216   0.753 -0.8877  0.0142  0.4913
 3022SOL    HW211854   1.446   4.250   0.764  0.0543  2.8251  0.3123
 3022SOL    HW311855   1.575   4.225   0.839 -0.2106  0.7124  0.1222
 3022SOL    MW411856   1.529   4.222   0.766 -0.5475 -0.1015 -1.0153
 3023SOL     OW11857   3.312   1.234   2.346  0.5662  0.5911 -0.0257
 3023SOL    HW211858   3.390   1.218   2.400 -0.3845 -0.1698  1.1849
 3023SOL    HW311859   3.337   1.203   2.259  1.3507 -0.4689  0.5370
 3023SOL    MW411860   3.326   1.228   2.342 -0.4659  0.3301 -0.3687
 3024SOL     OW11861   2.091   0.524   2.024 -0.4893  0.4724  0.2127
 3024SOL    HW211862   2.004   0.518   2.064 -0.3798 -2.7599  0.2222
 3024SOL    HW311863   2.074   0.520   1.930 -0.4131  1.1615  0.1701
 3024SOL    MW411864   2.077   0.522   2.017  0.3757  0.3218 -0.1162
 3025SOL     OW11865   1.704   0.591   3.090 -0.0278  0.1415  0.0909
 3025SOL    HW211866   1.624   0.542   3.072 -0.3977 -0.2009  2.3755
 3025SOL    HW311867   1.674   0.680   3.110 -0.0168 -0.2237  1.9622
 3025SOL    MW411868   1.689   0.596   3.091 -0.2127 -0.4577  0.5641
 3026SOL     OW11869   3.294   0.839   4.563 -0.6664 -0.0087 -0.8216
 3026SOL    HW211870   3.297   0.914   4.623  0.9170 -0.0184 -0.8356
 3026SOL    HW311871   3.359   0.778   4.598 -0.3745 -0.4195 -2.0176
 3026SOL    MW411872   3.303   0.841   4.575  0.2771  0.4308  0.1891
 3027SOL     OW11873   3.353   3.257   3.710  0.2643 -0.4422 -0.7708
 3027SOL    HW211874   3.385   3.317   3.778  1.7018  0.7431 -2.4026
 3027SOL    HW311875   3.371   3.170   3.745  1.6312  0.1442  0.1031
 3027SOL    MW411876   3.360   3.253   3.723  0.3468  0.2070 -0.7808
 3028SOL     OW11877   4.120   5.781   0.200 -0.1050 -0.5471 -0.0044
 3028SOL    HW211878   4.118   5.826   0.284  2.7734  0.8616 -0.5663
 3028SOL    HW311879   4.133   5.850   0.135  5.4298 -1.8725 -0.8152
 3028SOL    MW411880   4.122   5.796   0.203  0.2530 -0.1856 -0.3768
 3029SOL     OW11881   2.647   3.243   5.910 -0.1509 -0.1537 -0.5906
 3029SOL    HW211882   2.654   3.218   6.002 -0.6712 -2.3197 -1.1052
 3029SOL    HW311883   2.737   3.266   5.885  0.2009 -0.7194  0.1291
 3029SOL    MW411884   2.660   3.243   5.919 -0.1879 -0.2464  0.5172
 3030SOL     OW11885   5.649   5.388   3.774 -0.0361 -0.2692 -0.2278
 3030SOL    HW211886   5.666   5.295   3.758 -0.3945 -0.6208  1.2884
 3030SOL    HW311887   5.734   5.431   3.761  0.2260 -0.8683 -0.5191
 3030SOL    MW411888   5.662   5.381   3.770  0.1957 -0.0073  0.0064
 3031SOL     OW11889   1.524   0.245   3.374  0.2262 -0.1913 -0.0240
 3031SOL    HW211890   1.586   0.268   3.443  0.9064  1.7427 -1.1946
 3031SOL    HW311891   1.449   0.302   3.389 -0.7866 -1.6229  0.6216
 3031SOL    MW411892   1.522   0.256   3.385 -0.7062  0.2109 -0.0218
 3032SOL     OW11893   0.050   0.104   5.854  0.3373 -0.0369 -0.2505
 3032SOL    HW211894   0.126   0.083   5.908 -0.4625  0.7047  1.2245
 3032SOL    HW311895  -0.024   0.067   5.902 -0.6596  2.5916  0.3870
 3032SOL    MW411896   0.050   0.096   5.868  0.2881  0.0097 -0.4618
 3033SOL     OW11897   6.425   4.973   2.665 -0.9446  0.3862 -0.5777
 3033SOL    HW211898   6.415   5.057   2.620 -2.4687  0.7956  0.4395
 3033SOL    HW311899   6.350   4.921   2.635 -0.1618 -0.5374 -0.9920
 3033SOL    MW411900   6.413   4.977   2.655 -0.2233 -0.1326 -0.2391
 3034SOL     OW11901   1.967   4.272   4.510  0.0670 -0.0416  0.0868
 3034SOL    HW211902   2.035   4.209   4.486  1.0541  1.0842 -0.1434
 3034SOL    HW311903   2.011   4.335   4.567 -0.5018  1.2931 -0.8935
 3034SOL    MW411904   1.981   4.272   4.514  0.1169  0.1899 -0.0992
 3035SOL     OW11905   3.717   4.951   0.808 -0.2908 -0.0417 -0.6572
 3035SOL    HW211906   3.717   4.989   0.896  1.4319 -0.0835 -0.5968
 3035SOL    HW311907   3.627   4.961   0.777 -0.9462 -0.0706  1.1174
 3035SOL    MW411908   3.706   4.957   0.815 -0.0331  0.5750 -0.3974
 3036SOL     OW11909   0.745   5.058   3.875  0.6119 -0.0681 -0.0050
 3036SOL    HW211910   0.840   5.049   3.890  0.6666  0.7462  0.1594
 3036SOL    HW311911   0.705   5.019   3.953  0.7612 -1.7280 -0.7051
 3036SOL    MW411912   0.753   5.051   3.887 -0.4721 -0.2528  0.1723
 3037SOL     OW11913   3.750   0.519   5.469 -0.0963 -0.1801  0.0883
 3037SOL    HW211914   3.666   0.474   5.480  0.0670 -0.1271  1.7655
 3037SOL    HW311915   3.810   0.473   5.526  0.4724  1.1506  0.6039
 3037SOL    MW411916   3.747   0.507   5.478 -0.0258  1.1130 -0.3307
 3038SOL     OW11917   5.065   3.459   2.277  0.7656 -0.0174  0.0065
 3038SOL    HW211918   5.075   3.396   2.205  0.0750  0.2597 -0.3448
 3038SOL    HW311919   4.983   3.505   2.257  0.9251  0.5414  0.6057
 3038SOL    MW411920   5.055   3.457   2.265  0.1635 -0.3333 -0.0440
 3039SOL     OW11921   5.410   5.858   1.028  0.2253 -0.3362  0.7997
 3039SOL    HW211922   5.432   5.911   0.952  0.0399 -0.4661  0.6545
 3039SOL    HW311923   5.381   5.774   0.992  1.0405 -0.7349  1.0426
 3039SOL    MW411924   5.409   5.854   1.014  0.0801 -0.4115  0.1429
 3040SOL     OW11925   2.579   3.074   0.270  1.0894 -0.0790  0.3144
 3040SOL    HW211926   2.547   3.116   0.190  1.5244 -1.6316 -0.7249
 3040SOL    HW311927   2.672   3.060   0.254  1.1278 -0.6523  0.9751
 3040SOL    MW411928   2.587   3.078   0.258 -0.4525 -0.1005 -0.0060
 3041SOL     OW11929   2.951   5.004   4.053 -0.2494  0.5974 -0.0331
 3041SOL    HW211930   2.994   5.012   4.138 -0.1401  1.6077 -0.1724
 3041SOL    HW311931   3.023   5.006   3.989 -0.4130  1.2433 -0.2100
 3041SOL    MW411932   2.966   5.006   4.056 -0.1383  0.6911  0.0726
 3042SOL     OW11933   0.091   1.205   0.817  0.0299 -0.1413 -0.4728
 3042SOL    HW211934   0.137   1.228   0.736  0.8800  1.3042  0.3667
 3042SOL    HW311935   0.013   1.158   0.788  0.8093 -0.5219 -2.0717
 3042SOL    MW411936   0.087   1.202   0.802  0.5862 -0.0441 -0.4062
 3043SOL     OW11937   2.930   0.371   6.377 -0.1534  0.1270 -0.6291
 3043SOL    HW211938   3.011   0.404   6.416  0.3421 -0.9336 -0.7288
 3043SOL    HW311939   2.862   0.432   6.407  0.2628 -0.4072  1.6018
 3043SOL    MW411940   2.932   0.384   6.386  0.6215 -0.3682 -0.1125
 3044SOL     OW11941   4.513   0.892   5.060  0.1150 -0.5274 -0.7045
 3044SOL    HW211942   4.488   0.976   5.098 -0.0454 -0.1481 -1.6180
 3044SOL    HW311943   4.539   0.913   4.970 -1.3674 -1.6167 -1.4494
 3044SOL    MW411944   4.513   0.906   5.053 -0.3827  0.4265  0.0491
 3045SOL     OW11945   6.367   0.068   0.054  0.3289 -0.8452 -0.3001
 3045SOL    HW211946   6.396   0.153   0.087 -0.0867 -0.0728 -1.8816
 3045SOL    HW311947   6.426   0.050  -0.020 -0.6263 -1.1632 -0.9928
 3045SOL    MW411948   6.379   0.076   0.049 -0.6276 -0.2354 -0.1683
 3046SOL     OW11949   6.173   1.657   4.092 -0.0076 -0.3098 -0.1739
 3046SOL    HW211950   6.264   1.684   4.101 -0.2944  0.2959  1.1359
 3046SOL    HW311951   6.130   1.692   4.169 -1.0312 -1.9765  0.0571
 3046SOL    MW411952   6.179   1.665   4.103 -0.1815 -0.2836 -0.1192
 3047SOL     OW11953   3.738   0.247   0.803 -0.1503  0.0214  0.5501
 3047SOL    HW211954   3.660   0.250   0.748  0.1306 -1.4065  0.0414
 3047SOL    HW311955   3.808   0.218   0.745  0.8872  1.6767  0.8918
 3047SOL    MW411956   3.737   0.244   0.788 -0.8699 -0.6429  0.4285
 3048SOL     OW11957   5.360   2.920   4.914  0.4396  0.0207 -0.3078
 3048SOL    HW211958   5.293   2.914   4.845  1.8594 -0.1515 -1.7301
 3048SOL    HW311959   5.383   2.829   4.933 -1.2938 -0.0393  1.8378
 3048SOL    MW411960   5.354   2.907   4.907 -0.1978  0.1612 -0.8381
 3049SOL     OW11961   2.702   5.412   4.454  0.3346 -0.1634 -0.1806
 3049SOL    HW211962   2.615   5.389   4.421  1.5383 -2.5020 -2.0606
 3049SOL    HW311963   2.702   5.382   4.545 -1.5805  2.2831  0.7599
 3049SOL    MW411964   2.690   5.405   4.462 -0.6132  0.2398  0.1334
 3050SOL     OW11965   2.757   2.170   6.153 -0.1335 -0.0254  0.1168
 3050SOL    HW211966   2.817   2.136   6.220 -1.5327 -2.1237  0.4005
 3050SOL    HW311967   2.685   2.210   6.204 -0.4510 -0.2355 -0.1679
 3050SOL    MW411968   2.755   2.171   6.169 -0.1096  0.0324 -0.1643
 3051SOL     OW11969   6.010   1.030   0.957  0.1637  0.1301  0.0528
 3051SOL    HW211970   6.045   1.006   0.871 -1.1986  0.5881 -0.6592
 3051SOL    HW311971   5.930   0.978   0.966 -0.3046  0.9053  0.5396
 3051SOL    MW411972   6.004   1.020   0.946 -0.0464 -0.6887  0.4137
 3052SOL     OW11973   1.234   6.018   1.549 -0.5877  0.1190  0.6888
 3052SOL    HW211974   1.310   6.024   1.491  0.8078 -0.3941  2.3758
 3052SOL    HW311975   1.162   5.989   1.492  0.2746  1.2426 -1.0837
 3052SOL    MW411976   1.234   6.015   1.534 -0.0260 -0.3931  0.1525
 3053SOL     OW11977   5.021   1.701   5.120 -0.6447  0.4445  0.4301
 3053SOL    HW211978   5.104   1.735   5.152 -1.3237  3.2686 -0.5285
 3053SOL    HW311979   5.041   1.663   5.035 -0.0651 -0.5446  0.9910
 3053SOL    MW411980   5.034   1.700   5.113  0.0717  0.5465 -0.0394
 3054SOL     OW11981   1.808   5.951   1.037  0.0865  0.3144 -0.2213
 3054SOL    HW211982   1.805   5.929   0.944 -0.4424 -0.7254  0.0306
 3054SOL    HW311983   1.900   5.974   1.053  0.4937 -0.9056 -0.6886
 3054SOL    MW411984   1.820   5.951   1.027 -0.2137  0.3501 -0.2063
 3055SOL     OW11985   5.835   4.913   2.674 -0.0786  0.2286  0.0154
 3055SOL    HW211986   5.824   5.007   2.657 -0.6443 -0.0042 -0.9739
 3055SOL    HW311987   5.859   4.909   2.767 -1.7811  1.2572  0.5641
 3055SOL    MW411988   5.837   4.925   2.684 -0.0316 -0.9108  0.2403
 3056SOL     OW11989   5.020   1.476   3.364 -0.0928  0.0492  1.1342
 3056SOL    HW211990   5.098   1.429   3.393 -0.9367 -1.5784  0.8912
 3056SOL    HW311991   5.010   1.547   3.428  1.8598  0.6404  0.8516
 3056SOL    MW411992   5.029   1.479   3.376 -0.4955 -0.1517 -0.4692
 3057SOL     OW11993   3.236   2.567   2.259 -0.3444  0.2410 -0.0682
 3057SOL    HW211994   3.289   2.615   2.323  0.4568  0.2271 -0.7076
 3057SOL    HW311995   3.231   2.626   2.184 -1.8897  0.5585  0.2641
 3057SOL    MW411996   3.243   2.581   2.258 -0.0913 -0.3941 -0.0071
 3058SOL     OW11997   3.517   0.627   5.015  0.1404 -0.1986  0.0224
 3058SOL    HW211998   3.604   0.625   5.055 -0.1413 -0.1616  0.6524
 3058SOL    HW311999   3.460   0.585   5.080 -0.2935 -0.3200 -0.4317
 3058SOL    MW412000   3.521   0.621   5.029 -0.7297 -0.4572 -0.4677
 3059SOL     OW12001   1.957   4.524   0.627  0.0285  0.3271  0.2068
 3059SOL    HW212002   1.921   4.436   0.613 -1.0541  0.7295  0.4092
 3059SOL    HW312003   2.007   4.517   0.708 -0.6958  0.0811  0.6401
 3059SOL    MW412004   1.959   4.512   0.636 -0.5140 -0.0583 -0.0397
 3060SOL     OW12005   5.690   3.147   2.173  0.0077 -0.1546 -0.5149
 3060SOL    HW212006   5.769   3.095   2.184  0.0411  0.0047  0.0279
 3060SOL    HW312007   5.719   3.225   2.125  0.3650  0.3415  0.4881
 3060SOL    MW412008   5.704   3.151   2.168 -0.0517  0.1965 -0.3253
 3061SOL     OW12009   0.842   1.492   0.152  0.1773 -0.2992 -0.0035
 3061SOL    HW212010   0.848   1.549   0.229 -2.6998 -1.0012  0.8749
 3061SOL    HW312011   0.821   1.406   0.188  0.0163 -0.9135 -1.5075
 3061SOL    MW412012   0.840   1.488   0.167  0.0425 -0.2457  0.1129
 3062SOL     OW12013   6.368   6.424   3.817  0.1341  0.2009 -1.4357
 3062SOL    HW212014   6.345   6.331   3.817  0.4982  0.1124 -1.7817
 3062SOL    HW312015   6.327   6.459   3.738 -1.8842  0.8101 -0.2082
 3062SOL    MW412016   6.360   6.416   3.807 -0.0914 -0.3312 -0.0412
 3063SOL     OW12017   4.951   6.374   2.972  0.3851 -0.2251  0.3267
 3063SOL    HW212018   4.930   6.408   2.885 -1.5876  1.6825  1.4610
 3063SOL    HW312019   5.034   6.327   2.959  0.7411  0.9144 -2.3396
 3063SOL    MW412020   4.959   6.372   2.959 -0.6262 -0.0587 -0.4232
 3064SOL     OW12021   3.817   3.815   3.939  0.4153 -1.2728 -0.2240
 3064SOL    HW212022   3.831   3.720   3.946 -1.3744 -1.5519  0.0665
 3064SOL    HW312023   3.881   3.844   3.874  2.6072 -2.2690  1.3882
 3064SOL    MW412024   3.827   3.806   3.931 -0.3687  0.5120 -0.3319
 3065SOL     OW12025   0.251   5.987   0.252  0.5858  0.1430 -0.2035
 3065SOL    HW212026   0.236   6.071   0.295  0.3198 -0.4089  0.8035
 3065SOL    HW312027   0.167   5.966   0.210  0.5916  0.2687 -0.2813
 3065SOL    MW412028   0.238   5.995   0.252 -0.1415  0.3133  0.6104
 3066SOL     OW12029   3.748   5.907   0.215 -0.0952  0.3204  0.6586
 3066SOL    HW212030   3.740   5.830   0.271 -0.7932  0.3480  0.6035
 3066SOL    HW312031   3.763   5.872   0.128 -0.0055  0.2582  0.6986
 3066SOL    MW412032   3.749   5.892   0.211  0.1624  0.2905 -0.1023
 3067SOL     OW12033   4.055   4.765   2.564  0.2989 -0.4252 -0.3248
 3067SOL    HW212034   4.093   4.707   2.498 -0.6694  1.2929 -2.4971
 3067SOL    HW312035   4.109   4.844   2.560 -0.2993  0.0267  0.3592
 3067SOL    MW412036   4.067   4.768   2.555 -1.0169 -0.4105 -0.2972
 3068SOL     OW12037   1.760   4.987   0.661 -0.2249 -0.3733  0.1041
 3068SOL    HW212038   1.839   4.964   0.709 -0.6581  1.4576  1.8520
 3068SOL    HW312039   1.710   4.905   0.656  0.4200 -0.9023  1.7184
 3068SOL    MW412040   1.764   4.973   0.667  0.2618 -0.3219  0.1059
 3069SOL     OW12041   3.852   0.031   3.088  0.5929  0.2094 -0.2511
 3069SOL    HW212042   3.799   0.079   3.152  0.3627  0.8423 -0.9038
 3069SOL    HW312043   3.789   0.003   3.021  1.1478  1.5061 -1.3614
 3069SOL    MW412044   3.836   0.033   3.087 -0.0300 -0.1525 -0.0908
 3070SOL     OW12045   1.220   0.125   0.776 -0.1121  0.0842  0.3542
 3070SOL    HW212046   1.149   0.130   0.840 -0.2553 -0.9145  0.2794
 3070SOL    HW312047   1.192   0.059   0.713  0.0297  1.0517 -0.7561
 3070SOL    MW412048   1.207   0.117   0.776 -0.4324 -0.0195  0.1306
 3071SOL     OW12049   1.271   2.534   4.516 -0.5845  0.6245 -0.6210
 3071SOL    HW212050   1.353   2.484   4.513  0.1014  1.6421  0.4703
 3071SOL    HW312051   1.257   2.563   4.425 -1.0501 -1.5638 -1.3015
 3071SOL    MW412052   1.280   2.531   4.503  0.1062  0.4058  0.0480
 3072SOL     OW12053   2.781   0.085   1.753 -0.0755 -0.4269  0.4087
 3072SOL    HW212054   2.715   0.151   1.772  0.4544 -0.2911  1.9248
 3072SOL    HW312055   2.732   0.010   1.719 -1.1858 -0.7766  2.6457
 3072SOL    MW412056   2.766   0.084   1.751 -0.3990  0.3233  0.4417
 3073SOL     OW12057   0.197   5.466   3.450 -0.1842  0.1304 -0.4295
 3073SOL    HW212058   0.251   5.536   3.486  0.9746  1.0524 -3.6451
 3073SOL    HW312059   0.259   5.398   3.426 -0.9525 -0.5985 -0.3975
 3073SOL    MW412060   0.212   5.466   3.452 -0.1525 -0.1772  0.1049
 3074SOL     OW12061   4.370   5.309   4.676 -0.3914 -0.3634  0.4353
 3074SOL    HW212062   4.291   5.308   4.623 -0.4704  3.2275  0.2182
 3074SOL    HW312063   4.357   5.381   4.738  2.5589  0.2190  0.5569
 3074SOL    MW412064   4.358   5.318   4.677  0.7630 -0.3403 -0.1378
 3075SOL     OW12065   5.098   0.741   3.458 -0.2015  0.1591  0.7045
 3075SOL    HW212066   5.080   0.658   3.414 -1.5049 -0.1084  1.6914
 3075SOL    HW312067   5.112   0.804   3.387 -0.0975 -0.7162 -0.0573
 3075SOL    MW412068   5.098   0.739   3.443  0.2540  0.1417 -0.2044
 3076SOL     OW12069   2.001   6.253   1.611 -0.0080  0.1521 -0.1732
 3076SOL    HW212070   1.973   6.339   1.642  0.1298 -0.2913  1.2153
 3076SOL    HW312071   1.925   6.197   1.627  0.1295 -0.1282 -0.4940
 3076SOL    MW412072   1.987   6.257   1.617 -0.8261  0.1244 -0.1560
 3077SOL     OW12073   1.710   0.494   5.748 -0.2450 -0.1072 -0.0069
 3077SOL    HW212074   1.763   0.473   5.825  0.3453  1.5016  0.0643
 3077SOL    HW312075   1.760   0.461   5.674 -0.5997 -1.2605  0.2481
 3077SOL    MW412076   1.724   0.487   5.748 -0.1444  0.0467  0.1612
 3078SOL     OW12077   2.842   2.057   4.879  0.0286 -0.2310  0.4233
 3078SOL    HW212078   2.874   2.104   4.802  0.1822 -0.1933  0.5098
 3078SOL    HW312079   2.839   1.966   4.852 -0.5427 -0.1368  0.1613
 3078SOL    MW412080   2.846   2.051   4.866  0.3862  0.3684  0.1711
 3079SOL     OW12081   5.300   5.034   1.194 -0.6482 -0.1159  0.2518
 3079SOL    HW212082   5.262   5.116   1.225  0.2427  0.0627  0.9326
 3079SOL    HW312083   5.378   5.061   1.145 -0.6656 -0.5284 -0.0051
 3079SOL    MW412084   5.306   5.048   1.191 -0.4144  0.1506 -0.0357
 3080SOL     OW12085   1.277   0.777   0.921 -0.1068  0.5983 -0.0988
 3080SOL    HW212086   1.231   0.695   0.935  1.2096 -0.1972 -0.3297
 3080SOL    HW312087   1.269   0.823   1.005  0.9923 -0.7235  0.7813
 3080SOL    MW412088   1.270   0.773   0.934  0.0581 -0.2856  0.3435
 3081SOL     OW12089   4.821   4.799   3.013 -0.0774  0.5094  0.1143
 3081SOL    HW212090   4.878   4.736   2.969 -0.7988  0.6000 -0.9812
 3081SOL    HW312091   4.881   4.866   3.045  0.5314  0.1172 -0.1762
 3081SOL    MW412092   4.836   4.800   3.011  0.3687 -0.3745 -0.1799
 3082SOL     OW12093   3.674   5.648   2.082  0.0736  0.3898  0.2146
 3082SOL    HW212094   3.692   5.565   2.125  0.1174  0.1104 -0.3326
 3082SOL    HW312095   3.642   5.623   1.995 -0.7303  0.9224  0.3411
 3082SOL    MW412096   3.672   5.634   2.076 -0.1780 -0.5818  0.4636
 3083SOL     OW12097   1.527   0.139   5.282 -0.4114 -0.4097  0.3766
 3083SOL    HW212098   1.489   0.106   5.363 -0.8767 -2.1565 -0.5178
 3083SOL    HW312099   1.463   0.201   5.249 -0.6443 -0.3771  0.8731
 3083SOL    MW412100   1.514   0.143   5.289  0.2973  0.3833  0.4171
 3084SOL     OW12101   2.650   5.689   5.120  0.4217  0.4250  0.0643
 3084SOL    HW212102   2.589   5.622   5.152  0.7104  0.0931 -0.0655
 3084SOL    HW312103   2.657   5.673   5.026  1.3373 -0.0787  0.2040
 3084SOL    MW412104   2.643   5.678   5.112 -0.3882 -0.4642 -0.8914
 3085SOL     OW12105   0.874   3.349   3.730 -0.0914 -0.2997  0.5588
 3085SOL    HW212106   0.960   3.388   3.744  0.6482 -1.4429 -0.5647
 3085SOL    HW312107   0.821   3.421   3.695  0.8187  0.0760 -0.1068
 3085SOL    MW412108   0.878   3.364   3.728  0.2331  0.1637 -0.1897
 3086SOL     OW12109   3.528   1.671   2.648 -0.3703  0.5837  0.1117
 3086SOL    HW212110   3.502   1.621   2.571 -0.7207  0.4789  0.2946
 3086SOL    HW312111   3.522   1.763   2.621 -0.2249  0.5403 -0.0687
 3086SOL    MW412112   3.524   1.677   2.635  0.8032 -0.0090 -0.1700
 3087SOL     OW12113   2.039   4.323   1.778  0.0035 -0.2428  0.2060
 3087SOL    HW212114   2.133   4.308   1.769 -0.0747  0.1277 -1.4551
 3087SOL    HW312115   2.029   4.358   1.867  1.5052  0.2629  0.2065
 3087SOL    MW412116   2.050   4.326   1.789 -0.1162  0.1680  0.1427
 3088SOL     OW12117   2.344   6.193   4.947  1.0284 -0.5995 -0.1056
 3088SOL    HW212118   2.415   6.168   5.006  1.8535  0.0504 -0.7946
 3088SOL    HW312119   2.278   6.232   5.004  0.6567 -2.3207  0.7074
 3088SOL    MW412120   2.345   6.195   4.962  0.0175 -0.3078 -0.4631
 3089SOL     OW12121   3.455   3.716   1.340  0.0747 -0.7558  0.4951
 3089SOL    HW212122   3.426   3.635   1.297 -3.1653  0.5015  0.0539
 3089SOL    HW312123   3.387   3.734   1.404  2.1824  0.2003  2.5904
 3089SOL    MW412124   3.442   3.708   1.343  0.7997 -0.1498  0.1734
 3090SOL     OW12125   4.653   3.941   0.684 -0.1792  0.5193  0.1782
 3090SOL    HW212126   4.640   4.001   0.757  2.8947  2.6680 -0.8688
 3090SOL    HW312127   4.652   3.996   0.606  1.0155 -1.0397 -1.0033
 3090SOL    MW412128   4.651   3.956   0.684 -0.0051 -0.2085 -0.3197
 3091SOL     OW12129   1.584   4.771   5.462  0.0870  0.2139 -0.0861
 3091SOL    HW212130   1.658   4.756   5.521 -1.0589  1.2516  1.7247
 3091SOL    HW312131   1.601   4.715   5.386  2.0017 -0.6205  0.9048
 3091SOL    MW412132   1.596   4.762   5.460 -0.2820  0.1901 -0.5375
 3092SOL     OW12133   3.363   5.189   4.360  0.2168 -0.3639  0.3061
 3092SOL    HW212134   3.326   5.101   4.369 -0.8045  0.0268  0.0834
 3092SOL    HW312135   3.288   5.244   4.334  1.3697  0.0637 -2.4238
 3092SOL    MW412136   3.348   5.185   4.358  1.3275  0.0600  0.7652
 3093SOL     OW12137   3.249   6.120   3.292 -0.8272 -0.1446  0.0050
 3093SOL    HW212138   3.187   6.164   3.234 -1.3595  0.3678  0.9327
 3093SOL    HW312139   3.269   6.037   3.248 -0.9419  0.3766 -1.0670
 3093SOL    MW412140   3.244   6.115   3.279  0.5667 -0.0192 -0.4075
 3094SOL     OW12141   1.915   6.294   5.352 -0.2935 -0.3930 -0.1941
 3094SOL    HW212142   1.888   6.380   5.321 -1.4373  0.0476  1.8397
 3094SOL    HW312143   1.843   6.236   5.326 -1.6256  0.1163  2.1184
 3094SOL    MW412144   1.902   6.298   5.344  0.3223  0.5884  0.1081
 3095SOL     OW12145   0.957   2.901   1.117  0.9256  0.0045 -0.5894
 3095SOL    HW212146   0.904   2.822   1.118 -0.8579  1.0908 -2.3961
 3095SOL    HW312147   0.991   2.907   1.028  1.3944  1.0476 -0.3622
 3095SOL    MW412148   0.954   2.891   1.105 -0.2306 -0.0859  0.4573
 3096SOL     OW12149   2.477   1.978   2.567  0.3554 -0.0756 -0.4212
 3096SOL    HW212150   2.388   2.006   2.588  0.9811  1.1888  0.7208
 3096SOL    HW312151   2.533   2.036   2.618  1.8361 -1.2826 -0.5961
 3096SOL    MW412152   2.472   1.989   2.576  0.5368 -0.3245  0.4721
 3097SOL     OW12153   3.145   2.506   3.861 -0.5615 -0.8078 -0.5528
 3097SOL    HW212154   3.126   2.569   3.930 -1.8600 -0.2215 -1.4183
 3097SOL    HW312155   3.238   2.518   3.843 -0.6857  0.5667 -0.4012
 3097SOL    MW412156   3.155   2.516   3.868 -0.4135 -0.3167 -0.0600
 3098SOL     OW12157   3.735   3.562   4.240 -0.3170 -0.2557  0.3813
 3098SOL    HW212158   3.816   3.511   4.233 -1.0325 -1.3892  0.2428
 3098SOL    HW312159   3.668   3.498   4.263 -1.4372  0.4242 -0.8566
 3098SOL    MW412160   3.737   3.547   4.242  0.0100  0.2987 -0.1950
 3099SOL     OW12161   4.197   3.073   5.999  0.0809 -0.2602 -0.1525
 3099SOL    HW212162   4.150   3.007   5.950  1.0130 -0.0501 -1.3943
 3099SOL    HW312163   4.143   3.152   5.993  0.5347 -0.0244 -1.5516
 3099SOL    MW412164   4.184   3.075   5.992  0.5475 -0.0666  0.2965
 3100SOL     OW12165   1.104   3.483   3.787  0.6804  0.4916 -0.0503
 3100SOL    HW212166   1.152   3.462   3.867  1.7870  1.2075 -0.4896
 3100SOL    HW312167   1.109   3.578   3.780  1.3729  0.3904 -1.4074
 3100SOL    MW412168   1.111   3.493   3.796  0.1096  0.5143 -0.0204
 3101SOL     OW12169   4.452   0.182   1.384  0.1838 -0.5512  0.2856
 3101SOL    HW212170   4.401   0.181   1.465 -0.3183 -0.6180 -0.0287
 3101SOL    HW312171   4.388   0.162   1.315  0.6467 -0.7076 -0.1027
 3101SOL    MW412172   4.437   0.179   1.386  0.4525  0.1150  0.3355
 3102SOL     OW12173   1.634   0.207   3.126 -0.4145 -0.4021 -0.3190
 3102SOL    HW212174   1.585   0.236   3.203 -1.4002  0.1113 -1.1011
 3102SOL    HW312175   1.700   0.147   3.160 -0.0227  0.7676  1.0612
 3102SOL    MW412176   1.636   0.203   3.141  0.0133  0.3853 -0.0710
 3103SOL     OW12177   0.674   2.521   2.410 -0.0283 -0.6124  0.6616
 3103SOL    HW212178   0.697   2.520   2.503 -0.8121  0.0327  0.8753
 3103SOL    HW312179   0.579   2.522   2.409 -0.0318  0.5056 -0.1223
 3103SOL    MW412180   0.665   2.521   2.422 -0.2123 -0.2904 -0.1311
 3104SOL     OW12181   5.800   2.015   3.728  0.4249 -0.2625 -0.0426
 3104SOL    HW212182   5.872   1.969   3.684 -0.0097 -0.3772 -0.6569
 3104SOL    HW312183   5.723   1.994   3.675 -0.2158 -0.8172  1.0694
 3104SOL    MW412184   5.799   2.006   3.715 -0.6538 -0.4110  0.1454
 3105SOL     OW12185   2.074   5.373   2.315 -0.0694  0.0886 -0.3160
 3105SOL    HW212186   1.980   5.385   2.296 -0.4816 -2.8671 -0.5266
 3105SOL    HW312187   2.076   5.328   2.400  1.1897  0.1647 -0.2871
 3105SOL    MW412188   2.062   5.369   2.324 -0.2441  0.1655  0.4277
 3106SOL     OW12189   5.550   3.114   5.024 -0.9156  0.0430  0.0461
 3106SOL    HW212190   5.498   3.036   5.005 -1.9757  0.3483  1.5159
 3106SOL    HW312191   5.632   3.100   4.977 -1.6612 -1.2542 -0.9344
 3106SOL    MW412192   5.554   3.102   5.015 -0.4833 -0.6652 -0.0433
 3107SOL     OW12193   4.174   1.632   1.916  0.1924 -0.1154  0.1394
 3107SOL    HW212194   4.107   1.693   1.944  0.2646 -0.3019  0.7375
 3107SOL    HW312195   4.206   1.593   1.998  1.2936  0.2497 -0.1040
 3107SOL    MW412196   4.170   1.635   1.931 -0.2325  0.3858  0.0100
 3108SOL     OW12197   3.547   5.685   4.032 -0.5515  0.6158  0.2374
 3108SOL    HW212198   3.501   5.756   3.988  0.2127  0.1978 -1.2969
 3108SOL    HW312199   3.574   5.626   3.961 -2.0473 -1.7671  1.4981
 3108SOL    MW412200   3.544   5.686   4.017  0.1617  0.1934 -0.0721
 3109SOL     OW12201   5.164   2.911   1.234 -0.1291  0.4239  0.2356
 3109SOL    HW212202   5.088   2.965   1.212 -0.5912  1.0236  2.9352
 3109SOL    HW312203   5.233   2.975   1.252 -0.0994  0.0563  1.4825
 3109SOL    MW412204   5.163   2.927   1.233  0.3538  0.2862  0.3777
 3110SOL     OW12205   3.608   1.265   6.413 -0.8752 -0.6687 -0.0409
 3110SOL    HW212206   3.680   1.282   6.352 -1.5447  1.1697 -0.4014
 3110SOL    HW312207   3.531   1.302   6.370 -1.0820  2.5001  2.6298
 3110SOL    MW412208   3.608   1.272   6.399 -0.0255 -0.4030  0.4884
 3111SOL     OW12209   0.941   5.814   5.878  0.2313  0.2198 -0.3444
 3111SOL    HW212210   1.007   5.745   5.869  1.5482  1.3497  0.2282
 3111SOL    HW312211   0.896   5.793   5.960  0.4067 -0.1278 -0.3334
 3111SOL    MW412212   0.944   5.802   5.888 -0.0730  0.2182  0.4561
 3112SOL     OW12213   4.334   2.915   5.560 -0.3081  0.3693  0.3728
 3112SOL    HW212214   4.248   2.912   5.518 -0.8016 -1.2358  1.4089
 3112SOL    HW312215   4.347   2.827   5.596  1.6097  0.6890  0.5763
 3112SOL    MW412216   4.324   2.903   5.559 -0.6548  0.1621  0.4076
 3113SOL     OW12217   4.254   1.830   0.774  0.3060  0.1923 -0.1669
 3113SOL    HW212218   4.326   1.884   0.806  1.3688 -1.0751 -0.3175
 3113SOL    HW312219   4.247   1.760   0.839 -0.2472 -0.1455 -0.5846
 3113SOL    MW412220   4.263   1.828   0.787  0.1365  0.1148 -0.1525
 3114SOL     OW12221   1.668   1.862   3.222  0.1354  0.0613 -0.0188
 3114SOL    HW212222   1.662   1.777   3.267 -0.2398  1.3262  2.4749
 3114SOL    HW312223   1.760   1.885   3.228  0.1423  0.0746 -0.1898
 3114SOL    MW412224   1.679   1.854   3.229  0.2741 -0.0278  0.7098
 3115SOL     OW12225   3.019   3.178   5.620  0.2017  0.4261  0.0163
 3115SOL    HW212226   3.100   3.193   5.570 -0.9890  0.3012 -2.1013
 3115SOL    HW312227   3.036   3.098   5.669  1.2017  0.1380 -0.7619
 3115SOL    MW412228   3.032   3.169   5.620 -0.4050  0.3699  0.3255
 3116SOL     OW12229   3.148   1.685   5.313  0.7835 -0.6396 -0.4799
 3116SOL    HW212230   3.078   1.709   5.251 -0.8640 -1.0108  1.1607
 3116SOL    HW312231   3.143   1.752   5.381  2.0606 -0.6737 -0.3296
 3116SOL    MW412232   3.138   1.697   5.314 -0.3796  0.0501 -0.1030
 3117SOL     OW12233   5.929   5.368   4.028  0.2106  0.5996  0.3109
 3117SOL    HW212234   5.947   5.284   3.985 -0.3754 -0.1196  1.4050
 3117SOL    HW312235   6.005   5.383   4.084 -0.0818  0.3484  0.7786
 3117SOL    MW412236   5.941   5.359   4.030 -0.1748  0.3405  0.4326
 3118SOL     OW12237   2.935   2.709   0.661 -0.5862 -0.0466 -0.0301
 3118SOL    HW212238   3.006   2.707   0.597 -2.1519  0.8233 -1.8686
 3118SOL    HW312239   2.899   2.620   0.660  0.2812 -0.4324  0.7568
 3118SOL    MW412240   2.940   2.697   0.653  0.7479 -0.3683 -0.5828
 3119SOL     OW12241   0.332   1.123   0.895 -0.1730 -0.7469  0.4821
 3119SOL    HW212242   0.248   1.141   0.852 -0.4408 -3.2774 -0.2014
 3119SOL    HW312243   0.308   1.083   0.979  0.3315 -0.9667  0.5282
 3119SOL    MW412244   0.318   1.120   0.901 -0.1374  0.1722  0.3067
 3120SOL     OW12245   6.004   2.952   3.804  0.2849  0.0428  0.1709
 3120SOL    HW212246   5.991   3.044   3.828  1.0069  0.1526  0.1612
 3120SOL    HW312247   5.962   2.944   3.718  0.1400  0.3373  0.2100
 3120SOL    MW412248   5.996   2.963   3.796  0.1478 -0.2525  0.1412
 3121SOL     OW12249   4.742   4.750   1.543 -1.0372 -0.0422 -0.0258
 3121SOL    HW212250   4.775   4.661   1.558 -1.5496 -0.3695 -0.7664
 3121SOL    HW312251   4.800   4.806   1.595 -2.1645 -0.9881  2.4009
 3121SOL    MW412252   4.754   4.746   1.552 -0.5103  0.1279 -0.3780
 3122SOL     OW12253   3.250   5.165   4.004 -0.4234 -0.3666  0.8760
 3122SOL    HW212254   3.284   5.076   4.011 -0.8626 -0.6996 -0.6760
 3122SOL    HW312255   3.235   5.193   4.094 -3.7194 -3.2415  1.4283
 3122SOL    MW412256   3.253   5.157   4.017  0.0327  0.4656 -0.1272
 3123SOL     OW12257   4.325   6.313   2.436  0.1058 -0.1934 -0.4166
 3123SOL    HW212258   4.248   6.332   2.382  1.1535  0.9218 -1.6084
 3123SOL    HW312259   4.364   6.235   2.396 -0.1055 -0.4246 -0.1667
 3123SOL    MW412260   4.320   6.305   2.423 -0.2480  0.0345  0.3916
 3124SOL     OW12261   2.931   1.772   5.151  0.3086 -0.5539 -0.9115
 3124SOL    HW212262   2.908   1.681   5.167  2.0022 -0.7832  0.5585
 3124SOL    HW312263   2.887   1.820   5.221  2.4586 -0.7724  0.7155
 3124SOL    MW412264   2.922   1.766   5.163 -0.0475 -0.1001 -0.8851
 3125SOL     OW12265   3.014   2.975   1.185 -0.0563  0.0063 -0.6103
 3125SOL    HW212266   3.032   2.911   1.117  1.2981  0.4312 -0.6712
 3125SOL    HW312267   2.981   2.924   1.258 -0.8227 -0.5339 -1.3098
 3125SOL    MW412268   3.012   2.960   1.185 -0.6395  0.2551  0.0389
 3126SOL     OW12269   0.746   3.540   0.319 -0.0694  0.8704 -0.4590
 3126SOL    HW212270   0.670   3.526   0.375  0.8510  0.9320  0.8521
 3126SOL    HW312271   0.721   3.503   0.234 -0.9110 -0.6831  0.4326
 3126SOL    MW412272   0.733   3.534   0.315 -0.5155  0.1617  0.5386
 3127SOL     OW12273   5.897   2.419   3.124 -0.7035  0.0461 -0.1719
 3127SOL    HW212274   5.830   2.370   3.076 -2.7011  0.2454  2.2119
 3127SOL    HW312275   5.880   2.399   3.216  2.1049  0.7174  0.5903
 3127SOL    MW412276   5.886   2.410   3.130 -0.4522  0.2336 -0.3208
 3128SOL     OW12277   3.726   0.891   6.080 -0.0488  0.3031 -0.1398
 3128SOL    HW212278   3.754   0.947   6.008 -0.5640  0.1178 -0.4841
 3128SOL    HW312279   3.762   0.805   6.059  0.2731  0.3723  0.1107
 3128SOL    MW412280   3.735   0.887   6.068 -0.1660 -0.7487 -0.5776
 3129SOL     OW12281   3.679   1.701   0.912 -0.7292  0.0796 -0.0065
 3129SOL    HW212282   3.697   1.794   0.894  1.5567 -0.0515  1.1399
 3129SOL    HW312283   3.601   1.681   0.861 -0.7340  2.3895 -1.0398
 3129SOL    MW412284   3.671   1.711   0.903 -0.0959  0.5318  0.0668
 3130SOL     OW12285   0.103   0.591   3.758  0.2373 -0.6120  0.3900
 3130SOL    HW212286   0.079   0.507   3.719 -1.6324 -0.7318  1.6551
 3130SOL    HW312287   0.189   0.576   3.796  0.8851 -1.2876 -1.2519
 3130SOL    MW412288   0.111   0.578   3.758  0.4296 -0.3311 -0.0822
 3131SOL     OW12289   2.588   0.925   1.080  0.5507 -0.2356  0.5436
 3131SOL    HW212290   2.581   0.835   1.113 -0.2859  0.0942  1.2855
 3131SOL    HW312291   2.635   0.972   1.149 -0.3257  0.2291  0.8303
 3131SOL    MW412292   2.594   0.919   1.093 -0.1080 -0.0083  0.9068
 3132SOL     OW12293   6.410   6.040   4.225 -0.4008  0.1426 -0.0122
 3132SOL    HW212294   6.493   6.010   4.263  0.4761 -0.0555 -1.9599
 3132SOL    HW312295   6.353   5.964   4.229 -0.1257 -0.0510  0.3326
 3132SOL    MW412296   6.413   6.026   4.231 -0.1472  0.4311 -0.3815
 3133SOL     OW12297   1.928   1.402   1.479 -0.7080 -0.8522  0.3030
 3133SOL    HW212298   1.936   1.465   1.408 -0.3685  0.1554  1.2166
 3133SOL    HW312299   1.888   1.325   1.438  0.6304 -0.7767 -1.2601
 3133SOL    MW412300   1.924   1.400   1.464 -0.2515  0.4569 -0.3376
 3134SOL     OW12301   0.254   1.877   0.809 -0.1871 -0.0658  0.0591
 3134SOL    HW212302   0.173   1.837   0.776  0.1267  0.6818 -1.7087
 3134SOL    HW312303   0.259   1.961   0.764  2.0533 -0.5047 -0.5884
 3134SOL    MW412304   0.244   1.883   0.799  0.1318 -1.4006  0.0377
 3135SOL     OW12305   4.910   5.062   3.660  0.2091 -0.8198  0.2780
 3135SOL    HW212306   4.817   5.082   3.665  0.0882 -1.1892 -0.2943
 3135SOL    HW312307   4.944   5.080   3.747 -0.3436 -0.4147  0.4128
 3135SOL    MW412308   4.902   5.067   3.672 -0.3829  0.2308  0.4047
 3136SOL     OW12309   3.166   4.695   0.280 -0.2941  0.2544  0.0500
 3136SOL    HW212310   3.193   4.618   0.330  0.0749 -0.0347 -0.5735
 3136SOL    HW312311   3.071   4.700   0.291 -1.0316 -2.7256 -3.1574
 3136SOL    MW412312   3.157   4.686   0.288 -0.0942 -0.3113 -0.5729
 3137SOL     OW12313   0.300   0.173   5.155 -0.0553 -0.2661 -0.1301
 3137SOL    HW212314   0.356   0.114   5.205 -0.2666  1.9170  2.9606
 3137SOL    HW312315   0.359   0.222   5.099  0.4354 -1.5007 -0.7203
 3137SOL    MW412316   0.315   0.172   5.154 -0.1928  0.6860 -0.3113
 3138SOL     OW12317   6.398   4.943   2.048 -0.1489  0.2792  0.1313
 3138SOL    HW212318   6.347   4.917   1.971 -0.6708  1.5369  0.0154
 3138SOL    HW312319   6.489   4.940   2.019 -0.3346  0.5970 -0.5064
 3138SOL    MW412320   6.403   4.939   2.034  0.2673  0.4650  0.4968
 3139SOL     OW12321   2.679   4.535   5.529 -0.2785 -0.1151  0.3022
 3139SOL    HW212322   2.665   4.498   5.442 -0.4255 -0.4103  0.4482
 3139SOL    HW312323   2.693   4.628   5.514 -3.4107  0.4634  0.2042
 3139SOL    MW412324   2.679   4.542   5.516  0.3396  0.5480 -0.0937
 3140SOL     OW12325   2.271   5.314   0.266  0.1935 -0.2337 -0.2523
 3140SOL    HW212326   2.296   5.222   0.258 -0.1095 -0.3645  0.2843
 3140SOL    HW312327   2.216   5.331   0.190 -2.8348 -1.5180  1.5132
 3140SOL    MW412328   2.267   5.304   0.255  0.0436  0.3086  0.3337
 3141SOL     OW12329   5.343   1.137   3.271  0.4500 -0.0463  0.8569
 3141SOL    HW212330   5.303   1.186   3.343  0.4836 -0.1179  0.9239
 3141SOL    HW312331   5.411   1.196   3.238 -1.8103  1.5270 -1.4267
 3141SOL    MW412332   5.347   1.152   3.276  0.1071  0.1252  0.5640
 3142SOL     OW12333   1.831   5.652   0.519 -0.0051 -0.0510 -0.0316
 3142SOL    HW212334   1.842   5.563   0.552  3.3131 -0.3062 -1.4454
 3142SOL    HW312335   1.917   5.676   0.486 -1.3132  2.9114 -1.6866
 3142SOL    MW412336   1.843   5.644   0.519 -0.2938  0.0032  0.2854
 3143SOL     OW12337   1.240   5.212   2.765  0.2531  0.3208 -0.6300
 3143SOL    HW212338   1.183   5.217   2.688 -0.0607 -0.8886 -0.4900
 3143SOL    HW312339   1.181   5.203   2.839  0.5888 -0.6709 -0.4594
 3143SOL    MW412340   1.225   5.211   2.765 -0.1169 -0.6657 -0.0918
 3144SOL     OW12341   3.789   4.874   4.039  0.2871 -0.4646  0.7517
 3144SOL    HW212342   3.803   4.807   4.105  1.5647 -1.2479 -0.2733
 3144SOL    HW312343   3.876   4.898   4.009 -0.2529 -0.1138 -0.6293
 3144SOL    MW412344   3.802   4.868   4.044 -0.0946  1.0399 -0.5666
 3145SOL     OW12345   0.499   5.096   4.535  0.4538  0.4068 -0.3275
 3145SOL    HW212346   0.483   5.187   4.562 -1.9221  0.3427 -1.2741
 3145SOL    HW312347   0.427   5.047   4.575  1.2407 -0.9448 -0.5119
 3145SOL    MW412348   0.487   5.101   4.544  0.1894  0.0640  0.1955
 3146SOL     OW12349   0.041   0.799   0.318 -0.1489 -0.0578 -0.2278
 3146SOL    HW212350  -0.036   0.769   0.367 -0.6327  1.5740  0.1066
 3146SOL    HW312351   0.099   0.836   0.385 -0.4368  1.4326 -0.7587
 3146SOL    MW412352   0.038   0.800   0.333  0.1646 -0.0371 -0.1555
 3147SOL     OW12353   5.669   2.598   6.032  0.2703 -0.5503 -0.6113
 3147SOL    HW212354   5.602   2.638   6.087  0.6460  0.6194 -0.9539
 3147SOL    HW312355   5.718   2.541   6.091  2.2874  2.5876  0.9997
 3147SOL    MW412356   5.667   2.596   6.047  0.0850  0.1980  0.5051
 3148SOL     OW12357   4.780   4.374   1.903 -0.4218  0.1988  0.3307
 3148SOL    HW212358   4.848   4.308   1.895 -1.1144 -0.3732 -1.1920
 3148SOL    HW312359   4.824   4.457   1.882 -0.1623 -0.1531 -0.5559
 3148SOL    MW412360   4.794   4.377   1.899 -0.2042 -0.1925 -0.0221
 3149SOL     OW12361   2.270   2.426   1.330 -0.1045 -0.4562  0.3096
 3149SOL    HW212362   2.242   2.505   1.282 -0.0460  0.6678  2.0360
 3149SOL    HW312363   2.364   2.422   1.317 -0.2567 -0.9727 -0.7853
 3149SOL    MW412364   2.278   2.436   1.322 -0.3109 -0.2177 -0.0482
 3150SOL     OW12365   1.583   2.543   2.856  0.4749  0.0415  0.3214
 3150SOL    HW212366   1.577   2.581   2.768 -0.6668 -1.2940 -0.2006
 3150SOL    HW312367   1.543   2.609   2.913 -0.1334  0.2785 -0.3654
 3150SOL    MW412368   1.577   2.557   2.852 -0.0443 -0.0229 -0.1154
 3151SOL     OW12369   0.918   6.059   4.484  0.1728  0.0436  0.0239
 3151SOL    HW212370   0.923   6.082   4.391  2.2668 -0.5311 -0.0654
 3151SOL    HW312371   0.867   5.978   4.486  1.9268 -1.1416 -0.9223
 3151SOL    MW412372   0.912   6.052   4.472  0.4512  0.0127  0.4638
 3152SOL     OW12373   2.222   0.138   4.857  0.2717  1.1437  0.0120
 3152SOL    HW212374   2.141   0.090   4.838  0.6447  1.0821 -1.5148
 3152SOL    HW312375   2.292   0.074   4.845  0.6522  1.5942 -0.1942
 3152SOL    MW412376   2.220   0.123   4.853 -0.6906  0.0961 -0.8569
 3153SOL     OW12377   5.523   2.166   0.423 -0.0635 -0.4237  0.1459
 3153SOL    HW212378   5.566   2.192   0.504 -1.0355  0.4448  0.4037
 3153SOL    HW312379   5.567   2.216   0.355  1.0371 -1.4667  0.0615
 3153SOL    MW412380   5.534   2.176   0.425  0.1034 -0.3264 -0.0352
 3154SOL     OW12381   2.956   0.225   4.753  0.3072 -0.3485 -0.0773
 3154SOL    HW212382   2.941   0.131   4.761  0.8901 -0.3712  1.0070
 3154SOL    HW312383   2.960   0.256   4.844 -5.0054  1.5940 -0.1851
 3154SOL    MW412384   2.955   0.217   4.766 -0.0416  0.5472  0.5750
 3155SOL     OW12385   2.429   2.322   0.500  0.1253  0.1686  0.3584
 3155SOL    HW212386   2.348   2.370   0.484 -0.5220 -1.0547 -0.1833
 3155SOL    HW312387   2.462   2.357   0.583  0.3466  2.3704 -0.5810
 3155SOL    MW412388   2.423   2.333   0.509 -0.5858 -0.1186 -0.4959
 3156SOL     OW12389   2.424   6.375   6.383 -0.5236 -0.4283 -0.1244
 3156SOL    HW212390   2.330   6.393   6.379 -0.2234  1.1585 -1.4511
 3156SOL    HW312391   2.464   6.461   6.397  0.7895 -0.9164 -0.6914
 3156SOL    MW412392   2.417   6.389   6.384  0.5713 -0.0816  0.2232
 3157SOL     OW12393   6.129   2.217   1.109 -0.1347  0.4591 -0.2293
 3157SOL    HW212394   6.161   2.133   1.142  0.4184 -0.3953 -2.7169
 3157SOL    HW312395   6.039   2.199   1.081  0.3956  0.2667 -1.9648
 3157SOL    MW412396   6.121   2.203   1.110  0.0289 -0.1154  0.4897
 3158SOL     OW12397   5.164   1.893   4.014  0.1122  0.0242 -0.3382
 3158SOL    HW212398   5.190   1.875   3.924  1.6562  0.7438 -0.0695
 3158SOL    HW312399   5.069   1.894   4.012  0.1053  1.3108 -2.2447
 3158SOL    MW412400   5.155   1.891   4.002 -0.0701  0.0971 -0.4522
 3159SOL     OW12401   4.585   4.877   3.162 -0.4725 -0.0247 -0.4445
 3159SOL    HW212402   4.622   4.937   3.226 -1.0967 -0.6497  0.5299
 3159SOL    HW312403   4.661   4.846   3.112  0.3102 -0.8593  1.1535
 3159SOL    MW412404   4.600   4.881   3.164  0.4037 -0.3061 -0.1811
 3160SOL     OW12405   2.648   4.989   3.618  0.6074 -0.4250  0.2993
 3160SOL    HW212406   2.584   4.992   3.547  0.9597  0.6358  0.0102
 3160SOL    HW312407   2.596   5.007   3.697  0.6201  1.0545 -0.0030
 3160SOL    MW412408   2.632   4.992   3.619 -0.3038 -0.0536  0.6549
 3161SOL     OW12409   5.354   3.603   2.550  0.0646 -0.7370 -0.0233
 3161SOL    HW212410   5.400   3.609   2.634 -0.0374 -2.0348  0.1492
 3161SOL    HW312411   5.355   3.692   2.516  4.3358 -0.9290 -0.8972
 3161SOL    MW412412   5.360   3.616   2.557  0.1182  0.5004  0.4563
 3162SOL     OW12413   0.617   1.433   1.516 -0.0281  0.2432 -0.3023
 3162SOL    HW212414   0.658   1.381   1.584 -0.4450 -0.3967 -0.5314
 3162SOL    HW312415   0.677   1.506   1.502 -0.4273  0.9602  1.4587
 3162SOL    MW412416   0.630   1.436   1.523 -0.1271 -0.3858 -0.0153
 3163SOL     OW12417   1.081   5.097   0.008  0.0108 -0.3045 -0.3399
 3163SOL    HW212418   1.161   5.057   0.043  0.1562  0.9719  0.8380
 3163SOL    HW312419   1.109   5.136  -0.075  0.7575  0.5911  0.3135
 3163SOL    MW412420   1.095   5.097   0.002  0.3784  0.2614  0.0822
 3164SOL     OW12421   1.041   0.110   4.048  0.8017 -0.0315 -0.6678
 3164SOL    HW212422   0.967   0.169   4.031  0.6490 -0.0928 -0.2485
 3164SOL    HW312423   1.024   0.077   4.137  0.9513 -0.6121 -0.8521
 3164SOL    MW412424   1.029   0.113   4.058 -0.3078 -0.0880 -0.0682
 3165SOL     OW12425   5.614   2.697   4.367  0.3346  0.1851 -0.1059
 3165SOL    HW212426   5.669   2.719   4.292 -0.8173 -0.8397 -1.2873
 3165SOL    HW312427   5.589   2.781   4.404  0.8302  0.7118 -0.9390
 3165SOL    MW412428   5.618   2.711   4.362 -0.4406  0.0582  0.1572
 3166SOL     OW12429   2.358   3.189   5.764 -0.6482 -0.2022 -0.0880
 3166SOL    HW212430   2.366   3.223   5.853 -0.3730 -2.6149  0.8728
 3166SOL    HW312431   2.290   3.243   5.724 -1.0945  0.6429  1.7203
 3166SOL    MW412432   2.350   3.201   5.771 -0.1406 -0.0060  0.1511
 3167SOL     OW12433   4.995   5.259   0.150 -0.1983  0.1808 -0.1857
 3167SOL    HW212434   4.911   5.283   0.109 -0.5637  2.1659  1.5740
 3167SOL    HW312435   5.009   5.325   0.217  0.4733 -2.7160  2.8146
 3167SOL    MW412436   4.986   5.271   0.153  0.5645 -0.5945  0.3536
 3168SOL     OW12437   2.313   5.588   5.121 -0.6162  0.2755  0.1040
 3168SOL    HW212438   2.277   5.659   5.174  2.1747  2.4023 -0.6546
 3168SOL    HW312439   2.364   5.536   5.183 -0.9615  0.1450  0.2822
 3168SOL    MW412440   2.315   5.590   5.136  0.5254  0.8701  0.8571
 3169SOL     OW12441   3.538   4.345   6.148 -0.2830  0.0844 -0.6603
 3169SOL    HW212442   3.538   4.440   6.161  0.1652 -0.1109  0.9789
 3169SOL    HW312443   3.586   4.310   6.223 -3.1979 -1.6387  0.5742
 3169SOL    MW412444   3.544   4.353   6.159  0.1636  0.0668  0.0114
 3170SOL     OW12445   5.736   4.841   1.241  0.0472 -0.5817  0.2079
 3170SOL    HW212446   5.711   4.840   1.148  0.4170  1.0845  0.0587
 3170SOL    HW312447   5.732   4.749   1.267 -2.1314 -0.8728 -0.8776
 3170SOL    MW412448   5.732   4.828   1.232  0.3778 -0.5380  0.0825
 3171SOL     OW12449   2.965   4.054   4.024  0.1441  0.5148 -0.2361
 3171SOL    HW212450   2.938   4.104   4.101 -2.0111  0.2146 -0.7295
 3171SOL    HW312451   2.972   3.964   4.055  0.2805  0.5527 -0.1598
 3171SOL    MW412452   2.962   4.049   4.038 -0.2619 -0.2175  0.3000
 3172SOL     OW12453   1.140   5.789   3.572 -0.6511 -0.5217 -0.3381
 3172SOL    HW212454   1.188   5.780   3.490  0.1733  0.1006  0.0655
 3172SOL    HW312455   1.199   5.837   3.630 -1.5530 -0.2025  0.3454
 3172SOL    MW412456   1.154   5.794   3.569 -0.3155 -0.0468  0.4291
 3173SOL     OW12457   5.817   6.100   3.906  0.1854 -0.3834  0.3126
 3173SOL    HW212458   5.871   6.094   3.985  1.0057  1.2202 -0.0707
 3173SOL    HW312459   5.776   6.186   3.912 -0.4002 -0.5865 -0.6077
 3173SOL    MW412460   5.819   6.111   3.918  0.4191 -0.2392 -0.2960
 3174SOL     OW12461   5.653   5.179   1.954  0.1544  0.1922 -0.2250
 3174SOL    HW212462   5.651   5.269   1.920  0.9699  0.3431  0.0947
 3174SOL    HW312463   5.565   5.145   1.938 -0.0387  0.9075 -0.7333
 3174SOL    MW412464   5.641   5.186   1.947 -0.6394 -0.0441 -0.0515
 3175SOL     OW12465   1.488   2.751   3.032  0.2230  0.6026 -0.0625
 3175SOL    HW212466   1.505   2.772   3.124  2.2281 -1.9546  0.2662
 3175SOL    HW312467   1.393   2.735   3.028 -0.8398  5.3694  0.3660
 3175SOL    MW412468   1.478   2.751   3.044  0.2986 -0.1000 -0.3481
 3176SOL     OW12469   1.184   1.443   0.759  0.1783  0.0792  0.0253
 3176SOL    HW212470   1.244   1.369   0.768  0.3783  0.2957  0.4785
 3176SOL    HW312471   1.198   1.495   0.837  0.4496  0.9040 -0.5572
 3176SOL    MW412472   1.194   1.440   0.770  0.0817 -0.2210 -0.3915
 3177SOL     OW12473   2.451   6.194   2.887 -0.1827  0.3440  0.1188
 3177SOL    HW212474   2.404   6.263   2.935 -2.3379 -0.7425 -0.3223
 3177SOL    HW312475   2.465   6.125   2.952  1.2777  0.8150  0.3565
 3177SOL    MW412476   2.447   6.194   2.902 -0.6507 -0.0831 -0.5593
 3178SOL     OW12477   3.146   2.705   0.467 -0.4812  0.3488 -0.4945
 3178SOL    HW212478   3.145   2.615   0.436  0.4512  0.4220 -0.7559
 3178SOL    HW312479   3.143   2.758   0.387 -1.5298  0.5648 -0.3292
 3178SOL    MW412480   3.145   2.700   0.453  0.1061 -0.2790 -0.1109
 3179SOL     OW12481   4.265   5.742   5.621  0.2389  0.3333 -0.0462
 3179SOL    HW212482   4.176   5.742   5.657  0.1382 -0.1696 -0.2901
 3179SOL    HW312483   4.259   5.797   5.543  0.3461  1.0233  0.4257
 3179SOL    MW412484   4.252   5.749   5.615  0.2329  0.6330  0.0171
 3180SOL     OW12485   0.875   5.214   3.129  0.0114 -0.2514 -0.3988
 3180SOL    HW212486   0.864   5.151   3.200 -0.4329  1.6741  1.3022
 3180SOL    HW312487   0.819   5.181   3.058 -0.1451 -1.7875  0.4089
 3180SOL    MW412488   0.866   5.201   3.129 -0.5021  0.1224  0.5334
 3181SOL     OW12489   2.441   5.275   2.571  0.1778 -0.4243  0.4069
 3181SOL    HW212490   2.475   5.295   2.484 -1.4858  2.5091  0.2904
 3181SOL    HW312491   2.508   5.309   2.631  0.8338 -1.4849  0.2968
 3181SOL    MW412492   2.454   5.282   2.568  0.6421 -0.4154 -0.3686
 3182SOL     OW12493   0.935   2.522   5.701  0.1046 -0.0279 -0.2478
 3182SOL    HW212494   1.029   2.514   5.718  0.4365  1.9721 -0.8412
 3182SOL    HW312495   0.906   2.433   5.682  1.5325 -0.9391  1.5676
 3182SOL    MW412496   0.943   2.509   5.701  0.2062  0.0240 -0.2336
 3183SOL     OW12497   0.432   5.852   0.867 -0.3071  0.4246 -0.6236
 3183SOL    HW212498   0.509   5.896   0.902 -0.6481  1.0290 -0.6191
 3183SOL    HW312499   0.462   5.813   0.784  0.2455 -0.1792 -0.1453
 3183SOL    MW412500   0.446   5.853   0.860  0.2250  0.0941  0.2292
 3184SOL     OW12501   2.370   1.311   3.684  0.1261  0.2198 -0.1247
 3184SOL    HW212502   2.430   1.363   3.632 -1.8584  2.5445 -0.2868
 3184SOL    HW312503   2.315   1.266   3.620  0.7642 -0.7979  0.0206
 3184SOL    MW412504   2.370   1.312   3.669  0.5394  0.4359 -0.3108
 3185SOL     OW12505   1.866   0.360   3.494 -0.4424 -0.0851 -0.5457
 3185SOL    HW212506   1.840   0.389   3.581  2.2479 -1.2573  0.7409
 3185SOL    HW312507   1.842   0.268   3.491  0.7998 -0.4184 -0.4662
 3185SOL    MW412508   1.859   0.352   3.505 -0.5879 -0.1197  0.2857
 3186SOL     OW12509   0.657   0.108   2.206 -0.2742 -0.2506 -0.0792
 3186SOL    HW212510   0.656   0.030   2.150  0.7784 -0.0280 -0.4331
 3186SOL    HW312511   0.566   0.139   2.206 -0.3071 -0.3086 -1.5894
 3186SOL    MW412512   0.645   0.102   2.199 -0.2338 -0.0747 -0.5094
 3187SOL     OW12513   0.091   0.657   2.131 -0.4004  0.1765 -0.1257
 3187SOL    HW212514   0.009   0.609   2.115 -0.6860  0.8577 -0.7601
 3187SOL    HW312515   0.155   0.615   2.074 -0.3295 -0.2823  0.2845
 3187SOL    MW412516   0.088   0.645   2.121  0.3902 -0.5202 -1.0104
 3188SOL     OW12517   3.144   6.212   0.418 -0.9074 -0.5732  0.2281
 3188SOL    HW212518   3.059   6.188   0.381 -0.8886  0.7364 -0.7270
 3188SOL    HW312519   3.153   6.306   0.399 -0.1825 -0.1972  2.1825
 3188SOL    MW412520   3.134   6.222   0.411 -0.0453  0.3514  0.4183
 3189SOL     OW12521   4.906   5.058   1.942 -0.3630 -0.1541  0.0453
 3189SOL    HW212522   4.996   5.032   1.960 -0.7976 -1.2105  0.8127
 3189SOL    HW312523   4.856   5.027   2.018 -1.3393  0.6591 -0.2304
 3189SOL    MW412524   4.911   5.051   1.955  0.1870  0.1043 -0.0448
 3190SOL     OW12525   1.847   2.713   3.082 -0.0061 -0.0799 -0.0688
 3190SOL    HW212526   1.869   2.718   2.989  1.0596 -1.5163  0.0704
 3190SOL    HW312527   1.790   2.636   3.089  1.1790 -0.9224  0.6631
 3190SOL    MW412528   1.842   2.704   3.071 -0.1014  0.0520 -0.2822
 3191SOL     OW12529   5.494   4.455   4.131 -0.2425 -0.8772 -0.1924
 3191SOL    HW212530   5.542   4.497   4.202  0.4352 -1.4834 -0.2856
 3191SOL    HW312531   5.543   4.376   4.111  0.1854 -0.2177 -2.0428
 3191SOL    MW412532   5.506   4.450   4.137  0.2964  0.2098 -0.1913
 3192SOL     OW12533   1.768   5.157   4.079  0.3774  0.1796 -0.2423
 3192SOL    HW212534   1.798   5.066   4.084 -0.1974  0.0327  0.6371
 3192SOL    HW312535   1.741   5.179   4.168 -1.3952  0.5469 -0.8260
 3192SOL    MW412536   1.769   5.148   4.091  0.6077  0.4723 -0.3626
 3193SOL     OW12537   2.881   3.062   4.012 -0.2682 -0.0114  0.1272
 3193SOL    HW212538   2.952   3.046   3.951 -0.6434 -0.5669 -0.1715
 3193SOL    HW312539   2.885   2.989   4.075  0.0279  0.4777  0.6853
 3193SOL    MW412540   2.891   3.050   4.013 -0.4098  0.1420  0.2267
 3194SOL     OW12541   3.156   3.157   4.588  0.5265  0.4784 -0.5903
 3194SOL    HW212542   3.180   3.249   4.577  1.0678  0.3651 -0.4070
 3194SOL    HW312543   3.199   3.132   4.670 -0.0950  0.2171 -0.3400
 3194SOL    MW412544   3.165   3.166   4.598  1.0762 -0.4371 -0.1071
 3195SOL     OW12545   3.620   2.258   5.101  0.3421 -0.0859 -0.3364
 3195SOL    HW212546   3.623   2.316   5.177 -2.4954  0.5354 -0.5853
 3195SOL    HW312547   3.529   2.228   5.097  0.6126 -0.8146 -2.9687
 3195SOL    MW412548   3.608   2.261   5.111 -0.1900  0.7005  0.0207
 3196SOL     OW12549   0.651   4.014   0.779 -0.0352  0.2993 -0.2482
 3196SOL    HW212550   0.577   4.010   0.719  0.1234 -0.6931 -0.4033
 3196SOL    HW312551   0.625   4.077   0.846 -0.6215  0.6718 -0.8231
 3196SOL    MW412552   0.638   4.021   0.780 -0.4918  0.6629 -0.4389
 3197SOL     OW12553   1.362   1.485   5.924 -0.0506 -0.6561  0.0364
 3197SOL    HW212554   1.386   1.531   6.004 -1.4346  0.6953 -0.2623
 3197SOL    HW312555   1.445   1.471   5.878  0.5058  1.1983  0.3670
 3197SOL    MW412556   1.376   1.489   5.928 -0.5890  0.2439 -0.5208
 3198SOL     OW12557   3.817   4.761   1.042 -0.1296  0.1136 -0.0250
 3198SOL    HW212558   3.893   4.805   1.003  0.7707 -0.0197  1.4784
 3198SOL    HW312559   3.828   4.669   1.017 -0.8071  0.3660 -1.3198
 3198SOL    MW412560   3.829   4.755   1.034  0.0218 -0.1538 -0.0514
 3199SOL     OW12561   5.349   2.171   2.789 -0.5746 -0.1112 -0.4131
 3199SOL    HW212562   5.382   2.091   2.830 -0.8527  0.1666  0.3687
 3199SOL    HW312563   5.281   2.202   2.849  0.7341  1.6793  0.2258
 3199SOL    MW412564   5.344   2.164   2.802  0.2373 -0.4355  0.0229
 3200SOL     OW12565   1.885   1.526   2.809 -0.3654  0.1057 -0.1399
 3200SOL    HW212566   1.916   1.570   2.730  1.3755  0.1508  0.5233
 3200SOL    HW312567   1.963   1.482   2.844 -1.4489 -1.2508  0.6918
 3200SOL    MW412568   1.900   1.526   2.803 -0.1004  0.3382 -0.3431
 3201SOL     OW12569   0.698   4.554   1.982  0.1472  0.0465 -0.0410
 3201SOL    HW212570   0.665   4.599   1.904  0.0708 -0.7972 -0.5151
 3201SOL    HW312571   0.621   4.513   2.020  0.2774 -0.0197  0.1527
 3201SOL    MW412572   0.684   4.555   1.976  0.4740 -0.6345  0.1941
 3202SOL     OW12573   4.118   2.403   3.520 -0.5375 -0.4924  0.1425
 3202SOL    HW212574   4.090   2.342   3.588  1.3531  0.9900  2.4186
 3202SOL    HW312575   4.047   2.402   3.455 -1.9264 -2.7894  1.5752
 3202SOL    MW412576   4.105   2.395   3.520  0.0147  0.9291  0.0246
 3203SOL     OW12577   0.128   4.977   5.846  0.0076 -0.2473  0.1770
 3203SOL    HW212578   0.070   5.044   5.811 -0.1178 -0.7033 -0.5100
 3203SOL    HW312579   0.200   4.971   5.783  0.3674 -0.2871  0.5824
 3203SOL    MW412580   0.130   4.985   5.833 -0.6083 -0.0570  0.0162
 3204SOL     OW12581   2.169   5.586   1.725 -0.3196  0.0233  0.3895
 3204SOL    HW212582   2.212   5.593   1.810  0.6330 -1.0119  0.0197
 3204SOL    HW312583   2.130   5.672   1.711  2.2821  1.3090  0.4245
 3204SOL    MW412584   2.170   5.598   1.735  0.9219 -0.0973  0.1369
 3205SOL     OW12585   5.458   5.666   2.512  0.3538  0.1883 -0.0695
 3205SOL    HW212586   5.529   5.730   2.503  1.1405 -0.6407  0.0594
 3205SOL    HW312587   5.457   5.620   2.428 -0.0249  0.1766 -0.0606
 3205SOL    MW412588   5.467   5.668   2.500 -0.4637  0.0064  0.0686
 3206SOL     OW12589   5.517   1.861   2.527  0.3170 -0.1630  0.4643
 3206SOL    HW212590   5.499   1.955   2.526  1.4694  0.0702 -0.5888
 3206SOL    HW312591   5.606   1.854   2.560 -0.0139 -0.9558  1.2284
 3206SOL    MW412592   5.526   1.872   2.531 -0.1219 -0.5224  0.5025
 3207SOL     OW12593   0.722   3.482   3.101  0.2208 -0.5943 -0.7199
 3207SOL    HW212594   0.728   3.561   3.155 -0.8245 -0.3709 -0.9065
 3207SOL    HW312595   0.682   3.512   3.019  1.1472 -1.0629 -1.3614
 3207SOL    MW412596   0.717   3.497   3.097 -0.6878  0.2177  0.5071
 3208SOL     OW12597   5.395   1.446   4.303 -0.0158 -0.4578 -0.7996
 3208SOL    HW212598   5.387   1.486   4.389 -2.4770  0.3627 -1.3297
 3208SOL    HW312599   5.461   1.378   4.313  0.8670  0.6481  1.3209
 3208SOL    MW412600   5.403   1.442   4.315  0.4921 -0.4078 -0.2188
 3209SOL     OW12601   1.725   5.607   1.432  0.3627  0.1671  0.1649
 3209SOL    HW212602   1.755   5.518   1.445 -1.4391 -0.5867 -0.4621
 3209SOL    HW312603   1.683   5.606   1.345 -0.6568  1.3104  0.6032
 3209SOL    MW412604   1.723   5.595   1.422 -0.2306  0.5318  0.3033
 3210SOL     OW12605   4.896   4.249   5.680 -0.0879 -0.3175 -0.4880
 3210SOL    HW212606   4.927   4.339   5.692 -0.4639 -0.1221 -0.9546
 3210SOL    HW312607   4.862   4.247   5.591  1.6102 -1.4438 -1.1576
 3210SOL    MW412608   4.895   4.261   5.670 -0.2797  0.4642 -0.8910
 3211SOL     OW12609   3.744   0.954   3.982 -0.3333  0.4086 -0.3177
 3211SOL    HW212610   3.832   0.924   3.960 -0.1916  0.9008 -0.4349
 3211SOL    HW312611   3.686   0.893   3.938 -0.0487  0.3423 -0.6033
 3211SOL    MW412612   3.748   0.942   3.974 -0.4539 -0.7377  0.8857
 3212SOL     OW12613   6.066   0.479   4.145  0.1233 -0.4500  0.4486
 3212SOL    HW212614   6.149   0.441   4.173 -0.0818 -1.4503 -0.2342
 3212SOL    HW312615   6.003   0.407   4.156 -0.8265  0.5320  1.7485
 3212SOL    MW412616   6.068   0.464   4.150  0.4701 -0.2092 -0.4687
 3213SOL     OW12617   4.963   3.659   3.221  0.2342 -0.5581  0.1353
 3213SOL    HW212618   4.892   3.616   3.269  1.0967  0.7148  2.7417
 3213SOL    HW312619   4.969   3.746   3.261  2.8010 -0.3892 -0.4694
 3213SOL    MW412620   4.954   3.664   3.233 -0.0983  0.1580 -0.1390
 3214SOL     OW12621   5.771   5.160   0.249 -0.6099 -0.0679 -0.4851
 3214SOL    HW212622   5.834   5.183   0.317 -0.4193  0.6535 -0.8906
 3214SOL    HW312623   5.699   5.118   0.295 -0.6764  0.7946  0.2129
 3214SOL    MW412624   5.770   5.158   0.264  0.1124 -0.3801 -0.0590
 3215SOL     OW12625   2.716   0.118   5.990 -0.2457 -0.9301 -0.1206
 3215SOL    HW212626   2.787   0.054   5.992 -0.1317 -0.9273 -1.9301
 3215SOL    HW312627   2.756   0.200   6.017  0.5659 -0.8488 -1.4879
 3215SOL    MW412628   2.730   0.120   5.994 -0.4089  0.3058  0.7734
 3216SOL     OW12629   5.438   1.690   3.478  0.3887 -0.1177 -0.2022
 3216SOL    HW212630   5.387   1.677   3.399  1.0992 -1.5243 -0.4646
 3216SOL    HW312631   5.374   1.684   3.549 -0.0603 -0.1739 -0.6068
 3216SOL    MW412632   5.423   1.687   3.477  0.1679 -0.0432 -0.2606
 3217SOL     OW12633   5.933   5.538   3.434  0.3224  0.3738 -0.0835
 3217SOL    HW212634   5.887   5.547   3.517 -0.5214 -1.1912 -0.3431
 3217SOL    HW312635   5.972   5.451   3.438  1.9436  1.0387 -0.5452
 3217SOL    MW412636   5.932   5.528   3.446  0.5348 -0.2188 -0.0931
 3218SOL     OW12637   5.679   0.873   3.079 -0.1942 -0.5784 -0.1329
 3218SOL    HW212638   5.773   0.886   3.091 -0.2860  0.0076 -0.0259
 3218SOL    HW312639   5.672   0.822   2.998  0.1744  0.2253 -0.6791
 3218SOL    MW412640   5.690   0.868   3.070  0.5544  0.2460 -0.3184
 3219SOL     OW12641   6.016   5.450   4.906  0.7460  0.1549  0.3872
 3219SOL    HW212642   6.003   5.490   4.821 -0.3537  1.2524  1.0412
 3219SOL    HW312643   5.981   5.513   4.969  1.1160 -0.8134  1.6272
 3219SOL    MW412644   6.010   5.463   4.903 -0.5804 -0.1441  0.1405
 3220SOL     OW12645   4.654   4.143   0.437  0.3588  0.2950 -0.0019
 3220SOL    HW212646   4.559   4.145   0.448  0.4366  1.5333  0.6533
 3220SOL    HW312647   4.672   4.214   0.375  0.9354  0.7729  0.6950
 3220SOL    MW412648   4.643   4.153   0.430  0.2250 -0.2526  0.0406
 3221SOL     OW12649   2.910   1.083   3.996  0.3873  0.4444  0.3389
 3221SOL    HW212650   2.867   1.084   3.911  0.9397 -1.4244 -0.0147
 3221SOL    HW312651   2.853   1.028   4.051  0.6238  0.6985  0.8454
 3221SOL    MW412652   2.897   1.076   3.992 -0.7261  0.0599 -0.4152
 3222SOL     OW12653   0.231   3.526   4.063 -0.2992 -0.3787  0.0435
 3222SOL    HW212654   0.195   3.503   4.148 -1.0161  0.1660 -0.1073
 3222SOL    HW312655   0.326   3.520   4.075 -0.4114 -0.9315  0.6959
 3222SOL    MW412656   0.239   3.522   4.076 -0.1366 -0.5137 -0.4588
 3223SOL     OW12657   5.771   5.662   4.273 -0.7562 -0.3313 -0.0869
 3223SOL    HW212658   5.840   5.630   4.332 -1.0269 -0.7308  0.0129
 3223SOL    HW312659   5.819   5.707   4.203 -0.4733  1.1457  1.0087
 3223SOL    MW412660   5.787   5.664   4.271 -0.2455  0.6587  0.0700
 3224SOL     OW12661   0.834   3.672   6.353 -0.1591 -0.3213  0.2095
 3224SOL    HW212662   0.895   3.721   6.298  0.8674 -2.3708 -0.5516
 3224SOL    HW312663   0.748   3.710   6.334  0.5127  0.7131 -0.8422
 3224SOL    MW412664   0.831   3.684   6.343  0.1623 -0.3856  0.7074
 3225SOL     OW12665   2.929   6.365   5.248  0.0325 -0.1507 -0.3373
 3225SOL    HW212666   2.892   6.282   5.280 -2.1663  0.5908 -0.7602
 3225SOL    HW312667   2.867   6.431   5.277  0.4836  1.0843 -2.0360
 3225SOL    MW412668   2.916   6.363   5.256 -0.2350  0.1677  0.2327
 3226SOL     OW12669   5.568   3.872   4.382 -0.6773 -0.6554 -0.8635
 3226SOL    HW212670   5.491   3.892   4.434  1.0842  0.2110  1.5910
 3226SOL    HW312671   5.593   3.783   4.409  1.2543  0.4422  1.2838
 3226SOL    MW412672   5.561   3.863   4.392 -0.2695  0.1221 -0.0783
 3227SOL     OW12673   5.587   3.307   1.939  0.3337 -0.4371 -0.4194
 3227SOL    HW212674   5.634   3.374   1.890 -1.1264  2.0203  1.3206
 3227SOL    HW312675   5.502   3.300   1.895  0.7378 -1.7411 -1.0321
 3227SOL    MW412676   5.582   3.315   1.927  0.3061 -0.1763 -0.2648
 3228SOL     OW12677   3.488   4.423   0.169 -0.2572 -0.2365  0.2846
 3228SOL    HW212678   3.544   4.479   0.225 -0.8781  1.4635 -0.7241
 3228SOL    HW312679   3.544   4.400   0.095 -0.9868  2.0007 -1.0530
 3228SOL    MW412680   3.503   4.428   0.167  0.6204  0.6529  0.0596
 3229SOL     OW12681   4.933   5.352   4.362  0.0370 -0.4109 -0.1164
 3229SOL    HW212682   5.011   5.387   4.319  0.5054  1.9010  2.4060
 3229SOL    HW312683   4.966   5.311   4.442 -1.2574  0.1924  0.7557
 3229SOL    MW412684   4.947   5.351   4.367 -0.0159  0.0921 -0.0606
 3230SOL     OW12685   2.298   4.335   1.047 -0.1497 -0.0842 -0.3191
 3230SOL    HW212686   2.251   4.412   1.015  0.6359  0.3925 -0.3414
 3230SOL    HW312687   2.313   4.283   0.969  1.9235  1.1642 -0.8140
 3230SOL    MW412688   2.294   4.338   1.033 -0.8908  0.0502 -0.3165
 3231SOL     OW12689   3.864   2.743   1.219 -0.0647 -0.5466 -0.2381
 3231SOL    HW212690   3.874   2.656   1.256  0.6887 -1.6053 -2.7478
 3231SOL    HW312691   3.818   2.729   1.136 -0.2385  1.4961 -0.5502
 3231SOL    MW412692   3.859   2.730   1.213  0.1809 -0.0195 -0.9934
 3232SOL     OW12693   5.955   6.222   4.647 -0.5674 -0.6436 -0.4124
 3232SOL    HW212694   6.027   6.167   4.679 -1.3072 -0.8771  0.9090
 3232SOL    HW312695   5.996   6.307   4.631 -0.0275 -0.6884  0.6012
 3232SOL    MW412696   5.970   6.226   4.649  0.1221 -0.0133  0.4728
 3233SOL     OW12697   0.384   4.937   1.013 -0.5482 -0.3348 -0.0975
 3233SOL    HW212698   0.461   4.910   0.963 -1.2190  1.6833 -2.3778
 3233SOL    HW312699   0.420   4.990   1.085  0.2396  0.4053 -1.0066
 3233SOL    MW412700   0.399   4.941   1.016 -0.5234 -0.1624 -0.4493
 3234SOL     OW12701   1.023   0.731   2.370 -0.6698  0.1823  0.7092
 3234SOL    HW212702   0.968   0.727   2.292 -0.7023  0.8797  0.6880
 3234SOL    HW312703   1.036   0.824   2.385  0.1282  0.0377  0.9809
 3234SOL    MW412704   1.017   0.743   2.362 -0.1079 -0.1084  0.3241
 3235SOL     OW12705   0.336   2.921   3.006 -0.5483 -0.1117 -0.8703
 3235SOL    HW212706   0.307   2.866   3.079 -0.3915 -2.2839 -2.3395
 3235SOL    HW312707   0.259   2.926   2.949  0.1909 -1.0469 -2.0018
 3235SOL    MW412708   0.322   2.914   3.008  0.0143 -0.0065 -0.2182
 3236SOL     OW12709   5.538   3.807   5.498  0.1120 -0.0938  0.3505
 3236SOL    HW212710   5.632   3.802   5.514  0.0494 -1.9748  0.3344
 3236SOL    HW312711   5.504   3.722   5.526 -1.8893  1.1972  2.1364
 3236SOL    MW412712   5.546   3.795   5.504 -0.2756 -0.0425 -0.0410
 3237SOL     OW12713   0.336   4.080   5.175 -0.1332 -0.3861 -0.8775
 3237SOL    HW212714   0.383   3.997   5.168  0.0142 -0.3576 -0.2149
 3237SOL    HW312715   0.404   4.146   5.183 -0.2705 -0.3472  0.1075
 3237SOL    MW412716   0.351   4.077   5.175 -0.0859  0.2427  0.2870
 3238SOL     OW12717   3.529   2.757   1.825 -0.0344 -0.4647 -0.0528
 3238SOL    HW212718   3.544   2.689   1.760  0.5772 -1.7591  1.3852
 3238SOL    HW312719   3.613   2.801   1.834 -0.6288  1.1273 -1.5920
 3238SOL    MW412720   3.542   2.754   1.818 -0.2787 -0.3684  0.0249
 3239SOL     OW12721   1.186   3.101   3.351  0.0527 -0.6177 -0.4646
 3239SOL    HW212722   1.161   3.190   3.325  1.0340 -0.1811  0.0351
 3239SOL    HW312723   1.139   3.087   3.433  1.8034  0.4115  0.7612
 3239SOL    MW412724   1.176   3.111   3.358 -0.3090  0.2510  0.3693
 3240SOL     OW12725   2.251   2.061   5.712  0.2803 -0.1619  0.7483
 3240SOL    HW212726   2.301   2.110   5.646 -2.3822  1.3059 -0.3427
 3240SOL    HW312727   2.212   2.129   5.767 -1.1862 -1.1747  1.0026
 3240SOL    MW412728   2.252   2.076   5.711 -0.0897 -0.2693  0.0281
 3241SOL     OW12729   5.613   1.492   0.670  0.1174 -0.2969  0.2327
 3241SOL    HW212730   5.678   1.455   0.611 -1.5780 -1.6749 -0.8468
 3241SOL    HW312731   5.600   1.425   0.737 -0.2129 -0.0457  0.4247
 3241SOL    MW412732   5.620   1.478   0.671 -0.5257  0.4170  0.7425
 3242SOL     OW12733   1.910   4.885   4.127 -0.0847  0.3455 -0.1679
 3242SOL    HW212734   1.844   4.874   4.195 -1.4813  0.5023 -1.4317
 3242SOL    HW312735   1.884   4.823   4.059  0.6821  0.8930 -0.9842
 3242SOL    MW412736   1.897   4.875   4.127 -0.3724 -0.2346  0.2841
 3243SOL     OW12737   6.436   2.835   0.249 -0.0924  0.2450  0.0376
 3243SOL    HW212738   6.470   2.794   0.169  0.2287  0.7089 -0.0679
 3243SOL    HW312739   6.508   2.888   0.281 -0.0598 -0.3144  0.9086
 3243SOL    MW412740   6.450   2.837   0.242  0.2298  0.0048 -0.1797
 3244SOL     OW12741   3.897   4.914   0.604 -0.3323  0.2006 -0.9561
 3244SOL    HW212742   3.838   4.933   0.676 -1.7061  2.4165 -2.5222
 3244SOL    HW312743   3.978   4.886   0.646 -1.6545 -0.4216  1.3424
 3244SOL    MW412744   3.900   4.913   0.619 -0.1984  0.4526 -0.0501
 3245SOL     OW12745   0.921   6.156   2.119  0.2562  0.0505  0.1436
 3245SOL    HW212746   0.881   6.231   2.163  2.2559  0.7387  0.9007
 3245SOL    HW312747   0.977   6.117   2.186  2.5219  0.4299 -1.4228
 3245SOL    MW412748   0.923   6.161   2.134  0.2974  0.0435 -0.4854
 3246SOL     OW12749   0.311   5.980   0.590 -0.6443  0.0099  0.1106
 3246SOL    HW212750   0.225   5.939   0.581 -0.5723 -0.1419  0.1170
 3246SOL    HW312751   0.369   5.908   0.613 -0.1349 -0.2845 -1.8742
 3246SOL    MW412752   0.307   5.965   0.592  0.2332  0.2180  0.0604
 3247SOL     OW12753   4.300   2.705   4.589  0.1872 -0.0964 -0.2375
 3247SOL    HW212754   4.279   2.674   4.677 -0.9004  0.3341 -0.3362
 3247SOL    HW312755   4.238   2.776   4.573  1.4099  0.8913 -0.7451
 3247SOL    MW412756   4.289   2.710   4.599 -0.6281  0.5508 -0.3574
 3248SOL     OW12757   6.024   2.182   1.764 -0.0659  0.0770 -0.0236
 3248SOL    HW212758   6.070   2.115   1.815  0.4645  2.2668  2.5743
 3248SOL    HW312759   6.092   2.225   1.714  0.1897  0.9285  1.0221
 3248SOL    MW412760   6.039   2.179   1.764  0.1964 -0.4449  0.0733
 3249SOL     OW12761   5.652   2.502   2.638  0.2988  0.1882  0.5105
 3249SOL    HW212762   5.709   2.548   2.698  0.6601  1.2616 -0.6116
 3249SOL    HW312763   5.711   2.463   2.573 -0.1992  1.7947 -0.9956
 3249SOL    MW412764   5.667   2.503   2.637  0.3482  0.0667  0.0260
 3250SOL     OW12765   6.219   5.962   6.024 -0.4324 -0.3106  0.4554
 3250SOL    HW212766   6.276   6.035   5.998  0.2414 -0.4629  1.4245
 3250SOL    HW312767   6.207   5.911   5.944  0.8487 -0.2982  0.2224
 3250SOL    MW412768   6.225   5.965   6.010  0.6232  0.3169 -0.7850
 3251SOL     OW12769   0.571   1.948   1.524 -0.0446 -0.0287  0.3026
 3251SOL    HW212770   0.495   1.955   1.467 -0.5972  1.9154  1.2061
 3251SOL    HW312771   0.583   1.854   1.537 -0.9922 -0.4495 -1.5275
 3251SOL    MW412772   0.563   1.937   1.518  0.5958  0.1796  0.7360
 3252SOL     OW12773   1.250   2.296   5.967  0.0325 -0.0317 -0.2327
 3252SOL    HW212774   1.203   2.213   5.970 -1.1857  0.5120 -2.2268
 3252SOL    HW312775   1.221   2.344   6.044  0.2941 -1.1928  0.6145
 3252SOL    MW412776   1.240   2.292   5.978 -0.1841  0.2154 -0.0737
 3253SOL     OW12777   1.333   4.121   3.762  0.2944  0.2208  0.3374
 3253SOL    HW212778   1.384   4.080   3.832  0.8228 -2.9820 -1.7002
 3253SOL    HW312779   1.243   4.091   3.777 -0.3545  2.6419  1.6913
 3253SOL    MW412780   1.328   4.111   3.773  0.0719  0.1599 -0.5065
 3254SOL     OW12781   1.160   0.947   4.675 -0.3978 -0.4435 -0.0553
 3254SOL    HW212782   1.213   1.019   4.642 -0.0202 -0.2946  0.8397
 3254SOL    HW312783   1.070   0.980   4.672 -0.4053 -0.5387 -1.1721
 3254SOL    MW412784   1.155   0.961   4.671  0.0799 -0.4639  0.3937
 3255SOL     OW12785   3.003   4.374   3.291 -0.3552 -0.0980  0.2085
 3255SOL    HW212786   3.053   4.312   3.344  2.0461  0.3784 -1.3324
 3255SOL    HW312787   2.961   4.320   3.224 -0.1677 -0.3006  0.2529
 3255SOL    MW412788   3.004   4.359   3.289 -0.0671 -0.5256  0.3175
 3256SOL     OW12789   1.401   0.869   5.669  0.1301  0.3900 -0.0492
 3256SOL    HW212790   1.346   0.864   5.747  0.5172  0.4265  0.2316
 3256SOL    HW312791   1.344   0.842   5.597 -0.4885  1.2047  0.1224
 3256SOL    MW412792   1.386   0.865   5.670 -0.0458 -0.2480  0.4668
 3257SOL     OW12793   5.004   1.410   3.075  0.4687  0.1440  0.2746
 3257SOL    HW212794   5.005   1.435   3.168  0.6538  2.0380 -0.1960
 3257SOL    HW312795   4.924   1.448   3.040  0.9392  0.3782 -0.5765
 3257SOL    MW412796   4.994   1.418   3.083  0.6121  0.1383  0.5291
 3258SOL     OW12797   3.306   5.942   1.452  0.0355  0.0025 -0.3278
 3258SOL    HW212798   3.213   5.964   1.452  0.1871  0.7399 -1.3784
 3258SOL    HW312799   3.331   5.941   1.544 -1.4243 -2.1282  0.1136
 3258SOL    MW412800   3.297   5.945   1.464 -0.1819 -0.5007 -0.1060
 3259SOL     OW12801   3.822   2.346   4.580  1.5508  0.0490  0.3464
 3259SOL    HW212802   3.832   2.262   4.535  2.5926  0.4060 -0.1305
 3259SOL    HW312803   3.739   2.381   4.549  0.9129 -0.9675  0.8475
 3259SOL    MW412804   3.813   2.340   4.570 -0.3321 -0.4555  0.2258
 3260SOL     OW12805   1.324   5.610   5.665  0.1690 -0.6443 -0.2700
 3260SOL    HW212806   1.321   5.705   5.653 -2.6402 -0.7603 -1.1754
 3260SOL    HW312807   1.410   5.594   5.703  0.5576  2.2975  0.3639
 3260SOL    MW412808   1.335   5.621   5.669  0.0073 -0.0810  0.1353
 3261SOL     OW12809   2.111   4.904   2.134  0.3794 -0.5031  0.1751
 3261SOL    HW212810   2.024   4.866   2.139 -0.4408  0.5292 -3.1461
 3261SOL    HW312811   2.096   4.999   2.126  2.0565  0.0850  2.6850
 3261SOL    MW412812   2.098   4.912   2.133  0.3873 -0.0227  0.6418
 3262SOL     OW12813   3.214   2.255   4.745 -0.2319 -0.3193 -0.0774
 3262SOL    HW212814   3.219   2.288   4.835  0.7804 -0.4540 -0.0749
 3262SOL    HW312815   3.210   2.335   4.691 -2.4367 -0.2281  0.1297
 3262SOL    MW412816   3.214   2.270   4.750  0.1457  0.0703 -0.3765
 3263SOL     OW12817   6.186   5.989   5.730 -0.3915 -0.4139 -0.3398
 3263SOL    HW212818   6.259   5.937   5.697 -2.0596 -1.7936 -2.0496
 3263SOL    HW312819   6.203   6.077   5.697  0.8571 -0.5511 -0.1016
 3263SOL    MW412820   6.198   5.994   5.721 -0.3559 -0.7762  0.0141
 3264SOL     OW12821   5.582   3.986   5.733 -0.3967  0.0524 -0.5938
 3264SOL    HW212822   5.577   3.932   5.654 -1.0713 -0.7536 -0.0061
 3264SOL    HW312823   5.661   4.039   5.720 -0.7105  0.2122 -1.9792
 3264SOL    MW412824   5.592   3.986   5.721 -0.4525  0.2351 -0.0423
 3265SOL     OW12825   3.300   1.452   0.702  0.1912  0.3215 -0.1764
 3265SOL    HW212826   3.293   1.470   0.608 -2.4676  1.4406  0.1252
 3265SOL    HW312827   3.280   1.359   0.710  0.0607  0.2978 -0.7175
 3265SOL    MW412828   3.296   1.442   0.691  0.0683  0.2435  0.9827
 3266SOL     OW12829   1.552   0.022   0.049  0.4249 -0.2989 -0.1407
 3266SOL    HW212830   1.480   0.008   0.111 -1.2302  0.6721 -1.7367
 3266SOL    HW312831   1.512   0.009  -0.037  1.8489  1.5168 -1.1371
 3266SOL    MW412832   1.537   0.018   0.046 -0.1885 -0.1181  0.0491
 3267SOL     OW12833   4.158   2.316   4.648 -0.0668 -0.2243 -0.0082
 3267SOL    HW212834   4.082   2.288   4.701 -0.1107  0.4434  0.2891
 3267SOL    HW312835   4.120   2.339   4.563 -0.2219  0.2502  0.1868
 3267SOL    MW412836   4.143   2.315   4.644  0.3684  0.1761 -0.2918
 3268SOL     OW12837   1.506   4.328   2.972  0.1908 -0.3015 -0.6384
 3268SOL    HW212838   1.549   4.386   3.036 -0.6177  0.1401 -0.4827
 3268SOL    HW312839   1.578   4.292   2.921  0.7899  0.0328 -0.0548
 3268SOL    MW412840   1.521   4.331   2.974 -0.5292  0.4822 -0.7919
 3269SOL     OW12841   3.333   2.004   4.635 -0.4552  0.7952 -0.1394
 3269SOL    HW212842   3.294   2.083   4.672 -0.9513  0.2707  0.4761
 3269SOL    HW312843   3.399   1.977   4.700 -0.6102  0.4489 -0.1244
 3269SOL    MW412844   3.337   2.011   4.649  0.1334  0.3987  0.0776
 3270SOL     OW12845   0.061   2.049   2.638 -0.6438 -0.4533  0.0003
 3270SOL    HW212846   0.143   2.026   2.682  0.0565  1.4205 -0.2296
 3270SOL    HW312847  -0.007   2.016   2.696  0.2652  1.2423  2.1542
 3270SOL    MW412848   0.063   2.042   2.651 -0.0916  0.0990 -0.5548
 3271SOL     OW12849   6.458   5.137   2.407  0.2701  0.1422  0.1787
 3271SOL    HW212850   6.522   5.166   2.342  0.1011  1.5241  0.6052
 3271SOL    HW312851   6.384   5.105   2.356  0.2775  0.8997 -0.3108
 3271SOL    MW412852   6.457   5.136   2.392 -0.1625 -0.4538 -0.4894
 3272SOL     OW12853   0.240   2.426   5.083  0.0723  0.3399 -0.0196
 3272SOL    HW212854   0.175   2.384   5.139  0.6283 -0.3096  0.1520
 3272SOL    HW312855   0.247   2.370   5.006  0.3000  0.5001 -0.1194
 3272SOL    MW412856   0.232   2.413   5.080 -0.1413  0.4522 -0.0943
 3273SOL     OW12857   3.640   1.460   1.143  0.2249  0.0199  0.1682
 3273SOL    HW212858   3.646   1.479   1.237 -2.2822 -0.7347  0.5529
 3273SOL    HW312859   3.722   1.415   1.123  0.6289 -0.2194  2.1137
 3273SOL    MW412860   3.651   1.456   1.153  0.3117 -0.1379  0.3992
 3274SOL     OW12861   1.627   3.536   0.574  0.0109 -0.4550  0.0233
 3274SOL    HW212862   1.657   3.521   0.664 -2.4586  3.3935  1.7115
 3274SOL    HW312863   1.560   3.469   0.560  1.4147 -2.0204  0.3677
 3274SOL    MW412864   1.622   3.525   0.584  0.4199  0.5757  0.1229
 3275SOL     OW12865   1.127   6.323   3.876 -0.0283  0.3396  0.2708
 3275SOL    HW212866   1.136   6.412   3.909 -0.4289  0.6054 -0.3094
 3275SOL    HW312867   1.173   6.324   3.792  1.0528 -0.3458  0.8480
 3275SOL    MW412868   1.134   6.335   3.869 -0.3182  0.3802  0.1587
 3276SOL     OW12869   2.541   5.862   5.758  0.2740 -0.6969 -0.8956
 3276SOL    HW212870   2.476   5.926   5.729  0.6996  0.4009  0.4403
 3276SOL    HW312871   2.617   5.877   5.701  0.3899  0.0465 -0.5575
 3276SOL    MW412872   2.543   5.872   5.746 -0.2855 -0.1246 -0.1360
 3277SOL     OW12873   3.015   3.789   4.828 -0.0485 -0.0716  0.1777
 3277SOL    HW212874   3.069   3.726   4.877  0.6642  0.7200  0.4425
 3277SOL    HW312875   2.933   3.743   4.813  0.5151 -1.1316  0.2118
 3277SOL    MW412876   3.011   3.774   4.833  0.2375  0.2632 -0.0837
 3278SOL     OW12877   2.085   0.927   3.322 -0.1690  0.2891  0.4295
 3278SOL    HW212878   2.033   0.853   3.291  0.8170 -0.5312  0.6620
 3278SOL    HW312879   2.046   0.950   3.406 -0.5118  0.0530  0.3354
 3278SOL    MW412880   2.073   0.920   3.329 -0.0837  0.2914 -0.3520
 3279SOL     OW12881   3.918   3.198   0.359  0.1866  0.0562  0.3351
 3279SOL    HW212882   3.952   3.288   0.362 -0.5355  0.6812 -3.8392
 3279SOL    HW312883   3.953   3.162   0.277 -0.5627 -3.0624  1.2577
 3279SOL    MW412884   3.927   3.205   0.348 -0.2960 -0.2130  0.2866
 3280SOL     OW12885   4.149   4.973   1.257 -0.1193 -0.0097 -0.2950
 3280SOL    HW212886   4.139   4.878   1.260  1.7872 -0.2313 -0.0258
 3280SOL    HW312887   4.243   4.988   1.254 -0.3710  1.8872 -0.2040
 3280SOL    MW412888   4.160   4.963   1.257 -0.1338 -0.1760 -1.0345
 3281SOL     OW12889   0.402   5.744   5.003  0.2340 -0.0992 -0.0675
 3281SOL    HW212890   0.464   5.784   5.064  0.7912  1.0738 -1.3686
 3281SOL    HW312891   0.456   5.689   4.947  0.1514  0.9916 -1.2614
 3281SOL    MW412892   0.417   5.742   5.004  0.1843  0.8586 -0.1092
 3282SOL     OW12893   0.775   5.241   5.618 -0.4855  0.3743  0.4091
 3282SOL    HW212894   0.852   5.223   5.565 -0.4619  1.5761  0.0165
 3282SOL    HW312895   0.808   5.290   5.694 -0.9401  1.6336 -0.1775
 3282SOL    MW412896   0.789   5.245   5.621  0.3343  0.2176  0.5949
 3283SOL     OW12897   2.475   5.922   3.056  0.8769  0.1092  0.6421
 3283SOL    HW212898   2.514   5.887   2.975  0.6304 -1.1265  1.0251
 3283SOL    HW312899   2.514   5.868   3.125 -1.3949 -1.1215  1.0563
 3283SOL    MW412900   2.485   5.910   3.054 -0.2871  0.2934  0.6849
 3284SOL     OW12901   2.992   5.378   1.067  0.4550  0.0927 -0.0067
 3284SOL    HW212902   2.932   5.304   1.056  0.0547  0.5627 -1.2046
 3284SOL    HW312903   2.943   5.454   1.035  1.7085  0.4744 -1.1234
 3284SOL    MW412904   2.978   5.378   1.061 -0.0770  0.2533 -0.2859
 3285SOL     OW12905   0.334   2.301   2.517  0.1979 -0.2037 -0.2712
 3285SOL    HW212906   0.267   2.357   2.556 -1.4056 -2.8252  1.0059
 3285SOL    HW312907   0.378   2.261   2.592  0.8679 -1.1051 -1.1228
 3285SOL    MW412908   0.331   2.303   2.532 -0.0443 -0.2424  0.0829
 3286SOL     OW12909   4.392   4.357   6.385  0.1545  0.2900 -0.8508
 3286SOL    HW212910   4.396   4.279   6.330 -1.1638  0.5873 -1.4277
 3286SOL    HW312911   4.481   4.391   6.386  0.4978 -0.5498 -1.5986
 3286SOL    MW412912   4.404   4.351   6.377 -0.0817  0.2275 -0.5883
 3287SOL     OW12913   5.308   3.627   1.284  0.6821  0.1499  0.1855
 3287SOL    HW212914   5.380   3.569   1.259  1.5891  1.2986  0.0756
 3287SOL    HW312915   5.315   3.634   1.379  0.4998  0.0036  0.2116
 3287SOL    MW412916   5.319   3.620   1.294  0.5769 -0.0172 -0.6625
 3288SOL     OW12917   1.126   5.769   2.878 -0.2522  0.1904 -0.0092
 3288SOL    HW212918   1.033   5.758   2.900  0.3341 -0.1921  2.6054
 3288SOL    HW312919   1.167   5.687   2.907  0.7931 -0.0822 -2.0977
 3288SOL    MW412920   1.119   5.756   2.885 -0.6859  0.0698  0.2477
 3289SOL     OW12921   3.276   1.375   1.208 -0.5600 -0.0927  0.6554
 3289SOL    HW212922   3.339   1.319   1.254 -1.4250 -0.6817  1.1523
 3289SOL    HW312923   3.324   1.406   1.131  0.6277  0.2032  1.4757
 3289SOL    MW412924   3.291   1.372   1.204 -0.2469 -0.0257  0.6125
 3290SOL     OW12925   2.458   4.191   3.965  0.8573 -0.2635  0.3829
 3290SOL    HW212926   2.504   4.264   4.007  1.4682 -0.8556  0.7686
 3290SOL    HW312927   2.524   4.150   3.910 -0.0369  0.7498 -1.5254
 3290SOL    MW412928   2.473   4.195   3.964 -0.7757  0.2214 -0.6300
 3291SOL     OW12929   3.792   3.493   3.640 -0.1395  0.2842 -0.1788
 3291SOL    HW212930   3.824   3.561   3.581 -0.4654 -0.4625 -1.2335
 3291SOL    HW312931   3.806   3.411   3.592 -1.0027 -0.2809  0.5190
 3291SOL    MW412932   3.798   3.491   3.626 -0.4211 -0.6713  0.4330
 3292SOL     OW12933   5.082   5.050   0.530 -0.0819 -0.4493  0.3395
 3292SOL    HW212934   5.160   5.053   0.475  0.9104 -1.6000  1.6119
 3292SOL    HW312935   5.116   5.037   0.619 -1.6764  0.2663  1.0867
 3292SOL    MW412936   5.097   5.048   0.534 -0.2064 -0.9223  0.2593
 3293SOL     OW12937   2.600   1.003   5.229 -0.5696  0.2958 -0.9294
 3293SOL    HW212938   2.516   0.958   5.217 -0.1269 -0.9786  0.3836
 3293SOL    HW312939   2.664   0.932   5.230  0.4562  1.2037 -1.3310
 3293SOL    MW412940   2.597   0.988   5.228 -0.2495 -0.3880 -0.5250
 3294SOL     OW12941   5.482   2.788   5.617 -0.7331 -0.0541  0.0821
 3294SOL    HW212942   5.449   2.789   5.527 -1.5177  1.4003  0.3631
 3294SOL    HW312943   5.568   2.830   5.611 -0.1823 -1.1643 -0.1712
 3294SOL    MW412944   5.489   2.793   5.604  0.2686 -0.2471 -0.4101
 3295SOL     OW12945   2.290   1.937   0.061  0.2740  0.0946  0.3408
 3295SOL    HW212946   2.363   1.929   0.001 -0.4928 -1.0658 -0.4758
 3295SOL    HW312947   2.300   1.863   0.122 -0.3289 -0.2079  0.0811
 3295SOL    MW412948   2.301   1.926   0.061  0.4770  0.2754  0.1229
 3296SOL     OW12949   2.835   0.408   4.234  0.0057 -0.1338 -0.3462
 3296SOL    HW212950   2.872   0.465   4.167 -0.5707 -2.0088 -2.3791
 3296SOL    HW312951   2.751   0.448   4.255  0.4412  0.7835 -0.2894
 3296SOL    MW412952   2.829   0.421   4.228  0.0242  0.4550  0.9249
 3297SOL     OW12953   0.191   4.724   3.504  0.3732 -0.3423  0.1789
 3297SOL    HW212954   0.278   4.712   3.542 -0.5497 -0.1656  2.4823
 3297SOL    HW312955   0.151   4.637   3.506  0.5228 -0.4544 -1.0176
 3297SOL    MW412956   0.197   4.711   3.509 -0.1305  0.1067 -0.1459
 3298SOL     OW12957   0.353   6.370   2.025 -0.4091 -0.0346 -0.3049
 3298SOL    HW212958   0.371   6.450   2.074  0.3375 -0.4715  0.1518
 3298SOL    HW312959   0.332   6.400   1.936  2.1696  0.5774 -0.7961
 3298SOL    MW412960   0.353   6.385   2.019 -0.1143  0.5115 -0.5622
 3299SOL     OW12961   5.149   5.055   1.635 -0.1077  0.6962  0.3612
 3299SOL    HW212962   5.066   5.016   1.660 -0.4842  1.4368  0.2828
 3299SOL    HW312963   5.189   4.991   1.576 -0.3893  0.1161  0.7993
 3299SOL    MW412964   5.143   5.042   1.630  0.3383  0.2485  0.0020
 3300SOL     OW12965   0.091   3.723   3.625 -0.3180  0.1909  0.4534
 3300SOL    HW212966   0.051   3.800   3.584 -0.4060 -0.0931 -0.0041
 3300SOL    HW312967   0.064   3.650   3.569  2.4680  0.1918 -1.0781
 3300SOL    MW412968   0.082   3.724   3.612  0.2831  0.1799 -0.0322
 3301SOL     OW12969   2.212   5.053   5.975 -0.3984  0.1306  0.5105
 3301SOL    HW212970   2.178   4.966   5.953 -1.3648  0.1653  1.7729
 3301SOL    HW312971   2.298   5.036   6.013  0.2399 -0.1090 -0.9958
 3301SOL    MW412972   2.219   5.039   5.977 -0.3866  0.3830 -0.3793
 3302SOL     OW12973   4.045   1.587   2.518  0.2288  0.3781  0.8670
 3302SOL    HW212974   4.114   1.654   2.516 -0.3934  1.0775  1.9663
 3302SOL    HW312975   4.092   1.504   2.511  0.9284  0.8997 -2.1357
 3302SOL    MW412976   4.060   1.585   2.517  0.9228 -0.1497 -0.3869
 3303SOL     OW12977   1.399   6.373   2.594  0.5229 -0.3048  0.4585
 3303SOL    HW212978   1.486   6.335   2.604  0.6658 -1.2148 -3.1063
 3303SOL    HW312979   1.349   6.306   2.547 -0.7354  1.8811 -1.5134
 3303SOL    MW412980   1.404   6.359   2.589 -0.0783 -0.7374 -0.3709
 3304SOL     OW12981   2.813   1.223   4.284 -0.1798  0.4466 -0.0466
 3304SOL    HW212982   2.790   1.283   4.354  1.2515  1.5817 -0.4963
 3304SOL    HW312983   2.775   1.262   4.205 -1.8208 -0.8456  0.0371
 3304SOL    MW412984   2.805   1.236   4.283  0.0914  0.2446 -0.0659
 3305SOL     OW12985   5.565   1.294   5.319  0.0757  0.1909 -0.1872
 3305SOL    HW212986   5.641   1.345   5.294 -0.6556  0.9169 -1.0111
 3305SOL    HW312987   5.547   1.239   5.243 -0.1006 -0.1150  0.0743
 3305SOL    MW412988   5.573   1.294   5.306 -0.1541 -0.5986 -0.1453
 3306SOL     OW12989   1.192   3.752   2.763  0.0321  0.0649 -0.0426
 3306SOL    HW212990   1.216   3.661   2.748 -1.3985 -0.0671 -1.7568
 3306SOL    HW312991   1.177   3.757   2.858  0.8270 -1.2785  0.1825
 3306SOL    MW412992   1.193   3.741   2.774 -0.0955 -0.5826 -0.4146
 3307SOL     OW12993   3.006   6.054   6.005  0.3125 -0.2778 -0.4104
 3307SOL    HW212994   2.959   6.132   6.037 -0.8412 -1.3646  0.6458
 3307SOL    HW312995   2.937   5.990   5.987  1.3101 -1.4602 -0.1594
 3307SOL    MW412996   2.991   6.056   6.007  1.4604 -0.0646 -0.0655
 3308SOL     OW12997   5.346   4.652   3.429  0.5485  0.0106  0.3062
 3308SOL    HW212998   5.325   4.567   3.390 -1.1229  0.4322  0.2315
 3308SOL    HW312999   5.277   4.711   3.399  0.3799  0.8632  2.1924
 3308SOL    MW413000   5.334   4.649   3.420 -0.3733 -0.0209 -0.1931
 3309SOL     OW13001   1.595   4.112   6.131  0.0417  0.5566 -0.4101
 3309SOL    HW213002   1.561   4.151   6.212  3.4207 -2.1924  2.7162
 3309SOL    HW313003   1.654   4.178   6.095  1.4459  0.5716  1.6779
 3309SOL    MW413004   1.598   4.126   6.137  0.3923  0.1685 -0.0069
 3310SOL     OW13005   4.616   6.366   6.364  0.5389  0.1935 -0.6025
 3310SOL    HW213006   4.521   6.375   6.371  0.5788  0.1625 -0.0395
 3310SOL    HW313007   4.634   6.276   6.388  0.8091  0.4682  0.2392
 3310SOL    MW413008   4.606   6.355   6.368 -0.6232  0.6393  0.1049
 3311SOL     OW13009   0.893   4.480   1.785  0.1459  0.1039 -0.0378
 3311SOL    HW213010   0.974   4.495   1.832 -0.2459 -0.5335  0.8748
 3311SOL    HW313011   0.824   4.505   1.847 -0.3676 -0.0171 -0.5483
 3311SOL    MW413012   0.894   4.485   1.799 -0.3294 -0.2665  0.4911
 3312SOL     OW13013   4.921   5.329   5.003  0.1226 -0.1535 -0.6874
 3312SOL    HW213014   4.949   5.421   5.007  2.9932 -0.9396  1.6957
 3312SOL    HW313015   4.845   5.325   5.061  0.0137  0.6983 -0.7528
 3312SOL    MW413016   4.915   5.341   5.012  0.3416 -0.5282  0.7181
 3313SOL     OW13017   2.010   5.730   3.048  0.1425  0.0827  0.0408
 3313SOL    HW213018   2.014   5.769   3.135 -0.9371  1.5568 -0.5374
 3313SOL    HW313019   2.101   5.730   3.017  0.5741 -0.6892  1.2308
 3313SOL    MW413020   2.023   5.735   3.055 -0.5746  0.0362 -0.1167
 3314SOL     OW13021   3.972   1.931   6.371 -0.2963 -0.1506  0.0752
 3314SOL    HW213022   3.978   2.024   6.394 -0.1142  0.1346 -1.0877
 3314SOL    HW313023   3.993   1.885   6.453 -0.6028  0.8212  0.7173
 3314SOL    MW413024   3.976   1.937   6.385 -0.3039  0.1981  0.4016
 3315SOL     OW13025   4.744   4.625   4.846  0.3141 -0.1238 -0.4160
 3315SOL    HW213026   4.707   4.710   4.821 -0.3397  0.1445  1.3371
 3315SOL    HW313027   4.827   4.646   4.887  1.5716 -0.5941 -2.5426
 3315SOL    MW413028   4.750   4.639   4.848 -0.1439 -0.2764  0.3055
 3316SOL     OW13029   1.395   6.086   4.965 -0.3207 -0.4322  0.1470
 3316SOL    HW213030   1.337   6.069   4.890  1.8548  2.5861 -2.5273
 3316SOL    HW313031   1.417   6.000   4.999 -3.2127 -1.8390 -1.1887
 3316SOL    MW413032   1.390   6.072   4.959  0.0636 -0.3542  0.0615
 3317SOL     OW13033   0.332   5.107   5.244  0.3667  0.7354 -0.3996
 3317SOL    HW213034   0.395   5.145   5.183  0.0446  0.3888 -0.9601
 3317SOL    HW313035   0.379   5.100   5.327  0.5920  1.8597 -0.4269
 3317SOL    MW413036   0.347   5.111   5.247  0.9970 -0.2831  0.3864
 3318SOL     OW13037   5.507   5.852   5.427  0.0834  0.4135 -0.0465
 3318SOL    HW213038   5.524   5.876   5.518  2.8645 -0.2690 -0.2952
 3318SOL    HW313039   5.589   5.814   5.396 -1.3078 -0.9727 -2.3589
 3318SOL    MW413040   5.520   5.850   5.435  0.2273 -0.1679  0.2566
 3319SOL     OW13041   3.602   1.179   4.665 -0.1614  0.3026  0.2596
 3319SOL    HW213042   3.598   1.180   4.569 -2.0102 -0.5392  0.2820
 3319SOL    HW313043   3.589   1.270   4.691 -0.0345  0.4763 -0.2781
 3319SOL    MW413044   3.600   1.191   4.656 -0.0850  0.2210 -0.1058
 3320SOL     OW13045   0.995   4.567   3.824  0.2870  0.5536 -0.4790
 3320SOL    HW213046   1.063   4.521   3.874  0.0259  0.6974  0.0183
 3320SOL    HW313047   0.915   4.516   3.840  0.4067 -0.0094 -1.6139
 3320SOL    MW413048   0.993   4.554   3.833 -0.1062  0.5517  0.1542
 3321SOL     OW13049   3.790   5.115   4.937  0.4023  0.0655  0.4343
 3321SOL    HW213050   3.699   5.090   4.920 -0.0026  1.8641 -0.2401
 3321SOL    HW313051   3.839   5.033   4.929 -1.0771 -0.8411  0.2850
 3321SOL    MW413052   3.784   5.101   4.934  0.3413  0.2119 -0.3097
 3322SOL     OW13053   1.409   1.153   3.286  0.4076 -0.4703 -0.2271
 3322SOL    HW213054   1.443   1.147   3.197 -1.1900  0.4560 -0.9389
 3322SOL    HW313055   1.472   1.103   3.339  3.0432  1.4159 -1.3731
 3322SOL    MW413056   1.422   1.145   3.281 -0.0153  0.3699  0.1138
 3323SOL     OW13057   1.844   1.942   3.968  0.2666  0.6030 -0.0339
 3323SOL    HW213058   1.855   2.029   3.931 -0.1383  0.6617 -0.0215
 3323SOL    HW313059   1.839   1.957   4.063 -3.2585  0.9989 -0.1303
 3323SOL    MW413060   1.845   1.955   3.976  0.7747 -0.6923  0.0698
 3324SOL     OW13061   1.400   1.309   1.109 -0.4176  0.4038 -0.1001
 3324SOL    HW213062   1.410   1.404   1.115 -2.3156  0.5722  1.7441
 3324SOL    HW313063   1.472   1.273   1.160 -0.6786  0.9285  0.6413
 3324SOL    MW413064   1.411   1.316   1.116  0.5373  0.0613  0.0708
 3325SOL     OW13065   2.575   5.678   0.927  0.1427  0.2905  0.0269
 3325SOL    HW213066   2.528   5.675   1.010  2.9327 -2.1075  1.7221
 3325SOL    HW313067   2.529   5.617   0.870 -0.1655 -0.2002  0.7942
 3325SOL    MW413068   2.563   5.670   0.930 -0.1057 -0.1381 -0.0947
 3326SOL     OW13069   5.574   1.246   4.327 -0.3918 -0.2094  0.4215
 3326SOL    HW213070   5.644   1.304   4.296  0.1112 -1.3744 -0.7373
 3326SOL    HW313071   5.617   1.188   4.389 -0.9131  0.6821  1.6451
 3326SOL    MW413072   5.589   1.246   4.331 -0.3427 -0.6414 -0.5325
 3327SOL     OW13073   1.908   0.707   3.270  0.1476  0.2123  0.8676
 3327SOL    HW213074   1.873   0.707   3.359 -1.2126 -0.0551  0.3519
 3327SOL    HW313075   1.860   0.637   3.225 -1.5382  2.3799 -0.9299
 3327SOL    MW413076   1.897   0.698   3.276  0.3913  0.3088  0.1714
 3328SOL     OW13077   4.150   3.110   4.053  0.0233 -0.3394  0.4967
 3328SOL    HW213078   4.149   3.017   4.032  0.4965 -0.3962  0.7240
 3328SOL    HW313079   4.096   3.117   4.132 -2.2244 -0.0506 -0.9692
 3328SOL    MW413080   4.142   3.099   4.061  0.8129  0.4104  0.1132
 3329SOL     OW13081   0.174   0.256   2.765  0.0071  0.0018 -0.1652
 3329SOL    HW213082   0.162   0.337   2.814  0.0286  1.5387 -2.5491
 3329SOL    HW313083   0.269   0.245   2.758  0.0173  0.3691 -0.7073
 3329SOL    MW413084   0.185   0.265   2.770 -0.5292  0.6497 -0.2774
 3330SOL     OW13085   0.049   3.768   5.687 -0.7727 -0.5559 -0.1824
 3330SOL    HW213086  -0.013   3.806   5.750 -0.0967 -0.3970  0.3954
 3330SOL    HW313087   0.018   3.678   5.675 -0.8176 -0.6352  0.4982
 3330SOL    MW413088   0.037   3.761   5.694 -0.3158 -0.6165 -0.1816
 3331SOL     OW13089   1.504   1.342   5.158 -0.2337  0.2297  0.1107
 3331SOL    HW213090   1.411   1.339   5.135 -0.2623  0.4940  0.1858
 3331SOL    HW313091   1.548   1.297   5.086 -0.3325  0.9493 -0.4169
 3331SOL    MW413092   1.498   1.336   5.145  0.0583 -0.0203 -0.4494
 3332SOL     OW13093   5.878   1.914   6.025  0.0015 -0.1480  0.3547
 3332SOL    HW213094   5.814   1.973   6.066 -0.8802 -0.5371 -0.4279
 3332SOL    HW313095   5.843   1.897   5.938  1.5453  0.1951 -0.3707
 3332SOL    MW413096   5.865   1.920   6.019 -0.6547  0.0197  0.1646
 3333SOL     OW13097   0.674   6.407   1.755 -0.0181 -0.1847 -0.3338
 3333SOL    HW213098   0.675   6.338   1.690  1.0655 -0.6080  0.1125
 3333SOL    HW313099   0.765   6.436   1.762 -0.0995 -0.1667  1.0011
 3333SOL    MW413100   0.686   6.402   1.747  0.4046 -0.1432 -0.2829
 3334SOL     OW13101   2.378   1.846   0.835  0.0456  0.6057  0.2203
 3334SOL    HW213102   2.445   1.810   0.893 -2.3674 -0.4946  2.5325
 3334SOL    HW313103   2.392   1.803   0.751  0.6738 -1.5701  1.3732
 3334SOL    MW413104   2.389   1.836   0.832 -0.0402  0.3303 -0.2620
 3335SOL     OW13105   0.209   5.931   4.350  0.2274 -0.4002  0.2808
 3335SOL    HW213106   0.291   5.977   4.366  0.2827 -0.2234 -0.4945
 3335SOL    HW313107   0.218   5.849   4.399  0.4845  0.0187  0.9451
 3335SOL    MW413108   0.221   5.926   4.359 -0.1578  0.3926  0.4834
 3336SOL     OW13109   2.912   5.670   5.881 -0.1007  0.2401  0.0383
 3336SOL    HW213110   2.986   5.677   5.820  0.0636 -1.1048  0.0562
 3336SOL    HW313111   2.863   5.751   5.868 -0.2539 -0.1370 -2.1223
 3336SOL    MW413112   2.915   5.681   5.871 -0.8502 -0.0735 -0.4448
 3337SOL     OW13113   1.846   4.720   3.906  0.1691  0.0743 -0.0508
 3337SOL    HW213114   1.903   4.729   3.829 -2.6841 -1.3741 -2.5435
 3337SOL    HW313115   1.766   4.765   3.882 -0.7685 -0.2502  2.2170
 3337SOL    MW413116   1.843   4.727   3.893 -0.1223 -0.3123  0.0304
 3338SOL     OW13117   4.085   0.701   3.896 -0.2996 -0.6993  0.0085
 3338SOL    HW213118   4.156   0.650   3.859 -1.5852 -2.2464 -0.4274
 3338SOL    HW313119   4.005   0.661   3.861 -1.3972  2.1548 -1.0960
 3338SOL    MW413120   4.084   0.689   3.887  0.0545 -0.4489  0.4110
 3339SOL     OW13121   2.943   0.083   2.350  0.2280 -0.1356 -0.2751
 3339SOL    HW213122   2.873   0.037   2.305  0.9792 -0.9812 -0.5984
 3339SOL    HW313123   3.020   0.027   2.340  0.7206  0.2760  0.9515
 3339SOL    MW413124   2.944   0.070   2.343  0.0201 -0.2887 -0.2496
 3340SOL     OW13125   0.679   6.359   2.687  0.3777 -0.4811 -0.3094
 3340SOL    HW213126   0.648   6.269   2.676  0.3638 -0.6420  0.9146
 3340SOL    HW313127   0.600   6.409   2.704  0.3506 -0.1692 -1.2947
 3340SOL    MW413128   0.664   6.353   2.687  0.6225 -0.7141  0.5538
 3341SOL     OW13129   5.722   0.808   5.163 -0.3765  0.1772 -0.0045
 3341SOL    HW213130   5.697   0.867   5.233 -2.4267  0.1421 -0.6301
 3341SOL    HW313131   5.800   0.848   5.124  0.3743  0.5505  1.8146
 3341SOL    MW413132   5.729   0.821   5.167 -0.1286 -0.2066  0.2317
 3342SOL     OW13133   3.871   3.360   1.114  0.2426 -0.0017  0.2567
 3342SOL    HW213134   3.844   3.452   1.110  0.5819  0.2005  1.8875
 3342SOL    HW313135   3.965   3.363   1.130  0.5304 -0.6721 -1.1798
 3342SOL    MW413136   3.880   3.373   1.116 -0.0405 -0.5358  0.1993
 3343SOL     OW13137   0.934   0.732   4.692  0.0726 -0.3306 -0.0127
 3343SOL    HW213138   0.990   0.660   4.663  1.9108  0.9586  0.2251
 3343SOL    HW313139   0.847   0.708   4.659  1.0376 -1.5763 -1.8603
 3343SOL    MW413140   0.930   0.719   4.684 -0.1999  0.2062  0.7439
 3344SOL     OW13141   2.460   5.167   3.468  0.0698 -0.0037 -0.0692
 3344SOL    HW213142   2.368   5.167   3.495 -0.0528  0.3754 -0.4737
 3344SOL    HW313143   2.464   5.102   3.399  0.0769  0.0817 -0.1488
 3344SOL    MW413144   2.448   5.158   3.463 -0.1896 -0.1041  0.7129
 3345SOL     OW13145   1.520   0.823   3.954 -0.1820  0.7225 -0.0818
 3345SOL    HW213146   1.536   0.789   4.042  1.4182 -1.3608 -1.0769
 3345SOL    HW313147   1.475   0.752   3.908  2.4801  0.0579 -1.9911
 3345SOL    MW413148   1.516   0.809   3.959 -0.1509  0.0996 -0.1473
 3346SOL     OW13149   5.907   0.143   3.200 -0.0252  0.0692  0.0189
 3346SOL    HW213150   5.837   0.205   3.221 -0.1797  0.5329 -1.7090
 3346SOL    HW313151   5.891   0.069   3.259  0.0598  1.5364  2.0051
 3346SOL    MW413152   5.896   0.142   3.211  0.4494 -0.4795 -0.0255
 3347SOL     OW13153   5.317   2.135   3.162  0.0300 -0.3910  0.1589
 3347SOL    HW213154   5.352   2.165   3.245 -0.8976 -0.3294  0.5460
 3347SOL    HW313155   5.389   2.088   3.120  1.3596  1.8887 -0.2416
 3347SOL    MW413156   5.331   2.133   3.167 -0.0298  0.5506 -0.2367
 3348SOL     OW13157   3.536   2.437   1.361 -0.1003  0.3762  0.1273
 3348SOL    HW213158   3.630   2.456   1.357  0.3408 -1.0928  1.9448
 3348SOL    HW313159   3.506   2.443   1.270  2.3458 -1.7801 -0.9676
 3348SOL    MW413160   3.545   2.440   1.349 -0.0855  0.1560 -0.1835
 3349SOL     OW13161   3.023   1.919   2.041 -0.0339  0.1742 -0.2430
 3349SOL    HW213162   3.059   1.962   1.963 -2.8819  1.0725 -1.2132
 3349SOL    HW313163   3.031   1.826   2.022  1.7498  0.3100 -0.3423
 3349SOL    MW413164   3.029   1.913   2.028  0.5848 -0.2957  0.5380
 3350SOL     OW13165   3.377   4.016   4.603 -0.5092  0.2330 -0.1887
 3350SOL    HW213166   3.402   3.923   4.602  2.4408  0.9283 -0.2980
 3350SOL    HW313167   3.319   4.024   4.679 -0.8883 -1.6824 -0.2082
 3350SOL    MW413168   3.373   4.004   4.613 -0.6430 -0.0938  0.5718
 3351SOL     OW13169   4.460   5.161   2.052  0.2279  0.1232  0.2786
 3351SOL    HW213170   4.420   5.224   2.111 -2.1409  0.2472 -1.3293
 3351SOL    HW313171   4.423   5.077   2.077  0.4979 -0.0772  0.0175
 3351SOL    MW413172   4.450   5.158   2.063  0.1154 -0.3128  0.0216
 3352SOL     OW13173   1.432   3.366   0.583  0.5615  0.3445  0.4243
 3352SOL    HW213174   1.391   3.402   0.504  2.5361  0.4679 -0.6132
 3352SOL    HW313175   1.419   3.272   0.576 -0.0561  0.4247  0.4308
 3352SOL    MW413176   1.425   3.359   0.571 -0.1291  0.3615  0.3726
 3353SOL     OW13177   4.936   2.765   4.975 -0.2705  0.1258  0.0078
 3353SOL    HW213178   4.940   2.824   5.051  0.7923 -1.6377  1.3986
 3353SOL    HW313179   4.843   2.766   4.950 -0.6268  0.8701  1.2209
 3353SOL    MW413180   4.924   2.773   4.982  0.1763 -0.7923 -0.1197
 3354SOL     OW13181   5.748   3.772   3.070  0.2297  0.0982 -0.7938
 3354SOL    HW213182   5.663   3.789   3.110  0.3971  1.4196 -0.9519
 3354SOL    HW313183   5.762   3.678   3.082 -0.2101  0.2451  1.3230
 3354SOL    MW413184   5.739   3.762   3.077  0.1417  0.2492 -0.0051
 3355SOL     OW13185   3.984   3.429   3.263  0.4420  0.0619 -0.5385
 3355SOL    HW213186   4.066   3.404   3.307  0.7417 -0.5170 -1.4022
 3355SOL    HW313187   3.916   3.403   3.324  0.8542 -0.7552 -0.4046
 3355SOL    MW413188   3.986   3.422   3.277  0.4553  0.0859  0.2390
 3356SOL     OW13189   0.498   5.982   2.210  0.0580  0.2998  0.3379
 3356SOL    HW213190   0.420   5.930   2.192 -0.7330  1.5830 -0.0592
 3356SOL    HW313191   0.537   5.998   2.124  1.5707 -1.5072  0.6399
 3356SOL    MW413192   0.493   5.978   2.196  0.0194 -0.2031 -0.1882
 3357SOL     OW13193   5.722   2.086   5.621 -0.3050  0.0087  0.0407
 3357SOL    HW213194   5.670   2.127   5.552 -1.6807  0.4813  1.3067
 3357SOL    HW313195   5.715   2.145   5.695  0.3255 -0.9650  0.9062
 3357SOL    MW413196   5.714   2.099   5.621  0.0082 -0.1503 -0.3627
 3358SOL     OW13197   2.041   5.965   4.342 -0.3380  0.5927  0.1259
 3358SOL    HW213198   2.030   6.042   4.398  0.2940  0.0279  1.0591
 3358SOL    HW313199   2.131   5.973   4.310  0.2862 -0.5566  1.5023
 3358SOL    MW413200   2.052   5.976   4.345 -0.3590  0.0220 -0.0012
 3359SOL     OW13201   2.442   5.422   4.287 -0.5218 -0.3513  0.2426
 3359SOL    HW213202   2.488   5.350   4.244 -0.6535 -0.6495  0.6028
 3359SOL    HW313203   2.352   5.417   4.253 -0.1250  0.6971 -1.0474
 3359SOL    MW413204   2.436   5.412   4.277  0.4448 -0.0185  0.1074
 3360SOL     OW13205   3.271   3.317   1.777 -0.3439 -0.1989 -0.1678
 3360SOL    HW213206   3.336   3.368   1.826  1.7586 -2.3233 -0.5673
 3360SOL    HW313207   3.304   3.227   1.780 -1.7027 -0.9050 -2.9571
 3360SOL    MW413208   3.284   3.312   1.784  0.3062  0.2854  0.0217
 3361SOL     OW13209   2.928   4.315   1.841  0.3085 -0.6297  0.1686
 3361SOL    HW213210   2.968   4.229   1.855  3.0169  0.1069 -2.2307
 3361SOL    HW313211   2.843   4.295   1.802  0.1881 -2.2033  1.1317
 3361SOL    MW413212   2.922   4.301   1.838 -0.8667  0.4392 -0.3438
 3362SOL     OW13213   0.807   6.067   5.835 -0.2946  0.5076  0.5623
 3362SOL    HW213214   0.769   6.047   5.921 -0.7388  1.0514  0.4914
 3362SOL    HW313215   0.879   6.004   5.826  1.1254  1.7789  2.2515
 3362SOL    MW413216   0.812   6.056   5.845 -0.2510  0.3676 -0.1002
 3363SOL     OW13217   0.567   5.340   0.493  0.1540 -0.0536  0.2928
 3363SOL    HW213218   0.484   5.294   0.488  1.2120 -2.0524 -0.2099
 3363SOL    HW313219   0.620   5.287   0.553  0.5817  2.0524  1.8819
 3363SOL    MW413220   0.563   5.327   0.500  0.1951  0.5208 -0.5730
 3364SOL     OW13221   0.364   2.090   0.227 -0.1280 -0.0020 -0.1342
 3364SOL    HW213222   0.308   2.013   0.229 -0.7183  0.2637 -2.8025
 3364SOL    HW313223   0.444   2.060   0.182 -0.1112  0.7590 -0.6384
 3364SOL    MW413224   0.367   2.075   0.221 -0.5758  0.3418 -0.2206
 3365SOL     OW13225   1.629   3.787   2.018  0.6786  0.2919 -0.0073
 3365SOL    HW213226   1.625   3.692   2.008 -1.7075  0.3814 -0.3492
 3365SOL    HW313227   1.632   3.801   2.113  0.2231 -0.1213  0.0722
 3365SOL    MW413228   1.629   3.777   2.029 -0.8243  0.6038  0.0830
 3366SOL     OW13229   0.887   4.738   5.705  0.3355 -0.1182  0.0822
 3366SOL    HW213230   0.803   4.742   5.659 -0.0745  0.7046  0.8698
 3366SOL    HW313231   0.944   4.688   5.647 -0.7411 -0.8201 -0.3958
 3366SOL    MW413232   0.884   4.732   5.691  0.1499 -0.2566 -0.0954
 3367SOL     OW13233   3.785   3.949   6.221 -0.0626 -0.1179 -1.2043
 3367SOL    HW213234   3.857   4.010   6.204  0.2214 -0.1917 -0.3490
 3367SOL    HW313235   3.710   3.987   6.176 -0.0879  1.3171 -0.0498
 3367SOL    MW413236   3.785   3.962   6.213 -0.0111 -0.7371  0.0226
 3368SOL     OW13237   0.423   4.386   3.483 -0.5674  0.5174 -0.2400
 3368SOL    HW213238   0.394   4.367   3.394 -1.4843  0.1494  0.1168
 3368SOL    HW313239   0.353   4.352   3.539  0.1151  0.5033  0.6358
 3368SOL    MW413240   0.410   4.379   3.479  0.4529  0.3016 -0.3899
 3369SOL     OW13241   1.527   4.887   5.756 -0.2596 -0.4993 -0.3488
 3369SOL    HW213242   1.535   4.961   5.816  0.8933 -1.0138  0.1680
 3369SOL    HW313243   1.433   4.869   5.752 -0.3154 -1.0782  2.0948
 3369SOL    MW413244   1.516   4.895   5.763 -0.5097  0.0770 -0.6162
 3370SOL     OW13245   2.286   4.524   5.161 -0.4032  0.0907  0.5153
 3370SOL    HW213246   2.358   4.498   5.103  0.2169  1.5622  0.5691
 3370SOL    HW313247   2.250   4.603   5.121 -1.8802 -0.5079  0.6072
 3370SOL    MW413248   2.291   4.531   5.148 -0.3439 -0.5340  0.2902
 3371SOL     OW13249   1.390   6.347   1.445 -0.2170  0.6683  0.4246
 3371SOL    HW213250   1.424   6.413   1.383  0.4127 -0.1296 -0.1019
 3371SOL    HW313251   1.433   6.266   1.419  0.1633  0.3291  2.0031
 3371SOL    MW413252   1.400   6.345   1.433 -0.2428  0.0936  0.2532
 3372SOL     OW13253   5.769   4.548   6.137  0.2073  0.0580 -0.0810
 3372SOL    HW213254   5.707   4.621   6.140  0.9985  0.7336  0.1369
 3372SOL    HW313255   5.715   4.471   6.117 -0.4510  0.9154 -1.8024
 3372SOL    MW413256   5.754   4.547   6.134  0.2511 -0.0386 -0.8328
 3373SOL     OW13257   5.651   4.375   3.277  0.0554 -0.2208  0.2705
 3373SOL    HW213258   5.592   4.311   3.315  1.1992 -0.4491  1.7552
 3373SOL    HW313259   5.699   4.327   3.208  0.9720 -1.0283  1.4316
 3373SOL    MW413260   5.650   4.361   3.273  0.1525  0.1198  0.0716
 3374SOL     OW13261   3.605   4.821   2.316  0.0045  0.0117  0.3020
 3374SOL    HW213262   3.632   4.730   2.302 -0.8392  0.0041 -1.6966
 3374SOL    HW313263   3.680   4.862   2.359  2.3661 -0.5204 -2.9265
 3374SOL    MW413264   3.618   4.814   2.320 -0.0907  0.0878 -0.1914
 3375SOL     OW13265   6.381   3.191   3.570 -0.0880 -0.1075  0.5454
 3375SOL    HW213266   6.409   3.118   3.625 -1.0583 -1.6413 -0.8915
 3375SOL    HW313267   6.375   3.265   3.629  1.3224 -1.0836  1.9841
 3375SOL    MW413268   6.384   3.191   3.585 -0.0510  0.2983 -0.1215
 3376SOL     OW13269   5.575   3.186   1.596  0.1054 -0.0242  0.4671
 3376SOL    HW213270   5.585   3.259   1.535 -0.3943 -0.4391 -0.1230
 3376SOL    HW313271   5.579   3.108   1.541  0.3378 -0.4334  1.0558
 3376SOL    MW413272   5.577   3.185   1.581  0.4176 -0.1236  0.1409
 3377SOL     OW13273   0.428   0.339   3.689 -0.3614 -0.1325 -0.0570
 3377SOL    HW213274   0.405   0.378   3.605  0.4186 -0.4402 -0.4288
 3377SOL    HW313275   0.438   0.246   3.671  0.1424 -0.1555  0.2997
 3377SOL    MW413276   0.427   0.332   3.676 -0.5426  0.5933 -0.1061
 3378SOL     OW13277   5.153   4.141   2.113 -0.3198 -1.2348  0.3545
 3378SOL    HW213278   5.111   4.077   2.170  0.2361 -0.3815  1.7757
 3378SOL    HW313279   5.244   4.145   2.144 -0.2364 -0.0993  0.0212
 3378SOL    MW413280   5.159   4.133   2.125 -0.3367 -0.2552  0.4289
 3379SOL     OW13281   5.084   4.059   4.854  0.1525  0.2820 -0.3659
 3379SOL    HW213282   5.023   3.992   4.824 -0.0838  0.1841  0.3189
 3379SOL    HW313283   5.074   4.061   4.949 -0.8076  2.1848 -0.4545
 3379SOL    MW413284   5.075   4.050   4.863  0.1149  0.3304 -0.4549
 3380SOL     OW13285   5.862   6.397   0.881 -0.3820  0.3050  0.7093
 3380SOL    HW213286   5.826   6.483   0.902  0.0182  0.1921  1.9330
 3380SOL    HW313287   5.785   6.340   0.874 -0.5241  0.2446  2.4317
 3380SOL    MW413288   5.847   6.401   0.883  0.3129  0.0732 -0.5149
 3381SOL     OW13289   1.861   4.015   6.179 -0.1046 -1.0587  0.2163
 3381SOL    HW213290   1.777   4.053   6.152  0.6245  0.9692  0.5623
 3381SOL    HW313291   1.838   3.949   6.244 -1.4266 -0.3393  0.5181
 3381SOL    MW413292   1.847   4.012   6.184 -0.1318  0.3556 -0.1068
 3382SOL     OW13293   4.569   4.675   5.457  0.4227 -0.1096  0.3085
 3382SOL    HW213294   4.486   4.717   5.436  1.2959  1.3803 -0.3295
 3382SOL    HW313295   4.561   4.586   5.421 -0.6954  0.1823 -0.1975
 3382SOL    MW413296   4.557   4.669   5.449 -0.5074 -0.6549 -0.3736
 3383SOL     OW13297   6.437   1.392   2.223  0.1194  0.0685 -0.3748
 3383SOL    HW213298   6.391   1.461   2.271  1.3251  0.0597  0.8670
 3383SOL    HW313299   6.481   1.341   2.291  0.2862 -1.1539 -1.3706
 3383SOL    MW413300   6.437   1.395   2.238  0.0764  0.2775 -0.3931
 3384SOL     OW13301   5.474   5.284   2.584  0.3652  0.1192  0.0250
 3384SOL    HW213302   5.542   5.325   2.637  0.0874  0.1213  0.3785
 3384SOL    HW313303   5.448   5.352   2.522  0.8291  0.0533 -0.2527
 3384SOL    MW413304   5.480   5.298   2.583 -0.1269  0.0357  0.0454
 3385SOL     OW13305   5.030   3.017   5.693  0.1102  0.4790 -0.2539
 3385SOL    HW213306   4.991   2.934   5.665  1.6400 -0.1177 -0.7132
 3385SOL    HW313307   4.994   3.032   5.780 -0.2168 -0.6499 -0.1742
 3385SOL    MW413308   5.020   3.008   5.701 -0.3243 -0.3439 -0.0727
 3386SOL     OW13309   2.199   0.328   5.633 -0.2018  0.7703 -0.4872
 3386SOL    HW213310   2.159   0.242   5.621 -1.5356  1.4598 -1.1960
 3386SOL    HW313311   2.265   0.314   5.702 -1.1388 -0.5746  0.1884
 3386SOL    MW413312   2.203   0.315   5.641 -0.0820 -0.5072  0.1037
 3387SOL     OW13313   3.824   6.178   4.416 -0.0210 -0.3677  0.0392
 3387SOL    HW213314   3.769   6.235   4.470  0.1709  0.0933 -0.2545
 3387SOL    HW313315   3.855   6.111   4.477 -1.5897 -1.1322  0.0401
 3387SOL    MW413316   3.821   6.177   4.431  0.0606  0.5979 -0.0462
 3388SOL     OW13317   4.941   6.320   3.352 -0.6718 -0.2386  0.2233
 3388SOL    HW213318   4.958   6.247   3.411 -0.8948  0.3929  1.0997
 3388SOL    HW313319   5.015   6.321   3.292 -0.0365 -0.4155  0.9946
 3388SOL    MW413320   4.953   6.311   3.352 -0.3993  0.2752 -0.3796
 3389SOL     OW13321   2.804   0.605   5.033  0.1666 -0.0747  0.7830
 3389SOL    HW213322   2.851   0.535   4.988  0.7153  0.5847  0.3050
 3389SOL    HW313323   2.797   0.675   4.967 -0.7536  0.1533  1.1117
 3389SOL    MW413324   2.809   0.605   5.018 -0.1041  0.8175 -0.1448
 3390SOL     OW13325   1.399   3.328   4.335  0.0104  0.7281  0.2915
 3390SOL    HW213326   1.339   3.281   4.276 -0.7141 -1.1137  2.3434
 3390SOL    HW313327   1.469   3.265   4.353 -0.0109  1.0544  1.6654
 3390SOL    MW413328   1.400   3.313   4.330  0.4377  0.1620  0.4309
 3391SOL     OW13329   2.881   0.243   1.129 -0.2654 -0.9141  0.0694
 3391SOL    HW213330   2.906   0.235   1.037 -1.2132  1.5377 -0.4827
 3391SOL    HW313331   2.933   0.316   1.163 -0.9628 -0.8508  1.0634
 3391SOL    MW413332   2.891   0.251   1.122 -0.6739  0.2989 -0.0742
 3392SOL     OW13333   0.986   3.327   4.428  0.1330  0.0973  0.5314
 3392SOL    HW213334   1.025   3.332   4.515  0.1093  0.5427  0.5203
 3392SOL    HW313335   0.892   3.337   4.444  0.2289  1.5197  0.3509
 3392SOL    MW413336   0.979   3.329   4.441  0.8739  0.2374 -0.7443
 3393SOL     OW13337   0.156   1.687   5.369 -0.1367 -0.2072  0.3026
 3393SOL    HW213338   0.215   1.635   5.315  1.1605  0.6290  0.8402
 3393SOL    HW313339   0.204   1.700   5.451 -0.6566  1.2858  0.4105
 3393SOL    MW413340   0.170   1.682   5.373 -0.3594  0.4601 -0.5458
 3394SOL     OW13341   4.712   6.098   4.683 -0.4413  0.5207 -0.4066
 3394SOL    HW213342   4.782   6.127   4.742 -0.1958 -1.5132  0.4008
 3394SOL    HW313343   4.756   6.083   4.599 -0.4729  1.8522 -0.6833
 3394SOL    MW413344   4.727   6.100   4.680 -0.4691 -0.5556  0.6618
 3395SOL     OW13345   0.922   3.905   1.492 -0.2197  0.7221 -0.3888
 3395SOL    HW213346   0.875   3.827   1.461  0.0399  0.8855 -1.2234
 3395SOL    HW313347   0.856   3.957   1.536 -0.4211  0.0742  0.0886
 3395SOL    MW413348   0.907   3.901   1.493 -0.0578 -0.0471  0.7349
 3396SOL     OW13349   4.897   3.154   5.355  0.0189 -0.3604 -0.0208
 3396SOL    HW213350   4.956   3.171   5.429  0.9609 -1.7154 -0.4194
 3396SOL    HW313351   4.927   3.070   5.320 -2.7308 -1.5659  0.2889
 3396SOL    MW413352   4.909   3.145   5.361  0.1964 -0.1149  0.5680
 3397SOL     OW13353   3.043   3.208   1.496  0.1221 -0.0947 -0.3751
 3397SOL    HW213354   3.113   3.272   1.510 -0.8342  0.7201  0.8761
 3397SOL    HW313355   3.019   3.217   1.404  0.6886  0.6328 -0.4502
 3397SOL    MW413356   3.049   3.217   1.486  0.1925 -0.0792 -0.3332
 3398SOL     OW13357   5.729   1.256   3.083 -0.1629  0.3728 -0.1037
 3398SOL    HW213358   5.778   1.215   3.012 -0.4789 -0.4211  0.1174
 3398SOL    HW313359   5.781   1.333   3.107 -0.5160  1.1838 -1.7850
 3398SOL    MW413360   5.742   1.261   3.077  0.1114 -1.0898  0.2984
 3399SOL     OW13361   5.985   5.252   2.830  1.0304  0.3491  0.3443
 3399SOL    HW213362   6.002   5.205   2.912  0.0383 -0.5442  0.0728
 3399SOL    HW313363   5.979   5.344   2.856 -0.8343 -0.0609  1.5858
 3399SOL    MW413364   5.986   5.258   2.844 -0.1400  0.1173 -0.0274
 3400SOL     OW13365   6.444   4.070   4.610 -0.0076 -0.1238 -0.2657
 3400SOL    HW213366   6.418   4.162   4.609  1.6932  0.3728 -0.6547
 3400SOL    HW313367   6.428   4.040   4.521 -1.8733 -0.6311  0.1907
 3400SOL    MW413368   6.438   4.078   4.598 -0.8410 -0.3645 -0.2696
 3401SOL     OW13369   4.223   3.155   1.732  0.4296  0.2969 -0.2876
 3401SOL    HW213370   4.207   3.186   1.643 -0.3076  0.1378 -0.2123
 3401SOL    HW313371   4.298   3.096   1.724  2.1913  2.4182 -0.3599
 3401SOL    MW413372   4.231   3.151   1.719  0.2992  0.0774  0.5617
 3402SOL     OW13373   0.964   0.622   5.134 -0.1919 -0.5246 -0.1923
 3402SOL    HW213374   1.056   0.639   5.114 -0.0890 -0.5513  0.2660
 3402SOL    HW313375   0.940   0.551   5.074 -0.0520 -0.1942 -0.6516
 3402SOL    MW413376   0.973   0.615   5.123 -0.0990  0.1501 -0.4791
 3403SOL     OW13377   3.653   2.115   6.321 -0.8357  0.1284  1.0009
 3403SOL    HW213378   3.644   2.081   6.232 -1.1234 -0.5596  1.2822
 3403SOL    HW313379   3.583   2.180   6.329 -0.9956 -0.0182  0.8169
 3403SOL    MW413380   3.642   2.119   6.310  0.1544  0.0566  0.8097
 3404SOL     OW13381   1.876   0.809   3.956  0.0938 -0.1319 -0.4298
 3404SOL    HW213382   1.819   0.879   3.924 -0.7364 -0.4486  0.3177
 3404SOL    HW313383   1.909   0.767   3.876 -2.7992 -1.6122 -0.9850
 3404SOL    MW413384   1.873   0.813   3.941 -0.5109 -0.2804 -0.2330
 3405SOL     OW13385   1.644   2.432   3.519 -0.1429 -0.0477  0.1019
 3405SOL    HW213386   1.612   2.414   3.431 -1.6548  1.5279  0.2817
 3405SOL    HW313387   1.736   2.454   3.507  0.1875 -1.7079 -0.8073
 3405SOL    MW413388   1.652   2.432   3.506 -0.1406 -0.5766  0.0864
 3406SOL     OW13389   4.630   0.037   5.901  0.0093  0.1006  0.5387
 3406SOL    HW213390   4.694  -0.006   5.957  1.2723  2.7490  1.2941
 3406SOL    HW313391   4.623   0.126   5.936  0.5564  1.8121 -3.1981
 3406SOL    MW413392   4.637   0.043   5.913  0.6910 -0.2803  0.1307
 3407SOL     OW13393   5.204   0.667   0.881  0.0806 -0.3745 -0.1991
 3407SOL    HW213394   5.253   0.725   0.938  1.4239  0.2768 -1.9234
 3407SOL    HW313395   5.251   0.669   0.798 -2.3550 -0.4440 -1.6988
 3407SOL    MW413396   5.216   0.675   0.877 -0.1118 -0.0962 -0.8776
 3408SOL     OW13397   3.924   0.438   2.651 -0.3131 -0.0331  0.0722
 3408SOL    HW213398   3.850   0.484   2.690  0.0078  0.2054  0.4079
 3408SOL    HW313399   4.001   0.487   2.681  0.0567 -1.0145  0.7548
 3408SOL    MW413400   3.924   0.451   2.660 -0.3841 -0.1736  0.1724
 3409SOL     OW13401   4.247   6.044   4.006 -0.1376 -0.1225 -0.5650
 3409SOL    HW213402   4.222   6.071   4.094 -0.6931  3.3543 -1.6624
 3409SOL    HW313403   4.197   6.100   3.947  1.6855 -0.9217 -3.0940
 3409SOL    MW413404   4.237   6.055   4.010  0.1911 -0.2714  0.4356
 3410SOL     OW13405   2.297   4.631   5.432 -0.4719 -0.2022  1.1203
 3410SOL    HW213406   2.294   4.581   5.351  0.3217  0.2754  0.7911
 3410SOL    HW313407   2.248   4.578   5.495 -2.3364  0.0746 -0.0201
 3410SOL    MW413408   2.290   4.617   5.429  0.0485 -0.5269 -0.3710
 3411SOL     OW13409   1.570   3.143   1.200 -0.7944 -0.6138  0.0901
 3411SOL    HW213410   1.603   3.208   1.139 -0.1957 -1.2464 -0.2767
 3411SOL    HW313411   1.475   3.143   1.187 -0.6370 -1.1057 -1.2348
 3411SOL    MW413412   1.562   3.151   1.190 -0.3663 -0.5768 -0.6302
 3412SOL     OW13413   0.471   0.367   4.711 -0.0662  0.3200  0.9523
 3412SOL    HW213414   0.397   0.319   4.674  0.5237  0.9558 -1.1996
 3412SOL    HW313415   0.548   0.329   4.670  0.6324  1.0762  1.5265
 3412SOL    MW413416   0.471   0.356   4.701  0.0969 -0.1330 -0.1135
 3413SOL     OW13417   5.085   3.144   2.640  0.1447  0.0104 -0.6132
 3413SOL    HW213418   5.006   3.179   2.681  0.3703  1.0636 -1.0341
 3413SOL    HW313419   5.099   3.200   2.563  0.7511 -0.7783 -1.0985
 3413SOL    MW413420   5.076   3.156   2.635  0.1122  0.7587 -0.3184
 3414SOL     OW13421   2.471   2.979   3.383  0.4640 -0.4258 -0.4014
 3414SOL    HW213422   2.445   2.935   3.464  3.6023  1.5452  1.8665
 3414SOL    HW313423   2.411   3.053   3.375 -1.7466 -2.2161 -1.6408
 3414SOL    MW413424   2.459   2.983   3.393  0.1201  0.8940  0.4631
 3415SOL     OW13425   4.491   4.352   4.756 -0.1392  0.6897 -0.0383
 3415SOL    HW213426   4.475   4.258   4.747 -0.3926  0.8095 -0.8475
 3415SOL    HW313427   4.496   4.385   4.667  1.9076  1.1361  0.1781
 3415SOL    MW413428   4.490   4.344   4.743  0.2009 -0.1442  0.2589
 3416SOL     OW13429   0.312   3.416   3.184 -0.2388  0.1288 -0.1849
 3416SOL    HW213430   0.384   3.448   3.239 -1.1320  2.2583 -0.1462
 3416SOL    HW313431   0.347   3.338   3.141  1.7319  0.5280  0.5985
 3416SOL    MW413432   0.326   3.410   3.186  0.3304 -0.3782 -0.3319
 3417SOL     OW13433   5.050   3.979   2.968 -0.1693  0.1327  0.1792
 3417SOL    HW213434   5.121   3.916   2.981 -1.0816 -0.5991  2.0806
 3417SOL    HW313435   4.993   3.938   2.903  0.2200 -0.1000 -0.0215
 3417SOL    MW413436   5.052   3.966   2.961  0.2804 -0.5162 -0.5106
 3418SOL     OW13437   5.750   0.991   5.353  0.1569  0.3078  0.0742
 3418SOL    HW213438   5.731   1.078   5.316 -0.8601  0.3107  0.5551
 3418SOL    HW313439   5.844   0.992   5.370  0.1556  1.3436  0.1047
 3418SOL    MW413440   5.760   1.003   5.351  0.5459 -0.7372  0.3419
 3419SOL     OW13441   1.692   2.874   2.107 -0.2880 -0.1062 -0.2796
 3419SOL    HW213442   1.749   2.831   2.171 -1.0837  1.0772  1.2919
 3419SOL    HW313443   1.745   2.946   2.072 -0.1339 -0.2455 -0.3334
 3419SOL    MW413444   1.707   2.878   2.111 -0.0933 -0.4832 -0.1117
 3420SOL     OW13445   0.366   2.729   5.698  0.0388 -0.4051 -0.5508
 3420SOL    HW213446   0.411   2.753   5.779 -1.5077 -2.0335  0.8666
 3420SOL    HW313447   0.401   2.643   5.676  0.8259  0.2344 -1.9780
 3420SOL    MW413448   0.377   2.721   5.705 -0.1511 -0.4543 -0.2689
 3421SOL     OW13449   3.876   1.330   5.349 -0.1454  0.2969 -1.1729
 3421SOL    HW213450   3.863   1.385   5.272  1.0788 -0.5499 -2.0348
 3421SOL    HW313451   3.970   1.333   5.366 -0.3737  0.3791  0.2501
 3421SOL    MW413452   3.887   1.337   5.341  0.4279  0.4878  0.1179
 3422SOL     OW13453   2.604   1.243   1.609  0.4156  0.1600  0.2827
 3422SOL    HW213454   2.691   1.235   1.648  0.3859  0.0485  0.3281
 3422SOL    HW313455   2.556   1.168   1.645 -0.1005  0.9596  1.3130
 3422SOL    MW413456   2.609   1.232   1.619 -0.5558 -0.1240 -0.1721
 3423SOL     OW13457   5.150   0.036   2.044  0.6634 -0.3992 -0.2789
 3423SOL    HW213458   5.071  -0.008   2.013  0.9336  0.5648 -2.5727
 3423SOL    HW313459   5.118   0.112   2.093  0.2165 -2.0223  2.1102
 3423SOL    MW413460   5.135   0.040   2.046  0.0290 -0.3109 -1.0492
 3424SOL     OW13461   2.088   5.189   2.115  0.0790 -0.1109  0.0812
 3424SOL    HW213462   2.148   5.211   2.045  0.5338  0.2762  0.5821
 3424SOL    HW313463   2.104   5.255   2.183  0.3029 -1.0140  0.9327
 3424SOL    MW413464   2.098   5.201   2.115  0.4135  0.1005  0.4129
 3425SOL     OW13465   2.751   3.282   0.859  0.5560  0.1515  0.2051
 3425SOL    HW213466   2.814   3.351   0.840 -1.3490  2.2045  0.9131
 3425SOL    HW313467   2.683   3.292   0.792  0.4167 -1.2848  0.1002
 3425SOL    MW413468   2.750   3.292   0.848 -0.7430 -0.2072 -0.1705
 3426SOL     OW13469   1.119   3.140   5.722 -0.6717  0.0631 -0.2198
 3426SOL    HW213470   1.201   3.188   5.729 -0.6077  0.1433 -1.3506
 3426SOL    HW313471   1.067   3.191   5.660 -1.6213  0.0694  0.5592
 3426SOL    MW413472   1.123   3.153   5.715 -0.1561 -0.4141 -0.0186
 3427SOL     OW13473   5.218   1.310   3.460 -0.2452 -0.0284  0.7339
 3427SOL    HW213474   5.293   1.345   3.508 -1.3716  0.7075  2.0584
 3427SOL    HW313475   5.187   1.238   3.515 -1.0756  0.3011  0.7084
 3427SOL    MW413476   5.224   1.305   3.474 -0.4344  0.0456 -0.3282
 3428SOL     OW13477   1.744   1.615   3.029  0.0348  0.4684  0.2173
 3428SOL    HW213478   1.720   1.705   3.007 -0.3493  0.6193  1.2029
 3428SOL    HW313479   1.782   1.580   2.949  0.6655  1.6709 -0.0266
 3428SOL    MW413480   1.746   1.622   3.016  0.0551  0.1371 -0.2746
 3429SOL     OW13481   2.593   5.562   1.746  0.4868  0.0575  0.3685
 3429SOL    HW213482   2.639   5.577   1.828  1.0750 -0.7853  0.2078
 3429SOL    HW313483   2.656   5.587   1.678 -0.1543  1.1790  0.1704
 3429SOL    MW413484   2.607   5.567   1.748  0.2456  0.0784  0.2630
 3430SOL     OW13485   2.336   6.307   1.291  0.5417  0.1614 -0.1803
 3430SOL    HW213486   2.292   6.243   1.346 -0.9807  1.9189  0.7507
 3430SOL    HW313487   2.271   6.330   1.224  0.8662  1.1031 -0.1894
 3430SOL    MW413488   2.321   6.302   1.289 -0.5020  0.1373 -0.2407
 3431SOL     OW13489   1.500   2.755   1.504  0.5270 -0.6155  0.4715
 3431SOL    HW213490   1.481   2.749   1.410 -1.3913 -1.3305  0.8724
 3431SOL    HW313491   1.466   2.840   1.530 -0.7585 -1.2381  0.8854
 3431SOL    MW413492   1.493   2.766   1.495 -0.4881  0.2473  0.3949
 3432SOL     OW13493   0.947   4.869   6.358 -0.2148 -0.0476  0.1430
 3432SOL    HW213494   0.971   4.961   6.369 -0.5610 -0.1611  2.4850
 3432SOL    HW313495   0.853   4.867   6.377 -1.1712 -0.3856 -3.7349
 3432SOL    MW413496   0.938   4.881   6.362 -0.1578 -0.9686 -0.2388
 3433SOL     OW13497   1.490   5.085   0.861  0.3931 -0.1619 -0.2130
 3433SOL    HW213498   1.517   5.158   0.806  1.3891 -0.3094  0.0584
 3433SOL    HW313499   1.463   5.017   0.800 -0.8882  0.5298 -0.4674
 3433SOL    MW413500   1.490   5.086   0.846 -0.0037 -0.7781  0.0183
 3434SOL     OW13501   0.536   3.460   2.423 -0.6837  0.3927  0.3468
 3434SOL    HW213502   0.530   3.369   2.393  2.4978  0.4230 -0.7106
 3434SOL    HW313503   0.627   3.471   2.451 -1.4146  2.7986  2.1526
 3434SOL    MW413504   0.547   3.449   2.423 -0.0831 -0.1125  0.2845
 3435SOL     OW13505   0.634   3.549   2.848 -0.5470  0.3800 -0.0866
 3435SOL    HW213506   0.547   3.544   2.807 -0.8115  1.7024  0.2909
 3435SOL    HW313507   0.660   3.640   2.838  0.9990 -0.0907 -0.5594
 3435SOL    MW413508   0.626   3.560   2.841  0.1470 -0.1470 -0.2469
 3436SOL     OW13509   1.011   3.491   0.726 -0.4246 -0.4356 -0.4196
 3436SOL    HW213510   1.017   3.448   0.640  0.9812  0.6699 -0.9284
 3436SOL    HW313511   1.020   3.584   0.706 -0.9394 -0.0888  0.8755
 3436SOL    MW413512   1.013   3.498   0.712 -0.2364  0.0164  0.2735
 3437SOL     OW13513   6.176   1.968   1.858  0.0267 -0.2256 -0.0333
 3437SOL    HW213514   6.178   1.912   1.781 -1.0603 -1.1911  0.5948
 3437SOL    HW313515   6.143   1.911   1.928 -0.6392  1.0576  0.7453
 3437SOL    MW413516   6.172   1.953   1.857 -0.4924 -0.1056 -0.7314
 3438SOL     OW13517   2.385   3.196   5.303 -0.0739  0.4615 -0.1522
 3438SOL    HW213518   2.443   3.186   5.228 -2.9004 -0.5886 -2.3672
 3438SOL    HW313519   2.297   3.187   5.267 -1.6301  0.7507  3.1938
 3438SOL    MW413520   2.381   3.194   5.288 -0.3794 -0.2272  0.3817
 3439SOL     OW13521   4.933   4.624   1.823 -0.4668  0.1394 -0.1865
 3439SOL    HW213522   4.967   4.594   1.908 -0.5216  0.0758 -0.1869
 3439SOL    HW313523   4.844   4.654   1.842  0.2789  2.2725  0.2223
 3439SOL    MW413524   4.926   4.624   1.837 -0.3454  0.1169 -0.5716
 3440SOL     OW13525   6.133   3.803   5.148  0.1223 -0.4737 -0.5115
 3440SOL    HW213526   6.050   3.839   5.117 -0.2005 -0.6774  0.1180
 3440SOL    HW313527   6.197   3.832   5.082 -0.4236 -0.2333 -0.9450
 3440SOL    MW413528   6.131   3.812   5.135 -0.3367  0.3152 -0.3124
 3441SOL     OW13529   0.623   4.985   4.125  0.0625  0.2455 -0.0788
 3441SOL    HW213530   0.551   4.924   4.139 -0.4439  0.3350 -2.0874
 3441SOL    HW313531   0.582   5.072   4.130  0.4923  0.4053  1.1336
 3441SOL    MW413532   0.608   4.989   4.128  0.5169  0.4265 -0.1791
 3442SOL     OW13533   3.565   4.549   2.067  0.1361  0.0404 -0.0058
 3442SOL    HW213534   3.542   4.540   2.160 -1.7543  0.3074 -0.3963
 3442SOL    HW313535   3.641   4.607   2.067 -0.6764  1.2025  1.3322
 3442SOL    MW413536   3.572   4.556   2.080 -0.1818 -0.2168  0.4823
 3443SOL     OW13537   0.768   5.829   3.763 -0.2065 -0.4243 -0.8907
 3443SOL    HW213538   0.679   5.861   3.766 -0.3041 -0.7107 -0.6791
 3443SOL    HW313539   0.801   5.857   3.677 -0.6843 -0.8015 -1.2058
 3443SOL    MW413540   0.761   5.837   3.752  0.1531  0.2906  0.6137
 3444SOL     OW13541   6.044   4.644   3.542  0.1589 -0.5956 -0.1539
 3444SOL    HW213542   5.974   4.598   3.496 -1.2203 -0.6958  1.9228
 3444SOL    HW313543   6.001   4.717   3.585  1.5195 -0.0945  0.4231
 3444SOL    MW413544   6.029   4.648   3.541 -0.3846  0.7623 -0.2841
 3445SOL     OW13545   5.809   3.829   1.977  0.2695  0.1919  0.0706
 3445SOL    HW213546   5.874   3.858   2.041  0.5313 -0.9406  0.3410
 3445SOL    HW313547   5.735   3.888   1.990  0.9964  1.1008  0.1891
 3445SOL    MW413548   5.808   3.841   1.987  0.3154  0.0053  0.2781
 3446SOL     OW13549   5.296   1.769   2.200 -0.9804  0.5064 -0.4493
 3446SOL    HW213550   5.314   1.722   2.282 -1.2130  1.4594  0.1631
 3446SOL    HW313551   5.275   1.700   2.137 -0.0937 -0.2858  0.1029
 3446SOL    MW413552   5.295   1.754   2.203  0.2753 -0.4874 -0.5166
 3447SOL     OW13553   4.448   5.911   6.421  0.0470 -0.1264 -0.9246
 3447SOL    HW213554   4.455   5.957   6.505  0.5017 -0.9410 -0.5115
 3447SOL    HW313555   4.500   5.832   6.432 -1.0517 -0.9517 -1.4962
 3447SOL    MW413556   4.456   5.907   6.434  0.4137 -0.4051 -0.0560
 3448SOL     OW13557   0.892   1.507   2.627  0.2016  0.3730 -0.6169
 3448SOL    HW213558   0.827   1.473   2.565  0.6671 -0.9903 -0.3974
 3448SOL    HW313559   0.973   1.461   2.604  0.2127 -0.7898  1.4903
 3448SOL    MW413560   0.895   1.496   2.615 -0.3180 -0.4294 -0.4943
 3449SOL     OW13561   1.015   1.823   2.290  0.0130 -0.3503 -0.1872
 3449SOL    HW213562   0.932   1.870   2.286  0.1924 -0.1005 -1.8753
 3449SOL    HW313563   1.021   1.779   2.205  1.6760 -0.2135 -0.1686
 3449SOL    MW413564   1.005   1.824   2.278 -0.2333  0.3641  0.0258
 3450SOL     OW13565   4.981   3.857   5.795 -0.6209  0.2538  0.2324
 3450SOL    HW213566   5.072   3.833   5.781 -1.4295 -2.4280 -1.0251
 3450SOL    HW313567   4.950   3.798   5.863 -1.5667  0.8225  0.3255
 3450SOL    MW413568   4.989   3.846   5.802 -0.7406 -0.1540 -0.2244
 3451SOL     OW13569   4.218   0.978   2.994 -0.8250 -0.3155  0.1088
 3451SOL    HW213570   4.205   0.948   3.084  0.1868 -0.1900  0.3144
 3451SOL    HW313571   4.130   0.994   2.961 -1.2235 -0.5948  0.9958
 3451SOL    MW413572   4.205   0.976   3.002 -0.2722  0.2041  0.1585
 3452SOL     OW13573   4.378   4.436   4.479  0.0805 -0.1154 -0.1454
 3452SOL    HW213574   4.426   4.510   4.440  0.5645  0.2229  1.0601
 3452SOL    HW313575   4.337   4.473   4.557  1.1613 -1.3512  1.0442
 3452SOL    MW413576   4.379   4.451   4.484 -0.3010 -0.2145  0.1176
 3453SOL     OW13577   1.895   3.599   1.488  0.2622 -0.2335  0.4756
 3453SOL    HW213578   1.869   3.604   1.580 -1.0908 -0.3426  0.1134
 3453SOL    HW313579   1.815   3.617   1.439  1.1157  0.5411 -0.6879
 3453SOL    MW413580   1.881   3.602   1.493  0.2258 -0.0547 -0.5042
 3454SOL     OW13581   4.062   2.394   2.295 -0.1590 -0.0555 -0.2458
 3454SOL    HW213582   4.093   2.305   2.311 -1.0774 -0.0478  1.9521
 3454SOL    HW313583   4.095   2.416   2.209  1.5610 -1.8862 -0.1176
 3454SOL    MW413584   4.070   2.385   2.286  0.1075  0.6034  0.0787
 3455SOL     OW13585   0.230   0.024   4.838 -0.2798  1.0736 -0.0044
 3455SOL    HW213586   0.273   0.096   4.885 -0.6849  0.5252  1.2385
 3455SOL    HW313587   0.147   0.061   4.808 -0.3982  1.1915  0.4546
 3455SOL    MW413588   0.225   0.038   4.840  0.0157 -0.1210  0.8225
 3456SOL     OW13589   1.819   3.344   2.142 -0.2062  0.0934  0.2180
 3456SOL    HW213590   1.759   3.369   2.212 -1.4427  0.5359 -0.9456
 3456SOL    HW313591   1.866   3.424   2.120 -1.3275  0.5034 -0.8313
 3456SOL    MW413592   1.817   3.357   2.148 -0.0939 -0.0672  0.0359
 3457SOL     OW13593   1.953   4.276   6.278  0.4517 -0.2076  0.1664
 3457SOL    HW213594   1.910   4.190   6.285 -0.4053  0.0809 -1.1219
 3457SOL    HW313595   2.046   4.258   6.291  0.3454 -1.4189 -0.5879
 3457SOL    MW413596   1.959   4.262   6.280  0.3949 -0.0241 -0.1828
 3458SOL     OW13597   4.225   1.849   2.554 -0.2039 -0.7463  0.2468
 3458SOL    HW213598   4.231   1.855   2.459 -1.4411  1.0635  0.2376
 3458SOL    HW313599   4.306   1.889   2.586 -0.2068 -0.5134 -0.0344
 3458SOL    MW413600   4.237   1.855   2.546 -0.3314  0.1612  0.1263
 3459SOL     OW13601   2.028   6.167   2.788  0.5696 -0.4327  0.1264
 3459SOL    HW213602   1.941   6.199   2.815  1.5220  4.0084 -1.2487
 3459SOL    HW313603   2.021   6.157   2.693  1.1563 -1.8288  0.2052
 3459SOL    MW413604   2.015   6.170   2.779  0.1274  0.0590 -0.1375
 3460SOL     OW13605   1.954   2.834   1.792 -0.6253  0.1325  0.4376
 3460SOL    HW213606   2.011   2.900   1.753  0.9607 -0.5805  1.4035
 3460SOL    HW313607   1.867   2.852   1.756  0.3115  0.8715 -1.6123
 3460SOL    MW413608   1.950   2.845   1.782  0.0351  0.4097 -0.9895
 3461SOL     OW13609   1.244   6.089   0.532 -0.2523 -0.0888 -0.5739
 3461SOL    HW213610   1.215   6.043   0.453  0.1215  1.5165 -1.7126
 3461SOL    HW313611   1.338   6.105   0.518 -0.4608  1.4235 -0.4926
 3461SOL    MW413612   1.253   6.085   0.519  0.3998  0.0758  0.3763
 3462SOL     OW13613   3.634   1.462   1.438 -0.0987  0.4788 -0.0180
 3462SOL    HW213614   3.695   1.411   1.491  0.6536  2.9669  1.6813
 3462SOL    HW313615   3.562   1.482   1.497 -0.8717  0.5427 -0.9615
 3462SOL    MW413616   3.633   1.457   1.453  0.4969 -0.5866  0.4290
 3463SOL     OW13617   5.839   1.988   3.361  0.4418  0.5781 -0.0112
 3463SOL    HW213618   5.872   1.906   3.324  2.9419  1.7620 -0.5703
 3463SOL    HW313619   5.753   1.965   3.396  1.2334 -2.3762  0.2571
 3463SOL    MW413620   5.832   1.974   3.361  1.3097  0.2673  0.2399
 3464SOL     OW13621   0.422   5.492   3.691 -0.4598 -0.0715 -0.7248
 3464SOL    HW213622   0.479   5.452   3.756  1.2757  0.4093 -1.8903
 3464SOL    HW313623   0.364   5.549   3.742  0.2282 -0.4105  0.4715
 3464SOL    MW413624   0.422   5.495   3.707 -0.3945 -0.0025 -0.0638
 3465SOL     OW13625   5.566   2.545   5.328  0.1031 -0.1393 -0.3708
 3465SOL    HW213626   5.617   2.581   5.401  1.0106  0.3199 -1.2061
 3465SOL    HW313627   5.490   2.505   5.370 -1.1742  3.0187  0.6187
 3465SOL    MW413628   5.563   2.545   5.344 -0.6938  0.4307 -0.2960
 3466SOL     OW13629   6.020   6.079   4.115  0.6201 -0.5711 -0.2375
 3466SOL    HW213630   6.110   6.104   4.094  0.5799  0.0620  0.2924
 3466SOL    HW313631   6.004   6.119   4.201 -1.4947  2.8392 -2.0318
 3466SOL    MW413632   6.030   6.088   4.124 -0.4694  0.3282 -0.0980
 3467SOL     OW13633   2.408   1.027   2.880 -0.2774 -0.2108 -0.2718
 3467SOL    HW213634   2.428   0.979   2.800  2.4168  0.5827 -0.1577
 3467SOL    HW313635   2.408   1.119   2.854 -2.0561 -0.0378  0.1750
 3467SOL    MW413636   2.410   1.033   2.866  0.4121 -0.1628 -0.0863
 3468SOL     OW13637   0.743   2.449   1.215 -0.0388 -0.3784  0.6059
 3468SOL    HW213638   0.818   2.398   1.186  1.1558  1.9483 -0.6024
 3468SOL    HW313639   0.669   2.389   1.208  1.1139 -1.6279 -1.8210
 3468SOL    MW413640   0.743   2.434   1.210  0.0131  0.1174 -0.2867
 3469SOL     OW13641   5.861   4.610   0.514  0.0175 -0.2591  0.2115
 3469SOL    HW213642   5.898   4.532   0.472  0.7713 -0.0443  0.4562
 3469SOL    HW313643   5.878   4.597   0.608 -1.9454 -0.8949  0.5278
 3469SOL    MW413644   5.869   4.598   0.521  0.2727  0.1295  0.2458
 3470SOL     OW13645   0.692   3.445   0.846 -0.5880 -0.8864 -0.1882
 3470SOL    HW213646   0.721   3.533   0.822 -2.3255 -0.8232 -2.2746
 3470SOL    HW313647   0.597   3.446   0.836 -0.5225 -3.5941 -2.7112
 3470SOL    MW413648   0.684   3.457   0.842  1.2473  0.2741  0.3868
 3471SOL     OW13649   3.106   5.024   3.084  0.0237  0.2217  0.1483
 3471SOL    HW213650   3.031   4.964   3.083 -1.0545  1.5003 -1.6159
 3471SOL    HW313651   3.123   5.039   3.177 -2.6420  0.7219  0.6502
 3471SOL    MW413652   3.098   5.018   3.096 -0.4144 -0.0980 -0.2280
 3472SOL     OW13653   2.149   0.800   2.010 -0.3661  0.6097  0.4181
 3472SOL    HW213654   2.151   0.707   2.032 -0.9366  0.5532  0.2643
 3472SOL    HW313655   2.239   0.830   2.023 -0.1115 -0.0266  0.1966
 3472SOL    MW413656   2.161   0.791   2.015  0.3104  0.5677  0.0785
 3473SOL     OW13657   3.011   6.245   1.643  0.5443 -0.2380  0.1451
 3473SOL    HW213658   3.002   6.330   1.599  0.1832  0.0758  0.8030
 3473SOL    HW313659   2.963   6.184   1.587 -1.0096  0.3940  0.7277
 3473SOL    MW413660   3.003   6.248   1.630 -0.1779  0.1047 -0.1975
 3474SOL     OW13661   5.407   4.051   2.618  0.1082  0.6824 -0.1836
 3474SOL    HW213662   5.440   4.130   2.575  0.9288  1.2427  1.3795
 3474SOL    HW313663   5.323   4.077   2.656 -0.7006  0.1395 -1.5291
 3474SOL    MW413664   5.400   4.065   2.617 -0.1691 -0.4048  0.1360
 3475SOL     OW13665   5.468   2.304   3.578  0.1769 -0.7187 -0.4404
 3475SOL    HW213666   5.440   2.349   3.658  0.7613 -0.4389 -0.3943
 3475SOL    HW313667   5.407   2.230   3.570  0.2223 -0.8530  0.3606
 3475SOL    MW413668   5.456   2.300   3.587 -0.5064 -0.2387  0.0090
 3476SOL     OW13669   2.391   0.975   5.656  0.0902  0.0702  0.0484
 3476SOL    HW213670   2.309   1.003   5.614 -0.7440 -1.2047  0.7375
 3476SOL    HW313671   2.460   1.005   5.597 -0.7156  2.8917  0.3782
 3476SOL    MW413672   2.389   0.983   5.643  0.1831 -0.5121  0.3294
 3477SOL     OW13673   0.287   5.768   2.555  0.1892  0.8806 -0.1949
 3477SOL    HW213674   0.370   5.779   2.507  0.1798 -0.3898 -0.5258
 3477SOL    HW313675   0.234   5.713   2.498  0.3590 -1.0854  1.4675
 3477SOL    MW413676   0.291   5.762   2.541 -0.9185 -0.5944 -0.2239
 3478SOL     OW13677   1.442   5.921   0.888 -0.2635 -0.4781  0.1990
 3478SOL    HW213678   1.473   5.919   0.978 -0.7476  2.5699  0.5408
 3478SOL    HW313679   1.522   5.932   0.836 -0.0854 -1.0068  0.3599
 3478SOL    MW413680   1.457   5.922   0.893  0.1756 -0.2063 -0.3117
 3479SOL     OW13681   4.700   5.147   5.829  0.5726  0.1599 -0.2872
 3479SOL    HW213682   4.682   5.203   5.753 -3.3591  2.9788  2.3131
 3479SOL    HW313683   4.747   5.204   5.890 -0.0714 -0.6250  0.9803
 3479SOL    MW413684   4.704   5.162   5.827 -0.3544  0.1438  0.5723
 3480SOL     OW13685   2.854   5.488   0.160  0.0163  0.0064 -0.5680
 3480SOL    HW213686   2.948   5.502   0.152  0.1319 -0.0015  0.6047
 3480SOL    HW313687   2.818   5.518   0.077  0.9658  0.7930 -0.7142
 3480SOL    MW413688   2.862   5.494   0.148  0.0886  0.5434 -0.6157
 3481SOL     OW13689   2.319   1.085   1.013 -0.3980 -0.0316 -0.1005
 3481SOL    HW213690   2.340   1.171   1.050 -0.3997 -0.0571 -0.0394
 3481SOL    HW313691   2.392   1.029   1.041 -0.2507  0.0178 -0.3821
 3481SOL    MW413692   2.332   1.089   1.022 -0.0077  0.3447 -0.0543
 3482SOL     OW13693   3.729   2.187   1.876 -0.3075  0.7292  0.2022
 3482SOL    HW213694   3.748   2.165   1.967 -0.6754  1.3474  0.4409
 3482SOL    HW313695   3.790   2.258   1.856 -2.1168  2.6176  0.9226
 3482SOL    MW413696   3.740   2.194   1.885 -0.0322  0.5327  0.1840
 3483SOL     OW13697   4.506   0.610   0.649 -0.5189  0.3949  0.3131
 3483SOL    HW213698   4.485   0.650   0.565 -0.0795  0.0095  0.0136
 3483SOL    HW313699   4.543   0.525   0.626 -1.8800 -0.3996  0.9485
 3483SOL    MW413700   4.508   0.604   0.635  0.0523  0.8652 -0.0244
 3484SOL     OW13701   5.648   3.565   1.016 -0.0388 -0.4145  0.1881
 3484SOL    HW213702   5.667   3.655   1.043  0.4644  0.3855 -2.4913
 3484SOL    HW313703   5.563   3.569   0.973  0.3932 -0.9807 -0.7828
 3484SOL    MW413704   5.639   3.577   1.014  0.2138 -0.4420 -0.2893
 3485SOL     OW13705   2.230   0.229   0.202 -0.0761  0.0187  0.8326
 3485SOL    HW213706   2.143   0.268   0.186  0.2795 -0.0858 -1.7421
 3485SOL    HW313707   2.213   0.135   0.209 -0.3400  0.1404  1.9478
 3485SOL    MW413708   2.216   0.222   0.201  0.5211 -0.7796 -0.1469
 3486SOL     OW13709   3.353   1.712   1.600 -0.0447 -0.8163 -0.2301
 3486SOL    HW213710   3.362   1.775   1.529 -1.8168 -0.4667 -0.1932
 3486SOL    HW313711   3.351   1.764   1.680 -0.7183 -0.9723 -0.1377
 3486SOL    MW413712   3.354   1.727   1.601 -0.0081 -0.0328  0.0643
 3487SOL     OW13713   1.909   2.362   2.584  0.3880  0.6275  0.0430
 3487SOL    HW213714   1.846   2.324   2.523  0.5482  1.1817 -0.4741
 3487SOL    HW313715   1.900   2.309   2.663  1.0556 -0.9066 -0.8483
 3487SOL    MW413716   1.899   2.350   2.586  0.5672  0.1938  0.0704
 3488SOL     OW13717   0.766   3.844   1.052 -0.6938  0.5825  0.5017
 3488SOL    HW213718   0.750   3.800   0.968  0.3457  2.2288 -0.6092
 3488SOL    HW313719   0.861   3.846   1.060 -0.7066  2.5264  0.5359
 3488SOL    MW413720   0.777   3.838   1.042  0.0150 -0.1977  0.2639
 3489SOL     OW13721   2.860   3.139   1.701  0.0606  0.1524 -0.5214
 3489SOL    HW213722   2.892   3.184   1.623  0.6083  1.6615  0.5295
 3489SOL    HW313723   2.898   3.187   1.774 -0.9365 -0.8411  0.7044
 3489SOL    MW413724   2.869   3.151   1.701  0.4031  0.0375 -0.3157
 3490SOL     OW13725   4.201   3.451   5.802  0.0631  0.9550  0.4224
 3490SOL    HW213726   4.142   3.525   5.786 -1.5060 -0.4566 -0.7657
 3490SOL    HW313727   4.144   3.383   5.839  1.6319  0.5834  2.2930
 3490SOL    MW413728   4.186   3.452   5.804 -0.6000 -0.7428  0.5487
 3491SOL     OW13729   2.419   3.812   5.678  0.2345  0.5310  0.1496
 3491SOL    HW213730   2.388   3.848   5.762  0.8446 -0.0038  0.6171
 3491SOL    HW313731   2.480   3.743   5.703 -0.6715 -0.6341 -0.7365
 3491SOL    MW413732   2.423   3.808   5.693  0.3608  0.6339  0.1858
 3492SOL     OW13733   6.026   6.039   3.721 -0.1629 -0.2730 -0.1191
 3492SOL    HW213734   6.064   5.954   3.744 -1.8483 -1.4602 -1.4831
 3492SOL    HW313735   5.959   6.054   3.788  0.3044  0.1409  0.2692
 3492SOL    MW413736   6.023   6.030   3.733 -0.6315 -0.2834  0.0512
 3493SOL     OW13737   0.632   2.861   3.204  0.7705  0.4526 -0.2035
 3493SOL    HW213738   0.556   2.895   3.252  0.6818  1.0465 -0.7472
 3493SOL    HW313739   0.597   2.836   3.118  1.4136  2.0825 -0.9967
 3493SOL    MW413740   0.617   2.862   3.199  0.0862  0.0754  0.4414
 3494SOL     OW13741   3.359   0.504   4.016 -0.3187 -0.2364  0.5648
 3494SOL    HW213742   3.350   0.452   3.936 -0.8604 -1.7554  1.5646
 3494SOL    HW313743   3.398   0.443   4.079 -1.1891  0.4997  1.8546
 3494SOL    MW413744   3.363   0.489   4.014  0.7465  0.4942  0.0452
 3495SOL     OW13745   6.110   5.661   3.230  0.2612  0.4787 -0.6351
 3495SOL    HW213746   6.128   5.577   3.187 -2.5751  0.3717 -1.7797
 3495SOL    HW313747   6.068   5.637   3.312  1.1012  0.8004 -0.0929
 3495SOL    MW413748   6.107   5.647   3.235  0.7679 -0.0135  0.0117
 3496SOL     OW13749   5.005   2.606   1.613 -0.7433  0.6408  0.2947
 3496SOL    HW213750   4.966   2.565   1.690 -0.2509 -1.2497 -0.3855
 3496SOL    HW313751   5.002   2.537   1.546  1.2576  1.3137 -0.5662
 3496SOL    MW413752   5.000   2.591   1.614 -0.7427  0.1922  0.2373
 3497SOL     OW13753   1.044   4.108   1.767  0.1775  0.2871  0.2726
 3497SOL    HW213754   0.959   4.140   1.798  0.1554  1.1321 -0.6270
 3497SOL    HW313755   1.032   4.014   1.757 -1.0475  0.5530 -1.0274
 3497SOL    MW413756   1.031   4.100   1.770  0.3708  0.6489 -0.3310
 3498SOL     OW13757   3.409   4.805   5.310  0.2521  0.3687 -0.4144
 3498SOL    HW213758   3.501   4.813   5.285  0.3407  2.8435  0.3871
 3498SOL    HW313759   3.406   4.830   5.403 -1.2031  0.1332 -0.3605
 3498SOL    MW413760   3.420   4.810   5.319 -0.5652 -0.3929 -0.4173
 3499SOL     OW13761   3.866   1.079   1.294  0.7488  0.2448 -0.2092
 3499SOL    HW213762   3.776   1.050   1.280  0.9597 -1.6504  1.7578
 3499SOL    HW313763   3.877   1.080   1.390  2.6174  1.0828 -0.3762
 3499SOL    MW413764   3.856   1.075   1.305  0.1385  0.4612 -0.2158
 3500SOL     OW13765   3.364   0.873   0.544  0.8370 -0.4006 -0.3807
 3500SOL    HW213766   3.428   0.862   0.615 -0.3482 -0.2770  0.7519
 3500SOL    HW313767   3.378   0.962   0.514  1.3644 -0.4545 -0.3219
 3500SOL    MW413768   3.375   0.883   0.550  0.1409  0.5197 -0.1184
 3501SOL     OW13769   5.634   1.061   5.820 -0.3521 -0.4519 -0.6564
 3501SOL    HW213770   5.609   1.110   5.741  1.7125 -0.8686 -1.6530
 3501SOL    HW313771   5.685   1.124   5.871 -1.0580 -0.4092  0.0059
 3501SOL    MW413772   5.638   1.076   5.816 -0.9388 -1.0594 -0.2386
 3502SOL     OW13773   3.997   4.431   2.853 -0.2751  0.1974  0.1147
 3502SOL    HW213774   3.964   4.366   2.915 -0.4541  0.9527  0.8188
 3502SOL    HW313775   4.073   4.389   2.813 -1.0248 -0.8713 -0.2379
 3502SOL    MW413776   4.003   4.416   2.856  0.2482  0.4461  0.1322
 3503SOL     OW13777   4.106   6.325   1.359  0.2995 -0.4375  0.1819
 3503SOL    HW213778   4.139   6.310   1.270 -0.2422  0.9056 -0.2706
 3503SOL    HW313779   4.013   6.302   1.353 -0.1604  1.3961 -0.0977
 3503SOL    MW413780   4.098   6.320   1.346 -0.1433  0.1152  0.3427
 3504SOL     OW13781   2.472   5.350   6.231  0.3080  0.0477 -0.5732
 3504SOL    HW213782   2.505   5.336   6.320  0.8945 -1.5870 -1.0286
 3504SOL    HW313783   2.389   5.303   6.228  0.3128  0.0579 -0.9087
 3504SOL    MW413784   2.466   5.342   6.242  0.1319 -0.5063  0.1202
 3505SOL     OW13785   2.799   3.802   3.488 -0.0005  0.3175 -0.0873
 3505SOL    HW213786   2.720   3.789   3.540  0.4549 -0.2892  0.4773
 3505SOL    HW313787   2.866   3.750   3.533  1.2128  2.3117  0.5590
 3505SOL    MW413788   2.798   3.793   3.501  0.0891 -0.7259 -0.2524
 3506SOL     OW13789   2.803   5.639   1.943  0.4307 -0.1942  0.5994
 3506SOL    HW213790   2.832   5.720   1.900  0.7839  0.5537  2.1716
 3506SOL    HW313791   2.877   5.614   1.999 -0.2138 -0.8355  1.1861
 3506SOL    MW413792   2.817   5.646   1.945 -0.1051 -0.1990 -0.0863
 3507SOL     OW13793   3.093   3.023   6.023 -0.0694 -0.0332  0.0159
 3507SOL    HW213794   3.181   3.021   6.060 -0.0116  0.5436 -0.0740
 3507SOL    HW313795   3.052   3.098   6.066  0.0482  0.7375 -1.1988
 3507SOL    MW413796   3.099   3.033   6.034  0.7061 -0.7896 -0.3722
 3508SOL     OW13797   0.341   4.204   5.787  0.1214 -0.7301  0.4272
 3508SOL    HW213798   0.354   4.285   5.836  0.3383  0.2980 -1.2417
 3508SOL    HW313799   0.376   4.136   5.844 -2.0881 -0.0112  2.8484
 3508SOL    MW413800   0.348   4.206   5.801 -0.0952 -0.5889  0.2022
 3509SOL     OW13801   4.013   0.377   2.242  0.6682 -0.1730 -0.3276
 3509SOL    HW213802   4.018   0.350   2.150  0.1057 -1.3625 -0.0350
 3509SOL    HW313803   4.072   0.317   2.287 -0.3333 -0.7082  0.3028
 3509SOL    MW413804   4.022   0.366   2.236  0.4008  0.2386 -0.3164
 3510SOL     OW13805   5.529   1.153   1.983 -0.0146 -0.1837  0.2835
 3510SOL    HW213806   5.583   1.100   2.042 -1.3868 -1.2227  0.6781
 3510SOL    HW313807   5.493   1.222   2.039 -0.0001 -0.1707  0.2769
 3510SOL    MW413808   5.531   1.155   1.999  0.0109  0.3286  0.0414
 3511SOL     OW13809   5.539   6.313   1.417 -0.2048  0.4758 -0.4439
 3511SOL    HW213810   5.470   6.247   1.418 -0.8592  1.1178  1.8285
 3511SOL    HW313811   5.580   6.307   1.503  1.8631  0.8896 -1.3344
 3511SOL    MW413812   5.535   6.303   1.428 -0.2371 -0.2103 -0.7170
 3512SOL     OW13813   2.424   2.683   4.517  0.0336 -0.2367  0.3536
 3512SOL    HW213814   2.357   2.643   4.573 -0.6149 -0.1868 -0.3771
 3512SOL    HW313815   2.481   2.731   4.578  0.0664 -1.1950  1.1044
 3512SOL    MW413816   2.423   2.684   4.532  0.3682 -0.2170 -0.7023
 3513SOL     OW13817   5.091   5.343   1.526 -0.3206  0.3682 -0.1588
 3513SOL    HW213818   5.004   5.383   1.532 -0.7912 -0.6829  0.2643
 3513SOL    HW313819   5.089   5.271   1.590  0.8279  0.2647 -0.2123
 3513SOL    MW413820   5.079   5.339   1.535 -0.5515 -0.1681  0.2128
 3514SOL     OW13821   5.551   0.095   5.731 -0.2487  0.1048  0.0655
 3514SOL    HW213822   5.515   0.141   5.807  0.1683 -0.1559  0.4296
 3514SOL    HW313823   5.543   0.157   5.659  1.1202  1.1133  0.7289
 3514SOL    MW413824   5.546   0.109   5.732 -0.0706 -0.2540  0.2773
 3515SOL     OW13825   1.700   2.879   4.217 -0.3191 -0.2423 -0.3336
 3515SOL    HW213826   1.790   2.891   4.248 -0.1074  0.7561 -1.2762
 3515SOL    HW313827   1.678   2.963   4.175 -1.9772 -0.1701  0.5866
 3515SOL    MW413828   1.709   2.892   4.216 -0.3474 -0.5515  0.2213
 3516SOL     OW13829   4.193   4.395   5.859  0.2582  0.4382  0.3142
 3516SOL    HW213830   4.184   4.326   5.925 -4.0677 -0.0754 -0.4675
 3516SOL    HW313831   4.120   4.455   5.877  0.9084  2.0763 -2.0012
 3516SOL    MW413832   4.182   4.393   5.870 -0.4464  0.0152 -0.5193
 3517SOL     OW13833   5.675   0.311   5.080 -0.2163  0.0933 -1.0488
 3517SOL    HW213834   5.743   0.358   5.127  0.5905 -2.3169  0.3961
 3517SOL    HW313835   5.717   0.280   5.000 -0.1653  0.2019 -1.0629
 3517SOL    MW413836   5.689   0.313   5.075  0.2377  0.1870  0.1058
 3518SOL     OW13837   6.451   3.961   4.324 -0.1348 -0.0043 -0.7223
 3518SOL    HW213838   6.541   3.954   4.356 -0.7576 -2.7886  0.7320
 3518SOL    HW313839   6.436   3.879   4.276 -2.4506 -0.4802  0.6903
 3518SOL    MW413840   6.461   3.949   4.322 -0.1761 -0.0833  0.0080
 3519SOL     OW13841   2.200   1.649   5.179  0.5636 -0.7720  0.2809
 3519SOL    HW213842   2.173   1.557   5.183  2.8322 -1.5144 -0.1498
 3519SOL    HW313843   2.263   1.652   5.107  0.3115  1.1989  0.1016
 3519SOL    MW413844   2.205   1.637   5.170 -0.2470  0.3179  0.4736
 3520SOL     OW13845   4.019   5.589   1.511 -0.0640  0.8155 -0.2858
 3520SOL    HW213846   4.085   5.638   1.561 -0.1456 -0.1001  0.7586
 3520SOL    HW313847   4.064   5.509   1.485 -0.7968  0.1194  0.5537
 3520SOL    MW413848   4.034   5.585   1.514  0.1370 -0.1921  0.3605
 3521SOL     OW13849   5.157   4.585   0.674  0.0793 -0.6096 -0.7101
 3521SOL    HW213850   5.072   4.541   0.665  0.9214 -2.2151 -1.2530
 3521SOL    HW313851   5.218   4.514   0.695  1.5118  0.3135 -1.5934
 3521SOL    MW413852   5.153   4.570   0.676  0.3669 -0.1044  0.1587
 3522SOL     OW13853   3.027   4.450   1.552 -0.2588  0.1640  0.0684
 3522SOL    HW213854   3.070   4.485   1.474 -1.6166  0.8077 -0.4368
 3522SOL    HW313855   3.036   4.355   1.545  1.3982  0.2872  0.2055
 3522SOL    MW413856   3.033   4.442   1.541  0.2740 -0.1208 -0.6779
 3523SOL     OW13857   0.137   0.531   4.296  0.5501 -0.0584  0.2486
 3523SOL    HW213858   0.080   0.561   4.366  2.4889  1.5451  1.2579
 3523SOL    HW313859   0.138   0.604   4.234  1.1359 -0.2376  0.0413
 3523SOL    MW413860   0.130   0.545   4.297 -0.3595  0.1642  0.1185
 3524SOL     OW13861   0.615   2.073   5.546 -0.1092  0.2868 -0.2773
 3524SOL    HW213862   0.559   2.119   5.484  1.0246  0.7150 -0.9989
 3524SOL    HW313863   0.695   2.125   5.551  0.6150 -0.8157  0.0079
 3524SOL    MW413864   0.618   2.086   5.539  0.1754  0.7696  0.2959
 3525SOL     OW13865   1.049   4.971   0.892 -0.2942  0.2640 -0.5385
 3525SOL    HW213866   0.979   4.943   0.833 -0.4394 -0.2166 -0.1437
 3525SOL    HW313867   1.085   4.890   0.928 -1.1688  0.5789  1.1284
 3525SOL    MW413868   1.045   4.957   0.889 -0.3554  0.3129  0.1858
 3526SOL     OW13869   3.370   3.892   2.306  0.4745  0.4916 -0.8911
 3526SOL    HW213870   3.406   3.971   2.347 -0.6293  0.8755 -0.6420
 3526SOL    HW313871   3.288   3.875   2.352  0.0249 -0.0185 -1.8405
 3526SOL    MW413872   3.364   3.900   2.317 -0.1316  0.3941 -0.2278
 3527SOL     OW13873   4.799   0.659   3.144  0.8205  0.0552  0.2117
 3527SOL    HW213874   4.793   0.695   3.055  0.5525  2.5697  1.1596
 3527SOL    HW313875   4.711   0.626   3.162  0.8788 -0.4765 -0.4479
 3527SOL    MW413876   4.786   0.660   3.135  0.2424 -0.0695 -0.1770
 3528SOL     OW13877   0.225   3.065   1.377  0.0261  0.0295 -0.6345
 3528SOL    HW213878   0.205   3.070   1.471 -3.0060  0.4617 -1.2035
 3528SOL    HW313879   0.285   3.138   1.362  1.0543 -0.4083  1.0367
 3528SOL    MW413880   0.230   3.075   1.388 -1.0492  0.1453 -0.1206
 3529SOL     OW13881   1.553   0.691   5.439  0.2784 -0.0433  0.5087
 3529SOL    HW213882   1.518   0.780   5.436 -0.1334 -0.2258 -0.5542
 3529SOL    HW313883   1.509   0.650   5.514  0.1241  0.4992  0.7176
 3529SOL    MW413884   1.542   0.697   5.449 -0.0907  0.0545 -0.3795
 3530SOL     OW13885   4.343   5.550   5.227  0.4011 -0.0580  0.0554
 3530SOL    HW213886   4.358   5.634   5.182  2.0457 -0.5188 -0.3071
 3530SOL    HW313887   4.279   5.506   5.172 -1.0556  1.2362  0.6391
 3530SOL    MW413888   4.337   5.556   5.214 -0.6851  0.1655  0.0416
 3531SOL     OW13889   3.390   4.576   3.311 -0.4500 -0.1071 -0.1300
 3531SOL    HW213890   3.384   4.606   3.402 -1.5444  0.7289 -0.4550
 3531SOL    HW313891   3.301   4.588   3.276  0.0896  0.1426 -1.4789
 3531SOL    MW413892   3.377   4.582   3.318 -0.7484  0.0679 -0.1297
 3532SOL     OW13893   6.413   1.647   0.048 -0.2236 -0.3603 -0.3342
 3532SOL    HW213894   6.326   1.663   0.013  0.2461 -0.9655 -1.8559
 3532SOL    HW313895   6.398   1.620   0.139 -1.5815 -0.0243 -0.4410
 3532SOL    MW413896   6.400   1.645   0.055  0.0168  0.1771  0.3228
 3533SOL     OW13897   5.247   3.484   3.464 -0.0463 -0.9493  0.1785
 3533SOL    HW213898   5.279   3.394   3.459  2.0263 -0.3553  1.3455
 3533SOL    HW313899   5.196   3.487   3.545  2.2273 -0.4966  1.6964
 3533SOL    MW413900   5.245   3.472   3.474  0.3820  0.2904 -0.5590
 3534SOL     OW13901   4.972   3.283   6.299  0.1558  0.1085  0.0507
 3534SOL    HW213902   5.063   3.258   6.311 -0.4932 -1.7590  1.6095
 3534SOL    HW313903   4.926   3.200   6.282 -1.6140  0.6122  1.9999
 3534SOL    MW413904   4.978   3.269   6.298  0.2566  0.2828 -0.5122
 3535SOL     OW13905   0.248   4.611   4.925 -0.4605 -0.0109 -0.0851
 3535SOL    HW213906   0.188   4.625   4.852  1.0728 -0.9940 -1.6096
 3535SOL    HW313907   0.194   4.569   4.992 -1.8057  0.4729 -0.8285
 3535SOL    MW413908   0.233   4.607   4.924  0.2566  0.1626 -0.0930
 3536SOL     OW13909   3.113   5.846   0.096  0.5509  0.2269 -0.0602
 3536SOL    HW213910   3.165   5.922   0.124 -1.4782  1.3763  0.8307
 3536SOL    HW313911   3.087   5.868   0.006  0.0266  0.5530  0.1705
 3536SOL    MW413912   3.117   5.859   0.088 -0.2025 -0.0473 -0.2099
 3537SOL     OW13913   2.952   4.444   5.607  0.6289 -0.1791 -0.0614
 3537SOL    HW213914   2.971   4.350   5.605  0.1079 -0.3190  0.8704
 3537SOL    HW313915   2.858   4.448   5.626  0.7982  0.5395  0.6294
 3537SOL    MW413916   2.942   4.432   5.609  0.2958 -0.1904 -0.1001
 3538SOL     OW13917   2.500   3.981   2.162 -0.3135 -0.0781  0.0389
 3538SOL    HW213918   2.543   3.913   2.112  1.2426  0.1831  0.9608
 3538SOL    HW313919   2.410   3.982   2.129  0.3073 -0.7815 -1.8041
 3538SOL    MW413920   2.493   3.972   2.151  0.0925 -0.3630 -0.3685
 3539SOL     OW13921   0.971   5.621   4.660 -0.1154 -0.8777 -0.1007
 3539SOL    HW213922   0.964   5.684   4.732  0.8881 -1.0021  0.1211
 3539SOL    HW313923   0.961   5.536   4.702 -1.1162 -0.8934 -0.3498
 3539SOL    MW413924   0.969   5.618   4.675  0.2735 -0.1008 -0.1097
 3540SOL     OW13925   4.143   2.728   5.263 -0.1585  0.3269  0.9767
 3540SOL    HW213926   4.218   2.755   5.210 -2.0306  2.1634 -0.9351
 3540SOL    HW313927   4.107   2.652   5.216 -1.5395  1.6661 -0.2395
 3540SOL    MW413928   4.149   2.721   5.250 -0.1679  0.1666 -0.0434
 3541SOL     OW13929   3.359   4.009   3.163  0.0169  0.6584 -0.1920
 3541SOL    HW213930   3.408   4.070   3.218  0.7402 -0.3907  0.3458
 3541SOL    HW313931   3.299   4.065   3.113 -0.7913  1.6425  1.7761
 3541SOL    MW413932   3.357   4.024   3.164 -0.0947  0.3625 -0.5333
 3542SOL     OW13933   4.165   6.198   1.799 -0.6812  0.1117  0.1490
 3542SOL    HW213934   4.192   6.115   1.838 -0.6631 -0.6240 -1.3723
 3542SOL    HW313935   4.223   6.211   1.725 -1.2927  1.0247 -0.1952
 3542SOL    MW413936   4.176   6.189   1.795  0.0201  0.0168 -0.6604
 3543SOL     OW13937   2.474   4.388   2.690 -0.5496  0.2850 -0.1726
 3543SOL    HW213938   2.518   4.471   2.706 -0.7508  0.0812  1.5949
 3543SOL    HW313939   2.395   4.392   2.745 -1.2981 -0.5125 -1.1424
 3543SOL    MW413940   2.469   4.400   2.699 -0.3646  0.2043  0.0286
 3544SOL     OW13941   4.529   6.273   3.051 -0.7970  0.0650  0.2704
 3544SOL    HW213942   4.520   6.247   2.960 -1.6683  0.1166  0.3393
 3544SOL    HW313943   4.620   6.252   3.073 -0.7077 -0.3452 -0.4790
 3544SOL    MW413944   4.540   6.267   3.042  0.3194  0.2083 -0.4418
 3545SOL     OW13945   0.333   2.310   1.367 -0.6649  0.3734  0.2868
 3545SOL    HW213946   0.354   2.400   1.392 -0.4320  0.3402  0.2157
 3545SOL    HW313947   0.349   2.259   1.447  0.9126  0.1417 -0.1433
 3545SOL    MW413948   0.338   2.315   1.381 -0.3884 -0.1544 -0.3610
 3546SOL     OW13949   4.770   5.057   0.090  0.2449  0.0676 -0.3686
 3546SOL    HW213950   4.777   5.101   0.005  0.5885  1.4265  0.3393
 3546SOL    HW313951   4.760   4.964   0.068  0.7268  0.3482 -1.8815
 3546SOL    MW413952   4.770   5.050   0.076  0.1532  0.4983  0.3596
 3547SOL     OW13953   0.650   0.077   0.995  0.5266  0.5257  0.0165
 3547SOL    HW213954   0.622   0.073   0.903  1.6558 -2.9099 -0.3269
 3547SOL    HW313955   0.609   0.001   1.036  3.1945 -0.3244  1.3305
 3547SOL    MW413956   0.641   0.066   0.988  0.2094 -0.1300  0.0619
 3548SOL     OW13957   6.113   3.645   4.188 -0.4253  0.5476  0.1597
 3548SOL    HW213958   6.070   3.691   4.116  0.7307  1.4458  0.0149
 3548SOL    HW313959   6.206   3.669   4.180  0.0336 -0.8956  0.7756
 3548SOL    MW413960   6.120   3.654   4.177  0.1879  0.0698  0.0434
 3549SOL     OW13961   1.302   1.259   3.831  0.4986  0.4863 -0.0926
 3549SOL    HW213962   1.306   1.351   3.858 -1.0891  0.4173  0.5252
 3549SOL    HW313963   1.358   1.214   3.894 -1.3665  0.6348  1.7806
 3549SOL    MW413964   1.310   1.265   3.843  0.6223 -0.1271  0.1679
 3550SOL     OW13965   5.909   4.187   2.172  0.2884  0.0982 -0.4384
 3550SOL    HW213966   5.894   4.182   2.078 -0.3182  1.2351 -0.4223
 3550SOL    HW313967   6.000   4.216   2.180  0.1564  0.5988 -0.6953
 3550SOL    MW413968   5.919   4.190   2.161 -0.9601 -0.7016  0.4282
 3551SOL     OW13969   1.674   3.924   0.347 -0.3869  0.2229 -0.0514
 3551SOL    HW213970   1.638   3.954   0.430  0.5965  0.0647  0.4511
 3551SOL    HW313971   1.619   3.850   0.322 -0.5495  0.1248  0.5864
 3551SOL    MW413972   1.662   3.918   0.355 -0.4138  0.2865 -0.3197
 3552SOL     OW13973   4.989   1.570   2.166 -0.7583 -0.2291 -0.1406
 3552SOL    HW213974   4.910   1.516   2.164  0.5414 -2.5090  2.3284
 3552SOL    HW313975   4.981   1.623   2.245 -0.3422  0.4327 -0.5266
 3552SOL    MW413976   4.978   1.570   2.176  0.2052 -0.1685  0.1637
 3553SOL     OW13977   2.860   3.139   0.186  0.1374  0.6732 -0.0976
 3553SOL    HW213978   2.925   3.098   0.128  1.5188  0.9133  1.2153
 3553SOL    HW313979   2.908   3.211   0.228 -0.9549  0.7904  0.9877
 3553SOL    MW413980   2.875   3.143   0.184  0.2861 -0.0902  0.0147
 3554SOL     OW13981   2.331   4.966   5.126  0.1031  0.5704  0.1809
 3554SOL    HW213982   2.375   4.980   5.210 -0.1667 -1.2679  0.6719
 3554SOL    HW313983   2.400   4.934   5.068 -0.4233 -2.1941  0.9172
 3554SOL    MW413984   2.346   4.964   5.130  0.0414  0.4351 -0.2970
 3555SOL     OW13985   0.467   4.403   2.061  0.0510 -0.5052  0.1026
 3555SOL    HW213986   0.445   4.328   2.005  1.4604  0.5199 -1.9150
 3555SOL    HW313987   0.389   4.458   2.059  0.5836  0.2680 -2.2039
 3555SOL    MW413988   0.454   4.400   2.054 -0.1514  0.0207  0.1990
 3556SOL     OW13989   0.491   1.373   5.799 -0.1853 -0.0969 -0.2256
 3556SOL    HW213990   0.491   1.469   5.801 -3.0749 -0.0189  0.9806
 3556SOL    HW313991   0.453   1.347   5.883  1.3619 -2.3900 -0.1288
 3556SOL    MW413992   0.486   1.382   5.810  0.1681 -0.1511  0.1180
 3557SOL     OW13993   0.334   4.279   6.125 -0.3398 -0.5950  0.3795
 3557SOL    HW213994   0.320   4.230   6.206  0.0389  1.9316  2.0920
 3557SOL    HW313995   0.247   4.312   6.102 -0.1760  0.1508  0.7924
 3557SOL    MW413996   0.321   4.277   6.133  0.3689  0.0921 -0.3733
 3558SOL     OW13997   1.918   1.471   5.558  0.3713 -0.4759 -0.1122
 3558SOL    HW213998   1.921   1.567   5.549  0.3031 -0.4499  0.1183
 3558SOL    HW313999   1.891   1.439   5.472  0.4160 -0.2887 -0.1965
 3558SOL    MW414000   1.915   1.480   5.546  0.6147  0.3994 -0.4414
 3559SOL     OW14001   5.178   6.140   4.678  0.4354 -0.1849  0.0999
 3559SOL    HW214002   5.187   6.054   4.721 -0.2704 -0.6191 -0.5984
 3559SOL    HW314003   5.264   6.180   4.686  1.0428 -1.3574 -0.3955
 3559SOL    MW414004   5.190   6.134   4.685 -0.0521  0.3134 -0.0778
 3560SOL     OW14005   3.828   4.469   1.058  0.3870 -0.1228 -0.3619
 3560SOL    HW214006   3.836   4.498   1.149 -0.0014  1.4364 -0.8005
 3560SOL    HW314007   3.733   4.462   1.043  0.4221  0.4567 -0.8907
 3560SOL    MW414008   3.816   4.472   1.068  0.3408  0.5127 -0.3502
 3561SOL     OW14009   0.429   5.497   1.676  0.1907 -0.6159  0.3689
 3561SOL    HW214010   0.497   5.488   1.610  0.4923  0.0406  0.5843
 3561SOL    HW314011   0.435   5.417   1.728  1.0786 -0.3882  0.6384
 3561SOL    MW414012   0.438   5.485   1.674 -0.8699  0.1597  0.2298
 3562SOL     OW14013   5.905   1.592   5.472 -0.1282 -0.0581  0.2229
 3562SOL    HW214014   5.862   1.677   5.469  1.2657  0.6809  0.1194
 3562SOL    HW314015   5.955   1.594   5.554 -0.4037 -0.9500  0.4224
 3562SOL    MW414016   5.906   1.604   5.482 -0.6651  0.3691  0.7285
 3563SOL     OW14017   0.076   1.763   4.432 -0.2153  0.8966  0.0693
 3563SOL    HW214018   0.156   1.712   4.445  0.1580  1.4467 -0.0199
 3563SOL    HW314019   0.092   1.845   4.479  0.6585  2.4097 -2.6019
 3563SOL    MW414020   0.089   1.767   4.440 -0.1789  0.3022 -0.3376
 3564SOL     OW14021   4.786   1.992   1.832 -0.3860  0.1045  0.6064
 3564SOL    HW214022   4.804   1.935   1.906  0.6473  0.1566  0.4159
 3564SOL    HW314023   4.750   1.934   1.765  0.3517 -0.2774  0.5294
 3564SOL    MW414024   4.784   1.977   1.833  0.3720 -0.2140 -0.2921
 3565SOL     OW14025   6.288   0.499   5.438  0.2086  0.5181 -0.8951
 3565SOL    HW214026   6.264   0.556   5.365 -1.3880 -1.8765 -2.3844
 3565SOL    HW314027   6.211   0.498   5.494 -0.0638 -0.6812 -1.2679
 3565SOL    MW414028   6.275   0.506   5.435 -0.3182 -0.2515 -0.7663
 3566SOL     OW14029   3.810   5.398   3.540 -0.4269 -0.0488 -0.0099
 3566SOL    HW214030   3.898   5.420   3.572  0.6228 -2.5945 -0.9142
 3566SOL    HW314031   3.797   5.456   3.464 -0.0989  1.2056  0.8509
 3566SOL    MW414032   3.820   5.409   3.534  0.5366  0.1243  0.5418
 3567SOL     OW14033   6.392   2.822   0.921  0.5300 -0.7493 -0.1770
 3567SOL    HW214034   6.371   2.785   1.007  0.6144 -0.4807 -0.0389
 3567SOL    HW314035   6.439   2.752   0.876 -0.7533 -1.4024 -0.5400
 3567SOL    MW414036   6.395   2.808   0.927  0.4807  0.1937  0.2881
 3568SOL     OW14037   3.089   5.347   6.331 -0.1967  0.4585 -0.0359
 3568SOL    HW214038   3.065   5.268   6.379  1.3608  0.4575  0.8082
 3568SOL    HW314039   3.091   5.416   6.397  0.0839  0.8601 -0.4526
 3568SOL    MW414040   3.086   5.346   6.346  0.7269 -0.0876  0.5458
 3569SOL     OW14041   6.014   5.095   5.717 -0.2073  0.6695  0.0958
 3569SOL    HW214042   6.035   5.181   5.682  1.4769  0.6684  1.0126
 3569SOL    HW314043   5.939   5.110   5.775 -0.2678  1.4117 -0.1704
 3569SOL    MW414044   6.007   5.108   5.720  0.3532  0.3003 -0.1873
 3570SOL     OW14045   1.561   1.778   4.751 -0.3081  0.3153  0.8909
 3570SOL    HW214046   1.648   1.776   4.713 -0.0707  0.3742  1.4296
 3570SOL    HW314047   1.556   1.862   4.797 -0.7777  0.4739  0.5572
 3570SOL    MW414048   1.572   1.789   4.752 -0.0983  0.0394 -0.3253
 3571SOL     OW14049   5.772   1.137   2.115  0.3177  0.3561 -0.6438
 3571SOL    HW214050   5.796   1.225   2.088  1.5595  0.7310  1.4163
 3571SOL    HW314051   5.732   1.148   2.202 -0.4049 -1.0297 -0.7627
 3571SOL    MW414052   5.770   1.150   2.123 -0.0661  0.4265  0.1487
 3572SOL     OW14053   4.057   2.026   0.731  0.2674 -0.3696 -0.3207
 3572SOL    HW214054   4.112   1.953   0.760  0.6488 -0.9807 -2.3718
 3572SOL    HW314055   3.995   1.986   0.670 -1.5796  0.5527  0.9042
 3572SOL    MW414056   4.056   2.011   0.727 -0.4367 -0.1167 -0.1452
 3573SOL     OW14057   1.758   4.603   0.961 -0.4213 -0.3961  0.5660
 3573SOL    HW214058   1.669   4.633   0.980 -0.7172 -0.4214 -0.7228
 3573SOL    HW314059   1.814   4.669   1.002 -1.0370  0.0459  0.7105
 3573SOL    MW414060   1.754   4.616   0.969  0.4849 -0.3326  0.0436
 3574SOL     OW14061   5.518   3.826   0.161 -0.1848 -0.0534 -0.2488
 3574SOL    HW214062   5.459   3.822   0.086 -0.6485 -1.1711  0.1504
 3574SOL    HW314063   5.511   3.739   0.202  1.4464 -0.0823  0.0368
 3574SOL    MW414064   5.509   3.814   0.157 -0.0507 -0.1703 -0.2623
 3575SOL     OW14065   1.391   1.523   2.536  0.7830  0.1453 -0.1233
 3575SOL    HW214066   1.422   1.558   2.620  0.8863 -2.4667  1.0045
 3575SOL    HW314067   1.309   1.569   2.520  1.5613  1.8519  0.5558
 3575SOL    MW414068   1.384   1.534   2.545 -0.0548  0.4408  0.0880
 3576SOL     OW14069   4.252   0.884   5.260  0.2482  0.1945 -0.9839
 3576SOL    HW214070   4.232   0.818   5.193 -0.4354 -1.3172  0.6078
 3576SOL    HW314071   4.299   0.836   5.328  1.6462  1.8568 -0.7061
 3576SOL    MW414072   4.255   0.869   5.260 -0.0520  0.0711 -0.4387
 3577SOL     OW14073   5.643   3.182   2.440 -0.3107 -0.1111 -0.0498
 3577SOL    HW214074   5.675   3.181   2.350  0.3117 -0.3100  0.1636
 3577SOL    HW314075   5.719   3.209   2.492 -0.9298  0.9929  0.3216
 3577SOL    MW414076   5.657   3.186   2.435 -0.2745 -0.3640 -0.5331
 3578SOL     OW14077   1.300   2.137   3.252 -0.3871 -1.2493 -0.0935
 3578SOL    HW214078   1.268   2.164   3.338  0.4101 -1.3628  0.2504
 3578SOL    HW314079   1.221   2.124   3.199 -0.9009 -1.6759  0.7691
 3578SOL    MW414080   1.286   2.139   3.256  0.5039 -0.5307  0.8248
 3579SOL     OW14081   2.478   1.399   1.803  0.0507  0.6141 -0.4493
 3579SOL    HW214082   2.396   1.449   1.806 -0.4080 -0.1595  0.0633
 3579SOL    HW314083   2.470   1.344   1.725  0.1662  0.6831 -0.5099
 3579SOL    MW414084   2.466   1.398   1.793  0.1371 -0.3062  0.5386
 3580SOL     OW14085   4.785   4.049   6.135 -0.0285  0.3931 -0.4931
 3580SOL    HW214086   4.847   4.085   6.072  0.3943 -1.1657 -1.0242
 3580SOL    HW314087   4.840   3.998   6.196 -0.7829 -1.4376 -1.2762
 3580SOL    MW414088   4.801   4.047   6.135 -0.6388 -0.4367 -0.2521
 3581SOL     OW14089   4.450   4.990   1.238  0.4331  0.5751 -0.4638
 3581SOL    HW214090   4.480   5.076   1.266 -0.1534  0.7965 -0.5118
 3581SOL    HW314091   4.520   4.930   1.264  0.3697  0.9163  0.5242
 3581SOL    MW414092   4.463   4.993   1.245  0.9167 -0.0439 -0.3759
 3582SOL     OW14093   3.513   3.417   2.270 -0.9385 -0.3851 -0.2167
 3582SOL    HW214094   3.572   3.384   2.203 -0.8116 -0.6880  0.0438
 3582SOL    HW314095   3.560   3.492   2.308 -0.4357 -1.0231  0.4344
 3582SOL    MW414096   3.527   3.423   2.266 -0.4755  0.1607  0.0102
 3583SOL     OW14097   2.019   3.554   3.212 -0.2243 -0.3567 -0.4163
 3583SOL    HW214098   1.979   3.469   3.192 -0.9885 -0.3814  1.0714
 3583SOL    HW314099   1.955   3.618   3.181  0.3182 -0.3105 -1.4698
 3583SOL    MW414100   2.005   3.551   3.205 -0.1688  0.4541  0.1798
 3584SOL     OW14101   1.565   3.317   0.909  0.1729 -0.5863  0.0007
 3584SOL    HW214102   1.490   3.337   0.853  0.4659 -0.8537 -0.4906
 3584SOL    HW314103   1.633   3.377   0.880  1.1968 -2.4779 -1.7578
 3584SOL    MW414104   1.564   3.328   0.898  0.1390  0.0090  0.1991
 3585SOL     OW14105   0.762   6.177   0.412 -0.2776 -0.5722  0.7048
 3585SOL    HW214106   0.839   6.225   0.382 -1.3246  1.1177  0.6477
 3585SOL    HW314107   0.798   6.102   0.459  1.4150  0.6747  1.4973
 3585SOL    MW414108   0.777   6.173   0.414  0.0637 -0.2888  0.3194
 3586SOL     OW14109   2.616   3.041   2.565 -0.8225 -0.3570 -0.2725
 3586SOL    HW214110   2.538   2.986   2.555 -0.0059 -1.6188  0.0260
 3586SOL    HW314111   2.677   2.987   2.615 -0.3656  1.2537  0.9970
 3586SOL    MW414112   2.614   3.026   2.570  0.0983  0.0677  0.3475
 3587SOL     OW14113   6.387   5.894   4.504 -0.4936  0.0426 -0.5964
 3587SOL    HW214114   6.477   5.903   4.472 -0.5249 -2.1363 -1.4469
 3587SOL    HW314115   6.395   5.897   4.600  0.1381  2.2239 -0.6596
 3587SOL    MW414116   6.400   5.896   4.513  0.0972 -0.6760  0.2536
 3588SOL     OW14117   4.773   1.408   2.104 -0.1867  0.3213 -0.2961
 3588SOL    HW214118   4.714   1.455   2.045 -1.6414 -0.7435  0.2426
 3588SOL    HW314119   4.827   1.354   2.046 -1.6194 -0.7440 -0.7101
 3588SOL    MW414120   4.773   1.407   2.088 -0.2662 -0.9248 -0.3607
 3589SOL     OW14121   2.364   5.981   4.687 -0.4717 -0.1287 -0.0208
 3589SOL    HW214122   2.322   5.903   4.650 -2.9480  1.4194 -0.7628
 3589SOL    HW314123   2.340   6.051   4.626  1.9545  1.2065  0.4287
 3589SOL    MW414124   2.355   5.980   4.674  0.0891  0.3890  0.6801
 3590SOL     OW14125   5.443   1.938   2.938  0.3800  0.7918 -0.5341
 3590SOL    HW214126   5.432   1.878   2.863  1.3307 -1.7531  1.2381
 3590SOL    HW314127   5.498   1.890   2.999 -1.0262  2.4326  2.1991
 3590SOL    MW414128   5.449   1.923   2.936 -0.1148 -0.4807 -0.1366
 3591SOL     OW14129   3.545   3.958   4.987  0.3425 -0.5149  0.0002
 3591SOL    HW214130   3.480   4.027   5.001 -0.9054 -2.0301  2.2325
 3591SOL    HW314131   3.500   3.894   4.932  1.5727  0.4137 -2.2523
 3591SOL    MW414132   3.530   3.959   4.981  0.6096  0.0087 -0.1963
 3592SOL     OW14133   2.208   1.031   0.761 -0.0617  0.2178  0.2926
 3592SOL    HW214134   2.215   1.067   0.850 -1.1111  1.9272 -0.2559
 3592SOL    HW314135   2.239   0.941   0.768 -0.5157  0.1894  2.4739
 3592SOL    MW414136   2.213   1.024   0.774 -0.1573 -0.2827  0.0276
 3593SOL     OW14137   0.253   1.545   1.838  0.8157  0.1373  0.3114
 3593SOL    HW214138   0.346   1.551   1.814  0.5517 -1.9293 -1.6384
 3593SOL    HW314139   0.217   1.483   1.775 -1.8470  0.6291  1.2427
 3593SOL    MW414140   0.261   1.537   1.827 -0.5263 -0.1142  0.3175
 3594SOL     OW14141   0.486   0.655   2.698  0.1867 -0.5822 -0.2609
 3594SOL    HW214142   0.563   0.604   2.674 -0.4530 -2.0680  0.6958
 3594SOL    HW314143   0.425   0.642   2.626 -0.0095 -1.2755  0.0212
 3594SOL    MW414144   0.489   0.647   2.685  0.3435  0.1504 -0.7736
 3595SOL     OW14145   3.819   3.350   0.025 -0.3954 -0.8908  0.1089
 3595SOL    HW214146   3.871   3.274   0.052  0.8648 -0.0108  0.2617
 3595SOL    HW314147   3.825   3.351  -0.070 -2.4756 -2.3604 -0.1023
 3595SOL    MW414148   3.827   3.340   0.016  0.0342  0.6104  0.1884
 3596SOL     OW14149   5.831   0.556   2.693 -0.0294  0.4246  0.3846
 3596SOL    HW214150   5.780   0.623   2.738 -0.2418  0.0828  0.6518
 3596SOL    HW314151   5.779   0.534   2.616 -1.3263 -1.4000  1.6964
 3596SOL    MW414152   5.818   0.562   2.689 -0.2289 -0.3580 -0.2359
 3597SOL     OW14153   3.589   5.365   1.603 -0.2340 -0.0417  0.1885
 3597SOL    HW214154   3.605   5.314   1.682 -1.0566 -0.8541 -0.1566
 3597SOL    HW314155   3.627   5.313   1.532  0.3969  0.6270  0.0237
 3597SOL    MW414156   3.596   5.351   1.604  0.2118 -0.4244 -0.1152
 3598SOL     OW14157   1.638   2.286   3.289 -0.2920  0.2184 -0.0986
 3598SOL    HW214158   1.628   2.194   3.315 -1.6068  0.2083 -0.5283
 3598SOL    HW314159   1.717   2.288   3.236  0.1149 -0.5347  0.4602
 3598SOL    MW414160   1.647   2.274   3.286 -0.1409  0.0092  0.8657
 3599SOL     OW14161   4.246   4.396   5.159 -0.4862  0.1661 -0.5097
 3599SOL    HW214162   4.271   4.488   5.162  1.9051 -0.4073 -1.2181
 3599SOL    HW314163   4.182   4.391   5.088 -0.3253  1.1915 -0.7468
 3599SOL    MW414164   4.241   4.408   5.150  0.0134 -0.1269 -0.5226
 3600SOL     OW14165   4.070   3.805   5.986 -0.6825 -0.1953 -0.5847
 3600SOL    HW214166   4.025   3.861   5.923  1.0014  0.4162 -1.3139
 3600SOL    HW314167   4.154   3.785   5.945  0.8467  0.9152  1.7972
 3600SOL    MW414168   4.075   3.809   5.972  0.5800  0.0901  0.0897
 3601SOL     OW14169   1.083   1.731   0.490  0.1489  0.9293 -0.3729
 3601SOL    HW214170   1.005   1.711   0.439 -0.7112  1.4167  0.7156
 3601SOL    HW314171   1.061   1.705   0.579  1.3803  0.7115 -0.1124
 3601SOL    MW414172   1.070   1.725   0.495 -0.1777 -0.3745  0.0180
 3602SOL     OW14173   4.205   2.003   0.294 -0.0973  0.0997 -0.0727
 3602SOL    HW214174   4.213   2.072   0.361  0.4009  1.2421 -1.2716
 3602SOL    HW314175   4.285   1.951   0.304  0.0230  0.3246  0.1639
 3602SOL    MW414176   4.217   2.005   0.304 -0.4496 -0.2527  0.3368
 3603SOL     OW14177   2.675   4.302   4.602  0.2614 -0.0031 -0.0188
 3603SOL    HW214178   2.700   4.211   4.592  2.2856  0.6038 -1.0612
 3603SOL    HW314179   2.614   4.318   4.530 -0.7068 -0.6932  0.6225
 3603SOL    MW414180   2.670   4.292   4.591  0.1050 -0.3667  0.8720
 3604SOL     OW14181   5.697   5.131   6.419 -0.0103  0.3003  0.5663
 3604SOL    HW214182   5.728   5.139   6.509  0.3346 -0.7061  0.5463
 3604SOL    HW314183   5.602   5.123   6.427  0.1051 -0.8164  0.9142
 3604SOL    MW414184   5.689   5.131   6.432 -0.0067 -1.4183 -0.2406
 3605SOL     OW14185   3.306   1.567   0.422  0.0376 -0.4180 -0.2228
 3605SOL    HW214186   3.310   1.663   0.416 -2.6087  0.1598  3.6837
 3605SOL    HW314187   3.230   1.544   0.368  0.1942 -0.2630 -0.5190
 3605SOL    MW414188   3.296   1.577   0.414  0.3584  0.2985  0.3398
 3606SOL     OW14189   0.764   0.721   4.405  0.1316  0.2070  0.0320
 3606SOL    HW214190   0.675   0.688   4.417  0.1977  0.1853  0.4596
 3606SOL    HW314191   0.759   0.814   4.426  0.0205  0.4103 -0.8338
 3606SOL    MW414192   0.752   0.729   4.409  0.1351 -0.2336  0.2674
 3607SOL     OW14193   6.292   6.141   3.749 -0.3056 -0.0867 -0.5449
 3607SOL    HW214194   6.221   6.076   3.743  0.4621 -1.4010  2.5564
 3607SOL    HW314195   6.330   6.142   3.661 -2.8935 -0.8022 -1.7741
 3607SOL    MW414196   6.288   6.132   3.737  0.3868  0.2860  0.2392
 3608SOL     OW14197   0.778   3.872   5.000 -0.1120  0.4870  0.2216
 3608SOL    HW214198   0.712   3.852   4.933  0.5815  1.4576 -0.7942
 3608SOL    HW314199   0.860   3.875   4.951  0.7653 -1.0951  1.5301
 3608SOL    MW414200   0.780   3.870   4.984  0.2909  0.7157 -0.6415
 3609SOL     OW14201   4.590   2.504   4.836 -0.1656 -0.0429 -0.5800
 3609SOL    HW214202   4.626   2.592   4.841  0.1814 -0.2246  0.9851
 3609SOL    HW314203   4.505   2.514   4.795 -0.5053  1.1665  0.3575
 3609SOL    MW414204   4.584   2.517   4.832  0.3863 -0.0107 -0.1100
 3610SOL     OW14205   0.964   5.349   1.001 -0.3219  0.4210  0.2257
 3610SOL    HW214206   0.878   5.373   0.968  0.1290 -0.8894 -2.0986
 3610SOL    HW314207   0.950   5.265   1.045 -0.0829 -0.3768 -1.1681
 3610SOL    MW414208   0.951   5.341   1.003  0.8435 -0.1618  0.3886
 3611SOL     OW14209   5.817   5.949   1.482 -0.7523  0.5200  0.6352
 3611SOL    HW214210   5.878   5.896   1.430  0.9803  1.9317  1.1153
 3611SOL    HW314211   5.783   5.888   1.548 -0.1840 -0.4177  0.0950
 3611SOL    MW414212   5.820   5.934   1.484  0.1455  0.2629  0.2481
 3612SOL     OW14213   4.543   5.594   3.547  0.0146 -0.4580  0.1277
 3612SOL    HW214214   4.637   5.576   3.552  0.2924  0.7647 -0.3195
 3612SOL    HW314215   4.532   5.643   3.465 -1.1521 -1.3361 -0.2815
 3612SOL    MW414216   4.554   5.598   3.537  0.8097 -0.0606  1.0269
 3613SOL     OW14217   3.481   4.386   5.322 -0.5639 -0.4761 -0.2877
 3613SOL    HW214218   3.391   4.417   5.308 -0.5366 -0.6682 -0.8907
 3613SOL    HW314219   3.477   4.292   5.305 -0.3892 -0.6102  0.3653
 3613SOL    MW414220   3.468   4.378   5.318  0.0847  0.3236  0.6507
 3614SOL     OW14221   0.558   1.107   3.157  0.1599  0.1775 -0.1952
 3614SOL    HW214222   0.479   1.126   3.106 -0.4070  1.0136  0.9339
 3614SOL    HW314223   0.525   1.069   3.239  0.9728 -0.0805  0.0240
 3614SOL    MW414224   0.543   1.105   3.161 -0.3892 -0.0124  0.2058
 3615SOL     OW14225   5.219   3.735   2.233 -0.1911 -0.2653 -0.1488
 3615SOL    HW214226   5.274   3.775   2.301  0.2233 -0.1603 -0.5362
 3615SOL    HW314227   5.190   3.653   2.271  0.4707 -0.4533 -0.0344
 3615SOL    MW414228   5.223   3.730   2.247 -0.3089 -0.2150 -0.4821
 3616SOL     OW14229   2.546   4.750   5.376  0.4994 -0.1473 -0.0138
 3616SOL    HW214230   2.463   4.714   5.407  0.4237 -1.3704 -1.5436
 3616SOL    HW314231   2.529   4.844   5.366  0.1244  0.0815  2.2045
 3616SOL    MW414232   2.533   4.758   5.379 -0.0991 -0.6065  0.0598
 3617SOL     OW14233   0.559   0.640   5.827 -0.2217 -0.0509 -0.2379
 3617SOL    HW214234   0.649   0.609   5.838 -0.0437  0.7888  0.8188
 3617SOL    HW314235   0.522   0.583   5.760  1.5651  0.5657 -1.8279
 3617SOL    MW414236   0.566   0.628   5.820 -0.6237 -0.3471 -0.3419
 3618SOL     OW14237   5.607   3.992   3.906 -0.5129  0.5008  0.1537
 3618SOL    HW214238   5.520   4.025   3.885 -0.6569 -0.5625 -1.0906
 3618SOL    HW314239   5.592   3.926   3.974 -0.8206 -0.2731 -0.6335
 3618SOL    MW414240   5.594   3.988   3.912 -0.5188 -0.2995  0.3775
 3619SOL     OW14241   1.637   3.979   0.618  0.2124  0.1946 -0.7351
 3619SOL    HW214242   1.565   3.916   0.617 -0.6542  1.1463 -0.3555
 3619SOL    HW314243   1.599   4.057   0.659  1.2137  1.0141 -1.3304
 3619SOL    MW414244   1.622   3.981   0.623 -0.4368 -0.2133 -0.4043
 3620SOL     OW14245   0.509   3.700   0.450  0.3550 -0.0123 -0.0398
 3620SOL    HW214246   0.424   3.683   0.492 -0.2707 -1.2349 -1.7020
 3620SOL    HW314247   0.490   3.763   0.381  0.8994  0.1043 -0.0863
 3620SOL    MW414248   0.495   3.706   0.447  0.3046 -0.0295 -0.0880
 3621SOL     OW14249   3.428   1.451   0.186  0.4230  0.2425  0.7812
 3621SOL    HW214250   3.496   1.509   0.152  0.3710  0.4243  0.9903
 3621SOL    HW314251   3.397   1.494   0.266 -0.6441  0.6911  0.1556
 3621SOL    MW414252   3.433   1.465   0.192  0.3325  0.1373 -0.1487
 3622SOL     OW14253   5.203   0.225   3.785 -0.5270 -0.2045  0.3052
 3622SOL    HW214254   5.212   0.299   3.845 -2.2355 -1.4175  2.1869
 3622SOL    HW314255   5.118   0.237   3.744 -0.7802 -1.0416  0.5616
 3622SOL    MW414256   5.193   0.236   3.788 -0.1485 -0.3199  0.0222
 3623SOL     OW14257   0.647   0.667   4.732  0.0978 -0.3220  0.4008
 3623SOL    HW214258   0.594   0.643   4.655  1.7317 -2.4453 -0.1564
 3623SOL    HW314259   0.631   0.596   4.795 -1.3335  1.4589  2.1819
 3623SOL    MW414260   0.638   0.654   4.730  0.0951 -0.3907 -0.3034
 3624SOL     OW14261   4.897   2.996   3.552  0.0313 -0.3813 -0.7497
 3624SOL    HW214262   4.804   3.011   3.571  0.5290  1.6490  0.3534
 3624SOL    HW314263   4.904   3.008   3.457 -0.9510 -1.4453 -0.9888
 3624SOL    MW414264   4.885   2.999   3.542  0.2530  0.2641 -0.7241
 3625SOL     OW14265   3.102   5.962   4.226  0.0136  0.2057 -0.0860
 3625SOL    HW214266   3.079   5.912   4.305  0.5926 -0.9621 -0.6275
 3625SOL    HW314267   3.168   5.908   4.183 -0.4065  0.7548 -1.4530
 3625SOL    MW414268   3.108   5.948   4.231 -0.4748  0.0573  0.2577
 3626SOL     OW14269   4.953   0.582   5.887  0.0526 -0.4763 -0.4285
 3626SOL    HW214270   4.977   0.657   5.942  1.7077 -2.0250  1.1113
 3626SOL    HW314271   4.973   0.610   5.798  0.7223  0.8837  0.1285
 3626SOL    MW414272   4.959   0.596   5.883  0.1677  0.2743 -0.4035
 3627SOL     OW14273   0.933   0.525   1.454  0.1580 -0.4502  0.3454
 3627SOL    HW214274   0.932   0.589   1.525 -1.3409 -1.2137  1.0557
 3627SOL    HW314275   0.858   0.549   1.399 -0.3222 -1.4795  0.5330
 3627SOL    MW414276   0.923   0.537   1.456  0.7459 -0.4215  0.7902
 3628SOL     OW14277   3.794   4.057   2.307  0.1675  0.3335 -0.3930
 3628SOL    HW214278   3.708   4.081   2.341  0.4481  1.7889 -0.6396
 3628SOL    HW314279   3.818   3.978   2.356 -1.1161  0.1511 -0.0221
 3628SOL    MW414280   3.786   4.050   2.318  0.1303 -0.0671  0.3053
 3629SOL     OW14281   0.635   0.659   6.227 -0.7243 -0.2969  0.3319
 3629SOL    HW214282   0.554   0.658   6.175 -0.2019 -1.3249 -0.4858
 3629SOL    HW314283   0.656   0.567   6.241 -1.6539 -0.1268  3.7235
 3629SOL    MW414284   0.627   0.647   6.222  0.1861 -0.3364  0.1419
 3630SOL     OW14285   3.899   4.835   6.395 -0.0651 -0.6243  0.0181
 3630SOL    HW214286   3.937   4.915   6.432  0.2548 -1.1503  0.8644
 3630SOL    HW314287   3.867   4.861   6.309  2.1758 -0.1132 -0.7405
 3630SOL    MW414288   3.900   4.849   6.389  0.2090  0.2848  0.2477
 3631SOL     OW14289   3.128   5.628   4.114 -0.0772  0.4632 -0.6523
 3631SOL    HW214290   3.186   5.669   4.178  0.2293 -1.3400  0.3190
 3631SOL    HW314291   3.060   5.693   4.097  1.2946  1.9789 -0.5284
 3631SOL    MW414292   3.126   5.642   4.120 -0.2365 -0.0894 -0.1312
 3632SOL     OW14293   5.223   3.151   2.265 -0.6357 -0.4267 -0.6285
 3632SOL    HW214294   5.275   3.220   2.222 -1.1427 -0.1925 -0.8803
 3632SOL    HW314295   5.269   3.134   2.347 -1.8167  1.9886  0.6390
 3632SOL    MW414296   5.236   3.158   2.270 -0.2259 -0.2267  0.1801
 3633SOL     OW14297   3.654   1.712   4.517 -0.3716 -0.1015 -0.3647
 3633SOL    HW214298   3.692   1.779   4.575  0.8063 -1.8405  1.0012
 3633SOL    HW314299   3.629   1.641   4.576 -3.1768 -0.2295 -1.5783
 3633SOL    MW414300   3.656   1.712   4.533  0.4613 -0.0522 -0.2856
 3634SOL     OW14301   4.952   6.382   3.793  0.6161  0.0121 -0.5123
 3634SOL    HW214302   5.021   6.342   3.740 -1.1565 -2.3033 -1.2752
 3634SOL    HW314303   4.871   6.341   3.761 -1.2733  3.2374 -0.3029
 3634SOL    MW414304   4.950   6.371   3.782  0.3670  0.1882 -0.0819
 3635SOL     OW14305   2.095   0.295   6.220  0.1836 -0.0206  0.5995
 3635SOL    HW214306   2.148   0.270   6.145 -1.0937  0.8851 -0.6586
 3635SOL    HW314307   2.013   0.329   6.182 -1.0373 -0.7523  2.4383
 3635SOL    MW414308   2.091   0.296   6.205  0.1239 -0.1049  0.3929
 3636SOL     OW14309   5.832   3.438   0.023  0.3067  0.1303 -0.0302
 3636SOL    HW214310   5.918   3.474   0.001 -0.2780  2.0008  0.5582
 3636SOL    HW314311   5.827   3.357  -0.027  1.6533  0.9176 -1.5366
 3636SOL    MW414312   5.843   3.432   0.014 -0.1060 -0.6959 -0.1428
 3637SOL     OW14313   1.672   2.459   0.939 -0.0038  0.0204 -0.0438
 3637SOL    HW214314   1.663   2.417   0.854  0.0094 -0.8020  0.3445
 3637SOL    HW314315   1.582   2.475   0.968 -0.0123  0.1342 -0.1342
 3637SOL    MW414316   1.659   2.455   0.932 -0.6019  0.4685  0.0327
 3638SOL     OW14317   3.868   2.440   5.003  0.0486  0.1874 -0.4513
 3638SOL    HW214318   3.885   2.508   4.938 -0.3217  0.9983  0.2915
 3638SOL    HW314319   3.794   2.473   5.053 -0.1568 -0.7828 -0.1032
 3638SOL    MW414320   3.860   2.453   5.001 -0.0764  0.2472 -0.0598
 3639SOL     OW14321   3.934   5.661   5.942  0.2136  0.6282 -0.9059
 3639SOL    HW214322   4.014   5.608   5.943 -0.2751 -0.1188 -0.6866
 3639SOL    HW314323   3.906   5.661   5.850  0.2129  0.5008 -0.9057
 3639SOL    MW414324   3.941   5.654   5.930 -0.2494  0.3303  0.1523
 3640SOL     OW14325   2.708   3.138   6.163  0.1198  0.2289  0.1167
 3640SOL    HW214326   2.785   3.192   6.143  0.6651 -1.6241 -3.6166
 3640SOL    HW314327   2.744   3.059   6.203  0.0867 -0.2606 -0.8067
 3640SOL    MW414328   2.723   3.135   6.166 -0.0731  0.6564  0.2426
 3641SOL     OW14329   2.618   2.175   2.699  0.0233 -0.2451 -0.1787
 3641SOL    HW214330   2.583   2.249   2.650  0.1747 -1.2578 -1.9073
 3641SOL    HW314331   2.573   2.178   2.783  0.2885  1.9879 -0.0651
 3641SOL    MW414332   2.608   2.185   2.703 -0.4203 -0.6932  0.2427
 3642SOL     OW14333   3.469   3.754   4.585 -0.1407 -0.0424 -0.0474
 3642SOL    HW214334   3.398   3.707   4.541  0.2250 -0.5349 -0.1166
 3642SOL    HW314335   3.549   3.716   4.550  0.1767  0.9649 -0.4656
 3642SOL    MW414336   3.470   3.743   4.575 -0.6507 -0.5724 -0.0713
 3643SOL     OW14337   6.147   4.771   4.409  0.4505  0.2638 -0.4888
 3643SOL    HW214338   6.056   4.796   4.391  0.1658 -0.3839 -0.0154
 3643SOL    HW314339   6.174   4.829   4.480 -0.2262 -0.7614  0.6460
 3643SOL    MW414340   6.138   4.782   4.416  0.3404 -0.1797  0.1826
 3644SOL     OW14341   2.206   5.471   2.619 -0.3481  0.0881 -0.0321
 3644SOL    HW214342   2.161   5.387   2.611 -1.8046  0.8854 -0.4655
 3644SOL    HW314343   2.148   5.525   2.671  0.3865  0.9717 -0.1041
 3644SOL    MW414344   2.193   5.467   2.625 -0.3534 -0.0917 -0.6400
 3645SOL     OW14345   4.386   2.027   5.793 -0.3081 -0.3401  0.1210
 3645SOL    HW214346   4.291   2.020   5.799 -0.4783  0.6009 -1.1812
 3645SOL    HW314347   4.409   1.981   5.713  0.5191 -1.8281  1.1666
 3645SOL    MW414348   4.377   2.020   5.783  0.5214  0.2133 -0.4355
 3646SOL     OW14349   5.555   6.293   0.549  0.4164 -0.0348 -0.5377
 3646SOL    HW214350   5.638   6.338   0.536  0.5829 -0.1543  0.0811
 3646SOL    HW314351   5.490   6.363   0.547  0.6637  0.2353  0.2893
 3646SOL    MW414352   5.557   6.308   0.547  0.4954  0.1831  0.4487
 3647SOL     OW14353   1.414   4.056   1.123  0.2669  0.1662 -0.0604
 3647SOL    HW214354   1.348   4.038   1.190  0.1923  0.0503 -0.1652
 3647SOL    HW314355   1.378   4.018   1.043  1.9723 -3.0366  0.5128
 3647SOL    MW414356   1.401   4.049   1.121 -0.6308 -0.1531 -0.6345
 3648SOL     OW14357   5.772   3.555   3.381 -0.1963 -0.2477 -0.1051
 3648SOL    HW214358   5.745   3.541   3.472  1.1618  0.7240  0.4895
 3648SOL    HW314359   5.691   3.545   3.330 -0.7299 -2.1673  1.0322
 3648SOL    MW414360   5.758   3.552   3.386 -0.4939  0.0782 -0.4235
 3649SOL     OW14361   2.000   3.538   2.068  0.2979 -0.1642  0.4627
 3649SOL    HW214362   1.979   3.623   2.030  0.7079 -0.2819 -0.0325
 3649SOL    HW314363   2.067   3.501   2.011  1.2588 -0.1601  1.5477
 3649SOL    MW414364   2.006   3.544   2.055 -0.4093 -0.1977 -0.5325
 3650SOL     OW14365   1.227   3.562   5.304  0.0434  0.1182 -0.1008
 3650SOL    HW214366   1.188   3.547   5.390 -0.2309  0.6379 -0.1279
 3650SOL    HW314367   1.163   3.617   5.259  0.3261  0.0973 -0.5314
 3650SOL    MW414368   1.213   3.567   5.309  0.3363 -0.1812 -0.3445
 3651SOL     OW14369   6.212   1.295   0.322 -0.6619  0.4081  0.4267
 3651SOL    HW214370   6.140   1.315   0.263  0.3280  0.8526 -0.6672
 3651SOL    HW314371   6.265   1.375   0.324  0.8915 -0.5449 -0.4183
 3651SOL    MW414372   6.209   1.308   0.315  0.5767 -0.0393 -0.2729
 3652SOL     OW14373   5.378   3.214   1.796 -0.5162 -0.5234 -1.0296
 3652SOL    HW214374   5.438   3.203   1.721 -0.4712  0.0788 -1.0887
 3652SOL    HW314375   5.329   3.294   1.776  0.7545  0.6882  0.4104
 3652SOL    MW414376   5.380   3.223   1.783  0.0011 -0.0208  0.3276
 3653SOL     OW14377   0.096   5.858   4.743  0.1133 -0.2052 -0.0994
 3653SOL    HW214378   0.125   5.769   4.766  0.8138  0.2612  0.8974
 3653SOL    HW314379   0.157   5.915   4.789  0.0375  0.8023 -1.2053
 3653SOL    MW414380   0.108   5.854   4.752  0.2325  0.1487  0.0152
 3654SOL     OW14381   6.117   2.429   0.222 -0.1543  0.1770 -0.3326
 3654SOL    HW214382   6.054   2.395   0.285  1.3990 -0.1861  1.1096
 3654SOL    HW314383   6.155   2.506   0.265  0.4639  0.3301 -1.1171
 3654SOL    MW414384   6.114   2.435   0.236 -0.2966 -0.1173 -0.5460
 3655SOL     OW14385   1.049   2.715   3.016 -0.1202  0.3395  0.2057
 3655SOL    HW214386   1.104   2.667   3.079 -2.2990 -1.0203  1.2162
 3655SOL    HW314387   1.066   2.807   3.036  1.5437 -0.0123  0.6489
 3655SOL    MW414388   1.059   2.721   3.027 -0.0247 -0.2004  0.1100
 3656SOL     OW14389   0.777   5.381   6.380 -0.2431 -0.0532 -0.8467
 3656SOL    HW214390   0.862   5.402   6.340  0.9171 -0.3562  1.3399
 3656SOL    HW314391   0.798   5.359   6.470 -2.6507 -0.4157 -0.3255
 3656SOL    MW414392   0.791   5.381   6.386  0.6694 -0.1968 -0.2387
 3657SOL     OW14393   1.898   1.924   0.325  0.5789 -0.4240  0.1006
 3657SOL    HW214394   1.847   1.989   0.277 -0.8192 -0.4806  1.4307
 3657SOL    HW314395   1.903   1.848   0.266 -0.8584 -0.4052 -0.0650
 3657SOL    MW414396   1.892   1.923   0.311  0.3218 -0.6877 -0.0016
 3658SOL     OW14397   2.855   4.743   6.046 -0.0274 -0.2468  0.4662
 3658SOL    HW214398   2.896   4.684   5.982 -0.4511 -0.5499  0.4694
 3658SOL    HW314399   2.916   4.817   6.053  1.1437 -1.2689  1.4198
 3658SOL    MW414400   2.868   4.745   6.038 -0.3015 -0.1967  0.2070
 3659SOL     OW14401   3.572   1.966   4.816  0.4366 -0.2627  0.2512
 3659SOL    HW214402   3.537   1.919   4.892 -0.0871 -2.2152 -1.0891
 3659SOL    HW314403   3.611   2.045   4.851  3.0391 -2.5213  2.9704
 3659SOL    MW414404   3.572   1.970   4.831 -0.2763  0.0736 -0.2864
 3660SOL     OW14405   5.272   3.059   3.141  0.2786  0.2439  0.1140
 3660SOL    HW214406   5.336   2.997   3.176  0.3263  0.7238  0.8996
 3660SOL    HW314407   5.196   3.051   3.198  0.1969  0.7413  0.0846
 3660SOL    MW414408   5.271   3.050   3.153  0.4089 -0.1132 -0.4281
 3661SOL     OW14409   1.801   1.315   1.842  0.0916  0.5520 -0.4934
 3661SOL    HW214410   1.818   1.353   1.928  0.0022  0.1777 -0.3078
 3661SOL    HW314411   1.711   1.282   1.847  0.4669 -0.5104 -0.3271
 3661SOL    MW414412   1.791   1.316   1.854 -0.8538  0.3677  0.2913
 3662SOL     OW14413   4.587   3.337   1.140  0.3990 -0.0531 -0.3129
 3662SOL    HW214414   4.584   3.243   1.124 -1.4714  0.0352 -0.7124
 3662SOL    HW314415   4.662   3.349   1.199 -0.1070 -1.9630  0.8067
 3662SOL    MW414416   4.597   3.326   1.146 -0.0252 -0.1431  0.6450
 3663SOL     OW14417   1.473   3.072   5.732  0.0870  0.0977 -0.2092
 3663SOL    HW214418   1.441   3.010   5.666  2.3428 -0.3644 -0.9520
 3663SOL    HW314419   1.438   3.038   5.815  0.1319 -1.3874 -0.7590
 3663SOL    MW414420   1.464   3.059   5.735  0.3335  0.7880 -0.4829
 3664SOL     OW14421   4.154   0.949   4.245 -0.2797 -0.0771  0.6335
 3664SOL    HW214422   4.115   0.996   4.319  0.2965  1.5597 -0.0558
 3664SOL    HW314423   4.148   1.011   4.172 -1.5456 -1.9223 -0.9313
 3664SOL    MW414424   4.148   0.964   4.245  0.5104  0.3902 -0.3649
 3665SOL     OW14425   4.079   5.141   1.552 -0.1173 -0.7693  0.0621
 3665SOL    HW214426   4.000   5.096   1.522 -0.0958  0.1320 -1.4801
 3665SOL    HW314427   4.149   5.075   1.542 -0.2541 -0.7496 -1.1559
 3665SOL    MW414428   4.078   5.126   1.547 -0.4241  0.0328 -0.1333
 3666SOL     OW14429   5.489   1.199   5.602  0.4504 -0.0597 -0.0508
 3666SOL    HW214430   5.424   1.131   5.582  1.9893 -1.5699 -0.1902
 3666SOL    HW314431   5.530   1.217   5.518  0.3971  0.7027  0.0822
 3666SOL    MW414432   5.486   1.192   5.588  0.1275 -0.4225  0.0397
 3667SOL     OW14433   5.414   2.424   1.610 -0.0562  0.7463  0.2671
 3667SOL    HW214434   5.391   2.516   1.603  1.0596  1.1371  1.4111
 3667SOL    HW314435   5.439   2.411   1.701 -2.2614 -1.2178  0.6818
 3667SOL    MW414436   5.414   2.434   1.621 -0.0516 -0.1152  0.3522
 3668SOL     OW14437   2.107   1.532   0.149  0.3292 -0.1975 -0.5119
 3668SOL    HW214438   2.174   1.472   0.114 -0.5079 -0.9027 -0.9427
 3668SOL    HW314439   2.080   1.491   0.231  0.7252  0.3081 -0.1288
 3668SOL    MW414440   2.112   1.518   0.155  0.2275  0.1935 -0.0543
 3669SOL     OW14441   2.939   4.634   2.356  0.0666  0.4241  0.7359
 3669SOL    HW214442   2.960   4.625   2.263 -1.2628 -2.4505  0.5937
 3669SOL    HW314443   3.015   4.600   2.402 -0.3429 -0.7881  0.5566
 3669SOL    MW414444   2.952   4.629   2.350 -0.1131  0.1063  0.5367
 3670SOL     OW14445   4.406   0.470   5.984  1.0380 -0.1139  0.3844
 3670SOL    HW214446   4.345   0.534   5.947 -0.7657 -1.3692  1.0469
 3670SOL    HW314447   4.462   0.446   5.910 -0.8338 -0.6663 -0.9483
 3670SOL    MW414448   4.405   0.475   5.969 -0.3531 -0.3833  0.1553
 3671SOL     OW14449   3.764   1.456   4.339 -0.2609  0.2181  0.0509
 3671SOL    HW214450   3.856   1.443   4.317  0.1755 -0.6126  2.1696
 3671SOL    HW314451   3.755   1.551   4.347 -0.0277  0.4343 -1.7032
 3671SOL    MW414452   3.775   1.467   4.337  0.1525 -0.2821 -0.0687
 3672SOL     OW14453   4.904   2.180   0.002  0.6725 -0.2071  0.1911
 3672SOL    HW214454   4.839   2.250   0.011  2.4060  1.3067  1.5149
 3672SOL    HW314455   4.978   2.221  -0.043  1.2560 -1.5353 -0.1173
 3672SOL    MW414456   4.905   2.195  -0.003  0.1958 -0.1203  0.0614
 3673SOL     OW14457   2.703   4.222   1.644 -0.5515 -0.4889 -0.1353
 3673SOL    HW214458   2.615   4.187   1.651  0.0708 -3.2341 -3.5733
 3673SOL    HW314459   2.691   4.315   1.624 -2.4320  0.0312  2.8315
 3673SOL    MW414460   2.690   4.230   1.642  0.0423  0.6624 -0.4528
 3674SOL     OW14461   0.472   5.735   0.603 -0.0978 -0.0164  0.1554
 3674SOL    HW214462   0.560   5.698   0.606 -0.3283 -0.6151 -0.2261
 3674SOL    HW314463   0.415   5.659   0.591 -0.4812  0.5696 -2.0036
 3674SOL    MW414464   0.476   5.720   0.602 -0.0316  0.2506 -0.0974
 3675SOL     OW14465   0.072   2.638   4.141 -0.5812 -0.3098 -0.0712
 3675SOL    HW214466   0.025   2.577   4.199 -0.3859  1.3185  1.9027
 3675SOL    HW314467   0.164   2.618   4.156 -0.5424 -0.3748 -0.3963
 3675SOL    MW414468   0.078   2.627   4.150 -0.4270 -0.2361  0.4415
 3676SOL     OW14469   2.652   2.661   0.801  0.4806  0.2776 -0.5700
 3676SOL    HW214470   2.719   2.729   0.793 -0.7322  1.6646  0.4394
 3676SOL    HW314471   2.602   2.666   0.720  0.5375  0.4272 -0.5961
 3676SOL    MW414472   2.654   2.671   0.790 -0.0594 -0.0545  0.2162
 3677SOL     OW14473   3.491   5.955   1.046 -0.6063  0.4673 -0.0440
 3677SOL    HW214474   3.398   5.936   1.051 -0.4700  0.0687  1.6057
 3677SOL    HW314475   3.534   5.872   1.069  0.1812  0.5118 -1.2482
 3677SOL    MW414476   3.485   5.941   1.049 -0.1012  0.2387  0.0888
 3678SOL     OW14477   0.916   0.510   3.512  0.2200  0.4245  0.4138
 3678SOL    HW214478   0.884   0.421   3.499  0.0628  0.4536  0.5952
 3678SOL    HW314479   0.998   0.500   3.561  1.4676  0.2379 -1.6124
 3678SOL    MW414480   0.923   0.497   3.517  0.1240 -0.1879 -0.4573
 3679SOL     OW14481   5.101   0.405   0.670  0.2319  0.3712  0.2131
 3679SOL    HW214482   5.194   0.401   0.692  0.4247  1.0666 -0.4341
 3679SOL    HW314483   5.062   0.334   0.719  0.9932  0.5289  1.0793
 3679SOL    MW414484   5.108   0.395   0.679  0.3126 -0.5124 -0.3975
 3680SOL     OW14485   3.757   0.070   4.844  0.5030 -0.3962  0.0005
 3680SOL    HW214486   3.674   0.101   4.879 -0.1758 -1.9263 -0.1800
 3680SOL    HW314487   3.800   0.149   4.809  0.0280  0.7328  1.8593
 3680SOL    MW414488   3.752   0.084   4.844 -0.3283  0.1361 -0.4301
 3681SOL     OW14489   2.579   5.171   5.090  0.1416  0.0104  0.3864
 3681SOL    HW214490   2.639   5.107   5.052  1.3982  1.8521 -0.8829
 3681SOL    HW314491   2.510   5.181   5.024 -0.6930 -0.8582  1.1014
 3681SOL    MW414492   2.578   5.164   5.076 -0.3331 -0.0910 -0.0640
 3682SOL     OW14493   2.805   2.492   5.549 -0.0543 -0.3690 -0.1143
 3682SOL    HW214494   2.866   2.485   5.476  0.0382  2.2250 -0.3671
 3682SOL    HW314495   2.851   2.544   5.615 -0.7893 -1.1823  1.1003
 3682SOL    MW414496   2.819   2.498   5.548  0.3228 -0.3837 -0.0131
 3683SOL     OW14497   3.938   1.802   5.737  0.4377 -0.0186 -0.3158
 3683SOL    HW214498   3.997   1.858   5.787 -1.0758  0.3886  1.1134
 3683SOL    HW314499   3.919   1.729   5.795 -0.7124  0.0303 -0.6065
 3683SOL    MW414500   3.943   1.800   5.751  0.1334  0.1594 -0.1729
 3684SOL     OW14501   3.139   4.704   4.356 -0.7515 -0.3157  0.0824
 3684SOL    HW214502   3.212   4.764   4.373  0.2157 -1.6024  0.6152
 3684SOL    HW314503   3.061   4.754   4.382 -0.0809  1.0548 -0.4128
 3684SOL    MW414504   3.138   4.719   4.361 -0.4590  0.2119  0.1651
 3685SOL     OW14505   5.518   4.799   0.032 -0.1677  0.0699  0.4624
 3685SOL    HW214506   5.429   4.807   0.066 -0.0942 -0.4518  0.7890
 3685SOL    HW314507   5.561   4.738   0.091  0.1369 -0.4012 -0.2308
 3685SOL    MW414508   5.512   4.792   0.044 -0.3529  0.2972 -0.3360
 3686SOL     OW14509   4.654   1.561   0.750 -0.1689  0.1694  0.4979
 3686SOL    HW214510   4.581   1.538   0.693  1.2544  0.7036 -1.6728
 3686SOL    HW314511   4.678   1.478   0.793 -0.6236 -0.5024 -0.5098
 3686SOL    MW414512   4.648   1.547   0.748 -0.2479 -0.2947 -0.1835
 3687SOL     OW14513   1.436   1.296   1.592  0.2545  0.2647  0.2502
 3687SOL    HW214514   1.382   1.284   1.671 -0.4940 -0.4528 -0.3464
 3687SOL    HW314515   1.377   1.274   1.520  1.0380  0.5620 -0.4899
 3687SOL    MW414516   1.421   1.291   1.593 -0.1274 -0.0074  0.3572
 3688SOL     OW14517   0.427   0.403   4.342  0.5389 -0.1531  0.3515
 3688SOL    HW214518   0.348   0.423   4.292  1.4258  2.0502 -0.2855
 3688SOL    HW314519   0.430   0.307   4.345 -1.0744 -0.3167 -1.3193
 3688SOL    MW414520   0.417   0.393   4.336  0.2238 -0.0934 -0.1375
 3689SOL     OW14521   0.964   1.719   0.772 -0.1152  0.2175 -0.4670
 3689SOL    HW214522   0.960   1.626   0.794 -0.7155 -0.3744 -2.8196
 3689SOL    HW314523   0.958   1.764   0.857  1.4061 -1.8594  0.8270
 3689SOL    MW414524   0.963   1.713   0.786  0.5144  0.1917  0.1334
 3690SOL     OW14525   1.534   0.931   1.439  0.5606 -0.1119 -0.0427
 3690SOL    HW214526   1.559   0.939   1.346  0.1700  1.7913 -0.0358
 3690SOL    HW314527   1.560   0.842   1.463  2.7947  0.0910 -1.3622
 3690SOL    MW414528   1.541   0.921   1.430  0.0417  0.4333  0.3139
 3691SOL     OW14529   6.047   0.121   5.926  0.3861  0.2910 -0.1462
 3691SOL    HW214530   6.027   0.144   6.017  1.2476 -1.4348  0.5383
 3691SOL    HW314531   5.962   0.103   5.886  0.0747 -0.0409  0.6481
 3691SOL    MW414532   6.033   0.122   5.933  0.1661  0.6242  0.7531
 3692SOL     OW14533   2.237   1.405   4.803  0.0227  0.1837  0.0061
 3692SOL    HW214534   2.246   1.362   4.717  1.3432  0.0492  0.1956
 3692SOL    HW314535   2.263   1.338   4.866 -2.2803 -0.1855  0.6549
 3692SOL    MW414536   2.241   1.390   4.800  0.2635  0.0319 -0.2357
 3693SOL     OW14537   2.983   2.778   2.909 -0.1174  0.7298 -0.1368
 3693SOL    HW214538   3.068   2.822   2.915  0.8440 -1.0425  0.1750
 3693SOL    HW314539   2.939   2.820   2.835  1.3034  1.2499 -0.7288
 3693SOL    MW414540   2.989   2.789   2.900 -0.0155  0.3122  0.0500
 3694SOL     OW14541   2.835   5.790   5.335 -0.0783  0.9412  0.0412
 3694SOL    HW214542   2.787   5.765   5.257 -0.7968  1.5793  0.2703
 3694SOL    HW314543   2.927   5.792   5.307 -0.1673 -0.2599 -0.3994
 3694SOL    MW414544   2.841   5.787   5.321  0.9054 -0.3333  0.0040
 3695SOL     OW14545   2.391   3.239   1.956  0.3692  0.6037  0.2350
 3695SOL    HW214546   2.476   3.266   1.923  0.6595  1.0600  1.2880
 3695SOL    HW314547   2.408   3.214   2.047 -0.5552  0.3296  0.3434
 3695SOL    MW414548   2.404   3.239   1.964  0.1837  0.1330  0.0716
 3696SOL     OW14549   3.562   5.887   5.323 -0.2428 -0.1718 -0.2681
 3696SOL    HW214550   3.480   5.898   5.276 -0.2211 -0.9942 -0.5252
 3696SOL    HW314551   3.612   5.826   5.269  0.4176  0.0919  0.0357
 3696SOL    MW414552   3.558   5.880   5.309  0.0160  0.2770  0.5789
 3697SOL     OW14553   1.242   2.958   4.249 -0.0441  0.3168 -0.1226
 3697SOL    HW214554   1.233   2.884   4.189  3.0379  1.0922 -1.7130
 3697SOL    HW314555   1.158   3.003   4.244 -0.5478 -0.7259 -2.3996
 3697SOL    MW414556   1.230   2.954   4.241  0.2327  0.1650 -0.0387
 3698SOL     OW14557   0.408   3.188   1.717  0.3604  0.6275 -0.4115
 3698SOL    HW214558   0.314   3.199   1.702 -0.1162 -2.5802 -0.5030
 3698SOL    HW314559   0.436   3.127   1.649  2.8709  2.4533 -1.1987
 3698SOL    MW414560   0.399   3.181   1.706 -0.4489  0.0386  0.1532
 3699SOL     OW14561   4.055   3.373   5.088  0.4958 -0.5430  0.1894
 3699SOL    HW214562   4.141   3.405   5.059  1.0089 -0.6529  1.5065
 3699SOL    HW314563   4.005   3.361   5.007  1.9257 -1.0712 -0.6543
 3699SOL    MW414564   4.060   3.376   5.074 -1.0526 -0.7307  0.2379
 3700SOL     OW14565   6.261   2.423   3.747 -0.2378  0.2280  0.4692
 3700SOL    HW214566   6.182   2.384   3.786 -1.2602  0.1933 -1.4756
 3700SOL    HW314567   6.230   2.505   3.709  0.9354  0.7686  0.6509
 3700SOL    MW414568   6.246   2.429   3.747 -0.2943  0.2624  0.0607
 3701SOL     OW14569   2.384   4.070   6.223  0.0873 -0.1283  0.5293
 3701SOL    HW214570   2.384   4.023   6.306 -2.0628 -0.4330  0.3962
 3701SOL    HW314571   2.299   4.051   6.184 -0.0449  2.2007 -0.4980
 3701SOL    MW414572   2.373   4.061   6.229 -0.1962  0.0534  0.4150
 3702SOL     OW14573   5.466   4.544   3.061 -0.3188 -0.0213 -0.3445
 3702SOL    HW214574   5.524   4.584   3.125  0.3463 -0.4299 -0.6815
 3702SOL    HW314575   5.394   4.507   3.112  0.8455 -1.4682  0.3009
 3702SOL    MW414576   5.464   4.545   3.076  0.3352  0.0759  0.4291
 3703SOL     OW14577   1.321   1.170   0.337 -0.1678 -0.6446 -0.1230
 3703SOL    HW214578   1.276   1.148   0.256 -0.8713  1.4853 -0.3726
 3703SOL    HW314579   1.380   1.241   0.313  0.8817 -1.1252  0.9087
 3703SOL    MW414580   1.323   1.176   0.323 -0.3194 -0.5476  0.2777
 3704SOL     OW14581   1.775   3.496   0.838 -0.2545 -0.5285  0.1875
 3704SOL    HW214582   1.789   3.584   0.802  0.4987 -0.2102  1.2074
 3704SOL    HW314583   1.842   3.442   0.795  0.3981 -0.2312  0.8211
 3704SOL    MW414584   1.786   3.500   0.827 -0.1156 -0.1195 -0.4093
 3705SOL     OW14585   5.479   2.853   0.667  0.0842 -0.4255 -0.1040
 3705SOL    HW214586   5.469   2.857   0.762 -1.9536 -1.9272 -0.1614
 3705SOL    HW314587   5.472   2.944   0.638  0.7778  0.0564  1.1651
 3705SOL    MW414588   5.476   2.865   0.676 -0.5183  0.5526 -0.0531
 3706SOL     OW14589   1.052   3.123   1.585  0.0926 -0.2077  0.7726
 3706SOL    HW214590   1.067   3.176   1.663 -1.7716  1.2314  0.2532
 3706SOL    HW314591   1.132   3.132   1.534  0.3686  0.9870  1.3654
 3706SOL    MW414592   1.064   3.131   1.588  0.1602  0.0093  0.5258
 3707SOL     OW14593   1.172   0.524   0.910 -0.2447  0.5117 -0.1404
 3707SOL    HW214594   1.240   0.463   0.881 -0.8818  0.2496 -1.1482
 3707SOL    HW314595   1.134   0.557   0.829 -0.7704  1.2815  0.4054
 3707SOL    MW414596   1.176   0.520   0.895  0.8521  0.0054 -0.0661
 3708SOL     OW14597   3.247   5.301   4.930  0.2199  0.1867  0.2156
 3708SOL    HW214598   3.282   5.270   4.846 -1.9643 -0.0954 -0.6645
 3708SOL    HW314599   3.159   5.333   4.908  0.1982  1.5615  2.1495
 3708SOL    MW414600   3.240   5.301   4.916 -0.1209  0.5951 -0.4004
 3709SOL     OW14601   0.839   1.776   5.582 -0.1035  0.6500  0.0174
 3709SOL    HW214602   0.812   1.797   5.671 -0.4461  0.9572 -0.1605
 3709SOL    HW314603   0.801   1.689   5.566 -0.3830  0.7726  0.0207
 3709SOL    MW414604   0.830   1.767   5.592  0.2620  0.4964 -0.4630
 3710SOL     OW14605   1.233   4.324   1.740  0.1123  0.5992  0.3869
 3710SOL    HW214606   1.321   4.339   1.776 -0.9970  1.7438  2.8342
 3710SOL    HW314607   1.185   4.281   1.811 -1.5403  0.7530 -0.5951
 3710SOL    MW414608   1.239   4.320   1.754 -0.3903  0.0439 -0.0399
 3711SOL     OW14609   2.004   1.132   5.767  0.0618 -0.1133  0.0537
 3711SOL    HW214610   2.083   1.161   5.723 -0.7006 -0.4513 -1.6438
 3711SOL    HW314611   2.026   1.045   5.801  0.8949  0.4640  1.0345
 3711SOL    MW414612   2.017   1.124   5.766  0.1721  0.0357  0.6113
 3712SOL     OW14613   4.528   4.756   4.648 -0.1758  0.1761 -0.6148
 3712SOL    HW214614   4.587   4.682   4.628 -0.7692 -0.3999 -0.2754
 3712SOL    HW314615   4.562   4.828   4.596  1.3734  0.1066  0.2187
 3712SOL    MW414616   4.541   4.755   4.639 -0.0661  0.7208  0.0509
 3713SOL     OW14617   5.667   3.543   1.756  0.3166 -0.5158 -0.4796
 3713SOL    HW214618   5.749   3.594   1.755  1.2180 -1.8693  0.3407
 3713SOL    HW314619   5.655   3.516   1.666  0.4392  0.2157 -0.7201
 3713SOL    MW414620   5.676   3.546   1.744 -0.5884 -0.1842  0.0186
 3714SOL     OW14621   0.861   1.583   3.144  0.2855 -0.7375  0.5763
 3714SOL    HW214622   0.848   1.488   3.138  1.6786 -1.1316  2.6193
 3714SOL    HW314623   0.912   1.605   3.066 -1.4456 -1.3211 -0.7918
 3714SOL    MW414624   0.866   1.573   3.133  0.2185 -0.6307 -0.4251
 3715SOL     OW14625   4.168   1.804   4.863  0.0321 -0.0826  0.2310
 3715SOL    HW214626   4.082   1.767   4.845  1.0284 -2.0395 -0.8118
 3715SOL    HW314627   4.215   1.735   4.910  1.3985  0.5241 -0.1793
 3715SOL    MW414628   4.163   1.790   4.867  0.3352  0.1800  0.2502
 3716SOL     OW14629   2.638   6.240   6.232  0.4579 -0.2239 -0.1609
 3716SOL    HW214630   2.552   6.258   6.271 -0.0388 -1.0803 -0.8217
 3716SOL    HW314631   2.693   6.215   6.306 -0.4138 -1.6133  0.0701
 3716SOL    MW414632   2.634   6.239   6.247 -0.0556  0.4931 -0.2930
 3717SOL     OW14633   4.768   6.388   5.423  0.6655 -0.5831  0.4567
 3717SOL    HW214634   4.689   6.405   5.474  0.2837  1.1883 -0.6443
 3717SOL    HW314635   4.832   6.360   5.487  0.1143  1.2850  1.9082
 3717SOL    MW414636   4.766   6.386   5.438  0.7335  0.1146 -0.1580
 3718SOL     OW14637   5.178   0.463   0.180  0.2241  0.0798 -0.1563
 3718SOL    HW214638   5.211   0.505   0.100 -1.3536 -0.7184 -1.2935
 3718SOL    HW314639   5.115   0.525   0.215  1.8890  1.0328  1.2869
 3718SOL    MW414640   5.174   0.477   0.174  0.4628 -0.1531 -0.7068
 3719SOL     OW14641   5.834   0.297   4.182  0.1428  0.3046  0.0902
 3719SOL    HW214642   5.826   0.286   4.087 -0.2872  0.0816  0.1543
 3719SOL    HW314643   5.763   0.357   4.206  0.6579  0.8936  0.1767
 3719SOL    MW414644   5.824   0.303   4.173  0.1780  0.1399 -0.1969
 3720SOL     OW14645   4.242   5.685   4.659  0.1573  0.3445  0.0916
 3720SOL    HW214646   4.282   5.635   4.730 -2.4517 -0.7365  0.9024
 3720SOL    HW314647   4.301   5.671   4.584  0.9282 -1.7454  1.0001
 3720SOL    MW414648   4.255   5.676   4.658 -0.4597 -0.2446 -0.0199
 3721SOL     OW14649   5.336   5.437   6.177  0.3306 -0.0482  0.2823
 3721SOL    HW214650   5.283   5.482   6.111  1.6595  0.1075 -0.7198
 3721SOL    HW314651   5.273   5.407   6.242 -0.7688  1.8924  0.1760
 3721SOL    MW414652   5.321   5.439   6.177  0.2706  0.3173  0.1563
 3722SOL     OW14653   4.220   5.589   2.593  0.3594  0.5375 -0.2120
 3722SOL    HW214654   4.292   5.527   2.581  0.3493  0.5515 -0.3449
 3722SOL    HW314655   4.142   5.535   2.602  0.3182  0.5397 -0.5626
 3722SOL    MW414656   4.219   5.574   2.593 -0.8449 -0.2861 -0.0124
 3723SOL     OW14657   6.249   2.470   4.164 -0.1585  0.3444 -0.2322
 3723SOL    HW214658   6.212   2.527   4.096 -1.3941  0.4925  0.5316
 3723SOL    HW314659   6.251   2.526   4.242 -1.1685 -0.5673  0.4701
 3723SOL    MW414660   6.244   2.485   4.165  0.3086  0.6769 -0.2665
 3724SOL     OW14661   1.594   1.316   5.863 -0.0637  0.2458 -0.3170
 3724SOL    HW214662   1.584   1.252   5.934  0.0099 -0.9066 -1.3218
 3724SOL    HW314663   1.686   1.344   5.869 -0.2508  0.7469  0.5002
 3724SOL    MW414664   1.605   1.312   5.873  0.6305  0.6823 -0.2913
 3725SOL     OW14665   6.295   2.434   1.063 -0.5295  0.5248  1.2124
 3725SOL    HW214666   6.333   2.446   1.150 -1.6760 -2.1805  2.1889
 3725SOL    HW314667   6.236   2.360   1.073  0.2093 -0.6696 -2.1732
 3725SOL    MW414668   6.292   2.426   1.076  0.2177 -0.6342  0.2704
 3726SOL     OW14669   4.549   5.523   6.171  0.1303 -0.3219  0.0404
 3726SOL    HW214670   4.525   5.556   6.257  1.5708  0.5461  0.1360
 3726SOL    HW314671   4.510   5.436   6.166  0.2398 -0.4781  1.6604
 3726SOL    MW414672   4.541   5.516   6.181 -0.5269 -0.3033  0.0347
 3727SOL     OW14673   3.434   3.621   5.522 -0.1872  0.0506  0.3689
 3727SOL    HW214674   3.464   3.544   5.473 -0.3048  0.6247 -0.6314
 3727SOL    HW314675   3.339   3.621   5.511 -0.2563 -0.0220  0.9270
 3727SOL    MW414676   3.425   3.611   5.514 -0.3969 -0.1943 -0.2338
 3728SOL     OW14677   0.570   2.420   1.680  0.5658 -0.0885 -0.1035
 3728SOL    HW214678   0.540   2.342   1.633 -1.5068 -0.3662  1.4966
 3728SOL    HW314679   0.612   2.474   1.613  1.3386 -2.1993 -1.4155
 3728SOL    MW414680   0.571   2.417   1.665 -0.1717 -0.4552 -0.3566
 3729SOL     OW14681   2.551   0.222   0.486 -0.0357  0.3858  0.5702
 3729SOL    HW214682   2.606   0.227   0.565  0.5132  1.0856  0.1578
 3729SOL    HW314683   2.539   0.313   0.461  0.0932  0.1516 -0.3610
 3729SOL    MW414684   2.557   0.235   0.493  0.0537 -0.3251  0.2783
 3730SOL     OW14685   0.548   4.556   4.577  0.5318 -0.3300  0.4198
 3730SOL    HW214686   0.628   4.607   4.593  0.4939 -0.5861  1.5178
 3730SOL    HW314687   0.573   4.493   4.510  1.3119 -0.5327  0.8902
 3730SOL    MW414688   0.562   4.555   4.571 -0.1404 -0.1567  0.1940
 3731SOL     OW14689   3.821   2.704   2.141  0.4877  0.0871 -0.3775
 3731SOL    HW214690   3.810   2.638   2.072 -2.5687  0.0098  0.0282
 3731SOL    HW314691   3.824   2.652   2.222  0.6002  0.3419 -0.2191
 3731SOL    MW414692   3.820   2.688   2.143  0.2978 -0.3834  0.3921
 3732SOL     OW14693   4.353   0.187   5.995 -0.0684 -0.6130 -0.1395
 3732SOL    HW214694   4.415   0.159   6.063 -0.1026  0.7992  0.5007
 3732SOL    HW314695   4.368   0.281   5.986 -0.7131 -0.6190 -1.4390
 3732SOL    MW414696   4.363   0.196   6.003  0.4241 -0.4456  0.8109
 3733SOL     OW14697   3.314   3.500   0.086  0.1145  0.0004 -0.4020
 3733SOL    HW214698   3.327   3.559   0.012 -1.8200 -0.3441 -1.0786
 3733SOL    HW314699   3.402   3.485   0.121  0.9213  1.2220 -1.8028
 3733SOL    MW414700   3.327   3.506   0.081 -0.4583  0.1550  0.5223
 3734SOL     OW14701   2.882   4.074   2.410  0.0584  0.7703 -0.0643
 3734SOL    HW214702   2.897   4.096   2.502 -0.6215  1.3793 -0.0867
 3734SOL    HW314703   2.941   4.131   2.361 -0.5745  1.4530 -0.0535
 3734SOL    MW414704   2.892   4.085   2.415  0.4045 -0.2347  0.3017
 3735SOL     OW14705   1.860   5.344   1.491  0.5663 -0.2276 -0.3110
 3735SOL    HW214706   1.896   5.341   1.580  0.2452 -0.6857 -0.1945
 3735SOL    HW314707   1.775   5.301   1.498  0.7766 -0.7643 -0.9593
 3735SOL    MW414708   1.854   5.338   1.504  0.5647 -0.2621 -0.4043
 3736SOL     OW14709   1.925   0.223   4.751 -0.0503  0.0580 -0.3004
 3736SOL    HW214710   1.999   0.241   4.692  1.1432  1.0289  1.4082
 3736SOL    HW314711   1.933   0.130   4.772  1.2634  0.3419  0.5620
 3736SOL    MW414712   1.936   0.213   4.746 -0.1324  0.6017 -0.0961
 3737SOL     OW14713   4.311   6.418   0.814 -0.0996  0.0358 -0.5857
 3737SOL    HW214714   4.394   6.409   0.860 -0.8079 -1.5235  0.5020
 3737SOL    HW314715   4.275   6.502   0.844 -0.1250 -0.5311  1.0670
 3737SOL    MW414716   4.317   6.428   0.824  0.0871  0.0450 -0.1876
 3738SOL     OW14717   2.984   0.011   0.551  0.2799 -0.0366 -0.3737
 3738SOL    HW214718   3.078   0.026   0.558  0.5594 -1.4425 -0.7050
 3738SOL    HW314719   2.970  -0.008   0.458 -0.4141  0.5882 -0.4100
 3738SOL    MW414720   2.994   0.011   0.539  0.1408 -0.4825 -0.1379
 3739SOL     OW14721   5.606   6.427   1.935 -0.2372  0.0676 -0.1811
 3739SOL    HW214722   5.692   6.412   1.976  0.8424  1.1550 -1.9187
 3739SOL    HW314723   5.591   6.521   1.945 -1.6561 -0.2336  0.8156
 3739SOL    MW414724   5.615   6.437   1.942 -0.2927 -0.1186 -0.4080
 3740SOL     OW14725   1.651   1.131   1.574  0.0447 -0.1756  0.2495
 3740SOL    HW214726   1.592   1.205   1.590  0.4132  0.1507  0.1182
 3740SOL    HW314727   1.593   1.060   1.546 -0.2718  0.1988 -0.0625
 3740SOL    MW414728   1.635   1.132   1.572  0.3291  0.2149 -0.1395
 3741SOL     OW14729   5.866   3.366   3.046 -0.2212  0.7433 -0.1952
 3741SOL    HW214730   5.937   3.323   2.998 -0.1215 -0.6332  1.1184
 3741SOL    HW314731   5.793   3.368   2.985 -0.3941 -1.8159 -0.1867
 3741SOL    MW414732   5.866   3.361   3.032 -0.4997  0.0907 -0.3156
 3742SOL     OW14733   1.783   1.974   3.695 -0.2499  0.1956 -0.0506
 3742SOL    HW214734   1.875   1.997   3.682 -0.6333  1.0196 -1.3783
 3742SOL    HW314735   1.773   1.889   3.651 -0.1210  0.0812  0.1385
 3742SOL    MW414736   1.794   1.966   3.688 -0.1345 -0.2864 -0.3809
 3743SOL     OW14737   1.172   0.073   2.179 -0.3639 -0.4539  0.0639
 3743SOL    HW214738   1.089   0.119   2.174 -0.7828 -1.3055 -2.1103
 3743SOL    HW314739   1.164   0.002   2.115  2.0641 -0.5012 -0.2885
 3743SOL    MW414740   1.160   0.070   2.170  0.7859 -0.0112  0.3149
 3744SOL     OW14741   4.840   1.523   0.228 -0.2194  0.1204 -0.1307
 3744SOL    HW214742   4.918   1.574   0.210  0.2890 -0.0344  1.4847
 3744SOL    HW314743   4.872   1.434   0.243 -0.8247 -0.1710 -0.5087
 3744SOL    MW414744   4.854   1.518   0.228 -0.0513 -0.8727 -0.0891
 3745SOL     OW14745   0.450   1.863   3.891  0.2317  0.1675  0.0767
 3745SOL    HW214746   0.380   1.869   3.825  0.6365 -0.7484 -0.4446
 3745SOL    HW314747   0.524   1.910   3.852  0.1852  0.4049  0.2703
 3745SOL    MW414748   0.450   1.870   3.877  0.3869 -0.5108 -0.2530
 3746SOL     OW14749   6.103   2.587   5.291  0.1618 -0.0576  0.1727
 3746SOL    HW214750   6.045   2.532   5.238 -0.2297  0.5275 -0.0156
 3746SOL    HW314751   6.096   2.674   5.251 -1.8532  0.9434  2.5064
 3746SOL    MW414752   6.095   2.591   5.278  0.0214  0.1266  0.1437
 3747SOL     OW14753   3.826   5.801   3.916  0.3431  0.0949  0.1230
 3747SOL    HW214754   3.835   5.707   3.907  0.1908 -0.0885  1.5445
 3747SOL    HW314755   3.916   5.834   3.914  0.2934  0.3656 -3.8051
 3747SOL    MW414756   3.839   5.793   3.915  0.4513 -0.8609 -0.1559
 3748SOL     OW14757   3.925   2.675   6.260  0.5995 -0.0347  0.1018
 3748SOL    HW214758   4.018   2.692   6.258  0.3635  1.2195 -0.5700
 3748SOL    HW314759   3.898   2.672   6.168 -0.0317 -0.3666  0.2861
 3748SOL    MW414760   3.933   2.677   6.248  0.1778 -0.1925  0.6395
 3749SOL     OW14761   3.762   5.130   0.507  0.3334 -0.5109  0.4341
 3749SOL    HW214762   3.787   5.038   0.514  0.3616 -0.6169 -0.9262
 3749SOL    HW314763   3.688   5.131   0.446 -0.0701  0.3054  0.9159
 3749SOL    MW414764   3.756   5.118   0.500 -0.1067  0.0750  0.4251
 3750SOL     OW14765   6.463   2.009   1.827  0.3339 -0.2315 -0.7791
 3750SOL    HW214766   6.368   2.015   1.830  0.4140  1.4832 -0.7182
 3750SOL    HW314767   6.483   1.924   1.868 -1.0765  0.2360  1.0169
 3750SOL    MW414768   6.453   1.998   1.833  0.2018  0.0817  0.5281
 3751SOL     OW14769   6.276   3.092   1.130  0.3740  0.3565  0.2833
 3751SOL    HW214770   6.185   3.113   1.151 -0.2284 -1.4662 -0.3383
 3751SOL    HW314771   6.286   3.116   1.038  0.1196 -0.5975 -0.0079
 3751SOL    MW414772   6.265   3.098   1.121 -0.2425  0.0845  0.0342
 3752SOL     OW14773   3.190   3.740   0.803  0.1309 -0.0726  0.8299
 3752SOL    HW214774   3.267   3.790   0.830  0.9593  0.0127 -1.4510
 3752SOL    HW314775   3.215   3.649   0.814  0.7257 -0.0514 -0.2722
 3752SOL    MW414776   3.203   3.735   0.808 -0.0409 -0.1010  0.1350
 3753SOL     OW14777   1.276   3.900   1.493  0.0294  0.0826 -0.2974
 3753SOL    HW214778   1.306   3.973   1.548  0.8620  0.8054 -1.6691
 3753SOL    HW314779   1.212   3.940   1.434  0.0678 -0.4294 -0.6886
 3753SOL    MW414780   1.271   3.915   1.492  0.2968 -0.3257  0.7390
 3754SOL     OW14781   2.170   6.232   0.549 -0.1159  0.1851 -0.4397
 3754SOL    HW214782   2.159   6.137   0.538  1.6475 -0.3175  1.3859
 3754SOL    HW314783   2.264   6.243   0.566 -0.5266  2.0673  0.9508
 3754SOL    MW414784   2.181   6.221   0.550 -0.3121  0.1772  0.3231
 3755SOL     OW14785   4.205   2.000   5.083 -0.4532 -0.3154  0.2741
 3755SOL    HW214786   4.185   1.945   5.008 -0.7734  0.5186 -0.2582
 3755SOL    HW314787   4.300   2.010   5.080 -0.5444  0.3959 -0.5085
 3755SOL    MW414788   4.215   1.994   5.073  0.1333  0.4742  0.4645
 3756SOL     OW14789   0.056   4.211   5.710 -0.3175  0.2835  0.7972
 3756SOL    HW214790   0.024   4.166   5.788  1.0766 -0.5002  0.9444
 3756SOL    HW314791   0.149   4.226   5.727 -0.4128  1.8849  0.1030
 3756SOL    MW414792   0.064   4.207   5.723 -0.2651  0.7152  0.8000
 3757SOL     OW14793   3.692   1.603   0.245  0.8466 -0.4845  0.1698
 3757SOL    HW214794   3.749   1.526   0.249  1.2794 -0.1564  0.4370
 3757SOL    HW314795   3.740   1.665   0.190  0.7256 -0.2228  0.3594
 3757SOL    MW414796   3.706   1.601   0.238  0.1335 -0.1623 -0.1711
 3758SOL     OW14797   0.364   5.127   3.636  0.5549  0.4498  0.1549
 3758SOL    HW214798   0.351   5.206   3.688  0.0268  1.8375 -1.9667
 3758SOL    HW314799   0.357   5.156   3.545  0.6646 -1.9945 -0.7171
 3758SOL    MW414800   0.361   5.141   3.631  0.0174  0.3202 -0.0014
 3759SOL     OW14801   5.325   4.232   5.479  0.4009  0.3635  0.0314
 3759SOL    HW214802   5.324   4.151   5.427 -2.4678  0.4915 -0.2992
 3759SOL    HW314803   5.308   4.301   5.415  0.7039  0.9881  0.6190
 3759SOL    MW414804   5.322   4.230   5.464 -0.2884 -0.0905 -0.2634
 3760SOL     OW14805   4.663   0.033   1.217 -0.0801 -0.3694 -0.4783
 3760SOL    HW214806   4.730   0.065   1.276 -0.3742  0.2152 -0.4531
 3760SOL    HW314807   4.588   0.091   1.232 -0.5598 -0.9448 -0.5747
 3760SOL    MW414808   4.662   0.045   1.227  0.1984  0.0514  0.6682
 3761SOL     OW14809   4.179   2.615   6.131 -0.2403  0.2115 -0.1430
 3761SOL    HW214810   4.148   2.617   6.041  0.0868  0.1206 -0.2604
 3761SOL    HW314811   4.181   2.522   6.153 -0.6838  0.2535  0.0877
 3761SOL    MW414812   4.175   2.603   6.122 -0.3469  0.0678 -0.1659
 3762SOL     OW14813   4.218   2.590   2.428 -0.5395 -0.0276 -0.1772
 3762SOL    HW214814   4.158   2.520   2.400  0.1728 -0.5541 -0.4272
 3762SOL    HW314815   4.269   2.610   2.349  0.6141 -0.6208  0.4031
 3762SOL    MW414816   4.216   2.583   2.414 -0.5263  0.0964 -0.0540
 3763SOL     OW14817   3.637   4.715   5.917 -0.1628 -0.2208 -0.1212
 3763SOL    HW214818   3.698   4.656   5.873  1.6206  0.4115  1.4133
 3763SOL    HW314819   3.688   4.792   5.940 -1.4248  0.1703  1.5854
 3763SOL    MW414820   3.652   4.717   5.914  0.3943  0.7590  0.4316
 3764SOL     OW14821   6.391   0.211   1.010  0.3210  0.1610 -0.4468
 3764SOL    HW214822   6.297   0.225   1.006  0.3788  0.4893 -0.6636
 3764SOL    HW314823   6.402   0.138   1.071 -0.1599 -0.7089 -1.3558
 3764SOL    MW414824   6.380   0.203   1.017  0.1725  0.0534 -0.5192
 3765SOL     OW14825   0.304   4.507   4.288 -0.3120 -0.4336  0.4824
 3765SOL    HW214826   0.235   4.519   4.222 -0.8091  0.0453  1.0813
 3765SOL    HW314827   0.367   4.449   4.246 -1.2223 -1.1140  0.0210
 3765SOL    MW414828   0.303   4.501   4.274  0.0668 -0.1045 -0.1980
 3766SOL     OW14829   1.780   0.027   2.248 -0.5833  0.1296 -0.7921
 3766SOL    HW214830   1.754   0.011   2.158 -1.5270  1.2013 -0.7442
 3766SOL    HW314831   1.867   0.067   2.242 -0.3367 -0.4632 -1.1754
 3766SOL    MW414832   1.788   0.030   2.235 -0.1098 -0.4048  0.0030
 3767SOL     OW14833   0.258   1.662   3.243  0.7591  0.1144 -0.0576
 3767SOL    HW214834   0.261   1.746   3.290  1.2938  0.1380 -0.1304
 3767SOL    HW314835   0.204   1.606   3.298 -1.5970  1.1884 -1.1127
 3767SOL    MW414836   0.251   1.666   3.256  0.0362 -0.1276 -0.7270
 3768SOL     OW14837   4.275   4.789   6.033 -0.1470  0.4263  0.1172
 3768SOL    HW214838   4.347   4.727   6.045  0.4880  1.1286  0.0002
 3768SOL    HW314839   4.209   4.761   6.096 -0.0192 -0.5837 -0.1754
 3768SOL    MW414840   4.276   4.777   6.043 -0.2316 -0.0511 -0.4896
 3769SOL     OW14841   4.889   4.188   5.408 -0.6417  0.3290  0.8089
 3769SOL    HW214842   4.945   4.147   5.342  0.3711  0.2184  1.7052
 3769SOL    HW314843   4.886   4.280   5.383 -1.8907 -0.0281 -0.4921
 3769SOL    MW414844   4.896   4.194   5.396  0.6858 -0.0539 -0.6733
 3770SOL     OW14845   2.710   0.753   1.540 -0.4945  0.4636  0.1285
 3770SOL    HW214846   2.762   0.825   1.505 -0.9114  0.9271  0.4550
 3770SOL    HW314847   2.619   0.782   1.531 -0.6766 -0.1463 -0.0123
 3770SOL    MW414848   2.705   0.766   1.534  0.0856 -0.1512 -0.1925
 3771SOL     OW14849   5.912   3.612   4.572  0.0681  0.6585 -0.0663
 3771SOL    HW214850   5.839   3.637   4.630 -0.8201 -1.0123 -0.3912
 3771SOL    HW314851   5.873   3.613   4.484  0.6589  0.4730 -0.3298
 3771SOL    MW414852   5.897   3.616   4.568  0.3842  0.0730  0.1227
 3772SOL     OW14853   5.531   1.841   0.145  0.1981  0.8634 -0.5264
 3772SOL    HW214854   5.573   1.895   0.079 -0.4537  0.4860 -1.2724
 3772SOL    HW314855   5.573   1.865   0.227  2.3522  0.0191 -1.3131
 3772SOL    MW414856   5.542   1.851   0.147 -0.6347 -0.4180 -0.0190
 3773SOL     OW14857   1.888   0.957   2.434  0.4625 -0.1140 -0.0020
 3773SOL    HW214858   1.937   1.039   2.432  0.8312 -0.3424 -0.8165
 3773SOL    HW314859   1.890   0.926   2.344  0.7757 -1.2820  0.3905
 3773SOL    MW414860   1.895   0.964   2.422 -0.3337 -0.2437  0.3024
 3774SOL     OW14861   6.259   3.371   1.509 -0.3547  0.0844  0.1740
 3774SOL    HW214862   6.227   3.445   1.457 -1.6749 -0.1941  0.5594
 3774SOL    HW314863   6.329   3.333   1.455 -0.1924  1.1240 -0.3832
 3774SOL    MW414864   6.264   3.376   1.495  0.2430  0.1640  0.2833
 3775SOL     OW14865   3.973   2.809   0.436 -0.0921  0.8217 -0.1523
 3775SOL    HW214866   4.028   2.772   0.505 -0.7457  0.2103  0.0474
 3775SOL    HW314867   3.917   2.872   0.481  0.2262  1.2196 -0.3069
 3775SOL    MW414868   3.973   2.812   0.451 -0.1363 -0.4348  0.0386
 3776SOL     OW14869   1.506   1.973   1.605  0.0046  0.8137  0.3567
 3776SOL    HW214870   1.421   2.018   1.603 -0.9442 -0.8778  0.4167
 3776SOL    HW314871   1.540   1.982   1.516 -0.1540  1.6341  0.3688
 3776SOL    MW414872   1.499   1.980   1.593 -0.0294 -0.1781  0.4262
 3777SOL     OW14873   3.488   1.193   1.148 -0.1551 -0.2232  0.5298
 3777SOL    HW214874   3.549   1.266   1.161 -0.5585  0.2177 -0.0094
 3777SOL    HW314875   3.538   1.115   1.175  1.3336 -0.1115 -1.6379
 3777SOL    MW414876   3.503   1.192   1.153  0.0181  0.2746  0.2037
 3778SOL     OW14877   2.224   4.160   5.573 -0.3700 -0.7446  0.7885
 3778SOL    HW214878   2.309   4.167   5.617  1.0569 -0.1641 -1.8504
 3778SOL    HW314879   2.187   4.248   5.580  0.2093 -0.4466  0.1640
 3778SOL    MW414880   2.231   4.173   5.580 -0.0644 -0.7279  1.2118
 3779SOL     OW14881   0.282   2.709   1.572 -0.1193 -0.5415 -0.0611
 3779SOL    HW214882   0.284   2.651   1.648 -2.1012 -0.8668 -0.2027
 3779SOL    HW314883   0.329   2.660   1.504  2.3427  0.0695  1.0773
 3779SOL    MW414884   0.288   2.695   1.573  0.1206 -0.8277  0.4394
 3780SOL     OW14885   1.701   1.528   3.791 -0.7005 -0.2446 -0.1389
 3780SOL    HW214886   1.711   1.451   3.847  1.3970  0.8283  1.0885
 3780SOL    HW314887   1.659   1.593   3.846 -1.5749 -0.1715 -0.8681
 3780SOL    MW414888   1.697   1.526   3.805  0.0006  0.5195 -0.2070
 3781SOL     OW14889   4.749   1.703   6.156  0.0013 -0.2743 -0.3299
 3781SOL    HW214890   4.780   1.637   6.094 -1.4267  0.6465 -2.1444
 3781SOL    HW314891   4.723   1.777   6.100 -1.5870  0.5121  1.3444
 3781SOL    MW414892   4.749   1.704   6.140  0.5339 -1.2595  0.3021
 3782SOL     OW14893   5.451   6.045   0.468  0.0920  0.2216 -0.5414
 3782SOL    HW214894   5.495   6.127   0.490  1.2036 -0.3341 -0.6386
 3782SOL    HW314895   5.364   6.072   0.438  0.0087  1.2676  0.5862
 3782SOL    MW414896   5.445   6.060   0.467 -0.3824  0.8681 -0.1960
 3783SOL     OW14897   3.720   2.855   3.044 -0.3335 -0.1496 -0.6507
 3783SOL    HW214898   3.687   2.815   2.963 -0.7381 -0.0344 -0.5470
 3783SOL    HW314899   3.642   2.889   3.087 -0.0814  0.0699 -0.3628
 3783SOL    MW414900   3.705   2.854   3.039 -0.0076  0.0320  0.1234
 3784SOL     OW14901   4.873   5.458   5.414 -0.1203  0.1975  0.1581
 3784SOL    HW214902   4.857   5.541   5.371 -0.6255 -0.1750 -0.3888
 3784SOL    HW314903   4.821   5.462   5.494  1.1434  1.0564  0.9635
 3784SOL    MW414904   4.864   5.469   5.419  0.4372 -0.1765  0.1240
 3785SOL     OW14905   5.369   2.600   4.953  0.3697 -0.3983  0.2390
 3785SOL    HW214906   5.291   2.565   4.995  1.1151 -0.0940  1.9361
 3785SOL    HW314907   5.341   2.622   4.864 -1.7362  0.7137  1.1349
 3785SOL    MW414908   5.355   2.598   4.947 -0.6826  0.3300  0.3193
 3786SOL     OW14909   5.199   3.225   6.035 -0.1275  0.3194 -0.2521
 3786SOL    HW214910   5.219   3.315   6.008 -0.3243  0.5902  0.4668
 3786SOL    HW314911   5.221   3.223   6.128 -1.0997 -0.0868 -0.0265
 3786SOL    MW414912   5.205   3.237   6.044 -0.3176 -0.4827 -0.1600
 3787SOL     OW14913   0.660   5.630   5.672  0.3464 -0.1925  0.4830
 3787SOL    HW214914   0.619   5.700   5.722  0.2686 -0.2321  0.4741
 3787SOL    HW314915   0.620   5.550   5.704 -1.2277 -0.0810 -1.0675
 3787SOL    MW414916   0.649   5.629   5.682  0.1099  0.2498 -0.3517
 3788SOL     OW14917   5.520   3.887   4.843 -0.3552  0.0142 -0.3227
 3788SOL    HW214918   5.453   3.841   4.793  0.7156  0.1173 -1.9494
 3788SOL    HW314919   5.503   3.979   4.827  1.2354  0.0349 -2.3700
 3788SOL    MW414920   5.509   3.893   4.834 -0.2562 -0.7674 -0.0233
 3789SOL     OW14921   2.594   4.705   1.996  0.5721  0.3889 -0.1433
 3789SOL    HW214922   2.613   4.731   2.086 -0.0156 -0.1559  0.1524
 3789SOL    HW314923   2.597   4.609   1.998 -1.3587  0.2838 -0.2295
 3789SOL    MW414924   2.597   4.695   2.009  0.0443 -0.2456 -0.3906
 3790SOL     OW14925   4.874   4.122   1.072  0.0217  0.3830 -0.6923
 3790SOL    HW214926   4.930   4.172   1.013  0.5194 -0.2528 -0.7683
 3790SOL    HW314927   4.790   4.118   1.027 -0.2236  1.6764 -0.4025
 3790SOL    MW414928   4.870   4.128   1.059 -0.5233  0.1445  0.0244
 3791SOL     OW14929   4.383   5.568   4.419  0.5952  0.2858 -0.4293
 3791SOL    HW214930   4.327   5.503   4.377  1.0008  0.8779 -1.9402
 3791SOL    HW314931   4.469   5.526   4.423  0.8205  0.6513 -1.2608
 3791SOL    MW414932   4.387   5.554   4.414  0.4648  0.3213 -0.0618
 3792SOL     OW14933   5.089   2.711   0.134 -0.0783 -0.2274 -0.4160
 3792SOL    HW214934   5.019   2.730   0.072 -1.1170 -0.3833  0.6556
 3792SOL    HW314935   5.080   2.778   0.202  2.5092  1.3877 -1.5338
 3792SOL    MW414936   5.078   2.722   0.135  0.0020 -0.4606  0.0555
 3793SOL     OW14937   0.981   4.118   2.789  0.1033 -0.0253  0.4285
 3793SOL    HW214938   0.921   4.190   2.807  0.0115 -0.0992  0.4241
 3793SOL    HW314939   1.025   4.103   2.873  0.1311  0.0444  0.4262
 3793SOL    MW414940   0.979   4.125   2.803  0.3482  0.3032  0.0080
 3794SOL     OW14941   4.785   6.335   4.242 -0.3466 -0.2951  0.3664
 3794SOL    HW214942   4.822   6.422   4.233  0.2951 -0.6994 -1.5883
 3794SOL    HW314943   4.690   6.348   4.232 -0.1519  0.0740 -1.5204
 3794SOL    MW414944   4.777   6.348   4.239  0.2096 -0.2076 -0.3781
 3795SOL     OW14945   4.020   5.373   2.265  0.8768 -0.2150  0.0090
 3795SOL    HW214946   4.043   5.446   2.207  0.6831 -0.9868 -1.0798
 3795SOL    HW314947   3.925   5.370   2.262  0.7479  0.8533  1.8246
 3795SOL    MW414948   4.011   5.382   2.257  0.4454  0.0936 -0.0823
 3796SOL     OW14949   2.227   2.050   3.880 -0.0280 -0.5187  0.0089
 3796SOL    HW214950   2.308   2.019   3.919 -0.6532 -0.1017  1.7262
 3796SOL    HW314951   2.238   2.144   3.871  0.8461 -0.8019 -2.7280
 3796SOL    MW414952   2.239   2.058   3.884  0.5464 -0.0728  0.1511
 3797SOL     OW14953   2.592   3.722   2.513  0.2932  0.4935 -0.3092
 3797SOL    HW214954   2.684   3.698   2.514  0.5426  1.0514 -2.7214
 3797SOL    HW314955   2.590   3.810   2.475 -1.1913  0.8006  0.3850
 3797SOL    MW414956   2.604   3.731   2.508  0.2172  0.3293 -0.2134
 3798SOL     OW14957   2.351   5.042   0.245 -0.2983 -0.2408  0.1204
 3798SOL    HW214958   2.438   5.017   0.211 -0.4196  0.6620 -0.8807
 3798SOL    HW314959   2.357   5.025   0.339  0.8737 -0.4509  0.0260
 3798SOL    MW414960   2.364   5.036   0.253 -0.0258 -0.1095 -0.3614
 3799SOL     OW14961   5.876   3.370   5.911  0.3306 -0.4152  0.3947
 3799SOL    HW214962   5.889   3.279   5.885 -1.8045 -0.4776 -0.6664
 3799SOL    HW314963   5.787   3.374   5.944  0.2077  1.3740 -0.0121
 3799SOL    MW414964   5.866   3.359   5.912 -1.0107  0.3700  0.3011
 3800SOL     OW14965   0.314   5.352   2.442  0.0921  0.5690  0.0981
 3800SOL    HW214966   0.376   5.421   2.418 -0.9224  1.5635  0.2864
 3800SOL    HW314967   0.299   5.304   2.361  0.7174  0.6291 -0.0577
 3800SOL    MW414968   0.320   5.355   2.428  0.0360  0.0375  0.1505
 3801SOL     OW14969   0.086   1.958   1.454  0.1913  0.3507 -0.2541
 3801SOL    HW214970   0.160   1.957   1.393  0.8906  2.3243  0.4809
 3801SOL    HW314971   0.112   1.898   1.524  0.8349  0.5786 -0.2934
 3801SOL    MW414972   0.099   1.950   1.455 -0.5731 -0.2703 -0.6599
 3802SOL     OW14973   2.140   3.727   4.717  0.3955  0.4791 -0.0864
 3802SOL    HW214974   2.135   3.821   4.702  1.1461  0.2789 -1.8347
 3802SOL    HW314975   2.143   3.718   4.812 -0.6667  2.1441  0.1529
 3802SOL    MW414976   2.140   3.738   4.728  0.5323 -0.3233 -0.5482
 3803SOL     OW14977   5.388   0.420   0.719 -0.4885 -0.4965 -0.4497
 3803SOL    HW214978   5.447   0.398   0.647 -0.4991  0.6641 -0.8447
 3803SOL    HW314979   5.447   0.450   0.789 -0.5832  0.5611 -0.8068
 3803SOL    MW414980   5.404   0.421   0.719  0.1457 -0.3056 -0.0806
 3804SOL     OW14981   0.677   6.020   6.101  0.2975  0.3619  0.0913
 3804SOL    HW214982   0.682   5.926   6.118 -0.9836 -0.0042 -1.3662
 3804SOL    HW314983   0.604   6.050   6.155 -1.8469 -0.2607 -2.2731
 3804SOL    MW414984   0.668   6.011   6.111 -0.0088 -0.0887 -0.2321
 3805SOL     OW14985   3.878   0.731   0.241  0.0689  0.3917  0.1413
 3805SOL    HW214986   3.832   0.653   0.272 -0.7984  0.4147 -1.0115
 3805SOL    HW314987   3.958   0.698   0.200  0.1703  0.1863  0.5082
 3805SOL    MW414988   3.882   0.717   0.239  0.5255 -0.1087  0.3064
 3806SOL     OW14989   3.878   0.830   2.989  0.0383  0.2901  0.2253
 3806SOL    HW214990   3.912   0.741   2.980  1.4543  0.9483 -1.7143
 3806SOL    HW314991   3.788   0.824   2.958 -0.1111 -0.5822  0.7869
 3806SOL    MW414992   3.871   0.817   2.984  0.1406 -0.1892 -0.4201
 3807SOL     OW14993   5.752   1.565   4.823 -0.0051 -0.0467 -0.3846
 3807SOL    HW214994   5.700   1.500   4.775  1.1325 -2.3782  1.3120
 3807SOL    HW314995   5.703   1.580   4.904 -0.1823  1.1186 -0.7013
 3807SOL    MW414996   5.739   1.558   4.828  0.4071  0.0174  0.1157
 3808SOL     OW14997   4.151   0.276   5.838 -0.0557 -0.1162  0.0809
 3808SOL    HW214998   4.094   0.199   5.828  0.2361 -0.3106 -0.0769
 3808SOL    HW314999   4.230   0.242   5.879  0.4727 -0.0758 -0.8734
 3808SOL    MW415000   4.154   0.261   5.842  0.4614  0.4825  0.2363
 3809SOL     OW15001   3.987   5.616   5.282  0.1097  0.2891 -1.2974
 3809SOL    HW215002   4.036   5.673   5.223 -1.2372  0.8418 -1.9464
 3809SOL    HW315003   3.899   5.654   5.282 -0.4179 -0.8995 -0.5088
 3809SOL    MW415004   3.982   5.628   5.274  0.1557  0.3556 -0.1877
 3810SOL     OW15005   2.523   6.012   1.873 -0.1093  0.2188  0.2690
 3810SOL    HW215006   2.538   6.105   1.888 -0.1097  0.1005  1.0389
 3810SOL    HW315007   2.554   5.969   1.953 -1.8183 -0.2731  0.7201
 3810SOL    MW415008   2.529   6.019   1.886  0.3997  0.0677 -0.0550
 3811SOL     OW15009   4.752   1.293   5.050  0.0314  0.3250 -0.2415
 3811SOL    HW215010   4.825   1.327   4.999 -0.3401  1.1372 -0.2386
 3811SOL    HW315011   4.693   1.255   4.984  1.1399 -1.7456 -0.1423
 3811SOL    MW415012   4.754   1.292   5.035 -0.0769 -0.3759  0.0396
 3812SOL     OW15013   5.031   1.067   6.023  0.5498  0.5424 -0.1903
 3812SOL    HW215014   5.082   1.088   5.945  0.5505  0.0842 -0.3150
 3812SOL    HW315015   4.939   1.073   5.995  0.5443 -1.2031 -0.6732
 3812SOL    MW415016   5.025   1.070   6.009  1.0880  0.2264 -0.8890
 3813SOL     OW15017   3.672   5.687   0.803 -0.1189  0.4294  0.1563
 3813SOL    HW215018   3.653   5.625   0.873 -0.0106  0.1299 -0.0813
 3813SOL    HW315019   3.660   5.637   0.722 -0.8320  0.9287 -0.0579
 3813SOL    MW415020   3.668   5.672   0.802 -0.1789 -0.0937  0.2692
 3814SOL     OW15021   5.046   2.072   1.750  0.5705 -0.1237  0.3605
 3814SOL    HW215022   4.963   2.050   1.791  0.4171  0.9231  0.6370
 3814SOL    HW315023   5.030   2.063   1.657  0.2679 -0.3300  0.4307
 3814SOL    MW415024   5.033   2.068   1.743  0.3219 -0.1939 -0.1055
 3815SOL     OW15025   2.230   3.592   1.029 -0.2737 -0.2583  0.1740
 3815SOL    HW215026   2.151   3.582   1.083 -1.0567  0.6587 -0.7616
 3815SOL    HW315027   2.196   3.599   0.940  0.9555 -0.9951 -0.3698
 3815SOL    MW415028   2.215   3.591   1.024 -0.1703 -0.3696 -0.2029
 3816SOL     OW15029   0.398   4.515   5.569  0.1633  0.4755 -0.3521
 3816SOL    HW215030   0.395   4.486   5.661 -1.8002 -0.4235 -0.6548
 3816SOL    HW315031   0.335   4.587   5.565  0.5153  0.7549 -0.9415
 3816SOL    MW415032   0.389   4.521   5.581 -0.5974  0.3063  0.1941
 3817SOL     OW15033   6.428   3.655   5.293  0.5242  0.0806  0.4772
 3817SOL    HW215034   6.397   3.601   5.220 -0.5498  2.6845 -1.1537
 3817SOL    HW315035   6.491   3.600   5.339 -1.4421 -3.0067 -0.2150
 3817SOL    MW415036   6.432   3.641   5.290  0.0154 -0.3455  0.6533
 3818SOL     OW15037   4.513   1.877   2.570  0.0591  0.0539 -0.0161
 3818SOL    HW215038   4.597   1.897   2.611  0.4570 -0.2737 -0.6489
 3818SOL    HW315039   4.505   1.782   2.578 -0.7580  0.1872  0.9787
 3818SOL    MW415040   4.523   1.867   2.576  1.0023 -0.2598  0.1102
 3819SOL     OW15041   2.547   0.525   5.059 -0.3852  0.5089 -0.0419
 3819SOL    HW215042   2.640   0.548   5.058 -0.2153  0.1766  2.2936
 3819SOL    HW315043   2.507   0.583   4.993  1.5116  0.2858 -1.4786
 3819SOL    MW415044   2.554   0.536   5.050 -0.5907 -0.1003  0.2093
 3820SOL     OW15045   2.137   4.800   0.531  0.1286 -0.1482 -0.2481
 3820SOL    HW215046   2.144   4.706   0.543 -0.9295 -0.1307  0.6757
 3820SOL    HW315047   2.083   4.811   0.453 -0.6705 -0.3279  0.2681
 3820SOL    MW415048   2.131   4.789   0.522  0.1491 -0.0057 -0.7202
 3821SOL     OW15049   3.477   0.340   5.426  0.5378  0.5388 -0.4220
 3821SOL    HW215050   3.528   0.262   5.450  2.1125  1.5108 -0.4322
 3821SOL    HW315051   3.431   0.364   5.505  0.0819 -0.3568 -0.3995
 3821SOL    MW415052   3.478   0.333   5.439  0.2268 -0.9118 -0.7893
 3822SOL     OW15053   2.344   2.502   5.392 -0.2056  0.1367  0.4357
 3822SOL    HW215054   2.433   2.468   5.401 -0.6073 -1.6641 -1.6053
 3822SOL    HW315055   2.353   2.583   5.343  0.3403  0.2957  0.7914
 3822SOL    MW415056   2.357   2.508   5.387 -0.5478 -0.1314  0.3209
 3823SOL     OW15057   1.892   1.918   4.924  0.2838  0.0313 -0.4335
 3823SOL    HW215058   1.878   1.995   4.868  1.3230 -0.2745 -1.1499
 3823SOL    HW315059   1.931   1.853   4.865  0.6645 -0.5805  0.4776
 3823SOL    MW415060   1.895   1.919   4.909  0.3708  0.1293  0.4533
 3824SOL     OW15061   0.692   2.910   6.307  0.0833 -0.0979 -0.1118
 3824SOL    HW215062   0.693   2.831   6.360 -0.3742  0.5549  0.8968
 3824SOL    HW315063   0.785   2.929   6.291  0.2705  0.1014  1.1035
 3824SOL    MW415064   0.705   2.902   6.312  0.3672  0.0437 -0.3905
 3825SOL     OW15065   1.594   6.241   4.542  0.0639 -0.3712 -0.3710
 3825SOL    HW215066   1.588   6.163   4.488 -3.0553 -1.4046  1.1747
 3825SOL    HW315067   1.606   6.208   4.631  1.3602  1.0939  0.0552
 3825SOL    MW415068   1.595   6.226   4.547 -0.1347 -0.1929  0.1988
 3826SOL     OW15069   5.964   6.298   5.557  0.2135  0.1601  0.6417
 3826SOL    HW215070   5.925   6.340   5.633 -1.0022 -1.0948  0.7533
 3826SOL    HW315071   6.057   6.288   5.579  0.0740  0.7460  1.5189
 3826SOL    MW415072   5.971   6.302   5.570  0.0373  0.0742 -0.6855
 3827SOL     OW15073   5.692   4.649   1.620  0.0810  0.2746  0.4310
 3827SOL    HW215074   5.607   4.605   1.624  0.5697 -0.6118  2.4320
 3827SOL    HW315075   5.754   4.585   1.657  1.4649  1.2330 -0.1536
 3827SOL    MW415076   5.689   4.634   1.625  0.4466 -0.5210  0.0278
 3828SOL     OW15077   1.713   4.112   1.077 -0.1704 -0.2152 -0.4302
 3828SOL    HW215078   1.630   4.074   1.105 -0.4553  0.1105 -0.8150
 3828SOL    HW315079   1.772   4.097   1.150 -0.4273 -0.8988 -0.3543
 3828SOL    MW415080   1.710   4.105   1.090  0.3005 -0.3601  0.0890
 3829SOL     OW15081   5.700   1.457   4.202  0.2330 -0.0424  0.2058
 3829SOL    HW215082   5.769   1.466   4.136  1.2213 -1.0363  1.0649
 3829SOL    HW315083   5.689   1.546   4.237 -0.0910  0.4380 -1.0645
 3829SOL    MW415084   5.708   1.470   4.198 -0.4598  0.9510 -0.4935
 3830SOL     OW15085   0.411   4.870   1.615  0.0131  0.6423  0.1931
 3830SOL    HW215086   0.384   4.793   1.667  0.4092  1.0466  1.0157
 3830SOL    HW315087   0.338   4.884   1.555 -0.2827 -0.0895  0.3617
 3830SOL    MW415088   0.398   4.861   1.614  0.3217 -0.0472  0.6947
 3831SOL     OW15089   1.743   3.750   2.827 -0.0762 -0.1542  0.1245
 3831SOL    HW215090   1.830   3.787   2.841 -0.1939 -0.0196  0.5012
 3831SOL    HW315091   1.684   3.825   2.830 -0.1294 -0.1424 -0.9033
 3831SOL    MW415092   1.746   3.765   2.829 -0.0012  0.2060 -0.3813
 3832SOL     OW15093   2.441   5.662   4.892  0.2510  0.2846  0.1177
 3832SOL    HW215094   2.394   5.639   4.972 -0.1531  1.5122  0.2503
 3832SOL    HW315095   2.493   5.739   4.915  0.8797  0.0714 -0.5450
 3832SOL    MW415096   2.442   5.669   4.905  0.2123 -0.6454 -0.2360
 3833SOL     OW15097   4.766   1.002   2.564  0.0454  0.1278  0.0545
 3833SOL    HW215098   4.818   0.964   2.493 -0.5551  0.4996 -0.5930
 3833SOL    HW315099   4.824   0.999   2.640  0.0386 -2.0632  0.0401
 3833SOL    MW415100   4.781   0.996   2.565  0.0164 -0.3375 -0.4707
 3834SOL     OW15101   4.857   1.996   4.966  0.0393  0.0864  0.0953
 3834SOL    HW215102   4.814   1.926   4.919 -1.0722  1.1390 -0.4986
 3834SOL    HW315103   4.828   1.985   5.057  0.6001 -0.7496  0.1836
 3834SOL    MW415104   4.848   1.985   4.972 -0.7510 -0.0856  0.8689
 3835SOL     OW15105   3.258   2.268   1.649 -0.5060 -0.2798  0.6653
 3835SOL    HW215106   3.343   2.244   1.612 -1.4094 -0.6069 -1.3006
 3835SOL    HW315107   3.280   2.317   1.728  1.5702  1.3921 -0.8428
 3835SOL    MW415108   3.272   2.271   1.655 -0.0994 -0.1393  0.2053
 3836SOL     OW15109   4.536   0.302   0.606  0.5067 -0.0802 -0.0651
 3836SOL    HW215110   4.457   0.252   0.585  1.1085 -1.0967  0.0343
 3836SOL    HW315111   4.594   0.288   0.531  0.7923  0.2457  0.0910
 3836SOL    MW415112   4.533   0.294   0.593  0.4723  0.4393  0.0324
 3837SOL     OW15113   3.988   0.055   1.022  0.1771 -0.1956 -0.3578
 3837SOL    HW215114   3.996   0.082   0.931  0.9255  0.9470  0.0325
 3837SOL    HW315115   3.999   0.135   1.073  0.8890 -0.9744  0.7740
 3837SOL    MW415116   3.991   0.069   1.017  0.0804 -0.2197 -0.1221
 3838SOL     OW15117   4.329   1.762   3.168 -0.0612  0.2284  0.0037
 3838SOL    HW215118   4.374   1.696   3.116 -1.4514 -1.3815  0.7269
 3838SOL    HW315119   4.272   1.808   3.106 -0.0499 -0.1523 -0.2909
 3838SOL    MW415120   4.327   1.760   3.153  0.2342  0.1525 -0.3037
 3839SOL     OW15121   5.863   5.856   4.962  0.1263  0.0190 -0.1232
 3839SOL    HW215122   5.853   5.769   4.999 -1.7976 -0.5288 -1.7614
 3839SOL    HW315123   5.879   5.913   5.038  0.2963 -1.5736  1.0780
 3839SOL    MW415124   5.864   5.852   4.977 -0.6698  0.0204 -0.1394
 3840SOL     OW15125   2.880   2.605   5.127  0.0371  0.5481  0.2616
 3840SOL    HW215126   2.917   2.647   5.050  0.1473 -1.0173 -0.5864
 3840SOL    HW315127   2.820   2.670   5.164  0.4032  1.5318 -0.8057
 3840SOL    MW415128   2.877   2.619   5.122  0.2715  0.2452  0.0742
 3841SOL     OW15129   1.188   0.611   0.598  0.1769  0.2657  0.2696
 3841SOL    HW215130   1.218   0.521   0.607  0.3316  0.2837 -0.0666
 3841SOL    HW315131   1.268   0.662   0.587  0.1622  0.5670  1.3960
 3841SOL    MW415132   1.203   0.606   0.598 -0.1557 -0.1542  0.2507
 3842SOL     OW15133   1.430   5.053   4.382  0.2516  0.9768  0.3511
 3842SOL    HW215134   1.393   5.122   4.437 -1.1484  0.8914 -0.4479
 3842SOL    HW315135   1.456   4.984   4.444 -2.1051  0.4975  0.8977
 3842SOL    MW415136   1.429   5.053   4.397 -0.4239  0.1266  0.2671
 3843SOL     OW15137   0.616   2.747   4.430 -0.3691  0.0988  0.7379
 3843SOL    HW215138   0.641   2.684   4.497 -0.8417 -1.1919 -0.2592
 3843SOL    HW315139   0.640   2.706   4.348 -0.3661  1.3874  0.0659
 3843SOL    MW415140   0.622   2.734   4.428  0.3317  0.1270  0.0265
 3844SOL     OW15141   6.168   0.814   4.664  0.1434  0.3085  0.3598
 3844SOL    HW215142   6.142   0.734   4.710  1.8971 -0.0979  0.7317
 3844SOL    HW315143   6.093   0.836   4.609 -0.8598 -0.8719  1.2001
 3844SOL    MW415144   6.155   0.807   4.663  0.4507  0.0581 -0.1378
 3845SOL     OW15145   5.806   6.054   0.881 -0.4414 -0.3362 -0.0484
 3845SOL    HW215146   5.790   5.979   0.938 -2.2312 -0.1720 -0.2810
 3845SOL    HW315147   5.780   6.025   0.794  2.2181 -0.5664 -0.8447
 3845SOL    MW415148   5.801   6.041   0.877  0.5022  0.2240  0.2849
 3846SOL     OW15149   0.135   4.830   0.948 -0.9066 -0.1939 -0.6427
 3846SOL    HW215150   0.231   4.839   0.948 -0.9362  0.1409 -1.1331
 3846SOL    HW315151   0.118   4.762   1.013 -0.4023  0.4780  0.2142
 3846SOL    MW415152   0.146   4.822   0.956 -0.0977 -0.3064 -0.0486
 3847SOL     OW15153   5.960   5.056   4.659 -0.1327 -0.1070  0.0456
 3847SOL    HW215154   5.869   5.040   4.685 -0.0818  0.4360  0.5852
 3847SOL    HW315155   5.954   5.114   4.583 -0.2197  1.4518  1.1947
 3847SOL    MW415156   5.947   5.061   4.653 -0.2375  0.1554 -0.7311
 3848SOL     OW15157   4.121   2.192   5.251  0.0827 -0.4252 -0.1197
 3848SOL    HW215158   4.152   2.139   5.324  2.0396 -0.2825 -0.8037
 3848SOL    HW315159   4.106   2.130   5.180 -0.6702 -0.4232  0.0329
 3848SOL    MW415160   4.123   2.177   5.251  0.0222  0.4745 -0.6018
 3849SOL     OW15161   4.887   3.009   6.227 -0.1929  0.1782  0.2204
 3849SOL    HW215162   4.904   2.919   6.257 -1.7934 -0.6363 -1.1517
 3849SOL    HW315163   4.796   3.026   6.253  0.0213  1.3218  0.2538
 3849SOL    MW415164   4.877   2.999   6.234  0.0510 -0.2422 -0.4996
 3850SOL     OW15165   4.061   2.428   3.981  0.1711 -0.4671  0.2116
 3850SOL    HW215166   4.128   2.406   3.916  0.0098  1.1417 -0.5535
 3850SOL    HW315167   4.097   2.397   4.064  1.2768 -0.8032 -0.3723
 3850SOL    MW415168   4.075   2.421   3.983 -0.1274  0.1111 -0.1402
 3851SOL     OW15169   2.246   1.539   3.780 -0.1539  0.0251  0.4602
 3851SOL    HW215170   2.271   1.447   3.771 -2.8570 -0.6300 -1.7878
 3851SOL    HW315171   2.173   1.550   3.720  0.3418  3.8056  0.3074
 3851SOL    MW415172   2.240   1.528   3.771 -0.5543  0.1435 -0.0565
 3852SOL     OW15173   6.256   6.044   2.283 -0.5718  0.2141  0.0192
 3852SOL    HW215174   6.332   6.062   2.227 -0.1163 -0.3720  0.4360
 3852SOL    HW315175   6.205   6.125   2.282  0.1229  0.6533 -0.1640
 3852SOL    MW415176   6.259   6.057   2.275 -0.3803  0.0856  0.0390
 3853SOL     OW15177   3.612   5.483   6.336  0.3580  0.4473 -0.2218
 3853SOL    HW215178   3.667   5.409   6.361 -0.4112 -0.9528 -2.4626
 3853SOL    HW315179   3.539   5.445   6.288 -0.6258  2.5715 -0.5363
 3853SOL    MW415180   3.610   5.469   6.333 -0.4043 -0.1667 -0.0732
 3854SOL     OW15181   5.415   5.444   3.937  0.5085 -0.3666 -0.3168
 3854SOL    HW215182   5.492   5.431   3.882 -0.1383  1.0527 -1.6544
 3854SOL    HW315183   5.446   5.499   4.009  0.9063 -0.4563 -0.4158
 3854SOL    MW415184   5.429   5.450   3.939  0.3863  0.5465  0.0930
 3855SOL     OW15185   2.752   0.425   2.564  0.4641  0.1081 -0.1639
 3855SOL    HW215186   2.759   0.329   2.571  0.5560  0.0847 -0.5524
 3855SOL    HW315187   2.843   0.454   2.556  0.5088  0.3123  0.9621
 3855SOL    MW415188   2.765   0.416   2.564  0.5751  0.1529 -0.1886
 3856SOL     OW15189   0.903   0.288   1.602 -0.9323 -0.1489  0.6591
 3856SOL    HW215190   0.912   0.364   1.545  2.6420 -0.4140  0.6656
 3856SOL    HW315191   0.913   0.323   1.691 -2.0826 -0.3154  0.8734
 3856SOL    MW415192   0.906   0.303   1.606 -0.0553 -0.0591 -0.0815
 3857SOL     OW15193   0.877   0.943   1.254 -0.0211  0.0375  0.3031
 3857SOL    HW215194   0.921   0.970   1.174 -1.3562 -0.2614 -0.5580
 3857SOL    HW315195   0.926   0.986   1.324  2.2550 -1.0771 -0.5126
 3857SOL    MW415196   0.889   0.952   1.253  0.2540  0.6000  0.2056
 3858SOL     OW15197   1.667   6.303   1.077 -0.5819 -0.4217  0.1207
 3858SOL    HW215198   1.616   6.243   1.132  0.8199 -0.8053  1.0607
 3858SOL    HW315199   1.712   6.247   1.014 -1.9535 -0.0070 -1.3012
 3858SOL    MW415200   1.666   6.288   1.076  0.6156  0.6111  0.2842
 3859SOL     OW15201   6.026   0.291   1.991  0.8192 -0.6198 -0.2276
 3859SOL    HW215202   6.090   0.232   2.029  1.7517 -0.4141 -1.4184
 3859SOL    HW315203   6.052   0.378   2.022  1.4966 -0.4686 -1.1506
 3859SOL    MW415204   6.038   0.295   2.000  0.2468  0.5806  0.9957
 3860SOL     OW15205   4.967   2.164   2.149 -0.2221 -0.1436 -0.2843
 3860SOL    HW215206   5.013   2.150   2.067  0.0293  0.8135 -0.3201
 3860SOL    HW315207   5.008   2.242   2.187  1.2030 -1.7786  1.8373
 3860SOL    MW415208   4.978   2.173   2.143 -0.5462 -0.3479 -0.1266
 3861SOL     OW15209   5.925   4.320   0.446 -0.1870  0.0303 -0.3449
 3861SOL    HW215210   5.871   4.255   0.493 -0.9354 -0.4552 -1.8031
 3861SOL    HW315211   5.977   4.268   0.386 -0.1574  0.7293 -0.9302
 3861SOL    MW415212   5.924   4.304   0.445 -0.1007  0.1047  0.1034
 3862SOL     OW15213   5.254   2.542   2.872 -0.7972 -0.4447  0.0269
 3862SOL    HW215214   5.224   2.508   2.957  1.1314  0.0462  0.9529
 3862SOL    HW315215   5.186   2.605   2.846 -1.8634 -1.2557  0.7368
 3862SOL    MW415216   5.241   2.546   2.880  0.3137  0.1629 -0.0725
 3863SOL     OW15217   2.456   6.087   5.941 -0.2205  0.6989  0.2545
 3863SOL    HW215218   2.429   6.171   5.979  1.0727  1.5579 -0.6096
 3863SOL    HW315219   2.382   6.061   5.886 -0.6650  1.2516  0.5798
 3863SOL    MW415220   2.442   6.095   5.939  0.5382 -0.1591 -0.5717
 3864SOL     OW15221   5.828   0.154   2.527 -0.0489  0.2768  0.2417
 3864SOL    HW215222   5.758   0.191   2.581 -0.2992  1.1223 -0.6315
 3864SOL    HW315223   5.846   0.068   2.566 -1.2404  0.2491  0.7656
 3864SOL    MW415224   5.821   0.147   2.539 -0.0105  0.1544 -0.6023
 3865SOL     OW15225   5.001   1.244   4.089 -0.3636 -0.0832  0.1916
 3865SOL    HW215226   5.057   1.212   4.018 -1.3681  0.7645 -1.0191
 3865SOL    HW315227   4.924   1.187   4.086  0.0368 -0.7039  1.3008
 3865SOL    MW415228   4.998   1.232   4.079  0.6103  0.3750  0.2722
 3866SOL     OW15229   0.845   0.338   3.977  0.0637 -0.7831 -0.1106
 3866SOL    HW215230   0.781   0.327   3.906 -0.8743  0.8971  0.4144
 3866SOL    HW315231   0.792   0.357   4.054  1.0213 -3.2482  1.2528
 3866SOL    MW415232   0.830   0.339   3.978  0.1513 -0.1157  0.2174
 3867SOL     OW15233   0.527   0.553   1.781  0.9722 -0.3112  0.0243
 3867SOL    HW215234   0.525   0.629   1.724 -0.1583 -0.0321  0.4243
 3867SOL    HW315235   0.545   0.479   1.722 -3.0359 -0.4667 -1.2635
 3867SOL    MW415236   0.529   0.553   1.766  0.1732  0.8960  0.5737
 3868SOL     OW15237   0.169   3.647   4.919  0.1501  0.3959  0.4520
 3868SOL    HW215238   0.145   3.712   4.985  0.4570  1.1586 -0.1780
 3868SOL    HW315239   0.117   3.670   4.842 -0.4595 -0.6912  0.5171
 3868SOL    MW415240   0.159   3.658   4.918  0.4937 -0.2171 -0.1505
 3869SOL     OW15241   3.831   2.711   6.003  0.6397  0.7997  0.0189
 3869SOL    HW215242   3.833   2.754   5.917 -0.3862  0.4680 -0.1816
 3869SOL    HW315243   3.744   2.672   6.008  1.2379 -0.5069  0.5717
 3869SOL    MW415244   3.820   2.711   5.992  0.2175  0.0591  0.1068
 3870SOL     OW15245   0.545   3.305   4.618 -0.2565  0.6455 -0.3240
 3870SOL    HW215246   0.469   3.332   4.670 -1.0480 -0.8352 -0.6527
 3870SOL    HW315247   0.584   3.233   4.668 -0.1327  0.2144 -1.0313
 3870SOL    MW415248   0.540   3.299   4.631  0.1220  0.2541 -0.1344
 3871SOL     OW15249   1.202   2.468   5.764  0.2583 -0.3620  0.5148
 3871SOL    HW215250   1.246   2.545   5.799  0.4419 -0.3370  0.2338
 3871SOL    HW315251   1.207   2.403   5.834  0.4421 -0.2450  0.6083
 3871SOL    MW415252   1.208   2.470   5.778 -0.6438 -0.1173 -0.0717
 3872SOL     OW15253   2.608   0.564   5.912 -0.0394  0.2895 -0.0083
 3872SOL    HW215254   2.544   0.499   5.882 -1.0558  0.9527  0.6629
 3872SOL    HW315255   2.692   0.530   5.882 -0.6808 -0.6941 -0.7680
 3872SOL    MW415256   2.611   0.551   5.904 -0.1912  0.2612 -0.6934
 3873SOL     OW15257   1.146   2.935   2.602  0.5424  0.4878  0.5702
 3873SOL    HW215258   1.055   2.944   2.628  0.5544 -1.4672  1.5049
 3873SOL    HW315259   1.145   2.869   2.532  1.2418  0.3133  0.7126
 3873SOL    MW415260   1.134   2.928   2.596  0.0318  0.5283 -0.4986
 3874SOL     OW15261   1.269   6.291   3.292 -0.2853 -0.3609 -0.0300
 3874SOL    HW215262   1.240   6.232   3.361 -1.3850  1.4131  1.1194
 3874SOL    HW315263   1.201   6.284   3.225 -0.3164 -0.5384  0.0193
 3874SOL    MW415264   1.256   6.282   3.292 -0.6242 -0.2485  0.4384
 3875SOL     OW15265   0.993   3.513   1.615 -0.4483 -0.1309 -0.3125
 3875SOL    HW215266   0.930   3.449   1.646  0.7345 -0.9551  0.4684
 3875SOL    HW315267   0.996   3.499   1.520 -0.2249 -1.2246 -0.1558
 3875SOL    MW415268   0.985   3.503   1.606  0.1023 -0.7893 -0.4818
 3876SOL     OW15269   2.218   0.900   6.330 -0.2809 -0.1500 -0.0497
 3876SOL    HW215270   2.137   0.904   6.380  0.6458 -1.7386  1.6886
 3876SOL    HW315271   2.265   0.980   6.352 -0.5011 -0.1744  0.5052
 3876SOL    MW415272   2.214   0.911   6.339  0.5347 -0.4499 -0.0098
 3877SOL     OW15273   4.680   5.923   5.885  0.2454  0.3291 -0.7499
 3877SOL    HW215274   4.586   5.916   5.869  0.3816 -2.3098 -0.8539
 3877SOL    HW315275   4.700   5.850   5.944  1.8857  2.2257  1.2291
 3877SOL    MW415276   4.670   5.913   5.891  0.0402  0.4944 -0.8620
 3878SOL     OW15277   0.477   1.385   1.086  0.7202 -0.3275  0.2164
 3878SOL    HW215278   0.382   1.384   1.099  0.6802  1.2204  0.1893
 3878SOL    HW315279   0.492   1.319   1.018 -0.2039 -1.3267  0.9522
 3878SOL    MW415280   0.466   1.376   1.078 -0.6871 -0.5168  0.1524
 3879SOL     OW15281   5.345   0.564   1.265  0.3683  0.3067 -0.1092
 3879SOL    HW215282   5.320   0.570   1.357 -2.3432  1.5476 -0.8155
 3879SOL    HW315283   5.439   0.547   1.266  0.0878 -1.6668  2.8643
 3879SOL    MW415284   5.354   0.563   1.277 -0.0464  0.4163 -0.0431
 3880SOL     OW15285   5.910   2.462   0.421  0.0797  0.2910 -0.0385
 3880SOL    HW215286   5.822   2.470   0.386  0.3512  1.2839 -0.5384
 3880SOL    HW315287   5.951   2.547   0.402  0.1639  1.0394  2.9203
 3880SOL    MW415288   5.904   2.474   0.414  1.1748 -0.0805  0.0924
 3881SOL     OW15289   3.306   5.370   3.810 -0.1168  0.2888 -0.1393
 3881SOL    HW215290   3.305   5.324   3.726  2.1987 -0.6479  0.2732
 3881SOL    HW315291   3.294   5.302   3.876 -0.4384  0.8169  0.3605
 3881SOL    MW415292   3.304   5.355   3.808 -0.1570 -0.3562 -0.0859
 3882SOL     OW15293   3.019   2.226   2.877 -0.3952 -0.1260 -0.2135
 3882SOL    HW215294   3.075   2.201   2.951 -2.9921  0.8711  2.3161
 3882SOL    HW315295   3.047   2.314   2.854  1.4777 -1.0324 -1.5760
 3882SOL    MW415296   3.030   2.234   2.884 -1.1614 -0.5060 -0.1483
 3883SOL     OW15297   2.578   2.125   0.023  0.4872 -0.1471  1.1985
 3883SOL    HW215298   2.495   2.123  -0.026  1.3917  1.8458 -0.6155
 3883SOL    HW315299   2.624   2.046  -0.005  0.8802  0.8290 -1.1018
 3883SOL    MW415300   2.573   2.114   0.013  0.1521 -0.0819 -0.2162
 3884SOL     OW15301   5.430   2.326   0.023 -0.3069 -0.1246 -0.0673
 3884SOL    HW215302   5.383   2.361   0.099  1.1023  0.3358  0.6227
 3884SOL    HW315303   5.394   2.238   0.011  0.2178 -0.6218  1.8249
 3884SOL    MW415304   5.419   2.319   0.031  0.3117 -0.1890 -0.2687
 3885SOL     OW15305   4.138   0.049   4.034 -0.1674 -0.0142 -0.1811
 3885SOL    HW215306   4.139   0.140   4.004  0.5509 -0.1906 -0.7242
 3885SOL    HW315307   4.204   0.006   3.980 -0.4161 -0.8322  0.1606
 3885SOL    MW415308   4.147   0.055   4.023 -0.2025 -0.2659 -0.5605
 3886SOL     OW15309   6.280   1.040   6.241 -0.4789 -0.2420 -0.0602
 3886SOL    HW215310   6.242   1.079   6.320 -0.7829  0.8301 -0.7181
 3886SOL    HW315311   6.366   1.008   6.270  0.2640  1.8684  0.3227
 3886SOL    MW415312   6.287   1.041   6.256  0.4553  0.0454  0.0310
 3887SOL     OW15313   5.438   1.373   5.794 -0.5718 -0.1364  0.2317
 3887SOL    HW215314   5.385   1.448   5.767  1.6847  1.0470 -1.2561
 3887SOL    HW315315   5.451   1.323   5.713  1.6700  0.3768  0.2214
 3887SOL    MW415316   5.433   1.376   5.779 -0.3158 -0.7061 -0.5342
 3888SOL     OW15317   4.951   2.632   5.333 -0.6036  0.8140  0.3325
 3888SOL    HW215318   4.943   2.585   5.416  1.0094  0.8865  0.5665
 3888SOL    HW315319   4.922   2.570   5.267  1.6258 -0.6739  0.6107
 3888SOL    MW415320   4.946   2.618   5.335 -0.2134  0.3911  0.2774
 3889SOL     OW15321   6.300   4.409   5.907  0.4458  0.3729  0.6409
 3889SOL    HW215322   6.278   4.502   5.899  0.4084  0.3925  0.9741
 3889SOL    HW315323   6.285   4.373   5.820  0.3748  0.6624  0.5336
 3889SOL    MW415324   6.295   4.417   5.895  0.0152 -0.0204  0.5951
 3890SOL     OW15325   4.262   2.666   1.703 -0.1895  0.0770 -0.7257
 3890SOL    HW215326   4.194   2.694   1.764  1.0777 -0.6717  1.1145
 3890SOL    HW315327   4.271   2.571   1.718  1.2075  0.1431 -0.9497
 3890SOL    MW415328   4.254   2.657   1.713  0.0511 -0.1214  0.4713
 3891SOL     OW15329   3.208   4.961   5.218 -0.4020 -0.0817  0.1898
 3891SOL    HW215330   3.159   5.005   5.288  2.3934  1.5913  1.2845
 3891SOL    HW315331   3.268   4.903   5.264 -0.2245 -0.8530 -0.9830
 3891SOL    MW415332   3.209   4.959   5.233 -0.4900 -0.3089  0.6582
 3892SOL     OW15333   1.785   0.050   0.632  0.3100  0.6174 -0.0527
 3892SOL    HW215334   1.700   0.083   0.603 -0.1856  0.9516  1.6742
 3892SOL    HW315335   1.825   0.123   0.678  0.7637 -0.0639  0.6631
 3892SOL    MW415336   1.779   0.064   0.634  0.5904  0.3441 -0.8217
 3893SOL     OW15337   5.596   0.267   4.790  0.1003 -0.2322 -0.1699
 3893SOL    HW215338   5.531   0.230   4.849  1.5160 -0.1297  1.5295
 3893SOL    HW315339   5.601   0.205   4.717 -0.0699 -1.5446  0.9070
 3893SOL    MW415340   5.588   0.254   4.788  0.2471  0.3560  0.6736
 3894SOL     OW15341   3.681   0.428   6.203 -0.8058 -0.5134  0.2297
 3894SOL    HW215342   3.635   0.507   6.232  0.6738  0.6213 -0.3905
 3894SOL    HW315343   3.629   0.396   6.130 -3.1284 -1.9344  2.3195
 3894SOL    MW415344   3.668   0.434   6.197 -0.4120  0.5602 -0.0818
 3895SOL     OW15345   0.426   6.070   4.450  0.4040 -0.0301  0.8739
 3895SOL    HW215346   0.457   6.008   4.515  0.6735 -0.6305  0.1893
 3895SOL    HW315347   0.400   6.147   4.500 -0.5921 -0.9368  1.8118
 3895SOL    MW415348   0.426   6.072   4.465 -0.4307  0.3612 -0.4363
 3896SOL     OW15349   1.221   1.087   0.089  0.0152  0.5072  0.3634
 3896SOL    HW215350   1.283   1.024   0.052  1.7072  2.2150  0.1663
 3896SOL    HW315351   1.223   1.162   0.029 -1.8729  0.8258  0.6433
 3896SOL    MW415352   1.229   1.089   0.076  0.2809  0.4053  0.4343
 3897SOL     OW15353   3.037   0.988   4.330  0.3017 -0.0522 -0.2286
 3897SOL    HW215354   2.949   1.025   4.324 -0.0282 -0.9849 -1.6264
 3897SOL    HW315355   3.025   0.900   4.364  0.8988  0.4269  1.2955
 3897SOL    MW415356   3.024   0.982   4.333  0.1556  0.0966 -0.2804
 3898SOL     OW15357   4.165   1.299   0.331  0.2926 -0.1465  0.4516
 3898SOL    HW215358   4.133   1.351   0.258 -0.7670 -1.6818 -0.2151
 3898SOL    HW315359   4.139   1.348   0.409 -0.0710  0.6483 -0.1586
 3898SOL    MW415360   4.158   1.312   0.332 -0.1221 -0.0968 -0.4597
 3899SOL     OW15361   4.081   3.531   4.671 -0.3947  0.5701 -0.1888
 3899SOL    HW215362   4.105   3.540   4.763 -2.7018  0.4663  0.4665
 3899SOL    HW315363   4.062   3.621   4.643 -0.8156  0.4690 -0.2294
 3899SOL    MW415364   4.082   3.544   4.679 -0.1679 -0.1426 -0.0753
 3900SOL     OW15365   4.214   4.291   5.450 -0.7702 -0.0178 -0.4616
 3900SOL    HW215366   4.267   4.323   5.377  1.2829 -1.4399  0.3209
 3900SOL    HW315367   4.245   4.340   5.526 -1.2128 -0.2404 -0.1302
 3900SOL    MW415368   4.225   4.301   5.450  0.1464 -0.1557 -0.3222
 3901SOL     OW15369   5.271   4.468   3.253 -0.3287  0.1245 -0.0804
 3901SOL    HW215370   5.201   4.402   3.250 -1.2369  1.0953 -0.6097
 3901SOL    HW315371   5.235   4.544   3.208  1.6012  0.1653 -1.6664
 3901SOL    MW415372   5.257   4.469   3.247  0.0802 -0.9794 -0.1749
 3902SOL     OW15373   3.695   5.098   5.950  0.2974  0.4150  0.1495
 3902SOL    HW215374   3.732   5.142   5.874  1.2621 -0.1709  0.2567
 3902SOL    HW315375   3.612   5.061   5.919  0.0693  1.2622 -0.2580
 3902SOL    MW415376   3.689   5.099   5.936  0.0871 -0.3149  0.3269
 3903SOL     OW15377   4.633   5.093   3.585 -0.6238 -0.2392  0.1824
 3903SOL    HW215378   4.572   5.027   3.552 -1.4980  0.8069 -0.3498
 3903SOL    HW315379   4.585   5.140   3.653  0.3357 -0.7708  1.2777
 3903SOL    MW415380   4.619   5.091   3.590  0.0715  0.0583 -0.5752
 3904SOL     OW15381   5.012   6.195   1.123  0.4435  0.1904 -0.5898
 3904SOL    HW215382   4.928   6.211   1.079  0.2314  0.0099 -0.2510
 3904SOL    HW315383   5.021   6.269   1.182 -0.9149 -1.2470  1.5594
 3904SOL    MW415384   5.002   6.207   1.125 -0.3373 -0.0157 -0.2690
 3905SOL     OW15385   5.172   5.262   6.317  0.0739  0.4827 -1.1979
 3905SOL    HW215386   5.150   5.300   6.402  2.5883 -0.0359 -0.2029
 3905SOL    HW315387   5.128   5.177   6.317 -1.0564  1.0553 -1.0191
 3905SOL    MW415388   5.164   5.256   6.329 -0.1864  0.0145 -0.0028
 3906SOL     OW15389   5.305   6.426   0.881 -0.6362  0.0089 -0.3881
 3906SOL    HW215390   5.339   6.488   0.945  1.7391  0.8809 -2.3448
 3906SOL    HW315391   5.290   6.345   0.931  1.6774  0.4515  1.1771
 3906SOL    MW415392   5.307   6.423   0.896  0.0657  0.4351 -0.3262
 3907SOL     OW15393   3.224   0.538   4.892  0.2341  0.1342  0.5601
 3907SOL    HW215394   3.300   0.502   4.845 -0.4060 -1.8285  0.9026
 3907SOL    HW315395   3.262   0.596   4.958  1.3237  0.5322 -0.3969
 3907SOL    MW415396   3.239   0.541   4.895 -0.2288  0.1443 -0.1277
 3908SOL     OW15397   2.580   4.474   4.371  0.4720 -0.4129 -0.0493
 3908SOL    HW215398   2.615   4.562   4.386 -0.0501 -0.3329  0.7892
 3908SOL    HW315399   2.625   4.443   4.292  2.1922 -0.1927  0.7845
 3908SOL    MW415400   2.591   4.481   4.363 -0.2640  0.0124 -0.0458
 3909SOL     OW15401   4.853   5.346   2.771  0.6543 -0.1143 -0.1513
 3909SOL    HW215402   4.817   5.424   2.728  2.2995  0.4457 -0.5952
 3909SOL    HW315403   4.820   5.273   2.720  0.3194  0.3911 -0.6664
 3909SOL    MW415404   4.844   5.347   2.759  0.0831  0.9032 -0.0805
 3910SOL     OW15405   5.059   4.492   3.561 -0.1441  0.4539 -0.4401
 3910SOL    HW215406   5.036   4.492   3.654  1.2512  2.7610 -0.0130
 3910SOL    HW315407   5.065   4.399   3.538 -1.1106 -0.1708  1.6093
 3910SOL    MW415408   5.057   4.480   3.570  0.4134 -0.6666 -0.0840
 3911SOL     OW15409   5.585   1.520   3.628  0.0258 -0.3268 -0.4367
 3911SOL    HW215410   5.554   1.431   3.641 -0.5950 -0.1734 -0.8375
 3911SOL    HW315411   5.527   1.557   3.561  0.7614  0.1283 -0.8432
 3911SOL    MW415412   5.573   1.513   3.621 -0.3800 -0.5975  0.8077
 3912SOL     OW15413   6.105   2.643   1.615  0.4273  0.1463 -0.3657
 3912SOL    HW215414   6.012   2.635   1.594  0.4950  0.1505 -0.6772
 3912SOL    HW315415   6.108   2.697   1.694  0.1459 -0.1786 -0.1306
 3912SOL    MW415416   6.093   2.649   1.623  0.1504 -0.2564 -0.6619
 3913SOL     OW15417   3.497   3.387   5.004 -0.1466 -0.1275 -0.2346
 3913SOL    HW215418   3.499   3.483   5.008  0.6381 -0.0300 -2.1337
 3913SOL    HW315419   3.577   3.360   5.049 -0.5676  0.0786  0.6561
 3913SOL    MW415420   3.508   3.396   5.010  0.5901  0.9653 -0.3670
 3914SOL     OW15421   0.894   0.172   0.583 -0.8137 -0.4216 -0.3251
 3914SOL    HW215422   0.967   0.191   0.525  0.7063 -1.8995  1.0082
 3914SOL    HW315423   0.903   0.235   0.655 -1.1207 -0.3224 -0.3699
 3914SOL    MW415424   0.905   0.183   0.585  0.0531 -0.3480 -0.1259
 3915SOL     OW15425   3.703   2.405   5.431 -0.1855 -0.1476  0.0637
 3915SOL    HW215426   3.761   2.435   5.501  0.7847 -0.2919 -0.6497
 3915SOL    HW315427   3.707   2.476   5.366  0.2994 -0.7686 -0.6033
 3915SOL    MW415428   3.711   2.418   5.431  0.0360  0.1312  0.4216
 3916SOL     OW15429   1.165   5.887   5.090 -0.4587  0.2451 -0.0091
 3916SOL    HW215430   1.244   5.854   5.046  0.0156  1.3117  0.0035
 3916SOL    HW315431   1.106   5.812   5.094  0.7209 -0.6863  0.3629
 3916SOL    MW415432   1.168   5.873   5.085  0.2257  0.8194 -0.1077
 3917SOL     OW15433   2.214   2.913   1.957  0.0738 -0.3413  0.0652
 3917SOL    HW215434   2.174   2.826   1.956  1.5475 -1.1101 -2.6130
 3917SOL    HW315435   2.272   2.912   2.033 -0.2461 -1.5202  0.3148
 3917SOL    MW415436   2.216   2.901   1.967  0.3578  0.2454  0.3822
 3918SOL     OW15437   4.843   3.528   1.049  0.0555  0.1336 -0.4521
 3918SOL    HW215438   4.882   3.592   0.989  0.8648  0.4755  0.3925
 3918SOL    HW315439   4.918   3.477   1.080 -0.3080  0.1087  0.4117
 3918SOL    MW415440   4.858   3.530   1.045 -0.0833  0.3215 -0.3899
 3919SOL     OW15441   5.325   5.759   3.649  0.4384 -0.0765 -0.3840
 3919SOL    HW215442   5.381   5.683   3.634 -1.3853 -1.1477 -2.3420
 3919SOL    HW315443   5.327   5.807   3.567  1.8583  2.3014  0.9348
 3919SOL    MW415444   5.332   5.755   3.636  0.0968 -0.4511 -0.1462
 3920SOL     OW15445   4.855   5.208   1.672 -0.2990  0.7352 -0.0662
 3920SOL    HW215446   4.820   5.278   1.727 -0.1537  0.9820 -0.2810
 3920SOL    HW315447   4.783   5.146   1.663  0.3783 -0.5003  2.3217
 3920SOL    MW415448   4.841   5.209   1.678  0.2508 -0.0762  0.0911
 3921SOL     OW15449   6.204   3.603   1.353  0.0210 -0.3802 -0.0498
 3921SOL    HW215450   6.182   3.666   1.422 -1.3787 -0.2596 -0.5906
 3921SOL    HW315451   6.292   3.629   1.325  0.5441 -0.3307  1.5559
 3921SOL    MW415452   6.213   3.615   1.358  0.3670  0.3551 -0.3516
 3922SOL     OW15453   0.968   1.479   1.641 -0.0812 -0.2781 -0.3070
 3922SOL    HW215454   0.916   1.410   1.681  1.0726 -1.0196 -0.0447
 3922SOL    HW315455   0.904   1.531   1.592 -0.8655 -2.0180 -1.2322
 3922SOL    MW415456   0.953   1.477   1.640 -0.2582 -0.5994  0.2161
 3923SOL     OW15457   1.449   3.063   3.379  0.0572 -0.0322 -0.2189
 3923SOL    HW215458   1.493   3.133   3.331  1.0304 -0.8632 -0.5818
 3923SOL    HW315459   1.356   3.085   3.374  0.3174  1.0551 -0.5965
 3923SOL    MW415460   1.443   3.075   3.372 -0.4961 -0.1443 -0.6249
 3924SOL     OW15461   6.206   0.142   2.321  0.1306 -0.6625  0.0725
 3924SOL    HW215462   6.269   0.182   2.381 -0.1399 -0.5204  0.2601
 3924SOL    HW315463   6.132   0.202   2.320 -0.6804 -1.6178  1.0867
 3924SOL    MW415464   6.205   0.155   2.329 -0.3519 -0.1387  0.1366
 3925SOL     OW15465   1.368   5.418   1.450  0.2708  0.1337  0.3698
 3925SOL    HW215466   1.368   5.510   1.473 -0.5388 -0.4139  2.8654
 3925SOL    HW315467   1.300   5.409   1.384 -0.6749  1.1162  1.1758
 3925SOL    MW415468   1.359   5.429   1.444  0.3162  0.1726 -0.0832
 3926SOL     OW15469   0.070   0.500   2.862  0.1158 -0.0938  0.0700
 3926SOL    HW215470   0.122   0.529   2.937 -1.3104 -0.2159  1.1240
 3926SOL    HW315471   0.016   0.576   2.839 -0.2685 -0.4266 -0.1232
 3926SOL    MW415472   0.070   0.514   2.869 -0.7097 -0.8388  0.2707
 3927SOL     OW15473   2.684   4.813   2.228  0.4759  0.0160  0.5973
 3927SOL    HW215474   2.623   4.885   2.243  0.9254  0.1906  1.6610
 3927SOL    HW315475   2.717   4.790   2.315 -0.0436 -1.8312  0.3515
 3927SOL    MW415476   2.680   4.819   2.242  0.5751  0.5818  0.2170
 3928SOL     OW15477   1.585   1.002   5.347  0.3755  0.4133 -0.4258
 3928SOL    HW215478   1.631   1.077   5.384  2.8048  0.2142 -2.7753
 3928SOL    HW315479   1.520   1.040   5.288 -1.1139  0.6567  1.2919
 3928SOL    MW415480   1.583   1.017   5.344  0.0570  0.1218  0.3049
 3929SOL     OW15481   0.254   3.926   1.592 -0.5666 -0.2223 -0.3837
 3929SOL    HW215482   0.256   3.971   1.508 -0.1065  1.3527  0.4363
 3929SOL    HW315483   0.264   3.833   1.570 -4.6841 -0.4344 -2.4291
 3929SOL    MW415484   0.255   3.919   1.578  0.0300 -0.6615 -0.5829
 3930SOL     OW15485   5.095   6.133   0.093  0.1304  0.3735 -0.0138
 3930SOL    HW215486   5.040   6.175   0.027  0.3396  0.8459  0.1139
 3930SOL    HW315487   5.034   6.108   0.163  0.2987  2.4389  0.9201
 3930SOL    MW415488   5.080   6.135   0.093 -0.2502 -0.4307 -0.3842
 3931SOL     OW15489   5.961   0.103   3.720 -0.6351  1.1338  0.1905
 3931SOL    HW215490   5.990   0.013   3.705  1.0213  1.2089  2.4020
 3931SOL    HW315491   5.868   0.102   3.698 -0.9763 -1.4884  1.3468
 3931SOL    MW415492   5.952   0.091   3.715  0.7270 -0.0018  0.2659
 3932SOL     OW15493   2.960   0.607   5.377  0.3978  0.3806  0.2559
 3932SOL    HW215494   2.935   0.681   5.322 -0.2562 -1.2054 -1.7619
 3932SOL    HW315495   2.877   0.574   5.411  0.6022  0.1305  0.5133
 3932SOL    MW415496   2.946   0.612   5.374 -0.4016  0.2479 -0.1662
 3933SOL     OW15497   5.842   3.158   1.522 -0.0538 -0.3792  0.2588
 3933SOL    HW215498   5.801   3.156   1.435  0.3723  0.4749  0.0270
 3933SOL    HW315499   5.770   3.142   1.583 -0.6333  0.4924 -0.1712
 3933SOL    MW415500   5.827   3.156   1.518  0.7496 -0.6999  0.3004
 3934SOL     OW15501   3.848   5.356   0.004 -0.1951 -0.3197  0.3281
 3934SOL    HW215502   3.900   5.436   0.004 -1.1594  0.3405  1.2937
 3934SOL    HW315503   3.841   5.332   0.096 -0.1710 -1.3561  0.0703
 3934SOL    MW415504   3.854   5.364   0.016 -0.2729  0.1266  0.5763
 3935SOL     OW15505   6.448   6.117   5.902 -0.4135 -0.0919 -0.2918
 3935SOL    HW215506   6.429   6.208   5.925 -0.9973 -0.2718 -0.0447
 3935SOL    HW315507   6.457   6.118   5.807 -1.0129  0.1256 -0.3527
 3935SOL    MW415508   6.447   6.130   5.893  0.3913 -0.8792 -0.9437
 3936SOL     OW15509   2.282   5.030   3.894 -0.0294 -0.6373  0.4150
 3936SOL    HW215510   2.223   5.095   3.856  1.8062  0.3945 -0.8689
 3936SOL    HW315511   2.241   4.946   3.875 -2.7338  0.0561  2.5563
 3936SOL    MW415512   2.269   5.027   3.886  0.4790  0.0069 -0.1975
 3937SOL     OW15513   4.371   4.519   2.056  0.3952  0.0509  0.2253
 3937SOL    HW215514   4.445   4.459   2.065  1.2553  1.1005  0.4104
 3937SOL    HW315515   4.398   4.597   2.105 -1.8736 -0.4539  2.4486
 3937SOL    MW415516   4.385   4.521   2.064  0.5351 -0.5270  0.4535
 3938SOL     OW15517   1.910   5.857   6.417 -0.4145  0.6545  0.1459
 3938SOL    HW215518   1.848   5.833   6.485 -0.9323  0.9001 -0.2350
 3938SOL    HW315519   1.996   5.831   6.452 -0.6729  0.7818  0.8902
 3938SOL    MW415520   1.913   5.851   6.431  0.2400 -0.3555 -0.2339
 3939SOL     OW15521   5.551   3.551   6.062 -0.3071 -0.5951  0.4206
 3939SOL    HW215522   5.586   3.633   6.026  2.8646 -2.6104 -1.5982
 3939SOL    HW315523   5.592   3.543   6.148  1.4426 -1.1835 -0.4271
 3939SOL    MW415524   5.561   3.561   6.068 -0.2292  0.4127  0.1953
 3940SOL     OW15525   6.092   0.172   0.335 -0.0107 -0.3113 -0.0676
 3940SOL    HW215526   6.019   0.139   0.282  0.2351 -2.5101  0.8856
 3940SOL    HW315527   6.170   0.141   0.291  0.3173  0.5267 -0.1011
 3940SOL    MW415528   6.093   0.164   0.322 -0.3940  0.0156  0.2553
 3941SOL     OW15529   4.122   4.449   4.101  0.1342 -0.3242  0.1704
 3941SOL    HW215530   4.091   4.376   4.049 -1.4860 -0.4041  1.2037
 3941SOL    HW315531   4.076   4.442   4.185  1.6960  0.5356  1.1627
 3941SOL    MW415532   4.112   4.439   4.105  0.6601 -0.0397  0.4461
 3942SOL     OW15533   0.514   2.311   1.153  0.2306 -0.2834  0.0385
 3942SOL    HW215534   0.539   2.225   1.120  2.5084  0.6428 -0.8393
 3942SOL    HW315535   0.453   2.293   1.225  0.0264 -2.5683 -0.6501
 3942SOL    MW415536   0.509   2.298   1.158  0.0157  0.3532  0.0365
 3943SOL     OW15537   4.580   4.787   0.531  0.2087  0.2665 -0.1194
 3943SOL    HW215538   4.499   4.824   0.495  0.2495  1.4648  0.9386
 3943SOL    HW315539   4.649   4.841   0.492  0.4712 -0.4450 -0.6475
 3943SOL    MW415540   4.578   4.799   0.521 -0.1336  0.3042  0.2117
 3944SOL     OW15541   3.511   1.578   2.157 -0.5155 -0.2325  0.5661
 3944SOL    HW215542   3.563   1.652   2.125 -0.8127  0.2616  1.2047
 3944SOL    HW315543   3.518   1.512   2.088 -1.5117  0.9743 -0.7460
 3944SOL    MW415544   3.519   1.579   2.143 -0.3659  0.3050  0.6904
 3945SOL     OW15545   0.324   4.361   2.706 -0.0468 -0.3102  0.9171
 3945SOL    HW215546   0.238   4.331   2.735  0.1507 -1.5322  0.3101
 3945SOL    HW315547   0.305   4.422   2.635 -0.4504  0.8343  1.9791
 3945SOL    MW415548   0.310   4.365   2.701  0.8429 -0.1817 -0.5524
 3946SOL     OW15549   4.276   2.515   0.818 -0.1037 -0.4245  0.2663
 3946SOL    HW215550   4.228   2.438   0.850 -0.2494  0.3688  2.0992
 3946SOL    HW315551   4.292   2.496   0.726 -1.8708 -1.7768  0.1631
 3946SOL    MW415552   4.272   2.502   0.810 -0.0672  0.0978 -0.2518
 3947SOL     OW15553   0.979   4.037   3.478  0.0424 -0.4114 -0.2143
 3947SOL    HW215554   0.910   3.992   3.527 -0.3680  0.4858  0.0675
 3947SOL    HW315555   0.931   4.097   3.420  0.4996  3.4647  3.0282
 3947SOL    MW415556   0.963   4.039   3.477 -0.2055 -0.0106 -0.4371
 3948SOL     OW15557   4.169   0.770   0.695 -0.2052 -0.4103  0.3746
 3948SOL    HW215558   4.172   0.688   0.646  0.2211  0.2147 -0.6704
 3948SOL    HW315559   4.077   0.795   0.695 -0.1770 -0.3098 -0.2841
 3948SOL    MW415560   4.157   0.762   0.689  0.3194  0.2937  0.0989
 3949SOL     OW15561   6.185   0.898   6.023  0.5292  0.0049 -0.4969
 3949SOL    HW215562   6.222   0.930   6.105  0.9228  0.8100 -0.9768
 3949SOL    HW315563   6.110   0.844   6.049  1.3306 -0.6879  0.4340
 3949SOL    MW415564   6.180   0.895   6.037 -0.0465 -0.2524  0.2126
 3950SOL     OW15565   2.381   3.555   5.954  0.2033 -0.5218  0.1392
 3950SOL    HW215566   2.456   3.538   5.897 -0.4129 -2.0519 -0.2545
 3950SOL    HW315567   2.401   3.506   6.034 -0.0008 -0.2589  0.3501
 3950SOL    MW415568   2.394   3.546   5.957  0.0881  0.1290  0.7211
 3951SOL     OW15569   5.209   3.717   2.953 -0.0990 -0.3251 -0.2266
 3951SOL    HW215570   5.175   3.636   2.914  0.5733 -0.7206  0.0028
 3951SOL    HW315571   5.224   3.696   3.045 -0.0708  0.1099 -0.1271
 3951SOL    MW415572   5.206   3.704   2.960 -0.9819 -0.3542  0.5309
 3952SOL     OW15573   1.797   0.675   0.437  0.7344 -0.4939  0.3481
 3952SOL    HW215574   1.737   0.601   0.449  0.5579 -0.2341  1.0931
 3952SOL    HW315575   1.881   0.643   0.473  0.3718  0.0512  1.7509
 3952SOL    MW415576   1.800   0.661   0.443 -0.2739 -0.0398  0.4678
 3953SOL     OW15577   0.829   3.953   4.529  0.6843  0.8304 -0.1772
 3953SOL    HW215578   0.884   3.881   4.558 -1.5546 -0.8318  0.2564
 3953SOL    HW315579   0.813   4.005   4.609 -0.0752  0.0735  0.1809
 3953SOL    MW415580   0.834   3.951   4.543  0.3395 -0.7112 -0.1636
 3954SOL     OW15581   5.043   0.661   4.334  0.1103  0.5907 -0.4642
 3954SOL    HW215582   5.091   0.594   4.383 -0.3125  0.4633 -0.2206
 3954SOL    HW315583   4.952   0.650   4.361 -0.0761  0.7556 -1.0092
 3954SOL    MW415584   5.037   0.651   4.344  0.4466  0.0107 -0.0109
 3955SOL     OW15585   3.366   2.090   5.128  0.2333  0.0051 -0.5404
 3955SOL    HW215586   3.342   2.141   5.205  0.4217 -0.4456 -0.1751
 3955SOL    HW315587   3.282   2.065   5.089  0.1339  0.1324 -0.4120
 3955SOL    MW415588   3.352   2.093   5.133 -0.1475 -0.1290  0.0886
 3956SOL     OW15589   6.178   2.832   3.488  0.3895  0.5152  0.1534
 3956SOL    HW215590   6.266   2.860   3.463  0.8682 -0.0510  1.1289
 3956SOL    HW315591   6.182   2.824   3.584 -0.9371  1.2032  0.2818
 3956SOL    MW415592   6.190   2.834   3.498  0.3886  0.1650  0.5361
 3957SOL     OW15593   2.853   2.940   2.710 -0.4707  0.4506 -0.4441
 3957SOL    HW215594   2.930   2.986   2.678  0.0400  0.0451  0.1771
 3957SOL    HW315595   2.810   3.001   2.769 -0.5494  0.6228 -0.6776
 3957SOL    MW415596   2.857   2.954   2.714  0.5780 -0.3741  0.3862
 3958SOL     OW15597   4.902   0.991   1.694  0.2454  0.2109 -0.1821
 3958SOL    HW215598   4.849   0.991   1.774  0.6949  2.9497  0.2396
 3958SOL    HW315599   4.886   0.906   1.654 -2.4860 -0.0443  1.2076
 3958SOL    MW415600   4.893   0.980   1.699  0.8012  0.1987  0.4913
 3959SOL     OW15601   2.961   2.179   4.655  0.0880  0.4992  0.1053
 3959SOL    HW215602   2.962   2.177   4.560  0.6236 -1.5368  0.1069
 3959SOL    HW315603   3.052   2.194   4.681  0.4753 -1.6864  0.2382
 3959SOL    MW415604   2.973   2.181   4.646  1.0784  0.0735 -0.2089
 3960SOL     OW15605   2.851   2.585   3.111  0.4537  0.3512  0.5101
 3960SOL    HW215606   2.841   2.505   3.058 -5.1505  0.4310  0.8340
 3960SOL    HW315607   2.878   2.652   3.048 -4.7144  0.1591 -2.4710
 3960SOL    MW415608   2.853   2.583   3.095  0.2079  0.6190  0.7426
 3961SOL     OW15609   5.013   1.551   3.788  0.4575 -0.0254  0.6176
 3961SOL    HW215610   5.039   1.519   3.874 -1.0583 -2.3474  0.3063
 3961SOL    HW315611   4.948   1.618   3.806  1.0779  0.4194  1.2679
 3961SOL    MW415612   5.008   1.555   3.801 -0.4482 -0.2713  0.8371
 3962SOL     OW15613   3.295   5.640   5.833 -0.0704 -0.0234 -0.2597
 3962SOL    HW215614   3.250   5.556   5.832 -0.1379 -0.0099 -1.9843
 3962SOL    HW315615   3.381   5.621   5.795  0.2731  0.4988  0.2542
 3962SOL    MW415616   3.301   5.626   5.828 -0.2728  0.3413 -0.6472
 3963SOL     OW15617   1.888   0.407   1.234 -0.6806 -0.0726  0.8528
 3963SOL    HW215618   1.817   0.457   1.194  0.8148  1.0713 -0.5309
 3963SOL    HW315619   1.899   0.331   1.176 -1.7859 -1.1186  1.9652
 3963SOL    MW415620   1.880   0.403   1.221 -0.3740  0.0972  0.1358
 3964SOL     OW15621   1.596   6.162   3.333  0.0201  0.5054 -0.1957
 3964SOL    HW215622   1.669   6.176   3.393 -1.8238  0.5760  2.2065
 3964SOL    HW315623   1.526   6.218   3.368 -1.9186 -1.3107 -0.9663
 3964SOL    MW415624   1.596   6.171   3.345 -0.4806  0.4563 -0.2353
 3965SOL     OW15625   6.408   0.274   1.859  0.1648  0.6716  0.2070
 3965SOL    HW215626   6.342   0.237   1.918  0.8319 -0.4871  0.2478
 3965SOL    HW315627   6.357   0.311   1.786 -0.5320 -0.6002  0.0147
 3965SOL    MW415628   6.392   0.274   1.857  0.2909  0.1051  0.7676
 3966SOL     OW15629   6.209   4.099   4.318 -0.4965  0.2039  0.4660
 3966SOL    HW215630   6.252   4.180   4.343  1.0706 -0.6718  0.7530
 3966SOL    HW315631   6.281   4.039   4.296 -1.5756 -1.1911  0.5586
 3966SOL    MW415632   6.224   4.102   4.319  0.0171 -0.1765 -0.0579
 3967SOL     OW15633   4.418   4.093   5.722  0.1657 -0.3437 -0.1110
 3967SOL    HW215634   4.496   4.045   5.752 -0.6836 -1.1834  0.7952
 3967SOL    HW315635   4.361   4.098   5.798 -0.1494  1.4005 -0.4177
 3967SOL    MW415636   4.421   4.087   5.736  0.1885  0.1744  0.3762
 3968SOL     OW15637   2.787   6.315   2.607 -0.2662  0.4327  0.2951
 3968SOL    HW215638   2.840   6.285   2.681  3.9282 -1.1130 -2.9527
 3968SOL    HW315639   2.705   6.266   2.615 -0.2420  0.6805  3.9826
 3968SOL    MW415640   2.783   6.305   2.618  0.1053  0.3026 -0.0070
 3969SOL     OW15641   4.941   4.440   5.056  0.5705  0.1468  0.3458
 3969SOL    HW215642   5.033   4.456   5.035  0.4506 -0.2214 -0.4881
 3969SOL    HW315643   4.914   4.372   4.995 -0.1584 -0.0203  0.8411
 3969SOL    MW415644   4.949   4.433   5.045  0.6710 -0.2289  0.0802
 3970SOL     OW15645   1.551   3.749   1.103 -0.1773 -0.8529  0.1015
 3970SOL    HW215646   1.530   3.796   1.184  2.5114 -1.0643  1.0396
 3970SOL    HW315647   1.546   3.656   1.128 -1.6597 -1.0246 -0.6891
 3970SOL    MW415648   1.548   3.743   1.117 -0.0128  0.6032 -0.3167
 3971SOL     OW15649   3.012   6.015   2.670 -0.0403  0.1759 -0.2818
 3971SOL    HW215650   2.989   6.054   2.585 -0.8974  1.5430  0.5504
 3971SOL    HW315651   3.008   6.087   2.732 -1.0997 -1.1148  1.2343
 3971SOL    MW415652   3.008   6.030   2.667 -0.3008 -0.3224  0.2694
 3972SOL     OW15653   4.666   4.567   2.349 -0.7358  0.0520  0.2259
 3972SOL    HW215654   4.641   4.531   2.434  0.8193 -0.1814  0.6134
 3972SOL    HW315655   4.636   4.502   2.285 -0.7189 -0.4197  0.6940
 3972SOL    MW415656   4.659   4.554   2.352 -0.4578 -0.0405  0.3677
 3973SOL     OW15657   0.232   5.591   0.262 -0.1074 -0.4741  0.0231
 3973SOL    HW215658   0.314   5.639   0.268 -0.4617  0.3365 -1.3625
 3973SOL    HW315659   0.257   5.505   0.227  0.2091 -0.4147  0.0992
 3973SOL    MW415660   0.246   5.586   0.259  0.3170 -0.3481  0.0476
 3974SOL     OW15661   3.929   4.429   4.308  0.0213 -0.5594 -0.0908
 3974SOL    HW215662   3.935   4.462   4.398 -2.0636 -1.3728  0.4125
 3974SOL    HW315663   3.933   4.333   4.317  2.8053 -0.6163 -1.2057
 3974SOL    MW415664   3.930   4.420   4.321  0.2648  0.3167  0.0658
 3975SOL     OW15665   4.633   5.154   0.331 -0.0428 -0.3319  0.5121
 3975SOL    HW215666   4.584   5.219   0.381 -2.5566 -1.4338 -0.3647
 3975SOL    HW315667   4.616   5.176   0.239  1.7890 -0.3109  0.1424
 3975SOL    MW415668   4.624   5.166   0.325  0.4916  0.1391 -0.4877
 3976SOL     OW15669   1.580   0.596   3.350 -0.0461  0.1591  0.1425
 3976SOL    HW215670   1.659   0.616   3.400 -0.2585 -1.9405  1.4378
 3976SOL    HW315671   1.612   0.568   3.264  0.8071 -2.3135  1.1913
 3976SOL    MW415672   1.595   0.595   3.345  0.0136  0.0842 -0.1960
 3977SOL     OW15673   4.820   6.362   6.068 -0.2314  0.0299 -0.1987
 3977SOL    HW215674   4.912   6.333   6.069  0.4193  1.9510  0.4838
 3977SOL    HW315675   4.772   6.290   6.109  1.2043 -0.3906  0.8343
 3977SOL    MW415676   4.826   6.349   6.074 -0.0335  0.3464 -0.0226
 3978SOL     OW15677   2.247   6.159   1.705 -0.9769 -0.3123  0.0110
 3978SOL    HW215678   2.304   6.148   1.629 -0.5640  0.6365  0.1711
 3978SOL    HW315679   2.175   6.214   1.673 -0.6382  0.3543  0.3814
 3978SOL    MW415680   2.245   6.165   1.691 -0.8255  0.4109  0.5332
 3979SOL     OW15681   1.700   2.481   1.385  0.2384 -0.5199  0.3598
 3979SOL    HW215682   1.684   2.507   1.476 -1.6961  0.8669 -0.3158
 3979SOL    HW315683   1.615   2.452   1.353  0.4224  0.9154 -1.5777
 3979SOL    MW415684   1.687   2.480   1.393 -0.2326 -0.1904  0.0917
 3980SOL     OW15685   0.146   3.452   2.260 -0.0019  0.0321  0.2251
 3980SOL    HW215686   0.225   3.484   2.217 -0.4363  1.2342  0.2660
 3980SOL    HW315687   0.108   3.391   2.197  0.6961 -0.1764 -0.0018
 3980SOL    MW415688   0.151   3.448   2.246  0.5253 -0.6003 -0.4679
 3981SOL     OW15689   3.069   0.019   6.235  0.1937 -0.0307 -1.1757
 3981SOL    HW215690   3.084   0.101   6.189 -0.1112 -0.4253 -1.9988
 3981SOL    HW315691   3.155  -0.023   6.239  0.5868  0.8388  0.2967
 3981SOL    MW415692   3.083   0.024   6.230 -0.2612 -0.3074  0.4292
 3982SOL     OW15693   1.877   2.223   2.825 -0.1563  0.6762 -0.0064
 3982SOL    HW215694   1.901   2.167   2.898 -0.9261  1.9481  1.2635
 3982SOL    HW315695   1.787   2.198   2.803  0.1861  0.0591 -0.7885
 3982SOL    MW415696   1.868   2.213   2.832  0.4950  0.4275 -0.1910
 3983SOL     OW15697   4.426   5.908   5.804  0.3865  0.5154  0.1654
 3983SOL    HW215698   4.350   5.949   5.846  0.3030 -0.9583  1.5211
 3983SOL    HW315699   4.388   5.854   5.735  0.2540  0.2747  0.4258
 3983SOL    MW415700   4.411   5.906   5.800  0.3104 -0.1976  0.0021
 3984SOL     OW15701   6.204   0.549   6.193 -0.1007 -0.8257  0.1955
 3984SOL    HW215702   6.261   0.602   6.137 -0.8992  0.7683  0.8065
 3984SOL    HW315703   6.238   0.562   6.281 -1.3749  0.1683  0.5699
 3984SOL    MW415704   6.216   0.558   6.197  0.1187 -0.1178 -0.1489
 3985SOL     OW15705   0.381   6.299   2.775 -0.5571  0.4402 -0.3130
 3985SOL    HW215706   0.329   6.231   2.731  0.1742  0.3008 -0.9656
 3985SOL    HW315707   0.315   6.357   2.814 -1.2065 -0.8859  0.6684
 3985SOL    MW415708   0.365   6.297   2.774 -0.1430  0.3217  0.6214
 3986SOL     OW15709   3.143   0.774   3.499 -0.4811  0.2685 -0.1464
 3986SOL    HW215710   3.217   0.720   3.471 -1.9454 -2.0253  0.2124
 3986SOL    HW315711   3.173   0.815   3.580  0.9184  0.5949 -0.8003
 3986SOL    MW415712   3.157   0.772   3.506 -0.0917 -0.3871 -0.0986
 3987SOL     OW15713   4.817   3.459   2.728  0.1866 -0.0634 -0.7433
 3987SOL    HW215714   4.760   3.485   2.801  1.9718  0.0720  0.6744
 3987SOL    HW315715   4.789   3.514   2.655 -0.6046  0.9411  0.2773
 3987SOL    MW415716   4.806   3.470   2.728 -0.5911  0.5438  0.4956
 3988SOL     OW15717   3.194   5.282   3.573 -0.2844 -0.1872  0.1675
 3988SOL    HW215718   3.267   5.334   3.539  0.9800 -1.3589  0.9604
 3988SOL    HW315719   3.116   5.336   3.557  0.9043  1.7783  0.6407
 3988SOL    MW415720   3.193   5.296   3.566 -0.5555 -0.3212  0.2784
 3989SOL     OW15721   0.851   5.497   4.290 -0.2871  0.2503  0.2377
 3989SOL    HW215722   0.868   5.578   4.337  0.3054  1.4563 -1.9438
 3989SOL    HW315723   0.793   5.522   4.218  0.4383 -1.1240 -0.8682
 3989SOL    MW415724   0.845   5.511   4.287  0.3638 -0.1350  0.3742
 3990SOL     OW15725   2.401   5.363   1.713 -0.0291 -0.1396  0.1307
 3990SOL    HW215726   2.461   5.429   1.747 -0.1107 -1.1816  2.4925
 3990SOL    HW315727   2.457   5.296   1.676  0.3097 -0.8219  1.7851
 3990SOL    MW415728   2.416   5.363   1.713  0.4867 -0.0527  0.1262
 3991SOL     OW15729   6.332   6.283   0.500 -0.7313 -0.5935  0.2307
 3991SOL    HW215730   6.362   6.224   0.569  1.8382  1.4762  1.0453
 3991SOL    HW315731   6.282   6.351   0.547  0.1260  0.2569 -0.0577
 3991SOL    MW415732   6.329   6.284   0.516  0.2405  0.0761  0.3141
 3992SOL     OW15733   5.013   0.874   1.960 -0.6968 -0.4306  0.6764
 3992SOL    HW215734   4.983   0.783   1.972  0.2178 -1.3772 -3.0942
 3992SOL    HW315735   4.994   0.894   1.869 -3.0149  4.1486  1.8559
 3992SOL    MW415736   5.007   0.864   1.950  0.1714 -0.0558 -0.4284
 3993SOL     OW15737   5.701   5.860   1.063 -0.9977  0.0372  0.0323
 3993SOL    HW215738   5.605   5.853   1.060 -0.9836 -2.0177  1.8428
 3993SOL    HW315739   5.732   5.773   1.040  0.2261 -0.5954  3.4602
 3993SOL    MW415740   5.692   5.848   1.060  0.4900 -0.4643  0.1709
 3994SOL     OW15741   4.031   1.406   0.117 -0.2380 -0.4988  0.8742
 3994SOL    HW215742   4.096   1.380   0.052  0.3727  0.8796  0.9083
 3994SOL    HW315743   3.998   1.490   0.086 -2.1591 -1.2438  0.7728
 3994SOL    MW415744   4.035   1.413   0.105 -0.2112  0.1973 -0.1356
 3995SOL     OW15745   2.706   5.793   3.163 -0.1109 -0.6085  0.2482
 3995SOL    HW215746   2.720   5.724   3.098 -1.6357  0.2437 -1.0446
 3995SOL    HW315747   2.690   5.745   3.245  1.3470 -1.7019 -0.0546
 3995SOL    MW415748   2.706   5.777   3.165 -0.6440  0.1452  0.3932
 3996SOL     OW15749   3.268   0.606   0.766 -0.0410  0.1079  0.1857
 3996SOL    HW215750   3.201   0.595   0.699 -0.6547  1.7775  0.4870
 3996SOL    HW315751   3.270   0.521   0.811 -0.5743 -0.5882 -1.0603
 3996SOL    MW415752   3.259   0.593   0.763  0.0207  0.0956 -0.1035
 3997SOL     OW15753   2.393   3.131   2.211 -0.0782 -0.5628  0.2702
 3997SOL    HW215754   2.389   3.037   2.194 -0.4123 -0.3857 -0.6821
 3997SOL    HW315755   2.475   3.144   2.259  0.7081 -1.1429 -0.8804
 3997SOL    MW415756   2.403   3.121   2.215 -0.4528  0.1854 -0.3319
 3998SOL     OW15757   6.416   2.590   3.344  0.0429  0.0704  0.3009
 3998SOL    HW215758   6.466   2.509   3.346  1.3549  0.7851 -1.1571
 3998SOL    HW315759   6.327   2.562   3.323  0.2632 -1.0615  0.8138
 3998SOL    MW415760   6.411   2.576   3.341 -0.1862  0.6037  0.1541
 3999SOL     OW15761   4.232   2.152   0.539  0.6400  0.4422 -0.3973
 3999SOL    HW215762   4.312   2.100   0.546 -0.7943 -2.0745 -1.3889
 3999SOL    HW315763   4.189   2.142   0.624  0.1449 -0.4305 -0.7392
 3999SOL    MW415764   4.237   2.144   0.551  0.0072  0.3027 -0.4798
 4000SOL     OW15765   1.576   1.406   3.577  0.6299  0.1360  0.1227
 4000SOL    HW215766   1.496   1.452   3.553 -0.4141 -1.4484  0.4302
 4000SOL    HW315767   1.609   1.453   3.654 -2.3866 -1.6279  2.7488
 4000SOL    MW415768   1.570   1.418   3.584  0.8038  0.0146 -0.4937
 4001SOL     OW15769   5.133   3.468   2.841 -0.4732 -0.1718 -0.1099
 4001SOL    HW215770   5.062   3.470   2.777  0.1279  0.1899 -0.7886
 4001SOL    HW315771   5.201   3.415   2.799 -0.7607 -1.5032  1.0118
 4001SOL    MW415772   5.133   3.461   2.827  0.0619 -0.0320  0.1680
 4002SOL     OW15773   4.710   1.365   6.400  0.3176 -0.0723 -0.1669
 4002SOL    HW215774   4.768   1.322   6.337  1.1887 -1.0703  1.2712
 4002SOL    HW315775   4.762   1.372   6.480 -1.4738 -0.8608  1.1391
 4002SOL    MW415776   4.724   1.360   6.402 -0.2214  0.1509  0.3317
 4003SOL     OW15777   1.344   3.022   2.271  0.1328 -0.1948 -0.2331
 4003SOL    HW215778   1.267   3.074   2.248  1.1405  1.2984 -0.3350
 4003SOL    HW315779   1.409   3.086   2.299  1.3004 -1.4389  0.0024
 4003SOL    MW415780   1.343   3.037   2.271  0.5079 -0.3403 -0.8404
 4004SOL     OW15781   2.312   1.739   5.414 -0.0734 -0.2114 -0.2877
 4004SOL    HW215782   2.269   1.702   5.336 -0.0741 -1.4792  0.2806
 4004SOL    HW315783   2.243   1.738   5.481 -0.2090  1.3191 -0.3829
 4004SOL    MW415784   2.297   1.734   5.413  0.0512  0.3914 -0.2125
 4005SOL     OW15785   4.094   2.058   3.843 -0.1312  0.0814 -0.1832
 4005SOL    HW215786   4.171   2.114   3.854 -0.5727  0.6293  0.2078
 4005SOL    HW315787   4.019   2.116   3.860 -0.6294 -0.4482 -0.5157
 4005SOL    MW415788   4.094   2.073   3.847 -0.2532 -0.3386  0.1526
 4006SOL     OW15789   5.212   2.913   2.735 -0.2413 -0.2632 -0.4663
 4006SOL    HW215790   5.300   2.897   2.703 -0.5586 -0.2986 -1.3454
 4006SOL    HW315791   5.178   2.984   2.680  0.1343  1.5679  1.5141
 4006SOL    MW415792   5.219   2.921   2.723  0.2443 -0.7960  0.0038
 4007SOL     OW15793   0.469   3.642   4.967  0.4951  0.1309 -0.1657
 4007SOL    HW215794   0.376   3.638   4.946  0.4191 -1.8698  0.4122
 4007SOL    HW315795   0.498   3.727   4.932 -1.8375  1.4893  0.9752
 4007SOL    MW415796   0.461   3.653   4.959  0.1096  0.0073 -0.1626
 4008SOL     OW15797   1.607   3.497   1.974  0.1575 -0.6463 -0.4421
 4008SOL    HW215798   1.662   3.445   2.034  0.4577 -1.6978 -1.5856
 4008SOL    HW315799   1.549   3.433   1.934 -0.9657  0.2599 -0.2883
 4008SOL    MW415800   1.607   3.482   1.976  0.3981 -0.4444 -0.3148
 4009SOL     OW15801   0.508   5.741   4.037 -0.2213  0.2400 -0.4083
 4009SOL    HW215802   0.588   5.690   4.049 -0.8894 -0.4343  1.5855
 4009SOL    HW315803   0.497   5.747   3.942  0.5090 -2.3522 -0.7295
 4009SOL    MW415804   0.517   5.735   4.026  0.2982  0.2086  0.3549
 4010SOL     OW15805   6.155   1.691   5.140 -0.4551 -0.4262  0.1373
 4010SOL    HW215806   6.081   1.663   5.194 -1.1566  1.3127  0.1683
 4010SOL    HW315807   6.115   1.728   5.062  0.4457 -0.5349 -0.3916
 4010SOL    MW415808   6.140   1.692   5.137  0.0409  0.0543  0.4237
 4011SOL     OW15809   0.873   3.858   3.046 -0.8008  0.3629 -0.0438
 4011SOL    HW215810   0.917   3.943   3.047 -1.2587  0.6276 -1.0479
 4011SOL    HW315811   0.800   3.869   3.107  0.2358  0.0510  1.3102
 4011SOL    MW415812   0.869   3.871   3.054 -0.0147 -0.1699  0.0006
 4012SOL     OW15813   1.963   1.599   1.279  0.7535  0.2075  0.2855
 4012SOL    HW215814   1.984   1.538   1.209  0.6536 -1.4201  1.5965
 4012SOL    HW315815   2.040   1.655   1.286  0.1367  1.4951 -2.1309
 4012SOL    MW415816   1.976   1.598   1.271 -0.3164 -0.1322 -0.1374
 4013SOL     OW15817   5.481   4.952   2.860 -1.0413  0.2417 -0.3491
 4013SOL    HW215818   5.510   4.910   2.779 -0.4984  1.2100 -0.6734
 4013SOL    HW315819   5.436   5.031   2.831 -0.0300  1.0868  0.3134
 4013SOL    MW415820   5.479   4.957   2.846 -0.1995 -0.4424  0.0829
 4014SOL     OW15821   4.334   3.301   4.077 -0.3345  0.5602 -0.4712
 4014SOL    HW215822   4.319   3.336   3.989 -0.7096 -0.2397 -0.7392
 4014SOL    HW315823   4.278   3.223   4.081  0.5511 -0.0667  0.0588
 4014SOL    MW415824   4.324   3.295   4.066  0.4550  0.3551  0.2569
 4015SOL     OW15825   6.112   5.125   0.804 -0.1869  0.4409 -0.4381
 4015SOL    HW215826   6.057   5.099   0.877  1.1729  0.1796  0.5281
 4015SOL    HW315827   6.099   5.056   0.738  0.6183 -0.7907  0.6456
 4015SOL    MW415828   6.103   5.112   0.805 -0.4845  0.0366 -0.2195
 4016SOL     OW15829   5.241   1.314   1.876 -0.2010 -0.1346 -0.1878
 4016SOL    HW215830   5.275   1.329   1.788  1.6133 -1.6074  0.2094
 4016SOL    HW315831   5.247   1.400   1.919  2.6277 -0.1888 -0.3162
 4016SOL    MW415832   5.246   1.328   1.870 -0.2363 -0.1596  0.2128
 4017SOL     OW15833   4.200   1.038   0.589  0.7064  0.3639  1.2063
 4017SOL    HW215834   4.191   0.954   0.634 -0.7725  0.3370  0.8866
 4017SOL    HW315835   4.116   1.081   0.601  0.5509  0.7069 -0.8143
 4017SOL    MW415836   4.188   1.033   0.596  0.7407  0.3842 -0.0447
 4018SOL     OW15837   3.976   4.503   4.595 -0.1942 -0.6078 -0.1696
 4018SOL    HW215838   3.961   4.587   4.551  0.9547  0.2112  0.9400
 4018SOL    HW315839   3.889   4.475   4.623 -0.6620 -0.0702 -1.0271
 4018SOL    MW415840   3.963   4.510   4.593 -0.4649  0.0453 -0.1906
 4019SOL     OW15841   6.458   4.112   3.713 -0.0308 -0.6305 -0.8271
 4019SOL    HW215842   6.517   4.176   3.673 -1.1034  1.9324  1.4280
 4019SOL    HW315843   6.507   4.078   3.788 -0.7521  0.2946  0.0927
 4019SOL    MW415844   6.472   4.116   3.718  0.0265  0.4122  0.1855
 4020SOL     OW15845   3.125   3.149   3.340  0.0939  0.2182  0.1559
 4020SOL    HW215846   3.092   3.152   3.430  1.6223 -0.3886  0.7745
 4020SOL    HW315847   3.085   3.225   3.298 -1.7545 -0.2659  0.9304
 4020SOL    MW415848   3.115   3.159   3.347  0.2145  0.0010  0.5147
 4021SOL     OW15849   2.157   3.155   3.206  0.3249  0.0270 -0.3522
 4021SOL    HW215850   2.169   3.239   3.161 -1.0935  1.6149  2.0716
 4021SOL    HW315851   2.180   3.173   3.297 -2.6787 -1.4449  0.8039
 4021SOL    MW415852   2.162   3.168   3.212 -0.1653  0.1277  0.0853
 4022SOL     OW15853   3.536   4.063   6.183 -0.2702 -0.1713 -0.3548
 4022SOL    HW215854   3.514   4.042   6.092 -0.7350  2.0700 -0.8288
 4022SOL    HW315855   3.544   4.158   6.184  2.6087 -0.3041  1.3475
 4022SOL    MW415856   3.534   4.073   6.171  0.1080 -0.1102  0.4161
 4023SOL     OW15857   4.970   5.718   5.698 -0.0731 -0.1145  0.2283
 4023SOL    HW215858   4.888   5.723   5.648  0.2355 -1.7164 -0.5094
 4023SOL    HW315859   4.945   5.676   5.780 -0.2951  1.0646  0.7803
 4023SOL    MW415860   4.956   5.713   5.702  0.2201 -0.4029  0.2574
 4024SOL     OW15861   3.505   3.926   5.923  0.2227  0.0766 -0.3587
 4024SOL    HW215862   3.427   3.980   5.910 -0.8074 -1.7731 -2.6732
 4024SOL    HW315863   3.576   3.978   5.885 -0.4558  0.4677 -1.1289
 4024SOL    MW415864   3.504   3.940   5.916  0.0985 -0.4514 -0.8383
 4025SOL     OW15865   5.563   1.466   2.447 -0.0511 -0.3438  0.9533
 4025SOL    HW215866   5.580   1.376   2.473 -0.6795  0.4127  4.3491
 4025SOL    HW315867   5.640   1.514   2.476  0.5323  0.2275 -1.3211
 4025SOL    MW415868   5.575   1.461   2.454 -0.3888  0.0878  0.1261
 4026SOL     OW15869   4.223   3.258   3.646  0.5196 -0.1163 -0.4642
 4026SOL    HW215870   4.305   3.210   3.638  0.8662  0.6276 -1.6489
 4026SOL    HW315871   4.209   3.295   3.559  0.0728  1.6073  0.3140
 4026SOL    MW415872   4.232   3.256   3.633 -0.0866 -0.1557 -0.0973
 4027SOL     OW15873   5.099   5.772   4.036 -0.9521  0.2066  0.3724
 4027SOL    HW215874   5.079   5.683   4.005 -1.0754  0.2929  0.2094
 4027SOL    HW315875   5.048   5.781   4.116 -1.8717  0.5663 -0.2443
 4027SOL    MW415876   5.090   5.761   4.043 -0.7146 -0.3216  0.5056
 4028SOL     OW15877   3.257   2.506   1.510  0.0243 -0.2307  0.2024
 4028SOL    HW215878   3.249   2.466   1.423 -2.6334 -0.4840  0.4742
 4028SOL    HW315879   3.254   2.431   1.570  4.2263 -0.2981  0.5905
 4028SOL    MW415880   3.256   2.491   1.507 -0.0410 -0.7620 -0.6962
 4029SOL     OW15881   4.735   1.571   4.780  0.5667  0.0441  1.0049
 4029SOL    HW215882   4.669   1.553   4.713  1.2928 -0.6603  0.4484
 4029SOL    HW315883   4.817   1.540   4.742  1.1282  0.3519  1.9148
 4029SOL    MW415884   4.737   1.564   4.766 -0.1163 -0.5342  0.2927
 4030SOL     OW15885   2.502   0.188   1.186 -0.0890 -0.2224  0.1873
 4030SOL    HW215886   2.575   0.129   1.207  0.1670 -0.0316 -0.1705
 4030SOL    HW315887   2.544   0.266   1.151 -0.4507  0.0308  0.3185
 4030SOL    MW415888   2.517   0.190   1.184  0.2096  0.2432  0.4131
 4031SOL     OW15889   5.728   0.748   4.183 -0.1462 -0.3090  0.4097
 4031SOL    HW215890   5.757   0.795   4.105 -1.2403 -2.6016 -1.5367
 4031SOL    HW315891   5.807   0.706   4.217 -0.0526 -1.5554 -1.2113
 4031SOL    MW415892   5.742   0.748   4.177  0.0592  0.0550 -0.4250
 4032SOL     OW15893   2.895   0.967   3.322  0.5058  0.9463 -0.0315
 4032SOL    HW215894   2.989   0.950   3.325  0.7431  1.9850 -0.8882
 4032SOL    HW315895   2.864   0.919   3.246  0.3947  0.8249  0.0901
 4032SOL    MW415896   2.903   0.959   3.313 -0.3498  0.0658 -0.8083
 4033SOL     OW15897   3.811   2.161   2.136 -0.1032  0.5623 -0.5721
 4033SOL    HW215898   3.901   2.129   2.132 -0.1940  0.3320 -0.8161
 4033SOL    HW315899   3.773   2.120   2.213  0.4792  1.9215  0.4774
 4033SOL    MW415900   3.818   2.151   2.145 -0.2629  0.2490 -0.4896
 4034SOL     OW15901   4.051   1.064   3.612  0.0423  0.5400 -0.4357
 4034SOL    HW215902   4.010   1.021   3.687 -0.6918 -0.0655 -1.1693
 4034SOL    HW315903   4.092   1.142   3.649  1.7259 -0.9505  0.9924
 4034SOL    MW415904   4.051   1.069   3.627 -0.4826 -0.3312  0.8961
 4035SOL     OW15905   2.703   0.634   4.553 -0.4292  0.0367  0.4439
 4035SOL    HW215906   2.717   0.685   4.633 -2.0701 -0.9954  1.4566
 4035SOL    HW315907   2.726   0.545   4.577 -0.1107 -0.1573 -0.5209
 4035SOL    MW415908   2.708   0.629   4.567 -0.5009  0.7032  0.1078
 4036SOL     OW15909   6.463   2.269   5.231 -0.0356  0.0216  0.6812
 4036SOL    HW215910   6.437   2.340   5.290 -0.6353 -1.0096  1.7061
 4036SOL    HW315911   6.474   2.194   5.289 -0.7291 -1.0496 -0.5345
 4036SOL    MW415912   6.461   2.269   5.246  0.2750  0.2792  0.3972
 4037SOL     OW15913   2.739   3.451   3.652  0.7413 -0.1335 -0.3801
 4037SOL    HW215914   2.718   3.418   3.739  2.8334 -1.0285 -0.1566
 4037SOL    HW315915   2.722   3.378   3.592 -1.3022  0.6709 -0.8806
 4037SOL    MW415916   2.734   3.437   3.655  0.3075  0.0420 -0.4802
 4038SOL     OW15917   5.090   3.723   0.508  0.0202  0.8076 -0.1338
 4038SOL    HW215918   5.167   3.756   0.554  0.1144  0.4386 -0.0229
 4038SOL    HW315919   5.096   3.628   0.515 -1.0308  0.7882  0.8690
 4038SOL    MW415920   5.101   3.715   0.515 -0.1732 -0.0426 -0.0759
 4039SOL     OW15921   2.776   5.850   1.252  0.1320  0.1352 -0.0765
 4039SOL    HW215922   2.711   5.781   1.264  0.5929 -0.4643 -0.9244
 4039SOL    HW315923   2.732   5.917   1.200  0.0521 -0.0716 -0.2764
 4039SOL    MW415924   2.762   5.850   1.247  0.1829  0.0469 -0.0725
 4040SOL     OW15925   4.821   2.744   0.369  0.0174  0.4411  0.7414
 4040SOL    HW215926   4.799   2.750   0.462  0.4847  0.8846  0.8311
 4040SOL    HW315927   4.901   2.796   0.360  1.3990 -1.5886  0.5559
 4040SOL    MW415928   4.829   2.751   0.380 -0.9184  0.0026  0.4984
 4041SOL     OW15929   5.796   3.525   4.887 -0.2846 -0.2119 -0.3094
 4041SOL    HW215930   5.886   3.493   4.886 -0.5336 -0.9389  0.0780
 4041SOL    HW315931   5.804   3.620   4.876  0.5160 -0.2870 -0.4212
 4041SOL    MW415932   5.809   3.533   4.885 -0.4191  0.2609 -0.2119
 4042SOL     OW15933   4.003   0.868   1.168  0.5193  0.3072  0.4705
 4042SOL    HW215934   3.947   0.806   1.122 -0.3264  1.2040  0.2757
 4042SOL    HW315935   3.943   0.926   1.213  1.3092 -0.4915  2.6985
 4042SOL    MW415936   3.988   0.867   1.168  0.4520 -0.4487 -0.7652
 4043SOL     OW15937   4.574   5.830   2.938 -0.3639 -0.5073 -0.0161
 4043SOL    HW215938   4.601   5.866   3.023  0.8345  3.0658 -1.7187
 4043SOL    HW315939   4.485   5.863   2.926  0.6006  1.7897 -1.4197
 4043SOL    MW415940   4.566   5.839   2.948  0.0311  0.3485 -0.1119
 4044SOL     OW15941   0.056   5.511   0.740  0.1760  0.2140 -0.3119
 4044SOL    HW215942   0.002   5.587   0.761  0.0915  0.5952 -1.8274
 4044SOL    HW315943   0.120   5.543   0.677  1.1956 -0.6006  0.2849
 4044SOL    MW415944   0.057   5.525   0.734  0.0820  0.0901 -0.3862
 4045SOL     OW15945   0.075   5.447   4.528 -0.1277 -0.3002 -0.2298
 4045SOL    HW215946   0.059   5.405   4.612 -0.6986  1.0600  0.3677
 4045SOL    HW315947  -0.003   5.499   4.512  0.3895  0.2242 -1.1272
 4045SOL    MW415948   0.063   5.448   4.537  0.0328  0.5519  0.2666
 4046SOL     OW15949   5.371   4.871   4.452  0.4197  0.2391  0.1486
 4046SOL    HW215950   5.327   4.950   4.482  0.2191 -0.0172  0.5261
 4046SOL    HW315951   5.420   4.900   4.374  0.7558  0.8489  0.5746
 4046SOL    MW415952   5.372   4.885   4.445  0.5005 -0.2957  0.2332
 4047SOL     OW15953   0.328   1.286   1.554  0.4876 -0.1432 -0.1863
 4047SOL    HW215954   0.236   1.274   1.578  0.8956 -1.0203  1.0263
 4047SOL    HW315955   0.325   1.326   1.467 -1.0274 -1.2973 -0.7084
 4047SOL    MW415956   0.315   1.290   1.546  0.0580 -0.1042  0.5846
 4048SOL     OW15957   3.385   1.866   3.697 -0.2742 -0.1626  0.1113
 4048SOL    HW215958   3.306   1.917   3.717 -0.0284 -0.0491  0.8345
 4048SOL    HW315959   3.352   1.788   3.652 -0.6300  0.7852 -1.3370
 4048SOL    MW415960   3.370   1.862   3.694  0.1594  0.0321 -0.5656
 4049SOL     OW15961   3.302   1.649   6.198  0.1574  0.0792 -0.4226
 4049SOL    HW215962   3.379   1.704   6.213  0.1287  0.3004 -1.0498
 4049SOL    HW315963   3.337   1.563   6.174  0.2100 -0.4390  1.3478
 4049SOL    MW415964   3.317   1.645   6.197 -0.8708  0.1959  0.2820
 4050SOL     OW15965   0.322   2.733   3.224  0.0864 -0.3306  0.0685
 4050SOL    HW215966   0.357   2.662   3.170  1.3976  0.4021 -0.0922
 4050SOL    HW315967   0.346   2.709   3.313 -1.0522 -0.9578  0.2264
 4050SOL    MW415968   0.330   2.721   3.229  0.5353 -0.5117  0.2489
 4051SOL     OW15969   1.327   3.428   6.338  0.2503 -0.5946  0.3543
 4051SOL    HW215970   1.332   3.393   6.250  0.2055  1.2914 -0.4452
 4051SOL    HW315971   1.374   3.365   6.393 -0.2570 -2.1046 -0.8905
 4051SOL    MW415972   1.334   3.415   6.334 -0.0031 -0.4384  0.3227
 4052SOL     OW15973   2.050   3.910   3.391  0.3372  0.3808 -0.4221
 4052SOL    HW215974   1.955   3.924   3.392  0.4239  1.0032 -0.4228
 4052SOL    HW315975   2.081   3.953   3.470  0.3775 -1.7624  0.8018
 4052SOL    MW415976   2.042   3.918   3.401 -0.2952 -0.0978 -0.6356
 4053SOL     OW15977   3.685   1.837   0.040  0.1028 -0.0548  0.4239
 4053SOL    HW215978   3.706   1.915  -0.010 -0.0721  0.9351  1.8307
 4053SOL    HW315979   3.748   1.772   0.011  1.6586  1.2575  0.7425
 4053SOL    MW415980   3.696   1.839   0.030 -0.4539  0.2273 -0.4071
 4054SOL     OW15981   0.477   3.131   2.650 -0.1281  0.4270 -0.1166
 4054SOL    HW215982   0.546   3.144   2.715 -0.3363  0.6867  0.0481
 4054SOL    HW315983   0.407   3.190   2.676 -0.5872 -0.1422 -0.0480
 4054SOL    MW415984   0.477   3.140   2.662 -0.0032 -0.2637  0.5037
 4055SOL     OW15985   0.060   0.973   3.254  0.5586 -0.5602  1.0377
 4055SOL    HW215986   0.062   1.014   3.340 -1.0558 -0.7060  1.1696
 4055SOL    HW315987   0.009   0.893   3.265 -0.1665 -0.2914 -0.1567
 4055SOL    MW415988   0.054   0.968   3.267  0.0572  0.1589 -0.5337
 4056SOL     OW15989   4.752   3.464   5.510  0.0686  0.5205 -0.4771
 4056SOL    HW215990   4.828   3.458   5.451  1.2375 -0.8829  1.0869
 4056SOL    HW315991   4.789   3.491   5.594 -1.2002  0.0611  0.2579
 4056SOL    MW415992   4.767   3.467   5.513 -0.0062  0.1891 -0.0656
 4057SOL     OW15993   5.849   6.173   2.267 -0.1858 -0.4287 -0.3368
 4057SOL    HW215994   5.929   6.226   2.270  0.8050 -1.8870 -0.3961
 4057SOL    HW315995   5.855   6.116   2.343 -1.7593  0.2144  0.3127
 4057SOL    MW415996   5.860   6.173   2.277 -0.1816  0.2975 -0.3475
 4058SOL     OW15997   5.990   5.274   3.332 -0.4643 -0.5074  0.0059
 4058SOL    HW215998   5.944   5.225   3.264 -1.4138  1.0246 -0.4998
 4058SOL    HW315999   6.079   5.284   3.298 -0.7817 -0.2262 -0.7755
 4058SOL    MW416000   5.996   5.269   3.318  0.0292  0.2127  0.2987
 4059SOL     OW16001   0.886   4.698   4.089 -0.0907  0.0883 -0.2510
 4059SOL    HW216002   0.823   4.689   4.018 -0.5278  0.0348  0.1305
 4059SOL    HW316003   0.922   4.786   4.079  0.6910 -0.3294 -1.2029
 4059SOL    MW416004   0.882   4.708   4.079 -0.5241  0.2331 -0.0914
 4060SOL     OW16005   0.704   5.127   0.913 -0.0504 -0.2502  0.3467
 4060SOL    HW216006   0.668   5.154   0.997  1.0318 -0.6428  0.9583
 4060SOL    HW316007   0.729   5.035   0.926 -0.5971 -0.5444 -0.6493
 4060SOL    MW416008   0.703   5.119   0.926  0.4628  0.1605 -0.1455
 4061SOL     OW16009   4.102   3.737   4.299  0.1869  0.2432  0.0742
 4061SOL    HW216010   4.043   3.789   4.244  2.2137  0.1006 -2.4266
 4061SOL    HW316011   4.080   3.646   4.278  1.7906  0.1810 -1.6041
 4061SOL    MW416012   4.091   3.732   4.289 -0.0821 -0.3244 -0.0779
 4062SOL     OW16013   1.242   1.244   1.354  0.2426 -0.0334 -0.4719
 4062SOL    HW216014   1.225   1.337   1.345  2.3022  0.4796  0.5375
 4062SOL    HW316015   1.276   1.217   1.269 -0.1888  0.1554 -0.7079
 4062SOL    MW416016   1.244   1.252   1.342  0.4615  0.3006 -0.4392
 4063SOL     OW16017   5.878   0.211   4.878 -0.2964  0.1909 -0.2191
 4063SOL    HW216018   5.965   0.181   4.852  0.3105  2.4051 -1.0048
 4063SOL    HW316019   5.818   0.168   4.817  0.1502 -1.6730  0.5855
 4063SOL    MW416020   5.882   0.202   4.866  0.4101 -0.0497  0.1084
 4064SOL     OW16021   6.252   3.976   1.398 -0.8907 -0.4989 -0.3291
 4064SOL    HW216022   6.227   4.068   1.403  0.6459 -0.0960  3.5707
 4064SOL    HW316023   6.169   3.928   1.401 -1.6485  0.7108 -1.0986
 4064SOL    MW416024   6.237   3.982   1.399 -0.3643 -0.5967  0.3319
 4065SOL     OW16025   4.368   5.219   2.871  0.0017 -0.1209  0.0876
 4065SOL    HW216026   4.375   5.129   2.902  1.2334  0.1555  0.6778
 4065SOL    HW316027   4.406   5.272   2.942 -2.0977  1.0207  0.4518
 4065SOL    MW416028   4.374   5.214   2.885  0.0733 -0.0847  0.2083
 4066SOL     OW16029   4.517   3.277   2.014 -0.4974 -0.6402  0.0956
 4066SOL    HW216030   4.575   3.215   1.971 -1.0988 -0.1376 -1.5074
 4066SOL    HW316031   4.429   3.252   1.987 -0.7490  0.9435 -0.6769
 4066SOL    MW416032   4.513   3.266   2.005 -0.0407  0.5131  0.7958
 4067SOL     OW16033   3.673   3.129   0.416  0.3768  0.2413  0.1547
 4067SOL    HW216034   3.624   3.168   0.344  0.9407  1.9673  0.6438
 4067SOL    HW316035   3.765   3.141   0.392  0.5664  0.5911  1.0106
 4067SOL    MW416036   3.679   3.136   0.404 -0.0309  0.9329 -0.1151
 4068SOL     OW16037   0.274   0.620   0.263 -0.4417  0.0210 -0.3108
 4068SOL    HW216038   0.208   0.689   0.257 -0.2808  0.0926 -1.3666
 4068SOL    HW316039   0.301   0.621   0.355  0.1081  1.9025 -0.4547
 4068SOL    MW416040   0.269   0.629   0.274 -0.9209  0.0219  0.2814
 4069SOL     OW16041   5.270   5.916   5.273  0.1809 -0.1552 -0.1746
 4069SOL    HW216042   5.350   5.882   5.314  0.5122 -0.2637 -0.8993
 4069SOL    HW316043   5.231   5.972   5.340 -0.1365 -1.5646  0.8898
 4069SOL    MW416044   5.275   5.919   5.287  0.0814 -0.1346 -0.0562
 4070SOL     OW16045   4.929   6.293   1.908 -0.1664 -0.1382 -0.3614
 4070SOL    HW216046   4.850   6.285   1.962  0.6054  0.0585  0.8439
 4070SOL    HW316047   4.941   6.206   1.871  0.0982 -0.6914  0.9775
 4070SOL    MW416048   4.920   6.281   1.910 -0.2295  0.4903 -0.5650
 4071SOL     OW16049   5.893   4.605   0.804 -0.3162 -0.1370  0.4635
 4071SOL    HW216050   5.970   4.654   0.833 -1.8301  0.6308  3.5172
 4071SOL    HW316051   5.886   4.531   0.864 -1.7692 -0.3670  0.0629
 4071SOL    MW416052   5.902   4.602   0.815 -0.1148  0.5071  0.0708
 4072SOL     OW16053   0.898   4.139   5.596 -0.6522  0.2221 -0.1832
 4072SOL    HW216054   0.947   4.080   5.540 -1.6901 -0.1152 -0.7582
 4072SOL    HW316055   0.958   4.211   5.614  0.8667 -1.2475  1.0219
 4072SOL    MW416056   0.912   4.141   5.591  0.0379 -0.3930  0.0219
 4073SOL     OW16057   2.164   4.467   5.597  0.2754  0.1389  0.0242
 4073SOL    HW216058   2.078   4.425   5.609  0.9394 -1.1179  0.5796
 4073SOL    HW316059   2.209   4.451   5.680  1.8333 -1.1475 -1.0142
 4073SOL    MW416060   2.158   4.459   5.609  0.0355  0.2370  0.3707
 4074SOL     OW16061   2.226   0.128   1.550 -0.8129  0.4859 -0.3917
 4074SOL    HW216062   2.255   0.207   1.596 -2.4877  0.6126  0.4994
 4074SOL    HW316063   2.307   0.091   1.514  0.3172  1.3130  1.1825
 4074SOL    MW416064   2.241   0.134   1.551 -0.1666 -0.2538  0.1007
 4075SOL     OW16065   4.046   5.917   4.367  0.2141  0.1564  0.4088
 4075SOL    HW216066   4.018   5.917   4.458 -0.1934  0.9068  0.2841
 4075SOL    HW316067   4.115   5.982   4.362 -1.3723  1.8633 -0.2906
 4075SOL    MW416068   4.051   5.925   4.378  0.1961 -0.4961  0.1662
 4076SOL     OW16069   5.262   3.081   4.222  0.0091 -0.2637 -0.4046
 4076SOL    HW216070   5.221   3.108   4.304 -0.1376 -0.3162 -0.4597
 4076SOL    HW316071   5.356   3.089   4.238 -0.0379  0.6991 -0.5642
 4076SOL    MW416072   5.269   3.085   4.235  0.1772  0.4338  0.0287
 4077SOL     OW16073   4.622   3.026   1.686 -0.4262 -0.1756 -0.0458
 4077SOL    HW216074   4.654   2.936   1.677 -1.1279 -0.2843 -2.0191
 4077SOL    HW316075   4.643   3.050   1.776  0.0315 -2.2125  0.4464
 4077SOL    MW416076   4.629   3.017   1.696 -0.5856 -0.4106  0.0267
 4078SOL     OW16077   6.046   3.768   0.600  0.0651 -0.5874 -0.4639
 4078SOL    HW216078   5.987   3.711   0.551 -0.8629 -0.1773  0.1342
 4078SOL    HW316079   6.079   3.714   0.671 -0.5836 -0.4876 -0.0712
 4078SOL    MW416080   6.042   3.754   0.603 -0.6882 -0.6540 -0.0710
 4079SOL     OW16081   5.477   4.390   0.029 -0.1079  0.1105  0.4122
 4079SOL    HW216082   5.457   4.303   0.062  0.4940 -0.3004 -0.2770
 4079SOL    HW316083   5.444   4.449   0.096 -0.2621 -0.6533  1.0240
 4079SOL    MW416084   5.470   4.386   0.042  0.1582  0.3593 -0.2849
 4080SOL     OW16085   4.487   2.076   5.044  0.2585  0.3215  0.3755
 4080SOL    HW216086   4.514   2.168   5.051 -1.2007  0.7196  1.3390
 4080SOL    HW316087   4.548   2.029   5.101  1.3907  0.5686 -0.5789
 4080SOL    MW416088   4.499   2.082   5.052 -0.7402 -0.3575  0.5783
 4081SOL     OW16089   4.416   0.258   2.863  0.3044  0.4275 -0.0322
 4081SOL    HW216090   4.411   0.292   2.953 -1.1547  0.4576 -0.1027
 4081SOL    HW316091   4.481   0.188   2.868 -2.0158 -1.8384  1.8666
 4081SOL    MW416092   4.424   0.253   2.876  0.3923 -0.2892  0.1873
 4082SOL     OW16093   3.164   0.231   5.454  0.1680 -0.1210  0.0443
 4082SOL    HW216094   3.249   0.198   5.425  0.3715  0.6387 -0.2732
 4082SOL    HW316095   3.118   0.154   5.487  1.0035 -0.5387  0.2873
 4082SOL    MW416096   3.169   0.217   5.455  0.0600 -0.6665 -0.6730
 4083SOL     OW16097   4.991   5.674   2.996  0.0264 -0.1342 -0.1840
 4083SOL    HW216098   4.962   5.747   3.051 -2.2811 -0.1283 -1.2764
 4083SOL    HW316099   4.933   5.601   3.022  0.8576 -0.9538 -0.5964
 4083SOL    MW416100   4.979   5.674   3.007 -0.0557 -0.1307  0.1249
 4084SOL     OW16101   3.619   2.582   3.160 -0.2121 -0.4446 -0.0096
 4084SOL    HW216102   3.706   2.617   3.147 -0.4912  0.5769  0.7377
 4084SOL    HW316103   3.604   2.589   3.255 -1.1011 -0.6108 -0.1238
 4084SOL    MW416104   3.628   2.587   3.171 -0.1099 -0.4393  0.0328
 4085SOL     OW16105   3.894   4.440   0.226 -0.1262  0.0951  0.6968
 4085SOL    HW216106   3.831   4.491   0.174  0.7820 -0.4755 -1.0671
 4085SOL    HW316107   3.967   4.501   0.239 -0.5888  0.4271  1.8674
 4085SOL    MW416108   3.895   4.455   0.221  0.2330 -0.5988 -0.4940
 4086SOL     OW16109   2.105   3.895   0.713 -0.6695  0.0402  0.6947
 4086SOL    HW216110   2.105   3.979   0.758  0.8937  0.1795  0.4716
 4086SOL    HW316111   2.122   3.916   0.621 -1.2967 -0.4499  0.4567
 4086SOL    MW416112   2.107   3.909   0.707  0.2603 -0.0125  0.2676
 4087SOL     OW16113   0.485   1.900   2.480 -0.2029  0.4957 -0.0969
 4087SOL    HW216114   0.536   1.875   2.557  0.3084 -0.6322 -0.7641
 4087SOL    HW316115   0.530   1.977   2.445 -0.0755  0.6404  0.3902
 4087SOL    MW416116   0.498   1.907   2.485  0.3534 -0.7158 -0.2187
 4088SOL     OW16117   1.681   1.523   4.947 -0.1396  0.0800  0.2587
 4088SOL    HW216118   1.631   1.456   4.900 -0.3162  0.3946 -0.0110
 4088SOL    HW316119   1.770   1.514   4.913 -0.2486  0.2468 -0.0758
 4088SOL    MW416120   1.686   1.513   4.936  0.6980  1.0727  0.6141
 4089SOL     OW16121   0.330   5.811   3.318 -0.1944 -0.8493 -0.8737
 4089SOL    HW216122   0.384   5.744   3.361 -0.1138 -0.3098 -0.1112
 4089SOL    HW316123   0.261   5.830   3.381  0.6535  0.8791 -0.4023
 4089SOL    MW416124   0.328   5.804   3.332 -0.1070  0.6279 -0.0490
 4090SOL     OW16125   4.316   3.434   4.949  0.0849 -0.1981 -0.0355
 4090SOL    HW216126   4.289   3.524   4.931  0.7591 -0.1728 -0.9884
 4090SOL    HW316127   4.323   3.430   5.044 -1.3531  0.3358  0.1170
 4090SOL    MW416128   4.314   3.445   4.959 -0.6058  0.2738 -0.1247
 4091SOL     OW16129   3.780   3.269   2.475 -0.4657 -0.3084  0.4048
 4091SOL    HW216130   3.723   3.197   2.450  0.2424 -0.7294 -0.0403
 4091SOL    HW316131   3.846   3.229   2.532 -0.0647 -0.0181  0.1523
 4091SOL    MW416132   3.781   3.254   2.480 -0.0578 -0.0074  0.1105
 4092SOL     OW16133   1.451   5.173   3.975  0.6834 -0.4725  0.5649
 4092SOL    HW216134   1.494   5.240   4.028  2.2230 -1.0152  0.0490
 4092SOL    HW316135   1.454   5.094   4.030  1.3114 -0.7679  0.1193
 4092SOL    MW416136   1.457   5.171   3.989  0.7384  0.2875 -0.0309
 4093SOL     OW16137   5.808   6.386   1.366  0.0593 -0.2296 -0.3193
 4093SOL    HW216138   5.716   6.366   1.379  0.0387  0.4025  0.6425
 4093SOL    HW316139   5.819   6.393   1.271 -0.8667 -0.3615 -0.4393
 4093SOL    MW416140   5.797   6.384   1.355 -0.2625 -0.2044  0.0174
 4094SOL     OW16141   3.823   3.856   5.632 -0.0857 -0.1303 -0.4119
 4094SOL    HW216142   3.780   3.842   5.548 -2.6043 -1.3232  0.9907
 4094SOL    HW316143   3.786   3.791   5.690  0.6401  1.4537  1.9871
 4094SOL    MW416144   3.813   3.846   5.628 -0.1489 -0.1235 -0.0671
 4095SOL     OW16145   2.057   4.483   2.462  0.1431 -0.0520  0.2496
 4095SOL    HW216146   1.967   4.490   2.430  0.0594 -1.5425  0.0867
 4095SOL    HW316147   2.049   4.468   2.556  0.2661  0.7319  0.3919
 4095SOL    MW416148   2.044   4.482   2.470 -0.1714  0.0760 -0.0233
 4096SOL     OW16149   5.811   5.980   0.500 -0.3242 -0.1172  0.7001
 4096SOL    HW216150   5.798   5.888   0.521 -2.6609 -0.1195 -0.5025
 4096SOL    HW316151   5.783   5.989   0.409 -0.8763  1.9259  1.0183
 4096SOL    MW416152   5.806   5.969   0.491  0.0363  0.1568  0.7554
 4097SOL     OW16153   5.390   0.300   3.011  0.0749  0.0812  0.1050
 4097SOL    HW216154   5.407   0.332   3.099  1.1922  2.1175 -0.7756
 4097SOL    HW316155   5.409   0.207   3.015  1.6431  0.4130  1.6672
 4097SOL    MW416156   5.395   0.292   3.023 -0.1958 -0.5541  0.1984
 4098SOL     OW16157   5.439   0.729   2.345  0.1057 -0.1064  0.0200
 4098SOL    HW216158   5.501   0.746   2.416 -0.0580  0.9640 -0.0768
 4098SOL    HW316159   5.375   0.669   2.383  0.1965  0.2032  0.6794
 4098SOL    MW416160   5.439   0.724   2.359 -0.0324 -0.3525  0.5493
 4099SOL     OW16161   1.034   4.237   0.926  0.2135  0.5393 -0.2594
 4099SOL    HW216162   1.072   4.237   1.014  1.3818  2.7611 -0.7057
 4099SOL    HW316163   1.105   4.264   0.868 -0.8951  0.4393 -1.7325
 4099SOL    MW416164   1.048   4.240   0.930 -0.1868  0.1272  0.0226
 4100SOL     OW16165   1.187   1.606   3.968 -0.2806  0.0491 -0.4487
 4100SOL    HW216166   1.179   1.666   4.042 -1.0451 -1.6109  0.8551
 4100SOL    HW316167   1.098   1.595   3.936 -0.1802 -0.6118 -0.4995
 4100SOL    MW416168   1.175   1.613   3.973  0.0199  0.5425  0.1276
 4101SOL     OW16169   2.230   5.560   1.290  0.4403  0.5176 -0.8578
 4101SOL    HW216170   2.321   5.587   1.279  0.3829  0.2195 -2.2831
 4101SOL    HW316171   2.234   5.484   1.349  0.9382  1.4157  0.3144
 4101SOL    MW416172   2.243   5.554   1.296 -0.1225  0.1089 -0.3081
 4102SOL     OW16173   6.430   5.322   0.151  0.1184  0.1676  0.4252
 4102SOL    HW216174   6.404   5.314   0.059  2.0102 -0.0781 -0.1226
 4102SOL    HW316175   6.356   5.366   0.193 -1.4233 -1.0729 -0.8815
 4102SOL    MW416176   6.417   5.327   0.144 -0.0156  0.4803  0.6262
 4103SOL     OW16177   2.567   2.094   2.331 -0.2193 -0.1629  0.3024
 4103SOL    HW216178   2.532   2.066   2.416  1.8503  0.1096  1.2995
 4103SOL    HW316179   2.597   2.184   2.346  1.5206 -0.6134 -0.2504
 4103SOL    MW416180   2.566   2.102   2.344 -0.5298  0.5168 -0.0621
 4104SOL     OW16181   0.920   6.288   5.264 -0.1610  0.4645  0.1894
 4104SOL    HW216182   0.968   6.239   5.198 -1.7260 -0.2805 -0.4610
 4104SOL    HW316183   0.932   6.379   5.240 -1.2445  0.2016 -1.6050
 4104SOL    MW416184   0.928   6.293   5.252  0.5100  0.5814  0.1178
 4105SOL     OW16185   5.043   5.834   5.098  0.6829 -0.3023 -0.5204
 4105SOL    HW216186   5.123   5.841   5.150  0.1946  0.5022  0.1391
 4105SOL    HW316187   5.015   5.924   5.083 -0.1496 -0.5713 -0.6754
 4105SOL    MW416188   5.050   5.846   5.103 -0.2443  0.3447  0.1076
 4106SOL     OW16189   6.300   2.008   2.841 -0.4483 -0.8678 -0.3329
 4106SOL    HW216190   6.205   2.000   2.845 -0.5744  0.7276  1.8655
 4106SOL    HW316191   6.333   1.945   2.905 -0.1108 -0.5165 -0.1534
 4106SOL    MW416192   6.292   1.999   2.850  0.1011  0.0252  0.2531
 4107SOL     OW16193   3.944   5.976   3.037 -0.4088  0.0776  0.3140
 4107SOL    HW216194   3.946   5.922   2.958  1.1251  0.8546 -0.2307
 4107SOL    HW316195   3.854   6.005   3.044 -0.2864  1.2562 -2.0817
 4107SOL    MW416196   3.933   5.973   3.028 -0.1559 -0.2997  0.4990
 4108SOL     OW16197   4.552   6.003   4.880 -0.1015  0.3825 -0.4247
 4108SOL    HW216198   4.581   6.057   4.954 -1.4051  0.3653  0.1160
 4108SOL    HW316199   4.613   6.026   4.809  0.2163  1.5443  0.1892
 4108SOL    MW416200   4.564   6.013   4.881  0.1799 -0.1915 -0.5566
 4109SOL     OW16201   2.437   2.854   0.378 -0.2442  0.7307  0.5710
 4109SOL    HW216202   2.414   2.803   0.300 -1.1845  0.0451  1.2696
 4109SOL    HW316203   2.463   2.940   0.344  2.8888 -0.5944 -0.7664
 4109SOL    MW416204   2.437   2.859   0.363 -0.4897 -0.2413 -0.4211
 4110SOL     OW16205   2.621   4.177   6.169  0.8575  0.2797 -0.4381
 4110SOL    HW216206   2.648   4.147   6.082  2.9980  1.9249 -0.4268
 4110SOL    HW316207   2.535   4.137   6.182  0.9579 -0.9281 -2.8202
 4110SOL    MW416208   2.613   4.167   6.159  0.1230  0.1301  0.2915
 4111SOL     OW16209   6.084   6.059   0.897 -0.2765  0.0047  0.3889
 4111SOL    HW216210   5.990   6.068   0.879 -0.1976  0.6829  0.3152
 4111SOL    HW316211   6.095   6.093   0.986  0.0263  0.6889  0.0948
 4111SOL    MW416212   6.073   6.064   0.906  0.0023 -0.0299 -0.1619
 4112SOL     OW16213   5.339   5.018   5.118  0.5997  0.0800 -0.4492
 4112SOL    HW216214   5.246   5.019   5.096  0.6651  0.0112 -0.7284
 4112SOL    HW316215   5.343   4.981   5.207  0.2865  0.8642 -0.0974
 4112SOL    MW416216   5.327   5.014   5.127  0.0328 -0.7811 -0.3688
 4113SOL     OW16217   2.418   3.151   1.359 -0.0094 -0.1933 -0.7559
 4113SOL    HW216218   2.512   3.163   1.351  0.0576  0.7005  0.9297
 4113SOL    HW316219   2.396   3.186   1.446 -1.6258 -1.9657 -0.3677
 4113SOL    MW416220   2.427   3.157   1.370  0.3281 -0.4208 -0.6558
 4114SOL     OW16221   6.341   5.804   1.965 -0.0911 -0.4491 -0.4921
 4114SOL    HW216222   6.343   5.727   1.908 -1.6707  0.3513 -1.6891
 4114SOL    HW316223   6.276   5.782   2.032 -1.3547  0.1980 -1.4520
 4114SOL    MW416224   6.333   5.791   1.966 -0.2495  0.1958 -0.4546
 4115SOL     OW16225   1.111   4.060   5.352 -0.0341 -0.0603  0.3929
 4115SOL    HW216226   1.024   4.018   5.346  0.1815 -0.2723 -2.0952
 4115SOL    HW316227   1.172   3.992   5.323  0.7869  0.6241  0.4850
 4115SOL    MW416228   1.107   4.045   5.347  0.1286  0.0875 -1.1715
 4116SOL     OW16229   2.307   2.601   2.862  0.0669  0.5005 -0.2784
 4116SOL    HW216230   2.377   2.550   2.903  1.0593  0.0856 -2.3898
 4116SOL    HW316231   2.228   2.549   2.877  0.7729 -0.7654 -0.8276
 4116SOL    MW416232   2.306   2.587   2.870 -0.0886 -0.1097  0.0135
 4117SOL     OW16233   5.688   4.571   4.702  0.2609 -0.5185  1.0697
 4117SOL    HW216234   5.606   4.523   4.692  0.3952 -0.4342 -0.8330
 4117SOL    HW316235   5.674   4.626   4.779 -1.9088  0.2886  0.1813
 4117SOL    MW416236   5.675   4.572   4.711 -0.5070  0.0190 -0.2719
 4118SOL     OW16237   2.600   6.409   0.861  0.6380  0.5590  0.5274
 4118SOL    HW216238   2.554   6.345   0.915  0.5173 -0.0612 -0.2899
 4118SOL    HW316239   2.690   6.379   0.860  0.2204 -0.8132 -1.5210
 4118SOL    MW416240   2.605   6.397   0.868  0.3030 -0.2707 -0.1894
 4119SOL     OW16241   3.486   2.964   0.737 -0.5227 -0.3219 -0.2880
 4119SOL    HW216242   3.429   2.959   0.660 -0.2540 -3.9044 -0.4297
 4119SOL    HW316243   3.463   2.887   0.789  0.1563  1.3199  2.6826
 4119SOL    MW416244   3.476   2.953   0.734  0.0597  0.1696 -0.5071
 4120SOL     OW16245   0.575   2.058   1.203  0.1413  0.3867 -0.2894
 4120SOL    HW216246   0.488   2.036   1.236  0.8354 -1.1587  0.6203
 4120SOL    HW316247   0.615   2.108   1.273  0.5652 -0.3611  0.0185
 4120SOL    MW416248   0.569   2.061   1.216 -0.1246  0.3995 -0.0530
 4121SOL     OW16249   2.975   0.918   5.023 -0.1137 -0.0180  0.7009
 4121SOL    HW216250   3.033   0.852   4.985 -1.5762 -1.0375  0.1332
 4121SOL    HW316251   2.978   0.992   4.962 -0.3001 -0.5318  0.0609
 4121SOL    MW416252   2.983   0.919   5.010  0.1558  0.3972 -0.1110
 4122SOL     OW16253   5.029   2.702   2.773 -0.0191  0.7488 -0.0984
 4122SOL    HW216254   5.016   2.694   2.678 -0.2248  1.6776 -0.1631
 4122SOL    HW316255   5.072   2.787   2.784  0.6657  0.3235  0.5924
 4122SOL    MW416256   5.033   2.712   2.762  0.8516  0.3087  0.1025
 4123SOL     OW16257   0.203   5.514   6.007 -0.0456  0.1512 -0.2257
 4123SOL    HW216258   0.193   5.501   6.102 -0.1157 -2.7909 -0.5566
 4123SOL    HW316259   0.117   5.546   5.979 -0.0858  0.8725  0.6386
 4123SOL    MW416260   0.190   5.517   6.016  0.0040 -0.2805 -0.4472
 4124SOL     OW16261   3.835   6.008   1.851  0.1832 -0.2534 -0.0649
 4124SOL    HW216262   3.747   6.004   1.811  0.4709  3.0110 -1.3725
 4124SOL    HW316263   3.890   6.046   1.782  1.5707  2.1232  2.1969
 4124SOL    MW416264   3.830   6.013   1.836  0.6658  0.0354 -0.4911
 4125SOL     OW16265   6.193   4.230   2.146  0.1380  0.5061 -0.5077
 4125SOL    HW216266   6.269   4.211   2.201  0.5279  2.8295 -0.1638
 4125SOL    HW316267   6.212   4.186   2.063  1.4627  0.3701 -0.1514
 4125SOL    MW416268   6.206   4.222   2.143 -0.0658  0.0790  0.3392
 4126SOL     OW16269   5.457   2.904   4.481  0.2703 -0.1966 -0.2766
 4126SOL    HW216270   5.498   2.979   4.439 -0.0924  0.8372  1.1492
 4126SOL    HW316271   5.490   2.905   4.570  0.2364 -1.7293 -0.2223
 4126SOL    MW416272   5.467   2.914   4.487 -0.0465  0.1768 -0.5440
 4127SOL     OW16273   5.998   3.012   4.121  0.0024 -0.3691  0.4428
 4127SOL    HW216274   6.011   3.101   4.090  0.6641 -1.1021 -1.6010
 4127SOL    HW316275   6.083   2.969   4.109 -1.0307 -2.0608 -1.6974
 4127SOL    MW416276   6.011   3.018   4.115 -0.1273 -0.1331  0.2766
 4128SOL     OW16277   3.637   5.083   2.861  0.2824  0.2697  0.0736
 4128SOL    HW216278   3.712   5.105   2.917  0.7944  1.6144 -1.0952
 4128SOL    HW316279   3.612   4.995   2.889  2.3591 -0.2506  0.4572
 4128SOL    MW416280   3.644   5.074   2.872 -0.5302 -0.0967 -0.3446
 4129SOL     OW16281   1.773   1.241   5.053 -0.5892  0.1181 -0.5391
 4129SOL    HW216282   1.807   1.302   4.987  1.4174 -2.4098 -2.0454
 4129SOL    HW316283   1.751   1.162   5.003  0.5241 -1.7441  1.7365
 4129SOL    MW416284   1.774   1.238   5.037  0.5701 -0.5059 -0.0678
 4130SOL     OW16285   1.028   1.182   2.738  0.0843  0.0040  1.1966
 4130SOL    HW216286   0.955   1.214   2.790 -0.0765  0.5390  0.6469
 4130SOL    HW316287   1.022   1.087   2.745  0.1439  0.0653  2.2547
 4130SOL    MW416288   1.018   1.174   2.746 -1.1001 -0.1550 -0.0402
 4131SOL     OW16289   5.037   0.852   5.006  0.2389  0.1459 -0.9626
 4131SOL    HW216290   5.040   0.762   5.040  0.0609 -0.3284 -2.1707
 4131SOL    HW316291   5.028   0.906   5.085 -1.6022 -1.0128 -0.2982
 4131SOL    MW416292   5.036   0.847   5.021  0.2328 -0.0757 -0.5218
 4132SOL     OW16293   2.146   1.507   5.845 -0.2059  0.6238  0.2148
 4132SOL    HW216294   2.182   1.559   5.774 -0.5153  0.4109 -0.0988
 4132SOL    HW316295   2.066   1.468   5.809  0.6984 -1.1356 -0.0171
 4132SOL    MW416296   2.140   1.508   5.831 -0.2769 -0.1747  0.0543
 4133SOL     OW16297   5.276   1.257   0.487  0.1270 -0.0161  0.3722
 4133SOL    HW216298   5.207   1.278   0.550 -0.6264 -0.3140 -0.3436
 4133SOL    HW316299   5.323   1.339   0.475 -1.0605  0.5887 -0.2923
 4133SOL    MW416300   5.273   1.271   0.494  0.3769  0.5056 -0.2234
 4134SOL     OW16301   4.193   0.508   2.022  0.1729 -0.2135  0.1207
 4134SOL    HW216302   4.098   0.515   2.035 -0.4976 -2.5333 -2.5204
 4134SOL    HW316303   4.202   0.475   1.932  3.5520  0.8649 -0.0479
 4134SOL    MW416304   4.181   0.505   2.012 -0.1396  0.2892 -0.7251
 4135SOL     OW16305   1.515   5.208   3.058 -0.2185 -0.4105  0.0657
 4135SOL    HW216306   1.484   5.119   3.044 -2.3610  0.4603 -1.0450
 4135SOL    HW316307   1.469   5.237   3.137  0.8791 -0.4264  0.7348
 4135SOL    MW416308   1.505   5.200   3.066  0.6141 -0.3035 -0.1927
 4136SOL     OW16309   5.225   5.664   5.538  0.2972  0.2016  0.3632
 4136SOL    HW216310   5.239   5.721   5.463  3.4143  2.6363  2.5384
 4136SOL    HW316311   5.152   5.703   5.585  0.7491  0.9115  0.4877
 4136SOL    MW416312   5.217   5.676   5.534  0.6378 -0.4738  0.0842
 4137SOL     OW16313   3.754   0.005   2.665  0.3683  0.0309 -0.1335
 4137SOL    HW216314   3.726  -0.035   2.747 -1.0749 -0.8034 -0.9907
 4137SOL    HW316315   3.817  -0.058   2.628 -0.3057 -0.4468 -0.4819
 4137SOL    MW416316   3.759  -0.008   2.671 -0.1635 -0.3490  0.3118
 4138SOL     OW16317   1.120   0.634   3.336 -0.0851  0.3606 -0.3973
 4138SOL    HW216318   1.078   0.684   3.405 -0.3643 -0.4604  0.0472
 4138SOL    HW316319   1.208   0.672   3.328  0.4830 -0.4466  1.4328
 4138SOL    MW416320   1.126   0.645   3.344  0.3101  0.2185  0.0203
 4139SOL     OW16321   4.878   0.141   1.372  0.2944  0.2598  0.6594
 4139SOL    HW216322   4.917   0.160   1.457  1.2894 -1.5628  0.6331
 4139SOL    HW316323   4.952   0.131   1.313 -0.3682  0.7128 -0.2826
 4139SOL    MW416324   4.893   0.142   1.375  0.2428  0.3539 -0.3069
 4140SOL     OW16325   2.708   4.361   3.893 -0.0165 -0.0412 -0.4115
 4140SOL    HW216326   2.686   4.450   3.867  0.0649 -0.0888 -0.6470
 4140SOL    HW316327   2.764   4.329   3.822  0.2586 -0.1509 -0.1471
 4140SOL    MW416328   2.713   4.369   3.880  0.1643 -0.3097 -0.4574
 4141SOL     OW16329   2.258   1.922   6.008 -0.5834 -0.1878  0.0058
 4141SOL    HW216330   2.226   2.004   6.046  0.4931 -0.2427  1.1048
 4141SOL    HW316331   2.192   1.857   6.033 -0.0555 -0.1664  1.6141
 4141SOL    MW416332   2.245   1.924   6.016  0.5615  0.1908  0.5354
 4142SOL     OW16333   0.456   1.199   2.069  0.7231  0.3165 -0.5687
 4142SOL    HW216334   0.541   1.216   2.108  0.7375  1.1224 -0.9266
 4142SOL    HW316335   0.402   1.274   2.094  0.3267  0.1603 -0.9300
 4142SOL    MW416336   0.460   1.211   2.078 -0.3892 -0.0156  0.2815
 4143SOL     OW16337   3.468   6.241   4.636  0.4885  0.1858 -0.5476
 4143SOL    HW216338   3.479   6.151   4.666 -1.4143 -0.0801 -0.5135
 4143SOL    HW316339   3.556   6.269   4.610  0.9735 -2.0193 -1.5338
 4143SOL    MW416340   3.481   6.233   4.636  0.2008  0.1264  0.9206
 4144SOL     OW16341   6.401   4.055   0.728 -0.0793  0.2125  0.0717
 4144SOL    HW216342   6.358   4.013   0.802  1.8912 -0.3340  0.9821
 4144SOL    HW316343   6.331   4.099   0.681 -1.7277 -1.3481  0.9526
 4144SOL    MW416344   6.386   4.055   0.731 -0.0251 -0.1068  0.2912
 4145SOL     OW16345   4.647   5.527   4.769  0.2471  0.4957 -0.4600
 4145SOL    HW216346   4.730   5.479   4.767  0.4470  0.7265  1.1692
 4145SOL    HW316347   4.672   5.618   4.783 -0.2420  0.7208 -1.0327
 4145SOL    MW416348   4.661   5.533   4.771 -0.2297 -0.1777  0.4665
 4146SOL     OW16349   1.173   6.339   4.898  0.5982  0.0677  0.1550
 4146SOL    HW216350   1.256   6.327   4.850  0.9047 -1.6459  1.0327
 4146SOL    HW316351   1.169   6.433   4.915 -0.5285  1.2446 -4.9193
 4146SOL    MW416352   1.184   6.350   4.894  0.0441 -0.6378 -0.0160
 4147SOL     OW16353   3.294   3.897   5.217 -0.1763  0.4122 -0.3727
 4147SOL    HW216354   3.202   3.923   5.210 -0.0451  1.7625  2.0030
 4147SOL    HW316355   3.291   3.807   5.248 -0.6173 -0.6733 -3.2379
 4147SOL    MW416356   3.281   3.889   5.220 -0.5781 -0.1413 -0.8754
 4148SOL     OW16357   1.595   1.131   3.060  0.0160  0.3422 -0.0131
 4148SOL    HW216358   1.555   1.157   2.977  0.9485 -1.5695 -1.1268
 4148SOL    HW316359   1.587   1.035   3.062 -0.5401  0.3468  2.4315
 4148SOL    MW416360   1.588   1.122   3.050 -0.4681  0.1971 -0.4431
 4149SOL     OW16361   0.202   3.463   5.365  0.0253  0.3991  0.0413
 4149SOL    HW216362   0.291   3.499   5.360  0.3912 -0.5479 -0.3086
 4149SOL    HW316363   0.209   3.374   5.332 -0.8006 -0.1487  1.2402
 4149SOL    MW416364   0.215   3.456   5.360  0.2013 -0.1489  0.2416
 4150SOL     OW16365   3.229   4.806   0.614 -0.4919 -0.8539 -0.3484
 4150SOL    HW216366   3.317   4.842   0.628 -1.3362  0.9394  0.6858
 4150SOL    HW316367   3.203   4.772   0.699 -1.1193 -0.5980 -0.4327
 4150SOL    MW416368   3.238   4.806   0.627  0.3404 -0.3703  0.2651
 4151SOL     OW16369   6.021   2.099   5.777 -0.2844 -0.0347  0.4399
 4151SOL    HW216370   6.056   2.011   5.762 -1.4409 -0.5721  0.8029
 4151SOL    HW316371   6.049   2.149   5.700  1.1213 -0.4698  0.6408
 4151SOL    MW416372   6.030   2.094   5.765  0.5569  0.3606  0.2779
 4152SOL     OW16373   1.301   1.149   4.540 -0.2670 -0.3299  0.1970
 4152SOL    HW216374   1.375   1.118   4.488 -1.5322  0.4240 -2.2443
 4152SOL    HW316375   1.319   1.242   4.553 -0.7900 -0.1153 -0.5128
 4152SOL    MW416376   1.313   1.158   4.535 -0.0348 -0.3156  0.0960
 4153SOL     OW16377   5.872   4.005   1.128  0.1446  1.0018 -0.3962
 4153SOL    HW216378   5.944   4.044   1.078 -0.0826  2.2867  0.2247
 4153SOL    HW316379   5.915   3.964   1.203  0.5352 -1.3556 -1.7978
 4153SOL    MW416380   5.887   4.005   1.131  0.7488  0.3515  0.2353
 4154SOL     OW16381   4.742   4.024   1.793 -0.2054  0.5081  0.1103
 4154SOL    HW216382   4.751   3.931   1.811  0.5810  0.6274  0.3584
 4154SOL    HW316383   4.647   4.040   1.792 -0.6184 -1.0354 -3.6776
 4154SOL    MW416384   4.730   4.014   1.795  0.2184  0.0517  0.4209
 4155SOL     OW16385   4.482   6.198   3.987 -0.0105  0.0111 -0.0536
 4155SOL    HW216386   4.460   6.288   3.963  0.4497  0.2566  0.4330
 4155SOL    HW316387   4.399   6.150   3.977 -0.3170  0.5353 -0.0766
 4155SOL    MW416388   4.468   6.203   3.982  0.0726 -0.0201  0.5021
 4156SOL     OW16389   5.151   2.088   0.678  0.1599 -0.5121 -0.6522
 4156SOL    HW216390   5.199   2.068   0.598  1.0959 -0.5793 -0.0827
 4156SOL    HW316391   5.198   2.041   0.747  0.0020  0.4133  0.1040
 4156SOL    MW416392   5.164   2.079   0.676  0.6262  0.7655 -0.2276
 4157SOL     OW16393   3.067   2.102   2.245  0.1118 -0.9155  0.6707
 4157SOL    HW216394   3.034   2.038   2.181 -0.4748 -2.1968  2.1843
 4157SOL    HW316395   3.019   2.182   2.226 -0.3321 -1.3797 -0.2365
 4157SOL    MW416396   3.056   2.104   2.234  0.0409 -0.4993 -0.2756
 4158SOL     OW16397   3.304   0.305   2.578 -0.6489 -0.4845  0.1598
 4158SOL    HW216398   3.288   0.269   2.491  0.4603  0.1957 -0.3582
 4158SOL    HW316399   3.355   0.384   2.562 -0.3302 -0.4043  1.4364
 4158SOL    MW416400   3.309   0.310   2.565  0.0797 -0.1141 -0.2159
 4159SOL     OW16401   5.511   2.288   3.304 -0.6846  0.0126 -0.4845
 4159SOL    HW216402   5.503   2.303   3.398  0.2053 -1.5557 -0.1437
 4159SOL    HW316403   5.517   2.376   3.267 -0.3338  0.6319  0.9799
 4159SOL    MW416404   5.511   2.302   3.311  0.1938 -0.3086 -0.7082
 4160SOL     OW16405   1.912   3.155   1.025 -0.2405 -0.5749 -0.0939
 4160SOL    HW216406   1.858   3.089   0.981 -1.8106 -0.6197  1.7449
 4160SOL    HW316407   1.969   3.105   1.083  2.5599 -0.5904 -2.6323
 4160SOL    MW416408   1.912   3.140   1.027  0.0502  0.6762 -0.1135
 4161SOL     OW16409   3.102   5.509   2.581  0.3383  0.7605 -0.4753
 4161SOL    HW216410   3.145   5.594   2.586  1.4296  0.1597  1.3327
 4161SOL    HW316411   3.132   5.462   2.658 -1.8623 -0.5376 -0.3140
 4161SOL    MW416412   3.111   5.514   2.592  0.2985 -0.0250 -0.2694
 4162SOL     OW16413   5.581   6.302   0.836 -0.1440  0.1915  0.2927
 4162SOL    HW216414   5.499   6.336   0.870 -1.1397  1.1906 -2.7660
 4162SOL    HW316415   5.569   6.300   0.741  3.2746  0.1146 -0.2842
 4162SOL    MW416416   5.569   6.306   0.828 -0.7024 -0.1128  0.1755
 4163SOL     OW16417   4.650   2.675   4.411  0.0664 -0.0163 -0.6006
 4163SOL    HW216418   4.592   2.617   4.460  0.8189  1.1461  1.7858
 4163SOL    HW316419   4.724   2.691   4.469  1.0330  1.4355 -2.1363
 4163SOL    MW416420   4.652   2.669   4.425 -0.2431  0.1848 -0.3644
 4164SOL     OW16421   3.613   3.907   3.014  0.2268  0.0616  0.1852
 4164SOL    HW216422   3.527   3.903   3.056  1.2353  0.2250  2.3654
 4164SOL    HW316423   3.669   3.850   3.066  1.3026 -0.7261 -1.7032
 4164SOL    MW416424   3.609   3.899   3.026  0.2376  0.2679  0.6385
 4165SOL     OW16425   4.687   3.847   4.399  0.2799 -0.3305  0.2163
 4165SOL    HW216426   4.612   3.789   4.413 -0.7975  1.2506  1.3853
 4165SOL    HW316427   4.649   3.935   4.393  1.8692  0.3036 -1.2948
 4165SOL    MW416428   4.672   3.851   4.400  0.1264 -0.4733 -0.2417
 4166SOL     OW16429   1.686   1.281   3.948  0.1243 -0.9403 -0.3437
 4166SOL    HW216430   1.731   1.285   4.032 -0.2593  1.2167 -0.1881
 4166SOL    HW316431   1.715   1.198   3.909  3.1297 -0.3294  0.3621
 4166SOL    MW416432   1.696   1.270   3.954  0.9346  0.3703 -0.1228
 4167SOL     OW16433   2.595   5.872   4.315 -0.2427 -0.3944  0.2773
 4167SOL    HW216434   2.621   5.918   4.395 -0.6760  0.4715 -0.0680
 4167SOL    HW316435   2.501   5.889   4.307 -0.2241 -0.5637 -0.3582
 4167SOL    MW416436   2.586   5.881   4.324 -0.6547  0.3551 -0.7388
 4168SOL     OW16437   4.790   5.020   2.856  0.3003 -0.7827  0.0148
 4168SOL    HW216438   4.781   4.940   2.908  0.8694 -1.1388 -0.4286
 4168SOL    HW316439   4.753   4.999   2.771  1.7400 -1.0412 -0.5685
 4168SOL    MW416440   4.784   5.007   2.852  0.1645  0.4347 -0.2747
 4169SOL     OW16441   4.541   3.699   3.114 -0.1792 -0.2648  0.1675
 4169SOL    HW216442   4.507   3.728   3.199 -0.2850 -2.2585  0.8404
 4169SOL    HW316443   4.633   3.681   3.129  0.5775  2.1869 -0.9225
 4169SOL    MW416444   4.549   3.701   3.127 -0.1646  0.3907 -0.0791
 4170SOL     OW16445   0.522   1.340   2.892  0.1824  0.2505 -0.3512
 4170SOL    HW216446   0.617   1.329   2.888  0.0941 -0.4227 -0.7661
 4170SOL    HW316447   0.495   1.346   2.800 -0.1634  0.5710 -0.2297
 4170SOL    MW416448   0.531   1.339   2.879  0.1224  0.1194 -0.5346
 4171SOL     OW16449   4.139   6.151   1.093 -0.5076 -0.4416 -0.2941
 4171SOL    HW216450   4.071   6.085   1.099  0.2080 -1.1914 -0.3033
 4171SOL    HW316451   4.134   6.181   1.002 -0.1807 -1.2034 -0.5717
 4171SOL    MW416452   4.129   6.146   1.081  0.2596 -0.1800  0.3897
 4172SOL     OW16453   4.582   6.301   1.457  0.6354 -0.1562 -0.2108
 4172SOL    HW216454   4.576   6.343   1.371  1.9919 -0.2886 -0.4001
 4172SOL    HW316455   4.618   6.214   1.438 -0.5303 -0.7731  0.3495
 4172SOL    MW416456   4.586   6.295   1.443  0.2887 -0.3233  0.4007
 4173SOL     OW16457   4.953   5.619   4.921 -0.4691  0.2081 -0.2275
 4173SOL    HW216458   4.998   5.673   4.986  1.0976  0.3697 -1.3797
 4173SOL    HW316459   4.868   5.661   4.910 -0.8615  0.0498  1.8257
 4173SOL    MW416460   4.948   5.632   4.928  0.1353 -0.3039 -0.5963
 4174SOL     OW16461   4.205   0.859   0.376  0.9480 -0.5542  0.0663
 4174SOL    HW216462   4.173   0.896   0.294 -0.8093 -0.3043  0.8217
 4174SOL    HW316463   4.187   0.927   0.441  1.5874 -1.0691  0.7939
 4174SOL    MW416464   4.199   0.873   0.374 -0.4521  0.3676  0.4996
 4175SOL     OW16465   3.004   5.460   3.487 -0.1985  0.1938  0.1239
 4175SOL    HW216466   2.917   5.443   3.451  0.2932 -0.1944 -0.9154
 4175SOL    HW316467   3.046   5.515   3.422  0.3927  0.2552  0.5547
 4175SOL    MW416468   2.998   5.465   3.474  0.0058  0.1705  0.3160
 4176SOL     OW16469   0.807   5.687   5.054  0.5156  0.1700 -0.4049
 4176SOL    HW216470   0.829   5.766   5.103  1.1710  0.0057 -0.4157
 4176SOL    HW316471   0.783   5.623   5.120  0.0803  0.3482 -0.3897
 4176SOL    MW416472   0.807   5.689   5.069  0.1250  0.2619 -0.3483
 4177SOL     OW16473   0.159   0.156   5.421  0.0725 -0.3239 -0.3792
 4177SOL    HW216474   0.166   0.153   5.325 -1.7263 -0.6859 -0.5318
 4177SOL    HW316475   0.242   0.194   5.450  2.3241 -3.6346 -1.8311
 4177SOL    MW416476   0.171   0.161   5.412  0.8631  0.1784  0.4812
 4178SOL     OW16477   3.445   0.810   1.842  0.2444 -0.1564 -0.2789
 4178SOL    HW216478   3.441   0.718   1.869 -2.7930 -0.7306 -2.1540
 4178SOL    HW316479   3.380   0.853   1.897 -0.6666  0.1659 -1.5804
 4178SOL    MW416480   3.436   0.803   1.853  0.0470 -0.2999 -0.3874
 4179SOL     OW16481   5.368   1.160   4.910 -0.2910 -0.1442 -0.1152
 4179SOL    HW216482   5.336   1.208   4.985  1.0983 -1.1706  1.1969
 4179SOL    HW316483   5.347   1.068   4.929 -1.4515 -0.2703 -1.8013
 4179SOL    MW416484   5.361   1.154   4.922 -0.2247  0.6762  0.2518
 4180SOL     OW16485   4.247   6.090   2.718  0.1294  0.2213 -0.0841
 4180SOL    HW216486   4.337   6.122   2.724  0.1558  0.0795  0.3316
 4180SOL    HW316487   4.252   6.018   2.655  0.1848  0.6183 -0.5413
 4180SOL    MW416488   4.260   6.084   2.710  0.6433 -0.3752 -0.0613
 4181SOL     OW16489   3.678   3.004   5.163  0.0919 -0.1388  0.0945
 4181SOL    HW216490   3.756   2.950   5.173  0.5524  0.6604  0.9209
 4181SOL    HW316491   3.668   3.014   5.068 -0.1728 -1.8898 -0.1003
 4181SOL    MW416492   3.687   2.998   5.151  0.6958  0.1545  0.0507
 4182SOL     OW16493   2.152   2.698   3.487 -0.4907 -0.1694 -0.1569
 4182SOL    HW216494   2.157   2.727   3.396  0.3472 -1.6504 -0.6086
 4182SOL    HW316495   2.065   2.724   3.516  0.2221  2.9971 -0.4114
 4182SOL    MW416496   2.141   2.705   3.479  0.1247 -0.3549  0.5188
 4183SOL     OW16497   3.612   4.100   0.585  0.8428  0.1349  0.3877
 4183SOL    HW216498   3.659   4.169   0.538  1.2027  0.2723  0.9400
 4183SOL    HW316499   3.674   4.028   0.591 -0.1888 -1.0897 -2.0189
 4183SOL    MW416500   3.626   4.100   0.579  0.1445  0.4312  0.2778
 4184SOL     OW16501   0.051   5.166   0.403 -0.4755  0.7661 -0.1965
 4184SOL    HW216502  -0.034   5.191   0.439 -0.3283  0.8433  0.0985
 4184SOL    HW316503   0.056   5.212   0.319 -1.5035 -0.6877 -1.0708
 4184SOL    MW416504   0.041   5.176   0.397 -0.0271 -0.3114 -0.4810
 4185SOL     OW16505   5.606   2.752   1.682  0.3070  0.0316  0.4662
 4185SOL    HW216506   5.684   2.702   1.659  1.0796  0.0363  2.8030
 4185SOL    HW316507   5.533   2.694   1.663  1.0895 -1.3185  1.3794
 4185SOL    MW416508   5.607   2.738   1.677  0.1957  0.7876  0.3031
 4186SOL     OW16509   1.158   6.049   5.992 -0.4557 -0.0152 -1.0071
 4186SOL    HW216510   1.080   6.034   6.047 -0.3779 -0.3401 -0.9790
 4186SOL    HW316511   1.124   6.053   5.903 -0.2938 -2.4662 -1.2611
 4186SOL    MW416512   1.143   6.047   5.988 -0.2355  0.0772  0.3490
 4187SOL     OW16513   3.309   4.649   5.018 -0.1563 -0.0209 -0.5583
 4187SOL    HW216514   3.278   4.567   4.980 -0.1118 -0.7085  0.8395
 4187SOL    HW316515   3.280   4.646   5.109  1.7562  0.4921  0.1235
 4187SOL    MW416516   3.301   4.638   5.025  0.6943 -0.1921  0.4141
 4188SOL     OW16517   4.073   2.942   1.287 -0.1585 -0.6406 -0.0473
 4188SOL    HW216518   4.018   2.876   1.245 -0.6486  0.0149 -0.4595
 4188SOL    HW316519   4.109   2.992   1.215 -0.9814  0.4782  0.2907
 4188SOL    MW416520   4.070   2.940   1.272 -0.7760  0.9424 -0.1835
 4189SOL     OW16521   2.429   2.212   2.931 -0.6203 -0.3361 -0.1425
 4189SOL    HW216522   2.380   2.173   3.003 -2.2800 -0.7090 -1.4043
 4189SOL    HW316523   2.459   2.296   2.966 -1.7013 -0.3390  0.8745
 4189SOL    MW416524   2.426   2.218   2.945 -0.2732  0.3685  0.1216
 4190SOL     OW16525   4.011   6.380   3.435  0.0098 -0.3082 -0.1716
 4190SOL    HW216526   3.921   6.350   3.451 -0.1898  0.5596  0.4135
 4190SOL    HW316527   4.058   6.357   3.515 -0.4062  1.8578  0.7564
 4190SOL    MW416528   4.005   6.373   3.448  0.0938  0.4112  0.2038
 4191SOL     OW16529   1.283   2.991   1.890 -0.1938 -0.1321 -0.1207
 4191SOL    HW216530   1.245   3.045   1.959  2.2367  1.4836  0.0855
 4191SOL    HW316531   1.330   2.922   1.938 -1.5443 -1.2174 -0.3201
 4191SOL    MW416532   1.284   2.989   1.906  0.2104  0.0254 -0.1431
 4192SOL     OW16533   6.238   2.985   6.343 -0.2551 -0.3983  0.5692
 4192SOL    HW216534   6.324   3.027   6.340  0.1530 -1.2685  0.0288
 4192SOL    HW316535   6.230   2.955   6.434  0.1449 -0.5951  0.5427
 4192SOL    MW416536   6.248   2.987   6.355 -0.0496  0.1004  0.3594
 4193SOL     OW16537   3.054   3.775   4.066 -0.5146  0.0097 -0.4993
 4193SOL    HW216538   3.095   3.766   4.152 -2.4832  0.1099  0.5329
 4193SOL    HW316539   3.126   3.773   4.004  1.0446  0.5880  1.1979
 4193SOL    MW416540   3.069   3.774   4.069 -0.1381  0.2217  0.0791
 4194SOL     OW16541   5.283   4.260   5.136  0.5815  0.3578  0.6017
 4194SOL    HW216542   5.262   4.343   5.092  0.0364  0.4074  0.9474
 4194SOL    HW316543   5.377   4.264   5.150  0.7070  0.5164 -0.1980
 4194SOL    MW416544   5.292   4.272   5.132 -0.5709  0.0485 -0.7782
 4195SOL     OW16545   2.786   1.903   0.654  0.3094 -0.0265 -0.0888
 4195SOL    HW216546   2.859   1.937   0.706  0.1110 -2.1431  1.7050
 4195SOL    HW316547   2.825   1.834   0.600  0.1529  0.9149 -1.4728
 4195SOL    MW416548   2.801   1.898   0.654  0.6583 -0.0590  0.1643
 4196SOL     OW16549   2.559   1.488   3.570  0.0331 -0.7454 -0.8261
 4196SOL    HW216550   2.525   1.574   3.594 -0.7041 -0.5728 -2.3907
 4196SOL    HW316551   2.532   1.475   3.479  0.5106 -2.4490 -0.7690
 4196SOL    MW416552   2.551   1.497   3.561 -0.0369 -0.3870  0.2042
 4197SOL     OW16553   5.277   2.049   0.440  0.5923  0.1220 -0.5183
 4197SOL    HW216554   5.278   1.969   0.388  1.3384 -0.1552 -0.0902
 4197SOL    HW316555   5.359   2.093   0.418  0.9499 -0.0302  0.4619
 4197SOL    MW416556   5.288   2.044   0.430  0.5243 -0.4724  0.3750
 4198SOL     OW16557   5.699   5.049   4.758  0.4992 -0.5783 -0.6762
 4198SOL    HW216558   5.728   5.095   4.837  1.3248  1.0917 -1.8735
 4198SOL    HW316559   5.617   5.093   4.734  1.0809  0.0457 -1.6057
 4198SOL    MW416560   5.692   5.061   4.765  0.0041  0.4675 -0.1879
 4199SOL     OW16561   2.382   4.985   2.572 -0.1590 -0.1154 -0.3314
 4199SOL    HW216562   2.347   4.993   2.483  2.5035  3.0682 -1.3002
 4199SOL    HW316563   2.391   5.075   2.602  0.4365 -1.0623  2.6325
 4199SOL    MW416564   2.379   4.998   2.564  0.2927 -0.4412  0.0830
 4200SOL     OW16565   1.830   0.378   0.345 -0.3822 -0.3574 -0.4597
 4200SOL    HW216566   1.905   0.410   0.395 -0.2748  0.2173 -0.9783
 4200SOL    HW316567   1.826   0.285   0.367 -0.5727 -0.0546  0.9079
 4200SOL    MW416568   1.840   0.370   0.355  0.1143 -0.2687  0.2781
 4201SOL     OW16569   0.053   3.487   1.127 -0.1088  0.8311 -0.1120
 4201SOL    HW216570   0.046   3.566   1.182 -0.5762 -0.1290  1.2519
 4201SOL    HW316571   0.050   3.414   1.189  1.0725 -0.2604 -1.2765
 4201SOL    MW416572   0.052   3.488   1.143 -0.3525  0.0831  0.1706
 4202SOL     OW16573   1.360   2.680   0.612 -0.4490 -0.5629 -0.1487
 4202SOL    HW216574   1.377   2.736   0.687 -2.0951  0.3327 -0.3872
 4202SOL    HW316575   1.364   2.739   0.537 -2.7584 -0.5684 -0.3508
 4202SOL    MW416576   1.363   2.695   0.612 -0.0702  0.1397 -0.2060
 4203SOL     OW16577   0.787   0.648   1.253 -0.2809 -0.5665 -0.0410
 4203SOL    HW216578   0.833   0.731   1.245  0.6551 -1.0085  0.5394
 4203SOL    HW316579   0.811   0.599   1.175 -0.1239 -0.6304  0.0479
 4203SOL    MW416580   0.796   0.653   1.242  0.8977  0.3815 -0.4987
 4204SOL     OW16581   2.239   3.393   3.067 -0.7739 -1.2215  0.4993
 4204SOL    HW216582   2.312   3.375   3.008 -1.3798 -1.6648 -0.1341
 4204SOL    HW316583   2.169   3.423   3.009 -0.9221 -0.2429  1.1639
 4204SOL    MW416584   2.240   3.395   3.051 -0.8578 -0.6208 -0.3068
 4205SOL     OW16585   1.248   1.211   5.444 -0.3174 -0.3450  0.2246
 4205SOL    HW216586   1.287   1.164   5.369 -0.8655  0.3705 -0.5251
 4205SOL    HW316587   1.304   1.188   5.518  0.5549 -0.6511 -0.5069
 4205SOL    MW416588   1.261   1.201   5.444 -0.1211 -0.1039 -0.0267
 4206SOL     OW16589   2.190   1.278   2.108  0.1201 -0.0253  0.1586
 4206SOL    HW216590   2.133   1.235   2.044 -1.3344  0.2871  1.2092
 4206SOL    HW316591   2.256   1.211   2.128  0.6186 -0.1310 -1.6249
 4206SOL    MW416592   2.191   1.263   2.102 -0.2188  0.1611  0.0022
 4207SOL     OW16593   5.470   5.193   4.685  0.4671 -0.1184 -0.3233
 4207SOL    HW216594   5.496   5.277   4.647 -0.8586  0.7417  0.5853
 4207SOL    HW316595   5.409   5.156   4.621  0.1384  0.1798 -0.1878
 4207SOL    MW416596   5.465   5.199   4.671  0.3613 -0.4314  0.4737
 4208SOL     OW16597   5.388   5.724   1.890 -0.1238 -0.5133 -0.0146
 4208SOL    HW216598   5.442   5.674   1.951 -0.6409  1.0008  1.7877
 4208SOL    HW316599   5.319   5.762   1.946 -1.0955  0.2782 -1.6892
 4208SOL    MW416600   5.386   5.723   1.906 -0.1104  0.0954  0.5820
 4209SOL     OW16601   5.625   0.506   2.491 -0.0293 -0.2049 -0.1238
 4209SOL    HW216602   5.661   0.477   2.408 -0.5569  0.0116 -0.4268
 4209SOL    HW316603   5.531   0.510   2.478 -0.0345  0.9773  0.1082
 4209SOL    MW416604   5.618   0.503   2.479 -0.2177 -0.4035  0.4561
 4210SOL     OW16605   4.384   5.620   5.909 -0.0700 -0.2866  0.4938
 4210SOL    HW216606   4.382   5.715   5.904 -2.0930 -0.3277 -0.5609
 4210SOL    HW316607   4.422   5.601   5.995  1.8698  1.3995  0.0869
 4210SOL    MW416608   4.389   5.630   5.920  0.8485 -0.3419  0.6315
 4211SOL     OW16609   2.843   0.970   1.410  0.3058 -0.6416 -0.3963
 4211SOL    HW216610   2.852   0.909   1.337  0.1522 -2.0614  0.7209
 4211SOL    HW316611   2.770   1.027   1.385 -0.7305 -2.0572 -0.7576
 4211SOL    MW416612   2.834   0.969   1.397  0.0737  0.1833 -0.3681
 4212SOL     OW16613   1.789   1.553   6.269 -0.4791  0.5606 -0.3468
 4212SOL    HW216614   1.763   1.526   6.357  0.4214  0.0605 -0.2227
 4212SOL    HW316615   1.761   1.644   6.263 -0.5875  0.5887  0.4425
 4212SOL    MW416616   1.782   1.561   6.280  0.7127 -0.8984 -0.5527
 4213SOL     OW16617   3.974   2.880   2.809  0.2867 -0.0177  0.0476
 4213SOL    HW216618   3.963   2.880   2.714 -0.4955 -0.5153  0.1266
 4213SOL    HW316619   3.926   2.957   2.839  0.2640 -0.0367  0.0603
 4213SOL    MW416620   3.966   2.890   2.801  0.2035  0.4110 -0.6662
 4214SOL     OW16621   2.573   5.636   1.301 -0.1107 -0.2023 -0.0235
 4214SOL    HW216622   2.540   5.554   1.264 -0.2497  0.0627 -0.4884
 4214SOL    HW316623   2.535   5.639   1.389  1.1622 -1.4085  0.5974
 4214SOL    MW416624   2.563   5.625   1.308  0.2689  0.2834  0.9617
 4215SOL     OW16625   3.009   5.028   5.797 -0.6766 -0.0382  0.4329
 4215SOL    HW216626   3.052   4.950   5.762 -0.5140  0.2821 -0.1021
 4215SOL    HW316627   2.916   5.013   5.782 -0.5519  0.4769 -0.9688
 4215SOL    MW416628   3.003   5.016   5.790  0.8795 -0.0304 -0.3755
 4216SOL     OW16629   5.644   0.388   5.457  0.0447  0.2064  0.9233
 4216SOL    HW216630   5.563   0.430   5.428 -0.2303 -0.0392  1.3240
 4216SOL    HW316631   5.709   0.412   5.390 -0.1641  1.0543  1.0190
 4216SOL    MW416632   5.642   0.397   5.444  0.2228  0.2677  0.3792
 4217SOL     OW16633   6.014   2.936   1.478  0.3667  0.2864  0.8153
 4217SOL    HW216634   5.977   3.024   1.477 -0.0477  0.1813 -2.1202
 4217SOL    HW316635   6.014   2.911   1.570 -0.2373  3.0265  1.6531
 4217SOL    MW416636   6.009   2.944   1.490  0.0456  0.1288 -0.0518
 4218SOL     OW16637   6.007   2.054   4.094  0.0468  0.1868  0.4375
 4218SOL    HW216638   5.989   2.001   4.171  1.1998 -1.4166 -0.3373
 4218SOL    HW316639   6.019   2.143   4.128  0.5685 -0.4896  2.1117
 4218SOL    MW416640   6.006   2.059   4.108 -0.2834 -0.0756  0.3462
 4219SOL     OW16641   4.644   4.597   0.268 -0.1849 -0.8719 -0.2732
 4219SOL    HW216642   4.681   4.663   0.209 -0.5410 -1.9147 -1.7082
 4219SOL    HW316643   4.654   4.636   0.355 -0.3770  1.0795 -1.0554
 4219SOL    MW416644   4.650   4.611   0.272 -0.7128 -0.2541 -0.0994
 4220SOL     OW16645   2.915   2.850   4.601 -0.1800 -0.5173  0.2091
 4220SOL    HW216646   2.917   2.872   4.507 -1.7486 -1.8401 -0.1886
 4220SOL    HW316647   2.999   2.808   4.618  0.1433 -0.2186 -0.6067
 4220SOL    MW416648   2.926   2.847   4.591 -0.3625 -0.1166  0.4439
 4221SOL     OW16649   3.586   1.071   5.031 -0.0193  0.1325 -0.7782
 4221SOL    HW216650   3.637   1.083   5.111 -2.0504 -1.9541  0.9613
 4221SOL    HW316651   3.609   0.983   5.001 -1.1664 -0.0984 -1.0181
 4221SOL    MW416652   3.596   1.061   5.038  0.2465  0.4315  0.3243
 4222SOL     OW16653   5.318   2.541   2.133 -0.7225 -0.2183 -0.4425
 4222SOL    HW216654   5.258   2.527   2.205  0.1593 -2.9688 -0.1067
 4222SOL    HW316655   5.317   2.458   2.084 -0.6503  1.2363 -3.1341
 4222SOL    MW416656   5.310   2.528   2.136 -0.0034 -0.7133 -0.1007
 4223SOL     OW16657   4.886   5.448   6.216  0.5305  0.1805  0.0925
 4223SOL    HW216658   4.957   5.387   6.194  2.8446  2.5954  0.3651
 4223SOL    HW316659   4.857   5.483   6.132 -0.6965 -1.0796 -0.0511
 4223SOL    MW416660   4.892   5.445   6.202  0.0795 -0.0371 -0.0023
 4224SOL     OW16661   0.934   5.467   2.562 -0.7897  0.4046 -1.1104
 4224SOL    HW216662   0.971   5.493   2.478  2.0845 -0.0463 -0.0804
 4224SOL    HW316663   0.980   5.520   2.626 -1.5794 -0.5786  0.3209
 4224SOL    MW416664   0.945   5.477   2.559  0.3841  1.1194 -0.2009
 4225SOL     OW16665   2.984   5.780   3.580  0.8272 -0.3655 -0.6321
 4225SOL    HW216666   2.984   5.685   3.591 -0.7465 -0.4931 -1.4268
 4225SOL    HW316667   3.035   5.813   3.654 -0.1905 -1.7308  0.7352
 4225SOL    MW416668   2.991   5.772   3.591 -0.0758  0.1849 -0.4120
 4226SOL     OW16669   3.060   3.153   2.328  0.0191 -1.0858  0.1300
 4226SOL    HW216670   3.015   3.109   2.257 -1.0508 -1.7227  1.1659
 4226SOL    HW316671   3.135   3.196   2.287 -0.7324 -1.2032 -1.4024
 4226SOL    MW416672   3.064   3.153   2.313  0.6305  0.1164 -0.3940
 4227SOL     OW16673   4.897   4.143   4.569 -0.5188  0.2759 -0.3826
 4227SOL    HW216674   4.823   4.084   4.579 -1.1199  0.8221 -1.3752
 4227SOL    HW316675   4.957   4.097   4.510 -0.4335  0.1545 -0.1995
 4227SOL    MW416676   4.896   4.130   4.562 -0.4387 -0.1852 -0.3833
 4228SOL     OW16677   5.475   3.286   3.018  0.4563 -0.2770 -0.1113
 4228SOL    HW216678   5.420   3.310   2.943  2.2169  1.3717 -0.9801
 4228SOL    HW316679   5.464   3.191   3.027 -1.4977 -0.1855 -1.0241
 4228SOL    MW416680   5.467   3.276   3.009 -0.1956 -0.0958  0.1475
 4229SOL     OW16681   3.666   4.167   2.930  0.3475  0.1530  0.4597
 4229SOL    HW216682   3.761   4.176   2.934  0.4734  0.9072 -2.0797
 4229SOL    HW316683   3.649   4.080   2.966  2.1471 -0.4825 -0.0868
 4229SOL    MW416684   3.676   4.157   2.935  0.3306  0.0030  0.4280
 4230SOL     OW16685   0.197   5.609   1.295 -0.3413  0.7629 -0.3293
 4230SOL    HW216686   0.152   5.553   1.358  1.6376  1.6468  2.0147
 4230SOL    HW316687   0.249   5.549   1.242 -1.2333  0.1029 -0.4845
 4230SOL    MW416688   0.198   5.594   1.296  0.2362  0.0146  0.0492
 4231SOL     OW16689   4.412   1.232   4.023  0.1524  0.3468 -0.5473
 4231SOL    HW216690   4.448   1.143   4.030 -0.3278  0.2131  0.5496
 4231SOL    HW316691   4.476   1.287   4.068 -1.5112 -0.0819  2.7032
 4231SOL    MW416692   4.425   1.227   4.030  0.9171 -0.8581  0.4727
 4232SOL     OW16693   0.126   6.129   5.629  0.0617  0.1751  0.1491
 4232SOL    HW216694   0.110   6.223   5.622 -0.1571  0.1291  0.0410
 4232SOL    HW316695   0.063   6.089   5.569  0.8827  0.0204 -0.6231
 4232SOL    MW416696   0.116   6.136   5.620 -0.2504 -0.4229  0.1533
 4233SOL     OW16697   4.110   3.194   5.630 -0.0356 -0.0146  0.0701
 4233SOL    HW216698   4.083   3.254   5.561 -0.0954 -1.4062 -1.1520
 4233SOL    HW316699   4.205   3.202   5.634 -0.0432  0.1478 -0.0934
 4233SOL    MW416700   4.119   3.203   5.622  0.1747 -0.2114  0.1866
 4234SOL     OW16701   0.888   0.470   4.520  0.0967  0.2047 -0.3288
 4234SOL    HW216702   0.934   0.437   4.443 -1.3146  1.2555 -1.7049
 4234SOL    HW316703   0.871   0.562   4.500  0.5450  0.7710  1.6893
 4234SOL    MW416704   0.892   0.478   4.507  0.3997 -0.4061  0.1784
 4235SOL     OW16705   0.447   5.364   6.248 -0.2756  0.3184 -0.0101
 4235SOL    HW216706   0.494   5.298   6.299 -1.9753  0.2457  1.5748
 4235SOL    HW316707   0.505   5.383   6.174  1.8309 -0.3683  1.3654
 4235SOL    MW416708   0.461   5.358   6.245 -0.9445 -0.2762  0.0023
 4236SOL     OW16709   4.334   0.399   5.620 -0.0780 -0.1910 -0.4037
 4236SOL    HW216710   4.278   0.383   5.696  2.2745 -0.0424  1.4525
 4236SOL    HW316711   4.298   0.479   5.580 -0.6277  0.4539  1.3005
 4236SOL    MW416712   4.322   0.408   5.625  0.0252 -0.0370 -0.3537
 4237SOL     OW16713   4.766   4.038   3.438  0.4454  0.1945 -0.4927
 4237SOL    HW216714   4.842   4.051   3.381  0.7144 -0.3612 -0.2708
 4237SOL    HW316715   4.713   4.116   3.425  1.3965  0.9264 -0.1328
 4237SOL    MW416716   4.769   4.050   3.429 -0.2066 -0.4346 -0.0827
 4238SOL     OW16717   4.201   0.983   6.016 -0.4092  0.0924 -0.4242
 4238SOL    HW216718   4.223   1.016   6.103 -0.5067  1.2834 -0.8364
 4238SOL    HW316719   4.156   0.900   6.033  0.1835 -0.0373  0.6229
 4238SOL    MW416720   4.198   0.976   6.030 -0.1571 -0.5384  0.3732
 4239SOL     OW16721   4.666   4.437   3.554 -0.1950  0.4724  0.0419
 4239SOL    HW216722   4.660   4.530   3.531  0.2106  0.7910  1.1385
 4239SOL    HW316723   4.592   4.423   3.613  0.1326  0.2735  0.4090
 4239SOL    MW416724   4.656   4.448   3.559  0.1477  0.2776 -0.3142
 4240SOL     OW16725   0.404   5.270   3.403  0.0462  0.5480  0.1555
 4240SOL    HW216726   0.397   5.211   3.328 -0.5501 -0.4491  0.9529
 4240SOL    HW316727   0.497   5.269   3.426 -0.2087 -1.9922  1.5445
 4240SOL    MW416728   0.415   5.262   3.396  0.3257  0.4199  0.1450
 4241SOL     OW16729   2.776   2.437   5.972  0.6378  0.0026  0.0566
 4241SOL    HW216730   2.810   2.478   5.892  1.2547 -0.4713  0.0642
 4241SOL    HW316731   2.828   2.358   5.981 -1.1326 -1.2727 -0.4484
 4241SOL    MW416732   2.787   2.432   5.962  0.2430  0.6179 -0.4730
 4242SOL     OW16733   0.749   5.936   1.487 -0.5666 -1.3168 -0.0898
 4242SOL    HW216734   0.785   5.854   1.519  0.2702 -1.2361 -0.7677
 4242SOL    HW316735   0.696   5.969   1.559  1.4826 -0.9754  1.3729
 4242SOL    MW416736   0.747   5.930   1.500  0.0516 -0.1512  0.1617
 4243SOL     OW16737   3.042   4.180   5.670 -0.4072 -0.2385  0.4248
 4243SOL    HW216738   2.965   4.185   5.728 -0.6447 -2.2194  0.3355
 4243SOL    HW316739   3.115   4.209   5.724 -1.2690  2.7581  0.2123
 4243SOL    MW416740   3.041   4.185   5.685 -0.3250 -0.3720 -0.3834
 4244SOL     OW16741   2.329   2.478   0.847  0.0567  0.1459  0.9152
 4244SOL    HW216742   2.310   2.565   0.882 -1.2941 -0.2101  1.1030
 4244SOL    HW316743   2.285   2.417   0.907 -2.0113 -0.5022 -1.1264
 4244SOL    MW416744   2.321   2.481   0.860 -0.2857 -0.3625  0.0919
 4245SOL     OW16745   0.166   1.189   4.400  0.2844  0.3261  0.4702
 4245SOL    HW216746   0.208   1.194   4.486  0.1285 -0.8292  0.6245
 4245SOL    HW316747   0.172   1.279   4.366  2.1391  0.3796  0.8173
 4245SOL    MW416748   0.172   1.202   4.407 -0.2852 -0.3252 -0.1815
 4246SOL     OW16749   6.246   6.272   5.678  0.1176 -0.3852 -0.1922
 4246SOL    HW216750   6.249   6.296   5.770  2.2600 -1.5882  0.1053
 4246SOL    HW316751   6.310   6.328   5.635 -0.4303 -0.2500 -0.8625
 4246SOL    MW416752   6.255   6.282   5.684  0.2192  0.5651  0.3263
 4247SOL     OW16753   4.081   1.620   6.228  0.0820 -0.2384 -0.1496
 4247SOL    HW216754   4.136   1.697   6.219 -2.1560  1.3516 -1.1722
 4247SOL    HW316755   4.133   1.548   6.192  1.9530  0.8965  0.1777
 4247SOL    MW416756   4.095   1.621   6.222 -0.1264 -0.1198  0.8980
 4248SOL     OW16757   5.870   4.622   2.548 -0.2104  0.1192  0.0118
 4248SOL    HW216758   5.919   4.686   2.599 -1.2237  0.3781  0.6871
 4248SOL    HW316759   5.912   4.622   2.462  0.1997  1.2097  0.2047
 4248SOL    MW416760   5.882   4.630   2.543  0.2436 -0.5208 -0.3431
 4249SOL     OW16761   3.712   4.336   0.441  0.4371 -0.3610  0.0528
 4249SOL    HW216762   3.737   4.373   0.526 -1.5799 -0.0691  0.5682
 4249SOL    HW316763   3.785   4.358   0.383  0.7763  1.5877  1.1360
 4249SOL    MW416764   3.725   4.344   0.445 -0.0005 -0.1057  0.1972
 4250SOL     OW16765   3.810   2.948   5.756  0.1363 -0.2056 -0.0138
 4250SOL    HW216766   3.789   2.971   5.846  0.8955 -0.3497  0.2114
 4250SOL    HW316767   3.905   2.959   5.750  0.4399 -2.3782 -0.1521
 4250SOL    MW416768   3.820   2.953   5.767 -0.1286 -0.2435  0.3431
 4251SOL     OW16769   5.605   1.147   5.103  0.0412  0.4234 -0.7897
 4251SOL    HW216770   5.659   1.068   5.107 -0.3339  0.2143  1.0431
 4251SOL    HW316771   5.613   1.177   5.013 -0.4319 -2.1407 -1.7646
 4251SOL    MW416772   5.614   1.141   5.092 -0.0506  0.3435  0.1502
 4252SOL     OW16773   6.374   2.506   4.732 -0.0348  0.2145  0.1450
 4252SOL    HW216774   6.389   2.431   4.675  0.1958 -0.2789  0.8441
 4252SOL    HW316775   6.378   2.582   4.674  0.3078 -0.2762 -0.4740
 4252SOL    MW416776   6.377   2.506   4.717  0.6373 -0.2464 -0.0058
 4253SOL     OW16777   5.030   6.376   1.661 -0.8747 -0.1121  0.1990
 4253SOL    HW216778   5.117   6.358   1.695  0.3509  1.4412 -1.8456
 4253SOL    HW316779   4.971   6.358   1.734  0.9747 -2.5465  1.2382
 4253SOL    MW416780   5.034   6.371   1.675  0.5990 -0.3224 -0.4648
 4254SOL     OW16781   2.515   1.306   2.874 -0.1227 -0.2120 -0.3521
 4254SOL    HW216782   2.476   1.386   2.841 -1.1380 -0.4328  0.2634
 4254SOL    HW316783   2.610   1.321   2.869 -0.2932  0.7956 -0.7665
 4254SOL    MW416784   2.523   1.318   2.869 -0.0964 -0.0517  0.9232
 4255SOL     OW16785   5.060   5.771   3.707 -0.0856 -0.1948  0.2093
 4255SOL    HW216786   5.142   5.743   3.667 -0.0082  2.4225 -1.7009
 4255SOL    HW316787   5.055   5.721   3.788  1.2862 -3.5591 -1.5508
 4255SOL    MW416788   5.070   5.761   3.712  0.1487 -0.3100  0.6834
 4256SOL     OW16789   5.370   3.106   1.332 -0.0227  0.2540  0.0972
 4256SOL    HW216790   5.349   3.180   1.388 -0.0018  1.1513 -1.0345
 4256SOL    HW316791   5.418   3.046   1.388 -0.5875  0.7992  1.2058
 4256SOL    MW416792   5.373   3.108   1.347 -0.0760 -0.0278 -0.3500
 4257SOL     OW16793   5.409   6.400   2.157 -0.6412 -0.4915 -0.1082
 4257SOL    HW216794   5.333   6.423   2.103  0.2831  1.5038 -0.6628
 4257SOL    HW316795   5.477   6.377   2.093  0.1408  0.8410  0.2065
 4257SOL    MW416796   5.408   6.400   2.141  0.1800 -0.3678  0.2130
 4258SOL     OW16797   1.563   2.152   4.374  0.7218 -0.2751  0.8073
 4258SOL    HW216798   1.499   2.090   4.409 -2.2591  2.8121  1.3569
 4258SOL    HW316799   1.564   2.135   4.279 -0.1949 -0.9975  0.9149
 4258SOL    MW416800   1.555   2.141   4.366  0.0211  0.0256  0.0611
 4259SOL     OW16801   3.861   4.123   0.817 -0.7331 -0.0576 -0.2641
 4259SOL    HW216802   3.801   4.197   0.808 -1.0413 -0.3470 -0.6233
 4259SOL    HW316803   3.811   4.056   0.864 -0.1502  0.2931  0.8958
 4259SOL    MW416804   3.846   4.124   0.822  0.1284 -0.2243 -0.4394
 4260SOL     OW16805   2.942   4.831   4.553 -0.2897  0.1348  0.1492
 4260SOL    HW216806   3.006   4.789   4.610 -0.5934  1.0058  1.1658
 4260SOL    HW316807   2.953   4.925   4.569  0.8843  0.5503 -2.6167
 4260SOL    MW416808   2.952   4.838   4.562  0.5250 -0.1786 -0.5169
 4261SOL     OW16809   4.169   1.343   2.543  0.0711  0.0762 -0.1391
 4261SOL    HW216810   4.224   1.365   2.468 -0.7235  1.7884 -0.2654
 4261SOL    HW316811   4.086   1.315   2.505  0.6944 -2.2929  0.0583
 4261SOL    MW416812   4.165   1.342   2.528 -0.4296 -0.1801  0.4653
 4262SOL     OW16813   2.178   4.854   1.365 -0.6019  1.1748  0.2326
 4262SOL    HW216814   2.269   4.846   1.394 -0.1986 -0.6050 -1.3603
 4262SOL    HW316815   2.157   4.768   1.329 -2.3631  2.0819 -1.0113
 4262SOL    MW416816   2.187   4.841   1.364  0.0296 -0.2099 -0.0817
 4263SOL     OW16817   0.180   4.894   5.197  0.3464 -0.1803  0.0595
 4263SOL    HW216818   0.233   4.973   5.212 -0.6404  0.8023 -1.3403
 4263SOL    HW316819   0.207   4.864   5.110 -1.0914  0.1375 -0.5252
 4263SOL    MW416820   0.190   4.901   5.188  0.0464 -0.4330  0.4320
 4264SOL     OW16821   4.441   1.989   0.911  0.7759 -0.1357 -0.4631
 4264SOL    HW216822   4.372   2.015   0.972  0.7356  1.1719 -1.0440
 4264SOL    HW316823   4.486   2.070   0.889  0.0033 -0.3464 -3.1350
 4264SOL    MW416824   4.438   2.003   0.916  0.2735 -0.3663  0.0944
 4265SOL     OW16825   6.408   3.204   0.496  0.2147  0.0053 -0.2925
 4265SOL    HW216826   6.416   3.251   0.413 -0.8957 -0.7911 -0.8744
 4265SOL    HW316827   6.423   3.271   0.563  0.4216  0.8065 -1.1205
 4265SOL    MW416828   6.411   3.219   0.494 -0.2672  0.2646 -0.1882
 4266SOL     OW16829   2.207   2.585   1.571  0.1222 -0.5673  0.0472
 4266SOL    HW216830   2.116   2.567   1.594  0.0161 -0.8432 -0.5579
 4266SOL    HW316831   2.221   2.538   1.488  0.5555  0.1878 -0.3245
 4266SOL    MW416832   2.197   2.576   1.563  0.1926 -0.3944  0.6359
 4267SOL     OW16833   1.083   1.473   5.644  0.3380 -0.1647  0.6498
 4267SOL    HW216834   1.016   1.419   5.603  1.7172 -2.0952  0.7837
 4267SOL    HW316835   1.135   1.506   5.571 -0.3980  0.8795  0.5791
 4267SOL    MW416836   1.081   1.470   5.629 -0.2019 -0.5729  0.0378
 4268SOL     OW16837   2.003   6.045   2.522  0.0306 -0.0654 -0.4470
 4268SOL    HW216838   2.081   6.038   2.467  0.2089 -1.1274 -0.0765
 4268SOL    HW316839   1.943   6.100   2.471  0.1321 -1.1491 -1.7968
 4268SOL    MW416840   2.005   6.051   2.508 -0.1689  0.1631  0.3329
 4269SOL     OW16841   2.534   1.286   1.091 -0.4060  0.2653 -0.5417
 4269SOL    HW216842   2.571   1.246   1.013 -0.3266 -1.8356  0.4927
 4269SOL    HW316843   2.608   1.332   1.132  0.4329 -1.4980  0.0238
 4269SOL    MW416844   2.549   1.287   1.086  0.0814  0.4363  0.0523
 4270SOL     OW16845   3.176   5.620   3.814 -0.2632 -0.4171 -0.2742
 4270SOL    HW216846   3.215   5.534   3.826  0.0765 -0.2387 -0.0732
 4270SOL    HW316847   3.162   5.653   3.903  2.0810  0.8373 -0.2925
 4270SOL    MW416848   3.179   5.613   3.828  0.5174  0.0031 -0.0445
 4271SOL     OW16849   3.262   2.364   4.998  0.1250 -0.3707  0.4605
 4271SOL    HW216850   3.202   2.316   5.056 -0.9296  0.1404 -0.1764
 4271SOL    HW316851   3.238   2.456   5.011  2.0744  0.0252  1.6180
 4271SOL    MW416852   3.251   2.370   5.007  0.3473  0.3882  0.3247
 4272SOL     OW16853   5.742   2.779   0.378  0.2725  0.4184 -0.2378
 4272SOL    HW216854   5.697   2.857   0.345  0.8678  0.3072 -1.3433
 4272SOL    HW316855   5.834   2.805   0.383  0.5192 -0.2914 -0.8838
 4272SOL    MW416856   5.748   2.793   0.375 -0.1560  0.0366 -0.5069
 4273SOL     OW16857   4.428   5.926   0.303 -0.1954 -0.0761  0.2151
 4273SOL    HW216858   4.397   5.849   0.350 -0.8541 -0.6500 -1.1209
 4273SOL    HW316859   4.361   5.992   0.320 -0.6475 -0.4103 -0.2641
 4273SOL    MW416860   4.415   5.925   0.312 -0.2103 -0.3940  0.0208
 4274SOL     OW16861   1.368   0.148   3.036  0.2475 -0.1098  0.0637
 4274SOL    HW216862   1.432   0.109   3.096 -0.5328  0.7104  1.5051
 4274SOL    HW316863   1.397   0.239   3.027 -1.2071  0.5662  1.5682
 4274SOL    MW416864   1.380   0.155   3.043  0.4095  0.0848  0.1742
 4275SOL     OW16865   0.419   0.311   0.999  0.1097  0.1912  0.1414
 4275SOL    HW216866   0.367   0.231   1.015 -2.0155  0.9485 -2.1898
 4275SOL    HW316867   0.493   0.281   0.946 -2.1111 -0.1172 -3.1675
 4275SOL    MW416868   0.422   0.296   0.994 -0.3149 -0.1213 -0.0212
 4276SOL     OW16869   2.220   5.597   5.465 -0.2853  0.0941  0.5642
 4276SOL    HW216870   2.214   5.690   5.444 -2.3821  0.0270  0.6321
 4276SOL    HW316871   2.300   5.589   5.516 -0.1718  1.8976  0.7478
 4276SOL    MW416872   2.229   5.608   5.469 -0.3145  0.4184 -0.2925
 4277SOL     OW16873   2.266   1.734   2.362 -0.1152  0.5355 -0.1210
 4277SOL    HW216874   2.268   1.680   2.283  0.7469  0.7869 -0.2782
 4277SOL    HW316875   2.190   1.702   2.411 -1.3603  1.1327 -1.5793
 4277SOL    MW416876   2.256   1.722   2.358 -0.2131 -0.0296 -0.5872
 4278SOL     OW16877   3.043   6.224   0.741 -0.4781  0.3698  0.1966
 4278SOL    HW216878   3.110   6.161   0.716  0.5297  1.2070  0.7184
 4278SOL    HW316879   3.028   6.276   0.661 -0.3067  0.3655  0.1628
 4278SOL    MW416880   3.050   6.222   0.727 -0.2071 -0.9011  0.0988
 4279SOL     OW16881   1.120   4.845   2.879  0.5446  0.5238 -0.5291
 4279SOL    HW216882   1.177   4.769   2.866 -0.0328 -0.1881  0.8358
 4279SOL    HW316883   1.064   4.820   2.953 -0.8024  1.6244 -1.1337
 4279SOL    MW416884   1.120   4.832   2.887  0.0596  0.2713 -0.3095
 4280SOL     OW16885   2.001   1.691   2.097 -0.3159 -0.0655 -0.8826
 4280SOL    HW216886   1.984   1.709   2.004  0.7989 -0.6248 -1.2098
 4280SOL    HW316887   2.095   1.676   2.102 -0.7111 -2.8183 -0.1613
 4280SOL    MW416888   2.011   1.692   2.085 -0.9536 -0.0013 -0.1780
 4281SOL     OW16889   1.886   3.331   1.461  0.0156 -0.8748  0.2681
 4281SOL    HW216890   1.833   3.312   1.539 -2.4365 -1.3739 -1.4044
 4281SOL    HW316891   1.901   3.425   1.463 -2.6609 -0.3789 -0.1410
 4281SOL    MW416892   1.881   3.341   1.471  0.3371  0.3073  0.4485
 4282SOL     OW16893   2.094   3.699   4.995  0.3270 -0.2983  0.2996
 4282SOL    HW216894   2.164   3.649   5.038  2.1371 -0.5400 -2.6390
 4282SOL    HW316895   2.109   3.789   5.023  2.5127 -0.1874 -0.9417
 4282SOL    MW416896   2.105   3.704   5.004  0.2057  0.4049  0.3943
 4283SOL     OW16897   4.792   0.470   3.433 -0.1009 -0.0005  0.1158
 4283SOL    HW216898   4.760   0.523   3.505 -1.0951  0.8141 -0.8934
 4283SOL    HW316899   4.887   0.473   3.442  0.1059  3.9411 -1.1570
 4283SOL    MW416900   4.801   0.478   3.444 -0.1017  0.2912 -0.3238
 4284SOL     OW16901   2.907   1.748   2.514  0.6750 -0.2127 -0.0771
 4284SOL    HW216902   2.821   1.763   2.475  0.1133 -0.4669  1.0336
 4284SOL    HW316903   2.959   1.825   2.488 -0.4964  0.9496  0.9132
 4284SOL    MW416904   2.903   1.761   2.505 -0.0219  0.1892  0.2672
 4285SOL     OW16905   1.428   3.712   6.140  0.0056 -0.0401 -0.4288
 4285SOL    HW216906   1.437   3.759   6.057 -0.3729  1.2436  0.2227
 4285SOL    HW316907   1.492   3.641   6.135 -0.5577 -0.4678 -2.1283
 4285SOL    MW416908   1.438   3.709   6.129  0.4673 -0.5256 -0.3514
 4286SOL     OW16909   5.516   5.206   1.395  0.0100  0.3512 -0.0016
 4286SOL    HW216910   5.601   5.225   1.434  1.2114 -0.9497 -1.8439
 4286SOL    HW316911   5.508   5.111   1.401 -2.3128  0.5594  1.9763
 4286SOL    MW416912   5.526   5.196   1.401 -0.3274  0.2407 -0.6863
 4287SOL     OW16913   4.511   2.391   3.895 -0.8663 -0.0075 -0.1746
 4287SOL    HW216914   4.546   2.378   3.984 -1.1907  0.2017 -0.0155
 4287SOL    HW316915   4.538   2.480   3.872 -0.3814 -0.2278 -0.4717
 4287SOL    MW416916   4.520   2.401   3.904 -0.1773  0.5608 -0.0803
 4288SOL     OW16917   1.991   1.609   2.550  0.4131  0.1186  0.4168
 4288SOL    HW216918   2.042   1.536   2.515 -0.1608 -0.8280  1.4714
 4288SOL    HW316919   1.936   1.637   2.476  0.6884 -0.4748 -0.0255
 4288SOL    MW416920   1.990   1.603   2.535  0.5023 -0.3532  0.0166
 4289SOL     OW16921   4.164   1.358   1.392 -0.0674  0.1255  0.3413
 4289SOL    HW216922   4.205   1.427   1.444 -0.8340  0.0145  1.1219
 4289SOL    HW316923   4.157   1.284   1.453 -0.7755 -0.0812  0.0125
 4289SOL    MW416924   4.168   1.357   1.407  0.0291  0.3460 -0.4135
 4290SOL     OW16925   2.139   5.396   0.026  0.4663  0.3277  0.5997
 4290SOL    HW216926   2.057   5.445   0.027  0.5344  0.5088 -0.9775
 4290SOL    HW316927   2.200   5.451  -0.022 -0.2608 -2.3918 -4.0258
 4290SOL    MW416928   2.136   5.410   0.020  0.3957  0.3109  0.1735
 4291SOL     OW16929   3.403   0.160   4.567 -0.0594  0.5824 -0.3364
 4291SOL    HW216930   3.386   0.086   4.509 -0.2514 -0.5131  1.0392
 4291SOL    HW316931   3.321   0.209   4.569 -0.4833 -0.1113 -0.0111
 4291SOL    MW416932   3.390   0.156   4.560  0.0544 -0.5107  0.1171
 4292SOL     OW16933   4.762   4.165   2.842 -0.3054 -0.1595 -0.2729
 4292SOL    HW216934   4.745   4.119   2.760  0.7959  0.7577 -1.0497
 4292SOL    HW316935   4.753   4.098   2.910 -0.4464 -1.1154 -1.2123
 4292SOL    MW416936   4.759   4.150   2.841  1.1080  0.0457  0.2079
 4293SOL     OW16937   5.426   4.544   0.742  1.0954 -0.1942  0.6557
 4293SOL    HW216938   5.442   4.604   0.814 -0.4539  0.1457  0.7545
 4293SOL    HW316939   5.465   4.587   0.665  1.1172  0.3319  0.9567
 4293SOL    MW416940   5.433   4.558   0.741  0.0436 -0.4433  0.1915
 4294SOL     OW16941   5.886   3.943   1.564  0.0688  0.4006  0.3196
 4294SOL    HW216942   5.806   3.952   1.616 -0.9299  0.7438 -1.2041
 4294SOL    HW316943   5.950   3.998   1.609 -1.2022  1.9046  0.3966
 4294SOL    MW416944   5.884   3.951   1.577  0.7748  0.3035 -0.4475
 4295SOL     OW16945   2.872   5.226   0.274 -0.1287 -0.1263  0.1768
 4295SOL    HW216946   2.849   5.308   0.231  0.1121 -0.0054  0.2765
 4295SOL    HW316947   2.961   5.239   0.306  0.0444 -0.5558 -0.1211
 4295SOL    MW416948   2.881   5.239   0.273  0.0186 -0.1608 -0.2956
 4296SOL     OW16949   3.320   6.349   6.296  0.0853 -0.4453  0.1053
 4296SOL    HW216950   3.366   6.411   6.352 -0.0276 -0.3086  0.0484
 4296SOL    HW316951   3.340   6.263   6.334  2.4736 -0.6251 -1.4116
 4296SOL    MW416952   3.329   6.346   6.309  0.2261  0.3120  0.4406
 4297SOL     OW16953   5.897   5.090   1.829  0.3245 -0.2232  0.0670
 4297SOL    HW216954   5.968   5.104   1.892 -0.4435 -0.7317  1.0717
 4297SOL    HW316955   5.817   5.107   1.878 -0.3712 -2.1914 -0.2779
 4297SOL    MW416956   5.896   5.094   1.844 -0.6626  0.2483  0.2063
 4298SOL     OW16957   2.564   5.092   2.270 -0.0218 -0.1555 -0.1570
 4298SOL    HW216958   2.549   5.161   2.205 -0.5609 -0.1043  0.0128
 4298SOL    HW316959   2.477   5.053   2.284 -0.3563  1.2271  2.0940
 4298SOL    MW416960   2.550   5.096   2.263 -0.4562  0.2108  0.7938
 4299SOL     OW16961   5.243   3.878   3.311 -0.0716 -0.0055 -0.7465
 4299SOL    HW216962   5.256   3.787   3.283 -0.7627  0.1871 -1.7635
 4299SOL    HW316963   5.327   3.921   3.291  0.7433 -0.6946  1.0213
 4299SOL    MW416964   5.256   3.872   3.304  0.0100 -0.0823  0.3080
 4300SOL     OW16965   1.322   5.935   2.601 -0.3011 -0.0842 -0.5206
 4300SOL    HW216966   1.241   5.985   2.609 -0.2108  0.1341 -0.9238
 4300SOL    HW316967   1.295   5.844   2.609 -0.6155 -0.0231 -0.8447
 4300SOL    MW416968   1.308   5.930   2.603 -0.3133 -0.0369 -0.0857
 4301SOL     OW16969   3.330   5.024   1.569 -0.1758 -0.3220  0.2281
 4301SOL    HW216970   3.422   5.033   1.595  0.0541  0.5975 -0.8512
 4301SOL    HW316971   3.320   4.931   1.548  0.4580 -0.4586  0.5095
 4301SOL    MW416972   3.341   5.013   1.570 -0.1802 -0.1266 -0.6175
 4302SOL     OW16973   2.056   2.401   3.193  0.6170 -0.0383 -0.0724
 4302SOL    HW216974   2.142   2.436   3.216  0.1808  0.6096  0.6416
 4302SOL    HW316975   2.046   2.421   3.100  1.4467 -0.5887 -0.2863
 4302SOL    MW416976   2.066   2.408   3.184  0.4034  0.5422  0.5153
 4303SOL     OW16977   1.663   1.209   1.178 -0.2503 -0.0894  0.0678
 4303SOL    HW216978   1.722   1.204   1.254  0.7538  0.5114 -0.6512
 4303SOL    HW316979   1.640   1.117   1.161 -0.0084 -0.2827  0.7328
 4303SOL    MW416980   1.668   1.196   1.186  0.5180 -0.0060 -0.1815
 4304SOL     OW16981   1.012   2.442   3.655  0.5147 -0.0116  0.0672
 4304SOL    HW216982   0.935   2.482   3.615  0.5994 -1.0255 -1.1772
 4304SOL    HW316983   0.978   2.363   3.699  0.5618  0.6149  1.2773
 4304SOL    MW416984   0.997   2.436   3.656 -0.4419 -0.0988  0.0003
 4305SOL     OW16985   4.731   3.687   4.882 -0.4552 -0.2482  0.0688
 4305SOL    HW216986   4.804   3.725   4.833  0.9740 -2.0064  0.7446
 4305SOL    HW316987   4.677   3.643   4.816  0.8984 -1.7248 -0.0981
 4305SOL    MW416988   4.733   3.687   4.867  0.4240 -0.2884 -0.3727
 4306SOL     OW16989   3.838   1.650   1.379  0.3751 -0.2380  0.6681
 4306SOL    HW216990   3.891   1.684   1.451 -1.0630  1.2191  1.1107
 4306SOL    HW316991   3.784   1.582   1.418  1.4990 -1.3507  0.3337
 4306SOL    MW416992   3.838   1.646   1.394  0.6680  0.6741  0.1963
 4307SOL     OW16993   5.665   5.132   3.421 -0.3693 -0.7817  0.5923
 4307SOL    HW216994   5.622   5.214   3.398 -0.2559 -1.5921 -3.1974
 4307SOL    HW316995   5.593   5.072   3.443 -0.4552  0.2000  3.2695
 4307SOL    MW416996   5.650   5.135   3.421  0.1909 -0.2621 -0.2232
 4308SOL     OW16997   4.584   4.298   5.641  0.5478 -0.2887  0.6284
 4308SOL    HW216998   4.536   4.227   5.683 -0.1484  0.9387  2.0030
 4308SOL    HW316999   4.516   4.358   5.610  1.1211 -0.2557 -0.6212
 4308SOL    MW417000   4.569   4.296   5.642 -0.0189  0.7539 -0.0426
 4309SOL     OW17001   3.192   1.998   1.813 -0.1266 -0.3328 -0.1437
 4309SOL    HW217002   3.246   2.044   1.748 -1.3809 -0.4906 -1.3680
 4309SOL    HW317003   3.118   1.965   1.762  0.1128 -2.7035  0.9074
 4309SOL    MW417004   3.189   2.000   1.797 -0.0803 -0.3010  0.3108
 4310SOL     OW17005   2.166   0.458   5.203 -0.0161  0.8794  0.6155
 4310SOL    HW217006   2.241   0.401   5.187 -1.2629 -0.3398 -1.2324
 4310SOL    HW317007   2.142   0.492   5.117 -2.2616  0.3153  0.9397
 4310SOL    MW417008   2.172   0.455   5.190  0.0298 -0.5250  0.1226
 4311SOL     OW17009   4.063   4.859   3.932 -0.6282 -0.2823 -0.1696
 4311SOL    HW217010   4.050   4.891   3.843  1.0854  1.0566  0.0114
 4311SOL    HW317011   4.023   4.772   3.933 -2.5039  0.4900 -1.6340
 4311SOL    MW417012   4.056   4.852   3.921 -0.2796  0.1534  0.5955
 4312SOL     OW17013   5.038   3.625   6.361  0.0769  0.0405 -0.0696
 4312SOL    HW217014   4.949   3.615   6.325 -0.3121 -2.1118  1.2736
 4312SOL    HW317015   5.095   3.618   6.285 -0.8653  0.0675 -0.8046
 4312SOL    MW417016   5.034   3.623   6.346  0.1755 -0.1755  0.3956
 4313SOL     OW17017   4.954   3.461   1.961  0.8069  0.6742 -0.0034
 4313SOL    HW217018   4.923   3.527   2.023  0.0506  1.8895 -1.6054
 4313SOL    HW317019   5.009   3.510   1.900  0.4590 -0.2246 -1.0702
 4313SOL    MW417020   4.957   3.477   1.961  0.6825  0.0075  0.0047
 4314SOL     OW17021   0.680   4.938   4.396  0.1333  0.3421 -0.6907
 4314SOL    HW217022   0.635   5.002   4.453 -0.5743  0.9352 -1.8771
 4314SOL    HW317023   0.659   4.967   4.307 -0.5393 -1.7777 -1.2703
 4314SOL    MW417024   0.671   4.950   4.392  0.2007  0.1363  0.0280
 4315SOL     OW17025   3.219   3.410   2.955  0.1940 -0.0872 -0.3842
 4315SOL    HW217026   3.155   3.476   2.984  0.3128 -0.6973  1.3719
 4315SOL    HW317027   3.175   3.363   2.884 -1.2918 -0.4294  0.7203
 4315SOL    MW417028   3.205   3.413   2.949  0.1001 -1.1085  0.6562
 4316SOL     OW17029   0.459   5.215   4.216 -0.0365 -0.2692 -0.1961
 4316SOL    HW217030   0.537   5.237   4.268  0.7010 -2.9792  0.0056
 4316SOL    HW317031   0.403   5.167   4.276 -1.7594  1.2611 -0.4705
 4316SOL    MW417032   0.462   5.212   4.231  0.3993  0.1942  0.1713
 4317SOL     OW17033   4.301   0.239   4.948  0.5233  0.1992 -0.2090
 4317SOL    HW217034   4.371   0.197   4.998  1.0617 -0.2293 -1.2998
 4317SOL    HW317035   4.293   0.186   4.869 -0.0236  1.1133 -0.7835
 4317SOL    MW417036   4.309   0.226   4.944  0.1338  0.5864  0.0353
 4318SOL     OW17037   2.172   3.699   5.598 -0.5792 -0.1849  0.7005
 4318SOL    HW217038   2.262   3.720   5.625 -0.8202 -0.4843  1.7729
 4318SOL    HW317039   2.135   3.783   5.570  0.6606 -0.3660 -1.7560
 4318SOL    MW417040   2.179   3.713   5.598 -0.0063  0.7332 -0.5645
 4319SOL     OW17041   2.257   1.301   0.096  0.1017  0.3754 -0.4236
 4319SOL    HW217042   2.189   1.272   0.157 -1.9291  2.1790 -1.6920
 4319SOL    HW317043   2.337   1.302   0.149 -1.0367 -0.7755  1.4437
 4319SOL    MW417044   2.259   1.298   0.111 -0.7757  0.1479  0.0029
 4320SOL     OW17045   1.912   3.643   5.652  0.7550  0.2096  0.7885
 4320SOL    HW217046   1.866   3.590   5.718  0.1853  0.2181  0.4088
 4320SOL    HW317047   2.004   3.635   5.675  0.5327  0.6180  1.8981
 4320SOL    MW417048   1.918   3.635   5.664  0.1380  0.4745  0.2741
 4321SOL     OW17049   5.235   5.637   1.014 -0.1838  0.0473  0.4391
 4321SOL    HW217050   5.174   5.669   1.080  1.2613  2.4866  0.7393
 4321SOL    HW317051   5.183   5.630   0.934 -1.3586 -0.2971  1.2101
 4321SOL    MW417052   5.220   5.640   1.013 -0.1643  0.1866  0.3672
 4322SOL     OW17053   0.298   1.375   4.855  0.9724  0.3120  0.2031
 4322SOL    HW217054   0.242   1.447   4.827 -0.2231 -0.8397 -0.4598
 4322SOL    HW317055   0.378   1.418   4.886 -0.3110  2.0076  1.3210
 4322SOL    MW417056   0.301   1.390   4.855 -0.3658 -0.4707  0.4591
 4323SOL     OW17057   6.088   1.446   4.266  1.0652  0.1742  0.0295
 4323SOL    HW217058   6.119   1.511   4.204  0.4334  1.1513  0.7111
 4323SOL    HW317059   6.075   1.494   4.347 -3.2830  0.2082 -0.4484
 4323SOL    MW417060   6.090   1.461   4.268 -0.2066 -0.1709  0.9111
 4324SOL     OW17061   3.330   6.404   0.921 -0.8236  0.3522  0.1617
 4324SOL    HW217062   3.304   6.318   0.955  0.8926 -0.2861 -0.0373
 4324SOL    HW317063   3.416   6.389   0.882  0.3511  2.5389  1.6954
 4324SOL    MW417064   3.338   6.391   0.920  0.2337 -0.0295 -0.1319
 4325SOL     OW17065   5.257   1.022   2.064  0.2597 -0.1901 -0.1265
 4325SOL    HW217066   5.192   0.967   2.019  1.0865 -1.5212  0.2323
 4325SOL    HW317067   5.293   1.077   1.995 -0.3681 -0.3264 -0.5752
 4325SOL    MW417068   5.253   1.022   2.049 -0.0950  0.6736 -0.3501
 4326SOL     OW17069   0.409   2.343   6.090 -0.0127  0.0627  0.6448
 4326SOL    HW217070   0.326   2.325   6.047 -0.1495  0.0240  0.9237
 4326SOL    HW317071   0.388   2.406   6.159 -0.0863 -1.0628  1.6819
 4326SOL    MW417072   0.396   2.349   6.093  0.0144 -0.0810 -1.1651
 4327SOL     OW17073   4.054   0.134   4.985  0.3226 -0.0031 -0.4061
 4327SOL    HW217074   4.008   0.166   4.907 -0.0139  0.0536 -0.1905
 4327SOL    HW317075   4.138   0.179   4.985  0.1775  0.2657 -0.5429
 4327SOL    MW417076   4.059   0.144   4.975 -0.0312 -0.5634  0.6060
 4328SOL     OW17077   4.123   1.150   1.592 -0.4666 -0.1848  0.1931
 4328SOL    HW217078   4.176   1.214   1.639 -0.6682 -0.1300  0.3433
 4328SOL    HW317079   4.188   1.096   1.546 -0.2793 -0.1130  0.3689
 4328SOL    MW417080   4.139   1.151   1.592 -0.2097 -0.0560 -0.1864
 4329SOL     OW17081   0.960   1.910   3.689 -0.6802 -0.0249 -0.3594
 4329SOL    HW217082   0.950   2.005   3.700 -0.2149  0.1258 -1.1314
 4329SOL    HW317083   1.035   1.887   3.744 -1.7617 -0.2279  1.0809
 4329SOL    MW417084   0.969   1.920   3.697 -0.0964 -0.0539  0.6287
 4330SOL     OW17085   1.550   1.262   2.197 -0.0403  0.4945  0.1871
 4330SOL    HW217086   1.534   1.192   2.260  0.9156  1.7752  1.9140
 4330SOL    HW317087   1.609   1.322   2.242  1.0671  1.2413 -2.0944
 4330SOL    MW417088   1.556   1.261   2.211 -0.2456 -0.2845 -0.1654
 4331SOL     OW17089   4.745   5.638   3.314  0.2327  0.4559 -0.7751
 4331SOL    HW217090   4.762   5.606   3.226  0.3603 -0.1477 -0.5378
 4331SOL    HW317091   4.832   5.650   3.352  0.1775  0.3516 -0.6108
 4331SOL    MW417092   4.759   5.635   3.308  0.6293  0.7656  0.3342
 4332SOL     OW17093   2.214   4.562   3.147  0.7477 -0.0818 -0.0976
 4332SOL    HW217094   2.249   4.649   3.165  2.1067 -0.4720 -0.7677
 4332SOL    HW317095   2.276   4.502   3.187 -0.4140 -0.7517  0.7429
 4332SOL    MW417096   2.227   4.566   3.155 -0.3521  0.6126  0.4128
 4333SOL     OW17097   2.603   1.463   6.400  0.1107 -0.0877  0.3233
 4333SOL    HW217098   2.518   1.481   6.361  0.5385 -0.3137 -0.7337
 4333SOL    HW317099   2.664   1.517   6.350  0.9230 -1.7529 -0.5402
 4333SOL    MW417100   2.600   1.473   6.388  0.4428  0.7983  0.4114
 4334SOL     OW17101   3.817   0.755   2.512 -0.8857 -0.1144 -0.2386
 4334SOL    HW217102   3.912   0.745   2.509 -0.7546  0.3916  1.2370
 4334SOL    HW317103   3.803   0.849   2.523 -1.5910 -0.1228 -0.9633
 4334SOL    MW417104   3.828   0.766   2.513 -0.5672  0.1752  0.0561
 4335SOL     OW17105   4.272   3.251   6.378  0.0767  0.3191  0.0334
 4335SOL    HW217106   4.285   3.297   6.460  1.6747 -0.7608  0.4262
 4335SOL    HW317107   4.280   3.158   6.401  0.3259 -0.0120 -1.2913
 4335SOL    MW417108   4.274   3.245   6.392 -0.0836  0.3827  0.3151
 4336SOL     OW17109   2.598   4.411   0.422  0.9050  0.1352  0.2663
 4336SOL    HW217110   2.636   4.442   0.504  0.7266 -1.6978  1.0993
 4336SOL    HW317111   2.672   4.374   0.374  0.5344 -1.7877  1.0936
 4336SOL    MW417112   2.612   4.410   0.426  0.3446 -0.1022  0.4179
 4337SOL     OW17113   6.273   3.764   0.432  0.2891  0.0297  0.3544
 4337SOL    HW217114   6.279   3.813   0.351 -1.7107  0.5725  0.4887
 4337SOL    HW317115   6.186   3.784   0.467  0.0570 -2.2184  1.3027
 4337SOL    MW417116   6.262   3.773   0.426  0.2512 -0.8144  0.0012
 4338SOL     OW17117   2.428   1.700   0.595 -0.0344 -0.3566  0.0914
 4338SOL    HW217118   2.460   1.753   0.522 -0.3636 -0.5228 -0.1774
 4338SOL    HW317119   2.395   1.620   0.554  0.2490 -0.6748  0.4702
 4338SOL    MW417120   2.428   1.696   0.580  0.5104  0.1287  0.2262
 4339SOL     OW17121   4.194   4.792   4.787 -0.4494 -0.1084 -0.1242
 4339SOL    HW217122   4.201   4.700   4.762 -1.1832 -0.3715  0.5742
 4339SOL    HW317123   4.283   4.817   4.813  0.0902 -0.1358 -1.8712
 4339SOL    MW417124   4.207   4.783   4.787 -0.1779  0.1108  0.7083
 4340SOL     OW17125   5.905   4.209   0.029 -0.1668 -0.3989 -0.0424
 4340SOL    HW217126   5.832   4.257   0.067 -0.3896 -0.7294 -0.0451
 4340SOL    HW317127   5.867   4.159  -0.042 -0.4846 -2.6054  1.5546
 4340SOL    MW417128   5.891   4.208   0.025 -0.3236 -0.0364  0.5589
 4341SOL     OW17129   2.654   2.219   5.212  0.2587 -0.8235  0.3874
 4341SOL    HW217130   2.586   2.206   5.145  0.2276  0.0430  0.2380
 4341SOL    HW317131   2.722   2.269   5.166 -0.3637  1.0014  1.3414
 4341SOL    MW417132   2.654   2.224   5.197  0.4715 -0.0241 -0.3393
 4342SOL     OW17133   5.215   2.436   0.201 -0.2708  0.2101  0.2031
 4342SOL    HW217134   5.153   2.509   0.208 -1.4336 -0.8371  1.3338
 4342SOL    HW317135   5.162   2.358   0.218  0.3759 -1.2156 -3.5199
 4342SOL    MW417136   5.200   2.436   0.204 -0.3590  0.6130  0.0571
 4343SOL     OW17137   1.625   4.568   5.287 -0.1903 -0.4269  0.4884
 4343SOL    HW217138   1.566   4.498   5.313  2.0522 -2.4709  0.4940
 4343SOL    HW317139   1.634   4.556   5.192 -2.3586  2.0792 -0.1357
 4343SOL    MW417140   1.619   4.557   5.278 -0.2369 -0.4221 -0.0292
 4344SOL     OW17141   0.998   1.629   3.388 -0.0411 -0.3169  0.4097
 4344SOL    HW217142   1.082   1.662   3.359 -0.4537  1.1904  0.8614
 4344SOL    HW317143   0.959   1.589   3.310  1.0878 -1.0566  0.2135
 4344SOL    MW417144   1.004   1.628   3.374 -0.0234 -0.1811  0.2388
 4345SOL     OW17145   3.355   0.849   4.921 -0.4456  0.2098  0.9987
 4345SOL    HW217146   3.409   0.904   4.864 -0.3610 -0.4398  0.4357
 4345SOL    HW317147   3.417   0.786   4.959 -0.3994  0.9924  2.2756
 4345SOL    MW417148   3.370   0.848   4.918 -0.2091 -0.5280 -0.1501
 4346SOL     OW17149   2.436   4.739   3.664 -0.6526  0.1796  0.5856
 4346SOL    HW217150   2.390   4.671   3.615 -1.6215  1.5650 -0.5260
 4346SOL    HW317151   2.499   4.692   3.719 -1.6135 -1.6132  0.2109
 4346SOL    MW417152   2.438   4.724   3.665 -0.1132 -0.3194  0.2082
 4347SOL     OW17153   4.967   6.333   0.657 -0.3725 -0.2465 -0.3581
 4347SOL    HW217154   5.017   6.365   0.582  0.4480  0.2361  0.3732
 4347SOL    HW317155   4.999   6.243   0.671 -0.4696 -0.3090 -0.5473
 4347SOL    MW417156   4.978   6.325   0.649  0.1714  0.0308  0.3444
 4348SOL     OW17157   2.262   1.978   4.413  0.4442  0.6589 -0.1716
 4348SOL    HW217158   2.229   2.050   4.466  2.3319  0.8202  0.8554
 4348SOL    HW317159   2.255   2.009   4.323 -1.8045  0.8016 -0.0174
 4348SOL    MW417160   2.256   1.991   4.408 -0.3274  0.3188  0.0185
 4349SOL     OW17161   1.896   5.036   2.954  0.1689 -0.2808  0.2328
 4349SOL    HW217162   1.972   5.013   3.007  0.2012 -1.8600 -0.4555
 4349SOL    HW317163   1.919   5.120   2.913  0.7197  0.2333  1.5552
 4349SOL    MW417164   1.909   5.044   2.955 -0.3286 -0.1460  0.1356
 4350SOL     OW17165   2.453   2.755   3.236 -0.0940 -0.3872 -0.3539
 4350SOL    HW217166   2.477   2.826   3.295  1.6186  0.3866 -1.8730
 4350SOL    HW317167   2.377   2.788   3.188 -0.2335 -0.1988 -0.0080
 4350SOL    MW417168   2.446   2.768   3.237  0.0702  0.2801  0.4633
 4351SOL     OW17169   4.314   3.259   1.273  0.3282  0.3460 -0.8576
 4351SOL    HW217170   4.398   3.282   1.234  2.0758 -2.1980  1.0660
 4351SOL    HW317171   4.283   3.185   1.220 -0.0229  0.4282 -0.7667
 4351SOL    MW417172   4.321   3.252   1.261 -0.2521 -0.1003  0.0867
 4352SOL     OW17173   1.793   5.367   2.295 -0.3198  0.2803  0.3851
 4352SOL    HW217174   1.751   5.293   2.252 -0.5637 -0.6219  2.0965
 4352SOL    HW317175   1.757   5.368   2.384 -0.7413  2.8072  0.2784
 4352SOL    MW417176   1.783   5.358   2.301 -0.0188  0.4038  0.5394
 4353SOL     OW17177   5.979   5.024   1.017  0.4212  0.2537  0.3466
 4353SOL    HW217178   6.042   5.012   1.088  0.0252 -0.3173  0.6149
 4353SOL    HW317179   5.920   5.093   1.048  0.3405  0.1119  0.5118
 4353SOL    MW417180   5.979   5.032   1.031  0.2189 -0.1492  0.0577
 4354SOL     OW17181   3.814   3.587   2.891  0.1801 -0.0686  0.2637
 4354SOL    HW217182   3.907   3.571   2.873  0.5809  2.8224 -0.8149
 4354SOL    HW317183   3.770   3.565   2.809  0.2160  0.4669  0.0940
 4354SOL    MW417184   3.820   3.582   2.878  0.2823  0.1061  0.2446
 4355SOL     OW17185   1.882   4.456   4.020  0.3551 -0.2959 -0.7781
 4355SOL    HW217186   1.860   4.542   3.983  0.8628 -0.0209 -0.4546
 4355SOL    HW317187   1.912   4.475   4.109  0.7790 -0.7736 -0.8106
 4355SOL    MW417188   1.883   4.470   4.027  0.3172  0.1134  0.4811
 4356SOL     OW17189   2.584   3.761   2.038  0.0123 -0.1156  0.1291
 4356SOL    HW217190   2.662   3.705   2.033  0.0067 -0.0659 -0.6061
 4356SOL    HW317191   2.514   3.701   2.065 -0.6043 -1.1475 -3.3204
 4356SOL    MW417192   2.585   3.745   2.041 -0.6940 -0.1605 -1.3371
 4357SOL     OW17193   1.881   6.343   1.286 -0.0660  0.2727  0.1818
 4357SOL    HW217194   1.803   6.339   1.230  0.1561  2.3147 -0.3526
 4357SOL    HW317195   1.889   6.255   1.323 -1.3049 -0.6186 -1.5394
 4357SOL    MW417196   1.872   6.331   1.283  0.1300 -0.2517  0.2886
 4358SOL     OW17197   4.837   5.006   5.122 -0.2058  0.7251 -0.4866
 4358SOL    HW217198   4.820   5.090   5.165  1.8422  0.8034  0.3123
 4358SOL    HW317199   4.849   4.944   5.194  0.7790  0.3139 -0.9769
 4358SOL    MW417200   4.837   5.009   5.137 -0.0696 -0.7272  0.4401
 4359SOL     OW17201   3.619   1.336   0.450 -0.0606 -0.6126 -0.0425
 4359SOL    HW217202   3.661   1.349   0.365  1.6032 -0.1841  0.8013
 4359SOL    HW317203   3.657   1.404   0.506 -0.0227 -1.7812  1.4175
 4359SOL    MW417204   3.629   1.347   0.446 -0.4550  0.5266  0.0676
 4360SOL     OW17205   2.416   3.598   0.620 -0.4360 -0.2273  0.3843
 4360SOL    HW217206   2.439   3.675   0.672 -1.5143 -0.9656  2.0343
 4360SOL    HW317207   2.461   3.525   0.663 -0.5475 -0.7247 -0.3250
 4360SOL    MW417208   2.425   3.599   0.632 -0.2081  0.1208 -0.0353
 4361SOL     OW17209   0.602   0.346   6.005  0.1411 -0.2758  0.1166
 4361SOL    HW217210   0.676   0.335   5.945 -0.0065 -0.4599 -0.0346
 4361SOL    HW317211   0.642   0.358   6.091  0.3361 -1.2276  0.1676
 4361SOL    MW417212   0.617   0.346   6.009  0.3472  0.2425 -0.0270
 4362SOL     OW17213   3.748   4.932   3.426 -0.0608  0.3513  0.4756
 4362SOL    HW217214   3.682   4.999   3.410 -2.1080 -0.9492  2.7722
 4362SOL    HW317215   3.722   4.891   3.508  1.4882 -2.7956 -0.4151
 4362SOL    MW417216   3.736   4.935   3.435 -0.2586  0.9798 -0.4498
 4363SOL     OW17217   1.933   3.864   1.137 -0.1437 -0.4169  0.2991
 4363SOL    HW217218   1.876   3.875   1.061  1.7015 -0.2498 -1.1616
 4363SOL    HW317219   1.941   3.769   1.148 -0.4389 -0.4413  0.2889
 4363SOL    MW417220   1.927   3.853   1.128  0.6110 -0.0734  0.0162
 4364SOL     OW17221   3.222   1.624   2.259  0.4208  0.2741 -0.6655
 4364SOL    HW217222   3.312   1.608   2.288  0.9992  3.0887 -0.6424
 4364SOL    HW317223   3.172   1.551   2.296  2.7651 -1.8123 -1.3627
 4364SOL    MW417224   3.227   1.612   2.268  0.1759  0.7109  0.2165
 4365SOL     OW17225   6.240   5.794   0.494  0.0873 -0.0384  0.3209
 4365SOL    HW217226   6.184   5.864   0.460 -0.3344 -0.0581  0.9777
 4365SOL    HW317227   6.272   5.750   0.415 -2.1951 -1.1204 -0.0614
 4365SOL    MW417228   6.237   5.798   0.479 -0.0224  0.0897 -0.5349
 4366SOL     OW17229   1.625   3.470   2.331 -0.5900  0.6265 -0.1161
 4366SOL    HW217230   1.682   3.467   2.408  0.2709  1.0753 -0.7081
 4366SOL    HW317231   1.548   3.419   2.355  0.1703 -0.1896  0.6417
 4366SOL    MW417232   1.623   3.463   2.344 -0.3094  0.2420 -0.2914
 4367SOL     OW17233   4.653   0.012   1.680  0.8115 -0.1229 -0.2985
 4367SOL    HW217234   4.580   0.067   1.710  1.0431 -0.6076  1.2174
 4367SOL    HW317235   4.627  -0.015   1.592 -1.3136 -1.0785  0.5545
 4367SOL    MW417236   4.640   0.016   1.672 -0.0937 -0.0279  0.3970
 4368SOL     OW17237   4.017   2.890   2.249  0.0713 -0.1718  0.1264
 4368SOL    HW217238   3.996   2.815   2.193 -2.6919  0.3931  0.2875
 4368SOL    HW317239   3.947   2.952   2.233  0.4049  0.9399  2.5766
 4368SOL    MW417240   4.005   2.888   2.240 -0.2230  0.1658  0.2015
 4369SOL     OW17241   3.700   4.964   4.557  0.5846 -0.0918  0.7718
 4369SOL    HW217242   3.678   4.988   4.647  0.9862  0.1947  0.7933
 4369SOL    HW317243   3.788   4.999   4.543  0.6235 -0.3521  0.3494
 4369SOL    MW417244   3.708   4.972   4.567 -0.0902 -0.8007  0.3264
 4370SOL     OW17245   4.123   5.156   2.707 -0.7625 -0.0225  0.1899
 4370SOL    HW217246   4.182   5.199   2.769  0.2432 -2.4280  1.0232
 4370SOL    HW317247   4.092   5.227   2.650  2.0042  1.5493  0.4731
 4370SOL    MW417248   4.127   5.171   2.707  0.0185  0.1301  0.5846
 4371SOL     OW17249   2.523   0.495   0.468 -0.5542  0.6147  0.1126
 4371SOL    HW217250   2.553   0.574   0.512 -2.9601  0.5317  2.1003
 4371SOL    HW317251   2.498   0.524   0.380  0.2076  1.6680  0.2295
 4371SOL    MW417252   2.524   0.509   0.462  0.8103  0.4804 -0.6439
 4372SOL     OW17253   1.874   3.789   2.558  0.1734 -0.0796  0.1228
 4372SOL    HW217254   1.907   3.846   2.490 -1.2293  1.9447  1.0487
 4372SOL    HW317255   1.908   3.825   2.639  1.2409 -2.0330  0.6206
 4372SOL    MW417256   1.883   3.801   2.560 -0.0963 -0.4663 -0.0553
 4373SOL     OW17257   3.599   0.821   2.888  0.4042 -0.9203  0.0947
 4373SOL    HW217258   3.541   0.807   2.962  2.1192  2.3284  2.3053
 4373SOL    HW317259   3.560   0.894   2.840  1.0206 -0.8168 -0.2655
 4373SOL    MW417260   3.587   0.829   2.891 -0.4939 -0.6889  0.3878
 4374SOL     OW17261   1.116   4.279   6.378  0.5079 -0.3640  0.6468
 4374SOL    HW217262   1.170   4.349   6.414  1.0423 -0.7316  0.5798
 4374SOL    HW317263   1.075   4.317   6.301 -1.1012  0.6229  1.9253
 4374SOL    MW417264   1.118   4.293   6.373  0.2298 -0.3239  0.2290
 4375SOL     OW17265   1.807   2.571   0.578 -0.5145 -0.2248 -0.2538
 4375SOL    HW217266   1.762   2.638   0.629  0.2975  0.7220 -0.7419
 4375SOL    HW317267   1.887   2.553   0.629  0.0088  0.2945 -0.8701
 4375SOL    MW417268   1.812   2.577   0.592 -0.5841  0.1905  0.1182
 4376SOL     OW17269   4.720   2.418   0.002 -0.0637  0.7171 -0.1434
 4376SOL    HW217270   4.682   2.500  -0.029 -0.9762  1.0556  1.7365
 4376SOL    HW317271   4.646   2.358   0.011  0.0033  0.8614  1.9575
 4376SOL    MW417272   4.706   2.420  -0.001 -0.0461 -0.0067 -0.4630
 4377SOL     OW17273   3.120   0.591   1.837 -0.0573  0.0687  1.1362
 4377SOL    HW217274   3.090   0.669   1.791  1.3326  0.8087  1.4071
 4377SOL    HW317275   3.041   0.539   1.851 -0.4225 -1.0521 -3.4817
 4377SOL    MW417276   3.106   0.594   1.833 -0.0250  0.1291 -0.4960
 4378SOL     OW17277   5.586   3.990   0.449 -0.3400  0.3494 -0.1888
 4378SOL    HW217278   5.616   3.941   0.372  0.6268 -0.4865  0.6856
 4378SOL    HW317279   5.562   3.923   0.513 -3.1732  0.9969 -0.4406
 4378SOL    MW417280   5.587   3.975   0.447 -0.7135 -0.4271 -0.0068
 4379SOL     OW17281   0.708   2.843   2.748  0.3547 -0.2418 -0.6037
 4379SOL    HW217282   0.728   2.749   2.747  0.6371 -0.1837 -0.5611
 4379SOL    HW317283   0.625   2.850   2.701 -0.7731 -0.7441  1.2359
 4379SOL    MW417284   0.700   2.831   2.742 -0.5998 -0.4600 -0.0468
 4380SOL     OW17285   5.170   2.149   6.041 -0.6957 -0.0015 -0.2882
 4380SOL    HW217286   5.105   2.080   6.029  0.4977 -1.7167  2.2948
 4380SOL    HW317287   5.247   2.117   5.995 -0.1671 -0.3968  0.8400
 4380SOL    MW417288   5.171   2.136   6.033  0.9773 -0.4737 -0.2462
 4381SOL     OW17289   4.983   0.481   3.710  0.3930 -0.2186  0.2392
 4381SOL    HW217290   4.939   0.413   3.658 -0.4532  0.5233 -0.0464
 4381SOL    HW317291   4.945   0.472   3.798 -1.5882  1.4227 -0.3613
 4381SOL    MW417292   4.972   0.471   3.715  0.5324  0.0568  0.0884
 4382SOL     OW17293   3.669   0.185   3.647  0.1384 -0.0653  0.3140
 4382SOL    HW217294   3.633   0.269   3.677  0.1851  0.1995 -0.3521
 4382SOL    HW317295   3.665   0.129   3.724 -1.8058 -0.0940  0.2461
 4382SOL    MW417296   3.664   0.189   3.661 -0.1682 -0.2244  0.2144
 4383SOL     OW17297   1.033   5.147   6.145  0.3225 -0.4089 -0.0032
 4383SOL    HW217298   1.060   5.137   6.053  0.4263 -0.2968  0.0148
 4383SOL    HW317299   0.954   5.094   6.152  0.3607 -0.4870 -0.1368
 4383SOL    MW417300   1.026   5.139   6.134 -0.0186  0.2693 -0.3839
 4384SOL     OW17301   4.941   2.245   5.333  0.0551  0.3577 -0.5291
 4384SOL    HW217302   4.950   2.169   5.275  0.2594  0.3682 -0.5137
 4384SOL    HW317303   5.017   2.239   5.392 -0.1975  0.3023 -0.2092
 4384SOL    MW417304   4.952   2.234   5.333 -0.2714  0.2509  0.4442
 4385SOL     OW17305   6.391   5.975   0.202 -1.0879  0.4395  0.2002
 4385SOL    HW217306   6.394   5.880   0.214  1.4666  0.3951 -0.1674
 4385SOL    HW317307   6.339   5.987   0.122  1.0246 -0.9364 -1.4982
 4385SOL    MW417308   6.384   5.964   0.193 -0.5640  0.2891 -0.4177
 4386SOL     OW17309   0.908   4.820   3.319 -0.2015  0.1838 -0.7087
 4386SOL    HW217310   0.903   4.803   3.225 -1.3598 -0.1946 -0.6062
 4386SOL    HW317311   0.839   4.764   3.356  0.0015  0.6006  0.3218
 4386SOL    MW417312   0.898   4.810   3.312 -0.2292  0.3134 -0.0322
 4387SOL     OW17313   1.852   5.237   5.118 -0.0009 -0.3007  0.2222
 4387SOL    HW217314   1.846   5.274   5.207  0.1160  0.5117 -0.0961
 4387SOL    HW317315   1.944   5.212   5.110 -0.2204 -1.2973  0.6770
 4387SOL    MW417316   1.864   5.239   5.129  0.4309  0.1628 -0.3070
 4388SOL     OW17317   4.675   1.601   3.414 -0.1581 -0.7109 -0.2721
 4388SOL    HW217318   4.638   1.580   3.329 -3.6433 -1.1349  1.1650
 4388SOL    HW317319   4.705   1.516   3.449  1.3957 -0.5161 -1.0569
 4388SOL    MW417320   4.674   1.587   3.408 -1.1383  0.4415 -0.5601
 4389SOL     OW17321   5.701   3.057   0.296 -0.1278  0.5223  0.0513
 4389SOL    HW217322   5.732   3.075   0.207 -0.8573 -0.7798 -0.4787
 4389SOL    HW317323   5.610   3.086   0.296 -0.5447 -0.7402 -0.0562
 4389SOL    MW417324   5.693   3.063   0.284  0.0367  0.3732 -0.0632
 4390SOL     OW17325   3.173   1.059   4.105  0.2955  0.1816 -0.0174
 4390SOL    HW217326   3.096   1.074   4.050 -0.0629 -0.7816  0.1944
 4390SOL    HW317327   3.137   1.023   4.187  1.0180 -1.2297 -0.2936
 4390SOL    MW417328   3.158   1.056   4.109  0.4691 -0.1302 -0.3040
 4391SOL     OW17329   5.706   0.379   2.281 -0.0045  0.3571 -0.1058
 4391SOL    HW217330   5.664   0.293   2.284  2.1769 -0.7483  0.5159
 4391SOL    HW317331   5.674   0.419   2.200 -1.3977 -0.8220 -0.1821
 4391SOL    MW417332   5.696   0.373   2.271 -0.3223 -0.2609 -0.5352
 4392SOL     OW17333   6.123   1.646   2.956 -0.0575 -0.1373  0.0865
 4392SOL    HW217334   6.066   1.572   2.937 -0.4654 -0.0229  0.7956
 4392SOL    HW317335   6.091   1.716   2.899 -1.4910  0.3120  1.3772
 4392SOL    MW417336   6.111   1.646   2.946  0.1349 -0.0100  0.5302
 4393SOL     OW17337   2.580   2.124   4.956 -0.7171 -0.1376 -0.5287
 4393SOL    HW217338   2.528   2.044   4.966 -1.0655  0.2098  0.6856
 4393SOL    HW317339   2.663   2.095   4.920 -0.4244 -1.2257  0.9305
 4393SOL    MW417340   2.584   2.110   4.953 -0.2873  0.2828  0.1698
 4394SOL     OW17341   1.933   1.874   3.336 -0.3494 -0.0368  0.2695
 4394SOL    HW217342   1.990   1.950   3.337  0.3494 -0.5511  0.4359
 4394SOL    HW317343   1.964   1.821   3.263 -2.2594  0.8764 -1.2898
 4394SOL    MW417344   1.944   1.877   3.327 -0.5187 -0.2341  0.2396
 4395SOL     OW17345   6.213   4.962   4.176 -0.3931 -0.0551 -0.4083
 4395SOL    HW217346   6.303   4.944   4.149  0.4765  1.7581  1.0693
 4395SOL    HW317347   6.197   4.903   4.249 -0.2414 -0.0726 -0.3894
 4395SOL    MW417348   6.222   4.952   4.182 -0.4779 -0.1797 -0.2796
 4396SOL     OW17349   2.156   3.485   1.335 -0.1431  0.3216  0.4617
 4396SOL    HW217350   2.081   3.543   1.320  0.5001  0.9727 -0.3552
 4396SOL    HW317351   2.159   3.429   1.257  0.1647  0.2378  0.5325
 4396SOL    MW417352   2.147   3.485   1.323  0.2450 -0.0357  0.3184
 4397SOL     OW17353   2.965   2.629   1.586  0.3044 -0.6322 -0.1869
 4397SOL    HW217354   2.976   2.698   1.652  0.0793 -1.3107  0.5699
 4397SOL    HW317355   3.052   2.593   1.574  0.2044 -1.0823  0.3849
 4397SOL    MW417356   2.978   2.633   1.593 -0.0755 -0.8106  0.2195
 4398SOL     OW17357   4.943   0.230   4.683 -0.0884  0.6508  0.2792
 4398SOL    HW217358   4.888   0.259   4.755 -2.6417 -1.6626 -0.5408
 4398SOL    HW317359   4.999   0.162   4.721 -0.2954  0.5477  0.3977
 4398SOL    MW417360   4.944   0.225   4.697 -0.2818  0.1966  0.6495
 4399SOL     OW17361   5.946   0.925   2.129 -0.3999  0.2121  0.1099
 4399SOL    HW217362   5.885   0.996   2.110  0.1836  0.5505 -0.5777
 4399SOL    HW317363   5.981   0.901   2.043 -0.2624 -0.6147  0.3860
 4399SOL    MW417364   5.943   0.931   2.115  0.6466 -0.3367 -0.2544
 4400SOL     OW17365   0.528   1.558   3.733 -0.9070  0.7237 -0.2294
 4400SOL    HW217366   0.473   1.492   3.690 -0.0931 -1.6765  2.1575
 4400SOL    HW317367   0.598   1.575   3.670 -0.9012 -1.0779 -0.7622
 4400SOL    MW417368   0.530   1.552   3.719 -0.4532 -0.6077 -0.3014
 4401SOL     OW17369   2.479   0.054   2.582 -0.1984  0.0243  0.3359
 4401SOL    HW217370   2.513   0.008   2.506 -0.2753  0.0304  0.2976
 4401SOL    HW317371   2.405  -0.000   2.611 -1.1987  0.8726 -0.5700
 4401SOL    MW417372   2.474   0.041   2.576 -0.3402 -0.7192 -0.1173
 4402SOL     OW17373   0.808   4.821   2.583  0.3060  0.5514  0.2176
 4402SOL    HW217374   0.732   4.801   2.638 -0.1427  2.1645  0.2474
 4402SOL    HW317375   0.862   4.742   2.586 -1.4529 -0.7170  0.0304
 4402SOL    MW417376   0.805   4.808   2.591 -0.4304 -0.0430  0.4968
 4403SOL     OW17377   0.604   1.881   0.192 -0.0542  0.5260  0.1932
 4403SOL    HW217378   0.669   1.828   0.145  0.7607  0.5406  1.2750
 4403SOL    HW317379   0.595   1.838   0.277 -1.0059  0.8937  0.2909
 4403SOL    MW417380   0.611   1.868   0.197  0.0090  0.2417  0.4256
 4404SOL     OW17381   0.185   4.904   1.433  0.0235 -0.5390 -0.0734
 4404SOL    HW217382   0.189   4.995   1.404  0.7610 -0.8629 -1.0528
 4404SOL    HW317383   0.106   4.899   1.487  1.0268  1.1456  1.6851
 4404SOL    MW417384   0.175   4.915   1.436 -0.3974 -0.0006  0.0067
 4405SOL     OW17385   6.381   0.316   0.202 -0.0245  0.2379  0.2087
 4405SOL    HW217386   6.388   0.341   0.294  1.6020  0.3876  0.0688
 4405SOL    HW317387   6.347   0.394   0.158 -0.3732  0.3092  0.5980
 4405SOL    MW417388   6.377   0.330   0.208 -0.4920 -0.3016 -0.4597
 4406SOL     OW17389   5.132   3.578   1.782  0.1199  0.0191 -0.0854
 4406SOL    HW217390   5.115   3.667   1.811 -0.5462 -0.3827  0.8197
 4406SOL    HW317391   5.207   3.549   1.834 -0.8185 -0.5614  0.9962
 4406SOL    MW417392   5.139   3.586   1.792  0.1503  0.4700 -0.2796
 4407SOL     OW17393   3.855   3.540   3.925 -0.1805  0.0285  0.4790
 4407SOL    HW217394   3.908   3.466   3.957 -1.6555 -0.5815  1.6272
 4407SOL    HW317395   3.836   3.518   3.834  1.5378  0.2836  0.0247
 4407SOL    MW417396   3.859   3.527   3.917 -0.2323 -0.2073  0.6720
 4408SOL     OW17397   3.714   5.917   2.326  0.0312 -0.3208 -0.0810
 4408SOL    HW217398   3.780   5.854   2.354 -0.5927 -1.4598 -1.0452
 4408SOL    HW317399   3.741   5.942   2.237 -0.3872 -0.1796 -0.1719
 4408SOL    MW417400   3.726   5.912   2.318 -0.2158  0.6652  0.3467
 4409SOL     OW17401   0.144   4.093   0.930 -0.0971  0.1207  0.2092
 4409SOL    HW217402   0.087   4.099   0.853 -1.2789 -0.5082  0.9834
 4409SOL    HW317403   0.178   4.003   0.927  0.5896  0.3864 -0.0616
 4409SOL    MW417404   0.141   4.082   0.920 -0.4342  0.3112 -1.0480
 4410SOL     OW17405   3.149   1.183   4.539  0.4046 -1.0411  0.0666
 4410SOL    HW217406   3.169   1.195   4.446  0.4732  1.2864  0.3110
 4410SOL    HW317407   3.077   1.120   4.540  0.0406 -0.7023 -1.6196
 4410SOL    MW417408   3.142   1.176   4.527  0.1897 -1.0427 -0.7257
 4411SOL     OW17409   4.217   4.314   0.330 -0.3404 -0.1065 -0.4130
 4411SOL    HW217410   4.140   4.347   0.376  0.7693  0.6488  0.9898
 4411SOL    HW317411   4.215   4.357   0.245 -1.4411 -0.0907 -0.3974
 4411SOL    MW417412   4.206   4.324   0.325  0.2242 -0.0608 -0.2037
 4412SOL     OW17413   2.998   0.674   5.769  0.0928  0.4008 -0.5641
 4412SOL    HW217414   2.927   0.739   5.775  0.2746  0.5328  0.2135
 4412SOL    HW317415   2.953   0.589   5.775 -0.0245  0.4784 -0.3385
 4412SOL    MW417416   2.982   0.671   5.770  0.2806 -0.3668  0.5743
 4413SOL     OW17417   2.621   2.084   1.763 -0.4903  0.5676  0.1080
 4413SOL    HW217418   2.673   2.163   1.747  0.3006 -0.0374 -0.3672
 4413SOL    HW317419   2.667   2.040   1.835 -0.5822  0.2394 -0.0336
 4413SOL    MW417420   2.634   2.089   1.771 -0.4073  0.1275 -0.3721
 4414SOL     OW17421   3.152   5.327   5.290 -0.6235 -0.0796 -0.5261
 4414SOL    HW217422   3.213   5.398   5.310 -1.5680  1.2650 -2.1299
 4414SOL    HW317423   3.105   5.312   5.372  1.3313 -0.7092  0.5707
 4414SOL    MW417424   3.154   5.334   5.304  0.2533 -0.6517 -0.1434
 4415SOL     OW17425   3.403   5.307   2.107 -0.3984 -0.2721 -0.0358
 4415SOL    HW217426   3.430   5.217   2.091 -1.1051 -0.2065 -1.8436
 4415SOL    HW317427   3.309   5.301   2.124 -0.4943  0.1399 -0.3989
 4415SOL    MW417428   3.394   5.294   2.107 -0.0853  0.3532 -0.0957
 4416SOL     OW17429   4.397   0.239   4.450  0.0894 -0.0741 -0.1061
 4416SOL    HW217430   4.333   0.194   4.394 -1.0362  0.7687  0.4454
 4416SOL    HW317431   4.404   0.326   4.411  1.8925 -0.5242 -0.8938
 4416SOL    MW417432   4.389   0.245   4.437  0.7097 -0.1682 -0.1496
 4417SOL     OW17433   5.056   2.140   1.454  0.0277 -0.1397 -0.3052
 4417SOL    HW217434   5.126   2.155   1.391 -1.2908  1.1276 -1.5662
 4417SOL    HW317435   4.999   2.076   1.411 -0.5750  0.2860 -0.1495
 4417SOL    MW417436   5.057   2.133   1.440  0.0455  0.7829 -0.0629
 4418SOL     OW17437   3.344   3.622   2.514 -0.3828  0.2935  0.8872
 4418SOL    HW217438   3.414   3.650   2.574 -0.1092  1.9444 -0.1357
 4418SOL    HW317439   3.263   3.637   2.563 -0.1731  1.8479  0.7965
 4418SOL    MW417440   3.342   3.628   2.528  0.0451 -0.4724  0.7253
 4419SOL     OW17441   3.020   5.908   6.233 -0.3365  0.0384 -0.3723
 4419SOL    HW217442   2.993   5.823   6.199  0.6722 -0.7853  0.8227
 4419SOL    HW317443   3.043   5.959   6.154  1.8762 -1.7775 -1.0230
 4419SOL    MW417444   3.020   5.904   6.218  0.5523 -0.1011 -0.0522
 4420SOL     OW17445   0.493   2.817   1.883 -0.2155  0.0919  0.4681
 4420SOL    HW217446   0.534   2.848   1.963  0.2740 -0.1590  0.3202
 4420SOL    HW317447   0.534   2.732   1.866  1.4830  1.1858 -1.3532
 4420SOL    MW417448   0.504   2.810   1.891 -0.0093  0.0336 -0.2188
 4421SOL     OW17449   4.636   5.451   4.357  0.4560 -0.7508  0.0740
 4421SOL    HW217450   4.636   5.395   4.435 -1.2546  2.2434  2.4098
 4421SOL    HW317451   4.714   5.506   4.368  0.5650 -0.7468 -0.7035
 4421SOL    MW417452   4.647   5.451   4.369  0.1767 -0.2495 -0.5852
 4422SOL     OW17453   1.325   2.072   5.196 -0.1358  0.3358 -0.5912
 4422SOL    HW217454   1.292   2.013   5.128  0.9821 -0.0334 -0.8242
 4422SOL    HW317455   1.322   2.019   5.276 -2.3006  1.0500 -0.1375
 4422SOL    MW417456   1.320   2.057   5.198  0.1301  0.1422  0.0846
 4423SOL     OW17457   3.384   4.988   5.929  0.2048  0.1797 -0.3087
 4423SOL    HW217458   3.353   4.949   6.011  1.2989 -0.4060 -0.1472
 4423SOL    HW317459   3.370   4.919   5.863 -0.9997  0.7768 -0.6973
 4423SOL    MW417460   3.378   4.974   5.931 -0.6021 -0.3452 -0.3694
 4424SOL     OW17461   0.740   5.251   4.340  0.0170 -0.2659 -0.4911
 4424SOL    HW217462   0.789   5.208   4.270 -1.6989  0.6370 -2.3505
 4424SOL    HW317463   0.781   5.337   4.349  1.0393 -0.8315  0.5670
 4424SOL    MW417464   0.752   5.257   4.332 -0.1324  0.1755  0.2469
 4425SOL     OW17465   5.382   1.501   0.412  0.1108 -0.4936 -0.0456
 4425SOL    HW217466   5.446   1.519   0.343 -1.5377  1.5672 -1.1553
 4425SOL    HW317467   5.398   1.569   0.477 -1.9572  1.2369 -1.1803
 4425SOL    MW417468   5.393   1.513   0.411 -0.3660  0.4438  0.7897
 4426SOL     OW17469   3.160   1.619   5.922  0.3432 -0.2850 -0.4896
 4426SOL    HW217470   3.168   1.688   5.988  0.4147 -1.2207  0.5253
 4426SOL    HW317471   3.239   1.566   5.934 -0.0384 -0.9277 -0.7664
 4426SOL    MW417472   3.171   1.621   5.933 -0.2190 -0.5687  1.3321
 4427SOL     OW17473   4.793   1.192   4.700 -0.8587 -0.0094  0.3706
 4427SOL    HW217474   4.792   1.158   4.610 -2.9388  1.7966 -0.3694
 4427SOL    HW317475   4.873   1.155   4.738  0.4207 -0.3533 -2.3856
 4427SOL    MW417476   4.804   1.182   4.693  0.0654  0.2771 -0.0268
 4428SOL     OW17477   2.683   5.180   6.157 -0.2738  0.0632 -0.5282
 4428SOL    HW217478   2.771   5.202   6.125 -0.8422  0.0184 -2.2245
 4428SOL    HW317479   2.634   5.261   6.151 -0.8387 -0.3291 -1.3783
 4428SOL    MW417480   2.688   5.193   6.152  0.5812  0.2209  0.6015
 4429SOL     OW17481   2.131   5.542   0.638 -0.2949 -0.3416  0.0251
 4429SOL    HW217482   2.137   5.598   0.561 -1.4608 -0.4268 -0.1439
 4429SOL    HW317483   2.192   5.470   0.621  0.6464  0.4739 -0.0930
 4429SOL    MW417484   2.140   5.540   0.626  0.1776  0.1121  0.0036
 4430SOL     OW17485   2.917   4.227   3.693  0.0792 -0.1198  0.4291
 4430SOL    HW217486   2.967   4.283   3.753  0.8990 -1.6571  1.2303
 4430SOL    HW317487   2.963   4.143   3.695  0.4384 -0.1298 -2.7275
 4430SOL    MW417488   2.930   4.223   3.701 -0.2481 -0.5234  0.1819
 4431SOL     OW17489   5.530   6.010   1.693  0.2298 -0.1626  0.3344
 4431SOL    HW217490   5.509   6.028   1.785  2.6664 -0.7099  1.0666
 4431SOL    HW317491   5.590   6.080   1.668  0.7941 -0.8696 -0.3495
 4431SOL    MW417492   5.535   6.022   1.702  0.4212  0.0310  0.0958
 4432SOL     OW17493   6.050   3.290   4.080  0.0878  0.1695  0.0332
 4432SOL    HW217494   6.081   3.281   3.990 -1.0915 -0.8726 -0.2875
 4432SOL    HW317495   5.981   3.356   4.076  0.2725  0.3768  0.2342
 4432SOL    MW417496   6.045   3.297   4.068  0.0254 -0.3989  0.8645
 4433SOL     OW17497   5.334   5.654   4.895 -0.4814 -0.0005  0.0589
 4433SOL    HW217498   5.332   5.580   4.835  0.1503  0.5657 -0.6834
 4433SOL    HW317499   5.426   5.678   4.902 -0.3568 -0.8756  2.3366
 4433SOL    MW417500   5.346   5.648   4.888 -0.4385 -0.0589  0.1861
 4434SOL     OW17501   0.459   2.214   2.751  0.0318  0.6179 -0.5100
 4434SOL    HW217502   0.548   2.196   2.720  0.4925  0.5735  0.7802
 4434SOL    HW317503   0.409   2.136   2.724  0.0491  1.1903 -2.3607
 4434SOL    MW417504   0.464   2.201   2.743  0.4638  0.2500  0.2842
 4435SOL     OW17505   5.432   3.416   6.395  0.8788  0.2059  0.0623
 4435SOL    HW217506   5.385   3.472   6.457  1.8355 -2.0578  3.0576
 4435SOL    HW317507   5.509   3.468   6.370  0.1755  1.3889  0.2476
 4435SOL    MW417508   5.436   3.430   6.400  0.0870  0.6987 -0.1888
 4436SOL     OW17509   1.077   5.629   5.093  0.2746  0.2313 -0.1852
 4436SOL    HW217510   0.984   5.642   5.074  0.5727  0.4810 -1.6052
 4436SOL    HW317511   1.079   5.595   5.182 -1.4288 -3.0526 -1.2160
 4436SOL    MW417512   1.065   5.626   5.102 -0.2796 -0.0801 -0.1930
 4437SOL     OW17513   4.204   4.076   2.638 -0.4135  0.2601 -0.0450
 4437SOL    HW217514   4.126   4.098   2.587 -1.4658 -0.4934  1.2008
 4437SOL    HW317515   4.222   4.154   2.690 -1.7671 -0.3563  1.4076
 4437SOL    MW417516   4.196   4.089   2.638 -0.3003 -0.0870 -0.0363
 4438SOL     OW17517   5.333   2.045   3.474 -0.3761 -0.2936  0.2619
 4438SOL    HW217518   5.254   2.100   3.471  1.8632  3.1970 -0.5840
 4438SOL    HW317519   5.336   2.014   3.565 -2.3164  0.0710  0.5080
 4438SOL    MW417520   5.323   2.048   3.486 -0.4093  0.0861 -0.2238
 4439SOL     OW17521   6.364   3.503   5.066  0.0048 -0.0088  0.2075
 4439SOL    HW217522   6.298   3.494   4.997 -0.2538  1.4542  0.2172
 4439SOL    HW317523   6.447   3.500   5.019 -0.1883  2.4821 -0.4542
 4439SOL    MW417524   6.366   3.502   5.051  0.7666 -0.4259 -0.3044
 4440SOL     OW17525   0.349   0.372   5.950  0.0554 -0.0939 -0.3448
 4440SOL    HW217526   0.309   0.436   6.010 -2.0705  0.7660 -2.5229
 4440SOL    HW317527   0.440   0.366   5.979 -0.1468  2.4984  1.1241
 4440SOL    MW417528   0.355   0.380   5.962 -0.3468 -0.3347  1.1337
 4441SOL     OW17529   3.438   2.330   4.357 -0.1336  0.1146 -0.3903
 4441SOL    HW217530   3.466   2.357   4.270 -1.6690 -0.0904 -0.9682
 4441SOL    HW317531   3.464   2.238   4.364  0.3188  0.2335 -0.4798
 4441SOL    MW417532   3.445   2.322   4.347 -0.1018 -0.4690  0.4603
 4442SOL     OW17533   0.269   5.000   6.086  0.0377 -0.5689 -0.3995
 4442SOL    HW217534   0.233   4.927   6.137 -0.2462 -0.0244  0.2031
 4442SOL    HW317535   0.214   5.006   6.009  0.5224 -1.4616 -0.8235
 4442SOL    MW417536   0.257   4.991   6.083 -0.0341  0.8905  0.4061
 4443SOL     OW17537   5.259   4.842   1.482  0.2846 -0.1542 -0.2798
 4443SOL    HW217538   5.189   4.846   1.417  0.9501 -0.3291 -1.0268
 4443SOL    HW317539   5.335   4.880   1.438  0.1936  1.8307  1.1795
 4443SOL    MW417540   5.260   4.847   1.468  0.3068 -0.1969  0.5084
 4444SOL     OW17541   0.557   1.546   0.787  0.2417  0.1683 -0.2832
 4444SOL    HW217542   0.522   1.593   0.863  0.2340  1.8268 -1.2524
 4444SOL    HW317543   0.483   1.538   0.728 -0.0610 -2.2246  0.3420
 4444SOL    MW417544   0.543   1.551   0.790  0.3138 -0.4389 -0.0825
 4445SOL     OW17545   5.384   2.193   4.935  0.1672 -0.1616 -0.0923
 4445SOL    HW217546   5.393   2.119   4.875 -1.6423 -0.6131  0.1508
 4445SOL    HW317547   5.316   2.247   4.896 -0.1809  0.1604  0.9423
 4445SOL    MW417548   5.376   2.190   4.922 -0.1412 -0.1328  0.3156
 4446SOL     OW17549   5.918   3.586   5.742  0.0513 -0.3290 -0.3836
 4446SOL    HW217550   5.903   3.500   5.779  1.0539  0.2704  1.5493
 4446SOL    HW317551   5.964   3.569   5.659  0.8433 -1.6463  0.2993
 4446SOL    MW417552   5.922   3.573   5.736 -0.2728  0.2817 -0.3464
 4447SOL     OW17553   4.189   2.072   5.478  0.0111  0.6396 -0.0039
 4447SOL    HW217554   4.268   2.126   5.489  2.0404 -1.6730 -1.8940
 4447SOL    HW317555   4.201   1.999   5.540 -1.6769  1.2329  1.0818
 4447SOL    MW417556   4.201   2.069   5.488  0.3738 -0.2622 -0.0526
 4448SOL     OW17557   1.778   4.223   1.720  0.1882  0.3142 -0.1710
 4448SOL    HW217558   1.743   4.291   1.663  0.9232 -0.8825 -2.1899
 4448SOL    HW317559   1.867   4.252   1.740  0.4966 -0.0112 -1.0193
 4448SOL    MW417560   1.785   4.236   1.715 -0.3774 -0.3397 -0.2961
 4449SOL     OW17561   0.106   5.487   2.637  0.0354 -0.2482  0.3630
 4449SOL    HW217562   0.149   5.437   2.707 -1.2576 -0.6430  0.8950
 4449SOL    HW317563   0.124   5.436   2.558  1.0454 -0.0910  0.4819
 4449SOL    MW417564   0.114   5.473   2.636  0.0228  0.1630 -0.2234
 4450SOL     OW17565   0.539   5.968   1.729 -0.0175 -0.1828 -0.2085
 4450SOL    HW217566   0.458   5.953   1.680  0.0024 -0.8891 -0.0368
 4450SOL    HW317567   0.511   6.011   1.809 -0.2451 -0.5298 -0.0972
 4450SOL    MW417568   0.525   5.971   1.733 -0.2884  0.2554 -0.3894
 4451SOL     OW17569   3.177   0.405   3.096  0.3724  0.1452 -0.1421
 4451SOL    HW217570   3.158   0.413   3.003 -1.1467  1.4683  0.2473
 4451SOL    HW317571   3.272   0.420   3.102  0.5800 -0.4867 -1.5025
 4451SOL    MW417572   3.187   0.408   3.085 -0.3429  1.0126 -0.0570
 4452SOL     OW17573   1.723   0.190   2.856 -0.6962 -0.1936 -0.5237
 4452SOL    HW217574   1.681   0.185   2.942  1.0710 -0.5668  0.3551
 4452SOL    HW317575   1.790   0.258   2.865 -1.2360  0.5950 -1.9756
 4452SOL    MW417576   1.726   0.198   2.868  0.1054 -0.0620  0.1109
 4453SOL     OW17577   3.385   2.705   4.506 -0.2843  0.1145 -0.3302
 4453SOL    HW217578   3.471   2.742   4.483  0.0145  0.0033  0.5936
 4453SOL    HW317579   3.403   2.613   4.522 -0.4252  0.2594  0.6882
 4453SOL    MW417580   3.399   2.698   4.505  0.0954  0.4063  0.1673
 4454SOL     OW17581   0.457   1.677   4.706  0.4064  0.2889 -0.3031
 4454SOL    HW217582   0.436   1.735   4.779 -0.0592 -0.0725 -0.1434
 4454SOL    HW317583   0.547   1.700   4.683  0.5696  0.3963  0.3959
 4454SOL    MW417584   0.466   1.688   4.713 -0.6959 -0.4613 -0.2890
 4455SOL     OW17585   4.413   3.620   3.653  0.1369  0.1407  0.4774
 4455SOL    HW217586   4.477   3.554   3.629 -0.8289 -0.8357  0.4897
 4455SOL    HW317587   4.464   3.701   3.665  1.3294 -0.5862  0.4311
 4455SOL    MW417588   4.428   3.622   3.652  0.0644 -0.2658 -0.1721
 4456SOL     OW17589   0.586   1.312   5.202 -0.1857  0.0840  0.1264
 4456SOL    HW217590   0.672   1.341   5.174 -0.7001  1.2436 -0.3084
 4456SOL    HW317591   0.557   1.251   5.133 -0.1656  0.5389 -0.2861
 4456SOL    MW417592   0.594   1.308   5.189  0.2929 -0.0685  0.2528
 4457SOL     OW17593   2.786   2.860   3.409  0.0499 -0.1361  0.4507
 4457SOL    HW217594   2.871   2.819   3.398 -0.2243 -0.4851 -0.4348
 4457SOL    HW317595   2.728   2.814   3.348 -0.3817  1.2058 -0.2075
 4457SOL    MW417596   2.789   2.849   3.399  0.0705  0.2323  0.5436
 4458SOL     OW17597   5.407   4.123   0.125  0.1958  0.3326 -0.2023
 4458SOL    HW217598   5.402   4.028   0.131 -2.2140  0.4442  1.0000
 4458SOL    HW317599   5.405   4.153   0.216  1.0674  1.5401 -0.5555
 4458SOL    MW417600   5.406   4.114   0.138  0.3135  0.1832 -0.3365
 4459SOL     OW17601   4.689   0.271   3.606  0.2032 -0.1049  0.0612
 4459SOL    HW217602   4.703   0.335   3.536 -0.3981  0.2133  0.2263
 4459SOL    HW317603   4.776   0.238   3.626  0.5116  0.6148 -0.0769
 4459SOL    MW417604   4.702   0.275   3.599 -0.0609  0.0344  0.2705
 4460SOL     OW17605   1.188   3.121   0.907 -0.2992  0.4242 -0.2754
 4460SOL    HW217606   1.102   3.161   0.921 -0.3065  0.4269 -0.3284
 4460SOL    HW317607   1.169   3.040   0.858 -0.2379  0.6058 -0.6027
 4460SOL    MW417608   1.174   3.116   0.902 -0.8904  0.3568  0.3539
 4461SOL     OW17609   2.372   0.258   3.878 -0.0579  0.4781 -0.4436
 4461SOL    HW217610   2.390   0.336   3.930 -2.3407  0.6332  0.2382
 4461SOL    HW317611   2.315   0.289   3.807  1.0571 -0.1641 -1.6839
 4461SOL    MW417612   2.367   0.273   3.875 -0.3391  0.6880  0.2899
 4462SOL     OW17613   3.548   0.451   3.699 -0.4144  0.0255 -0.1414
 4462SOL    HW217614   3.569   0.526   3.644 -0.0899  0.1054  0.0854
 4462SOL    HW317615   3.453   0.449   3.701 -0.4269  0.0426 -0.6708
 4462SOL    MW417616   3.538   0.461   3.692  0.6757 -0.0788 -0.3434
 4463SOL     OW17617   3.759   0.257   1.412 -0.2194  0.4540  0.0993
 4463SOL    HW217618   3.799   0.309   1.342  0.1264 -0.0552 -0.0844
 4463SOL    HW317619   3.665   0.263   1.396 -0.1453  0.4024 -0.3593
 4463SOL    MW417620   3.752   0.265   1.401  0.1746 -0.3487  0.3631
 4464SOL     OW17621   2.162   0.010   6.323  0.0371 -0.3448 -0.3320
 4464SOL    HW217622   2.164   0.104   6.304  1.4371 -0.8574 -3.3765
 4464SOL    HW317623   2.075  -0.019   6.296  0.1240 -0.1453 -0.8361
 4464SOL    MW417624   2.151   0.018   6.317  0.4690 -0.0072  0.0133
 4465SOL     OW17625   4.118   5.741   5.069  0.1736 -0.4958  0.5296
 4465SOL    HW217626   4.125   5.664   5.012 -0.3919 -0.7569  0.8014
 4465SOL    HW317627   4.108   5.814   5.008  2.2576 -0.4275  0.2207
 4465SOL    MW417628   4.117   5.741   5.053 -0.3103  0.1710  0.9021
 4466SOL     OW17629   1.720   3.351   4.025  0.2765  0.1513 -0.2067
 4466SOL    HW217630   1.640   3.394   4.056 -0.2042  1.1740 -2.6501
 4466SOL    HW317631   1.693   3.262   4.005  0.6357 -0.5876  2.2829
 4466SOL    MW417632   1.706   3.345   4.026 -0.1168 -0.3838  0.3098
 4467SOL     OW17633   1.591   2.052   5.115 -0.0210 -0.0869  0.8940
 4467SOL    HW217634   1.603   1.957   5.110 -0.3314 -0.1163  0.7026
 4467SOL    HW317635   1.510   2.063   5.164 -0.5645  0.0523 -0.0145
 4467SOL    MW417636   1.582   2.041   5.121  0.0134  0.2588 -0.5178
 4468SOL     OW17637   6.176   4.299   6.399  0.5477 -0.1529 -0.2219
 4468SOL    HW217638   6.225   4.349   6.465  1.1286 -1.0106  0.0184
 4468SOL    HW317639   6.097   4.271   6.445  0.4545  0.1188 -0.2099
 4468SOL    MW417640   6.172   4.302   6.414  0.1246  0.4396 -0.4595
 4469SOL     OW17641   0.412   2.403   0.042  0.3233  0.3470 -0.3764
 4469SOL    HW217642   0.466   2.465   0.092 -0.1814  0.7504 -0.3182
 4469SOL    HW317643   0.397   2.446  -0.042  0.1376  0.2120 -0.4136
 4469SOL    MW417644   0.417   2.417   0.038 -0.8054 -0.5868  0.0547
 4470SOL     OW17645   2.901   0.990   1.801 -0.5044  0.3489 -0.0004
 4470SOL    HW217646   2.887   1.059   1.736  0.5396  1.0091  0.4328
 4470SOL    HW317647   2.944   1.035   1.874  0.2996 -0.7780  0.2521
 4470SOL    MW417648   2.905   1.005   1.802  0.6868 -0.4265 -0.1492
 4471SOL     OW17649   1.821   4.234   5.235 -0.2083  0.0151 -0.7932
 4471SOL    HW217650   1.898   4.289   5.220  0.8017 -0.9660  0.5304
 4471SOL    HW317651   1.751   4.277   5.186  0.4987  2.5420  0.2247
 4471SOL    MW417652   1.822   4.247   5.227  0.4746 -0.0043 -0.2806
 4472SOL     OW17653   1.919   5.816   5.246 -0.3250 -0.0191  0.3014
 4472SOL    HW217654   1.876   5.864   5.316  0.3385 -2.0518  2.2192
 4472SOL    HW317655   1.867   5.736   5.237 -0.5644  0.3137 -1.7808
 4472SOL    MW417656   1.906   5.812   5.254 -0.0749 -0.4650 -0.2154
 4473SOL     OW17657   3.157   4.831   5.646 -0.0227  0.3758  0.1749
 4473SOL    HW217658   3.117   4.790   5.569  0.4255  1.2933 -0.5629
 4473SOL    HW317659   3.210   4.761   5.685 -3.7532 -1.5717  2.3547
 4473SOL    MW417660   3.158   4.816   5.641 -0.0125  0.0764 -0.0460
 4474SOL     OW17661   2.881   6.401   3.713  0.1454  0.4264 -0.0442
 4474SOL    HW217662   2.937   6.378   3.639  1.2895 -1.8086  1.4353
 4474SOL    HW317663   2.792   6.397   3.677  0.6562 -0.7149 -1.2690
 4474SOL    MW417664   2.877   6.398   3.698  0.4525 -0.7659  0.4107
 4475SOL     OW17665   3.780   5.914   0.952  0.1638 -0.1527 -0.4303
 4475SOL    HW217666   3.709   5.965   0.991 -0.1050 -1.4560  0.8668
 4475SOL    HW317667   3.736   5.855   0.890 -0.0453 -1.4742  0.9024
 4475SOL    MW417668   3.765   5.913   0.949  0.0210  0.1546 -0.1372
 4476SOL     OW17669   5.268   1.293   5.998 -0.3268 -0.1828 -0.1288
 4476SOL    HW217670   5.291   1.213   6.046  0.1491 -0.6192 -1.0529
 4476SOL    HW317671   5.341   1.307   5.939 -0.7305  0.5612 -0.4614
 4476SOL    MW417672   5.281   1.284   5.997 -0.1359  0.1345 -0.3409
 4477SOL     OW17673   5.094   0.014   1.244  0.8195 -0.4396 -0.2357
 4477SOL    HW217674   5.107   0.083   1.180  1.2094 -1.2050 -0.9953
 4477SOL    HW317675   5.179   0.005   1.287  0.3540  0.6435  1.0177
 4477SOL    MW417676   5.107   0.022   1.241  0.4861 -0.3232  0.1543
 4478SOL     OW17677   4.452   4.032   1.759  0.2494 -0.1117 -0.6887
 4478SOL    HW217678   4.376   4.090   1.752 -1.2402 -1.6479  1.4240
 4478SOL    HW317679   4.433   3.961   1.697  0.8538  0.3986 -1.4648
 4478SOL    MW417680   4.439   4.030   1.750 -0.1589  0.0562 -0.3260
 4479SOL     OW17681   3.436   0.086   3.123 -0.5346 -0.3890 -0.6066
 4479SOL    HW217682   3.355   0.099   3.173 -1.0783 -0.9363 -1.3221
 4479SOL    HW317683   3.413   0.112   3.034  0.3603  0.3581 -0.6419
 4479SOL    MW417684   3.422   0.091   3.118 -0.2133  0.0388  0.2751
 4480SOL     OW17685   4.191   5.419   3.358  0.3038  0.1146 -0.1355
 4480SOL    HW217686   4.269   5.389   3.403  1.0296 -2.1264 -2.6738
 4480SOL    HW317687   4.221   5.488   3.299  0.0272  0.4035  0.0505
 4480SOL    MW417688   4.205   5.424   3.356 -0.0638 -0.5788 -0.0108
 4481SOL     OW17689   1.661   5.464   0.246  0.6340  0.2561 -0.2786
 4481SOL    HW217690   1.594   5.413   0.200  0.8495  0.2935 -0.6447
 4481SOL    HW317691   1.638   5.457   0.338 -1.0575  1.9278 -0.5229
 4481SOL    MW417692   1.649   5.456   0.252  0.4636  0.1544  0.0205
 4482SOL     OW17693   3.553   0.813   3.312 -0.9960 -0.3879 -0.1129
 4482SOL    HW217694   3.562   0.803   3.406  0.6559  0.4981 -0.1409
 4482SOL    HW317695   3.495   0.889   3.300 -1.7557 -0.9165  0.1670
 4482SOL    MW417696   3.546   0.822   3.323  0.0218  0.3611 -0.1455
 4483SOL     OW17697   4.538   2.538   5.796 -0.6460  0.2867  0.0455
 4483SOL    HW217698   4.559   2.571   5.883  1.8708  1.8483 -1.0605
 4483SOL    HW317699   4.461   2.588   5.769  1.7854  3.9646 -0.7211
 4483SOL    MW417700   4.530   2.549   5.804  0.2510 -0.1512 -0.3313
 4484SOL     OW17701   5.290   1.837   1.805 -0.4535  0.4634 -0.1406
 4484SOL    HW217702   5.226   1.853   1.736 -0.1581 -0.6580 -0.6939
 4484SOL    HW317703   5.357   1.904   1.790 -0.6896  0.6136 -0.5584
 4484SOL    MW417704   5.290   1.848   1.794  0.5090  0.5756 -0.3761
 4485SOL     OW17705   2.217   6.396   0.275 -0.2196  0.5104 -0.2209
 4485SOL    HW217706   2.156   6.327   0.299  0.1806 -0.3702 -1.6491
 4485SOL    HW317707   2.299   6.350   0.257  0.7325  1.6090  1.0847
 4485SOL    MW417708   2.220   6.381   0.276 -0.2013 -0.4925 -0.3192
 4486SOL     OW17709   4.730   1.000   0.113 -0.1663  0.2094  0.0213
 4486SOL    HW217710   4.758   0.952   0.035 -1.4334  0.0782 -0.3870
 4486SOL    HW317711   4.727   0.933   0.182 -1.5021 -0.2511 -0.4446
 4486SOL    MW417712   4.733   0.985   0.112 -0.4424 -0.3645 -0.4354
 4487SOL     OW17713   0.887   1.527   4.482 -0.0988 -0.2897 -0.5647
 4487SOL    HW217714   0.952   1.467   4.444 -0.7401 -1.6185  0.3369
 4487SOL    HW317715   0.808   1.512   4.430 -0.0524  0.3636 -0.8292
 4487SOL    MW417716   0.885   1.517   4.470 -0.1971  0.8249 -0.2932
 4488SOL     OW17717   4.240   5.259   0.912  0.9230  0.0794 -0.0062
 4488SOL    HW217718   4.272   5.174   0.942  1.3573 -0.2047 -1.2281
 4488SOL    HW317719   4.319   5.314   0.907  0.9642 -0.0549 -1.1593
 4488SOL    MW417720   4.255   5.255   0.915 -0.2179 -0.3119 -0.0802
 4489SOL     OW17721   6.162   0.055   0.578 -0.3903 -0.2649  0.0629
 4489SOL    HW217722   6.079   0.010   0.597 -0.2355 -0.7071 -0.2943
 4489SOL    HW317723   6.149   0.093   0.491 -0.2289 -0.3082  0.0203
 4489SOL    MW417724   6.149   0.054   0.569  1.1162 -0.0488  0.3558
 4490SOL     OW17725   0.481   3.283   0.503 -0.4742 -0.2796  0.0699
 4490SOL    HW217726   0.406   3.305   0.448  0.6370  0.2641 -1.2975
 4490SOL    HW317727   0.473   3.189   0.519 -2.7403  0.1563  2.0248
 4490SOL    MW417728   0.470   3.274   0.498 -0.4447 -0.4075 -0.6859
 4491SOL     OW17729   2.776   6.134   4.880  0.1140  0.5210  0.3613
 4491SOL    HW217730   2.791   6.228   4.893  2.7433  0.2327 -0.0734
 4491SOL    HW317731   2.831   6.111   4.805 -0.1370 -1.4629  0.7400
 4491SOL    MW417732   2.785   6.144   4.872 -0.0581  0.8360  0.0464
 4492SOL     OW17733   4.945   0.821   2.452  0.4367 -0.1685  0.3281
 4492SOL    HW217734   4.996   0.849   2.529 -0.9272  0.8428  0.8986
 4492SOL    HW317735   4.879   0.762   2.488 -0.0036  0.0463 -0.1289
 4492SOL    MW417736   4.943   0.817   2.467  0.5253 -0.2427  0.3071
 4493SOL     OW17737   2.753   0.103   2.978  0.5105  0.1733  0.3965
 4493SOL    HW217738   2.829   0.105   2.919 -0.3928  0.8195 -0.7911
 4493SOL    HW317739   2.679   0.128   2.922 -0.8062 -1.7489  1.1884
 4493SOL    MW417740   2.754   0.106   2.963 -0.4535  0.0523  0.2504
 4494SOL     OW17741   6.032   1.924   3.614 -0.6396 -0.6570 -0.0965
 4494SOL    HW217742   6.126   1.937   3.602 -0.6123  1.6585  1.9543
 4494SOL    HW317743   5.993   1.947   3.530  0.4477  1.0227 -0.1740
 4494SOL    MW417744   6.039   1.928   3.601  0.5818  0.9218  0.8058
 4495SOL     OW17745   2.599   2.592   2.586  0.6558 -0.1411  0.2437
 4495SOL    HW217746   2.585   2.651   2.512  0.0583  0.1262  0.5625
 4495SOL    HW317747   2.694   2.585   2.594  0.7227  0.1111 -0.3224
 4495SOL    MW417748   2.610   2.599   2.578  0.0762  0.3894 -0.0952
 4496SOL     OW17749   3.006   2.148   1.622 -0.1043  0.8254 -0.0917
 4496SOL    HW217750   2.996   2.118   1.531  0.7068 -1.3631  0.4701
 4496SOL    HW317751   3.094   2.186   1.625  0.7915 -1.1333  0.2172
 4496SOL    MW417752   3.017   2.149   1.610  0.0651  0.2077 -0.6418
 4497SOL     OW17753   0.737   1.957   4.803  0.5710  0.1527  0.3634
 4497SOL    HW217754   0.823   1.920   4.822  0.9281  0.8675  0.1662
 4497SOL    HW317755   0.735   2.040   4.852  0.2529  0.4536 -0.1520
 4497SOL    MW417756   0.748   1.963   4.812 -0.1656  0.2888  0.3957
 4498SOL     OW17757   5.106   2.414   2.271  0.3108 -0.0609 -0.2257
 4498SOL    HW217758   5.021   2.457   2.285  0.1444 -0.8529  1.4975
 4498SOL    HW317759   5.124   2.371   2.354  2.6787  0.5265 -0.3874
 4498SOL    MW417760   5.097   2.414   2.284 -0.0794  0.0867 -0.0097
 4499SOL     OW17761   4.761   0.291   5.102 -0.1054 -0.1596 -0.4215
 4499SOL    HW217762   4.742   0.292   5.009 -0.4195  0.4221 -0.3574
 4499SOL    HW317763   4.764   0.384   5.127 -0.8277 -0.3212  0.2973
 4499SOL    MW417764   4.759   0.303   5.093 -0.1503 -0.4894 -0.3909
 4500SOL     OW17765   3.118   4.599   2.933 -0.0080  0.1165 -0.2487
 4500SOL    HW217766   3.056   4.593   2.861 -0.2134  0.5986 -0.1149
 4500SOL    HW317767   3.192   4.647   2.896  0.1577 -0.1834 -0.3155
 4500SOL    MW417768   3.120   4.604   2.918  0.5539 -0.6146  0.0141
 4501SOL     OW17769   4.859   4.080   3.956 -0.2432  0.1230 -0.1737
 4501SOL    HW217770   4.903   4.071   3.872  1.1219 -0.5703  0.5752
 4501SOL    HW317771   4.767   4.063   3.937 -0.3127  2.1114 -1.8743
 4501SOL    MW417772   4.853   4.076   3.943  0.0543  0.2643 -0.4944
 4502SOL     OW17773   5.794   1.315   1.019 -0.6310  0.5731 -0.2047
 4502SOL    HW217774   5.789   1.404   1.054 -0.0374  0.4472  0.2045
 4502SOL    HW317775   5.884   1.305   0.990 -0.6329  0.0189 -0.0274
 4502SOL    MW417776   5.805   1.326   1.019 -0.0370 -0.2037 -0.3330
 4503SOL     OW17777   3.368   5.918   4.896  0.3555 -0.2631 -0.0079
 4503SOL    HW217778   3.371   5.822   4.897 -1.0251 -0.4504 -3.0024
 4503SOL    HW317779   3.275   5.939   4.884  0.5231  1.5341  1.3365
 4503SOL    MW417780   3.356   5.908   4.895  0.5990 -0.5910  0.0041
 4504SOL     OW17781   0.937   0.033   1.001 -0.1951  0.1012  0.1723
 4504SOL    HW217782   0.940   0.092   1.076  0.8149  1.8861 -1.1906
 4504SOL    HW317783   0.844   0.018   0.986 -0.4716  1.1635  0.7073
 4504SOL    MW417784   0.925   0.039   1.009 -0.1429  0.3210 -0.1101
 4505SOL     OW17785   4.832   4.950   0.749 -0.0174 -0.0550  0.4726
 4505SOL    HW217786   4.870   4.963   0.662  0.3294  0.7284  0.7336
 4505SOL    HW317787   4.746   4.990   0.744 -0.0696 -0.1695  0.4401
 4505SOL    MW417788   4.826   4.957   0.737  0.1491 -0.7548 -0.3571
 4506SOL     OW17789   2.055   3.201   4.056  0.1033  0.3634 -0.7854
 4506SOL    HW217790   2.122   3.241   4.000 -0.1239 -1.0792 -2.1839
 4506SOL    HW317791   1.973   3.240   4.027  0.2956  2.2456  1.0340
 4506SOL    MW417792   2.053   3.211   4.045 -0.3014 -0.1161  0.3453
 4507SOL     OW17793   1.399   1.863   3.777 -0.1981 -0.0027  0.0312
 4507SOL    HW217794   1.458   1.933   3.805 -1.5831  0.3180  2.3902
 4507SOL    HW317795   1.378   1.884   3.686  2.5731  0.3431 -0.6246
 4507SOL    MW417796   1.404   1.875   3.768  0.0361  0.0898  0.3694
 4508SOL     OW17797   4.305   2.498   4.816 -0.1957  0.1895 -0.2640
 4508SOL    HW217798   4.236   2.469   4.756  0.0592  0.2640 -0.5966
 4508SOL    HW317799   4.289   2.449   4.896 -1.0984  0.7616 -0.0737
 4508SOL    MW417800   4.294   2.488   4.819 -0.0039  0.3348  0.0188
 4509SOL     OW17801   0.931   2.151   2.138  0.1870  0.4460  0.2540
 4509SOL    HW217802   0.909   2.072   2.186 -0.3023  0.7290  0.5123
 4509SOL    HW317803   1.026   2.147   2.125  0.3801  0.5516  1.5720
 4509SOL    MW417804   0.940   2.140   2.142  0.2709  0.4588 -0.6126
 4510SOL     OW17805   1.170   3.957   5.699 -0.2631 -0.4411  0.1343
 4510SOL    HW217806   1.190   3.895   5.769 -0.8123 -0.8777 -0.0908
 4510SOL    HW317807   1.237   4.026   5.708 -0.0662 -0.7154  0.8062
 4510SOL    MW417808   1.182   3.958   5.709  0.0987  0.1345 -0.3574
 4511SOL     OW17809   1.371   1.999   5.775 -0.9609  0.0652 -0.2355
 4511SOL    HW217810   1.381   2.073   5.715  0.1287 -0.2433 -0.4702
 4511SOL    HW317811   1.348   1.925   5.718 -0.6986 -0.0612 -0.1793
 4511SOL    MW417812   1.370   1.999   5.759 -0.3524 -0.3344 -0.0535
 4512SOL     OW17813   4.205   0.232   0.210  0.2851 -0.2170  0.5404
 4512SOL    HW217814   4.122   0.275   0.191  0.8730 -0.5799 -4.3554
 4512SOL    HW317815   4.182   0.140   0.223 -0.1592 -0.7766 -3.1238
 4512SOL    MW417816   4.191   0.226   0.209  0.1500  0.3193 -0.4204
 4513SOL     OW17817   1.641   0.869   3.688 -1.0499  0.4015 -0.3587
 4513SOL    HW217818   1.626   0.841   3.778  4.1476  0.8429  0.9832
 4513SOL    HW317819   1.607   0.959   3.685 -2.2925 -0.0042  0.7644
 4513SOL    MW417820   1.635   0.877   3.700 -0.5702  0.3830 -0.2076
 4514SOL     OW17821   2.507   5.115   1.640 -0.2115 -0.1699  0.5067
 4514SOL    HW217822   2.456   5.062   1.702 -1.7886  0.4167 -0.2384
 4514SOL    HW317823   2.597   5.086   1.653 -1.0355 -3.8264 -0.5423
 4514SOL    MW417824   2.512   5.104   1.650  0.3081  0.2088  0.2608
 4515SOL     OW17825   0.201   3.415   6.341 -0.0264 -0.1032 -0.1074
 4515SOL    HW217826   0.274   3.459   6.383  0.4594  0.3488 -1.3627
 4515SOL    HW317827   0.240   3.369   6.266 -1.0557  0.4323 -1.0002
 4515SOL    MW417828   0.216   3.415   6.336  0.3046 -0.5255 -0.4031
 4516SOL     OW17829   1.771   4.380   2.643  0.3277  0.4943 -0.3048
 4516SOL    HW217830   1.687   4.421   2.621 -0.4448 -1.6528 -1.6214
 4516SOL    HW317831   1.804   4.346   2.559  0.6719 -1.9450  0.7440
 4516SOL    MW417832   1.764   4.381   2.629 -0.3641  0.3065 -0.1358
 4517SOL     OW17833   2.137   3.732   3.035  0.0894  0.4393  0.2654
 4517SOL    HW217834   2.104   3.662   3.091  1.1866 -2.1184 -2.0710
 4517SOL    HW317835   2.099   3.812   3.072 -1.8940 -1.4214  2.5927
 4517SOL    MW417836   2.128   3.734   3.048 -0.1844  0.1221  0.1041
 4518SOL     OW17837   0.756   2.702   1.103  0.3003  0.1333  0.5116
 4518SOL    HW217838   0.678   2.747   1.069  0.0234 -1.9825 -1.9104
 4518SOL    HW317839   0.726   2.614   1.125  1.1180  0.5495  3.9526
 4518SOL    MW417840   0.741   2.697   1.102 -0.7877 -0.6350 -0.0256
 4519SOL     OW17841   4.634   3.224   1.468 -0.5072 -1.0827  0.4921
 4519SOL    HW217842   4.647   3.162   1.539 -0.3688 -1.3123  0.2653
 4519SOL    HW317843   4.574   3.290   1.505 -1.3148 -1.7929  0.4639
 4519SOL    MW417844   4.628   3.225   1.482 -0.7533  0.0717  0.5508
 4520SOL     OW17845   2.326   3.350   0.848 -0.0710 -0.2185  0.6576
 4520SOL    HW217846   2.293   3.402   0.921  0.3680 -2.1561  2.3297
 4520SOL    HW317847   2.247   3.313   0.808 -0.2994  0.6602  0.2703
 4520SOL    MW417848   2.311   3.352   0.852 -0.1026  0.3288 -0.7286
 4521SOL     OW17849   1.399   4.609   6.109 -0.5468  0.7942 -0.5544
 4521SOL    HW217850   1.355   4.638   6.188 -1.6126  1.4117 -1.3470
 4521SOL    HW317851   1.355   4.527   6.086 -0.9726  1.1595 -1.0757
 4521SOL    MW417852   1.387   4.602   6.116  0.5983  0.0338 -0.1775
 4522SOL     OW17853   5.783   4.404   1.752  0.1610 -0.1632 -0.0379
 4522SOL    HW217854   5.855   4.418   1.690 -1.4857 -0.3127 -2.1041
 4522SOL    HW317855   5.708   4.381   1.697 -1.6136  0.4570  1.9830
 4522SOL    MW417856   5.783   4.403   1.736  0.0344  0.1296 -0.2667
 4523SOL     OW17857   3.466   3.170   1.895 -0.0539 -0.4633  0.3480
 4523SOL    HW217858   3.409   3.151   1.969  0.3289  1.3177  1.1386
 4523SOL    HW317859   3.452   3.096   1.835  0.2357 -2.4038  2.5150
 4523SOL    MW417860   3.457   3.158   1.897  0.0010 -0.4146  0.2546
 4524SOL     OW17861   0.575   1.248   0.611 -0.0342 -0.8553 -0.1774
 4524SOL    HW217862   0.577   1.341   0.587 -1.4383  0.0177  2.6553
 4524SOL    HW317863   0.496   1.214   0.569  1.8986 -1.6411 -3.5616
 4524SOL    MW417864   0.565   1.256   0.603  0.0133  0.2645  0.2051
 4525SOL     OW17865   3.030   1.753   0.466 -0.0533 -0.0051  0.2465
 4525SOL    HW217866   3.001   1.813   0.397  0.5747  0.5026  0.4176
 4525SOL    HW317867   3.028   1.667   0.424  1.2566  0.4064 -0.7322
 4525SOL    MW417868   3.026   1.749   0.451  0.2410  0.1117 -0.3311
 4526SOL     OW17869   5.106   1.057   1.510  0.5401  0.1094  0.1163
 4526SOL    HW217870   5.052   1.048   1.589  0.6130  1.9276  0.4221
 4526SOL    HW317871   5.107   1.151   1.493  3.2708  0.1189 -0.1084
 4526SOL    MW417872   5.099   1.069   1.518  0.2011 -0.0488  0.1270
 4527SOL     OW17873   5.655   3.393   5.247  0.7708  0.3121  0.3336
 4527SOL    HW217874   5.734   3.361   5.204 -0.9843  0.0114 -3.0048
 4527SOL    HW317875   5.603   3.430   5.176 -2.4867 -0.2782  2.2331
 4527SOL    MW417876   5.659   3.394   5.232  0.1889 -0.2977 -0.3010
 4528SOL     OW17877   5.903   3.914   5.031  0.4726  0.0803  0.1296
 4528SOL    HW217878   5.913   4.001   4.991  1.0789  0.4389  1.0118
 4528SOL    HW317879   5.875   3.858   4.960 -1.9741  1.3998 -0.0448
 4528SOL    MW417880   5.901   3.918   5.017  0.2604  0.1723 -0.5768
 4529SOL     OW17881   3.681   6.065   3.060  0.4246  0.5376  0.0175
 4529SOL    HW217882   3.621   6.052   2.987  0.6091  1.7701 -0.3663
 4529SOL    HW317883   3.636   6.128   3.117  1.0833  1.0061  0.0272
 4529SOL    MW417884   3.667   6.072   3.058  0.4659 -0.2236 -0.2554
 4530SOL     OW17885   4.056   3.656   6.418 -0.2318  0.9355  0.2520
 4530SOL    HW217886   3.980   3.702   6.453  0.0329 -1.0291  3.9467
 4530SOL    HW317887   4.024   3.568   6.399  1.0273  0.0583  1.9228
 4530SOL    MW417888   4.042   3.650   6.420  0.6239  0.4605  0.3261
 4531SOL     OW17889   2.781   5.659   4.347 -0.1350 -0.0912  0.1968
 4531SOL    HW217890   2.703   5.699   4.309  0.1011  1.4836  1.2835
 4531SOL    HW317891   2.748   5.597   4.412 -0.4873 -0.1234 -0.0136
 4531SOL    MW417892   2.767   5.656   4.351 -0.7954 -0.2364 -0.0598
 4532SOL     OW17893   1.685   2.828   0.640 -0.5999 -0.1718 -0.6462
 4532SOL    HW217894   1.603   2.835   0.689 -0.8643 -2.5944 -0.6240
 4532SOL    HW317895   1.675   2.891   0.568 -0.6425  2.6726  1.6972
 4532SOL    MW417896   1.672   2.837   0.637 -0.3325 -0.3725 -0.6285
 4533SOL     OW17897   5.253   2.548   5.289  0.5793 -0.3000 -0.0577
 4533SOL    HW217898   5.225   2.525   5.200  1.4105  0.9869 -0.6842
 4533SOL    HW317899   5.182   2.602   5.323  1.2484  1.0935 -0.8077
 4533SOL    MW417900   5.240   2.552   5.282 -0.0425  0.0579  0.2096
 4534SOL     OW17901   4.288   4.339   3.340  0.3039 -0.0669 -0.4378
 4534SOL    HW217902   4.282   4.418   3.394  0.0501 -0.2576 -0.1874
 4534SOL    HW317903   4.301   4.372   3.251 -0.6483  0.2838 -0.4584
 4534SOL    MW417904   4.289   4.354   3.335 -0.3136 -0.1187 -0.4270
 4535SOL     OW17905   2.250   0.364   3.665 -0.1305 -0.3710 -0.1868
 4535SOL    HW217906   2.242   0.310   3.586  0.5843  0.1931 -0.6539
 4535SOL    HW317907   2.331   0.413   3.652  1.0075 -1.6169  1.7191
 4535SOL    MW417908   2.259   0.363   3.653 -0.8748  0.2398 -0.0495
 4536SOL     OW17909   3.825   3.273   3.464 -0.5287  0.0763  0.0040
 4536SOL    HW217910   3.770   3.251   3.388  0.0500 -0.2330 -0.3334
 4536SOL    HW317911   3.878   3.194   3.478 -0.0263  0.4504  0.1975
 4536SOL    MW417912   3.825   3.259   3.456 -0.3570 -0.7579 -0.5211
 4537SOL     OW17913   2.522   0.151   2.833  0.3813  0.0737  0.1811
 4537SOL    HW217914   2.467   0.097   2.890  1.4997 -1.9099 -0.5028
 4537SOL    HW317915   2.519   0.106   2.748  1.2574  1.1812 -0.4610
 4537SOL    MW417916   2.514   0.138   2.829 -0.2851 -0.4424  0.2547
 4538SOL     OW17917   1.701   6.384   3.717  0.0436  0.1828  0.1090
 4538SOL    HW217918   1.616   6.426   3.727  0.5673  1.1296  0.7895
 4538SOL    HW317919   1.745   6.398   3.801  1.5144  1.2616 -0.7851
 4538SOL    MW417920   1.696   6.392   3.729  0.3877 -0.3645 -0.0331
 4539SOL     OW17921   4.086   0.498   6.270 -0.7290 -0.2068 -0.1855
 4539SOL    HW217922   4.037   0.422   6.301  1.1384 -1.5971 -0.4569
 4539SOL    HW317923   4.059   0.509   6.179 -0.1320 -1.3636 -0.5280
 4539SOL    MW417924   4.076   0.489   6.262 -0.2690 -0.1274 -0.0759
 4540SOL     OW17925   0.482   5.149   1.216 -0.1314  0.1586  0.5468
 4540SOL    HW217926   0.484   5.236   1.175 -0.7403 -0.1283 -0.1087
 4540SOL    HW317927   0.421   5.159   1.289 -0.3400  0.2353  0.3631
 4540SOL    MW417928   0.474   5.162   1.220 -0.8098 -0.4445 -0.2178
 4541SOL     OW17929   1.821   1.946   2.431  0.2885  0.9361  0.0682
 4541SOL    HW217930   1.903   1.985   2.401 -0.2307  1.4381 -0.7180
 4541SOL    HW317931   1.779   2.015   2.483  0.5042  0.5707  0.7386
 4541SOL    MW417932   1.827   1.960   2.434  0.1764 -0.4343 -0.6758
 4542SOL     OW17933   2.174   5.972   4.964 -0.4183  0.1332  0.0603
 4542SOL    HW217934   2.238   6.040   4.942 -2.8994  2.7663  0.4913
 4542SOL    HW317935   2.205   5.937   5.048  0.1557  1.8382  0.6090
 4542SOL    MW417936   2.187   5.976   4.972 -0.2559 -0.0390  0.2507
 4543SOL     OW17937   5.258   2.649   4.711  0.2988  0.5730  0.1433
 4543SOL    HW217938   5.237   2.728   4.661 -0.4731  0.0894 -0.3067
 4543SOL    HW317939   5.312   2.597   4.651 -1.4254 -0.4464 -0.5907
 4543SOL    MW417940   5.262   2.652   4.696  0.3309 -0.5405 -0.0485
 4544SOL     OW17941   6.095   4.272   3.432  0.3710  0.8250 -0.5396
 4544SOL    HW217942   6.071   4.269   3.339  0.8014  1.4244 -0.6717
 4544SOL    HW317943   6.032   4.333   3.471  1.1831  1.7948 -0.7389
 4544SOL    MW417944   6.083   4.279   3.425 -0.1335 -0.0737 -0.4672
 4545SOL     OW17945   3.198   0.947   3.699 -0.4554 -0.3141 -0.0871
 4545SOL    HW217946   3.236   0.903   3.775 -0.5192 -1.2632 -0.5902
 4545SOL    HW317947   3.104   0.946   3.715 -0.3906  0.7180  0.4576
 4545SOL    MW417948   3.191   0.941   3.711  0.6416  0.0085 -0.0542
 4546SOL     OW17949   1.143   0.821   4.433  0.1983  0.3690  0.1421
 4546SOL    HW217950   1.059   0.835   4.389 -0.9609 -1.8371  1.4895
 4546SOL    HW317951   1.137   0.871   4.514 -0.8058 -1.5036  1.2968
 4546SOL    MW417952   1.131   0.829   4.438 -0.1665 -0.2071  0.4253
 4547SOL     OW17953   3.892   6.218   2.892  0.7381  0.1448 -0.6154
 4547SOL    HW217954   3.841   6.175   2.824 -1.5152  0.8235  0.5277
 4547SOL    HW317955   3.933   6.146   2.941  0.0386 -0.5004 -0.9609
 4547SOL    MW417956   3.891   6.203   2.890 -0.0089  0.0251  0.0079
 4548SOL     OW17957   6.110   2.090   2.414  0.1930 -0.1171  0.1090
 4548SOL    HW217958   6.073   2.148   2.347  1.9541  0.6886 -0.2214
 4548SOL    HW317959   6.069   2.118   2.495  0.3112  0.9754 -0.1917
 4548SOL    MW417960   6.099   2.101   2.416  0.0231 -0.1960  0.0573
 4549SOL     OW17961   3.840   3.476   0.694  0.5565  0.6623  0.6608
 4549SOL    HW217962   3.888   3.544   0.741 -0.7001  0.7025  1.9572
 4549SOL    HW317963   3.823   3.409   0.761 -1.8889  1.0348  0.4947
 4549SOL    MW417964   3.844   3.476   0.709  0.2309  0.1890  0.5005
 4550SOL     OW17965   1.306   1.697   3.016  0.5340  0.1521 -0.9930
 4550SOL    HW217966   1.222   1.662   2.987  1.5767 -0.9277 -2.9208
 4550SOL    HW317967   1.303   1.790   2.995 -0.3601  0.2130 -0.5960
 4550SOL    MW417968   1.295   1.705   3.009 -0.5693 -0.3898  0.4540
 4551SOL     OW17969   0.640   5.069   4.786  0.3842  0.0807  0.1320
 4551SOL    HW217970   0.663   5.155   4.820  0.9003 -0.1716  0.4331
 4551SOL    HW317971   0.579   5.087   4.714 -0.2242  0.6481  0.7768
 4551SOL    MW417972   0.635   5.083   4.781 -0.0665  0.5252 -0.1397
 4552SOL     OW17973   3.394   3.397   3.980  0.0798  0.6893  0.5848
 4552SOL    HW217974   3.466   3.457   3.999 -0.1969  1.3096 -0.2753
 4552SOL    HW317975   3.319   3.455   3.963 -0.0997  0.1282 -0.6443
 4552SOL    MW417976   3.394   3.413   3.980  0.4535  0.0661  0.3172
 4553SOL     OW17977   2.336   4.303   0.326  0.1732 -0.5141 -0.7837
 4553SOL    HW217978   2.259   4.359   0.318  0.4935 -0.0607 -0.7536
 4553SOL    HW317979   2.410   4.360   0.303  0.4476 -1.1017 -1.4053
 4553SOL    MW417980   2.336   4.318   0.322 -0.4093 -0.3795  0.7066
 4554SOL     OW17981   4.771   2.203   6.134  0.2456 -0.3702 -0.3228
 4554SOL    HW217982   4.843   2.222   6.074 -0.3393  2.5926 -0.2429
 4554SOL    HW317983   4.813   2.183   6.217  1.0187  1.2789 -0.2852
 4554SOL    MW417984   4.786   2.203   6.137  0.3477 -0.5454 -0.1157
 4555SOL     OW17985   1.036   3.517   0.273 -0.0306 -0.4563  0.8898
 4555SOL    HW217986   0.948   3.542   0.301 -1.4313 -3.1960 -0.6945
 4555SOL    HW317987   1.038   3.534   0.179  1.0664 -0.6598  0.8612
 4555SOL    MW417988   1.025   3.522   0.265 -0.0864 -0.0660  0.2533
 4556SOL     OW17989   0.204   4.304   3.620  0.1184  0.6134 -0.2403
 4556SOL    HW217990   0.235   4.361   3.690 -1.0299  1.1372 -0.1331
 4556SOL    HW317991   0.152   4.361   3.564  2.2350  0.5707 -2.4208
 4556SOL    MW417992   0.201   4.319   3.622  0.0487 -0.3235 -0.6618
 4557SOL     OW17993   0.245   3.809   2.328  0.4434 -0.5815  0.3077
 4557SOL    HW217994   0.229   3.785   2.237 -0.6776  0.4461  0.2141
 4557SOL    HW317995   0.334   3.779   2.345  0.6775 -0.7735 -1.1232
 4557SOL    MW417996   0.255   3.802   2.318 -0.7003  0.7108 -0.7331
 4558SOL     OW17997   5.641   2.514   0.939 -0.4558 -0.0152 -0.1278
 4558SOL    HW217998   5.610   2.584   0.997  0.1968  0.3832 -0.2558
 4558SOL    HW317999   5.736   2.513   0.951 -0.2785  0.2550 -1.3827
 4558SOL    MW418000   5.649   2.524   0.949  0.1989 -0.2940 -0.2090
 4559SOL     OW18001   5.255   4.858   5.374  0.1260 -0.4880  0.1272
 4559SOL    HW218002   5.233   4.882   5.464  2.0157 -0.7456  0.7195
 4559SOL    HW318003   5.317   4.785   5.384 -0.9721 -1.6904 -1.4430
 4559SOL    MW418004   5.260   4.851   5.388 -0.2305  0.2154  0.0317
 4560SOL     OW18005   6.219   5.411   6.119 -0.5061  1.2033 -0.2214
 4560SOL    HW218006   6.274   5.399   6.196 -1.4716  0.5440  0.3822
 4560SOL    HW318007   6.190   5.323   6.096  1.0430  1.1739 -2.3293
 4560SOL    MW418008   6.222   5.398   6.126 -0.2155  0.7657  0.4395
 4561SOL     OW18009   0.751   5.560   5.296  0.2925 -0.1442 -0.6100
 4561SOL    HW218010   0.659   5.577   5.317  0.0993 -3.5347  2.3741
 4561SOL    HW318011   0.799   5.590   5.373  1.4785 -0.0625 -1.3514
 4561SOL    MW418012   0.746   5.566   5.309 -0.2664  0.1277 -0.1749
 4562SOL     OW18013   0.524   3.945   6.104  0.5149  0.3427 -0.1945
 4562SOL    HW218014   0.435   3.911   6.098  1.1971 -1.5572 -0.3520
 4562SOL    HW318015   0.555   3.949   6.014  1.1014 -0.5787 -0.0573
 4562SOL    MW418016   0.516   3.941   6.092  0.3971 -0.7575 -0.2485
 4563SOL     OW18017   1.905   0.411   1.534  0.0910  0.2779  0.0908
 4563SOL    HW218018   1.907   0.426   1.440 -1.2534  1.0972  0.1710
 4563SOL    HW318019   1.937   0.321   1.544 -0.8170 -0.2244 -1.2443
 4563SOL    MW418020   1.910   0.401   1.523  0.2357  0.2025 -0.3101
 4564SOL     OW18021   4.564   1.484   1.821  0.7112  0.2843 -0.0553
 4564SOL    HW218022   4.506   1.434   1.878  2.4037 -1.2305  0.4231
 4564SOL    HW318023   4.546   1.451   1.734  1.8644 -1.2947  0.2636
 4564SOL    MW418024   4.554   1.473   1.817  0.4054  0.0298 -0.4539
 4565SOL     OW18025   3.754   2.005   0.836  0.2908  0.8709 -0.4646
 4565SOL    HW218026   3.841   2.035   0.861 -0.1284  0.8990  1.0911
 4565SOL    HW318027   3.763   1.978   0.745  2.0405  0.4371 -0.2042
 4565SOL    MW418028   3.767   2.005   0.827  0.0637  0.0361  0.1634
 4566SOL     OW18029   4.885   5.109   0.967 -0.8093  0.3475 -0.1711
 4566SOL    HW218030   4.948   5.178   0.947  0.8740 -0.8554  0.6673
 4566SOL    HW318031   4.882   5.055   0.888 -1.1469  0.6657 -0.3758
 4566SOL    MW418032   4.893   5.111   0.954 -0.0876 -0.3557  0.7543
 4567SOL     OW18033   1.095   3.367   3.257 -0.5701 -0.3437  0.2086
 4567SOL    HW218034   1.089   3.412   3.173  1.2626  0.7610  0.6025
 4567SOL    HW318035   1.072   3.433   3.322 -0.9589 -0.8954  0.6441
 4567SOL    MW418036   1.092   3.381   3.255  0.3208  0.9971 -0.1638
 4568SOL     OW18037   4.862   2.733   1.269 -0.4403  0.1298 -0.0637
 4568SOL    HW218038   4.927   2.667   1.246  0.7603  0.5032  1.9231
 4568SOL    HW318039   4.878   2.805   1.208  0.0491 -0.3756 -0.5392
 4568SOL    MW418040   4.873   2.734   1.258  0.4377  0.1597 -0.6811
 4569SOL     OW18041   5.971   6.161   4.957 -0.6129  0.4729 -0.3646
 4569SOL    HW218042   6.031   6.106   4.908 -0.4645  0.2060  0.1082
 4569SOL    HW318043   6.006   6.160   5.046 -1.0076  0.7627 -0.2055
 4569SOL    MW418044   5.984   6.154   4.962 -0.4038 -0.6739 -0.4316
 4570SOL     OW18045   4.982   6.037   1.802 -0.2760 -0.4066 -0.2855
 4570SOL    HW218046   4.948   5.949   1.820 -1.0355 -0.0656 -0.0112
 4570SOL    HW318047   4.962   6.051   1.710 -1.7728  0.1445  0.0785
 4570SOL    MW418048   4.975   6.027   1.793  0.9291 -0.3711  0.5274
 4571SOL     OW18049   4.291   5.883   2.956  0.7467 -0.7737 -0.1115
 4571SOL    HW218050   4.233   5.902   3.030  0.3004 -0.0746 -0.6375
 4571SOL    HW318051   4.256   5.934   2.883  2.8304  0.8087 -0.1096
 4571SOL    MW418052   4.279   5.892   2.956  0.0381 -0.0555 -0.5692
 4572SOL     OW18053   1.411   4.939   0.636  0.0446 -0.2941 -0.2300
 4572SOL    HW218054   1.381   4.873   0.574 -2.4643  0.4324  0.1098
 4572SOL    HW318055   1.368   5.019   0.609  0.0449  0.3623  1.5829
 4572SOL    MW418056   1.402   4.941   0.624 -0.4479 -0.5541 -0.3803
 4573SOL     OW18057   2.447   3.082   0.713 -0.2857  0.2146  0.7898
 4573SOL    HW218058   2.472   3.098   0.804  0.4393  0.0822  0.6230
 4573SOL    HW318059   2.530   3.085   0.665 -0.6454  0.1305  0.1577
 4573SOL    MW418060   2.462   3.085   0.719 -0.3221 -0.2596 -0.3673
 4574SOL     OW18061   0.589   4.280   5.926 -0.9238 -0.0036 -0.1664
 4574SOL    HW218062   0.612   4.268   6.018 -1.6500  2.6775  0.4642
 4574SOL    HW318063   0.571   4.192   5.894 -2.6161 -0.8767  2.7868
 4574SOL    MW418064   0.590   4.267   5.934  0.1889 -0.6673 -0.1374
 4575SOL     OW18065   1.839   5.962   4.738 -0.0306 -0.6324  0.0341
 4575SOL    HW218066   1.874   5.938   4.824 -1.7599  0.1246  0.9899
 4575SOL    HW318067   1.805   5.879   4.702 -0.3405 -0.7488  0.5896
 4575SOL    MW418068   1.839   5.948   4.744 -0.6261  0.2162 -0.2836
 4576SOL     OW18069   3.636   3.309   6.031  0.6682 -0.3285  0.1224
 4576SOL    HW218070   3.652   3.216   6.016 -0.7832 -0.3401 -1.6956
 4576SOL    HW318071   3.621   3.317   6.125  0.6648 -1.9444  0.2799
 4576SOL    MW418072   3.636   3.298   6.041  0.3015  0.2983 -0.3895
 4577SOL     OW18073   0.908   4.949   4.764  0.4414  0.0993  0.1974
 4577SOL    HW218074   0.917   4.899   4.683  0.0658  1.0458 -0.4444
 4577SOL    HW318075   0.814   4.956   4.778  0.4467  1.4563 -0.2715
 4577SOL    MW418076   0.897   4.943   4.755 -0.2347  0.2503  0.1009
 4578SOL     OW18077   2.007   1.014   0.080  0.6217  0.5743 -0.0737
 4578SOL    HW218078   1.986   1.101   0.046  0.1123  0.0168 -1.2556
 4578SOL    HW318079   1.922   0.970   0.086  0.9442 -0.0694 -0.1665
 4578SOL    MW418080   1.993   1.020   0.076 -0.0138 -0.0084  0.6262
 4579SOL     OW18081   3.173   2.730   4.699  0.2656  0.1351 -0.1615
 4579SOL    HW218082   3.256   2.764   4.665  0.0776 -0.8819 -1.7869
 4579SOL    HW318083   3.166   2.642   4.660 -0.0215 -1.1602  2.5588
 4579SOL    MW418084   3.183   2.723   4.689 -0.5176  0.2322  1.1957
 4580SOL     OW18085   5.654   5.440   5.928 -0.4149 -0.0924  0.2857
 4580SOL    HW218086   5.724   5.383   5.897 -0.8782 -1.1954  1.2098
 4580SOL    HW318087   5.615   5.475   5.848  0.2563 -0.6089 -0.2788
 4580SOL    MW418088   5.658   5.437   5.913  0.2184 -0.5711 -0.3991
 4581SOL     OW18089   0.253   5.935   1.678  0.0861 -0.1529 -0.1914
 4581SOL    HW218090   0.260   5.853   1.629 -0.0067  0.7492 -1.7543
 4581SOL    HW318091   0.245   6.003   1.612  2.2835  1.3920  0.9828
 4581SOL    MW418092   0.253   5.933   1.663 -0.1780  0.7127  0.2572
 4582SOL     OW18093   1.880   2.538   5.763 -0.1213  0.2130  0.0176
 4582SOL    HW218094   1.915   2.466   5.712 -0.0549  0.2884 -0.0441
 4582SOL    HW318095   1.936   2.543   5.840 -1.4985 -1.2822  1.1982
 4582SOL    MW418096   1.892   2.530   5.767  0.3698  0.3012  0.1031
 4583SOL     OW18097   6.422   2.081   2.374  0.4995  0.2140 -0.1850
 4583SOL    HW218098   6.456   2.043   2.455  0.4668 -1.9785 -1.1123
 4583SOL    HW318099   6.335   2.112   2.396  1.7806  3.0277  1.4592
 4583SOL    MW418100   6.415   2.080   2.387  0.1560  0.5510 -0.4512
 4584SOL     OW18101   2.221   5.054   0.890 -0.4203  0.3507  0.6968
 4584SOL    HW218102   2.225   5.054   0.985 -2.8561  0.4363  0.8713
 4584SOL    HW318103   2.197   5.144   0.867 -1.2009  0.0036  0.1152
 4584SOL    MW418104   2.218   5.066   0.899 -0.0256  0.3582  0.1897
 4585SOL     OW18105   5.703   5.845   2.885 -0.0997  0.2524 -0.7063
 4585SOL    HW218106   5.689   5.754   2.861 -0.3475 -0.1250  0.7881
 4585SOL    HW318107   5.681   5.849   2.978  1.1966  1.5505 -0.4253
 4585SOL    MW418108   5.698   5.834   2.894  0.5414 -0.0251 -0.1828
 4586SOL     OW18109   0.709   4.018   3.832  0.3008 -0.2121 -0.5063
 4586SOL    HW218110   0.734   4.079   3.901 -1.8192 -1.1458  1.2127
 4586SOL    HW318111   0.613   4.024   3.829 -0.0451 -3.6592  0.0141
 4586SOL    MW418112   0.699   4.027   3.840  0.3402 -0.1124 -0.1851
 4587SOL     OW18113   2.011   5.350   1.226 -0.7252  0.1547 -0.1366
 4587SOL    HW218114   1.964   5.341   1.309 -0.7065 -0.6185 -0.2041
 4587SOL    HW318115   2.078   5.416   1.244 -2.5971  2.2448 -0.4009
 4587SOL    MW418116   2.014   5.357   1.239  0.2853 -0.5030  0.3665
 4588SOL     OW18117   1.040   3.143   0.332  0.1523  0.9863 -0.0197
 4588SOL    HW218118   1.044   3.223   0.384 -1.4415 -0.1240  1.9704
 4588SOL    HW318119   1.035   3.174   0.242 -0.5429  3.1538  0.6800
 4588SOL    MW418120   1.040   3.158   0.327  0.0531 -0.2196 -0.1867
 4589SOL     OW18121   1.854   3.252   5.292 -0.4893  0.4014  0.3033
 4589SOL    HW218122   1.786   3.185   5.304  0.2429 -0.3951  0.0689
 4589SOL    HW318123   1.832   3.319   5.357 -1.7472  0.3636 -0.0482
 4589SOL    MW418124   1.842   3.252   5.302 -0.0019 -0.6648  0.5476
 4590SOL     OW18125   6.102   0.069   6.406  0.4042 -0.5586  0.1741
 4590SOL    HW218126   6.190   0.049   6.437  0.6123  0.0693  0.0166
 4590SOL    HW318127   6.045   0.051   6.481  0.9841  1.6974  1.2643
 4590SOL    MW418128   6.106   0.064   6.420  0.0074 -0.3663 -0.1411
 4591SOL     OW18129   2.988   1.856   0.996 -0.1479  0.1818  0.0430
 4591SOL    HW218130   2.924   1.785   0.989  0.7737 -0.7873  1.0671
 4591SOL    HW318131   3.061   1.818   1.044  2.3968  0.4258 -3.2434
 4591SOL    MW418132   2.989   1.841   1.001 -0.3216  0.1218  0.1125
 4592SOL     OW18133   3.000   0.491   1.201  0.1488  0.4246  0.3053
 4592SOL    HW218134   2.946   0.537   1.136  0.2956  0.3741  0.1472
 4592SOL    HW318135   3.083   0.476   1.157  0.3865  0.7402  0.6424
 4592SOL    MW418136   3.004   0.495   1.187 -0.3572  0.5865 -0.3760
 4593SOL     OW18137   2.870   1.816   2.778 -0.3916  0.2244  0.1740
 4593SOL    HW218138   2.894   1.776   2.695 -0.1402 -1.2075  0.9053
 4593SOL    HW318139   2.895   1.908   2.769  4.8278 -0.8498  0.5519
 4593SOL    MW418140   2.876   1.823   2.766 -0.1463 -0.0268 -0.4773
 4594SOL     OW18141   1.919   5.539   4.340 -0.4175 -0.0667 -0.0411
 4594SOL    HW218142   1.844   5.499   4.385 -0.7874 -1.6034 -1.9120
 4594SOL    HW318143   1.975   5.571   4.411 -1.2595 -1.8188  1.5054
 4594SOL    MW418144   1.916   5.538   4.356  0.4951 -0.5484  0.8191
 4595SOL     OW18145   4.143   1.963   4.641  0.5443  0.3154  0.4305
 4595SOL    HW218146   4.156   1.913   4.722 -2.3227  1.0672  1.4910
 4595SOL    HW318147   4.094   2.041   4.669 -0.7116  0.4928 -2.0230
 4595SOL    MW418148   4.138   1.966   4.655 -0.2595 -0.2503  1.1438
 4596SOL     OW18149   6.445   1.641   1.357 -0.2059  0.5793 -0.5875
 4596SOL    HW218150   6.540   1.645   1.344 -0.1392  0.6308 -0.0902
 4596SOL    HW318151   6.409   1.703   1.294  0.1008  0.6631 -0.6785
 4596SOL    MW418152   6.453   1.649   1.347  0.1713 -0.4710 -0.3934
 4597SOL     OW18153   6.371   3.523   1.744 -0.5456  0.1137 -0.1143
 4597SOL    HW218154   6.318   3.557   1.816  1.4999 -2.4664  2.9495
 4597SOL    HW318155   6.310   3.475   1.689 -2.2592  2.5163 -0.4493
 4597SOL    MW418156   6.356   3.521   1.746  0.5649 -0.2160 -0.4775
 4598SOL     OW18157   2.301   0.055   5.112 -0.0728  0.3264  0.2560
 4598SOL    HW218158   2.285   0.075   5.020  0.7615  0.1679  0.0659
 4598SOL    HW318159   2.325   0.139   5.151 -1.1655  0.5301  0.4995
 4598SOL    MW418160   2.302   0.069   5.105 -0.0632  0.0568 -0.0163
 4599SOL     OW18161   3.993   6.040   3.669 -0.1622 -0.1090  0.5691
 4599SOL    HW218162   4.068   6.038   3.610 -1.3989  2.0397 -1.2568
 4599SOL    HW318163   4.024   5.997   3.749  2.7823  0.1427 -0.3064
 4599SOL    MW418164   4.007   6.034   3.672 -0.6753 -0.3801  0.0910
 4600SOL     OW18165   3.301   2.052   1.044 -0.0694  0.2764  0.6669
 4600SOL    HW218166   3.329   1.961   1.048  0.2238  0.3925  1.2946
 4600SOL    HW318167   3.353   2.090   0.973 -1.2348 -0.3902 -0.5894
 4600SOL    MW418168   3.312   2.045   1.035  0.3676 -0.1362 -0.2693
 4601SOL     OW18169   1.712   1.111   4.187 -0.1959 -0.9001 -0.3009
 4601SOL    HW218170   1.758   1.028   4.194  2.1201  0.1549 -1.9251
 4601SOL    HW318171   1.772   1.176   4.224  0.3843  0.6980 -3.5943
 4601SOL    MW418172   1.726   1.109   4.192  0.4173  0.2187  0.0477
 4602SOL     OW18173   2.113   1.532   3.324  0.6296  0.1605 -0.4814
 4602SOL    HW218174   2.208   1.530   3.312  0.4111 -1.5880 -2.6035
 4602SOL    HW318175   2.087   1.440   3.324 -0.9291  0.4917  2.1400
 4602SOL    MW418176   2.122   1.520   3.322  0.0835 -0.5364 -0.8758
 4603SOL     OW18177   2.535   5.935   4.907  0.3831  0.3435  0.9740
 4603SOL    HW218178   2.614   5.974   4.869  0.8497  0.1060  1.6742
 4603SOL    HW318179   2.465   5.957   4.845  1.2240 -0.6053 -0.3560
 4603SOL    MW418180   2.536   5.943   4.894  0.6664 -0.6624 -0.3764
 4604SOL     OW18181   5.289   0.663   4.139 -0.2611  0.2006 -0.3277
 4604SOL    HW218182   5.327   0.730   4.196  0.1681 -1.5575  1.5177
 4604SOL    HW318183   5.227   0.616   4.194 -0.1151 -1.3191 -1.4115
 4604SOL    MW418184   5.286   0.666   4.153  0.0006 -0.1445 -0.3376
 4605SOL     OW18185   5.561   2.909   3.542  0.5068  0.3422 -0.0541
 4605SOL    HW218186   5.536   2.909   3.449 -1.1020 -0.3153  0.3606
 4605SOL    HW318187   5.600   2.823   3.556 -1.8167 -0.6780  0.5034
 4605SOL    MW418188   5.563   2.898   3.531 -0.1024 -0.5157  0.5856
 4606SOL     OW18189   0.519   0.743   3.155 -0.2252 -0.1398  0.2888
 4606SOL    HW218190   0.494   0.782   3.071  2.4344 -1.2779 -1.1293
 4606SOL    HW318191   0.439   0.750   3.208 -0.8653  4.4515 -0.7882
 4606SOL    MW418192   0.505   0.749   3.151  0.7287 -0.1635 -0.3785
 4607SOL     OW18193   2.785   2.419   2.894 -0.7134  0.0585  0.3232
 4607SOL    HW218194   2.809   2.421   2.801  0.0389  0.6052  0.5210
 4607SOL    HW318195   2.792   2.327   2.919 -1.6240 -0.2088 -0.3265
 4607SOL    MW418196   2.789   2.407   2.885 -0.4279 -0.0628  0.0523
 4608SOL     OW18197   5.217   6.323   5.828 -0.3991  0.3537  0.2442
 4608SOL    HW218198   5.158   6.320   5.903 -2.9115 -0.8940 -1.6257
 4608SOL    HW318199   5.287   6.261   5.849 -1.4658 -0.5533  1.2317
 4608SOL    MW418200   5.219   6.314   5.841  0.3266  0.0053 -0.4281
 4609SOL     OW18201   0.226   0.150   0.742 -0.8412  0.4686 -0.2345
 4609SOL    HW218202   0.132   0.145   0.723 -0.9772  1.2188  0.2094
 4609SOL    HW318203   0.267   0.098   0.673 -1.4492  1.6802 -1.5567
 4609SOL    MW418204   0.219   0.142   0.730 -0.1187  0.0673 -0.1189
 4610SOL     OW18205   3.283   5.021   0.011 -1.0059 -0.3626  0.0782
 4610SOL    HW218206   3.340   5.093   0.037 -1.6749  0.1566  0.1018
 4610SOL    HW318207   3.194   5.056   0.016 -1.2310 -0.5243 -1.9076
 4610SOL    MW418208   3.279   5.035   0.015 -0.2216  0.2049 -0.7729
 4611SOL     OW18209   4.531   0.565   1.019 -0.2055  0.6479 -0.6302
 4611SOL    HW218210   4.557   0.634   0.958 -1.3452  0.6410 -1.1485
 4611SOL    HW318211   4.437   0.576   1.028 -0.4722 -1.0700 -1.0043
 4611SOL    MW418212   4.522   0.576   1.012  0.6199  0.0325 -0.5335
 4612SOL     OW18213   2.688   2.801   5.545 -0.6319  0.5345  0.2284
 4612SOL    HW218214   2.633   2.745   5.601  0.3258  0.1297  0.7992
 4612SOL    HW318215   2.645   2.886   5.547 -0.9099  0.3902  1.1834
 4612SOL    MW418216   2.675   2.805   5.553 -0.1817  0.1999  0.2084
 4613SOL     OW18217   0.085   6.126   0.958  0.0732 -0.0539 -0.2653
 4613SOL    HW218218   0.072   6.033   0.975 -1.4616  0.3288  0.8432
 4613SOL    HW318219   0.178   6.141   0.973 -0.1334 -0.8988  2.3450
 4613SOL    MW418220   0.095   6.116   0.962 -0.1413  0.1647 -0.9455
 4614SOL     OW18221   2.488   6.233   3.844  0.2020 -0.0508 -0.1263
 4614SOL    HW218222   2.552   6.303   3.841 -1.3950  1.4379 -1.7335
 4614SOL    HW318223   2.415   6.267   3.896 -0.2017 -0.8765 -0.1169
 4614SOL    MW418224   2.487   6.246   3.850 -0.4976 -0.3072 -0.2196
 4615SOL     OW18225   1.370   0.370   0.811  0.1589 -0.1651  0.0034
 4615SOL    HW218226   1.357   0.293   0.866 -1.2737  0.4588  0.6053
 4615SOL    HW318227   1.421   0.430   0.865  0.7358 -0.4392 -0.2303
 4615SOL    MW418228   1.375   0.368   0.825 -0.0236 -0.1946 -0.1871
 4616SOL     OW18229   1.476   0.697   0.617  0.4118  0.8452  0.2362
 4616SOL    HW218230   1.481   0.679   0.711  1.3015  1.3093  0.2878
 4616SOL    HW318231   1.541   0.765   0.602  1.4703 -0.3572 -0.9764
 4616SOL    MW418232   1.486   0.703   0.627  0.4432  0.6223 -0.1907
 4617SOL     OW18233   1.361   0.771   3.393  0.4957 -0.3088  0.2405
 4617SOL    HW218234   1.434   0.727   3.351 -0.2866 -1.0142 -0.4278
 4617SOL    HW318235   1.401   0.840   3.447  1.5420  0.7358 -1.7785
 4617SOL    MW418236   1.376   0.774   3.395 -0.7349  0.5820 -0.3502
 4618SOL     OW18237   6.080   5.881   1.840 -0.2343 -0.3694  0.5656
 4618SOL    HW218238   6.062   5.972   1.814  0.2388 -0.2888  0.5086
 4618SOL    HW318239   6.171   5.882   1.869  0.0955 -1.0359 -0.3905
 4618SOL    MW418240   6.089   5.893   1.840 -0.0229 -0.2061 -0.1373
 4619SOL     OW18241   0.614   0.485   5.521 -0.1646  0.6340  0.1843
 4619SOL    HW218242   0.549   0.553   5.501 -0.6750  0.0004 -0.3642
 4619SOL    HW318243   0.567   0.403   5.510  0.6424  0.1677  0.1389
 4619SOL    MW418244   0.599   0.483   5.517 -0.4980  0.3284 -0.3488
 4620SOL     OW18245   6.078   2.835   5.170 -0.0070  0.2105 -0.0490
 4620SOL    HW218246   6.135   2.905   5.201 -0.7350 -0.0109  1.9106
 4620SOL    HW318247   5.989   2.867   5.186 -0.4230 -0.2405 -1.2759
 4620SOL    MW418248   6.074   2.849   5.176 -0.0732 -0.0595 -0.3506
 4621SOL     OW18249   4.276   2.961   2.176  0.2813  0.2688 -0.2587
 4621SOL    HW218250   4.197   2.921   2.213 -0.4057 -0.7217 -2.5901
 4621SOL    HW318251   4.338   2.963   2.248 -1.5884  0.3027  1.4299
 4621SOL    MW418252   4.274   2.956   2.190  0.1566 -0.1623  0.3762
 4622SOL     OW18253   3.867   1.550   5.876 -0.4702  0.5592  0.2604
 4622SOL    HW218254   3.941   1.493   5.854 -1.5972  0.1474 -2.8399
 4622SOL    HW318255   3.881   1.571   5.969  2.2845 -1.2936  0.3963
 4622SOL    MW418256   3.879   1.545   5.886  0.1221  0.5495 -0.8422
 4623SOL     OW18257   0.346   1.832   6.126  0.5171 -0.9161  0.6181
 4623SOL    HW218258   0.390   1.913   6.152 -2.7352  1.5856 -0.9854
 4623SOL    HW318259   0.296   1.806   6.204 -1.2367  0.7835  0.1418
 4623SOL    MW418260   0.345   1.839   6.140 -0.0872 -0.1676  0.2997
 4624SOL     OW18261   4.667   0.599   1.938 -0.0040  0.2694 -0.9286
 4624SOL    HW218262   4.724   0.577   1.865  0.1639 -0.1392 -0.6769
 4624SOL    HW318263   4.620   0.677   1.909 -0.8866 -0.6204 -1.9718
 4624SOL    MW418264   4.668   0.607   1.925 -0.4350 -0.8028  0.1064
 4625SOL     OW18265   3.309   4.312   2.091 -0.4268  0.1830 -0.1841
 4625SOL    HW218266   3.218   4.284   2.097 -0.6706  1.0712  0.4353
 4625SOL    HW318267   3.306   4.408   2.097  0.4583  0.2963 -1.2647
 4625SOL    MW418268   3.297   4.321   2.093 -0.8852 -0.2631 -0.5904
 4626SOL     OW18269   2.626   4.765   1.732 -0.1656  0.6686  0.2959
 4626SOL    HW218270   2.693   4.833   1.718  0.7138 -0.3125 -0.4821
 4626SOL    HW318271   2.639   4.738   1.822  0.0749  0.9183  0.3406
 4626SOL    MW418272   2.637   4.771   1.742  0.3045  0.1586 -0.3502
 4627SOL     OW18273   4.632   2.884   2.141 -0.2873 -0.1154 -0.8699
 4627SOL    HW218274   4.595   2.934   2.214 -1.6480 -0.4723 -1.2844
 4627SOL    HW318275   4.721   2.862   2.169  0.5027  2.7908 -0.7990
 4627SOL    MW418276   4.639   2.888   2.154 -0.1171 -0.1817 -0.3636
 4628SOL     OW18277   2.480   2.062   1.174  0.5390 -0.3146 -0.1332
 4628SOL    HW218278   2.388   2.088   1.183  0.5864  0.3671 -1.4101
 4628SOL    HW318279   2.506   2.095   1.088  1.2427 -2.7586 -0.9392
 4628SOL    MW418280   2.471   2.070   1.164  0.0899  0.5915 -0.0392
 4629SOL     OW18281   1.663   4.531   2.142  0.1180 -0.0095  0.5580
 4629SOL    HW218282   1.571   4.555   2.128  0.5609  1.4653 -0.0231
 4629SOL    HW318283   1.708   4.562   2.063  0.8145 -2.6715 -0.1829
 4629SOL    MW418284   1.657   4.538   2.130 -0.1087  0.0836 -0.1113
 4630SOL     OW18285   0.506   0.241   0.500  0.3360  0.2689 -0.4812
 4630SOL    HW218286   0.577   0.257   0.439 -0.6005  0.6798 -1.5079
 4630SOL    HW318287   0.430   0.222   0.444 -0.4595  0.2578  0.5662
 4630SOL    MW418288   0.505   0.240   0.485  0.1702  0.2604  0.0339
 4631SOL     OW18289   1.164   5.982   3.044  0.2273 -0.7283  0.8595
 4631SOL    HW218290   1.144   5.909   2.986 -1.5379  0.2291  0.2016
 4631SOL    HW318291   1.224   6.037   2.993  0.3357 -0.9394  0.7578
 4631SOL    MW418292   1.169   5.980   3.030  0.6170 -0.1285 -0.2409
 4632SOL     OW18293   1.014   3.174   4.169  0.4505 -0.0911  0.0144
 4632SOL    HW218294   0.931   3.147   4.130  0.3719 -2.5950  1.6862
 4632SOL    HW318295   0.992   3.252   4.219  0.0837  1.8004 -2.8597
 4632SOL    MW418296   1.000   3.181   4.170 -0.2725 -0.7598 -0.0575
 4633SOL     OW18297   2.088   1.907   5.143  0.5663 -0.3930  0.1270
 4633SOL    HW218298   2.114   1.816   5.132  0.7679 -0.3958  0.6421
 4633SOL    HW318299   2.019   1.920   5.077  0.0370 -1.1131  0.5350
 4633SOL    MW418300   2.082   1.897   5.133 -0.2412 -0.2118 -0.1753
 4634SOL     OW18301   2.752   5.382   3.380  0.4214  0.4816 -0.5000
 4634SOL    HW218302   2.708   5.378   3.464 -0.1394 -0.2912 -0.8190
 4634SOL    HW318303   2.796   5.297   3.371 -0.2602  0.1967 -1.3619
 4634SOL    MW418304   2.752   5.370   3.390  0.0232 -0.0002  0.0799
 4635SOL     OW18305   4.221   4.911   1.862 -0.0706  0.0195 -0.0496
 4635SOL    HW218306   4.131   4.900   1.830 -0.0090 -0.6257 -0.0156
 4635SOL    HW318307   4.212   4.925   1.956 -0.1783  0.7252 -0.1593
 4635SOL    MW418308   4.208   4.911   1.870 -0.5344  0.0255 -0.1809
 4636SOL     OW18309   1.735   6.273   6.060  0.0681 -0.0259 -0.0817
 4636SOL    HW218310   1.777   6.255   5.976 -1.1233  0.2813 -0.7517
 4636SOL    HW318311   1.739   6.189   6.106  2.8570  0.3474  0.5763
 4636SOL    MW418312   1.741   6.259   6.055 -0.3278  0.0864 -0.3434
 4637SOL     OW18313   3.717   5.870   4.186 -0.3475 -0.0580 -0.3450
 4637SOL    HW218314   3.647   5.825   4.140 -1.3930  0.1819  0.9410
 4637SOL    HW318315   3.779   5.897   4.118 -1.8777  0.3861 -1.5990
 4637SOL    MW418316   3.716   5.868   4.171 -0.2098 -0.3450  0.8258
 4638SOL     OW18317   5.367   1.538   4.732  0.8067 -0.4676  0.1389
 4638SOL    HW218318   5.436   1.471   4.727  0.7044 -0.5449 -0.3375
 4638SOL    HW318319   5.400   1.609   4.677 -0.6773 -1.6117 -2.4294
 4638SOL    MW418320   5.381   1.538   4.724  0.1216 -0.0555 -0.2512
 4639SOL     OW18321   2.754   6.063   3.771 -0.3525  0.5444 -0.1401
 4639SOL    HW218322   2.789   5.976   3.754  0.6205  0.1846  3.0758
 4639SOL    HW318323   2.674   6.047   3.821 -0.3723  1.4962  0.1413
 4639SOL    MW418324   2.748   6.049   3.775  0.0676 -0.0845 -0.1516
 4640SOL     OW18325   2.165   2.324   1.034 -0.2464  0.6122  0.2157
 4640SOL    HW218326   2.176   2.387   1.105  1.7705  0.9830 -0.3634
 4640SOL    HW318327   2.169   2.238   1.077 -2.0971  0.8026  0.8866
 4640SOL    MW418328   2.167   2.321   1.049  0.2665 -0.1908 -0.5948
 4641SOL     OW18329   4.682   2.769   4.822 -0.3532  0.2637 -0.4320
 4641SOL    HW218330   4.747   2.754   4.753 -0.3889  1.8562 -0.8701
 4641SOL    HW318331   4.627   2.839   4.788 -1.7798 -0.4577  0.3030
 4641SOL    MW418332   4.683   2.776   4.809  0.1873  0.1017 -0.1079
 4642SOL     OW18333   2.645   3.496   3.011 -0.8493  0.1483  0.2616
 4642SOL    HW218334   2.706   3.431   2.976  0.9661  0.5819  2.4217
 4642SOL    HW318335   2.648   3.568   2.947  1.9988  0.7288  0.9205
 4642SOL    MW418336   2.654   3.497   2.998 -0.0631 -0.6306  0.4430
 4643SOL     OW18337   3.716   6.372   4.612 -0.1480  0.9011  0.4199
 4643SOL    HW218338   3.721   6.407   4.701  1.7531  1.2681  0.2061
 4643SOL    HW318339   3.777   6.425   4.562  0.7731 -0.9621 -0.5249
 4643SOL    MW418340   3.724   6.384   4.617  0.4829  0.0205 -0.6091
 4644SOL     OW18341   0.463   4.742   5.915 -0.7005 -0.7932  0.2874
 4644SOL    HW218342   0.511   4.737   5.998  0.4504  1.4359 -0.1971
 4644SOL    HW318343   0.445   4.650   5.893  3.2514 -1.7937  0.5445
 4644SOL    MW418344   0.467   4.729   5.923 -0.3333  0.3068 -0.0117
 4645SOL     OW18345   1.718   0.509   2.401 -0.3886 -0.1972  0.2442
 4645SOL    HW218346   1.661   0.519   2.324 -1.3793 -0.7733  0.8720
 4645SOL    HW318347   1.722   0.414   2.414  0.7319 -0.1565  0.2181
 4645SOL    MW418348   1.711   0.497   2.392 -0.4100 -0.2715 -0.4900
 4646SOL     OW18349   6.278   0.543   0.060  0.2677 -0.1779 -0.5921
 4646SOL    HW218350   6.198   0.492   0.044 -0.0289 -0.2979  1.1022
 4646SOL    HW318351   6.246   0.630   0.083  0.6547 -0.0815 -0.4290
 4646SOL    MW418352   6.263   0.547   0.061  0.0805 -0.0596 -0.1051
 4647SOL     OW18353   4.635   5.314   3.798 -0.4006  0.0034  0.4782
 4647SOL    HW218354   4.649   5.232   3.845  0.7408 -0.3737 -0.4629
 4647SOL    HW318355   4.545   5.340   3.820 -0.0690 -0.3944  2.4383
 4647SOL    MW418356   4.625   5.307   3.807 -0.0851  0.8159  0.1870
 4648SOL     OW18357   4.008   1.157   1.914  0.4129  0.2336 -0.9588
 4648SOL    HW218358   3.913   1.166   1.911  0.5223  1.4920 -1.2831
 4648SOL    HW318359   4.030   1.163   2.007  0.2406  0.8620 -0.9529
 4648SOL    MW418360   3.999   1.159   1.925 -0.1858 -0.5361 -0.5435
 4649SOL     OW18361   0.587   4.333   1.380 -0.6241  0.5767  0.1716
 4649SOL    HW218362   0.539   4.306   1.302 -1.3982 -0.7139  1.0720
 4649SOL    HW318363   0.566   4.267   1.446  1.4128  0.6499  0.9664
 4649SOL    MW418364   0.578   4.321   1.378 -0.1583  0.3384 -0.3239
 4650SOL     OW18365   0.720   0.024   0.069  0.1616  0.5615 -0.4215
 4650SOL    HW218366   0.699   0.061   0.155 -0.4341  1.3253 -0.8786
 4650SOL    HW318367   0.637   0.024   0.022  0.8314  2.1459 -1.7174
 4650SOL    MW418368   0.706   0.029   0.074  0.1230 -0.6256  0.1837
 4651SOL     OW18369   1.107   3.706   3.056 -0.5805 -0.1070 -0.5466
 4651SOL    HW218370   1.079   3.615   3.047  2.4534 -0.9681 -3.2473
 4651SOL    HW318371   1.026   3.754   3.075 -2.4403 -3.2039  0.0710
 4651SOL    MW418372   1.093   3.700   3.057 -0.0418 -0.0126  0.1271
 4652SOL     OW18373   1.510   2.420   4.499  0.3440 -0.2517  0.7383
 4652SOL    HW218374   1.590   2.466   4.473  0.1923 -0.4956 -0.1932
 4652SOL    HW318375   1.504   2.346   4.439 -0.2687 -0.5810  1.1893
 4652SOL    MW418376   1.520   2.417   4.488 -0.0805  0.3556 -0.6729
 4653SOL     OW18377   3.886   3.818   3.016  0.4329 -0.0014  0.3880
 4653SOL    HW218378   3.851   3.746   2.964 -0.0736  0.0008  0.7254
 4653SOL    HW318379   3.921   3.879   2.951 -0.4931  0.1571  0.0204
 4653SOL    MW418380   3.886   3.816   3.000  0.2000  0.0354 -0.8234
 4654SOL     OW18381   6.340   1.041   0.224  0.4996  0.3100 -0.3868
 4654SOL    HW218382   6.368   0.960   0.268  1.8352  0.3280 -1.1613
 4654SOL    HW318383   6.314   1.099   0.296  0.0088 -0.6140  0.2101
 4654SOL    MW418384   6.341   1.038   0.239 -0.1695  0.0787 -0.0508
 4655SOL     OW18385   4.080   5.981   2.473  0.1495 -0.2114  0.4288
 4655SOL    HW218386   4.098   5.958   2.381  1.4413 -1.1312  0.8713
 4655SOL    HW318387   4.045   6.069   2.469  1.7286  0.4198 -0.8547
 4655SOL    MW418388   4.078   5.989   2.460  0.1277 -0.2986 -0.4546
 4656SOL     OW18389   3.884   6.366   0.713  0.0222 -0.4111 -0.0864
 4656SOL    HW218390   3.795   6.370   0.748  0.3840 -0.7518  0.9044
 4656SOL    HW318391   3.885   6.289   0.658 -0.1720 -0.6791  0.2825
 4656SOL    MW418392   3.872   6.357   0.711 -0.6912  0.2484  0.3224
 4657SOL     OW18393   4.596   4.548   5.814 -1.2533 -0.6292 -0.2419
 4657SOL    HW218394   4.575   4.621   5.755 -0.3726 -0.6035 -0.5338
 4657SOL    HW318395   4.589   4.470   5.759  0.4772 -0.5321 -0.6453
 4657SOL    MW418396   4.592   4.547   5.799 -0.5159  0.0351  0.2199
 4658SOL     OW18397   2.073   0.706   2.910 -0.4850 -0.2944  0.1014
 4658SOL    HW218398   2.090   0.789   2.953  1.7070  0.1339 -1.4015
 4658SOL    HW318399   2.140   0.646   2.944 -1.1638 -1.0471  0.1485
 4658SOL    MW418400   2.084   0.709   2.920  0.1120 -0.4346 -0.0192
 4659SOL     OW18401   6.353   0.728   3.942 -0.1613 -0.4349 -0.3479
 4659SOL    HW218402   6.397   0.649   3.911 -3.6197 -3.4800  1.7956
 4659SOL    HW318403   6.395   0.747   4.026 -1.0280 -1.6681  0.3917
 4659SOL    MW418404   6.365   0.720   3.949  0.6552 -0.5780  0.3245
 4660SOL     OW18405   4.875   3.554   0.249  0.0402 -0.0628  0.6587
 4660SOL    HW218406   4.868   3.615   0.176  0.8646 -1.9874 -1.1287
 4660SOL    HW318407   4.807   3.582   0.311  0.3091  2.5315 -0.1049
 4660SOL    MW418408   4.865   3.566   0.248 -0.8850 -0.4881 -0.4098
 4661SOL     OW18409   2.809   4.272   5.783 -0.3229  0.6932 -0.5073
 4661SOL    HW218410   2.764   4.205   5.835  0.6289  0.1276 -0.3885
 4661SOL    HW318411   2.825   4.343   5.844  1.0466 -0.0832  0.0851
 4661SOL    MW418412   2.805   4.272   5.798 -0.0093  0.2246  0.1655
 4662SOL     OW18413   5.719   5.758   6.286 -0.6020  0.2070 -0.5442
 4662SOL    HW218414   5.730   5.694   6.356 -1.0641  1.4584  0.7349
 4662SOL    HW318415   5.625   5.759   6.269 -0.5922  0.5202 -0.5855
 4662SOL    MW418416   5.708   5.750   6.293 -0.7794 -0.3847  0.1210
 4663SOL     OW18417   4.567   5.705   0.739 -0.5453  0.8146  0.1901
 4663SOL    HW218418   4.487   5.657   0.717  0.0400 -0.7499  1.2916
 4663SOL    HW318419   4.537   5.795   0.755 -2.0744  0.2709  0.5750
 4663SOL    MW418420   4.552   5.711   0.738 -0.1094 -0.1298  0.3861
 4664SOL     OW18421   6.356   1.300   1.056 -0.0167  0.2844  0.2097
 4664SOL    HW218422   6.312   1.222   1.089 -0.1477 -0.2543 -1.1784
 4664SOL    HW318423   6.409   1.269   0.983 -2.1105  1.8252 -2.1508
 4664SOL    MW418424   6.357   1.286   1.051  0.3846  0.1375 -0.2762
 4665SOL     OW18425   2.332   0.040   0.533 -0.1448  0.0270  0.1388
 4665SOL    HW218426   2.394   0.105   0.499  1.7410 -1.8583 -0.2943
 4665SOL    HW318427   2.270   0.027   0.461 -0.1870  0.8897  0.0063
 4665SOL    MW418428   2.332   0.047   0.519 -0.2075  0.2728  0.1352
 4666SOL     OW18429   1.245   3.108   0.116  0.3765  0.4292  0.0639
 4666SOL    HW218430   1.327   3.154   0.100  0.1768  0.7276 -0.1121
 4666SOL    HW318431   1.184   3.144   0.051  0.6494 -1.2658 -1.2019
 4666SOL    MW418432   1.248   3.119   0.105 -0.4520  0.0440  0.0103
 4667SOL     OW18433   2.560   2.815   1.063  0.0656 -0.0894  0.0729
 4667SOL    HW218434   2.618   2.882   1.026  2.2269 -1.9625 -0.1985
 4667SOL    HW318435   2.522   2.772   0.986  0.3301 -0.5049  0.1713
 4667SOL    MW418436   2.563   2.818   1.048 -0.4089  0.0527 -0.2423
 4668SOL     OW18437   3.103   6.406   1.166  0.0762 -0.2979  0.4371
 4668SOL    HW218438   3.153   6.330   1.134 -1.5969 -1.1749 -0.2408
 4668SOL    HW318439   3.064   6.443   1.088 -0.7123  0.0740  0.9970
 4668SOL    MW418440   3.104   6.401   1.152 -0.5861 -0.3597  0.1722
 4669SOL     OW18441   4.661   4.331   1.656  0.8179  0.1533  0.4037
 4669SOL    HW218442   4.736   4.373   1.614  1.6951 -1.5188  0.1716
 4669SOL    HW318443   4.689   4.319   1.747  0.6230 -0.0030  0.4416
 4669SOL    MW418444   4.675   4.335   1.663 -0.0035  0.1517  0.1048
 4670SOL     OW18445   0.241   4.088   1.350  0.4557  0.4988 -0.3886
 4670SOL    HW218446   0.308   4.138   1.304  1.8680 -0.9119  0.0241
 4670SOL    HW318447   0.171   4.077   1.286  1.3254  0.6542 -1.3959
 4670SOL    MW418448   0.241   4.093   1.335  0.2894  0.6829 -0.6794
 4671SOL     OW18449   0.813   4.619   0.647  0.3275  0.1447  0.1353
 4671SOL    HW218450   0.880   4.587   0.586 -0.0633 -1.0338  0.2979
 4671SOL    HW318451   0.735   4.568   0.625 -0.1682  0.6100  0.7882
 4671SOL    MW418452   0.812   4.608   0.636 -0.2504  0.3196 -0.1123
 4672SOL     OW18453   4.252   3.912   2.400 -0.0448  0.2191 -0.2941
 4672SOL    HW218454   4.158   3.905   2.384 -0.5532  0.0003  2.3761
 4672SOL    HW318455   4.259   3.969   2.476  2.0173  0.2833 -0.4805
 4672SOL    MW418456   4.240   3.919   2.408 -0.4356 -0.2684 -0.0550
 4673SOL     OW18457   6.317   1.822   2.252  0.2146  0.2907 -0.3361
 4673SOL    HW218458   6.340   1.904   2.296  0.0370  1.3429 -2.0780
 4673SOL    HW318459   6.393   1.801   2.198  0.1245 -0.5162 -0.1626
 4673SOL    MW418460   6.330   1.830   2.250  0.3023 -0.1867  0.0227
 4674SOL     OW18461   4.931   1.788   0.865  0.2116 -0.2237  0.2157
 4674SOL    HW218462   4.841   1.782   0.896  0.4443  0.5794  1.0991
 4674SOL    HW318463   4.923   1.826   0.777 -0.3111 -0.0821  0.3182
 4674SOL    MW418464   4.918   1.793   0.857  0.1479 -0.1774 -0.0304
 4675SOL     OW18465   4.259   5.886   3.267 -0.2477  0.0541 -0.2349
 4675SOL    HW218466   4.251   5.981   3.267  1.6915  0.2572 -1.2785
 4675SOL    HW318467   4.352   5.869   3.279 -0.5088 -1.7171 -0.4018
 4675SOL    MW418468   4.270   5.896   3.268 -0.1503  0.0472  0.0464
 4676SOL     OW18469   6.461   3.490   4.646  0.8279 -0.4002 -0.1373
 4676SOL    HW218470   6.543   3.448   4.669  0.9667 -0.0012  0.0946
 4676SOL    HW318471   6.427   3.438   4.573 -0.3577 -2.6350  1.8576
 4676SOL    MW418472   6.467   3.477   4.640 -0.0686 -0.4962  0.4087
 4677SOL     OW18473   6.148   3.281   4.616  0.0990 -0.0514 -0.0597
 4677SOL    HW218474   6.194   3.211   4.569 -0.4197 -0.1171 -0.4887
 4677SOL    HW318475   6.129   3.346   4.548 -0.3847 -0.0035  0.1197
 4677SOL    MW418476   6.152   3.280   4.601  0.4902 -0.1464  0.3417
 4678SOL     OW18477   3.053   6.285   3.500 -0.1202 -1.0561 -0.6104
 4678SOL    HW218478   3.025   6.199   3.468  0.9490 -1.7447  0.2219
 4678SOL    HW318479   3.149   6.281   3.499 -0.0537 -0.2536  0.4315
 4678SOL    MW418480   3.062   6.273   3.496 -0.2803 -0.2664 -0.1140
 4679SOL     OW18481   1.385   0.734   2.251  0.4743 -0.2031 -0.3021
 4679SOL    HW218482   1.473   0.765   2.230  0.9731 -1.0697  0.4408
 4679SOL    HW318483   1.382   0.645   2.215  0.4323 -0.7279  0.9429
 4679SOL    MW418484   1.396   0.726   2.243  0.4387 -0.1569  0.2590
 4680SOL     OW18485   3.828   5.063   5.210 -0.1864  0.2732 -0.0219
 4680SOL    HW218486   3.886   5.129   5.249  0.7896 -1.1789  1.0624
 4680SOL    HW318487   3.806   5.099   5.124  0.8574  1.7001  0.2676
 4680SOL    MW418488   3.833   5.077   5.204  0.3031 -0.1965 -0.2496
 4681SOL     OW18489   3.925   0.502   3.009  0.5631 -0.0853 -0.0786
 4681SOL    HW218490   3.992   0.516   2.942  0.2249 -0.0992 -0.4264
 4681SOL    HW318491   3.974   0.485   3.089  1.0634 -3.2873 -0.9107
 4681SOL    MW418492   3.940   0.502   3.010 -0.2027 -0.4102  0.3444
 4682SOL     OW18493   3.329   3.020   2.678  0.2063 -0.1977  0.4909
 4682SOL    HW218494   3.299   2.969   2.754  1.5194 -0.0746  1.1230
 4682SOL    HW318495   3.392   3.081   2.714  1.3490 -0.5715 -0.7989
 4682SOL    MW418496   3.333   3.021   2.693  0.5889  0.3102 -0.0622
 4683SOL     OW18497   6.404   2.086   5.866  0.2314 -0.2573 -0.0284
 4683SOL    HW218498   6.433   2.012   5.920 -1.3429 -1.1528 -0.3719
 4683SOL    HW318499   6.340   2.132   5.921 -1.2386 -1.0626 -1.0046
 4683SOL    MW418500   6.400   2.082   5.881 -0.4795 -0.1947 -0.0406
 4684SOL     OW18501   5.285   4.359   4.352  0.4863  0.3688  0.3491
 4684SOL    HW218502   5.350   4.415   4.310 -0.7829  1.2611 -0.5103
 4684SOL    HW318503   5.335   4.304   4.412  2.7368 -2.2278 -3.4566
 4684SOL    MW418504   5.300   4.359   4.355 -0.4520  0.3920  0.4224
 4685SOL     OW18505   2.141   2.188   4.584  0.2015 -0.1382  0.0933
 4685SOL    HW218506   2.153   2.207   4.677  0.6825  1.0569 -0.1901
 4685SOL    HW318507   2.163   2.270   4.540  1.3644 -1.0924 -1.1856
 4685SOL    MW418508   2.145   2.202   4.590 -0.4656  0.0618  0.5372
 4686SOL     OW18509   0.639   3.203   2.908  0.1836 -0.1766  0.4081
 4686SOL    HW218510   0.561   3.211   2.963  0.9380  2.7706  1.2631
 4686SOL    HW318511   0.702   3.157   2.963 -0.0156  0.1066  0.8837
 4686SOL    MW418512   0.637   3.198   2.923  0.2628 -0.1736 -0.3078
 4687SOL     OW18513   1.237   0.560   4.503  0.5779 -0.2793 -0.0951
 4687SOL    HW218514   1.239   0.528   4.412 -2.9909  1.4574 -0.9663
 4687SOL    HW318515   1.212   0.652   4.495  1.6346  0.3329  2.6714
 4687SOL    MW418516   1.234   0.568   4.490 -0.0180  0.4146  0.4719
 4688SOL     OW18517   5.642   2.634   4.792  0.3803  0.2155 -0.3451
 4688SOL    HW218518   5.717   2.575   4.796 -0.3675 -0.7397  0.1282
 4688SOL    HW318519   5.632   2.668   4.881  0.0553  0.0832 -0.3283
 4688SOL    MW418520   5.650   2.631   4.804  0.1353 -0.0165  0.0630
 4689SOL     OW18521   4.999   4.768   2.660 -0.3825 -0.2586 -0.8611
 4689SOL    HW218522   5.064   4.764   2.589  1.5628 -0.5178  0.8152
 4689SOL    HW318523   5.014   4.852   2.702  1.2647 -1.6394  1.5721
 4689SOL    MW418524   5.010   4.778   2.656 -0.1796 -0.1514  0.1458
 4690SOL     OW18525   0.489   0.182   2.479 -0.0994  0.1822 -0.4260
 4690SOL    HW218526   0.476   0.263   2.429  0.5068  1.0815  0.8273
 4690SOL    HW318527   0.583   0.177   2.492  0.0651 -1.6643 -1.9619
 4690SOL    MW418528   0.499   0.192   2.474  0.1751 -0.5893  0.3064
 4691SOL     OW18529   5.086   4.389   4.529 -0.1758  0.0483 -0.2742
 4691SOL    HW218530   5.147   4.388   4.455  0.3833 -0.3273  0.1831
 4691SOL    HW318531   5.041   4.304   4.524  2.2056 -1.5016  1.6872
 4691SOL    MW418532   5.088   4.377   4.519 -0.1112  0.0740 -0.7746
 4692SOL     OW18533   1.590   1.630   5.696 -0.2452 -0.1059 -0.7123
 4692SOL    HW218534   1.651   1.583   5.753 -2.2802 -0.7672  1.0507
 4692SOL    HW318535   1.596   1.721   5.724 -0.6628 -0.3051  0.0472
 4692SOL    MW418536   1.599   1.636   5.707  0.1337 -0.3389 -0.6731
 4693SOL     OW18537   3.886   1.866   2.950  0.6157  0.7913  0.2779
 4693SOL    HW218538   3.806   1.815   2.963  0.6336  0.9892  1.2076
 4693SOL    HW318539   3.901   1.862   2.855  0.7968 -1.1890  0.3443
 4693SOL    MW418540   3.877   1.859   2.939  0.6039 -0.3655  0.1602
 4694SOL     OW18541   4.296   4.508   1.343  0.8337 -0.1406 -0.7931
 4694SOL    HW218542   4.335   4.422   1.329  0.8981 -0.1656 -0.4800
 4694SOL    HW318543   4.325   4.534   1.431  0.3619 -0.0453 -0.6597
 4694SOL    MW418544   4.305   4.500   1.353  0.1552  0.4573 -0.1672
 4695SOL     OW18545   4.434   1.550   3.704 -0.4566 -0.0013 -0.5381
 4695SOL    HW218546   4.433   1.587   3.616  1.6739  3.0276  0.5413
 4695SOL    HW318547   4.401   1.620   3.761 -1.4103 -1.7262  1.1544
 4695SOL    MW418548   4.430   1.564   3.700 -0.2979  0.4223  0.0196
 4696SOL     OW18549   6.153   5.575   1.494  0.5023 -0.1379 -0.1732
 4696SOL    HW218550   6.192   5.507   1.439 -1.6550 -1.1442 -0.5616
 4696SOL    HW318551   6.101   5.527   1.558  1.9755  1.0633  2.0395
 4696SOL    MW418552   6.151   5.560   1.495 -0.5098  0.6038  0.3444
 4697SOL     OW18553   5.250   5.578   2.679 -0.3607  0.3245  0.4332
 4697SOL    HW218554   5.187   5.534   2.622 -2.8704  1.1532  2.3894
 4697SOL    HW318555   5.313   5.618   2.618 -1.3814 -0.9940 -1.6024
 4697SOL    MW418556   5.250   5.578   2.663  0.0177 -0.9182 -0.8656
 4698SOL     OW18557   4.375   3.141   3.206 -0.5080 -0.9079  0.5653
 4698SOL    HW218558   4.396   3.073   3.269  2.5119 -1.6663 -1.0673
 4698SOL    HW318559   4.451   3.200   3.207 -1.0072 -0.1376 -1.2809
 4698SOL    MW418560   4.388   3.140   3.214  0.0179 -0.1531 -0.5165
 4699SOL     OW18561   1.013   4.164   4.801 -0.2397 -0.2740 -0.3309
 4699SOL    HW218562   1.093   4.163   4.749 -0.0087 -0.7041  0.0317
 4699SOL    HW318563   1.031   4.225   4.873 -0.1530 -0.5441 -0.1217
 4699SOL    MW418564   1.026   4.172   4.804  0.3580 -0.0888  0.4640
 4700SOL     OW18565   5.869   5.207   5.456  0.3450 -0.1380 -0.3007
 4700SOL    HW218566   5.939   5.241   5.511  1.6677 -0.1569 -1.9076
 4700SOL    HW318567   5.857   5.117   5.485  1.5397 -0.3774 -0.5079
 4700SOL    MW418568   5.876   5.200   5.467  0.3012  0.0683  0.1801
 4701SOL     OW18569   0.745   4.583   1.035 -0.2364  0.6039 -0.1266
 4701SOL    HW218570   0.806   4.632   0.979 -2.8112  0.7134 -3.0337
 4701SOL    HW318571   0.758   4.492   1.011 -0.1641  0.4830  0.3673
 4701SOL    MW418572   0.755   4.578   1.025 -0.0797  0.0933 -0.3684
 4702SOL     OW18573   4.883   3.283   0.158 -0.3804 -0.5704 -0.8514
 4702SOL    HW218574   4.918   3.290   0.070  0.0709  0.6510 -0.5951
 4702SOL    HW318575   4.868   3.373   0.186 -1.2314 -0.9622  0.0424
 4702SOL    MW418576   4.886   3.296   0.150  0.2677 -0.0526 -0.6571
 4703SOL     OW18577   0.121   0.819   2.462  0.4222 -0.5186 -0.5791
 4703SOL    HW218578   0.196   0.769   2.495  0.5752  0.5930  0.8294
 4703SOL    HW318579   0.080   0.761   2.398  1.5891 -1.7532 -0.2498
 4703SOL    MW418580   0.126   0.805   2.458  0.6340 -0.0764  0.2356
 4704SOL     OW18581   5.311   3.976   4.491 -0.0974 -0.3086 -0.1785
 4704SOL    HW218582   5.262   3.931   4.560 -1.8093 -0.9557 -1.7319
 4704SOL    HW318583   5.262   3.957   4.410  1.1720  1.3720 -1.4185
 4704SOL    MW418584   5.298   3.967   4.489  0.5578 -0.4630 -0.1447
 4705SOL     OW18585   5.834   3.030   1.918  0.0106 -0.2458 -0.3220
 4705SOL    HW218586   5.739   3.016   1.914  0.1246 -0.7022 -1.6113
 4705SOL    HW318587   5.844   3.125   1.927 -0.6009 -0.3440  2.2231
 4705SOL    MW418588   5.823   3.041   1.919 -1.0302  0.2647 -0.0496
 4706SOL     OW18589   3.640   5.695   2.900 -0.1729 -0.8082 -0.2825
 4706SOL    HW218590   3.675   5.610   2.927  2.1325 -0.0011 -0.5008
 4706SOL    HW318591   3.578   5.674   2.830 -0.4714 -2.3597  0.3935
 4706SOL    MW418592   3.637   5.681   2.894  0.0159 -0.0042  0.0589
 4707SOL     OW18593   5.223   4.184   4.134 -0.3418  0.2367 -0.2272
 4707SOL    HW218594   5.249   4.260   4.187  1.0737 -0.3588 -0.0295
 4707SOL    HW318595   5.132   4.167   4.160  0.0562  0.4431  1.4543
 4707SOL    MW418596   5.214   4.192   4.145 -0.0376  0.5148  0.2425
 4708SOL     OW18597   1.789   1.546   1.668 -0.2706  0.0122  0.3191
 4708SOL    HW218598   1.845   1.497   1.608  1.4278  1.3972  0.7083
 4708SOL    HW318599   1.788   1.492   1.748  0.0150 -0.3135  0.1075
 4708SOL    MW418600   1.796   1.532   1.671  0.3094  0.2399  0.4438
 4709SOL     OW18601   3.342   1.572   5.638  0.5572 -0.3554 -0.7138
 4709SOL    HW218602   3.324   1.662   5.609 -0.9081  0.1098  1.3888
 4709SOL    HW318603   3.426   1.579   5.684  0.4421 -0.0430 -0.5433
 4709SOL    MW418604   3.351   1.585   5.640 -0.2720  0.0655 -0.4880
 4710SOL     OW18605   3.032   5.364   3.182 -0.2604  0.0999  0.0969
 4710SOL    HW218606   3.046   5.456   3.203 -0.2214  0.0848  0.1371
 4710SOL    HW318607   3.117   5.332   3.151 -0.2119  0.0163  0.3124
 4710SOL    MW418608   3.045   5.372   3.181 -0.3337  0.2152  0.2002
 4711SOL     OW18609   0.504   3.517   4.047 -0.4570  0.1669  0.0364
 4711SOL    HW218610   0.579   3.471   4.083  0.8049  0.8758 -1.5259
 4711SOL    HW318611   0.508   3.499   3.953 -1.9957  0.5863 -0.1331
 4711SOL    MW418612   0.515   3.509   4.039 -0.0685 -0.1012  0.1997
 4712SOL     OW18613   6.170   3.649   0.836  0.4335  1.1939  0.2861
 4712SOL    HW218614   6.158   3.593   0.913 -0.4525  0.2976 -0.4748
 4712SOL    HW318615   6.263   3.641   0.815  0.2442 -0.4201 -0.0892
 4712SOL    MW418616   6.181   3.640   0.844  0.0128 -0.0025  0.1924
 4713SOL     OW18617   3.328   2.586   0.075 -0.4557  0.4456 -0.0715
 4713SOL    HW218618   3.268   2.659   0.091 -1.4875 -0.7531  1.7600
 4713SOL    HW318619   3.375   2.575   0.157  1.4349  0.5388 -1.0754
 4713SOL    MW418620   3.327   2.594   0.088 -0.0404 -0.3655 -0.8042
 4714SOL     OW18621   0.458   0.417   2.323  0.3744 -0.1172 -0.0199
 4714SOL    HW218622   0.417   0.400   2.239  1.7415 -1.5979 -0.4296
 4714SOL    HW318623   0.528   0.480   2.303  1.5257 -1.4322 -0.2622
 4714SOL    MW418624   0.462   0.423   2.310  0.1931  0.9054 -0.1983
 4715SOL     OW18625   5.584   3.079   5.300 -0.0486  0.4085  0.6528
 4715SOL    HW218626   5.596   3.120   5.214  2.0686  0.3723  0.8819
 4715SOL    HW318627   5.577   2.986   5.282  0.2810  0.4126  0.4941
 4715SOL    MW418628   5.585   3.072   5.287 -0.4732  0.2402 -0.1930
 4716SOL     OW18629   4.765   0.413   0.811  0.4325 -0.1852  0.0021
 4716SOL    HW218630   4.677   0.391   0.783  0.8020 -0.0617 -1.3034
 4716SOL    HW318631   4.815   0.331   0.799  0.6111 -0.1147  0.2533
 4716SOL    MW418632   4.760   0.399   0.806  0.3761  0.1442  0.1565
 4717SOL     OW18633   0.547   5.374   5.810 -0.1852  0.2077 -0.5603
 4717SOL    HW218634   0.459   5.337   5.814  0.2381 -0.9509 -1.3683
 4717SOL    HW318635   0.606   5.299   5.818  0.7196  0.8382 -1.0124
 4717SOL    MW418636   0.544   5.360   5.812  0.6246 -0.4898  0.2380
 4718SOL     OW18637   2.685   0.229   4.999  0.5366 -0.1454 -0.1978
 4718SOL    HW218638   2.755   0.284   5.034  0.7733 -0.9736  0.6723
 4718SOL    HW318639   2.605   0.277   5.017  0.8312  0.5763 -0.7468
 4718SOL    MW418640   2.684   0.243   5.006  0.4499  0.1868  0.3647
 4719SOL     OW18641   4.323   0.673   5.058 -0.3175 -0.3266 -0.2198
 4719SOL    HW218642   4.279   0.691   4.975  1.1205 -0.9601 -1.1560
 4719SOL    HW318643   4.395   0.735   5.061 -0.4981 -0.1412  0.6985
 4719SOL    MW418644   4.326   0.684   5.047  0.1455  0.4125  0.2380
 4720SOL     OW18645   4.064   2.992   1.881 -0.1662  0.2442  0.2713
 4720SOL    HW218646   3.997   3.032   1.936 -0.7925 -1.4519  0.8104
 4720SOL    HW318647   4.096   3.063   1.826 -0.4489  1.7028  1.9121
 4720SOL    MW418648   4.059   3.007   1.881 -0.1409  0.0443  0.1575
 4721SOL     OW18649   2.837   1.500   2.173  0.0837 -0.1690 -0.6105
 4721SOL    HW218650   2.774   1.482   2.242 -0.5029 -0.7850 -1.2969
 4721SOL    HW318651   2.921   1.507   2.219 -0.7335  3.0426  0.6477
 4721SOL    MW418652   2.840   1.499   2.188  0.3918  0.3416  0.1879
 4722SOL     OW18653   6.158   1.928   5.388 -0.3272 -0.6082 -0.2855
 4722SOL    HW218654   6.193   1.962   5.306 -1.3437 -0.0146 -0.4960
 4722SOL    HW318655   6.223   1.951   5.454 -0.3448  0.5426 -0.6511
 4722SOL    MW418656   6.171   1.936   5.386  0.0332 -0.1601 -0.2750
 4723SOL     OW18657   1.124   0.453   1.213  0.9445  0.2226 -0.2242
 4723SOL    HW218658   1.054   0.411   1.262  0.7307  0.4285 -0.3550
 4723SOL    HW318659   1.083   0.484   1.133  1.0421  0.9080 -0.0162
 4723SOL    MW418660   1.110   0.451   1.209  0.0744  0.0907  0.0667
 4724SOL     OW18661   4.841   2.974   0.828 -0.5925  0.0518 -0.2073
 4724SOL    HW218662   4.918   2.919   0.813 -0.4376  0.2958 -0.2983
 4724SOL    HW318663   4.826   3.018   0.745  1.2474  2.6704  0.7406
 4724SOL    MW418664   4.849   2.972   0.815  0.1194  0.0246 -0.8078
 4725SOL     OW18665   4.456   4.819   4.924  0.1640 -0.0094  0.4599
 4725SOL    HW218666   4.529   4.881   4.922  0.8795 -0.8196  1.0081
 4725SOL    HW318667   4.478   4.755   4.856 -0.8076  0.5715 -0.4368
 4725SOL    MW418668   4.469   4.819   4.914  0.0800 -0.4233  0.0040
 4726SOL     OW18669   0.547   3.899   2.992  0.3738 -0.6555  0.1703
 4726SOL    HW218670   0.612   3.843   2.951  0.6390 -0.2680  0.0575
 4726SOL    HW318671   0.465   3.876   2.948  0.5298 -0.7576 -0.0677
 4726SOL    MW418672   0.545   3.889   2.981  0.1576  0.1318  0.5429
 4727SOL     OW18673   4.001   1.496   4.537 -0.2368 -0.3390 -0.5242
 4727SOL    HW218674   4.047   1.577   4.515 -0.1373 -0.6700 -1.5530
 4727SOL    HW318675   4.070   1.431   4.547 -0.2384 -0.1249  1.2095
 4727SOL    MW418676   4.016   1.498   4.536 -0.1987 -0.2162 -0.0077
 4728SOL     OW18677   3.715   2.007   3.742  0.6358 -0.7706  0.0663
 4728SOL    HW218678   3.627   2.039   3.761  1.1259  0.8992 -0.2912
 4728SOL    HW318679   3.702   1.939   3.676 -0.4187 -0.8799  0.3684
 4728SOL    MW418680   3.702   2.002   3.736  0.3285  0.1081 -0.8081
 4729SOL     OW18681   0.246   5.200   1.363 -0.6265 -0.2924  0.1186
 4729SOL    HW218682   0.243   5.281   1.415  3.4471  0.2238 -0.0677
 4729SOL    HW318683   0.188   5.216   1.289 -0.2645  2.3660  0.3066
 4729SOL    MW418684   0.238   5.213   1.360 -0.2555  0.4287  0.3928
 4730SOL     OW18685   1.768   4.747   5.662  0.1147  0.2086  0.8221
 4730SOL    HW218686   1.716   4.666   5.662 -0.4572  0.5474  2.1783
 4730SOL    HW318687   1.709   4.813   5.697  0.9237  0.9847  0.7493
 4730SOL    MW418688   1.753   4.745   5.667 -0.4550  0.2262  0.0687
 4731SOL     OW18689   2.870   0.795   3.103 -0.2381 -0.1221  0.4421
 4731SOL    HW218690   2.940   0.839   3.056 -0.1197  0.0254  0.7535
 4731SOL    HW318691   2.915   0.736   3.164 -0.3761 -1.8519 -1.0212
 4731SOL    MW418692   2.885   0.793   3.105 -0.5741  0.0087 -0.1719
 4732SOL     OW18693   5.927   0.796   6.021  0.1485 -0.5011 -0.3131
 4732SOL    HW218694   5.851   0.806   6.077  0.5120  1.1649 -0.0582
 4732SOL    HW318695   5.899   0.831   5.936  0.1565 -1.3469 -0.6750
 4732SOL    MW418696   5.914   0.802   6.017  0.0025  0.5140  0.4638
 4733SOL     OW18697   2.816   1.422   3.506 -0.5077  0.2175 -0.1327
 4733SOL    HW218698   2.815   1.356   3.437 -1.7085  1.1939 -1.0921
 4733SOL    HW318699   2.725   1.450   3.514 -0.8618 -1.4460  3.4569
 4733SOL    MW418700   2.804   1.417   3.498  0.0502  0.0413 -0.4093
 4734SOL     OW18701   4.876   3.683   5.141 -0.2633  0.4558 -0.5916
 4734SOL    HW218702   4.868   3.774   5.170  0.4690  1.5557 -3.5481
 4734SOL    HW318703   4.813   3.675   5.069  0.6826 -0.9644 -1.3000
 4734SOL    MW418704   4.866   3.694   5.136  0.1305 -0.7343 -0.2554
 4735SOL     OW18705   2.813   4.300   2.694 -0.3619 -0.3145  0.1621
 4735SOL    HW218706   2.787   4.311   2.786 -1.1714 -1.1898  0.0542
 4735SOL    HW318707   2.731   4.307   2.645  0.0368 -0.0687 -0.4765
 4735SOL    MW418708   2.798   4.302   2.700 -0.0093 -0.5939 -0.7203
 4736SOL     OW18709   1.462   3.454   5.228 -0.0664  0.3383 -0.2208
 4736SOL    HW218710   1.381   3.495   5.260 -0.1404  1.3261 -1.6167
 4736SOL    HW318711   1.529   3.521   5.240  0.3071 -0.0225 -0.2717
 4736SOL    MW418712   1.460   3.468   5.234  0.3769 -0.0664  0.4425
 4737SOL     OW18713   1.000   1.743   1.788 -0.5007 -0.1734  0.1317
 4737SOL    HW218714   0.905   1.749   1.779 -0.4842  1.0822  0.6271
 4737SOL    HW318715   1.020   1.653   1.764 -1.8209 -0.4743  0.0607
 4737SOL    MW418716   0.990   1.732   1.784  0.0848 -0.2797  0.1600
 4738SOL     OW18717   5.557   0.750   0.036  0.5120 -0.0736  0.0407
 4738SOL    HW218718   5.515   0.775   0.118  0.6023 -1.7320  0.6276
 4738SOL    HW318719   5.492   0.696  -0.009 -0.0101  1.7598 -1.5970
 4738SOL    MW418720   5.543   0.746   0.041  0.3271 -0.0876  0.0970
 4739SOL     OW18721   1.948   4.283   5.665 -0.4237 -0.2635 -0.2879
 4739SOL    HW218722   1.865   4.298   5.621  0.2852 -1.4197 -2.1561
 4739SOL    HW318723   1.930   4.214   5.728 -1.5197  1.6127  1.5811
 4739SOL    MW418724   1.935   4.276   5.667  0.1959 -0.3640 -0.0842
 4740SOL     OW18725   4.300   4.953   1.578  0.5441 -0.1243  0.2306
 4740SOL    HW218726   4.312   4.968   1.671 -2.2218  0.0542  0.6450
 4740SOL    HW318727   4.380   4.986   1.537  0.7584  2.1526  2.3155
 4740SOL    MW418728   4.312   4.959   1.585  0.1882 -0.2950 -0.0788
 4741SOL     OW18729   4.589   0.703   1.610 -0.5060 -0.0296  0.1462
 4741SOL    HW218730   4.546   0.638   1.554 -0.5978  0.2804 -0.1471
 4741SOL    HW318731   4.669   0.726   1.564  0.0220 -0.6526  0.7233
 4741SOL    MW418732   4.594   0.698   1.597 -0.1389 -0.0610 -0.5299
 4742SOL     OW18733   2.015   2.714   4.476  0.3804 -0.4086 -0.0481
 4742SOL    HW218734   1.945   2.657   4.508 -0.2297 -0.0900 -0.7843
 4742SOL    HW318735   1.995   2.727   4.384  0.7457  0.6514  0.0032
 4742SOL    MW418736   2.003   2.708   4.468 -0.6920 -0.4500 -0.0460
 4743SOL     OW18737   3.598   1.134   3.466  0.1388  0.2165  0.0732
 4743SOL    HW218738   3.542   1.150   3.542  1.1202 -1.6107  1.2706
 4743SOL    HW318739   3.541   1.089   3.403 -0.3147  0.4311  0.3295
 4743SOL    MW418740   3.583   1.130   3.467 -0.2176  0.2812 -0.4798
 4744SOL     OW18741   4.545   5.631   1.049  0.2590  0.4893  0.2308
 4744SOL    HW218742   4.503   5.694   0.990 -1.0814 -0.7112 -0.1550
 4744SOL    HW318743   4.639   5.650   1.041  0.1531  0.3101 -2.4358
 4744SOL    MW418744   4.552   5.642   1.040 -0.1112  0.2374  0.4567
 4745SOL     OW18745   3.487   5.884   3.434 -0.0698  0.0336  0.3348
 4745SOL    HW218746   3.572   5.839   3.434 -0.7242 -1.2810 -1.2442
 4745SOL    HW318747   3.433   5.832   3.495  0.3379  1.1331  1.6958
 4745SOL    MW418748   3.491   5.871   3.442 -0.3046 -0.1870  0.1019
 4746SOL     OW18749   3.872   6.052   5.067  0.1354 -0.0080 -0.4510
 4746SOL    HW218750   3.937   6.038   5.136  1.8560  0.0956 -1.9644
 4746SOL    HW318751   3.888   6.142   5.038 -2.1153  0.7687  0.5140
 4746SOL    MW418752   3.883   6.062   5.072 -0.2643 -0.1077 -0.5250
 4747SOL     OW18753   4.006   1.227   6.198 -0.3606 -0.2762 -0.3821
 4747SOL    HW218754   3.984   1.233   6.105  0.6596  0.8530 -0.5767
 4747SOL    HW318755   4.101   1.218   6.200  0.1706  3.7018  0.5753
 4747SOL    MW418756   4.015   1.227   6.186  0.5487 -0.0095  0.2264
 4748SOL     OW18757   0.273   2.150   0.694  0.0399 -0.5674  0.2226
 4748SOL    HW218758   0.328   2.114   0.624  0.0735 -0.1642  0.0385
 4748SOL    HW318759   0.205   2.199   0.648 -0.2696 -0.7723  0.4588
 4748SOL    MW418760   0.271   2.152   0.678  0.0623  0.4119 -0.1475
 4749SOL     OW18761   0.389   3.545   2.655  0.5013  0.2028 -0.0707
 4749SOL    HW218762   0.435   3.500   2.583 -0.5867 -0.0801 -0.6099
 4749SOL    HW318763   0.320   3.596   2.611  1.1360  1.7023  0.6108
 4749SOL    MW418764   0.386   3.546   2.640  0.2778 -0.1200 -0.0701
 4750SOL     OW18765   3.804   6.375   0.120  0.0629  0.1995  0.6382
 4750SOL    HW218766   3.750   6.330   0.056 -0.0725  1.0832  0.1095
 4750SOL    HW318767   3.846   6.305   0.170 -0.6192 -0.4989  0.2552
 4750SOL    MW418768   3.802   6.360   0.118 -0.5996 -0.4762  0.2676
 4751SOL     OW18769   4.344   0.813   0.915 -0.3686  0.2878 -0.2271
 4751SOL    HW218770   4.297   0.834   0.996  0.2106 -1.8427  0.7244
 4751SOL    HW318771   4.275   0.787   0.854 -0.6370 -0.9968  0.5690
 4751SOL    MW418772   4.328   0.812   0.918 -0.0172 -0.2463 -0.2593
 4752SOL     OW18773   2.522   2.591   2.297  0.1352  0.2283 -0.1238
 4752SOL    HW218774   2.560   2.504   2.310  1.2791  0.9120  1.5616
 4752SOL    HW318775   2.530   2.608   2.203  2.1586 -0.5262 -0.1346
 4752SOL    MW418776   2.528   2.582   2.286 -0.2139 -0.2063 -0.4559
 4753SOL     OW18777   3.755   3.639   1.041  0.0742  0.4584  0.0639
 4753SOL    HW218778   3.659   3.647   1.040 -0.0333 -0.5838  0.5529
 4753SOL    HW318779   3.784   3.707   1.102 -0.3794  0.5978  0.1301
 4753SOL    MW418780   3.746   3.649   1.049  0.0870 -0.0821  0.1218
 4754SOL     OW18781   4.221   1.301   4.339 -0.1702 -0.3905 -0.2717
 4754SOL    HW218782   4.138   1.310   4.293 -0.2360 -2.6975 -0.7018
 4754SOL    HW318783   4.198   1.266   4.425  0.0436  2.9753  1.3193
 4754SOL    MW418784   4.207   1.297   4.344  1.2000  0.2184 -0.4362
 4755SOL     OW18785   4.830   5.356   0.445 -0.2963 -0.8065  0.1043
 4755SOL    HW218786   4.770   5.430   0.451  1.1460  0.6040 -1.7085
 4755SOL    HW318787   4.784   5.292   0.390  0.2813  0.8396 -2.4638
 4755SOL    MW418788   4.816   5.357   0.438  0.8439 -1.1246 -0.1798
 4756SOL     OW18789   2.912   2.955   6.241  0.5795  0.2132 -0.5063
 4756SOL    HW218790   2.974   2.936   6.171 -0.4660  0.0120 -1.4220
 4756SOL    HW318791   2.917   2.880   6.300  1.6302  0.4874 -0.2297
 4756SOL    MW418792   2.921   2.942   6.240  0.3749 -0.1643 -0.1896
 4757SOL     OW18793   5.371   5.437   3.200  0.6441  0.1898 -0.6336
 4757SOL    HW218794   5.358   5.496   3.126  0.3830  1.8349  0.6816
 4757SOL    HW318795   5.283   5.415   3.229  0.7492 -0.0358 -0.4811
 4757SOL    MW418796   5.358   5.442   3.194 -0.3202  0.3097 -0.1311
 4758SOL     OW18797   2.849   3.344   0.538  0.2127 -0.1286  0.0688
 4758SOL    HW218798   2.798   3.363   0.460  0.0870  0.0109  0.1858
 4758SOL    HW318799   2.799   3.277   0.584 -1.1597  1.7519  1.4580
 4758SOL    MW418800   2.836   3.337   0.534 -0.0946 -0.4415  0.1145
 4759SOL     OW18801   6.046   0.637   3.647 -0.8256 -0.2658 -0.5293
 4759SOL    HW218802   6.077   0.569   3.707  0.9968  0.7602 -0.2136
 4759SOL    HW318803   6.063   0.602   3.560 -1.2024 -0.7758 -0.3998
 4759SOL    MW418804   6.052   0.623   3.644  0.2774  0.5963 -0.1351
 4760SOL     OW18805   4.260   3.523   1.458  0.4842  0.1450  0.0058
 4760SOL    HW218806   4.216   3.579   1.523  0.1522 -1.0842  0.8670
 4760SOL    HW318807   4.227   3.435   1.475  1.0788 -0.3510 -1.2587
 4760SOL    MW418808   4.250   3.519   1.469 -0.4695  0.6334 -0.1833
 4761SOL     OW18809   0.943   0.377   4.273  0.7552 -0.2275 -0.2290
 4761SOL    HW218810   1.035   0.374   4.247  1.2041  1.0181  1.0984
 4761SOL    HW318811   0.912   0.287   4.261  2.2516 -0.7538 -0.3353
 4761SOL    MW418812   0.951   0.364   4.268  0.1859 -0.3572  0.1564
 4762SOL     OW18813   1.564   0.130   1.028 -0.8773 -0.5949 -0.0894
 4762SOL    HW218814   1.633   0.064   1.027  2.2823  2.4328 -0.0400
 4762SOL    HW318815   1.534   0.132   1.119  0.0664 -0.8983  0.2391
 4762SOL    MW418816   1.569   0.121   1.040  0.1660 -0.1110  0.5859
 4763SOL     OW18817   1.185   0.283   0.531  0.4948  0.2361  0.2805
 4763SOL    HW218818   1.268   0.264   0.488  1.3409  0.0794  1.8915
 4763SOL    HW318819   1.191   0.238   0.615 -1.0753  0.5441  0.5831
 4763SOL    MW418820   1.197   0.275   0.537  0.1998 -0.0091 -0.0821
 4764SOL     OW18821   4.644   0.174   0.167 -0.2042  0.1990 -0.2025
 4764SOL    HW218822   4.656   0.229   0.244 -0.2036  0.0808 -0.1166
 4764SOL    HW318823   4.564   0.207   0.125  0.8015  1.4595 -1.1822
 4764SOL    MW418824   4.635   0.186   0.171  0.1079  0.2977  0.7598
 4765SOL     OW18825   1.357   3.721   0.892 -0.2958 -0.3926  0.0558
 4765SOL    HW218826   1.337   3.628   0.883 -0.9857 -0.2197 -0.2676
 4765SOL    HW318827   1.423   3.725   0.961 -1.5729 -0.9652  1.3589
 4765SOL    MW418828   1.363   3.709   0.900  0.7775 -0.0487 -0.4204
 4766SOL     OW18829   3.208   0.159   4.049 -0.0456 -0.8990  0.4456
 4766SOL    HW218830   3.256   0.091   4.002 -1.0668 -1.2224 -0.1641
 4766SOL    HW318831   3.127   0.169   4.000 -0.1921  0.3179  0.8978
 4766SOL    MW418832   3.204   0.151   4.037 -0.1099  0.2472  0.2519
 4767SOL     OW18833   3.704   2.680   2.793 -0.5427  0.1112 -0.3240
 4767SOL    HW218834   3.798   2.662   2.785 -0.4253  0.5074  0.0909
 4767SOL    HW318835   3.662   2.595   2.781 -0.1361 -0.0656 -0.5453
 4767SOL    MW418836   3.711   2.667   2.790 -0.2282 -0.3319 -0.9129
 4768SOL     OW18837   3.678   2.935   2.145  0.2059  0.5145 -0.0777
 4768SOL    HW218838   3.713   2.970   2.063  1.0283  0.0462  0.0545
 4768SOL    HW318839   3.721   2.849   2.154  1.4324  1.2427  1.6484
 4768SOL    MW418840   3.689   2.928   2.135  0.3108  0.1249  0.0336
 4769SOL     OW18841   6.028   4.437   2.711 -0.7022  0.5504 -0.1462
 4769SOL    HW218842   5.963   4.482   2.658 -0.8092  1.4800  0.7490
 4769SOL    HW318843   6.011   4.466   2.801  0.0794 -0.2479  0.2819
 4769SOL    MW418844   6.018   4.447   2.716 -0.1371  0.4838 -0.0248
 4770SOL     OW18845   3.082   5.478   5.083 -0.2541 -0.0497  0.0631
 4770SOL    HW218846   3.063   5.557   5.134  2.9574 -0.2137  1.8182
 4770SOL    HW318847   3.122   5.418   5.146  0.1504 -1.8992 -1.8434
 4770SOL    MW418848   3.085   5.481   5.098 -0.6089  0.3531 -0.1493
 4771SOL     OW18849   2.707   1.787   3.051 -0.3463  0.2084 -0.2742
 4771SOL    HW218850   2.772   1.725   3.017 -0.5507 -2.3717  3.4207
 4771SOL    HW318851   2.640   1.792   2.982  1.2194 -1.2152 -2.0034
 4771SOL    MW418852   2.707   1.779   3.037  0.5470 -0.3008  0.1651
 4772SOL     OW18853   4.947   4.106   4.218  0.1623  0.3283  0.0038
 4772SOL    HW218854   4.914   4.189   4.250  0.8404  1.0596 -1.1241
 4772SOL    HW318855   4.912   4.098   4.130  1.8443  0.5067 -0.7335
 4772SOL    MW418856   4.938   4.116   4.211 -0.1971  0.6955  0.2883
 4773SOL     OW18857   2.245   5.631   2.230 -0.1261  0.1610  0.5021
 4773SOL    HW218858   2.218   5.544   2.258 -2.2515  0.1507 -1.2879
 4773SOL    HW318859   2.171   5.664   2.179  1.4076  2.2085 -0.5635
 4773SOL    MW418860   2.232   5.624   2.227 -0.2321 -0.2867  0.2756
 4774SOL     OW18861   2.832   3.786   5.913  0.8819 -0.0491 -0.2621
 4774SOL    HW218862   2.823   3.756   6.004  1.8068  0.7429  0.1174
 4774SOL    HW318863   2.901   3.731   5.876  0.9029 -0.0017 -0.2944
 4774SOL    MW418864   2.840   3.775   5.920 -0.1173  0.3278 -0.7006
 4775SOL     OW18865   5.873   1.374   2.000 -0.6928  0.2601  0.0741
 4775SOL    HW218866   5.903   1.311   1.933 -0.2419  0.0656  0.4519
 4775SOL    HW318867   5.800   1.420   1.958  0.4966  1.1675 -1.1178
 4775SOL    MW418868   5.867   1.371   1.985 -0.4632  0.0043 -0.6899
 4776SOL     OW18869   3.105   3.784   0.120 -0.0321  0.2728  0.9641
 4776SOL    HW218870   3.053   3.815   0.045 -0.0689  1.1076  1.3243
 4776SOL    HW318871   3.042   3.734   0.173  0.0953 -0.6790  0.2334
 4776SOL    MW418872   3.090   3.781   0.117  0.7755  0.3430 -0.7596
 4777SOL     OW18873   6.354   6.113   0.726  0.2928  0.7873  0.1227
 4777SOL    HW218874   6.267   6.090   0.759  0.4179  1.6953  1.1351
 4777SOL    HW318875   6.410   6.113   0.804  1.1427  0.5275 -0.4711
 4777SOL    MW418876   6.350   6.110   0.740 -0.6192 -0.2949  0.3482
 4778SOL     OW18877   0.490   4.525   5.304  0.2529 -0.5681  0.3036
 4778SOL    HW218878   0.448   4.509   5.389 -0.0716 -1.0439  0.0564
 4778SOL    HW318879   0.491   4.440   5.261 -0.4763 -0.1590 -0.5747
 4778SOL    MW418880   0.484   4.512   5.310 -0.0598  0.4402 -0.7990
 4779SOL     OW18881   1.399   0.412   1.587 -0.2196 -0.3210 -0.9928
 4779SOL    HW218882   1.315   0.373   1.615 -1.0213  1.3762 -0.9373
 4779SOL    HW318883   1.465   0.362   1.636 -1.1882 -1.6071 -0.9304
 4779SOL    MW418884   1.396   0.400   1.597 -0.1694 -0.1960  0.6045
 4780SOL     OW18885   3.675   0.185   5.129  0.9863 -0.0204 -0.6024
 4780SOL    HW218886   3.619   0.116   5.165  1.3122  0.1158  0.1854
 4780SOL    HW318887   3.617   0.237   5.073 -0.1557  1.2384  1.6254
 4780SOL    MW418888   3.660   0.183   5.126  0.1490  0.3988 -0.4086
 4781SOL     OW18889   1.730   6.173   1.668 -0.2756 -0.0746  0.3725
 4781SOL    HW218890   1.651   6.227   1.669  0.6144  1.3452 -1.2195
 4781SOL    HW318891   1.708   6.101   1.610 -0.2034  0.6821 -0.6184
 4781SOL    MW418892   1.716   6.171   1.661 -0.0047 -0.2703 -0.4807
 4782SOL     OW18893   1.656   5.126   2.253 -0.0255  0.5170 -1.0146
 4782SOL    HW218894   1.709   5.054   2.289 -1.5973  0.0952  0.5906
 4782SOL    HW318895   1.597   5.083   2.192 -0.4248  0.5557 -0.6583
 4782SOL    MW418896   1.655   5.110   2.250  0.5950  0.4111  0.4647
 4783SOL     OW18897   3.003   3.312   3.163  0.6251  0.3150  0.0525
 4783SOL    HW218898   2.949   3.332   3.087  2.0820 -0.8594 -1.3639
 4783SOL    HW318899   3.055   3.391   3.177 -0.9705  1.2480  1.0889
 4783SOL    MW418900   3.003   3.325   3.155 -0.1000 -0.2192  0.0743
 4784SOL     OW18901   0.535   3.597   4.628  0.0248  0.3022  0.0379
 4784SOL    HW218902   0.537   3.504   4.608  2.0218  0.2570  0.1677
 4784SOL    HW318903   0.454   3.629   4.589 -0.6195 -1.4428 -0.1448
 4784SOL    MW418904   0.525   3.589   4.621 -0.2139 -0.0339  0.4168
 4785SOL     OW18905   1.933   1.738   1.832  0.3680  0.3127  0.1805
 4785SOL    HW218906   1.862   1.710   1.774 -1.2423  0.1639  2.1071
 4785SOL    HW318907   1.983   1.801   1.780 -1.7634  1.1665 -0.9509
 4785SOL    MW418908   1.930   1.743   1.817 -0.4729  1.0830 -0.7070
 4786SOL     OW18909   4.057   2.183   3.234 -0.6298  0.0524  0.2961
 4786SOL    HW218910   3.973   2.143   3.210 -0.9810  0.7000  0.4265
 4786SOL    HW318911   4.034   2.273   3.260  0.4274  1.3673 -2.7912
 4786SOL    MW418912   4.043   2.190   3.234  0.0243  0.0722  0.4077
 4787SOL     OW18913   6.239   0.774   5.620 -0.4565  0.5746  0.3065
 4787SOL    HW218914   6.280   0.774   5.533  0.2965 -0.5001  0.6382
 4787SOL    HW318915   6.264   0.690   5.658 -0.4000  1.2040  1.7355
 4787SOL    MW418916   6.248   0.763   5.614  0.0617  0.1072  0.3233
 4788SOL     OW18917   2.103   5.684   4.473  0.1384 -0.0445  0.0153
 4788SOL    HW218918   2.069   5.756   4.420  0.8278  0.4167  0.1769
 4788SOL    HW318919   2.103   5.719   4.563  0.2183 -0.3446  0.1321
 4788SOL    MW418920   2.099   5.698   4.478  0.2392  0.4112  0.3415
 4789SOL     OW18921   1.243   5.667   4.667 -0.3259  0.6402 -0.7157
 4789SOL    HW218922   1.282   5.676   4.580 -0.4338 -0.4440 -0.8955
 4789SOL    HW318923   1.153   5.640   4.650  0.0226 -0.9178 -0.2852
 4789SOL    MW418924   1.236   5.665   4.653 -0.1703  0.3707 -0.2980
 4790SOL     OW18925   1.359   4.371   3.619 -0.0994 -0.1601  0.5943
 4790SOL    HW218926   1.378   4.348   3.528  0.2490 -1.5777  1.0007
 4790SOL    HW318927   1.336   4.287   3.660 -1.1596  0.5985  1.5938
 4790SOL    MW418928   1.359   4.357   3.612  0.3191  0.2314 -0.0645
 4791SOL     OW18929   3.328   0.842   4.296  0.2148  0.0243  0.0262
 4791SOL    HW218930   3.303   0.860   4.387 -0.5946  1.4250 -0.4558
 4791SOL    HW318931   3.371   0.922   4.267 -1.9317  0.6316 -1.6565
 4791SOL    MW418932   3.330   0.855   4.304  0.2683  0.0728  0.0030
 4792SOL     OW18933   3.374   1.849   5.543  0.0933  0.2617  0.6563
 4792SOL    HW218934   3.292   1.894   5.525 -0.2342 -0.0444  1.3364
 4792SOL    HW318935   3.433   1.917   5.574  0.4332  0.6651 -0.7932
 4792SOL    MW418936   3.371   1.864   5.544  0.2723 -0.1072  0.0789
 4793SOL     OW18937   4.403   5.330   2.606  0.0205 -0.2139 -0.0293
 4793SOL    HW218938   4.392   5.321   2.700 -1.0857 -1.6200 -0.2608
 4793SOL    HW318939   4.388   5.242   2.572 -1.1674  0.5778 -1.6622
 4793SOL    MW418940   4.400   5.317   2.614  0.3373 -0.0633  0.4780
 4794SOL     OW18941   0.379   2.752   3.741  0.4631  0.0686  0.1272
 4794SOL    HW218942   0.327   2.809   3.684  2.9137  0.9945 -1.3603
 4794SOL    HW318943   0.373   2.666   3.699  0.3521  0.2299 -0.1971
 4794SOL    MW418944   0.371   2.748   3.728  0.0264 -0.0288  0.1550
 4795SOL     OW18945   1.829   1.061   3.842  0.1940 -0.0797  0.0377
 4795SOL    HW218946   1.806   1.044   3.751  1.0853 -0.1396 -0.1787
 4795SOL    HW318947   1.922   1.084   3.840  0.0532  0.5998  0.8476
 4795SOL    MW418948   1.838   1.062   3.830  0.1328  0.1919 -0.0566
 4796SOL     OW18949   3.142   2.516   2.871  0.0777 -0.1675  0.1657
 4796SOL    HW218950   3.096   2.599   2.880 -0.5173 -0.6109  1.5847
 4796SOL    HW318951   3.172   2.514   2.780  0.1325  1.5960  0.1103
 4796SOL    MW418952   3.140   2.526   2.860  0.1531 -0.4119 -0.6281
 4797SOL     OW18953   2.824   6.061   0.217  0.1667  0.2289  0.2169
 4797SOL    HW218954   2.751   6.007   0.185 -0.1765  1.6240 -1.4768
 4797SOL    HW318955   2.788   6.106   0.294 -0.7877  0.8881 -0.5861
 4797SOL    MW418956   2.809   6.060   0.223 -0.6597 -0.7387 -0.4709
 4798SOL     OW18957   0.641   2.473   5.261  0.0262 -0.2177  0.0650
 4798SOL    HW218958   0.658   2.496   5.353 -3.1998 -0.2943  0.8234
 4798SOL    HW318959   0.717   2.505   5.213  1.1339  1.1873  2.5775
 4798SOL    MW418960   0.653   2.480   5.267  0.4008 -0.3372  0.1801
 4799SOL     OW18961   5.807   2.127   2.125 -0.2832 -0.0252 -0.0846
 4799SOL    HW218962   5.714   2.131   2.148 -0.2791 -1.6423  0.3093
 4799SOL    HW318963   5.816   2.049   2.071  1.0086 -0.5355  0.8030
 4799SOL    MW418964   5.796   2.117   2.121 -0.2616 -0.3949  0.2544
 4800SOL     OW18965   0.945   4.573   2.577 -0.1327  0.3448  0.4535
 4800SOL    HW218966   0.926   4.487   2.614  1.3418  0.7540  2.3307
 4800SOL    HW318967   0.994   4.555   2.497 -1.4108 -0.5552 -0.1538
 4800SOL    MW418968   0.949   4.560   2.571  0.0335 -0.8796 -0.3744
 4801SOL     OW18969   0.737   1.336   3.895 -0.2646  0.3721  0.1251
 4801SOL    HW218970   0.814   1.392   3.891 -0.2798  0.3839 -0.0188
 4801SOL    HW318971   0.766   1.259   3.944 -0.7129  1.2335  1.8103
 4801SOL    MW418972   0.751   1.333   3.901 -0.2404  0.4524  0.2293
 4802SOL     OW18973   5.331   3.770   3.562  0.1300  0.2915  0.6332
 4802SOL    HW218974   5.422   3.800   3.562 -0.0683  1.1010 -1.6065
 4802SOL    HW318975   5.285   3.832   3.505 -1.7728 -0.2922  1.4464
 4802SOL    MW418976   5.337   3.782   3.555 -0.2217  0.2218 -0.1796
 4803SOL     OW18977   3.209   2.344   0.056 -0.4924  0.5411  0.2114
 4803SOL    HW218978   3.240   2.434   0.069 -1.1011  0.8611 -0.4535
 4803SOL    HW318979   3.264   2.291   0.113 -0.2984  1.3708  0.8200
 4803SOL    MW418980   3.220   2.349   0.065  0.3398  0.0473 -0.1234
 4804SOL     OW18981   2.058   2.599   5.523 -0.1121 -0.0024  0.1035
 4804SOL    HW218982   2.070   2.654   5.446  0.7384 -2.2677 -1.4659
 4804SOL    HW318983   2.078   2.511   5.494  0.4382 -0.9532  2.9769
 4804SOL    MW418984   2.062   2.595   5.509  0.2165 -0.0132 -0.8129
 4805SOL     OW18985   3.346   5.128   0.409 -0.0438 -0.6096 -0.0635
 4805SOL    HW218986   3.326   5.044   0.368 -0.4019 -1.4022  1.6286
 4805SOL    HW318987   3.262   5.175   0.409  0.0043 -0.5212 -0.4122
 4805SOL    MW418988   3.332   5.123   0.404 -0.0570 -0.0977 -0.7122
 4806SOL     OW18989   1.764   1.253   0.332 -0.0861  0.5695  0.3607
 4806SOL    HW218990   1.780   1.249   0.427  0.5914 -2.1971  0.2037
 4806SOL    HW318991   1.723   1.169   0.311 -0.4400  1.2149 -1.7945
 4806SOL    MW418992   1.760   1.241   0.342 -0.1642  0.4348 -0.6332
 4807SOL     OW18993   0.714   2.265   5.854 -0.3912  0.1258  0.1612
 4807SOL    HW218994   0.662   2.343   5.876  0.6143  0.9456 -0.2459
 4807SOL    HW318995   0.728   2.273   5.760  0.2372 -0.2207  0.2252
 4807SOL    MW418996   0.709   2.277   5.845  0.3862 -0.7791 -0.1561
 4808SOL     OW18997   2.294   4.526   1.892  0.3313  0.3830  0.1850
 4808SOL    HW218998   2.312   4.617   1.916 -0.5353  0.5523  0.2368
 4808SOL    HW318999   2.340   4.474   1.958  4.3727  0.6017 -2.1477
 4808SOL    MW419000   2.302   4.531   1.904 -0.1280 -0.2531  0.1622
 4809SOL     OW19001   1.303   2.313   5.029 -0.6811 -0.2179  0.2003
 4809SOL    HW219002   1.296   2.239   5.089 -2.0534 -0.7233 -0.5263
 4809SOL    HW319003   1.264   2.386   5.076 -0.7248 -0.3298  0.3396
 4809SOL    MW419004   1.297   2.313   5.043 -0.0544 -0.0713  0.8274
 4810SOL     OW19005   1.262   4.316   0.807 -0.2158  0.5935 -0.2331
 4810SOL    HW219006   1.243   4.406   0.782  0.4114  0.6750 -0.4183
 4810SOL    HW319007   1.300   4.323   0.895  0.6898  0.5890 -0.6224
 4810SOL    MW419008   1.265   4.329   0.816  0.4854 -0.4304  0.1487
 4811SOL     OW19009   3.394   6.090   6.374 -0.0559  0.2139 -0.6351
 4811SOL    HW219010   3.370   6.042   6.453  0.6417  1.9657  0.7140
 4811SOL    HW319011   3.408   6.022   6.308 -1.2461 -1.2732  0.5507
 4811SOL    MW419012   3.393   6.075   6.376  0.1532 -0.4446 -0.5093
 4812SOL     OW19013   2.338   1.470   1.032  0.1643  0.5448 -0.2207
 4812SOL    HW219014   2.400   1.399   1.044 -0.7550 -0.3514 -0.5885
 4812SOL    HW319015   2.310   1.463   0.941 -2.7465 -1.0849  0.6317
 4812SOL    MW419016   2.342   1.460   1.022 -0.6104 -0.2576  0.7269
 4813SOL     OW19017   1.502   6.422   4.326  0.4166 -0.2935  0.2130
 4813SOL    HW219018   1.512   6.383   4.239 -2.4608 -1.9525  0.5023
 4813SOL    HW319019   1.531   6.354   4.386 -1.5043 -0.8290  0.6120
 4813SOL    MW419020   1.507   6.408   4.322 -0.2290  0.5577  0.1254
 4814SOL     OW19021   4.083   1.559   5.205  0.1704  0.7370  0.0312
 4814SOL    HW219022   4.084   1.497   5.278 -0.4203 -0.0830 -0.6315
 4814SOL    HW319023   4.114   1.641   5.243  0.4127  0.1898  1.0705
 4814SOL    MW419024   4.087   1.562   5.220 -0.9026 -0.2345 -0.0234
 4815SOL     OW19025   1.812   1.835   6.107 -0.0805 -0.1784  0.4515
 4815SOL    HW219026   1.781   1.765   6.049  1.2693  0.5205 -1.1565
 4815SOL    HW319027   1.898   1.806   6.136 -0.2181  0.0692  1.1370
 4815SOL    MW419028   1.819   1.822   6.103  0.3675  0.4668 -0.4819
 4816SOL     OW19029   2.280   3.541   5.142  0.5960  0.2814  0.3542
 4816SOL    HW219030   2.304   3.491   5.064 -1.0210 -0.6350  0.3946
 4816SOL    HW319031   2.237   3.477   5.199 -0.4796  1.4617  0.9218
 4816SOL    MW419032   2.277   3.526   5.140 -0.0888 -0.2332 -0.1127
 4817SOL     OW19033   5.811   6.308   6.156  0.1733 -0.1280  0.2192
 4817SOL    HW219034   5.775   6.252   6.225 -0.3069  1.5508  1.4182
 4817SOL    HW319035   5.745   6.304   6.086 -0.2158 -0.4854  0.5964
 4817SOL    MW419036   5.797   6.300   6.156 -0.2700  0.4395 -0.4804
 4818SOL     OW19037   2.507   3.374   3.410 -0.1236 -0.1717  0.2222
 4818SOL    HW219038   2.460   3.439   3.357  0.8792  1.3283  1.1092
 4818SOL    HW319039   2.584   3.351   3.358  0.3739  0.5997  0.6034
 4818SOL    MW419040   2.511   3.379   3.396  0.2583  0.3289  0.2763
 4819SOL     OW19041   0.796   1.718   4.647 -0.5572 -0.7519 -0.0810
 4819SOL    HW219042   0.855   1.788   4.621  1.1338 -1.4567  1.5510
 4819SOL    HW319043   0.821   1.644   4.592 -0.3854 -0.8577  0.1377
 4819SOL    MW419044   0.807   1.717   4.637 -0.2778 -1.0209 -0.5153
 4820SOL     OW19045   4.284   4.783   5.406  0.1656 -0.6235 -0.0358
 4820SOL    HW219046   4.316   4.872   5.417 -0.6780 -0.4869  1.7375
 4820SOL    HW319047   4.191   4.788   5.430  0.6101 -2.3574  2.4014
 4820SOL    MW419048   4.276   4.795   5.410  0.3693 -0.7091  0.5048
 4821SOL     OW19049   0.526   0.058   0.713  0.0758 -0.4949  0.7402
 4821SOL    HW219050   0.607   0.015   0.684  0.3997 -0.2960  1.3381
 4821SOL    HW319051   0.507   0.122   0.644 -0.0456 -1.1245  0.1760
 4821SOL    MW419052   0.534   0.061   0.700  0.7188 -0.1305 -0.3930
 4822SOL     OW19053   4.055   0.403   3.227  0.0583  0.7847 -0.2477
 4822SOL    HW219054   4.091   0.320   3.259  0.3634  0.9399 -0.1808
 4822SOL    HW319055   3.964   0.403   3.257  0.1463  0.6137  0.0235
 4822SOL    MW419056   4.048   0.392   3.235  0.0516  0.7630  0.5036
 4823SOL     OW19057   3.214   1.374   3.802  0.0246  0.0092 -0.2072
 4823SOL    HW219058   3.166   1.351   3.881 -1.7206 -0.1154 -1.2511
 4823SOL    HW319059   3.282   1.433   3.832  0.3219 -1.1560  1.5743
 4823SOL    MW419060   3.217   1.379   3.816 -0.2274  0.4198 -0.3073
 4824SOL     OW19061   2.358   1.010   1.380  0.4295  0.3983  0.3950
 4824SOL    HW219062   2.436   1.060   1.355 -0.5482  0.9564 -1.7938
 4824SOL    HW319063   2.285   1.063   1.348 -0.7689 -1.0763  0.5962
 4824SOL    MW419064   2.359   1.024   1.372 -0.2330  0.2627  0.3773
 4825SOL     OW19065   6.358   0.598   4.500  0.4335 -0.5681  0.4619
 4825SOL    HW219066   6.303   0.523   4.477  1.0735 -1.1930  0.9473
 4825SOL    HW319067   6.295   0.667   4.522 -0.1652 -0.7899 -0.4888
 4825SOL    MW419068   6.342   0.597   4.500 -0.5532 -0.1872  0.0846
 4826SOL     OW19069   2.867   2.509   0.024  0.6128 -0.1392 -0.3084
 4826SOL    HW219070   2.774   2.488   0.028 -0.1619  2.9713  1.3135
 4826SOL    HW319071   2.907   2.453   0.090 -0.4321 -0.2622  0.2451
 4826SOL    MW419072   2.860   2.499   0.033 -0.0254 -0.3426  0.1393
 4827SOL     OW19073   4.866   2.429   5.145  0.0066  0.1482 -0.1076
 4827SOL    HW219074   4.882   2.371   5.219 -0.3377  1.6474  1.2076
 4827SOL    HW319075   4.774   2.415   5.122 -0.3184  0.7458  0.7631
 4827SOL    MW419076   4.856   2.420   5.152 -0.1644 -0.4721 -0.0310
 4828SOL     OW19077   5.771   2.684   3.249 -0.1867 -0.2842  0.9852
 4828SOL    HW219078   5.854   2.671   3.296 -0.0623 -0.0401  0.8376
 4828SOL    HW319079   5.783   2.768   3.204  1.2918 -2.3157 -2.8379
 4828SOL    MW419080   5.784   2.694   3.250 -0.1659  0.0349 -0.3324
 4829SOL     OW19081   3.583   5.730   1.160  0.4257  0.5841 -0.2441
 4829SOL    HW219082   3.671   5.709   1.193  0.4363  1.0750  0.0452
 4829SOL    HW319083   3.524   5.683   1.219  0.5292 -1.7402 -1.8708
 4829SOL    MW419084   3.587   5.721   1.172  0.1169  0.5560 -0.4769
 4830SOL     OW19085   4.062   2.718   1.907  0.2364 -0.0882 -0.9976
 4830SOL    HW219086   3.972   2.694   1.930 -0.0229  0.7372 -1.1319
 4830SOL    HW319087   4.062   2.813   1.903  1.1183 -0.0756 -1.0198
 4830SOL    MW419088   4.050   2.727   1.909  0.5479 -0.7714 -0.1531
 4831SOL     OW19089   3.342   0.603   3.414 -0.0636  0.6753 -0.6318
 4831SOL    HW219090   3.317   0.510   3.413  0.1388  0.6093  0.0603
 4831SOL    HW319091   3.419   0.607   3.357  0.9559  0.1081  0.6618
 4831SOL    MW419092   3.349   0.591   3.406 -0.5034 -0.0384  0.2152
 4832SOL     OW19093   1.833   5.406   3.244 -0.2728  0.5361 -0.0972
 4832SOL    HW219094   1.895   5.407   3.171 -0.7887  0.2010 -0.5604
 4832SOL    HW319095   1.868   5.468   3.307  1.9129 -1.5160  0.8454
 4832SOL    MW419096   1.846   5.414   3.242 -0.3489  0.3584 -0.0301
 4833SOL     OW19097   3.382   1.585   4.189  0.3736  0.4234 -0.1286
 4833SOL    HW219098   3.390   1.525   4.263 -3.1426 -0.6868 -0.4923
 4833SOL    HW319099   3.288   1.597   4.178  0.8197  1.6505 -3.5812
 4833SOL    MW419100   3.371   1.579   4.198  0.7953 -0.0318  0.4114
 4834SOL     OW19101   5.877   4.536   2.920 -0.3125  0.2201 -0.2727
 4834SOL    HW219102   5.874   4.462   2.981  2.2143 -1.7483 -2.2659
 4834SOL    HW319103   5.920   4.606   2.968  1.1427 -1.1046  0.4445
 4834SOL    MW419104   5.882   4.535   2.934  0.1728 -0.4849  0.2064
 4835SOL     OW19105   3.779   0.697   6.415 -0.3525  0.0796 -0.2653
 4835SOL    HW219106   3.827   0.714   6.497 -1.3210  2.6562 -0.1476
 4835SOL    HW319107   3.831   0.741   6.348  1.2273 -3.2099 -1.4418
 4835SOL    MW419108   3.793   0.705   6.417 -0.1352 -0.2255  0.7051
 4836SOL     OW19109   2.712   4.494   1.591  0.1862  0.0517  0.4483
 4836SOL    HW219110   2.806   4.502   1.573 -0.5867  3.6881 -3.4793
 4836SOL    HW319111   2.695   4.562   1.657  0.2300 -0.4975  1.0384
 4836SOL    MW419112   2.722   4.504   1.598  1.4004 -0.0245  0.6327
 4837SOL     OW19113   5.921   0.394   6.096 -0.0809 -0.0020  0.3740
 4837SOL    HW219114   5.918   0.301   6.118  1.5444  0.2211  1.7440
 4837SOL    HW319115   6.008   0.423   6.124  0.2900  1.4779 -2.0106
 4837SOL    MW419116   5.932   0.385   6.103  0.1035  0.1148 -0.3942
 4838SOL     OW19117   2.112   3.017   1.172  0.0193  0.0992  0.5336
 4838SOL    HW219118   2.161   3.098   1.174  0.2522  0.0262 -1.0237
 4838SOL    HW319119   2.071   3.011   1.258 -1.6046  2.8465  0.0635
 4838SOL    MW419120   2.113   3.027   1.183 -0.1289 -0.1612  0.5034
 4839SOL     OW19121   3.571   4.686   1.455 -0.0484 -0.3325  0.4786
 4839SOL    HW219122   3.535   4.704   1.368  1.9548 -0.7275 -0.4934
 4839SOL    HW319123   3.535   4.600   1.478  0.8520 -1.0812 -0.8080
 4839SOL    MW419124   3.561   4.677   1.447  0.4002 -0.0592 -0.0259
 4840SOL     OW19125   4.840   5.306   2.353  0.1886 -0.4450  0.0331
 4840SOL    HW219126   4.884   5.372   2.407  1.2493 -1.0558 -0.0453
 4840SOL    HW319127   4.766   5.277   2.406 -2.1237  2.8379 -1.0814
 4840SOL    MW419128   4.836   5.311   2.367  0.4288 -0.1205  0.3025
 4841SOL     OW19129   5.255   0.137   5.395  0.1636 -0.2568  0.2212
 4841SOL    HW219130   5.312   0.113   5.322 -2.3857 -1.5217 -1.5214
 4841SOL    HW319131   5.180   0.181   5.353 -0.3195  1.0942  2.3416
 4841SOL    MW419132   5.252   0.140   5.379  0.6177  0.6461  0.4554
 4842SOL     OW19133   0.959   6.224   0.749 -0.2584  0.2033 -0.1292
 4842SOL    HW219134   1.037   6.229   0.693 -0.3459  2.5016 -0.1178
 4842SOL    HW319135   0.903   6.295   0.719 -1.2940  0.0889  1.4326
 4842SOL    MW419136   0.962   6.234   0.738 -0.0796  0.0601 -0.5318
 4843SOL     OW19137   4.521   2.130   1.791  0.1061  0.6138  0.2882
 4843SOL    HW219138   4.472   2.064   1.741  1.2769 -0.3586  0.3605
 4843SOL    HW319139   4.603   2.086   1.813  0.0026  1.3266  2.3003
 4843SOL    MW419140   4.525   2.115   1.788  0.4411 -0.0747  0.3713
 4844SOL     OW19141   2.040   0.597   0.046 -0.1626  0.3303  0.0605
 4844SOL    HW219142   2.130   0.599   0.080 -0.2633  0.5050  0.3173
 4844SOL    HW319143   2.019   0.504   0.039  1.2257  0.1303 -3.1461
 4844SOL    MW419144   2.049   0.585   0.049 -0.5139  0.0510 -0.2515
 4845SOL     OW19145   2.449   5.439   4.727 -0.0619  0.5371  0.0054
 4845SOL    HW219146   2.475   5.525   4.760  2.6616  0.1751 -0.9116
 4845SOL    HW319147   2.419   5.456   4.638  1.7168  0.4692 -0.6539
 4845SOL    MW419148   2.448   5.453   4.720  0.3442 -0.5071 -0.0302
 4846SOL     OW19149   0.965   3.204   0.080 -0.1819  0.3604  0.3476
 4846SOL    HW219150   0.951   3.288   0.037  1.4992  0.4482 -0.0814
 4846SOL    HW319151   0.878   3.179   0.112 -1.5620  0.2938 -3.0380
 4846SOL    MW419152   0.952   3.212   0.078 -0.1260 -0.5085  0.8909
 4847SOL     OW19153   0.775   2.129   1.659  0.8496  0.4406 -0.3412
 4847SOL    HW219154   0.852   2.082   1.688  1.2924  1.0626 -0.4786
 4847SOL    HW319155   0.704   2.065   1.664  1.7466 -0.8021 -2.2548
 4847SOL    MW419156   0.775   2.115   1.663  0.7922 -0.9320 -0.3431
 4848SOL     OW19157   3.256   3.984   6.145 -0.0059 -0.0542  0.3977
 4848SOL    HW219158   3.347   4.004   6.168  0.2966  0.9313 -1.4784
 4848SOL    HW319159   3.212   4.069   6.143 -0.0911 -0.0880 -2.0939
 4848SOL    MW419160   3.262   3.998   6.148  0.4543  0.6605 -0.2713
 4849SOL     OW19161   5.816   3.925   4.549  0.0774 -0.4471 -0.1347
 4849SOL    HW219162   5.728   3.922   4.512  0.3387 -0.1047 -0.7859
 4849SOL    HW319163   5.874   3.899   4.478  0.7427  1.8534 -0.5169
 4849SOL    MW419164   5.812   3.921   4.535 -0.1738 -0.0266  0.2384
 4850SOL     OW19165   3.859   1.077   1.562 -0.0793 -0.4528 -0.1140
 4850SOL    HW219166   3.817   0.994   1.586 -1.6641  0.0073 -1.0901
 4850SOL    HW319167   3.951   1.066   1.586 -0.7341 -1.5356  2.1055
 4850SOL    MW419168   3.865   1.065   1.568 -0.5612 -0.1659  0.5990
 4851SOL     OW19169   4.585   4.274   4.177 -0.4313  0.3297  1.1222
 4851SOL    HW219170   4.615   4.188   4.145 -0.3025 -0.3108  2.8815
 4851SOL    HW319171   4.666   4.319   4.201 -0.3526  1.6101 -1.1914
 4851SOL    MW419172   4.600   4.268   4.176  0.3380 -0.4634 -0.2012
 4852SOL     OW19173   0.644   5.655   2.690  0.1542  0.7246  0.1082
 4852SOL    HW219174   0.694   5.586   2.733 -0.2426  0.3465 -0.0322
 4852SOL    HW319175   0.571   5.673   2.750 -0.0281  0.6638 -0.0941
 4852SOL    MW419176   0.641   5.649   2.704 -0.1014 -0.0927 -0.0962
 4853SOL     OW19177   3.975   6.265   5.921 -0.3164 -0.4810  0.5733
 4853SOL    HW219178   3.895   6.215   5.937  0.9854 -1.8862  3.3820
 4853SOL    HW319179   4.043   6.199   5.911  0.7679  0.7158 -0.2950
 4853SOL    MW419180   3.974   6.250   5.921  0.4124  0.1582 -0.1552
 4854SOL     OW19181   3.276   2.671   2.003  0.1435  0.5904 -0.3162
 4854SOL    HW219182   3.217   2.746   2.005  0.1894  0.6123  1.1720
 4854SOL    HW319183   3.355   2.705   1.961 -0.6038  0.7547 -1.6616
 4854SOL    MW419184   3.279   2.686   1.998  0.5450  0.0697  0.3348
 4855SOL     OW19185   4.005   1.347   4.173  0.3676 -0.2654  0.0985
 4855SOL    HW219186   3.917   1.324   4.142 -0.9201  2.8968  1.0152
 4855SOL    HW319187   4.042   1.401   4.104  2.0751 -2.2474 -0.6642
 4855SOL    MW419188   3.998   1.351   4.160  0.4852  0.3032  0.8898
 4856SOL     OW19189   5.239   4.822   0.048  0.0531 -0.1259 -0.1353
 4856SOL    HW219190   5.243   4.808  -0.046 -1.3069  1.5923 -0.4957
 4856SOL    HW319191   5.172   4.889   0.060 -0.1040 -0.5927  2.0943
 4856SOL    MW419192   5.231   4.829   0.037 -0.3018 -0.0761  0.2342
 4857SOL     OW19193   4.951   5.816   2.410  0.5394  0.0970 -0.5071
 4857SOL    HW219194   4.977   5.771   2.330  0.9008 -0.4356 -0.0930
 4857SOL    HW319195   5.033   5.842   2.451  0.4892 -1.8558  0.9608
 4857SOL    MW419196   4.965   5.814   2.405 -0.4650 -0.3082  0.3334
 4858SOL     OW19197   0.095   5.038   2.922 -0.2745  0.0106  0.0154
 4858SOL    HW219198   0.046   5.004   2.847 -2.7530 -0.1685  1.6040
 4858SOL    HW319199   0.114   5.129   2.898  0.9352 -0.6521 -1.6943
 4858SOL    MW419200   0.091   5.046   2.909  0.0238  0.1469  0.5532
 4859SOL     OW19201   0.281   0.304   4.069  0.4275  0.3117 -0.0203
 4859SOL    HW219202   0.202   0.284   4.017  0.1393 -0.7688  0.7862
 4859SOL    HW319203   0.298   0.223   4.117  1.5002  0.8456  0.5172
 4859SOL    MW419204   0.273   0.290   4.068  0.4578  0.2984 -0.1901
 4860SOL     OW19205   2.465   6.243   4.279 -0.2499 -0.6200 -0.0223
 4860SOL    HW219206   2.557   6.259   4.262 -0.8134  1.4733 -1.4371
 4860SOL    HW319207   2.420   6.320   4.246 -2.3161 -0.3137  3.0340
 4860SOL    MW419208   2.471   6.255   4.273  0.0724 -0.1010  0.4493
 4861SOL     OW19209   2.592   4.881   0.431 -0.0083  0.4543 -0.5465
 4861SOL    HW219210   2.551   4.796   0.413 -0.3902  0.3481  0.7705
 4861SOL    HW319211   2.634   4.904   0.348 -0.9905 -0.4068 -1.3268
 4861SOL    MW419212   2.592   4.872   0.417  0.0420 -0.3247 -0.0289
 4862SOL     OW19213   3.169   2.472   4.582 -0.0766  0.4033 -0.2307
 4862SOL    HW219214   3.074   2.480   4.575 -0.1935 -1.2011 -0.9164
 4862SOL    HW319215   3.198   2.460   4.492  0.3312 -2.9854  0.2410
 4862SOL    MW419216   3.160   2.472   4.569 -0.3264 -0.0852 -0.1868
 4863SOL     OW19217   3.469   1.450   1.657 -0.0233 -0.2015  0.2595
 4863SOL    HW219218   3.429   1.533   1.634  0.3060  0.4478  1.8992
 4863SOL    HW319219   3.423   1.385   1.603 -0.8598  0.9213 -0.4206
 4863SOL    MW419220   3.458   1.452   1.647  0.2343 -0.1804 -0.0133
 4864SOL     OW19221   0.813   2.283   5.566 -0.2252 -0.1856  0.3043
 4864SOL    HW219222   0.803   2.364   5.516  0.1199  0.0872  0.6695
 4864SOL    HW319223   0.895   2.245   5.534 -1.3497 -1.4370 -1.3133
 4864SOL    MW419224   0.823   2.289   5.555 -0.1768 -0.0053 -0.8637
 4865SOL     OW19225   2.334   5.576   6.381 -0.5320  0.2708  0.3185
 4865SOL    HW219226   2.339   5.660   6.334  1.2599 -0.4685 -0.9268
 4865SOL    HW319227   2.409   5.578   6.441 -0.5767 -0.3654  0.3947
 4865SOL    MW419228   2.345   5.587   6.383 -0.2101 -0.5873 -0.2260
 4866SOL     OW19229   6.404   0.972   2.958 -0.7909 -0.5193 -0.3200
 4866SOL    HW219230   6.444   0.958   2.872 -2.2783 -0.0706 -1.1339
 4866SOL    HW319231   6.472   1.015   3.010 -0.0047 -0.3945 -1.4177
 4866SOL    MW419232   6.418   0.976   2.953  0.0352 -0.2019 -0.0366
 4867SOL     OW19233   1.353   5.693   4.412 -0.0893  0.3578  0.3621
 4867SOL    HW219234   1.275   5.725   4.365  0.2710 -1.2230 -1.4370
 4867SOL    HW319235   1.369   5.607   4.374  1.3913 -0.1831  2.1214
 4867SOL    MW419236   1.345   5.686   4.401  0.4526 -0.1367  0.5108
 4868SOL     OW19237   4.204   1.208   1.049  0.6899  0.5077  0.8510
 4868SOL    HW219238   4.253   1.201   0.967  1.0554 -1.9607  1.1952
 4868SOL    HW319239   4.264   1.251   1.110  1.7573 -0.7456  0.7341
 4868SOL    MW419240   4.218   1.213   1.046 -0.1338 -0.0645 -0.3250
 4869SOL     OW19241   3.434   1.129   1.764 -0.5333 -0.1521  0.3115
 4869SOL    HW219242   3.368   1.086   1.710 -1.2154 -0.2651  1.2028
 4869SOL    HW319243   3.441   1.217   1.727 -0.6279 -0.3793 -0.2603
 4869SOL    MW419244   3.426   1.135   1.752  0.2018  0.1024  0.4586
 4870SOL     OW19245   1.291   2.310   1.707  0.1164 -0.5319  0.0295
 4870SOL    HW219246   1.281   2.393   1.661 -0.8443  0.8785  2.5819
 4870SOL    HW319247   1.377   2.317   1.749 -0.7865  0.1258  1.8794
 4870SOL    MW419248   1.301   2.322   1.707  0.3033 -0.1712  0.0283
 4871SOL     OW19249   2.300   4.104   3.245 -0.5478  0.5658 -0.2363
 4871SOL    HW219250   2.380   4.107   3.193  0.0276 -0.4201  0.5461
 4871SOL    HW319251   2.321   4.043   3.316 -2.1425 -0.0693 -0.2803
 4871SOL    MW419252   2.313   4.096   3.248  0.4257  0.0904  0.1704
 4872SOL     OW19253   3.478   5.002   1.326 -0.1066 -0.0276 -0.4439
 4872SOL    HW219254   3.548   5.067   1.324 -1.4183  1.4464 -0.3501
 4872SOL    HW319255   3.421   5.030   1.398 -0.8464 -1.1488 -0.5588
 4872SOL    MW419256   3.480   5.014   1.335  0.0493 -0.1245 -0.0555
 4873SOL     OW19257   1.116   2.431   6.178 -0.4304  0.3684 -0.4805
 4873SOL    HW219258   1.103   2.375   6.254  1.0754  1.4019  0.5983
 4873SOL    HW319259   1.028   2.449   6.146 -1.0818 -0.3058  0.8528
 4873SOL    MW419260   1.102   2.426   6.183  0.4952 -0.1124  0.4694
 4874SOL     OW19261   6.348   5.230   3.723 -0.5616  0.4420  0.4381
 4874SOL    HW219262   6.414   5.162   3.727 -0.4412  0.4617 -0.8586
 4874SOL    HW319263   6.265   5.183   3.711 -0.6551  0.4622  1.0037
 4874SOL    MW419264   6.345   5.215   3.722  0.0922  0.1702 -0.6188
 4875SOL     OW19265   1.289   3.895   1.866  0.0725  0.1599  0.1591
 4875SOL    HW219266   1.310   3.810   1.905 -0.6395 -0.5938 -1.0453
 4875SOL    HW319267   1.246   3.874   1.783 -0.1335  1.7004 -0.1602
 4875SOL    MW419268   1.286   3.881   1.860  0.0689  0.0525  0.3866
 4876SOL     OW19269   3.360   2.520   3.535 -0.5050  0.2951 -0.0465
 4876SOL    HW219270   3.277   2.567   3.542 -0.1818  0.6889  1.6269
 4876SOL    HW319271   3.407   2.542   3.616  1.7335  1.0422 -1.4428
 4876SOL    MW419272   3.355   2.530   3.546  0.1379  0.1132  0.1915
 4877SOL     OW19273   5.972   5.150   4.383 -0.0587  0.3114 -0.3124
 4877SOL    HW219274   5.920   5.218   4.340 -1.0505  0.2185  0.6897
 4877SOL    HW319275   6.063   5.180   4.375 -0.5343  2.2418  0.8585
 4877SOL    MW419276   5.978   5.163   4.376 -0.4491 -0.2552  0.0410
 4878SOL     OW19277   1.369   1.722   1.996 -0.1984 -0.0186 -0.1324
 4878SOL    HW219278   1.373   1.814   2.021  0.2032  0.0527 -0.4647
 4878SOL    HW319279   1.374   1.722   1.900 -0.9932 -0.3384 -0.1802
 4878SOL    MW419280   1.370   1.734   1.987  0.1763  0.2221  0.0352
 4879SOL     OW19281   1.084   4.784   1.236 -0.6755  0.3376 -0.5489
 4879SOL    HW219282   1.112   4.872   1.259 -0.8965  0.2043  0.2369
 4879SOL    HW319283   0.989   4.784   1.248 -0.5738 -0.2702  0.3973
 4879SOL    MW419284   1.076   4.795   1.240  0.0605 -0.4300  0.7021
 4880SOL     OW19285   0.927   2.976   5.304  0.4096 -0.6356  0.4074
 4880SOL    HW219286   0.939   2.883   5.325  2.5136 -0.1902  1.4650
 4880SOL    HW319287   0.891   3.014   5.384 -0.6637 -0.5553 -0.0997
 4880SOL    MW419288   0.924   2.969   5.317 -0.7868 -0.3702  0.2004
 4881SOL     OW19289   1.825   1.103   2.849 -0.1096 -0.1331 -0.5101
 4881SOL    HW219290   1.756   1.038   2.863  1.3249 -1.5866  0.1249
 4881SOL    HW319291   1.794   1.155   2.775 -1.0799 -1.8901 -1.4198
 4881SOL    MW419292   1.812   1.101   2.841 -0.2646 -0.4343  0.0442
 4882SOL     OW19293   6.238   1.613   3.431  0.1874  0.1985 -0.6989
 4882SOL    HW219294   6.183   1.622   3.508 -0.5114 -1.0906 -1.0207
 4882SOL    HW319295   6.315   1.667   3.450  0.2138 -0.4116  1.0675
 4882SOL    MW419296   6.241   1.621   3.443  0.4612  0.1832 -0.0728
 4883SOL     OW19297   6.116   2.888   2.579 -0.3267 -0.0335  0.4984
 4883SOL    HW219298   6.067   2.969   2.567 -2.7983 -1.1596  2.2280
 4883SOL    HW319299   6.052   2.818   2.568  1.6008 -1.7860 -0.3365
 4883SOL    MW419300   6.101   2.890   2.576  0.0535 -0.5458 -0.1369
 4884SOL     OW19301   1.634   3.628   1.358  0.4022 -0.1992 -0.5941
 4884SOL    HW219302   1.585   3.575   1.421  1.1269 -1.6418 -1.2039
 4884SOL    HW319303   1.612   3.719   1.381 -0.0055 -0.7112  1.1815
 4884SOL    MW419304   1.625   3.633   1.370 -0.1787  0.4681  0.5561
 4885SOL     OW19305   0.151   2.574   3.600  0.3397  0.6007  0.1372
 4885SOL    HW219306   0.074   2.560   3.544 -0.3330  0.7068  1.0120
 4885SOL    HW319307   0.117   2.568   3.689  1.1116  1.8969  0.5510
 4885SOL    MW419308   0.136   2.572   3.604  0.0178  0.3977 -0.1564
 4886SOL     OW19309   3.849   4.724   2.086 -0.5121 -0.2946 -0.1467
 4886SOL    HW219310   3.843   4.696   1.995 -2.2105 -0.8868  0.1196
 4886SOL    HW319311   3.869   4.644   2.135 -1.9300 -0.4463  0.2318
 4886SOL    MW419312   3.851   4.710   2.080 -0.1888  0.0804 -0.5129
 4887SOL     OW19313   4.739   3.388   3.258  0.8052  0.2034 -0.2387
 4887SOL    HW219314   4.734   3.311   3.314 -1.2263  0.0821 -0.5282
 4887SOL    HW319315   4.828   3.421   3.271  1.1987 -1.2679  1.0955
 4887SOL    MW419316   4.750   3.382   3.267 -0.0110  0.7820 -0.4775
 4888SOL     OW19317   6.236   3.313   2.479 -0.0267  0.2501  0.5566
 4888SOL    HW219318   6.167   3.336   2.542 -0.2111 -0.2274  0.5362
 4888SOL    HW319319   6.190   3.263   2.412  0.2685  0.2929  0.3250
 4888SOL    MW419320   6.221   3.309   2.479  0.3098 -0.3131  0.2202
 4889SOL     OW19321   2.113   2.673   2.035  0.1568  0.4397 -0.0193
 4889SOL    HW219322   2.030   2.670   1.987 -0.5405  0.4546  1.1445
 4889SOL    HW319323   2.096   2.622   2.115  1.0888  0.9152  0.4978
 4889SOL    MW419324   2.100   2.666   2.039 -0.7238  0.5467 -0.0736
 4890SOL     OW19325   4.611   4.164   5.251  0.1131  0.4321  0.6092
 4890SOL    HW219326   4.538   4.134   5.197 -0.4603 -1.0492  2.1041
 4890SOL    HW319327   4.689   4.142   5.201 -0.2408 -3.8060  1.5269
 4890SOL    MW419328   4.611   4.157   5.238  0.8048 -0.0127 -0.1683
 4891SOL     OW19329   0.198   4.354   4.491 -0.2816  0.5293  0.1222
 4891SOL    HW219330   0.237   4.425   4.439  1.8724  0.2737  1.2926
 4891SOL    HW319331   0.211   4.380   4.582  1.6297 -1.8351  0.6271
 4891SOL    MW419332   0.205   4.367   4.496  0.3884 -0.2080  0.3929
 4892SOL     OW19333   2.691   4.637   4.908  0.4629  0.1298  0.2635
 4892SOL    HW219334   2.678   4.732   4.915  1.4591  0.3502 -0.7070
 4892SOL    HW319335   2.662   4.603   4.993 -2.0978  1.0246 -0.1442
 4892SOL    MW419336   2.685   4.645   4.920 -0.1669 -0.1562  0.4480
 4893SOL     OW19337   1.904   5.754   1.689  0.4748  0.2216  0.6721
 4893SOL    HW219338   1.960   5.817   1.735 -0.9253  0.5610  2.0132
 4893SOL    HW319339   1.875   5.800   1.611  1.4314  0.3180  0.3618
 4893SOL    MW419340   1.908   5.768   1.685  0.2479  0.3697 -0.1482
 4894SOL     OW19341   2.237   2.266   2.748  0.5304  0.2158  0.5976
 4894SOL    HW219342   2.292   2.310   2.682  1.0705  1.1015  1.6123
 4894SOL    HW319343   2.300   2.236   2.815  0.1430 -1.7937  0.1407
 4894SOL    MW419344   2.253   2.268   2.748 -0.5151 -0.3629 -0.2726
 4895SOL     OW19345   6.419   0.178   2.579  0.4765 -0.0066  0.4224
 4895SOL    HW219346   6.464   0.121   2.517  0.3821  0.1061  0.2505
 4895SOL    HW319347   6.483   0.191   2.650 -0.2158 -1.9727  1.4837
 4895SOL    MW419348   6.434   0.172   2.580  0.3766  0.2595 -0.1452
 4896SOL     OW19349   1.021   0.838   6.215  0.1104  0.1723  0.1349
 4896SOL    HW219350   1.054   0.917   6.172  2.5681 -0.9177 -0.1550
 4896SOL    HW319351   1.023   0.771   6.147 -2.3365 -0.1115  0.2639
 4896SOL    MW419352   1.026   0.839   6.201  0.1948 -0.3717  0.2613
 4897SOL     OW19353   4.967   1.411   1.000  0.3580 -0.3102 -0.2746
 4897SOL    HW219354   4.929   1.355   0.932  0.4254  0.4477 -0.9517
 4897SOL    HW319355   5.024   1.472   0.952 -0.3769  0.8922  0.3385
 4897SOL    MW419356   4.970   1.412   0.985 -0.2425 -0.2127 -0.3832
 4898SOL     OW19357   3.177   4.638   0.843 -0.3985  0.0245  0.6523
 4898SOL    HW219358   3.221   4.671   0.921 -0.3590 -0.2682  0.7563
 4898SOL    HW319359   3.088   4.618   0.873 -0.3779 -0.1055  0.6269
 4898SOL    MW419360   3.171   4.640   0.857 -0.0862  1.0271 -0.3773
 4899SOL     OW19361   5.340   3.255   1.095  0.3781 -0.3425 -0.1536
 4899SOL    HW219362   5.254   3.292   1.111  0.0399 -0.9896 -0.4044
 4899SOL    HW319363   5.357   3.199   1.171  0.6799 -0.0305  0.0081
 4899SOL    MW419364   5.331   3.252   1.107 -0.6341  0.0504 -0.6482
 4900SOL     OW19365   3.679   3.774   5.425 -0.0962 -0.4099  0.1364
 4900SOL    HW219366   3.719   3.689   5.408 -0.3527 -0.6845  0.8792
 4900SOL    HW319367   3.593   3.754   5.461 -0.0212  0.1530  0.6481
 4900SOL    MW419368   3.673   3.760   5.427 -0.1532 -0.1493  0.5299
 4901SOL     OW19369   3.563   5.499   3.784 -0.5142  0.0953  0.1444
 4901SOL    HW219370   3.474   5.468   3.798 -0.4803 -0.9767 -1.6770
 4901SOL    HW319371   3.570   5.511   3.689  1.6753 -1.2330  0.0611
 4901SOL    MW419372   3.552   5.497   3.773 -0.4905  0.4037  0.0676
 4902SOL     OW19373   0.290   0.499   3.468  0.1746 -0.6472  0.1703
 4902SOL    HW219374   0.359   0.504   3.402 -0.7832  0.0627 -0.7917
 4902SOL    HW319375   0.210   0.480   3.419 -0.5539 -0.1357  1.1252
 4902SOL    MW419376   0.289   0.497   3.453 -0.0815 -0.2889  1.2059
 4903SOL     OW19377   0.342   0.539   2.012 -0.0009  0.8611 -0.4189
 4903SOL    HW219378   0.295   0.481   1.952 -0.2413 -0.8090  1.3040
 4903SOL    HW319379   0.429   0.549   1.974  0.0024 -0.5496 -0.8140
 4903SOL    MW419380   0.347   0.533   1.999 -0.3811  0.1235 -0.0963
 4904SOL     OW19381   0.733   3.800   5.565  0.0862  0.5704  0.3768
 4904SOL    HW219382   0.782   3.803   5.647 -0.2411  0.9547  0.5644
 4904SOL    HW319383   0.641   3.800   5.591 -0.0162  0.0081  0.0251
 4904SOL    MW419384   0.727   3.801   5.579 -0.4492 -0.0883  0.3786
 4905SOL     OW19385   1.013   0.159   0.199 -0.4526 -0.4481 -0.3204
 4905SOL    HW219386   0.936   0.168   0.143 -0.4946 -0.0672 -0.2029
 4905SOL    HW319387   1.060   0.242   0.188  0.3686 -0.9849 -1.0291
 4905SOL    MW419388   1.009   0.171   0.190  0.4608 -0.1052 -0.1285
 4906SOL     OW19389   1.855   4.622   5.046 -0.0101 -0.2760  0.9132
 4906SOL    HW219390   1.869   4.540   4.997 -2.0390 -0.1032 -0.0658
 4906SOL    HW319391   1.890   4.690   4.989 -1.7681 -0.1404 -0.0722
 4906SOL    MW419392   1.861   4.620   5.032  0.3311 -0.6801 -0.2339
 4907SOL     OW19393   3.945   3.043   4.915 -0.2655 -0.0167  0.2356
 4907SOL    HW219394   3.898   2.964   4.940 -1.1432  0.7073  0.9378
 4907SOL    HW319395   3.924   3.057   4.823 -1.4196  0.2746  0.5304
 4907SOL    MW419396   3.936   3.035   4.906  0.2596  0.1121  0.3090
 4908SOL     OW19397   1.572   0.308   3.666 -0.4251  0.3704  0.0672
 4908SOL    HW219398   1.529   0.223   3.665  1.2068 -0.5108 -0.9121
 4908SOL    HW319399   1.631   0.305   3.741 -1.1628  1.1052  0.7016
 4908SOL    MW419400   1.574   0.297   3.676  0.0164 -0.2149  0.5111
 4909SOL     OW19401   3.959   1.717   1.617 -0.0512  0.1828  0.5142
 4909SOL    HW219402   4.046   1.747   1.589  0.1656  0.0708  1.0646
 4909SOL    HW319403   3.914   1.797   1.644 -0.5214  0.3934 -0.8239
 4909SOL    MW419404   3.965   1.732   1.617  0.2248  0.5536 -0.6022
 4910SOL     OW19405   1.144   0.663   4.077 -0.7080 -0.1012  0.5690
 4910SOL    HW219406   1.074   0.711   4.119 -0.4200 -0.2011  1.1827
 4910SOL    HW319407   1.102   0.617   4.004 -1.6513 -1.5763  1.9763
 4910SOL    MW419408   1.129   0.663   4.073  0.0719 -0.2205 -0.6327
 4911SOL     OW19409   0.096   2.466   2.617  0.4432 -0.4431 -0.7746
 4911SOL    HW219410   0.080   2.396   2.680  0.1749 -0.2022 -0.5733
 4911SOL    HW319411   0.031   2.452   2.549  0.9986 -0.9486 -1.2100
 4911SOL    MW419412   0.085   2.455   2.616  0.3970 -0.1828  0.1107
 4912SOL     OW19413   1.762   4.232   5.943 -0.0658  0.3096 -0.3123
 4912SOL    HW219414   1.808   4.149   5.924 -1.5716 -0.5645 -0.2651
 4912SOL    HW319415   1.830   4.299   5.934  1.6189 -1.0641  1.3013
 4912SOL    MW419416   1.777   4.230   5.939  0.1303  0.5266  0.1285
 4913SOL     OW19417   5.775   5.184   2.631 -0.2020  0.9125 -0.4153
 4913SOL    HW219418   5.826   5.199   2.551  0.0957 -0.8046 -0.5766
 4913SOL    HW319419   5.838   5.197   2.702  0.0388  0.4462 -0.5434
 4913SOL    MW419420   5.790   5.188   2.630  0.5827  0.1402 -0.1993
 4914SOL     OW19421   5.082   4.695   5.227  0.5029 -0.6786 -0.1681
 4914SOL    HW219422   5.143   4.759   5.262 -0.2918 -0.3034  0.5635
 4914SOL    HW319423   5.128   4.655   5.153  1.0967  0.5803 -0.5002
 4914SOL    MW419424   5.096   4.698   5.222 -0.1885 -0.7951  0.1160
 4915SOL     OW19425   6.420   4.556   5.542  0.1931  0.2568 -0.3300
 4915SOL    HW219426   6.383   4.516   5.621  0.1969 -1.4599 -1.1473
 4915SOL    HW319427   6.473   4.629   5.575  1.8571 -1.6249  1.4613
 4915SOL    MW419428   6.422   4.560   5.557  0.3489 -0.3168  0.9165
 4916SOL     OW19429   4.414   0.779   3.852  0.4455  0.0394  0.1186
 4916SOL    HW219430   4.396   0.710   3.788 -0.2343  0.1014  0.2280
 4916SOL    HW319431   4.356   0.851   3.826  1.3082  0.6541 -0.1240
 4916SOL    MW419432   4.404   0.779   3.840 -0.0217  0.0792 -0.0315
 4917SOL     OW19433   5.872   4.445   4.919  0.2065  0.4250 -0.0555
 4917SOL    HW219434   5.804   4.466   4.854  0.6144 -1.6585 -1.2348
 4917SOL    HW319435   5.837   4.370   4.966  1.0459  0.3037  0.3766
 4917SOL    MW419436   5.858   4.438   4.916  0.0367  0.6136  0.4555
 4918SOL     OW19437   4.257   0.557   1.130 -0.3439  0.5952 -0.0577
 4918SOL    HW219438   4.250   0.572   1.224 -0.9633 -0.1871  0.0271
 4918SOL    HW319439   4.171   0.526   1.104  0.4872 -1.5394 -0.4472
 4918SOL    MW419440   4.245   0.555   1.139  0.2515  0.2485 -0.2561
 4919SOL     OW19441   5.690   1.506   5.790 -0.2265 -0.1206 -0.3118
 4919SOL    HW219442   5.710   1.446   5.863 -0.9658 -1.1110 -0.8956
 4919SOL    HW319443   5.606   1.476   5.756 -0.9527  1.6887 -0.2173
 4919SOL    MW419444   5.681   1.494   5.795 -0.5868  0.0528  0.2699
 4920SOL     OW19445   2.717   5.692   0.497  0.2200 -0.0071  0.5745
 4920SOL    HW219446   2.771   5.719   0.423 -0.0564 -0.2669  0.2726
 4920SOL    HW319447   2.641   5.648   0.457  1.0974 -2.0804  1.0400
 4920SOL    MW419448   2.714   5.689   0.482  0.0490  0.5007 -0.3978
 4921SOL     OW19449   5.772   0.569   4.518 -0.0325 -0.3601 -0.1973
 4921SOL    HW219450   5.796   0.481   4.546  0.9643 -1.0356 -2.8538
 4921SOL    HW319451   5.771   0.621   4.598  1.4315 -2.3315  1.1872
 4921SOL    MW419452   5.775   0.564   4.532 -0.3934 -0.2740  0.2184
 4922SOL     OW19453   6.151   3.666   1.904 -0.6366 -0.0399  0.1873
 4922SOL    HW219454   6.077   3.701   1.854 -1.0126  0.8935  1.3522
 4922SOL    HW319455   6.111   3.603   1.964 -0.6464  1.1834  1.4955
 4922SOL    MW419456   6.136   3.662   1.905 -0.5288  0.5201  0.3438
 4923SOL     OW19457   2.087   0.518   1.752 -0.2613 -0.0098 -0.0977
 4923SOL    HW219458   2.016   0.507   1.689  0.6473 -0.5953 -1.0530
 4923SOL    HW319459   2.116   0.608   1.741 -0.6450  0.1385  0.0807
 4923SOL    MW419460   2.081   0.528   1.742 -0.1010  0.3686  0.3326
 4924SOL     OW19461   4.565   4.468   5.034 -0.1627 -0.7426  0.3379
 4924SOL    HW219462   4.626   4.528   4.991  0.5164 -1.7105 -0.0949
 4924SOL    HW319463   4.518   4.425   4.962 -0.2170 -1.1514  0.6098
 4924SOL    MW419464   4.567   4.470   5.019 -0.3407 -0.5028 -0.0638
 4925SOL     OW19465   1.241   4.853   4.007  0.3470  0.2382  0.1653
 4925SOL    HW219466   1.267   4.804   3.929 -0.4908 -0.8607  0.5485
 4925SOL    HW319467   1.232   4.786   4.075  0.5088  1.1075  1.0656
 4925SOL    MW419468   1.243   4.838   4.006  0.4707  0.0391  0.2675
 4926SOL     OW19469   5.877   3.565   1.447 -0.2778 -0.2022  0.3195
 4926SOL    HW219470   5.945   3.574   1.514 -0.6502  1.2563  0.5460
 4926SOL    HW319471   5.920   3.519   1.375  0.8423  0.3713  0.5951
 4926SOL    MW419472   5.891   3.560   1.447  0.3290  0.2667 -0.0519
 4927SOL     OW19473   5.517   0.128   6.295  0.0746 -0.5163  0.1360
 4927SOL    HW219474   5.557   0.106   6.211  0.7679  1.8943 -0.2445
 4927SOL    HW319475   5.454   0.197   6.275  0.9560  0.8097  1.6944
 4927SOL    MW419476   5.514   0.134   6.281  0.0105  0.5372  0.1138
 4928SOL     OW19477   1.512   5.818   3.230 -0.2106  0.1966  0.3547
 4928SOL    HW219478   1.532   5.736   3.185 -0.4377  0.1766  0.2870
 4928SOL    HW319479   1.497   5.881   3.159  0.0851  0.3265  0.4067
 4928SOL    MW419480   1.513   5.816   3.215  0.3243 -0.3232  0.3178
 4929SOL     OW19481   4.490   5.275   5.209  0.6691  0.6216 -0.3108
 4929SOL    HW219482   4.479   5.241   5.120  0.1090 -0.6801  0.2426
 4929SOL    HW319483   4.439   5.356   5.209  0.9280  0.8071 -1.2574
 4929SOL    MW419484   4.482   5.282   5.197 -0.2957 -0.5182 -0.2516
 4930SOL     OW19485   3.572   0.709   4.300 -0.2127  0.0265 -0.2978
 4930SOL    HW219486   3.628   0.689   4.225 -2.7083 -2.7023 -1.6566
 4930SOL    HW319487   3.488   0.734   4.261 -0.3628  3.1307  1.6594
 4930SOL    MW419488   3.568   0.710   4.285 -0.4476  0.5399 -0.5513
 4931SOL     OW19489   0.372   5.453   4.374 -0.0174 -0.1348  0.2148
 4931SOL    HW219490   0.365   5.407   4.458  4.2860 -0.8655  0.3899
 4931SOL    HW319491   0.395   5.385   4.311 -1.8217  0.6355 -1.3737
 4931SOL    MW419492   0.374   5.438   4.377 -0.0460  0.2033 -0.2370
 4932SOL     OW19493   0.163   2.810   2.618  0.1849  0.2540  0.0044
 4932SOL    HW219494   0.082   2.833   2.572 -0.3401 -0.9192  0.2963
 4932SOL    HW319495   0.164   2.714   2.617 -0.6605  0.0354  3.7247
 4932SOL    MW419496   0.152   2.800   2.612 -0.0483  0.2151 -0.1101
 4933SOL     OW19497   2.323   2.882   5.034  0.2275 -0.2241  0.2391
 4933SOL    HW219498   2.335   2.822   4.960 -0.4107 -1.4990  1.1258
 4933SOL    HW319499   2.237   2.922   5.018 -0.0229 -0.6845  0.3907
 4933SOL    MW419500   2.313   2.879   5.022  0.1805  1.0209  0.3936
 4934SOL     OW19501   4.350   6.043   1.414  0.0023 -0.6438  0.3756
 4934SOL    HW219502   4.445   6.041   1.403  0.1770 -2.0688  1.8014
 4934SOL    HW319503   4.335   6.118   1.472  0.0827  0.4344 -0.9433
 4934SOL    MW419504   4.361   6.053   1.421  0.5758  0.3024 -0.0750
 4935SOL     OW19505   3.819   5.685   1.346 -0.3976 -0.2485 -0.3958
 4935SOL    HW219506   3.761   5.704   1.420 -0.0147 -0.7642  0.0439
 4935SOL    HW319507   3.895   5.643   1.385  2.4208  4.2598 -0.3250
 4935SOL    MW419508   3.822   5.682   1.361  0.4373 -0.1340 -0.9094
 4936SOL     OW19509   1.353   2.878   0.406 -0.1539  0.3010 -0.0441
 4936SOL    HW219510   1.335   2.862   0.314 -1.2076  1.0471  0.0207
 4936SOL    HW319511   1.267   2.883   0.448  0.3132 -0.6367  1.0984
 4936SOL    MW419512   1.339   2.876   0.400  0.0417  1.4567 -0.2528
 4937SOL     OW19513   3.019   4.789   5.117  0.7632 -0.2421  0.0325
 4937SOL    HW219514   2.963   4.825   5.049  0.6982 -1.0692 -0.3649
 4937SOL    HW319515   3.084   4.857   5.133 -0.4799  0.8545  0.6921
 4937SOL    MW419516   3.020   4.802   5.110  0.0705  0.0685  0.5616
 4938SOL     OW19517   3.640   5.205   1.381  0.1814  0.6296 -0.2805
 4938SOL    HW219518   3.723   5.164   1.406  0.5928  0.8438 -1.2583
 4938SOL    HW319519   3.666   5.282   1.331 -0.5321  2.4620  1.9667
 4938SOL    MW419520   3.654   5.210   1.378  0.8114 -0.4606 -0.1794
 4939SOL     OW19521   3.037   0.608   3.255 -0.2422 -0.2404 -0.3286
 4939SOL    HW219522   3.085   0.541   3.208  1.0654  0.9812 -0.8044
 4939SOL    HW319523   3.020   0.569   3.341  0.8568 -1.0255 -0.4472
 4939SOL    MW419524   3.041   0.594   3.260 -0.7156 -0.0629  0.0891
 4940SOL     OW19525   3.643   4.233   6.409 -0.0492 -0.2532  0.1399
 4940SOL    HW219526   3.738   4.219   6.418 -0.2497 -2.1558 -0.2244
 4940SOL    HW319527   3.604   4.173   6.472 -1.0387  0.1011 -0.1196
 4940SOL    MW419528   3.650   4.223   6.418  0.4545  0.3471  0.0622
 4941SOL     OW19529   1.740   1.841   2.855  0.0152  0.4197 -0.1309
 4941SOL    HW219530   1.828   1.856   2.819  0.5007 -0.7347  0.5085
 4941SOL    HW319531   1.707   1.929   2.875  0.4724  0.9555 -1.6282
 4941SOL    MW419532   1.747   1.855   2.853 -0.3302  0.0078  0.6037
 4942SOL     OW19533   1.292   1.833   5.351  0.1958 -0.2552  0.4815
 4942SOL    HW219534   1.335   1.773   5.289  1.6228  1.4449 -0.2722
 4942SOL    HW319535   1.287   1.783   5.433  2.8919 -0.8955  0.3674
 4942SOL    MW419536   1.297   1.819   5.354 -1.1486  0.4224 -0.2416
 4943SOL     OW19537   4.325   5.505   5.498 -0.2495 -0.0779 -0.5706
 4943SOL    HW219538   4.313   5.505   5.404  0.5975  2.9101 -0.7719
 4943SOL    HW319539   4.293   5.590   5.527  0.2863 -0.5846  1.7176
 4943SOL    MW419540   4.319   5.516   5.490 -0.3044 -0.4022 -0.8847
 4944SOL     OW19541   3.358   1.338   6.306  0.6591  0.4706  0.0092
 4944SOL    HW219542   3.302   1.316   6.231 -0.4012 -0.2681  0.9710
 4944SOL    HW319543   3.306   1.400   6.357  1.5889  1.3752 -0.1235
 4944SOL    MW419544   3.344   1.343   6.303 -0.0607  0.0310  0.5135
 4945SOL     OW19545   1.791   4.230   3.349 -0.8636  0.4521  0.0618
 4945SOL    HW219546   1.765   4.141   3.373  2.2253 -0.5973 -0.0658
 4945SOL    HW319547   1.854   4.257   3.416 -1.4892  2.4487 -0.0801
 4945SOL    MW419548   1.796   4.222   3.361 -0.2776  0.4193  0.2070
 4946SOL     OW19549   5.942   5.479   2.959  0.1120 -0.2384 -0.1656
 4946SOL    HW219550   5.957   5.570   2.934 -0.4234 -0.4640 -1.3438
 4946SOL    HW319551   5.876   5.484   3.028 -1.0436  0.1814 -1.2809
 4946SOL    MW419552   5.936   5.492   2.965  0.2478 -0.2407  0.1045
 4947SOL     OW19553   3.277   3.821   3.914 -0.3231 -0.1598  0.1423
 4947SOL    HW219554   3.276   3.782   3.827  0.0514 -0.3054  0.2006
 4947SOL    HW319555   3.352   3.881   3.913 -0.6018  0.1906  0.2119
 4947SOL    MW419556   3.287   3.824   3.903 -0.0116  0.6130 -0.2620
 4948SOL     OW19557   2.852   0.221   5.649 -0.1383 -0.2192 -0.2535
 4948SOL    HW219558   2.771   0.190   5.690 -0.3342 -0.6343 -0.9378
 4948SOL    HW319559   2.824   0.288   5.587  0.2135  0.8084  0.6587
 4948SOL    MW419560   2.838   0.226   5.646 -0.3791 -0.5252 -0.3246
 4949SOL     OW19561   5.028   0.319   0.420  0.3393 -0.1060 -0.4851
 4949SOL    HW219562   5.064   0.370   0.348  2.0291 -0.8927 -0.2349
 4949SOL    HW319563   5.068   0.356   0.499 -1.8687  1.0768  0.1675
 4949SOL    MW419564   5.038   0.331   0.421  0.4592 -0.1206  0.4369
 4950SOL     OW19565   5.013   1.100   0.850  0.5908 -0.5642  0.1773
 4950SOL    HW219566   5.102   1.073   0.827  1.4534  2.1877 -0.0096
 4950SOL    HW319567   4.977   1.135   0.769  0.5050  1.2122  0.9449
 4950SOL    MW419568   5.020   1.101   0.836  0.2447  0.0174 -0.0389
 4951SOL     OW19569   1.026   4.769   5.277  0.9472  0.3657  0.3048
 4951SOL    HW219570   0.939   4.808   5.278  0.4174 -0.7374 -0.3727
 4951SOL    HW319571   1.077   4.821   5.339 -0.2030  1.0043  0.7410
 4951SOL    MW419572   1.021   4.781   5.285 -0.1997 -0.3845 -0.5754
 4952SOL     OW19573   0.301   3.945   4.362 -0.7035  0.1952 -0.0558
 4952SOL    HW219574   0.353   4.012   4.406 -1.6019  2.7082 -2.5360
 4952SOL    HW319575   0.338   3.939   4.274 -1.6776 -1.4376 -0.4011
 4952SOL    MW419576   0.313   3.953   4.356  0.4354  0.3227  0.2129
 4953SOL     OW19577   0.934   5.370   5.795  0.4093  0.0015  0.0242
 4953SOL    HW219578   0.949   5.373   5.890 -2.4699 -0.8217  0.6013
 4953SOL    HW319579   0.992   5.437   5.760  1.9165  0.0138  2.3041
 4953SOL    MW419580   0.944   5.379   5.803  0.5898 -0.3703 -0.4601
 4954SOL     OW19581   5.004   3.747   0.948 -0.4844  0.3035  0.3164
 4954SOL    HW219582   5.002   3.801   0.869  3.1866 -1.2768 -1.0474
 4954SOL    HW319583   5.067   3.789   1.006  0.9596 -1.3837  0.0524
 4954SOL    MW419584   5.012   3.759   0.945  0.7431  0.4328 -0.0686
 4955SOL     OW19585   2.379   4.935   4.824 -0.2551  0.2245 -0.2703
 4955SOL    HW219586   2.356   5.025   4.849 -0.3637  0.3130 -0.6799
 4955SOL    HW319587   2.321   4.916   4.750 -0.5554 -0.3467  0.1104
 4955SOL    MW419588   2.368   4.945   4.818  0.1686  0.3628 -0.5325
 4956SOL     OW19589   2.361   5.585   4.505 -0.2178 -0.0708  0.1689
 4956SOL    HW219590   2.272   5.615   4.487  0.1115  1.0046  0.2600
 4956SOL    HW319591   2.392   5.551   4.421 -0.3496  0.5135 -0.1189
 4956SOL    MW419592   2.353   5.584   4.491  0.3910  0.6434 -0.0005
 4957SOL     OW19593   4.120   5.214   3.128  0.2213  0.3368 -0.2582
 4957SOL    HW219594   4.133   5.300   3.169 -1.3612  1.1759 -1.3574
 4957SOL    HW319595   4.101   5.155   3.201 -2.0008  1.6714  0.3636
 4957SOL    MW419596   4.119   5.218   3.143  0.1288  0.2160 -0.1921
 4958SOL     OW19597   3.575   6.170   2.099  0.4154  0.2617  0.1374
 4958SOL    HW219598   3.632   6.203   2.029 -0.1505 -0.4787 -0.6904
 4958SOL    HW319599   3.604   6.216   2.178 -1.3135  4.0366 -1.1818
 4958SOL    MW419600   3.586   6.181   2.100  0.0611  0.3492  0.0288
 4959SOL     OW19601   2.760   5.616   4.868  0.0538  0.0490  0.0507
 4959SOL    HW219602   2.813   5.536   4.870 -0.0568 -0.1280 -2.0627
 4959SOL    HW319603   2.741   5.630   4.776  0.0538  2.5401  0.3698
 4959SOL    MW419604   2.765   5.607   4.856  0.0145 -0.0905 -0.8250
 4960SOL     OW19605   6.334   6.021   5.468 -0.9028  0.1268 -0.3267
 4960SOL    HW219606   6.300   6.101   5.427 -0.3860 -0.5649 -2.2534
 4960SOL    HW319607   6.359   5.966   5.394  2.3609 -0.2890  0.9174
 4960SOL    MW419608   6.333   6.025   5.453  0.0732  0.1413  0.4465
 4961SOL     OW19609   5.428   3.880   1.889  0.2023  0.3271  0.1179
 4961SOL    HW219610   5.334   3.864   1.887  0.2564 -0.3307  1.5767
 4961SOL    HW319611   5.457   3.864   1.799 -1.2978  2.1531 -0.7536
 4961SOL    MW419612   5.419   3.876   1.876 -0.3582 -0.1828 -0.1030
 4962SOL     OW19613   6.199   5.871   5.050 -0.0509  0.1770  0.2198
 4962SOL    HW219614   6.148   5.833   5.121  1.5785 -1.6221  0.5374
 4962SOL    HW319615   6.159   5.835   4.970 -1.2114  1.3396  0.2482
 4962SOL    MW419616   6.187   5.861   5.049 -0.1113  0.3330  0.3147
 4963SOL     OW19617   3.052   1.979   2.495  0.3096 -0.3662  0.0734
 4963SOL    HW219618   2.991   2.023   2.555  0.3510 -0.5501  0.2494
 4963SOL    HW319619   3.063   2.042   2.424  0.2539 -0.1493  0.2522
 4963SOL    MW419620   3.045   1.993   2.494  0.5068 -0.5010  0.5001
 4964SOL     OW19621   3.694   4.344   0.736 -0.1164 -0.7099 -0.0724
 4964SOL    HW219622   3.626   4.279   0.716 -0.0702 -1.9151  3.1246
 4964SOL    HW319623   3.676   4.371   0.826  2.4526  0.4313  0.1869
 4964SOL    MW419624   3.683   4.339   0.745  0.8756 -0.0093 -0.2439
 4965SOL     OW19625   4.437   1.185   4.459 -0.5834  0.5540 -0.1481
 4965SOL    HW219626   4.518   1.194   4.410 -0.2143 -0.0809  0.3348
 4965SOL    HW319627   4.369   1.216   4.399 -0.0826  0.2746 -0.8694
 4965SOL    MW419628   4.439   1.190   4.445 -0.2388 -0.0566 -0.0306
 4966SOL     OW19629   4.623   5.273   4.563  0.0103 -0.4107 -0.3800
 4966SOL    HW219630   4.697   5.286   4.623  0.9724 -2.1250 -1.1091
 4966SOL    HW319631   4.547   5.304   4.611  1.1101  0.8068  0.6571
 4966SOL    MW419632   4.623   5.279   4.577 -0.3801 -0.0976 -0.1184
 4967SOL     OW19633   0.725   0.686   5.235 -0.1900 -0.1270 -0.2256
 4967SOL    HW219634   0.726   0.756   5.300 -2.2931  0.9186 -1.2004
 4967SOL    HW319635   0.816   0.673   5.211  0.3525  1.5144  0.7970
 4967SOL    MW419636   0.737   0.693   5.241  0.3310  0.0275 -0.0451
 4968SOL     OW19637   5.365   1.704   0.868  0.2778 -0.3552  0.1081
 4968SOL    HW219638   5.365   1.713   0.773 -0.2721  0.5210  0.1790
 4968SOL    HW319639   5.441   1.755   0.897 -1.0332  1.5901  0.2937
 4968SOL    MW419640   5.375   1.712   0.860 -0.1007  0.1360 -0.4008
 4969SOL     OW19641   2.487   4.570   1.470  0.7282 -0.1499 -0.1940
 4969SOL    HW219642   2.467   4.491   1.419  0.8093 -0.2037 -0.1420
 4969SOL    HW319643   2.570   4.551   1.513  0.3550 -0.3449  0.4526
 4969SOL    MW419644   2.495   4.557   1.469 -0.2663  0.0098 -0.3316
 4970SOL     OW19645   3.234   2.538   3.161 -0.5506 -0.1786  0.2528
 4970SOL    HW219646   3.240   2.556   3.067 -1.3259  0.6072  0.3473
 4970SOL    HW319647   3.290   2.462   3.174  1.4932  1.1394 -0.4404
 4970SOL    MW419648   3.242   2.530   3.150  0.0533 -0.2398 -0.3587
 4971SOL     OW19649   5.760   3.959   5.251  0.5311  1.3051 -0.3093
 4971SOL    HW219650   5.794   3.938   5.164  1.5025  1.8331 -0.0749
 4971SOL    HW319651   5.668   3.933   5.248  0.2555  2.3325 -1.8695
 4971SOL    MW419652   5.752   3.953   5.239 -0.1811 -0.2921  0.0573
 4972SOL     OW19653   2.960   3.484   6.419 -0.6404  0.4824  0.5680
 4972SOL    HW219654   3.024   3.413   6.414 -0.1081  0.7409  2.7189
 4972SOL    HW319655   2.877   3.442   6.396 -0.0125 -0.3021 -0.3598
 4972SOL    MW419656   2.957   3.469   6.415 -0.0077  0.3063  0.5821
 4973SOL     OW19657   1.207   0.920   2.627  0.4362 -0.4035 -0.0790
 4973SOL    HW219658   1.289   0.872   2.615 -0.7275 -2.6937  0.3979
 4973SOL    HW319659   1.189   0.958   2.541  1.7308 -0.2767 -0.3165
 4973SOL    MW419660   1.215   0.919   2.614  0.0877 -0.1758 -0.2808
 4974SOL     OW19661   0.962   0.732   0.422  0.5098  0.3352  0.2151
 4974SOL    HW219662   0.985   0.815   0.464 -0.4367  0.0606  1.3098
 4974SOL    HW319663   0.867   0.736   0.411  0.4753 -0.5324  0.1045
 4974SOL    MW419664   0.952   0.744   0.426 -0.0859 -0.4533  0.5441
 4975SOL     OW19665   3.249   3.120   4.853 -0.0782  0.2568 -0.2110
 4975SOL    HW219666   3.188   3.052   4.882 -0.2705 -0.0944 -1.3655
 4975SOL    HW319667   3.330   3.072   4.835  0.2887  0.5923  0.5097
 4975SOL    MW419668   3.252   3.104   4.854  0.2528 -0.1293 -0.1129
 4976SOL     OW19669   1.078   3.828   2.312 -0.0128  0.4869 -0.3236
 4976SOL    HW219670   1.008   3.882   2.349  1.2366  1.4277  0.7558
 4976SOL    HW319671   1.089   3.756   2.375  0.5030  0.7806 -0.0658
 4976SOL    MW419672   1.070   3.826   2.325  0.0927  0.2850  0.2573
 4977SOL     OW19673   2.468   6.152   5.589  0.2473 -0.2142  0.3111
 4977SOL    HW219674   2.422   6.228   5.624 -0.8790 -0.1910 -1.1035
 4977SOL    HW319675   2.561   6.173   5.599  0.0725 -0.4939  3.7463
 4977SOL    MW419676   2.474   6.165   5.595  0.6982 -0.0736  0.1812
 4978SOL     OW19677   4.808   5.631   2.601  0.0309 -0.3364  0.1007
 4978SOL    HW219678   4.840   5.716   2.571  0.0351 -0.8617 -1.4685
 4978SOL    HW319679   4.753   5.652   2.677 -1.0196  1.2130 -1.0129
 4978SOL    MW419680   4.805   5.645   2.607  0.0546 -0.5298 -0.3081
 4979SOL     OW19681   2.365   4.526   2.907  0.4929  0.4914  0.2753
 4979SOL    HW219682   2.291   4.523   2.967  0.8739 -0.6657  0.7160
 4979SOL    HW319683   2.349   4.603   2.853 -0.7591  0.5578  0.7104
 4979SOL    MW419684   2.353   4.536   2.907  0.5009  0.3956 -0.3650
 4980SOL     OW19685   5.635   1.192   2.359  0.1064  0.0423  0.6425
 4980SOL    HW219686   5.602   1.253   2.293  0.5007  0.3935  0.7589
 4980SOL    HW319687   5.575   1.118   2.357 -0.4219  0.4669  0.5425
 4980SOL    MW419688   5.623   1.190   2.350 -0.4475  0.2935  0.0722
 4981SOL     OW19689   0.694   5.298   5.340  0.8381 -0.7193  0.3391
 4981SOL    HW219690   0.646   5.302   5.422 -0.9644  0.2055 -0.6928
 4981SOL    HW319691   0.723   5.388   5.325  0.2119 -0.6503 -0.5450
 4981SOL    MW419692   0.692   5.311   5.349 -0.2754 -0.2041  0.0039
 4982SOL     OW19693   3.124   4.907   2.693  0.3991 -0.1545  0.2127
 4982SOL    HW219694   3.098   4.902   2.602  0.5869  0.3252  0.1273
 4982SOL    HW319695   3.095   4.994   2.722  1.0806  0.0305  0.3670
 4982SOL    MW419696   3.117   4.918   2.685  0.7360  0.1571  0.2683
 4983SOL     OW19697   1.409   6.391   0.869  0.2565  0.4884  0.6011
 4983SOL    HW219698   1.349   6.455   0.830  1.9402  1.0886 -1.1836
 4983SOL    HW319699   1.469   6.443   0.921  0.4666  0.1327  0.7156
 4983SOL    MW419700   1.409   6.406   0.871 -0.0326  0.0453  0.0764
 4984SOL     OW19701   1.456   0.648   1.217 -0.8565 -0.0609  0.1586
 4984SOL    HW219702   1.393   0.712   1.248 -0.2091  0.4035  0.5225
 4984SOL    HW319703   1.437   0.569   1.268 -1.1595  0.0649  0.2438
 4984SOL    MW419704   1.445   0.646   1.228 -0.2474 -0.7357  0.7738
 4985SOL     OW19705   0.339   5.429   1.139 -0.2557  0.0723  0.1534
 4985SOL    HW219706   0.323   5.424   1.045  1.3176 -0.2184 -0.1331
 4985SOL    HW319707   0.422   5.476   1.147 -1.1836  1.5720  1.5026
 4985SOL    MW419708   0.348   5.434   1.127 -0.2403  0.2798  0.0877
 4986SOL     OW19709   2.590   1.784   3.319  0.0600 -0.5497 -0.2418
 4986SOL    HW219710   2.609   1.856   3.379 -0.3366 -1.4096  0.9468
 4986SOL    HW319711   2.648   1.799   3.244 -0.0265  1.0066 -0.0280
 4986SOL    MW419712   2.600   1.796   3.317 -0.4466 -0.4493  0.3374
 4987SOL     OW19713   2.335   1.231   4.568 -0.5807  0.6555  0.7968
 4987SOL    HW219714   2.330   1.236   4.472 -0.6330 -0.7917  0.7043
 4987SOL    HW319715   2.416   1.279   4.590 -0.0891  0.2430 -0.0521
 4987SOL    MW419716   2.345   1.238   4.558 -0.3338  0.5265 -0.0200
 4988SOL     OW19717   5.704   6.199   1.094  0.4900  0.0089 -0.5599
 4988SOL    HW219718   5.753   6.145   1.032  1.0627 -0.6728  0.4585
 4988SOL    HW319719   5.701   6.147   1.174  0.4910  1.2077  0.2440
 4988SOL    MW419720   5.710   6.185   1.096  0.2413 -0.4703 -0.0103
 4989SOL     OW19721   5.084   2.566   0.564  0.2122  0.0718  0.0051
 4989SOL    HW219722   5.162   2.511   0.563 -0.0697 -0.3250 -0.5313
 4989SOL    HW319723   5.011   2.505   0.559 -0.0829  0.5221 -2.7344
 4989SOL    MW419724   5.085   2.551   0.563 -0.7249 -0.8335 -0.0585
 4990SOL     OW19725   0.319   3.300   2.793  0.0633  0.0129  0.1159
 4990SOL    HW219726   0.339   3.377   2.738 -0.0883  0.3926  0.5869
 4990SOL    HW319727   0.224   3.302   2.803 -0.1277 -1.1505 -1.1839
 4990SOL    MW419728   0.309   3.311   2.787 -0.3773  0.2866 -0.0136
 4991SOL     OW19729   2.833   3.692   4.487 -0.2916  0.3950  0.0666
 4991SOL    HW219730   2.850   3.599   4.505 -2.1411  0.0106 -0.0280
 4991SOL    HW319731   2.897   3.738   4.542  1.4192 -0.9139 -0.7163
 4991SOL    MW419732   2.844   3.686   4.497 -0.4430 -0.2022 -0.0759
 4992SOL     OW19733   3.065   1.435   4.616  0.1822  0.4163  0.3833
 4992SOL    HW219734   3.071   1.339   4.613  1.1039  0.3969  1.8126
 4992SOL    HW319735   3.155   1.464   4.628 -0.3167  1.3085  2.3824
 4992SOL    MW419736   3.077   1.426   4.617 -0.0577 -0.0102 -0.6046
 4993SOL     OW19737   5.754   1.183   1.272  0.2654  0.0937  0.4823
 4993SOL    HW219738   5.787   1.207   1.185  1.0812 -0.0727  0.7417
 4993SOL    HW319739   5.820   1.124   1.307  0.3379  0.7820  1.5406
 4993SOL    MW419740   5.767   1.179   1.265  0.9487 -0.0143  0.8071
 4994SOL     OW19741   5.844   4.438   3.474  0.6514 -0.0858  0.6407
 4994SOL    HW219742   5.786   4.424   3.399  0.4791  4.7715 -0.4555
 4994SOL    HW319743   5.786   4.445   3.549  0.2465  0.4264  0.2834
 4994SOL    MW419744   5.829   4.437   3.474 -0.1520  0.2056  0.0170
 4995SOL     OW19745   0.903   2.759   3.697  0.3084 -0.1110  0.0283
 4995SOL    HW219746   0.818   2.732   3.663  0.2554  0.7296 -0.5313
 4995SOL    HW319747   0.959   2.766   3.620  0.1462  1.9774  0.0296
 4995SOL    MW419748   0.899   2.757   3.683  0.3411  0.0594  0.2154
 4996SOL     OW19749   0.879   3.028   2.638  0.5580  0.3740 -0.3029
 4996SOL    HW219750   0.825   2.980   2.700  0.7023 -0.0792 -0.5238
 4996SOL    HW319751   0.864   3.120   2.659 -0.7892  0.2767 -0.7773
 4996SOL    MW419752   0.870   3.034   2.649 -0.4390 -0.0865  0.1349
 4997SOL     OW19753   4.648   1.589   1.422 -0.3620 -1.0109 -0.5265
 4997SOL    HW219754   4.591   1.615   1.349 -0.7560 -2.2807 -0.6873
 4997SOL    HW319755   4.718   1.539   1.381  0.5855  0.0359 -0.2554
 4997SOL    MW419756   4.650   1.586   1.407  0.4282  0.3807 -0.8252
 4998SOL     OW19757   3.257   1.394   2.633  0.2944 -0.3023  0.3391
 4998SOL    HW219758   3.174   1.436   2.607  1.7804  2.3081 -0.6241
 4998SOL    HW319759   3.297   1.457   2.694  1.6900 -1.3858  0.5890
 4998SOL    MW419760   3.251   1.408   2.638  0.7602 -0.4857 -1.0644
 4999SOL     OW19761   4.084   0.715   6.020  0.5651 -0.3007  0.3914
 4999SOL    HW219762   4.002   0.703   5.973  1.0505 -0.0247 -0.5524
 4999SOL    HW319763   4.058   0.747   6.106 -0.2180  3.5955 -1.0994
 4999SOL    MW419764   4.070   0.718   6.025  0.0707 -0.3508 -0.2600
 5000SOL     OW19765   5.581   2.478   2.203 -0.6795 -0.2009 -0.4020
 5000SOL    HW219766   5.628   2.494   2.121  0.7886 -0.2083  0.4191
 5000SOL    HW319767   5.491   2.507   2.184  0.1068  1.8168 -1.3687
 5000SOL    MW419768   5.575   2.484   2.189  0.0550  0.7592  0.5444
 5001SOL     OW19769   5.781   3.536   2.422 -0.0192  0.0573  0.7011
 5001SOL    HW219770   5.759   3.629   2.416 -2.4708 -0.5097 -0.0127
 5001SOL    HW319771   5.701   3.490   2.399  1.0229 -2.2758  1.3762
 5001SOL    MW419772   5.768   3.542   2.418 -0.0299  0.0658 -0.3871
 5002SOL     OW19773   3.966   0.769   4.150 -0.1251 -0.5465 -0.3018
 5002SOL    HW219774   4.018   0.820   4.212 -0.6707 -0.4147  0.0526
 5002SOL    HW319775   4.020   0.765   4.071 -0.0865  0.6071 -0.3520
 5002SOL    MW419776   3.980   0.775   4.148  0.6592  0.3118 -0.1229
 5003SOL     OW19777   4.703   4.321   0.232 -0.0679  0.1492  0.6237
 5003SOL    HW219778   4.798   4.312   0.225 -0.1092 -1.2832  1.5767
 5003SOL    HW319779   4.690   4.413   0.255  1.0217  0.5573 -0.2811
 5003SOL    MW419780   4.714   4.332   0.234 -0.1728 -0.2480  0.1489
 5004SOL     OW19781   6.281   2.014   3.518 -1.0410  0.1445 -0.4887
 5004SOL    HW219782   6.304   2.056   3.601  0.5352 -1.7739  0.1291
 5004SOL    HW319783   6.241   2.084   3.466  2.8437  2.9275 -0.1824
 5004SOL    MW419784   6.279   2.029   3.522 -0.0249 -0.5897  0.1007
 5005SOL     OW19785   3.100   3.618   2.704  0.2581 -0.1106 -0.1378
 5005SOL    HW219786   3.038   3.652   2.641  0.6711  0.3531 -0.3020
 5005SOL    HW319787   3.077   3.525   2.714 -0.1587 -0.0505 -0.5404
 5005SOL    MW419788   3.089   3.610   2.697 -0.6621 -0.2057 -0.9194
 5006SOL     OW19789   4.553   0.162   2.567 -0.0979 -0.0594  0.4897
 5006SOL    HW219790   4.596   0.242   2.538 -2.3141  1.1732  0.4315
 5006SOL    HW319791   4.586   0.094   2.508 -0.7757  1.4679 -1.7403
 5006SOL    MW419792   4.563   0.163   2.556  0.1478 -0.5079 -0.2097
 5007SOL     OW19793   4.590   0.595   4.701  0.1995 -0.4671 -0.7232
 5007SOL    HW219794   4.546   0.579   4.785  0.3633  1.1035 -0.3177
 5007SOL    HW319795   4.660   0.656   4.721 -1.2209  1.8697 -2.3334
 5007SOL    MW419796   4.593   0.601   4.715 -0.2791  0.4034  0.2811
 5008SOL     OW19797   2.366   1.267   0.620 -0.0938  0.2655 -0.4231
 5008SOL    HW219798   2.442   1.209   0.619  0.0593  0.4057  1.3478
 5008SOL    HW319799   2.292   1.210   0.640 -0.2700  0.3385 -0.8561
 5008SOL    MW419800   2.366   1.252   0.622  0.2322  0.0081  0.0619
 5009SOL     OW19801   3.803   1.594   3.875 -0.2786  0.3079  0.1614
 5009SOL    HW219802   3.734   1.571   3.937  0.1537  0.1028  0.5773
 5009SOL    HW319803   3.845   1.672   3.913 -0.1189  0.2809  0.0444
 5009SOL    MW419804   3.800   1.601   3.888 -0.1441 -0.1853  0.8571
 5010SOL     OW19805   1.282   3.796   5.001  0.2009  0.1386  0.3255
 5010SOL    HW219806   1.226   3.719   5.005  0.2736 -0.0115 -0.9063
 5010SOL    HW319807   1.264   3.834   4.915  1.7510  0.2510  0.0091
 5010SOL    MW419808   1.272   3.791   4.990 -0.0646 -0.6265  0.2236
 5011SOL     OW19809   6.084   3.233   2.912 -0.2407 -0.4566 -0.1504
 5011SOL    HW219810   6.158   3.275   2.956  0.7682 -1.6310 -0.6438
 5011SOL    HW319811   6.091   3.140   2.936 -1.6933 -0.5665 -0.0497
 5011SOL    MW419812   6.095   3.226   2.921  0.4782  0.3548  0.5001
 5012SOL     OW19813   5.971   3.248   0.294 -0.1565  0.1606 -0.3107
 5012SOL    HW219814   6.013   3.290   0.369  0.6136 -3.3405  1.4436
 5012SOL    HW319815   5.883   3.284   0.291  0.9733  3.2113 -0.2593
 5012SOL    MW419816   5.965   3.258   0.303 -0.0614  0.3538  0.0236
 5013SOL     OW19817   3.526   2.442   1.038  0.1464 -0.1897  0.3682
 5013SOL    HW219818   3.591   2.511   1.029  0.6524 -0.7767 -0.5654
 5013SOL    HW319819   3.469   2.452   0.961  0.4152 -1.0050  0.0541
 5013SOL    MW419820   3.527   2.453   1.027  0.5399  0.2770  0.1260
 5014SOL     OW19821   5.630   5.414   0.253 -0.0919 -0.4461 -0.8180
 5014SOL    HW219822   5.595   5.439   0.339  2.9800 -0.4914  0.5598
 5014SOL    HW319823   5.651   5.321   0.262 -0.5901 -0.7040 -2.0029
 5014SOL    MW419824   5.628   5.405   0.266 -0.0866 -0.4326 -0.1552
 5015SOL     OW19825   2.896   0.774   1.220 -0.3739  0.7588 -0.3156
 5015SOL    HW219826   2.878   0.720   1.142 -0.8821  0.6226 -0.1075
 5015SOL    HW319827   2.992   0.782   1.221 -0.3177  0.2209 -0.5950
 5015SOL    MW419828   2.906   0.768   1.210 -0.1349  0.0476  0.4484
 5016SOL     OW19829   4.237   4.673   0.510 -0.0625 -0.1362  0.0973
 5016SOL    HW219830   4.311   4.640   0.561  1.0111 -0.3999 -1.5714
 5016SOL    HW319831   4.217   4.758   0.549  1.4750  0.1810  0.2415
 5016SOL    MW419832   4.244   4.680   0.522  0.6353  0.8396  0.8828
 5017SOL     OW19833   0.398   1.952   1.898  0.1528 -0.3066  0.2072
 5017SOL    HW219834   0.338   1.919   1.831  1.2532 -1.3425 -0.3062
 5017SOL    HW319835   0.352   1.938   1.981 -0.9154  0.3029 -0.2646
 5017SOL    MW419836   0.384   1.946   1.900  0.0312  0.0740 -0.0640
 5018SOL     OW19837   3.897   2.191   3.619  0.1392 -0.1129  0.3170
 5018SOL    HW219838   3.841   2.135   3.672  1.1433 -0.4576  1.0386
 5018SOL    HW319839   3.843   2.269   3.601 -0.7761 -0.6981  0.4593
 5018SOL    MW419840   3.882   2.194   3.623  0.3177 -0.2609  0.0363
 5019SOL     OW19841   4.171   1.747   4.435  0.5965  0.1629  0.2646
 5019SOL    HW219842   4.109   1.758   4.363 -0.2830 -1.1775  0.7887
 5019SOL    HW319843   4.151   1.819   4.496  0.0308  0.1479  0.0956
 5019SOL    MW419844   4.161   1.758   4.434 -0.0115  0.3130  0.2574
 5020SOL     OW19845   2.360   0.948   3.375  0.2501 -0.4790  0.0793
 5020SOL    HW219846   2.276   0.905   3.361 -1.2181  1.6463  1.5971
 5020SOL    HW319847   2.398   0.904   3.451  1.1862 -2.2797 -1.3650
 5020SOL    MW419848   2.354   0.937   3.384  0.0527 -0.0095  0.1086
 5021SOL     OW19849   5.354   0.289   5.610 -0.4128  0.1411  0.2588
 5021SOL    HW219850   5.352   0.231   5.533  0.7021 -1.1564  1.1438
 5021SOL    HW319851   5.384   0.373   5.575 -1.2644 -0.0223 -0.9370
 5021SOL    MW419852   5.358   0.292   5.595 -0.0478 -0.4637  0.2482
 5022SOL     OW19853   4.319   5.119   0.528 -0.1179 -0.1521  0.5254
 5022SOL    HW219854   4.322   5.044   0.468  0.6047 -0.0807  0.4656
 5022SOL    HW319855   4.374   5.094   0.602 -0.8934 -0.1799  1.0986
 5022SOL    MW419856   4.327   5.106   0.530 -0.3792 -0.0210 -0.4082
 5023SOL     OW19857   4.945   2.181   4.763  0.2751 -0.4387 -0.1069
 5023SOL    HW219858   4.889   2.137   4.826  0.8164  1.7192  2.0341
 5023SOL    HW319859   4.885   2.229   4.706 -0.2137 -2.3670 -1.3191
 5023SOL    MW419860   4.930   2.182   4.764  0.2707  0.0140  0.1844
 5024SOL     OW19861   3.209   1.209   6.112  1.1458  0.6737  0.6717
 5024SOL    HW219862   3.125   1.226   6.154  1.4305  3.9498  0.1753
 5024SOL    HW319863   3.202   1.251   6.026  2.2923 -1.6044 -0.6290
 5024SOL    MW419864   3.197   1.217   6.106 -0.4623 -0.4689  0.1152
 5025SOL     OW19865   6.307   1.507   6.020  0.1577  0.0177 -0.3319
 5025SOL    HW219866   6.297   1.589   6.069  3.2837  0.4406 -0.1549
 5025SOL    HW319867   6.309   1.440   6.088  2.3916  0.3834  0.0358
 5025SOL    MW419868   6.306   1.509   6.036  0.6224 -0.2235  0.3561
 5026SOL     OW19869   5.165   3.411   2.540  0.7820 -0.2932 -0.2142
 5026SOL    HW219870   5.239   3.472   2.547  0.1507  0.3127  1.9182
 5026SOL    HW319871   5.113   3.445   2.467 -0.3368  2.7237  1.8095
 5026SOL    MW419872   5.168   3.423   2.531  0.0574  0.7322  0.4183
 5027SOL     OW19873   4.589   2.038   2.961  0.5196  0.1997 -0.3584
 5027SOL    HW219874   4.563   2.002   3.046 -0.2713 -0.0463 -0.6944
 5027SOL    HW319875   4.509   2.034   2.908  1.6461 -2.2781 -2.0308
 5027SOL    MW419876   4.575   2.033   2.965 -0.3665  0.3362 -0.7389
 5028SOL     OW19877   1.683   0.521   3.907 -0.1507 -0.1864 -0.8645
 5028SOL    HW219878   1.756   0.583   3.914  0.1528 -0.3677 -2.0673
 5028SOL    HW319879   1.682   0.476   3.991  0.0012  1.0261 -0.1798
 5028SOL    MW419880   1.693   0.523   3.919 -0.1046  0.0252  0.2578
 5029SOL     OW19881   0.275   4.353   1.795 -0.0994 -0.1638  0.3052
 5029SOL    HW219882   0.345   4.302   1.834 -0.8220 -2.5478 -1.2939
 5029SOL    HW319883   0.197   4.331   1.846 -0.2990 -0.1621  0.0058
 5029SOL    MW419884   0.274   4.343   1.807 -0.0966  0.2403 -0.1519
 5030SOL     OW19885   5.362   1.076   4.203  0.2162 -0.2205 -0.5333
 5030SOL    HW219886   5.373   1.130   4.124 -0.4220  2.1427  0.8959
 5030SOL    HW319887   5.428   1.109   4.264 -0.8070 -0.4293  0.7202
 5030SOL    MW419888   5.372   1.087   4.200  0.5236 -0.2007  0.7789
 5031SOL     OW19889   5.460   0.017   2.620 -0.0401 -0.1863 -0.0642
 5031SOL    HW219890   5.513   0.095   2.605 -0.2629  0.0118  0.1727
 5031SOL    HW319891   5.472  -0.036   2.541  0.5463 -0.1661  0.0073
 5031SOL    MW419892   5.469   0.020   2.607  0.0460 -0.0207  0.0631
 5032SOL     OW19893   3.813   3.972   1.746 -0.0357 -0.3897 -0.4284
 5032SOL    HW219894   3.776   4.017   1.823  2.5226 -0.3128  0.8602
 5032SOL    HW319895   3.764   3.889   1.742 -1.6479  0.4967 -0.0211
 5032SOL    MW419896   3.801   3.967   1.756 -0.6045 -0.3400 -0.3604
 5033SOL     OW19897   0.675   5.415   2.480 -0.4610  0.3002 -0.3900
 5033SOL    HW219898   0.748   5.461   2.523 -1.1300  1.5576 -0.5465
 5033SOL    HW319899   0.611   5.402   2.550 -2.5929  4.4487 -1.2255
 5033SOL    MW419900   0.676   5.420   2.495  0.0142  0.1333  0.7090
 5034SOL     OW19901   5.666   2.903   4.668  0.2172  0.0304  0.2509
 5034SOL    HW219902   5.709   2.980   4.704  1.6008 -0.6225  0.0586
 5034SOL    HW319903   5.704   2.829   4.715 -1.2427 -0.5439  0.5812
 5034SOL    MW419904   5.676   2.904   4.679 -0.0702  0.1286 -0.8342
 5035SOL     OW19905   2.131   4.065   4.436 -0.2729  0.5095 -0.1351
 5035SOL    HW219906   2.100   3.990   4.385  0.6813 -0.0823  0.1289
 5035SOL    HW319907   2.226   4.058   4.433 -0.1824  1.2605  0.5740
 5035SOL    MW419908   2.139   4.055   4.429  0.3246  0.4430  0.5844
 5036SOL     OW19909   0.402   5.098   0.263 -0.0993  0.4927 -0.1854
 5036SOL    HW219910   0.497   5.104   0.251 -0.1003  1.8773  0.3081
 5036SOL    HW319911   0.373   5.189   0.264 -1.2112  0.1420  1.4154
 5036SOL    MW419912   0.411   5.111   0.261 -0.7262 -0.6138  0.4290
 5037SOL     OW19913   4.127   2.695   2.934  0.3294  0.2351  0.1336
 5037SOL    HW219914   4.152   2.639   2.861  2.7287 -0.5440  1.4574
 5037SOL    HW319915   4.072   2.763   2.895 -0.2105 -1.3305 -1.9970
 5037SOL    MW419916   4.123   2.697   2.919  0.2180 -0.4314 -0.5203
 5038SOL     OW19917   4.615   2.191   4.405 -0.4563 -0.4338  0.4183
 5038SOL    HW219918   4.702   2.162   4.435  0.4271 -0.1924 -1.6816
 5038SOL    HW319919   4.555   2.122   4.434  1.1603 -3.1011 -1.9399
 5038SOL    MW419920   4.619   2.178   4.413  0.2634 -0.0971 -0.1825
 5039SOL     OW19921   4.495   1.961   4.798 -0.1608  0.3968  0.0250
 5039SOL    HW219922   4.447   2.021   4.741  1.6908  2.3131  0.3304
 5039SOL    HW319923   4.491   2.002   4.885  2.1560  0.8180  0.0032
 5039SOL    MW419924   4.488   1.974   4.802 -0.0884  0.5298  0.0150
 5040SOL     OW19925   5.469   2.061   1.814 -0.3282  0.6560  0.6722
 5040SOL    HW219926   5.553   2.100   1.792  0.2352 -1.4649 -1.3893
 5040SOL    HW319927   5.411   2.087   1.744 -0.2557 -1.0913 -0.0906
 5040SOL    MW419928   5.473   2.069   1.802 -0.0212 -0.5620 -0.2263
 5041SOL     OW19929   1.687   5.795   0.153 -0.2234  0.3179 -0.2867
 5041SOL    HW219930   1.608   5.794   0.098 -0.9160  0.8318  0.6663
 5041SOL    HW319931   1.677   5.718   0.209  0.8038 -0.5774 -1.2994
 5041SOL    MW419932   1.675   5.784   0.153  0.1630  0.6588  0.1610
 5042SOL     OW19933   5.881   3.125   5.754  0.3725  0.2947 -0.5323
 5042SOL    HW219934   5.938   3.061   5.712 -0.6003 -1.4554  0.6476
 5042SOL    HW319935   5.801   3.123   5.702  0.0740 -0.0283 -0.0751
 5042SOL    MW419936   5.878   3.116   5.742 -0.6375  0.0963  0.3404
 5043SOL     OW19937   4.499   3.217   2.461 -0.7067 -0.3009  0.3271
 5043SOL    HW219938   4.544   3.207   2.545 -1.3153 -0.6924  0.6114
 5043SOL    HW319939   4.558   3.272   2.409  0.4390 -1.3813  0.4350
 5043SOL    MW419940   4.513   3.223   2.465 -0.0198  0.8142  0.4119
 5044SOL     OW19941   3.197   5.216   6.002 -0.1151  0.3008  0.2102
 5044SOL    HW219942   3.236   5.132   5.979 -0.0263  0.3810  0.0681
 5044SOL    HW319943   3.218   5.273   5.928  0.0821  0.5295  0.4425
 5044SOL    MW419944   3.205   5.212   5.989 -0.0974 -0.0157  0.1736
 5045SOL     OW19945   2.015   5.279   4.027  0.3263  0.3575 -0.7515
 5045SOL    HW219946   2.067   5.310   4.101  0.3495  1.3576 -1.1714
 5045SOL    HW319947   1.934   5.247   4.066  0.7245  0.0069 -0.2124
 5045SOL    MW419948   2.011   5.279   4.042 -0.3126  0.3415  0.0182
 5046SOL     OW19949   0.743   5.606   1.982 -0.3393  0.1208  0.4482
 5046SOL    HW219950   0.683   5.644   1.918 -0.7343 -0.6488  0.3440
 5046SOL    HW319951   0.792   5.541   1.933  4.2271  3.9960 -0.7990
 5046SOL    MW419952   0.741   5.602   1.967  0.4222  0.1999 -0.0536
 5047SOL     OW19953   2.115   2.268   5.832  0.8265  0.3403 -0.5187
 5047SOL    HW219954   2.078   2.212   5.900  1.3742  0.6826  0.0759
 5047SOL    HW319955   2.057   2.256   5.757  0.8941 -0.9624 -0.3884
 5047SOL    MW419956   2.102   2.259   5.831  0.3713 -0.3846  0.0243
 5048SOL     OW19957   3.023   4.953   6.081 -0.3132 -0.3842 -0.3985
 5048SOL    HW219958   3.034   4.991   5.994  1.4019 -0.9909 -0.4810
 5048SOL    HW319959   3.111   4.927   6.107 -0.9167 -0.9412  1.1916
 5048SOL    MW419960   3.036   4.955   6.073  0.1780 -0.3301  0.5663
 5049SOL     OW19961   6.382   3.199   5.881  0.2341  0.4279  0.4715
 5049SOL    HW219962   6.375   3.104   5.890  1.5030  0.2874  0.1188
 5049SOL    HW319963   6.420   3.212   5.794  2.4171  1.1306  1.4563
 5049SOL    MW419964   6.386   3.188   5.871 -0.1524  0.4421  0.2809
 5050SOL     OW19965   3.102   5.635   3.302  0.5161  0.4850  0.3414
 5050SOL    HW219966   3.191   5.647   3.270  0.3959  0.8404  0.1426
 5050SOL    HW319967   3.051   5.702   3.258 -0.5734 -1.8791 -2.3337
 5050SOL    MW419968   3.107   5.645   3.292  0.2840 -0.3968 -0.5496
 5051SOL     OW19969   1.412   0.253   0.371  0.4269 -1.0337  0.4053
 5051SOL    HW219970   1.445   0.339   0.396 -0.0941 -0.9516  0.8512
 5051SOL    HW319971   1.387   0.262   0.279 -1.7904  0.0113  1.0230
 5051SOL    MW419972   1.413   0.266   0.363  0.3856 -0.1092  1.1336
 5052SOL     OW19973   5.796   2.965   0.002 -0.3304 -0.1678  0.3717
 5052SOL    HW219974   5.829   2.876  -0.006 -1.2440 -0.3830 -1.6121
 5052SOL    HW319975   5.701   2.956  -0.003 -0.4151  0.9583 -0.8105
 5052SOL    MW419976   5.788   2.952   0.000 -0.4575 -0.2925  0.0040
 5053SOL     OW19977   2.489   1.373   5.341  0.1510 -0.0116  0.0323
 5053SOL    HW219978   2.503   1.291   5.389 -1.2488 -0.5155 -0.3525
 5053SOL    HW319979   2.532   1.440   5.394  1.9766 -1.0883 -0.0375
 5053SOL    MW419980   2.496   1.371   5.354 -0.6704 -0.1777  0.2521
 5054SOL     OW19981   5.267   4.613   2.832 -0.0647 -0.0927 -0.1143
 5054SOL    HW219982   5.278   4.669   2.755  0.7212  0.5707  0.4739
 5054SOL    HW319983   5.342   4.632   2.887  0.4231 -2.0055 -0.0549
 5054SOL    MW419984   5.278   4.623   2.829 -0.2232 -0.4249 -0.6054
 5055SOL     OW19985   6.344   4.345   4.376 -0.5860 -0.2104 -0.0237
 5055SOL    HW219986   6.430   4.348   4.416 -0.1192 -0.4721 -0.9873
 5055SOL    HW319987   6.294   4.414   4.421  0.9675  1.8949 -1.3842
 5055SOL    MW419988   6.348   4.354   4.388  0.0110 -0.3905 -0.1888
 5056SOL     OW19989   2.476   5.795   0.138 -0.3789  0.4535  0.4992
 5056SOL    HW219990   2.564   5.814   0.104 -1.1127  0.7850 -1.3627
 5056SOL    HW319991   2.491   5.746   0.219  1.5153  0.8745  0.4474
 5056SOL    MW419992   2.490   5.791   0.144 -0.0426 -0.1619 -0.1340
 5057SOL     OW19993   2.794   5.425   5.923  0.0942 -0.3272 -0.0023
 5057SOL    HW219994   2.845   5.501   5.896  0.7820 -0.3441  1.1762
 5057SOL    HW319995   2.844   5.386   5.994 -0.4018 -1.7125 -0.3671
 5057SOL    MW419996   2.807   5.430   5.929  0.1305  0.7931 -0.2145
 5058SOL     OW19997   0.390   5.746   6.018 -0.0006  0.3681  0.3378
 5058SOL    HW219998   0.333   5.822   6.006 -1.5607 -0.5647  1.5507
 5058SOL    HW319999   0.331   5.674   6.039  1.6560 -0.4849  2.4923
 5058SOL    MW420000   0.375   5.746   6.019 -0.7352  0.6975 -0.5899
 5059SOL     OW20001   4.267   3.834   5.707  0.5962 -0.2141 -0.0438
 5059SOL    HW220002   4.274   3.921   5.667  1.3724  0.7221  2.0004
 5059SOL    HW320003   4.185   3.799   5.672  0.4125  1.1940 -1.1586
 5059SOL    MW420004   4.257   3.841   5.697 -0.2178 -0.1062 -0.1243
 5060SOL     OW20005   1.366   5.102   6.237  0.3322 -0.4260  0.1667
 5060SOL    HW220006   1.455   5.135   6.236  0.2635 -0.2579 -1.1056
 5060SOL    HW320007   1.362   5.039   6.165 -0.9394  0.5776 -0.6919
 5060SOL    MW420008   1.377   5.098   6.228 -0.0958  0.0729  0.0899
 5061SOL     OW20009   3.169   4.574   2.530 -0.6058  0.3784 -0.3771
 5061SOL    HW220010   3.235   4.642   2.516 -1.0334  0.6377 -1.2220
 5061SOL    HW320011   3.218   4.492   2.529 -0.1225  0.6519  0.3798
 5061SOL    MW420012   3.184   4.573   2.528  0.6264  0.4960  0.3659
 5062SOL     OW20013   1.476   1.049   2.334  0.0217 -0.0379 -0.7164
 5062SOL    HW220014   1.522   1.004   2.405 -1.0118 -0.0100  0.0049
 5062SOL    HW320015   1.408   1.100   2.378 -0.1159  0.6394 -1.6776
 5062SOL    MW420016   1.473   1.050   2.349  0.4047 -0.4263 -0.2028
 5063SOL     OW20017   0.966   4.326   6.144  0.3807 -0.2749 -0.2098
 5063SOL    HW220018   0.933   4.239   6.123  1.6635 -0.2840 -2.5973
 5063SOL    HW320019   0.898   4.385   6.114  1.0404 -0.3934 -2.0581
 5063SOL    MW420020   0.953   4.322   6.137  0.1337  0.0696 -0.1984
 5064SOL     OW20021   0.432   2.579   1.365 -0.1784 -0.2101 -0.1848
 5064SOL    HW220022   0.500   2.639   1.333 -0.1982 -0.2154 -0.2368
 5064SOL    HW320023   0.369   2.574   1.293  1.3105 -2.6554 -1.4271
 5064SOL    MW420024   0.433   2.586   1.351 -0.5077 -0.3166  0.1456
 5065SOL     OW20025   4.577   2.663   1.757  0.1667  0.0466 -0.2316
 5065SOL    HW220026   4.517   2.677   1.830  0.5070  0.4221 -0.0212
 5065SOL    HW320027   4.520   2.654   1.681 -0.1960 -0.4399  0.0868
 5065SOL    MW420028   4.561   2.663   1.757 -0.6650 -0.0579  0.1704
 5066SOL     OW20029   2.577   5.201   4.189 -0.2287 -0.1235 -0.2770
 5066SOL    HW220030   2.522   5.131   4.155 -0.1088 -0.7162  0.7355
 5066SOL    HW320031   2.642   5.216   4.120 -0.1222 -1.1540 -0.4161
 5066SOL    MW420032   2.578   5.194   4.175  0.3819  0.0659  0.2146
 5067SOL     OW20033   3.264   3.628   5.243  0.0294 -0.5120  0.2440
 5067SOL    HW220034   3.200   3.596   5.306 -0.1280 -0.5254  0.0798
 5067SOL    HW320035   3.342   3.575   5.258 -0.3016 -1.1356 -0.1750
 5067SOL    MW420036   3.266   3.617   5.253 -0.5187  0.0006  0.1661
 5068SOL     OW20037   2.761   3.551   2.098  0.3317  0.1099  0.0424
 5068SOL    HW220038   2.849   3.587   2.110  1.6022 -2.1344 -1.7871
 5068SOL    HW320039   2.726   3.543   2.186  2.2521  0.3939  0.8762
 5068SOL    MW420040   2.768   3.555   2.111  0.0986  0.4173  0.4062
 5069SOL     OW20041   3.166   0.285   4.594  0.4355  0.5153 -0.0439
 5069SOL    HW220042   3.130   0.345   4.528  0.3312 -0.0383 -0.4954
 5069SOL    HW320043   3.090   0.261   4.647  0.1699 -0.4445 -0.8339
 5069SOL    MW420044   3.151   0.290   4.592  0.4077  0.0702 -0.5522
 5070SOL     OW20045   2.359   4.361   2.123 -0.0998  0.1163  0.6675
 5070SOL    HW220046   2.453   4.343   2.123 -0.0154  0.0903 -2.0563
 5070SOL    HW320047   2.327   4.322   2.204  2.0152 -1.2585  0.9180
 5070SOL    MW420048   2.367   4.353   2.134  0.3816 -0.4935  0.5980
 5071SOL     OW20049   5.780   4.418   2.300  0.3416  0.0684  0.1533
 5071SOL    HW220050   5.818   4.334   2.275  0.2648 -0.7191  2.4499
 5071SOL    HW320051   5.851   4.481   2.291  0.3418 -0.1593 -1.7891
 5071SOL    MW420052   5.794   4.415   2.296  0.6775 -0.3582 -0.7373
 5072SOL     OW20053   5.510   2.928   2.697 -0.2622  0.2649 -0.1146
 5072SOL    HW220054   5.562   2.882   2.631  0.5618  1.3472 -0.2511
 5072SOL    HW320055   5.507   2.867   2.771  2.0669  0.5247  0.2684
 5072SOL    MW420056   5.517   2.914   2.698  0.6136  0.3296 -0.2730
 5073SOL     OW20057   6.404   0.934   4.591  0.2677 -0.0665  0.0019
 5073SOL    HW220058   6.393   0.965   4.501  0.7681  0.5286  0.1440
 5073SOL    HW320059   6.316   0.908   4.617  0.1898 -0.6798 -0.8112
 5073SOL    MW420060   6.391   0.935   4.582  0.1852  0.0187  0.1646
 5074SOL     OW20061   1.310   1.916   0.409  0.0122  0.4354  0.5321
 5074SOL    HW220062   1.395   1.873   0.412 -0.6218 -0.9488 -0.1379
 5074SOL    HW320063   1.247   1.846   0.421 -1.0542  1.3737  0.6254
 5074SOL    MW420064   1.313   1.901   0.411 -0.4209 -0.0901 -0.3123
 5075SOL     OW20065   0.238   4.536   2.515 -0.1813  0.1280  0.0973
 5075SOL    HW220066   0.304   4.564   2.451 -0.9045  0.4340 -0.5274
 5075SOL    HW320067   0.185   4.472   2.468 -0.0413 -0.4849  0.7541
 5075SOL    MW420068   0.240   4.531   2.500 -0.6850  0.0991  0.2799
 5076SOL     OW20069   0.106   1.623   4.831 -0.1200  0.0417  0.0670
 5076SOL    HW220070   0.047   1.648   4.760  0.3118  0.5162 -0.1298
 5076SOL    HW320071   0.048   1.590   4.900 -0.4310 -3.4272 -1.6172
 5076SOL    MW420072   0.091   1.622   4.831  0.0594  0.0781 -0.0869
 5077SOL     OW20073   3.142   5.335   2.196  0.1021 -0.3495  0.6268
 5077SOL    HW220074   3.053   5.305   2.210 -0.2720  0.3187 -0.2300
 5077SOL    HW320075   3.185   5.324   2.281 -0.8990 -0.3273  1.1453
 5077SOL    MW420076   3.136   5.330   2.209  0.2744 -0.2286  0.0685
 5078SOL     OW20077   0.737   6.072   0.852 -0.2341 -0.0659 -0.3259
 5078SOL    HW220078   0.662   6.107   0.804 -0.6772 -1.1752 -0.4882
 5078SOL    HW320079   0.813   6.118   0.816 -0.8343  1.1978 -0.0363
 5078SOL    MW420080   0.737   6.083   0.841  0.2445 -0.0692 -0.6620
 5079SOL     OW20081   1.030   0.942   0.581  0.2857 -0.2652  0.2571
 5079SOL    HW220082   1.020   1.030   0.546 -0.1250 -0.3956  0.0399
 5079SOL    HW320083   1.119   0.940   0.617  1.4655 -0.6868 -2.3901
 5079SOL    MW420084   1.041   0.953   0.581 -0.0733  0.7157  0.1790
 5080SOL     OW20085   4.432   4.689   1.531 -0.4938 -0.0319 -0.7661
 5080SOL    HW220086   4.522   4.720   1.530 -1.0256  1.6569 -2.2578
 5080SOL    HW320087   4.380   4.765   1.557 -1.4659 -1.1735  0.8318
 5080SOL    MW420088   4.437   4.703   1.534  0.1391 -0.4666 -0.6106
 5081SOL     OW20089   5.131   1.997   4.684  0.3378  0.2488  0.4431
 5081SOL    HW220090   5.081   2.055   4.741  0.7765  1.1622 -0.0781
 5081SOL    HW320091   5.168   2.054   4.617 -0.3603 -0.8230 -0.9129
 5081SOL    MW420092   5.130   2.012   4.683  1.1025  0.1780  0.6962
 5082SOL     OW20093   3.558   1.269   2.897 -0.2823 -0.4095 -0.6387
 5082SOL    HW220094   3.594   1.300   2.814 -0.6069 -0.2398 -0.7163
 5082SOL    HW320095   3.634   1.264   2.956 -0.1917  0.3265 -0.6865
 5082SOL    MW420096   3.573   1.272   2.894  0.0621 -0.3699 -0.0239
 5083SOL     OW20097   2.414   2.673   4.819 -0.6231 -0.1079 -0.1008
 5083SOL    HW220098   2.445   2.586   4.846  1.3200  1.0127  1.5823
 5083SOL    HW320099   2.492   2.718   4.787 -1.3719  1.3760  0.0461
 5083SOL    MW420100   2.428   2.668   4.818  0.1365  0.0582 -0.0049
 5084SOL     OW20101   0.915   4.545   5.087 -0.4059  0.1555 -0.4982
 5084SOL    HW220102   0.992   4.595   5.116 -0.4336 -0.6251  1.0189
 5084SOL    HW320103   0.862   4.535   5.166 -2.3783  1.1586 -1.6108
 5084SOL    MW420104   0.918   4.551   5.101  0.2574 -0.2336  0.0922
 5085SOL     OW20105   4.093   5.601   1.032 -0.0752 -0.8587 -0.2331
 5085SOL    HW220106   4.064   5.672   1.090 -1.5802  0.6345 -2.6476
 5085SOL    HW320107   4.041   5.612   0.953  2.1289 -2.5659 -2.0475
 5085SOL    MW420108   4.082   5.612   1.029 -0.3205  0.4326 -0.7741
 5086SOL     OW20109   5.363   3.565   4.331 -0.0533  0.1087 -0.1272
 5086SOL    HW220110   5.361   3.537   4.239 -0.9273  0.7627 -0.3174
 5086SOL    HW320111   5.455   3.589   4.346  0.1815 -0.3812 -0.7051
 5086SOL    MW420112   5.375   3.564   4.321 -0.1987  0.2976  0.1583
 5087SOL     OW20113   4.771   3.408   3.983 -0.5532  0.1261 -0.5928
 5087SOL    HW220114   4.801   3.326   3.944  0.9446  0.8569 -1.0399
 5087SOL    HW320115   4.847   3.467   3.978 -0.9796  0.9416  1.4797
 5087SOL    MW420116   4.785   3.405   3.977 -0.4123 -0.4988 -0.1139
 5088SOL     OW20117   0.809   3.313   1.419 -0.2009 -0.2470 -0.3212
 5088SOL    HW220118   0.866   3.381   1.383 -2.7164  0.8261 -2.5788
 5088SOL    HW320119   0.799   3.250   1.348  1.3428 -2.6477  1.4248
 5088SOL    MW420120   0.816   3.314   1.405  0.3933 -0.1998  0.0443
 5089SOL     OW20121   4.965   2.655   2.505 -0.3853 -0.2661 -0.0018
 5089SOL    HW220122   5.057   2.667   2.483 -0.6784  0.1637 -1.0838
 5089SOL    HW320123   4.928   2.743   2.502 -0.9370 -0.4969 -0.1257
 5089SOL    MW420124   4.972   2.668   2.502  0.6906  0.2478 -0.2345
 5090SOL     OW20125   0.826   6.316   2.919  0.2413 -0.3886  0.4961
 5090SOL    HW220126   0.896   6.278   2.866  1.3732  0.7037  1.1521
 5090SOL    HW320127   0.758   6.340   2.856  0.9998 -0.3115 -0.3018
 5090SOL    MW420128   0.826   6.314   2.904 -0.1206 -0.4342 -0.4291
 5091SOL     OW20129   2.575   5.336   0.039 -0.5488 -0.4730 -0.2225
 5091SOL    HW220130   2.553   5.243   0.038  0.3397 -0.7505  1.4800
 5091SOL    HW320131   2.590   5.356   0.132  0.3000  1.1096 -0.6579
 5091SOL    MW420132   2.574   5.326   0.051 -0.1505 -0.0698 -0.7996
 5092SOL     OW20133   1.271   3.983   0.895  0.6414 -0.2026 -0.0626
 5092SOL    HW220134   1.302   3.895   0.874  1.7860  0.0710  0.3584
 5092SOL    HW320135   1.282   4.033   0.814 -0.3282 -0.5217 -0.3971
 5092SOL    MW420136   1.277   3.978   0.882 -0.7920 -0.2883 -1.1518
 5093SOL     OW20137   1.477   0.297   5.739  0.1394 -0.0195 -0.0669
 5093SOL    HW220138   1.534   0.369   5.711 -1.3530  0.4486 -2.1109
 5093SOL    HW320139   1.394   0.339   5.761 -0.6119 -1.0381 -0.8440
 5093SOL    MW420140   1.474   0.312   5.739 -0.0170 -0.1011 -0.3723
 5094SOL     OW20141   4.746   0.694   4.039  0.1161 -0.2323 -0.0568
 5094SOL    HW220142   4.814   0.733   4.094 -0.0679 -0.2571  0.1875
 5094SOL    HW320143   4.738   0.755   3.965 -1.4866  1.2030  1.2329
 5094SOL    MW420144   4.754   0.707   4.036 -0.4992 -0.3259 -0.1021
 5095SOL     OW20145   4.375   3.909   0.606 -0.2206  0.0070 -0.1061
 5095SOL    HW220146   4.455   3.941   0.650 -1.1343 -0.4812  2.0614
 5095SOL    HW320147   4.369   3.961   0.527  2.5192 -0.2900 -0.6096
 5095SOL    MW420148   4.385   3.920   0.602 -0.5229 -0.7872  0.2936
 5096SOL     OW20149   1.508   5.802   3.902 -0.0882  0.2843  0.2886
 5096SOL    HW220150   1.479   5.844   3.983  2.0440  0.3202  1.0975
 5096SOL    HW320151   1.579   5.857   3.871  1.3390 -1.5278  0.2084
 5096SOL    MW420152   1.513   5.815   3.909 -0.0528 -0.1915 -0.2519
 5097SOL     OW20153   2.674   0.654   3.633  0.2454  0.0032  0.3667
 5097SOL    HW220154   2.751   0.659   3.689  1.9027 -1.8669 -1.5271
 5097SOL    HW320155   2.709   0.666   3.544 -1.1663 -3.1813 -0.7609
 5097SOL    MW420156   2.689   0.656   3.629  0.1731  0.4719  0.0629
 5098SOL     OW20157   2.909   3.902   6.384 -0.0007 -0.1644  0.1767
 5098SOL    HW220158   2.925   3.996   6.390  0.5374 -0.2985  1.1348
 5098SOL    HW320159   2.839   3.885   6.448  0.8924 -0.6064  1.0732
 5098SOL    MW420160   2.902   3.912   6.393  0.6399 -0.3503 -0.1109
 5099SOL     OW20161   4.299   0.242   0.940 -0.3250 -0.2555  0.6074
 5099SOL    HW220162   4.282   0.321   0.889 -0.2860 -1.0800 -0.7158
 5099SOL    HW320163   4.386   0.257   0.979 -0.0706  0.1299 -0.0844
 5099SOL    MW420164   4.309   0.255   0.939  0.7975 -0.3313  0.0058
 5100SOL     OW20165   0.600   2.158   3.733 -0.1267 -0.4041  0.4758
 5100SOL    HW220166   0.603   2.199   3.647  0.1197  0.6303  0.9628
 5100SOL    HW320167   0.655   2.080   3.725  1.6831  0.8315  0.2768
 5100SOL    MW420168   0.608   2.153   3.720  0.1219  0.4166  0.4209
 5101SOL     OW20169   5.698   5.842   3.415 -0.3927  0.6527  0.2425
 5101SOL    HW220170   5.713   5.762   3.466 -1.0217  1.2233  1.3339
 5101SOL    HW320171   5.739   5.823   3.330  1.1587 -0.1102  1.1014
 5101SOL    MW420172   5.706   5.829   3.410 -0.5265  0.2531 -0.0374
 5102SOL     OW20173   3.666   5.624   6.038  0.2188  0.3416 -0.7799
 5102SOL    HW220174   3.657   5.635   6.133 -0.3796 -2.2205 -0.4550
 5102SOL    HW320175   3.760   5.636   6.022  0.3918  0.4118  0.2035
 5102SOL    MW420176   3.677   5.627   6.048 -0.2359 -0.2352 -0.3090
 5103SOL     OW20177   1.998   0.075   3.037  0.0732 -0.2176 -0.2857
 5103SOL    HW220178   2.053   0.152   3.024  0.6834 -0.7748 -1.1001
 5103SOL    HW320179   2.026   0.040   3.122 -0.2977  0.5241  0.1463
 5103SOL    MW420180   2.009   0.080   3.046  0.3440 -0.1995 -0.6737
 5104SOL     OW20181   1.150   4.439   3.981  0.2129  0.3083 -0.0435
 5104SOL    HW220182   1.162   4.504   4.051  1.6728  0.6709 -0.6055
 5104SOL    HW320183   1.155   4.354   4.026 -1.8438  0.5284  0.7196
 5104SOL    MW420184   1.152   4.436   3.996 -0.1051  0.4681 -0.0825
 5105SOL     OW20185   4.264   3.165   2.708 -0.0417 -0.1235 -0.0627
 5105SOL    HW220186   4.330   3.234   2.713 -0.7864  0.7170 -1.2293
 5105SOL    HW320187   4.263   3.126   2.795  2.3328 -0.5073 -0.1364
 5105SOL    MW420188   4.272   3.169   2.720  0.3007  0.0194  0.2389
 5106SOL     OW20189   4.539   3.270   5.509 -0.3394  0.1495 -0.1783
 5106SOL    HW220190   4.617   3.321   5.490  0.4376 -0.8900  0.1685
 5106SOL    HW320191   4.512   3.234   5.424 -1.8775  2.4153 -0.7556
 5106SOL    MW420192   4.546   3.272   5.495 -0.2856 -0.6856  0.5493
 5107SOL     OW20193   5.561   0.908   4.730  0.3214 -0.0296  0.6223
 5107SOL    HW220194   5.544   0.992   4.774  0.4429 -0.4554  1.4993
 5107SOL    HW320195   5.474   0.871   4.716  0.3420 -0.8394  2.4078
 5107SOL    MW420196   5.547   0.914   4.734  0.0511 -0.0547 -0.1120
 5108SOL     OW20197   1.804   4.351   3.765  0.2142  0.0875 -0.4620
 5108SOL    HW220198   1.730   4.407   3.741  0.3651 -0.4384 -2.3055
 5108SOL    HW320199   1.841   4.393   3.843 -3.5495 -1.0286  2.2648
 5108SOL    MW420200   1.799   4.364   3.772  0.1309 -0.3374 -0.2497
 5109SOL     OW20201   1.265   1.599   0.961 -0.0159  0.2090  0.3376
 5109SOL    HW220202   1.219   1.676   0.994 -1.2790 -1.1534  1.9200
 5109SOL    HW320203   1.345   1.594   1.014 -0.4323 -0.1210  0.9454
 5109SOL    MW420204   1.270   1.608   0.972  0.6155  0.2817 -0.1004
 5110SOL     OW20205   3.189   1.749   0.694 -0.2333  0.2155 -0.1350
 5110SOL    HW220206   3.149   1.744   0.607 -0.7016 -0.2731  0.1055
 5110SOL    HW320207   3.118   1.728   0.754 -0.4389  2.4068  0.5042
 5110SOL    MW420208   3.174   1.746   0.690 -0.7854  0.0064 -0.0066
 5111SOL     OW20209   4.238   2.706   1.068  0.3646  0.4494  0.0827
 5111SOL    HW220210   4.304   2.667   1.011  0.6592 -0.4526  1.0011
 5111SOL    HW320211   4.233   2.646   1.143 -0.2302  1.4336  0.8557
 5111SOL    MW420212   4.246   2.693   1.070  0.1746 -0.0903 -0.5360
 5112SOL     OW20213   0.489   4.020   6.410 -0.3089  0.5192 -0.0142
 5112SOL    HW220214   0.501   4.016   6.505  0.6256  2.7823  0.0403
 5112SOL    HW320215   0.571   3.986   6.374 -1.4638 -2.3704 -0.1273
 5112SOL    MW420216   0.502   4.015   6.418  0.3807  0.0756 -0.1649
 5113SOL     OW20217   3.480   2.641   0.534 -0.0276  0.4210 -0.1637
 5113SOL    HW220218   3.556   2.629   0.591  0.1097 -1.4832 -0.6620
 5113SOL    HW320219   3.423   2.567   0.555  0.9448 -1.6182 -3.7577
 5113SOL    MW420220   3.483   2.630   0.544 -0.2604  0.3759  0.3398
 5114SOL     OW20221   6.282   1.604   0.551 -0.6598 -0.2897 -0.0288
 5114SOL    HW220222   6.258   1.527   0.603  0.2825 -0.5275  0.0660
 5114SOL    HW320223   6.198   1.644   0.528 -1.2043 -1.7734 -0.7447
 5114SOL    MW420224   6.267   1.600   0.555  0.3103 -0.4589 -0.4081
 5115SOL     OW20225   5.635   0.722   2.823 -0.2188  0.1214 -0.6182
 5115SOL    HW220226   5.607   0.766   2.742 -1.8044 -1.0358 -0.7434
 5115SOL    HW320227   5.554   0.692   2.863  0.6107 -0.0658  1.0043
 5115SOL    MW420228   5.620   0.724   2.818 -0.1313 -0.4928 -0.9378
 5116SOL     OW20229   6.406   4.569   0.381 -0.1450  0.4224 -0.0561
 5116SOL    HW220230   6.461   4.521   0.442  0.1056 -0.1557 -0.7258
 5116SOL    HW320231   6.465   4.632   0.339 -0.6659  2.0384  1.5197
 5116SOL    MW420232   6.421   4.571   0.383  0.0153 -0.2415 -0.0712
 5117SOL     OW20233   5.303   0.715   6.143 -0.3576 -0.4402 -0.1231
 5117SOL    HW220234   5.359   0.638   6.132  1.2610  0.3473  1.9986
 5117SOL    HW320235   5.353   0.786   6.103 -0.6545 -0.0304  0.2259
 5117SOL    MW420236   5.317   0.714   6.136 -0.2666 -0.2957 -0.0966
 5118SOL     OW20237   1.234   1.528   1.351  0.4992 -0.1970 -0.3554
 5118SOL    HW220238   1.295   1.564   1.286 -0.8188 -0.4010 -1.7753
 5118SOL    HW320239   1.216   1.602   1.410  2.3856 -0.2496  0.3472
 5118SOL    MW420240   1.240   1.543   1.350 -0.1335  0.2820  0.1899
 5119SOL     OW20241   5.729   1.615   2.828  0.1921  0.5566  0.0382
 5119SOL    HW220242   5.755   1.681   2.765 -1.4941  0.5268 -0.7347
 5119SOL    HW320243   5.645   1.582   2.796 -0.1357 -0.3079  1.6590
 5119SOL    MW420244   5.721   1.619   2.816 -0.5912  0.2964  0.1290
 5120SOL     OW20245   1.210   4.156   2.002 -0.2138  0.2478  0.3359
 5120SOL    HW220246   1.163   4.129   1.923 -0.4773 -0.6388  0.7837
 5120SOL    HW320247   1.265   4.081   2.024  0.3350  0.7322  0.6361
 5120SOL    MW420248   1.211   4.143   1.995  0.0165 -0.5300 -0.3858
 5121SOL     OW20249   2.464   3.319   2.924 -0.2620 -0.4494  0.2155
 5121SOL    HW220250   2.518   3.387   2.966 -0.9167 -0.2578  0.7718
 5121SOL    HW320251   2.473   3.336   2.830  0.0695  0.0331  0.3289
 5121SOL    MW420252   2.472   3.330   2.917 -0.0332 -0.0200  0.5001
 5122SOL     OW20253   4.647   3.408   3.568  0.1427  0.0744 -0.1213
 5122SOL    HW220254   4.721   3.391   3.625  0.0445  0.0332 -0.0057
 5122SOL    HW320255   4.613   3.322   3.545  0.0903  0.0950 -0.1217
 5122SOL    MW420256   4.652   3.394   3.572 -0.7780 -0.1686 -0.0204
 5123SOL     OW20257   2.649   5.947   6.201 -0.2052  0.7493  0.2829
 5123SOL    HW220258   2.568   5.899   6.183  0.6169 -0.4084 -0.4604
 5123SOL    HW320259   2.621   6.038   6.216 -1.7092  0.2117  0.8704
 5123SOL    MW420260   2.635   5.953   6.200  0.7846  0.4525 -0.3855
 5124SOL     OW20261   5.746   2.560   5.544 -0.0596  0.1535 -0.0528
 5124SOL    HW220262   5.722   2.475   5.508  0.4455  0.0473 -0.1406
 5124SOL    HW320263   5.841   2.558   5.551 -0.1093  0.4037  0.7348
 5124SOL    MW420264   5.755   2.549   5.540 -0.7055 -0.3723  0.3536
 5125SOL     OW20265   2.270   1.246   6.025  0.2439 -0.4097  0.5192
 5125SOL    HW220266   2.180   1.278   6.020  0.3748  0.3908  2.4479
 5125SOL    HW320267   2.261   1.156   6.057  0.1450 -0.1089  1.3540
 5125SOL    MW420268   2.257   1.238   6.028 -0.1766  0.7158  0.0304
 5126SOL     OW20269   3.406   0.149   3.566 -0.8685 -0.0245  0.2448
 5126SOL    HW220270   3.419   0.063   3.524 -0.4725 -1.0422  2.3094
 5126SOL    HW320271   3.492   0.170   3.602 -0.9731  1.2601 -0.2271
 5126SOL    MW420272   3.419   0.140   3.565  0.4351  0.1443  0.3571
 5127SOL     OW20273   2.671   3.305   5.233 -0.5586 -1.0580 -0.1498
 5127SOL    HW220274   2.694   3.269   5.318 -0.4982  1.0740  0.8121
 5127SOL    HW320275   2.753   3.340   5.198 -0.8532 -0.5637 -0.3636
 5127SOL    MW420276   2.685   3.305   5.240 -0.2277 -0.6083  0.1243
 5128SOL     OW20277   2.000   1.657   4.298  0.0390  0.2947  0.6069
 5128SOL    HW220278   2.039   1.671   4.212 -1.2194 -1.1727 -0.2582
 5128SOL    HW320279   1.959   1.741   4.320 -1.0514  0.2358 -1.0257
 5128SOL    MW420280   2.000   1.670   4.290  0.2403 -0.4466  0.0522
 5129SOL     OW20281   0.130   5.227   4.931  0.9381  0.2550 -0.5203
 5129SOL    HW220282   0.199   5.162   4.939  1.0885  0.4254 -0.3979
 5129SOL    HW320283   0.177   5.310   4.918  1.0228  1.0471  3.4034
 5129SOL    MW420284   0.145   5.230   4.931  0.1105  0.2989 -0.0279
 5130SOL     OW20285   4.699   5.953   2.417 -0.1612  0.0507  0.3760
 5130SOL    HW220286   4.773   5.893   2.403  0.9978  1.5701 -0.3202
 5130SOL    HW320287   4.701   5.970   2.511  0.2166 -0.1325  0.4059
 5130SOL    MW420288   4.709   5.947   2.428 -0.0246 -0.4054  0.1320
 5131SOL     OW20289   2.468   5.034   6.050  0.0137  0.1233  0.1523
 5131SOL    HW220290   2.507   4.971   5.990 -0.9218 -0.3190 -0.0041
 5131SOL    HW320291   2.543   5.081   6.088  0.7634 -1.5392  0.8000
 5131SOL    MW420292   2.483   5.032   6.047  0.3858  0.4128  0.1261
 5132SOL     OW20293   5.466   1.349   2.173  0.1512  0.1026  0.1660
 5132SOL    HW220294   5.517   1.424   2.202  0.0576  0.1802  0.1315
 5132SOL    HW320295   5.376   1.370   2.199  0.4180 -0.9519  2.1563
 5132SOL    MW420296   5.461   1.362   2.181  0.0792  0.3316  0.0761
 5133SOL     OW20297   5.987   3.332   5.580  0.0901 -0.0370  0.2967
 5133SOL    HW220298   5.981   3.272   5.654  0.7449  0.0303  0.4133
 5133SOL    HW320299   5.896   3.352   5.557 -0.1161  0.2302  1.3189
 5133SOL    MW420300   5.974   3.327   5.586  0.0321  0.7587  0.2202
 5134SOL     OW20301   4.134   5.613   2.164 -0.1677 -0.1746 -0.1982
 5134SOL    HW220302   4.164   5.617   2.073 -2.9699  0.7494 -1.1707
 5134SOL    HW320303   4.110   5.703   2.185  1.8135 -0.0796  2.0403
 5134SOL    MW420304   4.135   5.626   2.155 -0.0178 -0.4496  0.0198
 5135SOL     OW20305   3.294   1.546   4.737 -0.3987  0.0654 -0.2889
 5135SOL    HW220306   3.273   1.638   4.725 -0.6214 -0.1449 -1.6921
 5135SOL    HW320307   3.253   1.522   4.820  0.1159  1.3497  0.3639
 5135SOL    MW420308   3.286   1.555   4.746  1.3581  0.1976 -0.5143
 5136SOL     OW20309   2.214   5.735   0.871 -0.3901 -0.0226  0.2846
 5136SOL    HW220310   2.195   5.761   0.961  0.6438  0.1515  0.4706
 5136SOL    HW320311   2.137   5.761   0.821 -0.8224  0.2088  1.0587
 5136SOL    MW420312   2.201   5.742   0.876  0.0872 -0.1388  0.3317
 5137SOL     OW20313   6.292   2.781   1.191 -0.3921 -0.3335  0.0702
 5137SOL    HW220314   6.332   2.751   1.272  2.7302  2.4516 -0.2165
 5137SOL    HW320315   6.318   2.873   1.184 -1.4307 -0.1526 -3.5544
 5137SOL    MW420316   6.301   2.789   1.201  0.1315  1.1650  0.5165
 5138SOL     OW20317   1.874   3.614   4.041 -0.1467 -0.4811  0.2076
 5138SOL    HW220318   1.961   3.607   4.001  1.2827 -1.2830  3.2250
 5138SOL    HW320319   1.838   3.525   4.036 -1.6728  0.1813 -2.6216
 5138SOL    MW420320   1.881   3.601   4.035 -0.5989  0.1064  0.0360
 5139SOL     OW20321   6.172   4.197   0.651  0.2895  0.3704  0.1568
 5139SOL    HW220322   6.209   4.283   0.671  0.9967  0.3663 -1.0488
 5139SOL    HW320323   6.094   4.216   0.599 -0.1744  0.3069  0.8187
 5139SOL    MW420324   6.166   4.211   0.646 -0.4185  0.1041  0.2955
 5140SOL     OW20325   3.814   2.442   1.335  0.5596 -0.3675 -0.1431
 5140SOL    HW220326   3.824   2.416   1.427 -0.7901  1.3534  0.5382
 5140SOL    HW320327   3.805   2.359   1.288  1.2084 -1.2801  1.2657
 5140SOL    MW420328   3.815   2.427   1.341  0.1141  0.0477  0.3667
 5141SOL     OW20329   2.078   5.822   5.593 -0.1103  0.1715 -0.6145
 5141SOL    HW220330   2.042   5.734   5.582 -0.5741 -0.1183  2.4391
 5141SOL    HW320331   2.010   5.880   5.557 -2.2327 -0.5428  1.9321
 5141SOL    MW420332   2.064   5.818   5.586 -0.0381  0.0675 -0.3621
 5142SOL     OW20333   4.148   3.416   1.109  0.1140 -0.4405 -0.5366
 5142SOL    HW220334   4.213   3.371   1.163  0.9971  1.9443  0.5346
 5142SOL    HW320335   4.200   3.467   1.046 -0.6246  1.6777  0.4754
 5142SOL    MW420336   4.164   3.417   1.108 -0.3400 -0.0501  0.3122
 5143SOL     OW20337   3.538   0.187   1.708  0.1691  0.4806  0.3475
 5143SOL    HW220338   3.616   0.218   1.753 -0.2645 -0.6763  1.9583
 5143SOL    HW320339   3.510   0.262   1.654  1.5969  1.3562  0.7844
 5143SOL    MW420340   3.544   0.201   1.706 -0.2660  0.3133  0.4848
 5144SOL     OW20341   5.583   0.251   2.640  0.5398 -0.0054 -0.4620
 5144SOL    HW220342   5.588   0.331   2.588 -0.1333  0.1278 -0.3295
 5144SOL    HW320343   5.589   0.281   2.731 -2.5090  0.2232 -0.2382
 5144SOL    MW420344   5.585   0.266   2.645 -0.0487  0.0805 -0.2142
 5145SOL     OW20345   6.454   0.303   0.461 -0.7315 -0.5298 -0.3988
 5145SOL    HW220346   6.448   0.261   0.547 -0.9042 -0.2405 -0.2639
 5145SOL    HW320347   6.518   0.252   0.413 -2.4402 -2.2257 -0.9827
 5145SOL    MW420348   6.462   0.291   0.466  0.3482 -0.7118  0.5089
 5146SOL     OW20349   1.252   2.539   0.212  0.1047 -0.2469 -0.0528
 5146SOL    HW220350   1.217   2.477   0.148 -2.5822  0.3525  0.6939
 5146SOL    HW320351   1.220   2.624   0.182  0.3198  0.2558  1.1002
 5146SOL    MW420352   1.243   2.542   0.199  0.1708 -0.0077  0.3472
 5147SOL     OW20353   5.738   3.153   1.274 -0.5439  0.2200  0.1841
 5147SOL    HW220354   5.763   3.241   1.247  1.1685 -0.5944 -1.0750
 5147SOL    HW320355   5.692   3.117   1.198  0.6856 -0.6825 -0.1744
 5147SOL    MW420356   5.735   3.160   1.260 -0.2160 -1.2001  0.5143
 5148SOL     OW20357   4.838   2.514   0.758 -0.3222  0.8521  0.1364
 5148SOL    HW220358   4.781   2.463   0.701  0.1608 -0.1419  0.5125
 5148SOL    HW320359   4.917   2.459   0.768  0.8219  2.2867 -0.5873
 5148SOL    MW420360   4.841   2.500   0.752 -0.0951 -0.5433 -0.4897
 5149SOL     OW20361   4.701   3.275   4.240 -0.4366 -1.0946 -0.2054
 5149SOL    HW220362   4.730   3.193   4.201  1.1708 -0.1356 -1.1431
 5149SOL    HW320363   4.703   3.338   4.168  3.3137  0.9207  1.3687
 5149SOL    MW420364   4.705   3.272   4.226 -0.0872 -0.2441 -0.2653
 5150SOL     OW20365   3.342   2.788   4.234 -0.1747 -0.2200  0.1349
 5150SOL    HW220366   3.428   2.782   4.193 -0.3691  0.9044 -0.4687
 5150SOL    HW320367   3.357   2.771   4.327  0.6631 -0.1782  0.0080
 5150SOL    MW420368   3.355   2.785   4.240 -0.5104 -0.6382  0.0552
 5151SOL     OW20369   3.570   4.892   1.629  0.2025 -0.7052 -0.2348
 5151SOL    HW220370   3.555   4.827   1.561  0.2647 -0.8436 -0.1179
 5151SOL    HW320371   3.648   4.939   1.600 -0.0727 -0.4168 -0.5174
 5151SOL    MW420372   3.578   4.890   1.616  0.0488 -0.5871 -0.4632
 5152SOL     OW20373   5.998   0.498   5.542  0.3409 -0.5069 -0.0280
 5152SOL    HW220374   5.965   0.502   5.632 -0.3592  0.7848 -0.3191
 5152SOL    HW320375   6.009   0.589   5.517  1.0223 -0.8697 -1.0856
 5152SOL    MW420376   5.995   0.510   5.551 -0.5207  0.3452  0.0885
 5153SOL     OW20377   0.410   2.197   1.632  0.1095  0.5407  0.7286
 5153SOL    HW220378   0.446   2.109   1.643 -0.2972  0.1780 -0.6096
 5153SOL    HW320379   0.337   2.201   1.694  0.8025  0.3345  1.5679
 5153SOL    MW420380   0.405   2.186   1.641 -0.2229 -0.6471 -0.5059
 5154SOL     OW20381   2.240   4.691   2.451 -0.0998  0.6477 -0.9734
 5154SOL    HW220382   2.153   4.653   2.461 -0.2015  0.8571 -1.0610
 5154SOL    HW320383   2.288   4.626   2.400 -0.6007  1.1267 -2.0859
 5154SOL    MW420384   2.235   4.677   2.446 -0.1445 -0.5098 -0.3232
 5155SOL     OW20385   4.815   5.901   3.670  0.3378  0.0235 -0.2043
 5155SOL    HW220386   4.902   5.861   3.674 -0.4754 -1.7654  1.1415
 5155SOL    HW320387   4.798   5.930   3.760 -0.9740 -0.8684 -0.1485
 5155SOL    MW420388   4.824   5.900   3.683  0.2344 -0.0004  0.5718
 5156SOL     OW20389   0.534   4.297   0.327  0.0423 -0.1361 -0.0868
 5156SOL    HW220390   0.605   4.360   0.318 -0.3628  0.3349 -0.0553
 5156SOL    HW320391   0.567   4.231   0.386 -0.4795  1.4867  2.1538
 5156SOL    MW420392   0.547   4.297   0.333  0.1311 -0.1048  0.1647
 5157SOL     OW20393   5.206   2.250   4.549 -0.0659  0.7621  0.4202
 5157SOL    HW220394   5.300   2.232   4.546 -0.3042 -0.6548  1.1226
 5157SOL    HW320395   5.195   2.309   4.624  0.1312  0.0876  0.9834
 5157SOL    MW420396   5.217   2.255   4.558  0.0271 -0.1198  0.0160
 5158SOL     OW20397   3.767   0.154   4.097  0.0562 -0.1849 -0.1268
 5158SOL    HW220398   3.734   0.242   4.079  0.1523  0.0800  0.9433
 5158SOL    HW320399   3.703   0.116   4.157  0.1853 -0.7329 -0.3260
 5158SOL    MW420400   3.754   0.160   4.102  0.7723  0.1660  0.3725
 5159SOL     OW20401   3.642   3.155   5.438 -0.1659 -0.1791  0.1172
 5159SOL    HW220402   3.731   3.118   5.442 -0.4244 -0.6889  1.7360
 5159SOL    HW320403   3.592   3.090   5.389  0.0841 -0.4693  0.2408
 5159SOL    MW420404   3.647   3.142   5.432 -0.2443 -0.4594 -0.3347
 5160SOL     OW20405   6.024   2.299   4.214  0.0258  0.0003 -0.0569
 5160SOL    HW220406   5.959   2.366   4.191 -1.2552 -1.2512 -0.2372
 5160SOL    HW320407   6.108   2.342   4.201 -0.6838  2.6100  2.8380
 5160SOL    MW420408   6.027   2.313   4.209  0.3235 -0.6606 -0.1916
 5161SOL     OW20409   1.830   3.144   6.144 -0.0167  0.4486  0.0238
 5161SOL    HW220410   1.865   3.087   6.076  1.3408 -0.6415  1.5329
 5161SOL    HW320411   1.881   3.225   6.136 -0.0342  0.4192 -0.3966
 5161SOL    MW420412   1.841   3.147   6.134  0.2723  0.2580  0.0125
 5162SOL     OW20413   1.030   1.259   3.483 -0.1713  0.1991  0.5734
 5162SOL    HW220414   1.054   1.220   3.567  0.3829  0.2213  0.4356
 5162SOL    HW320415   0.964   1.199   3.447 -0.0324 -0.0914  0.7926
 5162SOL    MW420416   1.025   1.246   3.489  0.1841 -0.7932 -0.0163
 5163SOL     OW20417   0.720   0.512   2.591  0.0455  0.1304  0.2143
 5163SOL    HW220418   0.747   0.420   2.585 -2.1582 -0.6356  1.0844
 5163SOL    HW320419   0.796   0.557   2.629  0.3965 -1.7569  1.9334
 5163SOL    MW420420   0.733   0.506   2.595  0.1871 -0.3931 -0.3024
 5164SOL     OW20421   1.187   6.414   1.122  0.0291 -0.0296  0.4279
 5164SOL    HW220422   1.257   6.355   1.095 -0.0582  0.4093 -0.8243
 5164SOL    HW320423   1.123   6.411   1.050 -0.4021  0.9036  0.7484
 5164SOL    MW420424   1.187   6.406   1.109 -0.4655 -0.1613  0.2593
 5165SOL     OW20425   3.661   1.187   6.081  0.3415  0.2461 -0.0717
 5165SOL    HW220426   3.672   1.217   5.991 -1.4713  0.3672 -0.2736
 5165SOL    HW320427   3.585   1.130   6.080  0.9476 -0.6625  1.1987
 5165SOL    MW420428   3.653   1.184   6.069  0.0593 -0.1979 -0.2966
 5166SOL     OW20429   1.023   2.872   0.257  0.2999 -0.1389  0.3444
 5166SOL    HW220430   1.054   2.963   0.254  0.4870 -0.2242 -0.9917
 5166SOL    HW320431   1.060   2.832   0.179  1.7159 -1.8697  1.8101
 5166SOL    MW420432   1.032   2.879   0.246 -0.0737 -0.1304  0.2238
 5167SOL     OW20433   6.086   0.310   0.696  0.0956  0.1646 -0.1860
 5167SOL    HW220434   6.117   0.226   0.663  1.3163  0.7939 -0.7327
 5167SOL    HW320435   6.119   0.374   0.633  1.6359  1.3098  1.6824
 5167SOL    MW420436   6.095   0.307   0.683  1.0142 -0.8222  0.1800
 5168SOL     OW20437   1.110   1.450   0.191  0.0284 -0.2492  0.2456
 5168SOL    HW220438   1.019   1.458   0.162 -0.7710 -1.7752  2.1790
 5168SOL    HW320439   1.147   1.381   0.136  0.2637  0.8219 -0.9943
 5168SOL    MW420440   1.103   1.442   0.180  0.0514  0.3900  0.4441
 5169SOL     OW20441   1.180   3.219   4.655  0.2607 -0.3399  0.0253
 5169SOL    HW220442   1.218   3.169   4.582 -2.4780 -1.6428 -0.6583
 5169SOL    HW320443   1.216   3.178   4.733  1.2172 -0.6943 -0.5864
 5169SOL    MW420444   1.190   3.207   4.655  0.2995  0.1485  0.6707
 5170SOL     OW20445   4.010   5.878   1.121  0.6501 -0.2342  0.5095
 5170SOL    HW220446   3.970   5.902   1.204  0.7862 -0.4079  0.6261
 5170SOL    HW320447   3.939   5.884   1.057  0.9211  1.6113  0.3279
 5170SOL    MW420448   3.996   5.882   1.123  0.1026 -0.0055  0.0761
 5171SOL     OW20449   4.735   4.785   4.227 -0.0724  0.4096  0.0008
 5171SOL    HW220450   4.668   4.848   4.253  0.7677  0.6120  1.7839
 5171SOL    HW320451   4.802   4.792   4.294  1.4114 -0.3160 -1.3465
 5171SOL    MW420452   4.735   4.795   4.239  0.4893 -0.6244  0.3450
 5172SOL     OW20453   3.787   3.753   2.546 -0.8992  0.6736  0.0240
 5172SOL    HW220454   3.857   3.693   2.571 -0.7006  0.5582 -0.7848
 5172SOL    HW320455   3.718   3.737   2.611 -0.0782  1.0050  0.9998
 5172SOL    MW420456   3.787   3.743   2.558  0.3036 -0.5092 -0.1718
 5173SOL     OW20457   5.869   4.180   1.897  0.6285 -0.0644 -1.0038
 5173SOL    HW220458   5.843   4.264   1.858  0.3025  1.0179  1.3431
 5173SOL    HW320459   5.786   4.137   1.917  0.7755 -0.3732 -1.0640
 5173SOL    MW420460   5.855   4.185   1.894 -0.1028 -0.2844  0.2463
 5174SOL     OW20461   5.088   1.433   5.828 -0.3946  0.1780 -0.0915
 5174SOL    HW220462   5.079   1.384   5.746  0.4260  0.8899 -0.6240
 5174SOL    HW320463   5.138   1.374   5.885  1.1404  0.6089 -0.9424
 5174SOL    MW420464   5.094   1.419   5.825 -0.2593  0.4518  0.5022
 5175SOL     OW20465   3.420   2.492   4.770  0.1261  0.0927  0.0912
 5175SOL    HW220466   3.444   2.574   4.814  0.6756  0.0079 -0.0394
 5175SOL    HW320467   3.399   2.432   4.841  0.8280  0.0134  0.2394
 5175SOL    MW420468   3.421   2.495   4.785  0.5754 -0.0061  0.1780
 5176SOL     OW20469   1.332   5.476   0.700  0.3781 -0.5227 -0.4619
 5176SOL    HW220470   1.236   5.483   0.706  0.3805 -0.3757 -0.6006
 5176SOL    HW320471   1.364   5.532   0.771  0.3565 -0.7691 -0.2570
 5176SOL    MW420472   1.323   5.484   0.711 -0.3806  0.1196  0.0467
 5177SOL     OW20473   4.283   2.281   2.671 -0.5528  0.2223  0.2294
 5177SOL    HW220474   4.292   2.201   2.724 -0.4936  0.2130  0.2054
 5177SOL    HW320475   4.364   2.284   2.620 -0.3432  0.5504  0.5791
 5177SOL    MW420476   4.295   2.271   2.672  0.1024  0.1020  0.0631
 5178SOL     OW20477   1.014   4.145   0.362 -0.7717 -0.0722 -0.1276
 5178SOL    HW220478   0.984   4.155   0.272 -1.5450  0.2195  0.1539
 5178SOL    HW320479   1.012   4.234   0.398  1.0340  0.0641 -0.2685
 5178SOL    MW420480   1.010   4.158   0.355 -0.5234 -0.5947 -0.1993
 5179SOL     OW20481   1.490   2.306   3.701 -0.0128  0.1699 -0.4140
 5179SOL    HW220482   1.541   2.354   3.636  0.7199  1.8141  1.3034
 5179SOL    HW320483   1.452   2.373   3.757 -0.2921 -1.1946  1.1062
 5179SOL    MW420484   1.492   2.321   3.700  0.0117 -0.1640 -0.3199
 5180SOL     OW20485   2.611   3.635   4.329 -0.2792  0.7017  0.5115
 5180SOL    HW220486   2.701   3.630   4.362 -0.3686 -1.8618  0.5760
 5180SOL    HW320487   2.621   3.666   4.239  0.9740 -1.6610 -0.2567
 5180SOL    MW420488   2.624   3.638   4.322  0.0415  0.2129 -0.3340
 5181SOL     OW20489   0.278   4.383   4.759 -0.5292 -0.3553  0.5831
 5181SOL    HW220490   0.291   4.316   4.826  3.2808 -0.3188  0.1120
 5181SOL    HW320491   0.264   4.464   4.808 -1.3599 -0.8785  1.2249
 5181SOL    MW420492   0.278   4.385   4.774 -0.3004 -0.0986 -0.5137
 5182SOL     OW20493   5.617   3.090   1.025 -0.0168  0.2074  0.4505
 5182SOL    HW220494   5.578   3.158   0.969 -0.2150  0.1909  0.5679
 5182SOL    HW320495   5.579   3.009   0.993  0.4042  0.1239  0.1517
 5182SOL    MW420496   5.607   3.089   1.013 -0.4758 -0.3172 -0.6731
 5183SOL     OW20497   6.357   2.926   5.895  0.6544  0.2682 -0.0629
 5183SOL    HW220498   6.263   2.921   5.878  1.0081  0.2005 -2.3259
 5183SOL    HW320499   6.396   2.861   5.835  2.1467  0.2462  0.8708
 5183SOL    MW420500   6.350   2.917   5.885 -0.4278  0.6068 -0.1650
 5184SOL     OW20501   2.337   2.926   5.399 -0.5061  0.1630 -0.3158
 5184SOL    HW220502   2.389   2.912   5.478  1.4807  0.8327 -1.4422
 5184SOL    HW320503   2.357   3.016   5.372 -1.8337  0.2527 -1.1084
 5184SOL    MW420504   2.346   2.936   5.406 -0.1508  0.2278  0.3020
 5185SOL     OW20505   2.268   3.800   3.765 -0.4126 -0.1947  0.0339
 5185SOL    HW220506   2.207   3.862   3.726 -3.1957 -2.1622  0.9567
 5185SOL    HW320507   2.310   3.849   3.836 -2.8128  0.6053  1.0032
 5185SOL    MW420508   2.266   3.815   3.769  0.2929  0.1124  0.2578
 5186SOL     OW20509   1.472   0.072   5.577 -0.4323 -0.3332  0.2659
 5186SOL    HW220510   1.563   0.044   5.577 -0.2539  0.1658 -1.2365
 5186SOL    HW320511   1.475   0.163   5.607 -0.0633  0.6032 -2.3610
 5186SOL    MW420512   1.484   0.080   5.581 -0.2637  0.0612 -0.2223
 5187SOL     OW20513   2.866   2.242   3.879  0.2088  0.3317 -0.1160
 5187SOL    HW220514   2.957   2.245   3.909  0.5047 -0.5585 -0.8829
 5187SOL    HW320515   2.868   2.282   3.792  0.1379 -1.0031 -0.7447
 5187SOL    MW420516   2.878   2.248   3.872 -0.1077 -0.1479 -0.2461
 5188SOL     OW20517   3.411   3.202   3.385  0.5339 -0.2261  0.1173
 5188SOL    HW220518   3.316   3.187   3.380  0.4340  0.5744 -0.8230
 5188SOL    HW320519   3.450   3.123   3.349  0.2528 -0.8967  1.2663
 5188SOL    MW420520   3.404   3.190   3.379  0.4106 -0.3203 -0.3620
 5189SOL     OW20521   5.186   1.715   6.060  0.6385  0.1948  0.5184
 5189SOL    HW220522   5.139   1.632   6.055 -0.2791  0.7483 -0.7355
 5189SOL    HW320523   5.275   1.693   6.034  0.4606 -0.4435  0.4261
 5189SOL    MW420524   5.191   1.701   6.056 -0.3423  0.4740  0.2654
 5190SOL     OW20525   2.723   5.549   6.331  0.6783  0.3155  0.7040
 5190SOL    HW220526   2.658   5.491   6.372  0.9094 -0.7553 -0.3797
 5190SOL    HW320527   2.690   5.562   6.242  0.9811  1.3324  0.7256
 5190SOL    MW420528   2.710   5.543   6.325 -0.3146 -0.6337 -0.0879
 5191SOL     OW20529   1.006   1.257   5.181 -0.3943 -0.1610  0.6838
 5191SOL    HW220530   0.943   1.303   5.126  1.7316  1.2548 -0.7277
 5191SOL    HW320531   0.982   1.165   5.173 -1.6105  0.2351 -0.6968
 5191SOL    MW420532   0.995   1.251   5.173  0.2468 -0.1611  0.2879
 5192SOL     OW20533   3.115   3.353   2.134  0.8972 -0.1563  0.1485
 5192SOL    HW220534   3.163   3.424   2.175  0.5822  0.2107 -0.1073
 5192SOL    HW320535   3.181   3.285   2.117  1.7286  1.0912 -1.9427
 5192SOL    MW420536   3.130   3.353   2.137  0.2092 -0.2510  0.0581
 5193SOL     OW20537   0.326   1.179   4.630 -0.3167  0.2926 -0.1110
 5193SOL    HW220538   0.400   1.223   4.587 -0.0966  0.0900  0.0532
 5193SOL    HW320539   0.299   1.240   4.699  2.0806 -1.1097  2.2977
 5193SOL    MW420540   0.332   1.193   4.633  1.0726  0.3569 -0.1311
 5194SOL     OW20541   1.797   3.417   6.351 -0.2983 -0.7730 -0.0035
 5194SOL    HW220542   1.892   3.410   6.351 -0.2812 -0.5611  0.0783
 5194SOL    HW320543   1.777   3.477   6.423 -0.5858 -1.9214  0.9155
 5194SOL    MW420544   1.807   3.424   6.361 -0.0501  0.1446 -0.0150
 5195SOL     OW20545   4.660   4.002   4.668  0.5296 -0.3411 -0.1012
 5195SOL    HW220546   4.606   4.031   4.595  0.2564  0.4193  0.3971
 5195SOL    HW320547   4.607   4.017   4.746  1.0417 -0.5974  0.3096
 5195SOL    MW420548   4.646   4.008   4.669 -0.3528 -0.4364  0.0181
 5196SOL     OW20549   3.991   5.787   3.338  0.3917 -0.3386  0.3789
 5196SOL    HW220550   4.062   5.810   3.278 -2.1591  0.4650 -2.5999
 5196SOL    HW320551   3.935   5.864   3.340 -2.5828 -2.2572 -0.8865
 5196SOL    MW420552   3.993   5.800   3.330 -0.2301 -0.2388  0.2679
 5197SOL     OW20553   1.473   4.812   4.535  0.3424  0.1330  0.7648
 5197SOL    HW220554   1.439   4.755   4.466  3.1347 -2.2273  1.1716
 5197SOL    HW320555   1.406   4.807   4.604 -0.8704 -0.2297 -0.3923
 5197SOL    MW420556   1.460   4.804   4.535  0.1643  0.6782  0.4800
 5198SOL     OW20557   0.465   2.997   3.381  0.1344  0.3522  0.1041
 5198SOL    HW220558   0.392   2.976   3.440  0.5318 -1.5000 -0.0009
 5198SOL    HW320559   0.466   3.092   3.377 -2.5245  0.4241 -0.2175
 5198SOL    MW420560   0.456   3.007   3.388 -0.0284 -0.6933  0.4139
 5199SOL     OW20561   5.379   3.990   5.379  0.0131  0.1824  0.0866
 5199SOL    HW220562   5.414   3.997   5.290 -2.1385  1.1744 -0.7333
 5199SOL    HW320563   5.442   3.933   5.425  2.5651  1.7025 -1.2920
 5199SOL    MW420564   5.392   3.983   5.374 -0.3201 -0.5111  0.1546
 5200SOL     OW20565   2.590   3.395   1.447 -0.1976  0.3646  0.2550
 5200SOL    HW220566   2.539   3.429   1.374  1.9306  1.4423 -0.8443
 5200SOL    HW320567   2.643   3.325   1.409 -0.1668 -0.1114  1.1382
 5200SOL    MW420568   2.591   3.390   1.432  0.2588 -0.3688  0.4515
 5201SOL     OW20569   4.955   1.270   1.934 -0.0329  0.2682 -0.0445
 5201SOL    HW220570   5.049   1.263   1.916 -0.1257 -1.0076 -0.1357
 5201SOL    HW320571   4.935   1.191   1.985 -0.4629  2.0251  2.7139
 5201SOL    MW420572   4.965   1.258   1.939 -0.5325  0.2224  0.7244
 5202SOL     OW20573   4.116   5.357   1.156 -0.1205  0.1285 -0.1246
 5202SOL    HW220574   4.086   5.447   1.144 -0.5573  0.1329  0.8847
 5202SOL    HW320575   4.153   5.332   1.071  0.2299  1.3394 -0.3466
 5202SOL    MW420576   4.117   5.366   1.143  0.9078 -0.1437  0.3538
 5203SOL     OW20577   0.091   2.059   5.425 -0.6447  0.5692 -0.0128
 5203SOL    HW220578   0.030   1.998   5.467 -1.5767  1.3739 -0.1584
 5203SOL    HW320579   0.149   2.003   5.373 -0.4491 -0.3218  1.1104
 5203SOL    MW420580   0.090   2.043   5.424  0.2736  0.1638  0.0861
 5204SOL     OW20581   6.015   4.750   5.394  0.1276  0.2239  0.2409
 5204SOL    HW220582   5.965   4.677   5.358  1.4058 -2.4177  3.2870
 5204SOL    HW320583   5.954   4.794   5.453  0.0609 -0.0605  0.3885
 5204SOL    MW420584   6.001   4.746   5.397 -0.0934 -0.5032 -0.0538
 5205SOL     OW20585   0.687   4.757   3.000  0.1486  0.1934 -0.1572
 5205SOL    HW220586   0.656   4.767   2.910  0.2011  3.5394  0.0811
 5205SOL    HW320587   0.610   4.779   3.054  0.6400  0.1261  0.5788
 5205SOL    MW420588   0.672   4.761   2.995 -0.2570  0.2577  0.3627
 5206SOL     OW20589   2.853   2.076   0.163  0.2481  0.3260 -0.5046
 5206SOL    HW220590   2.766   2.113   0.174 -0.2590 -1.0046  0.2992
 5206SOL    HW320591   2.869   2.080   0.069 -0.4932  0.9868 -0.6136
 5206SOL    MW420592   2.844   2.081   0.152 -0.5067  0.0987  0.3292
 5207SOL     OW20593   1.972   5.373   1.751 -0.2736  0.3305 -0.1186
 5207SOL    HW220594   2.035   5.445   1.739  0.5602 -0.6448 -2.1107
 5207SOL    HW320595   2.025   5.300   1.782 -0.9423  0.2644  0.8986
 5207SOL    MW420596   1.987   5.373   1.753  0.0162  0.1802 -0.2290
 5208SOL     OW20597   1.736   0.967   6.407  0.1354  0.1857 -0.1573
 5208SOL    HW220598   1.685   1.006   6.477  1.3424  0.6680  0.4816
 5208SOL    HW320599   1.693   0.883   6.390 -2.0927  1.4316 -1.0826
 5208SOL    MW420600   1.724   0.961   6.414  0.3412  0.2097 -0.5660
 5209SOL     OW20601   1.333   5.273   4.552 -0.2364 -0.0752  0.0788
 5209SOL    HW220602   1.334   5.326   4.631  0.4821 -1.6918  1.2190
 5209SOL    HW320603   1.350   5.335   4.481 -2.4598  1.6759  0.9762
 5209SOL    MW420604   1.336   5.288   4.553  0.2462  0.0203 -0.7736
 5210SOL     OW20605   0.079   1.477   3.345  0.1586  0.2742 -0.2354
 5210SOL    HW220606   0.001   1.508   3.297 -0.0532 -0.2291 -0.2171
 5210SOL    HW320607   0.097   1.391   3.308  0.9731  0.5619 -0.5437
 5210SOL    MW420608   0.071   1.470   3.334 -0.2309 -0.9024  0.4035
 5211SOL     OW20609   4.190   5.346   5.092 -0.8222 -0.2482  0.0650
 5211SOL    HW220610   4.197   5.256   5.059  0.9548  0.8668 -2.9968
 5211SOL    HW320611   4.142   5.393   5.024  0.3256  1.6128  0.4630
 5211SOL    MW420612   4.184   5.340   5.079 -0.2391  0.2823 -0.1699
 5212SOL     OW20613   4.055   5.205   0.523 -0.3269 -0.5491 -0.0926
 5212SOL    HW220614   4.008   5.122   0.531  1.0169 -1.5885 -2.0788
 5212SOL    HW320615   4.147   5.179   0.513 -0.0511  1.0047 -2.5113
 5212SOL    MW420616   4.061   5.191   0.522 -0.0169  0.1431 -0.4731
 5213SOL     OW20617   4.378   2.162   3.354 -0.3101  0.3497 -0.2045
 5213SOL    HW220618   4.381   2.256   3.367 -0.9842  0.0266  2.7913
 5213SOL    HW320619   4.290   2.136   3.378  0.0979 -1.1427 -0.1986
 5213SOL    MW420620   4.367   2.171   3.359 -0.6204  0.1383 -0.1392
 5214SOL     OW20621   0.700   4.723   3.889  0.1518 -0.3160 -0.2059
 5214SOL    HW220622   0.611   4.747   3.918  0.0336 -1.8532  0.8378
 5214SOL    HW320623   0.715   4.777   3.812 -1.0104  1.2556  0.5906
 5214SOL    MW420624   0.690   4.733   3.883  0.3092  0.2797  0.5087
 5215SOL     OW20625   3.256   0.331   5.701  0.4911  0.6677 -0.5956
 5215SOL    HW220626   3.282   0.423   5.710 -3.0838  1.7963 -0.0068
 5215SOL    HW320627   3.233   0.322   5.608  2.8387 -0.3690 -1.1578
 5215SOL    MW420628   3.256   0.342   5.690 -0.2249  0.6444  0.0515
 5216SOL     OW20629   3.307   2.876   6.368 -1.2424  0.0630 -0.0225
 5216SOL    HW220630   3.319   2.923   6.285  0.8589 -0.0483  0.1666
 5216SOL    HW320631   3.230   2.918   6.408 -1.9285  0.5310 -1.7162
 5216SOL    MW420632   3.298   2.888   6.362  0.6782  0.8868 -0.2771
 5217SOL     OW20633   1.280   5.361   6.174 -0.0362  0.4826  0.0943
 5217SOL    HW220634   1.218   5.367   6.247 -0.1593  1.5792 -0.0827
 5217SOL    HW320635   1.296   5.267   6.164 -0.5798  0.2711  1.0557
 5217SOL    MW420636   1.274   5.350   6.182  0.0473 -0.4938 -0.0491
 5218SOL     OW20637   4.023   0.671   2.282 -0.0455  0.0954 -0.1184
 5218SOL    HW220638   4.095   0.619   2.317 -0.9213 -0.6939  0.5622
 5218SOL    HW320639   3.970   0.608   2.232 -3.4039 -0.7996  4.0311
 5218SOL    MW420640   4.026   0.656   2.280 -0.1570  0.2982  0.4472
 5219SOL     OW20641   4.773   4.204   3.185  0.4455 -0.2993  0.2180
 5219SOL    HW220642   4.762   4.114   3.156  0.2501  0.2582 -1.5931
 5219SOL    HW320643   4.698   4.221   3.242  0.3451 -1.1930  0.3542
 5219SOL    MW420644   4.762   4.195   3.188  0.3195  1.0705 -0.5701
 5220SOL     OW20645   3.650   2.884   3.435 -0.4891 -0.4922 -0.3753
 5220SOL    HW220646   3.745   2.897   3.432 -0.4969  0.7094  2.1538
 5220SOL    HW320647   3.639   2.789   3.426  0.8956 -0.6112 -1.1932
 5220SOL    MW420648   3.661   2.873   3.434 -0.4226  0.0062 -0.2659
 5221SOL     OW20649   0.525   4.906   1.942  0.2832 -0.2690 -0.0966
 5221SOL    HW220650   0.510   4.893   2.036  0.9523 -0.6847 -0.0409
 5221SOL    HW320651   0.448   4.954   1.912  0.4519  0.5990  0.8228
 5221SOL    MW420652   0.513   4.910   1.951 -0.2867 -0.0216 -0.1108
 5222SOL     OW20653   4.190   0.805   4.838  0.1034 -0.1422  0.2753
 5222SOL    HW220654   4.240   0.782   4.760  0.7211  0.6927  0.4090
 5222SOL    HW320655   4.112   0.750   4.834  0.9067 -1.3005 -0.0729
 5222SOL    MW420656   4.186   0.794   4.827 -0.4005 -0.7170 -0.3366
 5223SOL     OW20657   5.083   0.334   5.599  0.4366  0.0128  0.2361
 5223SOL    HW220658   5.043   0.293   5.522  0.0002  0.7719  0.0463
 5223SOL    HW320659   5.174   0.304   5.598  0.0678 -1.1548  0.2578
 5223SOL    MW420660   5.090   0.324   5.589 -0.8341 -0.2476 -0.6984
 5224SOL     OW20661   4.092   3.180   5.270  0.2014 -0.1585 -0.0401
 5224SOL    HW220662   4.062   3.248   5.211  0.4375  0.6461  0.7494
 5224SOL    HW320663   4.156   3.130   5.219 -0.5381 -0.2775 -0.8738
 5224SOL    MW420664   4.097   3.182   5.256 -0.0362 -0.1460  0.0331
 5225SOL     OW20665   5.529   5.909   2.179  0.4549  0.2225 -1.0866
 5225SOL    HW220666   5.606   5.852   2.181 -0.7723 -1.5098 -0.8273
 5225SOL    HW320667   5.509   5.927   2.271 -0.3244 -0.6269 -1.0712
 5225SOL    MW420668   5.536   5.904   2.191 -0.0754  0.1656 -0.1443
 5226SOL     OW20669   3.129   6.219   5.784 -0.2348  0.1067 -0.5559
 5226SOL    HW220670   3.085   6.304   5.784  1.1070  0.8459 -0.9722
 5226SOL    HW320671   3.091   6.172   5.857 -1.3244  0.8985 -0.5920
 5226SOL    MW420672   3.118   6.224   5.793 -0.4846 -0.2392 -0.4493
 5227SOL     OW20673   4.397   6.212   5.635 -0.5862  0.2118 -0.2323
 5227SOL    HW220674   4.338   6.260   5.577  1.4577  2.1413 -0.8080
 5227SOL    HW320675   4.369   6.238   5.723 -0.7910  0.8709 -0.4835
 5227SOL    MW420676   4.385   6.222   5.639  0.5363 -0.6333  0.2669
 5228SOL     OW20677   5.381   1.986   4.151 -0.2383  0.0131 -0.1340
 5228SOL    HW220678   5.360   2.079   4.153 -1.4380 -0.2512  0.4873
 5228SOL    HW320679   5.308   1.946   4.105  0.8410 -0.5108 -1.4763
 5228SOL    MW420680   5.369   1.993   4.145 -0.2428 -0.5946 -0.2845
 5229SOL     OW20681   1.436   2.858   0.798 -0.5765  0.8687  0.3293
 5229SOL    HW220682   1.454   2.879   0.890 -2.5191  0.8612  0.7476
 5229SOL    HW320683   1.422   2.942   0.756 -0.3211  0.8328  0.1675
 5229SOL    MW420684   1.437   2.872   0.805 -0.1150  0.7655 -0.1997
 5230SOL     OW20685   5.169   3.889   6.143  0.1199  0.0367  0.3345
 5230SOL    HW220686   5.253   3.877   6.188  0.1318  0.4537  0.4296
 5230SOL    HW320687   5.182   3.967   6.089  0.8324 -1.6296 -2.0903
 5230SOL    MW420688   5.182   3.898   6.142 -0.9657 -0.2632  0.4278
 5231SOL     OW20689   1.918   2.312   5.583  0.1112  0.1035  0.2046
 5231SOL    HW220690   1.951   2.279   5.500  0.3448  2.4470 -0.7156
 5231SOL    HW320691   1.837   2.263   5.598 -1.1030  1.0730 -2.5331
 5231SOL    MW420692   1.912   2.301   5.574  0.0904  0.1976 -0.9467
 5232SOL     OW20693   3.366   5.307   0.006 -0.2372  0.0883  0.3106
 5232SOL    HW220694   3.295   5.344  -0.047  0.0545  1.2595  0.6992
 5232SOL    HW320695   3.398   5.381   0.057  1.7159 -0.2539 -0.3460
 5232SOL    MW420696   3.361   5.322   0.005 -0.2326 -0.3262 -0.2310
 5233SOL     OW20697   0.657   3.950   2.607 -0.1894  0.0148 -0.1265
 5233SOL    HW220698   0.628   3.896   2.533 -0.8275 -1.5012  1.1755
 5233SOL    HW320699   0.578   3.998   2.633 -0.1056  0.1223 -0.0692
 5233SOL    MW420700   0.642   3.949   2.601  0.2748  0.2972  0.2138
 5234SOL     OW20701   4.085   3.975   2.870  0.2275 -1.0387  0.1404
 5234SOL    HW220702   4.121   3.992   2.783  0.5784 -0.9753  0.2968
 5234SOL    HW320703   4.142   3.906   2.906 -1.0617 -2.4603 -0.4235
 5234SOL    MW420704   4.098   3.968   2.863 -0.0500 -0.3763  0.3208
 5235SOL     OW20705   3.987   2.227   1.624 -0.4573  0.3098 -0.1570
 5235SOL    HW220706   3.973   2.195   1.535 -0.1265  1.3912 -0.6180
 5235SOL    HW320707   3.910   2.280   1.643 -0.9180 -0.5797  0.5293
 5235SOL    MW420708   3.975   2.230   1.614  0.1386 -0.0603 -0.7977
 5236SOL     OW20709   4.326   0.747   2.061 -0.2291  0.2113 -0.5356
 5236SOL    HW220710   4.351   0.786   1.978  3.1080 -0.2304  0.1036
 5236SOL    HW320711   4.274   0.670   2.037 -0.0592  0.5766 -2.1729
 5236SOL    MW420712   4.323   0.742   2.047  0.3531  0.2081  0.3672
 5237SOL     OW20713   2.674   2.888   3.668 -0.3273  0.3645 -0.2447
 5237SOL    HW220714   2.675   2.851   3.580 -0.8424 -2.5841  0.8809
 5237SOL    HW320715   2.767   2.894   3.692 -0.1864  1.1408 -0.9430
 5237SOL    MW420716   2.686   2.884   3.660  0.1095 -0.4447  0.4554
 5238SOL     OW20717   4.188   5.578   1.884  0.3366  0.0064  0.4900
 5238SOL    HW220718   4.257   5.623   1.834  0.9007  0.9306  2.0296
 5238SOL    HW320719   4.107   5.607   1.843  0.7262  1.7693  0.8486
 5238SOL    MW420720   4.187   5.588   1.872  0.0858  0.5641 -0.1884
 5239SOL     OW20721   2.511   2.325   6.059 -0.3738  0.4578 -0.0056
 5239SOL    HW220722   2.485   2.255   6.000  0.8357 -0.8742  0.9808
 5239SOL    HW320723   2.582   2.370   6.013  1.4546 -1.3831  0.8864
 5239SOL    MW420724   2.517   2.322   6.045  0.2556 -0.3090  0.3576
 5240SOL     OW20725   0.069   0.441   3.288  0.0549 -0.1704  0.8733
 5240SOL    HW220726   0.004   0.507   3.315  1.0168  1.3888 -0.4434
 5240SOL    HW320727   0.087   0.462   3.196 -1.5724 -3.9726 -0.5000
 5240SOL    MW420728   0.062   0.453   3.279  0.1566  0.1370  0.3470
 5241SOL     OW20729   1.137   5.746   0.604  0.0066  0.5397 -0.2824
 5241SOL    HW220730   1.089   5.687   0.661  0.7377 -0.1674 -0.3769
 5241SOL    HW320731   1.150   5.826   0.656  2.1946 -0.7078  1.2497
 5241SOL    MW420732   1.133   5.749   0.618  0.0293  0.4557 -0.2249
 5242SOL     OW20733   4.885   0.996   2.803  0.1233 -0.4001 -0.5466
 5242SOL    HW220734   4.878   1.054   2.879 -0.5012  2.2142 -2.4493
 5242SOL    HW320735   4.977   1.001   2.779 -0.2655  1.5048 -1.8526
 5242SOL    MW420736   4.896   1.004   2.810  0.2093 -0.4845 -0.2214
 5243SOL     OW20737   0.222   4.124   6.399  0.6063 -0.2219 -0.4987
 5243SOL    HW220738   0.222   4.191   6.468  1.0432  0.1404 -0.8448
 5243SOL    HW320739   0.313   4.095   6.394  0.4432 -0.7628 -0.4346
 5243SOL    MW420740   0.234   4.129   6.408 -0.7037  0.2874  0.0036
 5244SOL     OW20741   4.350   5.686   0.438 -0.1269  0.1958 -0.5049
 5244SOL    HW220742   4.271   5.662   0.390 -1.7211  1.3470  1.4247
 5244SOL    HW320743   4.349   5.632   0.516  0.3536  1.0557  0.1171
 5244SOL    MW420744   4.339   5.676   0.442 -0.3379  0.1631  0.1248
 5245SOL     OW20745   2.175   4.239   3.916 -0.2142  0.1397  0.2813
 5245SOL    HW220746   2.116   4.167   3.938 -0.6716  0.6993  0.9094
 5245SOL    HW320747   2.258   4.217   3.958 -0.4666  0.1674  0.7897
 5245SOL    MW420748   2.178   4.227   3.924 -0.3382  0.3684  0.1257
 5246SOL     OW20749   4.107   6.325   2.755 -0.2757  0.1994  0.2683
 5246SOL    HW220750   4.023   6.296   2.789 -1.1814  1.4131 -0.8461
 5246SOL    HW320751   4.165   6.249   2.764 -1.7102 -0.9247  0.2537
 5246SOL    MW420752   4.104   6.311   2.761  0.3847  0.3079  0.6509
 5247SOL     OW20753   1.013   6.083   3.899  0.3578  0.0862 -0.0848
 5247SOL    HW220754   1.057   6.038   3.827  0.8262  0.1645  0.1491
 5247SOL    HW320755   1.053   6.170   3.902  0.9786 -0.2162  0.8303
 5247SOL    MW420756   1.024   6.089   3.890 -0.1471  0.2976  0.4493
 5248SOL     OW20757   2.799   3.592   3.288  0.1033  0.1549 -0.3596
 5248SOL    HW220758   2.762   3.670   3.329  0.9237  1.3767 -1.8044
 5248SOL    HW320759   2.732   3.563   3.226  0.4559  0.7731 -1.0542
 5248SOL    MW420760   2.785   3.598   3.285 -0.4226  0.1913 -0.5405
 5249SOL     OW20761   1.677   5.598   3.147 -0.3436  0.2478  0.0450
 5249SOL    HW220762   1.714   5.522   3.193 -0.5338  0.3387  0.3549
 5249SOL    HW320763   1.731   5.607   3.069 -0.5047 -0.3938 -0.1516
 5249SOL    MW420764   1.689   5.589   3.143  0.6563 -0.7056 -0.1271
 5250SOL     OW20765   2.468   0.147   6.120  0.3481 -0.0230 -0.4790
 5250SOL    HW220766   2.552   0.113   6.089 -0.3861 -2.1085 -0.3656
 5250SOL    HW320767   2.422   0.172   6.041 -0.0198 -1.6630 -0.8228
 5250SOL    MW420768   2.473   0.146   6.106  0.3476 -0.0586  0.0673
 5251SOL     OW20769   4.940   0.181   3.626 -0.4400  1.0096 -0.3315
 5251SOL    HW220770   4.962   0.101   3.673  1.2490  1.7577  0.2436
 5251SOL    HW320771   4.986   0.173   3.542  4.5285  3.5358  1.6915
 5251SOL    MW420772   4.949   0.169   3.621  0.0101  0.4694 -0.3683
 5252SOL     OW20773   5.367   5.617   2.969  0.8576 -0.1969 -0.3320
 5252SOL    HW220774   5.452   5.603   2.926  0.7714 -3.4382  0.2959
 5252SOL    HW320775   5.303   5.577   2.910 -0.0634  0.6996  0.0222
 5252SOL    MW420776   5.370   5.610   2.955  0.0596 -0.1047 -0.0275
 5253SOL     OW20777   0.224   5.731   3.756 -0.1458  0.2475  0.1130
 5253SOL    HW220778   0.145   5.706   3.803 -0.4024  0.1493 -0.3652
 5253SOL    HW320779   0.193   5.771   3.675  0.2346  2.6482  1.0732
 5253SOL    MW420780   0.209   5.733   3.752  0.2994 -0.6212  0.0170
 5254SOL     OW20781   0.515   5.699   1.834 -0.3466 -0.3278  0.2943
 5254SOL    HW220782   0.506   5.780   1.783 -1.3866  0.4832  1.6977
 5254SOL    HW320783   0.493   5.629   1.772  0.0698  0.4920 -0.8039
 5254SOL    MW420784   0.510   5.700   1.819 -0.2354 -0.6669 -0.0526
 5255SOL     OW20785   4.805   5.617   0.217  0.3467  0.2577  0.1756
 5255SOL    HW220786   4.748   5.617   0.294 -0.8170  1.1302 -0.6541
 5255SOL    HW320787   4.792   5.531   0.177 -0.2627  0.3870  0.0869
 5255SOL    MW420788   4.796   5.606   0.222 -0.3136 -0.0992 -0.8502
 5256SOL     OW20789   0.462   5.509   0.048 -0.0947 -0.0344  0.1736
 5256SOL    HW220790   0.529   5.575   0.031 -0.8369  0.7235  0.0999
 5256SOL    HW320791   0.443   5.471  -0.038 -0.5565  0.5500  0.0092
 5256SOL    MW420792   0.468   5.513   0.034 -0.0361  0.0460 -0.2638
 5257SOL     OW20793   2.905   5.874   1.804 -0.6551 -0.5168 -0.5648
 5257SOL    HW220794   2.866   5.866   1.717 -2.0919 -0.5567  0.0530
 5257SOL    HW320795   2.880   5.961   1.834 -1.1488 -0.9258  0.2522
 5257SOL    MW420796   2.897   5.884   1.797 -0.3540 -0.2969  0.0856
 5258SOL     OW20797   2.694   1.722   0.162  0.3147 -0.0527  0.1753
 5258SOL    HW220798   2.682   1.628   0.156 -0.0769 -0.1343  1.8910
 5258SOL    HW320799   2.653   1.747   0.245  0.6083  1.5919 -0.1346
 5258SOL    MW420800   2.687   1.713   0.172 -0.6607  0.2732 -0.4769
 5259SOL     OW20801   3.426   3.013   5.270  0.4037  0.7727 -0.0676
 5259SOL    HW220802   3.387   3.077   5.210  0.4462  0.4389 -0.4542
 5259SOL    HW320803   3.512   2.994   5.233  0.2492  0.2222 -0.1473
 5259SOL    MW420804   3.432   3.019   5.257  0.1374 -0.5480 -0.4009
 5260SOL     OW20805   5.203   5.933   2.488 -0.3392  0.4355 -0.1933
 5260SOL    HW220806   5.294   5.962   2.479 -0.4497  0.7348 -0.3710
 5260SOL    HW320807   5.163   5.999   2.545 -0.3399  0.0735  0.2291
 5260SOL    MW420808   5.210   5.946   2.494  1.1493 -0.4091 -0.6206
 5261SOL     OW20809   4.157   4.014   3.942 -0.4475 -0.5606 -0.5593
 5261SOL    HW220810   4.125   3.930   3.909  0.3792 -0.5167 -1.5427
 5261SOL    HW320811   4.215   3.991   4.015 -0.9000 -0.7821 -0.2677
 5261SOL    MW420812   4.161   4.000   3.947  0.0150 -0.0265 -0.0418
 5262SOL     OW20813   1.252   0.749   1.410 -0.0340  0.0129 -0.6087
 5262SOL    HW220814   1.183   0.690   1.381 -1.3009  1.4071 -0.5420
 5262SOL    HW320815   1.214   0.796   1.484  1.8806 -0.9272  1.0671
 5262SOL    MW420816   1.238   0.748   1.416  0.5192 -0.2212  0.0735
 5263SOL     OW20817   5.630   3.226   3.428  0.1233  0.2072  0.0787
 5263SOL    HW220818   5.653   3.229   3.521 -3.1728  0.7764  0.9971
 5263SOL    HW320819   5.712   3.205   3.384  1.8286 -0.0081  3.0855
 5263SOL    MW420820   5.644   3.224   3.435  0.1576 -0.4127 -0.2741
 5264SOL     OW20821   6.162   0.793   0.067 -0.0267 -0.5105 -0.2242
 5264SOL    HW220822   6.103   0.845   0.121 -0.1566 -0.6560 -0.2251
 5264SOL    HW320823   6.113   0.777  -0.014  0.7788  1.0949 -1.0692
 5264SOL    MW420824   6.148   0.798   0.063 -0.0188  0.1706  0.3138
 5265SOL     OW20825   5.758   6.055   0.240 -0.1100  0.1191  0.6277
 5265SOL    HW220826   5.724   6.144   0.228  0.9100  0.4332 -0.0521
 5265SOL    HW320827   5.700   6.000   0.187  0.2211  0.5973 -0.2454
 5265SOL    MW420828   5.746   6.060   0.231  0.3464  0.3069  0.6564
 5266SOL     OW20829   1.791   2.677   5.496 -0.1486  0.0534  0.1789
 5266SOL    HW220830   1.852   2.613   5.532 -0.1320 -0.6640 -1.0641
 5266SOL    HW320831   1.832   2.762   5.512  2.0259 -0.4645 -2.0110
 5266SOL    MW420832   1.804   2.680   5.503  0.3558 -0.1605  0.4485
 5267SOL     OW20833   5.258   5.914   0.132 -0.5429  0.0780 -0.1651
 5267SOL    HW220834   5.190   5.854   0.102  0.1681 -0.4959 -0.6732
 5267SOL    HW320835   5.213   5.997   0.148 -1.8103 -0.9242  1.8212
 5267SOL    MW420836   5.243   5.917   0.130  0.1733 -0.4909 -0.9710
 5268SOL     OW20837   4.570   4.999   2.427 -0.0068  0.2721 -0.6454
 5268SOL    HW220838   4.615   4.932   2.479  0.3580  0.9524 -0.0563
 5268SOL    HW320839   4.478   4.993   2.453  0.1430  0.4756 -0.0650
 5268SOL    MW420840   4.564   4.989   2.437  0.0351  0.3920  0.5324
 5269SOL     OW20841   0.534   5.793   2.416  0.0094  0.1018 -0.2184
 5269SOL    HW220842   0.570   5.850   2.347  0.2006 -0.9191 -0.9928
 5269SOL    HW320843   0.610   5.771   2.471  0.6253 -1.8866 -1.7333
 5269SOL    MW420844   0.549   5.798   2.414 -0.3598  0.1410  0.2504
 5270SOL     OW20845   5.954   4.923   3.536  0.2394  0.4846  0.3365
 5270SOL    HW220846   5.920   4.947   3.450 -1.3382 -0.1808  0.7357
 5270SOL    HW320847   5.880   4.883   3.581  1.3119 -0.1413  1.6370
 5270SOL    MW420848   5.940   4.920   3.531  0.3040  1.0612  0.1841
 5271SOL     OW20849   5.796   5.309   0.667  0.1761  0.2263 -0.6072
 5271SOL    HW220850   5.799   5.226   0.713 -0.8888  0.3263 -0.3291
 5271SOL    HW320851   5.852   5.297   0.591 -2.2958 -1.8250 -2.2572
 5271SOL    MW420852   5.804   5.297   0.663  0.5467 -0.3606  0.0176
 5272SOL     OW20853   0.823   4.343   2.729 -0.3496 -0.0669  0.4659
 5272SOL    HW220854   0.742   4.385   2.757  0.2213  0.6752  1.0684
 5272SOL    HW320855   0.802   4.303   2.645 -1.0899  0.9317  0.1574
 5272SOL    MW420856   0.810   4.344   2.722 -0.4582 -0.1164 -0.1547
 5273SOL     OW20857   6.018   4.627   1.883  0.1860  0.2321 -0.3516
 5273SOL    HW220858   6.099   4.584   1.911  0.6136  1.1519 -0.1320
 5273SOL    HW320859   6.000   4.592   1.796  0.8392  0.0416 -0.4122
 5273SOL    MW420860   6.026   4.617   1.875 -0.7007 -0.4593  0.3888
 5274SOL     OW20861   3.979   3.296   5.965 -0.2560 -0.5102  0.8982
 5274SOL    HW220862   3.982   3.277   6.059 -0.3407 -0.3709  0.9293
 5274SOL    HW320863   3.954   3.388   5.960 -0.6044 -0.6126  0.7321
 5274SOL    MW420864   3.976   3.306   5.977  0.0025 -0.2367  0.1924
 5275SOL     OW20865   2.603   3.409   1.056  0.1131  0.1938 -0.3986
 5275SOL    HW220866   2.665   3.385   0.988 -0.1759  0.5195 -0.7829
 5275SOL    HW320867   2.560   3.488   1.023 -0.3251  0.1159 -0.0293
 5275SOL    MW420868   2.605   3.416   1.043  0.3711  0.0241  0.2966
 5276SOL     OW20869   1.466   1.866   4.169  0.0707  0.2638  0.6063
 5276SOL    HW220870   1.465   1.959   4.144 -1.2519  1.0316  3.0780
 5276SOL    HW320871   1.374   1.841   4.170  0.4355 -1.2337 -0.3906
 5276SOL    MW420872   1.454   1.875   4.166  0.0532  0.8456 -0.1136
 5277SOL     OW20873   3.530   3.438   5.799 -0.0238 -0.0625 -0.0723
 5277SOL    HW220874   3.447   3.485   5.806  0.4699  0.6961  1.0022
 5277SOL    HW320875   3.552   3.414   5.890 -0.6507 -3.1529 -0.6008
 5277SOL    MW420876   3.522   3.441   5.812 -0.2817 -0.1305  0.4396
 5278SOL     OW20877   6.122   3.373   5.327  0.0474 -0.0844 -0.0782
 5278SOL    HW220878   6.093   3.348   5.414 -0.1268 -1.6286 -0.5564
 5278SOL    HW320879   6.192   3.312   5.305  0.4423  0.6090 -0.8297
 5278SOL    MW420880   6.127   3.362   5.335 -0.3033  0.3464  0.0437
 5279SOL     OW20881   2.090   2.436   2.922  0.3720  0.0054  0.0646
 5279SOL    HW220882   2.017   2.492   2.894  0.4065 -0.1355 -0.3153
 5279SOL    HW320883   2.091   2.365   2.858  0.9654  0.1079 -0.0406
 5279SOL    MW420884   2.080   2.434   2.910 -0.2172 -0.1604  0.1216
 5280SOL     OW20885   2.288   0.538   0.628 -0.0911 -0.2288  0.1337
 5280SOL    HW220886   2.350   0.499   0.566 -2.7431 -0.0144 -2.8696
 5280SOL    HW320887   2.295   0.483   0.706  1.3245 -2.3697 -1.3829
 5280SOL    MW420888   2.297   0.525   0.630  0.2955  0.2982  0.5275
 5281SOL     OW20889   0.964   2.322   1.434 -0.3052  0.6909 -0.2965
 5281SOL    HW220890   1.010   2.393   1.389  0.4099 -0.1553 -0.9356
 5281SOL    HW320891   0.972   2.344   1.527  1.3151  0.6361 -0.3928
 5281SOL    MW420892   0.971   2.334   1.440 -0.0711  0.4139  0.2308
 5282SOL     OW20893   3.419   1.762   1.920 -0.1226 -0.5064 -0.3744
 5282SOL    HW220894   3.417   1.848   1.961 -0.7892 -0.2131 -0.9902
 5282SOL    HW320895   3.500   1.761   1.869  0.3240 -0.5842  0.3247
 5282SOL    MW420896   3.429   1.773   1.918 -0.1342  0.3093 -0.0997
 5283SOL     OW20897   6.377   5.149   5.742 -0.2756 -0.0878 -0.0801
 5283SOL    HW220898   6.301   5.174   5.794 -0.6276 -3.4453  1.2631
 5283SOL    HW320899   6.341   5.126   5.656 -0.2322  1.5681 -0.5823
 5283SOL    MW420900   6.362   5.150   5.737  0.5883 -0.4274  0.1511
 5284SOL     OW20901   3.985   4.622   0.763 -0.2666  0.1551 -0.5460
 5284SOL    HW220902   4.002   4.548   0.705  0.7151  1.9517 -2.6794
 5284SOL    HW320903   3.891   4.636   0.758 -0.4308 -0.8165 -0.2674
 5284SOL    MW420904   3.975   4.614   0.755  0.4037  0.2018  0.2778
 5285SOL     OW20905   3.834   6.252   6.222  0.2278 -0.5234  0.3662
 5285SOL    HW220906   3.748   6.243   6.262  0.3053  1.9557  1.3072
 5285SOL    HW320907   3.852   6.346   6.225  2.0873 -0.7219 -1.7179
 5285SOL    MW420908   3.825   6.263   6.228  0.5468  0.4168 -0.0833
 5286SOL     OW20909   2.737   4.987   0.215  0.5148 -1.0756 -0.1812
 5286SOL    HW220910   2.794   5.061   0.239 -1.2878 -0.1675  1.5692
 5286SOL    HW320911   2.796   4.923   0.176  2.3464  0.7740 -0.6037
 5286SOL    MW420912   2.752   4.989   0.213  0.1340  0.2365 -0.4993
 5287SOL     OW20913   6.174   5.412   3.120 -0.5006 -0.5682 -0.5167
 5287SOL    HW220914   6.111   5.400   3.049 -0.6042 -0.5026 -0.4354
 5287SOL    HW320915   6.251   5.450   3.077 -0.6057 -0.4199 -0.5764
 5287SOL    MW420916   6.176   5.415   3.105  0.4767  0.2636 -0.0065
 5288SOL     OW20917   6.429   1.449   4.063 -0.0551 -0.2790 -0.1633
 5288SOL    HW220918   6.373   1.372   4.068  1.3792 -1.2848  1.5362
 5288SOL    HW320919   6.487   1.442   4.138  2.0964  0.9022 -1.5892
 5288SOL    MW420920   6.430   1.438   4.073 -0.3184 -0.2258  0.2169
 5289SOL     OW20921   3.024   5.587   2.107 -0.0894  0.3433  0.1480
 5289SOL    HW220922   3.041   5.510   2.160 -1.0915  0.1813  0.2527
 5289SOL    HW320923   3.092   5.585   2.039  0.0074 -0.5167  0.2648
 5289SOL    MW420924   3.035   5.577   2.105 -0.0854 -0.1035  0.4077
 5290SOL     OW20925   3.941   4.333   5.300 -0.3512  0.0965  0.1985
 5290SOL    HW220926   3.913   4.423   5.283  0.9753  0.5515  0.2670
 5290SOL    HW320927   4.037   4.339   5.305 -0.2207 -1.3732 -0.1071
 5290SOL    MW420928   3.950   4.346   5.298 -0.5796  0.0741  0.1424
 5291SOL     OW20929   6.149   5.448   5.863  0.1311 -0.2560 -0.1444
 5291SOL    HW220930   6.099   5.530   5.865 -0.8192 -0.8044 -0.6131
 5291SOL    HW320931   6.156   5.422   5.955 -1.4308 -0.7271 -0.1268
 5291SOL    MW420932   6.143   5.456   5.875  0.0461  0.3665  0.0526
 5292SOL     OW20933   6.270   2.024   0.824  0.3681  0.6072  0.5848
 5292SOL    HW220934   6.339   2.054   0.883 -0.8516  3.6943  0.6461
 5292SOL    HW320935   6.195   2.006   0.882 -0.0618  1.1673  0.2149
 5292SOL    MW420936   6.269   2.025   0.839 -0.3653  0.4051 -0.0131
 5293SOL     OW20937   4.567   6.078   1.039  0.4605  0.3692  0.0032
 5293SOL    HW220938   4.547   6.059   0.947  0.7001  1.0145 -0.1886
 5293SOL    HW320939   4.496   6.037   1.088  0.7329 -0.6292 -0.4165
 5293SOL    MW420940   4.555   6.070   1.033 -0.4183 -0.3849  0.3370
 5294SOL     OW20941   5.236   2.233   1.250  0.2531  0.0914 -0.2432
 5294SOL    HW220942   5.157   2.213   1.200 -1.2055 -1.6539  2.4699
 5294SOL    HW320943   5.233   2.327   1.264 -0.6404  0.2377 -1.3126
 5294SOL    MW420944   5.225   2.242   1.246 -0.5710 -0.0375  0.7016
 5295SOL     OW20945   5.775   0.040   5.079 -0.1572  0.1183 -0.4302
 5295SOL    HW220946   5.712   0.110   5.097 -0.7881 -0.3404 -0.7958
 5295SOL    HW320947   5.826   0.073   5.005  0.8801  1.0130  0.6392
 5295SOL    MW420948   5.773   0.054   5.071  0.4025 -0.0426 -0.7114
 5296SOL     OW20949   1.297   0.870   4.205 -0.2707 -0.2546 -0.5036
 5296SOL    HW220950   1.260   0.851   4.291 -0.4635 -0.0750 -0.5459
 5296SOL    HW320951   1.251   0.811   4.145  0.9569 -1.5056 -0.2739
 5296SOL    MW420952   1.286   0.860   4.208  0.9653  0.4603 -0.4328
 5297SOL     OW20953   3.352   6.399   4.382  0.1869  0.2021 -0.0718
 5297SOL    HW220954   3.282   6.431   4.325  0.1184 -2.0570 -1.3961
 5297SOL    HW320955   3.309   6.333   4.438  0.8389  0.3563  0.6296
 5297SOL    MW420956   3.337   6.394   4.382  0.2222  0.1713  0.3046
 5298SOL     OW20957   1.922   2.799   3.553  0.0279  0.5541 -0.1586
 5298SOL    HW220958   1.871   2.824   3.476  2.1647 -0.8450 -2.1717
 5298SOL    HW320959   1.928   2.879   3.605 -2.7950  1.1552 -0.5771
 5298SOL    MW420960   1.916   2.813   3.550  0.3386  0.4418 -0.0183
 5299SOL     OW20961   5.478   0.509   3.505 -0.2888 -0.3810  0.1534
 5299SOL    HW220962   5.562   0.476   3.538  0.8906  1.6476 -0.6882
 5299SOL    HW320963   5.455   0.580   3.565 -0.4557  0.2862 -0.6812
 5299SOL    MW420964   5.486   0.514   3.518  0.9388 -0.2532  0.0558
 5300SOL     OW20965   4.918   0.176   5.327  0.4174  0.3942  0.4512
 5300SOL    HW220966   4.844   0.125   5.360  1.1141 -1.6715 -0.9099
 5300SOL    HW320967   4.880   0.237   5.264 -0.1147 -1.1482 -0.7826
 5300SOL    MW420968   4.903   0.177   5.323  0.5450 -0.0422 -0.4698
 5301SOL     OW20969   5.517   2.520   4.571  0.1601  0.2112  0.0933
 5301SOL    HW220970   5.562   2.563   4.498  0.2319 -1.4399 -0.8818
 5301SOL    HW320971   5.553   2.562   4.649  1.9224  0.3157 -0.7343
 5301SOL    MW420972   5.528   2.531   4.571 -0.8326 -0.1451  0.3676
 5302SOL     OW20973   1.804   1.688   2.331  0.1481  0.0405  0.3098
 5302SOL    HW220974   1.851   1.677   2.248 -2.3801 -0.0608 -1.2003
 5302SOL    HW320975   1.822   1.779   2.356  0.8385  0.1125 -0.3930
 5302SOL    MW420976   1.813   1.699   2.323 -0.0605  0.4626  0.2544
 5303SOL     OW20977   2.369   3.404   4.906  0.3626  0.2308  0.2317
 5303SOL    HW220978   2.384   3.318   4.947  1.5409 -0.9014 -2.3231
 5303SOL    HW320979   2.296   3.389   4.846  0.4959  1.0641 -0.1491
 5303SOL    MW420980   2.362   3.390   4.904 -0.4620 -0.0872  0.1011
 5304SOL     OW20981   1.333   1.957   2.535  0.6633 -0.0706  0.2303
 5304SOL    HW220982   1.383   1.887   2.494 -0.6513 -0.6305 -0.4673
 5304SOL    HW320983   1.274   1.989   2.466 -0.4299  0.0875  1.1979
 5304SOL    MW420984   1.332   1.952   2.521 -0.0553  0.5550 -0.3393
 5305SOL     OW20985   2.876   6.307   6.059  0.3966  0.1370  0.0146
 5305SOL    HW220986   2.939   6.367   6.099 -0.4051  1.5147 -0.7076
 5305SOL    HW320987   2.810   6.294   6.126 -0.1090  1.1488 -0.2669
 5305SOL    MW420988   2.876   6.313   6.073  0.0853 -0.3548 -0.3793
 5306SOL     OW20989   6.142   4.891   6.104 -0.2144 -0.5405 -0.9120
 5306SOL    HW220990   6.072   4.837   6.141 -0.3659  0.4992  0.3939
 5306SOL    HW320991   6.216   4.879   6.165 -0.1582  0.4663 -0.7726
 5306SOL    MW420992   6.143   4.882   6.117 -0.2777  0.2407 -0.5542
 5307SOL     OW20993   2.073   3.983   3.125 -0.4380 -0.3193 -0.0745
 5307SOL    HW220994   2.063   3.955   3.216  0.2771  1.4785  0.5921
 5307SOL    HW320995   2.152   4.037   3.124  0.0664 -1.0013 -1.9518
 5307SOL    MW420996   2.082   3.986   3.137 -0.0765 -0.3890  0.6909
 5308SOL     OW20997   2.130   1.950   4.119 -0.1247 -0.3744 -0.2489
 5308SOL    HW220998   2.148   1.865   4.079 -2.0436 -0.5686 -0.7763
 5308SOL    HW320999   2.160   2.014   4.054 -0.1377 -0.6617 -0.5419
 5308SOL    MW421000   2.136   1.947   4.105 -0.3183 -0.2910 -0.0863
 5309SOL     OW21001   5.494   0.072   4.129  0.2727 -1.2678  0.0932
 5309SOL    HW221002   5.542   0.016   4.068  0.5041 -1.6156  0.5876
 5309SOL    HW321003   5.404   0.073   4.095  0.5639 -0.8169 -0.6927
 5309SOL    MW421004   5.489   0.065   4.117 -0.2960  0.4698  0.1560
 5310SOL     OW21005   6.340   1.663   4.622 -0.1532  0.0543  0.8097
 5310SOL    HW221006   6.389   1.695   4.546 -2.7877  0.5732 -0.7957
 5310SOL    HW321007   6.268   1.725   4.631 -2.8117 -2.7886  0.4975
 5310SOL    MW421008   6.337   1.675   4.613 -0.2967  0.1742 -0.0317
 5311SOL     OW21009   0.790   2.697   5.923  0.7396 -0.2869 -0.3632
 5311SOL    HW221010   0.822   2.786   5.907  0.0394 -0.0817 -0.6488
 5311SOL    HW321011   0.832   2.644   5.856  1.2498 -0.2002 -0.1224
 5311SOL    MW421012   0.800   2.702   5.912  0.2123 -0.1140 -0.2915
 5312SOL     OW21013   1.328   3.897   0.263 -0.0692 -0.1239 -0.1068
 5312SOL    HW221014   1.232   3.893   0.258 -0.3167 -2.8041  3.0459
 5312SOL    HW321015   1.347   3.979   0.308 -0.8883  0.2559 -0.4380
 5312SOL    MW421016   1.318   3.907   0.268 -0.2701 -0.0065 -0.5541
 5313SOL     OW21017   2.169   0.943   3.040 -0.6248  0.2736 -0.0990
 5313SOL    HW221018   2.259   0.938   3.008 -1.1555 -0.5359 -1.5563
 5313SOL    HW321019   2.178   0.946   3.135  0.9261 -2.9717  0.0058
 5313SOL    MW421020   2.182   0.943   3.049 -0.5660 -0.1211 -0.5229
 5314SOL     OW21021   1.723   1.193   4.613  0.0085  0.1793 -0.4953
 5314SOL    HW221022   1.720   1.225   4.523 -0.2901 -1.2265 -1.0152
 5314SOL    HW321023   1.815   1.171   4.628 -0.0727 -0.3201 -0.7295
 5314SOL    MW421024   1.735   1.194   4.603 -0.2257  0.2349 -0.5222
 5315SOL     OW21025   0.682   5.335   4.909  0.3669 -0.1517  0.0786
 5315SOL    HW221026   0.626   5.325   4.985 -0.6787  0.6711 -0.5604
 5315SOL    HW321027   0.768   5.360   4.945 -0.5924  2.2131  0.9533
 5315SOL    MW421028   0.686   5.337   4.924  0.4063 -0.0321 -0.4597
 5316SOL     OW21029   3.683   2.674   1.011  0.2608 -0.1625  0.3999
 5316SOL    HW221030   3.729   2.650   0.931  1.9660  2.7353  0.3977
 5316SOL    HW321031   3.616   2.736   0.984 -0.2374 -0.3939  1.0511
 5316SOL    MW421032   3.681   2.679   0.997 -0.0757 -0.2621  0.2384
 5317SOL     OW21033   3.258   3.566   2.233 -0.4389  0.1687  0.3813
 5317SOL    HW221034   3.341   3.525   2.209  0.6147  2.4691 -0.1687
 5317SOL    HW321035   3.268   3.589   2.326 -1.4095 -1.6006  0.9638
 5317SOL    MW421036   3.270   3.564   2.242 -0.5092  0.2920 -0.0277
 5318SOL     OW21037   2.461   1.892   5.186 -0.2650  0.1807  0.4507
 5318SOL    HW221038   2.414   1.974   5.205  0.4409  0.2105  2.2263
 5318SOL    HW321039   2.416   1.826   5.239  0.1896 -0.2799  0.2695
 5318SOL    MW421040   2.449   1.894   5.195  0.0030 -0.0360 -0.2500
 5319SOL     OW21041   6.453   0.510   4.747  0.0907  0.4279  0.5696
 5319SOL    HW221042   6.420   0.550   4.666 -1.8376 -1.4629  0.3580
 5319SOL    HW321043   6.379   0.461   4.782  0.9526  0.9529  3.3919
 5319SOL    MW421044   6.439   0.509   4.741  0.3121  0.5784  0.2545
 5320SOL     OW21045   2.870   5.154   3.597  0.0718 -0.1205  0.0455
 5320SOL    HW221046   2.810   5.085   3.626  0.8434 -1.5105 -1.5052
 5320SOL    HW321047   2.869   5.147   3.502  1.7475  0.6497 -0.0473
 5320SOL    MW421048   2.862   5.144   3.588 -0.1942 -0.3247 -0.2637
 5321SOL     OW21049   2.708   3.065   2.971  0.6255 -0.0549  0.2013
 5321SOL    HW221050   2.715   2.971   2.987  0.7039 -0.0407  0.2501
 5321SOL    HW321051   2.614   3.083   2.975 -0.1114 -1.0662 -5.0186
 5321SOL    MW421052   2.696   3.055   2.974  0.3215 -0.4956  0.2237
 5322SOL     OW21053   3.322   1.965   4.097  0.5384 -0.1282 -0.4048
 5322SOL    HW221054   3.387   1.909   4.056  0.2524  0.0772 -1.1472
 5322SOL    HW321055   3.238   1.934   4.062  0.4101  1.0420 -1.1725
 5322SOL    MW421056   3.320   1.953   4.087 -0.7992  0.0994  1.0868
 5323SOL     OW21057   3.795   0.409   3.343  0.6001 -0.3588 -0.4224
 5323SOL    HW221058   3.733   0.338   3.322 -0.7800  0.8255 -0.5433
 5323SOL    HW321059   3.829   0.386   3.429 -1.1976 -0.3097  0.3629
 5323SOL    MW421060   3.791   0.397   3.351 -0.3074  0.2047 -0.4529
 5324SOL     OW21061   2.964   1.812   4.421  0.3182 -0.2322  0.6856
 5324SOL    HW221062   2.916   1.816   4.338  1.2921 -3.0664 -0.1358
 5324SOL    HW321063   3.014   1.894   4.423 -1.1945  0.7818 -0.5469
 5324SOL    MW421064   2.965   1.823   4.410 -0.2792  0.4636  0.1600
 5325SOL     OW21065   0.534   2.942   0.306  0.3974 -0.2276  0.0911
 5325SOL    HW221066   0.513   2.943   0.399 -0.5249 -0.1572 -0.1031
 5325SOL    HW321067   0.471   2.881   0.268  0.8430 -0.3464 -0.4725
 5325SOL    MW421068   0.523   2.934   0.313  0.5452  0.1557  0.6492
 5326SOL     OW21069   2.778   6.061   2.180  0.1577 -0.4550 -0.0588
 5326SOL    HW221070   2.704   6.003   2.162  0.1897 -0.7514  0.7174
 5326SOL    HW321071   2.838   6.047   2.107 -0.4875 -0.3157 -0.6240
 5326SOL    MW421072   2.776   6.051   2.168  0.1235 -0.7299  0.2049
 5327SOL     OW21073   5.271   6.425   3.412  0.6789 -0.0861 -0.1604
 5327SOL    HW221074   5.229   6.397   3.493  0.4440  1.5592  0.3132
 5327SOL    HW321075   5.354   6.464   3.439 -0.5346  2.8886 -0.3520
 5327SOL    MW421076   5.276   6.426   3.426  0.5371 -0.0900  0.1700
 5328SOL     OW21077   6.329   5.810   3.361  0.1027 -0.1140  0.2044
 5328SOL    HW221078   6.267   5.746   3.326 -1.1332  2.3053 -2.3971
 5328SOL    HW321079   6.276   5.888   3.377  1.7847  0.7445  2.0082
 5328SOL    MW421080   6.314   5.812   3.359 -0.2230 -0.2476  0.6693
 5329SOL     OW21081   1.882   5.966   2.966  0.2203  0.2938  0.0975
 5329SOL    HW221082   1.919   5.880   2.986  1.0450  0.4674 -0.6551
 5329SOL    HW321083   1.869   5.965   2.871  1.1932  1.3750 -0.0594
 5329SOL    MW421084   1.885   5.955   2.956  0.7606 -0.4822  0.2293
 5330SOL     OW21085   3.211   1.463   3.214 -0.3831  0.4431 -0.0815
 5330SOL    HW221086   3.297   1.463   3.256 -0.5235  0.8628  0.2113
 5330SOL    HW321087   3.149   1.450   3.286 -0.5821  0.4197 -0.2557
 5330SOL    MW421088   3.214   1.461   3.229 -0.4290  0.5300  0.7340
 5331SOL     OW21089   2.791   5.169   1.077 -0.7881 -0.2874  0.4010
 5331SOL    HW221090   2.715   5.169   1.018 -1.1188 -0.4639  0.8226
 5331SOL    HW321091   2.757   5.137   1.160 -0.2174 -0.5118  0.5546
 5331SOL    MW421092   2.777   5.165   1.080  0.0117  0.1134 -0.0947
 5332SOL     OW21093   4.708   1.923   5.963  0.3097 -0.0855  0.2073
 5332SOL    HW221094   4.795   1.939   6.000 -0.1467  1.2772  0.7735
 5332SOL    HW321095   4.725   1.887   5.876  1.4117 -2.6220  1.3716
 5332SOL    MW421096   4.722   1.920   5.956 -0.4098 -0.3360 -0.4467
 5333SOL     OW21097   3.680   4.346   5.906 -0.2494 -0.2363 -0.2244
 5333SOL    HW221098   3.617   4.355   5.835  0.4751  0.8680 -0.7709
 5333SOL    HW321099   3.627   4.340   5.985 -1.0572  1.3515 -0.6077
 5333SOL    MW421100   3.665   4.347   5.907 -0.3902  0.3923 -0.0344
 5334SOL     OW21101   3.771   4.275   4.055  0.2091 -0.1730  0.0461
 5334SOL    HW221102   3.732   4.362   4.041 -2.9918 -1.4187  0.2412
 5334SOL    HW321103   3.787   4.271   4.149 -0.2557 -0.0061  0.1387
 5334SOL    MW421104   3.768   4.286   4.065 -0.0150  0.7770  0.6518
 5335SOL     OW21105   3.178   0.679   4.119  0.0116 -0.1779  0.0851
 5335SOL    HW221106   3.234   0.734   4.174 -1.1207 -0.0069  1.1183
 5335SOL    HW321107   3.231   0.603   4.099  0.9055  0.3664  0.3336
 5335SOL    MW421108   3.192   0.677   4.124  0.1845 -0.4691 -0.1371
 5336SOL     OW21109   4.302   0.663   4.126 -0.3678  0.0987  0.0819
 5336SOL    HW221110   4.219   0.616   4.132 -0.3712  0.1353  0.3389
 5336SOL    HW321111   4.290   0.723   4.052 -0.3474 -0.3308 -0.2741
 5336SOL    MW421112   4.289   0.665   4.117  0.0117  0.3814  0.4662
 5337SOL     OW21113   3.654   6.355   2.927 -0.4489 -0.5689 -0.4870
 5337SOL    HW221114   3.711   6.279   2.938 -0.3003 -0.1518  2.5629
 5337SOL    HW321115   3.565   6.320   2.931 -0.4224 -0.7834 -1.4085
 5337SOL    MW421116   3.650   6.340   2.929  0.0844 -0.1175 -0.2702
 5338SOL     OW21117   5.045   6.131   1.523  0.1112  0.5103 -0.3184
 5338SOL    HW221118   5.045   6.224   1.546  1.9958  0.3136  0.6720
 5338SOL    HW321119   5.133   6.100   1.547 -0.4093 -1.4903 -0.7881
 5338SOL    MW421120   5.057   6.139   1.529  0.1328  0.1634 -0.1939
 5339SOL     OW21121   2.536   2.470   2.977 -0.4696 -0.1816 -0.5054
 5339SOL    HW221122   2.620   2.468   2.932  0.0261  0.8689  0.3487
 5339SOL    HW321123   2.546   2.535   3.046 -1.5484 -1.0088  0.4824
 5339SOL    MW421124   2.548   2.478   2.980 -0.1152 -0.2120  0.2986
 5340SOL     OW21125   5.238   5.016   0.776  0.3414 -0.6941  0.0496
 5340SOL    HW221126   5.202   4.933   0.806 -2.1816  0.2414 -0.1406
 5340SOL    HW321127   5.214   5.079   0.844  2.6930 -0.1336  0.4709
 5340SOL    MW421128   5.230   5.013   0.789 -0.3410 -0.3194 -0.1528
 5341SOL     OW21129   1.696   6.410   1.976  0.1364 -0.1501 -0.6451
 5341SOL    HW221130   1.617   6.462   1.962 -0.2741 -0.8163 -0.8238
 5341SOL    HW321131   1.665   6.320   1.986  0.8552 -0.3961 -0.5577
 5341SOL    MW421132   1.682   6.405   1.975  0.3577  0.3165  0.0683
 5342SOL     OW21133   4.264   0.414   0.421  0.1884  0.4952  0.2970
 5342SOL    HW221134   4.275   0.359   0.498 -4.5970  0.4885  1.2737
 5342SOL    HW321135   4.246   0.352   0.350  0.0267  0.6161  0.2310
 5342SOL    MW421136   4.263   0.399   0.422 -0.2022 -0.1221 -1.0374
 5343SOL     OW21137   4.581   5.645   0.046 -0.1083 -0.4837 -1.0504
 5343SOL    HW221138   4.529   5.581   0.095  0.1098 -0.3641 -0.6623
 5343SOL    HW321139   4.667   5.643   0.087  0.0701 -0.3631 -1.4145
 5343SOL    MW421140   4.585   5.637   0.058 -0.8790  0.3183  0.6703
 5344SOL     OW21141   3.502   3.977   1.466  0.5968 -0.2619 -0.5542
 5344SOL    HW221142   3.595   3.999   1.471  0.5798  0.4278 -2.5259
 5344SOL    HW321143   3.478   3.994   1.375 -1.4629 -0.4509 -0.0941
 5344SOL    MW421144   3.511   3.982   1.455 -0.2683  0.1186 -0.4701
 5345SOL     OW21145   3.648   3.032   2.408  0.1339 -0.1176  0.5312
 5345SOL    HW221146   3.635   2.969   2.479  2.5092 -1.7492 -0.3565
 5345SOL    HW321147   3.676   2.979   2.333  1.0904  1.8851 -0.6228
 5345SOL    MW421148   3.650   3.017   2.407 -0.1860  0.3645  0.4352
 5346SOL     OW21149   4.493   5.271   0.008  0.1421 -0.0176 -0.3269
 5346SOL    HW221150   4.454   5.238  -0.073 -0.7241 -0.0641  0.1065
 5346SOL    HW321151   4.444   5.351   0.028  1.0069  0.5463 -0.3708
 5346SOL    MW421152   4.481   5.278   0.000 -0.1525 -0.1083  0.0399
 5347SOL     OW21153   1.355   5.435   4.317 -0.3856 -0.1562  0.3903
 5347SOL    HW221154   1.273   5.403   4.280  0.0926 -0.5617 -0.3336
 5347SOL    HW321155   1.406   5.465   4.242  0.0067  0.3932  0.8624
 5347SOL    MW421156   1.351   5.435   4.302  0.5351 -0.0711  0.2319
 5348SOL     OW21157   1.688   0.318   4.588 -0.1996 -0.1623  0.1037
 5348SOL    HW221158   1.764   0.276   4.628  0.2224 -0.3075 -0.8281
 5348SOL    HW321159   1.627   0.332   4.661  0.3859 -0.7754  0.7222
 5348SOL    MW421160   1.690   0.314   4.603 -0.3381  0.6548 -0.0302
 5349SOL     OW21161   2.137   1.870   2.958 -0.5393 -0.3978 -0.5335
 5349SOL    HW221162   2.083   1.867   2.879  0.3496  0.3441 -1.1895
 5349SOL    HW321163   2.095   1.809   3.018 -1.2818 -0.9083 -1.5464
 5349SOL    MW421164   2.125   1.862   2.956 -0.3211 -0.0194  0.0874
 5350SOL     OW21165   4.128   0.191   3.656 -0.4165 -0.3415 -0.1829
 5350SOL    HW221166   4.217   0.218   3.635 -0.3907 -0.8801 -0.8002
 5350SOL    HW321167   4.134   0.096   3.671 -0.8801 -0.3816 -0.2156
 5350SOL    MW421168   4.140   0.182   3.655 -0.4562  0.0088 -0.0119
 5351SOL     OW21169   0.664   4.363   0.710 -0.2278 -0.1629 -0.0648
 5351SOL    HW221170   0.702   4.334   0.793  0.1315  0.8979  0.1543
 5351SOL    HW321171   0.569   4.361   0.725 -0.1583  0.2993  0.4799
 5351SOL    MW421172   0.656   4.359   0.723 -0.0357  0.8652  0.7926
 5352SOL     OW21173   2.069   6.330   6.026  0.1741  0.8092 -0.0664
 5352SOL    HW221174   2.037   6.399   6.084 -0.2826  0.5991 -0.0613
 5352SOL    HW321175   2.054   6.249   6.076  1.6266  0.7718  0.3475
 5352SOL    MW421176   2.063   6.328   6.040  0.6886  0.4363 -0.4190
 5353SOL     OW21177   0.910   2.431   1.690 -0.3208 -0.1686 -0.1528
 5353SOL    HW221178   0.849   2.485   1.640 -0.4048  0.6224  0.7748
 5353SOL    HW321179   0.856   2.393   1.759  0.2253  0.5286  0.6669
 5353SOL    MW421180   0.895   2.433   1.692 -0.0764  0.1855  0.2798
 5354SOL     OW21181   5.844   3.579   2.681 -0.1615 -0.2623 -0.1264
 5354SOL    HW221182   5.876   3.665   2.710 -1.2451 -0.4964  2.0121
 5354SOL    HW321183   5.840   3.586   2.586 -0.6824  2.2482 -0.0032
 5354SOL    MW421184   5.847   3.592   2.672  0.3430 -0.3648  0.9352
 5355SOL     OW21185   3.335   1.844   0.400  0.2679 -0.4858 -0.3420
 5355SOL    HW221186   3.382   1.891   0.470 -0.5454  1.6524 -1.1356
 5355SOL    HW321187   3.249   1.886   0.397 -0.3768 -1.8205 -1.3843
 5355SOL    MW421188   3.330   1.856   0.409  0.0971 -0.9218 -0.0355
 5356SOL     OW21189   5.539   5.012   0.345 -0.4433  0.1313  0.1716
 5356SOL    HW221190   5.592   4.936   0.321  1.3112  1.6365 -1.0395
 5356SOL    HW321191   5.530   5.007   0.440  1.4773 -0.4574  0.3538
 5356SOL    MW421192   5.545   5.001   0.354 -0.4674 -0.0391  0.0911
 5357SOL     OW21193   5.300   1.026   0.773 -0.5299 -0.0683 -0.2017
 5357SOL    HW221194   5.344   1.086   0.713 -0.7350  0.9590  0.6558
 5357SOL    HW321195   5.371   0.989   0.825 -0.0466 -2.6905 -2.4631
 5357SOL    MW421196   5.315   1.029   0.772  0.3593 -0.9767 -0.5083
 5358SOL     OW21197   0.507   1.306   1.810 -0.3103  0.7146  0.3503
 5358SOL    HW221198   0.449   1.253   1.755 -1.4571  1.0076  1.2292
 5358SOL    HW321199   0.491   1.274   1.898  2.4782 -0.6505  0.4406
 5358SOL    MW421200   0.497   1.295   1.814  0.0252 -0.6179  0.4532
 5359SOL     OW21201   1.150   5.195   3.380  0.3205 -0.4219  0.3643
 5359SOL    HW221202   1.076   5.256   3.381  0.2714 -0.4734  0.0265
 5359SOL    HW321203   1.111   5.109   3.398 -0.1431 -0.9031 -2.3819
 5359SOL    MW421204   1.135   5.192   3.382  0.0301  0.1267 -0.1332
 5360SOL     OW21205   3.778   0.982   4.421 -0.0268 -0.1203 -0.0982
 5360SOL    HW221206   3.719   1.054   4.398  0.5818  0.8560  1.2466
 5360SOL    HW321207   3.727   0.903   4.403 -0.1532  0.5305 -3.1170
 5360SOL    MW421208   3.763   0.981   4.416 -0.2663  0.0792 -0.0388
 5361SOL     OW21209   2.237   0.699   5.386 -0.2181  0.5258 -0.2594
 5361SOL    HW221210   2.151   0.740   5.383 -0.2678  0.4038 -0.5644
 5361SOL    HW321211   2.228   0.620   5.333  0.4350  1.1743 -1.3704
 5361SOL    MW421212   2.224   0.694   5.379  0.0959 -0.0234 -0.3583
 5362SOL     OW21213   5.236   0.610   1.542  0.3215  0.6654 -0.1331
 5362SOL    HW221214   5.302   0.561   1.591  1.6707 -0.3861 -2.7925
 5362SOL    HW321215   5.263   0.701   1.551  0.3756  0.5344  1.2457
 5362SOL    MW421216   5.248   0.615   1.550 -0.3272 -0.3495  0.0586
 5363SOL     OW21217   5.294   2.573   3.541 -0.0067  0.5129  0.0421
 5363SOL    HW221218   5.261   2.661   3.561 -0.8119 -0.1107  1.6078
 5363SOL    HW321219   5.382   2.572   3.577 -0.3656  0.3722  0.9472
 5363SOL    MW421220   5.301   2.585   3.549 -0.4752 -0.0209 -0.3449
 5364SOL     OW21221   5.096   2.733   6.110  0.4550 -0.2843 -0.0297
 5364SOL    HW221222   5.074   2.710   6.020  1.2603 -1.3650  0.0307
 5364SOL    HW321223   5.140   2.818   6.103 -1.7673  0.9145 -0.3498
 5364SOL    MW421224   5.099   2.741   6.097  0.1597 -0.2223 -0.1702
 5365SOL     OW21225   0.716   2.146   2.760  0.2766  0.1831 -0.0568
 5365SOL    HW221226   0.752   2.189   2.838  2.8677  1.3724 -1.7564
 5365SOL    HW321227   0.793   2.123   2.708 -1.3256 -1.4637 -1.8471
 5365SOL    MW421228   0.731   2.149   2.764  0.1140  0.2365 -0.6837
 5366SOL     OW21229   5.077   5.143   2.322  0.0372 -0.8953  0.2628
 5366SOL    HW221230   5.000   5.191   2.351  0.0811 -0.7776  0.1873
 5366SOL    HW321231   5.130   5.208   2.276 -1.0183 -1.5087 -1.9722
 5366SOL    MW421232   5.074   5.158   2.320  0.0537  0.4349  0.3947
 5367SOL     OW21233   3.626   0.953   2.054  0.2639 -0.2717  0.1677
 5367SOL    HW221234   3.560   0.915   1.995 -0.6274 -0.9571  1.5364
 5367SOL    HW321235   3.663   0.877   2.099  0.0906  0.3035  1.3116
 5367SOL    MW421236   3.622   0.938   2.052 -0.2035 -0.3074 -0.1674
 5368SOL     OW21237   5.233   3.857   4.735  0.0956 -0.3061  0.0197
 5368SOL    HW221238   5.185   3.919   4.791  2.1749 -0.4067  2.0521
 5368SOL    HW321239   5.187   3.774   4.747  0.3599 -0.2710  1.4313
 5368SOL    MW421240   5.220   3.854   4.744 -0.0809  0.4773 -0.0469
 5369SOL     OW21241   3.171   6.259   4.922 -0.0141 -0.1009  0.0020
 5369SOL    HW221242   3.125   6.175   4.925 -0.3101  0.0656  0.3248
 5369SOL    HW321243   3.255   6.243   4.963  1.0109 -0.8706 -2.2578
 5369SOL    MW421244   3.176   6.246   4.928 -0.3645 -0.0841  0.2765
 5370SOL     OW21245   3.406   5.068   3.318  0.0143  0.5988 -0.5320
 5370SOL    HW221246   3.438   4.988   3.278  0.0751 -0.5457  1.6645
 5370SOL    HW321247   3.485   5.119   3.337  0.4973 -0.9930  2.3456
 5370SOL    MW421248   3.420   5.064   3.316  0.2726  0.3819 -0.0369
 5371SOL     OW21249   0.498   6.095   1.255  0.3687  0.1437 -0.2500
 5371SOL    HW221250   0.490   6.106   1.350 -0.0863 -2.7947  0.1490
 5371SOL    HW321251   0.420   6.045   1.231  2.2537 -2.4258 -1.4772
 5371SOL    MW421252   0.487   6.089   1.265 -0.2275  0.0328 -0.5227
 5372SOL     OW21253   3.296   1.171   3.535 -0.2862  0.7767  0.1846
 5372SOL    HW221254   3.358   1.220   3.589 -0.3088  0.9373  0.0661
 5372SOL    HW321255   3.256   1.108   3.595  2.1963 -1.4840 -0.2928
 5372SOL    MW421256   3.299   1.169   3.550  0.7778  0.2845  0.4823
 5373SOL     OW21257   3.413   5.669   1.377  0.4460  0.5967  0.1105
 5373SOL    HW221258   3.379   5.592   1.423  1.5763 -0.0760 -0.1242
 5373SOL    HW321259   3.350   5.738   1.396 -1.6423 -0.8102 -1.1882
 5373SOL    MW421260   3.400   5.668   1.386  0.6320 -0.6326 -0.1290
 5374SOL     OW21261   0.180   2.238   1.782 -0.0941 -0.6389  0.1578
 5374SOL    HW221262   0.162   2.278   1.696 -0.8409 -1.2831 -0.0035
 5374SOL    HW321263   0.134   2.154   1.778  0.0030 -0.7399  1.1347
 5374SOL    MW421264   0.171   2.232   1.770  0.2687  0.3180  0.0272
 5375SOL     OW21265   3.192   1.717   3.503 -0.0202 -0.1107  0.3068
 5375SOL    HW221266   3.104   1.742   3.530  0.5829  1.0299  1.3153
 5375SOL    HW321267   3.206   1.631   3.544 -0.6649 -0.3192  0.1001
 5375SOL    MW421268   3.182   1.709   3.512  0.0834  0.2971 -0.4245
 5376SOL     OW21269   0.656   1.438   3.448 -0.2343 -0.2942  0.1915
 5376SOL    HW221270   0.705   1.425   3.529  1.4390  0.4157 -0.6569
 5376SOL    HW321271   0.653   1.533   3.436 -0.3319 -0.3881 -0.6482
 5376SOL    MW421272   0.662   1.449   3.457 -0.2143 -0.0258  0.1597
 5377SOL     OW21273   4.399   1.421   5.234 -0.3739 -0.0027  0.1342
 5377SOL    HW221274   4.479   1.386   5.272 -0.1937  0.8369  0.5468
 5377SOL    HW321275   4.427   1.496   5.181 -0.8046 -0.1597 -0.3331
 5377SOL    MW421276   4.413   1.427   5.232  0.1845 -0.9209  0.6945
 5378SOL     OW21277   2.568   0.429   1.048  0.3669 -0.1796 -0.2736
 5378SOL    HW221278   2.653   0.413   1.006 -0.2874  0.0037 -1.7195
 5378SOL    HW321279   2.566   0.523   1.064  1.3200 -0.4675  1.7995
 5378SOL    MW421280   2.579   0.439   1.045  0.5704  0.3991 -0.1920
 5379SOL     OW21281   5.606   4.889   3.865 -0.5638 -0.3709  0.1711
 5379SOL    HW221282   5.656   4.904   3.945  0.3037 -1.6823 -0.1029
 5379SOL    HW321283   5.522   4.856   3.896 -0.3040 -0.6855  0.5552
 5379SOL    MW421284   5.601   4.887   3.880  0.5948 -0.3916  0.3165
 5380SOL     OW21285   4.731   0.562   0.463 -0.2837 -0.0838  0.6181
 5380SOL    HW221286   4.728   0.467   0.473  2.0781 -0.4219 -0.9996
 5380SOL    HW321287   4.710   0.577   0.370  1.6997  0.6876  0.2318
 5380SOL    MW421288   4.728   0.551   0.452  0.3416  0.7051 -0.1151
 5381SOL     OW21289   0.262   1.197   5.281 -0.2299  0.1036  0.4460
 5381SOL    HW221290   0.195   1.251   5.322 -1.6074 -0.4911 -0.9122
 5381SOL    HW321291   0.240   1.198   5.188  1.7483 -0.0003 -0.0766
 5381SOL    MW421292   0.250   1.205   5.274 -0.5435 -0.7004  0.8714
 5382SOL     OW21293   1.310   2.997   6.199 -0.4000 -0.1627 -0.6479
 5382SOL    HW221294   1.387   3.043   6.232 -0.8637 -0.0762  0.3655
 5382SOL    HW321295   1.260   3.064   6.152 -0.4763  0.0816 -0.2207
 5382SOL    MW421296   1.314   3.012   6.197 -0.0547 -0.1422  0.2779
 5383SOL     OW21297   0.523   5.302   5.141 -0.0099 -0.2572  0.2363
 5383SOL    HW221298   0.495   5.393   5.154  3.5439  1.0799 -0.4369
 5383SOL    HW321299   0.575   5.282   5.219  1.8692 -0.5193 -1.0243
 5383SOL    MW421300   0.526   5.311   5.153  0.5410  0.4917 -0.0829
 5384SOL     OW21301   0.188   2.582   1.184  0.2315 -0.3058 -0.1723
 5384SOL    HW221302   0.120   2.533   1.231  0.3963  0.5809  1.0350
 5384SOL    HW321303   0.198   2.535   1.101 -2.4065 -0.0546 -0.7482
 5384SOL    MW421304   0.180   2.569   1.179  0.6193 -0.2378 -0.4899
 5385SOL     OW21305   4.577   5.055   4.205  0.4184  0.1618  0.6463
 5385SOL    HW221306   4.492   5.087   4.234  0.3902 -0.8359  1.7348
 5385SOL    HW321307   4.638   5.127   4.224 -0.0093  0.4675  0.8554
 5385SOL    MW421308   4.574   5.069   4.212  0.2717 -0.5121 -0.3268
 5386SOL     OW21309   4.832   4.481   5.993  0.4307 -0.6830  0.1702
 5386SOL    HW221310   4.830   4.424   6.070  1.4186 -0.7273  0.1757
 5386SOL    HW321311   4.740   4.491   5.968  0.1594 -1.2997  0.8887
 5386SOL    MW421312   4.820   4.475   6.000 -0.0639 -0.0322 -0.2085
 5387SOL     OW21313   2.690   2.611   1.531  0.3458 -0.2567 -0.2357
 5387SOL    HW221314   2.658   2.700   1.547  3.7403  1.3046 -1.1534
 5387SOL    HW321315   2.770   2.604   1.584  1.4238 -1.8700 -1.9454
 5387SOL    MW421316   2.696   2.622   1.540 -0.1182  0.0266 -0.1016
 5388SOL     OW21317   2.570   3.299   2.641  0.4585  0.0033  0.1346
 5388SOL    HW221318   2.518   3.329   2.566 -0.3227 -0.1747  0.5945
 5388SOL    HW321319   2.577   3.205   2.629  1.9605  0.1854 -0.7111
 5388SOL    MW421320   2.564   3.291   2.629 -0.1008  0.5106 -0.3688
 5389SOL     OW21321   3.783   1.388   6.235 -0.3233  0.0730 -0.5727
 5389SOL    HW221322   3.724   1.334   6.182 -0.0703  0.0006 -0.7847
 5389SOL    HW321323   3.871   1.359   6.210 -0.1794  0.7262 -0.8417
 5389SOL    MW421324   3.787   1.377   6.225 -0.1938 -0.3009 -0.4630
 5390SOL     OW21325   1.472   6.392   3.420  0.5163  0.0296 -0.1850
 5390SOL    HW221326   1.476   6.487   3.405 -2.3824  0.2575 -0.1481
 5390SOL    HW321327   1.393   6.364   3.373  0.2036 -2.0213  1.4131
 5390SOL    MW421328   1.462   6.401   3.411  0.1502 -0.1450  0.0328
 5391SOL     OW21329   3.120   2.644   3.603  0.2916  0.5634 -0.3337
 5391SOL    HW221330   3.088   2.625   3.691  0.5344 -0.0069 -0.3659
 5391SOL    HW321331   3.043   2.635   3.547  0.1902  0.6819 -0.2142
 5391SOL    MW421332   3.105   2.640   3.607  0.1448  0.4737 -0.1191
 5392SOL     OW21333   4.123   4.709   1.256  0.0050  0.5955 -0.4912
 5392SOL    HW221334   4.130   4.663   1.172 -0.5380  0.8391 -0.6717
 5392SOL    HW321335   4.199   4.678   1.306 -1.3837 -2.0867  0.1796
 5392SOL    MW421336   4.134   4.699   1.252  0.3436  0.0359  0.3947
 5393SOL     OW21337   1.211   2.530   3.443 -0.0627 -0.0035 -0.8235
 5393SOL    HW221338   1.173   2.474   3.512 -1.1356  1.6441 -0.0039
 5393SOL    HW321339   1.291   2.565   3.482 -0.9920  1.4205 -0.1261
 5393SOL    MW421340   1.216   2.527   3.458  0.4887  0.2536 -0.1816
 5394SOL     OW21341   3.513   2.056   4.400  0.2717  0.3158 -0.1298
 5394SOL    HW221342   3.471   2.060   4.486  0.4294 -0.1144 -0.0315
 5394SOL    HW321343   3.486   1.971   4.365 -0.8164  1.0022 -1.0361
 5394SOL    MW421344   3.504   2.045   4.407 -0.1640  0.3971  0.0718
 5395SOL     OW21345   3.635   5.387   5.013 -0.4127 -0.0471 -0.6353
 5395SOL    HW221346   3.659   5.329   4.940  0.4376 -3.8155  2.2864
 5395SOL    HW321347   3.712   5.386   5.070 -0.1669  4.5876 -0.5231
 5395SOL    MW421348   3.648   5.379   5.011 -0.7438  0.0088 -0.0758
 5396SOL     OW21349   0.774   4.506   5.313  0.1252 -0.1550 -0.0728
 5396SOL    HW221350   0.782   4.434   5.375 -0.6887 -1.1866 -1.0932
 5396SOL    HW321351   0.680   4.527   5.313  0.3264  0.7623  0.0587
 5396SOL    MW421352   0.762   4.499   5.321  0.6499  0.1990  0.0134
 5397SOL     OW21353   5.129   4.821   1.207 -0.0815  0.6675  0.2840
 5397SOL    HW221354   5.039   4.854   1.211 -0.5268 -0.3797 -0.5158
 5397SOL    HW321355   5.183   4.899   1.192 -1.1289  1.0711 -1.8157
 5397SOL    MW421356   5.124   4.835   1.205  0.2665 -0.4975  0.3979
 5398SOL     OW21357   3.522   1.387   1.935 -0.1351 -0.1147  0.5839
 5398SOL    HW221358   3.510   1.423   1.847 -0.1053  1.7399  1.2940
 5398SOL    HW321359   3.586   1.317   1.924 -1.2708 -0.9691 -1.0917
 5398SOL    MW421360   3.529   1.382   1.922 -0.2485  0.0746 -0.2193
 5399SOL     OW21361   4.284   2.235   3.947  0.6034  0.0873 -0.4496
 5399SOL    HW221362   4.351   2.172   3.974 -1.4208 -3.8366 -3.4465
 5399SOL    HW321363   4.333   2.310   3.914  3.2861 -0.6327  1.5782
 5399SOL    MW421364   4.299   2.237   3.946  0.2387  0.2288  0.0609
 5400SOL     OW21365   5.104   1.463   6.153 -0.0592  0.2891  0.2324
 5400SOL    HW221366   5.167   1.425   6.091  0.5529 -0.7464  1.4505
 5400SOL    HW321367   5.154   1.476   6.233 -0.8855  1.4439  0.5787
 5400SOL    MW421368   5.119   1.460   6.155  0.5776  0.2098 -0.3025
 5401SOL     OW21369   3.035   4.648   5.422  0.0523 -0.1845  0.4131
 5401SOL    HW221370   3.008   4.592   5.495  0.4029 -0.8575  0.0392
 5401SOL    HW321371   2.967   4.715   5.417 -0.8431 -1.0664  0.3402
 5401SOL    MW421372   3.023   4.649   5.431  0.7068 -0.0110  0.2998
 5402SOL     OW21373   5.435   0.993   2.282 -0.6408  0.4604 -0.1446
 5402SOL    HW221374   5.386   1.021   2.205  0.3165 -2.2285 -1.8731
 5402SOL    HW321375   5.403   0.904   2.300  0.7428  0.1823  1.1856
 5402SOL    MW421376   5.424   0.985   2.274 -0.1687 -0.1106 -0.0884
 5403SOL     OW21377   4.627   3.807   3.769  0.0928  0.0969  0.1943
 5403SOL    HW221378   4.717   3.779   3.753  0.1723  0.0971  0.6457
 5403SOL    HW321379   4.594   3.747   3.835  0.3293  1.1775  1.3317
 5403SOL    MW421380   4.634   3.795   3.776 -0.3101 -0.0483  0.2323
 5404SOL     OW21381   0.566   3.688   6.259  0.3406 -0.0824  0.8133
 5404SOL    HW221382   0.520   3.627   6.201  1.6304 -1.3390  1.0620
 5404SOL    HW321383   0.578   3.767   6.206 -0.9938 -0.1591  0.3476
 5404SOL    MW421384   0.561   3.691   6.244 -0.5205  0.3782 -0.6319
 5405SOL     OW21385   5.167   1.372   4.513 -0.2862  0.4991 -0.6390
 5405SOL    HW221386   5.222   1.313   4.565 -0.2522 -0.4927 -1.7473
 5405SOL    HW321387   5.141   1.319   4.437 -0.3916  1.8797 -1.5944
 5405SOL    MW421388   5.171   1.357   4.510  0.3380 -0.0334  0.4351
 5406SOL     OW21389   6.206   2.972   0.187  0.5846  0.2792 -0.0728
 5406SOL    HW221390   6.280   2.918   0.214  0.9492  0.6142 -0.3919
 5406SOL    HW321391   6.178   3.017   0.267  2.1392  1.8506 -0.3618
 5406SOL    MW421392   6.212   2.971   0.201  0.1003  0.5813  0.3848
 5407SOL     OW21393   4.658   2.746   5.606 -0.2736 -0.2145 -0.0052
 5407SOL    HW221394   4.649   2.830   5.562 -0.7351 -0.1389  0.2302
 5407SOL    HW321395   4.607   2.756   5.687 -0.0463 -0.6021  0.1897
 5407SOL    MW421396   4.650   2.759   5.611 -0.1680 -0.1672  0.2284
 5408SOL     OW21397   1.768   2.315   2.322  0.5986 -0.4203  0.6285
 5408SOL    HW221398   1.737   2.228   2.298 -0.3207 -0.5788  2.2064
 5408SOL    HW321399   1.851   2.325   2.276 -0.3816 -1.1785 -1.4245
 5408SOL    MW421400   1.775   2.305   2.313 -0.1185  0.3742  0.7221
 5409SOL     OW21401   3.873   5.299   0.288  0.1463  0.3980 -0.2969
 5409SOL    HW221402   3.932   5.247   0.342  0.5922  1.9651  0.8010
 5409SOL    HW321403   3.788   5.256   0.297  0.5196 -0.2009  0.4882
 5409SOL    MW421404   3.870   5.287   0.296  0.3332  0.7487  0.0090
 5410SOL     OW21405   3.124   6.283   2.057 -0.1535 -0.6243 -0.3149
 5410SOL    HW221406   3.107   6.200   2.013 -1.9160  0.3626 -1.6068
 5410SOL    HW321407   3.097   6.350   1.994 -2.7840  0.8703  2.1636
 5410SOL    MW421408   3.118   6.281   2.043  1.2931  0.6330 -0.3273
 5411SOL     OW21409   3.478   1.712   0.730  0.1371 -0.5605  0.5461
 5411SOL    HW221410   3.502   1.797   0.695  1.0873 -1.0359  0.0012
 5411SOL    HW321411   3.383   1.709   0.723  0.2555 -0.5803 -1.9043
 5411SOL    MW421412   3.469   1.723   0.725 -0.2365  0.3178  0.1703
 5412SOL     OW21413   3.697   6.061   1.315  0.0260 -0.0200 -0.3213
 5412SOL    HW221414   3.781   6.031   1.349  0.1088 -0.0792 -0.5759
 5412SOL    HW321415   3.664   5.987   1.263  0.7898  0.7363 -1.9594
 5412SOL    MW421416   3.703   6.047   1.312 -0.2372  0.0877  0.5022
 5413SOL     OW21417   1.231   2.566   3.153 -0.0934 -0.6567 -0.0076
 5413SOL    HW221418   1.303   2.505   3.136  1.3917  0.6871  1.1621
 5413SOL    HW321419   1.219   2.563   3.248  1.6882  2.5423  0.4696
 5413SOL    MW421420   1.239   2.558   3.163 -0.5994  0.4070  0.9066
 5414SOL     OW21421   3.153   2.842   0.993 -0.9113  0.5429 -0.6282
 5414SOL    HW221422   3.212   2.823   1.065 -0.8813  1.2959 -0.4485
 5414SOL    HW321423   3.107   2.759   0.977  1.7276 -0.7317 -2.2564
 5414SOL    MW421424   3.154   2.829   1.001  0.8006 -0.3280  0.1318
 5415SOL     OW21425   3.519   1.776   5.030 -0.0958  0.2022  0.0949
 5415SOL    HW221426   3.481   1.773   5.117  0.1942  2.2496  0.3295
 5415SOL    HW321427   3.538   1.684   5.009 -0.0196 -0.3066  2.2259
 5415SOL    MW421428   3.516   1.764   5.039 -0.3389 -0.0341 -0.4493
 5416SOL     OW21429   4.233   2.559   2.706 -0.4238  0.1039  0.1805
 5416SOL    HW221430   4.255   2.466   2.709 -1.1905 -0.0719  0.6909
 5416SOL    HW321431   4.252   2.585   2.616 -1.4704 -0.8899 -0.3636
 5416SOL    MW421432   4.238   2.550   2.694  0.0857  0.4766  0.9325
 5417SOL     OW21433   6.447   3.563   0.855  0.6692  0.3386 -0.5390
 5417SOL    HW221434   6.458   3.517   0.938 -1.3354 -0.3626 -0.6108
 5417SOL    HW321435   6.499   3.643   0.865 -0.5967  0.9550  1.9652
 5417SOL    MW421436   6.455   3.568   0.867  0.5612  1.0207  0.0714
 5418SOL     OW21437   1.949   1.770   5.777  0.1950  0.4785 -0.0323
 5418SOL    HW221438   1.873   1.747   5.830  0.3947 -1.0145 -0.3200
 5418SOL    HW321439   1.925   1.741   5.688  1.0326  0.0848 -0.1428
 5418SOL    MW421440   1.936   1.763   5.772  0.0335 -0.9933  0.3055
 5419SOL     OW21441   6.068   3.022   0.445 -0.4267 -0.0007 -1.1040
 5419SOL    HW221442   6.021   3.087   0.392 -0.2258 -0.2160 -1.5512
 5419SOL    HW321443   6.004   2.994   0.510 -0.0875  1.6980  0.0370
 5419SOL    MW421444   6.053   3.027   0.446  0.0959 -0.3943  0.3249
 5420SOL     OW21445   4.897   4.496   0.567 -0.1740 -0.1344 -0.3809
 5420SOL    HW221446   4.900   4.563   0.499  0.7921  0.0048 -0.2198
 5420SOL    HW321447   4.825   4.522   0.624 -0.9391 -0.2044 -1.2904
 5420SOL    MW421448   4.888   4.508   0.565 -0.5490 -0.2910 -0.0585
 5421SOL     OW21449   2.878   1.775   1.343  0.0045 -0.5904  0.1568
 5421SOL    HW221450   2.945   1.732   1.290  0.3939 -0.5645  0.6248
 5421SOL    HW321451   2.856   1.711   1.411 -1.3395 -1.0869 -0.7078
 5421SOL    MW421452   2.884   1.761   1.345 -0.4194  0.2864  0.1135
 5422SOL     OW21453   2.970   5.595   5.502 -0.0844  0.2968  0.4548
 5422SOL    HW221454   2.908   5.645   5.449  2.4003 -0.6054 -3.6920
 5422SOL    HW321455   3.018   5.662   5.552 -0.1219  1.6182 -1.1981
 5422SOL    MW421456   2.968   5.611   5.502  0.1904  0.6151  0.0293
 5423SOL     OW21457   4.879   2.717   4.588  0.1007 -0.1062  0.0032
 5423SOL    HW221458   4.914   2.773   4.519 -0.6331 -1.9934 -1.9771
 5423SOL    HW321459   4.929   2.636   4.581 -1.4678 -1.1271  0.2354
 5423SOL    MW421460   4.890   2.714   4.578 -0.0942 -0.3712 -0.3208
 5424SOL     OW21461   4.431   5.377   1.586  0.5751  0.3575 -0.1782
 5424SOL    HW221462   4.350   5.400   1.540  0.4915  1.2000  0.3532
 5424SOL    HW321463   4.402   5.343   1.671  0.7539 -0.3768 -0.4038
 5424SOL    MW421464   4.417   5.376   1.591  0.0337 -0.5027 -0.0344
 5425SOL     OW21465   5.729   4.171   0.603 -0.1980 -0.5654  0.2586
 5425SOL    HW221466   5.797   4.119   0.645  0.8960 -0.1851 -0.9745
 5425SOL    HW321467   5.683   4.109   0.546  0.7053 -0.3434 -0.7406
 5425SOL    MW421468   5.732   4.156   0.601 -0.3498 -0.2336 -0.1814
 5426SOL     OW21469   1.366   4.253   3.368 -0.3291 -0.1220  0.3444
 5426SOL    HW221470   1.439   4.233   3.309 -0.7450 -1.3702  0.2147
 5426SOL    HW321471   1.355   4.173   3.419 -0.8767  0.4627  1.1491
 5426SOL    MW421472   1.374   4.240   3.367 -0.1282  0.0038  0.1552
 5427SOL     OW21473   2.516   4.796   2.974 -0.0828 -0.4981  0.5060
 5427SOL    HW221474   2.575   4.736   3.019 -0.0884  0.9867  2.6686
 5427SOL    HW321475   2.439   4.803   3.031 -1.4620 -0.7631 -1.2122
 5427SOL    MW421476   2.513   4.789   2.987  0.2788 -0.2003  0.6958
 5428SOL     OW21477   2.177   1.147   3.514  0.2770 -0.1310  0.5634
 5428SOL    HW221478   2.217   1.079   3.461  0.0651 -0.5020  0.8779
 5428SOL    HW321479   2.128   1.200   3.451  0.6254 -0.1271  0.2872
 5428SOL    MW421480   2.176   1.145   3.498  0.0892  0.1028  0.5897
 5429SOL     OW21481   5.805   5.750   3.166  0.7927  0.6672  0.4584
 5429SOL    HW221482   5.787   5.656   3.178  1.2148  0.3514 -1.1058
 5429SOL    HW321483   5.900   5.757   3.180  0.8148  0.7995  0.2389
 5429SOL    MW421484   5.815   5.738   3.169 -0.5832 -0.0518  0.7300
 5430SOL     OW21485   4.916   4.144   1.585  0.1125 -0.5489  0.3182
 5430SOL    HW221486   4.844   4.148   1.522  1.7678 -1.2078 -1.7408
 5430SOL    HW321487   4.886   4.196   1.659 -1.6204  0.9957 -1.3595
 5430SOL    MW421488   4.902   4.151   1.587 -1.0483 -0.8348  0.1086
 5431SOL     OW21489   1.963   5.552   5.603 -0.0276  0.2801 -0.1377
 5431SOL    HW221490   1.982   5.555   5.697  0.0856 -3.1009  0.0686
 5431SOL    HW321491   2.045   5.524   5.562 -0.4162  0.5327 -1.1342
 5431SOL    MW421492   1.976   5.549   5.610 -0.4914  0.2073 -0.0352
 5432SOL     OW21493   2.588   0.018   5.469 -0.1235 -0.6686 -0.0853
 5432SOL    HW221494   2.529  -0.033   5.415  0.5483  0.1688 -1.7075
 5432SOL    HW321495   2.630   0.079   5.408  1.0789 -0.0205  1.2988
 5432SOL    MW421496   2.586   0.020   5.454 -0.5368  0.4180 -0.3986
 5433SOL     OW21497   4.440   0.487   2.686  0.5885  0.3009 -0.0169
 5433SOL    HW221498   4.424   0.428   2.759 -2.7553  0.6393 -0.3061
 5433SOL    HW321499   4.472   0.568   2.726 -1.3765  0.5554  1.1800
 5433SOL    MW421500   4.442   0.490   2.701 -0.6948 -0.2438  0.2703
 5434SOL     OW21501   1.913   0.908   1.227  0.1225 -0.0171 -0.0873
 5434SOL    HW221502   1.985   0.853   1.258  0.4035  0.6816  0.5174
 5434SOL    HW321503   1.922   0.906   1.131  0.5988 -0.3902 -0.0416
 5434SOL    MW421504   1.924   0.900   1.218 -0.4417 -0.0386  0.0704
 5435SOL     OW21505   2.867   2.806   0.038 -0.6041  0.3318  0.0240
 5435SOL    HW221506   2.868   2.711   0.027  0.3495  0.2037  1.0456
 5435SOL    HW321507   2.805   2.821   0.110  0.3979  0.3345  0.9109
 5435SOL    MW421508   2.859   2.796   0.046  0.1925 -0.0811  0.0854
 5436SOL     OW21509   5.959   3.720   3.979 -0.5502  0.1270  0.0070
 5436SOL    HW221510   5.998   3.719   3.892 -0.0270 -0.0214  0.2343
 5436SOL    HW321511   5.909   3.639   3.984  0.2975 -0.3991  0.2218
 5436SOL    MW421512   5.958   3.710   3.968  0.1148 -0.0474 -0.2663
 5437SOL     OW21513   2.332   6.426   3.001 -0.3921 -0.2350  0.2406
 5437SOL    HW221514   2.251   6.425   2.950 -0.2016  0.1643 -0.0774
 5437SOL    HW321515   2.308   6.471   3.082  0.1538  2.5207 -1.0078
 5437SOL    MW421516   2.318   6.432   3.005 -0.1139  0.1130  0.3696
 5438SOL     OW21517   4.775   1.299   3.295  0.6261  0.3031  0.2378
 5438SOL    HW221518   4.749   1.231   3.357  0.3826 -1.0158 -1.2448
 5438SOL    HW321519   4.836   1.354   3.344  0.1358 -0.4479  1.7505
 5438SOL    MW421520   4.780   1.297   3.310 -0.1168  0.0754 -0.2398
 5439SOL     OW21521   4.328   3.822   1.284 -0.1239  0.1146  0.1158
 5439SOL    HW221522   4.389   3.786   1.220  0.7650 -2.1188  2.0462
 5439SOL    HW321523   4.250   3.768   1.276  0.3086 -0.7577  1.4080
 5439SOL    MW421524   4.326   3.810   1.274  0.1267 -0.4431 -0.0655
 5440SOL     OW21525   5.664   2.287   0.177  0.1722  0.3399 -0.3146
 5440SOL    HW221526   5.674   2.378   0.207 -1.0305  0.3411  0.1341
 5440SOL    HW321527   5.591   2.290   0.115  0.2809 -0.2858 -0.4823
 5440SOL    MW421528   5.656   2.300   0.173 -0.1852  0.4034  0.2307
 5441SOL     OW21529   2.363   3.914   0.023  0.2517 -0.1471 -0.1863
 5441SOL    HW221530   2.306   3.838   0.035  0.7188 -0.5956 -0.7498
 5441SOL    HW321531   2.443   3.893   0.071 -0.2933  0.7708  1.1699
 5441SOL    MW421532   2.366   3.901   0.031 -0.0381  0.0741  0.8121
 5442SOL     OW21533   1.492   4.130   3.166 -0.0903 -0.1044  0.4770
 5442SOL    HW221534   1.511   4.201   3.105  1.0561  0.1596  1.1101
 5442SOL    HW321535   1.423   4.079   3.123  0.5515  0.1760 -0.9391
 5442SOL    MW421536   1.486   4.132   3.153 -0.3775  0.5006  0.3647
 5443SOL     OW21537   0.698   5.476   0.932 -0.8522  0.1106  0.2861
 5443SOL    HW221538   0.631   5.451   0.869  0.2901  0.5901 -1.1798
 5443SOL    HW321539   0.699   5.572   0.930 -0.6630  0.1284  0.8907
 5443SOL    MW421540   0.690   5.486   0.924  0.1245 -0.1442  0.3347
 5444SOL     OW21541   4.027   3.969   0.482 -0.0445 -0.0942 -0.0926
 5444SOL    HW221542   4.017   3.998   0.392  1.1213 -1.0544 -0.5713
 5444SOL    HW321543   4.057   3.878   0.474  0.6124 -0.0186  1.2463
 5444SOL    MW421544   4.030   3.961   0.469  0.1468 -0.4067  0.5005
 5445SOL     OW21545   3.281   4.839   2.202 -0.4742 -0.2595 -0.0078
 5445SOL    HW221546   3.333   4.801   2.272 -1.4464  0.0807  0.9344
 5445SOL    HW321547   3.345   4.879   2.142  0.5309 -2.6375 -0.6306
 5445SOL    MW421548   3.296   4.839   2.203  0.0300  0.0369 -0.6251
 5446SOL     OW21549   5.252   3.562   0.103 -0.2088  0.1038 -0.2921
 5446SOL    HW221550   5.174   3.550   0.049 -0.0571 -0.9754 -0.2924
 5446SOL    HW321551   5.243   3.650   0.139  0.5313  1.6129 -3.4519
 5446SOL    MW421552   5.241   3.572   0.100 -0.1599 -0.1183  0.1949
 5447SOL     OW21553   6.008   4.405   6.161  0.5274  0.5683  0.0366
 5447SOL    HW221554   5.925   4.454   6.165  0.3220  0.2274 -0.0444
 5447SOL    HW321555   6.045   4.413   6.249 -0.6731 -1.1469  0.7518
 5447SOL    MW421556   6.002   4.413   6.173 -0.0651  0.3094 -0.3833
 5448SOL     OW21557   2.327   3.189   1.634 -0.1858  0.1712  0.6808
 5448SOL    HW221558   2.298   3.273   1.670 -0.9373  0.4029 -0.4336
 5448SOL    HW321559   2.412   3.173   1.676  0.9315  2.4360 -0.5609
 5448SOL    MW421560   2.334   3.198   1.645 -0.1707 -0.4799 -0.3517
 5449SOL     OW21561   4.845   4.319   6.229 -0.0616 -0.2255 -0.3564
 5449SOL    HW221562   4.938   4.326   6.249  0.0462  2.1860 -1.3126
 5449SOL    HW321563   4.833   4.230   6.197  2.3242 -0.0312 -2.0481
 5449SOL    MW421564   4.855   4.308   6.227  0.2760  0.1383  0.0307
 5450SOL     OW21565   5.910   2.696   2.551  0.1215  0.4231  0.0938
 5450SOL    HW221566   5.837   2.758   2.556 -1.4128 -1.3053  0.8577
 5450SOL    HW321567   5.918   2.676   2.458  0.4558  1.5412 -0.1279
 5450SOL    MW421568   5.901   2.701   2.539 -0.0769  0.1170  0.5139
 5451SOL     OW21569   0.416   0.077   3.601  0.1540  0.3262  0.0354
 5451SOL    HW221570   0.436   0.105   3.511 -1.5888  1.3782 -0.0702
 5451SOL    HW321571   0.321   0.067   3.602 -0.1183  2.2454  2.2575
 5451SOL    MW421572   0.406   0.080   3.589  0.0620  0.5126 -0.2558
 5452SOL     OW21573   0.936   2.823   4.319 -0.0300 -0.0070 -0.0212
 5452SOL    HW221574   0.859   2.766   4.314 -0.5392  0.5964  0.8249
 5452SOL    HW321575   0.993   2.791   4.249 -1.1361 -0.3254 -0.8030
 5452SOL    MW421576   0.933   2.811   4.309 -0.4516  0.0741  0.1412
 5453SOL     OW21577   0.096   0.069   1.506  0.1911 -0.2788  0.1305
 5453SOL    HW221578   0.191   0.067   1.511  0.1465 -0.2969  1.1248
 5453SOL    HW321579   0.075   0.159   1.482  0.3862  0.5572  2.7297
 5453SOL    MW421580   0.106   0.080   1.504 -0.0458 -0.1817  0.3800
 5454SOL     OW21581   4.115   2.998   3.649 -0.3991 -0.5003  0.4606
 5454SOL    HW221582   4.157   3.084   3.657 -1.6759  0.0370  1.8191
 5454SOL    HW321583   4.138   2.953   3.731  0.6199 -1.6609 -0.4191
 5454SOL    MW421584   4.124   3.003   3.661 -0.2482  0.6824  0.4890
 5455SOL     OW21585   2.051   2.071   2.322 -0.5796  0.0595  0.3968
 5455SOL    HW221586   2.141   2.054   2.294 -0.1849  0.8946  1.1270
 5455SOL    HW321587   1.999   2.060   2.242  0.4426  1.7775 -0.5653
 5455SOL    MW421588   2.056   2.067   2.308  0.2536  0.3314 -0.3893
 5456SOL     OW21589   4.059   0.113   2.362 -0.0644  0.1971  0.2659
 5456SOL    HW221590   4.100   0.078   2.284  0.2198  1.7288 -0.3185
 5456SOL    HW321591   3.965   0.111   2.344 -0.1025 -0.8368  0.5179
 5456SOL    MW421592   4.052   0.108   2.349  0.2704  0.5182 -0.5124
 5457SOL     OW21593   0.944   6.174   3.408 -0.4712 -0.2118 -0.4647
 5457SOL    HW221594   0.972   6.185   3.317 -2.3930  0.2152 -1.0590
 5457SOL    HW321595   0.928   6.263   3.439 -0.2814 -0.3878  0.1511
 5457SOL    MW421596   0.946   6.187   3.400 -0.5584  0.3514  0.5820
 5458SOL     OW21597   0.505   6.325   3.792 -0.5157 -0.5996 -0.2678
 5458SOL    HW221598   0.431   6.286   3.839  0.0674 -1.7164 -0.2284
 5458SOL    HW321599   0.465   6.373   3.720 -1.3888  0.5701  0.9521
 5458SOL    MW421600   0.490   6.326   3.789  0.2598  0.8602  0.8877
 5459SOL     OW21601   3.309   3.284   6.148  0.5027 -0.6067 -0.1925
 5459SOL    HW221602   3.393   3.319   6.179  0.3039  1.0832 -1.4012
 5459SOL    HW321603   3.295   3.327   6.064 -1.8993 -0.2870  0.2893
 5459SOL    MW421604   3.318   3.295   6.141  0.0563 -0.7144 -0.3978
 5460SOL     OW21605   0.683   1.319   1.257 -0.2585 -0.5661 -1.0449
 5460SOL    HW221606   0.607   1.332   1.201 -0.6779  1.1194 -0.1534
 5460SOL    HW321607   0.657   1.353   1.342  0.9980 -1.3430 -0.3084
 5460SOL    MW421608   0.670   1.325   1.261 -0.0940  0.3939 -0.3184
 5461SOL     OW21609   6.067   5.741   5.251 -0.4173 -0.5880 -0.1913
 5461SOL    HW221610   6.089   5.670   5.311  0.6552 -0.8958 -0.9268
 5461SOL    HW321611   6.037   5.812   5.308 -0.0592 -1.1013  0.6529
 5461SOL    MW421612   6.066   5.741   5.266 -0.1488 -0.8860  0.4275
 5462SOL     OW21613   4.476   4.141   2.860 -0.5946 -0.2696  0.1357
 5462SOL    HW221614   4.570   4.144   2.877 -0.5403 -0.0497 -0.2049
 5462SOL    HW321615   4.467   4.079   2.788 -0.5197  1.1186 -1.1052
 5462SOL    MW421616   4.487   4.133   2.853  0.0072  0.2402 -0.1981
 5463SOL     OW21617   4.077   2.572   5.873 -0.4780 -0.1186 -0.1831
 5463SOL    HW221618   4.096   2.479   5.882 -1.1832 -0.3064 -0.5519
 5463SOL    HW321619   3.987   2.581   5.903 -0.7062  0.2925 -0.9553
 5463SOL    MW421620   4.068   2.561   5.878  0.1636 -0.3440  0.5055
 5464SOL     OW21621   1.306   0.762   3.708 -0.3154  0.1317  0.0204
 5464SOL    HW221622   1.364   0.713   3.651  1.2032  0.5729  1.1058
 5464SOL    HW321623   1.245   0.806   3.649 -0.7249 -1.7620 -1.0534
 5464SOL    MW421624   1.305   0.761   3.693 -0.3871 -0.0094 -0.2616
 5465SOL     OW21625   0.360   4.420   3.219  0.1950 -0.3179  0.2701
 5465SOL    HW221626   0.429   4.459   3.165  0.2574 -0.1954  0.4333
 5465SOL    HW321627   0.290   4.486   3.220 -0.2640 -0.7877 -0.5564
 5465SOL    MW421628   0.360   4.434   3.212 -0.1730  0.3839  0.0666
 5466SOL     OW21629   1.879   3.216   1.733  0.0672  0.4024  0.4592
 5466SOL    HW221630   1.958   3.162   1.741  0.7620  1.4857  1.1186
 5466SOL    HW321631   1.827   3.193   1.809  1.1344  1.8438  1.6781
 5466SOL    MW421632   1.883   3.205   1.744  0.0919 -0.1647  0.2341
 5467SOL     OW21633   1.274   3.509   4.532 -0.3331  0.1725  0.3634
 5467SOL    HW221634   1.340   3.462   4.583  1.3136  2.0612  0.0810
 5467SOL    HW321635   1.279   3.469   4.445  0.1537  0.0259  0.4550
 5467SOL    MW421636   1.283   3.497   4.527 -0.8005 -0.0699  0.3093
 5468SOL     OW21637   1.881   5.608   6.243  0.4358 -0.0895 -0.5901
 5468SOL    HW221638   1.887   5.698   6.212 -1.4405  0.6725  1.0952
 5468SOL    HW321639   1.806   5.572   6.196  0.4660 -0.4164 -0.3898
 5468SOL    MW421640   1.872   5.615   6.233  0.4151  0.0606  0.3251
 5469SOL     OW21641   3.872   2.822   5.235 -0.0751  0.9826  0.2504
 5469SOL    HW221642   3.866   2.815   5.331 -0.7764 -2.0499  0.0899
 5469SOL    HW321643   3.963   2.801   5.216  0.1433  1.9012  0.2423
 5469SOL    MW421644   3.883   2.818   5.245  0.8485  0.1082  0.0308
 5470SOL     OW21645   3.743   5.087   1.067  0.2659  0.1687  0.1048
 5470SOL    HW221646   3.666   5.144   1.061 -0.6661 -0.9807  0.6799
 5470SOL    HW321647   3.802   5.134   1.126  0.9712  2.0632 -1.9789
 5470SOL    MW421648   3.741   5.101   1.074 -0.0340  0.2907 -0.4010
 5471SOL     OW21649   6.419   0.321   3.694  0.2924  0.0756 -0.4391
 5471SOL    HW221650   6.340   0.297   3.646  0.0602  0.1528 -0.1011
 5471SOL    HW321651   6.489   0.269   3.654  0.2349  0.6734 -1.3432
 5471SOL    MW421652   6.418   0.311   3.682  0.2806  0.2240  0.1298
 5472SOL     OW21653   5.148   3.546   0.780 -0.3443  0.2697  0.0549
 5472SOL    HW221654   5.078   3.597   0.820  0.5486  2.4020 -0.9388
 5472SOL    HW321655   5.228   3.582   0.817  0.2985 -1.6636  0.6448
 5472SOL    MW421656   5.149   3.557   0.790 -0.4566 -0.5570 -0.6895
 5473SOL     OW21657   2.709   2.654   4.741  0.1192 -0.0635  0.2461
 5473SOL    HW221658   2.755   2.718   4.688 -1.0925  0.7391  0.1149
 5473SOL    HW321659   2.731   2.569   4.703 -0.4771  0.4707 -1.3606
 5473SOL    MW421660   2.718   2.651   4.729  0.2309  0.3281  0.0643
 5474SOL     OW21661   0.256   0.286   6.262  0.3029  1.0446 -0.0874
 5474SOL    HW221662   0.208   0.347   6.207 -0.8043 -0.1457 -0.4842
 5474SOL    HW321663   0.249   0.322   6.350  0.3133  1.8729 -0.4183
 5474SOL    MW421664   0.249   0.299   6.266 -0.1427 -0.0724  0.0946
 5475SOL     OW21665   1.282   0.639   5.844 -0.1566  0.0823 -1.0180
 5475SOL    HW221666   1.311   0.574   5.780  1.0694  0.4766 -0.8820
 5475SOL    HW321667   1.243   0.586   5.914  1.2577 -0.5626 -0.6844
 5475SOL    MW421668   1.281   0.623   5.845  0.2016 -0.3049  0.0554
 5476SOL     OW21669   2.347   2.852   2.186  0.2546 -0.4478  0.2001
 5476SOL    HW221670   2.261   2.838   2.225  0.3394 -1.2558  0.1212
 5476SOL    HW321671   2.369   2.767   2.147  0.9567 -0.1623 -0.0312
 5476SOL    MW421672   2.339   2.839   2.186  0.4372 -0.0324 -0.1440
 5477SOL     OW21673   3.132   0.236   6.061  0.4105  0.0684  0.6348
 5477SOL    HW221674   3.206   0.215   6.004  0.6399  0.9655  0.5793
 5477SOL    HW321675   3.172   0.273   6.139  0.0099  2.0879 -0.0468
 5477SOL    MW421676   3.147   0.238   6.064  0.5405  0.3295 -0.2081
 5478SOL     OW21677   5.058   6.084   5.419 -0.4887 -0.1110 -0.6557
 5478SOL    HW221678   4.980   6.068   5.472 -1.9559  3.8742 -1.3385
 5478SOL    HW321679   5.102   6.157   5.463  1.8292 -0.9662 -1.4142
 5478SOL    MW421680   5.054   6.091   5.432  0.0434 -0.2975 -0.2766
 5479SOL     OW21681   5.682   4.105   2.858 -0.3331 -0.1513  0.4293
 5479SOL    HW221682   5.652   4.017   2.837  0.8381 -0.6835  0.9130
 5479SOL    HW321683   5.605   4.161   2.844 -1.3037 -1.3513  0.8593
 5479SOL    MW421684   5.668   4.101   2.854  0.3922 -0.0114 -0.2785
 5480SOL     OW21685   5.122   3.879   4.296  0.4674 -0.6077 -0.1203
 5480SOL    HW221686   5.178   3.828   4.237  2.1486  1.8442 -0.7874
 5480SOL    HW321687   5.087   3.950   4.242  1.3370  1.2128  1.5746
 5480SOL    MW421688   5.124   3.882   4.281  0.1811  0.8956 -0.0897
 5481SOL     OW21689   5.444   6.243   2.811 -0.0801 -0.2554  0.1788
 5481SOL    HW221690   5.456   6.310   2.743 -1.1665  1.2567  1.3951
 5481SOL    HW321691   5.491   6.167   2.778  0.9482  0.9965 -1.4309
 5481SOL    MW421692   5.452   6.242   2.798 -0.3315 -0.2011  0.0158
 5482SOL     OW21693   4.321   3.954   4.170  0.2787 -0.1634 -1.1382
 5482SOL    HW221694   4.319   3.864   4.138  0.3106 -0.0378 -1.4966
 5482SOL    HW321695   4.291   3.948   4.261 -0.1940 -0.4710 -1.3114
 5482SOL    MW421696   4.317   3.941   4.178  0.2993  0.1695 -0.4529
 5483SOL     OW21697   5.869   2.325   5.425 -1.0644  0.0267  0.3640
 5483SOL    HW221698   5.920   2.274   5.488 -1.8202  0.1901  1.1148
 5483SOL    HW321699   5.927   2.332   5.348 -1.1349 -2.4198  0.0199
 5483SOL    MW421700   5.884   2.319   5.423  0.1269  0.0803  0.0452
 5484SOL     OW21701   5.637   6.240   5.587  0.1794  0.3922  0.0593
 5484SOL    HW221702   5.610   6.331   5.598  0.0424  0.0822  3.3007
 5484SOL    HW321703   5.575   6.203   5.524 -1.2066  1.9884  0.4229
 5484SOL    MW421704   5.625   6.247   5.580  0.5744  0.1904 -0.3568
 5485SOL     OW21705   1.264   2.526   5.263 -0.3073 -0.2726  0.1437
 5485SOL    HW221706   1.235   2.511   5.353 -0.2611  0.6229  0.3151
 5485SOL    HW321707   1.267   2.621   5.254 -0.8296 -0.3422 -0.9736
 5485SOL    MW421708   1.260   2.536   5.273  0.1961  0.0502 -0.1721
 5486SOL     OW21709   2.495   3.944   5.442  0.0865 -0.4992  0.5770
 5486SOL    HW221710   2.467   3.917   5.530 -0.1189 -1.5453  0.2076
 5486SOL    HW321711   2.437   3.895   5.383  0.2309  0.1832 -0.1417
 5486SOL    MW421712   2.483   3.934   5.446  0.3094  0.4684  0.7975
 5487SOL     OW21713   1.964   5.132   0.483 -0.3483 -0.2483 -0.7737
 5487SOL    HW221714   1.887   5.121   0.539 -0.0699 -1.5782 -0.6095
 5487SOL    HW321715   2.024   5.185   0.536 -1.2996  1.2122 -1.0898
 5487SOL    MW421716   1.962   5.138   0.497  0.1912  0.7666  0.1066
 5488SOL     OW21717   1.582   2.037   3.440  0.0952  0.4480  0.0978
 5488SOL    HW221718   1.604   1.961   3.386 -0.5015  0.0420  0.4121
 5488SOL    HW321719   1.651   2.041   3.505 -0.3826 -0.4224  0.6785
 5488SOL    MW421720   1.594   2.027   3.441  0.2454  0.2498  0.6484
 5489SOL     OW21721   3.774   5.361   0.672  0.3758  0.8056  0.2507
 5489SOL    HW221722   3.740   5.318   0.750  0.0136  1.8356  0.6779
 5489SOL    HW321723   3.791   5.289   0.611 -1.5718  0.1583  0.4059
 5489SOL    MW421724   3.772   5.346   0.674 -0.4656 -0.1762  0.1648
 5490SOL     OW21725   5.676   1.436   6.420 -0.0622  0.8786 -0.0645
 5490SOL    HW221726   5.767   1.435   6.391  0.0948  2.4800  0.2636
 5490SOL    HW321727   5.666   1.357   6.472  1.6424  1.5324  1.3336
 5490SOL    MW421728   5.687   1.425   6.423  0.0846 -0.7638  0.3355
 5491SOL     OW21729   3.173   1.538   5.013  0.0908  0.0496 -0.1309
 5491SOL    HW221730   3.232   1.481   5.062 -0.4050 -2.4771 -2.2412
 5491SOL    HW321731   3.088   1.493   5.017 -0.5392  1.0936 -1.1718
 5491SOL    MW421732   3.170   1.524   5.020 -0.2313  0.2017  0.0310
 5492SOL     OW21733   0.632   3.504   1.985 -0.4102  0.0832 -0.1289
 5492SOL    HW221734   0.605   3.497   1.894 -1.9782 -1.0587  0.3963
 5492SOL    HW321735   0.687   3.427   2.000 -0.0349  0.3464 -0.1386
 5492SOL    MW421736   0.636   3.493   1.975  0.7618 -0.4300  0.2719
 5493SOL     OW21737   0.384   3.663   1.730 -0.1165 -0.1531  0.1989
 5493SOL    HW221738   0.329   3.620   1.795  1.2127 -0.1106  1.3840
 5493SOL    HW321739   0.439   3.593   1.694 -0.0391  0.0320 -0.0529
 5493SOL    MW421740   0.384   3.648   1.734 -0.2543  0.4443 -0.0924
 5494SOL     OW21741   4.396   1.683   4.715  0.0302  0.3514  0.5661
 5494SOL    HW221742   4.459   1.748   4.744  0.0031  0.7236 -0.1771
 5494SOL    HW321743   4.313   1.708   4.756 -0.0730  1.0348 -0.0544
 5494SOL    MW421744   4.393   1.695   4.724  0.0209  0.0613 -0.3248
 5495SOL     OW21745   3.414   5.116   5.076  0.6077  0.3766  0.0831
 5495SOL    HW221746   3.339   5.063   5.105  1.5338 -0.8008  0.4364
 5495SOL    HW321747   3.375   5.198   5.046 -0.8836 -0.4314 -0.3333
 5495SOL    MW421748   3.399   5.120   5.076 -0.2552  0.0336  0.8212
 5496SOL     OW21749   4.225   1.865   2.275  0.1194  0.2797 -0.3215
 5496SOL    HW221750   4.273   1.874   2.193 -1.0229  1.0709 -0.9395
 5496SOL    HW321751   4.178   1.781   2.266  1.6531 -0.6986  0.4577
 5496SOL    MW421752   4.225   1.855   2.263  0.7414  0.1979  0.3280
 5497SOL     OW21753   0.990   1.100   5.495  0.2314  0.5480 -0.1843
 5497SOL    HW221754   0.933   1.174   5.512  0.3379  0.3597  1.0991
 5497SOL    HW321755   1.076   1.139   5.476  0.1603  0.7730 -0.0463
 5497SOL    MW421756   0.994   1.115   5.495 -0.4089 -0.4276 -0.2588
 5498SOL     OW21757   6.283   5.718   6.173 -0.6223  0.2675  0.1648
 5498SOL    HW221758   6.303   5.811   6.171  0.1553  0.1373  1.1275
 5498SOL    HW321759   6.260   5.700   6.264 -0.7898 -0.4739 -0.0129
 5498SOL    MW421760   6.282   5.728   6.185 -0.5672  0.0193  0.5153
 5499SOL     OW21761   4.460   3.645   5.714  0.2879  0.0544  0.4242
 5499SOL    HW221762   4.534   3.686   5.669  0.6865  0.7382  1.6507
 5499SOL    HW321763   4.387   3.706   5.700  0.5759  0.6033  1.2153
 5499SOL    MW421764   4.460   3.659   5.707  0.1587 -0.9395  0.4202
 5500SOL     OW21765   4.164   5.908   1.917  0.0984  0.3448  0.3742
 5500SOL    HW221766   4.231   5.861   1.868 -0.2315  0.8671 -0.6117
 5500SOL    HW321767   4.081   5.876   1.881 -0.1751  0.0217  1.2776
 5500SOL    MW421768   4.162   5.898   1.906  0.0722  0.0248  0.2980
 5501SOL     OW21769   2.268   6.004   3.372 -0.1325 -0.1333 -0.0043
 5501SOL    HW221770   2.218   6.020   3.451 -0.5674  0.4717 -0.3930
 5501SOL    HW321771   2.206   5.963   3.312  0.5206 -1.7664  0.3833
 5501SOL    MW421772   2.253   6.000   3.374 -0.4634 -0.0068 -0.0770
 5502SOL     OW21773   0.955   0.134   5.193 -0.3536 -0.0984  0.4474
 5502SOL    HW221774   0.877   0.183   5.167 -0.1220  0.5522  0.9308
 5502SOL    HW321775   0.972   0.162   5.282  0.9685  0.5064  0.0339
 5502SOL    MW421776   0.947   0.144   5.201 -0.2427  0.5134  0.1155
 5503SOL     OW21777   2.694   1.280   5.167  0.2509 -0.1990 -0.1896
 5503SOL    HW221778   2.671   1.190   5.192 -0.3618  0.2610  1.0022
 5503SOL    HW321779   2.619   1.332   5.196 -0.0387  0.5361 -2.1337
 5503SOL    MW421780   2.681   1.275   5.174  0.1002 -0.1930 -0.2297
 5504SOL     OW21781   3.079   3.561   1.863 -0.1710  0.1109 -0.6271
 5504SOL    HW221782   3.023   3.573   1.786  1.2640 -1.2861 -1.9891
 5504SOL    HW321783   3.083   3.466   1.875  0.5004  0.2554  0.5119
 5504SOL    MW421784   3.072   3.550   1.854  0.5629  0.5926  0.2475
 5505SOL     OW21785   6.268   1.351   1.939  0.5202  0.1597 -0.0145
 5505SOL    HW221786   6.284   1.270   1.989  0.1258 -0.6039 -1.0956
 5505SOL    HW321787   6.252   1.417   2.006  0.1081 -0.8213  0.8890
 5505SOL    MW421788   6.268   1.349   1.955 -0.0074  0.1718 -0.0282
 5506SOL     OW21789   5.347   1.199   4.631 -0.1831  0.0292  0.3131
 5506SOL    HW221790   5.372   1.189   4.723  1.2038 -0.0212 -0.0402
 5506SOL    HW321791   5.328   1.110   4.601  0.7190 -0.1348  0.2029
 5506SOL    MW421792   5.348   1.186   4.639 -0.0686  0.4679 -0.0333
 5507SOL     OW21793   5.181   5.285   4.221  0.2709 -0.0781 -0.2972
 5507SOL    HW221794   5.235   5.265   4.145  0.9114 -1.5896  0.5039
 5507SOL    HW321795   5.132   5.204   4.238 -1.7842  1.0453 -0.5913
 5507SOL    MW421796   5.182   5.271   4.213 -0.2073 -0.4444 -0.0138
 5508SOL     OW21797   0.492   6.159   0.731  0.1451 -0.3556  0.2121
 5508SOL    HW221798   0.436   6.091   0.693 -0.4948  0.4355 -0.2667
 5508SOL    HW321799   0.470   6.238   0.683 -0.5857  0.6574  2.1058
 5508SOL    MW421800   0.482   6.160   0.720  0.2603  0.6929  0.1880
 5509SOL     OW21801   1.423   2.496   1.054 -0.0955  0.9298  0.1262
 5509SOL    HW221802   1.338   2.540   1.048 -1.0750 -0.7966  0.6229
 5509SOL    HW321803   1.456   2.519   1.141 -1.5389 -0.8222  1.2128
 5509SOL    MW421804   1.416   2.505   1.065  0.2205  0.1591 -0.4605
 5510SOL     OW21805   3.658   0.080   6.175 -0.1097  0.5322  0.2553
 5510SOL    HW221806   3.746   0.117   6.167  0.2981 -0.0846  1.5476
 5510SOL    HW321807   3.657   0.007   6.113 -0.5029  1.9008 -1.4032
 5510SOL    MW421808   3.669   0.075   6.166 -0.4457  0.5052 -0.7554
 5511SOL     OW21809   1.787   6.170   5.637 -0.3831 -0.3329  0.3213
 5511SOL    HW221810   1.717   6.138   5.694  0.0987  0.7571  1.6008
 5511SOL    HW321811   1.867   6.152   5.686  0.4061 -2.7272 -1.6655
 5511SOL    MW421812   1.789   6.163   5.651 -0.0730 -0.0269  0.5350
 5512SOL     OW21813   3.709   0.669   1.550 -0.2264 -0.8010 -0.3084
 5512SOL    HW221814   3.707   0.740   1.613  1.5067 -1.1547  0.1857
 5512SOL    HW321815   3.624   0.625   1.561 -1.1906  0.9418 -0.4029
 5512SOL    MW421816   3.698   0.672   1.559 -0.6883  0.8926 -0.1764
 5513SOL     OW21817   0.248   3.275   4.986  0.5531 -0.8500  0.1127
 5513SOL    HW221818   0.317   3.324   5.029  0.7003 -1.6407  0.8289
 5513SOL    HW321819   0.272   3.183   5.000 -0.8452 -1.1492  0.7669
 5513SOL    MW421820   0.260   3.269   4.994  0.8448  0.0187  0.5914
 5514SOL     OW21821   4.155   6.322   3.664  0.1922  0.1895 -0.7164
 5514SOL    HW221822   4.100   6.255   3.706 -0.2136 -0.1196 -1.6980
 5514SOL    HW321823   4.228   6.273   3.628 -0.1574  0.2470 -1.5241
 5514SOL    MW421824   4.157   6.307   3.665  0.1482  1.0454  0.2751
 5515SOL     OW21825   1.723   1.790   5.159  0.7104 -0.4075  0.6787
 5515SOL    HW221826   1.765   1.822   5.079 -1.7724  1.4215  0.0068
 5515SOL    HW321827   1.743   1.856   5.225  1.1510 -0.9531  1.1069
 5515SOL    MW421828   1.731   1.803   5.157  0.1878  0.1995 -0.3894
 5516SOL     OW21829   1.541   1.591   5.405 -0.3032 -0.4262 -0.2471
 5516SOL    HW221830   1.453   1.555   5.419  0.2982 -2.1267 -0.5794
 5516SOL    HW321831   1.576   1.605   5.493 -1.6980  2.5084 -0.0401
 5516SOL    MW421832   1.534   1.588   5.419 -0.2894 -0.0360 -0.5886
 5517SOL     OW21833   1.998   5.561   4.005 -0.1629  0.3636  0.5075
 5517SOL    HW221834   1.999   5.467   4.027  2.9932  0.1211 -0.2144
 5517SOL    HW321835   1.909   5.589   4.025 -0.9790 -2.5945  1.5659
 5517SOL    MW421836   1.986   5.552   4.011 -0.1697  0.5127 -0.1751
 5518SOL     OW21837   1.999   1.859   2.714 -0.0888 -0.3082  0.3823
 5518SOL    HW221838   2.002   1.784   2.656  0.1877  0.5550 -0.7633
 5518SOL    HW321839   2.058   1.923   2.674 -1.1655  0.9299  0.7014
 5518SOL    MW421840   2.007   1.858   2.701  0.1638 -0.4588 -0.5037
 5519SOL     OW21841   2.816   0.996   2.766  0.5108  0.3458 -0.1075
 5519SOL    HW221842   2.843   1.087   2.764 -2.1680  1.2140 -0.9756
 5519SOL    HW321843   2.897   0.946   2.762  2.2570  2.6176  2.9768
 5519SOL    MW421844   2.830   1.001   2.765 -0.1323  0.0726  0.4824
 5520SOL     OW21845   5.314   5.157   2.776 -0.0781  0.2325  0.5570
 5520SOL    HW221846   5.377   5.202   2.719 -0.1703  1.7559  1.6027
 5520SOL    HW321847   5.331   5.192   2.863 -0.3436 -1.6086  1.3955
 5520SOL    MW421848   5.325   5.168   2.780  0.2753 -0.2726 -0.2758
 5521SOL     OW21849   5.714   6.194   5.859 -0.3371 -0.1908  1.1607
 5521SOL    HW221850   5.805   6.163   5.857 -0.4860 -0.5804 -0.2855
 5521SOL    HW321851   5.700   6.233   5.773 -1.3576  0.4548  1.5971
 5521SOL    MW421852   5.724   6.195   5.847  0.3107 -0.0854  0.0219
 5522SOL     OW21853   0.097   4.592   1.083  0.0852 -0.2513 -0.2695
 5522SOL    HW221854   0.009   4.613   1.114 -0.5136 -2.1281 -0.5969
 5522SOL    HW321855   0.146   4.571   1.162  0.5178  1.5808 -0.0002
 5522SOL    MW421856   0.092   4.592   1.097  0.0807  0.1547  1.0938
 5523SOL     OW21857   0.267   3.660   3.057  0.4831  0.1676 -0.4295
 5523SOL    HW221858   0.276   3.696   3.145 -0.1439 -0.0025 -0.2863
 5523SOL    HW321859   0.290   3.568   3.067  1.2192  0.3297 -0.6141
 5523SOL    MW421860   0.271   3.653   3.070 -0.2306 -0.1318 -0.0327
 5524SOL     OW21861   1.069   5.498   5.342 -0.8438  0.2023  0.1884
 5524SOL    HW221862   1.056   5.403   5.342 -0.0912  0.0983  0.4010
 5524SOL    HW321863   1.009   5.530   5.410  0.1404 -0.3090  1.3436
 5524SOL    MW421864   1.059   5.490   5.351  0.0401  0.0015  0.1873
 5525SOL     OW21865   0.829   2.967   1.560 -0.2893 -0.5107  0.4364
 5525SOL    HW221866   0.896   3.034   1.550 -0.0818 -0.7843 -0.1104
 5525SOL    HW321867   0.797   2.977   1.649  1.2717 -1.0879  1.1043
 5525SOL    MW421868   0.833   2.977   1.570  0.0329 -0.1587 -0.1732
 5526SOL     OW21869   0.054   1.837   3.485 -0.3802 -0.3840  0.2160
 5526SOL    HW221870  -0.028   1.887   3.495  0.8776  1.5621  1.7159
 5526SOL    HW321871   0.082   1.821   3.575  0.8091 -1.1648 -0.2815
 5526SOL    MW421872   0.047   1.842   3.498  0.3400  0.1444  0.4879
 5527SOL     OW21873   5.711   4.823   2.382  0.1684  0.0534 -0.3111
 5527SOL    HW221874   5.646   4.753   2.393  1.5453 -1.4126 -1.0620
 5527SOL    HW321875   5.769   4.814   2.458  0.8932 -0.2599 -0.8852
 5527SOL    MW421876   5.710   4.812   2.393  0.0035 -0.0841 -0.3215
 5528SOL     OW21877   3.104   2.208   4.056  0.9154 -0.3190  0.3683
 5528SOL    HW221878   3.093   2.293   4.098  0.2579  0.6610 -1.6512
 5528SOL    HW321879   3.197   2.203   4.035  0.9465 -0.0738  0.4460
 5528SOL    MW421880   3.115   2.218   4.059 -0.0280 -0.2839  0.2167
 5529SOL     OW21881   2.450   3.142   5.017 -0.7098 -0.3383  0.5171
 5529SOL    HW221882   2.508   3.117   4.945  0.0724 -0.7187  1.2665
 5529SOL    HW321883   2.409   3.060   5.045  0.1604 -0.4609  1.5037
 5529SOL    MW421884   2.452   3.128   5.011  0.1030  0.2103 -0.0062
 5530SOL     OW21885   1.043   3.455   1.336 -0.5880 -0.8383 -0.8129
 5530SOL    HW221886   1.038   3.458   1.240  1.3123 -1.9930 -0.9912
 5530SOL    HW321887   1.135   3.434   1.355 -0.0551  2.6648  1.3755
 5530SOL    MW421888   1.055   3.453   1.326  0.4409  0.3460 -0.1873
 5531SOL     OW21889   1.748   1.577   5.953  0.3893 -0.6453  0.1318
 5531SOL    HW221890   1.688   1.567   6.028  0.4775 -1.7004  0.0709
 5531SOL    HW321891   1.788   1.491   5.943 -0.1321 -0.7232 -1.5676
 5531SOL    MW421892   1.745   1.565   5.962 -0.2044 -0.2718  0.3953
 5532SOL     OW21893   6.019   4.912   0.647 -0.3334  0.1842  0.1038
 5532SOL    HW221894   6.078   4.844   0.679  0.4242  0.6339 -0.3174
 5532SOL    HW321895   6.030   4.910   0.552 -1.9446 -0.5785 -0.1050
 5532SOL    MW421896   6.028   4.903   0.639 -0.3089 -0.0085 -0.3848
 5533SOL     OW21897   1.147   2.560   1.053  0.3658 -0.0351 -0.9970
 5533SOL    HW221898   1.123   2.473   1.023 -2.4018  0.5924 -0.8408
 5533SOL    HW321899   1.094   2.619   1.000  0.5737  1.4426  0.3756
 5533SOL    MW421900   1.137   2.556   1.042 -0.0542  0.5735 -0.4590
 5534SOL     OW21901   2.125   1.130   2.414  0.3916  0.2653  0.5872
 5534SOL    HW221902   2.173   1.212   2.421  1.9355 -0.6701  1.7941
 5534SOL    HW321903   2.128   1.092   2.502  1.1426 -1.8049 -0.2514
 5534SOL    MW421904   2.132   1.136   2.427  0.6837 -0.1477 -0.4991
 5535SOL     OW21905   3.353   6.115   4.063  0.3734 -0.2750 -0.6351
 5535SOL    HW221906   3.282   6.173   4.093 -0.0901 -0.1442 -1.8929
 5535SOL    HW321907   3.417   6.117   4.133 -0.1142  0.9538 -0.1882
 5535SOL    MW421908   3.352   6.123   4.076  0.0862  0.0418  0.2177
 5536SOL     OW21909   4.023   2.176   2.669  0.4992  0.9829 -0.0349
 5536SOL    HW221910   4.033   2.180   2.764 -1.3065  1.2519  0.1716
 5536SOL    HW321911   4.111   2.196   2.635  1.4108 -0.0590  1.5580
 5536SOL    MW421912   4.036   2.179   2.677 -0.2352  0.1754 -0.0450
 5537SOL     OW21913   6.119   3.464   4.396  0.3435 -0.2171  0.4306
 5537SOL    HW221914   6.074   3.534   4.444 -0.0449 -0.3273  0.2355
 5537SOL    HW321915   6.106   3.485   4.304  0.7229 -0.2350  0.3722
 5537SOL    MW421916   6.111   3.476   4.390  0.0352  0.0995  0.1585
 5538SOL     OW21917   4.128   0.813   1.684 -0.0156  0.2956  0.0813
 5538SOL    HW221918   4.150   0.721   1.696  0.6377  0.5071  0.6000
 5538SOL    HW321919   4.073   0.815   1.605  0.3335 -0.4836 -0.1926
 5538SOL    MW421920   4.124   0.801   1.675 -0.0107 -0.2203  0.2379
 5539SOL     OW21921   1.617   0.318   6.379 -0.0270 -0.3029  0.0631
 5539SOL    HW221922   1.542   0.289   6.430 -1.8025  2.1734 -0.9123
 5539SOL    HW321923   1.648   0.397   6.424 -2.1603  2.4363 -2.8541
 5539SOL    MW421924   1.612   0.325   6.392  0.1748  0.1721 -0.5089
 5540SOL     OW21925   2.124   2.346   5.374  0.1097  0.2421  0.0111
 5540SOL    HW221926   2.077   2.360   5.291 -0.3721 -0.6152  0.1239
 5540SOL    HW321927   2.202   2.401   5.367 -1.1768  2.1877  0.0648
 5540SOL    MW421928   2.128   2.355   5.362 -0.0113 -0.8900  0.1869
 5541SOL     OW21929   2.850   1.657   3.360 -0.0385  0.6726  0.1249
 5541SOL    HW221930   2.841   1.572   3.403 -0.0070  1.0224  0.8235
 5541SOL    HW321931   2.760   1.685   3.344 -0.0710  0.9401  0.7532
 5541SOL    MW421932   2.837   1.649   3.363  0.1884 -0.1465  0.2714
 5542SOL     OW21933   3.073   6.407   5.502  0.2053  0.2086 -0.2533
 5542SOL    HW221934   3.054   6.391   5.409  1.0210  0.3478 -0.4527
 5542SOL    HW321935   3.152   6.355   5.520  0.9351  1.3459 -0.0463
 5542SOL    MW421936   3.081   6.398   5.492 -0.2662  0.4217 -0.7397
 5543SOL     OW21937   2.074   0.208   1.096 -0.0202  0.4572 -0.3735
 5543SOL    HW221938   2.090   0.114   1.090 -1.2397  0.2066  0.0703
 5543SOL    HW321939   2.115   0.235   1.178  1.0422  0.4806 -0.9006
 5543SOL    MW421940   2.081   0.199   1.106 -0.2443 -0.2638 -0.1554
 5544SOL     OW21941   2.808   1.747   4.629 -0.2342 -0.6421 -0.0096
 5544SOL    HW221942   2.862   1.767   4.553 -1.1097 -1.8190 -0.9896
 5544SOL    HW321943   2.868   1.747   4.703  1.2236 -2.4215 -1.1274
 5544SOL    MW421944   2.823   1.750   4.628 -0.0016 -0.2833 -0.0503
 5545SOL     OW21945   0.681   4.104   1.131 -0.4549  0.3291  0.1329
 5545SOL    HW221946   0.704   4.015   1.106 -0.5298  0.6484 -1.1066
 5545SOL    HW321947   0.586   4.108   1.121 -0.1893  1.3955 -2.7971
 5545SOL    MW421948   0.672   4.093   1.126 -0.3148  0.3314 -0.1572
 5546SOL     OW21949   3.956   4.890   1.784 -0.1898  0.4689  0.3691
 5546SOL    HW221950   3.896   4.938   1.840 -1.0327 -0.8494  0.6281
 5546SOL    HW321951   3.915   4.804   1.772  2.9051 -1.5961  2.8729
 5546SOL    MW421952   3.943   4.885   1.790  0.5046  0.9214  0.4020
 5547SOL     OW21953   1.227   1.382   5.090 -0.3383  0.1140  0.3346
 5547SOL    HW221954   1.154   1.333   5.126 -1.1622  0.5828 -0.6673
 5547SOL    HW321955   1.190   1.466   5.064  0.6462  0.5350  0.2266
 5547SOL    MW421956   1.213   1.387   5.091 -0.3013  0.0379  0.0504
 5548SOL     OW21957   6.235   3.329   6.078  0.2107 -0.7217 -0.5730
 5548SOL    HW221958   6.310   3.371   6.119 -0.7917  0.3688  0.2308
 5548SOL    HW321959   6.269   3.293   5.996  1.4469  0.3565 -0.5629
 5548SOL    MW421960   6.249   3.330   6.072 -0.0810 -0.1809  0.1675
 5549SOL     OW21961   0.258   2.715   2.021 -0.6282 -0.2017 -0.4056
 5549SOL    HW221962   0.332   2.756   1.976 -0.8477  2.8619  1.6933
 5549SOL    HW321963   0.297   2.642   2.070  1.1289  1.4731  0.8208
 5549SOL    MW421964   0.273   2.711   2.022  0.0921 -0.2166 -0.0648
 5550SOL     OW21965   3.602   2.789   0.094 -0.1433  0.1564  0.1115
 5550SOL    HW221966   3.579   2.823   0.181 -1.9058 -3.1691  1.1000
 5550SOL    HW321967   3.546   2.838   0.034 -0.2649  1.1839  1.0188
 5550SOL    MW421968   3.592   2.800   0.098 -0.3198  0.0746  0.0163
 5551SOL     OW21969   2.960   6.254   2.833 -0.2074  0.8670  0.0025
 5551SOL    HW221970   3.047   6.291   2.845  0.8530 -1.3434 -0.2118
 5551SOL    HW321971   2.924   6.249   2.921  0.1767  1.1860  0.1813
 5551SOL    MW421972   2.967   6.258   2.846  0.0832  0.0580 -0.0902
 5552SOL     OW21973   4.487   4.785   5.721 -0.0084 -0.1415 -0.2462
 5552SOL    HW221974   4.508   4.825   5.636 -0.5486  0.0983 -0.2710
 5552SOL    HW321975   4.392   4.793   5.728  0.1910  1.7698  1.3151
 5552SOL    MW421976   4.477   4.791   5.710 -0.3159  0.5439 -0.5683
 5553SOL     OW21977   1.610   4.727   5.968 -0.3410 -0.7464  0.5209
 5553SOL    HW221978   1.573   4.769   5.890 -1.6307 -0.1476  1.4106
 5553SOL    HW321979   1.537   4.677   6.004  0.0744 -0.5540  1.6565
 5553SOL    MW421980   1.595   4.726   5.962 -0.0689 -0.2520  0.2747
 5554SOL     OW21981   4.514   1.904   5.550 -0.1174 -0.5318 -0.6931
 5554SOL    HW221982   4.558   1.966   5.492 -1.1834  0.3017 -0.6414
 5554SOL    HW321983   4.477   1.838   5.492 -1.5262  0.5211 -1.0160
 5554SOL    MW421984   4.515   1.903   5.535 -0.4716 -0.4556 -0.2174
 5555SOL     OW21985   4.380   5.338   1.850  0.5048  0.4090 -0.4414
 5555SOL    HW221986   4.401   5.271   1.915 -0.0757 -0.6933 -1.3676
 5555SOL    HW321987   4.307   5.386   1.889  1.7161  1.3675  0.7850
 5555SOL    MW421988   4.373   5.335   1.864 -0.3967  0.2686 -0.5132
 5556SOL     OW21989   3.359   3.011   6.118  0.1750 -0.1335  0.4805
 5556SOL    HW221990   3.356   3.107   6.117 -1.3619 -0.1366  1.6116
 5556SOL    HW321991   3.390   2.987   6.031 -0.5340  1.3673 -0.2126
 5556SOL    MW421992   3.363   3.020   6.107 -0.1983  0.3435  0.5436
 5557SOL     OW21993   2.063   0.621   1.301  0.9579  0.2333 -0.2065
 5557SOL    HW221994   2.134   0.578   1.349 -0.3319 -1.4471  0.2917
 5557SOL    HW321995   2.015   0.549   1.261  0.1025  1.4103 -1.3658
 5557SOL    MW421996   2.066   0.606   1.302 -0.1139  0.2206  0.0637
 5558SOL     OW21997   1.798   5.211   6.367 -0.8394  0.5787  0.1715
 5558SOL    HW221998   1.890   5.222   6.390 -0.3688 -0.0181 -1.3140
 5558SOL    HW321999   1.766   5.142   6.426 -0.4365  0.9993  0.8973
 5558SOL    MW422000   1.806   5.203   6.378  0.5495  0.0448  0.1929
 5559SOL     OW22001   1.439   6.083   6.192  0.7181  0.2931 -0.1034
 5559SOL    HW222002   1.521   6.035   6.182  0.2834 -0.3323 -0.8655
 5559SOL    HW322003   1.424   6.122   6.106 -0.9843 -1.6406 -0.7916
 5559SOL    MW422004   1.448   6.082   6.179 -0.3558  0.0214  0.0428
 5560SOL     OW22005   2.467   1.804   5.794  0.1255  0.2015 -0.0818
 5560SOL    HW222006   2.511   1.841   5.718 -1.1290  1.5299 -0.2133
 5560SOL    HW322007   2.452   1.879   5.852 -0.0327 -0.5843  0.9179
 5560SOL    MW422008   2.471   1.819   5.792  0.1668 -0.3187  0.1511
 5561SOL     OW22009   4.283   4.088   1.283 -0.3427 -0.2832 -0.5106
 5561SOL    HW222010   4.294   3.993   1.285  1.1291 -0.2286 -2.7359
 5561SOL    HW322011   4.366   4.123   1.313 -2.0673  0.5045  4.2514
 5561SOL    MW422012   4.295   4.080   1.287 -0.6590  0.0656 -0.3510
 5562SOL     OW22013   3.850   2.783   1.654  0.8998  0.6196 -0.0329
 5562SOL    HW222014   3.925   2.839   1.637 -0.1093  1.5969 -1.5276
 5562SOL    HW322015   3.783   2.813   1.592 -0.6148 -0.4272  1.0176
 5562SOL    MW422016   3.851   2.794   1.644  0.0969 -0.3950 -0.4500
 5563SOL     OW22017   0.988   2.856   2.129 -0.5237 -0.3776 -0.5005
 5563SOL    HW222018   0.940   2.843   2.047 -1.0656  2.2530 -0.6747
 5563SOL    HW322019   0.928   2.825   2.196 -0.4176 -1.7507 -0.9935
 5563SOL    MW422020   0.974   2.850   2.127  0.0216  0.2867 -0.1423
 5564SOL     OW22021   0.247   3.905   6.013  0.2563 -0.6078  0.7412
 5564SOL    HW222022   0.191   3.973   5.976  1.6679  0.8401  1.1124
 5564SOL    HW322023   0.251   3.837   5.946  1.9991  1.5029 -1.5168
 5564SOL    MW422024   0.240   3.905   5.999  0.0050 -0.0325  0.0645
 5565SOL     OW22025   2.333   2.036   3.116 -0.4550  0.3245 -0.2025
 5565SOL    HW222026   2.373   1.992   3.191  2.6204  1.4038 -1.0212
 5565SOL    HW322027   2.304   1.965   3.059 -1.3352 -0.5120  1.2502
 5565SOL    MW422028   2.335   2.021   3.118 -0.1094  0.4915  0.5230
 5566SOL     OW22029   1.030   6.282   1.308 -0.6085 -0.1510  0.3775
 5566SOL    HW222030   1.077   6.330   1.240  0.1681  2.3687  2.5116
 5566SOL    HW322031   0.938   6.302   1.293 -0.3361  1.7437  0.9305
 5566SOL    MW422032   1.024   6.291   1.297 -0.7668  0.6517 -0.4178
 5567SOL     OW22033   0.175   2.565   2.898  0.4286 -0.6780 -0.0066
 5567SOL    HW222034   0.116   2.514   2.841 -0.0185 -0.1174 -0.0572
 5567SOL    HW322035   0.117   2.608   2.960  0.7348  0.2297 -0.3266
 5567SOL    MW422036   0.159   2.564   2.898  0.7171 -0.1493 -0.1403
 5568SOL     OW22037   6.433   2.994   3.749 -0.8709  0.3032 -0.3871
 5568SOL    HW222038   6.373   2.920   3.739 -1.0763  0.1959  1.4244
 5568SOL    HW322039   6.515   2.962   3.711 -0.7236 -1.1872  1.0676
 5568SOL    MW422040   6.436   2.980   3.743 -0.2431 -0.2763  0.0884
 5569SOL     OW22041   1.563   5.481   4.124 -0.1139  0.7742  0.3060
 5569SOL    HW222042   1.606   5.423   4.187 -0.0678  0.0062 -0.4238
 5569SOL    HW322043   1.616   5.561   4.126  0.8137  0.1810  0.0896
 5569SOL    MW422044   1.576   5.484   4.133 -0.0739 -0.0478  0.0751
 5570SOL     OW22045   3.587   2.262   0.316  0.6435  0.0375  1.1836
 5570SOL    HW222046   3.678   2.293   0.307 -0.2088  2.1880 -1.2232
 5570SOL    HW322047   3.534   2.340   0.302 -1.6344 -1.8408 -1.6752
 5570SOL    MW422048   3.592   2.276   0.313 -0.4423 -0.6086 -0.0133
 5571SOL     OW22049   5.133   0.133   2.809  0.0594 -0.1160 -0.1511
 5571SOL    HW222050   5.170   0.176   2.732 -2.5197  1.8981 -0.4189
 5571SOL    HW322051   5.145   0.195   2.880 -1.1879 -0.1674  0.1277
 5571SOL    MW422052   5.139   0.147   2.808 -0.3005 -0.1437  0.0439
 5572SOL     OW22053   4.818   3.551   5.807 -0.2407  0.1449  0.4561
 5572SOL    HW222054   4.805   3.602   5.886 -0.4604  0.0585  0.4743
 5572SOL    HW322055   4.756   3.479   5.813  1.8996 -1.7197  1.7633
 5572SOL    MW422056   4.808   3.548   5.818 -0.1973 -0.4382 -0.2297
 5573SOL     OW22057   3.240   6.028   0.614  0.6094 -0.1921 -0.4772
 5573SOL    HW222058   3.192   5.948   0.592  1.1458 -0.8273  0.5834
 5573SOL    HW322059   3.253   6.072   0.531 -0.9909 -0.4682 -0.9007
 5573SOL    MW422060   3.235   6.023   0.600  0.2605  0.5878 -0.1634
 5574SOL     OW22061   3.086   4.026   1.851 -0.1968 -0.3043 -0.1410
 5574SOL    HW222062   3.073   4.012   1.945 -1.2492  0.1349 -0.2090
 5574SOL    HW322063   3.137   3.950   1.823 -1.3108 -1.3232  0.4812
 5574SOL    MW422064   3.091   4.014   1.860 -0.0302  0.4175  0.2135
 5575SOL     OW22065   5.650   0.647   2.163 -0.3553 -0.0329  0.0379
 5575SOL    HW222066   5.718   0.651   2.231 -0.6431  0.9378  0.2795
 5575SOL    HW322067   5.570   0.672   2.209 -0.5878  0.4293 -0.6157
 5575SOL    MW422068   5.649   0.651   2.178 -0.4383 -0.1854  0.1712
 5576SOL     OW22069   2.949   4.554   2.707  0.6997  0.9328 -0.4221
 5576SOL    HW222070   2.900   4.476   2.682 -1.0617  1.7397  0.3549
 5576SOL    HW322071   3.025   4.554   2.649 -0.5626 -0.0066 -2.1521
 5576SOL    MW422072   2.953   4.544   2.696 -0.2439  0.1774 -0.0012
 5577SOL     OW22073   1.810   4.738   0.044 -0.3273 -0.3373 -0.5091
 5577SOL    HW222074   1.820   4.664   0.103 -2.8624 -0.9642 -0.7389
 5577SOL    HW322075   1.853   4.710  -0.037  0.4941 -0.7112  0.0469
 5577SOL    MW422076   1.817   4.724   0.041 -0.3920  0.2294  0.2950
 5578SOL     OW22077   4.104   2.725   0.666  0.0729 -0.0573 -0.5974
 5578SOL    HW222078   4.081   2.742   0.757 -0.2472  1.4945 -0.9373
 5578SOL    HW322079   4.153   2.642   0.668 -0.5483 -0.4115  0.8743
 5578SOL    MW422080   4.108   2.716   0.678 -0.2622  0.1932 -0.3068
 5579SOL     OW22081   1.724   3.472   5.779 -0.0980  0.2564 -0.1648
 5579SOL    HW222082   1.699   3.459   5.870 -0.6015  1.0880 -0.1689
 5579SOL    HW322083   1.658   3.533   5.745 -0.0779 -0.2569 -1.1574
 5579SOL    MW422084   1.712   3.478   5.787 -0.6621  0.8441  0.3737
 5580SOL     OW22085   3.230   6.426   3.748  0.1014 -0.8741 -0.7473
 5580SOL    HW222086   3.274   6.442   3.665  1.0511 -1.2628 -0.3346
 5580SOL    HW322087   3.301   6.419   3.812 -0.6155 -0.3907  0.1368
 5580SOL    MW422088   3.245   6.427   3.746  0.2703  0.1989  0.1507
 5581SOL     OW22089   1.897   0.040   6.186  0.0543 -0.0066 -0.4790
 5581SOL    HW222090   1.856   0.125   6.173  0.3164  0.5540  1.9715
 5581SOL    HW322091   1.834  -0.022   6.150 -0.3890  1.1518 -1.7991
 5581SOL    MW422092   1.883   0.043   6.179  0.1198 -0.1790 -0.3074
 5582SOL     OW22093   1.851   4.246   2.414 -0.0920  0.3789 -0.2754
 5582SOL    HW222094   1.805   4.270   2.334  1.4717  1.8048 -0.7856
 5582SOL    HW322095   1.875   4.154   2.400 -2.1248 -0.1879 -0.2795
 5582SOL    MW422096   1.848   4.237   2.401  0.1989 -0.1770  0.2476
 5583SOL     OW22097   5.133   0.604   5.641  0.3594  0.0040  0.2918
 5583SOL    HW222098   5.118   0.511   5.621  2.0481 -0.5537  1.4203
 5583SOL    HW322099   5.194   0.603   5.715  0.5624  2.0204  0.1964
 5583SOL    MW422100   5.139   0.591   5.648 -1.1353 -0.1451 -0.4322
 5584SOL     OW22101   5.303   2.024   0.912  0.2421 -0.4699 -0.0032
 5584SOL    HW222102   5.244   1.972   0.967  0.0370 -0.4055 -0.1594
 5584SOL    HW322103   5.375   2.048   0.970  0.2697 -0.8085  0.1099
 5584SOL    MW422104   5.305   2.020   0.927 -0.5472 -0.2453 -0.6065
 5585SOL     OW22105   0.478   0.031   6.283 -0.5699  0.3914 -0.0149
 5585SOL    HW222106   0.466   0.045   6.377  0.9722 -0.4039  0.3464
 5585SOL    HW322107   0.413   0.087   6.241  0.4735  2.8671  1.4666
 5585SOL    MW422108   0.468   0.040   6.290 -0.1654  0.2635  0.2110
 5586SOL     OW22109   6.307   5.276   1.837  0.0626 -0.3171  0.4477
 5586SOL    HW222110   6.306   5.272   1.932  0.9160  1.0528  0.5443
 5586SOL    HW322111   6.292   5.368   1.816 -1.0662 -0.7462 -0.7854
 5586SOL    MW422112   6.305   5.288   1.846 -0.5019  0.4650 -0.2419
 5587SOL     OW22113   5.644   2.065   3.159  0.1899  0.2030 -0.2277
 5587SOL    HW222114   5.726   2.043   3.203  0.9406 -1.1172 -2.1932
 5587SOL    HW322115   5.606   2.134   3.214  1.0398 -1.3068  2.4737
 5587SOL    MW422116   5.650   2.071   3.172  0.3230 -0.3781 -0.3192
 5588SOL     OW22117   5.117   1.349   1.462 -0.0647  0.4870 -0.3957
 5588SOL    HW222118   5.056   1.338   1.535 -0.9851  1.9477 -0.8984
 5588SOL    HW322119   5.204   1.348   1.502 -0.4710 -0.3000  0.4980
 5588SOL    MW422120   5.121   1.347   1.477 -0.7391 -0.5883  0.4761
 5589SOL     OW22121   6.083   3.545   6.368 -0.3791 -0.2745  0.7051
 5589SOL    HW222122   6.091   3.608   6.296  0.3483 -0.1687  0.8715
 5589SOL    HW322123   6.171   3.507   6.376 -0.4878 -0.3694  1.4548
 5589SOL    MW422124   6.096   3.548   6.359 -0.3586 -0.4218 -0.6619
 5590SOL     OW22125   2.094   2.126   3.275  0.0086 -0.3694  0.2268
 5590SOL    HW222126   2.087   2.221   3.281  0.9937 -0.2953  0.3258
 5590SOL    HW322127   2.176   2.111   3.227 -0.3607 -1.1613 -0.1752
 5590SOL    MW422128   2.104   2.136   3.269 -0.4063 -0.2464  0.1142
 5591SOL     OW22129   6.261   5.634   4.825 -0.6556 -0.0108  0.9357
 5591SOL    HW222130   6.214   5.566   4.875 -1.7448  0.3490  0.4268
 5591SOL    HW322131   6.261   5.602   4.735 -0.7078  0.4198  0.7815
 5591SOL    MW422132   6.255   5.621   4.820 -0.2973  0.0859 -0.4966
 5592SOL     OW22133   1.714   1.415   2.389 -0.5902  0.0581  0.3986
 5592SOL    HW222134   1.726   1.502   2.353 -0.0111 -0.2024 -0.0538
 5592SOL    HW322135   1.791   1.366   2.360 -0.7306 -0.5051  0.9445
 5592SOL    MW422136   1.726   1.420   2.381  0.4047 -0.8824  0.0363
 5593SOL     OW22137   4.516   1.713   6.334 -0.8565  0.5574 -0.2583
 5593SOL    HW222138   4.519   1.801   6.371 -1.4293  1.2773 -1.8227
 5593SOL    HW322139   4.603   1.700   6.295  0.5676 -1.0720  3.0197
 5593SOL    MW422140   4.528   1.723   6.334 -0.1147 -0.0136 -0.2607
 5594SOL     OW22141   3.864   3.318   4.883 -0.0881 -0.7019  0.4402
 5594SOL    HW222142   3.849   3.224   4.890 -0.5499 -0.7410 -0.7462
 5594SOL    HW322143   3.817   3.343   4.803  1.2944  0.2427 -0.1134
 5594SOL    MW422144   3.856   3.309   4.873 -0.1585 -0.2572 -0.3061
 5595SOL     OW22145   6.467   2.259   0.562  0.4659  0.3558 -0.0956
 5595SOL    HW222146   6.457   2.268   0.468  1.9096  1.8526 -0.1478
 5595SOL    HW322147   6.510   2.340   0.590  2.7145 -1.2418  1.4188
 5595SOL    MW422148   6.471   2.271   0.553  0.1642  0.4174 -0.0302
 5596SOL     OW22149   5.988   3.913   2.173  0.2721  0.2320 -0.8421
 5596SOL    HW222150   5.995   4.008   2.186 -0.6169  0.0758  0.9701
 5596SOL    HW322151   6.078   3.881   2.179  0.3611  0.7211  0.8022
 5596SOL    MW422152   6.001   3.921   2.175  0.1685  0.2873  0.4727
 5597SOL     OW22153   2.014   2.703   6.226 -0.5266 -0.2276 -0.0825
 5597SOL    HW222154   2.068   2.781   6.237  0.9825 -1.2539  0.0747
 5597SOL    HW322155   1.924   2.735   6.230  0.0446  1.6148 -0.8541
 5597SOL    MW422156   2.010   2.717   6.228 -0.1186  0.1642 -0.1803
 5598SOL     OW22157   5.539   5.235   2.215  0.8743 -0.0770 -0.2398
 5598SOL    HW222158   5.571   5.204   2.130  1.0464 -0.6009  0.0112
 5598SOL    HW322159   5.532   5.156   2.268  1.0857  0.2850  0.3361
 5598SOL    MW422160   5.542   5.221   2.211  0.3785  0.2605 -0.5697
 5599SOL     OW22161   4.726   2.041   1.411 -0.0050 -0.4807  0.5669
 5599SOL    HW222162   4.649   2.000   1.370 -0.7131  0.4308  0.9412
 5599SOL    HW322163   4.704   2.134   1.413  0.5661 -0.3649  1.8410
 5599SOL    MW422164   4.713   2.048   1.406 -0.3168  0.0795 -0.1456
 5600SOL     OW22165   2.863   1.214   1.668 -0.4166  0.2555  0.2712
 5600SOL    HW222166   2.884   1.266   1.746  1.7611  1.1141 -0.8001
 5600SOL    HW322167   2.940   1.223   1.613 -1.2721 -1.6238 -1.3169
 5600SOL    MW422168   2.876   1.222   1.671  0.0507 -0.6203 -0.1418
 5601SOL     OW22169   2.711   0.271   1.511 -0.3171 -0.0389  0.0141
 5601SOL    HW222170   2.800   0.275   1.547  0.0684 -0.2628 -0.8821
 5601SOL    HW322171   2.656   0.247   1.586  0.2183  1.1321  0.8068
 5601SOL    MW422172   2.715   0.268   1.526  0.7132  0.0362 -0.3236
 5602SOL     OW22173   5.492   6.017   0.821  0.0334  0.1807  0.4889
 5602SOL    HW222174   5.523   6.106   0.835  0.6114 -0.0468  0.7011
 5602SOL    HW322175   5.454   6.018   0.733  1.5035  0.2578 -0.1668
 5602SOL    MW422176   5.491   6.029   0.811  0.4550  0.2823  0.1297
 5603SOL     OW22177   0.880   0.838   4.963 -0.6350  0.8180 -0.1196
 5603SOL    HW222178   0.877   0.758   5.016 -0.7559 -0.3495 -1.8120
 5603SOL    HW322179   0.882   0.807   4.872 -1.2404  2.7478 -0.8464
 5603SOL    MW422180   0.880   0.823   4.958 -0.0620 -0.2112  0.4833
 5604SOL     OW22181   1.527   2.625   5.532 -0.2731  0.1455 -0.3100
 5604SOL    HW222182   1.614   2.656   5.509 -0.3362  0.0026 -0.7637
 5604SOL    HW322183   1.516   2.544   5.481 -0.0465 -0.7336  0.9783
 5604SOL    MW422184   1.537   2.618   5.522  0.1582 -0.0853  0.2434
 5605SOL     OW22185   2.192   4.697   0.185 -0.4744 -0.1658 -0.9664
 5605SOL    HW222186   2.117   4.745   0.219  0.2598 -0.1477  0.7877
 5605SOL    HW322187   2.264   4.720   0.245  0.2091 -2.4247 -0.8067
 5605SOL    MW422188   2.192   4.706   0.198 -0.4376 -0.0038 -0.2135
 5606SOL     OW22189   3.221   2.251   3.743 -0.2963 -0.0611  0.3536
 5606SOL    HW222190   3.199   2.335   3.783 -1.2398  0.1103 -0.4743
 5606SOL    HW322191   3.316   2.245   3.748 -0.0420  1.8503 -1.1256
 5606SOL    MW422192   3.230   2.261   3.749 -0.3383  0.1516 -0.0307
 5607SOL     OW22193   3.395   0.529   1.866 -0.1593 -0.2883 -0.0904
 5607SOL    HW222194   3.303   0.549   1.852  0.1498  1.1752 -0.1961
 5607SOL    HW322195   3.395   0.455   1.927 -1.3908 -0.5053 -0.3438
 5607SOL    MW422196   3.383   0.522   1.872 -0.1003 -0.0383 -0.2408
 5608SOL     OW22197   4.257   2.544   1.305  0.0772  0.0265  0.0061
 5608SOL    HW222198   4.180   2.579   1.351 -0.8544 -0.6312 -0.9914
 5608SOL    HW322199   4.319   2.524   1.374 -0.7581  0.3261  0.8706
 5608SOL    MW422200   4.255   2.546   1.320 -0.0157 -0.3885  0.1000
 5609SOL     OW22201   3.540   2.375   6.271  0.4185  1.0196  0.0872
 5609SOL    HW222202   3.503   2.461   6.254 -1.6152  0.2963  0.5869
 5609SOL    HW322203   3.551   2.336   6.184  0.1769  1.3277 -0.0830
 5609SOL    MW422204   3.537   2.381   6.257  0.0814  0.1625  0.3162
 5610SOL     OW22205   3.646   0.345   0.242  0.2890 -0.0088  0.6505
 5610SOL    HW222206   3.628   0.367   0.333 -0.0409  2.9681 -0.0108
 5610SOL    HW322207   3.560   0.343   0.200  0.6023  2.5795 -0.2780
 5610SOL    MW422208   3.632   0.348   0.248  0.3613 -0.4132 -0.2584
 5611SOL     OW22209   1.924   3.601   5.383 -0.4348  0.7670  0.1153
 5611SOL    HW222210   1.928   3.604   5.479 -0.5421 -1.0365  0.2066
 5611SOL    HW322211   1.917   3.693   5.357 -1.1060  1.2616  1.8594
 5611SOL    MW422212   1.924   3.614   5.392  0.0799 -0.0139  0.0514
 5612SOL     OW22213   0.820   0.740   3.796  0.1325 -0.0356  0.3759
 5612SOL    HW222214   0.825   0.831   3.827  0.1253  0.0282  0.1867
 5612SOL    HW322215   0.746   0.703   3.843 -1.0370  0.5808 -0.9203
 5612SOL    MW422216   0.811   0.747   3.807  0.3853 -0.3079 -0.1804
 5613SOL     OW22217   1.956   4.773   0.308  0.1564  0.3005 -1.0236
 5613SOL    HW222218   1.865   4.752   0.329 -0.2984  0.1001 -2.9875
 5613SOL    HW322219   1.954   4.866   0.285 -0.0766 -0.1983 -3.3176
 5613SOL    MW422220   1.943   4.782   0.308 -0.0923 -0.0835  0.1761
 5614SOL     OW22221   3.856   1.572   2.246 -0.8023 -0.1584 -0.3363
 5614SOL    HW222222   3.838   1.660   2.212  0.3368  0.1086 -0.2649
 5614SOL    HW322223   3.832   1.576   2.338  1.5527  0.8229  0.2849
 5614SOL    MW422224   3.850   1.584   2.253 -0.4272 -0.0208  0.1320
 5615SOL     OW22225   5.852   6.054   3.495  0.3385  0.3001  0.0147
 5615SOL    HW222226   5.796   5.981   3.471  1.5564 -0.6692  0.0627
 5615SOL    HW322227   5.875   6.038   3.587 -0.5864  1.5641  0.5142
 5615SOL    MW422228   5.847   6.043   3.504  0.1709 -0.1807  0.2219
 5616SOL     OW22229   1.456   1.445   4.031  0.1993  0.3005 -0.1385
 5616SOL    HW222230   1.532   1.392   4.008  0.5155 -0.0351  1.5267
 5616SOL    HW322231   1.434   1.492   3.951  0.8623 -1.1698 -1.2392
 5616SOL    MW422232   1.463   1.444   4.018 -0.1426  0.4014 -0.3704
 5617SOL     OW22233   5.921   1.020   3.432 -0.3802  0.2149 -0.0859
 5617SOL    HW222234   6.013   1.026   3.455 -0.1191 -0.9688 -0.7250
 5617SOL    HW322235   5.891   0.940   3.474 -0.3042 -1.0903 -2.3746
 5617SOL    MW422236   5.929   1.010   3.440  0.1309  0.1253  0.5386
 5618SOL     OW22237   2.426   5.696   1.532 -0.1592 -0.1766  0.5268
 5618SOL    HW222238   2.452   5.764   1.595 -1.4955  1.5088 -0.6293
 5618SOL    HW322239   2.353   5.651   1.574  0.2100 -0.3728  0.9675
 5618SOL    MW422240   2.420   5.699   1.546  0.3815  0.6328 -0.7624
 5619SOL     OW22241   2.202   5.244   6.179 -0.4814  0.3131  0.3646
 5619SOL    HW222242   2.181   5.186   6.105  2.8370 -0.6579 -0.0029
 5619SOL    HW322243   2.155   5.325   6.160 -2.1845 -0.9406 -1.1667
 5619SOL    MW422244   2.193   5.247   6.166  0.0864 -0.5394  0.1867
 5620SOL     OW22245   2.055   3.870   4.266  0.2729  0.1898 -0.0624
 5620SOL    HW222246   1.973   3.822   4.263  0.7766 -0.7088  0.2598
 5620SOL    HW322247   2.076   3.887   4.174 -0.1562  0.2403 -0.1532
 5620SOL    MW422248   2.047   3.866   4.253  0.2111  0.2352  0.3938
 5621SOL     OW22249   4.419   2.244   5.484  0.5574 -0.6805  0.5542
 5621SOL    HW222250   4.483   2.253   5.554  0.0998 -1.8676  1.1608
 5621SOL    HW322251   4.366   2.324   5.488  1.6478  0.0703  0.3829
 5621SOL    MW422252   4.420   2.256   5.493 -0.2331  0.0350 -0.3316
 5622SOL     OW22253   4.631   3.128   6.237  0.1648  0.3947 -0.6051
 5622SOL    HW222254   4.581   3.068   6.181 -3.4358  1.4816  1.1314
 5622SOL    HW322255   4.601   3.108   6.326  3.4772  0.7269  0.7558
 5622SOL    MW422256   4.620   3.117   6.241  0.2601  0.1786  0.2672
 5623SOL     OW22257   3.815   4.689   4.251  0.8203  0.4057 -0.1911
 5623SOL    HW222258   3.875   4.732   4.312  0.7136 -0.9175  0.8854
 5623SOL    HW322259   3.852   4.601   4.239 -0.0160  0.1276 -0.8018
 5623SOL    MW422260   3.828   4.683   4.257  0.1359 -0.1419 -0.5538
 5624SOL     OW22261   1.524   3.909   1.372  0.1610  0.2889  0.7718
 5624SOL    HW222262   1.532   4.000   1.401 -0.2789  0.0982  1.5008
 5624SOL    HW322263   1.435   3.883   1.397  0.2931 -0.3550  0.5992
 5624SOL    MW422264   1.513   3.918   1.379 -0.0241 -0.1512 -0.6026
 5625SOL     OW22265   6.084   5.674   2.824 -0.2913 -0.2054  0.4401
 5625SOL    HW222266   6.128   5.745   2.870 -0.5559  0.3753 -0.1888
 5625SOL    HW322267   6.154   5.618   2.792 -0.0626  0.0679  0.4657
 5625SOL    MW422268   6.099   5.676   2.826  0.0944 -0.0103  0.5633
 5626SOL     OW22269   2.738   3.156   3.522  0.7445  0.2072  0.2238
 5626SOL    HW222270   2.726   3.189   3.433 -0.9269  1.8392  0.9799
 5626SOL    HW322271   2.692   3.072   3.522 -1.4723  1.3361  0.1259
 5626SOL    MW422272   2.730   3.150   3.510 -0.3013  0.0277  0.3728
 5627SOL     OW22273   3.222   1.218   0.217  0.1400  0.0126  0.3372
 5627SOL    HW222274   3.149   1.270   0.249 -0.4090 -0.4563 -0.1364
 5627SOL    HW322275   3.293   1.281   0.202 -1.0711  0.9257 -1.9738
 5627SOL    MW422276   3.222   1.233   0.219 -0.0244 -0.5049  0.0495
 5628SOL     OW22277   0.386   0.903   4.553  0.3470 -0.3415  0.3614
 5628SOL    HW222278   0.353   0.983   4.595 -0.1522 -0.8885  1.0370
 5628SOL    HW322279   0.321   0.836   4.576  1.5969 -1.3077  1.2143
 5628SOL    MW422280   0.373   0.905   4.562  0.4551 -0.2874 -0.1341
 5629SOL     OW22281   2.569   4.662   3.390 -0.1192 -0.0463  0.3052
 5629SOL    HW222282   2.618   4.688   3.468 -0.8599  1.3527  0.3293
 5629SOL    HW322283   2.636   4.636   3.327  0.5041 -0.8668  1.2687
 5629SOL    MW422284   2.584   4.662   3.392 -0.4965  0.0840 -0.1979
 5630SOL     OW22285   5.547   4.183   4.843  0.1497  0.3392  0.1555
 5630SOL    HW222286   5.515   4.212   4.758 -0.5671 -0.9563 -0.0360
 5630SOL    HW322287   5.549   4.263   4.896 -0.1471  1.0253 -0.8426
 5630SOL    MW422288   5.543   4.197   4.839  0.3902  0.1249 -0.0255
 5631SOL     OW22289   4.278   5.073   5.998 -0.7296  0.3156 -0.4875
 5631SOL    HW222290   4.283   4.981   6.023  0.6142  0.7213  0.8914
 5631SOL    HW322291   4.185   5.091   5.990 -1.0261 -1.0053 -0.1818
 5631SOL    MW422292   4.267   5.063   6.000  0.4406  0.2820  0.1407
 5632SOL     OW22293   3.484   4.090   2.495  0.2346 -0.0490 -0.1835
 5632SOL    HW222294   3.410   4.066   2.552 -1.1975  1.3101 -1.3659
 5632SOL    HW322295   3.543   4.138   2.553 -0.7110  0.4309  0.4262
 5632SOL    MW422296   3.482   4.093   2.510  0.5876 -0.1898  0.3735
 5633SOL     OW22297   1.757   5.296   2.887 -0.6557  0.0901  0.0145
 5633SOL    HW222298   1.821   5.344   2.939  0.6434 -0.5705 -0.8900
 5633SOL    HW322299   1.708   5.245   2.950 -0.6838  1.0523  0.7891
 5633SOL    MW422300   1.759   5.295   2.902 -0.5682  0.0772 -0.7017
 5634SOL     OW22301   6.163   4.775   3.331  0.3553  0.3458  0.4219
 5634SOL    HW222302   6.128   4.746   3.415 -0.0605 -0.8694 -0.1521
 5634SOL    HW322303   6.228   4.842   3.354 -0.2521  0.5344  1.6618
 5634SOL    MW422304   6.167   4.780   3.345 -0.0050 -0.1562  0.1942
 5635SOL     OW22305   0.365   5.091   0.763  0.2164 -0.5751 -0.1272
 5635SOL    HW222306   0.446   5.053   0.798 -1.0645 -1.4625  2.1228
 5635SOL    HW322307   0.305   5.090   0.838 -1.1928  2.1454 -1.1058
 5635SOL    MW422308   0.368   5.086   0.778  0.4928 -0.2475 -0.0036
 5636SOL     OW22309   6.220   3.212   3.310  0.4604 -0.0507  0.4079
 5636SOL    HW222310   6.221   3.308   3.307  1.9818 -0.0428  0.4240
 5636SOL    HW322311   6.264   3.190   3.392 -0.3776 -0.7661  0.6763
 5636SOL    MW422312   6.226   3.222   3.320  0.0020 -0.1543 -0.2794
 5637SOL     OW22313   3.894   1.501   2.950 -0.8009  0.1117  0.5141
 5637SOL    HW222314   3.814   1.553   2.957  0.3427  2.1185 -0.4584
 5637SOL    HW322315   3.963   1.559   2.981  0.4032 -1.2468  0.4697
 5637SOL    MW422316   3.893   1.516   2.955  0.7010  0.6354 -0.1999
 5638SOL     OW22317   4.953   4.292   2.242  0.2046  0.1485 -0.4955
 5638SOL    HW222318   5.019   4.237   2.201 -0.1991  1.5436 -3.1890
 5638SOL    HW322319   5.002   4.363   2.284  0.6381 -1.4647  1.9755
 5638SOL    MW422320   4.968   4.294   2.242 -0.2642 -0.8481 -0.1180
 5639SOL     OW22321   4.723   4.464   0.978  0.7043 -0.3038  0.1968
 5639SOL    HW222322   4.660   4.501   1.040  0.5395 -0.3108  0.0341
 5639SOL    HW322323   4.698   4.501   0.893 -1.6914 -3.4628 -0.6363
 5639SOL    MW422324   4.712   4.474   0.975 -0.1786 -0.3169 -0.2689
 5640SOL     OW22325   5.860   3.350   0.988 -0.0227  0.3277  0.1894
 5640SOL    HW222326   5.886   3.282   0.925  0.6612  1.4202 -0.7436
 5640SOL    HW322327   5.788   3.396   0.945 -2.9741 -1.9498  2.2795
 5640SOL    MW422328   5.854   3.347   0.974 -0.0086 -0.5664 -0.1509
 5641SOL     OW22329   0.092   6.421   2.150  0.0495  0.1527 -0.0789
 5641SOL    HW222330   0.089   6.517   2.154  0.7099  0.1436  0.9274
 5641SOL    HW322331   0.172   6.402   2.100 -0.7201  0.1180 -1.3459
 5641SOL    MW422332   0.102   6.431   2.144  0.1477 -0.0631 -0.1605
 5642SOL     OW22333   2.771   4.037   4.562 -0.0027 -0.5026 -0.7200
 5642SOL    HW222334   2.831   3.997   4.498  1.6135  1.1368 -0.3306
 5642SOL    HW322335   2.730   3.962   4.606  2.9688 -1.8122  0.0900
 5642SOL    MW422336   2.774   4.022   4.559  0.8106  0.5030 -0.3432
 5643SOL     OW22337   4.702   0.786   5.247  0.1933 -0.3848 -0.0418
 5643SOL    HW222338   4.650   0.811   5.170  0.5731 -0.5902 -0.3706
 5643SOL    HW322339   4.701   0.864   5.303 -0.5054 -0.4039 -0.0224
 5643SOL    MW422340   4.695   0.800   5.244 -0.5380 -0.3074 -0.2417
 5644SOL     OW22341   1.872   5.142   4.373 -0.7059 -0.0966  0.0765
 5644SOL    HW222342   1.966   5.155   4.386 -0.8322 -0.0988  1.0884
 5644SOL    HW322343   1.850   5.069   4.431 -1.2783 -0.2772 -0.3662
 5644SOL    MW422344   1.882   5.134   4.383 -0.3070 -0.1641 -0.1913
 5645SOL     OW22345   4.702   6.036   2.089 -0.1783  0.1046  0.3734
 5645SOL    HW222346   4.666   6.097   2.025 -1.9848 -1.5329 -0.2821
 5645SOL    HW322347   4.738   5.964   2.036 -0.8800 -0.8374  1.1324
 5645SOL    MW422348   4.702   6.034   2.073 -0.2009 -0.1375 -0.7775
 5646SOL     OW22349   1.548   3.456   2.746 -0.0505 -0.0754  0.2465
 5646SOL    HW222350   1.549   3.547   2.717  2.5179  0.6097  2.1975
 5646SOL    HW322351   1.602   3.410   2.682  0.0790  0.1145  0.2181
 5646SOL    MW422352   1.555   3.462   2.734  0.4285 -0.3209 -0.3683
 5647SOL     OW22353   5.859   1.717   3.237  0.3391  0.7623 -0.0930
 5647SOL    HW222354   5.954   1.723   3.236  0.7111 -2.7951  0.5744
 5647SOL    HW322355   5.836   1.706   3.329 -0.5725  0.2308 -0.3729
 5647SOL    MW422356   5.868   1.716   3.249 -0.1462 -0.3026  0.6593
 5648SOL     OW22357   0.111   1.765   1.955  0.2028  0.4495  0.9299
 5648SOL    HW222358   0.182   1.793   2.013 -0.3204 -0.2778  1.9416
 5648SOL    HW322359   0.145   1.687   1.911 -0.3375 -0.5917  2.2686
 5648SOL    MW422360   0.125   1.758   1.957 -0.0164 -0.0664 -0.0787
 5649SOL     OW22361   5.184   4.305   1.740  0.2447  0.3219 -0.4391
 5649SOL    HW222362   5.237   4.336   1.813  0.6243 -1.2655  0.0030
 5649SOL    HW322363   5.108   4.264   1.781 -1.1029  2.1018 -1.0537
 5649SOL    MW422364   5.181   4.304   1.755  0.2634 -0.0242 -0.4340
 5650SOL     OW22365   2.821   2.187   0.476  0.6422  0.0404  0.6316
 5650SOL    HW222366   2.739   2.196   0.427  0.7323  2.0945  0.7395
 5650SOL    HW322367   2.807   2.113   0.534 -1.4874  0.8256  1.2231
 5650SOL    MW422368   2.808   2.179   0.477 -0.2205 -0.0429  0.0730
 5651SOL     OW22369   3.052   4.175   1.473 -0.2275  0.4270 -0.2747
 5651SOL    HW222370   3.114   4.143   1.538 -0.2397  0.8204 -0.0670
 5651SOL    HW322371   3.034   4.099   1.418 -1.5962 -0.4195  1.2586
 5651SOL    MW422372   3.058   4.161   1.475  0.1062 -0.2936  0.6137
 5652SOL     OW22373   3.280   1.335   5.458  0.5625 -0.4644 -0.6677
 5652SOL    HW222374   3.306   1.410   5.512  1.9950 -2.5238  1.7647
 5652SOL    HW322375   3.185   1.331   5.467  0.4900  0.8250 -0.5580
 5652SOL    MW422376   3.271   1.345   5.466 -0.2224 -0.3335  0.1502
 5653SOL     OW22377   3.634   0.877   4.807  0.2239 -0.3792  0.6016
 5653SOL    HW222378   3.637   0.823   4.728  0.4736 -0.3277  0.5742
 5653SOL    HW322379   3.693   0.950   4.788 -2.1257  1.3799 -0.4291
 5653SOL    MW422380   3.642   0.879   4.794 -0.2142  0.1467  0.1161
 5654SOL     OW22381   3.654   1.663   2.922  0.1724 -0.0345  0.4332
 5654SOL    HW222382   3.610   1.663   2.836  0.9693 -0.4866  0.0137
 5654SOL    HW322383   3.583   1.654   2.985 -0.5156  1.1671 -0.1233
 5654SOL    MW422384   3.639   1.662   2.919  0.4539 -0.4065  0.5243
 5655SOL     OW22385   1.553   1.285   2.779  0.4148  0.4841  0.1864
 5655SOL    HW222386   1.506   1.369   2.785 -1.4846 -0.5910  1.8166
 5655SOL    HW322387   1.633   1.305   2.730 -0.0366  3.2020  0.4134
 5655SOL    MW422388   1.557   1.299   2.773 -0.2545  0.0263 -0.1224
 5656SOL     OW22389   4.764   5.518   3.052  0.0310  0.1674  0.1333
 5656SOL    HW222390   4.709   5.522   2.974 -1.4619  0.5663  1.1717
 5656SOL    HW322391   4.757   5.427   3.081  0.1805  0.1467  0.1103
 5656SOL    MW422392   4.756   5.506   3.045 -0.2747 -0.0310  0.4373
 5657SOL     OW22393   0.185   1.804   0.503 -0.0072 -0.2926  0.5795
 5657SOL    HW222394   0.251   1.873   0.503 -1.1178  0.8191  0.0892
 5657SOL    HW322395   0.103   1.850   0.520 -1.2527 -0.9345 -2.8050
 5657SOL    MW422396   0.183   1.819   0.505  0.6527  0.1316  0.0099
 5658SOL     OW22397   5.569   2.380   5.030  0.6195 -0.3356 -0.4880
 5658SOL    HW222398   5.513   2.305   5.006  0.1056 -0.6410  1.4719
 5658SOL    HW322399   5.509   2.454   5.034  0.3406 -0.6273  1.4411
 5658SOL    MW422400   5.553   2.380   5.027 -0.4463 -0.4195  0.0392
 5659SOL     OW22401   0.127   4.760   0.236  0.0367 -0.4122 -0.2910
 5659SOL    HW222402   0.153   4.822   0.305  1.3284  0.4094 -1.4536
 5659SOL    HW322403   0.066   4.810   0.181 -0.6645 -0.9249  0.0070
 5659SOL    MW422404   0.122   4.775   0.238  0.2336 -0.3839 -0.4485
 5660SOL     OW22405   3.491   6.094   2.603  0.4596  0.3804 -0.1278
 5660SOL    HW222406   3.472   6.075   2.695  1.4530  0.6520  0.1422
 5660SOL    HW322407   3.451   6.179   2.587 -4.6462 -1.9056 -1.5365
 5660SOL    MW422408   3.483   6.103   2.613  0.9418 -0.0087 -0.1303
 5661SOL     OW22409   4.330   6.316   6.370 -0.0790  0.1659 -0.0748
 5661SOL    HW222410   4.323   6.267   6.288  0.9539 -0.0094 -0.0780
 5661SOL    HW322411   4.290   6.401   6.351  0.0694  0.0941 -0.7441
 5661SOL    MW422412   4.324   6.321   6.357 -0.6398 -0.0369 -0.2669
 5662SOL     OW22413   0.296   6.040   2.676  0.3395 -0.3669 -0.0732
 5662SOL    HW222414   0.283   5.973   2.609 -0.3892 -0.1434 -0.1614
 5662SOL    HW322415   0.218   6.035   2.731  0.6160 -0.0858  0.3532
 5662SOL    MW422416   0.284   6.031   2.674 -0.2923  0.3129 -0.1996
 5663SOL     OW22417   6.363   4.868   6.278  0.1198 -0.5235 -0.4656
 5663SOL    HW222418   6.403   4.901   6.359 -1.1211 -1.1022  0.4205
 5663SOL    HW322419   6.429   4.811   6.240  0.2443 -1.3208  0.8689
 5663SOL    MW422420   6.377   4.865   6.284  0.0530  0.2873  0.1125
 5664SOL     OW22421   6.040   4.158   1.678 -0.5187 -0.5950  0.1057
 5664SOL    HW222422   6.128   4.188   1.700  0.1368 -2.9665  1.0603
 5664SOL    HW322423   5.991   4.165   1.760 -0.8548 -0.4462 -0.1071
 5664SOL    MW422424   6.045   4.163   1.692 -0.1465  0.4123 -0.5462
 5665SOL     OW22425   6.126   2.708   0.054 -0.0330 -0.0914  0.5861
 5665SOL    HW222426   6.036   2.698   0.025  0.3291 -3.2835  0.2090
 5665SOL    HW322427   6.124   2.781   0.116 -2.6602  0.4782 -0.0811
 5665SOL    MW422428   6.114   2.716   0.059  0.4563 -0.2930 -0.3924
 5666SOL     OW22429   3.038   1.704   3.159  0.0105  0.1512 -0.1423
 5666SOL    HW222430   2.984   1.709   3.238  0.0758  0.6912 -0.1269
 5666SOL    HW322431   3.104   1.638   3.179  0.5943  0.9510  0.6131
 5666SOL    MW422432   3.039   1.696   3.172  0.3561 -0.2748  0.4059
 5667SOL     OW22433   4.483   1.056   2.791 -0.2140 -0.6565  0.3416
 5667SOL    HW222434   4.394   1.022   2.789 -0.9873  1.1423  1.6707
 5667SOL    HW322435   4.487   1.118   2.719  0.0713 -0.9099  0.1325
 5667SOL    MW422436   4.472   1.059   2.781 -0.6187  0.4703  0.0490
 5668SOL     OW22437   2.409   4.642   5.928  0.3826  0.6303  0.8232
 5668SOL    HW222438   2.457   4.582   5.871  0.5118  1.0754  0.4518
 5668SOL    HW322439   2.380   4.712   5.869 -1.9471 -0.3161  0.7600
 5668SOL    MW422440   2.412   4.643   5.913  0.1011  0.0094  0.2716
 5669SOL     OW22441   4.022   3.609   2.615  0.1069  0.4531  0.0962
 5669SOL    HW222442   3.983   3.550   2.551 -1.0147  1.0247  0.2264
 5669SOL    HW322443   4.032   3.556   2.694  0.7360 -0.0274 -0.2966
 5669SOL    MW422444   4.019   3.595   2.617 -0.4619 -0.0466 -0.7992
 5670SOL     OW22445   1.005   1.065   3.120 -0.2114 -0.0606  0.2093
 5670SOL    HW222446   1.029   1.154   3.091 -1.6505 -0.2060 -1.6121
 5670SOL    HW322447   0.930   1.078   3.177 -0.6376 -0.1214 -0.3337
 5670SOL    MW422448   0.999   1.079   3.124 -0.0294  0.1653  0.5887
 5671SOL     OW22449   0.829   0.843   3.540  0.2692 -0.1139 -0.2593
 5671SOL    HW222450   0.806   0.779   3.473  1.3940  0.0352 -0.8060
 5671SOL    HW322451   0.827   0.794   3.622 -1.3853 -0.2348 -0.3248
 5671SOL    MW422452   0.826   0.828   3.542  0.0866 -0.0102  0.4576
 5672SOL     OW22453   3.202   3.132   3.030  0.5281 -0.0063 -0.2378
 5672SOL    HW222454   3.159   3.216   3.013  1.6065  0.0907 -3.0315
 5672SOL    HW322455   3.160   3.099   3.109 -3.1779  1.0172 -1.5788
 5672SOL    MW422456   3.191   3.139   3.038 -0.0317 -0.4795  0.1527
 5673SOL     OW22457   1.162   5.025   1.320  0.5645 -0.4917 -0.0877
 5673SOL    HW222458   1.124   5.087   1.257  0.7791 -0.2637  0.0030
 5673SOL    HW322459   1.256   5.038   1.312  0.5703  0.3892  1.1109
 5673SOL    MW422460   1.169   5.035   1.310 -0.1683 -0.2968  0.4038
 5674SOL     OW22461   4.964   5.232   6.026 -0.0454  0.3543  0.1530
 5674SOL    HW222462   5.055   5.236   6.058  0.1513  0.5576 -0.4245
 5674SOL    HW322463   4.971   5.243   5.932 -0.6379 -0.1110  0.0487
 5674SOL    MW422464   4.977   5.234   6.018 -0.8919  0.2449  0.3235
 5675SOL     OW22465   3.001   4.682   2.078  0.5636  0.8131  0.0086
 5675SOL    HW222466   2.946   4.760   2.083  0.2620  0.7704 -1.8563
 5675SOL    HW322467   3.091   4.716   2.085  0.3996  1.1295  0.7493
 5675SOL    MW422468   3.006   4.697   2.080 -0.9477 -0.3839 -0.1188
 5676SOL     OW22469   2.553   2.326   3.299 -0.0698  0.5502  0.7263
 5676SOL    HW222470   2.499   2.247   3.305 -0.4060  0.7449  0.2624
 5676SOL    HW322471   2.637   2.296   3.263 -0.4420  0.5188 -0.1218
 5676SOL    MW422472   2.557   2.312   3.295  0.8424  0.5561 -0.3107
 5677SOL     OW22473   1.427   2.355   3.130  0.3228  0.1395  0.3806
 5677SOL    HW222474   1.505   2.354   3.187  0.7328 -0.3082 -0.1796
 5677SOL    HW322475   1.367   2.294   3.172  0.8034 -0.5418  0.0936
 5677SOL    MW422476   1.430   2.347   3.143 -0.7446 -0.0518 -0.0429
 5678SOL     OW22477   4.741   3.727   1.241 -0.1559 -0.0471  0.2926
 5678SOL    HW222478   4.687   3.682   1.306 -0.5419  1.3621  0.9840
 5678SOL    HW322479   4.769   3.657   1.181  0.0494 -1.3402  1.8314
 5678SOL    MW422480   4.737   3.712   1.242 -0.0125  0.6639 -0.3057
 5679SOL     OW22481   3.512   5.440   5.905 -0.4286  0.0411  0.4857
 5679SOL    HW222482   3.447   5.428   5.974 -0.9764  1.4701  0.2499
 5679SOL    HW322483   3.573   5.505   5.941  0.0301 -0.1927  0.1337
 5679SOL    MW422484   3.512   5.447   5.919  0.2781 -0.0751 -0.1085
 5680SOL     OW22485   5.573   4.546   4.391 -0.8719 -0.5958  0.2671
 5680SOL    HW222486   5.659   4.513   4.416 -0.1135  0.3165 -1.0014
 5680SOL    HW322487   5.573   4.637   4.420 -0.2550  0.2703 -2.2419
 5680SOL    MW422488   5.584   4.554   4.398 -0.1735 -0.2450 -0.5967
 5681SOL     OW22489   1.722   2.259   5.288 -0.4826 -0.0133  0.2998
 5681SOL    HW222490   1.668   2.337   5.299  0.2143  0.5853 -0.4349
 5681SOL    HW322491   1.686   2.215   5.211  0.3201  0.6149 -0.4542
 5681SOL    MW422492   1.710   2.263   5.280  0.3933  0.2344  0.2252
 5682SOL     OW22493   0.782   1.641   1.515  0.1203 -0.1159 -0.7618
 5682SOL    HW222494   0.760   1.691   1.593 -1.5665 -0.8419 -0.7284
 5682SOL    HW322495   0.816   1.705   1.453 -2.0187  1.1280 -0.7391
 5682SOL    MW422496   0.784   1.656   1.517  0.4900  0.0538 -0.2039
 5683SOL     OW22497   4.936   4.658   2.303  0.1366 -0.1569 -0.4742
 5683SOL    HW222498   4.920   4.753   2.298  1.5679  0.1092 -0.4522
 5683SOL    HW322499   4.856   4.622   2.342 -0.1324  1.1356  0.2267
 5683SOL    MW422500   4.923   4.666   2.307 -0.3114 -0.1045  0.5658
 5684SOL     OW22501   3.603   1.814   1.386  0.3699  0.0198 -0.3119
 5684SOL    HW222502   3.589   1.868   1.309  0.8591  0.8462  0.1555
 5684SOL    HW322503   3.678   1.759   1.365  1.7828  1.6374  0.2487
 5684SOL    MW422504   3.611   1.814   1.373  0.2990 -0.6613  0.0886
 5685SOL     OW22505   2.036   1.097   0.351 -0.1098 -0.0828  0.0126
 5685SOL    HW222506   2.028   1.192   0.361 -0.5636 -0.2044  0.8973
 5685SOL    HW322507   2.018   1.081   0.258  1.3797  0.8266 -0.4805
 5685SOL    MW422508   2.033   1.108   0.340  0.4540 -0.0585  0.1382
 5686SOL     OW22509   1.259   4.408   4.558  0.1545 -0.1512  0.1870
 5686SOL    HW222510   1.354   4.412   4.571  0.1113 -0.9188  0.7801
 5686SOL    HW322511   1.244   4.325   4.514 -0.4130 -0.9488  1.8042
 5686SOL    MW422512   1.269   4.398   4.554  0.8333  0.1018  0.1565
 5687SOL     OW22513   1.108   1.632   5.030  0.7256 -0.1186  0.1539
 5687SOL    HW222514   1.033   1.594   4.985  0.9551  0.4723 -0.7591
 5687SOL    HW322515   1.072   1.669   5.110 -0.2685  1.4824 -0.9605
 5687SOL    MW422516   1.093   1.632   5.034  0.0972 -0.2262 -0.2179
 5688SOL     OW22517   6.109   2.368   2.294 -0.0026 -0.0631  0.7510
 5688SOL    HW222518   6.201   2.364   2.318 -0.4714 -1.6514  2.5172
 5688SOL    HW322519   6.087   2.461   2.299  1.8251  0.5387 -1.2223
 5688SOL    MW422520   6.118   2.380   2.298 -0.2131 -0.2441  0.0121
 5689SOL     OW22521   5.251   4.234   1.346 -0.3114  0.4584 -0.1270
 5689SOL    HW222522   5.263   4.266   1.256 -0.0235  1.3814  0.2222
 5689SOL    HW322523   5.201   4.153   1.336 -1.1996  1.0823 -1.0669
 5689SOL    MW422524   5.246   4.228   1.333 -0.3342 -0.5094 -0.6413
 5690SOL     OW22525   1.711   5.958   3.767  0.0616 -0.3023 -0.4004
 5690SOL    HW222526   1.667   5.967   3.682 -1.2606 -0.1917  0.2692
 5690SOL    HW322527   1.766   5.880   3.757  0.6030  0.2183 -1.6349
 5690SOL    MW422528   1.712   5.949   3.754 -0.1388 -0.6311 -0.3639
 5691SOL     OW22529   3.497   5.493   0.181  0.4376 -0.8884 -0.4795
 5691SOL    HW222530   3.551   5.505   0.103 -1.7306 -2.3014 -2.3230
 5691SOL    HW322531   3.549   5.437   0.238  1.4426 -1.1640 -1.6228
 5691SOL    MW422532   3.511   5.487   0.178 -0.4695  0.4937  0.1240
 5692SOL     OW22533   4.087   2.953   5.771  0.0842 -0.7537 -0.2458
 5692SOL    HW222534   4.095   3.039   5.729 -0.3010  0.2845  1.7103
 5692SOL    HW322535   4.114   2.891   5.703 -0.4640  0.8301 -1.9996
 5692SOL    MW422536   4.091   2.956   5.756 -0.3047 -0.0087 -0.0594
 5693SOL     OW22537   0.641   1.822   2.717 -0.0486 -0.1199 -0.0059
 5693SOL    HW222538   0.667   1.876   2.792  1.5633 -0.8394  0.0112
 5693SOL    HW322539   0.617   1.738   2.756  0.9218 -0.5397 -0.2784
 5693SOL    MW422540   0.641   1.818   2.732 -0.0072 -0.5990  0.1987
 5694SOL     OW22541   3.705   0.401   3.981  0.5557 -0.0211  0.0631
 5694SOL    HW222542   3.717   0.477   4.038 -0.1748  0.6102 -0.6096
 5694SOL    HW322543   3.625   0.420   3.932  0.9190 -0.7674 -0.8371
 5694SOL    MW422544   3.696   0.414   3.982  0.6983 -0.0061  0.2030
 5695SOL     OW22545   1.915   5.982   5.007  0.1670 -0.1499 -0.5904
 5695SOL    HW222546   1.887   5.918   5.072  0.8118  0.2169  0.0742
 5695SOL    HW322547   2.010   5.972   5.003  0.1768  0.1249 -1.1727
 5695SOL    MW422548   1.924   5.972   5.015 -0.0509 -0.2958 -0.3171
 5696SOL     OW22549   1.627   2.797   5.310 -0.0571  0.0860  0.6536
 5696SOL    HW222550   1.678   2.746   5.372  0.8479 -0.9510 -0.8678
 5696SOL    HW322551   1.657   2.767   5.224 -1.4693  1.2404 -0.2955
 5696SOL    MW422552   1.638   2.786   5.306 -0.2467  0.3166 -0.0671
 5697SOL     OW22553   3.778   1.331   0.221  0.0194  0.3036  0.0131
 5697SOL    HW222554   3.730   1.266   0.171  1.0825 -0.8427  0.4217
 5697SOL    HW322555   3.865   1.332   0.181  0.8329 -0.5034  1.6703
 5697SOL    MW422556   3.783   1.323   0.209 -0.3514  0.2568 -0.0455
 5698SOL     OW22557   0.894   3.175   6.042 -0.5302 -0.3883  0.2307
 5698SOL    HW222558   0.987   3.196   6.054 -0.4156  0.0927 -1.3833
 5698SOL    HW322559   0.893   3.106   5.976 -1.3392 -0.1561 -0.0120
 5698SOL    MW422560   0.906   3.169   6.035  0.0490 -0.0289  0.3125
 5699SOL     OW22561   0.415   1.352   2.640 -0.0177  0.5969 -0.4359
 5699SOL    HW222562   0.392   1.264   2.613  0.3153  0.3180  0.1723
 5699SOL    HW322563   0.341   1.406   2.611 -0.3570  0.0776 -0.5534
 5699SOL    MW422564   0.402   1.348   2.633 -0.8920 -0.0044  0.0028
 5700SOL     OW22565   1.884   2.637   3.786 -0.2758  0.2129  0.2912
 5700SOL    HW222566   1.874   2.702   3.716  1.0305  0.9245  0.7302
 5700SOL    HW322567   1.850   2.681   3.864 -1.0461 -0.3071  0.2576
 5700SOL    MW422568   1.878   2.652   3.787 -0.3715 -0.2795 -0.7697
 5701SOL     OW22569   4.268   4.590   3.469 -0.2575 -0.0167 -0.1995
 5701SOL    HW222570   4.174   4.572   3.467 -0.2845  0.1890 -0.7750
 5701SOL    HW322571   4.286   4.635   3.387  0.3185  0.0844 -0.0217
 5701SOL    MW422572   4.258   4.594   3.458 -0.8972 -0.1685 -0.1008
 5702SOL     OW22573   4.669   5.410   1.858  0.4478  0.3617 -0.0451
 5702SOL    HW222574   4.677   5.386   1.951 -0.4577  3.8854  1.0889
 5702SOL    HW322575   4.579   5.387   1.835  0.1928  0.8533  0.4318
 5702SOL    MW422576   4.658   5.404   1.868  0.0491 -0.0538  0.1468
 5703SOL     OW22577   2.721   5.024   3.138  0.2588  0.0644  0.0607
 5703SOL    HW222578   2.654   5.032   3.070 -0.3493 -0.6178  0.5575
 5703SOL    HW322579   2.783   4.959   3.103  1.0194  1.1350 -0.6596
 5703SOL    MW422580   2.720   5.016   3.124 -0.3439 -0.4066 -0.1502
 5704SOL     OW22581   2.170   2.376   3.515 -0.0140 -0.2167 -0.1824
 5704SOL    HW222582   2.234   2.428   3.467  1.8402 -1.7170  0.5248
 5704SOL    HW322583   2.090   2.429   3.515  1.3953  2.0288 -0.5628
 5704SOL    MW422584   2.168   2.390   3.509  0.0006  0.0740  0.0379
 5705SOL     OW22585   0.303   4.930   4.652 -0.3041  0.1311 -0.4206
 5705SOL    HW222586   0.319   4.839   4.626 -0.7307  0.4803 -2.0414
 5705SOL    HW322587   0.207   4.939   4.651 -0.3443  0.2163  1.2291
 5705SOL    MW422588   0.292   4.919   4.648  0.5083  0.3395  0.0716
 5706SOL     OW22589   0.286   5.879   1.234 -0.2332 -0.4829  0.2463
 5706SOL    HW222590   0.264   5.791   1.264 -0.3720  0.2105  2.3067
 5706SOL    HW322591   0.238   5.937   1.292  1.5110  0.9721  0.3214
 5706SOL    MW422592   0.277   5.875   1.245 -0.0337  0.0633 -0.4350
 5707SOL     OW22593   6.379   1.532   0.297 -0.2723 -0.3449 -0.4780
 5707SOL    HW222594   6.455   1.474   0.299  1.6648  2.0141 -0.5433
 5707SOL    HW322595   6.356   1.546   0.389  0.4505  0.1981 -0.3694
 5707SOL    MW422596   6.386   1.526   0.309  0.4656 -0.7774 -0.2689
 5708SOL     OW22597   3.945   3.967   3.742 -1.1681 -0.1125 -0.0565
 5708SOL    HW222598   3.899   4.017   3.674 -0.1802 -0.1829 -0.7971
 5708SOL    HW322599   4.004   3.909   3.694 -0.7484 -0.4699  0.8575
 5708SOL    MW422600   3.947   3.966   3.727 -0.4678 -0.1411 -0.2515
 5709SOL     OW22601   0.132   3.839   5.123  0.1700  0.6589 -0.2795
 5709SOL    HW222602   0.112   3.920   5.170  0.6214 -0.0435  1.1689
 5709SOL    HW322603   0.093   3.770   5.176 -0.9950 -0.0376 -1.9588
 5709SOL    MW422604   0.124   3.840   5.136 -0.1052  0.2543 -0.3924
 5710SOL     OW22605   0.124   0.976   6.288 -0.2961  0.1332  0.0947
 5710SOL    HW222606   0.147   0.998   6.378 -1.5028  1.0383  0.1926
 5710SOL    HW322607   0.100   0.884   6.291 -2.2860  0.6360  1.1190
 5710SOL    MW422608   0.124   0.967   6.300 -0.4220 -0.9849  0.1280
 5711SOL     OW22609   1.992   2.013   2.065  0.6375 -0.5174 -0.6090
 5711SOL    HW222610   2.076   1.970   2.049  0.9848  0.0765 -0.4104
 5711SOL    HW322611   2.003   2.101   2.031  0.2228 -0.3154 -0.2299
 5711SOL    MW422612   2.004   2.019   2.059  0.1703  0.1494  0.1866
 5712SOL     OW22613   0.527   2.865   5.913  0.4105 -1.0358  0.6817
 5712SOL    HW222614   0.542   2.960   5.906  0.1673 -1.0511 -0.1455
 5712SOL    HW322615   0.612   2.829   5.936  0.6252 -0.6611  0.4886
 5712SOL    MW422616   0.540   2.873   5.915  0.1244 -0.2137 -0.2344
 5713SOL     OW22617   1.378   0.699   2.601 -0.3441 -0.2935 -0.6267
 5713SOL    HW222618   1.466   0.696   2.639 -0.6745 -3.9551  0.1971
 5713SOL    HW322619   1.392   0.697   2.507  0.5662 -2.8449 -0.5118
 5713SOL    MW422620   1.391   0.699   2.594 -0.3109  0.8490 -0.4880
 5714SOL     OW22621   5.592   0.120   2.303 -0.5454 -0.0512  0.0892
 5714SOL    HW222622   5.523   0.083   2.249  0.6420 -1.2531 -0.6715
 5714SOL    HW322623   5.643   0.044   2.332  0.9699  0.8388 -0.1094
 5714SOL    MW422624   5.590   0.105   2.300  0.4527 -0.1264 -0.5091
 5715SOL     OW22625   6.024   4.456   5.854 -0.2410 -0.0867 -0.4091
 5715SOL    HW222626   6.105   4.411   5.828  0.6860  0.9896  0.4825
 5715SOL    HW322627   6.019   4.444   5.949 -1.1732 -0.1902 -0.4632
 5715SOL    MW422628   6.034   4.449   5.863  0.4486 -0.2539 -0.4844
 5716SOL     OW22629   4.492   5.710   4.198  0.0961  0.1389  0.2694
 5716SOL    HW222630   4.551   5.781   4.223 -0.3923  0.0329  1.8304
 5716SOL    HW322631   4.461   5.674   4.281 -0.3303 -1.3597 -0.4896
 5716SOL    MW422632   4.496   5.714   4.212  0.2898  0.1137 -1.0181
 5717SOL     OW22633   3.336   1.081   4.713  0.1046  0.5779  0.1676
 5717SOL    HW222634   3.282   1.124   4.646  0.9647  0.4390 -0.6324
 5717SOL    HW322635   3.426   1.105   4.690  0.4571 -0.0490  0.8721
 5717SOL    MW422636   3.340   1.090   4.701  0.3893  0.4628  0.3289
 5718SOL     OW22637   4.707   4.421   2.754  0.3259  0.2183  0.6675
 5718SOL    HW222638   4.790   4.433   2.708  0.7167  1.5160  1.6689
 5718SOL    HW322639   4.713   4.334   2.793  1.3293  0.3942  0.9331
 5718SOL    MW422640   4.719   4.411   2.753  0.2680  0.0166  0.1085
 5719SOL     OW22641   2.991   5.800   2.299  0.1995 -0.3918 -0.1477
 5719SOL    HW222642   2.899   5.814   2.320  0.4768  0.0003  0.8868
 5719SOL    HW322643   2.991   5.728   2.236 -0.7666 -0.8130  0.3108
 5719SOL    MW422644   2.979   5.793   2.294  0.2055 -0.1698  0.3258
 5720SOL     OW22645   5.656   0.468   0.880  0.0328 -0.2966 -0.2489
 5720SOL    HW222646   5.637   0.454   0.973 -0.0943 -0.6691 -0.3297
 5720SOL    HW322647   5.690   0.384   0.849  0.1493 -0.1514 -0.5208
 5720SOL    MW422648   5.658   0.456   0.888 -0.1492 -0.3361  0.0727
 5721SOL     OW22649   5.050   4.997   0.134  0.2000 -0.3726 -0.5401
 5721SOL    HW222650   4.968   4.948   0.138  0.1097 -0.2825 -1.2183
 5721SOL    HW322651   5.023   5.088   0.124  0.3773 -0.2419  0.0986
 5721SOL    MW422652   5.035   5.002   0.133 -0.4617  0.0629  0.0423
 5722SOL     OW22653   1.022   2.948   3.877 -0.1434 -0.2746 -0.0084
 5722SOL    HW222654   0.982   2.878   3.825 -0.9870 -0.0280  0.2926
 5722SOL    HW322655   1.072   2.999   3.814 -0.7494 -0.2718 -0.4983
 5722SOL    MW422656   1.023   2.945   3.862  0.5016  0.0865 -0.1951
 5723SOL     OW22657   2.590   3.854   4.693 -0.3944  0.6853 -0.2494
 5723SOL    HW222658   2.535   3.801   4.636 -0.2684 -0.6454  0.8153
 5723SOL    HW322659   2.531   3.922   4.727 -2.1420 -1.9342  2.5596
 5723SOL    MW422660   2.575   3.856   4.690 -0.0879 -0.2891  0.1109
 5724SOL     OW22661   6.269   2.454   6.394  0.2902 -0.3675 -0.3621
 5724SOL    HW222662   6.335   2.443   6.463 -1.4424 -0.8032  1.2947
 5724SOL    HW322663   6.214   2.526   6.424 -0.8052 -0.9061 -1.0134
 5724SOL    MW422664   6.271   2.462   6.407 -0.2858  0.8896  0.4342
 5725SOL     OW22665   0.113   1.376   0.010 -0.4986  0.4652 -0.1854
 5725SOL    HW222666   0.201   1.385  -0.026 -1.2413 -0.1885 -2.3239
 5725SOL    HW322667   0.084   1.466   0.025  0.1962  0.7188 -0.3227
 5725SOL    MW422668   0.121   1.389   0.007 -0.3246  0.5462  0.0788
 5726SOL     OW22669   0.755   3.247   5.760  0.3639  0.2506  0.4918
 5726SOL    HW222670   0.776   3.178   5.696  0.0553  0.0497  0.6005
 5726SOL    HW322671   0.692   3.205   5.819 -1.1344  1.1244 -0.4195
 5726SOL    MW422672   0.749   3.232   5.759 -0.3745  0.1764  0.6071
 5727SOL     OW22673   6.102   1.886   1.012  0.1117 -0.2010  0.4828
 5727SOL    HW222674   6.061   1.830   0.947  0.4737 -2.8838  2.3621
 5727SOL    HW322675   6.030   1.915   1.068  0.3209 -2.5210  2.0748
 5727SOL    MW422676   6.087   1.882   1.011  0.1417  0.2405 -0.0440
 5728SOL     OW22677   3.156   5.050   3.382 -0.4999 -0.3960  0.4278
 5728SOL    HW222678   3.248   5.040   3.359 -0.7599 -1.2066 -0.2730
 5728SOL    HW322679   3.156   5.116   3.452  0.4465  0.9861 -0.7992
 5728SOL    MW422680   3.168   5.058   3.388 -0.4698  0.4546 -0.0251
 5729SOL     OW22681   1.745   5.290   2.594  0.4025  0.2632  0.3885
 5729SOL    HW222682   1.730   5.292   2.688  0.3849  1.7755  0.3778
 5729SOL    HW322683   1.689   5.219   2.562  0.3192 -0.1863  1.4831
 5729SOL    MW422684   1.736   5.280   2.602 -0.1771 -0.2276 -0.3194
 5730SOL     OW22685   1.692   3.074   0.867 -0.0218 -0.3983 -0.0743
 5730SOL    HW222686   1.645   3.155   0.886  0.2500 -0.1748 -0.3333
 5730SOL    HW322687   1.726   3.086   0.778  1.2658 -0.1912  0.4196
 5730SOL    MW422688   1.691   3.086   0.857  0.2037 -0.2426  0.2532
 5731SOL     OW22689   1.872   6.294   2.474  0.2027 -0.0768  0.3689
 5731SOL    HW222690   1.808   6.320   2.540  0.0649 -1.4065  0.7824
 5731SOL    HW322691   1.831   6.316   2.390 -1.6000 -2.4788  0.5256
 5731SOL    MW422692   1.858   6.300   2.472  0.1792  0.1671  0.0463
 5732SOL     OW22693   6.021   5.806   0.177  0.5237  0.2475  0.2877
 5732SOL    HW222694   5.969   5.855   0.114  0.0539 -1.2264 -0.5292
 5732SOL    HW322695   6.034   5.866   0.250 -0.7978  1.2548 -0.2705
 5732SOL    MW422696   6.016   5.820   0.179 -0.9654  0.1186  0.4070
 5733SOL     OW22697   1.875   3.747   0.691  0.8158 -0.1653 -0.1435
 5733SOL    HW222698   1.952   3.803   0.702 -0.3812  1.4667  0.3661
 5733SOL    HW322699   1.878   3.720   0.600  2.6727 -1.2295  0.1832
 5733SOL    MW422700   1.886   3.751   0.681  0.1642  0.1690  0.1777
 5734SOL     OW22701   2.011   0.424   3.274 -0.4458  0.0979  0.1446
 5734SOL    HW222702   2.065   0.502   3.287 -0.3623 -0.0291  0.6026
 5734SOL    HW322703   1.959   0.417   3.354 -1.8146  0.7230 -0.6513
 5734SOL    MW422704   2.011   0.433   3.286  0.1740 -0.5734  0.4600
 5735SOL     OW22705   3.070   3.024   0.017  0.3290  0.4492 -0.7813
 5735SOL    HW222706   3.113   3.110   0.011  3.4253 -0.9897 -1.2921
 5735SOL    HW322707   3.015   3.020  -0.061 -0.5773  2.2471 -0.3045
 5735SOL    MW422708   3.068   3.035   0.006 -0.1534 -0.2658 -0.1745
 5736SOL     OW22709   2.705   5.318   4.736  0.2636  0.4747 -0.0291
 5736SOL    HW222710   2.760   5.329   4.813  0.1165  0.8123  0.0298
 5736SOL    HW322711   2.623   5.362   4.759  0.1054  0.3052 -0.2607
 5736SOL    MW422712   2.701   5.325   4.749 -0.2222 -0.2072  0.6460
 5737SOL     OW22713   2.041   5.929   0.740  0.2098 -0.4659 -0.1257
 5737SOL    HW222714   1.946   5.930   0.749  0.2618 -0.2814  0.3992
 5737SOL    HW322715   2.070   6.014   0.773  0.3583  0.5695 -2.6952
 5737SOL    MW422716   2.032   5.940   0.745  0.1099  0.3079  0.4872
 5738SOL     OW22717   2.218   0.573   4.458 -0.4665  0.5578 -0.2947
 5738SOL    HW222718   2.232   0.661   4.495  1.0960  1.4164 -2.6348
 5738SOL    HW322719   2.132   0.578   4.417 -1.4663  0.1314  1.6080
 5738SOL    MW422720   2.209   0.585   4.458  0.1021  0.4312 -0.2315
 5739SOL     OW22721   5.533   5.362   5.045 -0.1172 -0.0792  0.2646
 5739SOL    HW222722   5.611   5.308   5.058  0.3015  0.4526 -0.0236
 5739SOL    HW322723   5.480   5.313   4.982  0.7606  0.3539 -0.8388
 5739SOL    MW422724   5.537   5.348   5.039 -0.3374  0.2455  0.3140
 5740SOL     OW22725   1.556   3.703   2.601  0.3359  0.0619  0.4140
 5740SOL    HW222726   1.646   3.725   2.626  1.2869 -0.2003 -2.4262
 5740SOL    HW322727   1.510   3.787   2.602  1.9865  1.1790 -2.8972
 5740SOL    MW422728   1.562   3.717   2.605  0.7024  0.6769  0.1366
 5741SOL     OW22729   1.831   2.620   2.517 -0.6139 -0.0695  0.5433
 5741SOL    HW222730   1.844   2.529   2.544 -1.3115 -0.4982 -0.5003
 5741SOL    HW322731   1.748   2.646   2.556 -0.7043 -0.0726  0.3538
 5741SOL    MW422732   1.822   2.612   2.526  0.7092  0.2419 -0.0481
 5742SOL     OW22733   0.373   1.007   2.367  0.0978  0.5954 -0.8309
 5742SOL    HW222734   0.367   0.927   2.314  0.4995 -0.5327  0.7502
 5742SOL    HW322735   0.455   1.048   2.339 -0.8262  1.2597 -2.6855
 5742SOL    MW422736   0.383   1.002   2.356  0.4011  0.1197 -0.2400
 5743SOL     OW22737   4.988   3.779   1.354 -0.2977  0.4456  0.2978
 5743SOL    HW222738   4.898   3.781   1.321 -1.0986  0.4131  2.3421
 5743SOL    HW322739   5.010   3.686   1.357 -0.8939  0.3292  1.5073
 5743SOL    MW422740   4.979   3.767   1.350 -0.1639 -0.6912 -0.1345
 5744SOL     OW22741   0.252   3.279   0.906 -0.0368  0.3006  0.0154
 5744SOL    HW222742   0.231   3.210   0.969 -0.0250  0.1053 -0.1928
 5744SOL    HW322743   0.171   3.295   0.859  0.6148 -1.5587 -1.8644
 5744SOL    MW422744   0.239   3.272   0.908 -0.1492  0.4559 -0.3446
 5745SOL     OW22745   0.045   4.469   6.342  0.2247 -0.1013 -0.7934
 5745SOL    HW222746  -0.045   4.501   6.347 -0.1614 -1.3299  2.1981
 5745SOL    HW322747   0.038   4.386   6.296  0.4066  1.2394 -3.4494
 5745SOL    MW422748   0.032   4.462   6.336 -0.1567 -1.2285 -0.1208
 5746SOL     OW22749   4.225   3.232   2.415 -0.0046  0.2167  0.1276
 5746SOL    HW222750   4.206   3.214   2.507  1.4021 -0.1844  0.3633
 5746SOL    HW322751   4.320   3.238   2.411 -0.0950  1.1533 -1.1480
 5746SOL    MW422752   4.235   3.230   2.427 -0.4074 -0.0191 -0.2990
 5747SOL     OW22753   1.313   4.054   6.301  0.2114  0.0704 -0.2751
 5747SOL    HW222754   1.281   4.129   6.351 -0.6043 -1.3878  1.5056
 5747SOL    HW322755   1.399   4.034   6.339 -0.1154 -0.6379  0.1066
 5747SOL    MW422756   1.320   4.061   6.312  0.3416  0.3736 -0.0231
 5748SOL     OW22757   2.329   2.496   3.306 -0.0398 -0.3608  0.6463
 5748SOL    HW222758   2.411   2.446   3.309 -0.1531 -0.6361 -0.3363
 5748SOL    HW322759   2.356   2.587   3.315  0.3957 -0.4366  0.1608
 5748SOL    MW422760   2.343   2.501   3.308 -0.1247 -0.0565  0.2738
 5749SOL     OW22761   5.073   1.348   0.650 -0.0774 -0.0237 -0.0664
 5749SOL    HW222762   5.073   1.428   0.703 -2.2423  0.3582 -0.5780
 5749SOL    HW322763   4.999   1.358   0.591  0.1309 -2.0522 -0.7304
 5749SOL    MW422764   5.063   1.360   0.649 -0.5304  0.4049  0.1772
 5750SOL     OW22765   5.383   0.709   0.651 -0.0407  0.4348  0.2061
 5750SOL    HW222766   5.388   0.622   0.611 -2.2375  0.0457  0.6369
 5750SOL    HW322767   5.423   0.768   0.586  1.3280 -0.8391 -0.1584
 5750SOL    MW422768   5.389   0.705   0.637  0.7163  0.1272  0.1243
 5751SOL     OW22769   5.636   1.753   3.042 -0.1466  0.1058  0.0376
 5751SOL    HW222770   5.710   1.789   3.091  0.0889 -0.8650  0.4143
 5751SOL    HW322771   5.675   1.703   2.971 -0.3886 -1.2442  0.8175
 5751SOL    MW422772   5.651   1.752   3.039  1.2486  0.2759  0.1126
 5752SOL     OW22773   1.229   1.359   3.305 -0.0992  0.3817  0.1178
 5752SOL    HW222774   1.168   1.320   3.367 -0.0260 -1.7876 -1.0747
 5752SOL    HW322775   1.297   1.293   3.293  1.8022  2.2026  0.3865
 5752SOL    MW422776   1.230   1.345   3.311 -0.0260 -0.6011 -0.1473
 5753SOL     OW22777   2.349   5.623   1.950 -0.0231 -0.0560  0.3078
 5753SOL    HW222778   2.443   5.606   1.947  0.5345  2.5768  0.2605
 5753SOL    HW322779   2.325   5.606   2.041  0.4975 -0.6848  0.3364
 5753SOL    MW422780   2.358   5.618   1.962  0.1038 -0.1833 -0.2361
 5754SOL     OW22781   2.469   0.847   3.599  0.1910  0.5535  0.3580
 5754SOL    HW222782   2.399   0.809   3.652  0.9101  0.2914  1.1448
 5754SOL    HW322783   2.540   0.783   3.605  1.0747  1.5527  0.8961
 5754SOL    MW422784   2.469   0.834   3.607  0.0574 -1.0419  0.1258
 5755SOL     OW22785   1.382   1.625   0.572  0.1183 -0.1605 -0.2752
 5755SOL    HW222786   1.291   1.609   0.598  0.4832  0.9168  1.9079
 5755SOL    HW322787   1.431   1.552   0.610  0.2945 -0.2210 -0.6123
 5755SOL    MW422788   1.376   1.613   0.580 -0.0434 -0.1250  0.0800
 5756SOL     OW22789   2.660   4.060   5.910  0.0294 -0.2850 -0.6880
 5756SOL    HW222790   2.732   4.000   5.895  0.1712  0.3152 -2.6989
 5756SOL    HW322791   2.587   4.005   5.938  1.4863 -0.7882  2.4895
 5756SOL    MW422792   2.660   4.045   5.912  0.2046  0.7455 -0.0033
 5757SOL     OW22793   3.463   2.773   5.613  0.0839 -0.8033  0.1526
 5757SOL    HW222794   3.551   2.757   5.580  0.2635 -0.3274  0.3894
 5757SOL    HW322795   3.442   2.695   5.664 -0.2086 -1.5561 -1.0784
 5757SOL    MW422796   3.472   2.761   5.615 -0.4709 -0.5467  0.4921
 5758SOL     OW22797   1.089   4.276   1.216  0.4253 -0.2462  0.4743
 5758SOL    HW222798   1.114   4.366   1.192  1.0055  0.0281  2.0054
 5758SOL    HW322799   1.010   4.287   1.269 -0.3670 -0.7822 -0.5472
 5758SOL    MW422800   1.082   4.289   1.220  0.1901  0.6802  0.4850
 5759SOL     OW22801   4.810   0.849   0.335 -0.3806  0.4627  0.0454
 5759SOL    HW222802   4.734   0.830   0.390  0.5294 -1.8117  0.6369
 5759SOL    HW322803   4.859   0.915   0.384  1.3611 -2.7908  3.1352
 5759SOL    MW422804   4.806   0.855   0.349  0.3510 -0.4478 -0.1779
 5760SOL     OW22805   2.524   3.690   3.591 -0.0732  0.1582 -0.6357
 5760SOL    HW222806   2.537   3.598   3.566  1.5841 -0.0171  0.6909
 5760SOL    HW322807   2.438   3.691   3.633 -0.2691 -0.7221 -0.9773
 5760SOL    MW422808   2.514   3.678   3.593  0.4383  0.2318  0.3692
 5761SOL     OW22809   0.150   4.434   5.953  0.1316 -1.2046 -0.4393
 5761SOL    HW222810   0.139   4.529   5.948  0.3829 -1.1947 -0.8394
 5761SOL    HW322811   0.063   4.399   5.934  0.0473 -1.0549 -0.3347
 5761SOL    MW422812   0.137   4.442   5.950 -0.0624 -0.2065 -0.1288
 5762SOL     OW22813   1.037   2.171   5.450  0.2651 -0.2419 -0.1115
 5762SOL    HW222814   1.016   2.155   5.358 -0.1184 -0.8044  0.0696
 5762SOL    HW322815   1.043   2.084   5.488 -0.3129  0.0023  0.5537
 5762SOL    MW422816   1.035   2.158   5.443  0.1440 -0.3036  0.1107
 5763SOL     OW22817   5.798   4.413   3.932  0.2813 -0.6969 -0.0588
 5763SOL    HW222818   5.818   4.490   3.986  0.6694 -1.0249  0.2802
 5763SOL    HW322819   5.878   4.360   3.937 -0.4999 -1.8445  0.9655
 5763SOL    MW422820   5.812   4.416   3.940 -0.1399 -0.0049 -0.0251
 5764SOL     OW22821   3.339   5.436   1.512 -0.8208  0.3766 -0.4224
 5764SOL    HW222822   3.287   5.443   1.592 -0.7540  0.2581 -0.3694
 5764SOL    HW322823   3.428   5.418   1.542 -0.7439  0.5996 -0.5132
 5764SOL    MW422824   3.344   5.435   1.526 -0.5525 -0.2427  0.5868
 5765SOL     OW22825   5.661   4.201   3.563 -0.5086 -0.2483  0.3772
 5765SOL    HW222826   5.649   4.107   3.572 -0.2830 -0.1462  1.9987
 5765SOL    HW322827   5.753   4.216   3.587 -0.8908  0.5166  1.4661
 5765SOL    MW422828   5.672   4.191   3.567 -0.6383 -0.0124 -0.1402
 5766SOL     OW22829   0.163   5.396   2.016 -0.1544 -0.4566  0.8879
 5766SOL    HW222830   0.211   5.478   2.006 -0.7730 -0.1559  0.2815
 5766SOL    HW322831   0.164   5.356   1.929  0.2895 -1.1807  1.2195
 5766SOL    MW422832   0.169   5.402   2.003  0.5683 -0.5153  0.1818
 5767SOL     OW22833   4.512   5.800   3.380 -0.1517  0.0372 -0.2894
 5767SOL    HW222834   4.590   5.826   3.330 -0.5096 -0.8406 -1.3455
 5767SOL    HW322835   4.518   5.850   3.461  1.1794  0.4644 -0.6228
 5767SOL    MW422836   4.523   5.810   3.384  0.1958 -0.3889  0.3987
 5768SOL     OW22837   2.650   2.000   4.287  0.4318  0.1416 -0.0042
 5768SOL    HW222838   2.684   2.084   4.258 -2.1762  0.8991 -1.0788
 5768SOL    HW322839   2.626   2.014   4.378 -1.2994  1.0615 -0.5561
 5768SOL    MW422840   2.652   2.013   4.295  0.0864  0.2452  0.0723
 5769SOL     OW22841   0.782   4.007   6.322  0.0785 -0.0746 -0.6896
 5769SOL    HW222842   0.747   4.088   6.285  0.4948  0.9558  1.0580
 5769SOL    HW322843   0.865   3.994   6.277  0.3123  0.8388 -0.5401
 5769SOL    MW422844   0.788   4.016   6.312  0.3020 -0.0532 -0.4400
 5770SOL     OW22845   2.315   1.998   2.237  0.6390 -0.0785 -0.4630
 5770SOL    HW222846   2.317   1.975   2.144  0.9063 -0.9302 -0.2576
 5770SOL    HW322847   2.297   1.915   2.282  0.8855  0.2553  0.2662
 5770SOL    MW422848   2.313   1.984   2.231  0.2636  0.4809  0.0743
 5771SOL     OW22849   1.623   2.111   2.783 -0.1483  0.3430  0.5652
 5771SOL    HW222850   1.610   2.105   2.688 -0.9153 -1.7646  0.7439
 5771SOL    HW322851   1.553   2.168   2.813 -1.8645 -1.4258  0.1496
 5771SOL    MW422852   1.612   2.118   2.774 -0.6646 -0.1592 -0.1202
 5772SOL     OW22853   3.487   1.449   3.294  0.5202 -0.1219  0.0657
 5772SOL    HW222854   3.544   1.383   3.254 -1.3980 -0.7526 -1.8448
 5772SOL    HW322855   3.519   1.533   3.259  0.8459 -0.3760 -0.2541
 5772SOL    MW422856   3.498   1.452   3.284 -0.1514  0.0077 -0.1979
 5773SOL     OW22857   4.354   2.120   4.575 -0.0118 -0.8989  0.2568
 5773SOL    HW222858   4.311   2.196   4.614  0.2494 -0.2413 -0.6962
 5773SOL    HW322859   4.285   2.054   4.571 -0.6440 -0.2372 -0.1912
 5773SOL    MW422860   4.339   2.122   4.580 -0.0072 -0.2081 -0.4758
 5774SOL     OW22861   5.187   2.283   3.484  0.6945 -0.3994 -0.1361
 5774SOL    HW222862   5.124   2.304   3.553  1.8160  0.7513  0.6064
 5774SOL    HW322863   5.223   2.368   3.458  0.1500 -0.7875 -2.3356
 5774SOL    MW422864   5.184   2.297   3.490  0.1767  0.0105  0.0668
 5775SOL     OW22865   2.766   6.380   2.165  0.5706 -0.1858  0.1773
 5775SOL    HW222866   2.776   6.285   2.157  2.2723 -0.0821  0.5967
 5775SOL    HW322867   2.748   6.410   2.075  2.5143 -0.6923 -0.4445
 5775SOL    MW422868   2.765   6.372   2.152  0.1665 -0.8523  0.2164
 5776SOL     OW22869   6.436   0.656   5.950  0.0622 -0.0687  0.0765
 5776SOL    HW222870   6.430   0.735   5.896 -0.7442  0.8979  1.5086
 5776SOL    HW322871   6.399   0.586   5.896  0.8756  0.4959 -1.2525
 5776SOL    MW422872   6.430   0.657   5.936 -0.5873  0.1501 -0.5288
 5777SOL     OW22873   2.144   0.794   4.868  0.2663 -0.4792 -0.1721
 5777SOL    HW222874   2.164   0.800   4.774 -1.3532  0.3836 -0.4872
 5777SOL    HW322875   2.101   0.709   4.877  0.3700 -0.5372 -0.2179
 5777SOL    MW422876   2.141   0.783   4.857  0.7951 -0.3852 -0.1614
 5778SOL     OW22877   5.603   5.193   5.742 -0.0535 -0.2382 -0.1298
 5778SOL    HW222878   5.513   5.225   5.750 -0.2925 -0.3641 -1.8185
 5778SOL    HW322879   5.616   5.184   5.648  2.0801  0.7250  0.0149
 5778SOL    MW422880   5.593   5.196   5.731 -0.0244 -0.1693  0.1253
 5779SOL     OW22881   1.398   1.910   0.955  0.0998  0.0905 -0.5053
 5779SOL    HW222882   1.352   1.985   0.918  1.2707  1.1969  0.2105
 5779SOL    HW322883   1.480   1.946   0.989  1.4491 -1.7810 -1.6006
 5779SOL    MW422884   1.402   1.924   0.955 -0.2987  0.3059 -0.4087
 5780SOL     OW22885   4.682   0.221   4.321 -0.0220  0.0840  0.7108
 5780SOL    HW222886   4.715   0.282   4.387 -1.8420  1.4312  0.4642
 5780SOL    HW322887   4.601   0.186   4.358  0.0096 -0.7327  0.0419
 5780SOL    MW422888   4.676   0.225   4.335  0.1851 -0.0481 -0.2906
 5781SOL     OW22889   2.048   5.101   4.842 -0.4857 -0.4665 -0.3316
 5781SOL    HW222890   2.066   5.123   4.934 -1.1936 -0.9112 -0.0776
 5781SOL    HW322891   1.998   5.176   4.809  0.9385  0.3278 -0.7637
 5781SOL    MW422892   2.043   5.114   4.850 -0.2087 -0.3267 -0.9847
 5782SOL     OW22893   2.262   0.510   2.968 -0.3444  0.0252 -0.4515
 5782SOL    HW222894   2.313   0.558   3.033  0.7125 -0.0069 -1.2375
 5782SOL    HW322895   2.307   0.526   2.885 -0.6688 -1.3283 -0.9163
 5782SOL    MW422896   2.274   0.518   2.966 -0.1677 -0.3847 -0.6463
 5783SOL     OW22897   5.357   1.040   2.566  0.4510  0.3073  0.4780
 5783SOL    HW222898   5.357   1.115   2.625 -0.3538  1.3821 -0.8206
 5783SOL    HW322899   5.351   1.078   2.479  1.6088 -1.2193 -0.3343
 5783SOL    MW422900   5.356   1.055   2.562  0.2658 -0.1307  0.3707
 5784SOL     OW22901   5.548   2.924   1.473  0.2274  0.2314 -0.7664
 5784SOL    HW222902   5.554   2.870   1.552  0.2869  1.2326 -0.0674
 5784SOL    HW322903   5.631   2.910   1.428  0.3685 -0.0122 -0.4367
 5784SOL    MW422904   5.560   2.915   1.477  0.3302 -0.0608 -0.4219
 5785SOL     OW22905   4.931   4.909   1.704 -0.3080 -0.5000  0.3053
 5785SOL    HW222906   4.896   4.953   1.781 -0.9228 -0.3591 -0.0538
 5785SOL    HW322907   4.981   4.835   1.740  1.4384  0.9196  0.9662
 5785SOL    MW422908   4.933   4.905   1.719 -0.2760 -0.6693 -0.2176
 5786SOL     OW22909   1.638   0.536   0.134  0.6110 -0.1203  0.0949
 5786SOL    HW222910   1.699   0.609   0.146  0.1114  0.3085  0.0965
 5786SOL    HW322911   1.621   0.504   0.223 -0.2014  0.6380  0.2282
 5786SOL    MW422912   1.644   0.541   0.147  0.2593  0.5950  0.2674
 5787SOL     OW22913   4.031   0.253   1.957  0.5862 -0.2229 -0.1442
 5787SOL    HW222914   3.952   0.286   1.915  0.7594 -0.2332 -0.4849
 5787SOL    HW322915   4.094   0.243   1.885  0.8268 -0.4202  0.0906
 5787SOL    MW422916   4.029   0.256   1.942 -0.2558 -0.0033 -0.3903
 5788SOL     OW22917   5.004   4.768   4.882  0.2407 -0.1921 -0.1702
 5788SOL    HW222918   5.069   4.742   4.817  0.1206 -1.0247  0.0275
 5788SOL    HW322919   5.045   4.839   4.930  0.6313 -0.0799 -0.6598
 5788SOL    MW422920   5.018   4.774   4.880  0.0481  0.0643 -0.4727
 5789SOL     OW22921   3.008   4.578   5.876  0.5164 -0.4477 -0.0297
 5789SOL    HW222922   3.097   4.570   5.911  0.7670  0.6418 -0.4079
 5789SOL    HW322923   3.014   4.544   5.787  0.6531  0.0026 -0.1959
 5789SOL    MW422924   3.021   4.572   5.869  0.3883  0.4333  0.1890
 5790SOL     OW22925   2.384   5.698   5.958  0.5906 -0.2422 -0.5274
 5790SOL    HW222926   2.424   5.772   5.912  1.2574 -0.7396 -0.7600
 5790SOL    HW322927   2.454   5.633   5.965  0.6140 -0.0541  1.5112
 5790SOL    MW422928   2.398   5.699   5.953  0.2136 -0.4594  0.3348
 5791SOL     OW22929   4.710   1.718   4.320  0.1606  0.4062 -0.0654
 5791SOL    HW222930   4.802   1.694   4.320  0.2718  0.8211  0.0474
 5791SOL    HW322931   4.667   1.650   4.372  0.5746  0.8418  0.8697
 5791SOL    MW422932   4.716   1.706   4.326  0.3650  0.2289  0.4454
 5792SOL     OW22933   3.241   4.384   4.929 -0.4668  0.4216 -0.0667
 5792SOL    HW222934   3.148   4.361   4.924 -0.1409 -0.7364 -2.4129
 5792SOL    HW322935   3.282   4.308   4.971 -0.3632  0.0981 -0.7416
 5792SOL    MW422936   3.234   4.371   4.934  0.0794  0.6307 -0.4351
 5793SOL     OW22937   0.616   5.002   3.609 -0.4710  0.4955  0.1477
 5793SOL    HW222938   0.670   5.041   3.678  1.2178  0.6175 -1.1690
 5793SOL    HW322939   0.529   5.040   3.621 -0.1541  0.7018  2.0288
 5793SOL    MW422940   0.612   5.012   3.619  0.1313 -0.2377  0.6665
 5794SOL     OW22941   0.328   3.043   4.050 -0.0806  0.3492 -0.4789
 5794SOL    HW222942   0.372   3.094   4.117 -0.0332  0.2189 -0.4096
 5794SOL    HW322943   0.279   3.107   3.998  0.2453  0.5002 -0.5976
 5794SOL    MW422944   0.327   3.058   4.052 -0.1012 -0.0752 -0.5620
 5795SOL     OW22945   4.995   4.572   2.930  0.3863  0.0614 -0.0891
 5795SOL    HW222946   5.082   4.566   2.891  1.6689 -0.2686  2.5963
 5795SOL    HW322947   4.976   4.483   2.959 -0.1577  0.4098  0.6608
 5795SOL    MW422948   5.004   4.559   2.929 -0.3599 -0.1455 -0.0431
 5796SOL     OW22949   5.110   1.079   3.880 -0.1783  0.1411  0.1630
 5796SOL    HW222950   5.147   0.994   3.903  0.9898  0.1767 -1.4813
 5796SOL    HW322951   5.018   1.060   3.861 -0.2161 -0.5394  0.9505
 5796SOL    MW422952   5.103   1.065   3.881  0.0444  0.3459  0.3269
 5797SOL     OW22953   0.443   2.936   4.827 -0.0891 -0.0587 -0.3086
 5797SOL    HW222954   0.464   2.844   4.842 -0.9407 -0.2214 -0.0484
 5797SOL    HW322955   0.527   2.977   4.808  0.1444 -1.1756 -1.9385
 5797SOL    MW422956   0.457   2.929   4.826 -0.2397  0.0690 -0.1805
 5798SOL     OW22957   6.051   2.305   3.869 -0.5115  0.3604 -0.6073
 5798SOL    HW222958   5.967   2.317   3.913  0.5552  0.4599  1.5569
 5798SOL    HW322959   6.084   2.221   3.902  0.3465  0.4423 -1.2095
 5798SOL    MW422960   6.045   2.295   3.879 -0.3142  0.0560 -0.2326
 5799SOL     OW22961   3.438   2.627   2.476 -0.3982  0.4650  0.1972
 5799SOL    HW222962   3.484   2.545   2.464 -0.4053  0.7846 -2.6320
 5799SOL    HW322963   3.507   2.691   2.495  0.1027  0.4807 -1.5158
 5799SOL    MW422964   3.453   2.625   2.477 -0.1321 -0.9285  0.1923
 5800SOL     OW22965   4.661   0.684   3.579 -0.1782 -0.5024 -0.2060
 5800SOL    HW222966   4.573   0.691   3.541 -0.2910 -2.0143 -0.2739
 5800SOL    HW322967   4.707   0.762   3.548 -1.5880  0.5095  0.1187
 5800SOL    MW422968   4.655   0.695   3.570  0.2352 -0.0840  0.2949
 5801SOL     OW22969   5.988   0.322   2.351 -0.0676  0.6985 -0.1698
 5801SOL    HW222970   5.904   0.341   2.310  0.0445  1.6164  0.0172
 5801SOL    HW322971   5.966   0.270   2.429 -0.3600 -0.0984 -0.7725
 5801SOL    MW422972   5.974   0.317   2.356  0.3519  0.6181  0.0402
 5802SOL     OW22973   1.631   4.863   3.837  0.0401 -0.2573 -0.2449
 5802SOL    HW222974   1.632   4.938   3.778 -2.3138 -1.0539 -1.3828
 5802SOL    HW322975   1.580   4.893   3.913  1.1206  0.0212  0.3942
 5802SOL    MW422976   1.625   4.877   3.839  0.3862  0.1554 -0.2030
 5803SOL     OW22977   5.644   4.895   5.722  0.0213 -0.8727  0.4111
 5803SOL    HW222978   5.617   4.815   5.768  0.3027 -0.7178  0.8576
 5803SOL    HW322979   5.600   4.965   5.770  0.4362 -0.6966  0.5391
 5803SOL    MW422980   5.635   4.894   5.735 -0.5306  0.7309 -0.5167
 5804SOL     OW22981   0.582   2.991   2.092 -0.7412 -0.2556 -0.3729
 5804SOL    HW222982   0.603   2.975   2.184 -1.8499 -2.0876 -0.3865
 5804SOL    HW322983   0.498   3.036   2.095 -0.7161 -0.2039 -0.4756
 5804SOL    MW422984   0.574   2.995   2.105 -0.0240 -0.2747 -0.2956
 5805SOL     OW22985   0.981   2.488   2.844  0.0322 -0.3091  0.9858
 5805SOL    HW222986   0.999   2.560   2.905 -1.2399  0.7081  0.2195
 5805SOL    HW322987   0.959   2.532   2.762  2.2504 -1.6601 -0.4087
 5805SOL    MW422988   0.980   2.503   2.841  0.5983  0.3211  0.3660
 5806SOL     OW22989   0.657   5.448   6.080 -0.7601  0.0869  0.1659
 5806SOL    HW222990   0.635   5.438   5.988 -0.7651 -2.3205  0.3541
 5806SOL    HW322991   0.751   5.431   6.084 -0.9477 -0.9061  0.7004
 5806SOL    MW422992   0.667   5.445   6.069 -0.6086  0.2408 -0.3316
 5807SOL     OW22993   1.539   4.913   4.893  0.2433 -0.4771  0.2500
 5807SOL    HW222994   1.616   4.956   4.933  1.8166 -0.9643 -2.0558
 5807SOL    HW322995   1.465   4.969   4.918  1.2004 -0.2371  2.9586
 5807SOL    MW422996   1.540   4.926   4.902 -0.4387 -0.9857  0.0820
 5808SOL     OW22997   1.031   5.782   1.230  0.6385 -0.0526 -0.2647
 5808SOL    HW222998   1.047   5.720   1.300  0.5457  0.3750  0.1393
 5808SOL    HW322999   1.023   5.867   1.274 -0.9298  0.0174 -0.6099
 5808SOL    MW423000   1.032   5.785   1.245  0.4532  0.1422 -0.0474
 5809SOL     OW23001   3.088   0.838   2.916 -0.2952  0.2635  0.0238
 5809SOL    HW223002   3.111   0.930   2.918 -0.0979  0.2456 -0.7746
 5809SOL    HW323003   3.140   0.798   2.985  0.6771  0.5289 -0.5380
 5809SOL    MW423004   3.098   0.844   2.925 -0.2579  0.1114 -0.5871
 5810SOL     OW23005   4.939   2.378   1.446  0.1974  0.1734  0.0572
 5810SOL    HW223006   4.988   2.296   1.456  2.6721  1.2888 -1.8883
 5810SOL    HW323007   4.969   2.414   1.363 -0.9648  2.9759  0.7423
 5810SOL    MW423008   4.950   2.372   1.436  0.2452 -0.4547  0.0068
 5811SOL     OW23009   0.783   4.512   6.031  0.4033 -0.2393  0.2777
 5811SOL    HW223010   0.732   4.462   5.966 -0.4021  0.9656 -0.0478
 5811SOL    HW323011   0.864   4.533   5.986  0.1243  0.0128 -0.1207
 5811SOL    MW423012   0.787   4.508   6.016  0.3207  0.1514 -0.3804
 5812SOL     OW23013   5.749   0.352   0.465 -0.3713  0.1704  0.2407
 5812SOL    HW223014   5.760   0.435   0.511 -0.3977 -0.6565  1.8442
 5812SOL    HW323015   5.661   0.322   0.490  1.0212 -2.1603  3.0115
 5812SOL    MW423016   5.739   0.359   0.475 -0.2620  0.4791 -0.6941
 5813SOL     OW23017   2.981   1.866   3.592 -0.3777  0.4076 -0.2400
 5813SOL    HW223018   3.038   1.887   3.667  0.9166  0.5900 -1.2437
 5813SOL    HW323019   3.010   1.925   3.523  0.0822 -1.3834 -1.6394
 5813SOL    MW423020   2.992   1.876   3.593  0.2528  0.0092  0.2750
 5814SOL     OW23021   2.821   0.127   4.127 -0.1915  0.1673  0.0776
 5814SOL    HW223022   2.849   0.152   4.040 -1.6563  2.3459  0.1654
 5814SOL    HW323023   2.830   0.207   4.180 -1.7305 -0.3907  1.2764
 5814SOL    MW423024   2.826   0.141   4.123 -0.2443  0.1703 -0.3972
 5815SOL     OW23025   0.945   0.015   1.755  0.3497 -0.3794 -0.2616
 5815SOL    HW223026   0.933  -0.080   1.749 -2.8741 -0.0736 -0.6514
 5815SOL    HW323027   1.000   0.037   1.680 -0.3188 -1.7879 -1.2115
 5815SOL    MW423028   0.950   0.005   1.744  0.4829 -0.0961 -0.1028
 5816SOL     OW23029   3.606   2.621   3.432  0.3960  0.2032 -0.2379
 5816SOL    HW223030   3.521   2.590   3.464  0.0454  1.4975  0.1590
 5816SOL    HW323031   3.670   2.562   3.472 -0.2706 -0.3888 -0.0168
 5816SOL    MW423032   3.603   2.609   3.442  0.0360 -0.2230 -0.7115
 5817SOL     OW23033   4.237   1.011   1.835  0.0114  0.0030 -0.8494
 5817SOL    HW223034   4.206   0.942   1.776 -1.1128  0.1344 -0.4243
 5817SOL    HW323035   4.161   1.066   1.851  0.3685  0.1676  0.4488
 5817SOL    MW423036   4.223   1.009   1.830 -0.2644  0.3547  0.0683
 5818SOL     OW23037   1.205   4.789   1.802  1.0033 -0.0887 -0.4970
 5818SOL    HW223038   1.183   4.858   1.740  1.1688 -0.5189 -1.0392
 5818SOL    HW323039   1.227   4.836   1.883  2.1967  0.5631 -1.1721
 5818SOL    MW423040   1.205   4.804   1.804 -0.0189 -0.6379 -0.5006
 5819SOL     OW23041   1.513   0.763   5.979 -0.5184 -0.1499  0.0529
 5819SOL    HW223042   1.429   0.755   5.933 -0.0027  1.1228 -1.1914
 5819SOL    HW323043   1.575   0.790   5.912  0.7257 -0.2430  1.1187
 5819SOL    MW423044   1.510   0.766   5.964 -0.1580  0.5222 -0.3710
 5820SOL     OW23045   5.859   0.535   4.941  0.2470 -0.2640  0.4704
 5820SOL    HW223046   5.786   0.478   4.918 -1.3250  1.7935  0.0142
 5820SOL    HW323047   5.849   0.550   5.035 -0.5798  0.8153  0.2316
 5820SOL    MW423048   5.848   0.530   4.950  0.2425  0.4087  0.4702
 5821SOL     OW23049   4.429   2.900   1.919 -0.6857  0.4497 -0.0089
 5821SOL    HW223050   4.506   2.898   1.976 -0.2675 -0.3356 -0.5895
 5821SOL    HW323051   4.366   2.956   1.966 -0.3757 -0.2251  1.2453
 5821SOL    MW423052   4.430   2.907   1.933  0.6184  0.1152 -0.5700
 5822SOL     OW23053   6.434   3.865   3.135 -0.0354  0.4926 -0.3590
 5822SOL    HW223054   6.368   3.831   3.074  1.0820  1.3930 -2.1853
 5822SOL    HW323055   6.401   3.952   3.160 -1.0006 -0.2849  1.2190
 5822SOL    MW423056   6.421   3.872   3.130  0.3837  0.4372 -0.8008
 5823SOL     OW23057   0.567   4.860   0.808 -0.1535 -0.7372  0.3657
 5823SOL    HW223058   0.656   4.845   0.778 -0.7574  1.2714 -2.9268
 5823SOL    HW323059   0.512   4.813   0.744 -1.5095 -0.3267  1.1810
 5823SOL    MW423060   0.571   4.852   0.796 -0.2356 -0.1134 -0.3330
 5824SOL     OW23061   4.779   1.110   5.285  0.6558 -0.4086  0.4656
 5824SOL    HW223062   4.787   1.159   5.367 -0.3872 -0.7328  0.7745
 5824SOL    HW323063   4.783   1.177   5.217  2.6465 -0.2358  0.6950
 5824SOL    MW423064   4.781   1.126   5.287  0.2587  0.0728  0.3969
 5825SOL     OW23065   3.958   3.405   5.499 -0.1414 -0.4516 -0.6342
 5825SOL    HW223066   3.896   3.385   5.570 -1.2428 -1.0334 -1.7169
 5825SOL    HW323067   3.902   3.430   5.425  0.9973  0.5687 -1.1929
 5825SOL    MW423068   3.942   3.406   5.499  0.6790  0.4414  0.1489
 5826SOL     OW23069   3.924   3.486   2.391  0.2039  0.1271  0.1022
 5826SOL    HW223070   3.859   3.416   2.395  1.6709 -1.2603  2.2345
 5826SOL    HW323071   3.995   3.449   2.339 -0.2158  1.2421 -1.3380
 5826SOL    MW423072   3.925   3.472   2.385 -0.1601  0.2104  0.0899
 5827SOL     OW23073   4.079   1.893   1.237  0.1918  0.1443  0.0450
 5827SOL    HW223074   4.001   1.843   1.213  0.9900 -0.7049 -0.8363
 5827SOL    HW323075   4.125   1.837   1.300  0.9115 -0.0850 -0.6769
 5827SOL    MW423076   4.075   1.879   1.242  0.6570 -0.9298 -0.2608
 5828SOL     OW23077   4.469   5.396   0.926  0.0777 -0.2548 -0.3276
 5828SOL    HW223078   4.505   5.462   0.985  0.2811 -0.0608 -0.6599
 5828SOL    HW323079   4.545   5.361   0.880 -0.2424  1.0283 -1.9248
 5828SOL    MW423080   4.484   5.400   0.928  0.2308 -0.1470  0.2939
 5829SOL     OW23081   6.024   1.744   4.886  0.4827 -0.5550  0.5617
 5829SOL    HW223082   5.960   1.674   4.893 -0.6865  0.5342  1.0933
 5829SOL    HW323083   6.038   1.754   4.791 -3.1377  1.7134  0.0425
 5829SOL    MW423084   6.018   1.736   4.874  0.8307  0.5677 -0.5862
 5830SOL     OW23085   1.486   1.362   0.261  0.3355 -0.4514 -0.0783
 5830SOL    HW223086   1.559   1.369   0.323  1.5847  1.1463 -1.6246
 5830SOL    HW323087   1.433   1.440   0.279 -0.2467 -0.8901  0.1183
 5830SOL    MW423088   1.489   1.373   0.272 -0.1543 -0.2508  0.0515
 5831SOL     OW23089   5.374   2.660   4.238 -0.4790  0.4741 -0.5755
 5831SOL    HW223090   5.307   2.658   4.306 -0.8952 -0.7492 -1.0180
 5831SOL    HW323091   5.448   2.705   4.280 -1.4247  1.5523  0.0153
 5831SOL    MW423092   5.375   2.666   4.253 -0.6041 -0.1805 -0.3018
 5832SOL     OW23093   2.129   0.235   4.565  0.4241 -0.2690 -0.0316
 5832SOL    HW223094   2.139   0.301   4.496  2.1554  1.0470  1.3948
 5832SOL    HW323095   2.215   0.194   4.572 -0.4077 -2.1472 -0.3137
 5832SOL    MW423096   2.142   0.239   4.557 -0.7092  0.2501 -0.6233
 5833SOL     OW23097   5.024   2.193   1.090 -0.3480  0.0765 -0.4282
 5833SOL    HW223098   4.929   2.199   1.095 -0.2626  0.6232  1.1253
 5833SOL    HW323099   5.041   2.103   1.063 -1.3025 -0.0913 -0.5029
 5833SOL    MW423100   5.014   2.182   1.087  0.0999 -0.8282  0.3626
 5834SOL     OW23101   1.313   1.854   1.300  0.2220  0.1518 -0.0538
 5834SOL    HW223102   1.268   1.848   1.385 -0.5520 -1.6071 -0.5310
 5834SOL    HW323103   1.405   1.842   1.320  0.3906  2.3729  0.7907
 5834SOL    MW423104   1.319   1.851   1.314  0.5751 -0.7281 -0.1790
 5835SOL     OW23105   2.279   1.930   1.974  0.1758  0.4866 -0.0058
 5835SOL    HW223106   2.260   1.994   1.906 -2.9773 -1.6237 -1.3556
 5835SOL    HW323107   2.330   1.862   1.931 -0.0470  0.1275  0.2860
 5835SOL    MW423108   2.283   1.929   1.959  0.0325 -0.5745 -1.0104
 5836SOL     OW23109   5.021   3.169   0.463 -0.1936 -0.2585  1.0092
 5836SOL    HW223110   5.023   3.265   0.465 -0.1878 -0.2026 -0.4978
 5836SOL    HW323111   4.932   3.147   0.492 -1.4059  0.4036 -1.8388
 5836SOL    MW423112   5.009   3.179   0.467 -0.3823 -0.1184  0.5143
 5837SOL     OW23113   1.194   0.974   3.304  0.4600  0.0472  0.5158
 5837SOL    HW223114   1.266   1.036   3.294  0.3903  0.3836  1.9313
 5837SOL    HW323115   1.123   1.010   3.250 -0.0800  2.0163  2.4039
 5837SOL    MW423116   1.194   0.987   3.295  0.3217 -0.3156 -0.1192
 5838SOL     OW23117   2.535   2.466   5.784  0.4505 -0.1803 -0.5934
 5838SOL    HW223118   2.614   2.422   5.752  1.3474  0.0073  1.1877
 5838SOL    HW323119   2.492   2.499   5.706  0.8644 -2.3779 -1.8224
 5838SOL    MW423120   2.540   2.465   5.770  0.0523  0.1775 -0.0885
 5839SOL     OW23121   0.886   1.399   6.116 -0.2248 -0.5466 -0.1674
 5839SOL    HW223122   0.872   1.386   6.022 -0.6604 -0.6103 -0.0947
 5839SOL    HW323123   0.961   1.459   6.121 -0.7136  0.1051 -0.5666
 5839SOL    MW423124   0.894   1.405   6.104  0.1228 -0.2853 -0.2950
 5840SOL     OW23125   1.967   3.814   0.191  0.4798  0.1007 -0.2719
 5840SOL    HW223126   1.987   3.905   0.213  1.4939 -0.1119 -0.2734
 5840SOL    HW323127   1.927   3.778   0.270 -0.3747  0.6626 -0.4243
 5840SOL    MW423128   1.964   3.821   0.204  0.0283  0.1106  0.2398
 5841SOL     OW23129   6.078   4.775   0.952 -0.1283  0.6732  0.5046
 5841SOL    HW223130   6.039   4.702   1.001 -2.0073  1.4557  0.2664
 5841SOL    HW323131   6.026   4.851   0.978  1.8608  1.9932  0.8364
 5841SOL    MW423132   6.066   4.776   0.962  0.5321 -0.0629 -0.3739
 5842SOL     OW23133   1.191   5.269   5.514  0.0530 -0.6616  0.2558
 5842SOL    HW223134   1.236   5.245   5.595 -2.0364 -1.6973  1.1683
 5842SOL    HW323135   1.115   5.211   5.510 -0.1079 -0.3819 -2.2756
 5842SOL    MW423136   1.187   5.259   5.524 -0.3189 -0.0690 -0.5894
 5843SOL     OW23137   1.197   4.407   4.826 -0.2299 -0.2341  0.3426
 5843SOL    HW223138   1.206   4.374   4.737 -0.0183 -1.4898  0.8116
 5843SOL    HW323139   1.159   4.494   4.816 -0.0057 -0.2771 -0.9801
 5843SOL    MW423140   1.193   4.414   4.813 -0.2179  0.2331 -0.5717
 5844SOL     OW23141   5.559   2.527   3.150  0.0789 -0.1702  0.3631
 5844SOL    HW223142   5.631   2.567   3.199  0.0429  1.5193 -0.8661
 5844SOL    HW323143   5.480   2.573   3.180 -0.5810 -2.0868  1.7891
 5844SOL    MW423144   5.558   2.538   3.161 -0.1952  0.0680  0.3613
 5845SOL     OW23145   3.983   1.025   2.834  0.1400 -0.4582  0.3804
 5845SOL    HW223146   3.933   1.105   2.851 -0.8870 -0.4985 -2.0179
 5845SOL    HW323147   3.936   0.957   2.882 -0.5422 -0.0351  0.3307
 5845SOL    MW423148   3.970   1.027   2.842 -0.4021  0.6346 -0.2659
 5846SOL     OW23149   3.414   2.671   2.988  0.3822 -0.3676  0.2389
 5846SOL    HW223150   3.428   2.613   2.912 -0.5063 -0.4490  0.1196
 5846SOL    HW323151   3.493   2.662   3.040  0.9795 -0.3639 -0.6517
 5846SOL    MW423152   3.426   2.662   2.985  0.4915  0.7376 -0.1271
 5847SOL     OW23153   3.655   1.763   5.457  0.0353  0.1835 -0.3050
 5847SOL    HW223154   3.631   1.725   5.542  1.3638 -0.7848 -0.3409
 5847SOL    HW323155   3.581   1.740   5.400 -1.2375  1.4998  0.7253
 5847SOL    MW423156   3.642   1.755   5.461 -0.2335 -0.6504 -0.1248
 5848SOL     OW23157   4.670   5.844   1.640 -0.4007 -0.2274 -0.4264
 5848SOL    HW223158   4.648   5.753   1.620  0.0450 -0.3637 -0.3050
 5848SOL    HW323159   4.640   5.857   1.730 -1.2107 -0.0040 -0.7152
 5848SOL    MW423160   4.663   5.834   1.649 -0.0121 -0.5864 -0.2334
 5849SOL     OW23161   2.430   4.578   4.886  0.2899 -0.2415  0.6180
 5849SOL    HW223162   2.400   4.613   4.802 -0.9624 -0.4295  0.9657
 5849SOL    HW323163   2.524   4.593   4.886 -0.0812  2.7203  0.5296
 5849SOL    MW423164   2.438   4.584   4.875  0.3916 -0.7048  0.1346
 5850SOL     OW23165   3.236   4.009   4.850  0.1480  0.2492  0.1741
 5850SOL    HW223166   3.151   3.976   4.820  0.0820 -0.2129  0.8410
 5850SOL    HW323167   3.288   3.930   4.866  0.9367  0.5321 -0.8428
 5850SOL    MW423168   3.232   3.994   4.848  0.2715 -0.3105 -0.6862
 5851SOL     OW23169   1.975   0.129   1.449 -0.5347  0.0787  0.2037
 5851SOL    HW223170   2.051   0.097   1.497 -1.0701  0.4896  1.3758
 5851SOL    HW323171   1.957   0.062   1.384  1.2627  0.3233 -0.5835
 5851SOL    MW423172   1.983   0.116   1.447  0.4966  0.2477  0.3173
 5852SOL     OW23173   2.984   4.244   4.947  0.2898 -0.0988 -0.0670
 5852SOL    HW223174   3.010   4.176   5.009  3.1753  0.3381 -0.6439
 5852SOL    HW323175   2.997   4.205   4.861 -0.7026  0.3178 -0.4281
 5852SOL    MW423176   2.989   4.230   4.944  0.0668 -0.3101 -0.6351
 5853SOL     OW23177   6.416   4.970   0.109  0.8877  0.6848 -0.2933
 5853SOL    HW223178   6.367   5.041   0.151 -0.0146 -0.4173  0.6116
 5853SOL    HW323179   6.501   5.008   0.088  1.1811  1.4982  2.0532
 5853SOL    MW423180   6.420   4.984   0.112  0.1541 -0.1578  0.1120
 5854SOL     OW23181   0.134   5.589   3.192 -0.2619 -0.0457 -0.0844
 5854SOL    HW223182   0.152   5.552   3.279 -0.8913 -0.3792 -0.0842
 5854SOL    HW323183   0.106   5.679   3.209 -0.3114 -0.0877  0.0588
 5854SOL    MW423184   0.132   5.596   3.206 -0.0632  0.6962  0.3533
 5855SOL     OW23185   4.154   5.736   3.583 -0.9466 -0.1192  0.1688
 5855SOL    HW223186   4.218   5.768   3.520 -0.6339 -1.1181 -0.0408
 5855SOL    HW323187   4.071   5.774   3.555 -0.7333 -0.1871 -0.5736
 5855SOL    MW423188   4.151   5.745   3.571  0.2930 -0.2828  0.1621
 5856SOL     OW23189   5.167   4.675   4.401  0.0526  0.3532  0.3690
 5856SOL    HW223190   5.178   4.638   4.314  1.6986 -1.3816  1.2254
 5856SOL    HW323191   5.233   4.744   4.407 -0.0518  0.4630  0.2296
 5856SOL    MW423192   5.177   4.679   4.390  0.4955 -0.4481 -0.1939
 5857SOL     OW23193   0.439   4.130   2.606  0.7224  0.2975  0.2543
 5857SOL    HW223194   0.405   4.114   2.518  1.5140 -0.0989  0.0073
 5857SOL    HW323195   0.382   4.198   2.642  1.8334  2.2849 -1.4768
 5857SOL    MW423196   0.427   4.137   2.599  0.3012 -0.3820  0.2300
 5858SOL     OW23197   5.240   4.539   5.016 -0.0389  0.1219  0.3371
 5858SOL    HW223198   5.225   4.495   4.933  2.4815  0.4606 -0.3767
 5858SOL    HW323199   5.283   4.621   4.992  2.2956 -0.5109  1.9972
 5858SOL    MW423200   5.243   4.544   5.002  0.3702  0.2522  0.8492
 5859SOL     OW23201   1.170   4.878   2.070 -0.4772 -0.2184  0.4030
 5859SOL    HW223202   1.156   4.839   2.157 -0.2602  1.2627  1.1344
 5859SOL    HW323203   1.220   4.958   2.088  2.5902 -1.5751 -1.3957
 5859SOL    MW423204   1.175   4.883   2.084  0.1628  0.3420 -0.3094
 5860SOL     OW23205   5.568   6.004   2.691 -0.4168  0.1256  0.3034
 5860SOL    HW223206   5.652   6.045   2.710  0.3385 -1.2219  0.0324
 5860SOL    HW323207   5.551   5.948   2.767 -1.2726  0.6797  0.5337
 5860SOL    MW423208   5.577   6.002   2.703  0.6998  0.1373 -0.4745
 5861SOL     OW23209   3.488   0.121   6.393  0.5062  0.4358 -0.6497
 5861SOL    HW223210   3.536   0.144   6.313 -0.6560  1.6533 -1.0291
 5861SOL    HW323211   3.460   0.205   6.429  0.0089 -0.1695  0.4148
 5861SOL    MW423212   3.490   0.135   6.387  0.6311  0.4219 -0.4388
 5862SOL     OW23213   2.255   1.404   1.433 -0.0160 -0.6411  0.4285
 5862SOL    HW223214   2.237   1.440   1.520 -0.1226  0.4085 -0.0143
 5862SOL    HW323215   2.342   1.438   1.411 -0.5814  0.2567 -0.4565
 5862SOL    MW423216   2.264   1.413   1.442  0.3754  0.5332 -0.4504
 5863SOL     OW23217   1.056   6.066   2.360 -0.1939 -0.1887 -0.1458
 5863SOL    HW223218   1.021   6.069   2.449 -0.4324 -0.3900 -0.2316
 5863SOL    HW323219   1.116   6.140   2.355 -1.6119  0.9724 -0.4313
 5863SOL    MW423220   1.059   6.076   2.371  0.1831 -0.2930 -0.1775
 5864SOL     OW23221   2.559   4.444   1.127 -0.0696 -0.6647 -0.0140
 5864SOL    HW223222   2.471   4.409   1.117 -0.4199  0.1275  0.2568
 5864SOL    HW323223   2.548   4.539   1.129  0.7437 -0.5668  0.4547
 5864SOL    MW423224   2.546   4.452   1.126  0.0458  0.2701  0.3888
 5865SOL     OW23225   0.834   1.310   5.614 -0.0198  0.1780  0.2102
 5865SOL    HW223226   0.764   1.273   5.561 -0.4863  2.0243 -0.5279
 5865SOL    HW323227   0.803   1.300   5.704 -1.7952  1.9301 -0.1400
 5865SOL    MW423228   0.821   1.303   5.619 -0.0371 -0.1517 -0.1913
 5866SOL     OW23229   4.178   5.375   1.441  0.3355  0.0913  0.4093
 5866SOL    HW223230   4.201   5.371   1.348  0.0961 -1.9712  0.4098
 5866SOL    HW323231   4.142   5.289   1.462 -1.7879  1.2195  1.8833
 5866SOL    MW423232   4.176   5.363   1.432 -0.3768  0.0182 -0.4224
 5867SOL     OW23233   3.961   4.311   3.394  0.3551  0.6147 -0.3177
 5867SOL    HW223234   4.007   4.313   3.478  1.0040  1.1864 -0.6743
 5867SOL    HW323235   3.973   4.399   3.358 -0.1190  0.4475 -0.9008
 5867SOL    MW423236   3.969   4.323   3.400  0.0162  0.2425  0.3675
 5868SOL     OW23237   4.009   5.230   1.813  0.0750 -0.1797  0.2075
 5868SOL    HW223238   4.029   5.194   1.726 -0.3988 -0.7118  0.3101
 5868SOL    HW323239   3.967   5.314   1.795  0.9038  0.1953 -0.0449
 5868SOL    MW423240   4.006   5.236   1.799  0.0270  0.8018 -0.1960
 5869SOL     OW23241   1.148   0.180   6.050  0.2162 -0.2615 -0.4373
 5869SOL    HW223242   1.231   0.193   6.095  0.0086 -2.0703  0.5493
 5869SOL    HW323243   1.151   0.089   6.020 -1.2508 -0.2330 -0.7478
 5869SOL    MW423244   1.160   0.169   6.052  0.0091 -0.3664 -0.4951
 5870SOL     OW23245   0.315   3.007   5.077 -0.0639  0.0155  0.4371
 5870SOL    HW223246   0.354   2.966   4.999  1.1196  1.5112  0.1965
 5870SOL    HW323247   0.380   2.995   5.146  0.4331  1.6533  0.2948
 5870SOL    MW423248   0.329   3.000   5.076 -0.3132 -0.0269 -0.2239
 5871SOL     OW23249   2.700   3.136   4.875  0.9877  0.4214 -0.3843
 5871SOL    HW223250   2.776   3.128   4.817  1.7455 -1.2791  0.7461
 5871SOL    HW323251   2.733   3.111   4.961 -0.5456  1.0290  0.4206
 5871SOL    MW423252   2.715   3.132   4.878  0.3946  0.4938  0.1420
 5872SOL     OW23253   5.546   1.344   3.283  0.0944  0.4476  0.0741
 5872SOL    HW223254   5.616   1.318   3.224 -0.9043  0.1804 -1.0489
 5872SOL    HW323255   5.589   1.365   3.366  1.5245  0.7207 -0.7177
 5872SOL    MW423256   5.561   1.343   3.286  0.3049  0.1586 -0.2751
 5873SOL     OW23257   1.518   4.920   4.090  0.0220 -0.0473 -0.1477
 5873SOL    HW223258   1.442   4.863   4.088  0.4015 -0.5558 -0.7373
 5873SOL    HW323259   1.562   4.899   4.172 -1.0078  0.9930  0.6994
 5873SOL    MW423260   1.514   4.910   4.101  0.5345  0.0306  0.3180
 5874SOL     OW23261   1.775   3.360   1.174 -0.0236 -0.3511  0.4052
 5874SOL    HW223262   1.779   3.322   1.261 -3.0124 -0.7616  0.4397
 5874SOL    HW323263   1.821   3.296   1.118 -0.8949 -1.7022  1.1844
 5874SOL    MW423264   1.782   3.346   1.178 -0.3856  0.1519  0.0141
 5875SOL     OW23265   2.974   0.319   5.282  0.4547 -0.1445 -0.1395
 5875SOL    HW223266   2.964   0.408   5.316 -0.9429 -0.7469  1.1477
 5875SOL    HW323267   3.045   0.281   5.336  0.2551 -0.1625  0.1153
 5875SOL    MW423268   2.982   0.326   5.294  0.1563  0.1771 -0.3085
 5876SOL     OW23269   6.411   6.365   5.078 -0.5507  0.1050  0.4150
 5876SOL    HW223270   6.325   6.386   5.116 -1.1962 -1.6837  0.0578
 5876SOL    HW323271   6.402   6.384   4.985  0.4143  2.6485  0.7691
 5876SOL    MW423272   6.398   6.370   5.071 -0.7268  0.2693  0.1370
 5877SOL     OW23273   4.161   4.297   1.128 -0.2499  0.2009  0.1278
 5877SOL    HW223274   4.206   4.219   1.162 -0.6886 -0.2395 -0.2808
 5877SOL    HW323275   4.068   4.273   1.128 -0.2375 -0.0214 -1.8351
 5877SOL    MW423276   4.155   4.283   1.132  0.0630  0.2927 -0.4383
 5878SOL     OW23277   2.899   6.129   2.434  0.0117 -0.3951 -0.1365
 5878SOL    HW223278   2.844   6.098   2.361 -1.2125 -2.3859  1.5053
 5878SOL    HW323279   2.846   6.196   2.477  0.7771  0.8537 -1.0647
 5878SOL    MW423280   2.885   6.134   2.430  0.3159 -0.2260  0.0438
 5879SOL     OW23281   0.425   5.767   0.336  0.3845 -0.1712 -0.5244
 5879SOL    HW223282   0.436   5.765   0.431  0.9568 -1.2701 -0.5952
 5879SOL    HW323283   0.357   5.833   0.321 -0.2869 -0.5529  0.7037
 5879SOL    MW423284   0.418   5.776   0.346  0.0053  0.3092 -0.3646
 5880SOL     OW23285   5.507   2.918   6.385 -0.1268  0.1097 -0.1803
 5880SOL    HW223286   5.516   2.839   6.331 -0.2289  0.0994 -0.1821
 5880SOL    HW323287   5.504   2.990   6.321 -3.2163 -0.0838 -0.4268
 5880SOL    MW423288   5.508   2.917   6.369  0.0287  0.1593  0.4816
 5881SOL     OW23289   4.911   0.475   3.987 -0.0555  0.7845  0.0600
 5881SOL    HW223290   4.854   0.550   4.003 -1.2881  0.0038 -0.5172
 5881SOL    HW323291   4.854   0.398   3.999  1.2909 -0.0988  1.1763
 5881SOL    MW423292   4.896   0.474   3.991 -0.0876  0.0187  0.6865
 5882SOL     OW23293   4.605   4.120   3.689  0.0201 -0.3410  0.2093
 5882SOL    HW223294   4.514   4.134   3.712 -0.0132 -1.0067  0.4910
 5882SOL    HW323295   4.616   4.025   3.688  0.6789 -0.2706  0.0671
 5882SOL    MW423296   4.595   4.109   3.692 -0.5159  0.9927 -0.2405
 5883SOL     OW23297   4.404   4.920   0.351 -0.3645 -0.1845  0.6099
 5883SOL    HW223298   4.375   4.839   0.310  0.3817 -0.7933  1.2765
 5883SOL    HW323299   4.405   4.984   0.279 -1.3712 -0.6368  0.1731
 5883SOL    MW423300   4.400   4.918   0.336 -0.0114  0.2843  0.0878
 5884SOL     OW23301   4.726   2.347   4.664 -0.3206 -0.0213  0.0105
 5884SOL    HW223302   4.692   2.403   4.734  1.3352  0.3537  0.5663
 5884SOL    HW323303   4.657   2.347   4.597 -0.9121  1.6286  0.5655
 5884SOL    MW423304   4.713   2.355   4.664 -0.0072  0.2018 -0.0048
 5885SOL     OW23305   2.302   3.418   0.110  0.6401 -0.0683  0.7423
 5885SOL    HW223306   2.321   3.510   0.128 -0.9650  0.2542  0.9401
 5885SOL    HW323307   2.212   3.406   0.139 -0.2297 -0.9311 -1.9800
 5885SOL    MW423308   2.293   3.428   0.116 -0.1221 -0.3764 -0.0574
 5886SOL     OW23309   5.195   0.411   3.981 -0.5859 -0.6363  0.0463
 5886SOL    HW223310   5.273   0.465   3.973 -1.3766  0.4715 -0.2874
 5886SOL    HW323311   5.122   0.468   3.958 -1.3268 -2.2916 -2.0355
 5886SOL    MW423312   5.195   0.425   3.977 -0.1730 -0.7347  0.1907
 5887SOL     OW23313   5.705   0.597   5.636 -0.0829 -0.2355  0.1817
 5887SOL    HW223314   5.700   0.528   5.570 -1.5329  0.2013 -0.2127
 5887SOL    HW323315   5.680   0.554   5.717  1.4594 -0.7169  0.4324
 5887SOL    MW423316   5.701   0.582   5.638  0.1778  0.0105 -0.3151
 5888SOL     OW23317   3.268   0.041   0.292 -0.2909  0.3876  0.0169
 5888SOL    HW223318   3.305   0.045   0.203 -1.3268  1.8395 -0.3702
 5888SOL    HW323319   3.345   0.042   0.349  0.4130 -0.9688 -0.8390
 5888SOL    MW423320   3.283   0.042   0.288  0.1650  0.1803  0.1356
 5889SOL     OW23321   3.517   2.520   1.700 -0.2927  0.3165  0.5292
 5889SOL    HW223322   3.452   2.508   1.769 -0.0747  2.6779  1.2199
 5889SOL    HW323323   3.466   2.527   1.620 -0.9772  2.3060  1.0868
 5889SOL    MW423324   3.502   2.519   1.698  0.3190  0.0849 -0.1702
 5890SOL     OW23325   4.136   3.799   3.618  0.0447 -0.0949  0.0337
 5890SOL    HW223326   4.150   3.756   3.702 -1.7959  0.9835  0.9586
 5890SOL    HW323327   4.214   3.853   3.606  0.9787 -1.3314  0.3229
 5890SOL    MW423328   4.149   3.801   3.628 -0.1246 -0.3035 -0.1587
 5891SOL     OW23329   2.325   3.432   3.814  1.0405  0.3282  0.0021
 5891SOL    HW223330   2.254   3.495   3.818  1.3963  0.8556 -1.3903
 5891SOL    HW323331   2.398   3.475   3.858  0.7078  0.0703  0.8134
 5891SOL    MW423332   2.325   3.446   3.820  0.0966 -0.4099 -0.1042
 5892SOL     OW23333   6.302   6.286   4.424  0.2684  0.3264 -0.3453
 5892SOL    HW223334   6.299   6.214   4.361  1.3431  0.0035 -0.0492
 5892SOL    HW323335   6.368   6.258   4.488  0.3405  1.3573  0.0387
 5892SOL    MW423336   6.310   6.272   4.424  0.2404  0.2427  0.6624
 5893SOL     OW23337   4.130   4.567   1.025  0.0537 -0.3322 -0.3427
 5893SOL    HW223338   4.151   4.477   1.047 -1.4065 -0.3427  1.2563
 5893SOL    HW323339   4.073   4.561   0.949  0.3385 -0.7207 -0.5242
 5893SOL    MW423340   4.125   4.555   1.018 -0.1592  0.7871  0.6744
 5894SOL     OW23341   0.854   1.617   4.917  0.2030 -0.0878 -0.0439
 5894SOL    HW223342   0.860   1.627   4.822  1.1822  0.8001  0.0926
 5894SOL    HW323343   0.814   1.698   4.948  2.0698  0.6823  0.4928
 5894SOL    MW423344   0.850   1.629   4.909 -0.1771 -0.1889 -0.9738
 5895SOL     OW23345   1.490   0.091   4.859 -0.4314 -0.4721  0.1213
 5895SOL    HW223346   1.448   0.031   4.797 -1.6002  0.4695 -0.0461
 5895SOL    HW323347   1.507   0.037   4.936 -0.3523 -1.2974 -0.4580
 5895SOL    MW423348   1.487   0.076   4.861  0.1512 -0.1627 -0.0933
 5896SOL     OW23349   2.421   5.972   0.473 -0.1893  0.1228 -0.3567
 5896SOL    HW223350   2.422   5.910   0.545 -1.6197  1.7082  1.1388
 5896SOL    HW323351   2.340   5.954   0.426 -0.0209  0.0989 -0.6438
 5896SOL    MW423352   2.410   5.962   0.476  0.0260 -0.0094  0.2393
 5897SOL     OW23353   4.527   5.669   2.538  0.3287  0.7352 -0.1507
 5897SOL    HW223354   4.496   5.645   2.451 -0.1599  2.2862 -0.4338
 5897SOL    HW323355   4.623   5.662   2.533  0.2405 -0.5128 -0.3737
 5897SOL    MW423356   4.536   5.665   2.526  0.5105 -0.4519 -0.0042
 5898SOL     OW23357   5.319   4.742   3.896 -0.5194  0.2307 -0.3723
 5898SOL    HW223358   5.321   4.692   3.977 -0.4023  0.9332  0.0728
 5898SOL    HW323359   5.339   4.679   3.827 -1.7902 -0.6182  0.0110
 5898SOL    MW423360   5.322   4.727   3.897 -0.5172 -0.1073 -0.6554
 5899SOL     OW23361   2.215   4.487   4.107 -0.1400  0.3117  0.6241
 5899SOL    HW223362   2.130   4.486   4.150 -0.2438  1.3016  0.4633
 5899SOL    HW323363   2.199   4.448   4.021 -0.1954 -0.5007  0.9976
 5899SOL    MW423364   2.202   4.482   4.101 -0.4002  0.2464 -0.0329
 5900SOL     OW23365   4.753   3.654   3.407  0.0210 -0.3864 -0.7844
 5900SOL    HW223366   4.735   3.561   3.420  0.3488 -0.4621 -0.8438
 5900SOL    HW323367   4.667   3.696   3.406 -0.1108 -0.6454 -0.4270
 5900SOL    MW423368   4.740   3.647   3.408 -0.0055 -0.1509  0.3529
 5901SOL     OW23369   1.560   1.322   4.805 -0.7528 -0.0408  0.4675
 5901SOL    HW223370   1.609   1.264   4.746 -1.4235  1.0949 -1.2577
 5901SOL    HW323371   1.495   1.264   4.845 -0.6194 -0.7465 -0.2916
 5901SOL    MW423372   1.558   1.307   4.803  0.1230  0.1030  0.0854
 5902SOL     OW23373   6.029   2.217   0.049 -0.7506 -0.3742 -0.0316
 5902SOL    HW223374   6.058   2.286   0.109 -1.8669  0.6339 -0.5971
 5902SOL    HW323375   6.020   2.139   0.105  1.8048 -0.4630  0.3737
 5902SOL    MW423376   6.031   2.216   0.065 -0.2281  0.2466  0.6915
 5903SOL     OW23377   4.077   5.457   3.624 -0.6313 -0.4334  0.5127
 5903SOL    HW223378   4.126   5.419   3.551 -0.1161 -1.7244  1.4987
 5903SOL    HW323379   4.100   5.550   3.622 -0.0376 -0.5860 -0.5079
 5903SOL    MW423380   4.086   5.465   3.614  0.0393  0.0831 -0.6614
 5904SOL     OW23381   5.778   5.184   4.989 -0.1223  0.6021  0.2140
 5904SOL    HW223382   5.872   5.191   5.007 -0.3495  3.4528  0.8095
 5904SOL    HW323383   5.740   5.149   5.069  0.1924  1.9333  0.9774
 5904SOL    MW423384   5.786   5.180   5.002 -0.1858 -0.3385  0.1057
 5905SOL     OW23385   3.510   0.996   0.003  0.5114  0.5389  0.1755
 5905SOL    HW223386   3.566   0.941   0.058  0.2152  0.8246  0.7722
 5905SOL    HW323387   3.546   1.084   0.012 -0.4299  0.8455  1.1122
 5905SOL    MW423388   3.522   1.001   0.011 -0.0835  0.1484 -0.2763
 5906SOL     OW23389   3.105   5.252   0.396 -0.7769  0.4974 -0.2439
 5906SOL    HW223390   3.111   5.333   0.446  2.7611 -0.2707  0.9058
 5906SOL    HW323391   3.067   5.188   0.456 -0.6360  0.6053 -0.0375
 5906SOL    MW423392   3.101   5.254   0.410 -0.3112 -0.7632 -0.0853
 5907SOL     OW23393   0.962   3.789   6.133  0.3234 -0.4181 -0.3720
 5907SOL    HW223394   0.943   3.871   6.087  1.1329 -0.3509 -0.6005
 5907SOL    HW323395   1.035   3.811   6.191 -1.5132 -0.1185  1.9969
 5907SOL    MW423396   0.969   3.803   6.135  0.3413 -0.0986  0.5082
 5908SOL     OW23397   2.247   1.276   5.710 -0.4900 -0.1145 -0.4427
 5908SOL    HW223398   2.303   1.240   5.779 -0.1473  0.5330 -0.3778
 5908SOL    HW323399   2.211   1.356   5.748 -0.0077  0.4419 -1.1450
 5908SOL    MW423400   2.250   1.281   5.724  0.2327 -0.1118 -0.7368
 5909SOL     OW23401   4.537   0.789   6.038  0.4059 -0.3405 -0.5572
 5909SOL    HW223402   4.561   0.708   5.992 -0.5204 -1.2858  0.5523
 5909SOL    HW323403   4.481   0.836   5.977  0.8742 -0.5848 -1.1814
 5909SOL    MW423404   4.533   0.784   6.024 -0.2151 -0.1520  0.0085
 5910SOL     OW23405   0.774   4.309   0.983 -0.4953  0.3288  0.5837
 5910SOL    HW223406   0.743   4.239   1.040 -1.7125 -0.8348 -1.3519
 5910SOL    HW323407   0.865   4.288   0.965 -0.6079 -0.2884  0.7234
 5910SOL    MW423408   0.782   4.297   0.988  1.1451  0.0757  0.0715
 5911SOL     OW23409   0.096   3.710   3.905 -0.3797 -0.6146 -0.3435
 5911SOL    HW223410   0.147   3.639   3.945  1.2128 -0.0306 -1.2528
 5911SOL    HW323411   0.102   3.694   3.811 -0.9099  0.1364 -0.5093
 5911SOL    MW423412   0.104   3.698   3.898 -0.2101 -0.8329 -0.0696
 5912SOL     OW23413   0.223   4.502   0.835 -0.2536  0.1360  0.2684
 5912SOL    HW223414   0.314   4.528   0.848 -0.2220  0.1061  0.1117
 5912SOL    HW323415   0.176   4.539   0.910 -0.3630  1.4604 -0.4255
 5912SOL    MW423416   0.228   4.510   0.846  0.6330  0.5774  0.3375
 5913SOL     OW23417   4.853   1.479   0.512 -0.1714  0.1057  0.4531
 5913SOL    HW223418   4.855   1.522   0.427 -0.4058  0.0866  0.4359
 5913SOL    HW323419   4.815   1.545   0.571 -0.4597 -0.0489  0.4427
 5913SOL    MW423420   4.848   1.493   0.509 -0.2110 -0.4440 -0.1271
 5914SOL     OW23421   0.417   4.478   5.851  0.4411  0.7057  0.4923
 5914SOL    HW223422   0.469   4.401   5.876 -0.4125 -0.6335 -1.5776
 5914SOL    HW323423   0.333   4.466   5.897  0.5987  0.8491  0.8208
 5914SOL    MW423424   0.413   4.466   5.861  0.0831  0.3551 -0.6598
 5915SOL     OW23425   2.622   4.295   2.253  0.7478  0.3669  0.2888
 5915SOL    HW223426   2.553   4.274   2.316 -1.3148  1.6767 -1.3705
 5915SOL    HW323427   2.676   4.360   2.297 -0.1633  0.6491  1.0335
 5915SOL    MW423428   2.620   4.301   2.267  0.3210  0.6463 -1.0527
 5916SOL     OW23429   2.843   0.008   3.342  0.3133  0.0519  0.1924
 5916SOL    HW223430   2.922  -0.030   3.382  0.5069 -1.2467 -1.3119
 5916SOL    HW323431   2.828  -0.045   3.264 -3.3841 -1.2967  1.5793
 5916SOL    MW423432   2.851  -0.004   3.337  0.0883 -0.1417  0.3864
 5917SOL     OW23433   6.096   0.538   1.283 -0.0179  0.0083  0.0154
 5917SOL    HW223434   6.025   0.550   1.345  0.4644 -0.5364  0.6857
 5917SOL    HW323435   6.053   0.531   1.198 -0.7394 -0.0041  0.3762
 5917SOL    MW423436   6.081   0.539   1.280  0.3034 -0.1351  0.4728
 5918SOL     OW23437   5.198   1.272   5.145  0.7557 -0.0301  0.3689
 5918SOL    HW223438   5.154   1.317   5.073 -2.0583  0.4924  2.2761
 5918SOL    HW323439   5.133   1.210   5.179  1.0747  1.2790  3.8013
 5918SOL    MW423440   5.184   1.269   5.140 -0.1030  0.0098  0.0088
 5919SOL     OW23441   3.347   0.557   2.809 -0.1987  0.2029 -0.2843
 5919SOL    HW223442   3.378   0.619   2.875 -0.6908  0.1683 -0.0196
 5919SOL    HW323443   3.421   0.496   2.797  0.2404  0.7624 -0.4624
 5919SOL    MW423444   3.361   0.557   2.816 -0.0378  0.4322  0.3446
 5920SOL     OW23445   1.944   0.869   2.182  0.0999  0.3774 -0.0867
 5920SOL    HW223446   2.005   0.826   2.122  1.4250  1.6303  0.2875
 5920SOL    HW323447   1.929   0.955   2.142 -1.4654  0.0769 -0.1801
 5920SOL    MW423448   1.950   0.875   2.169  0.2142 -0.1480  0.1378
 5921SOL     OW23449   4.528   0.499   4.106 -0.1876  0.4840 -0.6610
 5921SOL    HW223450   4.598   0.558   4.077 -1.3641  0.8945 -2.9003
 5921SOL    HW323451   4.448   0.551   4.097 -0.9477 -0.4858  0.3133
 5921SOL    MW423452   4.527   0.513   4.101  0.5141  0.1479 -0.3147
 5922SOL     OW23453   2.413   2.377   4.814  0.5769 -0.3567 -0.1884
 5922SOL    HW223454   2.435   2.350   4.904  0.1082  0.6675  0.2491
 5922SOL    HW323455   2.476   2.330   4.759 -0.7298 -3.0095  0.4243
 5922SOL    MW423456   2.424   2.367   4.819  0.1774 -0.2227 -0.1358
 5923SOL     OW23457   0.526   5.784   5.455  0.0043 -0.0712 -0.8387
 5923SOL    HW223458   0.444   5.818   5.491 -0.0608  0.2645 -1.2921
 5923SOL    HW323459   0.576   5.754   5.531 -0.0057  0.8737 -0.4517
 5923SOL    MW423460   0.521   5.784   5.470  0.7457 -0.5904 -0.0459
 5924SOL     OW23461   6.002   5.638   1.106  0.0565 -0.0461  0.1693
 5924SOL    HW223462   6.042   5.685   1.032 -1.2748 -0.1822 -0.6752
 5924SOL    HW323463   6.019   5.546   1.087 -0.2525 -0.0789  0.0521
 5924SOL    MW423464   6.010   5.632   1.093 -0.2736  0.0751 -0.3430
 5925SOL     OW23465   4.161   1.320   5.358 -0.1131 -0.7410  0.6163
 5925SOL    HW223466   4.220   1.314   5.282  0.2149  0.2762  0.7806
 5925SOL    HW323467   4.150   1.229   5.386 -0.0489 -1.1114 -0.4991
 5925SOL    MW423468   4.168   1.307   5.352  0.0404  0.0902 -0.2109
 5926SOL     OW23469   1.612   2.374   0.649  0.7917 -0.0653  0.2078
 5926SOL    HW223470   1.658   2.306   0.600 -0.4060 -0.8009  0.0866
 5926SOL    HW323471   1.667   2.452   0.639  1.1346 -0.4776 -1.3681
 5926SOL    MW423472   1.626   2.375   0.642  0.0587 -0.0646 -0.3788
 5927SOL     OW23473   2.225   4.571   1.596 -0.3023  0.5415  0.0090
 5927SOL    HW223474   2.276   4.542   1.671  0.3314  0.7911 -0.3171
 5927SOL    HW323475   2.290   4.585   1.527 -0.8158  0.8328 -0.4225
 5927SOL    MW423476   2.240   4.569   1.597  0.1055  0.7418 -0.1636
 5928SOL     OW23477   2.575   1.764   4.752  0.1800 -0.4815  0.0272
 5928SOL    HW223478   2.651   1.757   4.694  0.4898  1.2071  0.1858
 5928SOL    HW323479   2.612   1.786   4.837 -0.4391 -0.3675  0.2701
 5928SOL    MW423480   2.590   1.766   4.755  0.3742  0.2356  0.5952
 5929SOL     OW23481   2.217   4.447   4.576 -0.8802 -0.1475  0.0054
 5929SOL    HW223482   2.259   4.400   4.505 -0.2257 -2.3442  1.7487
 5929SOL    HW323483   2.266   4.529   4.583 -0.3624 -0.3122 -1.4434
 5929SOL    MW423484   2.229   4.452   4.568 -0.4230  0.1864 -0.6440
 5930SOL     OW23485   3.675   4.542   3.993  0.2105 -0.4035  0.2158
 5930SOL    HW223486   3.605   4.501   4.045  1.2090  1.1709  2.9976
 5930SOL    HW323487   3.640   4.628   3.969  0.0330 -0.8480 -1.2214
 5930SOL    MW423488   3.661   4.548   3.997  0.6510 -0.3102 -0.2818
 5931SOL     OW23489   5.982   1.231   4.024 -0.3755  0.0774 -0.1057
 5931SOL    HW223490   6.075   1.236   4.048 -0.8356  2.5507  1.4693
 5931SOL    HW323491   5.983   1.199   3.934  2.2416  2.8620 -1.2476
 5931SOL    MW423492   5.994   1.227   4.015  0.2301  0.6787 -0.1044
 5932SOL     OW23493   3.272   6.233   1.785  0.0859  0.2377 -0.7320
 5932SOL    HW223494   3.207   6.253   1.718  0.6951 -0.3017 -1.5048
 5932SOL    HW323495   3.280   6.314   1.836 -1.2428  0.2844 -0.5471
 5932SOL    MW423496   3.264   6.246   1.783  0.2401  0.1981  0.2446
 5933SOL     OW23497   1.769   3.812   4.250 -0.2853  0.6217 -0.2629
 5933SOL    HW223498   1.682   3.827   4.214 -0.8266  0.0753  0.7629
 5933SOL    HW323499   1.786   3.719   4.233 -0.0804  0.6273 -0.0975
 5933SOL    MW423500   1.760   3.802   4.243  0.0937 -0.0718 -0.1539
 5934SOL     OW23501   2.587   1.095   0.623  0.2705  0.5531 -0.1595
 5934SOL    HW223502   2.568   1.019   0.678 -1.6972  1.2365  0.1819
 5934SOL    HW323503   2.681   1.090   0.608  0.4317 -1.1363  1.0518
 5934SOL    MW423504   2.597   1.084   0.628  0.7236  0.0891  0.3017
 5935SOL     OW23505   3.715   3.454   4.688  0.6238 -0.3759 -0.4775
 5935SOL    HW223506   3.728   3.528   4.628  0.5150  1.5679  1.7312
 5935SOL    HW323507   3.620   3.442   4.692  0.2450  2.3101  2.2814
 5935SOL    MW423508   3.704   3.462   4.681 -0.4669 -0.3200 -0.4318
 5936SOL     OW23509   3.019   3.963   2.110 -0.6143 -0.4024  0.1689
 5936SOL    HW223510   3.025   3.868   2.104 -1.3226 -0.3900 -0.9535
 5936SOL    HW323511   2.926   3.981   2.119 -0.3725  0.1270  2.1235
 5936SOL    MW423512   3.008   3.953   2.111  0.9913 -0.3257  0.1434
 5937SOL     OW23513   3.230   1.832   4.972  0.0952 -0.3279  0.2375
 5937SOL    HW223514   3.319   1.844   5.006 -0.3910 -0.0476  1.4611
 5937SOL    HW323515   3.213   1.739   4.981  0.4909 -0.4824 -0.5859
 5937SOL    MW423516   3.240   1.822   4.978 -0.1848 -0.3319  0.1087
 5938SOL     OW23517   0.794   3.679   1.343  0.0636 -0.5186 -0.1142
 5938SOL    HW223518   0.727   3.747   1.350  0.5395 -0.0998  0.5375
 5938SOL    HW323519   0.776   3.636   1.260  0.8997  1.6810 -1.5506
 5938SOL    MW423520   0.783   3.683   1.333  0.6574 -0.3579  0.0853
 5939SOL     OW23521   1.641   1.690   2.641  0.3573 -0.1512 -0.1223
 5939SOL    HW223522   1.668   1.759   2.701  2.0570 -0.3390 -0.6347
 5939SOL    HW323523   1.636   1.733   2.555 -0.0120 -0.3498 -0.2052
 5939SOL    MW423524   1.644   1.705   2.637  0.0998  0.2773 -0.0220
 5940SOL     OW23525   6.220   4.859   1.849  0.2815  0.3520 -0.5675
 5940SOL    HW223526   6.138   4.875   1.897  0.6695  0.6024  0.0271
 5940SOL    HW323527   6.198   4.791   1.785  0.2293 -1.6140  1.3803
 5940SOL    MW423528   6.206   4.852   1.847 -0.2573 -0.0960 -0.5433
 5941SOL     OW23529   1.245   6.368   3.629 -0.3028  0.2549  0.2619
 5941SOL    HW223530   1.278   6.290   3.585 -1.5958 -0.6933  0.8899
 5941SOL    HW323531   1.229   6.431   3.559 -1.2767 -0.8331 -0.5236
 5941SOL    MW423532   1.247   6.366   3.614 -0.2127 -0.0234  0.2454
 5942SOL     OW23533   1.516   5.842   4.560  0.1825 -0.0559  0.5157
 5942SOL    HW223534   1.469   5.788   4.496  1.6117 -0.6938 -0.0170
 5942SOL    HW323535   1.450   5.860   4.628 -1.4519  0.8069 -1.1857
 5942SOL    MW423536   1.501   5.837   4.560  0.1440 -0.4147  0.0143
 5943SOL     OW23537   0.639   3.921   1.382 -0.1416 -0.1456 -0.5387
 5943SOL    HW223538   0.658   3.980   1.455 -2.3898 -0.7541  0.6021
 5943SOL    HW323539   0.642   3.978   1.305  0.0462  0.9716  0.2631
 5943SOL    MW423540   0.642   3.936   1.381  0.8649 -0.5530 -0.0037
 5944SOL     OW23541   0.734   0.134   5.463  0.0152 -0.8903  0.1708
 5944SOL    HW223542   0.710   0.092   5.545 -1.3205 -0.1281  0.1927
 5944SOL    HW323543   0.664   0.110   5.402 -0.9033  1.3846  0.2324
 5944SOL    MW423544   0.722   0.125   5.466  0.0061  0.2860 -0.0499
 5945SOL     OW23545   3.347   0.137   5.871  0.1120  0.2085 -0.4692
 5945SOL    HW223546   3.335   0.198   5.798 -1.5165  0.8316  0.2599
 5945SOL    HW323547   3.379   0.056   5.830 -0.4354  0.6499 -1.8326
 5945SOL    MW423548   3.350   0.134   5.856 -0.1116  0.2894 -0.0544
 5946SOL     OW23549   0.193   4.665   2.769  0.2195 -0.1073 -0.4105
 5946SOL    HW223550   0.104   4.664   2.803  0.6223  0.2152  0.6796
 5946SOL    HW323551   0.193   4.596   2.702 -0.2427 -1.7235  1.1724
 5946SOL    MW423552   0.181   4.656   2.765  0.2678 -0.3402  0.1882
 5947SOL     OW23553   0.307   1.757   2.909  0.3151  0.1165  0.2156
 5947SOL    HW223554   0.385   1.706   2.929  0.5609  0.4288  0.0607
 5947SOL    HW323555   0.294   1.812   2.986  0.6792  0.5945 -0.0568
 5947SOL    MW423556   0.315   1.757   2.922  0.3292 -0.3251 -0.4080
 5948SOL     OW23557   5.244   4.132   6.001 -0.0206  0.2127  0.0458
 5948SOL    HW223558   5.179   4.139   5.932 -0.8945  1.4776  0.9503
 5948SOL    HW323559   5.205   4.178   6.076  1.0868 -0.6902  1.2374
 5948SOL    MW423560   5.231   4.139   6.002  0.2668  0.3480  0.0092
 5949SOL     OW23561   4.925   0.453   2.641 -0.3299  0.3784  0.2043
 5949SOL    HW223562   4.905   0.385   2.705  0.4795 -0.7583 -0.6891
 5949SOL    HW323563   4.845   0.505   2.634 -0.0034  1.4265  3.1177
 5949SOL    MW423564   4.912   0.451   2.648 -0.4971  0.0316  0.4150
 5950SOL     OW23565   4.541   5.264   1.306  0.2982 -0.2300 -0.2706
 5950SOL    HW223566   4.623   5.237   1.349  0.9727  2.9038  0.6892
 5950SOL    HW323567   4.521   5.349   1.345 -2.7495 -0.2858 -1.4641
 5950SOL    MW423568   4.549   5.272   1.317  0.0186  0.2315  0.1625
 5951SOL     OW23569   2.211   0.063   5.489 -0.4920  0.2517  0.0303
 5951SOL    HW223570   2.154  -0.011   5.511 -1.8615  1.3504  0.2998
 5951SOL    HW323571   2.162   0.112   5.423  0.8617  0.3786 -0.9251
 5951SOL    MW423572   2.197   0.060   5.483  0.0658  0.5011  0.5846
 5952SOL     OW23573   6.201   3.445   1.064  0.1220 -0.2854  0.3882
 5952SOL    HW223574   6.150   3.461   1.143 -0.3028  0.5712 -0.0372
 5952SOL    HW323575   6.286   3.485   1.081 -0.0526  0.1214  0.3299
 5952SOL    MW423576   6.205   3.453   1.076  0.1176 -0.2876 -0.1809
 5953SOL     OW23577   6.102   2.036   3.107  0.1339  0.3494 -0.3563
 5953SOL    HW223578   6.100   1.949   3.145  2.1020 -0.5692 -2.1655
 5953SOL    HW323579   6.128   2.094   3.179  0.2705 -0.7711  0.5114
 5953SOL    MW423580   6.105   2.032   3.121 -0.0548  0.1576 -0.2210
 5954SOL     OW23581   5.924   1.961   1.187 -0.2120 -0.3540 -0.3841
 5954SOL    HW223582   5.957   1.982   1.274 -2.3631  2.1183 -0.0515
 5954SOL    HW323583   5.865   1.888   1.201  1.2877 -1.5966 -0.2371
 5954SOL    MW423584   5.921   1.954   1.200 -0.3830 -0.1550 -0.5054
 5955SOL     OW23585   1.006   5.788   0.947  0.1434 -0.3164 -0.2176
 5955SOL    HW223586   0.989   5.783   1.041  0.3964 -2.3046 -0.2453
 5955SOL    HW323587   1.044   5.876   0.935  1.5814 -0.5800  1.7937
 5955SOL    MW423588   1.009   5.799   0.958  0.0597 -0.0825 -0.1719
 5956SOL     OW23589   4.685   6.258   3.789  0.4340 -0.3642 -0.5416
 5956SOL    HW223590   4.633   6.217   3.858 -0.3790 -0.3623 -1.1391
 5956SOL    HW323591   4.621   6.300   3.731  1.0993 -0.3290 -1.2815
 5956SOL    MW423592   4.670   6.258   3.790  0.5623  0.1625  0.2745
 5957SOL     OW23593   4.847   1.141   3.042  0.3053 -0.1074  0.0765
 5957SOL    HW223594   4.875   1.214   3.097 -0.4812 -0.6136  1.1908
 5957SOL    HW323595   4.832   1.069   3.104 -1.5600 -0.4036 -0.6546
 5957SOL    MW423596   4.849   1.141   3.058  0.7098  0.0756 -0.6036
 5958SOL     OW23597   0.332   1.163   2.979  0.9460  0.1200 -0.7377
 5958SOL    HW223598   0.393   1.227   2.944 -1.1012  1.8251 -1.4015
 5958SOL    HW323599   0.254   1.172   2.925 -0.0693 -1.6760  0.3164
 5958SOL    MW423600   0.330   1.172   2.968 -0.2870 -0.0304  0.2973
 5959SOL     OW23601   2.451   2.430   5.101 -0.5386 -0.1508 -0.2219
 5959SOL    HW223602   2.357   2.431   5.117 -0.6613  0.2816 -0.9020
 5959SOL    HW323603   2.477   2.522   5.101 -0.3782 -0.1741 -1.4142
 5959SOL    MW423604   2.442   2.442   5.103 -0.0356  0.2405 -0.0776
 5960SOL     OW23605   4.548   3.195   0.801  0.4083 -0.2895  0.0924
 5960SOL    HW223606   4.634   3.206   0.841  0.0060  0.0782  0.8677
 5960SOL    HW323607   4.505   3.128   0.854  0.2227 -0.4883 -0.3054
 5960SOL    MW423608   4.553   3.187   0.813 -0.2546  0.3493 -0.1123
 5961SOL     OW23609   5.272   0.294   5.101  0.2971  0.0824 -0.6597
 5961SOL    HW223610   5.189   0.303   5.054  0.2980 -1.6943 -1.0533
 5961SOL    HW323611   5.288   0.381   5.138 -1.2650  0.6956 -1.3495
 5961SOL    MW423612   5.263   0.307   5.100  0.2834 -0.0238 -0.3622
 5962SOL     OW23613   3.836   2.416   6.297  0.2245  0.1012  0.1326
 5962SOL    HW223614   3.741   2.418   6.306  0.2736 -0.3380  0.8598
 5962SOL    HW323615   3.862   2.507   6.287 -0.3307  0.1695 -0.7708
 5962SOL    MW423616   3.827   2.428   6.297  0.0877  0.0493  0.5070
 5963SOL     OW23617   4.871   3.208   2.355  0.0302 -0.3895  0.1042
 5963SOL    HW223618   4.906   3.240   2.272  0.8253  0.4308  0.7352
 5963SOL    HW323619   4.914   3.123   2.368 -0.2378 -0.6075 -0.4046
 5963SOL    MW423620   4.882   3.201   2.345 -0.1783  0.4445 -0.3332
 5964SOL     OW23621   5.297   1.409   5.357 -0.2977  0.6001  0.0182
 5964SOL    HW223622   5.390   1.387   5.362 -0.1224  1.2790 -0.1251
 5964SOL    HW323623   5.271   1.383   5.269  0.0768  1.5772 -0.3951
 5964SOL    MW423624   5.306   1.403   5.346 -0.4877  0.1289 -0.4480
 5965SOL     OW23625   5.202   3.877   3.773  0.8022  0.6601  0.2432
 5965SOL    HW223626   5.245   3.824   3.705 -0.2768 -1.2232  0.9759
 5965SOL    HW323627   5.134   3.926   3.726 -0.9071 -1.7134  0.0975
 5965SOL    MW423628   5.199   3.877   3.758 -0.2598  0.1419  0.5518
 5966SOL     OW23629   3.148   2.622   6.154 -0.3152  0.0574 -0.4627
 5966SOL    HW223630   3.158   2.527   6.144 -1.1616 -0.2878  1.4945
 5966SOL    HW323631   3.057   2.634   6.181 -0.2014  1.4295 -0.6331
 5966SOL    MW423632   3.138   2.611   6.156  0.0960 -0.0685 -0.2477
 5967SOL     OW23633   3.544   5.996   4.690 -0.0175  0.5493  0.3844
 5967SOL    HW223634   3.479   5.990   4.759 -0.5153 -0.5437 -0.1509
 5967SOL    HW323635   3.591   5.913   4.694 -1.2270 -0.3193 -1.6837
 5967SOL    MW423636   3.542   5.984   4.699  0.5460  0.5990 -0.4044
 5968SOL     OW23637   3.331   3.660   0.445  0.6083  0.2211  0.4315
 5968SOL    HW223638   3.328   3.655   0.349  0.3743 -1.2389  0.5027
 5968SOL    HW323639   3.265   3.725   0.467 -0.7258 -0.8391 -0.3152
 5968SOL    MW423640   3.322   3.668   0.435  0.1331  0.0369  0.2352
 5969SOL     OW23641   0.617   1.717   3.490 -0.3132 -0.2418 -0.0020
 5969SOL    HW223642   0.623   1.783   3.559  0.4568 -1.3775  1.0545
 5969SOL    HW323643   0.624   1.766   3.408 -0.3219  1.0289  0.7413
 5969SOL    MW423644   0.619   1.732   3.488 -0.3891 -0.1367 -0.0826
 5970SOL     OW23645   1.343   3.925   2.358 -0.2153 -0.0750 -0.4698
 5970SOL    HW223646   1.250   3.906   2.345 -0.5437  0.7497  0.5355
 5970SOL    HW323647   1.371   3.966   2.277 -0.9071  0.3255 -0.5102
 5970SOL    MW423648   1.334   3.928   2.346  0.3580 -0.0879  0.2893
 5971SOL     OW23649   4.451   2.961   3.410  0.5867 -0.2047  0.1277
 5971SOL    HW223650   4.472   2.870   3.428  1.9856  0.1539  0.4413
 5971SOL    HW323651   4.454   3.005   3.495 -0.4487  0.0811  0.0364
 5971SOL    MW423652   4.454   2.955   3.423  0.2068 -0.0750 -0.2265
 5972SOL     OW23653   2.733   1.961   1.555 -0.5850 -0.3381  0.2754
 5972SOL    HW223654   2.682   2.007   1.622 -1.4999  0.3265 -0.8570
 5972SOL    HW323655   2.814   1.936   1.601 -0.8569  0.7647  1.4205
 5972SOL    MW423656   2.737   1.964   1.570  0.0664  0.1905 -0.3635
 5973SOL     OW23657   6.430   3.916   2.422  0.0449 -0.7275 -0.2575
 5973SOL    HW223658   6.517   3.878   2.412  0.2151 -0.8741  1.5422
 5973SOL    HW323659   6.420   3.931   2.516 -1.0690  1.2215 -0.6260
 5973SOL    MW423660   6.440   3.913   2.433  0.0822 -0.3836  0.2427
 5974SOL     OW23661   3.646   2.270   3.360  0.0464  0.5175  0.3072
 5974SOL    HW223662   3.685   2.184   3.346 -0.1832  0.5339 -0.5281
 5974SOL    HW323663   3.653   2.285   3.454 -1.3542 -1.1142  0.7283
 5974SOL    MW423664   3.652   2.260   3.370 -0.1032  0.2833  0.2073
 5975SOL     OW23665   2.400   3.968   3.457 -0.3646  0.3183  0.2729
 5975SOL    HW223666   2.378   3.888   3.504 -0.7188 -0.6082 -1.3954
 5975SOL    HW323667   2.431   4.028   3.525  1.3288 -1.7192  1.4019
 5975SOL    MW423668   2.401   3.965   3.472 -0.2716 -0.2264  0.0136
 5976SOL     OW23669   0.636   2.050   0.592 -0.0872 -0.0132 -0.0510
 5976SOL    HW223670   0.716   2.102   0.597 -0.6763  0.9183 -0.2686
 5976SOL    HW323671   0.663   1.963   0.622  0.9132  0.3923  0.2661
 5976SOL    MW423672   0.650   2.045   0.597 -0.5802  0.3459  0.1496
 5977SOL     OW23673   4.356   6.162   6.113 -0.5271  0.4139  0.6161
 5977SOL    HW223674   4.315   6.186   6.030  0.0900 -0.7429 -0.0592
 5977SOL    HW323675   4.362   6.066   6.110  2.0456  0.4934  0.7071
 5977SOL    MW423676   4.352   6.152   6.101  0.4824  0.3554 -0.1190
 5978SOL     OW23677   5.619   2.253   0.664 -0.9149  0.7031 -0.2359
 5978SOL    HW223678   5.535   2.262   0.710  0.4787  0.3245  2.5918
 5978SOL    HW323679   5.675   2.320   0.702  0.9067 -0.8975  0.0295
 5978SOL    MW423680   5.615   2.263   0.675  0.5085  0.1974  0.5379
 5979SOL     OW23681   6.221   2.010   6.399 -0.1125  0.1065 -0.5515
 5979SOL    HW223682   6.167   1.934   6.379 -1.5349  1.3366 -1.5904
 5979SOL    HW323683   6.159   2.082   6.408  1.1730  1.1179  0.6822
 5979SOL    MW423684   6.206   2.010   6.398  0.1177 -0.4274 -0.6786
 5980SOL     OW23685   4.683   4.731   1.974  0.0030 -0.0885  0.0455
 5980SOL    HW223686   4.602   4.725   1.924  0.9810 -1.8929 -1.4358
 5980SOL    HW323687   4.666   4.800   2.039 -4.3041 -3.3094  2.8423
 5980SOL    MW423688   4.670   4.740   1.976  0.7191  0.0296  0.2400
 5981SOL     OW23689   1.040   5.071   1.761  0.4992  0.2651  0.0909
 5981SOL    HW223690   1.130   5.100   1.775  0.3889  0.3740  0.5739
 5981SOL    HW323691   0.986   5.136   1.805  0.1721  0.3341 -0.4079
 5981SOL    MW423692   1.045   5.083   1.768 -0.1655 -0.6370  0.2345
 5982SOL     OW23693   3.919   2.603   4.605  0.5510  0.1277  0.1036
 5982SOL    HW223694   3.911   2.508   4.605 -0.4032  0.1963  0.7669
 5982SOL    HW323695   3.955   2.625   4.691  1.5794  0.3295 -0.3512
 5982SOL    MW423696   3.923   2.594   4.616 -0.0324 -0.1682  0.5322
 5983SOL     OW23697   1.004   6.366   0.352  0.0513 -0.0716 -0.1658
 5983SOL    HW223698   1.066   6.306   0.310 -0.3882 -0.4601 -0.2715
 5983SOL    HW323699   1.010   6.446   0.301  0.1380 -0.2565 -0.4511
 5983SOL    MW423700   1.013   6.368   0.340 -0.2635  0.2198 -0.0413
 5984SOL     OW23701   4.672   1.444   2.760  0.2345 -0.2069  0.1703
 5984SOL    HW223702   4.637   1.370   2.810 -0.0339  0.3448  0.8208
 5984SOL    HW323703   4.726   1.491   2.823 -0.3187  0.6429  0.0207
 5984SOL    MW423704   4.674   1.440   2.775 -0.2802  0.0115  0.2937
 5985SOL     OW23705   0.388   3.796   5.225 -0.1400 -0.3338  0.3150
 5985SOL    HW223706   0.372   3.840   5.309 -1.7304  2.2884 -1.2299
 5985SOL    HW323707   0.304   3.799   5.180  1.0881 -0.0548 -2.0789
 5985SOL    MW423708   0.375   3.802   5.230 -0.1673  0.3001  0.1892
 5986SOL     OW23709   3.550   1.163   0.877  0.1234  0.3721  0.7436
 5986SOL    HW223710   3.640   1.194   0.883  0.3454 -0.3948  1.4747
 5986SOL    HW323711   3.511   1.185   0.962 -0.2907  0.4170  0.5465
 5986SOL    MW423712   3.557   1.170   0.889  0.6755 -0.5808  0.2114
 5987SOL     OW23713   0.665   5.556   4.596 -0.2480 -0.7170 -0.5310
 5987SOL    HW223714   0.758   5.546   4.575  0.0405 -0.2603  0.4648
 5987SOL    HW323715   0.626   5.594   4.518  0.2298 -1.7449 -1.2903
 5987SOL    MW423716   0.673   5.559   4.583  0.2989 -1.1735  0.4311
 5988SOL     OW23717   3.060   0.051   5.026 -0.2354  0.0521  0.1741
 5988SOL    HW223718   3.110  -0.022   4.990  0.8378  0.1112  1.4675
 5988SOL    HW323719   3.024   0.017   5.108 -2.0529  0.1341 -0.5323
 5988SOL    MW423720   3.062   0.036   5.032  0.0489  0.0758 -0.0246
 5989SOL     OW23721   4.771   0.664   4.412  0.1254 -0.6726 -0.1779
 5989SOL    HW223722   4.760   0.574   4.445 -3.0037  0.2244  1.6103
 5989SOL    HW323723   4.718   0.668   4.333 -0.0364 -0.2965 -0.0522
 5989SOL    MW423724   4.763   0.652   4.406  0.0729  0.1474  0.8336
 5990SOL     OW23725   1.288   1.928   4.961 -0.0075  0.0582  0.5241
 5990SOL    HW223726   1.344   1.971   4.897 -0.4084 -0.0915  0.0647
 5990SOL    HW323727   1.207   1.909   4.913  0.1244 -1.1129  0.7434
 5990SOL    MW423728   1.285   1.931   4.946 -0.0404 -0.4742  0.2017
 5991SOL     OW23729   5.102   1.581   0.809  0.8453 -0.4198  0.2214
 5991SOL    HW223730   5.039   1.653   0.804  0.7272 -0.6320 -3.1216
 5991SOL    HW323731   5.186   1.623   0.829  1.1776  1.1011 -3.5595
 5991SOL    MW423732   5.105   1.596   0.811  0.3738 -0.0643  0.0919
 5992SOL     OW23733   4.133   1.383   3.762  0.1601  0.5948  0.2674
 5992SOL    HW223734   4.220   1.346   3.751  0.0970  0.6992 -0.6985
 5992SOL    HW323735   4.117   1.431   3.681 -0.4930  1.2107  0.7445
 5992SOL    MW423736   4.142   1.385   3.750 -0.3122 -0.6508  0.2731
 5993SOL     OW23737   5.310   3.593   3.191  0.3911 -0.2290 -0.4421
 5993SOL    HW223738   5.247   3.564   3.258 -0.6792 -1.0080 -1.7419
 5993SOL    HW323739   5.388   3.540   3.208 -0.0424 -0.7755 -0.1194
 5993SOL    MW423740   5.312   3.582   3.202  0.6264  0.6941  0.1773
 5994SOL     OW23741   5.164   3.240   5.103 -1.2653  0.0093 -0.1840
 5994SOL    HW223742   5.234   3.266   5.043 -1.7829 -1.6429 -1.5839
 5994SOL    HW323743   5.181   3.290   5.183  1.9847 -0.9163 -0.1602
 5994SOL    MW423744   5.175   3.250   5.106  0.0048 -0.0745  0.1941
 5995SOL     OW23745   3.709   5.408   2.235 -0.2350  0.0923 -0.5480
 5995SOL    HW223746   3.724   5.469   2.307 -1.8785  1.5300 -1.3591
 5995SOL    HW323747   3.655   5.339   2.272  0.4716 -0.1710  0.0251
 5995SOL    MW423748   3.704   5.407   2.249 -0.1646 -0.6065 -0.0052
 5996SOL     OW23749   0.624   2.776   1.336 -0.4387 -0.0783 -0.6508
 5996SOL    HW223750   0.629   2.868   1.362 -0.5698  0.1617 -1.4544
 5996SOL    HW323751   0.675   2.771   1.255  0.4273 -0.9214 -0.0711
 5996SOL    MW423752   0.631   2.787   1.329 -0.1307 -0.2311  0.2905
 5997SOL     OW23753   3.258   5.590   1.940 -0.6086 -0.3010  0.0639
 5997SOL    HW223754   3.303   5.593   2.024 -0.0966 -0.8700 -0.1774
 5997SOL    HW323755   3.229   5.680   1.924  0.1782  0.0164  0.3765
 5997SOL    MW423756   3.260   5.602   1.949 -0.2006  0.0287 -0.0061
 5998SOL     OW23757   1.367   1.246   0.841  0.1821  0.3903  0.3659
 5998SOL    HW223758   1.382   1.269   0.932 -0.5051  0.7447  0.3930
 5998SOL    HW323759   1.344   1.153   0.843 -0.3126  0.5149  0.6109
 5998SOL    MW423760   1.366   1.236   0.853 -0.3862  0.2302 -0.2766
 5999SOL     OW23761   4.489   1.344   0.145 -0.1784 -0.0856 -0.2697
 5999SOL    HW223762   4.498   1.434   0.178  2.6038  0.0843 -1.1338
 5999SOL    HW323763   4.561   1.336   0.082  1.1779 -3.6785  1.5084
 5999SOL    MW423764   4.500   1.355   0.141  0.3347  0.2190 -0.0694
 6000SOL     OW23765   2.287   1.304   4.027 -0.4599  0.2801  0.1754
 6000SOL    HW223766   2.351   1.358   4.074 -0.5431  0.3429  0.2159
 6000SOL    HW323767   2.203   1.326   4.067 -0.6656  1.0444 -0.6453
 6000SOL    MW423768   2.285   1.314   4.039  0.2036 -0.4824  0.6489
 6001SOL     OW23769   3.506   3.178   5.697  0.0194 -0.1238  0.2038
 6001SOL    HW223770   3.573   3.182   5.629  1.1317 -0.3657  1.2547
 6001SOL    HW323771   3.505   3.267   5.735  0.5659 -0.4103  0.9265
 6001SOL    MW423772   3.515   3.191   5.693  0.0419  0.1994 -0.3224
 6002SOL     OW23773   3.441   5.295   2.849 -0.0354 -0.2609  0.2352
 6002SOL    HW223774   3.500   5.223   2.871  1.0834  0.3114 -0.7661
 6002SOL    HW323775   3.499   5.365   2.818 -1.2341  0.3169 -0.7974
 6002SOL    MW423776   3.457   5.294   2.848 -0.2591  0.1732 -0.2629
 6003SOL     OW23777   0.829   3.544   5.166 -0.0341  0.3906  0.6444
 6003SOL    HW223778   0.750   3.580   5.206  0.1224  2.0410 -0.4372
 6003SOL    HW323779   0.806   3.531   5.074  0.4089 -0.8898  0.6883
 6003SOL    MW423780   0.815   3.547   5.159  0.0656  0.1501 -0.7866
 6004SOL     OW23781   4.687   2.327   1.338 -0.6037 -0.3971  0.2296
 6004SOL    HW223782   4.772   2.357   1.370 -0.8789  0.2084  0.4137
 6004SOL    HW323783   4.648   2.405   1.298 -0.7739 -0.8415 -0.5017
 6004SOL    MW423784   4.693   2.341   1.337 -0.6597  0.2154  0.0096
 6005SOL     OW23785   4.613   1.482   5.445  0.0803  0.0608 -0.9456
 6005SOL    HW223786   4.580   1.563   5.407  1.6183  0.9539 -0.4324
 6005SOL    HW323787   4.538   1.444   5.490 -0.4998  1.5093 -0.6672
 6005SOL    MW423788   4.599   1.487   5.446 -0.0180 -0.2552 -0.2028
 6006SOL     OW23789   3.254   3.799   4.290  0.3096  0.6676 -0.3580
 6006SOL    HW223790   3.240   3.732   4.358  0.2693  0.5985 -0.4343
 6006SOL    HW323791   3.237   3.882   4.334 -2.4498  0.5106 -0.9769
 6006SOL    MW423792   3.250   3.801   4.305 -0.5483 -0.2854 -0.1935
 6007SOL     OW23793   5.261   1.813   5.217 -0.5122 -0.3587 -0.1498
 6007SOL    HW223794   5.204   1.884   5.186 -0.1530  0.5705  1.2023
 6007SOL    HW323795   5.323   1.798   5.146 -0.0348  1.3292 -0.1272
 6007SOL    MW423796   5.261   1.821   5.204 -0.4114  0.0721  0.1264
 6008SOL     OW23797   1.209   2.210   3.776 -0.2574 -0.4217 -0.0902
 6008SOL    HW223798   1.155   2.191   3.700 -0.1994  1.5666 -0.6815
 6008SOL    HW323799   1.297   2.222   3.741 -0.1731  0.2208  0.3166
 6008SOL    MW423800   1.214   2.209   3.761  0.1365  0.0149  0.3901
 6009SOL     OW23801   2.502   2.673   2.016  0.1320 -0.2243  0.1156
 6009SOL    HW223802   2.456   2.689   1.933 -0.7870  0.9667  0.8254
 6009SOL    HW323803   2.595   2.677   1.993 -0.1004  0.9942 -0.7188
 6009SOL    MW423804   2.508   2.675   2.002  0.0039 -0.4618  0.2995
 6010SOL     OW23805   5.924   4.001   0.728 -0.0468  0.4143 -0.0785
 6010SOL    HW223806   5.958   3.922   0.686 -1.6513 -2.0122  2.8253
 6010SOL    HW323807   5.992   4.027   0.790  0.7656  1.8412 -1.4768
 6010SOL    MW423808   5.938   3.994   0.730  0.3771  0.4269 -0.9973
 6011SOL     OW23809   4.930   2.749   5.667  0.7142 -0.4297  0.1561
 6011SOL    HW223810   4.944   2.727   5.759 -0.3413  0.8092  0.6526
 6011SOL    HW323811   4.836   2.738   5.654  0.6131  0.8645 -0.3418
 6011SOL    MW423812   4.920   2.745   5.678  0.0137 -0.2582  1.0050
 6012SOL     OW23813   5.969   5.130   3.867 -0.0657  0.3553  0.1238
 6012SOL    HW223814   5.919   5.114   3.787  1.9306 -1.4914 -0.8577
 6012SOL    HW323815   6.010   5.046   3.887  2.0195  1.5550  1.2675
 6012SOL    MW423816   5.968   5.117   3.859  0.1433 -0.1307 -0.2617
 6013SOL     OW23817   5.009   3.954   2.484 -0.0080 -0.7150 -0.2566
 6013SOL    HW223818   5.028   3.866   2.516  0.4877 -0.8086 -0.7805
 6013SOL    HW323819   5.063   4.012   2.538  1.2579 -0.9192 -1.2478
 6013SOL    MW423820   5.019   3.950   2.495 -0.2736 -0.7684  0.0203
 6014SOL     OW23821   0.806   5.371   2.223  0.5379 -0.6735 -0.4540
 6014SOL    HW223822   0.763   5.392   2.305  1.2740  2.3064 -0.7328
 6014SOL    HW323823   0.734   5.352   2.162 -0.0093 -2.9688  0.7716
 6014SOL    MW423824   0.791   5.371   2.225 -0.1997 -0.5281  0.0836
 6015SOL     OW23825   3.674   0.148   3.277 -0.3073  0.3854 -0.1138
 6015SOL    HW223826   3.595   0.115   3.235  0.7706 -0.2904 -1.7647
 6015SOL    HW323827   3.677   0.103   3.361 -0.8201 -0.8906 -0.7486
 6015SOL    MW423828   3.664   0.137   3.282 -0.3332 -0.2733 -0.1840
 6016SOL     OW23829   5.169   2.344   4.815  0.5787 -0.1699 -0.1123
 6016SOL    HW223830   5.096   2.287   4.789  1.3128 -1.7469  1.0807
 6016SOL    HW323831   5.134   2.397   4.886  0.4696 -0.6399  0.1910
 6016SOL    MW423832   5.155   2.343   4.821  0.4320  0.0607  0.1662
 6017SOL     OW23833   4.049   5.696   4.206 -0.0805  0.2883  0.0775
 6017SOL    HW223834   4.058   5.762   4.274 -1.8256 -1.0040  1.6564
 6017SOL    HW323835   3.955   5.680   4.200  0.1732 -0.9729 -1.3280
 6017SOL    MW423836   4.038   5.702   4.214 -0.0302 -0.4283  0.5794
 6018SOL     OW23837   2.259   4.014   1.512  0.2418  0.4559 -0.0723
 6018SOL    HW223838   2.264   4.037   1.420  3.1087  0.0504 -0.0901
 6018SOL    HW323839   2.213   3.930   1.514 -2.8363  1.9674 -0.7199
 6018SOL    MW423840   2.253   4.006   1.500 -0.0740 -0.3214 -0.2977
 6019SOL     OW23841   5.341   0.545   5.203 -0.4161  0.4300  0.1637
 6019SOL    HW223842   5.406   0.594   5.152 -0.2615  3.1138  2.6268
 6019SOL    HW323843   5.257   0.566   5.162 -0.0124 -0.9504 -1.4725
 6019SOL    MW423844   5.339   0.554   5.191  0.3848 -0.1495  0.0811
 6020SOL     OW23845   6.363   0.727   3.131  0.0940 -0.1175 -0.7869
 6020SOL    HW223846   6.336   0.649   3.083  0.6297 -0.5379 -0.4250
 6020SOL    HW323847   6.381   0.793   3.064 -0.8723 -0.1348 -1.0687
 6020SOL    MW423848   6.362   0.726   3.116 -0.5483  0.0473  1.1858
 6021SOL     OW23849   2.072   1.929   1.649  0.0675  0.2535  0.5132
 6021SOL    HW223850   2.042   1.923   1.558  0.8269 -3.4109  0.3493
 6021SOL    HW323851   2.156   1.975   1.643  0.7979 -1.1672 -0.8972
 6021SOL    MW423852   2.079   1.935   1.636 -0.3922  0.0705 -0.2312
 6022SOL     OW23853   5.205   6.400   0.181 -0.6727  0.3012  0.1144
 6022SOL    HW223854   5.164   6.453   0.113 -0.5053  0.7929  0.3894
 6022SOL    HW323855   5.156   6.318   0.180  0.0602 -0.1438 -1.3644
 6022SOL    MW423856   5.193   6.396   0.172 -0.3801 -0.5792 -0.0819
 6023SOL     OW23857   0.936   3.684   5.763  0.2711 -1.0700 -0.2895
 6023SOL    HW223858   0.984   3.641   5.692  0.7437 -1.0019 -0.0200
 6023SOL    HW323859   0.877   3.616   5.797  0.1144 -1.1305 -0.6811
 6023SOL    MW423860   0.935   3.669   5.758  0.0719 -0.1041  0.1219
 6024SOL     OW23861   3.672   2.868   1.463 -0.6459 -0.0777  0.3532
 6024SOL    HW223862   3.690   2.867   1.369 -0.3042  0.1141  0.4135
 6024SOL    HW323863   3.590   2.820   1.473 -1.0392  0.4931 -0.1162
 6024SOL    MW423864   3.664   2.861   1.452 -0.1282  0.0535  0.3356
 6025SOL     OW23865   5.668   0.122   5.425  0.1677  0.5240 -0.0519
 6025SOL    HW223866   5.640   0.212   5.439  0.0229  0.4758 -0.0313
 6025SOL    HW323867   5.758   0.119   5.456 -0.4217  0.1920  1.7415
 6025SOL    MW423868   5.676   0.133   5.431  0.6026 -0.3287 -0.0900
 6026SOL     OW23869   1.437   4.705   0.788 -0.2341 -0.3078  0.4089
 6026SOL    HW223870   1.475   4.706   0.876 -2.3986  1.3649  1.4176
 6026SOL    HW323871   1.445   4.796   0.757 -0.2304 -0.6974 -0.8075
 6026SOL    MW423872   1.443   4.717   0.795  0.0311  0.0491  0.2739
 6027SOL     OW23873   2.922   2.707   2.207  0.1173 -0.0961 -0.1428
 6027SOL    HW223874   2.952   2.631   2.256 -0.4337  0.3908  0.9815
 6027SOL    HW323875   2.878   2.762   2.271 -1.8642 -0.0696 -1.4346
 6027SOL    MW423876   2.920   2.704   2.222 -0.7940  0.6766  0.1745
 6028SOL     OW23877   3.548   4.425   0.997 -0.0521  0.6672  0.0651
 6028SOL    HW223878   3.478   4.410   0.933 -1.0066  0.2351  1.1621
 6028SOL    HW323879   3.510   4.396   1.080  1.0773  1.4116  0.8644
 6028SOL    MW423880   3.534   4.419   0.999 -0.0852  0.2400 -0.3726
 6029SOL     OW23881   0.766   3.380   4.095  0.1969  0.5868  0.2108
 6029SOL    HW223882   0.781   3.305   4.037 -1.1611 -0.3583  1.0350
 6029SOL    HW323883   0.773   3.344   4.183  0.6253  1.6810  0.6428
 6029SOL    MW423884   0.769   3.365   4.099  0.1449 -0.0055 -0.3057
 6030SOL     OW23885   2.661   4.300   3.391 -0.4339 -0.1221  0.2673
 6030SOL    HW223886   2.683   4.365   3.458  0.6047  0.5640 -0.7092
 6030SOL    HW323887   2.735   4.239   3.393 -0.7792 -0.5467  0.2712
 6030SOL    MW423888   2.674   4.300   3.400  0.1984  0.0488 -0.0670
 6031SOL     OW23889   1.667   3.626   5.274 -0.4306  0.4332  0.7275
 6031SOL    HW223890   1.760   3.607   5.288 -0.7406 -1.3463  0.6685
 6031SOL    HW323891   1.660   3.721   5.282  1.2979  0.5473  1.2901
 6031SOL    MW423892   1.679   3.636   5.277  0.0898  0.2488  0.7117
 6032SOL     OW23893   4.127   5.783   6.271  0.1222 -0.4813 -0.4558
 6032SOL    HW223894   4.192   5.829   6.325 -0.7208 -0.5530  0.6583
 6032SOL    HW323895   4.149   5.690   6.281 -1.6685 -0.7332  2.0940
 6032SOL    MW423896   4.139   5.777   6.279  0.5313  0.1654  0.1700
 6033SOL     OW23897   1.187   5.221   5.251  0.2124 -0.5258 -0.0251
 6033SOL    HW223898   1.209   5.251   5.339 -0.8237  0.9594 -0.2384
 6033SOL    HW323899   1.222   5.290   5.193 -1.9898  0.2144 -0.5557
 6033SOL    MW423900   1.195   5.234   5.255  0.0677  0.4056 -0.3929
 6034SOL     OW23901   2.512   3.345   4.287 -0.2533  0.1151  0.1427
 6034SOL    HW223902   2.600   3.369   4.257 -0.2792  2.4845  1.7308
 6034SOL    HW323903   2.481   3.283   4.220  1.9468  0.4909 -1.3693
 6034SOL    MW423904   2.519   3.340   4.274  0.6312  0.1517 -0.3359
 6035SOL     OW23905   2.814   1.263   5.479 -0.0113  0.2541 -0.2551
 6035SOL    HW223906   2.823   1.301   5.567 -1.0763  0.6728 -0.3164
 6035SOL    HW323907   2.885   1.302   5.429  1.1026 -0.5900  0.6098
 6035SOL    MW423908   2.825   1.273   5.484  0.0241 -0.2480 -0.2088
 6036SOL     OW23909   2.518   5.034   5.320  0.4118  0.0995 -0.5680
 6036SOL    HW223910   2.474   5.090   5.384  2.7703  0.1711  1.1181
 6036SOL    HW323911   2.532   5.090   5.244 -1.3676  0.3728 -0.7213
 6036SOL    MW423912   2.514   5.049   5.319 -0.1817  0.5979  0.0398
 6037SOL     OW23913   1.564   4.321   5.069 -0.2410 -0.2075 -0.2519
 6037SOL    HW223914   1.526   4.385   5.009  1.2325  0.7901 -0.1651
 6037SOL    HW323915   1.508   4.324   5.146 -0.7627  0.2594 -0.6428
 6037SOL    MW423916   1.552   4.330   5.071  0.5395  0.0639  0.3875
 6038SOL     OW23917   2.418   4.066   4.704  0.4572 -0.1608  0.0641
 6038SOL    HW223918   2.453   4.143   4.748 -0.7791  0.0855  0.6729
 6038SOL    HW323919   2.433   4.082   4.611  0.7548  0.5365  0.2294
 6038SOL    MW423920   2.424   4.078   4.698  0.1618  0.0275 -0.0867
 6039SOL     OW23921   3.617   3.373   0.219  0.6863 -0.4171  0.2554
 6039SOL    HW223922   3.627   3.439   0.288  1.4543 -0.5753  0.2956
 6039SOL    HW323923   3.693   3.384   0.163  0.8908 -1.3521  0.3316
 6039SOL    MW423924   3.628   3.383   0.221 -1.3673 -0.0998  0.1151
 6040SOL     OW23925   2.082   6.314   4.244 -0.3260  0.2910  0.2192
 6040SOL    HW223926   2.050   6.271   4.324 -0.2043 -1.0884 -0.4323
 6040SOL    HW323927   2.156   6.366   4.274 -0.9622  0.6918  1.1746
 6040SOL    MW423928   2.087   6.315   4.259  0.1801 -0.4023  0.0251
 6041SOL     OW23929   3.870   1.886   0.593  0.3119  0.3324 -0.3650
 6041SOL    HW223930   3.828   1.904   0.509  0.1897  0.1681 -0.3411
 6041SOL    HW323931   3.920   1.806   0.578 -0.7447 -0.4276  0.0649
 6041SOL    MW423932   3.871   1.878   0.580  0.0233  0.7175  0.5844
 6042SOL     OW23933   2.272   1.559   2.093  0.3793  0.4978 -0.0056
 6042SOL    HW223934   2.270   1.564   1.998  2.9916  0.0954 -0.1382
 6042SOL    HW323935   2.241   1.471   2.114  0.3353  0.3965 -0.5051
 6042SOL    MW423936   2.267   1.548   2.083  0.3331  0.5119  0.4971
 6043SOL     OW23937   0.986   5.867   6.361  0.2601  0.0729 -0.1279
 6043SOL    HW223938   0.994   5.939   6.297  2.8968 -0.4752 -0.4984
 6043SOL    HW323939   0.927   5.902   6.428 -1.7694  1.0570 -2.2832
 6043SOL    MW423940   0.979   5.881   6.361  0.1948 -0.2119  0.5164
 6044SOL     OW23941   6.024   5.876   4.740 -0.4466 -0.0026 -0.2051
 6044SOL    HW223942   6.027   5.795   4.689 -2.9430  0.4101 -1.1408
 6044SOL    HW323943   5.966   5.856   4.813  0.0363  0.5433  0.3377
 6044SOL    MW423944   6.017   5.863   4.743 -0.2026  0.1154 -0.2176
 6045SOL     OW23945   1.369   3.108   0.695  0.4902 -0.4200  0.4038
 6045SOL    HW223946   1.324   3.141   0.773  0.3947 -2.2035  1.1522
 6045SOL    HW323947   1.299   3.073   0.640  0.4069  2.0019 -1.1583
 6045SOL    MW423948   1.354   3.107   0.698  0.3509  0.0112 -0.3216
 6046SOL     OW23949   0.492   4.920   5.694  0.7580  0.2689  0.0798
 6046SOL    HW223950   0.546   4.870   5.634  1.1304  0.3469  0.3470
 6046SOL    HW323951   0.485   4.865   5.772  0.8814  0.4814  0.2420
 6046SOL    MW423952   0.498   4.907   5.696 -0.5234  0.1115 -0.3058
 6047SOL     OW23953   6.224   4.710   1.555 -1.1681  0.1901 -0.6387
 6047SOL    HW223954   6.286   4.656   1.506 -0.4673  1.1253 -0.8194
 6047SOL    HW323955   6.168   4.749   1.489 -0.2090  1.4687 -0.7433
 6047SOL    MW423956   6.225   4.708   1.540 -0.2812  0.2207  0.2154
 6048SOL     OW23957   4.441   1.957   1.368 -0.4111  0.4586  0.6196
 6048SOL    HW223958   4.394   2.036   1.344  0.5805  0.7529 -0.3928
 6048SOL    HW323959   4.406   1.935   1.455 -1.2233  1.5737  0.6038
 6048SOL    MW423960   4.430   1.964   1.377 -0.2433  0.2602 -0.5748
 6049SOL     OW23961   2.680   1.446   4.421 -0.3280 -0.1694  0.1306
 6049SOL    HW223962   2.632   1.472   4.500 -0.2075  0.1411  0.1057
 6049SOL    HW323963   2.764   1.492   4.429 -0.5479  0.3466 -0.4797
 6049SOL    MW423964   2.685   1.456   4.433  0.7205  0.0222 -0.0201
 6050SOL     OW23965   1.101   3.986   1.296 -0.5078  0.1773  0.2575
 6050SOL    HW223966   1.090   4.078   1.273 -1.8385 -0.5300 -2.3045
 6050SOL    HW323967   1.025   3.966   1.350 -0.7489  0.3536 -0.0133
 6050SOL    MW423968   1.089   3.995   1.300 -0.2342 -0.0280 -0.0324
 6051SOL     OW23969   4.690   3.309   5.225  0.4460 -0.6140 -0.3622
 6051SOL    HW223970   4.734   3.243   5.279  0.7806 -1.5230 -1.6666
 6051SOL    HW323971   4.729   3.297   5.138  0.2997  1.1299 -0.7001
 6051SOL    MW423972   4.701   3.299   5.220 -0.0784  0.3473 -0.1652
 6052SOL     OW23973   3.365   0.465   4.381 -0.1592 -0.0577  0.6752
 6052SOL    HW223974   3.272   0.476   4.359 -0.6050 -0.2749  2.2976
 6052SOL    HW323975   3.390   0.383   4.338 -0.9751 -0.4731  0.9729
 6052SOL    MW423976   3.356   0.456   4.372 -0.0779 -0.0864 -0.2938
 6053SOL     OW23977   0.275   6.227   5.010  0.2264  0.0410  0.1716
 6053SOL    HW223978   0.256   6.295   4.946 -2.9152 -0.8013  0.0789
 6053SOL    HW323979   0.366   6.244   5.036  0.3956  2.6524 -1.7220
 6053SOL    MW423980   0.285   6.238   5.005  0.2042 -0.4013  0.2600
 6054SOL     OW23981   5.324   5.254   1.716 -0.1540  0.4166  0.1247
 6054SOL    HW223982   5.390   5.269   1.649  0.4348  0.6564  0.7474
 6054SOL    HW323983   5.271   5.182   1.683  1.5022 -0.9778  0.4021
 6054SOL    MW423984   5.326   5.247   1.703  0.0802  0.2053 -0.7892
 6055SOL     OW23985   1.064   4.375   5.329  0.8056  0.3276 -0.0072
 6055SOL    HW223986   1.073   4.279   5.334 -0.8346  0.0094 -1.8176
 6055SOL    HW323987   1.133   4.401   5.267 -0.1878 -0.0118 -1.2936
 6055SOL    MW423988   1.075   4.366   5.321  0.6181  0.3031  0.1026
 6056SOL     OW23989   1.238   0.818   5.125  0.3963 -0.0625  0.3058
 6056SOL    HW223990   1.308   0.764   5.089  2.8668  2.0763  1.5527
 6056SOL    HW323991   1.202   0.865   5.050 -0.0891 -1.5047 -0.4125
 6056SOL    MW423992   1.243   0.817   5.111 -0.3242 -0.7860 -0.3146
 6057SOL     OW23993   4.141   1.037   0.130  0.2157 -0.0182  0.7555
 6057SOL    HW223994   4.235   1.021   0.130  0.3089  0.5248  0.9084
 6057SOL    HW323995   4.129   1.112   0.188 -0.3787 -0.4641  1.2184
 6057SOL    MW423996   4.152   1.045   0.138  0.3421 -0.1733  0.2660
 6058SOL     OW23997   4.261   3.732   2.597  1.1004 -1.1524 -0.0852
 6058SOL    HW223998   4.259   3.783   2.516  1.6554  1.7664  1.5699
 6058SOL    HW323999   4.181   3.680   2.594  0.5979 -0.3801 -2.0370
 6058SOL    MW424000   4.250   3.732   2.586  0.4211 -0.0809 -0.1768
 6059SOL     OW24001   6.280   2.991   5.245 -0.2432 -0.2165 -0.6126
 6059SOL    HW224002   6.351   2.947   5.199 -0.4293 -0.0782 -1.0407
 6059SOL    HW324003   6.302   3.084   5.242  1.5464 -0.4087  2.6619
 6059SOL    MW424004   6.292   2.997   5.239  0.3192 -0.0788  0.0370
 6060SOL     OW24005   6.228   4.909   4.643  0.0775  0.2764 -0.5073
 6060SOL    HW224006   6.151   4.962   4.662  2.1797  3.1421  0.7201
 6060SOL    HW324007   6.227   4.840   4.710 -0.6437  1.1604  0.4288
 6060SOL    MW424008   6.218   4.907   4.654  0.1001  0.4340  0.0609
 6061SOL     OW24009   1.255   3.768   4.506  0.0549  0.3806 -0.0601
 6061SOL    HW224010   1.319   3.812   4.562  0.8119  0.4398 -0.9355
 6061SOL    HW324011   1.269   3.675   4.523  0.2753  0.3981 -0.1404
 6061SOL    MW424012   1.265   3.762   4.515 -0.1506  0.4413  0.2811
 6062SOL     OW24013   5.131   0.890   0.600  0.3513  0.0197  0.1525
 6062SOL    HW224014   5.173   0.911   0.683 -0.1716  2.0346 -0.0378
 6062SOL    HW324015   5.073   0.817   0.621  0.9685 -0.1649  1.3186
 6062SOL    MW424016   5.129   0.883   0.614 -0.0430  0.0294 -0.4418
 6063SOL     OW24017   4.337   2.230   1.263 -0.0333 -0.4957  0.3576
 6063SOL    HW224018   4.369   2.289   1.195  1.3628 -0.6557  0.8433
 6063SOL    HW324019   4.373   2.265   1.344  0.1801 -1.5676  0.7429
 6063SOL    MW424020   4.346   2.243   1.264  0.5675  0.5423 -0.0835
 6064SOL     OW24021   0.800   0.992   6.301  0.3304  0.5739  0.1514
 6064SOL    HW224022   0.775   0.972   6.391 -0.1403  1.1936  0.1632
 6064SOL    HW324023   0.858   0.919   6.275 -0.1275  0.0088  0.6970
 6064SOL    MW424024   0.805   0.980   6.309 -0.3393 -0.0465  0.2169
 6065SOL     OW24025   4.441   6.323   5.303  0.3774  0.1532  0.1354
 6065SOL    HW224026   4.497   6.384   5.254 -0.6829  0.4078 -0.8230
 6065SOL    HW324027   4.372   6.379   5.339 -0.0542 -0.3470  0.0846
 6065SOL    MW424028   4.439   6.339   5.301  0.3789  0.3350 -0.2820
 6066SOL     OW24029   0.101   0.582   5.660 -0.2422  0.2571  0.1979
 6066SOL    HW224030   0.083   0.538   5.743  1.6339 -1.5723 -0.2698
 6066SOL    HW324031   0.044   0.538   5.597  0.5590 -0.5196 -0.0028
 6066SOL    MW424032   0.091   0.570   5.662 -0.1340  0.0641 -0.7535
 6067SOL     OW24033   2.821   6.279   3.101  0.1825 -0.1501  0.2814
 6067SOL    HW224034   2.772   6.213   3.149  0.8886  1.3055  3.1964
 6067SOL    HW324035   2.754   6.330   3.055 -0.4666 -1.9156 -0.8341
 6067SOL    MW424036   2.806   6.277   3.101 -0.8343  0.1720 -0.0101
 6068SOL     OW24037   2.041   4.417   2.731 -0.5137 -0.2150 -0.1434
 6068SOL    HW224038   1.947   4.402   2.724 -0.6769 -0.5659  2.1164
 6068SOL    HW324039   2.049   4.497   2.784  0.4778  0.5423 -1.3615
 6068SOL    MW424040   2.030   4.426   2.737  0.4260  0.0502  0.5205
 6069SOL     OW24041   6.041   5.930   5.474 -0.5226 -0.2653 -0.3131
 6069SOL    HW224042   6.124   5.950   5.519 -0.2353 -0.4335 -0.7561
 6069SOL    HW324043   5.974   5.975   5.525 -0.1179  0.1414 -0.1336
 6069SOL    MW424044   6.043   5.938   5.486  0.3057  0.5382 -0.1166
 6070SOL     OW24045   4.569   3.383   0.482  0.2578  0.9499 -0.0881
 6070SOL    HW224046   4.486   3.349   0.516  0.0430  1.7594  0.2497
 6070SOL    HW324047   4.543   3.456   0.426  0.6920  0.4688 -0.9290
 6070SOL    MW424048   4.554   3.388   0.479  0.2375  0.0249  0.9567
 6071SOL     OW24049   0.683   0.573   2.301 -0.2732  0.6305 -0.0414
 6071SOL    HW224050   0.711   0.578   2.392  0.8585  0.2895 -0.3557
 6071SOL    HW324051   0.698   0.660   2.265 -2.3655  1.2826  0.5235
 6071SOL    MW424052   0.689   0.585   2.308 -0.8520  0.4311 -0.3379
 6072SOL     OW24053   4.831   2.494   2.267  0.1021  0.4203  0.2498
 6072SOL    HW224054   4.787   2.465   2.187 -0.1382 -2.0797  1.2067
 6072SOL    HW324055   4.761   2.522   2.325 -0.1682 -1.8426  1.1039
 6072SOL    MW424056   4.816   2.494   2.264 -0.1465  0.2594  0.1088
 6073SOL     OW24057   4.262   2.088   6.204 -0.5933  0.2235 -0.0889
 6073SOL    HW224058   4.354   2.081   6.178 -0.0628  0.4522  1.5693
 6073SOL    HW324059   4.230   1.998   6.203 -0.1399  0.0566  0.0233
 6073SOL    MW424060   4.270   2.076   6.201 -0.2706  0.5937  0.5260
 6074SOL     OW24061   3.815   1.293   0.893 -0.2987  0.3207  0.3391
 6074SOL    HW224062   3.835   1.369   0.839  0.9532 -0.0232  0.2924
 6074SOL    HW324063   3.863   1.308   0.975 -1.5681  0.4730  1.0897
 6074SOL    MW424064   3.824   1.305   0.897 -0.0958  0.9164 -0.0139
 6075SOL     OW24065   5.672   1.036   4.501  0.0787  0.1746  1.0682
 6075SOL    HW224066   5.633   1.007   4.583  0.4564  0.6963  1.4414
 6075SOL    HW324067   5.755   0.989   4.495 -0.4312 -0.6709  0.4480
 6075SOL    MW424068   5.678   1.026   4.511 -0.2631 -0.1809  0.0273
 6076SOL     OW24069   1.104   6.068   5.715  0.0519 -0.0145  0.3537
 6076SOL    HW224070   1.113   6.138   5.651 -2.3310 -0.4303 -0.5196
 6076SOL    HW324071   1.183   6.015   5.704  0.8052  1.2454 -0.5483
 6076SOL    MW424072   1.116   6.070   5.705 -0.4663  0.1045  0.1736
 6077SOL     OW24073   5.824   2.455   4.907  0.0989  0.4187 -0.0657
 6077SOL    HW224074   5.735   2.421   4.912  0.2249  0.1734  0.7485
 6077SOL    HW324075   5.868   2.400   4.842  0.2594 -0.9163  1.1191
 6077SOL    MW424076   5.818   2.443   4.899  0.2861 -0.5183  0.1649
 6078SOL     OW24077   2.085   3.030   1.642  0.5210 -0.5784  0.0560
 6078SOL    HW224078   2.053   3.052   1.555  0.3084 -0.1892  0.2292
 6078SOL    HW324079   2.165   3.081   1.652 -0.3373  0.6800  0.7243
 6078SOL    MW424080   2.092   3.040   1.632  0.3384  0.3230 -0.4238
 6079SOL     OW24081   5.702   1.731   1.171 -0.7896 -0.0670 -0.2294
 6079SOL    HW224082   5.769   1.666   1.152 -0.1599 -0.5695  3.1402
 6079SOL    HW324083   5.642   1.688   1.232 -1.5782  1.8124  0.4133
 6079SOL    MW424084   5.703   1.717   1.176 -0.6519 -0.3289 -0.1031
 6080SOL     OW24085   3.217   0.411   0.997  0.5488  0.0941  0.1792
 6080SOL    HW224086   3.293   0.352   1.002  2.0579  1.6292 -2.7557
 6080SOL    HW324087   3.163   0.373   0.928  0.2192  0.7100  0.1026
 6080SOL    MW424088   3.220   0.398   0.989 -0.0450  0.2317 -0.4903
 6081SOL     OW24089   1.149   3.598   2.451 -0.0513  0.5493 -0.2665
 6081SOL    HW224090   1.240   3.627   2.444  0.4189 -0.5018  1.1023
 6081SOL    HW324091   1.138   3.576   2.544 -0.4998 -3.0910 -1.0448
 6081SOL    MW424092   1.160   3.599   2.463 -0.6995 -0.1344  0.1220
 6082SOL     OW24093   5.066   0.229   1.060 -0.0954  0.4372  0.5497
 6082SOL    HW224094   5.135   0.295   1.049 -1.4551  1.5560 -2.1813
 6082SOL    HW324095   4.987   0.280   1.078 -0.9116 -0.5670 -0.1205
 6082SOL    MW424096   5.065   0.245   1.061  0.3053 -0.2575 -0.1916
 6083SOL     OW24097   6.337   3.506   0.537 -0.3133  0.5886 -0.0425
 6083SOL    HW224098   6.270   3.437   0.541 -1.4659  1.6858 -0.0507
 6083SOL    HW324099   6.290   3.585   0.513  1.1563  1.1977 -1.0787
 6083SOL    MW424100   6.322   3.507   0.534  0.3931  0.3033  0.1299
 6084SOL     OW24101   6.139   1.045   0.477  0.3971  0.0311  0.3865
 6084SOL    HW224102   6.138   1.133   0.439  0.6938 -0.1420 -0.0373
 6084SOL    HW324103   6.227   1.036   0.514  1.1783 -0.8896 -1.5431
 6084SOL    MW424104   6.151   1.055   0.477  0.3589 -0.1575  0.2643
 6085SOL     OW24105   4.620   6.223   1.869  0.2897  0.4873  0.2086
 6085SOL    HW224106   4.589   6.286   1.934  1.6993 -0.0681  1.4709
 6085SOL    HW324107   4.642   6.277   1.793  0.5008  1.4096  0.9020
 6085SOL    MW424108   4.619   6.238   1.868  0.6390  0.3337 -0.0071
 6086SOL     OW24109   0.711   4.452   3.805  0.1011 -0.1141  0.0334
 6086SOL    HW224110   0.692   4.538   3.840 -1.1929 -0.2943 -0.1803
 6086SOL    HW324111   0.649   4.394   3.848  0.7579 -0.8981 -0.0472
 6086SOL    MW424112   0.701   4.455   3.815 -0.3687 -0.2109 -0.0233
 6087SOL     OW24113   1.661   3.293   0.278  0.9290 -0.2998  0.4468
 6087SOL    HW224114   1.742   3.281   0.329  0.4393 -0.7775  1.1315
 6087SOL    HW324115   1.595   3.243   0.326  0.5127 -1.0449 -0.8489
 6087SOL    MW424116   1.663   3.285   0.291  0.2794 -0.0715 -0.1062
 6088SOL     OW24117   4.136   1.485   3.449  0.0767 -0.2583 -0.2800
 6088SOL    HW224118   4.161   1.394   3.432  0.7048 -0.2076  0.3539
 6088SOL    HW324119   4.218   1.533   3.452 -0.2182  0.2452 -0.0914
 6088SOL    MW424120   4.150   1.479   3.447  0.9271 -0.1221  0.1757
 6089SOL     OW24121   3.935   5.963   1.390 -0.6174  0.2786 -0.0736
 6089SOL    HW224122   3.942   5.869   1.410 -0.3797  0.2301 -0.3718
 6089SOL    HW324123   3.961   6.007   1.471 -0.5749  0.0856  0.0188
 6089SOL    MW424124   3.939   5.956   1.403  0.5200 -0.0331  0.1699
 6090SOL     OW24125   4.605   2.816   0.196  0.2517  0.1369 -0.2078
 6090SOL    HW224126   4.682   2.791   0.247 -0.1959  0.8227  0.8473
 6090SOL    HW324127   4.621   2.908   0.173 -0.4470  0.4307  0.4295
 6090SOL    MW424128   4.617   2.825   0.200  0.5338  0.1127 -0.0278
 6091SOL     OW24129   6.209   3.734   1.591  0.2480  0.5489  0.1193
 6091SOL    HW224130   6.273   3.683   1.642 -1.0434  1.1005  2.4595
 6091SOL    HW324131   6.249   3.820   1.580  1.6614 -0.3184 -2.2552
 6091SOL    MW424132   6.223   3.738   1.596  0.3272 -0.1143  0.0997
 6092SOL     OW24133   4.091   1.392   5.742  0.1557  0.5741  0.1766
 6092SOL    HW224134   4.096   1.310   5.792  2.0098 -0.2659 -1.2765
 6092SOL    HW324135   4.145   1.454   5.792 -0.3237  0.5934  0.6818
 6092SOL    MW424136   4.099   1.389   5.755  0.9235  0.9011  0.2520
 6093SOL     OW24137   2.131   3.403   5.341  0.1804  0.8891 -0.2274
 6093SOL    HW224138   2.165   3.387   5.429 -1.3289  1.7247  0.5518
 6093SOL    HW324139   2.058   3.463   5.354 -0.9367 -0.0181 -1.9013
 6093SOL    MW424140   2.126   3.409   5.354 -0.0969  0.2164  0.2946
 6094SOL     OW24141   5.086   4.181   0.430  0.2403  0.0043  0.2720
 6094SOL    HW224142   5.037   4.217   0.504  0.1002 -0.1080  0.2348
 6094SOL    HW324143   5.060   4.235   0.356  0.4566  0.1799  0.3230
 6094SOL    MW424144   5.076   4.193   0.430  0.1689  0.1194 -0.3384
 6095SOL     OW24145   3.139   3.062   0.600 -0.0945  0.2154  0.0389
 6095SOL    HW224146   3.054   3.042   0.561 -0.6492 -1.5695  1.9603
 6095SOL    HW324147   3.164   3.147   0.562 -2.6638  0.7377 -0.6760
 6095SOL    MW424148   3.131   3.071   0.590 -0.0219 -0.6121 -0.1938
 6096SOL     OW24149   0.289   5.671   4.204 -0.3446  0.4458  0.0057
 6096SOL    HW224150   0.356   5.696   4.141 -0.5259  2.8399  0.6877
 6096SOL    HW324151   0.332   5.606   4.261  1.7533  2.5588  0.9836
 6096SOL    MW424152   0.303   5.665   4.203 -0.1712 -0.2252  0.7310
 6097SOL     OW24153   4.329   2.216   3.085  0.1085 -0.7402  0.4796
 6097SOL    HW224154   4.297   2.187   3.171 -2.5413 -1.2402 -0.5724
 6097SOL    HW324155   4.303   2.308   3.080  0.0263 -0.7792  0.1483
 6097SOL    MW424156   4.321   2.224   3.096  0.7280  0.0434 -0.5301
 6098SOL     OW24157   6.455   0.918   2.002 -0.5641 -0.0428  0.6545
 6098SOL    HW224158   6.545   0.951   1.995 -0.9770  1.5374  2.0679
 6098SOL    HW324159   6.464   0.834   2.045  0.5190 -1.9578 -2.9103
 6098SOL    MW424160   6.468   0.912   2.006 -0.9784 -0.0960  0.0306
 6099SOL     OW24161   5.796   1.823   2.640  0.0198  0.2869  0.3683
 6099SOL    HW224162   5.857   1.883   2.682 -0.6624 -0.0318  1.8932
 6099SOL    HW324163   5.830   1.812   2.552  0.9901  1.7376  0.5198
 6099SOL    MW424164   5.808   1.830   2.634 -0.6095 -0.3673  0.3538
 6100SOL     OW24165   2.863   1.320   1.967 -0.3614 -0.1153  0.2744
 6100SOL    HW224166   2.954   1.292   1.967 -0.1199  0.6345 -0.1123
 6100SOL    HW324167   2.853   1.371   2.048 -0.2654  0.3232  0.0128
 6100SOL    MW424168   2.874   1.323   1.978  0.5006  0.5089 -0.1148
 6101SOL     OW24169   4.156   5.477   5.901 -0.6898  1.1292  0.0971
 6101SOL    HW224170   4.242   5.516   5.918 -1.0652  2.0107  0.0468
 6101SOL    HW324171   4.171   5.414   5.831 -0.1096  1.3685  0.0040
 6101SOL    MW424172   4.169   5.474   5.894  0.0971 -0.1984 -0.1098
 6102SOL     OW24173   3.585   2.834   2.576 -0.6170  0.2667  0.5685
 6102SOL    HW224174   3.495   2.850   2.605 -0.4762 -0.4832  1.4484
 6102SOL    HW324175   3.624   2.784   2.647 -0.2858 -1.7345 -0.9528
 6102SOL    MW424176   3.578   2.829   2.589 -0.6532  0.4456 -0.6463
 6103SOL     OW24177   6.021   4.799   1.389  0.3362 -0.1447  0.1070
 6103SOL    HW224178   5.947   4.809   1.330 -0.2030 -0.5344  0.6981
 6103SOL    HW324179   5.994   4.844   1.469 -0.3162 -2.3299  1.2165
 6103SOL    MW424180   6.008   4.806   1.392 -0.0036 -0.1123 -0.8019
 6104SOL     OW24181   3.603   3.771   0.409 -0.8193 -0.2992 -0.1540
 6104SOL    HW224182   3.523   3.729   0.440 -0.6063 -1.1765 -0.7545
 6104SOL    HW324183   3.648   3.800   0.488 -1.1728 -0.8359  0.2456
 6104SOL    MW424184   3.598   3.769   0.423  0.1879 -0.3577 -0.6672
 6105SOL     OW24185   1.736   1.004   5.996 -0.1002  0.4391  0.0711
 6105SOL    HW224186   1.779   0.957   6.067  0.1194  0.4370 -0.0635
 6105SOL    HW324187   1.729   0.941   5.925 -2.0704 -0.1651  0.7394
 6105SOL    MW424188   1.741   0.990   5.996  0.7149 -0.6364  0.1242
 6106SOL     OW24189   3.714   2.009   6.008  0.0138 -0.4189  0.6116
 6106SOL    HW224190   3.685   1.959   5.931  1.9625  2.5229 -2.2872
 6106SOL    HW324191   3.803   1.979   6.023  0.1169  0.0039  0.8310
 6106SOL    MW424192   3.722   1.998   6.000 -0.1643 -0.2977  0.5145
 6107SOL     OW24193   6.220   2.841   4.181  0.4759  0.6950  0.4700
 6107SOL    HW224194   6.233   2.772   4.246  0.4343 -1.1989 -1.4450
 6107SOL    HW324195   6.309   2.871   4.160  0.7380 -0.8092 -0.7337
 6107SOL    MW424196   6.234   2.836   4.187  0.2331 -0.2158  0.1408
 6108SOL     OW24197   0.508   2.261   2.000 -0.3859 -0.2820 -0.5998
 6108SOL    HW224198   0.592   2.267   1.954  0.3765 -0.3449  0.7404
 6108SOL    HW324199   0.456   2.202   1.945  0.5279 -0.4383 -1.3332
 6108SOL    MW424200   0.512   2.254   1.987  0.3384 -0.7559 -0.0360
 6109SOL     OW24201   4.046   1.696   0.485 -0.0610  0.1969  0.3823
 6109SOL    HW224202   4.129   1.734   0.513 -0.8332  2.8943 -0.7422
 6109SOL    HW324203   4.047   1.608   0.523  2.6894  0.6045  1.5191
 6109SOL    MW424204   4.057   1.689   0.494  0.3843 -0.5488  0.0019
 6110SOL     OW24205   0.861   5.369   1.872  0.2191  0.2713  0.5957
 6110SOL    HW224206   0.798   5.299   1.890 -1.1300  1.7183  1.8479
 6110SOL    HW324207   0.936   5.349   1.927  0.8842 -1.4062 -0.8167
 6110SOL    MW424208   0.862   5.358   1.881 -0.3778  0.8017  0.1288
 6111SOL     OW24209   1.867   5.069   1.974 -0.2263 -0.2969  0.1643
 6111SOL    HW224210   1.913   5.117   2.044 -1.8258  3.4569 -1.0671
 6111SOL    HW324211   1.927   5.074   1.899 -0.4872  0.0124 -0.0273
 6111SOL    MW424212   1.881   5.076   1.973  0.3002 -0.4733 -0.1074
 6112SOL     OW24213   3.819   1.018   2.601  0.0034 -0.1600 -0.2406
 6112SOL    HW224214   3.743   1.054   2.646  0.2889  0.0236  0.0952
 6112SOL    HW324215   3.883   1.001   2.670  0.3538 -0.1048 -0.5474
 6112SOL    MW424216   3.818   1.020   2.616 -0.1404  0.0150  0.0618
 6113SOL     OW24217   6.222   5.438   0.758 -0.2832  0.1033 -0.0166
 6113SOL    HW224218   6.308   5.464   0.724  0.2130  0.1822  1.2539
 6113SOL    HW324219   6.161   5.502   0.720  0.3969  0.8146  0.0730
 6113SOL    MW424220   6.225   5.450   0.748 -0.1501  0.4898  0.4790
 6114SOL     OW24221   2.723   3.154   1.372  0.2206 -0.2789  0.2795
 6114SOL    HW224222   2.750   3.071   1.413  0.4360 -0.3154  0.0642
 6114SOL    HW324223   2.733   3.139   1.278  3.0184  0.8997  0.2933
 6114SOL    MW424224   2.728   3.141   1.365  0.8350  0.0133  0.0230
 6115SOL     OW24225   1.309   4.547   2.672 -0.3474 -0.0153 -0.4544
 6115SOL    HW224226   1.325   4.599   2.751 -1.2476  2.0922 -1.5724
 6115SOL    HW324227   1.272   4.609   2.609  0.3867 -1.6016 -2.5833
 6115SOL    MW424228   1.306   4.562   2.674 -0.1807 -0.3903  0.0249
 6116SOL     OW24229   6.005   3.760   3.705 -0.1993  0.5578  0.6439
 6116SOL    HW224230   6.068   3.832   3.715 -0.3813  0.7346  0.5089
 6116SOL    HW324231   5.924   3.794   3.742 -0.2349  0.3542  0.7505
 6116SOL    MW424232   6.003   3.774   3.711 -0.3762 -0.2716  0.0748
 6117SOL     OW24233   4.986   1.770   6.335  0.5643 -0.4790  0.3312
 6117SOL    HW224234   4.938   1.723   6.267 -0.8151  1.7913 -0.3741
 6117SOL    HW324235   5.075   1.778   6.300  0.0342  0.1030 -0.9588
 6117SOL    MW424236   4.992   1.764   6.321 -0.0981 -0.4155 -0.2291
 6118SOL     OW24237   4.154   5.454   4.292  0.0520  0.3616 -0.4647
 6118SOL    HW224238   4.137   5.541   4.257  0.7005  0.7024  0.0373
 6118SOL    HW324239   4.104   5.395   4.236 -1.3566  1.1473 -0.0801
 6118SOL    MW424240   4.145   5.457   4.280 -0.6930  0.0751 -0.0554
 6119SOL     OW24241   5.196   2.315   1.795 -0.0384  0.0391 -0.5923
 6119SOL    HW224242   5.157   2.228   1.784  2.5649 -1.5419  1.5824
 6119SOL    HW324243   5.241   2.332   1.712  1.9459 -2.1385 -0.0615
 6119SOL    MW424244   5.197   2.306   1.783  0.0962  0.3932  0.6614
 6120SOL     OW24245   4.385   2.762   5.103  0.3576  0.6687  0.1204
 6120SOL    HW224246   4.459   2.823   5.106  0.8770  0.2084 -1.7158
 6120SOL    HW324247   4.409   2.691   5.162  2.3183 -0.4001 -1.8190
 6120SOL    MW424248   4.398   2.761   5.111  0.1561  0.1205  0.3727
 6121SOL     OW24249   6.046   5.229   2.031 -0.4923 -0.1405 -0.1690
 6121SOL    HW224250   5.989   5.245   2.106 -1.7478 -1.3297 -0.8241
 6121SOL    HW324251   6.059   5.315   1.992 -2.0380  0.1544 -0.1193
 6121SOL    MW424252   6.040   5.242   2.036 -0.0689 -0.0265 -0.0483
 6122SOL     OW24253   3.259   1.893   2.294 -0.4870  0.0184 -0.1777
 6122SOL    HW224254   3.180   1.947   2.300  0.4145  1.2755  0.9234
 6122SOL    HW324255   3.227   1.808   2.264 -2.1933  0.6221 -0.2041
 6122SOL    MW424256   3.244   1.889   2.291  0.3971 -0.0351  1.0075
 6123SOL     OW24257   2.728   3.236   3.246  0.0558  0.0405 -0.3337
 6123SOL    HW224258   2.731   3.149   3.204  0.9759  0.5834 -1.4566
 6123SOL    HW324259   2.819   3.260   3.258 -0.1963  0.5253  0.7172
 6123SOL    MW424260   2.740   3.227   3.242 -0.5192 -0.0404  0.6298
 6124SOL     OW24261   6.094   2.097   4.420  0.1175 -0.2225 -0.6030
 6124SOL    HW224262   6.156   2.055   4.360  1.4331  0.1413  0.4548
 6124SOL    HW324263   6.082   2.185   4.385  1.9910  0.4783  0.3680
 6124SOL    MW424264   6.101   2.103   4.408 -0.2502 -0.2505  0.5873
 6125SOL     OW24265   0.537   3.911   0.235 -0.1589  0.2684 -0.0946
 6125SOL    HW224266   0.621   3.867   0.222 -0.2080 -0.0597  0.6487
 6125SOL    HW324267   0.557   3.979   0.300  0.2336  2.2756 -2.1677
 6125SOL    MW424268   0.551   3.914   0.242  1.0470  0.2322 -0.1314
 6126SOL     OW24269   2.330   0.703   5.638 -0.2840  0.0143 -0.2104
 6126SOL    HW224270   2.366   0.790   5.655 -2.9092  1.4087 -1.1935
 6126SOL    HW324271   2.305   0.705   5.546 -0.7052 -1.6832 -0.1656
 6126SOL    MW424272   2.332   0.715   5.628  0.1268  0.2456 -0.1109
 6127SOL     OW24273   1.409   0.197   6.173  0.0544  0.3418  0.7005
 6127SOL    HW224274   1.488   0.239   6.206  0.4394 -1.4684  2.2134
 6127SOL    HW324275   1.416   0.106   6.202 -2.6267  0.1573  0.9939
 6127SOL    MW424276   1.420   0.191   6.181  0.0467  0.0018  0.1545
 6128SOL     OW24277   4.594   3.974   3.998 -0.4651  0.3140  0.0806
 6128SOL    HW224278   4.499   3.980   4.012 -0.2302  0.7310  1.6686
 6128SOL    HW324279   4.603   3.935   3.911 -2.1170 -2.5284  1.0673
 6128SOL    MW424280   4.582   3.970   3.989  0.3728 -0.2518  0.0835
 6129SOL     OW24281   2.434   4.202   1.898  0.3742 -0.3996 -0.4066
 6129SOL    HW224282   2.401   4.216   1.987  0.8404  0.5628 -0.3623
 6129SOL    HW324283   2.496   4.129   1.906 -0.0729 -0.7459 -0.0729
 6129SOL    MW424284   2.438   4.194   1.911  0.3179 -0.0257 -0.4646
 6130SOL     OW24285   2.152   5.327   5.344  0.3075  0.6198  0.5588
 6130SOL    HW224286   2.157   5.409   5.394 -0.8699  1.7741 -1.0939
 6130SOL    HW324287   2.067   5.290   5.367  0.4238  0.3583  0.5708
 6130SOL    MW424288   2.142   5.333   5.354 -0.0480 -0.1660 -0.5582
 6131SOL     OW24289   2.162   5.693   3.846  0.5607  0.0111 -0.2315
 6131SOL    HW224290   2.250   5.698   3.882 -0.1483  1.3732  1.4623
 6131SOL    HW324291   2.118   5.627   3.900  0.2473  0.1031 -0.3707
 6131SOL    MW424292   2.168   5.685   3.858  0.1548  0.1962  0.0109
 6132SOL     OW24293   5.535   3.887   1.609  0.3311  0.3516 -0.2103
 6132SOL    HW224294   5.558   3.829   1.537  1.1286 -0.6949  0.8356
 6132SOL    HW324295   5.501   3.966   1.567  0.4034 -0.3768 -1.7015
 6132SOL    MW424296   5.533   3.890   1.594 -0.0686 -0.3695 -0.4376
 6133SOL     OW24297   4.477   2.688   3.503  0.0476  0.1224  0.4177
 6133SOL    HW224298   4.472   2.697   3.599 -0.5901 -0.3066  0.4331
 6133SOL    HW324299   4.461   2.595   3.487 -1.9593  0.5212 -0.2172
 6133SOL    MW424300   4.474   2.676   3.514  0.2495 -0.1147  0.6171
 6134SOL     OW24301   1.255   5.241   0.310  0.2199 -0.0892  0.1056
 6134SOL    HW224302   1.288   5.246   0.400 -1.0888  0.4141  0.5894
 6134SOL    HW324303   1.189   5.310   0.305  0.2246 -0.1607 -1.2281
 6134SOL    MW424304   1.251   5.251   0.321  0.4063 -0.3719  0.2723
 6135SOL     OW24305   6.058   6.273   3.569 -0.5460 -0.2983 -0.4398
 6135SOL    HW224306   6.051   6.251   3.476 -0.2464 -0.2715 -0.4689
 6135SOL    HW324307   6.054   6.188   3.614 -1.1683 -0.2759 -0.4481
 6135SOL    MW424308   6.056   6.259   3.563  0.4507 -0.3903  0.0190
 6136SOL     OW24309   2.456   5.432   1.154  0.0659 -0.0135 -0.1917
 6136SOL    HW224310   2.430   5.352   1.200 -2.3146  1.3727  1.0800
 6136SOL    HW324311   2.394   5.440   1.082  1.2545 -0.0632 -1.2534
 6136SOL    MW424312   2.445   5.423   1.151  0.0339 -0.2000  0.0470
 6137SOL     OW24313   5.127   3.130   0.158 -0.2934  0.1154  0.1136
 6137SOL    HW224314   5.125   3.046   0.205 -0.8204  0.1720  0.1970
 6137SOL    HW324315   5.035   3.156   0.153 -0.3541 -0.3648 -1.7997
 6137SOL    MW424316   5.115   3.122   0.164  0.4404 -0.3084  0.3088
 6138SOL     OW24317   0.080   5.596   6.259 -0.6024  0.0427  0.4077
 6138SOL    HW224318   0.001   5.644   6.235  0.1036  0.4026 -1.3322
 6138SOL    HW324319   0.134   5.660   6.306 -1.2493 -0.1632  1.4674
 6138SOL    MW424320   0.077   5.611   6.262 -0.2168  0.0830 -0.7207
 6139SOL     OW24321   4.231   4.238   2.167  0.0669  0.4859  0.6120
 6139SOL    HW224322   4.300   4.274   2.113  1.5003  1.0678  2.7046
 6139SOL    HW324323   4.195   4.166   2.116  2.4457 -0.0503 -0.4325
 6139SOL    MW424324   4.235   4.233   2.153  0.1160 -0.2350 -0.2825
 6140SOL     OW24325   6.130   1.827   5.733 -0.3231  0.1858 -0.4509
 6140SOL    HW224326   6.144   1.837   5.827  0.6590 -2.4066 -0.2395
 6140SOL    HW324327   6.210   1.860   5.693 -0.0515 -0.2120 -0.2449
 6140SOL    MW424328   6.143   1.832   5.740 -0.3653 -0.0278  0.6040
 6141SOL     OW24329   3.004   1.370   1.233  0.3684  0.5650  0.3534
 6141SOL    HW224330   3.006   1.275   1.241 -0.3469  0.5351  0.2559
 6141SOL    HW324331   3.095   1.394   1.216  0.3745 -0.2295 -0.9286
 6141SOL    MW424332   3.016   1.361   1.232  0.1707 -0.0361 -0.2730
 6142SOL     OW24333   3.988   2.113   4.810  0.3392 -0.2329  0.4911
 6142SOL    HW224334   3.901   2.116   4.771  1.4310  3.5320 -2.2100
 6142SOL    HW324335   3.972   2.126   4.904 -1.9801 -0.6122  0.2221
 6142SOL    MW424336   3.974   2.115   4.817 -0.0913 -0.3710  0.3842
 6143SOL     OW24337   1.219   0.781   5.460  0.1207 -0.4673 -0.1914
 6143SOL    HW224338   1.153   0.799   5.527 -0.5034  0.4761 -1.0351
 6143SOL    HW324339   1.177   0.805   5.377  0.8478 -1.6677 -0.9528
 6143SOL    MW424340   1.205   0.786   5.458  0.2740 -0.5400  0.1028
 6144SOL     OW24341   0.382   0.790   2.172 -0.4480 -0.4006 -0.0850
 6144SOL    HW224342   0.354   0.699   2.167  1.2251 -1.0805  1.5466
 6144SOL    HW324343   0.451   0.797   2.106 -0.3992 -0.3866 -0.0323
 6144SOL    MW424344   0.388   0.779   2.163 -0.2794 -0.5823 -0.4813
 6145SOL     OW24345   5.762   5.031   0.744 -0.5541 -0.0277 -0.1626
 6145SOL    HW224346   5.759   4.973   0.821 -0.6855 -1.3935 -1.1672
 6145SOL    HW324347   5.845   5.009   0.701  0.0906  1.5783  0.2066
 6145SOL    MW424348   5.773   5.020   0.749  0.7224 -0.2232  0.4159
 6146SOL     OW24349   1.268   2.513   3.833 -0.1788 -0.1131  0.1510
 6146SOL    HW224350   1.191   2.480   3.787 -2.1750  1.3051  2.2081
 6146SOL    HW324351   1.269   2.463   3.915  1.0295 -0.0042  0.2142
 6146SOL    MW424352   1.258   2.502   3.838  0.8165  0.3710  0.1873
 6147SOL     OW24353   5.114   5.611   2.261 -0.3456  0.1685 -0.0938
 6147SOL    HW224354   5.167   5.684   2.229 -0.9858  0.7284  0.1084
 6147SOL    HW324355   5.057   5.589   2.188 -1.2902  0.9600  0.3730
 6147SOL    MW424356   5.113   5.618   2.247 -0.0723 -0.4856 -0.1173
 6148SOL     OW24357   2.295   0.496   2.340 -0.4984  0.4259  0.2277
 6148SOL    HW224358   2.322   0.452   2.420 -0.7493 -2.0323 -0.9460
 6148SOL    HW324359   2.202   0.474   2.330 -0.3196  0.1403 -1.0355
 6148SOL    MW424360   2.286   0.488   2.349  0.3267 -0.2339 -0.1602
 6149SOL     OW24361   0.819   3.314   1.700 -0.5270  0.3421  0.0987
 6149SOL    HW224362   0.806   3.278   1.612 -0.0667  0.9978 -0.2550
 6149SOL    HW324363   0.834   3.238   1.755  0.0845 -0.0338 -0.5617
 6149SOL    MW424364   0.819   3.299   1.695  0.2674  0.2637 -0.5288
 6150SOL     OW24365   1.114   6.165   5.114 -0.4040 -0.3669 -0.2373
 6150SOL    HW224366   1.143   6.074   5.123  2.7571  0.6358  1.0441
 6150SOL    HW324367   1.152   6.194   5.032  0.1452  0.2837  0.2392
 6150SOL    MW424368   1.123   6.157   5.104  0.0238 -0.1889  0.4550
 6151SOL     OW24369   6.113   0.253   3.036 -0.3195 -0.0923 -0.2389
 6151SOL    HW224370   6.062   0.287   2.962 -1.3620  0.4331  0.6857
 6151SOL    HW324371   6.047   0.233   3.103  0.6360 -0.0811  0.7311
 6151SOL    MW424372   6.097   0.255   3.035  0.3537  0.5133 -0.1573
 6152SOL     OW24373   0.244   0.945   0.463 -0.1903  0.5326 -0.1303
 6152SOL    HW224374   0.322   0.950   0.408  0.7619  1.6088  1.2212
 6152SOL    HW324375   0.278   0.937   0.552 -1.5999  1.6277  0.5537
 6152SOL    MW424376   0.259   0.945   0.468  0.0685  0.1968 -0.0441
 6153SOL     OW24377   2.520   3.307   0.441 -0.2377  0.2180 -1.2311
 6153SOL    HW224378   2.548   3.217   0.423 -0.5435  0.1759 -1.4878
 6153SOL    HW324379   2.425   3.302   0.449 -0.0949  0.1397  0.8819
 6153SOL    MW424380   2.511   3.294   0.440  0.1572  0.2229 -0.3745
 6154SOL     OW24381   1.456   6.153   3.767 -0.0154  0.0717  0.3154
 6154SOL    HW224382   1.478   6.220   3.833 -0.4065  0.9575 -0.4414
 6154SOL    HW324383   1.505   6.180   3.689  0.4012 -0.9463  0.2090
 6154SOL    MW424384   1.466   6.165   3.766  0.5732 -1.3610 -0.2617
 6155SOL     OW24385   3.519   1.239   3.715 -0.0951  0.3801 -0.3297
 6155SOL    HW224386   3.609   1.271   3.721  1.8732 -4.4225  0.8473
 6155SOL    HW324387   3.488   1.237   3.806 -0.9197  0.7822 -0.5925
 6155SOL    MW424388   3.526   1.243   3.728 -0.3521 -0.4031  0.2080
 6156SOL     OW24389   0.647   5.827   1.234 -0.0074 -0.0601 -0.1036
 6156SOL    HW224390   0.678   5.847   1.323  0.4150 -1.9015  0.2108
 6156SOL    HW324391   0.561   5.868   1.229  0.2335  0.6301  0.9109
 6156SOL    MW424392   0.640   5.835   1.245  0.1850  0.0216  0.4145
 6157SOL     OW24393   3.404   1.035   3.319 -0.1978  0.9790 -0.0789
 6157SOL    HW224394   3.356   1.085   3.386  0.1716  0.3153  0.6931
 6157SOL    HW324395   3.407   1.094   3.244 -0.3670  1.8618  0.5845
 6157SOL    MW424396   3.398   1.050   3.318 -0.4074  0.2806 -0.0444
 6158SOL     OW24397   4.643   5.876   5.220  0.0947  0.2549 -0.3360
 6158SOL    HW224398   4.698   5.821   5.275  0.0252  0.7121  0.1949
 6158SOL    HW324399   4.597   5.934   5.281 -1.9658 -0.9570 -0.6212
 6158SOL    MW424400   4.644   5.877   5.235 -0.1649 -0.0761 -0.5998
 6159SOL     OW24401   5.075   3.516   3.690 -0.5324 -0.1436  0.4723
 6159SOL    HW224402   5.153   3.485   3.736 -1.0280 -0.0377  1.4209
 6159SOL    HW324403   5.020   3.437   3.682 -0.1921 -0.2922 -0.5001
 6159SOL    MW424404   5.078   3.501   3.695 -0.2958 -0.0163 -0.0936
 6160SOL     OW24405   1.134   2.045   5.910  0.2499  0.1314 -0.4938
 6160SOL    HW224406   1.215   2.035   5.859  0.1596  0.3310 -0.6731
 6160SOL    HW324407   1.066   2.006   5.855  0.3251 -0.6365 -0.0633
 6160SOL    MW424408   1.136   2.039   5.896  0.4938  0.4915 -0.0304
 6161SOL     OW24409   0.263   4.995   3.912  0.2437 -0.0438  0.6720
 6161SOL    HW224410   0.289   5.086   3.927 -0.9447  0.4713 -0.2044
 6161SOL    HW324411   0.224   4.995   3.824 -1.1774 -1.0570  1.2532
 6161SOL    MW424412   0.261   5.007   3.902 -0.4318 -0.1290  0.4140
 6162SOL     OW24413   0.081   2.877   5.158  0.2323  0.2015  0.2411
 6162SOL    HW224414   0.164   2.922   5.137  1.4515 -2.1720 -0.3574
 6162SOL    HW324415   0.075   2.807   5.094 -2.7812  0.8368 -0.3114
 6162SOL    MW424416   0.091   2.874   5.147 -0.2648 -0.0285  0.5170
 6163SOL     OW24417   3.422   1.482   5.971  0.1026  0.6773  0.0547
 6163SOL    HW224418   3.492   1.522   5.920 -0.8781  0.9614 -1.1215
 6163SOL    HW324419   3.413   1.394   5.935 -0.2072  0.6722  0.1389
 6163SOL    MW424420   3.430   1.476   5.960 -0.3523  0.2491 -0.0179
 6164SOL     OW24421   0.165   3.630   1.540  0.4549 -0.4093  0.2412
 6164SOL    HW224422   0.097   3.593   1.597  0.9297  1.0106  1.7916
 6164SOL    HW324423   0.245   3.627   1.592  0.6146  2.3022  0.2735
 6164SOL    MW424424   0.166   3.624   1.554 -0.0365  0.0215 -0.1620
 6165SOL     OW24425   3.671   2.222   0.588  0.7181  0.1818  0.0276
 6165SOL    HW224426   3.760   2.252   0.602  0.0361  2.3990 -0.0157
 6165SOL    HW324427   3.655   2.235   0.494 -0.7975  3.4707  0.6165
 6165SOL    MW424428   3.680   2.227   0.577 -0.1425 -0.4124 -0.2736
 6166SOL     OW24429   6.046   0.577   2.107  0.4869 -0.0249  0.4012
 6166SOL    HW224430   6.019   0.622   2.027 -0.1935 -0.5333  0.3404
 6166SOL    HW324431   5.990   0.612   2.176 -0.9679 -1.6727  0.1289
 6166SOL    MW424432   6.035   0.587   2.106  0.3156 -0.0883 -0.0523
 6167SOL     OW24433   0.664   0.950   0.984 -0.1859 -0.0184 -0.6151
 6167SOL    HW224434   0.575   0.925   1.009 -0.4726  1.1732 -0.3798
 6167SOL    HW324435   0.656   1.041   0.955  1.1295  0.4657  0.4235
 6167SOL    MW424436   0.651   0.959   0.983 -0.2634 -0.3451  0.3190
 6168SOL     OW24437   4.208   5.526   6.351 -0.1552 -0.3847 -0.3897
 6168SOL    HW224438   4.176   5.521   6.441  1.2513 -1.5023  0.0767
 6168SOL    HW324439   4.160   5.457   6.305  2.2199 -2.8437  0.5702
 6168SOL    MW424440   4.198   5.516   6.357 -0.1529 -0.5000 -0.3623
 6169SOL     OW24441   6.152   3.325   0.522 -0.1487  0.3490  0.8366
 6169SOL    HW224442   6.210   3.251   0.505 -0.1521  0.4162  0.5102
 6169SOL    HW324443   6.093   3.295   0.591 -3.3525 -1.7997 -2.4615
 6169SOL    MW424444   6.152   3.311   0.529  0.2791 -0.0416  0.4124
 6170SOL     OW24445   5.918   5.318   6.137  1.0003 -0.4896  0.2751
 6170SOL    HW224446   5.881   5.269   6.063  0.4847 -2.2035  1.6079
 6170SOL    HW324447   5.842   5.342   6.190  1.4416 -0.2412  0.8068
 6170SOL    MW424448   5.903   5.315   6.134 -0.0041 -0.0890  0.0481
 6171SOL     OW24449   5.784   1.082   0.694 -0.2298 -0.5424  0.3296
 6171SOL    HW224450   5.752   1.000   0.657 -0.8817  0.3638 -1.1694
 6171SOL    HW324451   5.706   1.125   0.729 -0.1272  0.0974 -0.2144
 6171SOL    MW424452   5.770   1.077   0.694 -0.0077  1.2037 -0.1910
 6172SOL     OW24453   0.497   0.789   1.656  0.1533  0.6605 -0.2275
 6172SOL    HW224454   0.495   0.745   1.571 -2.7208 -1.5144  0.8140
 6172SOL    HW324455   0.479   0.881   1.636  0.0267  0.2933 -1.9842
 6172SOL    MW424456   0.494   0.796   1.642 -0.3715 -0.3077 -0.3884
 6173SOL     OW24457   3.546   5.198   2.387  0.3877  0.2169  0.4886
 6173SOL    HW224458   3.536   5.138   2.313  1.7114 -1.6714  1.7777
 6173SOL    HW324459   3.458   5.232   2.402 -1.3909 -4.3955  2.1011
 6173SOL    MW424460   3.533   5.195   2.379 -0.3394 -0.3525  0.0043
 6174SOL     OW24461   1.071   4.128   2.535 -0.3659 -0.5045 -0.5958
 6174SOL    HW224462   1.106   4.216   2.526 -1.0836 -0.3411 -2.2328
 6174SOL    HW324463   1.059   4.116   2.629 -0.2209  1.1294 -0.3455
 6174SOL    MW424464   1.074   4.138   2.546 -0.0440 -0.4388  0.2397
 6175SOL     OW24465   4.636   0.705   5.627  0.5104 -0.3704  0.1262
 6175SOL    HW224466   4.635   0.674   5.717  0.6731 -0.4386  0.1054
 6175SOL    HW324467   4.710   0.765   5.623  0.2000  0.0168  0.1626
 6175SOL    MW424468   4.646   0.709   5.638 -0.1851 -0.6850 -0.5096
 6176SOL     OW24469   6.427   3.266   1.310  0.1694 -0.1131 -0.0430
 6176SOL    HW224470   6.356   3.251   1.247 -1.4479 -0.7687  1.8348
 6176SOL    HW324471   6.488   3.194   1.295 -0.3035 -0.3846 -0.6997
 6176SOL    MW424472   6.425   3.255   1.299  0.2877  0.6923 -0.0091
 6177SOL     OW24473   2.567   4.707   1.061  0.3293  0.1642 -0.0081
 6177SOL    HW224474   2.564   4.748   1.147 -2.1080 -0.8174  0.4678
 6177SOL    HW324475   2.490   4.741   1.016  0.0720 -1.3553 -0.7770
 6177SOL    MW424476   2.556   4.717   1.067  0.8216  0.8094 -0.5336
 6178SOL     OW24477   0.050   3.326   0.734 -0.2515  1.0188  0.1252
 6178SOL    HW224478  -0.037   3.299   0.762  0.2278 -0.6384  0.1191
 6178SOL    HW324479   0.049   3.422   0.740 -2.3095  1.0818 -0.6315
 6178SOL    MW424480   0.038   3.335   0.739  0.7201  0.1520 -0.3470
 6179SOL     OW24481   5.947   0.527   5.865  0.3126  0.2721 -0.2398
 6179SOL    HW224482   5.934   0.608   5.915 -0.1330  1.0450 -1.5616
 6179SOL    HW324483   5.911   0.458   5.921 -0.8575  1.2044  0.1948
 6179SOL    MW424484   5.940   0.529   5.879 -0.2554 -0.3524 -0.3111
 6180SOL     OW24485   1.185   5.802   1.716 -0.1705  0.2618  0.3466
 6180SOL    HW224486   1.121   5.828   1.781 -0.8065  0.7174 -0.4361
 6180SOL    HW324487   1.208   5.884   1.671  1.8576  0.3157  1.3769
 6180SOL    MW424488   1.180   5.817   1.718  0.4693  0.4335 -0.4366
 6181SOL     OW24489   4.971   5.925   3.131  0.3614 -0.1618  0.0002
 6181SOL    HW224490   5.006   5.999   3.082  0.2531  1.5251  2.3041
 6181SOL    HW324491   5.023   5.922   3.211 -0.8536 -1.4134  0.8002
 6181SOL    MW424492   4.983   5.934   3.135 -0.2094  1.0687 -0.1245
 6182SOL     OW24493   5.608   1.633   3.901  0.3521  0.1438 -0.2355
 6182SOL    HW224494   5.610   1.608   3.809 -0.1637 -2.1025  0.2787
 6182SOL    HW324495   5.687   1.595   3.938 -0.1712 -0.2605  0.5066
 6182SOL    MW424496   5.618   1.624   3.894  0.0407  0.0837 -0.1139
 6183SOL     OW24497   3.285   3.212   5.540 -0.3474 -0.3085 -0.3458
 6183SOL    HW224498   3.358   3.228   5.600  0.4278 -0.1048 -1.3282
 6183SOL    HW324499   3.287   3.117   5.526  0.5855 -0.1554 -1.4054
 6183SOL    MW424500   3.295   3.201   5.546  0.9378  0.0138 -0.3586
 6184SOL     OW24501   0.245   4.819   2.275  0.5939 -0.4679  0.3941
 6184SOL    HW224502   0.325   4.859   2.241  0.5737 -0.5954  0.1950
 6184SOL    HW324503   0.251   4.831   2.370  0.3063  0.5459  0.3015
 6184SOL    MW424504   0.256   4.826   2.283  0.2958  0.3594  0.1668
 6185SOL     OW24505   5.825   0.836   3.643 -0.0621 -0.4971 -0.1158
 6185SOL    HW224506   5.802   0.863   3.732  0.5307 -0.6248  0.0863
 6185SOL    HW324507   5.892   0.768   3.656  2.3418  1.6051 -0.6756
 6185SOL    MW424508   5.831   0.831   3.656  0.8478  0.5218  0.2599
 6186SOL     OW24509   3.909   0.288   4.296  0.0076 -0.1806  0.5804
 6186SOL    HW224510   3.887   0.241   4.216  1.1087  0.3677 -0.0732
 6186SOL    HW324511   3.827   0.328   4.324 -0.5465 -0.9823  0.1434
 6186SOL    MW424512   3.896   0.287   4.289 -0.2912 -0.0746 -0.0344
 6187SOL     OW24513   3.246   0.624   0.284  0.3262 -0.0604  0.2465
 6187SOL    HW224514   3.177   0.575   0.239  0.7534  1.1819 -1.8653
 6187SOL    HW324515   3.224   0.716   0.270  0.4794  0.4108  2.6693
 6187SOL    MW424516   3.234   0.629   0.276 -0.0038 -0.5169 -0.1404
 6188SOL     OW24517   5.804   2.339   3.976  0.0777  0.1481  0.2892
 6188SOL    HW224518   5.750   2.332   3.897  0.4202 -2.6722  0.2050
 6188SOL    HW324519   5.762   2.280   4.039  2.1177 -0.8839  0.7659
 6188SOL    MW424520   5.791   2.331   3.974  0.1124  0.3352  0.5819
 6189SOL     OW24521   0.193   3.721   0.260 -0.5071 -0.3528 -0.3508
 6189SOL    HW224522   0.241   3.727   0.177  0.0604 -0.3542 -0.0308
 6189SOL    HW324523   0.106   3.690   0.236 -0.0664 -1.2272 -0.8590
 6189SOL    MW424524   0.188   3.718   0.246  0.0039  0.7141 -0.4512
 6190SOL     OW24525   2.725   1.383   0.285  0.1108 -1.1287 -0.3979
 6190SOL    HW224526   2.755   1.368   0.374 -2.7612 -2.8074  0.4354
 6190SOL    HW324527   2.804   1.379   0.231  1.6817 -2.0894  1.8581
 6190SOL    MW424528   2.739   1.380   0.289 -0.2207 -0.2768  0.3157
 6191SOL     OW24529   1.711   4.312   5.482  0.3265 -0.1649  0.4084
 6191SOL    HW224530   1.772   4.275   5.418 -1.0912 -2.4050  0.2209
 6191SOL    HW324531   1.661   4.236   5.514  0.1989  1.0147  3.3621
 6191SOL    MW424532   1.713   4.297   5.478 -0.3164 -0.3181  0.1317
 6192SOL     OW24533   2.177   1.798   1.045 -0.0850  0.2303 -0.3035
 6192SOL    HW224534   2.259   1.804   0.996  0.7202 -2.0795  0.6162
 6192SOL    HW324535   2.117   1.753   0.986 -0.3193  0.8084 -0.5152
 6192SOL    MW424536   2.180   1.793   1.031 -0.1694  0.1010  0.3555
 6193SOL     OW24537   2.735   3.401   0.245 -0.0579  0.0920  0.0529
 6193SOL    HW224538   2.642   3.398   0.268 -0.0391  2.3353  0.6417
 6193SOL    HW324539   2.736   3.399   0.149 -0.5988 -1.5240  0.0616
 6193SOL    MW424540   2.723   3.401   0.235 -0.1828  1.0381  0.0607
 6194SOL     OW24541   1.144   0.174   4.979 -0.4495  0.2115  0.0829
 6194SOL    HW224542   1.080   0.149   5.046 -0.5057 -1.0948 -0.4176
 6194SOL    HW324543   1.100   0.240   4.926 -0.9245  0.2193  0.4855
 6194SOL    MW424544   1.130   0.179   4.981  0.5037 -0.0836  0.0711
 6195SOL     OW24545   5.942   3.367   3.559  0.1573  0.1261 -0.0417
 6195SOL    HW224546   5.864   3.318   3.586 -0.5583  1.6037  0.6458
 6195SOL    HW324547   5.916   3.411   3.478  1.0434 -1.1772 -1.0824
 6195SOL    MW424548   5.928   3.366   3.552  0.2554 -0.0427 -0.5584
 6196SOL     OW24549   6.262   0.135   2.042  0.6515 -0.2382 -0.7425
 6196SOL    HW224550   6.215   0.059   2.007 -2.3347  0.1606  1.9365
 6196SOL    HW324551   6.255   0.126   2.137  1.2795  2.7762 -0.3041
 6196SOL    MW424552   6.255   0.124   2.050 -0.5098  0.3992 -0.7054
 6197SOL     OW24553   4.240   4.529   4.692  0.9523 -0.1762 -0.2742
 6197SOL    HW224554   4.156   4.535   4.646  1.7082 -0.6982 -1.7738
 6197SOL    HW324555   4.228   4.457   4.755  0.0790  0.1855 -0.0130
 6197SOL    MW424556   4.227   4.520   4.694  0.5456  0.1937 -0.2795
 6198SOL     OW24557   0.294   1.988   5.235  0.0785 -0.6300  0.4325
 6198SOL    HW224558   0.313   1.894   5.233 -0.5961 -0.8206  1.9049
 6198SOL    HW324559   0.373   2.027   5.272 -0.3172 -0.8234  1.4962
 6198SOL    MW424560   0.307   1.981   5.239 -0.0346 -0.4321 -0.1112
 6199SOL     OW24561   0.136   6.257   5.318  0.0906 -0.0999 -0.0705
 6199SOL    HW224562   0.126   6.285   5.228  0.9815  0.1511 -0.1012
 6199SOL    HW324563   0.201   6.187   5.314 -0.7898 -0.9624  0.2276
 6199SOL    MW424564   0.143   6.251   5.306 -0.4701 -0.4977 -0.7687
 6200SOL     OW24565   1.923   5.438   3.674  0.4065  0.0925 -0.2779
 6200SOL    HW224566   1.833   5.423   3.702  0.5465  0.5002  0.4146
 6200SOL    HW324567   1.975   5.373   3.722  0.8391  1.7390  1.6691
 6200SOL    MW424568   1.918   5.428   3.684  0.7459  0.1991  0.2606
 6201SOL     OW24569   3.748   3.133   1.195 -0.2130  0.0530 -0.8786
 6201SOL    HW224570   3.769   3.225   1.211 -0.5219 -0.1034  0.6053
 6201SOL    HW324571   3.821   3.099   1.144  1.1754  0.5111  0.7353
 6201SOL    MW424572   3.760   3.140   1.190  0.2841  0.1141  0.1197
 6202SOL     OW24573   2.500   3.079   3.805  0.5788  0.5219 -0.3207
 6202SOL    HW224574   2.487   3.009   3.869  0.3871  0.5046 -0.3771
 6202SOL    HW324575   2.548   3.038   3.733 -0.7071  0.1000 -0.9618
 6202SOL    MW424576   2.504   3.065   3.804 -0.3171  0.0072  0.5242
 6203SOL     OW24577   1.825   0.710   1.680 -0.1977 -0.1971  0.5382
 6203SOL    HW224578   1.732   0.692   1.662 -0.2426  0.6116 -0.1234
 6203SOL    HW324579   1.826   0.799   1.713  0.6453  1.1848 -2.8259
 6203SOL    MW424580   1.813   0.719   1.682  0.0726 -0.1100  0.2753
 6204SOL     OW24581   4.900   1.659   5.576  0.3160 -0.0954  0.2787
 6204SOL    HW224582   4.986   1.637   5.541  0.1357  0.0841 -0.2736
 6204SOL    HW324583   4.845   1.674   5.500 -0.0865  0.2661  0.6328
 6204SOL    MW424584   4.904   1.658   5.562  0.8503  0.3700  0.0531
 6205SOL     OW24585   5.788   5.577   1.408 -0.0079 -0.0601 -0.7943
 6205SOL    HW224586   5.838   5.497   1.393  0.5182 -0.3850  2.1179
 6205SOL    HW324587   5.847   5.648   1.385  0.8579 -0.4994 -0.0067
 6205SOL    MW424588   5.802   5.575   1.403 -0.7130  0.5093  0.3247
 6206SOL     OW24589   4.090   4.300   4.935 -0.0197 -0.0005 -0.1825
 6206SOL    HW224590   4.081   4.255   4.852 -2.0670 -0.8712  0.4503
 6206SOL    HW324591   4.000   4.320   4.962  0.5214 -0.3737  2.1373
 6206SOL    MW424592   4.077   4.297   4.928  0.0731  0.3912 -1.2409
 6207SOL     OW24593   6.362   2.422   1.908 -0.1290 -0.0405  0.0323
 6207SOL    HW224594   6.428   2.380   1.963 -0.1102 -0.5007 -0.3380
 6207SOL    HW324595   6.384   2.515   1.911  0.4398 -0.1710  0.0435
 6207SOL    MW424596   6.374   2.428   1.916 -0.6479 -0.1572 -0.3389
 6208SOL     OW24597   3.105   6.279   3.114 -0.0951  0.1161  0.3163
 6208SOL    HW224598   3.119   6.373   3.123 -1.7039  0.2403  2.3389
 6208SOL    HW324599   3.010   6.268   3.123 -0.0521 -1.6345 -0.8168
 6208SOL    MW424600   3.094   6.290   3.116 -0.2103 -0.1500  0.9287
 6209SOL     OW24601   5.284   1.810   6.343  0.3833  0.3112 -0.3038
 6209SOL    HW224602   5.374   1.802   6.309  1.5812  0.2857  2.5871
 6209SOL    HW324603   5.278   1.900   6.373  0.2248 -0.2289  1.4027
 6209SOL    MW424604   5.295   1.821   6.343 -0.2053 -0.0496 -0.1221
 6210SOL     OW24605   4.082   4.452   1.512  0.5065  0.0299 -0.5366
 6210SOL    HW224606   4.151   4.454   1.445  0.0899  0.4899 -0.9653
 6210SOL    HW324607   4.100   4.529   1.567 -0.1061  0.6156 -1.1229
 6210SOL    MW424608   4.093   4.463   1.510 -0.0191 -0.1808  0.5458
 6211SOL     OW24609   1.785   1.291   0.594  0.6096  0.2281 -0.2619
 6211SOL    HW224610   1.805   1.260   0.683  1.2943  1.3595 -0.0003
 6211SOL    HW324611   1.808   1.384   0.596  0.7394  0.2388 -1.6634
 6211SOL    MW424612   1.791   1.300   0.606  0.5336  0.0859 -0.4806
 6212SOL     OW24613   1.186   0.049   6.408  0.1565  0.0456  0.0835
 6212SOL    HW224614   1.169   0.005   6.492 -0.8061  0.1777 -0.0385
 6212SOL    HW324615   1.107   0.099   6.390  0.9817  1.3273 -0.1146
 6212SOL    MW424616   1.173   0.050   6.417  0.5485  0.1578  0.6338
 6213SOL     OW24617   2.582   5.527   6.071  0.4669 -0.3285 -0.2268
 6213SOL    HW224618   2.528   5.462   6.115 -0.7426  0.1758 -0.9304
 6213SOL    HW324619   2.625   5.479   6.001 -0.1303 -0.4642 -0.5060
 6213SOL    MW424620   2.581   5.512   6.067 -0.1572 -0.0621 -0.4229
 6214SOL     OW24621   3.112   3.604   6.105 -0.2532 -0.0197 -0.2787
 6214SOL    HW224622   3.125   3.674   6.041  1.0678  0.3905  0.3961
 6214SOL    HW324623   3.153   3.637   6.185  0.8575 -1.7694 -0.0848
 6214SOL    MW424624   3.119   3.618   6.107  0.3475  0.1067 -0.3042
 6215SOL     OW24625   4.965   4.170   1.881 -0.0836 -0.2251 -0.3250
 6215SOL    HW224626   5.023   4.139   1.950 -1.9207 -1.4217  0.7790
 6215SOL    HW324627   4.913   4.093   1.857  0.7871 -0.0130 -3.4621
 6215SOL    MW424628   4.966   4.156   1.887 -0.0128 -0.7192 -0.5029
 6216SOL     OW24629   4.566   1.222   2.581  0.3177  0.3651  1.1005
 6216SOL    HW224630   4.646   1.170   2.577  0.0609  0.0333 -1.1911
 6216SOL    HW324631   4.596   1.311   2.597  0.9990  0.0105  1.8932
 6216SOL    MW424632   4.580   1.227   2.582  0.7315  0.7144 -0.2204
 6217SOL     OW24633   3.249   1.283   5.826 -0.9872  0.1575 -0.5178
 6217SOL    HW224634   3.213   1.345   5.763 -0.0624  1.3402  0.0711
 6217SOL    HW324635   3.280   1.210   5.773 -1.3101  0.5766 -1.3061
 6217SOL    MW424636   3.248   1.281   5.811 -0.2695 -0.1949 -0.1066
 6218SOL     OW24637   2.136   2.515   2.431  0.8715 -0.2331  0.1239
 6218SOL    HW224638   2.082   2.470   2.496  1.4425 -1.6548 -0.3341
 6218SOL    HW324639   2.118   2.468   2.349  1.6544  0.2489 -0.3379
 6218SOL    MW424640   2.126   2.503   2.429  0.5178  0.2122  0.3080
 6219SOL     OW24641   2.006   1.194   4.658  0.0829 -0.1971  0.1814
 6219SOL    HW224642   2.004   1.233   4.745  0.1903 -0.8834  0.4933
 6219SOL    HW324643   2.091   1.220   4.622  0.5740 -0.9455  0.7654
 6219SOL    MW424644   2.017   1.203   4.664 -0.3096 -0.2622  0.4110
 6220SOL     OW24645   1.218   5.690   2.621 -0.5957 -0.0654 -0.5847
 6220SOL    HW224646   1.184   5.720   2.705 -1.0927  0.6152 -1.0153
 6220SOL    HW324647   1.276   5.617   2.642 -1.0388 -0.1606  0.3082
 6220SOL    MW424648   1.221   5.685   2.635  0.5579  0.6759  0.3493
 6221SOL     OW24649   6.158   5.453   4.194 -0.3025 -0.0076 -1.6494
 6221SOL    HW224650   6.222   5.479   4.128  0.1062  1.9481 -0.5475
 6221SOL    HW324651   6.191   5.370   4.229  3.3748  2.2644  0.9195
 6221SOL    MW424652   6.171   5.446   4.190  0.0528 -0.3630  0.6254
 6222SOL     OW24653   0.324   5.856   3.038 -0.1778 -0.3117  0.4476
 6222SOL    HW224654   0.362   5.939   3.011 -2.2030  0.4412 -0.2950
 6222SOL    HW324655   0.310   5.865   3.132 -1.8591  0.8886  0.1300
 6222SOL    MW424656   0.327   5.868   3.047  0.1885  0.7675 -0.0222
 6223SOL     OW24657   2.955   1.481   0.106 -0.0870  0.4079 -0.1210
 6223SOL    HW224658   3.043   1.506   0.080  0.1581 -2.2663 -2.3028
 6223SOL    HW324659   2.900   1.501   0.030 -1.2169  1.0939  0.8318
 6223SOL    MW424660   2.959   1.487   0.093  0.3472 -0.4460 -0.5627
 6224SOL     OW24661   0.801   2.644   6.386 -0.1461  0.3149 -0.1425
 6224SOL    HW224662   0.738   2.629   6.457 -0.8186  0.4629 -0.6980
 6224SOL    HW324663   0.882   2.666   6.431 -0.0094 -1.5966  0.6236
 6224SOL    MW424664   0.803   2.645   6.401 -0.2899 -0.7492 -0.1287
 6225SOL     OW24665   5.108   4.016   1.252  0.1031  0.3243  0.4002
 6225SOL    HW224666   5.030   4.038   1.201 -0.5781 -0.1549  1.2045
 6225SOL    HW324667   5.078   3.950   1.315  2.1552 -3.8997 -2.5378
 6225SOL    MW424668   5.094   4.010   1.254 -0.0310  0.1670  0.0588
 6226SOL     OW24669   2.934   3.440   4.568  0.4630 -0.6430 -0.1116
 6226SOL    HW224670   3.029   3.443   4.580  0.6342  0.1184 -1.4727
 6226SOL    HW324671   2.918   3.354   4.529  0.7659 -0.2416 -1.1378
 6226SOL    MW424672   2.945   3.429   4.565 -0.1799 -0.5628  0.0021
 6227SOL     OW24673   0.057   6.250   0.140  0.0267 -0.5160  0.5736
 6227SOL    HW224674   0.014   6.335   0.135 -3.0477 -1.9391  0.2301
 6227SOL    HW324675  -0.000   6.198   0.197  0.9618 -2.7896 -0.4424
 6227SOL    MW424676   0.044   6.254   0.147 -0.0854 -0.0731  0.0687
 6228SOL     OW24677   5.362   4.412   6.210 -0.5186  1.1953 -0.5577
 6228SOL    HW224678   5.395   4.408   6.300 -1.8093  0.1075 -0.0924
 6228SOL    HW324679   5.366   4.505   6.188  0.4427  1.3995  0.3704
 6228SOL    MW424680   5.367   4.424   6.219 -0.1488  0.2749 -0.0091
 6229SOL     OW24681   5.813   5.320   4.288 -0.3511 -0.8873 -0.4665
 6229SOL    HW224682   5.839   5.351   4.202 -2.1310  1.1842 -0.3369
 6229SOL    HW324683   5.718   5.309   4.282 -0.3342 -2.1465  0.8372
 6229SOL    MW424684   5.804   5.323   4.276  0.5873  0.2676  0.1642
 6230SOL     OW24685   1.494   0.828   4.987 -0.0673  0.0079  0.5387
 6230SOL    HW224686   1.556   0.756   4.998 -1.8469 -1.7196 -0.1801
 6230SOL    HW324687   1.549   0.905   4.975  1.9125 -1.1529  1.6634
 6230SOL    MW424688   1.510   0.829   4.987  0.5979  0.2612 -0.2508
 6231SOL     OW24689   4.360   1.063   5.611  0.1078  0.4214  0.0353
 6231SOL    HW224690   4.429   1.028   5.555 -1.0446 -0.2172 -1.0315
 6231SOL    HW324691   4.381   1.031   5.699  0.8007 -0.2921 -0.3853
 6231SOL    MW424692   4.372   1.054   5.615 -0.4521 -0.0646  0.1141
 6232SOL     OW24693   1.636   4.968   3.202  0.0315  0.0640 -0.1347
 6232SOL    HW224694   1.629   5.043   3.144  0.4108 -0.2130 -0.5504
 6232SOL    HW324695   1.731   4.953   3.211 -0.0421 -0.5523 -0.3122
 6232SOL    MW424696   1.648   4.976   3.196  0.2446 -0.3026 -0.0792
 6233SOL     OW24697   5.038   5.356   0.643 -0.0004  0.1712 -0.5708
 6233SOL    HW224698   4.955   5.332   0.602 -0.5911  2.9943 -1.2477
 6233SOL    HW324699   5.105   5.326   0.582 -0.6159 -0.5448 -0.8956
 6233SOL    MW424700   5.036   5.349   0.630  0.1978 -0.2589  0.0133
 6234SOL     OW24701   5.158   0.601   2.705 -0.0827  0.1924 -0.2946
 6234SOL    HW224702   5.180   0.622   2.796 -0.9248  2.0370 -0.4815
 6234SOL    HW324703   5.082   0.543   2.711  1.6458 -2.1790  0.2047
 6234SOL    MW424704   5.151   0.596   2.718  0.0130  0.4036  0.0257
 6235SOL     OW24705   5.275   3.980   0.457  0.1869  0.1975 -0.0664
 6235SOL    HW224706   5.199   4.037   0.444  0.2663  0.5500  0.9255
 6235SOL    HW324707   5.349   4.031   0.424 -0.0097 -0.1928 -1.1411
 6235SOL    MW424708   5.275   3.994   0.451  0.0162 -0.4078  0.0752
 6236SOL     OW24709   4.688   3.047   5.569 -0.0782  0.5539 -0.1758
 6236SOL    HW224710   4.630   3.120   5.548 -0.4245 -0.1581 -1.7935
 6236SOL    HW324711   4.758   3.053   5.505 -0.6821 -1.1536 -1.0494
 6236SOL    MW424712   4.690   3.057   5.558 -0.4912 -0.4038 -0.0125
 6237SOL     OW24713   4.247   2.918   2.555  0.0772 -0.5053  0.4007
 6237SOL    HW224714   4.218   3.008   2.569  1.9619  0.6039 -2.0635
 6237SOL    HW324715   4.166   2.866   2.556 -1.3864  1.6030 -0.6412
 6237SOL    MW424716   4.232   2.923   2.557 -0.2371  0.5022  0.1421
 6238SOL     OW24717   5.409   6.140   5.446 -0.4019 -0.1066 -0.4417
 6238SOL    HW224718   5.452   6.099   5.371 -0.9960 -1.8406  0.1152
 6238SOL    HW324719   5.401   6.070   5.511 -0.6653  1.1301  0.9280
 6238SOL    MW424720   5.413   6.126   5.445  0.4221  0.2374 -0.0463
 6239SOL     OW24721   3.287   2.008   6.399  0.3544 -0.6431 -0.0934
 6239SOL    HW224722   3.335   1.925   6.402  0.3961 -0.6729 -1.0577
 6239SOL    HW324723   3.318   2.057   6.474  0.3869 -1.4722  0.4532
 6239SOL    MW424724   3.297   2.003   6.409 -0.4247 -0.1667  0.0870
 6240SOL     OW24725   4.210   2.814   4.896  0.2078  0.5144 -0.5436
 6240SOL    HW224726   4.273   2.768   4.952 -0.9840 -1.2697 -0.5792
 6240SOL    HW324727   4.232   2.906   4.906  1.8602  0.0502  0.5962
 6240SOL    MW424728   4.221   2.820   4.904 -0.0069  0.0257 -0.1882
 6241SOL     OW24729   4.592   5.574   2.799  0.0554  0.3606 -0.0295
 6241SOL    HW224730   4.567   5.589   2.708 -0.3586  1.5629  0.2713
 6241SOL    HW324731   4.566   5.653   2.845  0.9189  0.0654  1.0160
 6241SOL    MW424732   4.585   5.586   2.793  0.1427 -0.0623  0.1362
 6242SOL     OW24733   0.268   0.653   0.533 -0.0671 -0.3250  0.0876
 6242SOL    HW224734   0.312   0.582   0.580  0.1676 -0.3243 -0.1328
 6242SOL    HW324735   0.296   0.733   0.576 -1.8487 -0.4550  1.6195
 6242SOL    MW424736   0.277   0.654   0.545  0.1745 -0.1121  0.3334
 6243SOL     OW24737   2.537   4.147   3.633  0.1191  0.2792 -0.0958
 6243SOL    HW224738   2.607   4.129   3.696  0.6351  0.9197 -0.4621
 6243SOL    HW324739   2.581   4.197   3.563 -0.3214 -0.8724 -1.2269
 6243SOL    MW424740   2.552   4.151   3.632  0.3487 -0.2351 -0.6905
 6244SOL     OW24741   3.062   0.759   2.621 -0.5637 -0.2896 -0.5847
 6244SOL    HW224742   3.051   0.779   2.713 -0.4803 -0.9274 -0.4268
 6244SOL    HW324743   3.027   0.670   2.612 -0.7667 -0.1499 -1.2057
 6244SOL    MW424744   3.056   0.750   2.632  0.2529 -0.1057 -0.0558
 6245SOL     OW24745   2.584   1.884   5.562  0.4074  0.5480 -0.2000
 6245SOL    HW224746   2.515   1.943   5.533  1.3032  1.5016 -0.4263
 6245SOL    HW324747   2.556   1.798   5.530 -1.3493  0.6519  0.8803
 6245SOL    MW424748   2.571   1.880   5.554  0.7496  0.0492  0.7038
 6246SOL     OW24749   4.869   2.053   2.387  0.1892 -0.6933  0.1466
 6246SOL    HW224750   4.907   2.097   2.311  2.5649 -1.1549  0.9835
 6246SOL    HW324751   4.776   2.043   2.365  0.8374 -1.0585 -2.8039
 6246SOL    MW424752   4.861   2.058   2.374 -0.0459  0.5368 -0.4055
 6247SOL     OW24753   2.073   0.092   5.795  0.0017  0.2083 -0.1544
 6247SOL    HW224754   2.007   0.118   5.731  0.7231  0.8472 -0.6565
 6247SOL    HW324755   2.029   0.028   5.851 -0.9224  0.3517 -0.7071
 6247SOL    MW424756   2.059   0.087   5.794  0.0978  0.1375  0.7582
 6248SOL     OW24757   3.528   1.838   3.956  0.0647  0.3985  0.5798
 6248SOL    HW224758   3.506   1.831   3.864  0.3886  1.1962  0.4296
 6248SOL    HW324759   3.617   1.873   3.957 -1.0521  3.5044  1.1816
 6248SOL    MW424760   3.537   1.842   3.944 -0.5278  0.6472  0.2223
 6249SOL     OW24761   4.435   5.368   3.466 -0.0602  0.1539  0.2432
 6249SOL    HW224762   4.399   5.324   3.543 -0.3342  1.1726  0.7131
 6249SOL    HW324763   4.478   5.446   3.501  2.2038 -0.7535 -0.3553
 6249SOL    MW424764   4.436   5.372   3.481  0.3103  0.2157 -0.0521
 6250SOL     OW24765   2.864   3.705   1.367  0.0807  0.3244 -0.2561
 6250SOL    HW224766   2.893   3.640   1.302  0.6674  1.3034 -0.9940
 6250SOL    HW324767   2.887   3.666   1.451 -1.6892 -1.4729 -0.5195
 6250SOL    MW424768   2.871   3.691   1.369  0.0063 -0.4146 -0.0464
 6251SOL     OW24769   2.509   2.429   4.078 -0.2782 -0.6001 -0.0724
 6251SOL    HW224770   2.538   2.521   4.078 -0.1043 -0.6330  1.4013
 6251SOL    HW324771   2.508   2.405   3.985 -0.7466  1.0139 -0.5260
 6251SOL    MW424772   2.513   2.438   4.066 -0.0413 -0.1212 -0.6975
 6252SOL     OW24773   3.833   2.158   5.330 -0.0701  0.2677 -0.6324
 6252SOL    HW224774   3.845   2.167   5.236  0.7208  0.6316 -0.5067
 6252SOL    HW324775   3.806   2.246   5.359  1.3581  0.6272 -0.2970
 6252SOL    MW424776   3.831   2.171   5.321 -0.0212 -0.1835 -0.4470
 6253SOL     OW24777   6.445   4.887   4.052 -0.0765 -0.0535  0.9952
 6253SOL    HW224778   6.513   4.941   4.011  0.0016 -0.1235  1.0306
 6253SOL    HW324779   6.487   4.802   4.065 -0.3050 -0.2181  0.6447
 6253SOL    MW424780   6.460   4.883   4.049 -0.5349 -0.3658 -0.6569
 6254SOL     OW24781   0.403   2.050   4.682 -0.1631  0.2649  0.2618
 6254SOL    HW224782   0.367   1.988   4.745 -0.6831  0.4767  0.1807
 6254SOL    HW324783   0.467   2.000   4.631  2.0023  0.6282  2.4489
 6254SOL    MW424784   0.407   2.035   4.683  0.0420  0.2972 -0.0101
 6255SOL     OW24785   3.941   4.177   2.981  0.4953 -0.6193  0.5855
 6255SOL    HW224786   4.012   4.135   2.933  0.3215 -0.1367 -0.1173
 6255SOL    HW324787   3.954   4.150   3.072  0.8935 -1.4641  0.2880
 6255SOL    MW424788   3.952   4.168   2.987 -0.2340  0.5296 -0.0073
 6256SOL     OW24789   1.909   1.266   2.277 -0.7190  0.7355 -0.5342
 6256SOL    HW224790   1.985   1.251   2.333 -1.1111  1.5635  0.2304
 6256SOL    HW324791   1.942   1.324   2.208 -0.4180  0.2936 -0.7705
 6256SOL    MW424792   1.924   1.272   2.275 -0.1441  0.0322 -0.1238
 6257SOL     OW24793   4.027   5.275   3.829  0.2782  0.3885  0.2212
 6257SOL    HW224794   3.970   5.215   3.781 -0.3016  0.7887  0.3949
 6257SOL    HW324795   4.053   5.340   3.763 -0.4001  0.8541  0.3892
 6257SOL    MW424796   4.023   5.276   3.814 -0.4230 -0.2460  0.0292
 6258SOL     OW24797   1.322   4.650   2.942  0.6341 -0.1757 -0.5562
 6258SOL    HW224798   1.308   4.591   3.016 -2.3310  0.9269 -0.0536
 6258SOL    HW324799   1.403   4.697   2.963 -0.1071  0.0963  2.0660
 6258SOL    MW424800   1.331   4.649   2.955  0.1039 -0.0106 -0.1174
 6259SOL     OW24801   5.211   0.499   4.494 -0.0771 -0.2723 -0.8126
 6259SOL    HW224802   5.217   0.438   4.567  0.7982 -1.5781 -1.9338
 6259SOL    HW324803   5.239   0.449   4.418 -1.5349  0.8580 -2.1752
 6259SOL    MW424804   5.215   0.484   4.494  0.1804 -0.1979  0.4095
 6260SOL     OW24805   4.411   4.444   1.712  0.7404 -0.1894  0.1160
 6260SOL    HW224806   4.496   4.409   1.685 -0.5750 -2.3079 -1.6610
 6260SOL    HW324807   4.401   4.524   1.660  1.9174  0.4699  0.8713
 6260SOL    MW424808   4.421   4.450   1.701 -0.0202  0.4406  0.4159
 6261SOL     OW24809   6.051   3.383   2.677  0.5460 -0.0056  0.4590
 6261SOL    HW224810   6.033   3.337   2.759  0.6015 -0.1101  0.4117
 6261SOL    HW324811   5.977   3.444   2.668  1.0014  0.6594  1.0546
 6261SOL    MW424812   6.039   3.385   2.687 -0.5747 -0.3123  0.0035
 6262SOL     OW24813   1.554   4.864   6.405  0.3618 -0.2867  0.5228
 6262SOL    HW224814   1.623   4.811   6.445  0.2488 -1.4105 -0.7144
 6262SOL    HW324815   1.591   4.892   6.321 -0.4478 -0.3569  0.1390
 6262SOL    MW424816   1.568   4.861   6.399 -0.5832  0.5020  0.4361
 6263SOL     OW24817   5.768   5.750   2.169  0.0760 -0.1732 -0.4898
 6263SOL    HW224818   5.835   5.812   2.140  1.4173 -1.5904 -0.5688
 6263SOL    HW324819   5.818   5.676   2.204 -1.4746 -0.5549  1.0451
 6263SOL    MW424820   5.783   5.748   2.170 -0.1103 -0.5292 -0.2670
 6264SOL     OW24821   1.936   5.786   1.370 -0.9792 -0.3239  0.4802
 6264SOL    HW224822   2.007   5.783   1.434 -0.3654  1.1885 -0.0793
 6264SOL    HW324823   1.875   5.717   1.399 -0.8591  0.4528  2.8416
 6264SOL    MW424824   1.937   5.776   1.383 -0.1923 -0.6762  0.1989
 6265SOL     OW24825   4.334   3.478   4.286 -0.6867  0.3282  0.0504
 6265SOL    HW224826   4.332   3.420   4.210 -0.9260  0.5037 -0.0779
 6265SOL    HW324827   4.317   3.420   4.360 -3.4283  0.5612 -0.2808
 6265SOL    MW424828   4.331   3.462   4.286 -0.3807  0.2535  0.2890
 6266SOL     OW24829   3.280   3.092   0.286 -0.4146  0.1420  0.2359
 6266SOL    HW224830   3.237   3.167   0.326 -1.9258 -0.6073  0.0605
 6266SOL    HW324831   3.318   3.045   0.361 -3.7555 -1.5915  1.0250
 6266SOL    MW424832   3.280   3.096   0.301  0.3320  0.1693 -0.2844
 6267SOL     OW24833   3.672   6.409   1.281  0.2191  0.4517  0.1737
 6267SOL    HW224834   3.655   6.478   1.217 -1.2024 -0.5928 -0.6356
 6267SOL    HW324835   3.589   6.362   1.288  0.8620 -0.5473  1.4745
 6267SOL    MW424836   3.659   6.412   1.274 -0.2535  0.1299  0.0013
 6268SOL     OW24837   2.714   1.064   2.505  0.2725 -0.2808  0.4989
 6268SOL    HW224838   2.731   1.000   2.436  2.2538 -0.7456  1.3606
 6268SOL    HW324839   2.731   1.016   2.586 -2.9575 -0.0595  1.4638
 6268SOL    MW424840   2.718   1.049   2.507  0.3397  0.1413 -0.8906
 6269SOL     OW24841   1.465   3.519   3.338 -0.4053 -0.5502 -0.3615
 6269SOL    HW224842   1.479   3.432   3.299  1.2201 -0.2038 -0.6069
 6269SOL    HW324843   1.391   3.507   3.398  1.2476 -2.7072  1.4168
 6269SOL    MW424844   1.457   3.506   3.341  0.6676  0.4661 -0.1619
 6270SOL     OW24845   3.619   0.686   4.576 -0.1233 -0.7006 -0.4073
 6270SOL    HW224846   3.685   0.620   4.596 -0.5354 -1.3613 -1.1682
 6270SOL    HW324847   3.640   0.714   4.487 -0.4812 -0.4519 -0.4112
 6270SOL    MW424848   3.630   0.681   4.567  0.0010  0.3726  0.5469
 6271SOL     OW24849   5.490   0.894   3.305  0.2796  0.2423  0.1397
 6271SOL    HW224850   5.445   0.978   3.300 -1.1351 -0.4692  0.4655
 6271SOL    HW324851   5.550   0.894   3.231  0.6936  1.7431  0.4354
 6271SOL    MW424852   5.492   0.905   3.295  0.2418  0.1922  0.6643
 6272SOL     OW24853   4.195   1.292   4.616  0.3142  0.3680 -0.5285
 6272SOL    HW224854   4.181   1.202   4.644  0.3906  0.6452  0.4573
 6272SOL    HW324855   4.289   1.307   4.628  0.1579  0.8505  0.2172
 6272SOL    MW424856   4.205   1.282   4.622 -0.0873  0.0315 -0.0573
 6273SOL     OW24857   4.561   4.594   3.864  0.2705  0.3858 -0.2155
 6273SOL    HW224858   4.519   4.603   3.950  0.3826  0.2406 -0.1438
 6273SOL    HW324859   4.574   4.684   3.834  1.4670  0.4825  0.5311
 6273SOL    MW424860   4.557   4.607   3.872 -0.8377  0.4994 -0.0728
 6274SOL     OW24861   6.187   1.344   2.993 -0.4682 -0.3544  0.6476
 6274SOL    HW224862   6.235   1.314   3.069 -0.3576 -0.3391  0.5836
 6274SOL    HW324863   6.115   1.282   2.984 -1.3453  0.4753  1.6447
 6274SOL    MW424864   6.184   1.332   3.002 -0.0827  0.0633  0.1009
 6275SOL     OW24865   5.233   0.347   4.724  0.1590 -0.1522 -0.0961
 6275SOL    HW224866   5.173   0.282   4.687 -0.7489 -0.4949  1.8479
 6275SOL    HW324867   5.320   0.315   4.700 -0.3349 -1.0266 -0.8070
 6275SOL    MW424868   5.237   0.334   4.716 -0.0199 -0.3265  0.3341
 6276SOL     OW24869   1.044   5.660   1.513  0.4459  0.3593 -0.7453
 6276SOL    HW224870   1.105   5.695   1.578  0.9785  1.5640 -1.8480
 6276SOL    HW324871   1.052   5.565   1.522  0.4516  0.4843  0.9699
 6276SOL    MW424872   1.053   5.652   1.523 -0.1255 -0.3267  0.3627
 6277SOL     OW24873   4.997   0.144   4.214  0.1132  0.0587 -0.1448
 6277SOL    HW224874   4.936   0.185   4.152 -0.1491 -0.7496 -0.4318
 6277SOL    HW324875   5.042   0.218   4.256  0.2024  0.6227 -1.2028
 6277SOL    MW424876   4.995   0.159   4.211  0.1816 -0.0106 -0.1745
 6278SOL     OW24877   2.622   3.634   6.322  0.0065  0.0407  0.2076
 6278SOL    HW224878   2.711   3.655   6.291 -0.5411  0.2861 -1.2781
 6278SOL    HW324879   2.620   3.669   6.411  1.1429  0.7817 -0.0210
 6278SOL    MW424880   2.634   3.642   6.330  0.2408 -0.5219 -0.5090
 6279SOL     OW24881   3.071   4.073   5.167 -0.4496  0.1812 -0.0777
 6279SOL    HW224882   2.979   4.051   5.179 -0.4402  0.1332 -0.0939
 6279SOL    HW324883   3.091   4.132   5.240 -0.5940  0.4954 -0.2894
 6279SOL    MW424884   3.062   4.078   5.178 -0.5328 -0.0016  0.1518
 6280SOL     OW24885   5.337   0.867   1.563 -0.3736 -0.2842  0.1404
 6280SOL    HW224886   5.384   0.899   1.639 -0.8522  0.6908  0.0423
 6280SOL    HW324887   5.276   0.938   1.540  0.6147 -0.0053 -1.8988
 6280SOL    MW424888   5.335   0.880   1.570  0.2692  0.2615  0.1062
 6281SOL     OW24889   5.838   0.494   5.269  0.1964  0.2951  0.2609
 6281SOL    HW224890   5.902   0.424   5.261 -0.9935 -1.1625  2.3400
 6281SOL    HW324891   5.876   0.554   5.334  0.1260  0.2637  0.3305
 6281SOL    MW424892   5.851   0.493   5.277 -0.6482  0.2994 -0.1806
 6282SOL     OW24893   2.900   1.040   4.659 -0.1161 -0.2577  0.1936
 6282SOL    HW224894   2.932   1.098   4.727 -0.6273 -0.1902  0.3829
 6282SOL    HW324895   2.812   1.015   4.688 -0.0638 -0.7977 -0.0861
 6282SOL    MW424896   2.893   1.044   4.672  0.2624 -0.0367 -0.1754
 6283SOL     OW24897   4.801   0.527   5.276  0.1811 -0.2112  0.2719
 6283SOL    HW224898   4.761   0.615   5.273 -0.0500 -0.3293 -0.5775
 6283SOL    HW324899   4.788   0.498   5.366  0.1310  0.5690  0.5286
 6283SOL    MW424900   4.794   0.535   5.287 -0.8652  0.1690  0.2107
 6284SOL     OW24901   5.448   5.237   3.018 -0.2508 -0.1981 -0.0389
 6284SOL    HW224902   5.396   5.315   3.037 -2.0013 -1.3906  0.2334
 6284SOL    HW324903   5.436   5.181   3.094 -0.6055 -1.5470 -1.0497
 6284SOL    MW424904   5.440   5.240   3.030 -0.1773  0.0046 -0.6427
 6285SOL     OW24905   5.846   3.553   2.089  0.1111 -0.1949 -0.4583
 6285SOL    HW224906   5.820   3.566   2.180 -0.5063 -1.5936 -0.4107
 6285SOL    HW324907   5.811   3.629   2.043  1.0777  0.9120  0.5707
 6285SOL    MW424908   5.838   3.565   2.095  0.0812 -0.0339  0.1165
 6286SOL     OW24909   2.931   3.716   3.720 -0.1816 -0.0500  0.1314
 6286SOL    HW224910   2.975   3.801   3.710 -0.6507  0.0496 -1.2432
 6286SOL    HW324911   2.840   3.738   3.742 -0.8113 -0.1036 -2.1925
 6286SOL    MW424912   2.925   3.730   3.721 -0.2661 -0.0696 -0.0708
 6287SOL     OW24913   3.581   1.926   1.119 -0.4543  0.5599 -0.1002
 6287SOL    HW224914   3.603   2.016   1.142 -0.3844 -0.0351  2.4654
 6287SOL    HW324915   3.664   1.886   1.096 -0.7040  1.5521 -3.2522
 6287SOL    MW424916   3.595   1.933   1.119 -0.1149 -0.1239  0.2950
 6288SOL     OW24917   2.649   2.690   5.870  0.1346 -0.0111  0.3280
 6288SOL    HW224918   2.632   2.704   5.963  0.2362 -0.3614  0.4011
 6288SOL    HW324919   2.603   2.609   5.849 -1.3371  0.9425 -0.3426
 6288SOL    MW424920   2.641   2.681   5.880  0.0633 -0.2812 -0.0341
 6289SOL     OW24921   3.696   5.698   5.200 -0.4146  0.1582 -0.1306
 6289SOL    HW224922   3.620   5.642   5.189 -1.2127  1.1522  0.1598
 6289SOL    HW324923   3.740   5.698   5.115 -2.6035  2.1995 -1.3793
 6289SOL    MW424924   3.692   5.691   5.188 -0.8735  0.0305  0.0521
 6290SOL     OW24925   1.558   3.257   1.514 -0.1087  0.1083 -0.0792
 6290SOL    HW224926   1.563   3.165   1.537 -0.8618  0.0799 -0.0024
 6290SOL    HW324927   1.533   3.258   1.422 -0.8981  0.2316  0.1302
 6290SOL    MW424928   1.555   3.245   1.505 -0.4418 -0.2271  0.3462
 6291SOL     OW24929   6.349   2.024   4.707 -0.1942  0.2032  0.4180
 6291SOL    HW224930   6.427   2.016   4.653 -1.2127  0.4136 -1.1487
 6291SOL    HW324931   6.376   2.078   4.781  1.3489 -0.4470  0.3578
 6291SOL    MW424932   6.363   2.030   4.710 -0.2263 -0.0440 -0.1723
 6292SOL     OW24933   1.330   6.037   0.053 -0.0877 -0.4915 -0.3667
 6292SOL    HW224934   1.416   6.030   0.094  0.5010  0.6752 -1.3390
 6292SOL    HW324935   1.348   6.056  -0.039 -1.3579  1.3348 -0.2973
 6292SOL    MW424936   1.344   6.039   0.047  0.0423  0.4129 -0.3342
 6293SOL     OW24937   0.122   4.440   0.590 -0.0864 -0.3540 -0.4401
 6293SOL    HW224938   0.200   4.426   0.536  0.4223 -1.5801  0.5396
 6293SOL    HW324939   0.155   4.486   0.667 -0.7607  1.1809 -1.0388
 6293SOL    MW424940   0.137   4.444   0.593 -0.0146 -0.1044  0.2083
 6294SOL     OW24941   3.767   3.540   0.416 -0.1561 -0.1669  0.0840
 6294SOL    HW224942   3.727   3.626   0.428  1.4422  0.5893  0.3864
 6294SOL    HW324943   3.776   3.505   0.505 -1.3549 -0.9315 -0.0830
 6294SOL    MW424944   3.763   3.547   0.429  0.0032 -0.5369  0.2263
 6295SOL     OW24945   4.807   1.576   2.988 -0.0999  0.4860  0.4413
 6295SOL    HW224946   4.727   1.588   3.040 -0.0209  2.7768  0.1527
 6295SOL    HW324947   4.871   1.634   3.030  1.6091 -1.6262  0.9419
 6295SOL    MW424948   4.805   1.585   3.001  0.5495 -0.2011  0.1983
 6296SOL     OW24949   0.879   5.916   1.821  0.0754 -0.0563 -0.3787
 6296SOL    HW224950   0.822   5.863   1.766 -0.4099 -0.0266  0.0823
 6296SOL    HW324951   0.820   5.952   1.888  0.6281  0.0055  0.0785
 6296SOL    MW424952   0.864   5.914   1.823 -0.0140  0.2622 -0.2458
 6297SOL     OW24953   1.619   3.088   4.074  0.1532  0.7361  0.2235
 6297SOL    HW224954   1.606   3.046   3.989  0.8388 -1.9723  1.3439
 6297SOL    HW324955   1.530   3.109   4.104 -0.2150  0.2154 -0.4632
 6297SOL    MW424956   1.605   3.085   4.066  0.2373  0.1962 -1.0488
 6298SOL     OW24957   0.765   0.251   3.458 -0.4286 -0.1509  0.9411
 6298SOL    HW224958   0.824   0.176   3.446  1.3009  1.3215 -0.2812
 6298SOL    HW324959   0.686   0.226   3.410  1.1169 -0.1961 -1.8418
 6298SOL    MW424960   0.763   0.238   3.450  0.0621 -0.9993 -0.1344
 6299SOL     OW24961   2.979   2.469   2.333  0.6925  0.1907 -0.6584
 6299SOL    HW224962   3.002   2.425   2.251  0.2459 -1.3767  0.0154
 6299SOL    HW324963   3.061   2.506   2.365  1.2072 -0.6233 -0.9969
 6299SOL    MW424964   2.993   2.468   2.327 -0.6208  0.4416 -0.1852
 6300SOL     OW24965   0.221   6.161   6.324  0.8487  0.1790 -0.2679
 6300SOL    HW224966   0.222   6.230   6.257  1.8937 -0.1802 -0.6491
 6300SOL    HW324967   0.179   6.201   6.400  1.3829  1.2210 -0.5039
 6300SOL    MW424968   0.215   6.175   6.325 -0.3091 -0.0565 -0.1662
 6301SOL     OW24969   0.764   4.721   1.300  0.6533  0.0905 -0.3845
 6301SOL    HW224970   0.791   4.651   1.360  0.2082  0.1072 -0.1601
 6301SOL    HW324971   0.742   4.676   1.219  1.5893  0.1008 -0.6544
 6301SOL    MW424972   0.764   4.706   1.298  0.7560  0.4240  0.5325
 6302SOL     OW24973   2.733   0.700   2.610 -0.3406 -0.1463  0.2829
 6302SOL    HW224974   2.708   0.611   2.583  2.7026 -0.3839 -2.3459
 6302SOL    HW324975   2.777   0.687   2.695  0.0721 -1.1994 -0.0643
 6302SOL    MW424976   2.736   0.686   2.618  0.2739  0.1196 -0.3289
 6303SOL     OW24977   1.498   1.626   6.128 -0.3978 -0.5320 -0.1572
 6303SOL    HW224978   1.500   1.605   6.221  0.9145  1.5366  0.3554
 6303SOL    HW324979   1.448   1.707   6.123 -0.2330 -0.4824 -1.2164
 6303SOL    MW424980   1.492   1.634   6.140 -0.6978 -0.0268  0.2344
 6304SOL     OW24981   3.328   6.319   2.523  0.4260  0.3037 -0.1474
 6304SOL    HW224982   3.374   6.399   2.498  1.7316 -0.5588 -0.6624
 6304SOL    HW324983   3.278   6.294   2.446  0.9252  0.0366 -0.3953
 6304SOL    MW424984   3.328   6.326   2.510  0.0170  0.5630 -0.0630
 6305SOL     OW24985   4.253   0.660   5.814 -0.3340 -0.2964  0.3141
 6305SOL    HW224986   4.190   0.690   5.878 -0.5137 -2.8642  1.4466
 6305SOL    HW324987   4.202   0.649   5.733 -0.6875  0.3274  0.4439
 6305SOL    MW424988   4.238   0.662   5.812  0.2533 -0.5660 -0.6036
 6306SOL     OW24989   5.820   1.686   0.189 -0.1482  0.1457 -0.1210
 6306SOL    HW224990   5.915   1.689   0.191  0.0100 -2.5837  0.3254
 6306SOL    HW324991   5.794   1.767   0.145  2.4094  0.3355 -1.4557
 6306SOL    MW424992   5.829   1.697   0.183  0.4116  0.5534 -0.2482
 6307SOL     OW24993   3.979   6.263   2.512 -0.2534 -0.1824  0.2597
 6307SOL    HW224994   4.019   6.300   2.433 -0.6428 -0.2327  0.0351
 6307SOL    HW324995   4.042   6.281   2.582  0.9432 -1.7094 -0.3678
 6307SOL    MW424996   3.993   6.270   2.511  0.7635 -0.3276 -0.1958
 6308SOL     OW24997   3.569   3.943   3.890 -0.3673  0.4657 -0.2538
 6308SOL    HW224998   3.647   3.889   3.907  0.0413  1.0657 -0.1781
 6308SOL    HW324999   3.603   4.032   3.884 -0.7407  0.5173 -2.4358
 6308SOL    MW425000   3.584   3.948   3.892 -0.0540  0.3509  0.3101
 6309SOL     OW25001   5.893   1.372   3.728  0.6433  0.1114  0.3525
 6309SOL    HW225002   5.863   1.353   3.817  0.2833  1.7351  0.5974
 6309SOL    HW325003   5.950   1.448   3.737  1.7920 -0.5839 -0.6319
 6309SOL    MW425004   5.897   1.379   3.741 -0.5043  0.1705 -0.3321
 6310SOL     OW25005   2.737   0.614   3.339  0.1892 -0.1532  0.5362
 6310SOL    HW225006   2.756   0.568   3.257  0.4219 -0.4115  0.7320
 6310SOL    HW325007   2.668   0.677   3.316 -1.7504 -2.0957  0.7337
 6310SOL    MW425008   2.731   0.616   3.325 -0.1489  0.0128 -0.7212
 6311SOL     OW25009   0.901   4.329   0.564 -0.3316 -0.4332  0.4962
 6311SOL    HW225010   0.811   4.352   0.587 -0.4816 -1.4134  0.9156
 6311SOL    HW325011   0.907   4.235   0.579  0.3456 -0.6455 -0.9465
 6311SOL    MW425012   0.890   4.320   0.569  0.2108  0.0762 -0.1493
 6312SOL     OW25013   0.944   6.158   1.647 -0.4809  0.8527  0.3570
 6312SOL    HW225014   1.036   6.165   1.620 -0.7065 -0.1101 -0.7318
 6312SOL    HW325015   0.936   6.070   1.684 -1.4472  0.0486 -1.6477
 6312SOL    MW425016   0.955   6.148   1.648 -0.1004  0.0525 -0.0397
 6313SOL     OW25017   5.014   1.738   3.469  0.5446  0.3699  1.2134
 6313SOL    HW225018   4.955   1.814   3.471  1.1571  0.9757 -0.8966
 6313SOL    HW325019   5.095   1.772   3.431  0.8320 -1.3283  0.1983
 6313SOL    MW425020   5.017   1.753   3.464  0.4406 -0.0874  0.4013
 6314SOL     OW25021   3.308   5.793   2.854 -0.4421 -0.3213  0.2679
 6314SOL    HW225022   3.239   5.819   2.915 -0.9596  0.1314 -0.4964
 6314SOL    HW325023   3.272   5.810   2.767  0.3323 -0.8310 -0.1728
 6314SOL    MW425024   3.295   5.799   2.851  0.3232 -0.0174  0.6268
 6315SOL     OW25025   5.053   0.937   1.248  0.3626 -0.2244 -0.1169
 6315SOL    HW225026   5.078   0.954   1.339  0.7306 -1.4547  0.0357
 6315SOL    HW325027   5.028   1.022   1.213 -2.6450 -0.0790  1.9834
 6315SOL    MW425028   5.053   0.950   1.256  0.2012  0.3128 -0.0622
 6316SOL     OW25029   0.615   0.311   1.644 -0.3443  0.0454 -0.0196
 6316SOL    HW225030   0.583   0.273   1.726  0.4023 -0.5253  0.0134
 6316SOL    HW325031   0.709   0.295   1.645 -0.3979 -0.4530 -1.2428
 6316SOL    MW425032   0.623   0.304   1.655 -0.1389  0.3859 -0.0777
 6317SOL     OW25033   5.696   5.130   3.707 -0.1546 -0.2614 -0.2966
 6317SOL    HW225034   5.698   5.097   3.617  1.7771 -0.4012 -0.2432
 6317SOL    HW325035   5.645   5.065   3.755 -1.0087 -0.3129 -1.2331
 6317SOL    MW425036   5.689   5.117   3.701  0.1674 -0.1719  0.3688
 6318SOL     OW25037   1.729   1.189   5.502  0.2975 -0.1519  0.3999
 6318SOL    HW225038   1.651   1.190   5.558  1.2639  1.6054  1.8178
 6318SOL    HW325039   1.779   1.112   5.532  0.4658  0.3698  1.4991
 6318SOL    MW425040   1.726   1.179   5.513  0.3155 -0.9923  0.6900
 6319SOL     OW25041   4.912   6.291   6.398 -0.0908  0.0086 -0.2625
 6319SOL    HW225042   4.899   6.315   6.489 -0.0226 -1.6860  0.2397
 6319SOL    HW325043   4.842   6.227   6.380 -0.6799  0.9958 -1.6860
 6319SOL    MW425044   4.901   6.285   6.407  0.3160 -0.3230 -0.1064
 6320SOL     OW25045   5.450   2.133   4.460 -0.1428  0.0747  0.9370
 6320SOL    HW225046   5.417   2.045   4.443  1.2090 -0.5199  1.2281
 6320SOL    HW325047   5.540   2.132   4.428 -0.3431  1.6177  0.2092
 6320SOL    MW425048   5.457   2.122   4.454 -0.2007 -0.3929 -0.1920
 6321SOL     OW25049   4.218   0.081   4.287 -0.3953 -0.0073 -0.6846
 6321SOL    HW225050   4.173   0.089   4.202 -2.0231 -0.0039  0.1464
 6321SOL    HW325051   4.154   0.037   4.343  1.1294 -1.1512  0.2167
 6321SOL    MW425052   4.203   0.076   4.283 -0.3201  0.8128 -0.5830
 6322SOL     OW25053   5.519   4.373   1.630 -0.1309 -0.1381 -0.5213
 6322SOL    HW225054   5.454   4.338   1.690  0.0896 -0.4757 -0.4755
 6322SOL    HW325055   5.469   4.424   1.567 -0.3220  0.6193  0.2216
 6322SOL    MW425056   5.504   4.375   1.630  0.0514 -0.4242 -0.4035
 6323SOL     OW25057   0.868   0.425   0.283  0.4968  0.0431 -0.2676
 6323SOL    HW225058   0.835   0.461   0.201  2.1021 -1.8794 -1.8654
 6323SOL    HW325059   0.958   0.457   0.290  0.2605  0.4798  0.9463
 6323SOL    MW425060   0.875   0.434   0.273  0.2432 -0.3023 -0.3236
 6324SOL     OW25061   6.408   5.717   4.247  0.0895 -0.4902 -0.2769
 6324SOL    HW225062   6.387   5.693   4.338 -1.0558 -1.0421 -0.6573
 6324SOL    HW325063   6.502   5.733   4.247  0.0918 -0.4190  1.0239
 6324SOL    MW425064   6.417   5.716   4.259 -0.2187 -0.0044 -0.3548
 6325SOL     OW25065   4.272   5.756   1.489  0.2493  0.0278  0.3753
 6325SOL    HW225066   4.294   5.848   1.473  1.0513  0.3611  3.0336
 6325SOL    HW325067   4.327   5.707   1.427  0.8305  1.2683 -0.1245
 6325SOL    MW425068   4.282   5.762   1.479 -0.3156 -0.3604 -0.4675
 6326SOL     OW25069   3.737   3.672   4.505  0.6535 -0.4655 -0.8035
 6326SOL    HW225070   3.819   3.713   4.531  0.9800 -2.2176  1.1033
 6326SOL    HW325071   3.759   3.623   4.425  0.9282  0.6907 -1.4652
 6326SOL    MW425072   3.751   3.671   4.498  0.2452  0.3974 -0.8209
 6327SOL     OW25073   3.079   2.357   0.818  0.4709 -0.5885 -0.2733
 6327SOL    HW225074   3.073   2.313   0.903 -1.8067 -1.1786 -0.6691
 6327SOL    HW325075   3.040   2.443   0.833 -0.3526 -0.8585 -0.8015
 6327SOL    MW425076   3.073   2.363   0.831  0.3933 -0.2333  0.0439
 6328SOL     OW25077   5.717   4.629   5.547 -0.4672 -0.3883 -0.4849
 6328SOL    HW225078   5.679   4.601   5.630 -0.6660 -2.4738 -1.2171
 6328SOL    HW325079   5.780   4.560   5.525  2.3285  1.9369 -0.3108
 6328SOL    MW425080   5.720   4.616   5.555 -0.1071 -0.7150  0.0142
 6329SOL     OW25081   5.733   3.093   2.762  0.6597 -0.0813 -0.0049
 6329SOL    HW225082   5.729   3.186   2.785 -0.0501  0.1423 -0.9358
 6329SOL    HW325083   5.642   3.065   2.760  0.9219 -1.0969  1.3508
 6329SOL    MW425084   5.720   3.101   2.765  0.3874 -0.9923 -0.5730
 6330SOL     OW25085   2.931   3.407   5.125  0.5069  1.2782  0.4752
 6330SOL    HW225086   2.948   3.500   5.138 -0.2447  1.9452 -2.5941
 6330SOL    HW325087   2.951   3.391   5.033 -0.3966 -1.3687  0.6448
 6330SOL    MW425088   2.936   3.417   5.115  0.0008  0.7064  0.1510
 6331SOL     OW25089   2.086   1.366   5.189  0.0017 -0.3976 -0.1384
 6331SOL    HW225090   2.114   1.341   5.277  0.3904 -0.1766 -0.1977
 6331SOL    HW325091   1.990   1.370   5.195  0.0764  1.1086  0.7062
 6331SOL    MW425092   2.077   1.363   5.201  0.0272 -0.4677 -0.5830
 6332SOL     OW25093   2.783   1.675   0.913  0.1198 -0.7360 -0.2452
 6332SOL    HW225094   2.695   1.696   0.943 -0.0856 -1.7282 -0.1154
 6332SOL    HW325095   2.803   1.590   0.953  1.8634  0.2879  1.2498
 6332SOL    MW425096   2.774   1.666   0.922 -0.0342  0.0026  0.0372
 6333SOL     OW25097   0.088   0.889   1.681 -0.2333 -0.1604 -0.2472
 6333SOL    HW225098   0.133   0.923   1.758  2.2513  0.9896 -2.0626
 6333SOL    HW325099  -0.002   0.920   1.690  0.3458  1.1873  1.4467
 6333SOL    MW425100   0.082   0.898   1.693 -0.5375  0.3133  0.3094
 6334SOL     OW25101   5.732   2.129   2.488  0.0823  0.2195  0.0203
 6334SOL    HW225102   5.639   2.136   2.508  0.2863  0.4445  0.9479
 6334SOL    HW325103   5.755   2.214   2.449  0.2221  0.7510  1.2223
 6334SOL    MW425104   5.723   2.141   2.485 -0.4986 -0.8006 -0.1943
 6335SOL     OW25105   3.027   5.016   4.923  0.2536  0.3655  0.0045
 6335SOL    HW225106   3.001   5.063   5.002 -0.6042 -1.0156  0.5730
 6335SOL    HW325107   3.121   4.999   4.934 -0.0080 -0.4463  1.0790
 6335SOL    MW425108   3.036   5.020   4.935 -0.3910 -0.0960  0.1256
 6336SOL     OW25109   1.752   1.300   3.384 -0.2018  0.6620  0.3217
 6336SOL    HW225110   1.700   1.339   3.313  0.9941  3.0332  0.6378
 6336SOL    HW325111   1.719   1.342   3.463 -1.1677 -1.5724  1.1829
 6336SOL    MW425112   1.741   1.311   3.385 -0.2261 -0.4702 -0.0078
 6337SOL     OW25113   1.619   3.130   3.595  0.7160  0.0299  0.0266
 6337SOL    HW225114   1.586   3.214   3.626 -0.9984 -0.9216  0.9200
 6337SOL    HW325115   1.562   3.106   3.523  1.5994 -0.0815 -0.6486
 6337SOL    MW425116   1.607   3.138   3.590  0.3830 -0.8579  0.4585
 6338SOL     OW25117   0.212   2.979   6.071 -0.3424  0.9325 -0.3166
 6338SOL    HW225118   0.272   2.944   6.137  0.6070  1.7226 -0.7396
 6338SOL    HW325119   0.127   2.939   6.093  0.0651  0.7427  1.0273
 6338SOL    MW425120   0.209   2.969   6.082 -0.8429  0.0113  0.1114
 6339SOL     OW25121   1.966   3.071   1.400  0.3924 -0.6108  0.3468
 6339SOL    HW225122   1.882   3.025   1.395  0.4017 -0.7184  1.0905
 6339SOL    HW325123   1.943   3.163   1.408  0.3600 -0.5655 -0.2457
 6339SOL    MW425124   1.952   3.077   1.401 -0.0162 -0.2068 -0.1078
 6340SOL     OW25125   3.302   5.541   5.366 -0.1483 -0.0967  0.4136
 6340SOL    HW225126   3.364   5.538   5.293 -1.8003 -0.7318 -1.0353
 6340SOL    HW325127   3.242   5.612   5.344 -0.2049  0.2398  1.5805
 6340SOL    MW425128   3.302   5.550   5.353  0.0735 -0.0787 -0.8326
 6341SOL     OW25129   2.105   3.599   3.860 -0.3274  0.1553 -0.0487
 6341SOL    HW225130   2.083   3.553   3.779  2.0572 -1.7046  0.2865
 6341SOL    HW325131   2.160   3.673   3.832 -0.7877  0.4371 -0.2263
 6341SOL    MW425132   2.109   3.603   3.845 -0.2535 -0.5379 -0.3253
 6342SOL     OW25133   1.970   5.724   2.494 -0.0827  0.0527  0.8336
 6342SOL    HW225134   2.005   5.810   2.470  0.5057 -0.4483 -0.1495
 6342SOL    HW325135   1.903   5.706   2.429 -0.1499 -0.2762  0.9927
 6342SOL    MW425136   1.966   5.733   2.482  0.0212 -0.3424  0.6575
 6343SOL     OW25137   1.974   0.202   0.809 -0.8128  0.2381 -0.2262
 6343SOL    HW225138   1.994   0.211   0.903 -0.4785 -2.5184  0.0476
 6343SOL    HW325139   2.038   0.139   0.777 -1.9433 -0.0840 -1.9772
 6343SOL    MW425140   1.985   0.195   0.817  0.1491  0.4013  0.2398
 6344SOL     OW25141   2.298   0.769   0.787 -0.5856 -0.4735  0.1457
 6344SOL    HW225142   2.301   0.681   0.749  1.5434 -0.3446 -0.1405
 6344SOL    HW325143   2.302   0.754   0.881 -0.0075 -0.6938  0.0909
 6344SOL    MW425144   2.299   0.755   0.794  0.2195 -0.4696  0.0975
 6345SOL     OW25145   4.654   2.376   1.758 -0.0245  0.3876 -0.4625
 6345SOL    HW225146   4.596   2.446   1.789 -1.1993 -0.3289 -1.0047
 6345SOL    HW325147   4.609   2.295   1.781  0.4235 -0.1838 -1.5318
 6345SOL    MW425148   4.641   2.375   1.765 -0.4070 -0.0256  0.3335
 6346SOL     OW25149   2.054   1.391   1.109  0.5197  0.0612 -0.0937
 6346SOL    HW225150   2.057   1.313   1.164  0.9726 -1.0513 -1.6344
 6346SOL    HW325151   2.146   1.414   1.095  0.4774 -0.5132 -1.4932
 6346SOL    MW425152   2.067   1.384   1.114 -0.3519  0.2756 -0.7938
 6347SOL     OW25153   2.175   2.027   0.798 -0.2517  0.1828  0.0381
 6347SOL    HW225154   2.261   1.986   0.800 -0.1786  0.3708  0.7735
 6347SOL    HW325155   2.139   2.013   0.885 -0.1362  1.8422  0.3854
 6347SOL    MW425156   2.182   2.020   0.809 -0.4723 -0.1911  0.0780
 6348SOL     OW25157   3.316   2.423   1.869 -0.3614  0.4304 -0.0707
 6348SOL    HW225158   3.322   2.497   1.929 -0.5125 -0.2498  0.8136
 6348SOL    HW325159   3.366   2.353   1.912 -1.7613 -0.5554  0.0312
 6348SOL    MW425160   3.323   2.423   1.883 -0.2592 -0.5918 -0.0735
 6349SOL     OW25161   3.941   5.737   1.759  0.1064 -0.4414 -0.0828
 6349SOL    HW225162   3.882   5.665   1.738 -0.4320  0.2253 -0.9645
 6349SOL    HW325163   3.884   5.814   1.765  0.5635 -0.1930  1.5763
 6349SOL    MW425164   3.926   5.738   1.757 -0.6364 -0.6830  0.1663
 6350SOL     OW25165   0.412   4.177   4.482 -0.0936 -0.5924 -0.1188
 6350SOL    HW225166   0.471   4.232   4.432 -0.4397 -0.8454 -0.8226
 6350SOL    HW325167   0.329   4.225   4.483 -0.6903 -1.5078 -1.5903
 6350SOL    MW425168   0.408   4.190   4.475  0.2957  0.5420  0.2775
 6351SOL     OW25169   6.303   0.496   2.070 -0.3580  0.2877 -0.1815
 6351SOL    HW225170   6.298   0.511   1.975 -0.9554 -0.2150 -0.2332
 6351SOL    HW325171   6.219   0.528   2.103 -0.6639 -0.7034  0.0154
 6351SOL    MW425172   6.291   0.502   2.062 -0.4391  0.3698  0.0917
 6352SOL     OW25173   6.124   4.438   4.744  0.5404 -0.0426 -0.4134
 6352SOL    HW225174   6.199   4.378   4.744  1.5026  1.1014  0.3718
 6352SOL    HW325175   6.127   4.480   4.658  0.5444 -0.2843 -0.5336
 6352SOL    MW425176   6.134   4.436   4.732 -0.6235  0.1635 -0.4757
 6353SOL     OW25177   6.320   1.171   3.680  0.6276 -0.6199 -0.6572
 6353SOL    HW225178   6.336   1.263   3.703  0.6595 -0.7648 -0.1073
 6353SOL    HW325179   6.305   1.127   3.763 -3.0161 -0.4579 -1.0332
 6353SOL    MW425180   6.320   1.177   3.694 -0.3341 -0.0883  0.1806
 6354SOL     OW25181   2.448   5.636   0.388 -0.3015  0.3222  0.6898
 6354SOL    HW225182   2.416   5.604   0.473  2.2819  0.9052  1.9758
 6354SOL    HW325183   2.483   5.558   0.345 -1.5097  0.0471  0.1521
 6354SOL    MW425184   2.448   5.621   0.394 -0.7054 -0.1030  0.5201
 6355SOL     OW25185   0.294   1.600   1.288  0.1610 -0.3485  0.4232
 6355SOL    HW225186   0.306   1.666   1.219  3.1915 -0.9052  0.2406
 6355SOL    HW325187   0.259   1.524   1.242  0.4689 -0.1326 -0.1843
 6355SOL    MW425188   0.291   1.599   1.273 -0.4773  0.2591  0.0828
 6356SOL     OW25189   1.411   5.148   3.681  0.0642 -0.3934  0.5230
 6356SOL    HW225190   1.380   5.157   3.771 -2.0218 -0.8139 -0.0968
 6356SOL    HW325191   1.356   5.206   3.630  1.9733  0.7236 -0.3939
 6356SOL    MW425192   1.400   5.157   3.686  0.6118  0.5300  0.0456
 6357SOL     OW25193   0.046   0.010   3.127  0.2175  0.3311  0.0182
 6357SOL    HW225194   0.077   0.083   3.179  1.4053  0.6928 -1.1278
 6357SOL    HW325195   0.072  -0.068   3.176  2.6681  0.6319 -0.6628
 6357SOL    MW425196   0.053   0.009   3.140 -0.4750  0.4061 -0.6147
 6358SOL     OW25197   6.055   1.443   2.363 -0.3611 -0.0208 -0.2033
 6358SOL    HW225198   6.019   1.357   2.341  0.4639 -0.5946  0.6172
 6358SOL    HW325199   6.079   1.437   2.455  0.5515  0.7904 -0.3641
 6358SOL    MW425200   6.053   1.431   2.372  0.7054  0.4821 -0.0807
 6359SOL     OW25201   4.951   3.991   3.665  0.5188 -0.0855  0.3466
 6359SOL    HW225202   4.947   3.896   3.670 -2.2225 -0.0717 -0.0971
 6359SOL    HW325203   4.887   4.014   3.597 -0.0698  2.1321  1.5624
 6359SOL    MW425204   4.942   3.982   3.657  0.0148  0.1467  0.9781
 6360SOL     OW25205   4.387   0.295   3.609 -0.0880  0.0299  0.0768
 6360SOL    HW225206   4.458   0.308   3.672 -0.7117 -0.5433  0.9312
 6360SOL    HW325207   4.431   0.279   3.526  0.7780 -0.1063  0.5450
 6360SOL    MW425208   4.402   0.294   3.606 -0.0701 -0.3653 -0.1127
 6361SOL     OW25209   3.057   5.985   2.094  0.3187  0.1219 -0.1091
 6361SOL    HW225210   3.149   5.999   2.118 -0.3237 -0.0537  2.8339
 6361SOL    HW325211   3.030   5.911   2.148 -1.4486 -0.1252 -1.2800
 6361SOL    MW425212   3.066   5.977   2.104  0.6355  0.1011 -0.1645
 6362SOL     OW25213   0.890   4.795   4.518  0.4252 -0.2534 -0.1603
 6362SOL    HW225214   0.830   4.838   4.458  0.5571 -0.3239 -0.3436
 6362SOL    HW325215   0.855   4.706   4.528 -0.4379  0.1951  1.0337
 6362SOL    MW425216   0.878   4.789   4.512  0.5472 -0.0582 -0.1976
 6363SOL     OW25217   3.978   2.671   3.346  0.0255 -0.2208  0.0221
 6363SOL    HW225218   4.046   2.714   3.399 -0.3510 -1.0282  1.2160
 6363SOL    HW325219   3.981   2.716   3.262  0.8218  0.9594  0.6466
 6363SOL    MW425220   3.987   2.682   3.342 -0.2833 -0.1185  0.0381
 6364SOL     OW25221   2.212   1.704   5.670 -0.2371  0.0534 -0.1829
 6364SOL    HW225222   2.128   1.739   5.702 -1.0127 -1.0849 -0.9000
 6364SOL    HW325223   2.278   1.756   5.715 -1.3289  0.8744  0.5266
 6364SOL    MW425224   2.210   1.715   5.680  0.0540  0.4881 -0.1173
 6365SOL     OW25225   6.187   5.574   5.443  0.3816  0.3659  0.4488
 6365SOL    HW225226   6.128   5.612   5.508  0.8801 -0.2497  1.2692
 6365SOL    HW325227   6.273   5.575   5.484  0.7630  0.2589 -0.3218
 6365SOL    MW425228   6.191   5.579   5.457  0.3067  0.1964  0.1282
 6366SOL     OW25229   6.101   6.282   2.272  0.4013  0.4488  0.6784
 6366SOL    HW225230   6.143   6.360   2.309 -1.2879  1.4384  0.6087
 6366SOL    HW325231   6.097   6.298   2.178  0.9469 -0.2005  0.5321
 6366SOL    MW425232   6.106   6.294   2.265  0.1657  0.2864 -0.4380
 6367SOL     OW25233   1.831   5.508   4.964 -0.0129 -0.1150 -0.2522
 6367SOL    HW225234   1.782   5.426   4.959 -1.3572  0.7247 -1.5378
 6367SOL    HW325235   1.807   5.545   5.049 -0.4496 -0.4236 -0.2364
 6367SOL    MW425236   1.822   5.502   4.975  0.2273  0.4641  0.0465
 6368SOL     OW25237   2.896   1.772   6.005  0.2921  0.1558  0.1462
 6368SOL    HW225238   2.807   1.807   5.995  0.3789  0.5067  0.5654
 6368SOL    HW325239   2.889   1.680   5.978  0.1838  0.6308 -1.5485
 6368SOL    MW425240   2.883   1.765   6.000 -0.1870  0.3364 -0.0487
 6369SOL     OW25241   0.914   5.958   5.516  0.5821  0.1516  0.3076
 6369SOL    HW225242   0.976   6.003   5.573  0.0008 -1.2779  2.1769
 6369SOL    HW325243   0.828   5.988   5.546  0.2859  0.9588 -1.2465
 6369SOL    MW425244   0.911   5.968   5.528 -0.4458  0.0256  0.0923
 6370SOL     OW25245   3.399   2.748   1.450  0.2460 -0.2212 -0.0660
 6370SOL    HW225246   3.356   2.665   1.468  1.6100 -0.6015  1.7315
 6370SOL    HW325247   3.334   2.814   1.472 -0.1398 -0.8043  0.5865
 6370SOL    MW425248   3.385   2.746   1.455  0.0646 -0.2444  0.3962
 6371SOL     OW25249   4.378   3.997   3.089  0.1965 -0.6374  0.2695
 6371SOL    HW225250   4.361   3.912   3.048  3.3583 -1.0382 -0.4793
 6371SOL    HW325251   4.398   4.056   3.016 -0.8466  0.4958  0.8618
 6371SOL    MW425252   4.379   3.993   3.074  0.3741 -0.3042 -0.2879
 6372SOL     OW25253   0.693   2.692   0.417  0.0358  0.4165  0.1224
 6372SOL    HW225254   0.700   2.776   0.372  1.3068 -0.9646 -2.5434
 6372SOL    HW325255   0.783   2.670   0.442 -0.5604  0.8333  2.9806
 6372SOL    MW425256   0.706   2.700   0.414  0.1554 -0.0797  0.0888
 6373SOL     OW25257   5.124   0.815   5.409  0.3942  0.7124 -0.5648
 6373SOL    HW225258   5.109   0.743   5.470  2.6346  2.0092  1.7181
 6373SOL    HW325259   5.168   0.775   5.334 -1.4225 -0.7504 -0.9231
 6373SOL    MW425260   5.128   0.800   5.407 -0.2600 -0.1934 -0.3618
 6374SOL     OW25261   0.119   5.572   1.740 -0.0713  0.3480  0.0457
 6374SOL    HW225262   0.024   5.582   1.748 -0.2086 -1.2680  0.9480
 6374SOL    HW325263   0.153   5.594   1.826  0.3504  0.6502 -0.1958
 6374SOL    MW425264   0.111   5.576   1.752  0.4226  0.1698  0.4355
 6375SOL     OW25265   4.666   4.563   0.691  0.6542 -0.2124  0.1227
 6375SOL    HW225266   4.583   4.517   0.703 -0.0417  1.5598  3.0715
 6375SOL    HW325267   4.642   4.645   0.647  1.0701 -0.3529 -0.3715
 6375SOL    MW425268   4.652   4.568   0.687  0.5878 -0.3002  0.2116
 6376SOL     OW25269   3.281   0.359   3.704 -0.9974 -0.5069 -0.4303
 6376SOL    HW225270   3.221   0.400   3.642 -0.4587 -0.0831 -0.6799
 6376SOL    HW325271   3.291   0.269   3.672  1.9116  0.5421 -3.0394
 6376SOL    MW425272   3.275   0.353   3.692 -0.3037  0.3029 -0.1892
 6377SOL     OW25273   1.725   2.985   5.022 -0.4446 -0.0197 -0.4919
 6377SOL    HW225274   1.635   2.982   4.988 -0.1437  0.8104 -1.4242
 6377SOL    HW325275   1.778   3.012   4.947  0.4807  0.2422  0.2314
 6377SOL    MW425276   1.720   2.988   5.007  0.2341  0.1866 -0.3238
 6378SOL     OW25277   3.052   3.994   3.722  0.2172  0.6283 -0.2699
 6378SOL    HW225278   3.113   3.994   3.796 -0.4785 -2.3925  0.4397
 6378SOL    HW325279   3.107   3.977   3.646  0.4729 -1.0695  0.2387
 6378SOL    MW425280   3.067   3.992   3.722 -0.1660 -0.2517 -0.0271
 6379SOL     OW25281   5.551   2.371   1.869  0.1262 -0.1573 -0.2165
 6379SOL    HW225282   5.624   2.372   1.806 -0.3902  0.3631 -0.8114
 6379SOL    HW325283   5.551   2.458   1.909 -0.4229 -0.0181 -0.5130
 6379SOL    MW425284   5.561   2.382   1.866  0.7591  0.1236  0.8011
 6380SOL     OW25285   4.617   3.910   4.969 -0.4261  0.2492 -0.0136
 6380SOL    HW225286   4.668   3.832   4.948 -1.4289 -0.3071 -0.5025
 6380SOL    HW325287   4.680   3.973   5.002  0.2418 -1.2533  1.7463
 6380SOL    MW425288   4.632   3.908   4.971 -0.4975  0.4133 -0.0036
 6381SOL     OW25289   6.415   0.235   5.081  0.1789 -0.3904 -0.5301
 6381SOL    HW225290   6.395   0.256   5.172 -3.4524 -0.8672 -1.0673
 6381SOL    HW325291   6.471   0.158   5.086  0.5589 -0.0433  1.2734
 6381SOL    MW425292   6.420   0.228   5.094 -0.2857 -0.5898 -0.0955
 6382SOL     OW25293   0.132   0.100   3.568 -0.1484 -0.0711 -0.3741
 6382SOL    HW225294   0.057   0.046   3.545  0.0140 -0.1203 -0.7992
 6382SOL    HW325295   0.160   0.139   3.485  0.9086 -0.8433 -0.4046
 6382SOL    MW425296   0.126   0.098   3.554 -0.6908  0.3420 -0.0853
 6383SOL     OW25297   3.814   3.112   2.868 -0.4965 -0.3307 -0.2895
 6383SOL    HW225298   3.722   3.131   2.850 -1.2462  0.2969  3.4543
 6383SOL    HW325299   3.844   3.186   2.921  2.5747  0.0357 -2.2438
 6383SOL    MW425300   3.806   3.125   2.873  0.1907  0.5495  0.0030
 6384SOL     OW25301   1.705   4.748   4.709 -0.2259 -0.2519 -0.3279
 6384SOL    HW225302   1.665   4.762   4.794 -0.3289  1.7434 -0.6650
 6384SOL    HW325303   1.633   4.720   4.652 -0.4669 -0.0600 -0.1191
 6384SOL    MW425304   1.690   4.746   4.712  0.1089 -0.1212 -0.1457
 6385SOL     OW25305   3.059   0.527   3.600 -0.1724  0.1678 -0.3177
 6385SOL    HW225306   3.072   0.619   3.578  0.4874  0.5200  1.4163
 6385SOL    HW325307   2.996   0.529   3.672 -1.8078 -0.9060 -1.6144
 6385SOL    MW425308   3.052   0.539   3.606  0.1901  0.3328 -0.5061
 6386SOL     OW25309   3.921   1.783   1.922 -0.1858  0.1350  0.0459
 6386SOL    HW225310   3.873   1.790   2.005  0.7844 -0.6368  0.7094
 6386SOL    HW325311   3.888   1.703   1.882 -0.1814  0.1488  0.0150
 6386SOL    MW425312   3.911   1.774   1.928  0.4093  0.0659 -0.0504
 6387SOL     OW25313   5.515   0.660   4.996 -0.2740 -0.5253 -0.2556
 6387SOL    HW225314   5.443   0.714   4.966  0.6736  0.1858 -1.3433
 6387SOL    HW325315   5.574   0.721   5.040  0.1107 -0.9258 -0.2089
 6387SOL    MW425316   5.513   0.675   4.998  0.3647 -0.2921  0.1002
 6388SOL     OW25317   4.955   0.867   4.176 -0.3913  0.1753  0.4393
 6388SOL    HW225318   4.998   0.802   4.233  1.2823  1.4557  0.7285
 6388SOL    HW325319   4.989   0.847   4.089 -1.3000 -0.4466  0.2117
 6388SOL    MW425320   4.965   0.856   4.172  0.1742  0.4008 -0.0480
 6389SOL     OW25321   4.386   4.802   6.359 -0.3847  0.1107  0.1564
 6389SOL    HW225322   4.454   4.754   6.311 -0.6804 -0.5899  0.4357
 6389SOL    HW325323   4.304   4.774   6.319 -0.7338 -1.4398  1.8442
 6389SOL    MW425324   4.384   4.792   6.347  0.2143 -0.0819  0.1277
 6390SOL     OW25325   0.314   0.552   4.846  0.8915  0.8994 -1.0752
 6390SOL    HW225326   0.364   0.494   4.788 -0.6870 -0.4621 -1.1708
 6390SOL    HW325327   0.225   0.549   4.811  0.2913  1.5168  0.3379
 6390SOL    MW425328   0.309   0.544   4.833 -0.0051 -0.2912 -0.2946
 6391SOL     OW25329   5.111   1.912   2.718 -0.3804 -0.5076 -1.0649
 6391SOL    HW225330   5.176   1.844   2.732 -0.5938 -0.5699 -0.3519
 6391SOL    HW325331   5.142   1.961   2.641  1.4434  0.5928  0.3156
 6391SOL    MW425332   5.123   1.910   2.709 -0.9109  0.3156 -0.0854
 6392SOL     OW25333   5.815   5.249   1.098  0.0511  0.2323  0.2462
 6392SOL    HW225334   5.822   5.288   1.185 -1.7418  3.2653 -0.8101
 6392SOL    HW325335   5.723   5.222   1.091 -0.0326  0.7602 -0.9530
 6392SOL    MW425336   5.804   5.251   1.109 -0.4149 -0.0457  0.1722
 6393SOL     OW25337   5.182   2.829   3.563  0.1458  0.2041  0.1070
 6393SOL    HW225338   5.258   2.887   3.553  0.6438 -0.2704  1.0367
 6393SOL    HW325339   5.110   2.888   3.587 -0.0108  0.7697 -1.5945
 6393SOL    MW425340   5.182   2.845   3.565 -0.2028  0.4665 -0.3385
 6394SOL     OW25341   2.991   1.203   4.863 -0.5152 -0.5238 -0.3343
 6394SOL    HW225342   2.970   1.291   4.896 -1.1816  0.1193 -2.3066
 6394SOL    HW325343   3.078   1.184   4.897 -0.3673  0.9013  0.1459
 6394SOL    MW425344   3.000   1.212   4.872 -0.0857  0.4260  0.7754
 6395SOL     OW25345   1.020   3.580   3.437 -0.0784 -0.4379 -0.2235
 6395SOL    HW225346   0.990   3.576   3.527  0.5631 -2.9436 -0.0381
 6395SOL    HW325347   1.085   3.651   3.436  0.4048 -0.8137  1.4717
 6395SOL    MW425348   1.025   3.588   3.448 -0.5352 -0.9277 -0.3300
 6396SOL     OW25349   1.311   0.095   1.812 -0.2451  0.0922 -0.2475
 6396SOL    HW225350   1.348   0.142   1.887  1.7407  0.2981 -1.2878
 6396SOL    HW325351   1.377   0.028   1.792 -1.6807 -1.2855 -0.5905
 6396SOL    MW425352   1.324   0.092   1.820  0.1808  0.1289  0.2962
 6397SOL     OW25353   2.884   2.467   4.602 -0.0551  0.2992  0.0964
 6397SOL    HW225354   2.900   2.376   4.626  1.7472  0.6174  0.2266
 6397SOL    HW325355   2.859   2.464   4.510  0.0891 -0.3260  0.0753
 6397SOL    MW425356   2.883   2.454   4.593 -0.2336  0.1309 -0.4185
 6398SOL     OW25357   1.658   1.810   4.369  0.1126 -0.0350  0.3255
 6398SOL    HW225358   1.578   1.848   4.332 -0.1647 -0.2375  0.7003
 6398SOL    HW325359   1.729   1.864   4.333 -0.1718  0.0027 -0.1965
 6398SOL    MW425360   1.656   1.822   4.359 -0.1199  0.0700 -0.1372
 6399SOL     OW25361   0.310   1.945   2.701  0.1830  0.5069 -0.4283
 6399SOL    HW225362   0.356   1.914   2.623  1.2333  1.0829 -0.0654
 6399SOL    HW325363   0.319   1.874   2.764  1.1822  0.8667 -0.1396
 6399SOL    MW425364   0.317   1.932   2.699  0.2880  0.1444 -0.5132
 6400SOL     OW25365   1.458   3.279   3.173  0.1324 -0.1202  0.0822
 6400SOL    HW225366   1.500   3.327   3.102 -0.6799 -0.3663 -0.5837
 6400SOL    HW325367   1.373   3.252   3.137  0.3144 -1.5347  0.6337
 6400SOL    MW425368   1.452   3.282   3.159 -0.0826  0.1964  0.1088
 6401SOL     OW25369   2.696   3.736   5.063  0.3814 -0.6734 -0.3160
 6401SOL    HW225370   2.706   3.711   4.971  1.3787 -0.7417 -0.2033
 6401SOL    HW325371   2.647   3.664   5.103  0.2759 -0.8219 -0.7152
 6401SOL    MW425372   2.691   3.723   5.056 -0.1373 -0.1485 -0.0354
 6402SOL     OW25373   1.849   3.898   5.564 -0.3384  0.9589 -0.4941
 6402SOL    HW225374   1.924   3.918   5.509 -0.2581  2.1915  0.0257
 6402SOL    HW325375   1.862   3.807   5.590  0.7082  1.0007 -0.8280
 6402SOL    MW425376   1.860   3.889   5.560 -0.3989 -0.4137 -0.8866
 6403SOL     OW25377   5.185   1.147   6.251  0.0383 -0.1304  0.6876
 6403SOL    HW225378   5.149   1.123   6.166  1.1247 -1.2370  0.5097
 6403SOL    HW325379   5.275   1.116   6.248  0.7190  1.6100  1.4999
 6403SOL    MW425380   5.192   1.140   6.240 -0.1426  0.3639  0.2615
 6404SOL     OW25381   4.251   3.778   2.983 -0.3803 -0.1055 -0.1186
 6404SOL    HW225382   4.210   3.746   3.063 -0.1156  1.3439  0.6284
 6404SOL    HW325383   4.320   3.714   2.964  2.0253  1.2943  2.9266
 6404SOL    MW425384   4.255   3.766   2.991 -0.1858 -0.7930  0.3800
 6405SOL     OW25385   5.003   2.945   2.401 -0.1308  0.3035  0.3034
 6405SOL    HW225386   5.090   2.983   2.391 -1.1133  3.0646  1.2647
 6405SOL    HW325387   4.993   2.887   2.325  2.0555  0.8993 -0.5092
 6405SOL    MW425388   5.013   2.942   2.390 -0.6154 -0.5315 -0.4109
 6406SOL     OW25389   1.450   6.224   5.931 -0.2013 -0.1084  0.1026
 6406SOL    HW225390   1.412   6.238   5.845 -2.1602  1.1178  1.1100
 6406SOL    HW325391   1.499   6.304   5.949  0.9346 -0.7096 -0.1783
 6406SOL    MW425392   1.451   6.236   5.922  0.2481 -0.1939 -0.2352
 6407SOL     OW25393   1.808   0.540   2.114  0.1575 -0.5467 -0.0943
 6407SOL    HW225394   1.749   0.616   2.117  1.1326  0.2724 -0.7583
 6407SOL    HW325395   1.819   0.515   2.206 -1.9381 -1.3345  0.0016
 6407SOL    MW425396   1.802   0.547   2.127  0.0000 -0.0467 -0.0151
 6408SOL     OW25397   1.997   1.087   4.283 -0.5940  0.1297 -0.1574
 6408SOL    HW225398   1.982   1.163   4.227 -0.9560 -0.1827 -0.4876
 6408SOL    HW325399   2.049   1.027   4.229  1.2399  0.8697  0.7038
 6408SOL    MW425400   2.002   1.089   4.269  0.6311 -0.1545 -0.4463
 6409SOL     OW25401   2.639   2.992   1.968 -0.0782  0.3713  0.1893
 6409SOL    HW225402   2.624   3.027   1.879 -0.9702 -1.2434 -0.3409
 6409SOL    HW325403   2.618   2.899   1.960 -0.2323  0.2145  2.1234
 6409SOL    MW425404   2.634   2.984   1.955 -0.0684 -0.5843 -0.2704
 6410SOL     OW25405   1.871   4.808   1.166  0.4399 -0.5546  0.3768
 6410SOL    HW225406   1.870   4.904   1.156  0.4238 -0.5299  0.6091
 6410SOL    HW325407   1.874   4.794   1.261  2.0664 -0.7679  0.3178
 6410SOL    MW425408   1.871   4.819   1.177 -0.4043  0.1806  0.5283
 6411SOL     OW25409   1.370   5.217   5.721  0.1820 -0.1149  0.6773
 6411SOL    HW225410   1.290   5.203   5.771  0.7051  1.7225  2.1273
 6411SOL    HW325411   1.440   5.195   5.781  0.8122 -0.9520 -0.3292
 6411SOL    MW425412   1.368   5.212   5.735 -0.1509  0.2032 -0.1492
 6412SOL     OW25413   3.224   6.180   1.102 -0.1503 -0.0347  0.0048
 6412SOL    HW225414   3.191   6.095   1.072 -2.3722  0.0785  1.8481
 6412SOL    HW325415   3.293   6.157   1.164  0.9409 -0.3676 -1.2657
 6412SOL    MW425416   3.229   6.166   1.106 -0.0335  0.4088  0.4404
 6413SOL     OW25417   0.902   1.257   6.356  0.4614 -0.0985 -0.2778
 6413SOL    HW225418   0.881   1.317   6.284  1.5332  0.9688  0.2700
 6413SOL    HW325419   0.884   1.170   6.321 -1.7406  0.5343 -0.8942
 6413SOL    MW425420   0.897   1.253   6.342  0.2719  0.1354 -0.1877
 6414SOL     OW25421   3.411   6.140   1.297 -0.1935  1.0492 -0.2702
 6414SOL    HW225422   3.504   6.131   1.277  0.0154  0.0758  1.0239
 6414SOL    HW325423   3.392   6.068   1.357 -1.1054  2.8633  1.7497
 6414SOL    MW425424   3.421   6.130   1.302  0.0296  0.1026  0.5843
 6415SOL     OW25425   4.776   5.982   3.947 -0.1650  0.2655  0.0614
 6415SOL    HW225426   4.848   6.033   3.983  0.4770 -1.4624  1.3704
 6415SOL    HW325427   4.699   6.012   3.994  0.1523  0.2393  0.6021
 6415SOL    MW425428   4.776   5.993   3.958  0.2606  0.2237 -0.0083
 6416SOL     OW25429   4.468   6.125   4.396  0.6122  0.0765 -0.0087
 6416SOL    HW225430   4.501   6.205   4.357 -0.0097  1.1816  1.6150
 6416SOL    HW325431   4.480   6.137   4.491 -1.7397 -0.6703  0.4562
 6416SOL    MW425432   4.474   6.137   4.404 -0.4536  0.1791 -0.0811
 6417SOL     OW25433   3.417   5.813   0.103  0.4142 -0.0714 -0.2001
 6417SOL    HW225434   3.366   5.761   0.041  0.5471  1.4993 -1.7367
 6417SOL    HW325435   3.507   5.787   0.088  0.3042 -0.9678  0.6343
 6417SOL    MW425436   3.422   5.803   0.093 -0.2272  0.1117  0.0205
 6418SOL     OW25437   4.368   2.869   1.261 -0.3764 -0.3156 -0.2847
 6418SOL    HW225438   4.334   2.806   1.198  1.8195 -1.6588 -0.2237
 6418SOL    HW325439   4.293   2.892   1.315 -1.6338 -1.4662 -1.4611
 6418SOL    MW425440   4.354   2.864   1.259 -0.2026  0.0707 -0.1709
 6419SOL     OW25441   2.854   4.991   6.291 -0.3171 -0.2080 -0.0427
 6419SOL    HW225442   2.779   5.044   6.263 -0.1075  0.6637  0.9664
 6419SOL    HW325443   2.912   4.990   6.215 -1.5930 -1.3918 -1.0419
 6419SOL    MW425444   2.852   4.998   6.278  0.0739 -0.0837  0.2590
 6420SOL     OW25445   2.785   3.945   1.013  0.0080 -0.2289  0.0814
 6420SOL    HW225446   2.859   3.967   1.070 -1.1712  0.1203  1.5341
 6420SOL    HW325447   2.718   3.913   1.073 -1.5908  0.9392 -1.0172
 6420SOL    MW425448   2.786   3.943   1.028  0.2141  0.3482 -0.4781
 6421SOL     OW25449   1.129   4.990   4.284  0.5204 -0.3610 -0.3666
 6421SOL    HW225450   1.221   5.009   4.266  0.8784 -1.1016  0.5616
 6421SOL    HW325451   1.122   4.995   4.380 -1.2643  3.3152 -0.5261
 6421SOL    MW425452   1.140   4.993   4.294  0.1469  0.6575  0.7085
 6422SOL     OW25453   3.646   0.856   0.591 -0.3350  0.4689 -0.0183
 6422SOL    HW225454   3.674   0.943   0.561  2.0869  0.7887  2.7285
 6422SOL    HW325455   3.632   0.807   0.510  1.2886  2.5153 -1.6837
 6422SOL    MW425456   3.648   0.861   0.576 -0.5663  0.2303 -0.3912
 6423SOL     OW25457   3.154   2.799   0.210  0.4910  0.4953  0.3233
 6423SOL    HW225458   3.190   2.886   0.191 -0.0616  0.6516 -0.0391
 6423SOL    HW325459   3.080   2.790   0.150  0.1658  0.0229  0.7853
 6423SOL    MW425460   3.149   2.809   0.200  0.2493 -0.1484 -0.1266
 6424SOL     OW25461   3.718   2.767   4.466  0.1571  0.3988 -0.3280
 6424SOL    HW225462   3.772   2.696   4.501  0.2079  0.6792  0.1804
 6424SOL    HW325463   3.702   2.824   4.542  0.8658  1.4079 -0.9155
 6424SOL    MW425464   3.723   2.765   4.481  0.9810 -0.1688  0.0444
 6425SOL     OW25465   2.796   0.376   3.768 -0.3330  0.7810  0.3190
 6425SOL    HW225466   2.764   0.462   3.794  0.4234  1.3713 -0.6614
 6425SOL    HW325467   2.780   0.371   3.674 -4.2279 -1.8441  0.8814
 6425SOL    MW425468   2.790   0.387   3.759 -0.1499  0.1934  0.5524
 6426SOL     OW25469   2.609   1.211   2.018  0.2641 -0.3727  0.3697
 6426SOL    HW225470   2.697   1.247   2.029  0.5138 -0.7152 -0.4912
 6426SOL    HW325471   2.571   1.262   1.947 -0.4232  0.0994  1.0512
 6426SOL    MW425472   2.616   1.223   2.010 -0.2202 -0.3474  0.1078
 6427SOL     OW25473   0.197   1.006   5.858  0.0242  0.0997  0.6242
 6427SOL    HW225474   0.220   0.984   5.948 -0.4282  0.9910  0.9715
 6427SOL    HW325475   0.102   0.997   5.855  0.0935 -0.5309  0.0559
 6427SOL    MW425476   0.187   1.002   5.869 -0.0566  0.1683  0.2767
 6428SOL     OW25477   5.521   1.589   1.317 -0.5107  0.2506  0.3311
 6428SOL    HW225478   5.488   1.565   1.230 -0.1030 -2.1413  0.7682
 6428SOL    HW325479   5.442   1.614   1.366 -0.7481  1.6089 -0.6680
 6428SOL    MW425480   5.506   1.589   1.312  0.7121 -0.1465 -0.0976
 6429SOL     OW25481   4.736   5.788   4.837 -0.0370 -0.8800 -0.6288
 6429SOL    HW225482   4.682   5.856   4.877 -0.7209 -1.8566  0.1269
 6429SOL    HW325483   4.793   5.836   4.776  0.4378  0.5330  0.8653
 6429SOL    MW425484   4.737   5.804   4.834  0.3157 -0.1825 -0.0391
 6430SOL     OW25485   4.938   4.942   3.946 -0.0693  0.1756  0.0869
 6430SOL    HW225486   4.957   4.948   4.039  0.5117  1.3253 -0.0810
 6430SOL    HW325487   4.992   4.869   3.915  0.9782  0.8054  0.3755
 6430SOL    MW425488   4.948   4.933   3.954 -0.5791 -0.0670 -0.1828
 6431SOL     OW25489   2.722   3.255   3.872 -0.0877  0.0750  0.1887
 6431SOL    HW225490   2.773   3.178   3.897  0.8031  0.9731  1.2235
 6431SOL    HW325491   2.642   3.219   3.833  0.3559 -1.3636  0.5594
 6431SOL    MW425492   2.718   3.240   3.870  0.2416  0.0039 -0.0028
 6432SOL     OW25493   2.406   4.686   4.636 -0.2513  0.1363  0.1410
 6432SOL    HW225494   2.357   4.760   4.601 -1.3588 -0.0259  1.2795
 6432SOL    HW325495   2.495   4.699   4.605 -0.7875  1.0301 -1.0768
 6432SOL    MW425496   2.411   4.697   4.628 -0.5428  0.6143 -0.2894
 6433SOL     OW25497   1.611   4.058   5.544 -0.3617 -0.9218  0.4667
 6433SOL    HW225498   1.547   3.995   5.510  0.7117 -1.1823 -1.1881
 6433SOL    HW325499   1.690   4.006   5.558 -0.3190 -0.4918  1.9270
 6433SOL    MW425500   1.613   4.043   5.541 -0.2935 -0.6847  0.6095
 6434SOL     OW25501   1.025   1.645   2.900 -0.0303  0.1479  0.2991
 6434SOL    HW225502   1.051   1.596   2.823  2.3102  0.3873  0.8722
 6434SOL    HW325503   0.988   1.726   2.865  0.3898 -0.0320 -0.5912
 6434SOL    MW425504   1.023   1.649   2.885  0.0080  0.4581  0.1110
 6435SOL     OW25505   3.619   1.776   1.711  0.2349  0.0010 -0.5749
 6435SOL    HW225506   3.661   1.861   1.701 -0.7555  0.7499  1.2343
 6435SOL    HW325507   3.575   1.761   1.627 -0.6851  1.9126 -0.4907
 6435SOL    MW425508   3.619   1.785   1.698  0.0257  0.3315 -0.0267
 6436SOL     OW25509   2.910   0.399   0.320 -0.4263 -0.0266 -0.1925
 6436SOL    HW225510   2.893   0.493   0.327  0.1493  0.7690 -5.4324
 6436SOL    HW325511   2.825   0.362   0.293  0.1275 -0.3357 -1.5912
 6436SOL    MW425512   2.896   0.407   0.318 -0.0067 -0.6695  0.2756
 6437SOL     OW25513   2.925   0.938   3.677 -0.0497 -0.5193 -0.0001
 6437SOL    HW225514   2.910   0.933   3.582  0.0744  1.0596 -0.1301
 6437SOL    HW325515   2.874   1.014   3.705 -0.3821 -1.1945  1.2750
 6437SOL    MW425516   2.916   0.948   3.668  0.2548 -0.4792 -0.2487
 6438SOL     OW25517   3.181   1.863   6.064 -0.2059 -0.0515 -0.6864
 6438SOL    HW225518   3.087   1.848   6.058 -0.6146  2.4966 -1.8930
 6438SOL    HW325519   3.211   1.801   6.131 -3.5568  2.3796  3.5124
 6438SOL    MW425520   3.173   1.853   6.072  0.1609 -0.4363 -0.5711
 6439SOL     OW25521   0.514   0.820   4.192 -0.4078  0.5856 -1.0287
 6439SOL    HW225522   0.592   0.793   4.144  1.9169  1.4846  1.9145
 6439SOL    HW325523   0.544   0.894   4.246 -3.1485  0.5860  0.6736
 6439SOL    MW425524   0.528   0.826   4.193 -0.3850 -0.5054  0.5100
 6440SOL     OW25525   1.026   1.061   1.467 -0.2842  0.1515  0.6247
 6440SOL    HW225526   1.064   0.997   1.527  0.8168 -0.7210 -0.9010
 6440SOL    HW325527   1.087   1.135   1.469 -0.2089  0.0920  0.5252
 6440SOL    MW425528   1.039   1.063   1.475 -0.0051 -0.1295 -0.6854
 6441SOL     OW25529   1.895   4.611   5.379  0.4311 -0.6058  0.0703
 6441SOL    HW225530   1.816   4.601   5.326  0.8568  1.9153 -1.2046
 6441SOL    HW325531   1.958   4.550   5.341  0.8086  1.3083 -2.6600
 6441SOL    MW425532   1.893   4.602   5.367  0.0977 -0.2376  0.5400
 6442SOL     OW25533   0.081   6.108   3.546 -0.5291 -0.5771 -0.2742
 6442SOL    HW225534   0.079   6.149   3.460 -0.1632  0.1192  0.0381
 6442SOL    HW325535   0.134   6.167   3.600  1.0072 -2.0713 -0.0946
 6442SOL    MW425536   0.087   6.121   3.542  0.7202 -0.6853  0.4515
 6443SOL     OW25537   1.894   0.054   1.770  0.0566 -0.2298  0.2492
 6443SOL    HW225538   1.828   0.039   1.839  1.4666 -0.1871  1.6678
 6443SOL    HW325539   1.972   0.084   1.818  0.4359  1.9778 -1.5704
 6443SOL    MW425540   1.895   0.056   1.786  0.0053 -0.2913  0.1385
 6444SOL     OW25541   1.446   5.714   2.216 -0.0267 -0.1316  0.2138
 6444SOL    HW225542   1.405   5.800   2.208  0.3673 -0.0039 -0.5406
 6444SOL    HW325543   1.384   5.663   2.269 -0.2816  0.5993  0.6339
 6444SOL    MW425544   1.432   5.719   2.222 -0.3771 -0.8237  0.0036
 6445SOL     OW25545   1.775   5.616   2.182  0.2097 -0.0860 -0.4754
 6445SOL    HW225546   1.719   5.661   2.245  1.2322 -0.3430  0.6666
 6445SOL    HW325547   1.777   5.525   2.213 -0.4802 -0.5643 -1.7761
 6445SOL    MW425548   1.768   5.610   2.195  0.2897 -0.0879  0.2507
 6446SOL     OW25549   1.154   3.838   3.477  0.0189 -0.5047  0.3166
 6446SOL    HW225550   1.077   3.893   3.464 -1.0403 -1.9456  0.1512
 6446SOL    HW325551   1.228   3.893   3.452 -1.2049 -0.1396 -3.0019
 6446SOL    MW425552   1.153   3.852   3.472  0.1641  0.0316 -0.1273
 6447SOL     OW25553   6.286   1.316   2.726 -0.4564 -0.5083  0.6224
 6447SOL    HW225554   6.260   1.323   2.818  1.7381 -1.3890  1.3718
 6447SOL    HW325555   6.239   1.387   2.682 -0.5945  0.7163  2.6506
 6447SOL    MW425556   6.276   1.326   2.732  0.3020 -0.4250  0.0405
 6448SOL     OW25557   2.906   3.933   4.340 -0.4655  0.2681  0.0063
 6448SOL    HW225558   3.000   3.938   4.358 -0.0978 -1.7140 -1.0418
 6448SOL    HW325559   2.882   3.845   4.367 -1.1063 -0.7602 -3.4116
 6448SOL    MW425560   2.915   3.922   4.346  0.0065  0.0497 -0.1305
 6449SOL     OW25561   6.145   5.412   0.184 -0.2541 -0.5713 -0.9784
 6449SOL    HW225562   6.125   5.320   0.163  1.8575 -0.6384 -3.2010
 6449SOL    HW325563   6.125   5.460   0.103 -1.2083  0.9429  0.1099
 6449SOL    MW425564   6.140   5.406   0.171  0.8315 -0.0425  0.1243
 6450SOL     OW25565   4.097   0.617   0.477 -0.6454 -0.1523  0.3068
 6450SOL    HW225566   4.162   0.552   0.451 -0.7153  0.5091 -1.6482
 6450SOL    HW325567   4.136   0.701   0.451 -1.8314  0.3314  0.0373
 6450SOL    MW425568   4.111   0.619   0.470  0.6629  0.0381  0.3756
 6451SOL     OW25569   5.339   2.278   2.030  0.1996 -0.5911  0.9708
 6451SOL    HW225570   5.420   2.303   1.985 -0.9651  2.5420  0.3056
 6451SOL    HW325571   5.276   2.266   1.959 -0.3282 -1.2552  1.5437
 6451SOL    MW425572   5.341   2.280   2.014 -0.5691 -0.3874  0.1357
 6452SOL     OW25573   4.679   5.792   5.636 -0.4459 -0.2360 -0.1032
 6452SOL    HW225574   4.623   5.716   5.654  1.3395 -1.2103  1.6796
 6452SOL    HW325575   4.679   5.842   5.718  0.4789  0.2691 -0.3973
 6452SOL    MW425576   4.672   5.788   5.649 -0.3524 -0.0638  0.4158
 6453SOL     OW25577   2.542   0.607   0.162  0.5487  0.3230  0.0651
 6453SOL    HW225578   2.458   0.647   0.140  0.4156  0.1038  0.1630
 6453SOL    HW325579   2.582   0.586   0.078 -0.4640 -1.5639 -0.0176
 6453SOL    MW425580   2.536   0.609   0.148 -0.2718 -0.3438 -0.3774
 6454SOL     OW25581   5.984   1.259   5.312 -0.0306  0.1602  0.2545
 6454SOL    HW225582   6.052   1.260   5.245 -0.0662 -3.0347 -0.0012
 6454SOL    HW325583   6.026   1.292   5.391  1.8289 -1.5605  0.0574
 6454SOL    MW425584   5.998   1.263   5.313 -0.1022 -0.2305 -0.7214
 6455SOL     OW25585   3.955   5.124   6.298 -0.2485 -0.4584 -0.7498
 6455SOL    HW225586   3.902   5.203   6.304 -0.5553 -0.2886 -3.9672
 6455SOL    HW325587   4.005   5.122   6.379 -2.0971  1.6240  0.5475
 6455SOL    MW425588   3.955   5.134   6.309  0.1769 -0.0039 -0.1252
 6456SOL     OW25589   5.603   0.532   4.777 -0.4931 -0.4628  0.4421
 6456SOL    HW225590   5.573   0.572   4.858  3.0727 -0.6230  2.0351
 6456SOL    HW325591   5.582   0.439   4.786 -0.2623 -0.4497  1.1139
 6456SOL    MW425592   5.596   0.525   4.789 -0.4289 -0.1592 -0.3490
 6457SOL     OW25593   5.924   3.780   5.929  0.0142 -0.7655  0.0391
 6457SOL    HW225594   5.923   3.715   5.859  2.4940 -1.4469  0.5542
 6457SOL    HW325595   5.976   3.852   5.893 -0.2948 -0.3062  0.5062
 6457SOL    MW425596   5.931   3.781   5.915 -0.2938  0.0930  0.0674
 6458SOL     OW25597   3.115   5.054   2.238  0.3409 -0.5493 -0.0588
 6458SOL    HW225598   3.182   4.989   2.221  0.3856 -0.6952  0.6534
 6458SOL    HW325599   3.040   5.026   2.186  0.0924 -1.6136  0.8563
 6458SOL    MW425600   3.114   5.042   2.229  0.1280  0.2345 -0.4011
 6459SOL     OW25601   2.801   0.847   0.100 -0.3996 -0.3916 -0.1878
 6459SOL    HW225602   2.713   0.883   0.110 -0.2392 -0.4205  1.6704
 6459SOL    HW325603   2.836   0.889   0.022 -1.5858  0.6173 -0.1992
 6459SOL    MW425604   2.794   0.857   0.091  0.3612  0.3515  0.0676
 6460SOL     OW25605   1.576   0.916   2.838 -0.0966 -0.4237  0.3758
 6460SOL    HW225606   1.489   0.953   2.823  0.0191  0.0097  0.7221
 6460SOL    HW325607   1.617   0.914   2.752 -0.8883 -1.8062 -0.0005
 6460SOL    MW425608   1.570   0.921   2.825  0.1283  0.2405 -0.1395
 6461SOL     OW25609   1.343   0.751   4.777 -0.1194 -0.5660 -0.2304
 6461SOL    HW225610   1.394   0.794   4.846  1.1467  0.2737 -1.6438
 6461SOL    HW325611   1.282   0.818   4.747 -0.5336 -0.8686 -0.0747
 6461SOL    MW425612   1.342   0.766   4.782 -1.0202 -0.0412  0.0782
 6462SOL     OW25613   3.095   3.654   1.050  0.0850 -0.0682  0.2653
 6462SOL    HW225614   3.057   3.694   0.972 -1.2139 -1.2997  0.2284
 6462SOL    HW325615   3.023   3.604   1.089  1.3868 -1.5851  0.8218
 6462SOL    MW425616   3.081   3.653   1.045  0.0396 -0.1236  0.3408
 6463SOL     OW25617   5.305   2.070   6.419  0.4063  0.0707 -0.4891
 6463SOL    HW225618   5.256   2.138   6.372  0.2945  0.0609 -0.3881
 6463SOL    HW325619   5.256   2.058   6.501 -0.6357 -1.3998 -1.2699
 6463SOL    MW425620   5.292   2.077   6.423  0.3485  0.1024  0.4683
 6464SOL     OW25621   0.541   4.977   5.052 -0.1430  0.1197 -0.0954
 6464SOL    HW225622   0.601   4.996   4.980  1.1404  0.7733  1.0839
 6464SOL    HW325623   0.530   4.882   5.049  1.5345 -0.1214  0.0400
 6464SOL    MW425624   0.548   4.967   5.042  0.1095  0.0847 -0.2655
 6465SOL     OW25625   0.896   2.336   2.345  0.0848 -0.0455 -0.2073
 6465SOL    HW225626   0.815   2.386   2.356  0.3107  0.1631  0.5832
 6465SOL    HW325627   0.924   2.354   2.255  0.3387  1.5224  0.1645
 6465SOL    MW425628   0.889   2.345   2.334 -0.1363  0.3683 -0.0991
 6466SOL     OW25629   5.105   2.530   5.027 -0.1521 -0.6158  0.9004
 6466SOL    HW225630   5.068   2.613   4.995  1.1693 -0.5756 -0.5864
 6466SOL    HW325631   5.029   2.484   5.064 -0.9536  1.1546  1.5979
 6466SOL    MW425632   5.090   2.535   5.028 -0.4236 -0.5086  0.6494
 6467SOL     OW25633   3.582   2.406   4.126  0.6733 -0.0912  0.2784
 6467SOL    HW225634   3.667   2.365   4.109  0.8579 -0.1981  1.4185
 6467SOL    HW325635   3.603   2.498   4.144  0.3830  0.2430 -0.9860
 6467SOL    MW425636   3.596   2.413   4.126 -0.5311 -0.4327 -0.0562
 6468SOL     OW25637   4.401   4.713   2.550 -0.0530 -0.3559  0.2908
 6468SOL    HW225638   4.348   4.790   2.525 -0.4484 -0.3193  1.2074
 6468SOL    HW325639   4.434   4.734   2.637 -1.2255 -1.7517  1.1204
 6468SOL    MW425640   4.398   4.726   2.558 -0.3866  0.0033 -0.3793
 6469SOL     OW25641   2.193   4.143   5.857  0.5322  0.0580 -0.5817
 6469SOL    HW225642   2.125   4.139   5.790  1.0752 -0.6752 -1.0967
 6469SOL    HW325643   2.211   4.237   5.867 -0.4383  0.2483 -0.5458
 6469SOL    MW425644   2.186   4.155   5.849  0.0638 -0.4692  0.3128
 6470SOL     OW25645   0.495   5.225   1.735 -0.0140 -0.2849  0.3831
 6470SOL    HW225646   0.423   5.185   1.686  0.1248 -0.4612  0.3232
 6470SOL    HW325647   0.574   5.203   1.684  0.1417 -0.5562  0.7414
 6470SOL    MW425648   0.496   5.217   1.721 -0.2994 -0.0290 -0.3082
 6471SOL     OW25649   5.151   0.582   1.811 -0.1818 -0.2561  0.1181
 6471SOL    HW225650   5.116   0.496   1.788  0.9215 -0.4154 -1.1303
 6471SOL    HW325651   5.177   0.620   1.727 -0.7433  1.3544  0.6349
 6471SOL    MW425652   5.150   0.575   1.797  0.3181  0.5236  0.5798
 6472SOL     OW25653   1.831   6.328   2.895  0.1508  0.1988  0.1294
 6472SOL    HW225654   1.859   6.405   2.944 -1.9323  1.0943  0.0493
 6472SOL    HW325655   1.767   6.285   2.952 -0.6220  0.0003 -0.8465
 6472SOL    MW425656   1.826   6.332   2.909 -0.6706  0.5218  0.1045
 6473SOL     OW25657   5.581   4.719   0.561  0.3369 -0.3337  0.0453
 6473SOL    HW225658   5.554   4.804   0.596  0.1431 -0.6154  0.6075
 6473SOL    HW325659   5.673   4.711   0.587  0.2115 -0.5141  0.4473
 6473SOL    MW425660   5.589   4.729   0.569 -0.2403  0.3731 -0.1258
 6474SOL     OW25661   2.025   3.439   2.891  0.2086 -0.3734 -0.0930
 6474SOL    HW225662   1.940   3.433   2.933 -0.1999  2.4236 -0.3646
 6474SOL    HW325663   2.035   3.355   2.846 -1.5553 -1.4694  1.4154
 6474SOL    MW425664   2.015   3.427   2.890 -0.2983  0.5142 -0.8221
 6475SOL     OW25665   4.611   2.565   2.419  0.1188 -0.4243  0.4980
 6475SOL    HW225666   4.599   2.479   2.458  0.3530 -0.2241  1.0140
 6475SOL    HW325667   4.532   2.578   2.366 -0.3114 -0.5958  1.0910
 6475SOL    MW425668   4.599   2.555   2.417  0.2011 -0.6258  0.2480
 6476SOL     OW25669   1.360   2.837   5.222  0.0019  0.4689 -0.5307
 6476SOL    HW225670   1.371   2.901   5.152 -0.7849  0.8856 -0.2916
 6476SOL    HW325671   1.448   2.804   5.239  0.1386 -0.0889 -2.1204
 6476SOL    MW425672   1.373   2.841   5.215  0.6821 -0.0687 -0.0037
 6477SOL     OW25673   0.663   0.445   4.176 -0.7744 -0.8327  0.7583
 6477SOL    HW225674   0.585   0.423   4.227 -0.6766  0.2498  1.4114
 6477SOL    HW325675   0.733   0.452   4.242 -0.4392 -0.3680  0.3610
 6477SOL    MW425676   0.662   0.443   4.192 -0.0901  0.1334  0.6327
 6478SOL     OW25677   0.642   4.226   6.240  0.1008 -0.0946  0.0726
 6478SOL    HW225678   0.559   4.181   6.225 -0.1523  0.7161 -1.1616
 6478SOL    HW325679   0.621   4.298   6.299 -0.0175 -0.0523 -0.0217
 6478SOL    MW425680   0.629   4.230   6.246 -0.3008 -0.2053 -0.2973
 6479SOL     OW25681   2.225   4.273   0.589  0.1099 -0.3177  0.0481
 6479SOL    HW225682   2.264   4.230   0.666  0.2826  1.0984  0.7868
 6479SOL    HW325683   2.296   4.278   0.526  0.6155  0.5704  0.6766
 6479SOL    MW425684   2.239   4.268   0.591 -0.1876  0.1400 -0.3881
 6480SOL     OW25685   4.926   6.091   3.509 -0.5653  0.4324  0.1875
 6480SOL    HW225686   4.998   6.043   3.469 -1.4076  0.6398 -1.7029
 6480SOL    HW325687   4.894   6.034   3.579  0.6348 -0.1964  0.2438
 6480SOL    MW425688   4.931   6.077   3.513 -0.0752 -0.3423 -0.4407
 6481SOL     OW25689   4.500   1.115   3.573  0.4689 -0.5462 -0.2264
 6481SOL    HW225690   4.429   1.053   3.591  0.6491 -0.2459  1.6644
 6481SOL    HW325691   4.488   1.185   3.638  0.4067  1.3184 -2.1306
 6481SOL    MW425692   4.489   1.116   3.584 -0.0940  0.4748  0.2082
 6482SOL     OW25693   4.209   5.955   0.763  0.0577  0.1415  0.1487
 6482SOL    HW225694   4.219   5.879   0.821  1.2098 -0.0737 -0.2892
 6482SOL    HW325695   4.178   6.025   0.820 -1.0804 -0.6562  0.5551
 6482SOL    MW425696   4.207   5.954   0.778  0.4461 -0.4228 -0.4051
 6483SOL     OW25697   0.223   1.557   2.557 -0.1055 -0.0337  0.6152
 6483SOL    HW225698   0.182   1.621   2.615 -2.2970 -2.4452  1.9377
 6483SOL    HW325699   0.151   1.505   2.522  1.5501 -2.1222  0.0377
 6483SOL    MW425700   0.208   1.558   2.560  0.1300  0.5304 -0.0099
 6484SOL     OW25701   5.077   6.072   0.714  0.1449  0.1402 -0.0700
 6484SOL    HW225702   5.150   6.087   0.773 -0.4515 -1.5675  1.1803
 6484SOL    HW325703   5.018   6.014   0.763 -1.6674  0.8143 -1.3295
 6484SOL    MW425704   5.079   6.066   0.728  0.3104  0.0688  0.3639
 6485SOL     OW25705   2.583   5.747   2.812  0.2495 -0.3609 -0.4768
 6485SOL    HW225706   2.620   5.676   2.864  0.6756 -0.9927 -1.6138
 6485SOL    HW325707   2.532   5.703   2.744  0.0946  0.4320 -0.8866
 6485SOL    MW425708   2.581   5.732   2.810  0.1567 -0.0095 -0.0967
 6486SOL     OW25709   2.098   3.986   4.690 -1.0458 -0.1446 -0.1661
 6486SOL    HW225710   2.137   4.065   4.728 -1.4845  1.0118 -2.0039
 6486SOL    HW325711   2.097   4.002   4.596  1.1375 -3.4127 -0.9094
 6486SOL    MW425712   2.103   3.999   4.683 -0.1921 -0.1442 -0.4461
 6487SOL     OW25713   1.717   3.412   5.484  0.0807 -0.2237  0.1070
 6487SOL    HW225714   1.685   3.483   5.428 -1.6972 -1.0928 -0.0273
 6487SOL    HW325715   1.714   3.449   5.573  0.0270  0.1602 -0.0504
 6487SOL    MW425716   1.713   3.427   5.489 -0.2956  0.5289  0.1865
 6488SOL     OW25717   2.566   0.504   4.292  0.1457  0.4115  0.3086
 6488SOL    HW225718   2.540   0.424   4.337 -1.0374  1.0368  0.7877
 6488SOL    HW325719   2.588   0.565   4.363 -0.9466  1.1495  0.0420
 6488SOL    MW425720   2.565   0.502   4.308 -0.1292  0.1472 -0.0381
 6489SOL     OW25721   0.508   6.017   3.380  0.0009 -0.0811 -0.4627
 6489SOL    HW225722   0.504   6.035   3.474 -0.5028 -1.0510 -0.2866
 6489SOL    HW325723   0.432   5.961   3.363 -0.7585  1.2520 -1.7293
 6489SOL    MW425724   0.497   6.012   3.390 -0.7515 -0.1039  0.2679
 6490SOL     OW25725   4.480   2.694   0.672  0.4847 -0.4807  0.3355
 6490SOL    HW225726   4.476   2.720   0.764  0.3955 -2.1506  0.8484
 6490SOL    HW325727   4.418   2.752   0.628 -0.3896 -0.4485  1.5524
 6490SOL    MW425728   4.471   2.705   0.678 -0.2171  0.1266  0.4860
 6491SOL     OW25729   1.640   2.786   5.958 -0.6659 -0.7905 -0.0116
 6491SOL    HW225730   1.649   2.717   5.893 -0.2453 -2.9699  2.1879
 6491SOL    HW325731   1.708   2.849   5.935 -0.9142 -1.1734 -1.9696
 6491SOL    MW425732   1.650   2.785   5.947 -0.0813  0.1433  0.0615
 6492SOL     OW25733   4.373   1.135   5.171 -0.6990 -0.6959 -0.0150
 6492SOL    HW225734   4.385   1.225   5.140 -0.8071  0.0017  1.8713
 6492SOL    HW325735   4.287   1.110   5.137 -1.3186  0.4496  0.6245
 6492SOL    MW425736   4.363   1.144   5.162 -0.0650  0.6951 -0.2088
 6493SOL     OW25737   4.889   1.290   6.215 -0.4191 -0.3240 -0.8122
 6493SOL    HW225738   4.952   1.218   6.218 -0.5429 -0.3955  0.2130
 6493SOL    HW325739   4.942   1.368   6.197  0.0491 -0.3051  0.5466
 6493SOL    MW425740   4.904   1.291   6.213  0.1570 -0.1633  0.1758
 6494SOL     OW25741   4.801   6.015   5.527  0.2705 -0.1314 -0.6716
 6494SOL    HW225742   4.740   5.956   5.571  0.1167 -0.0758 -0.8098
 6494SOL    HW325743   4.809   6.090   5.587  0.7239 -0.4403 -0.3410
 6494SOL    MW425744   4.794   6.017   5.541 -0.0280 -0.3977  0.0192
 6495SOL     OW25745   0.190   5.337   5.328 -0.3206 -0.5413 -0.4640
 6495SOL    HW225746   0.116   5.331   5.268 -0.1529 -1.3932 -0.6053
 6495SOL    HW325747   0.251   5.270   5.297  0.6590  0.3831 -0.5499
 6495SOL    MW425748   0.188   5.327   5.316 -0.0849 -0.5686  0.2189
 6496SOL     OW25749   3.083   0.306   0.790 -0.9754 -0.1726  0.3071
 6496SOL    HW225750   3.155   0.249   0.762 -1.9265 -0.8855 -0.8044
 6496SOL    HW325751   3.062   0.357   0.712  0.0268  1.9417  1.3594
 6496SOL    MW425752   3.090   0.305   0.776 -0.3166  0.0554  0.7364
 6497SOL     OW25753   3.456   4.754   6.411  0.0277 -0.0389  0.1962
 6497SOL    HW225754   3.397   4.690   6.450  0.1479  0.5684  1.4329
 6497SOL    HW325755   3.430   4.837   6.451  1.4359  0.3035  0.4517
 6497SOL    MW425756   3.444   4.757   6.422  0.9012  0.1977 -0.0401
 6498SOL     OW25757   0.605   4.476   3.093 -1.0405  0.3555 -0.2138
 6498SOL    HW225758   0.661   4.551   3.071 -1.7412  1.1565  0.6376
 6498SOL    HW325759   0.666   4.403   3.103 -0.0360  1.3207  1.2089
 6498SOL    MW425760   0.621   4.476   3.091 -0.1247 -0.4594 -0.4918
 6499SOL     OW25761   0.401   3.968   0.672  0.0835  0.0491 -0.3780
 6499SOL    HW225762   0.392   3.878   0.702  0.2902 -0.2135 -1.0633
 6499SOL    HW325763   0.344   3.973   0.595 -0.3158  0.6521 -0.0528
 6499SOL    MW425764   0.392   3.957   0.665 -0.1203 -0.3187 -0.3730
 6500SOL     OW25765   6.336   1.017   3.931  0.0008 -0.6034  0.2626
 6500SOL    HW225766   6.427   1.043   3.919 -0.1555 -0.0245  0.3018
 6500SOL    HW325767   6.340   0.922   3.947  0.6425 -0.4902  0.8285
 6500SOL    MW425768   6.349   1.008   3.932  0.1302  0.4270 -0.5124
 6501SOL     OW25769   1.716   0.655   4.872  0.1959  0.4268  0.0183
 6501SOL    HW225770   1.761   0.572   4.879  0.5304  0.4678 -1.3950
 6501SOL    HW325771   1.785   0.720   4.863 -0.1048  0.6439 -0.7920
 6501SOL    MW425772   1.731   0.653   4.872 -0.3515 -0.0581  0.0934
 6502SOL     OW25773   3.839   1.412   2.027 -0.3245  0.8618 -0.3716
 6502SOL    HW225774   3.805   1.464   1.954  0.9464  0.3666 -1.3568
 6502SOL    HW325775   3.850   1.475   2.098  3.0801  2.4982 -2.1100
 6502SOL    MW425776   3.836   1.427   2.026 -0.6855  0.6357 -0.3870
 6503SOL     OW25777   1.980   1.705   3.131  0.6773  0.5061 -0.0897
 6503SOL    HW225778   1.902   1.666   3.091  1.0107 -0.5695  0.2654
 6503SOL    HW325779   2.023   1.632   3.176  0.5083  1.5815  1.9603
 6503SOL    MW425780   1.975   1.690   3.132 -0.2322  0.0368  0.6673
 6504SOL     OW25781   5.378   4.594   1.503 -0.2785 -0.1767 -0.8456
 6504SOL    HW225782   5.359   4.688   1.500 -0.4968 -0.1507  0.6788
 6504SOL    HW325783   5.294   4.552   1.483 -0.7303 -0.0316  0.6171
 6504SOL    MW425784   5.364   4.601   1.500  0.1760  0.7022 -0.2302
 6505SOL     OW25785   1.534   3.863   5.944  0.2840  0.3285 -0.4914
 6505SOL    HW225786   1.524   3.958   5.951  1.1364  0.3262  1.2711
 6505SOL    HW325787   1.616   3.844   5.989 -0.1333 -1.3038 -0.3580
 6505SOL    MW425788   1.544   3.873   5.951 -0.6711 -0.2498 -0.1154
 6506SOL     OW25789   6.369   0.701   2.739  0.3308 -0.5993 -0.5967
 6506SOL    HW225790   6.283   0.735   2.763  1.5111  2.2512 -0.0196
 6506SOL    HW325791   6.371   0.707   2.643 -0.6647 -2.2519 -0.7489
 6506SOL    MW425792   6.358   0.706   2.729  0.1382 -0.0307 -0.1329
 6507SOL     OW25793   5.561   4.729   6.182  0.2997 -0.2272  0.0026
 6507SOL    HW225794   5.563   4.812   6.134 -3.5100 -0.2237 -0.4701
 6507SOL    HW325795   5.547   4.755   6.273 -2.2630 -0.2580 -0.3233
 6507SOL    MW425796   5.560   4.743   6.188 -0.0951 -0.1731  0.0648
 6508SOL     OW25797   5.558   0.890   1.376 -0.0099  0.5012  0.3987
 6508SOL    HW225798   5.481   0.851   1.417  0.4359 -0.4019  0.4042
 6508SOL    HW325799   5.525   0.964   1.326 -0.7912  0.5273  0.9453
 6508SOL    MW425800   5.544   0.895   1.375 -0.6034 -0.0033 -0.2561
 6509SOL     OW25801   0.774   1.386   5.024  0.8601 -0.4824 -0.1352
 6509SOL    HW225802   0.798   1.455   4.962  1.1068 -0.7613 -0.3491
 6509SOL    HW325803   0.746   1.313   4.969  0.1748 -0.4045  0.0988
 6509SOL    MW425804   0.773   1.385   5.008  0.0036  0.1225  0.2130
 6510SOL     OW25805   0.945   3.485   2.297  0.4110 -0.5909 -0.0557
 6510SOL    HW225806   1.015   3.523   2.350 -1.2062  0.2562  1.5923
 6510SOL    HW325807   0.960   3.391   2.300  0.2376 -0.6039  2.2365
 6510SOL    MW425808   0.956   3.478   2.304 -0.4198 -0.3430  0.5470
 6511SOL     OW25809   2.195   3.677   3.464 -0.4197 -0.1461  0.5734
 6511SOL    HW225810   2.149   3.593   3.462 -0.5197 -0.0843 -0.9672
 6511SOL    HW325811   2.126   3.742   3.456 -0.2928  0.0737  1.2037
 6511SOL    MW425812   2.180   3.674   3.462 -0.1724 -0.0506 -0.0596
 6512SOL     OW25813   6.114   0.046   5.140 -0.1364 -0.1969 -0.1409
 6512SOL    HW225814   6.104   0.024   5.047  1.0605  0.7194 -0.5149
 6512SOL    HW325815   6.059  -0.017   5.186 -1.9526  0.2855 -1.5563
 6512SOL    MW425816   6.106   0.035   5.134 -0.3157  0.0442 -0.1769
 6513SOL     OW25817   6.421   4.874   1.647 -0.4506 -0.0349 -0.3702
 6513SOL    HW225818   6.467   4.844   1.726 -0.4900 -0.6634 -0.5774
 6513SOL    HW325819   6.359   4.804   1.628 -1.2531  0.6504 -0.2971
 6513SOL    MW425820   6.419   4.861   1.655  0.5998  0.0567  0.5229
 6514SOL     OW25821   1.720   1.448   1.020 -0.2146 -0.2289  0.5953
 6514SOL    HW225822   1.710   1.368   1.071 -1.1652 -0.4281  0.1222
 6514SOL    HW325823   1.813   1.451   0.998 -0.4118 -2.0398 -0.6962
 6514SOL    MW425824   1.731   1.438   1.024  0.3406  0.0307  0.0034
 6515SOL     OW25825   6.228   3.507   3.391 -0.5020  0.5805 -0.5497
 6515SOL    HW225826   6.214   3.559   3.470 -1.4043 -1.1547  0.4923
 6515SOL    HW325827   6.170   3.546   3.326 -3.7049 -0.9553  1.1422
 6515SOL    MW425828   6.218   3.519   3.393  0.1112 -0.4181 -0.1206
 6516SOL     OW25829   5.091   4.798   3.407 -0.1948  0.6256  0.4521
 6516SOL    HW225830   5.052   4.764   3.326  0.8324  0.5848 -0.0383
 6516SOL    HW325831   5.026   4.778   3.475 -0.1512 -1.2784 -0.0135
 6516SOL    MW425832   5.078   4.791   3.405  0.0714 -0.1641 -0.0702
 6517SOL     OW25833   4.785   5.139   6.238  0.0918  0.2958  0.2071
 6517SOL    HW225834   4.807   5.052   6.206  0.8699  0.7219 -0.4802
 6517SOL    HW325835   4.848   5.197   6.194 -2.1677  1.5736 -1.5388
 6517SOL    MW425836   4.797   5.135   6.228 -0.0920  0.1246 -0.8651
 6518SOL     OW25837   5.556   6.379   6.025 -0.2825 -0.0235 -0.1367
 6518SOL    HW225838   5.592   6.344   5.944 -0.4181 -0.3051 -0.0761
 6518SOL    HW325839   5.491   6.314   6.053  0.7730 -0.6465  0.9579
 6518SOL    MW425840   5.552   6.366   6.018 -0.1767 -0.4972  0.3527
 6519SOL     OW25841   2.772   3.677   4.793 -0.2359  0.0031  0.2621
 6519SOL    HW225842   2.745   3.587   4.772 -0.1977  0.5834 -2.6579
 6519SOL    HW325843   2.709   3.732   4.746  1.8248  1.4492 -0.9332
 6519SOL    MW425844   2.760   3.672   4.784 -0.3178  0.1359 -0.5220
 6520SOL     OW25845   3.716   5.125   5.472 -0.4576  0.4889 -0.3932
 6520SOL    HW225846   3.728   5.108   5.379  0.8999  0.4478 -0.2316
 6520SOL    HW325847   3.621   5.127   5.484 -0.6629 -0.9549 -1.5092
 6520SOL    MW425848   3.705   5.123   5.462 -0.0489  0.1447 -0.4852
 6521SOL     OW25849   6.227   4.666   4.838  0.2679 -0.2062  0.1945
 6521SOL    HW225850   6.173   4.684   4.915 -0.3511  0.8991 -0.4742
 6521SOL    HW325851   6.192   4.585   4.802 -0.0258 -0.2446  0.5590
 6521SOL    MW425852   6.215   4.658   4.843 -0.0319 -0.5468 -0.5041
 6522SOL     OW25853   4.076   1.559   1.230 -0.0916  0.5049 -0.6498
 6522SOL    HW225854   4.006   1.577   1.292  1.0685  1.4093  0.4549
 6522SOL    HW325855   4.121   1.482   1.267 -0.9162 -0.5414 -1.7485
 6522SOL    MW425856   4.073   1.551   1.243 -0.2958  0.7700  0.3693
 6523SOL     OW25857   2.115   2.572   1.161 -0.0465  0.0827 -0.0333
 6523SOL    HW225858   2.043   2.581   1.098  2.0184 -1.1117 -2.7512
 6523SOL    HW325859   2.098   2.640   1.226 -3.4092  0.0633 -0.6988
 6523SOL    MW425860   2.103   2.582   1.162 -0.1185 -0.0598 -0.3725
 6524SOL     OW25861   4.265   4.304   2.791 -0.1918  0.5959  0.2499
 6524SOL    HW225862   4.340   4.246   2.807 -0.9067  0.0635  1.8551
 6524SOL    HW325863   4.293   4.359   2.717  2.0963  0.9451  1.2869
 6524SOL    MW425864   4.279   4.304   2.783  0.3905 -0.2462  0.2222
 6525SOL     OW25865   0.750   6.092   3.970 -1.1740  0.3457 -0.3031
 6525SOL    HW225866   0.841   6.086   3.939 -1.0734  1.6222 -0.3197
 6525SOL    HW325867   0.698   6.090   3.889 -1.0444  1.3573 -0.4265
 6525SOL    MW425868   0.755   6.091   3.955  0.4581  0.1248  0.6407
 6526SOL     OW25869   6.396   1.826   5.250 -0.4688 -0.0063  0.2990
 6526SOL    HW225870   6.331   1.760   5.229  0.2377 -0.9527  0.9845
 6526SOL    HW325871   6.468   1.777   5.291  0.0362  1.1918  0.9056
 6526SOL    MW425872   6.397   1.811   5.253  0.4087  0.1552 -0.0202
 6527SOL     OW25873   5.887   1.999   4.571 -1.0150  0.2049  0.3581
 6527SOL    HW225874   5.862   2.079   4.617 -0.1246  0.7812 -0.1336
 6527SOL    HW325875   5.951   2.028   4.506 -0.0676 -1.0261  0.7137
 6527SOL    MW425876   5.892   2.014   4.568 -0.4785 -0.2082 -0.2489
 6528SOL     OW25877   1.226   1.632   6.394 -0.7090  0.0737 -0.5071
 6528SOL    HW225878   1.210   1.724   6.416  0.4605 -0.1041  1.2235
 6528SOL    HW325879   1.174   1.583   6.458  0.0907 -0.4586 -0.2536
 6528SOL    MW425880   1.217   1.638   6.405  0.2570  0.5201 -0.0352
 6529SOL     OW25881   6.064   1.521   4.537  0.5152 -0.6230  0.2222
 6529SOL    HW225882   6.038   1.604   4.577  0.2684 -0.0843 -1.0033
 6529SOL    HW325883   6.130   1.485   4.597  0.4067  0.3069  0.9198
 6529SOL    MW425884   6.069   1.527   4.550  0.0937 -0.1024 -0.0285
 6530SOL     OW25885   1.959   3.953   1.756  0.5000 -0.0918 -0.2817
 6530SOL    HW225886   1.909   3.967   1.676 -0.1167 -1.4504 -0.1748
 6530SOL    HW325887   2.012   4.032   1.766 -2.3161  1.8599  0.1278
 6530SOL    MW425888   1.960   3.965   1.747  0.5791 -0.5331  0.1583
 6531SOL     OW25889   5.920   1.189   6.134  0.1953  0.3765  0.3436
 6531SOL    HW225890   5.909   1.103   6.174 -0.6948 -0.7886 -2.2013
 6531SOL    HW325891   5.968   1.172   6.053  1.1910  2.4876  0.4410
 6531SOL    MW425892   5.925   1.175   6.129  0.4211  0.5557  0.3522
 6532SOL     OW25893   3.317   4.356   0.834 -0.0204 -0.2349 -0.2515
 6532SOL    HW225894   3.338   4.442   0.797  0.4616  0.4148  1.4558
 6532SOL    HW325895   3.267   4.375   0.913  0.9050 -1.4820  0.6695
 6532SOL    MW425896   3.313   4.369   0.839 -0.1470  0.2799  0.1610
 6533SOL     OW25897   1.058   3.499   4.705 -0.0340  0.6689  0.4132
 6533SOL    HW225898   1.088   3.507   4.795  0.1819  0.4537  0.3593
 6533SOL    HW325899   1.137   3.481   4.654 -0.2331  0.2225  0.2558
 6533SOL    MW425900   1.072   3.498   4.710  0.2340  0.5044 -0.4323
 6534SOL     OW25901   5.287   4.936   2.393 -0.0926 -0.3148  0.7045
 6534SOL    HW225902   5.233   5.011   2.369 -0.3151 -0.9485 -0.8747
 6534SOL    HW325903   5.374   4.973   2.408 -0.6914  0.5637  2.2494
 6534SOL    MW425904   5.291   4.951   2.392  0.4772 -0.1587  0.0806
 6535SOL     OW25905   3.877   4.915   2.978 -0.1209 -0.4535 -0.0811
 6535SOL    HW225906   3.892   5.009   2.992 -0.0448 -0.3872 -0.5888
 6535SOL    HW325907   3.863   4.907   2.884  1.9319 -1.2262 -0.3707
 6535SOL    MW425908   3.877   4.926   2.968  0.1147  0.3306 -0.2206
 6536SOL     OW25909   1.516   4.939   2.114  0.1647 -0.1856  0.1918
 6536SOL    HW225910   1.465   4.997   2.058 -2.6079 -1.3119  1.3644
 6536SOL    HW325911   1.576   4.894   2.055 -0.3675  0.9999 -1.3093
 6536SOL    MW425912   1.517   4.941   2.099 -0.0362 -0.4048  1.0591
 6537SOL     OW25913   3.047   3.066   0.865 -0.3943  0.2314  0.4485
 6537SOL    HW225914   3.073   3.053   0.774  0.4227  0.8858  0.5753
 6537SOL    HW325915   3.083   2.991   0.911 -2.2754 -1.0146 -0.0117
 6537SOL    MW425916   3.056   3.055   0.859 -0.4476  0.3159  0.2289
 6538SOL     OW25917   1.165   2.273   2.768 -0.3593 -0.6059  0.7198
 6538SOL    HW225918   1.125   2.359   2.779 -0.8433 -0.5530 -1.1562
 6538SOL    HW325919   1.252   2.283   2.806 -1.5666 -0.3454  3.6845
 6538SOL    MW425920   1.171   2.286   2.775 -0.2902 -0.1515 -0.2659
 6539SOL     OW25921   3.492   0.548   0.415 -0.2551  0.1326  0.4391
 6539SOL    HW225922   3.406   0.581   0.389 -1.0095 -1.9291  0.1528
 6539SOL    HW325923   3.548   0.563   0.338 -1.2617 -1.5912 -0.6955
 6539SOL    MW425924   3.488   0.554   0.401 -0.3506  0.7061 -0.1294
 6540SOL     OW25925   3.427   5.139   5.523  0.4598  0.9024 -0.9369
 6540SOL    HW225926   3.432   5.223   5.570 -1.0751  1.1452 -1.1591
 6540SOL    HW325927   3.335   5.131   5.499  0.1970 -1.7242  0.6570
 6540SOL    MW425928   3.416   5.149   5.526 -0.4297  0.1279  0.6328
 6541SOL     OW25929   1.714   6.124   5.305  0.2309  0.7709 -0.4154
 6541SOL    HW225930   1.632   6.113   5.353  1.0299 -0.4865  0.7579
 6541SOL    HW325931   1.762   6.043   5.321  0.4562  0.1237 -3.6180
 6541SOL    MW425932   1.710   6.112   5.313  0.2510  0.1972  0.3013
 6542SOL     OW25933   2.032   0.058   3.733  0.3724  0.1452  0.0844
 6542SOL    HW225934   2.078   0.096   3.658  0.7409 -1.4553 -0.5264
 6542SOL    HW325935   1.945   0.097   3.729  0.5889  0.5720 -0.7993
 6542SOL    MW425936   2.027   0.068   3.722 -0.2591  0.1995 -0.3779
 6543SOL     OW25937   2.553   0.886   0.800  0.7497  0.1052 -0.2469
 6543SOL    HW225938   2.464   0.851   0.790  0.2316  1.2443  0.1822
 6543SOL    HW325939   2.562   0.900   0.894  1.9165 -1.2927 -0.1176
 6543SOL    MW425940   2.542   0.883   0.811  0.7119  0.1713  0.7919
 6544SOL     OW25941   1.227   5.852   3.296 -0.0784  0.5859 -0.2215
 6544SOL    HW225942   1.285   5.782   3.264 -2.3979 -1.6482  0.0872
 6544SOL    HW325943   1.205   5.902   3.217 -0.0446 -0.3802 -0.8681
 6544SOL    MW425944   1.231   5.849   3.281 -0.3014 -0.1904 -0.4416
 6545SOL     OW25945   1.368   6.244   5.666 -0.4886  0.3270  0.0114
 6545SOL    HW225946   1.402   6.318   5.615 -0.2434  0.4977  0.4164
 6545SOL    HW325947   1.402   6.166   5.621  0.3365  0.4904  0.3239
 6545SOL    MW425948   1.377   6.243   5.653  0.8211 -0.3234 -0.9998
 6546SOL     OW25949   4.267   4.997   4.630  0.1114  0.0132 -0.1070
 6546SOL    HW225950   4.207   4.929   4.660 -1.3996 -0.2839 -3.3436
 6546SOL    HW325951   4.334   4.950   4.581  0.4438  0.6748 -0.2990
 6546SOL    MW425952   4.268   4.982   4.627 -0.4626 -0.2935 -0.2046
 6547SOL     OW25953   2.780   1.774   4.171  0.0174 -0.1104 -0.4187
 6547SOL    HW225954   2.761   1.726   4.090 -1.6959 -0.9072  0.3914
 6547SOL    HW325955   2.711   1.840   4.176  0.8067  0.7127 -0.1755
 6547SOL    MW425956   2.768   1.776   4.161  0.7392  0.1859 -0.3115
 6548SOL     OW25957   5.894   1.537   3.981 -0.6221 -0.1612  0.1142
 6548SOL    HW225958   5.970   1.485   4.005 -0.9925 -0.4048  0.7851
 6548SOL    HW325959   5.928   1.627   3.972 -0.2915 -0.2397  0.5751
 6548SOL    MW425960   5.909   1.542   3.983  0.2482 -0.1637 -0.4941
 6549SOL     OW25961   0.668   1.584   2.099 -0.1412  0.1325  0.1561
 6549SOL    HW225962   0.685   1.509   2.156 -1.6176 -0.5496 -0.2557
 6549SOL    HW325963   0.603   1.636   2.146  0.9669  1.2730  0.5005
 6549SOL    MW425964   0.662   1.581   2.113  0.4414  0.1131 -0.3815
 6550SOL     OW25965   4.375   1.170   3.153  0.4768  0.0518 -0.4147
 6550SOL    HW225966   4.340   1.100   3.098  1.9499 -0.0720 -1.2640
 6550SOL    HW325967   4.450   1.204   3.103 -0.0284  2.0566  0.1074
 6550SOL    MW425968   4.380   1.165   3.139  0.0216  0.2342  0.0242
 6551SOL     OW25969   4.775   0.746   2.863  0.0759 -0.1212 -0.1792
 6551SOL    HW225970   4.801   0.837   2.851  0.0070  0.4186  2.9652
 6551SOL    HW325971   4.790   0.705   2.778  1.4166  2.4920 -1.3035
 6551SOL    MW425972   4.780   0.753   2.850 -0.6172  0.5101  0.6021
 6552SOL     OW25973   3.101   2.050   5.022 -0.5457  0.4881  0.8182
 6552SOL    HW225974   3.141   1.974   4.980  2.9219  1.5122  1.9952
 6552SOL    HW325975   3.020   2.063   4.973  0.8361 -1.3265 -2.2667
 6552SOL    MW425976   3.095   2.041   5.010 -0.3677 -0.0071  0.8372
 6553SOL     OW25977   6.375   0.169   0.723 -0.3951  0.1562 -0.6783
 6553SOL    HW225978   6.387   0.172   0.818  1.3043 -2.2861 -0.7329
 6553SOL    HW325979   6.291   0.124   0.711 -0.3102 -0.0921 -0.3470
 6553SOL    MW425980   6.365   0.164   0.734  0.1768  0.0281  0.9077
 6554SOL     OW25981   3.649   0.122   5.585  0.1690  0.5314  0.1574
 6554SOL    HW225982   3.714   0.142   5.517  0.8854 -1.0883  0.3023
 6554SOL    HW325983   3.658   0.192   5.649  1.0047  0.9199 -0.3654
 6554SOL    MW425984   3.659   0.134   5.584  0.3406 -0.3610  0.1420
 6555SOL     OW25985   4.081   6.291   5.235  0.2230 -0.1319 -0.6589
 6555SOL    HW225986   4.072   6.197   5.252  0.2373 -0.1325 -0.6535
 6555SOL    HW325987   3.993   6.319   5.210  0.1780 -0.1101 -0.4796
 6555SOL    MW425988   4.068   6.282   5.234 -1.0146  0.8583 -0.1748
 6556SOL     OW25989   4.861   5.803   1.899 -0.4418  0.3032  0.2834
 6556SOL    HW225990   4.902   5.746   1.964  2.2205  1.3815 -0.3014
 6556SOL    HW325991   4.794   5.749   1.858 -2.4837 -0.3592  4.0168
 6556SOL    MW425992   4.858   5.789   1.902 -0.0555 -0.3847 -0.0379
 6557SOL     OW25993   1.888   3.117   3.225 -0.5443  0.3807  0.0247
 6557SOL    HW225994   1.983   3.122   3.221 -0.5483  0.4658  0.0384
 6557SOL    HW325995   1.858   3.160   3.145 -0.5128 -1.8444 -1.2750
 6557SOL    MW425996   1.896   3.123   3.214  0.0026  0.3021 -0.4636
 6558SOL     OW25997   6.043   0.314   5.196  0.2553  0.7219 -0.2876
 6558SOL    HW225998   6.014   0.231   5.158 -0.0732  0.1091  1.2110
 6558SOL    HW325999   6.123   0.292   5.244  0.7542  1.5030 -0.7296
 6558SOL    MW426000   6.050   0.300   5.197 -0.3184  0.5402  0.0186
 6559SOL     OW26001   3.445   3.566   6.107  0.2115 -0.8179  0.4432
 6559SOL    HW226002   3.415   3.606   6.026  0.6440 -0.1625  0.5997
 6559SOL    HW326003   3.390   3.606   6.175  3.0479  2.4362  1.0834
 6559SOL    MW426004   3.434   3.577   6.106 -0.9489  0.3549  0.3795
 6560SOL     OW26005   3.699   4.452   4.632 -0.0290 -0.2032  0.0473
 6560SOL    HW226006   3.654   4.406   4.703  1.7534  0.2326  1.5401
 6560SOL    HW326007   3.634   4.456   4.562 -1.8182 -0.8309  1.5576
 6560SOL    MW426008   3.684   4.447   4.632 -0.0522 -0.4827 -0.4331
 6561SOL     OW26009   2.295   2.649   4.123  0.3409 -0.2207 -0.4839
 6561SOL    HW226010   2.205   2.659   4.152  0.3173 -3.7686  1.1762
 6561SOL    HW326011   2.289   2.617   4.033  0.0667  0.7913 -0.8464
 6561SOL    MW426012   2.283   2.646   4.115 -0.3618  0.0600  0.2077
 6562SOL     OW26013   0.305   0.062   1.792  0.5103  0.0733 -0.4762
 6562SOL    HW226014   0.357   0.067   1.712 -0.6192 -0.1349 -1.2515
 6562SOL    HW326015   0.236  -0.002   1.771  0.4052 -0.2505  0.7889
 6562SOL    MW426016   0.303   0.054   1.778 -0.1957  0.0800 -0.1257
 6563SOL     OW26017   3.894   1.757   3.303 -0.1228  0.3251  0.8762
 6563SOL    HW226018   3.939   1.699   3.241 -0.3904  0.4595  0.5534
 6563SOL    HW326019   3.953   1.762   3.378 -0.1341 -0.4306  0.9409
 6563SOL    MW426020   3.908   1.750   3.305 -0.3869 -0.3163 -0.3233
 6564SOL     OW26021   5.322   1.584   2.414 -0.1068  0.1084  1.1282
 6564SOL    HW226022   5.413   1.553   2.419 -0.2232 -0.7877 -1.1147
 6564SOL    HW326023   5.274   1.510   2.377 -1.2316  1.4374 -0.1876
 6564SOL    MW426024   5.328   1.570   2.410 -0.1666 -0.2501  0.9600
 6565SOL     OW26025   2.605   3.262   4.534  0.2403  0.2563 -0.2180
 6565SOL    HW226026   2.570   3.318   4.465  0.0637  0.5897  0.1385
 6565SOL    HW326027   2.597   3.315   4.614 -1.6282 -0.9252  0.4523
 6565SOL    MW426028   2.599   3.277   4.536 -0.5595 -0.3897  0.0069
 6566SOL     OW26029   1.154   3.070   5.172 -0.1748 -0.4220  0.3447
 6566SOL    HW226030   1.219   3.087   5.240  0.1013 -3.8280  1.1294
 6566SOL    HW326031   1.075   3.044   5.220 -0.9173 -0.0774 -0.6518
 6566SOL    MW426032   1.152   3.069   5.187  0.0293 -0.0159 -0.3053
 6567SOL     OW26033   1.111   2.564   1.343  0.0478  0.4126  0.2161
 6567SOL    HW226034   1.082   2.652   1.365  0.1279  0.3319  0.6550
 6567SOL    HW326035   1.129   2.567   1.249 -0.4706  0.7154  0.1232
 6567SOL    MW426036   1.110   2.576   1.333  0.0827  0.9665 -0.5280
 6568SOL     OW26037   5.210   2.771   0.985  0.0267 -0.3777 -0.1736
 6568SOL    HW226038   5.231   2.680   1.006 -0.9281 -0.5750 -0.0359
 6568SOL    HW326039   5.207   2.815   1.070 -1.0291 -0.5599 -0.1055
 6568SOL    MW426040   5.212   2.765   0.999 -0.4265  0.1176 -0.1579
 6569SOL     OW26041   5.425   2.377   0.856  0.4433  1.1038  0.3522
 6569SOL    HW226042   5.502   2.414   0.898 -0.9631  0.2137  4.0624
 6569SOL    HW326043   5.406   2.297   0.905 -1.7059  0.1756 -1.7493
 6569SOL    MW426044   5.432   2.371   0.868 -0.1414  0.2328 -0.3857
 6570SOL     OW26045   4.931   4.934   2.207 -0.1523 -0.5527  0.8448
 6570SOL    HW226046   4.995   4.899   2.145 -2.3946  0.0188 -1.9968
 6570SOL    HW326047   4.979   5.001   2.255  1.1161  0.9485 -2.2224
 6570SOL    MW426048   4.946   4.938   2.205  0.3061 -0.0010  0.5181
 6571SOL     OW26049   4.729   6.429   2.092  0.4772 -0.4235 -0.3028
 6571SOL    HW226050   4.757   6.506   2.043 -0.7674  0.1500 -0.1483
 6571SOL    HW326051   4.738   6.455   2.184 -0.1272 -0.3845 -0.2518
 6571SOL    MW426052   4.734   6.443   2.098  0.5725 -0.6291  0.3602
 6572SOL     OW26053   1.386   3.683   3.115  0.3301  0.2444  0.5001
 6572SOL    HW226054   1.401   3.626   3.191  2.6344  0.1784  0.0512
 6572SOL    HW326055   1.312   3.641   3.069  2.8567 -3.4503 -0.6654
 6572SOL    MW426056   1.378   3.670   3.119 -0.0938 -0.4778 -0.0021
 6573SOL     OW26057   1.879   5.311   5.391  0.3019  0.3357 -0.2792
 6573SOL    HW226058   1.829   5.233   5.414 -2.8927  2.0201 -0.9207
 6573SOL    HW326059   1.891   5.356   5.475 -1.0572  0.8295 -0.3143
 6573SOL    MW426060   1.874   5.307   5.405  0.1091  0.1535 -0.0757
 6574SOL     OW26061   1.399   2.930   5.952  0.5464 -0.3972 -0.5272
 6574SOL    HW226062   1.384   2.949   6.045  1.9036  0.8095 -0.5134
 6574SOL    HW326063   1.487   2.891   5.950 -0.0366 -1.7265 -1.1702
 6574SOL    MW426064   1.409   2.927   5.964  0.0447 -0.2737  0.4226
 6575SOL     OW26065   3.881   0.454   1.611  0.3951  0.1871  0.1054
 6575SOL    HW226066   3.832   0.536   1.612  1.7041  1.0241 -1.1302
 6575SOL    HW326067   3.836   0.400   1.547 -0.1973  0.1014  0.5845
 6575SOL    MW426068   3.869   0.458   1.603 -0.6063 -0.7427 -0.0864
 6576SOL     OW26069   6.112   0.591   4.845 -0.3478  0.1277 -0.0493
 6576SOL    HW226070   6.160   0.508   4.849 -0.3862  0.1173  0.1788
 6576SOL    HW326071   6.041   0.582   4.909 -0.5697  0.1989 -0.2831
 6576SOL    MW426072   6.109   0.579   4.854  0.0624 -0.2497 -0.2531
 6577SOL     OW26073   2.039   4.726   4.500 -0.1282 -0.2251 -0.8505
 6577SOL    HW226074   2.010   4.655   4.559 -2.0203  1.5230  0.4816
 6577SOL    HW326075   2.069   4.795   4.559  1.7718  0.0913 -2.1272
 6577SOL    MW426076   2.039   4.726   4.515  0.1577 -0.4678  0.2438
 6578SOL     OW26077   2.284   0.524   1.434  0.0054 -0.3366 -0.0055
 6578SOL    HW226078   2.376   0.526   1.458  0.0684 -0.1320 -0.2611
 6578SOL    HW326079   2.275   0.446   1.379  0.1046 -0.1488 -0.2903
 6578SOL    MW426080   2.295   0.514   1.430  0.0235  0.2093  0.6966
 6579SOL     OW26081   2.157   3.429   1.666 -0.4070  0.0430  0.7149
 6579SOL    HW226082   2.189   3.461   1.582  0.9237 -0.2271  1.0946
 6579SOL    HW326083   2.062   3.426   1.656 -0.3452  1.0281 -0.4113
 6579SOL    MW426084   2.149   3.433   1.654 -0.7274 -0.9879  0.0219
 6580SOL     OW26085   1.560   1.748   0.243  0.1529  0.2606  0.7631
 6580SOL    HW226086   1.549   1.783   0.154  0.6868  2.1217  1.3704
 6580SOL    HW326087   1.483   1.694   0.257  0.2533 -0.4054 -0.9583
 6580SOL    MW426088   1.549   1.746   0.233  0.2145 -0.8491 -0.2220
 6581SOL     OW26089   3.443   1.923   2.531  0.1534 -0.0364 -0.0403
 6581SOL    HW226090   3.376   1.910   2.464  0.2964 -0.1924 -0.1515
 6581SOL    HW326091   3.394   1.951   2.608 -0.0859 -0.5637  0.0031
 6581SOL    MW426092   3.427   1.925   2.532  0.1111 -0.5075 -0.4005
 6582SOL     OW26093   0.314   3.914   5.464 -0.0072  0.1560  0.0795
 6582SOL    HW226094   0.229   3.948   5.489  0.5428  0.1851  2.0501
 6582SOL    HW326095   0.373   3.989   5.470  0.5972 -0.3822  1.1800
 6582SOL    MW426096   0.311   3.928   5.468 -0.1308  0.3703 -0.4949
 6583SOL     OW26097   5.504   3.892   3.152 -0.1051  0.0820  0.5255
 6583SOL    HW226098   5.472   3.919   3.066  1.3632  1.3088  0.3367
 6583SOL    HW326099   5.510   3.973   3.202  0.9700 -0.3529  1.1346
 6583SOL    MW426100   5.500   3.906   3.148  0.3154 -0.5311  0.7855
 6584SOL     OW26101   4.146   0.192   1.445  0.0473 -0.1653 -0.0269
 6584SOL    HW226102   4.059   0.180   1.481  0.8946  0.4390  2.4352
 6584SOL    HW326103   4.148   0.138   1.366 -1.4704 -2.8838  1.6714
 6584SOL    MW426104   4.135   0.184   1.439 -0.3943 -0.6953  0.8679
 6585SOL     OW26105   3.461   4.855   5.567 -0.0594  0.1588 -0.1135
 6585SOL    HW226106   3.433   4.946   5.571  0.1531  0.2301 -0.2024
 6585SOL    HW326107   3.432   4.816   5.649  3.0504  1.2393  1.6623
 6585SOL    MW426108   3.454   4.862   5.578 -0.6153  0.0238  0.1667
 6586SOL     OW26109   5.874   4.680   6.361 -0.0260 -0.2614 -0.8294
 6586SOL    HW226110   5.819   4.625   6.304  0.9710 -1.9718 -0.2073
 6586SOL    HW326111   5.963   4.659   6.335  0.3905  0.5158 -0.0506
 6586SOL    MW426112   5.878   4.670   6.350  0.1993  0.7419  0.5008
 6587SOL     OW26113   3.226   3.434   5.885  0.0567 -0.2295  0.1170
 6587SOL    HW226114   3.183   3.471   5.962 -0.0610  0.4535 -0.2695
 6587SOL    HW326115   3.186   3.481   5.811  1.3014  0.2594 -0.2658
 6587SOL    MW426116   3.215   3.445   5.886 -0.2480 -0.2358 -0.2588
 6588SOL     OW26117   2.177   5.379   4.220 -0.0628  0.1837 -0.0287
 6588SOL    HW226118   2.152   5.313   4.285  1.4143 -0.0026  0.3764
 6588SOL    HW326119   2.120   5.453   4.239 -1.6215 -0.8697 -0.3717
 6588SOL    MW426120   2.166   5.380   4.231 -0.4122 -0.0859  0.1480
 6589SOL     OW26121   0.292   1.783   1.066 -0.2508  0.4009 -0.0381
 6589SOL    HW226122   0.382   1.752   1.055 -0.6917 -0.3852 -1.6112
 6589SOL    HW326123   0.262   1.805   0.978 -1.6267  0.6170  0.4487
 6589SOL    MW426124   0.300   1.782   1.053  0.1561  0.1607  0.3954
 6590SOL     OW26125   2.445   1.714   3.968 -0.9041 -0.3097 -0.1189
 6590SOL    HW226126   2.429   1.722   3.874  0.8422 -1.1871 -0.5385
 6590SOL    HW326127   2.453   1.804   3.999  0.9715 -0.0029 -1.3137
 6590SOL    MW426128   2.444   1.727   3.959 -0.2984 -0.2293  0.0513
 6591SOL     OW26129   0.495   4.599   0.937  0.3170  0.7144  0.7524
 6591SOL    HW226130   0.489   4.681   0.889  0.7526 -0.4116 -1.3708
 6591SOL    HW326131   0.586   4.593   0.965 -0.1934  1.9406  2.9355
 6591SOL    MW426132   0.506   4.609   0.934  0.3785 -0.1814  0.1644
 6592SOL     OW26133   5.033   6.188   2.540  0.2720 -0.6443  0.4674
 6592SOL    HW226134   5.084   6.234   2.608  1.0547 -1.5361  0.5068
 6592SOL    HW326135   5.024   6.252   2.470  0.3334 -0.0422  0.9937
 6592SOL    MW426136   5.038   6.202   2.540  0.0510  0.1143  0.1251
 6593SOL     OW26137   4.273   0.202   5.419  0.0863 -0.5125  0.2249
 6593SOL    HW226138   4.250   0.275   5.361 -0.3131 -0.8705 -0.0782
 6593SOL    HW326139   4.320   0.242   5.492 -1.8804  0.3487  1.0990
 6593SOL    MW426140   4.276   0.217   5.421 -0.0832 -0.4236  0.4285
 6594SOL     OW26141   1.853   6.063   0.368 -0.0034  0.4912 -0.0524
 6594SOL    HW226142   1.792   6.014   0.423  2.4767 -1.0468  1.4956
 6594SOL    HW326143   1.863   6.147   0.412  2.4537 -0.9431  2.4706
 6594SOL    MW426144   1.846   6.068   0.381 -0.0507 -1.3493 -0.4515
 6595SOL     OW26145   6.412   2.542   0.806  0.1176 -0.0437 -0.1512
 6595SOL    HW226146   6.360   2.492   0.869 -0.1069  1.4881  0.9505
 6595SOL    HW326147   6.348   2.570   0.739 -0.1096  0.2205  0.1710
 6595SOL    MW426148   6.397   2.539   0.805  0.2110 -0.2005  0.2164
 6596SOL     OW26149   1.153   4.561   3.579 -0.1586  0.3488  0.4564
 6596SOL    HW226150   1.087   4.538   3.645 -0.5851 -0.3461 -0.1958
 6596SOL    HW326151   1.212   4.486   3.578 -1.1757 -0.4831 -1.2136
 6596SOL    MW426152   1.152   4.548   3.588  0.4824 -0.4717  1.1759
 6597SOL     OW26153   0.152   1.498   6.125  0.0503  0.4436  0.2470
 6597SOL    HW226154   0.083   1.489   6.058  0.5996 -0.3837 -0.2211
 6597SOL    HW326155   0.143   1.589   6.156 -0.4113  0.7501 -0.7349
 6597SOL    MW426156   0.142   1.509   6.120  0.2238 -0.0035 -1.2466
 6598SOL     OW26157   4.539   3.564   1.394  0.1658 -0.1749 -0.2931
 6598SOL    HW226158   4.445   3.549   1.406  0.1059 -1.1453 -1.6825
 6598SOL    HW326159   4.575   3.562   1.482 -0.8675 -1.7951  0.1451
 6598SOL    MW426160   4.531   3.562   1.407  0.1984  0.1583 -0.1679
 6599SOL     OW26161   1.467   4.175   2.404 -0.5726 -0.1388 -0.3877
 6599SOL    HW226162   1.445   4.217   2.487  0.2841 -1.6408  0.6463
 6599SOL    HW326163   1.443   4.083   2.416  3.7764 -1.4527  0.0238
 6599SOL    MW426164   1.461   4.168   2.416 -0.4172  0.6167  0.5796
 6600SOL     OW26165   5.956   5.942   2.086  0.2345  0.2616  0.0196
 6600SOL    HW226166   5.993   5.915   2.002 -1.2957  1.4150 -1.0943
 6600SOL    HW326167   5.911   6.024   2.067 -2.1658 -0.6318  1.4279
 6600SOL    MW426168   5.955   5.950   2.073 -0.2471 -0.3210 -0.0840
 6601SOL     OW26169   6.240   0.508   5.802 -0.6616 -0.3453  0.1914
 6601SOL    HW226170   6.155   0.538   5.833 -0.7347  1.3767 -1.4544
 6601SOL    HW326171   6.226   0.418   5.773 -1.2210 -1.0291  2.4516
 6601SOL    MW426172   6.227   0.500   5.802 -0.0376 -0.0448  0.2307
 6602SOL     OW26173   0.441   6.108   2.977  0.2821 -0.0341 -0.1657
 6602SOL    HW226174   0.426   6.184   2.921 -1.4795  0.1155  0.4697
 6602SOL    HW326175   0.454   6.145   3.065 -3.7879 -0.4843  0.7991
 6602SOL    MW426176   0.441   6.123   2.982  0.5848  0.4264  0.0905
 6603SOL     OW26177   2.371   2.153   3.416  0.1326 -0.2858 -0.1439
 6603SOL    HW226178   2.389   2.062   3.439 -0.1494 -0.7281 -1.5811
 6603SOL    HW326179   2.281   2.168   3.444 -0.3287 -0.9241 -1.2468
 6603SOL    MW426180   2.361   2.143   3.423  0.6100 -1.1505 -0.4615
 6604SOL     OW26181   2.646   0.572   3.951 -0.2220 -0.3298  0.0815
 6604SOL    HW226182   2.622   0.663   3.933  0.2287 -0.5550 -1.9266
 6604SOL    HW326183   2.699   0.577   4.031  0.9375  1.3778 -0.7167
 6604SOL    MW426184   2.650   0.585   3.959  0.1110  0.1519 -0.0414
 6605SOL     OW26185   1.227   0.454   4.226 -0.1330 -0.0013 -0.0164
 6605SOL    HW226186   1.299   0.418   4.174 -0.8459  0.0184 -1.0389
 6605SOL    HW326187   1.198   0.531   4.177  0.1734  0.9285  1.2049
 6605SOL    MW426188   1.233   0.460   4.213 -0.0601 -0.6312  0.1919
 6606SOL     OW26189   4.225   3.324   3.358 -0.0535  0.2918  0.0210
 6606SOL    HW226190   4.272   3.405   3.342  1.7629 -0.3640  1.6237
 6606SOL    HW326191   4.273   3.258   3.307 -2.8562  0.4419 -3.1630
 6606SOL    MW426192   4.238   3.326   3.349 -0.2786  0.3441 -0.2949
 6607SOL     OW26193   4.845   0.929   3.227 -0.3043  0.3846 -0.1349
 6607SOL    HW226194   4.836   0.835   3.216 -0.5700  0.4357 -0.3547
 6607SOL    HW326195   4.816   0.945   3.317  1.1789  0.0640  0.4216
 6607SOL    MW426196   4.840   0.919   3.238 -0.4260 -0.2683  0.3262
 6608SOL     OW26197   4.127   4.504   1.920  0.2509 -0.3967  0.1272
 6608SOL    HW226198   4.158   4.424   1.878  0.8322 -0.4974  0.7402
 6608SOL    HW326199   4.186   4.517   1.993  1.7240  1.9608 -1.3683
 6608SOL    MW426200   4.139   4.495   1.924 -0.0500  0.0238  0.3691
 6609SOL     OW26201   4.836   0.710   4.752 -0.1139  0.4989  0.2267
 6609SOL    HW226202   4.823   0.786   4.695  0.9238  0.4835 -0.0591
 6609SOL    HW326203   4.905   0.737   4.813 -0.5394  0.1765  0.8563
 6609SOL    MW426204   4.843   0.724   4.752  0.5872  0.3266  0.1280
 6610SOL     OW26205   5.900   4.662   4.015 -0.0976  0.7927  0.3394
 6610SOL    HW226206   5.954   4.599   4.062  0.3424  0.3413 -0.7467
 6610SOL    HW326207   5.956   4.739   4.004  0.4360  0.2361 -0.9979
 6610SOL    MW426208   5.914   4.664   4.020  0.2573 -0.1661 -0.1209
 6611SOL     OW26209   3.646   6.122   5.668 -0.3613  0.4282 -0.2949
 6611SOL    HW226210   3.679   6.108   5.757 -1.4751  0.7872  0.1997
 6611SOL    HW326211   3.569   6.065   5.662  0.4900 -0.6107 -1.5116
 6611SOL    MW426212   3.640   6.113   5.679 -0.2869 -0.0457 -0.3922
 6612SOL     OW26213   1.173   4.638   4.163  0.1646  0.8118  0.5046
 6612SOL    HW226214   1.077   4.644   4.161 -0.0277 -1.3077  0.5033
 6612SOL    HW326215   1.195   4.643   4.256 -0.0466  0.3622  0.5830
 6612SOL    MW426216   1.163   4.639   4.175 -0.0082  0.3434  0.6985
 6613SOL     OW26217   3.465   0.542   1.106  0.2562 -0.1984  0.2402
 6613SOL    HW226218   3.482   0.501   1.191  0.6228 -1.1224 -0.2667
 6613SOL    HW326219   3.370   0.547   1.101  0.1654 -1.5287  0.0856
 6613SOL    MW426220   3.455   0.537   1.117 -0.3079  0.2383 -0.1299
 6614SOL     OW26221   1.871   5.392   5.875  0.2214 -0.2166  0.0002
 6614SOL    HW226222   1.809   5.398   5.803  1.1502 -0.0832 -0.8101
 6614SOL    HW326223   1.864   5.302   5.906 -0.4547 -0.1697 -0.0081
 6614SOL    MW426224   1.862   5.381   5.870 -0.0278 -0.4747  0.3557
 6615SOL     OW26225   1.195   2.055   0.798 -0.1904 -0.4289  0.2998
 6615SOL    HW226226   1.223   2.146   0.802 -3.3812  0.6345  1.4921
 6615SOL    HW326227   1.158   2.045   0.710  1.1925 -1.0165 -0.2613
 6615SOL    MW426228   1.194   2.066   0.787 -0.0297  0.1471 -0.3238
 6616SOL     OW26229   1.896   1.058   3.545 -0.6550 -0.2177 -0.2196
 6616SOL    HW226230   1.973   1.097   3.587  0.6860 -0.5732 -2.2224
 6616SOL    HW326231   1.872   1.120   3.476  0.4935 -2.0009 -2.3609
 6616SOL    MW426232   1.903   1.071   3.541 -0.2064  0.6886  0.0481
 6617SOL     OW26233   1.598   5.621   4.703  0.3874 -0.5371  0.0062
 6617SOL    HW226234   1.690   5.643   4.713  0.2718  0.2488 -0.5543
 6617SOL    HW326235   1.561   5.694   4.653 -0.5460 -0.8194  0.2616
 6617SOL    MW426236   1.605   5.634   4.698 -0.1747  0.7016 -0.1102
 6618SOL     OW26237   5.119   0.909   2.656  0.1217 -0.3380 -0.3061
 6618SOL    HW226238   5.181   0.970   2.617  0.8737  0.9041  2.5665
 6618SOL    HW326239   5.173   0.842   2.697 -0.4028  0.1552  1.2749
 6618SOL    MW426240   5.134   0.908   2.656 -0.1211 -0.3773  0.6223
 6619SOL     OW26241   3.005   3.392   4.855 -0.8423 -0.0602 -0.1128
 6619SOL    HW226242   3.053   3.310   4.852 -0.9509 -0.0960 -1.2889
 6619SOL    HW326243   2.972   3.404   4.766 -1.1393  1.0711  0.1308
 6619SOL    MW426244   3.007   3.383   4.843  0.4330 -0.1271 -0.1526
 6620SOL     OW26245   5.742   5.642   3.591 -0.2238  0.5800  0.4926
 6620SOL    HW226246   5.651   5.613   3.581 -0.4068  1.2231  0.2081
 6620SOL    HW326247   5.743   5.686   3.677 -0.1552  0.4791  0.5433
 6620SOL    MW426248   5.730   5.644   3.601 -0.2287  0.0252 -0.1221
 6621SOL     OW26249   0.133   3.777   6.248  0.2997  0.4715  0.8966
 6621SOL    HW226250   0.208   3.767   6.306  1.1943 -0.9565 -0.4584
 6621SOL    HW326251   0.169   3.816   6.169 -0.2573 -0.7206  0.0268
 6621SOL    MW426252   0.147   3.781   6.245 -0.3296  0.0452 -0.4051
 6622SOL     OW26253   4.656   3.376   2.964 -0.2476  0.5058  0.2003
 6622SOL    HW226254   4.712   3.369   3.041 -1.0484 -0.4448  0.7214
 6622SOL    HW326255   4.633   3.469   2.960  1.8763  1.0632 -0.4284
 6622SOL    MW426256   4.660   3.387   2.974  0.4063  0.1873  0.0261
 6623SOL     OW26257   4.448   5.690   3.794  0.1837 -0.1502 -0.1000
 6623SOL    HW226258   4.399   5.615   3.828  0.3026 -0.1065  0.1733
 6623SOL    HW326259   4.491   5.657   3.715 -0.8234 -0.0025 -0.7309
 6623SOL    MW426260   4.447   5.676   3.788  0.2831 -0.2649 -0.0328
 6624SOL     OW26261   5.137   4.685   3.146 -0.1640  0.5255  1.1037
 6624SOL    HW226262   5.090   4.642   3.075  1.3791 -1.3013  1.1297
 6624SOL    HW326263   5.142   4.777   3.120 -1.2176  0.2170 -0.2492
 6624SOL    MW426264   5.132   4.692   3.133 -0.1018 -0.1001  0.9194
 6625SOL     OW26265   4.408   5.036   5.402 -0.0587 -0.1643 -0.7286
 6625SOL    HW226266   4.400   5.111   5.343 -2.3231  0.1560 -0.1312
 6625SOL    HW326267   4.489   5.053   5.451  0.8777  0.4860 -2.4122
 6625SOL    MW426268   4.418   5.048   5.401  0.4302  0.1847  0.0918
 6626SOL     OW26269   1.107   0.883   3.555 -0.1271 -0.1482 -0.5784
 6626SOL    HW226270   1.143   0.903   3.468  0.9920  0.4264  0.0022
 6626SOL    HW326271   1.012   0.884   3.542 -0.0310  1.6293 -1.4505
 6626SOL    MW426272   1.099   0.886   3.542 -0.0448 -0.4671 -0.1849
 6627SOL     OW26273   4.980   4.951   3.177 -0.7097  0.0980  0.1615
 6627SOL    HW226274   5.024   5.035   3.164  0.8493 -0.8820 -1.2328
 6627SOL    HW326275   4.902   4.973   3.227  0.4803  2.1653  1.2661
 6627SOL    MW426276   4.976   4.965   3.182  0.0321  0.0385  0.8318
 6628SOL     OW26277   1.339   4.980   5.271 -0.2660 -0.0084 -0.4544
 6628SOL    HW226278   1.263   5.036   5.257 -1.5741 -1.2357  1.3307
 6628SOL    HW326279   1.386   5.020   5.344  1.0505  0.9276 -1.7574
 6628SOL    MW426280   1.335   4.993   5.279 -0.4788  0.4927  0.1130
 6629SOL     OW26281   6.105   5.999   3.375  0.2624 -0.2294  0.1928
 6629SOL    HW226282   6.109   6.041   3.290  1.3206 -0.5144  0.0893
 6629SOL    HW326283   6.015   6.013   3.405 -0.0773 -0.0158 -0.9045
 6629SOL    MW426284   6.093   6.006   3.368 -0.5200  0.3923 -0.4781
 6630SOL     OW26285   4.483   1.309   6.162  0.2498 -0.5256 -0.2136
 6630SOL    HW226286   4.554   1.289   6.102 -0.1526  0.8146 -1.1763
 6630SOL    HW326287   4.519   1.376   6.221 -0.6015  1.2724 -1.6353
 6630SOL    MW426288   4.497   1.315   6.162  0.1963 -0.7108 -0.2564
 6631SOL     OW26289   3.841   6.049   3.366 -0.0716  0.2277  0.2208
 6631SOL    HW226290   3.787   6.118   3.406 -0.1927  0.5064 -0.4097
 6631SOL    HW326291   3.879   6.091   3.288 -0.1370 -0.4126 -0.1584
 6631SOL    MW426292   3.839   6.064   3.361  0.1357 -0.4354 -0.2654
 6632SOL     OW26293   3.929   0.367   5.632  0.2423 -0.4601 -0.4914
 6632SOL    HW226294   3.933   0.281   5.591  0.5450  0.1295 -1.7404
 6632SOL    HW326295   3.956   0.352   5.723 -0.9827 -1.8919 -0.3222
 6632SOL    MW426296   3.933   0.353   5.639 -0.2794  0.3674 -0.1225
 6633SOL     OW26297   6.069   4.016   5.840 -0.3716  0.2079 -0.3082
 6633SOL    HW226298   6.000   4.045   5.782 -0.9607 -0.4513  0.0363
 6633SOL    HW326299   6.058   4.068   5.919 -0.4786  0.1018 -0.2528
 6633SOL    MW426300   6.059   4.026   5.843 -0.6535 -0.1125 -0.8636
 6634SOL     OW26301   3.082   0.738   4.718  0.3088  0.4102 -0.5335
 6634SOL    HW226302   3.163   0.762   4.674  1.3379 -2.0640 -0.1681
 6634SOL    HW326303   3.108   0.667   4.777 -1.6045  1.5012  1.7486
 6634SOL    MW426304   3.096   0.731   4.720  0.2001  0.1714 -0.0688
 6635SOL     OW26305   0.536   6.268   5.084 -0.1806  0.6141 -0.2874
 6635SOL    HW226306   0.584   6.235   5.160 -0.5719 -3.3422 -1.4950
 6635SOL    HW326307   0.602   6.278   5.016 -0.0072  3.0142  0.1628
 6635SOL    MW426308   0.551   6.265   5.085 -0.5049 -0.0790 -0.0366
 6636SOL     OW26309   5.895   4.555   5.268 -0.0739  0.1644  0.4030
 6636SOL    HW226310   5.915   4.480   5.324  3.1525  1.4979  1.2437
 6636SOL    HW326311   5.947   4.541   5.189 -1.9062  0.0396 -0.8470
 6636SOL    MW426312   5.904   4.543   5.265 -0.0013 -0.0429  0.3411
 6637SOL     OW26313   5.437   5.202   4.049  0.0114  0.0717  0.0438
 6637SOL    HW226314   5.379   5.156   3.989 -1.1888  1.3894  0.1438
 6637SOL    HW326315   5.438   5.293   4.018  0.2704  0.5410  1.3419
 6637SOL    MW426316   5.430   5.208   4.037  0.4495 -0.2232 -0.0346
 6638SOL     OW26317   2.903   4.945   2.096  0.2822  1.0499 -0.0685
 6638SOL    HW226318   2.840   4.896   2.149 -0.9440 -0.0607 -2.4076
 6638SOL    HW326319   2.850   4.993   2.033  1.7011  1.0705 -1.3130
 6638SOL    MW426320   2.888   4.944   2.095  0.0042  0.0493 -0.2076
 6639SOL     OW26321   1.517   2.794   3.304  0.7431 -0.5751 -0.2201
 6639SOL    HW226322   1.461   2.861   3.344  0.9435 -0.6631  0.2195
 6639SOL    HW326323   1.605   2.829   3.310  1.3379 -2.1889  3.0210
 6639SOL    MW426324   1.521   2.807   3.310  0.8832  0.1618  0.0398
 6640SOL     OW26325   5.393   5.623   0.664  0.3568  0.6306  0.2273
 6640SOL    HW226326   5.466   5.622   0.725  0.5673  0.2387 -0.0263
 6640SOL    HW326327   5.418   5.689   0.599 -0.3633  1.8474  1.1447
 6640SOL    MW426328   5.406   5.632   0.663  0.2287  0.0488 -0.1006
 6641SOL     OW26329   5.834   5.958   5.223 -0.4699 -0.4855 -0.3065
 6641SOL    HW226330   5.775   6.030   5.198  0.4304  0.5810  0.5284
 6641SOL    HW326331   5.889   5.995   5.292  1.4722 -1.3025 -1.3335
 6641SOL    MW426332   5.833   5.973   5.229  0.2258  0.3939 -0.2070
 6642SOL     OW26333   6.407   5.475   2.985 -0.1687 -0.2122 -0.0219
 6642SOL    HW226334   6.414   5.550   2.925 -1.9185  0.5128  0.5987
 6642SOL    HW326335   6.470   5.495   3.055  1.2709 -0.6475 -1.1624
 6642SOL    MW426336   6.416   5.488   2.987  0.7703  0.1729 -0.2394
 6643SOL     OW26337   2.548   4.468   5.755  0.2383 -0.0224 -0.1637
 6643SOL    HW226338   2.596   4.492   5.676  0.1192  0.3414 -0.1253
 6643SOL    HW326339   2.537   4.373   5.748  0.5316 -0.0407 -0.4127
 6643SOL    MW426340   2.553   4.458   5.744 -0.2728 -0.1779 -0.3071
 6644SOL     OW26341   0.493   1.065   5.087  0.8545 -0.5279 -0.0317
 6644SOL    HW226342   0.526   1.028   5.006  1.7674  1.7254 -0.7774
 6644SOL    HW326343   0.398   1.068   5.075  0.8544 -1.5828 -0.3665
 6644SOL    MW426344   0.485   1.061   5.075 -0.5760 -0.4997  0.2978
 6645SOL     OW26345   5.628   1.190   0.117 -0.3798  0.0501 -0.4576
 6645SOL    HW226346   5.621   1.117   0.055  0.5471 -1.6081  1.2969
 6645SOL    HW326347   5.538   1.208   0.145 -0.8391  0.9523 -2.3346
 6645SOL    MW426348   5.615   1.183   0.112 -0.3368 -0.1561  0.0798
 6646SOL     OW26349   4.805   3.034   0.555 -0.5048 -0.0008 -0.1491
 6646SOL    HW226350   4.748   3.062   0.483 -0.2289 -1.2147 -0.8695
 6646SOL    HW326351   4.778   2.944   0.573  0.8765 -0.4518 -0.2120
 6646SOL    MW426352   4.794   3.026   0.548  0.6680  0.1548 -0.2086
 6647SOL     OW26353   0.194   3.164   5.311 -0.0399  0.1261  0.1259
 6647SOL    HW226354   0.250   3.133   5.240 -0.1612 -0.6689  0.3630
 6647SOL    HW326355   0.221   3.112   5.387 -0.5165  0.3394  0.4447
 6647SOL    MW426356   0.205   3.153   5.312  0.0479 -0.1769  0.2826
 6648SOL     OW26357   3.268   0.210   5.115  0.2978  0.5957  0.6385
 6648SOL    HW226358   3.341   0.229   5.056  0.8355 -3.3037 -0.2595
 6648SOL    HW326359   3.203   0.168   5.059 -0.1747 -1.0706  2.3297
 6648SOL    MW426360   3.269   0.207   5.100 -0.6102 -0.1124  0.0045
 6649SOL     OW26361   4.817   6.101   4.403  0.2392 -0.3462 -0.2348
 6649SOL    HW226362   4.802   6.176   4.346 -1.2170  1.2207  2.0464
 6649SOL    HW326363   4.911   6.085   4.398  0.3446  0.5743 -1.9873
 6649SOL    MW426364   4.827   6.109   4.395 -0.1357  0.2202  0.3032
 6650SOL     OW26365   5.601   3.724   0.638  0.3994 -0.2580  0.1155
 6650SOL    HW226366   5.580   3.634   0.662  0.3339  0.2278  2.0499
 6650SOL    HW326367   5.662   3.753   0.705  1.6759  0.6583 -1.3825
 6650SOL    MW426368   5.606   3.716   0.650 -0.3496  0.0471 -0.0144
 6651SOL     OW26369   2.138   2.995   5.590 -0.4551 -0.6434 -0.3663
 6651SOL    HW226370   2.215   3.006   5.534  0.3565  0.7256  0.9601
 6651SOL    HW326371   2.155   2.914   5.639  1.1092  0.6075  1.3009
 6651SOL    MW426372   2.150   2.986   5.589 -0.3024  0.0973 -0.0573
 6652SOL     OW26373   2.679   2.795   6.129 -0.5935 -0.1554 -0.3026
 6652SOL    HW226374   2.748   2.739   6.165  0.2619 -0.1983 -1.9261
 6652SOL    HW326375   2.603   2.776   6.183  0.3330 -1.0183  0.7651
 6652SOL    MW426376   2.678   2.785   6.141  0.4067  0.3100 -0.0984
 6653SOL     OW26377   6.287   5.631   4.505  1.0616 -0.4239  1.0350
 6653SOL    HW226378   6.298   5.724   4.524  2.7579 -0.6527  1.3772
 6653SOL    HW326379   6.210   5.626   4.450  1.2611  1.2474  0.5544
 6653SOL    MW426380   6.278   5.642   4.500 -0.4303  0.3618  1.2244
 6654SOL     OW26381   3.572   2.457   4.542  0.0525  0.3140 -0.1604
 6654SOL    HW226382   3.523   2.478   4.622 -1.6281  1.2192 -1.3828
 6654SOL    HW326383   3.512   2.404   4.490  1.2009 -0.4216 -0.7621
 6654SOL    MW426384   3.558   2.453   4.546 -0.3883  0.2182 -0.4265
 6655SOL     OW26385   3.552   0.632   5.918 -0.0116  0.1097  0.4319
 6655SOL    HW226386   3.530   0.628   6.011 -0.5103 -1.1860  0.2780
 6655SOL    HW326387   3.480   0.588   5.874  1.2595 -1.2818 -0.3629
 6655SOL    MW426388   3.540   0.626   5.924  0.4807 -0.1513 -0.0456
 6656SOL     OW26389   5.489   1.509   2.740  0.7222  0.2871 -0.0039
 6656SOL    HW226390   5.490   1.479   2.649 -1.5234  0.6957 -0.2112
 6656SOL    HW326391   5.472   1.430   2.791  0.8113  0.2404 -0.0466
 6656SOL    MW426392   5.487   1.495   2.734  0.3385 -0.2244  0.4937
 6657SOL     OW26393   4.992   4.501   5.756 -0.9734  0.2996  0.1645
 6657SOL    HW226394   4.941   4.485   5.836 -0.1667 -0.3681  0.5621
 6657SOL    HW326395   4.940   4.564   5.707 -1.5108  0.6963  1.2020
 6657SOL    MW426396   4.978   4.507   5.760  0.9193  0.2470  0.2773
 6658SOL     OW26397   1.963   0.367   2.824  0.2360 -0.2615 -0.5958
 6658SOL    HW226398   1.917   0.451   2.816  0.8465  0.3312  1.4564
 6658SOL    HW326399   2.047   0.389   2.863  1.0138 -1.6911 -1.3843
 6658SOL    MW426400   1.968   0.381   2.828 -0.0904  0.1894 -0.4039
 6659SOL     OW26401   5.239   3.481   5.931  0.3635 -0.2069 -0.2018
 6659SOL    HW226402   5.178   3.478   5.857  0.2283 -0.2124 -0.0918
 6659SOL    HW326403   5.324   3.464   5.893  0.3145 -0.0564 -0.3797
 6659SOL    MW426404   5.242   3.479   5.916 -0.2801  0.3539 -0.1942
 6660SOL     OW26405   2.650   5.719   4.631  0.0044  0.2030  0.3211
 6660SOL    HW226406   2.612   5.804   4.608  0.2795  0.0044 -0.8817
 6660SOL    HW326407   2.594   5.655   4.587 -0.8912 -0.3353  2.1310
 6660SOL    MW426408   2.638   5.722   4.622  0.2878  0.2569 -0.3008
 6661SOL     OW26409   5.501   3.404   5.844  0.0445 -0.7824  0.5071
 6661SOL    HW226410   5.517   3.435   5.934 -0.3163  1.4643 -0.1234
 6661SOL    HW326411   5.546   3.468   5.789 -0.5767 -1.5515 -0.9425
 6661SOL    MW426412   5.509   3.417   5.849  0.4444  0.1489  0.1945
 6662SOL     OW26413   5.255   3.658   5.581 -0.5973  0.6635  0.2282
 6662SOL    HW226414   5.232   3.731   5.639 -1.2689 -0.7377  1.8269
 6662SOL    HW326415   5.193   3.589   5.605  2.1250 -1.6232  1.2468
 6662SOL    MW426416   5.244   3.659   5.592 -0.8137  0.4832  0.0528
 6663SOL     OW26417   0.509   0.492   3.302 -0.2736 -0.1442  0.0776
 6663SOL    HW226418   0.548   0.528   3.382 -0.6449  0.5222 -0.0376
 6663SOL    HW326419   0.548   0.544   3.231  1.2770 -1.7618 -0.3347
 6663SOL    MW426420   0.520   0.503   3.303 -0.1603 -0.6540  0.3549
 6664SOL     OW26421   4.486   2.007   0.614  0.1535 -0.4862 -0.0106
 6664SOL    HW226422   4.485   2.008   0.710  1.8796 -2.9722  0.1238
 6664SOL    HW326423   4.572   2.042   0.591  0.9701 -2.6081 -0.4453
 6664SOL    MW426424   4.497   2.012   0.624  0.3643 -0.3057  0.3952
 6665SOL     OW26425   1.213   1.268   5.794 -0.0671 -1.0838  0.0713
 6665SOL    HW226426   1.282   1.329   5.818 -0.1695 -1.0735  0.3373
 6665SOL    HW326427   1.146   1.322   5.754 -0.2640 -0.9878  0.5265
 6665SOL    MW426428   1.214   1.283   5.792  0.5531  0.4050 -0.4824
 6666SOL     OW26429   0.867   4.579   1.521  0.0642  0.0658 -0.7615
 6666SOL    HW226430   0.874   4.526   1.600  0.0154  1.5375  0.2720
 6666SOL    HW326431   0.893   4.667   1.548  0.7297  0.4705 -2.5567
 6666SOL    MW426432   0.871   4.584   1.535 -0.1634 -0.6293 -0.4012
 6667SOL     OW26433   2.868   2.599   6.183 -0.1573 -0.6821  0.3975
 6667SOL    HW226434   2.829   2.552   6.109 -2.2421  1.7476 -0.1760
 6667SOL    HW326435   2.844   2.547   6.260 -1.9707 -0.8619 -0.2557
 6667SOL    MW426436   2.860   2.586   6.184  0.0525 -0.0588  0.2733
 6668SOL     OW26437   0.717   2.534   2.698 -0.1291  0.0733 -0.6208
 6668SOL    HW226438   0.627   2.527   2.731 -0.4919 -0.8014 -1.7216
 6668SOL    HW326439   0.753   2.446   2.709 -0.2782 -0.2653 -2.5044
 6668SOL    MW426440   0.710   2.521   2.704 -0.3772  0.1308 -0.9689
 6669SOL     OW26441   3.856   1.561   0.763  0.4438  0.2727 -0.5802
 6669SOL    HW226442   3.802   1.575   0.685 -1.9725 -1.4658  0.6510
 6669SOL    HW326443   3.811   1.610   0.832  0.2025 -1.4778  0.5567
 6669SOL    MW426444   3.843   1.569   0.762 -0.2823  0.4788 -0.2156
 6670SOL     OW26445   1.932   0.113   4.178  0.7895  0.2471 -0.4393
 6670SOL    HW226446   1.996   0.048   4.207  1.6749  0.1167 -2.4812
 6670SOL    HW326447   1.863   0.111   4.244  1.9921 -0.9768  0.8349
 6670SOL    MW426448   1.932   0.104   4.190 -0.4069 -0.1689 -0.1206
 6671SOL     OW26449   4.422   1.272   0.402  0.0099  0.0288 -0.1924
 6671SOL    HW226450   4.463   1.281   0.316 -0.0187  1.4735 -0.0910
 6671SOL    HW326451   4.328   1.276   0.384 -0.0827 -1.9437 -0.2946
 6671SOL    MW426452   4.415   1.274   0.388 -0.0462 -0.4996  0.2554
 6672SOL     OW26453   4.375   5.746   1.753  0.4169  0.3106  0.2932
 6672SOL    HW226454   4.341   5.730   1.665 -0.5946  2.7625  0.1356
 6672SOL    HW326455   4.412   5.834   1.749  1.0724  0.1764  2.1227
 6672SOL    MW426456   4.375   5.756   1.741 -0.3457 -0.6261  0.3511
 6673SOL     OW26457   0.863   2.419   0.221  0.5672 -0.2248  0.6493
 6673SOL    HW226458   0.913   2.477   0.278  0.1364 -1.0743  1.9342
 6673SOL    HW326459   0.832   2.349   0.279 -1.6455 -0.0260 -0.2030
 6673SOL    MW426460   0.866   2.417   0.236 -0.2615 -0.3189  0.5948
 6674SOL     OW26461   3.312   5.099   2.613 -0.2376 -0.8077 -0.9089
 6674SOL    HW226462   3.345   5.150   2.687  0.8186 -2.5010 -0.1624
 6674SOL    HW326463   3.238   5.050   2.649 -0.7952 -0.3754 -1.4386
 6674SOL    MW426464   3.307   5.099   2.627 -0.1497  0.5079  1.1750
 6675SOL     OW26465   2.635   4.433   1.953 -0.0293  0.9603  0.2139
 6675SOL    HW226466   2.718   4.424   2.000 -1.3894 -1.7262  2.3922
 6675SOL    HW326467   2.620   4.347   1.914 -1.8184  1.3369 -0.0311
 6675SOL    MW426468   2.644   4.420   1.954 -0.3792 -0.3026 -0.3116
 6676SOL     OW26469   2.315   3.243   6.065  0.0643  0.1455 -1.0902
 6676SOL    HW226470   2.313   3.293   6.147 -1.4502  0.5264 -1.3266
 6676SOL    HW326471   2.382   3.177   6.078 -0.7523 -0.3542  0.7959
 6676SOL    MW426472   2.323   3.241   6.077 -0.7655  0.4512 -0.1221
 6677SOL     OW26473   3.467   6.011   2.874  0.2598  0.6212 -0.2104
 6677SOL    HW226474   3.405   5.937   2.870  0.2110  0.6774 -0.4843
 6677SOL    HW326475   3.416   6.082   2.913  0.2816  0.5361 -0.0251
 6677SOL    MW426476   3.452   6.010   2.879  0.2379  0.0508 -0.2679
 6678SOL     OW26477   6.452   4.501   3.529 -0.3685  0.7640 -0.1905
 6678SOL    HW226478   6.392   4.476   3.458 -1.1566 -0.2069  0.7808
 6678SOL    HW326479   6.395   4.511   3.606  0.8591 -2.1496  1.2420
 6678SOL    MW426480   6.436   4.499   3.530  0.2494 -0.1024  0.2055
 6679SOL     OW26481   4.460   1.859   0.278 -0.0553  0.0921 -0.4437
 6679SOL    HW226482   4.485   1.776   0.238  1.3926  1.5643 -2.8030
 6679SOL    HW326483   4.543   1.905   0.293 -0.8262  1.1627  0.8026
 6679SOL    MW426484   4.474   1.854   0.275  0.2096 -0.1712  0.3717
 6680SOL     OW26485   2.268   1.965   4.867 -0.0240 -0.6780  0.1132
 6680SOL    HW226486   2.233   1.907   4.798  0.9993 -1.2103  0.0200
 6680SOL    HW326487   2.224   1.936   4.947 -1.0271 -0.2292 -0.2449
 6680SOL    MW426488   2.257   1.953   4.868  0.2382 -0.4785  0.1963
 6681SOL     OW26489   5.455   0.594   2.987 -0.7735 -0.1131 -0.0031
 6681SOL    HW226490   5.513   0.598   3.063 -0.9777  1.9035  0.0931
 6681SOL    HW326491   5.431   0.501   2.981  0.4891 -0.5858  1.4237
 6681SOL    MW426492   5.459   0.582   2.996  0.0155 -0.2135 -0.2350
 6682SOL     OW26493   6.090   3.839   3.148  0.5081  1.0121  0.4444
 6682SOL    HW226494   6.037   3.909   3.188  0.5944  0.9437  0.6799
 6682SOL    HW326495   6.032   3.763   3.149  0.4061  1.0863  0.1681
 6682SOL    MW426496   6.075   3.838   3.154 -0.2589  0.1997 -0.6621
 6683SOL     OW26497   5.025   3.679   2.549  0.6694  0.2762 -0.3547
 6683SOL    HW226498   5.080   3.602   2.561  0.2225 -0.0001 -0.0444
 6683SOL    HW326499   4.936   3.644   2.537  0.0418  0.7750  2.1709
 6683SOL    MW426500   5.020   3.665   2.549 -0.2793 -0.3009 -0.0360
 6684SOL     OW26501   0.840   1.310   2.873 -0.4009 -0.0846  0.0695
 6684SOL    HW226502   0.911   1.324   2.935 -0.6260 -0.5870  0.4436
 6684SOL    HW326503   0.846   1.384   2.812  0.5535 -0.2255 -0.0136
 6684SOL    MW426504   0.850   1.322   2.873  0.2373  0.0031  0.2896
 6685SOL     OW26505   5.544   1.572   0.196  0.6167 -0.5554 -0.5582
 6685SOL    HW226506   5.543   1.668   0.193  1.6035 -0.5139  0.2238
 6685SOL    HW326507   5.622   1.547   0.147  0.7926 -0.9268 -0.0970
 6685SOL    MW426508   5.554   1.581   0.189  0.0648  0.1131 -0.5286
 6686SOL     OW26509   1.754   3.736   6.087  0.1665 -0.2841  0.1712
 6686SOL    HW226510   1.825   3.770   6.032  0.5221  0.6523  1.1630
 6686SOL    HW326511   1.785   3.748   6.177 -1.1702  0.0103  0.6283
 6686SOL    MW426512   1.767   3.742   6.092  0.3982  0.5238 -0.4668
 6687SOL     OW26513   4.855   1.891   2.651 -0.3534 -0.3760 -0.3414
 6687SOL    HW226514   4.837   1.984   2.664 -0.8957 -0.4651 -0.4501
 6687SOL    HW326515   4.949   1.883   2.667 -0.6345 -0.1567  1.7133
 6687SOL    MW426516   4.865   1.902   2.655 -0.1187 -0.2680 -0.1536
 6688SOL     OW26517   3.319   5.628   0.915 -0.8108  0.1939 -0.3410
 6688SOL    HW226518   3.325   5.561   0.983  0.2064  0.5715 -0.0492
 6688SOL    HW326519   3.289   5.580   0.837 -0.9816 -0.4238  0.0973
 6688SOL    MW426520   3.316   5.613   0.914  0.3587 -0.6537  0.0618
 6689SOL     OW26521   2.013   6.245   2.180  0.2899 -0.3710  0.0086
 6689SOL    HW226522   2.082   6.308   2.202 -0.7178  0.5557  0.6150
 6689SOL    HW326523   2.010   6.246   2.084 -0.0182  0.8801  0.0104
 6689SOL    MW426524   2.022   6.253   2.170 -0.4639  0.1362 -0.3104
 6690SOL     OW26525   4.213   6.385   5.485  0.1131 -0.7391  0.6145
 6690SOL    HW226526   4.218   6.480   5.470 -1.5058 -0.4922  1.4584
 6690SOL    HW326527   4.181   6.350   5.402  0.0274 -0.4620  0.5271
 6690SOL    MW426528   4.210   6.393   5.472  0.2076  0.2723 -0.2937
 6691SOL     OW26529   6.238   6.116   3.085 -0.0577 -0.1802  0.5998
 6691SOL    HW226530   6.213   6.203   3.056 -0.6463 -0.9258 -1.2675
 6691SOL    HW326531   6.334   6.114   3.076 -0.2639 -0.8359 -2.9901
 6691SOL    MW426532   6.248   6.127   3.080 -0.2854 -0.2944 -0.1781
 6692SOL     OW26533   5.636   6.066   4.136  0.5441 -0.4182  0.4456
 6692SOL    HW226534   5.669   6.141   4.186 -1.8057  1.0144 -0.0168
 6692SOL    HW326535   5.661   6.085   4.045 -2.4888  1.4300 -0.1506
 6692SOL    MW426536   5.644   6.079   4.130  0.7843  0.4022  0.3170
 6693SOL     OW26537   6.272   5.032   3.091 -0.2729  0.0625  0.2930
 6693SOL    HW226538   6.323   5.031   3.172  0.4160  1.7891 -0.0622
 6693SOL    HW326539   6.336   5.009   3.023 -0.7622 -1.0085  0.1695
 6693SOL    MW426540   6.287   5.029   3.092  0.7981  0.5740  0.0700
 6694SOL     OW26541   4.671   4.979   4.892  0.0675 -0.5640 -0.0204
 6694SOL    HW226542   4.722   4.981   4.973  1.5019  0.5224 -0.9024
 6694SOL    HW326543   4.602   5.045   4.905  1.8523  1.5501 -0.5841
 6694SOL    MW426544   4.668   4.988   4.904  0.0009 -0.1322  0.4703
 6695SOL     OW26545   5.675   2.658   5.080  0.5241  0.8197  0.4223
 6695SOL    HW226546   5.732   2.588   5.049  0.4364  0.4909  0.9821
 6695SOL    HW326547   5.638   2.624   5.162 -0.6437  0.9325 -0.0417
 6695SOL    MW426548   5.677   2.644   5.087  0.2699  0.2825  0.1865
 6696SOL     OW26549   4.332   2.078   2.861  0.3132 -0.5118 -0.4249
 6696SOL    HW226550   4.341   2.126   2.944  0.0606  1.1401 -1.3153
 6696SOL    HW326551   4.283   2.000   2.884 -0.5595  0.3651  0.8395
 6696SOL    MW426552   4.327   2.074   2.875 -0.3961 -0.0737  0.1076
 6697SOL     OW26553   5.491   2.190   1.112  0.1859 -0.5277 -0.2357
 6697SOL    HW226554   5.541   2.115   1.144 -0.5720 -1.7101 -1.6959
 6697SOL    HW326555   5.429   2.209   1.182  1.0600 -0.5860  0.5769
 6697SOL    MW426556   5.489   2.183   1.126  0.7380 -0.0143  0.0761
 6698SOL     OW26557   1.099   2.715   2.433  0.4028 -0.5090  0.1424
 6698SOL    HW226558   1.180   2.725   2.383 -1.1901 -1.3747 -2.8550
 6698SOL    HW326559   1.105   2.628   2.472  1.1742 -0.2746  0.5802
 6698SOL    MW426560   1.111   2.705   2.432 -0.9871  0.1837  0.5767
 6699SOL     OW26561   2.024   6.161   4.743  0.0987 -0.4351  0.0180
 6699SOL    HW226562   1.960   6.091   4.732  0.2603 -0.4625 -0.8112
 6699SOL    HW326563   2.101   6.118   4.781  0.0898 -0.6524 -0.2077
 6699SOL    MW426564   2.026   6.146   4.746 -0.0971  0.3321 -0.3317
 6700SOL     OW26565   1.766   3.536   0.177 -0.7484 -0.3185  0.1017
 6700SOL    HW226566   1.724   3.460   0.215 -1.3808 -0.8068 -1.4898
 6700SOL    HW326567   1.789   3.591   0.252  2.3913 -3.3172  1.6143
 6700SOL    MW426568   1.763   3.533   0.192  0.0347 -0.2588 -0.2886
 6701SOL     OW26569   5.255   1.842   0.266 -0.0855 -0.4650  0.1088
 6701SOL    HW226570   5.187   1.786   0.230 -0.9620  1.1324 -0.8579
 6701SOL    HW326571   5.337   1.799   0.241 -0.6726 -2.5618  1.5319
 6701SOL    MW426572   5.257   1.829   0.258  0.3375 -0.4769 -0.1225
 6702SOL     OW26573   3.892   0.530   3.795  0.1242 -0.7224 -0.1033
 6702SOL    HW226574   3.903   0.478   3.715  0.2288 -0.5509 -0.2007
 6702SOL    HW326575   3.827   0.481   3.846 -0.8107 -0.2439 -0.8030
 6702SOL    MW426576   3.885   0.517   3.791 -0.3878 -0.1567  0.4321
 6703SOL     OW26577   1.435   1.039   6.111 -0.0044  0.0793  0.0145
 6703SOL    HW226578   1.361   1.018   6.054 -0.0675 -0.5560  0.3205
 6703SOL    HW326579   1.509   0.992   6.073  0.0354 -0.0418  0.2365
 6703SOL    MW426580   1.435   1.030   6.098  0.4860 -0.4126 -0.0710
 6704SOL     OW26581   4.000   3.142   4.287 -0.8117 -0.0953 -0.1954
 6704SOL    HW226582   3.996   3.204   4.360  0.3754 -0.6525  0.3768
 6704SOL    HW326583   3.994   3.056   4.329  2.2919 -0.5450 -0.4132
 6704SOL    MW426584   3.999   3.138   4.302  0.0198 -0.3319 -0.1152
 6705SOL     OW26585   3.042   0.783   1.656  0.5446  0.1224  0.1971
 6705SOL    HW226586   2.962   0.822   1.691  0.7748 -0.2805  1.2127
 6705SOL    HW326587   3.013   0.728   1.584 -0.0903 -0.0220  0.5563
 6705SOL    MW426588   3.028   0.781   1.651 -0.5890 -0.2456  0.9084
 6706SOL     OW26589   6.127   2.497   3.282 -0.0428 -0.3906  0.0258
 6706SOL    HW226590   6.069   2.472   3.210  0.6819 -0.0961 -0.6745
 6706SOL    HW326591   6.068   2.520   3.354 -0.7700 -2.9495  0.3489
 6706SOL    MW426592   6.112   2.497   3.282  0.7778  0.0118  0.3828
 6707SOL     OW26593   2.768   1.233   3.302 -0.1720  0.5213  0.0960
 6707SOL    HW226594   2.677   1.215   3.278 -0.1214 -0.4653  0.5559
 6707SOL    HW326595   2.804   1.146   3.324  0.4380  1.0780  1.3983
 6707SOL    MW426596   2.761   1.219   3.302 -0.4913  0.1060  0.0690
 6708SOL     OW26597   0.901   5.671   5.521 -0.3424  0.0944  0.2829
 6708SOL    HW226598   0.829   5.663   5.584 -0.0222  0.6856  0.7333
 6708SOL    HW326599   0.911   5.765   5.508 -0.6910 -0.0201 -1.0028
 6708SOL    MW426600   0.893   5.682   5.528 -0.1784  0.1778  0.2849
 6709SOL     OW26601   5.568   0.961   3.550  0.0591 -0.0584 -0.0039
 6709SOL    HW226602   5.660   0.934   3.559 -0.3938 -1.3484  1.2119
 6709SOL    HW326603   5.546   0.939   3.459  0.7127 -0.5655 -0.0523
 6709SOL    MW426604   5.577   0.954   3.539  0.3100  0.6147  1.1380
 6710SOL     OW26605   3.420   1.083   5.696 -0.1559 -0.1603 -0.4946
 6710SOL    HW226606   3.448   1.020   5.762 -0.7217  0.5643  0.4613
 6710SOL    HW326607   3.435   1.039   5.613  0.5876 -1.0888  0.1078
 6710SOL    MW426608   3.426   1.069   5.694 -0.6838 -0.2380 -0.4005
 6711SOL     OW26609   6.095   0.814   3.999  0.3139  0.7577 -0.4858
 6711SOL    HW226610   6.179   0.767   4.007 -0.0644  0.0585 -0.5292
 6711SOL    HW326611   6.109   0.877   3.928  1.0404  1.1808  0.0186
 6711SOL    MW426612   6.108   0.816   3.991 -0.7147 -0.3560  0.3487
 6712SOL     OW26613   1.010   4.519   3.331  0.5020 -0.4968 -0.7295
 6712SOL    HW226614   1.010   4.594   3.272  1.4878 -0.0215 -0.1494
 6712SOL    HW326615   1.050   4.552   3.412  0.8008 -1.5935 -0.4109
 6712SOL    MW426616   1.016   4.533   3.334  0.0075 -0.0727 -0.8712
 6713SOL     OW26617   6.454   2.479   0.184 -0.1808  0.2921 -0.0966
 6713SOL    HW226618   6.537   2.491   0.231 -0.1483 -0.4863  0.0568
 6713SOL    HW326619   6.389   2.524   0.238  0.0053  0.1654  0.2399
 6713SOL    MW426620   6.457   2.486   0.198 -0.0506 -0.4064 -0.6774
 6714SOL     OW26621   5.222   6.161   0.954 -0.4074 -0.0207  0.1252
 6714SOL    HW226622   5.141   6.161   1.006 -0.7788  1.6155 -0.3616
 6714SOL    HW326623   5.292   6.170   1.019 -0.6341 -1.0929  0.5307
 6714SOL    MW426624   5.220   6.162   0.970  1.0214 -0.1805 -0.0833
 6715SOL     OW26625   3.412   1.143   2.079 -0.6760  0.4891 -0.2117
 6715SOL    HW226626   3.450   1.207   2.017 -0.0753 -0.6868 -1.0984
 6715SOL    HW326627   3.487   1.094   2.111 -1.0071  0.9678  1.3680
 6715SOL    MW426628   3.427   1.145   2.075 -0.5208 -0.1529  0.0699
 6716SOL     OW26629   1.405   6.059   4.131 -0.3117  0.4245  0.6580
 6716SOL    HW226630   1.456   6.048   4.211  2.1048  0.2558 -0.8001
 6716SOL    HW326631   1.422   6.149   4.103 -1.2508  0.5338  0.3912
 6716SOL    MW426632   1.414   6.069   4.138 -0.2203  0.4795  0.1796
 6717SOL     OW26633   3.528   3.184   2.799 -0.5077  0.3279  0.5225
 6717SOL    HW226634   3.513   3.273   2.767  0.1776  0.9754  1.9495
 6717SOL    HW326635   3.496   3.185   2.889 -1.2518 -1.1143  0.2976
 6717SOL    MW426636   3.522   3.196   2.806  0.2087 -0.3954  0.2436
 6718SOL     OW26637   5.819   5.693   6.017 -0.2920 -0.2483  0.3732
 6718SOL    HW226638   5.752   5.631   5.988 -1.3639  0.8521  0.4020
 6718SOL    HW326639   5.804   5.702   6.111 -0.2480  0.1736  0.3411
 6718SOL    MW426640   5.808   5.686   6.025  0.4453  0.4295 -0.6268
 6719SOL     OW26641   1.409   4.340   1.050  0.5032  0.4348 -0.0301
 6719SOL    HW226642   1.427   4.256   1.092  0.2453  1.0660  1.4198
 6719SOL    HW326643   1.460   4.403   1.100  0.6247  1.1575 -1.0447
 6719SOL    MW426644   1.418   4.337   1.062  0.2959 -0.4277 -0.5067
 6720SOL     OW26645   5.111   1.615   4.844 -0.1122 -0.6643 -0.0892
 6720SOL    HW226646   5.071   1.673   4.780  1.9993  0.7324 -0.2414
 6720SOL    HW326647   5.195   1.590   4.805  0.1251 -1.7940  1.0756
 6720SOL    MW426648   5.117   1.619   4.831 -0.3146 -0.1982  0.2041
 6721SOL     OW26649   1.615   5.588   3.535  0.6448 -0.5780 -0.1045
 6721SOL    HW226650   1.600   5.569   3.628 -0.0730 -3.4298 -0.7204
 6721SOL    HW326651   1.695   5.641   3.535 -0.6264  1.6373  2.2368
 6721SOL    MW426652   1.623   5.593   3.548 -0.0746 -0.6831 -0.0373
 6722SOL     OW26653   5.503   3.291   0.870 -0.7404 -0.3334  0.1436
 6722SOL    HW226654   5.475   3.233   0.798  0.3426  0.8588 -1.3156
 6722SOL    HW326655   5.427   3.296   0.927 -1.5530 -1.5725 -0.7576
 6722SOL    MW426656   5.490   3.284   0.868  0.8084  0.0285  0.3781
 6723SOL     OW26657   5.244   1.696   3.664 -0.7467  0.3596 -0.0243
 6723SOL    HW226658   5.266   1.630   3.728  0.8015  0.1303 -0.7469
 6723SOL    HW326659   5.152   1.679   3.642 -1.2003  0.2528  1.8521
 6723SOL    MW426660   5.235   1.685   3.669 -0.1493 -0.3712 -0.0158
 6724SOL     OW26661   2.644   5.047   4.639  0.6561 -0.7268 -0.1121
 6724SOL    HW226662   2.723   5.052   4.586  0.5624  0.1116 -0.1908
 6724SOL    HW326663   2.631   5.136   4.672 -1.5011 -0.2803 -1.9491
 6724SOL    MW426664   2.652   5.060   4.637 -0.3662 -0.2626 -0.0250
 6725SOL     OW26665   6.428   1.833   2.982  0.0293  0.0193 -0.4862
 6725SOL    HW226666   6.494   1.888   3.025  1.2644 -0.0987 -2.1382
 6725SOL    HW326667   6.410   1.764   3.046  0.4833  0.8216  0.5382
 6725SOL    MW426668   6.435   1.831   2.996  0.1663  0.2855 -0.0986
 6726SOL     OW26669   0.449   4.157   1.577 -0.1977 -0.1296  0.3679
 6726SOL    HW226670   0.390   4.082   1.590 -1.6355  0.8708 -0.0513
 6726SOL    HW326671   0.478   4.180   1.665 -1.2430 -0.0436  0.7119
 6726SOL    MW426672   0.445   4.150   1.590  0.1863  0.3971  0.5044
 6727SOL     OW26673   2.384   2.741   1.773 -0.1672  0.2876  0.6289
 6727SOL    HW226674   2.342   2.810   1.824 -1.4932 -0.8524  1.1287
 6727SOL    HW326675   2.316   2.710   1.713  0.5920 -0.1799 -0.0099
 6727SOL    MW426676   2.370   2.746   1.771 -0.9328 -0.7455 -0.1554
 6728SOL     OW26677   6.266   5.562   1.801 -0.3122  0.2845  0.2318
 6728SOL    HW226678   6.188   5.543   1.748 -0.4121  0.6432  0.2471
 6728SOL    HW326679   6.242   5.537   1.890 -0.4054  0.3797  0.2333
 6728SOL    MW426680   6.253   5.556   1.806 -0.3873  0.3561  0.2830
 6729SOL     OW26681   5.218   0.078   4.051 -0.0611  0.1617 -0.6922
 6729SOL    HW226682   5.188   0.130   3.977  0.1235  2.1521  0.5477
 6729SOL    HW326683   5.155   0.097   4.121  0.9471  0.0332  0.2948
 6729SOL    MW426684   5.206   0.088   4.051  0.4032  0.3244  0.2462
 6730SOL     OW26685   3.694   2.237   3.007 -0.6120  0.3816  0.0564
 6730SOL    HW226686   3.623   2.264   3.066  0.4672  0.6468  1.2845
 6730SOL    HW326687   3.729   2.157   3.046  0.8685  1.1827  0.4614
 6730SOL    MW426688   3.689   2.230   3.020 -0.8972  0.3068  0.2544
 6731SOL     OW26689   5.264   4.445   5.680  0.6395 -0.4575  0.5748
 6731SOL    HW226690   5.258   4.352   5.657  0.1121 -0.5083  0.9054
 6731SOL    HW326691   5.175   4.470   5.705  0.6414  0.2992 -0.1142
 6731SOL    MW426692   5.251   4.436   5.680 -0.1429 -0.7207  0.4327
 6732SOL     OW26693   2.122   3.177   2.283  0.2008  0.2036  0.2087
 6732SOL    HW226694   2.083   3.233   2.216 -1.5726 -0.1058  0.9428
 6732SOL    HW326695   2.199   3.139   2.240  0.7992  2.2444 -0.6884
 6732SOL    MW426696   2.127   3.180   2.268 -0.3781 -0.2911 -0.3010
 6733SOL     OW26697   1.099   2.385   0.023 -0.1272 -0.0466  0.1477
 6733SOL    HW226698   1.142   2.309   0.063  0.6755  0.2982 -0.0540
 6733SOL    HW326699   1.008   2.378   0.052  0.2777 -0.1928  1.4953
 6733SOL    MW426700   1.093   2.374   0.032  0.9867  0.3487  0.3572
 6734SOL     OW26701   0.447   5.548   2.289  0.2131  0.8992  0.5099
 6734SOL    HW226702   0.497   5.515   2.215 -0.1494 -0.4812  0.8549
 6734SOL    HW326703   0.495   5.626   2.318  1.0827  0.6985 -0.3443
 6734SOL    MW426704   0.460   5.554   2.283 -0.2904  0.4222  0.5994
 6735SOL     OW26705   1.496   2.397   2.452  0.3901 -0.3735  0.2001
 6735SOL    HW226706   1.571   2.423   2.399  1.0410 -1.0359  0.7726
 6735SOL    HW326707   1.425   2.387   2.388  0.9542 -0.3934 -0.4439
 6735SOL    MW426708   1.496   2.399   2.436 -0.3643 -0.0957 -0.1056
 6736SOL     OW26709   1.351   4.566   5.511  0.2739  0.6359  0.0656
 6736SOL    HW226710   1.256   4.574   5.514  0.0764 -0.4023 -1.9159
 6736SOL    HW326711   1.382   4.655   5.493 -0.4092  0.7756 -0.4548
 6736SOL    MW426712   1.343   4.579   5.509 -0.3336 -0.6441 -0.0781
 6737SOL     OW26713   2.871   5.616   0.953 -0.1452 -0.0229 -0.3359
 6737SOL    HW226714   2.905   5.685   0.897  0.9861  1.1106  1.6388
 6737SOL    HW326715   2.777   5.637   0.962 -0.8504 -1.4146 -3.3386
 6737SOL    MW426716   2.863   5.628   0.947 -0.1765 -0.0008  0.7666
 6738SOL     OW26717   2.430   0.297   3.387  0.0407 -1.0774 -0.1567
 6738SOL    HW226718   2.439   0.212   3.430  2.8678 -1.2878 -0.9481
 6738SOL    HW326719   2.404   0.277   3.297 -1.2344 -0.9391  0.1640
 6738SOL    MW426720   2.428   0.283   3.381  0.3877 -0.2397 -0.0947
 6739SOL     OW26721   1.111   4.803   5.019  0.0348 -0.3012 -0.1547
 6739SOL    HW226722   1.187   4.751   5.043 -0.3666 -0.8489 -0.0471
 6739SOL    HW326723   1.060   4.810   5.100 -0.4348 -0.6436 -0.4143
 6739SOL    MW426724   1.114   4.797   5.033 -0.3742 -0.1572  0.5013
 6740SOL     OW26725   0.191   5.782   0.024  0.4468 -0.6976  0.5852
 6740SOL    HW226726   0.276   5.768  -0.016 -0.1566 -1.6788 -0.4247
 6740SOL    HW326727   0.189   5.719   0.097  0.6028 -0.6418  0.6380
 6740SOL    MW426728   0.202   5.772   0.029  0.0836 -0.1773 -0.2379
 6741SOL     OW26729   2.589   4.238   5.397  0.5044 -0.2488 -0.3400
 6741SOL    HW226730   2.585   4.142   5.392  0.6391 -0.2174 -1.6037
 6741SOL    HW326731   2.680   4.260   5.380  0.5091  0.1030  0.1159
 6741SOL    MW426732   2.600   4.228   5.394 -0.1510 -0.1937 -0.6845
 6742SOL     OW26733   5.337   1.773   2.726 -0.0923 -0.8629  0.2861
 6742SOL    HW226734   5.370   1.683   2.727  0.7922 -0.5690 -0.8548
 6742SOL    HW326735   5.378   1.813   2.650 -2.1360 -0.1059 -0.4763
 6742SOL    MW426736   5.347   1.767   2.716  0.4061 -0.4086 -0.3406
 6743SOL     OW26737   3.104   5.734   5.234  0.4330  0.0694 -0.0134
 6743SOL    HW226738   3.051   5.764   5.161  0.0144  0.4061  0.4240
 6743SOL    HW326739   3.174   5.800   5.241 -0.0312  0.5178  0.4443
 6743SOL    MW426740   3.106   5.747   5.225 -0.3386  0.0041 -0.3321
 6744SOL     OW26741   0.502   4.908   2.221  0.0797 -0.4042 -0.2043
 6744SOL    HW226742   0.537   4.990   2.256  1.8660 -0.6437 -1.2963
 6744SOL    HW326743   0.560   4.841   2.256  0.6873 -0.8380 -1.9595
 6744SOL    MW426744   0.514   4.910   2.231  0.1662 -0.2778 -0.0791
 6745SOL     OW26745   1.376   5.742   1.924  0.2638 -0.0251 -0.0699
 6745SOL    HW226746   1.297   5.745   1.869 -0.4985 -3.9008  0.5483
 6745SOL    HW326747   1.372   5.824   1.975 -2.0574  1.0048 -1.7115
 6745SOL    MW426748   1.365   5.753   1.924 -0.1466  0.3673 -0.5418
 6746SOL     OW26749   1.279   0.761   0.264 -0.0243  0.1003 -0.2462
 6746SOL    HW226750   1.229   0.686   0.295  1.3164 -1.5507 -1.8478
 6746SOL    HW326751   1.221   0.804   0.201 -1.6960  1.8851  2.3095
 6746SOL    MW426752   1.265   0.757   0.260 -0.3786  0.7580  0.1142
 6747SOL     OW26753   4.979   3.895   5.299  0.0788  0.2914  0.4018
 6747SOL    HW226754   5.056   3.840   5.308 -0.0672 -0.1826 -1.0980
 6747SOL    HW326755   4.935   3.888   5.384 -0.8458 -3.2920 -0.2245
 6747SOL    MW426756   4.983   3.887   5.312  0.4123 -0.0982  0.1724
 6748SOL     OW26757   3.888   1.258   3.482 -0.0014  0.0023 -0.4954
 6748SOL    HW226758   3.931   1.178   3.512  0.8205  0.6527  0.0801
 6748SOL    HW326759   3.847   1.232   3.399 -0.0364 -1.1025 -0.1523
 6748SOL    MW426760   3.888   1.244   3.475 -0.1397  0.1942 -0.2550
 6749SOL     OW26761   0.868   5.108   5.207  0.1001  0.5098 -0.3913
 6749SOL    HW226762   0.807   5.174   5.241  0.8056  0.9409  0.0680
 6749SOL    HW326763   0.910   5.150   5.132  0.3798  0.4963 -0.2435
 6749SOL    MW426764   0.866   5.122   5.202  0.4466  0.5942 -0.5051
 6750SOL     OW26765   2.716   4.303   2.976 -0.0475  0.7363 -0.0112
 6750SOL    HW226766   2.638   4.251   2.998 -1.1118  1.1916 -2.3938
 6750SOL    HW326767   2.783   4.272   3.036 -1.3045 -1.6900  0.2638
 6750SOL    MW426768   2.714   4.292   2.987 -0.8731  0.1763 -0.0297
 6751SOL     OW26769   1.180   0.278   1.657  0.7648  0.0683 -0.0269
 6751SOL    HW226770   1.094   0.253   1.623  0.9215 -0.0846 -0.3175
 6751SOL    HW326771   1.214   0.198   1.696  0.1536  0.4956  1.4365
 6751SOL    MW426772   1.173   0.264   1.658 -0.0299  0.1097 -0.7630
 6752SOL     OW26773   4.032   4.960   0.987  0.7331 -0.4320  0.0532
 6752SOL    HW226774   3.955   5.017   0.980  0.6518 -0.5121  0.2720
 6752SOL    HW326775   4.067   4.978   1.074  1.1550 -0.1572 -0.1673
 6752SOL    MW426776   4.027   4.970   0.998  0.1205  0.1689  0.1448
 6753SOL     OW26777   3.139   5.765   0.513  0.4521 -0.4779 -0.1374
 6753SOL    HW226778   3.227   5.763   0.475  0.6805  1.8812  0.0809
 6753SOL    HW326779   3.081   5.785   0.440  0.3083 -0.5131 -0.0325
 6753SOL    MW426780   3.143   5.767   0.499 -0.0008  0.7003 -0.5837
 6754SOL     OW26781   0.390   6.347   2.504  0.3473  0.4569  0.2237
 6754SOL    HW226782   0.428   6.434   2.489 -0.5629  0.5173 -2.1815
 6754SOL    HW326783   0.394   6.335   2.599 -0.1420  3.4054  0.7074
 6754SOL    MW426784   0.396   6.357   2.514  0.0629  0.4456  0.0825
 6755SOL     OW26785   6.038   2.391   4.634  0.1716 -0.3674  0.4712
 6755SOL    HW226786   6.122   2.358   4.600  0.0797  1.7608 -2.2103
 6755SOL    HW326787   6.055   2.407   4.727  2.4706 -0.7869  0.1974
 6755SOL    MW426788   6.052   2.389   4.642 -0.3388  0.4916  0.2814
 6756SOL     OW26789   1.100   2.602   4.995 -0.0077 -0.6427 -0.0248
 6756SOL    HW226790   1.098   2.571   4.905  1.4716  0.2658 -0.4057
 6756SOL    HW326791   1.104   2.697   4.988  0.2094 -0.5619  0.9889
 6756SOL    MW426792   1.100   2.610   4.983  0.0895  0.4899  0.1022
 6757SOL     OW26793   1.598   2.963   3.814  0.3204  0.1922 -0.3872
 6757SOL    HW226794   1.587   3.023   3.740 -1.3082 -0.8567 -1.0765
 6757SOL    HW326795   1.525   2.901   3.804  1.6141 -1.5718  0.5828
 6757SOL    MW426796   1.587   2.963   3.803 -0.2936 -0.4195  0.0513
 6758SOL     OW26797   6.202   4.979   3.653  0.3692 -0.2903  0.1060
 6758SOL    HW226798   6.273   4.987   3.591 -0.0847 -0.5064 -0.4486
 6758SOL    HW326799   6.123   4.974   3.599  0.0711 -1.8614  0.6402
 6758SOL    MW426800   6.201   4.980   3.638 -0.1165  0.0746 -0.4887
 6759SOL     OW26801   0.504   1.818   3.218  0.3501  0.0085 -0.5198
 6759SOL    HW226802   0.441   1.746   3.206  0.7552 -0.7123  1.3819
 6759SOL    HW326803   0.457   1.882   3.272  0.4750  0.5793 -1.0617
 6759SOL    MW426804   0.489   1.817   3.223 -0.3185  0.4282  0.4319
 6760SOL     OW26805   2.365   3.570   3.238  0.1968 -0.1032 -0.2837
 6760SOL    HW226806   2.304   3.509   3.197  0.2457  0.1346 -0.7136
 6760SOL    HW326807   2.311   3.618   3.301  0.3865 -1.3496  0.8796
 6760SOL    MW426808   2.350   3.568   3.241  0.0883 -0.4045 -0.3703
 6761SOL     OW26809   2.017   2.201   0.689 -0.3577 -0.2638  0.3497
 6761SOL    HW226810   2.019   2.260   0.764 -0.0865  1.4756 -0.9550
 6761SOL    HW326811   2.081   2.133   0.710  0.7635  0.9621  1.1234
 6761SOL    MW426812   2.026   2.200   0.702 -0.2185 -0.0366  0.4339
 6762SOL     OW26813   2.967   5.857   3.209 -0.2897  1.0348  0.2914
 6762SOL    HW226814   2.967   5.902   3.293 -0.5537 -1.5219  1.7427
 6762SOL    HW326815   2.875   5.859   3.180 -0.2735  1.5266  0.2712
 6762SOL    MW426816   2.955   5.863   3.216  0.9344 -0.5857  0.4709
 6763SOL     OW26817   5.104   5.007   6.240  0.2467 -0.1931 -0.0683
 6763SOL    HW226818   5.173   4.948   6.210 -0.8985 -2.4747  1.4536
 6763SOL    HW326819   5.023   4.957   6.227 -1.3496  2.7255 -2.6787
 6763SOL    MW426820   5.102   4.993   6.235 -0.2494  0.1848 -0.4250
 6764SOL     OW26821   6.198   0.354   4.529  0.0629  0.7307  0.0759
 6764SOL    HW226822   6.211   0.259   4.531  0.7681  0.7286 -1.9282
 6764SOL    HW326823   6.112   0.368   4.569 -0.7729 -0.9360 -1.0332
 6764SOL    MW426824   6.188   0.343   4.534 -0.1276  0.1358 -0.9648
 6765SOL     OW26825   3.433   2.609   6.240 -0.0926 -0.0083 -0.4710
 6765SOL    HW226826   3.354   2.640   6.196 -0.3174 -1.4665 -1.1384
 6765SOL    HW326827   3.422   2.636   6.331 -1.3852 -0.2270 -0.5430
 6765SOL    MW426828   3.421   2.617   6.246  0.2428 -0.3444  0.2732
 6766SOL     OW26829   3.444   0.272   4.165 -0.2262 -0.0716  0.3694
 6766SOL    HW226830   3.369   0.231   4.121  0.9751 -2.1158  0.0650
 6766SOL    HW326831   3.488   0.199   4.209  2.7304  0.6580 -1.1619
 6766SOL    MW426832   3.440   0.257   4.165  0.1904  0.8946 -0.3989
 6767SOL     OW26833   4.166   4.850   3.033 -0.0113 -0.2757  0.2928
 6767SOL    HW226834   4.081   4.893   3.041  0.0615 -0.1784  0.5592
 6767SOL    HW326835   4.145   4.757   3.025 -0.2561 -0.0969 -1.9281
 6767SOL    MW426836   4.152   4.843   3.033  0.4719  0.4684  0.7705
 6768SOL     OW26837   0.824   1.970   3.394 -0.0915 -0.1437 -0.0077
 6768SOL    HW226838   0.837   1.949   3.302 -0.0421 -0.1370 -0.0027
 6768SOL    HW326839   0.861   1.895   3.441  1.4468  0.5959  0.0413
 6768SOL    MW426840   0.831   1.958   3.388 -0.5382 -0.6319  0.0156
 6769SOL     OW26841   5.223   2.956   5.154 -0.0742 -0.0013 -0.1851
 6769SOL    HW226842   5.210   3.051   5.154 -1.8256 -0.2001  0.4845
 6769SOL    HW326843   5.257   2.936   5.067  0.4993  1.2583 -0.2629
 6769SOL    MW426844   5.226   2.966   5.143  0.1936 -0.1907  0.2199
 6770SOL     OW26845   6.287   4.377   0.223 -0.1262 -0.0866  0.2127
 6770SOL    HW226846   6.316   4.452   0.275 -0.9010  0.1936  0.2558
 6770SOL    HW326847   6.366   4.326   0.207  0.1085 -0.2160  1.7147
 6770SOL    MW426848   6.301   4.380   0.228  0.1328  0.6059  0.3318
 6771SOL     OW26849   4.644   3.119   4.986  0.0438  0.4173  0.0004
 6771SOL    HW226850   4.566   3.156   4.945 -0.8649 -1.7445 -0.3829
 6771SOL    HW326851   4.713   3.129   4.920 -0.7395 -0.5609 -1.0095
 6771SOL    MW426852   4.643   3.125   4.972  0.0310 -0.2155 -0.1805
 6772SOL     OW26853   5.456   1.490   1.044 -0.1511  0.5855 -0.2678
 6772SOL    HW226854   5.424   1.408   1.005 -1.4217  0.8100  0.2479
 6772SOL    HW326855   5.458   1.552   0.972 -0.2713  0.3962 -0.4355
 6772SOL    MW426856   5.452   1.487   1.030 -0.1078 -0.0781  0.5561
 6773SOL     OW26857   5.752   2.769   1.348 -0.0149  0.0493  0.0783
 6773SOL    HW226858   5.813   2.756   1.421  0.8711 -1.6353 -0.8809
 6773SOL    HW326859   5.808   2.764   1.270 -1.4525 -2.3329 -0.8804
 6773SOL    MW426860   5.768   2.767   1.347  0.2458  0.1242  0.5929
 6774SOL     OW26861   1.801   6.217   0.781  0.1497 -0.1616 -0.0704
 6774SOL    HW226862   1.819   6.309   0.765 -0.3003 -0.0209  0.2027
 6774SOL    HW326863   1.709   6.206   0.757  0.9562 -1.2578 -3.1470
 6774SOL    MW426864   1.791   6.227   0.776 -0.3283  0.0310 -0.4241
 6775SOL     OW26865   3.062   0.462   4.395 -0.0784  0.2265 -0.2600
 6775SOL    HW226866   2.984   0.420   4.359 -0.9431  0.2899  1.4362
 6775SOL    HW326867   3.031   0.546   4.429  1.0146  0.8630 -0.7556
 6775SOL    MW426868   3.048   0.467   4.395 -0.2875  0.6997 -0.3057
 6776SOL     OW26869   0.745   6.347   4.888 -0.0345  0.0246  0.3215
 6776SOL    HW226870   0.751   6.442   4.899 -0.7361  0.0770  0.3007
 6776SOL    HW326871   0.741   6.334   4.793  0.9770 -0.0915  0.2874
 6776SOL    MW426872   0.745   6.358   4.877  1.0796  0.3987  0.2551
 6777SOL     OW26873   2.365   3.126   4.544 -0.0971  0.3234  0.1776
 6777SOL    HW226874   2.458   3.146   4.531 -0.0716  0.1738  0.1229
 6777SOL    HW326875   2.349   3.149   4.636 -0.1908  1.0439 -0.0146
 6777SOL    MW426876   2.375   3.131   4.555  0.7718  0.2330 -0.5675
 6778SOL     OW26877   3.599   0.787   1.084 -0.0319 -0.3564 -0.3103
 6778SOL    HW226878   3.564   0.830   1.006 -1.0786  0.5790  0.6330
 6778SOL    HW326879   3.547   0.708   1.093 -0.0001 -0.3978 -0.4879
 6778SOL    MW426880   3.587   0.782   1.075 -0.1993  0.2547  0.5453
 6779SOL     OW26881   4.360   4.227   0.787  0.1048 -0.0166 -0.0736
 6779SOL    HW226882   4.360   4.157   0.853 -0.0123  1.7117  1.8943
 6779SOL    HW326883   4.281   4.212   0.736 -0.5303 -0.6975  1.0600
 6779SOL    MW426884   4.349   4.216   0.789  0.1247  0.9282  0.0505
 6780SOL     OW26885   2.584   0.822   3.212  0.3862  0.2256  0.4270
 6780SOL    HW226886   2.544   0.901   3.246  1.8411  0.2749  2.1315
 6780SOL    HW326887   2.639   0.852   3.139  0.4859  0.6910  0.6962
 6780SOL    MW426888   2.586   0.836   3.207  0.2683 -0.4719  0.2154
 6781SOL     OW26889   4.214   4.101   5.950  0.6564  0.0996 -0.1040
 6781SOL    HW226890   4.246   4.015   5.978  1.7523  0.5310 -0.0198
 6781SOL    HW326891   4.148   4.081   5.883  1.0033 -0.7973 -0.1882
 6781SOL    MW426892   4.209   4.087   5.945  0.3440 -0.4912  0.3822
 6782SOL     OW26893   5.965   1.967   0.215  1.1693 -0.0241  0.0416
 6782SOL    HW226894   5.937   2.036   0.275 -0.9594  0.2563 -1.1694
 6782SOL    HW326895   6.009   1.903   0.271 -1.3304 -0.1294  2.0601
 6782SOL    MW426896   5.967   1.968   0.230 -0.1231  0.7735 -0.0639
 6783SOL     OW26897   1.086   2.090   3.102  0.2537  0.5809 -0.4708
 6783SOL    HW226898   1.021   2.023   3.126  0.3595  0.9298  0.8160
 6783SOL    HW326899   1.126   2.056   3.022 -2.1754  0.8047 -1.8744
 6783SOL    MW426900   1.083   2.076   3.094  0.1671  0.2997  0.0331
 6784SOL     OW26901   3.526   0.636   0.119 -0.4723  0.2598  0.4650
 6784SOL    HW226902   3.526   0.705   0.185 -1.0201  1.4473 -0.7508
 6784SOL    HW326903   3.596   0.660   0.059 -0.2516 -0.5892  0.3731
 6784SOL    MW426904   3.535   0.648   0.120 -0.1435 -0.4446  0.1926
 6785SOL     OW26905   0.533   6.289   0.294  0.1421  0.4431  0.0730
 6785SOL    HW226906   0.515   6.225   0.226 -1.2886  1.1762 -0.2725
 6785SOL    HW326907   0.619   6.265   0.328  0.8949  0.0535 -1.9756
 6785SOL    MW426908   0.542   6.278   0.290 -0.1768  0.5420 -0.3288
 6786SOL     OW26909   3.522   1.080   4.139 -0.5033 -0.4721 -0.4205
 6786SOL    HW226910   3.584   1.034   4.082 -1.6170 -2.4942 -0.0989
 6786SOL    HW326911   3.489   1.151   4.084 -0.0940 -1.1710 -1.6351
 6786SOL    MW426912   3.526   1.083   4.124 -0.4880  0.4655 -0.3183
 6787SOL     OW26913   5.911   2.729   3.939 -0.0583  0.8763  0.5149
 6787SOL    HW226914   5.853   2.756   4.010 -1.2582  1.8136 -0.7501
 6787SOL    HW326915   5.930   2.810   3.892 -0.3374  0.1108 -0.9768
 6787SOL    MW426916   5.906   2.743   3.942 -0.2546  0.7548  0.0543
 6788SOL     OW26917   3.476   0.478   2.459  0.0402 -0.0998 -0.1505
 6788SOL    HW226918   3.449   0.557   2.506 -2.3662 -1.8345  1.6681
 6788SOL    HW326919   3.565   0.461   2.490  0.6493  1.8604 -0.6456
 6788SOL    MW426920   3.484   0.486   2.470  0.2786 -0.1067 -0.5309
 6789SOL     OW26921   0.315   3.449   3.542  0.1862  0.1363  0.2342
 6789SOL    HW226922   0.374   3.525   3.546  1.5714 -0.4724 -3.7091
 6789SOL    HW326923   0.242   3.479   3.487  0.6282 -1.2013 -1.1556
 6789SOL    MW426924   0.314   3.463   3.535  0.6694 -0.6309 -0.0765
 6790SOL     OW26925   3.884   5.806   0.574 -0.1845 -0.1326 -1.1337
 6790SOL    HW226926   3.792   5.828   0.585 -0.2502 -0.2274 -1.4562
 6790SOL    HW326927   3.911   5.768   0.658  0.1220  1.7921 -0.3146
 6790SOL    MW426928   3.875   5.804   0.586 -0.0945 -0.1270  0.0217
 6791SOL     OW26929   5.336   5.724   5.872  0.0041  0.7306 -0.1085
 6791SOL    HW226930   5.383   5.756   5.948  0.9012  1.0025 -0.7552
 6791SOL    HW326931   5.392   5.656   5.835 -0.0933  1.0663 -0.9019
 6791SOL    MW426932   5.349   5.719   5.877 -0.1370 -0.0158 -0.0075
 6792SOL     OW26933   2.325   0.704   3.145 -0.1934 -0.4010 -0.4678
 6792SOL    HW226934   2.288   0.658   3.221 -2.6440  1.1601 -0.6193
 6792SOL    HW326935   2.413   0.728   3.173  0.0931 -2.5133  0.7067
 6792SOL    MW426936   2.332   0.701   3.159  0.5319  0.0196 -0.4288
 6793SOL     OW26937   4.598   0.470   3.765 -0.1023  0.0196  0.1312
 6793SOL    HW226938   4.640   0.405   3.708  0.2536 -0.1788  0.6071
 6793SOL    HW326939   4.634   0.554   3.737  2.6891 -0.3403  2.1976
 6793SOL    MW426940   4.608   0.472   3.754  0.0991 -0.1819  0.0588
 6794SOL     OW26941   0.371   0.824   2.919  0.3428 -1.0940  0.4682
 6794SOL    HW226942   0.402   0.770   2.846 -1.5611 -1.5836 -0.0401
 6794SOL    HW326943   0.341   0.905   2.878 -1.5404 -1.7120  0.5542
 6794SOL    MW426944   0.371   0.827   2.904  0.3322  0.6087  0.3989
 6795SOL     OW26945   6.173   1.121   1.157  0.4132  0.1329 -0.1273
 6795SOL    HW226946   6.111   1.081   1.219  0.6426 -2.1631 -1.3109
 6795SOL    HW326947   6.134   1.105   1.071  1.9232 -0.0060 -0.8004
 6795SOL    MW426948   6.159   1.114   1.154 -0.2063  0.0680  0.3827
 6796SOL     OW26949   2.732   3.510   1.671 -0.3623  0.6314 -0.8313
 6796SOL    HW226950   2.674   3.468   1.735  1.3979 -2.0983 -0.8614
 6796SOL    HW326951   2.702   3.477   1.586 -0.5254  1.4702 -1.1036
 6796SOL    MW426952   2.720   3.500   1.668  0.3394 -0.2301 -0.7828
 6797SOL     OW26953   2.040   0.885   5.901 -0.1803  0.0162 -0.3501
 6797SOL    HW226954   1.961   0.912   5.949 -0.3944  0.7115 -1.0833
 6797SOL    HW326955   2.112   0.922   5.951 -0.3996  0.6849 -0.5180
 6797SOL    MW426956   2.039   0.893   5.914  0.3344  0.0491  0.1352
 6798SOL     OW26957   2.684   6.010   3.502 -0.2252 -0.5205  0.3891
 6798SOL    HW226958   2.665   6.048   3.588  0.4920  1.7712 -0.4155
 6798SOL    HW326959   2.641   5.924   3.505 -0.7344 -0.2645  2.7998
 6798SOL    MW426960   2.676   6.004   3.514  0.0647  0.0989  0.5113
 6799SOL     OW26961   1.054   5.559   2.330  0.1685 -0.1766 -0.3510
 6799SOL    HW226962   0.985   5.556   2.264  0.3155 -0.1660 -0.5062
 6799SOL    HW326963   1.081   5.650   2.332  1.7562 -0.5521 -1.9412
 6799SOL    MW426964   1.049   5.570   2.321 -0.3116 -0.3099  0.3185
 6800SOL     OW26965   2.412   2.397   2.009 -0.0672  0.0212  0.0645
 6800SOL    HW226966   2.448   2.486   2.012 -0.1411  0.0296  0.6949
 6800SOL    HW326967   2.360   2.396   1.928 -3.2053  1.7891  1.8579
 6800SOL    MW426968   2.410   2.409   1.999  0.0761  0.2595  0.0139
 6801SOL     OW26969   5.256   5.292   1.331  0.6302 -0.1165 -0.1868
 6801SOL    HW226970   5.207   5.310   1.411 -1.7086 -0.2646 -1.5103
 6801SOL    HW326971   5.341   5.262   1.362 -0.2804 -0.4322  2.2471
 6801SOL    MW426972   5.261   5.291   1.345 -0.3256 -0.6215  0.0148
 6802SOL     OW26973   6.320   5.245   3.348 -0.0271 -0.0954  0.0470
 6802SOL    HW226974   6.292   5.282   3.264 -0.6471 -2.0531 -0.6631
 6802SOL    HW326975   6.327   5.321   3.407 -1.1726  1.1286 -1.3226
 6802SOL    MW426976   6.317   5.260   3.345 -0.0353  0.0343  0.0763
 6803SOL     OW26977   5.837   6.028   5.607  0.6984  0.1854  0.3649
 6803SOL    HW226978   5.840   6.003   5.699 -0.6712  0.8995  0.6218
 6803SOL    HW326979   5.803   6.117   5.607  1.8956  0.6649 -0.7676
 6803SOL    MW426980   5.833   6.036   5.619  0.0786 -0.3784 -0.0689
 6804SOL     OW26981   1.658   0.668   2.607 -0.2264  0.1146 -1.3481
 6804SOL    HW226982   1.700   0.626   2.533 -0.6168  0.2328 -1.6372
 6804SOL    HW326983   1.722   0.660   2.678  0.2631  0.2438 -1.7664
 6804SOL    MW426984   1.672   0.662   2.607 -0.7826  0.3441  0.5755
 6805SOL     OW26985   3.888   2.502   5.612  0.1199  0.3861 -0.2930
 6805SOL    HW226986   3.966   2.447   5.605 -0.4538 -0.3852 -0.8985
 6805SOL    HW326987   3.850   2.480   5.697  0.6952  0.9550  0.1165
 6805SOL    MW426988   3.894   2.492   5.622  0.4536  0.0040 -0.1224
 6806SOL     OW26989   0.246   0.059   4.243 -0.0462 -0.3606  0.0949
 6806SOL    HW226990   0.155   0.048   4.271  0.4141 -3.4928  0.6386
 6806SOL    HW326991   0.263  -0.015   4.184  2.3257 -0.2033  0.4794
 6806SOL    MW426992   0.236   0.048   4.239  0.2579  0.1998  0.1872
 6807SOL     OW26993   5.366   5.060   3.213 -0.5609  0.2906 -0.5036
 6807SOL    HW226994   5.289   5.086   3.263 -0.5551  0.4961 -0.5981
 6807SOL    HW326995   5.332   5.008   3.140 -0.6419  0.6672 -0.7366
 6807SOL    MW426996   5.352   5.057   3.210  0.6757  0.4058  0.2076
 6808SOL     OW26997   2.350   2.546   6.109 -0.7179 -0.1888  0.2284
 6808SOL    HW226998   2.424   2.486   6.110 -0.0434  0.5822 -0.9365
 6808SOL    HW326999   2.372   2.614   6.173  0.6176  1.1621 -1.5414
 6808SOL    MW427000   2.363   2.547   6.117 -0.4690 -0.1990 -0.2999
 6809SOL     OW27001   0.980   3.998   4.266  0.0170  0.3632 -0.4753
 6809SOL    HW227002   0.927   4.016   4.344 -1.0271  0.8282 -1.2679
 6809SOL    HW327003   0.919   3.958   4.204  0.6188  0.7971 -1.3681
 6809SOL    MW427004   0.965   3.995   4.268  0.1950  0.0507  0.5676
 6810SOL     OW27005   0.638   4.344   4.408 -0.2770 -0.0004 -0.1980
 6810SOL    HW227006   0.695   4.330   4.484 -2.7042  2.1068  2.2019
 6810SOL    HW327007   0.692   4.397   4.348  0.3211  2.2555  2.1355
 6810SOL    MW427008   0.653   4.349   4.410  0.0515 -0.0522 -0.0929
 6811SOL     OW27009   5.329   5.215   5.712 -0.0918 -0.1651 -0.8360
 6811SOL    HW227010   5.326   5.132   5.663 -0.4106  0.2289 -1.4983
 6811SOL    HW327011   5.274   5.275   5.661 -0.2369  0.3280 -0.1148
 6811SOL    MW427012   5.321   5.212   5.699 -0.7045  0.0631 -0.5903
 6812SOL     OW27013   3.770   6.363   5.324 -0.2347  0.2772  0.0508
 6812SOL    HW227014   3.763   6.315   5.406 -2.3127  2.0076  0.9639
 6812SOL    HW327015   3.742   6.300   5.257 -2.0508 -0.0793  1.1032
 6812SOL    MW427016   3.766   6.348   5.326  0.3350  0.5663 -0.7034
 6813SOL     OW27017   2.623   1.745   2.071  0.0712 -0.2566  0.1098
 6813SOL    HW227018   2.647   1.734   2.163  1.1776 -0.2163 -0.1669
 6813SOL    HW327019   2.683   1.687   2.024 -1.2138 -1.1307 -0.5206
 6813SOL    MW427020   2.634   1.736   2.077  0.3344  0.3763  0.1632
 6814SOL     OW27021   5.326   0.996   3.664 -0.0358  0.2347 -0.1783
 6814SOL    HW227022   5.416   1.006   3.635  0.2057  0.1102  0.5176
 6814SOL    HW327023   5.330   0.934   3.737 -0.7292 -0.0742 -0.3898
 6814SOL    MW427024   5.338   0.989   3.670 -0.3572 -0.1123  0.0443
 6815SOL     OW27025   5.307   5.430   4.742 -0.3462  0.4152  0.3019
 6815SOL    HW227026   5.211   5.425   4.737 -0.3568  1.2769 -0.5524
 6815SOL    HW327027   5.334   5.343   4.771 -1.2636 -0.5016 -1.4343
 6815SOL    MW427028   5.298   5.418   4.745 -0.5919 -0.3687  0.0565
 6816SOL     OW27029   4.478   3.022   5.346 -0.1626  0.0247  0.2823
 6816SOL    HW227030   4.429   2.975   5.413 -2.0685  0.1934 -0.8913
 6816SOL    HW327031   4.528   2.955   5.300 -0.2078 -0.3407  0.7624
 6816SOL    MW427032   4.478   3.007   5.349 -0.7304  0.0694 -0.5746
 6817SOL     OW27033   3.289   5.325   2.476 -0.4231  0.1627 -0.4062
 6817SOL    HW227034   3.275   5.242   2.522 -1.8994 -0.3417 -1.6742
 6817SOL    HW327035   3.230   5.387   2.521 -0.7007  0.0547 -0.6168
 6817SOL    MW427036   3.279   5.322   2.488 -0.3388  0.2537 -0.0387
 6818SOL     OW27037   2.747   5.976   5.100  0.3221 -0.3954  0.1484
 6818SOL    HW227038   2.766   6.039   5.030  2.2051 -1.4588 -0.3485
 6818SOL    HW327039   2.662   5.939   5.076  0.7114 -0.3930 -1.3113
 6818SOL    MW427040   2.738   5.980   5.088 -0.0798  0.1643 -0.4529
 6819SOL     OW27041   1.530   5.546   3.793 -0.0748  0.5940 -0.1848
 6819SOL    HW227042   1.546   5.629   3.837  1.6477  0.1406  0.0836
 6819SOL    HW327043   1.451   5.511   3.835  0.3240  1.1742  1.0668
 6819SOL    MW427044   1.521   5.552   3.804  0.4763  0.5839 -0.1860
 6820SOL     OW27045   5.925   0.702   6.333  0.1644 -0.8046  0.0546
 6820SOL    HW227046   5.934   0.640   6.261 -1.9951 -1.7860  0.5492
 6820SOL    HW327047   5.865   0.660   6.395 -1.4735  1.7556  0.3912
 6820SOL    MW427048   5.918   0.689   6.332  0.2121  0.0596 -0.3374
 6821SOL     OW27049   5.032   5.527   4.621  0.1887  0.0006 -0.6545
 6821SOL    HW227050   5.023   5.577   4.702 -0.8082 -1.1447 -0.0243
 6821SOL    HW327051   5.103   5.570   4.574  1.0439  0.4788  0.9895
 6821SOL    MW427052   5.040   5.539   4.625 -0.2841  0.0516 -0.1820
 6822SOL     OW27053   2.300   6.004   4.235 -0.1782 -0.2184 -0.0395
 6822SOL    HW227054   2.354   6.083   4.243 -1.0283  0.2816  1.1236
 6822SOL    HW327055   2.302   5.983   4.141  0.7539  0.6808 -0.2432
 6822SOL    MW427056   2.308   6.012   4.223  0.4211 -0.0024  0.2325
 6823SOL     OW27057   2.465   6.255   0.207  0.2653  0.5897 -0.2462
 6823SOL    HW227058   2.486   6.298   0.124 -1.6986  0.0998 -1.0456
 6823SOL    HW327059   2.550   6.240   0.248  1.2430  1.4969 -1.8369
 6823SOL    MW427060   2.479   6.258   0.201 -0.1023 -0.1754  0.0428
 6824SOL     OW27061   1.454   6.041   5.433  0.6019 -0.3200 -0.3352
 6824SOL    HW227062   1.423   6.121   5.390  0.4703 -0.5198 -0.6114
 6824SOL    HW327063   1.396   5.972   5.401  0.3210 -0.4263  0.3822
 6824SOL    MW427064   1.442   6.043   5.423 -0.1022  0.3147  0.2060
 6825SOL     OW27065   1.989   4.183   2.945 -0.4413 -0.0270 -0.0815
 6825SOL    HW227066   2.058   4.190   2.880 -0.3956 -2.3429 -0.3664
 6825SOL    HW327067   2.022   4.119   3.008 -1.3293  0.6605  1.1099
 6825SOL    MW427068   2.002   4.176   2.945 -0.1704 -0.0634  0.0474
 6826SOL     OW27069   2.583   2.352   5.443 -0.0503  0.3183 -0.0665
 6826SOL    HW227070   2.660   2.404   5.466 -0.7822  2.8659 -2.7874
 6826SOL    HW327071   2.610   2.300   5.367  0.0361 -1.7740  1.3250
 6826SOL    MW427072   2.596   2.352   5.436 -0.1058  0.2668  0.5431
 6827SOL     OW27073   3.979   4.041   5.838  0.3080 -0.3453 -0.0446
 6827SOL    HW227074   3.889   4.059   5.864  0.4667  0.2513  0.1069
 6827SOL    HW327075   3.974   4.029   5.743  0.0104 -0.7283  0.0162
 6827SOL    MW427076   3.967   4.042   5.829 -0.3707  0.0874 -0.4047
 6828SOL     OW27077   0.735   2.996   4.458 -0.2899 -0.5440  0.1057
 6828SOL    HW227078   0.682   2.917   4.458 -2.3101  0.6438 -2.6254
 6828SOL    HW327079   0.816   2.971   4.415 -0.6168 -1.2793 -0.0977
 6828SOL    MW427080   0.739   2.983   4.453 -0.7970 -0.5902  0.2184
 6829SOL     OW27081   2.021   2.500   0.769  0.3651  0.1997 -0.0086
 6829SOL    HW227082   1.982   2.525   0.854  1.6188 -2.3463  1.4383
 6829SOL    HW327083   2.115   2.494   0.786  0.5953 -0.8494 -1.4323
 6829SOL    MW427084   2.028   2.502   0.783  0.3416  0.7080  0.5625
 6830SOL     OW27085   1.940   2.404   6.083  0.4840  0.3909  0.0075
 6830SOL    HW227086   1.906   2.463   6.151 -1.7608 -0.5633 -0.2105
 6830SOL    HW327087   1.984   2.462   6.021  2.1142  1.3411  1.9380
 6830SOL    MW427088   1.942   2.420   6.084  0.3317 -0.7630 -0.5539
 6831SOL     OW27089   3.316   1.831   3.283 -0.1751 -0.1975  0.4608
 6831SOL    HW227090   3.282   1.787   3.362 -0.0162  0.1841  0.7443
 6831SOL    HW327091   3.332   1.921   3.311 -0.3697  0.0110 -0.0816
 6831SOL    MW427092   3.314   1.837   3.297 -0.7372  0.2738 -0.1989
 6832SOL     OW27093   6.034   0.709   5.372  0.3721  0.2507  0.8333
 6832SOL    HW227094   6.095   0.686   5.301 -1.4056  1.0623 -1.0819
 6832SOL    HW327095   6.044   0.803   5.382 -1.3909  0.6335 -0.4421
 6832SOL    MW427096   6.043   0.718   5.364  0.6429 -0.3783 -0.2741
 6833SOL     OW27097   1.603   4.184   4.241 -0.0978  0.1860 -0.3098
 6833SOL    HW227098   1.659   4.175   4.318 -1.2590  1.5940  0.7847
 6833SOL    HW327099   1.622   4.272   4.208 -0.6351  0.1367 -0.7670
 6833SOL    MW427100   1.613   4.195   4.247 -0.0682 -0.4182  0.3763
 6834SOL     OW27101   2.233   3.400   5.602  0.2908  0.0850 -0.8347
 6834SOL    HW227102   2.201   3.485   5.632 -0.8364  0.2789 -2.4607
 6834SOL    HW327103   2.317   3.419   5.562  0.7425  0.1785  0.1358
 6834SOL    MW427104   2.240   3.414   5.601  0.0288  0.2786 -0.2011
 6835SOL     OW27105   3.900   3.706   3.490  0.0845  0.0687  0.1149
 6835SOL    HW227106   3.986   3.740   3.512 -0.3957  0.9595  0.6834
 6835SOL    HW327107   3.860   3.774   3.435  1.0533 -1.8420 -3.2775
 6835SOL    MW427108   3.906   3.720   3.485 -0.7924  0.7010 -0.3492
 6836SOL     OW27109   0.448   2.866   2.668 -0.0717  0.3463  0.0108
 6836SOL    HW227110   0.454   2.961   2.658  0.5008  0.4237  0.9834
 6836SOL    HW327111   0.354   2.847   2.663 -0.1750  0.9325 -0.3707
 6836SOL    MW427112   0.436   2.876   2.666  0.2966 -0.6498  0.5367
 6837SOL     OW27113   2.899   4.081   3.404 -0.2624  0.5016  0.0130
 6837SOL    HW227114   2.863   3.994   3.421  0.1462 -0.2679 -2.6400
 6837SOL    HW327115   2.980   4.084   3.455 -0.5995 -0.3892  0.6297
 6837SOL    MW427116   2.905   4.070   3.413 -0.1250  0.2003 -0.1465
 6838SOL     OW27117   5.923   0.625   3.204  0.1230  0.1970 -0.4021
 6838SOL    HW227118   5.839   0.584   3.223  0.4225 -0.0221  0.4847
 6838SOL    HW327119   5.941   0.603   3.113 -1.4132  1.3706 -1.0302
 6838SOL    MW427120   5.914   0.617   3.195 -0.0439  0.2369 -0.9710
 6839SOL     OW27121   0.608   1.265   0.019  0.3809  0.0920 -0.0766
 6839SOL    HW227122   0.703   1.274   0.011  0.1650  1.6483 -1.5884
 6839SOL    HW327123   0.591   1.261   0.113  1.8895  0.6353  0.2407
 6839SOL    MW427124   0.618   1.266   0.030  0.5257 -0.1301  0.0264
 6840SOL     OW27125   0.550   5.895   5.213 -0.0539 -0.1957 -0.0091
 6840SOL    HW227126   0.639   5.928   5.207 -0.2861  0.3428 -0.5556
 6840SOL    HW327127   0.549   5.845   5.295  0.2824  1.2439  0.9128
 6840SOL    MW427128   0.561   5.892   5.223  0.1997 -0.5791  0.1782
 6841SOL     OW27129   5.406   0.527   0.427 -0.3517 -0.5988 -0.0104
 6841SOL    HW227130   5.345   0.600   0.430  0.3631  0.0132 -0.2156
 6841SOL    HW327131   5.386   0.482   0.345 -0.4087 -0.2935 -0.1639
 6841SOL    MW427132   5.396   0.530   0.417 -0.0947  0.2487 -0.5347
 6842SOL     OW27133   0.162   5.242   1.786  0.1892 -0.0718  0.1863
 6842SOL    HW227134   0.080   5.193   1.782 -0.7530  1.2978  1.4086
 6842SOL    HW327135   0.170   5.283   1.700  1.1301 -2.4815 -0.9471
 6842SOL    MW427136   0.152   5.241   1.774 -0.2288 -0.0972  0.0118
 6843SOL     OW27137   2.287   0.312   1.930  0.1620 -0.3980 -0.7302
 6843SOL    HW227138   2.257   0.221   1.935  1.7205 -0.9885 -1.3006
 6843SOL    HW327139   2.218   0.363   1.971 -0.2937 -1.9601  0.5316
 6843SOL    MW427140   2.274   0.307   1.936  0.5604  0.6781 -0.1615
 6844SOL     OW27141   5.448   5.546   5.675  0.5707 -0.1774  0.2352
 6844SOL    HW227142   5.375   5.586   5.628  0.9327  0.0216 -0.1634
 6844SOL    HW327143   5.491   5.491   5.610  2.1164  1.4271 -0.1801
 6844SOL    MW427144   5.444   5.544   5.660  0.1604 -0.4782 -0.3466
 6845SOL     OW27145   3.295   0.150   1.324  0.0155 -0.6501  0.0197
 6845SOL    HW227146   3.335   0.076   1.369 -0.5101 -0.0287  1.5619
 6845SOL    HW327147   3.248   0.110   1.250 -0.2302 -1.8537  0.7932
 6845SOL    MW427148   3.294   0.135   1.320  0.0908  0.6029 -0.0070
 6846SOL     OW27149   4.836   4.475   1.506  0.1241  0.2764 -0.0165
 6846SOL    HW227150   4.809   4.473   1.414  0.5997 -3.1082 -0.1864
 6846SOL    HW327151   4.931   4.475   1.503  0.1517  1.0893  0.5183
 6846SOL    MW427152   4.845   4.475   1.493  0.1181  0.0489 -0.6805
 6847SOL     OW27153   6.106   4.162   2.828 -0.3574 -0.2778  0.3483
 6847SOL    HW227154   6.051   4.223   2.780 -0.0235 -0.3309 -0.1023
 6847SOL    HW327155   6.188   4.210   2.845  0.6004 -1.1603 -1.5439
 6847SOL    MW427156   6.110   4.176   2.824 -0.1999 -0.0833 -0.1633
 6848SOL     OW27157   3.857   0.672   1.069  0.3457 -0.6120  0.3121
 6848SOL    HW227158   3.766   0.702   1.066  0.6494  0.2445 -0.8412
 6848SOL    HW327159   3.868   0.619   0.991  1.5390  1.4630 -1.0130
 6848SOL    MW427160   3.846   0.669   1.059 -0.7953 -0.1666  0.0666
 6849SOL     OW27161   1.047   0.297   4.728 -0.6925 -0.1033 -0.3190
 6849SOL    HW227162   1.141   0.315   4.719 -0.5392  0.9115  2.4066
 6849SOL    HW327163   1.008   0.332   4.648  1.1812 -0.0837 -1.2843
 6849SOL    MW427164   1.055   0.304   4.717  0.0542  0.1559 -0.1738
 6850SOL     OW27165   2.785   2.306   1.679 -0.7518  0.2519  0.0553
 6850SOL    HW227166   2.875   2.286   1.653  0.0248  2.9670  0.2963
 6850SOL    HW327167   2.742   2.330   1.597 -0.6071  1.0552  0.2071
 6850SOL    MW427168   2.791   2.307   1.665  0.4684  0.5040  0.4415
 6851SOL     OW27169   0.447   2.820   6.174  0.5674 -0.5777 -0.1472
 6851SOL    HW227170   0.533   2.827   6.217  0.7719  0.1208 -0.6637
 6851SOL    HW327171   0.466   2.825   6.081  0.1916 -2.7398 -0.4085
 6851SOL    MW427172   0.461   2.821   6.168  0.0305 -0.0539  0.2736
 6852SOL     OW27173   3.374   0.991   5.167 -0.0299 -0.2660 -0.5224
 6852SOL    HW227174   3.354   0.921   5.105 -0.9032  0.9650 -1.6553
 6852SOL    HW327175   3.445   1.040   5.126  1.2442 -0.9766  0.7001
 6852SOL    MW427176   3.381   0.988   5.154  0.2001 -0.3564 -0.1821
 6853SOL     OW27177   1.245   0.441   6.315 -0.2480  0.0879  0.2870
 6853SOL    HW227178   1.274   0.522   6.356 -0.7242 -0.1216  1.0726
 6853SOL    HW327179   1.303   0.429   6.241  1.5642 -0.2234  1.6879
 6853SOL    MW427180   1.256   0.450   6.311  0.3046 -0.0665 -0.2562
 6854SOL     OW27181   3.270   0.212   2.327 -0.0983  0.0132 -0.6425
 6854SOL    HW227182   3.190   0.227   2.276 -0.6282 -0.9216 -0.1051
 6854SOL    HW327183   3.328   0.165   2.268  0.1180  0.8077 -1.0783
 6854SOL    MW427184   3.267   0.208   2.313 -0.2036  0.4174 -0.1442
 6855SOL     OW27185   0.162   0.487   5.099  0.2307 -0.3576 -0.4008
 6855SOL    HW227186   0.098   0.418   5.083  0.4468 -0.8326  0.7094
 6855SOL    HW327187   0.207   0.498   5.015 -1.6417  0.3733 -1.3636
 6855SOL    MW427188   0.160   0.479   5.086  0.1170  0.2874  0.4824
 6856SOL     OW27189   6.374   4.574   1.831 -0.0485 -0.4237 -0.6123
 6856SOL    HW227190   6.327   4.562   1.913 -0.6833  0.9781 -0.7439
 6856SOL    HW327191   6.358   4.493   1.782 -0.8824 -0.6661  0.0380
 6856SOL    MW427192   6.366   4.562   1.835  0.1500 -0.1686  0.1780
 6857SOL     OW27193   2.971   3.418   3.893  0.8570  0.3866  0.4680
 6857SOL    HW227194   2.927   3.470   3.960 -0.2459 -0.7967  0.7096
 6857SOL    HW327195   2.911   3.345   3.876  1.1666  0.5607 -1.7082
 6857SOL    MW427196   2.957   3.415   3.900 -0.3897  0.0265  0.4844
 6858SOL     OW27197   1.091   3.554   5.574  0.0006  0.2074 -0.1538
 6858SOL    HW227198   1.075   3.464   5.546  0.7189  0.0232  0.0064
 6858SOL    HW327199   1.170   3.548   5.628  0.3062  1.0043 -0.5055
 6858SOL    MW427200   1.099   3.541   5.578  0.4253  0.6404  0.6044
 6859SOL     OW27201   0.294   4.594   2.105  0.5038 -0.5609  0.1470
 6859SOL    HW227202   0.268   4.668   2.050  0.2838 -0.7134  0.0428
 6859SOL    HW327203   0.324   4.634   2.187 -2.6719 -0.4323  1.4041
 6859SOL    MW427204   0.295   4.609   2.109  0.3231  0.3799  0.2672
 6860SOL     OW27205   3.832   6.175   0.504 -0.0152 -0.1120  0.2282
 6860SOL    HW227206   3.804   6.265   0.486  0.1642 -0.1157 -0.0568
 6860SOL    HW327207   3.752   6.131   0.533 -0.2913 -0.0949 -0.4930
 6860SOL    MW427208   3.818   6.181   0.506 -0.0346  0.2077 -0.5044
 6861SOL     OW27209   0.786   4.267   2.471 -0.2301 -0.1825  0.2274
 6861SOL    HW227210   0.699   4.282   2.436 -0.1333  0.7557  0.3621
 6861SOL    HW327211   0.811   4.181   2.437 -0.4822  0.3195 -1.2988
 6861SOL    MW427212   0.778   4.258   2.462 -0.4195 -0.1647  0.3489
 6862SOL     OW27213   2.952   2.095   0.784  0.1489 -0.2787  0.3667
 6862SOL    HW227214   2.946   2.055   0.871 -2.1804  0.3586  0.5831
 6862SOL    HW327215   2.963   2.188   0.801 -0.3772 -0.1422  0.0114
 6862SOL    MW427216   2.953   2.102   0.798 -0.2642  0.0366 -0.4994
 6863SOL     OW27217   2.027   2.703   4.191  0.2970  0.7608 -0.3184
 6863SOL    HW227218   1.959   2.638   4.173  0.1033  1.3615 -1.9356
 6863SOL    HW327219   2.025   2.761   4.115  1.6478  1.6351  0.2800
 6863SOL    MW427220   2.018   2.702   4.178  0.2389  0.5403  0.1065
 6864SOL     OW27221   1.037   2.889   0.850  0.3008 -0.4151  0.0077
 6864SOL    HW227222   1.027   2.796   0.828  1.6218 -0.5566 -0.0812
 6864SOL    HW327223   0.968   2.933   0.800 -1.6717 -1.5270  1.6099
 6864SOL    MW427224   1.026   2.882   0.840 -0.1609 -0.0882 -0.0194
 6865SOL     OW27225   2.098   6.351   1.116 -0.7942  0.1929  0.0513
 6865SOL    HW227226   2.091   6.292   1.042  0.8989  0.6621 -0.5190
 6865SOL    HW327227   2.020   6.333   1.168  0.9337 -4.7107  1.5255
 6865SOL    MW427228   2.087   6.341   1.113 -0.3992 -0.1741 -0.1969
 6866SOL     OW27229   1.429   0.372   4.062 -0.3381  0.3488  0.2952
 6866SOL    HW227230   1.412   0.455   4.018 -0.7741  0.3812  0.5187
 6866SOL    HW327231   1.513   0.386   4.107  0.1413  0.2887 -0.5657
 6866SOL    MW427232   1.438   0.385   4.062 -0.7219 -0.4824 -0.3790
 6867SOL     OW27233   0.102   2.935   2.867 -0.0074  0.6030  0.6573
 6867SOL    HW227234   0.012   2.910   2.885  0.6208 -0.1507  3.1481
 6867SOL    HW327235   0.125   2.890   2.785 -1.0937 -1.2680  1.3517
 6867SOL    MW427236   0.093   2.926   2.858 -0.0487  0.6406 -0.3471
 6868SOL     OW27237   0.726   0.202   4.877 -0.2766 -0.3498 -0.2051
 6868SOL    HW227238   0.734   0.199   4.782 -1.1006 -2.2941 -0.2489
 6868SOL    HW327239   0.638   0.235   4.892  0.4240  1.5887 -0.0400
 6868SOL    MW427240   0.716   0.206   4.867 -0.1700  0.5782 -0.7658
 6869SOL     OW27241   0.555   2.187   6.416  0.4861 -0.1554 -0.7452
 6869SOL    HW227242   0.629   2.238   6.381 -0.2715  1.9714  0.5845
 6869SOL    HW327243   0.493   2.253   6.447 -0.3307 -1.8933  1.5746
 6869SOL    MW427244   0.557   2.203   6.415  0.1834 -0.3334  0.0941
 6870SOL     OW27245   2.207   3.704   0.104 -0.0332 -0.6870 -0.0174
 6870SOL    HW227246   2.162   3.656   0.034 -0.1509 -1.1154  0.3432
 6870SOL    HW327247   2.138   3.755   0.146  0.4279  1.4095 -1.6737
 6870SOL    MW427248   2.192   3.704   0.100 -0.2474  0.2916  0.2352
 6871SOL     OW27249   2.821   3.409   2.693 -0.0425  0.0719 -0.0844
 6871SOL    HW227250   2.736   3.379   2.663 -0.2394 -0.1597  0.6827
 6871SOL    HW327251   2.879   3.396   2.618 -0.3948 -1.0335 -0.1853
 6871SOL    MW427252   2.818   3.403   2.679 -0.2836  0.3437  0.4680
 6872SOL     OW27253   4.640   3.873   0.255 -0.6805 -0.3077  0.0664
 6872SOL    HW227254   4.687   3.920   0.324  2.2880 -2.0739 -0.5541
 6872SOL    HW327255   4.598   3.941   0.203  0.3593  1.3682  1.3055
 6872SOL    MW427256   4.641   3.888   0.257 -0.1305 -0.0736  0.3742
 6873SOL     OW27257   1.339   1.237   2.501  0.7243  0.6151 -0.1782
 6873SOL    HW227258   1.389   1.208   2.578  1.0054 -0.1398 -0.6401
 6873SOL    HW327259   1.383   1.318   2.474 -1.3028  2.7244  2.3367
 6873SOL    MW427260   1.352   1.244   2.508  0.5746 -0.7637  0.2447
 6874SOL     OW27261   5.078   1.782   1.583 -0.4458 -0.1423  0.6301
 6874SOL    HW227262   5.000   1.740   1.620 -1.0666  0.6889  0.2914
 6874SOL    HW327263   5.046   1.830   1.507  0.0995  1.5675  1.4230
 6874SOL    MW427264   5.064   1.783   1.578 -0.3375 -0.3874 -0.4017
 6875SOL     OW27265   2.205   4.736   5.003  0.6617  0.5255 -0.4838
 6875SOL    HW227266   2.252   4.806   5.048  1.8913 -1.7888  2.1629
 6875SOL    HW327267   2.269   4.698   4.943  1.6381 -1.1626  1.4721
 6875SOL    MW427268   2.220   4.740   5.001  0.2525  0.7845  0.1218
 6876SOL     OW27269   4.105   0.786   2.577  0.2364  0.3450 -0.0280
 6876SOL    HW227270   4.168   0.840   2.624  0.8557 -0.1472 -0.2788
 6876SOL    HW327271   4.143   0.698   2.579 -0.1987  0.1411 -0.6197
 6876SOL    MW427272   4.118   0.782   2.584 -0.0382  0.0062  0.0924
 6877SOL     OW27273   4.587   4.992   4.500  0.6451 -0.4996 -0.0459
 6877SOL    HW227274   4.566   4.982   4.407  1.9805 -1.7455 -0.2559
 6877SOL    HW327275   4.602   5.086   4.511  1.4344 -0.4547 -1.3339
 6877SOL    MW427276   4.586   5.003   4.489  0.2978  0.1218  1.1190
 6878SOL     OW27277   0.731   1.041   2.940  0.1832  0.2432  0.5510
 6878SOL    HW227278   0.774   1.126   2.954 -2.2225  1.6908 -0.3008
 6878SOL    HW327279   0.670   1.034   3.014  0.0995 -0.5780  0.4047
 6878SOL    MW427280   0.728   1.051   2.952 -0.0818  0.2273  0.4158
 6879SOL     OW27281   6.432   1.677   1.648  0.1793 -0.1458  0.1673
 6879SOL    HW227282   6.457   1.592   1.685  2.9790  0.0881 -0.9221
 6879SOL    HW327283   6.438   1.665   1.553  2.5619  1.6636 -0.0227
 6879SOL    MW427284   6.436   1.664   1.640 -0.0588  0.0283 -0.1393
 6880SOL     OW27285   5.531   0.326   1.397 -0.3358  0.5169 -0.2576
 6880SOL    HW227286   5.508   0.385   1.469  0.7547  1.0072 -0.2943
 6880SOL    HW327287   5.620   0.297   1.417 -1.3645 -2.4279  0.6317
 6880SOL    MW427288   5.539   0.330   1.409 -0.0626 -0.3567  0.1145
 6881SOL     OW27289   1.656   5.049   3.655  0.0195 -0.3359  0.1577
 6881SOL    HW227290   1.582   5.109   3.667  0.0893  0.0415 -1.1323
 6881SOL    HW327291   1.627   4.988   3.588  0.9366 -0.0559 -0.5159
 6881SOL    MW427292   1.643   5.049   3.648 -0.4403 -0.2288 -0.3880
 6882SOL     OW27293   5.280   1.594   5.723  0.6531 -0.0394 -0.2043
 6882SOL    HW227294   5.204   1.552   5.762  1.0129  1.0436  1.8083
 6882SOL    HW327295   5.249   1.628   5.639 -1.9082  2.5381  1.5892
 6882SOL    MW427296   5.266   1.593   5.717  0.1180 -0.4303  0.4125
 6883SOL     OW27297   0.519   5.840   5.781  0.0494 -0.0326 -0.0509
 6883SOL    HW227298   0.444   5.847   5.722 -0.8409 -1.4400  0.8390
 6883SOL    HW327299   0.484   5.795   5.858  1.8394 -0.8482  0.3300
 6883SOL    MW427300   0.504   5.835   5.783 -0.1801  0.0834  0.1646
 6884SOL     OW27301   5.117   5.718   0.472  0.0196 -0.2677  0.5397
 6884SOL    HW227302   5.101   5.637   0.425  0.6197 -0.9409  1.4653
 6884SOL    HW327303   5.144   5.691   0.559 -0.3099  0.9395  1.0408
 6884SOL    MW427304   5.119   5.704   0.477  0.0659  0.2498  0.2571
 6885SOL     OW27305   1.818   3.717   3.133 -0.6643  0.1780  0.2083
 6885SOL    HW227306   1.764   3.699   3.057 -0.3906 -1.3413  0.3535
 6885SOL    HW327307   1.772   3.788   3.179 -1.3204  0.4547 -0.8503
 6885SOL    MW427308   1.805   3.724   3.129 -0.0935 -0.0398  0.3576
 6886SOL     OW27309   0.861   5.710   2.978  0.5048 -0.1728  0.2870
 6886SOL    HW227310   0.783   5.765   2.974  0.8759  0.3993  0.7977
 6886SOL    HW327311   0.850   5.657   3.057  0.9585  0.4352  0.7782
 6886SOL    MW427312   0.850   5.711   2.988  0.2066  0.0811  0.2944
 6887SOL     OW27313   6.043   3.521   5.092 -0.0768  0.0581  0.4008
 6887SOL    HW227314   6.091   3.604   5.089  1.5019 -0.8466 -0.6731
 6887SOL    HW327315   6.072   3.480   5.173  0.6596 -0.3146 -0.0517
 6887SOL    MW427316   6.053   3.527   5.102  0.3093 -0.3728  0.2510
 6888SOL     OW27317   1.184   2.003   4.669 -0.3541 -0.2179 -0.2848
 6888SOL    HW227318   1.092   2.014   4.643  0.0302  2.9212 -0.6000
 6888SOL    HW327319   1.216   2.091   4.685  2.6545 -1.2158 -0.1611
 6888SOL    MW427320   1.176   2.016   4.668 -0.2333 -0.1906 -0.2815
 6889SOL     OW27321   1.320   5.815   5.928 -0.0053  0.4617  0.2382
 6889SOL    HW227322   1.269   5.882   5.973 -0.5233 -0.4565  1.0498
 6889SOL    HW327323   1.278   5.733   5.952  1.5352 -0.2814  0.4871
 6889SOL    MW427324   1.308   5.813   5.937 -0.3059 -0.1311  0.1705
 6890SOL     OW27325   5.798   3.109   4.881  0.9278  0.2738 -0.3966
 6890SOL    HW227326   5.805   3.014   4.895  0.5953  0.2362 -0.4811
 6890SOL    HW327327   5.852   3.125   4.803  1.3252  0.2190 -0.1350
 6890SOL    MW427328   5.806   3.098   4.872 -0.8195  0.2814 -0.0792
 6891SOL     OW27329   4.140   3.393   0.712 -0.2825 -0.2315  0.5285
 6891SOL    HW227330   4.172   3.465   0.766  0.3140 -0.3853  0.3875
 6891SOL    HW327331   4.083   3.434   0.647  0.7494  0.2268 -0.1010
 6891SOL    MW427332   4.136   3.408   0.710  0.1463  0.1633  0.2125
 6892SOL     OW27333   1.732   2.075   0.171  0.5423  0.2709 -0.0541
 6892SOL    HW227334   1.779   2.136   0.114  0.8182  0.1504  0.0436
 6892SOL    HW327335   1.683   2.019   0.111 -0.0797  0.8784 -0.1324
 6892SOL    MW427336   1.732   2.076   0.155 -0.8954  0.0214 -0.1255
 6893SOL     OW27337   1.594   2.132   2.512  0.2337 -0.0667  0.2451
 6893SOL    HW227338   1.513   2.100   2.552  0.7037 -0.0406  1.2690
 6893SOL    HW327339   1.579   2.225   2.500  0.0216 -0.1041  0.2169
 6893SOL    MW427340   1.581   2.140   2.516  0.4261 -0.3631  0.5327
 6894SOL     OW27341   3.996   4.707   5.078  0.4486  0.1875 -0.0571
 6894SOL    HW227342   4.090   4.690   5.078  0.2372 -1.0577 -0.7180
 6894SOL    HW327343   3.984   4.774   5.011  0.6889 -0.7962 -1.1200
 6894SOL    MW427344   4.007   4.713   5.070 -0.6657  0.3537 -0.3667
 6895SOL     OW27345   3.882   4.799   1.320 -0.5476 -0.2632 -0.2094
 6895SOL    HW227346   3.860   4.811   1.228  2.2551 -2.0527 -1.2582
 6895SOL    HW327347   3.968   4.757   1.319  1.3988  2.9569  3.2704
 6895SOL    MW427348   3.891   4.795   1.308 -0.2000 -0.1808  0.1824
 6896SOL     OW27349   4.732   4.167   2.352  0.3007 -0.0767 -0.3173
 6896SOL    HW227350   4.815   4.207   2.325  0.4435  0.6530  1.1174
 6896SOL    HW327351   4.694   4.229   2.415 -0.3832 -1.3220  0.5513
 6896SOL    MW427352   4.738   4.181   2.357  0.2915 -0.3739 -0.2340
 6897SOL     OW27353   1.790   4.914   2.359  0.4264  0.3487 -1.0269
 6897SOL    HW227354   1.741   4.836   2.386 -1.8171  1.8660 -0.4352
 6897SOL    HW327355   1.876   4.903   2.398  0.0395 -1.6240 -0.6094
 6897SOL    MW427356   1.795   4.902   2.367  0.5469 -0.6940 -0.0461
 6898SOL     OW27357   1.766   6.394   3.204 -0.6257  0.1113 -1.0463
 6898SOL    HW227358   1.831   6.324   3.205 -0.5439  0.0985 -3.2466
 6898SOL    HW327359   1.683   6.350   3.222 -0.1913  0.0375  1.1371
 6898SOL    MW427360   1.764   6.379   3.207 -0.6827 -0.1814 -0.6555
 6899SOL     OW27361   2.903   6.187   1.182  0.2920  0.1687 -0.0822
 6899SOL    HW227362   2.974   6.251   1.186  0.8214 -0.3816 -0.4185
 6899SOL    HW327363   2.871   6.193   1.092  0.6948 -0.3981 -0.2692
 6899SOL    MW427364   2.908   6.196   1.171  0.2421  0.3133 -0.5484
 6900SOL     OW27365   5.560   3.015   1.976  0.1830  0.0502  0.3291
 6900SOL    HW227366   5.580   3.080   2.044 -1.7177  0.8591  0.1734
 6900SOL    HW327367   5.516   3.066   1.908 -0.8806 -1.3086 -0.0316
 6900SOL    MW427368   5.557   3.030   1.976 -0.3342 -0.1541  0.2853
 6901SOL     OW27369   2.098   4.451   0.284 -0.1763 -0.2845  0.1820
 6901SOL    HW227370   2.049   4.475   0.362 -2.2556  0.4173 -1.2392
 6901SOL    HW327371   2.112   4.534   0.238 -0.3583 -0.8333 -0.9077
 6901SOL    MW427372   2.093   4.465   0.288  0.4336 -0.0198  0.0656
 6902SOL     OW27373   3.145   5.776   2.572 -0.4139  0.0197  0.3573
 6902SOL    HW227374   3.105   5.847   2.623 -1.7922 -0.9696  0.6879
 6902SOL    HW327375   3.132   5.802   2.481  0.1656  0.7518  0.4655
 6902SOL    MW427376   3.138   5.789   2.567 -0.3374 -0.1010  0.6897
 6903SOL     OW27377   2.879   0.647   0.963  0.3509 -0.0491 -0.3254
 6903SOL    HW227378   2.906   0.712   0.899 -0.0450  0.1115 -0.3329
 6903SOL    HW327379   2.859   0.569   0.912  1.7237 -0.4826 -0.2339
 6903SOL    MW427380   2.880   0.645   0.948  0.2911  0.1793  0.8957
 6904SOL     OW27381   1.893   5.526   0.093 -0.1741  0.0637  0.1573
 6904SOL    HW227382   1.826   5.498   0.155  1.8216 -2.5444  1.3230
 6904SOL    HW327383   1.847   5.533   0.009 -2.1231 -0.4230  1.1395
 6904SOL    MW427384   1.878   5.523   0.090 -0.4765 -0.4694 -0.6107
 6905SOL     OW27385   1.531   4.454   4.562  0.0920  0.1105 -0.9290
 6905SOL    HW227386   1.585   4.519   4.517  0.3733 -0.7311 -1.8488
 6905SOL    HW327387   1.569   4.370   4.535 -0.5992 -0.4422 -0.1904
 6905SOL    MW427388   1.543   4.451   4.552 -0.6009  0.1475 -0.1377
 6906SOL     OW27389   6.274   6.206   4.040  0.3101 -0.5719  0.3651
 6906SOL    HW227390   6.273   6.173   3.950  0.3437 -1.9768  0.8496
 6906SOL    HW327391   6.349   6.162   4.081 -0.0945 -0.4581  1.2497
 6906SOL    MW427392   6.284   6.196   4.033 -0.7656 -0.0215 -0.4927
 6907SOL     OW27393   5.309   3.356   4.518  0.0848  0.1750 -0.0038
 6907SOL    HW227394   5.308   3.414   4.442 -1.3172  0.1516 -0.0179
 6907SOL    HW327395   5.284   3.270   4.484 -1.8335  0.4294  0.6628
 6907SOL    MW427396   5.306   3.352   4.504 -0.0595  0.5184 -0.2148
 6908SOL     OW27397   0.556   4.430   0.005  0.6143  0.4737  0.3636
 6908SOL    HW227398   0.526   4.387   0.085  1.2997 -1.5497 -0.4017
 6908SOL    HW327399   0.651   4.435   0.015  1.1061 -2.5225 -1.4530
 6908SOL    MW427400   0.565   4.425   0.017 -0.2176  0.2334 -0.1128
 6909SOL     OW27401   3.763   6.066   2.686  0.3249 -0.2322  0.0635
 6909SOL    HW227402   3.670   6.062   2.660  0.9249 -0.0974 -2.3912
 6909SOL    HW327403   3.797   5.979   2.664  0.7100 -0.4149  1.3384
 6909SOL    MW427404   3.755   6.054   2.680 -0.1366  0.3488  0.9035
 6910SOL     OW27405   1.871   4.327   0.954  0.2141 -0.3656  0.0911
 6910SOL    HW227406   1.842   4.418   0.953  0.1119 -0.3755  0.9733
 6910SOL    HW327407   1.802   4.281   1.003 -0.0686 -1.0400 -0.9132
 6910SOL    MW427408   1.858   4.333   0.960  0.0364 -0.3015 -0.2801
 6911SOL     OW27409   2.116   0.019   2.523  0.2628 -0.3112  0.2951
 6911SOL    HW227410   2.137  -0.000   2.615 -0.9245 -1.8155  0.3005
 6911SOL    HW327411   2.031  -0.022   2.509  0.5379 -0.3294 -1.5636
 6911SOL    MW427412   2.107   0.011   2.534 -0.3182 -0.4243 -0.4944
 6912SOL     OW27413   2.262   5.445   5.778  0.7304 -0.1055  0.2097
 6912SOL    HW227414   2.210   5.380   5.730  1.4677 -1.1457  0.7826
 6912SOL    HW327415   2.209   5.465   5.856  1.1252 -1.0812  0.7380
 6912SOL    MW427416   2.248   5.439   5.782 -0.3770 -0.0418  0.8902
 6913SOL     OW27417   3.852   4.158   5.481 -0.2409  0.1945  0.5783
 6913SOL    HW227418   3.917   4.091   5.502  0.5882  0.7133 -0.2921
 6913SOL    HW327419   3.901   4.227   5.438 -1.1486  1.2109  1.1114
 6913SOL    MW427420   3.867   4.158   5.478  0.1620 -0.3948 -0.1795
 6914SOL     OW27421   1.387   0.639   0.053  0.3806 -0.2530 -0.0833
 6914SOL    HW227422   1.467   0.599   0.088 -0.3016 -0.3033  1.5020
 6914SOL    HW327423   1.349   0.685   0.128 -1.3024 -0.5763 -0.7103
 6914SOL    MW427424   1.393   0.640   0.068  0.1211  0.2497  0.5134
 6915SOL     OW27425   2.154   1.417   2.464  0.4144 -0.0323 -0.1350
 6915SOL    HW227426   2.193   1.365   2.534 -0.6274 -0.4058  0.1768
 6915SOL    HW327427   2.224   1.426   2.399  0.4830 -2.2208 -0.4199
 6915SOL    MW427428   2.168   1.411   2.465  0.2168 -0.1875 -0.0410
 6916SOL     OW27429   5.396   2.828   2.123 -0.7091 -0.8900 -0.4525
 6916SOL    HW227430   5.439   2.895   2.070 -0.4428 -1.1944 -0.6246
 6916SOL    HW327431   5.303   2.848   2.116 -0.5579  0.3681  0.7174
 6916SOL    MW427432   5.389   2.840   2.115  0.6376  0.3804  0.6271
 6917SOL     OW27433   5.266   1.769   1.200 -0.5418  0.1491  0.1634
 6917SOL    HW227434   5.320   1.722   1.137 -0.7780  0.4506 -0.2650
 6917SOL    HW327435   5.266   1.713   1.278  0.2074  0.0453  0.0941
 6917SOL    MW427436   5.273   1.755   1.202  1.5268  0.1351  0.6108
 6918SOL     OW27437   3.523   4.992   4.874 -0.1787 -0.0430 -0.0252
 6918SOL    HW227438   3.550   4.910   4.914 -0.5560 -0.0285  0.2707
 6918SOL    HW327439   3.479   5.040   4.945  0.1723  0.4771 -0.1527
 6918SOL    MW427440   3.520   4.987   4.889  0.2133  0.0457 -0.7128
 6919SOL     OW27441   6.042   1.001   5.393  0.0750  0.0668 -0.9368
 6919SOL    HW227442   6.041   1.088   5.353  1.4246  0.1230 -0.8993
 6919SOL    HW327443   6.040   1.018   5.487 -1.0236  0.0032 -0.9417
 6919SOL    MW427444   6.042   1.015   5.400 -0.5650  0.2355 -0.1328
 6920SOL     OW27445   6.002   5.202   3.586 -0.8274  0.3523  0.1531
 6920SOL    HW227446   5.998   5.107   3.586 -1.0783  0.3601  0.3470
 6920SOL    HW327447   5.989   5.227   3.494 -1.6938  0.2257  0.2282
 6920SOL    MW427448   6.000   5.193   3.574 -0.4950  0.1940  0.0046
 6921SOL     OW27449   3.332   3.926   0.247 -0.9419  0.5182 -0.4100
 6921SOL    HW227450   3.245   3.894   0.226 -1.0932  0.7172 -0.1007
 6921SOL    HW327451   3.318   3.985   0.322 -0.2833 -1.0735  1.0235
 6921SOL    MW427452   3.319   3.930   0.254 -0.4771  0.0860  0.3739
 6922SOL     OW27453   2.144   0.867   4.201  0.1064 -0.7631  0.1298
 6922SOL    HW227454   2.228   0.846   4.243  0.7194  0.7821 -0.2633
 6922SOL    HW327455   2.139   0.808   4.126  2.3772  1.1482 -1.7003
 6922SOL    MW427456   2.154   0.856   4.197 -0.0119 -0.3568  0.1162
 6923SOL     OW27457   3.902   3.074   5.455 -0.3259 -0.3364 -0.0370
 6923SOL    HW227458   3.923   3.100   5.545 -1.6257 -0.4208  0.3067
 6923SOL    HW327459   3.970   3.115   5.402 -0.5563  1.2380  0.8161
 6923SOL    MW427460   3.914   3.083   5.460  0.7628 -0.1942  0.1136
 6924SOL     OW27461   0.680   0.763   0.387  0.0633  0.4524 -0.4306
 6924SOL    HW227462   0.658   0.787   0.476 -0.9208 -0.3999 -0.4261
 6924SOL    HW327463   0.629   0.683   0.370  2.3765 -1.0603 -0.7665
 6924SOL    MW427464   0.671   0.756   0.396 -0.6933  0.4790 -1.1637
 6925SOL     OW27465   4.442   3.992   5.448  0.3093 -0.3448  0.4433
 6925SOL    HW227466   4.421   4.063   5.508  0.9658  0.8744 -0.7285
 6925SOL    HW327467   4.489   4.034   5.376 -3.7707 -0.9103 -3.0114
 6925SOL    MW427468   4.445   4.007   5.447  0.3585 -0.5720 -0.4911
 6926SOL     OW27469   3.261   4.528   0.035  0.8212  0.6474 -0.1129
 6926SOL    HW227470   3.323   4.487   0.097 -0.1334  1.2304  1.2827
 6926SOL    HW327471   3.198   4.574   0.091 -1.8593 -1.2258 -1.3797
 6926SOL    MW427472   3.261   4.529   0.051 -0.2207 -0.1037 -0.0105
 6927SOL     OW27473   5.139   2.883   1.514 -0.4061  0.5412 -0.1388
 6927SOL    HW227474   5.114   2.892   1.422  1.3144 -0.7264 -0.7833
 6927SOL    HW327475   5.088   2.809   1.545  0.3191 -0.1678 -0.6046
 6927SOL    MW427476   5.129   2.875   1.506  0.6919  0.4392  0.6325
 6928SOL     OW27477   3.004   2.586   1.309  0.3587  0.3697  0.3301
 6928SOL    HW227478   3.003   2.604   1.403  1.0084  2.6361 -0.0431
 6928SOL    HW327479   2.912   2.580   1.285 -0.0115  3.6239  0.5249
 6928SOL    MW427480   2.992   2.588   1.318  0.4754 -0.6130 -0.4357
 6929SOL     OW27481   1.893   0.602   0.947  0.5029 -0.4626 -0.3139
 6929SOL    HW227482   1.972   0.548   0.959  1.7355  1.4996  1.1048
 6929SOL    HW327483   1.847   0.596   1.031 -1.6168 -2.5526 -1.5073
 6929SOL    MW427484   1.898   0.594   0.960 -0.0833 -0.0898 -0.1563
 6930SOL     OW27485   2.919   1.025   5.458  0.9157 -0.1196  0.4683
 6930SOL    HW227486   2.880   1.111   5.476  0.0655 -0.6877  1.5091
 6930SOL    HW327487   3.008   1.044   5.430  0.5688  1.1276  0.1378
 6930SOL    MW427488   2.925   1.039   5.457  0.6220 -0.0732 -0.2946
 6931SOL     OW27489   5.316   4.338   1.076  0.8522 -0.2231  0.2552
 6931SOL    HW227490   5.409   4.345   1.052  0.6366  2.6317 -0.1414
 6931SOL    HW327491   5.269   4.346   0.993  0.2448 -0.2299  0.5939
 6931SOL    MW427492   5.322   4.340   1.062  0.5608 -0.5287  0.4447
 6932SOL     OW27493   6.073   4.286   3.072  0.6866  0.3537  0.5283
 6932SOL    HW227494   6.087   4.204   3.024 -0.7016  0.8433 -0.8037
 6932SOL    HW327495   6.130   4.349   3.028 -0.1322  0.6600 -0.1311
 6932SOL    MW427496   6.082   4.284   3.059  0.7011 -0.0188 -0.1733
 6933SOL     OW27497   3.868   1.618   6.394 -0.3168  0.4102  0.2100
 6933SOL    HW227498   3.956   1.640   6.365 -1.0594  1.7043 -1.2288
 6933SOL    HW327499   3.842   1.544   6.338 -0.4866  0.6758 -0.0701
 6933SOL    MW427500   3.876   1.611   6.383 -0.6305 -0.1175  0.2052
 6934SOL     OW27501   3.851   1.350   1.580  0.0627  0.7971 -0.3736
 6934SOL    HW227502   3.939   1.362   1.616  0.4214  2.1238 -1.6159
 6934SOL    HW327503   3.851   1.259   1.549  1.3004  1.0073 -1.0747
 6934SOL    MW427504   3.863   1.339   1.580  0.7991 -0.5563  0.4054
 6935SOL     OW27505   6.113   0.431   0.415 -0.1782  0.0713 -0.2275
 6935SOL    HW227506   6.026   0.469   0.406 -0.0818  0.2583 -0.3690
 6935SOL    HW327507   6.103   0.341   0.386 -0.4341 -0.0485  0.2174
 6935SOL    MW427508   6.100   0.424   0.410 -0.4692  0.1423 -0.4475
 6936SOL     OW27509   2.035   3.451   0.198 -0.5642  0.5980 -0.5797
 6936SOL    HW227510   1.958   3.491   0.158 -0.8932  0.2215 -0.3196
 6936SOL    HW327511   2.083   3.525   0.237 -0.3648  0.9384 -1.4432
 6936SOL    MW427512   2.031   3.466   0.198  0.1125  0.0197 -0.7359
 6937SOL     OW27513   6.350   6.253   2.777  0.1495  0.0321 -0.0432
 6937SOL    HW227514   6.437   6.293   2.773  0.1828 -0.1263 -1.1331
 6937SOL    HW327515   6.298   6.314   2.830  0.4668  1.0343 -0.8448
 6937SOL    MW427516   6.354   6.266   2.784  0.3376  0.9221 -0.0816
 6938SOL     OW27517   6.265   3.921   0.207 -0.6511  0.0549 -0.1601
 6938SOL    HW227518   6.220   4.003   0.227  0.5754  0.6128  0.4637
 6938SOL    HW327519   6.339   3.947   0.152 -0.2472 -0.6320  0.0415
 6938SOL    MW427520   6.269   3.935   0.202 -0.5404 -0.6314 -0.3743
 6939SOL     OW27521   0.773   1.054   5.992 -0.2765 -0.0643 -0.2241
 6939SOL    HW227522   0.724   1.039   6.073 -3.5418 -0.1675 -2.0430
 6939SOL    HW327523   0.705   1.070   5.926  2.2586  0.8732 -2.7929
 6939SOL    MW427524   0.757   1.054   5.994  0.1780  0.0711  0.4351
 6940SOL     OW27525   1.319   2.528   1.512  0.8669 -0.4125 -0.0731
 6940SOL    HW227526   1.248   2.552   1.452  2.0805 -0.6574 -1.6841
 6940SOL    HW327527   1.329   2.605   1.569  0.0128  0.0280 -0.4960
 6940SOL    MW427528   1.311   2.541   1.512 -0.5063  0.4414  0.0177
 6941SOL     OW27529   2.990   3.293   6.114 -0.2067  0.1351  0.3152
 6941SOL    HW227530   2.956   3.379   6.142 -0.2075 -0.1752  1.3123
 6941SOL    HW327531   2.972   3.289   6.021 -1.4471  0.6598  0.5178
 6941SOL    MW427532   2.983   3.304   6.106  0.4216  0.3196 -0.2153
 6942SOL     OW27533   2.504   1.063   3.762 -0.3678 -0.6861 -0.0858
 6942SOL    HW227534   2.490   0.988   3.704 -0.7591  0.1111 -1.0365
 6942SOL    HW327535   2.473   1.138   3.712  1.1523  0.2796  0.3877
 6942SOL    MW427536   2.498   1.063   3.748  0.5045  0.2828  0.2281
 6943SOL     OW27537   3.740   2.953   1.855 -0.0764 -0.3258 -0.1231
 6943SOL    HW227538   3.810   2.913   1.805  1.6267  1.2199  0.9134
 6943SOL    HW327539   3.732   3.042   1.819 -0.3978  0.0426  0.8141
 6943SOL    MW427540   3.748   2.960   1.844 -0.4874 -0.3925 -0.0196
 6944SOL     OW27541   0.600   0.649   3.966  0.3300 -0.3105 -0.0920
 6944SOL    HW227542   0.519   0.604   3.944  0.2108  0.2714 -0.9180
 6944SOL    HW327543   0.639   0.597   4.036 -0.5996 -0.7691  0.0959
 6944SOL    MW427544   0.595   0.636   3.972 -0.2088 -0.8495  0.0127
 6945SOL     OW27545   2.257   2.714   2.595 -0.1132  0.2344  0.2920
 6945SOL    HW227546   2.258   2.667   2.679 -2.3172  1.4137  1.0637
 6945SOL    HW327547   2.225   2.649   2.532  0.5045 -0.3592  0.5790
 6945SOL    MW427548   2.253   2.699   2.598  0.1502 -0.1761  0.3373
 6946SOL     OW27549   4.951   1.896   1.325  0.3653  0.5339  0.0134
 6946SOL    HW227550   4.860   1.925   1.326  0.5390  1.1503 -0.6932
 6946SOL    HW327551   4.979   1.909   1.235  0.1111 -3.1101 -0.7389
 6946SOL    MW427552   4.943   1.902   1.314  0.3544 -0.0792 -0.0827
 6947SOL     OW27553   0.399   4.976   2.711  0.1393 -0.1507  0.1124
 6947SOL    HW227554   0.332   4.952   2.648  0.5744  0.4706 -0.6093
 6947SOL    HW327555   0.455   5.037   2.664  1.4111 -0.9088  0.5779
 6947SOL    MW427556   0.398   4.981   2.696  0.4939  0.0036  0.6872
 6948SOL     OW27557   3.653   2.132   1.453  0.0465 -0.2385  0.1891
 6948SOL    HW227558   3.736   2.155   1.411  0.7026  0.0232  1.5721
 6948SOL    HW327559   3.589   2.192   1.414  0.8231  0.6666  0.2669
 6948SOL    MW427560   3.655   2.143   1.442 -0.3172  0.2691  0.1118
 6949SOL     OW27561   0.464   5.131   2.951 -0.4741 -0.1990 -0.4503
 6949SOL    HW227562   0.432   5.219   2.929 -1.4336 -1.0133 -2.5125
 6949SOL    HW327563   0.425   5.074   2.886  1.5286 -1.9459 -0.2265
 6949SOL    MW427564   0.455   5.135   2.940 -0.1074  0.7444 -0.3969
 6950SOL     OW27565   1.196   6.025   4.487  0.4037  0.1203  0.1938
 6950SOL    HW227566   1.243   6.104   4.463  2.3807 -0.5325  1.6436
 6950SOL    HW327567   1.106   6.054   4.504  0.6886  1.7412 -0.8693
 6950SOL    MW427568   1.190   6.039   4.486  0.0151  0.0914  0.8244
 6951SOL     OW27569   5.574   0.447   5.851  0.1851 -0.1697  0.0861
 6951SOL    HW227570   5.552   0.359   5.881 -0.9925  0.3232  0.7020
 6951SOL    HW327571   5.594   0.496   5.930  0.8321  0.1292 -0.2518
 6951SOL    MW427572   5.574   0.442   5.865  0.1020 -0.4882  0.0461
 6952SOL     OW27573   6.139   1.145   0.034 -0.4177 -0.4728  0.4349
 6952SOL    HW227574   6.199   1.122   0.105 -1.5063 -0.9263  1.2299
 6952SOL    HW327575   6.157   1.237   0.017  1.7315 -1.0024 -0.5744
 6952SOL    MW427576   6.150   1.154   0.041 -0.1631 -0.4794 -0.2968
 6953SOL     OW27577   5.338   2.169   5.222  0.1887 -0.4485 -0.5790
 6953SOL    HW227578   5.386   2.184   5.142 -2.1387  1.3564 -1.7740
 6953SOL    HW327579   5.401   2.185   5.292  1.0827  3.3361 -2.0038
 6953SOL    MW427580   5.352   2.173   5.221 -0.0727 -1.0057 -0.2325
 6954SOL     OW27581   6.465   4.843   0.663 -0.2459  0.3032  0.4661
 6954SOL    HW227582   6.510   4.847   0.748 -2.1982  2.8571  1.5111
 6954SOL    HW327583   6.534   4.856   0.599  0.9175  1.4684  1.8694
 6954SOL    MW427584   6.480   4.845   0.666  0.1968 -0.3500  0.2407
 6955SOL     OW27585   2.108   2.888   2.322  0.5115 -0.4487 -0.2609
 6955SOL    HW227586   2.069   2.976   2.318  0.5714 -0.4435 -0.7444
 6955SOL    HW327587   2.098   2.862   2.414 -0.2154 -0.2591 -0.2765
 6955SOL    MW427588   2.101   2.897   2.334 -0.2391  0.6908  0.1924
 6956SOL     OW27589   3.195   5.395   1.749  0.7256  0.1805  0.1469
 6956SOL    HW227590   3.217   5.460   1.816 -2.1568  0.7231  0.6999
 6956SOL    HW327591   3.160   5.321   1.798  0.7055 -0.3534 -0.6547
 6956SOL    MW427592   3.193   5.394   1.765 -0.0178 -0.5540 -0.1108
 6957SOL     OW27593   5.082   1.922   2.008  0.2383 -0.0892  0.2061
 6957SOL    HW227594   5.137   1.956   2.079  0.3905  2.0424 -0.8456
 6957SOL    HW327595   5.139   1.924   1.931 -0.4480 -0.6950 -0.3311
 6957SOL    MW427596   5.097   1.927   2.008  0.4064  0.0578 -0.0032
 6958SOL     OW27597   4.324   3.977   0.897  0.1445 -0.1420 -0.4288
 6958SOL    HW227598   4.379   3.920   0.950  0.4634  0.5478 -0.0006
 6958SOL    HW327599   4.327   3.938   0.809  1.9891  0.3003 -0.6201
 6958SOL    MW427600   4.332   3.965   0.892 -0.2144  0.2495 -0.0949
 6959SOL     OW27601   2.092   3.151   1.967 -0.7681 -0.2194  0.8527
 6959SOL    HW227602   2.141   3.070   1.953 -0.3814  0.2216 -0.4979
 6959SOL    HW327603   2.152   3.221   1.941 -1.6838  0.3916  0.3035
 6959SOL    MW427604   2.106   3.149   1.962  0.0638 -0.4481  0.1053
 6960SOL     OW27605   4.162   6.378   0.331  0.3957 -0.3121 -0.2496
 6960SOL    HW227606   4.250   6.358   0.299  0.5357 -0.9734  0.5280
 6960SOL    HW327607   4.156   6.333   0.415 -0.5254  0.1089 -0.0790
 6960SOL    MW427608   4.173   6.370   0.338 -0.1332 -0.2343  0.2137
 6961SOL     OW27609   3.848   1.544   3.502  0.7641  0.2022  0.3259
 6961SOL    HW227610   3.823   1.452   3.512  0.3815  0.3505  0.7333
 6961SOL    HW327611   3.944   1.542   3.496  0.7710 -0.2031  0.5468
 6961SOL    MW427612   3.857   1.532   3.503  0.9480  0.0095  0.1587
 6962SOL     OW27613   2.696   5.344   2.679  0.3145 -0.0846 -0.1113
 6962SOL    HW227614   2.724   5.376   2.765  0.7550  1.6483 -0.8624
 6962SOL    HW327615   2.758   5.383   2.618 -2.3072  1.9829 -1.6317
 6962SOL    MW427616   2.708   5.353   2.682 -0.1189 -0.5119  0.7645
 6963SOL     OW27617   3.712   5.577   2.481 -0.4299 -0.3884  0.7251
 6963SOL    HW227618   3.756   5.660   2.500 -0.3309  0.1347 -1.4840
 6963SOL    HW327619   3.622   5.602   2.462 -0.2672 -0.6523 -0.5393
 6963SOL    MW427620   3.706   5.591   2.481  0.2242  0.4502 -0.2981
 6964SOL     OW27621   6.246   1.240   4.086  0.8635 -0.5825 -0.4512
 6964SOL    HW227622   6.233   1.220   4.178  0.0835 -0.0763 -0.4415
 6964SOL    HW327623   6.258   1.154   4.044  3.0017 -0.7283  0.3460
 6964SOL    MW427624   6.246   1.226   4.092  0.2520  0.0009 -0.3056
 6965SOL     OW27625   4.708   1.274   6.000  0.0564  0.0676  0.1582
 6965SOL    HW227626   4.774   1.292   6.067  1.4880 -1.5963 -0.6964
 6965SOL    HW327627   4.702   1.356   5.950  1.2878  0.3531  0.4373
 6965SOL    MW427628   4.716   1.287   6.002 -0.2159 -0.1430 -0.2955
 6966SOL     OW27629   2.033   2.555   0.266 -0.4105  0.2152  0.1242
 6966SOL    HW227630   1.979   2.632   0.246 -0.0543  0.7022  0.9873
 6966SOL    HW327631   2.096   2.550   0.194 -1.0090  0.1884 -0.4073
 6966SOL    MW427632   2.034   2.565   0.254 -0.5167  0.4045 -0.2687
 6967SOL     OW27633   3.594   4.275   2.696  0.0816  0.0386 -0.0365
 6967SOL    HW227634   3.604   4.225   2.777  0.0267 -0.3345 -0.2590
 6967SOL    HW327635   3.508   4.316   2.704  0.3561  0.5444  0.3888
 6967SOL    MW427636   3.584   4.274   2.708 -1.0580 -0.4747  0.2183
 6968SOL     OW27637   1.493   6.130   1.309 -0.4514 -0.1702 -0.7366
 6968SOL    HW227638   1.534   6.043   1.306 -1.0051 -0.5140  0.6883
 6968SOL    HW327639   1.431   6.130   1.236 -1.2536 -1.4233 -0.0984
 6968SOL    MW427640   1.490   6.118   1.299 -0.2754 -0.4123 -0.6413
 6969SOL     OW27641   2.308   6.031   0.159  0.1394  0.4302 -0.0483
 6969SOL    HW227642   2.372   6.085   0.205  0.3215  1.1584 -1.1011
 6969SOL    HW327643   2.355   5.950   0.140  0.8429  1.0219 -0.9605
 6969SOL    MW427644   2.323   6.028   0.162  0.5315  0.0625  0.4870
 6970SOL     OW27645   4.337   4.397   3.052 -0.4431 -0.1447  0.1568
 6970SOL    HW227646   4.294   4.363   2.974  0.2514 -1.9440  0.5190
 6970SOL    HW327647   4.418   4.436   3.020 -0.7400  0.2242 -0.1510
 6970SOL    MW427648   4.342   4.398   3.037  0.4390  0.1407  0.2087
 6971SOL     OW27649   2.304   4.180   5.059  0.4264 -0.2206 -0.2660
 6971SOL    HW227650   2.308   4.204   5.152 -0.6628 -0.6284 -0.1014
 6971SOL    HW327651   2.353   4.099   5.053 -2.0579 -1.9176  0.5828
 6971SOL    MW427652   2.311   4.173   5.071  0.1421 -0.0572  0.5757
 6972SOL     OW27653   4.791   1.556   5.929  0.2289 -0.0644  0.2841
 6972SOL    HW227654   4.740   1.620   5.879  2.2375  2.4533  1.2610
 6972SOL    HW327655   4.857   1.524   5.868 -1.5164 -2.3330 -0.5834
 6972SOL    MW427656   4.793   1.560   5.914 -0.5250 -0.2924 -0.8904
 6973SOL     OW27657   3.367   2.560   5.762 -0.2913 -0.1108 -0.0150
 6973SOL    HW227658   3.387   2.471   5.733 -0.7299  0.0917 -0.9445
 6973SOL    HW327659   3.283   2.552   5.808 -0.6749 -0.0599 -0.7050
 6973SOL    MW427660   3.359   2.547   5.765  0.1380 -0.1170 -0.1119
 6974SOL     OW27661   4.085   4.028   5.554  0.4246  0.2443  0.1126
 6974SOL    HW227662   4.130   4.106   5.522 -1.7908  1.5690  0.0302
 6974SOL    HW327663   4.085   3.968   5.479 -0.8574  1.5847 -1.0284
 6974SOL    MW427664   4.091   4.030   5.540  0.0846 -0.2015  0.2206
 6975SOL     OW27665   5.135   1.226   1.165 -0.4413  0.0226  0.2851
 6975SOL    HW227666   5.151   1.272   1.247  0.0677  0.3075  0.0331
 6975SOL    HW327667   5.063   1.275   1.124  0.1525  0.6546 -0.0196
 6975SOL    MW427668   5.128   1.239   1.170 -0.2216 -0.5456 -0.0410
 6976SOL     OW27669   5.051   5.489   2.492 -0.4498 -0.3365 -0.2659
 6976SOL    HW227670   5.065   5.537   2.410 -1.5357  0.4739 -0.0056
 6976SOL    HW327671   4.989   5.544   2.541  1.2296 -0.0757  1.7197
 6976SOL    MW427672   5.045   5.503   2.488 -0.1770  0.0945  0.4808
 6977SOL     OW27673   3.236   2.016   2.742  0.2776 -0.2274  0.0165
 6977SOL    HW227674   3.174   1.989   2.674 -0.0434  0.5219  0.0030
 6977SOL    HW327675   3.196   1.987   2.824  0.1614 -0.2114 -0.0344
 6977SOL    MW427676   3.222   2.009   2.744  0.2180 -0.1621 -0.0136
 6978SOL     OW27677   1.135   0.875   1.654 -0.6452 -0.2565 -0.1613
 6978SOL    HW227678   1.194   0.848   1.724 -0.0858  0.1260 -0.4750
 6978SOL    HW327679   1.062   0.813   1.659 -0.7786 -0.0310  0.9648
 6978SOL    MW427680   1.134   0.863   1.664  0.5392 -0.0114 -0.1725
 6979SOL     OW27681   3.044   4.996   0.560 -0.8527 -0.4334  0.5919
 6979SOL    HW227682   2.962   4.949   0.575 -0.7688 -0.6759  0.2827
 6979SOL    HW327683   3.112   4.929   0.564 -0.8250 -0.5310 -0.9586
 6979SOL    MW427684   3.042   4.981   0.563 -0.4842 -0.1487 -0.0234
 6980SOL     OW27685   5.137   5.613   0.762  0.5188 -0.2152 -0.1674
 6980SOL    HW227686   5.102   5.530   0.728 -0.6695  0.9613 -2.0313
 6980SOL    HW327687   5.228   5.614   0.733  1.3263 -1.9150  2.0301
 6980SOL    MW427688   5.145   5.602   0.753 -0.0203 -0.1436 -0.4958
 6981SOL     OW27689   2.917   4.263   1.019 -0.9002 -0.1754 -0.0716
 6981SOL    HW227690   2.864   4.256   0.940 -2.0646 -0.5363  0.7043
 6981SOL    HW327691   2.854   4.289   1.087  0.0895  0.2272  0.7062
 6981SOL    MW427692   2.901   4.265   1.018  0.0164  0.0486  0.4430
 6982SOL     OW27693   3.779   1.739   4.273 -0.2694 -0.0257  0.3283
 6982SOL    HW227694   3.728   1.741   4.354 -1.1386  2.4535 -0.1920
 6982SOL    HW327695   3.714   1.728   4.203  0.5318 -3.1075 -0.1260
 6982SOL    MW427696   3.764   1.738   4.274  0.5093 -0.0374  0.0975
 6983SOL     OW27697   0.641   2.769   3.567  0.6119 -0.1672 -0.0459
 6983SOL    HW227698   0.662   2.791   3.476  0.9194 -0.9828 -0.1785
 6983SOL    HW327699   0.549   2.794   3.577  1.1248  1.8675  0.0439
 6983SOL    MW427700   0.632   2.776   3.557 -0.1958  0.4210 -0.3624
 6984SOL     OW27701   3.710   3.312   5.158  0.1422  0.0495 -0.4395
 6984SOL    HW227702   3.706   3.223   5.192 -0.2107  0.7631  1.5591
 6984SOL    HW327703   3.765   3.306   5.081  2.3409 -1.4813  1.1124
 6984SOL    MW427704   3.717   3.300   5.153 -0.0988  0.5748  0.0013
 6985SOL     OW27705   1.888   0.844   4.779 -0.3462 -0.5962 -0.7881
 6985SOL    HW227706   1.914   0.855   4.687  1.1060  2.7675 -0.1274
 6985SOL    HW327707   1.970   0.840   4.827 -1.0746 -0.5104  0.5225
 6985SOL    MW427708   1.902   0.845   4.773  0.0541 -0.6531  0.3572
 6986SOL     OW27709   1.304   5.458   3.941 -0.6358  0.5733  0.1983
 6986SOL    HW227710   1.229   5.401   3.928  0.0432 -0.1660 -0.6102
 6986SOL    HW327711   1.342   5.430   4.025 -0.8231  0.4382  0.2374
 6986SOL    MW427712   1.299   5.447   3.950 -0.1550 -0.0663  0.0273
 6987SOL     OW27713   0.248   2.513   0.355 -0.2267 -0.3507  0.5213
 6987SOL    HW227714   0.315   2.446   0.369  0.0988 -0.3919 -1.0461
 6987SOL    HW327715   0.205   2.523   0.440 -0.3562 -2.6256  0.7854
 6987SOL    MW427716   0.251   2.505   0.368 -0.7279 -0.3838 -0.0764
 6988SOL     OW27717   3.165   5.074   0.827 -0.4726 -0.6752 -0.0307
 6988SOL    HW227718   3.130   5.163   0.838  0.6757 -0.3924  1.8160
 6988SOL    HW327719   3.120   5.040   0.750 -2.9453  0.5492  0.7552
 6988SOL    MW427720   3.154   5.081   0.818 -0.2689 -0.1340 -0.1835
 6989SOL     OW27721   4.312   0.144   0.560 -0.1687 -0.3833  0.1645
 6989SOL    HW227722   4.331   0.081   0.629  0.4939 -0.0260  0.3133
 6989SOL    HW327723   4.262   0.094   0.494  2.1097 -1.6284 -0.7208
 6989SOL    MW427724   4.308   0.129   0.560 -0.3177 -0.1114 -0.3533
 6990SOL     OW27725   5.608   2.294   1.466  0.2616  0.5514 -0.1074
 6990SOL    HW227726   5.603   2.205   1.502  1.1815  0.3839 -0.3651
 6990SOL    HW327727   5.542   2.343   1.515  1.5667  0.3720  1.9809
 6990SOL    MW427728   5.599   2.288   1.477  0.0346  0.0726 -0.4198
 6991SOL     OW27729   2.670   4.069   4.281 -0.4214  0.2381  0.0300
 6991SOL    HW227730   2.757   4.036   4.305 -0.4544  1.4102  1.9864
 6991SOL    HW327731   2.686   4.159   4.251 -0.9018  0.3030 -0.0367
 6991SOL    MW427732   2.684   4.077   4.280 -0.0064 -0.1963 -0.1184
 6992SOL     OW27733   0.603   1.212   0.899  0.4138 -0.1712  0.0491
 6992SOL    HW227734   0.659   1.214   0.822  0.4027 -1.8872 -0.0521
 6992SOL    HW327735   0.516   1.190   0.865  0.0328  0.7903  0.3784
 6992SOL    MW427736   0.599   1.209   0.885 -0.3518 -0.0994  0.0778
 6993SOL     OW27737   0.708   2.212   1.400 -0.1544 -0.3952 -0.3116
 6993SOL    HW227738   0.746   2.186   1.484  0.4535  1.2473 -0.0260
 6993SOL    HW327739   0.756   2.292   1.376 -2.6587  1.1717 -0.4744
 6993SOL    MW427740   0.719   2.219   1.408 -0.0287 -0.6341  0.7362
 6994SOL     OW27741   2.282   2.846   3.021  0.4908  0.0133 -0.1289
 6994SOL    HW227742   2.352   2.912   3.026  0.2704  0.6711 -3.5014
 6994SOL    HW327743   2.311   2.785   2.953 -0.7024 -1.6917  0.8241
 6994SOL    MW427744   2.295   2.847   3.013 -0.3469 -0.5632 -0.3374
 6995SOL     OW27745   0.902   1.264   1.063  0.3116 -0.6604  0.1685
 6995SOL    HW227746   0.960   1.336   1.087 -1.2485  0.7020  0.1019
 6995SOL    HW327747   0.843   1.255   1.138  0.0815 -1.4356 -0.1001
 6995SOL    MW427748   0.902   1.272   1.076 -0.0314  0.3658 -0.1459
 6996SOL     OW27749   1.566   5.111   5.921 -0.1536 -0.3235  0.4059
 6996SOL    HW227750   1.658   5.134   5.912 -0.6912  1.2301 -1.9911
 6996SOL    HW327751   1.542   5.141   6.009  1.3611  0.1774  0.6785
 6996SOL    MW427752   1.575   5.118   5.932 -0.2062  0.3734  0.3532
 6997SOL     OW27753   3.262   5.448   4.513 -0.1764 -0.5596 -0.0651
 6997SOL    HW227754   3.339   5.469   4.460  0.4176  1.4201  1.4828
 6997SOL    HW327755   3.196   5.420   4.449  0.9354  0.4421 -1.7188
 6997SOL    MW427756   3.263   5.447   4.497  0.2651  0.2864  0.3612
 6998SOL     OW27757   4.382   3.499   2.952  0.1739 -0.0235  0.5823
 6998SOL    HW227758   4.402   3.497   3.045 -0.1726 -2.3290  0.6513
 6998SOL    HW327759   4.429   3.424   2.915  0.0749  0.6662 -1.0615
 6998SOL    MW427760   4.391   3.489   2.959 -0.1709  0.3284 -0.4255
 6999SOL     OW27761   0.897   2.657   5.180  0.2496 -0.6163 -0.0733
 6999SOL    HW227762   0.929   2.661   5.271  0.9462 -3.3487 -0.1281
 6999SOL    HW327763   0.966   2.612   5.132 -1.4711 -2.1101 -1.2700
 6999SOL    MW427764   0.910   2.652   5.186 -0.3413 -0.0573 -0.3723
 7000SOL     OW27765   0.559   3.169   3.680  0.3886  0.0455  0.2421
 7000SOL    HW227766   0.464   3.164   3.689  0.2757  1.3054 -0.0881
 7000SOL    HW327767   0.587   3.078   3.674 -0.8729 -0.3159 -0.5076
 7000SOL    MW427768   0.550   3.156   3.681 -0.3692  0.2372 -0.2561
 7001SOL     OW27769   0.228   0.608   3.069  0.8131 -0.4060  0.8330
 7001SOL    HW227770   0.195   0.638   3.154 -1.1350  0.1303 -0.0572
 7001SOL    HW327771   0.266   0.686   3.029 -0.8407  0.0650  0.0844
 7001SOL    MW427772   0.228   0.622   3.075 -0.4737 -0.1090 -0.0809
 7002SOL     OW27773   3.098   0.033   4.279  0.1941 -0.1412 -0.1556
 7002SOL    HW227774   3.099  -0.043   4.221  0.1986  0.1589 -0.5580
 7002SOL    HW327775   3.095   0.108   4.219  0.7428  0.1896  0.2259
 7002SOL    MW427776   3.098   0.033   4.263  0.1172  0.3731 -0.1734
 7003SOL     OW27777   0.651   1.167   5.462 -0.3025 -0.0242 -0.1236
 7003SOL    HW227778   0.616   1.213   5.386 -1.2348 -1.1527 -0.4007
 7003SOL    HW327779   0.671   1.079   5.429 -0.8965 -0.5843  0.9664
 7003SOL    MW427780   0.649   1.161   5.447  0.0504  0.1025  0.5579
 7004SOL     OW27781   4.338   3.145   5.138  0.2187  0.1827 -0.3021
 7004SOL    HW227782   4.365   3.223   5.186 -0.3903  0.2967 -0.1348
 7004SOL    HW327783   4.387   3.074   5.180  0.5315  0.4303 -0.2431
 7004SOL    MW427784   4.348   3.146   5.150  0.0299  0.3227 -0.2292
 7005SOL     OW27785   4.621   1.559   5.085  0.1689  0.5567  0.0237
 7005SOL    HW227786   4.605   1.581   4.993  0.0626  1.2008  0.1957
 7005SOL    HW327787   4.684   1.487   5.082  0.3888  0.7694 -0.5460
 7005SOL    MW427788   4.627   1.552   5.072 -0.6069 -0.8273 -0.2501
 7006SOL     OW27789   1.014   3.784   0.713  0.1937  0.2228  0.1464
 7006SOL    HW227790   0.982   3.873   0.701 -2.1534 -0.5881 -0.0026
 7006SOL    HW327791   1.084   3.775   0.648  0.4856  1.9344  0.1821
 7006SOL    MW427792   1.019   3.794   0.703 -0.0354 -0.4047 -0.4572
 7007SOL     OW27793   3.086   6.275   4.643 -0.2905  0.3250 -0.2133
 7007SOL    HW227794   3.132   6.318   4.716 -1.5337  1.4407 -0.0508
 7007SOL    HW327795   3.155   6.230   4.594  1.3408  3.5126 -1.0989
 7007SOL    MW427796   3.101   6.275   4.646 -0.0252  0.1489 -0.4767
 7008SOL     OW27797   0.419   2.624   5.166 -0.4354 -0.0543  0.0751
 7008SOL    HW227798   0.484   2.583   5.224 -0.3040  1.9566  1.4356
 7008SOL    HW327799   0.357   2.553   5.147  1.6394 -1.8057 -0.5888
 7008SOL    MW427800   0.419   2.609   5.172  0.7035 -0.1399  0.7264
 7009SOL     OW27801   6.316   3.305   3.071 -0.1265  0.2537 -0.0558
 7009SOL    HW227802   6.335   3.399   3.071  0.8444  0.0659  0.0456
 7009SOL    HW327803   6.319   3.280   3.163 -0.6723  0.1710 -0.0580
 7009SOL    MW427804   6.319   3.314   3.083 -0.0260 -0.3475  0.0999
 7010SOL     OW27805   3.427   0.511   4.647 -0.0748  0.6680 -0.1648
 7010SOL    HW227806   3.492   0.580   4.634 -1.2421  1.5992 -1.4327
 7010SOL    HW327807   3.390   0.496   4.559 -0.5695 -0.8373  0.2746
 7010SOL    MW427808   3.430   0.518   4.634 -0.1659  0.8778  0.0007
 7011SOL     OW27809   3.703   3.614   1.412  0.0652 -0.0391 -0.3280
 7011SOL    HW227810   3.777   3.674   1.424 -0.6236  1.1142 -1.5556
 7011SOL    HW327811   3.626   3.671   1.414 -0.5468 -0.7051 -2.5313
 7011SOL    MW427812   3.703   3.629   1.414  0.2714 -0.1852  0.3491
 7012SOL     OW27813   6.090   1.804   2.529  0.5667  0.2047  0.4700
 7012SOL    HW227814   6.054   1.880   2.484 -0.7426 -0.4164  0.4179
 7012SOL    HW327815   6.178   1.830   2.555  0.2081  1.6576  0.2760
 7012SOL    MW427816   6.097   1.817   2.526  0.7084 -0.2685  0.5779
 7013SOL     OW27817   2.716   3.783   5.541 -0.7021 -0.1308 -0.2171
 7013SOL    HW227818   2.780   3.853   5.553 -1.5518  0.6153  0.0554
 7013SOL    HW327819   2.644   3.824   5.494 -1.9148 -0.3782  1.3229
 7013SOL    MW427820   2.715   3.797   5.537  0.0334 -0.5077 -0.4098
 7014SOL     OW27821   3.664   0.628   2.712  0.1321 -0.4516 -0.1957
 7014SOL    HW227822   3.635   0.695   2.774 -2.4967 -0.7485 -0.9524
 7014SOL    HW327823   3.704   0.678   2.641 -2.4694  0.5175 -1.1132
 7014SOL    MW427824   3.665   0.644   2.711 -0.1941  0.5656  0.8504
 7015SOL     OW27825   2.502   0.012   2.250 -0.5117  0.1705 -0.1063
 7015SOL    HW227826   2.499   0.104   2.226  0.4757  1.0145  2.5672
 7015SOL    HW327827   2.591  -0.016   2.228 -1.1473 -0.5114 -1.9419
 7015SOL    MW427828   2.513   0.020   2.244 -0.1810 -1.2599 -0.4247
 7016SOL     OW27829   6.229   3.812   2.255  0.2581 -0.6376  0.2799
 7016SOL    HW227830   6.294   3.850   2.313  0.9224 -0.4324 -0.5723
 7016SOL    HW327831   6.237   3.718   2.266  1.4691 -0.6539 -0.6195
 7016SOL    MW427832   6.238   3.805   2.264 -0.3531 -0.2227 -0.0409
 7017SOL     OW27833   4.922   3.152   3.931  0.0552  0.6441  0.3269
 7017SOL    HW227834   5.010   3.166   3.964  1.3113 -1.8899 -1.6334
 7017SOL    HW327835   4.871   3.126   4.008  1.6483 -0.2831  1.1236
 7017SOL    MW427836   4.927   3.150   3.945  0.1506 -0.2389  0.4994
 7018SOL     OW27837   3.649   2.372   2.442 -0.7337  0.1557 -0.2479
 7018SOL    HW227838   3.709   2.441   2.413 -0.8436 -0.0556 -0.9980
 7018SOL    HW327839   3.678   2.351   2.531 -0.2130  0.6295 -0.3010
 7018SOL    MW427840   3.661   2.378   2.450  0.3915  0.1416  0.2341
 7019SOL     OW27841   5.795   4.304   3.052 -0.1983  0.7760 -0.0233
 7019SOL    HW227842   5.882   4.263   3.054 -0.3047  0.5546  0.1134
 7019SOL    HW327843   5.741   4.243   3.002 -0.4454  0.5693  0.4888
 7019SOL    MW427844   5.800   4.290   3.046 -0.1638  0.1699  0.6402
 7020SOL     OW27845   1.766   3.860   0.906  0.4341 -0.1927 -0.1671
 7020SOL    HW227846   1.674   3.837   0.908 -0.3392  2.5964  1.5527
 7020SOL    HW327847   1.795   3.836   0.817 -1.6153 -2.0483 -0.4074
 7020SOL    MW427848   1.758   3.854   0.894  0.2822 -0.5906  0.2616
 7021SOL     OW27849   3.545   1.955   0.592 -0.2896  0.2131  0.1131
 7021SOL    HW227850   3.583   2.038   0.619 -1.7473  0.7097  0.7749
 7021SOL    HW327851   3.601   1.924   0.521  0.7066  1.3844  0.3622
 7021SOL    MW427852   3.557   1.962   0.586 -0.0437 -0.2052  0.1461
 7022SOL     OW27853   2.212   3.928   2.109 -0.0135 -0.9550 -0.2220
 7022SOL    HW227854   2.219   3.876   2.029 -0.1471 -2.2354  0.5681
 7022SOL    HW327855   2.215   3.864   2.180  0.5800  0.1928  0.8321
 7022SOL    MW427856   2.213   3.913   2.108 -0.0594 -0.0543 -0.4984
 7023SOL     OW27857   1.884   4.074   1.310 -0.0897  0.1676 -0.4883
 7023SOL    HW227858   1.906   4.010   1.242  1.4300 -1.4876  1.4366
 7023SOL    HW327859   1.838   4.024   1.377 -0.3547  1.4445  0.3237
 7023SOL    MW427860   1.881   4.059   1.310 -0.0629  0.3888 -0.5907
 7024SOL     OW27861   4.308   2.995   0.037 -0.6207 -0.0181  0.1925
 7024SOL    HW227862   4.340   2.925  -0.020  1.1935  0.8122  0.1283
 7024SOL    HW327863   4.266   2.949   0.110  1.1042 -1.2440  0.4840
 7024SOL    MW427864   4.307   2.980   0.039 -0.1034  0.3013 -0.7203
 7025SOL     OW27865   1.097   2.780   4.085  0.3915 -0.3197  0.8838
 7025SOL    HW227866   1.073   2.854   4.029 -0.4085  0.6170  2.3888
 7025SOL    HW327867   1.055   2.704   4.044  0.0561  0.2904  0.0657
 7025SOL    MW427868   1.088   2.780   4.072  0.2083  0.0659 -0.1887
 7026SOL     OW27869   3.645   1.551   4.108 -0.0370  0.5418  0.8184
 7026SOL    HW227870   3.554   1.568   4.133 -1.1546 -1.8049 -1.1053
 7026SOL    HW327871   3.681   1.499   4.180 -1.6592 -2.0781 -0.1171
 7026SOL    MW427872   3.638   1.546   4.120 -0.4539  0.0696 -0.1247
 7027SOL     OW27873   3.997   5.254   4.799  0.8585  0.4474  0.2551
 7027SOL    HW227874   3.962   5.268   4.711  2.1160  0.6143 -0.2394
 7027SOL    HW327875   3.934   5.196   4.841 -0.1554  0.9763 -0.4903
 7027SOL    MW427876   3.984   5.248   4.793  0.0134 -0.0944 -0.7544
 7028SOL     OW27877   2.510   6.014   1.317 -0.4822 -0.1500 -0.5648
 7028SOL    HW227878   2.490   5.982   1.404 -0.0754  1.6338  0.2295
 7028SOL    HW327879   2.568   6.088   1.331 -0.4271  0.2045 -2.3561
 7028SOL    MW427880   2.515   6.019   1.330 -0.1588 -0.4677 -0.5638
 7029SOL     OW27881   1.622   5.587   1.171  0.1331 -0.6731 -0.3474
 7029SOL    HW227882   1.572   5.510   1.141  0.5835 -0.6665 -1.1305
 7029SOL    HW327883   1.711   5.571   1.142 -0.0027  0.7474 -1.7257
 7029SOL    MW427884   1.627   5.575   1.163 -0.0334 -0.7287  0.8536
 7030SOL     OW27885   1.114   2.790   6.222  0.2400 -0.0595 -0.4419
 7030SOL    HW227886   1.074   2.876   6.229  1.0764  0.2134  1.7960
 7030SOL    HW327887   1.201   2.807   6.186 -0.5471 -0.3366 -2.6159
 7030SOL    MW427888   1.120   2.804   6.218 -0.2090 -0.1081 -0.6778
 7031SOL     OW27889   5.090   5.652   6.271  0.4217  0.2006 -0.7860
 7031SOL    HW227890   5.133   5.634   6.354  0.7852  0.3904 -0.9325
 7031SOL    HW327891   5.012   5.596   6.272  0.4661  0.1448 -0.3551
 7031SOL    MW427892   5.085   5.642   6.282  0.3739 -0.4839  0.4409
 7032SOL     OW27893   2.290   5.249   1.944  0.6690  0.7081  0.2728
 7032SOL    HW227894   2.363   5.280   1.998  2.3069 -1.8693 -0.2421
 7032SOL    HW327895   2.300   5.295   1.860  0.4871  1.8071  0.8384
 7032SOL    MW427896   2.301   5.259   1.940 -0.0268 -0.0117  0.1972
 7033SOL     OW27897   2.971   5.829   4.474 -0.0135 -0.3985  0.2076
 7033SOL    HW227898   2.911   5.782   4.416  0.9124 -0.8492 -0.4250
 7033SOL    HW327899   3.019   5.760   4.520  0.4653 -0.0648  0.2216
 7033SOL    MW427900   2.969   5.813   4.472 -0.2325  0.3127  0.3655
 7034SOL     OW27901   0.699   1.601   5.304 -0.3803 -0.0201  0.0515
 7034SOL    HW227902   0.697   1.697   5.310  1.7711  0.0099  1.3472
 7034SOL    HW327903   0.654   1.571   5.383  0.9463 -0.0008  0.8512
 7034SOL    MW427904   0.693   1.610   5.315  0.0281 -0.0981 -0.3177
 7035SOL     OW27905   4.395   4.085   4.798  0.5658 -0.2717  0.1578
 7035SOL    HW227906   4.387   4.114   4.889 -0.9408  2.2487 -0.7210
 7035SOL    HW327907   4.310   4.101   4.759  1.4599 -0.4134 -1.9816
 7035SOL    MW427908   4.383   4.091   4.805  0.0973  0.1582  0.0421
 7036SOL     OW27909   2.802   1.437   3.788 -0.6784 -0.6060 -0.3265
 7036SOL    HW227910   2.806   1.454   3.694  1.2815 -0.7726 -0.3098
 7036SOL    HW327911   2.775   1.520   3.826  1.7206  0.4748 -0.8171
 7036SOL    MW427912   2.799   1.450   3.780 -0.4411  0.4654 -0.3192
 7037SOL     OW27913   4.259   5.873   5.338 -0.5960  0.5303 -0.5158
 7037SOL    HW227914   4.280   5.812   5.267  1.7050  0.6090  0.0326
 7037SOL    HW327915   4.328   5.939   5.334 -0.2759  0.4093  1.9158
 7037SOL    MW427916   4.271   5.874   5.328  0.4840 -0.0765 -0.2075
 7038SOL     OW27917   4.098   1.182   2.193 -0.3841  0.4610  0.2704
 7038SOL    HW227918   4.055   1.196   2.278 -1.5059 -1.5090  0.0837
 7038SOL    HW327919   4.127   1.091   2.196 -0.0488  0.4959 -1.2985
 7038SOL    MW427920   4.096   1.172   2.205  0.0402 -0.8096 -0.2101
 7039SOL     OW27921   6.197   2.823   5.620  0.2683  0.4505  0.3448
 7039SOL    HW227922   6.281   2.866   5.603  0.7176 -1.0219 -1.5171
 7039SOL    HW327923   6.131   2.890   5.604  1.0482  1.2070  0.2730
 7039SOL    MW427924   6.200   2.837   5.615 -0.3903  0.3601  0.0989
 7040SOL     OW27925   2.906   6.130   6.377 -0.0689 -0.1551 -0.1251
 7040SOL    HW227926   2.883   6.111   6.468 -1.3618 -1.8007 -0.7391
 7040SOL    HW327927   2.945   6.048   6.345  1.2715  0.7107 -0.7976
 7040SOL    MW427928   2.908   6.117   6.385  0.3850  0.5418  0.4533
 7041SOL     OW27929   3.677   4.190   4.380  0.1546 -0.0124 -0.1310
 7041SOL    HW227930   3.688   4.095   4.386  1.1941 -0.0337 -1.6366
 7041SOL    HW327931   3.690   4.221   4.469  1.5807 -1.1542  0.1124
 7041SOL    MW427932   3.680   4.181   4.393  0.0993  0.5508 -0.1255
 7042SOL     OW27933   0.845   3.961   5.796 -0.3109  0.0195 -0.0265
 7042SOL    HW227934   0.870   4.017   5.722 -0.7498  0.5440  0.2215
 7042SOL    HW327935   0.901   3.884   5.786  2.5006  1.7375  1.3072
 7042SOL    MW427936   0.856   3.958   5.785  0.1441  0.1078 -0.5938
 7043SOL     OW27937   4.276   6.069   4.904 -0.1552  0.5863 -0.4450
 7043SOL    HW227938   4.281   6.149   4.958  0.4492 -0.7698  1.6074
 7043SOL    HW327939   4.365   6.054   4.874 -0.0379  0.0584  0.1501
 7043SOL    MW427940   4.288   6.078   4.907  0.6668  0.1961 -0.2532
 7044SOL     OW27941   1.315   2.599   1.859  0.0876  0.1111  0.3251
 7044SOL    HW227942   1.396   2.649   1.867  0.7388 -1.0131  1.1925
 7044SOL    HW327943   1.272   2.612   1.944 -0.6444  0.6944 -0.1305
 7044SOL    MW427944   1.320   2.607   1.871 -0.2273  0.1375 -0.5356
 7045SOL     OW27945   4.812   4.350   4.315  0.2933  0.0121 -0.2926
 7045SOL    HW227946   4.821   4.359   4.409  1.9919 -1.3748 -0.2685
 7045SOL    HW327947   4.836   4.436   4.280 -1.6479  0.9512  0.5386
 7045SOL    MW427948   4.817   4.363   4.322 -0.1435  0.4773  0.5679
 7046SOL     OW27949   5.830   2.766   2.032 -0.7167  0.0866  0.0210
 7046SOL    HW227950   5.752   2.740   1.982 -0.6609 -0.1740  0.0691
 7046SOL    HW327951   5.839   2.859   2.014 -1.8913  0.4485  1.1747
 7046SOL    MW427952   5.821   2.775   2.023 -0.1668  0.4625 -0.8338
 7047SOL     OW27953   2.738   6.217   1.398 -0.1168 -0.1211  0.3933
 7047SOL    HW227954   2.810   6.194   1.339  0.6435  0.6781  0.9761
 7047SOL    HW327955   2.714   6.306   1.372 -1.1267 -0.5005 -0.0070
 7047SOL    MW427956   2.745   6.226   1.386  0.8100 -0.2016  0.0919
 7048SOL     OW27957   1.013   0.536   5.743  0.2189  0.2030  0.2969
 7048SOL    HW227958   1.048   0.564   5.658 -1.5716  0.1933 -0.4824
 7048SOL    HW327959   1.050   0.599   5.805 -1.6584  2.8673 -1.0687
 7048SOL    MW427960   1.023   0.548   5.740 -0.9625 -0.3714  0.5707
 7049SOL     OW27961   4.304   3.685   0.185  0.5377 -0.6335 -0.3129
 7049SOL    HW227962   4.224   3.636   0.173  0.4056 -0.7168  0.7545
 7049SOL    HW327963   4.329   3.715   0.098 -2.0146  1.5293 -0.4267
 7049SOL    MW427964   4.297   3.683   0.172  0.5710 -0.0449 -0.3788
 7050SOL     OW27965   5.934   6.292   5.265 -0.1276  0.0708 -0.0187
 7050SOL    HW227966   5.935   6.292   5.360 -0.2398 -1.1715 -0.0060
 7050SOL    HW327967   5.859   6.348   5.242  1.0009  1.8893  0.5630
 7050SOL    MW427968   5.924   6.300   5.274  0.0406  0.3098  0.4981
 7051SOL     OW27969   3.433   2.705   5.241 -0.1126 -0.1333 -0.2960
 7051SOL    HW227970   3.408   2.790   5.278  2.0701  0.8014 -0.8365
 7051SOL    HW327971   3.426   2.645   5.315 -0.4665  0.7654  0.4293
 7051SOL    MW427972   3.429   2.709   5.256  0.1679  0.0157  0.0789
 7052SOL     OW27973   2.721   0.990   4.445 -0.4849  0.2717  0.0843
 7052SOL    HW227974   2.723   1.068   4.391  0.8116 -0.0493 -0.3634
 7052SOL    HW327975   2.806   0.988   4.489 -0.6881 -0.6182  0.4755
 7052SOL    MW427976   2.732   1.000   4.444 -0.0919 -0.6550 -0.4003
 7053SOL     OW27977   4.808   6.192   2.312  0.0245  0.2705 -0.3965
 7053SOL    HW227978   4.778   6.150   2.232 -1.9533 -0.8698  0.8584
 7053SOL    HW327979   4.796   6.126   2.380 -0.1091  1.8119  1.1447
 7053SOL    MW427980   4.803   6.178   2.310 -0.1319  0.4198 -0.1693
 7054SOL     OW27981   6.059   4.875   3.971  0.0599 -0.0982  0.6302
 7054SOL    HW227982   6.126   4.840   3.911 -0.5868 -0.9394  0.3724
 7054SOL    HW327983   6.104   4.883   4.055  0.9844  1.1025  0.0579
 7054SOL    MW427984   6.074   4.871   3.974 -0.4683  0.4272  0.4899
 7055SOL     OW27985   5.430   6.158   5.868 -0.4008  0.5796 -0.3069
 7055SOL    HW227986   5.406   6.093   5.802  0.3046  0.7509 -0.7323
 7055SOL    HW327987   5.524   6.149   5.878 -0.6556 -0.5521  1.8530
 7055SOL    MW427988   5.439   6.148   5.861 -0.0975 -0.5185 -0.0645
 7056SOL     OW27989   1.581   5.627   5.792  0.0679 -0.4534 -0.3780
 7056SOL    HW227990   1.620   5.661   5.712 -1.6247  1.1084 -0.6140
 7056SOL    HW327991   1.603   5.692   5.859 -1.2044 -0.0520 -0.3107
 7056SOL    MW427992   1.589   5.640   5.791  0.1154  0.3918 -0.2800
 7057SOL     OW27993   4.375   4.508   0.726 -0.0179 -0.2060  0.5215
 7057SOL    HW227994   4.367   4.416   0.752  1.5172  0.0486  2.0364
 7057SOL    HW327995   4.398   4.554   0.806  0.4369  1.3312 -0.4509
 7057SOL    MW427996   4.377   4.502   0.740 -0.0877  0.0178  1.1139
 7058SOL     OW27997   0.771   6.056   1.121 -0.1332 -0.1370  0.5779
 7058SOL    HW227998   0.739   5.971   1.150  2.0402 -1.3230 -0.2426
 7058SOL    HW327999   0.761   6.054   1.026 -0.9314  0.9228  0.6320
 7058SOL    MW428000   0.766   6.044   1.113 -0.6116  0.2634  0.0749
 7059SOL     OW28001   5.769   2.394   2.397  0.0751 -0.8897  0.5111
 7059SOL    HW228002   5.848   2.442   2.370  0.0825 -0.0066  1.9798
 7059SOL    HW328003   5.702   2.421   2.334  0.7057 -0.8913 -0.1711
 7059SOL    MW428004   5.771   2.404   2.385 -0.1455  0.1185 -0.0563
 7060SOL     OW28005   5.874   4.393   5.501  0.2696  0.4074 -0.1230
 7060SOL    HW228006   5.820   4.319   5.473  0.2407  0.5722 -0.5147
 7060SOL    HW328007   5.919   4.362   5.579 -0.7757  0.4456  0.5091
 7060SOL    MW428008   5.873   4.379   5.507  0.1462  0.5945 -0.5443
 7061SOL     OW28009   2.541   5.358   3.878 -0.2605  0.8296 -0.0642
 7061SOL    HW228010   2.567   5.357   3.786 -0.3934 -0.4643 -0.0981
 7061SOL    HW328011   2.448   5.378   3.877 -0.5213 -0.3348 -0.2957
 7061SOL    MW428012   2.532   5.361   3.866 -0.1239 -0.1701 -0.0112
 7062SOL     OW28013   1.970   4.848   4.915 -0.0744 -0.0466  0.7109
 7062SOL    HW228014   1.986   4.938   4.885  0.5569 -0.0144  1.1228
 7062SOL    HW328015   2.058   4.811   4.928 -0.3289 -0.8005  0.3253
 7062SOL    MW428016   1.984   4.855   4.913 -0.0568 -0.5227 -0.1976
 7063SOL     OW28017   4.611   5.992   0.519 -0.1572 -0.0022  0.3243
 7063SOL    HW228018   4.697   5.949   0.521  0.5085  1.0172 -2.3834
 7063SOL    HW328019   4.567   5.956   0.443 -2.3196 -0.6713  1.7807
 7063SOL    MW428020   4.617   5.982   0.509  0.0690  0.1187 -0.1823
 7064SOL     OW28021   4.558   2.347   5.074 -0.6520  0.1000 -0.3443
 7064SOL    HW228022   4.586   2.372   4.986 -0.5717  0.5558 -0.1941
 7064SOL    HW328023   4.466   2.373   5.078 -0.8148 -0.4414 -0.4833
 7064SOL    MW428024   4.550   2.354   5.063 -0.3604  0.2735  0.0379
 7065SOL     OW28025   1.541   0.723   4.232  0.0648  0.4049 -0.1802
 7065SOL    HW228026   1.450   0.752   4.224 -0.8296 -2.3539 -1.5879
 7065SOL    HW328027   1.540   0.662   4.306  0.3575 -0.7881 -1.1168
 7065SOL    MW428028   1.529   0.719   4.241 -0.8335 -0.5043  0.0531
 7066SOL     OW28029   1.067   2.650   1.731 -0.1556  0.0251 -0.2042
 7066SOL    HW228030   1.152   2.628   1.769 -0.9436 -0.1063  1.5863
 7066SOL    HW328031   1.022   2.566   1.721 -0.4322  0.1784 -0.2564
 7066SOL    MW428032   1.072   2.636   1.735 -0.1976 -0.4223  0.1697
 7067SOL     OW28033   1.324   6.067   3.467 -0.2390 -0.0458  0.3929
 7067SOL    HW228034   1.319   6.003   3.538 -1.2078  0.3921  0.7350
 7067SOL    HW328035   1.319   6.016   3.387 -0.0136 -0.4745  0.6491
 7067SOL    MW428036   1.323   6.052   3.466 -0.7780  0.1750  0.1947
 7068SOL     OW28037   1.238   5.347   3.585  0.2696 -0.1754 -0.8017
 7068SOL    HW228038   1.300   5.409   3.546  1.9776 -1.3822 -0.1455
 7068SOL    HW328039   1.202   5.298   3.511 -0.8278  1.2941 -1.2934
 7068SOL    MW428040   1.241   5.349   3.570 -0.7434 -0.2224 -0.3670
 7069SOL     OW28041   2.785   5.837   1.532  0.0616 -0.2388 -0.5082
 7069SOL    HW228042   2.809   5.871   1.446  2.7331 -0.5574  0.0297
 7069SOL    HW328043   2.781   5.742   1.519 -1.1260 -0.1904 -0.6022
 7069SOL    MW428044   2.788   5.829   1.519  0.5126 -0.1049 -0.3024
 7070SOL     OW28045   1.017   3.834   1.735  0.1829  0.0086  0.4992
 7070SOL    HW228046   0.994   3.861   1.646 -0.6972  0.2780  0.7882
 7070SOL    HW328047   0.976   3.748   1.746  0.4415 -0.1043  0.5803
 7070SOL    MW428048   1.009   3.826   1.725 -1.0408 -0.2526  0.0517
 7071SOL     OW28049   5.871   4.960   6.296 -0.2341  0.2502  0.0913
 7071SOL    HW228050   5.853   4.870   6.325  0.3527  0.3479  0.7837
 7071SOL    HW328051   5.795   5.010   6.327  0.2518  0.3004  1.2732
 7071SOL    MW428052   5.858   4.955   6.304  0.0154  0.3249  0.0324
 7072SOL     OW28053   6.181   5.837   3.037  0.3579  0.0360  0.5165
 7072SOL    HW228054   6.165   5.790   3.119 -1.6685 -0.5491 -0.1590
 7072SOL    HW328055   6.178   5.930   3.062  0.2329 -0.1407  1.1846
 7072SOL    MW428056   6.179   5.843   3.051  0.0562 -0.2807 -0.0135
 7073SOL     OW28057   4.864   0.381   0.072  0.8037  0.0662 -0.0628
 7073SOL    HW228058   4.957   0.372   0.095  1.1492  0.2383 -1.3113
 7073SOL    HW328059   4.844   0.301   0.023  0.5947  0.5213 -0.7291
 7073SOL    MW428060   4.874   0.369   0.068  0.4731  0.0311  0.3978
 7074SOL     OW28061   3.927   3.212   1.418  0.3274 -0.2675  0.5844
 7074SOL    HW228062   3.900   3.140   1.362 -1.6886 -0.9544  2.2970
 7074SOL    HW328063   3.851   3.270   1.420  1.1745  0.8732  0.8751
 7074SOL    MW428064   3.913   3.210   1.411 -0.2202 -0.3101  0.1903
 7075SOL     OW28065   4.960   6.049   0.313 -0.4351  0.1541  0.3316
 7075SOL    HW228066   5.037   6.042   0.369 -0.4102 -1.4250  0.1557
 7075SOL    HW328067   4.895   6.095   0.367  0.3819  0.8248  0.7538
 7075SOL    MW428068   4.961   6.054   0.328  0.2251  0.0794  0.1254
 7076SOL     OW28069   5.057   4.728   3.832  1.0450 -0.2366  0.4889
 7076SOL    HW228070   5.152   4.741   3.838  1.0794 -1.1245  2.6229
 7076SOL    HW328071   5.044   4.638   3.859 -0.3109 -0.6417 -1.3605
 7076SOL    MW428072   5.068   4.718   3.836 -0.1426 -0.0361 -0.2375
 7077SOL     OW28073   2.770   5.901   5.609  0.7579  0.5642 -0.0852
 7077SOL    HW228074   2.849   5.954   5.599  0.5706  0.6178 -1.4402
 7077SOL    HW328075   2.766   5.849   5.529  0.2323 -0.5505  0.6474
 7077SOL    MW428076   2.780   5.901   5.597  0.5624  0.2730 -0.2755
 7078SOL     OW28077   1.806   2.244   1.304 -0.2173 -0.1176  0.6814
 7078SOL    HW228078   1.834   2.254   1.213 -2.1858 -1.2419 -0.1114
 7078SOL    HW328079   1.771   2.330   1.328 -1.4694 -0.3331 -0.3013
 7078SOL    MW428080   1.805   2.257   1.295 -0.0843 -0.4409 -0.5714
 7079SOL     OW28081   3.547   5.921   1.915  0.1576  0.8355  0.1861
 7079SOL    HW228082   3.523   5.965   1.996  1.2381  2.2839 -0.2281
 7079SOL    HW328083   3.496   5.965   1.847  0.0858  0.3988 -0.0427
 7079SOL    MW428084   3.537   5.933   1.916 -0.0468 -0.2567  0.3085
 7080SOL     OW28085   2.983   2.120   6.339 -0.6594 -0.3540  0.2818
 7080SOL    HW228086   3.067   2.163   6.320 -1.6139  1.2483 -0.4865
 7080SOL    HW328087   3.004   2.027   6.336  1.2538  0.0103  0.8838
 7080SOL    MW428088   2.997   2.113   6.336 -0.2141  0.6374 -0.1567
 7081SOL     OW28089   4.124   4.098   4.736  0.0525 -0.2689  0.6365
 7081SOL    HW228090   4.102   4.024   4.793 -1.5453  0.7405  1.3996
 7081SOL    HW328091   4.058   4.096   4.668  0.4007  0.0750  0.2823
 7081SOL    MW428092   4.113   4.088   4.735  0.1104 -0.0715 -0.0417
 7082SOL     OW28093   1.086   1.634   2.070  0.1811 -0.5156  0.6758
 7082SOL    HW228094   1.175   1.639   2.034 -0.8077  0.5339 -1.8861
 7082SOL    HW328095   1.031   1.678   2.004 -1.9516  0.9545  3.2201
 7082SOL    MW428096   1.090   1.641   2.057  0.5477 -0.3204  0.4593
 7083SOL     OW28097   1.437   2.239   5.598  0.0264 -0.3044 -0.8175
 7083SOL    HW228098   1.477   2.271   5.678  0.9088  0.9246 -1.7087
 7083SOL    HW328099   1.356   2.288   5.590 -0.3708 -0.8787 -0.3694
 7083SOL    MW428100   1.432   2.249   5.607  0.2157 -0.3528  0.3404
 7084SOL     OW28101   1.536   4.515   2.538  0.6821 -0.4035 -0.3233
 7084SOL    HW228102   1.466   4.524   2.603  0.8420 -1.0014 -0.0595
 7084SOL    HW328103   1.538   4.600   2.493  0.0728 -0.2369 -0.0521
 7084SOL    MW428104   1.527   4.528   2.541  0.4911 -0.2261 -0.2069
 7085SOL     OW28105   0.270   1.265   0.569  0.0097  0.1392 -0.1257
 7085SOL    HW228106   0.225   1.292   0.489  0.1040  1.0238  0.1055
 7085SOL    HW328107   0.291   1.347   0.613 -1.7791 -0.3101  1.7742
 7085SOL    MW428108   0.267   1.279   0.564  0.0502 -0.1968 -0.1576
 7086SOL     OW28109   2.251   0.389   4.766  0.0606 -0.2577 -0.3040
 7086SOL    HW228110   2.232   0.307   4.811  0.4136 -0.1325  0.0849
 7086SOL    HW328111   2.216   0.377   4.678  0.5331 -1.0122 -0.4010
 7086SOL    MW428112   2.244   0.377   4.760  0.2675  0.0422 -0.3743
 7087SOL     OW28113   0.290   1.924   2.168  0.2096 -0.3312  0.5272
 7087SOL    HW228114   0.276   2.008   2.212  0.6256 -0.2230  0.4581
 7087SOL    HW328115   0.253   1.859   2.227 -0.2440 -0.0843  0.5155
 7087SOL    MW428116   0.283   1.927   2.181  0.0838 -0.2876 -0.0012
 7088SOL     OW28117   2.790   0.164   2.563  0.7236  0.0308 -0.4383
 7088SOL    HW228118   2.848   0.158   2.487  2.2572 -0.0211  0.6935
 7088SOL    HW328119   2.781   0.074   2.593  0.8703  0.1537 -0.0218
 7088SOL    MW428120   2.796   0.151   2.557 -0.0719 -0.4001 -0.4672
 7089SOL     OW28121   4.606   5.670   1.874 -0.0022 -0.1018 -0.0866
 7089SOL    HW228122   4.523   5.664   1.826 -0.3345 -1.4069  0.6261
 7089SOL    HW328123   4.635   5.580   1.884  0.3372  0.1659  1.6795
 7089SOL    MW428124   4.599   5.657   1.869  0.0415  0.2055 -0.0441
 7090SOL     OW28125   3.187   3.806   5.928 -0.2430 -0.1789 -0.3246
 7090SOL    HW228126   3.271   3.783   5.890  0.4824  1.9646 -0.1244
 7090SOL    HW328127   3.208   3.868   5.998 -1.9576  0.1931 -0.0889
 7090SOL    MW428128   3.201   3.811   5.932  0.2138 -0.0942  0.4233
 7091SOL     OW28129   0.451   2.926   1.615  0.4821  0.3723  0.2426
 7091SOL    HW228130   0.440   2.921   1.710  1.3204  0.5379  0.3572
 7091SOL    HW328131   0.407   2.848   1.581 -1.1176  1.0657  0.6388
 7091SOL    MW428132   0.444   2.915   1.623  0.2060 -0.2664 -0.3578
 7092SOL     OW28133   1.525   3.708   0.268  0.2016 -0.2145  0.3714
 7092SOL    HW228134   1.450   3.768   0.261  0.9887  0.8066  0.3805
 7092SOL    HW328135   1.532   3.667   0.182 -1.2360 -1.4142  0.7919
 7092SOL    MW428136   1.516   3.711   0.256 -0.2189  0.0434  0.4407
 7093SOL     OW28137   5.785   4.129   6.226 -0.0023  0.0324 -0.3966
 7093SOL    HW228138   5.851   4.139   6.156  0.9059  0.9413  0.5514
 7093SOL    HW328139   5.722   4.199   6.209 -1.4764 -1.5974 -2.0373
 7093SOL    MW428140   5.786   4.139   6.214  0.0535  0.2991 -0.3074
 7094SOL     OW28141   1.812   3.700   0.425  0.0651 -0.3141  0.5175
 7094SOL    HW228142   1.761   3.781   0.421 -0.2066 -0.5206 -1.0594
 7094SOL    HW328143   1.752   3.636   0.464 -0.1231 -0.0277  0.6956
 7094SOL    MW428144   1.797   3.702   0.430  0.2493  0.4209 -0.5520
 7095SOL     OW28145   4.749   6.285   1.036 -0.5668  0.0090 -0.1430
 7095SOL    HW228146   4.690   6.211   1.051 -1.5488  0.3501 -2.0571
 7095SOL    HW328147   4.713   6.355   1.090 -0.4883 -0.4608  0.5443
 7095SOL    MW428148   4.736   6.284   1.045 -0.3411  0.1081 -0.7246
 7096SOL     OW28149   2.720   1.645   3.930 -0.8696  0.0510 -0.4696
 7096SOL    HW228150   2.745   1.687   3.848 -1.5023  2.7065  0.5965
 7096SOL    HW328151   2.626   1.631   3.922 -0.9383  0.3466 -0.2065
 7096SOL    MW428152   2.711   1.649   3.918  0.0825 -0.1441 -0.2864
 7097SOL     OW28153   4.313   3.630   5.990  0.1717  0.3438 -0.0781
 7097SOL    HW228154   4.294   3.568   6.060  2.0174 -0.1587  0.0364
 7097SOL    HW328155   4.293   3.582   5.909 -1.9887  0.9356  0.0539
 7097SOL    MW428156   4.308   3.615   5.989 -0.5539  0.5287 -0.2262
 7098SOL     OW28157   4.462   0.498   4.364  0.5157  0.1480  0.3292
 7098SOL    HW228158   4.492   0.498   4.274  0.6789 -1.3160  0.3639
 7098SOL    HW328159   4.441   0.590   4.383 -1.9616  0.1808 -1.9980
 7098SOL    MW428160   4.463   0.511   4.355  0.4723  0.0721 -0.1975
 7099SOL     OW28161   6.181   0.541   5.173  0.3183 -0.0152  0.0741
 7099SOL    HW228162   6.116   0.472   5.161 -0.0347  0.1225  1.0786
 7099SOL    HW328163   6.204   0.568   5.084 -0.9724 -0.0911 -0.3081
 7099SOL    MW428164   6.175   0.536   5.160 -0.3043  0.2073  0.6491
 7100SOL     OW28165   1.007   0.850   5.610  0.3363 -0.3050  0.1679
 7100SOL    HW228166   0.921   0.816   5.583 -0.1294  0.0504  1.1306
 7100SOL    HW328167   1.001   0.944   5.595  0.7683 -0.3467 -0.2834
 7100SOL    MW428168   0.995   0.858   5.605 -0.3161  0.3491  0.8529
 7101SOL     OW28169   5.571   4.289   0.800 -0.1008  0.3583  0.8190
 7101SOL    HW228170   5.524   4.363   0.762  0.0488 -0.2071 -0.5414
 7101SOL    HW328171   5.625   4.256   0.729  0.3962 -0.6028  1.6136
 7101SOL    MW428172   5.572   4.294   0.786  0.2037  0.5955 -0.6515
 7102SOL     OW28173   5.799   3.791   4.787  0.1088  0.3791  0.1138
 7102SOL    HW228174   5.805   3.832   4.701 -2.2291 -0.9670 -0.7956
 7102SOL    HW328175   5.712   3.816   4.819  1.1393  1.3423  2.4088
 7102SOL    MW428176   5.788   3.800   4.780 -0.6649 -0.7315 -0.7857
 7103SOL     OW28177   6.302   0.664   1.415  0.1557 -0.0276 -0.3006
 7103SOL    HW228178   6.339   0.725   1.351  2.5096 -1.8889 -0.8974
 7103SOL    HW328179   6.237   0.614   1.366 -1.2191  1.3914 -0.0072
 7103SOL    MW428180   6.298   0.665   1.400 -0.4364  0.5193 -0.6852
 7104SOL     OW28181   6.338   2.556   5.916  0.3664  0.0772  0.0787
 7104SOL    HW228182   6.374   2.520   5.998  0.1574  0.4064  0.3152
 7104SOL    HW328183   6.415   2.586   5.868  0.4562  0.2645  0.3367
 7104SOL    MW428184   6.353   2.555   5.921  0.2735 -0.2595 -0.1150
 7105SOL     OW28185   1.404   1.741   1.717 -0.4631 -0.2397  0.2232
 7105SOL    HW228186   1.444   1.824   1.689 -0.2498 -0.7227 -0.9222
 7105SOL    HW328187   1.462   1.673   1.683 -0.1826 -0.8702  1.8595
 7105SOL    MW428188   1.417   1.743   1.709  0.2912  0.1880 -0.4347
 7106SOL     OW28189   1.565   1.569   1.541  0.0250  0.0941 -0.2656
 7106SOL    HW228190   1.516   1.492   1.571 -0.1032  0.7111  1.2278
 7106SOL    HW328191   1.653   1.556   1.576  0.8835 -0.8073 -2.5852
 7106SOL    MW428192   1.570   1.557   1.550 -0.1136  0.0776 -0.1133
 7107SOL     OW28193   5.461   0.263   1.966  0.1973 -0.0045  0.2797
 7107SOL    HW228194   5.405   0.279   2.042  0.6461 -0.0393  0.6222
 7107SOL    HW328195   5.527   0.333   1.969  0.9009 -0.6572  0.5890
 7107SOL    MW428196   5.462   0.274   1.976  0.4278 -0.5002  0.0057
 7108SOL     OW28197   1.579   0.979   4.526 -0.3280 -0.0473 -0.4285
 7108SOL    HW228198   1.599   0.896   4.569  0.4066  0.8768  1.1218
 7108SOL    HW328199   1.639   1.042   4.567  0.7058  0.8621 -3.1269
 7108SOL    MW428200   1.590   0.977   4.537 -0.2562  0.3678  0.1610
 7109SOL     OW28201   2.638   4.621   3.819  0.1192 -0.0477 -0.2243
 7109SOL    HW228202   2.642   4.692   3.883  1.7908 -0.2083 -0.0992
 7109SOL    HW328203   2.683   4.655   3.742  1.6004 -1.1635  0.0846
 7109SOL    MW428204   2.644   4.634   3.817 -0.0883 -0.0356  0.1967
 7110SOL     OW28205   4.685   5.421   2.142  0.1725 -0.0662  0.3753
 7110SOL    HW228206   4.592   5.416   2.163  0.2029 -1.4151  0.2652
 7110SOL    HW328207   4.727   5.367   2.209  0.8445  0.2147  0.1870
 7110SOL    MW428208   4.678   5.413   2.154  0.0048 -0.5423 -0.4149
 7111SOL     OW28209   3.039   5.976   1.391 -0.1260 -0.2263 -0.2320
 7111SOL    HW228210   2.973   6.032   1.351  0.8583  1.2104  0.0712
 7111SOL    HW328211   3.053   5.905   1.327 -1.0836  0.1080 -0.8230
 7111SOL    MW428212   3.032   5.974   1.377  0.2844  0.4214 -0.1463
 7112SOL     OW28213   4.546   0.991   1.230 -0.0907 -0.0381  0.6065
 7112SOL    HW228214   4.466   0.941   1.218  0.3108 -0.5556  0.0093
 7112SOL    HW328215   4.591   0.985   1.145  1.2826 -1.0080  1.3534
 7112SOL    MW428216   4.542   0.984   1.217  0.1840  0.1867  0.2760
 7113SOL     OW28217   4.315   2.538   0.306  0.0224  0.3797  0.0610
 7113SOL    HW228218   4.354   2.625   0.299  2.0442 -0.3760  1.0245
 7113SOL    HW328219   4.255   2.533   0.232 -1.7220  3.2999  1.0966
 7113SOL    MW428220   4.313   2.549   0.295 -0.3603 -0.4486 -0.3254
 7114SOL     OW28221   1.469   4.923   0.323 -0.7500 -0.7237 -0.2639
 7114SOL    HW228222   1.539   4.858   0.320 -2.1437 -2.3625  0.5015
 7114SOL    HW328223   1.512   5.004   0.346  0.9815 -1.5180 -0.5372
 7114SOL    MW428224   1.484   4.925   0.325 -0.1340 -0.4963  0.4590
 7115SOL     OW28225   1.116   5.143   5.821 -0.2671 -0.3825  1.1265
 7115SOL    HW228226   1.054   5.070   5.820  0.9318 -1.4531 -0.9364
 7115SOL    HW328227   1.061   5.221   5.811 -1.4014 -1.1297  1.2595
 7115SOL    MW428228   1.100   5.143   5.820  0.3184  0.2366  0.1813
 7116SOL     OW28229   2.036   6.171   5.792 -0.0765  0.7782 -0.2466
 7116SOL    HW228230   2.058   6.210   5.708 -0.5686 -0.4344 -0.9545
 7116SOL    HW328231   2.104   6.203   5.852 -0.0799  2.1518 -0.9299
 7116SOL    MW428232   2.048   6.181   5.789  0.4858  0.0346  0.5559
 7117SOL     OW28233   5.008   3.073   3.279  0.7395 -0.1877 -0.2106
 7117SOL    HW228234   4.930   3.055   3.226  2.0102 -0.5232 -2.0388
 7117SOL    HW328235   5.010   3.169   3.286 -0.2326 -0.1965  0.5390
 7117SOL    MW428236   4.998   3.083   3.273  0.0746 -0.2440 -0.0383
 7118SOL     OW28237   2.058   5.102   1.768  0.4540  0.8134  0.5327
 7118SOL    HW228238   2.027   5.097   1.678 -0.3655  1.3854  0.7716
 7118SOL    HW328239   2.147   5.066   1.765 -0.2723 -1.0301 -0.1388
 7118SOL    MW428240   2.066   5.097   1.756 -0.2911  0.0440 -0.4707
 7119SOL     OW28241   1.807   1.000   1.762  0.3667  0.1706  0.2656
 7119SOL    HW228242   1.766   1.046   1.688  0.8466 -1.0197 -0.7787
 7119SOL    HW328243   1.791   1.057   1.837  0.5514  1.8391 -0.8888
 7119SOL    MW428244   1.800   1.014   1.762 -0.1447  0.6097 -0.1047
 7120SOL     OW28245   3.638   1.225   5.807 -0.4342 -0.0216 -0.1622
 7120SOL    HW228246   3.559   1.201   5.758 -0.3184 -0.2802 -0.2232
 7120SOL    HW328247   3.690   1.276   5.745  0.7816 -2.2566 -1.1265
 7120SOL    MW428248   3.635   1.229   5.793  0.1124  0.9497 -0.0281
 7121SOL     OW28249   3.015   2.377   2.070 -0.3699 -0.4514  0.8715
 7121SOL    HW228250   3.106   2.371   2.040 -0.3395  0.6883  0.6563
 7121SOL    HW328251   2.963   2.378   1.989 -0.6030 -1.4103  1.0036
 7121SOL    MW428252   3.020   2.377   2.055  0.3510  0.0985 -0.4253
 7122SOL     OW28253   2.998   2.035   1.362 -0.4896  0.7351  0.2465
 7122SOL    HW228254   2.977   2.073   1.277 -1.5700  0.2719  0.2991
 7122SOL    HW328255   2.955   1.949   1.362  0.4483  0.2450  0.8184
 7122SOL    MW428256   2.990   2.028   1.351 -0.2694 -0.0390 -0.0062
 7123SOL     OW28257   2.596   0.690   5.596 -0.0009 -0.0760  0.3830
 7123SOL    HW228258   2.505   0.676   5.622 -0.5150  1.9464 -0.1709
 7123SOL    HW328259   2.595   0.683   5.500  0.0695  1.6212  0.2365
 7123SOL    MW428260   2.584   0.687   5.587  0.0126  0.2916 -0.4122
 7124SOL     OW28261   2.511   4.115   3.056 -0.0555 -0.4665  0.2003
 7124SOL    HW228262   2.490   4.079   2.970  2.6832 -0.5073 -0.5359
 7124SOL    HW328263   2.566   4.048   3.097 -0.6023 -0.0579  1.6554
 7124SOL    MW428264   2.515   4.101   3.050  0.6847  0.4510  0.0408
 7125SOL     OW28265   1.762   3.960   1.536  0.2941  0.9059 -0.4399
 7125SOL    HW228266   1.738   4.035   1.591 -1.1288 -0.3531  0.7615
 7125SOL    HW328267   1.727   3.884   1.583  1.0396 -0.4491 -1.9820
 7125SOL    MW428268   1.754   3.960   1.549  0.2174  0.2536 -0.1142
 7126SOL     OW28269   0.812   4.576   4.681  0.4292  0.0453 -0.2814
 7126SOL    HW228270   0.769   4.602   4.762 -0.5629 -0.3472 -0.6628
 7126SOL    HW328271   0.802   4.481   4.677  1.3318 -0.0535 -0.3885
 7126SOL    MW428272   0.805   4.567   4.691 -0.0652  0.0646  0.4629
 7127SOL     OW28273   2.073   3.363   6.284 -0.0768  0.1399  0.5041
 7127SOL    HW228274   2.073   3.345   6.190  0.8110 -1.1386  0.7199
 7127SOL    HW328275   2.121   3.446   6.293 -0.1066  0.2324 -0.1558
 7127SOL    MW428276   2.079   3.372   6.273 -0.1067  0.3681  0.1850
 7128SOL     OW28277   4.233   2.439   0.548  0.2084  0.2581 -0.0073
 7128SOL    HW228278   4.265   2.470   0.464  1.9894  0.8377  0.8282
 7128SOL    HW328279   4.251   2.345   0.548 -1.2209 -0.0390 -0.8479
 7128SOL    MW428280   4.240   2.431   0.537  0.2426 -0.1711  0.0129
 7129SOL     OW28281   1.808   1.303   2.635  0.0992 -0.3130  0.4914
 7129SOL    HW228282   1.766   1.353   2.565 -0.2363  0.8106  1.4647
 7129SOL    HW328283   1.850   1.369   2.690 -0.4996 -1.0672  1.9136
 7129SOL    MW428284   1.808   1.318   2.633  0.1699  0.3540 -0.4267
 7130SOL     OW28285   3.511   0.326   4.951  0.2221 -0.2448  0.4714
 7130SOL    HW228286   3.530   0.420   4.955  2.5431 -0.6792  1.0040
 7130SOL    HW328287   3.548   0.297   4.868 -0.7686 -0.6642  0.1576
 7130SOL    MW428288   3.518   0.335   4.941  0.0260  0.6026 -0.8268
 7131SOL     OW28289   0.988   1.965   0.977  0.1791 -0.6317 -0.3667
 7131SOL    HW228290   1.035   1.901   1.031 -0.6331 -0.6113  0.3879
 7131SOL    HW328291   1.049   1.986   0.906  1.0564 -1.0810  0.2344
 7131SOL    MW428292   1.003   1.960   0.975 -0.3971 -0.8421 -0.4381
 7132SOL     OW28293   5.445   1.127   1.256 -0.1376 -0.1401  0.3742
 7132SOL    HW228294   5.426   1.198   1.318 -0.3830  0.1296 -0.0040
 7132SOL    HW328295   5.397   1.151   1.177  0.9850  0.0612 -0.2840
 7132SOL    MW428296   5.436   1.140   1.254  0.4049 -0.7942  0.1258
 7133SOL     OW28297   2.078   1.689   4.871 -0.0215  0.1799 -0.2886
 7133SOL    HW228298   2.167   1.675   4.903 -0.4299 -0.5830  0.5545
 7133SOL    HW328299   2.090   1.730   4.785  1.1561 -0.4376 -0.4507
 7133SOL    MW428300   2.091   1.692   4.864  0.3720 -0.0538 -0.4682
 7134SOL     OW28301   6.462   4.567   2.193  0.1719  0.6152  0.0737
 7134SOL    HW228302   6.436   4.651   2.230 -0.0341  0.3776  0.4788
 7134SOL    HW328303   6.544   4.585   2.147  0.6344  0.8402  0.9769
 7134SOL    MW428304   6.469   4.580   2.192  0.3316 -0.2659 -0.2898
 7135SOL     OW28305   2.338   5.009   0.525  0.1302  0.6881 -0.0970
 7135SOL    HW228306   2.285   4.930   0.536 -0.2073  0.8593 -0.4689
 7135SOL    HW328307   2.428   4.978   0.531  0.0234  0.7284  2.9717
 7135SOL    MW428308   2.343   4.994   0.527 -0.1468 -0.0383 -0.5539
 7136SOL     OW28309   2.188   3.613   0.418  0.0303  0.1769  0.0531
 7136SOL    HW228310   2.279   3.618   0.389 -0.3962  0.1181 -1.3652
 7136SOL    HW328311   2.167   3.702   0.447 -0.1307  0.7619 -1.7737
 7136SOL    MW428312   2.197   3.626   0.418 -0.3720  0.5112  0.3946
 7137SOL     OW28313   6.082   0.135   1.627  0.4079  0.1210  0.9039
 7137SOL    HW228314   6.077   0.122   1.532 -0.0312  0.2184  0.9111
 7137SOL    HW328315   6.150   0.074   1.656 -1.1248 -1.7101  0.8454
 7137SOL    MW428316   6.090   0.126   1.618  0.6197  0.2740 -0.3902
 7138SOL     OW28317   5.804   2.960   3.150 -0.1650 -0.4195 -0.7348
 7138SOL    HW228318   5.843   3.007   3.224 -0.7125 -0.9098 -0.1250
 7138SOL    HW328319   5.872   2.961   3.083  0.8535 -1.1589  0.2557
 7138SOL    MW428320   5.818   2.967   3.151  0.3527 -0.2599  0.5440
 7139SOL     OW28321   5.798   1.415   4.458  0.7130  0.3888 -0.1874
 7139SOL    HW228322   5.885   1.451   4.474  1.2917 -1.0655  0.1024
 7139SOL    HW328323   5.773   1.450   4.372  0.8138  2.2037  0.4781
 7139SOL    MW428324   5.806   1.424   4.449 -0.1440 -0.1404 -0.1683
 7140SOL     OW28325   4.814   2.471   6.148 -0.2712  0.3405 -0.3117
 7140SOL    HW228326   4.779   2.382   6.144  1.3461 -0.3289 -0.4084
 7140SOL    HW328327   4.858   2.476   6.233 -0.2797  1.0354 -0.3394
 7140SOL    MW428328   4.815   2.460   6.159 -0.0796 -0.1123 -0.2176
 7141SOL     OW28329   4.970   2.413   2.846  0.2404  0.1495 -0.8178
 7141SOL    HW228330   5.012   2.497   2.830  2.1228 -1.2883 -4.7112
 7141SOL    HW328331   5.036   2.361   2.893 -0.8965  0.6618  1.5294
 7141SOL    MW428332   4.984   2.417   2.850  0.1348  0.5800 -0.1685
 7142SOL     OW28333   1.268   0.941   0.681  0.0723  0.1224  0.2716
 7142SOL    HW228334   1.346   0.929   0.627 -1.0922 -2.1962 -1.0222
 7142SOL    HW328335   1.281   0.883   0.756 -0.9178 -1.3023 -0.6111
 7142SOL    MW428336   1.280   0.932   0.684 -0.3936  0.1514 -0.5459
 7143SOL     OW28337   3.391   3.327   2.585 -0.1177 -0.2170  0.7185
 7143SOL    HW228338   3.407   3.260   2.518 -1.8045 -1.5676  1.5690
 7143SOL    HW328339   3.378   3.408   2.535  0.6951 -0.7668 -0.4366
 7143SOL    MW428340   3.391   3.328   2.569  0.2458  0.4356 -0.2942
 7144SOL     OW28341   0.883   1.892   5.860  0.0564 -0.5263  0.1442
 7144SOL    HW228342   0.914   1.807   5.890 -0.6358 -0.6466  0.5436
 7144SOL    HW328343   0.815   1.916   5.924 -0.8473 -0.3926 -0.8449
 7144SOL    MW428344   0.878   1.884   5.873 -0.4380  0.3315  0.2827
 7145SOL     OW28345   1.311   4.637   6.383  0.3365 -0.1420  0.1266
 7145SOL    HW228346   1.217   4.618   6.380  0.4981 -1.0713  0.4249
 7145SOL    HW328347   1.318   4.717   6.435 -0.4199  1.0189 -1.5007
 7145SOL    MW428348   1.299   4.645   6.390  0.3814 -0.0842  0.0488
 7146SOL     OW28349   4.772   0.465   1.687  0.3384  0.5659  0.7122
 7146SOL    HW228350   4.697   0.487   1.631 -1.2043 -1.3079  1.9086
 7146SOL    HW328351   4.847   0.471   1.629 -1.1551 -1.1491 -1.6040
 7146SOL    MW428352   4.772   0.469   1.672 -0.3534  0.1968  0.4629
 7147SOL     OW28353   0.422   3.437   0.733  0.0953 -0.9840  0.1769
 7147SOL    HW228354   0.381   3.376   0.795 -0.7635 -2.1066 -1.4136
 7147SOL    HW328355   0.411   3.395   0.648 -1.4411  1.8382 -1.1696
 7147SOL    MW428356   0.415   3.423   0.730 -0.3628 -0.4436  0.1284
 7148SOL     OW28357   4.654   1.742   4.034  0.0639  0.5906 -0.2328
 7148SOL    HW228358   4.660   1.753   4.129 -0.3924  1.7424 -0.3156
 7148SOL    HW328359   4.575   1.690   4.021  0.2944  0.1691  0.0263
 7148SOL    MW428360   4.645   1.736   4.045 -0.0226  0.2256 -0.4341
 7149SOL     OW28361   4.698   1.979   5.183 -0.1003  0.5827  0.1017
 7149SOL    HW228362   4.710   2.017   5.270 -0.4566 -0.3370  0.5702
 7149SOL    HW328363   4.736   1.891   5.190  0.7295  0.8455 -0.9571
 7149SOL    MW428364   4.704   1.972   5.195  0.1512  0.9749 -0.2191
 7150SOL     OW28365   3.584   5.212   6.181 -0.0340  0.0198 -0.0517
 7150SOL    HW228366   3.623   5.200   6.094 -1.3149  1.8307 -0.9357
 7150SOL    HW328367   3.498   5.250   6.164 -0.0450  1.0810  2.0522
 7150SOL    MW428368   3.578   5.215   6.167  0.2160 -0.5456  0.0235
 7151SOL     OW28369   3.065   5.000   4.294  0.1089  0.0032 -0.0463
 7151SOL    HW228370   3.125   4.941   4.341 -0.8503 -2.3007 -1.5105
 7151SOL    HW328371   2.995   5.017   4.356 -0.9137 -2.6156 -0.3496
 7151SOL    MW428372   3.064   4.994   4.308 -0.0732 -0.4593 -0.1346
 7152SOL     OW28373   5.057   4.619   0.124 -0.7564  0.0277 -0.4019
 7152SOL    HW228374   5.028   4.658   0.207 -0.7752 -2.0698  0.6264
 7152SOL    HW328375   5.130   4.675   0.096  0.1242  0.0402  1.7200
 7152SOL    MW428376   5.063   4.632   0.131  0.3502  0.2251  0.0941
 7153SOL     OW28377   6.200   4.675   6.405  0.0452 -0.3171  0.0369
 7153SOL    HW228378   6.242   4.751   6.365 -0.3536 -1.3844 -2.5972
 7153SOL    HW328379   6.198   4.695   6.499  0.2039  2.7646 -0.5215
 7153SOL    MW428380   6.205   4.688   6.412 -0.3425  0.2716 -0.2426
 7154SOL     OW28381   5.812   4.916   6.004  0.3199  0.1017  0.1274
 7154SOL    HW228382   5.861   4.926   6.086  2.2553 -0.4493 -0.9127
 7154SOL    HW328383   5.869   4.864   5.948 -1.5887 -0.8271 -1.0862
 7154SOL    MW428384   5.826   4.910   6.007  0.9515  0.3082  0.4688
 7155SOL     OW28385   3.013   1.443   5.355  0.0236 -0.3902  0.5567
 7155SOL    HW228386   3.085   1.499   5.324  0.4740 -1.3150 -0.1305
 7155SOL    HW328387   2.935   1.496   5.340  0.1658 -0.8786 -2.6272
 7155SOL    MW428388   3.012   1.458   5.349 -0.0127 -0.4952 -0.0772
 7156SOL     OW28389   5.323   3.512   4.067 -0.2017 -0.1096  0.4549
 7156SOL    HW228390   5.267   3.444   4.031 -1.0266  0.9726 -0.4026
 7156SOL    HW328391   5.280   3.594   4.042  1.9387  0.8008 -0.5921
 7156SOL    MW428392   5.310   3.514   4.059 -0.2501  0.0925 -0.1480
 7157SOL     OW28393   2.269   3.261   1.161  0.2624 -0.2222 -0.2070
 7157SOL    HW228394   2.279   3.243   1.254 -0.0293  0.0814 -0.1169
 7157SOL    HW328395   2.347   3.221   1.121  0.2292 -0.6267  0.1250
 7157SOL    MW428396   2.281   3.253   1.168  0.9251  0.0724  0.0009
 7158SOL     OW28397   2.318   2.090   1.737  0.4946 -0.1799 -0.2834
 7158SOL    HW228398   2.412   2.071   1.735  0.8830  1.3888  1.0362
 7158SOL    HW328399   2.312   2.185   1.732 -0.9848 -0.2113  0.4017
 7158SOL    MW428400   2.330   2.100   1.736 -0.1262  0.2336  0.7145
 7159SOL     OW28401   1.551   4.165   6.422  0.2503 -0.4746 -0.9712
 7159SOL    HW228402   1.621   4.173   6.487 -0.8034 -1.1492  0.2991
 7159SOL    HW328403   1.529   4.256   6.400 -0.1013 -0.1886  0.4542
 7159SOL    MW428404   1.557   4.178   6.428 -0.1415  0.7751 -0.1191
 7160SOL     OW28405   5.469   0.257   3.685  0.2809 -0.5907  0.0087
 7160SOL    HW228406   5.437   0.302   3.606  1.6806 -0.8407 -0.7382
 7160SOL    HW328407   5.389   0.228   3.730 -0.5864  0.9238 -0.4952
 7160SOL    MW428408   5.454   0.259   3.680 -0.2731  0.0488 -0.2013
 7161SOL     OW28409   4.405   4.482   4.097 -0.0305 -0.3305  0.0047
 7161SOL    HW228410   4.441   4.398   4.126 -1.1888 -0.3916  1.3616
 7161SOL    HW328411   4.311   4.466   4.088 -0.0563  0.3946 -1.3746
 7161SOL    MW428412   4.397   4.469   4.099 -0.1187  0.1483 -0.2286
 7162SOL     OW28413   4.116   1.059   5.423 -0.5284 -0.5111  0.9479
 7162SOL    HW228414   4.157   0.990   5.371  1.0969  1.1202 -0.0367
 7162SOL    HW328415   4.160   1.054   5.507 -1.4149 -1.5319  1.3879
 7162SOL    MW428416   4.127   1.049   5.427 -0.2430  0.0326  0.2547
 7163SOL     OW28417   2.562   5.058   2.906  0.0534  0.0478 -0.1203
 7163SOL    HW228418   2.644   5.061   2.857  1.6697 -0.3503  2.3734
 7163SOL    HW328419   2.553   4.967   2.933 -2.3669 -0.3773 -2.0219
 7163SOL    MW428420   2.572   5.047   2.903 -0.2921  0.0757 -0.4195
 7164SOL     OW28421   0.038   2.593   6.285  0.1274 -0.2266  0.5202
 7164SOL    HW228422  -0.012   2.670   6.259  0.4940 -0.0551  0.3117
 7164SOL    HW328423  -0.027   2.533   6.321 -0.2380 -0.0476  0.1656
 7164SOL    MW428424   0.023   2.595   6.287 -0.0846 -0.0261  0.0459
 7165SOL     OW28425   5.329   2.905   0.164 -0.0826 -0.2390  0.7743
 7165SOL    HW228426   5.290   2.818   0.165 -1.7651  0.4968  1.7462
 7165SOL    HW328427   5.405   2.896   0.105 -0.0664 -2.3949  1.0404
 7165SOL    MW428428   5.334   2.893   0.156  0.3357 -0.3748  0.7518
 7166SOL     OW28429   0.744   3.067   1.880  0.0841 -0.3839 -0.1046
 7166SOL    HW228430   0.662   3.047   1.925  0.5470  0.3065  1.0905
 7166SOL    HW328431   0.785   2.981   1.865 -0.8693 -0.7400 -0.8003
 7166SOL    MW428432   0.739   3.053   1.884 -0.2368 -0.1407  0.1414
 7167SOL     OW28433   2.852   0.445   5.808 -0.4710  0.1501  0.0783
 7167SOL    HW228434   2.863   0.366   5.756 -2.2556 -0.3727  0.4608
 7167SOL    HW328435   2.864   0.417   5.899 -2.3108  0.0343  0.3173
 7167SOL    MW428436   2.855   0.431   5.813  0.2344 -0.1358 -0.0944
 7168SOL     OW28437   2.898   0.644   4.085 -0.2272  0.1572 -0.4119
 7168SOL    HW228438   2.862   0.707   4.146  1.1651  1.2491 -0.6873
 7168SOL    HW328439   2.990   0.635   4.109 -0.1845 -1.0916 -0.9419
 7168SOL    MW428440   2.905   0.651   4.096 -0.6662  0.0616  0.0972
 7169SOL     OW28441   6.174   5.164   2.652 -0.2834 -0.4382 -0.4261
 7169SOL    HW228442   6.123   5.120   2.584 -0.3395 -0.3673 -0.4307
 7169SOL    HW328443   6.108   5.197   2.713 -0.1819 -1.4180  0.2279
 7169SOL    MW428444   6.159   5.163   2.651  0.6679 -0.3100  0.3620
 7170SOL     OW28445   2.595   3.501   2.337 -0.8507 -0.1653 -0.1447
 7170SOL    HW228446   2.526   3.524   2.275  0.0270  0.7043 -0.8275
 7170SOL    HW328447   2.588   3.568   2.406 -0.4488  0.1541 -0.4118
 7170SOL    MW428448   2.585   3.513   2.338 -0.5670 -0.2605  0.1324
 7171SOL     OW28449   4.855   4.316   3.739  0.1678 -0.0329 -0.3655
 7171SOL    HW228450   4.841   4.371   3.661 -3.0724 -0.2516 -0.0502
 7171SOL    HW328451   4.775   4.265   3.748  2.2402 -3.4707  0.5368
 7171SOL    MW428452   4.843   4.317   3.730  0.5564 -0.1509 -0.0069
 7172SOL     OW28453   4.274   1.226   3.417 -0.2541  0.7176 -0.0775
 7172SOL    HW228454   4.355   1.206   3.465 -0.8138 -2.4966 -0.2183
 7172SOL    HW328455   4.300   1.221   3.325 -0.6593 -1.0077 -0.1378
 7172SOL    MW428456   4.288   1.223   3.411 -0.0861  0.4409 -0.0450
 7173SOL     OW28457   1.568   5.104   2.523 -0.3256  0.1858  0.2203
 7173SOL    HW228458   1.585   5.092   2.430  3.0594  1.7907  0.4776
 7173SOL    HW328459   1.576   5.016   2.561  0.0446 -0.2257 -0.7781
 7173SOL    MW428460   1.571   5.091   2.516 -0.2733 -0.6835  0.4749
 7174SOL     OW28461   2.210   0.780   2.674  0.0957 -0.1617 -0.0932
 7174SOL    HW228462   2.150   0.777   2.748  0.0486  1.8089 -0.0047
 7174SOL    HW328463   2.291   0.814   2.710 -0.5908  3.1031 -1.2356
 7174SOL    MW428464   2.212   0.784   2.689 -0.4113 -0.0271  0.0880
 7175SOL     OW28465   3.132   4.985   1.116 -0.0529  0.5008  0.7683
 7175SOL    HW228466   3.171   5.050   1.175 -0.9502  1.3671  0.4352
 7175SOL    HW328467   3.154   5.017   1.029 -0.2902  0.2243  0.6082
 7175SOL    MW428468   3.140   4.998   1.113 -0.3671  0.1487  0.2890
 7176SOL     OW28469   4.625   6.224   5.039  0.7411 -0.0380 -0.5326
 7176SOL    HW228470   4.663   6.290   4.980  0.9013  0.0042 -0.3792
 7176SOL    HW328471   4.689   6.213   5.108  0.0958  0.6861  0.2059
 7176SOL    MW428472   4.638   6.231   5.040  0.2406  0.1537  0.4551
 7177SOL     OW28473   5.865   1.199   0.242 -0.2292  0.0543  0.1305
 7177SOL    HW228474   5.884   1.292   0.250 -0.5483  0.1356 -0.0393
 7177SOL    HW328475   5.787   1.195   0.187  0.3218 -0.3587 -0.6372
 7177SOL    MW428476   5.857   1.210   0.236 -0.6238 -0.2531 -0.3273
 7178SOL     OW28477   1.986   4.500   4.309  0.3707  0.4569 -0.0767
 7178SOL    HW228478   1.983   4.427   4.371  0.0877  0.3846 -0.1731
 7178SOL    HW328479   2.032   4.570   4.355  0.3221  0.3409  0.1464
 7178SOL    MW428480   1.992   4.499   4.323  0.8334  0.1083  0.1291
 7179SOL     OW28481   5.005   5.290   3.933 -0.0150  0.3055 -0.3031
 7179SOL    HW228482   4.986   5.298   4.026  1.3909  0.4874 -0.0043
 7179SOL    HW328483   5.074   5.223   3.928  0.5446  0.9171 -1.1149
 7179SOL    MW428484   5.012   5.282   3.944  0.1115 -0.2885 -0.1304
 7180SOL     OW28485   4.325   4.905   3.749  0.0516 -0.3190 -0.6908
 7180SOL    HW228486   4.399   4.878   3.695 -0.0721 -1.1864 -0.4351
 7180SOL    HW328487   4.354   4.890   3.839  0.0588  0.6174 -0.5225
 7180SOL    MW428488   4.339   4.899   3.754  0.2369  0.3369 -0.1616
 7181SOL     OW28489   4.310   1.510   0.815  0.1387 -0.4026  0.1102
 7181SOL    HW228490   4.340   1.537   0.729 -0.9350 -0.5992 -0.3467
 7181SOL    HW328491   4.319   1.414   0.815 -1.9992 -0.6526 -0.6756
 7181SOL    MW428492   4.315   1.501   0.804  0.4289 -0.4673 -0.0839
 7182SOL     OW28493   5.229   1.456   0.170  0.1437 -0.6272 -0.6495
 7182SOL    HW228494   5.203   1.364   0.173 -1.9500 -0.0559  0.2604
 7182SOL    HW328495   5.294   1.465   0.240  0.4464 -1.4174 -0.8196
 7182SOL    MW428496   5.235   1.445   0.180  0.5247  0.2745  0.4343
 7183SOL     OW28497   2.957   2.326   3.369  0.5742  0.5284 -0.0885
 7183SOL    HW228498   2.938   2.343   3.461 -1.9497 -1.9503 -0.0039
 7183SOL    HW328499   3.049   2.350   3.358  1.0511  0.5845  3.1446
 7183SOL    MW428500   2.966   2.331   3.380  0.5326  0.0803 -0.0120
 7184SOL     OW28501   3.948   5.073   4.431 -0.1152  0.4626  0.3059
 7184SOL    HW228502   4.032   5.119   4.425 -1.0392  2.1444 -0.4077
 7184SOL    HW328503   3.886   5.130   4.385 -1.9073 -0.1080  1.8868
 7184SOL    MW428504   3.951   5.087   4.424 -0.1152 -0.5024  0.1996
 7185SOL     OW28505   2.347   4.810   0.924  0.2260 -0.5385 -0.0029
 7185SOL    HW228506   2.268   4.768   0.959 -0.2633 -1.7133 -2.3508
 7185SOL    HW328507   2.317   4.898   0.899  0.1202 -0.3658  0.6921
 7185SOL    MW428508   2.332   4.816   0.926  0.0355  0.6292  0.3381
 7186SOL     OW28509   3.525   2.960   3.195  0.6424 -0.0740 -0.2448
 7186SOL    HW228510   3.458   2.892   3.184  1.3480 -0.6465 -1.1136
 7186SOL    HW328511   3.583   2.926   3.262 -0.6596  1.0358  1.5392
 7186SOL    MW428512   3.524   2.947   3.202  1.1600 -0.2358  0.8746
 7187SOL     OW28513   4.315   1.745   0.512 -0.1562  0.2151  0.4847
 7187SOL    HW228514   4.295   1.796   0.591 -1.4052  0.8852 -0.2385
 7187SOL    HW328515   4.384   1.795   0.469  0.2014  0.0958  0.9106
 7187SOL    MW428516   4.321   1.758   0.517  0.1976 -0.2408 -0.5592
 7188SOL     OW28517   4.313   2.931   0.680  0.2932  0.6415 -0.6547
 7188SOL    HW228518   4.241   2.869   0.671  1.0979 -0.2671 -0.9246
 7188SOL    HW328519   4.296   2.996   0.611 -0.6402  0.8331 -0.2653
 7188SOL    MW428520   4.301   2.932   0.669  0.4485  0.5014  0.2202
 7189SOL     OW28521   4.154   3.392   2.227  0.0491 -0.0212  0.4533
 7189SOL    HW228522   4.176   3.337   2.152  1.6841  1.4654 -0.2385
 7189SOL    HW328523   4.182   3.342   2.304 -0.0874 -0.8541 -0.0372
 7189SOL    MW428524   4.161   3.378   2.227 -0.2536 -0.2075  0.1135
 7190SOL     OW28525   1.759   2.780   3.973  0.0285 -0.0073 -0.1512
 7190SOL    HW228526   1.721   2.840   3.909  1.3652  0.8880 -0.1573
 7190SOL    HW328527   1.733   2.816   4.058  0.1997  0.1573 -0.1671
 7190SOL    MW428528   1.750   2.793   3.976  1.1694 -0.3524  0.3737
 7191SOL     OW28529   4.699   5.355   3.343  0.0813 -0.1513  0.4229
 7191SOL    HW228530   4.620   5.331   3.391  1.2483  0.3666  2.7611
 7191SOL    HW328531   4.692   5.450   3.332 -0.5107 -0.3492 -1.1546
 7191SOL    MW428532   4.688   5.365   3.348 -0.0082 -0.4535 -0.1224
 7192SOL     OW28533   6.120   5.145   6.264  0.4047 -0.2359 -0.4660
 7192SOL    HW228534   6.110   5.068   6.208 -1.5772 -1.1198  0.9601
 7192SOL    HW328535   6.057   5.208   6.229 -3.6397 -2.0967  2.6021
 7192SOL    MW428536   6.110   5.143   6.252 -0.2773  0.0790 -0.4880
 7193SOL     OW28537   5.090   3.834   1.899 -0.2456  0.4339  0.1231
 7193SOL    HW228538   5.001   3.828   1.933 -0.9654  0.6717 -1.6452
 7193SOL    HW328539   5.083   3.889   1.822  1.6333  1.3484  0.5371
 7193SOL    MW428540   5.077   3.840   1.894  0.7266 -0.6539 -0.5439
 7194SOL     OW28541   0.794   3.537   2.537 -0.2897  0.0907 -0.5967
 7194SOL    HW228542   0.854   3.519   2.465  0.2393  0.5826 -0.2923
 7194SOL    HW328543   0.836   3.609   2.585 -0.5028 -0.3976  0.3414
 7194SOL    MW428544   0.808   3.544   2.534 -0.2234 -0.0669 -0.4895
 7195SOL     OW28545   6.051   2.881   5.960  0.3974  0.0445  0.5023
 7195SOL    HW228546   6.055   2.965   6.006  1.5332  0.8959 -1.0708
 7195SOL    HW328547   5.960   2.874   5.931 -0.1210 -0.0977  2.0614
 7195SOL    MW428548   6.040   2.891   5.962  0.2872  0.0219  0.2141
 7196SOL     OW28549   0.274   4.286   0.182  0.2909 -0.0362  0.9165
 7196SOL    HW228550   0.273   4.375   0.146 -0.1896 -0.1804  0.5685
 7196SOL    HW328551   0.359   4.280   0.226  0.3504  0.5781  0.9050
 7196SOL    MW428552   0.285   4.297   0.183 -0.1220 -0.4712  0.4110
 7197SOL     OW28553   3.250   0.105   0.687 -0.0297  0.2232 -0.1330
 7197SOL    HW228554   3.267   0.057   0.768  0.0720  1.9542  0.9356
 7197SOL    HW328555   3.331   0.095   0.636 -0.0710 -0.8339  0.0001
 7197SOL    MW428556   3.263   0.098   0.691 -0.4510 -0.3440 -0.0335
 7198SOL     OW28557   2.255   0.967   6.081  0.2849 -0.3807  0.0214
 7198SOL    HW228558   2.333   0.924   6.046 -0.3712 -1.5746 -0.0423
 7198SOL    HW328559   2.247   0.932   6.170  0.5058  0.6838  0.4735
 7198SOL    MW428560   2.265   0.957   6.088  0.3683  0.0396 -0.1317
 7199SOL     OW28561   2.866   5.299   2.230  0.8158 -0.0320  0.0162
 7199SOL    HW228562   2.781   5.303   2.187 -0.1715 -0.0915  1.8744
 7199SOL    HW328563   2.849   5.256   2.314  2.1831  2.2072  1.5366
 7199SOL    MW428564   2.853   5.294   2.235  0.1383 -0.2283 -0.1252
 7200SOL     OW28565   5.153   5.572   6.019 -0.3295 -0.4020 -0.2799
 7200SOL    HW228566   5.201   5.628   5.959  0.9205 -1.0486  0.0921
 7200SOL    HW328567   5.142   5.624   6.098  0.8757 -0.6833  0.0855
 7200SOL    MW428568   5.158   5.586   6.021  0.2286  0.2164  0.1228
 7201SOL     OW28569   4.102   5.870   3.858 -0.0765  0.4157 -0.3609
 7201SOL    HW228570   4.138   5.827   3.780  1.4253  1.2783 -0.1870
 7201SOL    HW328571   4.179   5.896   3.909 -1.0068 -0.1418  1.4493
 7201SOL    MW428572   4.117   5.868   3.855  0.4736  0.4076 -0.3073
 7202SOL     OW28573   2.349   3.952   4.013 -0.3317  0.1050  0.2340
 7202SOL    HW228574   2.324   3.933   4.104 -1.6822 -0.3903 -0.2173
 7202SOL    HW328575   2.411   4.025   4.020  0.5896 -0.7621  1.6291
 7202SOL    MW428576   2.354   3.959   4.026  0.5062  0.1477 -0.1847
 7203SOL     OW28577   2.062   4.684   2.850 -0.4694  0.3575 -0.6402
 7203SOL    HW228578   2.027   4.696   2.938 -1.7414  0.4863 -1.1525
 7203SOL    HW328579   2.143   4.735   2.850 -0.4240  0.3050  0.4691
 7203SOL    MW428580   2.068   4.692   2.862 -0.2477  0.6331 -0.2663
 7204SOL     OW28581   2.154   3.122   0.334  0.1332 -0.1419  0.1652
 7204SOL    HW228582   2.061   3.130   0.313 -0.0423 -0.4531  0.8192
 7204SOL    HW328583   2.157   3.096   0.426  0.9103  3.6049  1.3859
 7204SOL    MW428584   2.142   3.120   0.343 -0.0989  0.2685  0.0584
 7205SOL     OW28585   3.237   3.866   3.541  0.2627  0.4623 -0.3120
 7205SOL    HW228586   3.228   3.865   3.446  0.4313  0.5419 -0.3309
 7205SOL    HW328587   3.331   3.882   3.555  0.6218 -1.5111 -0.1513
 7205SOL    MW428588   3.248   3.868   3.530 -0.4960 -0.4656 -0.4876
 7206SOL     OW28589   4.805   3.287   0.897 -0.4008 -0.4086 -0.4120
 7206SOL    HW228590   4.794   3.360   0.957 -0.0505  0.9230 -1.9185
 7206SOL    HW328591   4.899   3.277   0.887 -0.4510 -0.8391 -0.4908
 7206SOL    MW428592   4.816   3.295   0.904 -0.2647 -0.1148 -0.4925
 7207SOL     OW28593   3.206   5.940   3.068  0.5560  0.4302  0.6574
 7207SOL    HW228594   3.121   5.903   3.093  1.1496 -1.8080 -0.4433
 7207SOL    HW328595   3.270   5.878   3.101  1.6448  0.7772 -0.7237
 7207SOL    MW428596   3.203   5.927   3.076  0.5711  0.2112  0.4575
 7208SOL     OW28597   4.503   0.805   0.415  0.5638  0.1095  0.2480
 7208SOL    HW228598   4.513   0.899   0.434  1.8827  0.5548 -2.1810
 7208SOL    HW328599   4.423   0.801   0.362  1.7936  0.2869 -1.7121
 7208SOL    MW428600   4.494   0.817   0.410  0.4149 -0.1080  0.4869
 7209SOL     OW28601   0.739   5.041   3.358  0.4237 -0.2796  0.4493
 7209SOL    HW228602   0.783   4.956   3.353  0.1143 -0.5470  1.7495
 7209SOL    HW328603   0.711   5.047   3.449 -0.9519  0.5209 -0.0034
 7209SOL    MW428604   0.741   5.030   3.369  0.2953 -0.0363 -0.2327
 7210SOL     OW28605   2.430   5.799   0.674  0.0998 -0.7395 -0.3061
 7210SOL    HW228606   2.459   5.708   0.675  0.5255 -0.6233 -1.0618
 7210SOL    HW328607   2.359   5.803   0.738  1.1119 -1.2520  0.8923
 7210SOL    MW428608   2.425   5.788   0.682 -0.2081  0.0888 -0.1860
 7211SOL     OW28609   5.629   3.726   1.404  0.2878 -0.2059  0.1004
 7211SOL    HW228610   5.696   3.663   1.432 -0.2676 -1.0599 -0.4313
 7211SOL    HW328611   5.650   3.744   1.312  1.2389  1.4493  0.6164
 7211SOL    MW428612   5.640   3.720   1.395  0.2079  0.4999  0.1969
 7212SOL     OW28613   2.538   5.062   3.856  0.1809 -0.8269 -0.2480
 7212SOL    HW228614   2.554   5.157   3.856  0.7648 -0.9117 -1.0933
 7212SOL    HW328615   2.444   5.054   3.867  0.1641 -0.1646  0.2291
 7212SOL    MW428616   2.528   5.074   3.858 -0.2648 -0.2537 -0.0560
 7213SOL     OW28617   3.062   1.387   2.297  0.0245  0.2366 -0.4388
 7213SOL    HW228618   3.145   1.343   2.317 -0.6510 -0.9310 -0.1739
 7213SOL    HW328619   3.002   1.357   2.365 -0.5539  1.2974 -0.4694
 7213SOL    MW428620   3.065   1.377   2.309 -0.0478 -0.0986 -0.2391
 7214SOL     OW28621   6.318   3.841   5.905  0.3817  0.3425  0.3126
 7214SOL    HW228622   6.234   3.880   5.881 -0.2297 -1.6000 -0.9760
 7214SOL    HW328623   6.299   3.786   5.980  0.5579  0.0577  0.1495
 7214SOL    MW428624   6.305   3.839   5.912  0.0420 -0.1599  0.3361
 7215SOL     OW28625   6.156   0.227   2.697  0.2575  0.3366  0.2501
 7215SOL    HW228626   6.230   0.201   2.644 -0.8618  0.9839 -1.7523
 7215SOL    HW328627   6.137   0.317   2.669 -0.7275  0.5075  1.3610
 7215SOL    MW428628   6.163   0.236   2.687  0.1080 -0.0037  0.6238
 7216SOL     OW28629   3.541   4.370   3.050  0.1755  0.1564  0.2264
 7216SOL    HW228630   3.518   4.357   3.142 -1.3898  2.3607  0.1989
 7216SOL    HW328631   3.595   4.293   3.029 -0.2694 -0.9362  2.6647
 7216SOL    MW428632   3.545   4.358   3.060 -0.4468  0.2801 -0.4305
 7217SOL     OW28633   0.323   2.191   3.694 -0.0703  0.0932  0.1503
 7217SOL    HW228634   0.416   2.167   3.693 -0.3947 -1.2807  0.5826
 7217SOL    HW328635   0.312   2.240   3.776  0.3398  0.5474 -0.0654
 7217SOL    MW428636   0.334   2.194   3.705  0.0352 -0.4933 -0.2967
 7218SOL     OW28637   0.868   2.333   3.988 -0.6878 -0.3563 -1.0521
 7218SOL    HW228638   0.881   2.426   3.972  0.2340  0.0638  1.6270
 7218SOL    HW328639   0.778   2.327   4.020 -0.9755 -0.5098 -1.8689
 7218SOL    MW428640   0.858   2.344   3.990 -0.3677 -0.2453 -0.2863
 7219SOL     OW28641   3.905   2.407   3.322 -0.0349  0.1390 -0.0615
 7219SOL    HW228642   3.812   2.386   3.320 -0.2559  1.0088 -1.9796
 7219SOL    HW328643   3.908   2.503   3.326  0.8468  0.0899  2.1644
 7219SOL    MW428644   3.893   2.417   3.322 -0.8993  0.2663 -0.3861
 7220SOL     OW28645   4.403   4.996   0.953  0.5561  0.7399 -0.5630
 7220SOL    HW228646   4.433   5.007   1.044  3.1778  2.2362 -1.5084
 7220SOL    HW328647   4.393   4.902   0.942  0.6701  0.4988  1.1315
 7220SOL    MW428648   4.405   4.985   0.964  0.2141  0.9532 -0.4855
 7221SOL     OW28649   6.393   5.278   4.735 -0.5262 -0.1546  0.0685
 7221SOL    HW228650   6.302   5.259   4.755 -1.0992  2.9207  0.8547
 7221SOL    HW328651   6.442   5.234   4.805 -1.4412 -1.2330  0.0545
 7221SOL    MW428652   6.388   5.270   4.747 -0.0061 -0.0043 -0.1226
 7222SOL     OW28653   3.895   2.201   0.016  0.5360  0.1106 -0.4410
 7222SOL    HW228654   3.814   2.157  -0.009  1.7382 -1.9485 -0.9223
 7222SOL    HW328655   3.896   2.281  -0.037 -1.3009  0.3785 -0.1656
 7222SOL    MW428656   3.884   2.206   0.006  0.3202 -0.2581  0.0753
 7223SOL     OW28657   2.435   6.023   3.691  0.2232  0.2325  0.5250
 7223SOL    HW228658   2.473   5.951   3.741  2.0713  0.7637 -0.0229
 7223SOL    HW328659   2.459   6.102   3.740  0.2555  0.6192 -0.0962
 7223SOL    MW428660   2.443   6.024   3.704  0.0095 -0.6135 -0.2339
 7224SOL     OW28661   3.195   1.975   4.364  0.0854 -0.2252 -0.1064
 7224SOL    HW228662   3.244   1.941   4.438  0.1058 -1.8301 -0.8119
 7224SOL    HW328663   3.244   1.944   4.287 -1.6024 -1.2885 -0.8142
 7224SOL    MW428664   3.208   1.966   4.364 -0.5446  0.3818 -0.2046
 7225SOL     OW28665   6.364   3.474   6.374 -0.1591 -0.0247 -0.1031
 7225SOL    HW228666   6.324   3.398   6.415 -0.3241  0.9241  1.5715
 7225SOL    HW328667   6.457   3.453   6.370 -0.2348 -0.4098  0.1358
 7225SOL    MW428668   6.371   3.461   6.379  0.0717 -0.2749  0.0010
 7226SOL     OW28669   5.664   2.533   0.281  0.2345 -0.0118  0.1710
 7226SOL    HW228670   5.701   2.614   0.316  1.4300  0.1381 -1.3616
 7226SOL    HW328671   5.575   2.531   0.316  0.0590  2.1375 -0.0438
 7226SOL    MW428672   5.657   2.543   0.291 -0.2782  0.3319 -0.5012
 7227SOL     OW28673   5.732   4.856   5.280 -0.3048 -1.0052 -0.1030
 7227SOL    HW228674   5.667   4.786   5.283 -1.0091 -0.3778 -0.3224
 7227SOL    HW328675   5.796   4.826   5.216 -0.4278 -1.5907  0.0407
 7227SOL    MW428676   5.732   4.843   5.272 -0.0508 -0.1570  0.0481
 7228SOL     OW28677   5.621   4.409   1.144  0.6616 -0.1750  0.4122
 7228SOL    HW228678   5.615   4.317   1.172 -0.9946  0.1985  1.3825
 7228SOL    HW328679   5.656   4.454   1.221  0.3163  0.1902  0.3536
 7228SOL    MW428680   5.625   4.403   1.158 -0.1320 -0.1668  0.1299
 7229SOL     OW28681   3.664   3.345   1.390  0.0469 -0.0760  0.1080
 7229SOL    HW228682   3.576   3.314   1.368 -0.9309  0.8104  2.4487
 7229SOL    HW328683   3.660   3.440   1.377  0.4100  0.0612  0.9454
 7229SOL    MW428684   3.652   3.354   1.385  0.1654 -0.3212 -0.1371
 7230SOL     OW28685   1.631   1.879   5.807 -0.1534 -1.3555 -0.2454
 7230SOL    HW228686   1.542   1.904   5.830 -0.0177 -0.6302 -0.4912
 7230SOL    HW328687   1.672   1.960   5.775  1.1210 -1.2395  1.4826
 7230SOL    MW428688   1.625   1.893   5.806  0.3186 -0.5057  0.3744
 7231SOL     OW28689   5.710   2.700   0.663  0.0079  0.1559 -0.1915
 7231SOL    HW228690   5.725   2.711   0.569  1.6658  1.5127  0.1747
 7231SOL    HW328691   5.634   2.756   0.683  0.0787  0.4006 -0.6106
 7231SOL    MW428692   5.702   2.709   0.654 -0.0149  0.5556  0.4272
 7232SOL     OW28693   0.319   1.709   5.133 -0.1370  0.2332 -0.1079
 7232SOL    HW228694   0.297   1.745   5.048  1.5903  0.8808 -0.3342
 7232SOL    HW328695   0.357   1.623   5.114 -2.6357 -1.0363  0.2961
 7232SOL    MW428696   0.321   1.703   5.119  0.7931 -0.0467  0.0296
 7233SOL     OW28697   0.097   0.953   1.414 -0.0203  0.0735  0.0068
 7233SOL    HW228698   0.100   0.948   1.510 -0.7210  2.0662  0.1866
 7233SOL    HW328699   0.180   0.995   1.390  1.1435 -2.3714 -0.4975
 7233SOL    MW428700   0.108   0.958   1.424 -0.0748 -0.1242  0.5865
 7234SOL     OW28701   6.172   5.915   4.338 -0.4959 -0.0940 -0.0761
 7234SOL    HW228702   6.105   5.978   4.363  1.0038  2.3671 -1.8399
 7234SOL    HW328703   6.242   5.925   4.404 -1.7076 -2.7439  1.8379
 7234SOL    MW428704   6.173   5.924   4.350  0.6933  0.8871  0.3495
 7235SOL     OW28705   3.310   2.769   3.291 -0.0195 -0.2244 -0.3645
 7235SOL    HW228706   3.297   2.685   3.246  0.7376 -0.8687  0.5819
 7235SOL    HW328707   3.233   2.820   3.267 -0.5941 -1.2595 -0.8205
 7235SOL    MW428708   3.298   2.764   3.282  0.3378  0.7656 -0.0652
 7236SOL     OW28709   3.752   5.625   0.333 -0.4078 -0.5933  0.6268
 7236SOL    HW228710   3.785   5.629   0.244 -1.6359 -0.9552  0.1355
 7236SOL    HW328711   3.829   5.607   0.387  0.5926  1.0711 -0.1753
 7236SOL    MW428712   3.766   5.623   0.328 -0.2565  0.4480  0.0754
 7237SOL     OW28713   5.774   5.697   0.503  0.5375 -0.0578  0.3785
 7237SOL    HW228714   5.819   5.633   0.449 -0.6928 -1.0811  0.5072
 7237SOL    HW328715   5.761   5.653   0.587 -1.5114 -0.2085  0.0512
 7237SOL    MW428716   5.778   5.683   0.507 -0.8331 -0.5410  0.1748
 7238SOL     OW28717   4.313   0.427   5.196  0.1183  0.1750 -0.1701
 7238SOL    HW228718   4.312   0.378   5.114  0.1885  0.2369 -0.2083
 7238SOL    HW328719   4.281   0.514   5.173 -0.5221 -0.0109  0.0007
 7238SOL    MW428720   4.309   0.432   5.182 -0.5935  0.2902 -0.2802
 7239SOL     OW28721   1.064   1.329   3.047 -0.4845 -0.2359 -0.0281
 7239SOL    HW228722   1.118   1.350   3.123  0.3296 -2.1138 -0.0464
 7239SOL    HW328723   1.118   1.352   2.972 -0.4678 -0.3088 -0.0387
 7239SOL    MW428724   1.078   1.335   3.047 -0.0074  0.0044  0.8298
 7240SOL     OW28725   0.338   2.573   6.246  0.3123 -0.2422 -0.4605
 7240SOL    HW228726   0.242   2.578   6.247  0.2256  0.0851  2.9414
 7240SOL    HW328727   0.366   2.653   6.202 -0.9428 -0.2608 -1.3621
 7240SOL    MW428728   0.329   2.584   6.241  0.0522  0.5823 -0.5909
 7241SOL     OW28729   3.762   3.888   3.316 -0.7499 -0.0250 -0.7632
 7241SOL    HW228730   3.820   3.956   3.282  0.5755 -0.6726  0.1078
 7241SOL    HW328731   3.686   3.935   3.351  0.1659  1.0107 -0.1160
 7241SOL    MW428732   3.760   3.903   3.316 -0.2644 -0.3487  0.3466
 7242SOL     OW28733   4.682   0.051   3.449  0.8489  0.1428 -0.0200
 7242SOL    HW228734   4.704   0.134   3.490  0.9063  1.0692 -1.7958
 7242SOL    HW328735   4.767   0.011   3.428  0.8212 -0.3759  0.8444
 7242SOL    MW428736   4.696   0.057   3.451  0.3456 -0.4391  0.1865
 7243SOL     OW28737   0.732   5.168   2.883 -0.0924 -0.5957 -0.0655
 7243SOL    HW228738   0.644   5.132   2.893  0.0701 -0.6839  1.3367
 7243SOL    HW328739   0.784   5.096   2.850 -0.2974 -0.9256  0.3174
 7243SOL    MW428740   0.727   5.154   2.880  0.2021  0.1483  0.3733
 7244SOL     OW28741   0.231   2.561   0.917  0.4742  0.6296 -0.2088
 7244SOL    HW228742   0.148   2.536   0.877  0.8175  0.6380 -0.9554
 7244SOL    HW328743   0.243   2.653   0.893  0.3388  0.8529  0.5435
 7244SOL    MW428744   0.222   2.570   0.909  0.1976  0.2113  0.3658
 7245SOL     OW28745   6.361   6.391   4.796  0.3548 -0.2276  0.1552
 7245SOL    HW228746   6.406   6.431   4.722  0.7090 -0.0150  0.4810
 7245SOL    HW328747   6.360   6.297   4.776 -1.2958 -0.0056 -1.0561
 7245SOL    MW428748   6.366   6.384   4.784 -0.1262 -0.0496  0.1572
 7246SOL     OW28749   4.527   0.986   4.054  0.1404 -0.4387 -0.0434
 7246SOL    HW228750   4.576   0.954   3.978  0.4489 -2.3222  0.8855
 7246SOL    HW328751   4.515   0.909   4.109  0.7066  1.0141  2.2619
 7246SOL    MW428752   4.532   0.972   4.052  0.4066  0.2735 -0.3770
 7247SOL     OW28753   2.474   4.180   5.699  0.4688  0.3735 -0.2446
 7247SOL    HW228754   2.510   4.122   5.766  1.2625  1.2362  0.1041
 7247SOL    HW328755   2.524   4.160   5.620  0.7444  0.5832 -0.1243
 7247SOL    MW428756   2.485   4.170   5.697 -0.4076  0.2236  0.4553
 7248SOL     OW28757   1.654   4.484   1.660  0.0892 -0.4104  0.0903
 7248SOL    HW228758   1.695   4.569   1.678 -0.6141  0.0769 -0.5577
 7248SOL    HW328759   1.657   4.476   1.565  0.8078 -1.4605  0.1896
 7248SOL    MW428760   1.660   4.494   1.650  0.6126  0.3920 -0.2467
 7249SOL     OW28761   1.500   2.408   5.372 -0.1703 -0.7359 -0.3221
 7249SOL    HW228762   1.419   2.431   5.326  0.5779  1.3331 -0.7334
 7249SOL    HW328763   1.473   2.345   5.438 -2.2499  0.3552 -0.0402
 7249SOL    MW428764   1.486   2.403   5.374 -0.2752 -0.0193  0.0240
 7250SOL     OW28765   2.151   1.183   1.292  0.3227 -0.6809  0.1291
 7250SOL    HW228766   2.064   1.175   1.330 -1.6747  0.2179 -3.7710
 7250SOL    HW328767   2.187   1.263   1.330 -2.0012  0.7689 -0.5359
 7250SOL    MW428768   2.144   1.193   1.302 -0.3402 -0.3715  0.4002
 7251SOL     OW28769   4.346   4.432   5.646  0.2938  0.0364  0.0133
 7251SOL    HW228770   4.305   4.518   5.631 -0.4330 -0.6672 -2.4773
 7251SOL    HW328771   4.288   4.389   5.709 -0.7095  0.5030 -0.5522
 7251SOL    MW428772   4.333   4.438   5.652  0.2885  0.0816 -1.2517
 7252SOL     OW28773   5.444   4.667   1.200 -0.6284 -0.1298 -0.7206
 7252SOL    HW228774   5.452   4.595   1.263 -0.2977  1.4964  1.2328
 7252SOL    HW328775   5.355   4.699   1.212 -0.0745  1.2033  0.1822
 7252SOL    MW428776   5.434   4.662   1.210  0.4092  0.0387 -0.3688
 7253SOL     OW28777   0.615   2.550   0.171 -0.1513  0.4840 -0.1427
 7253SOL    HW228778   0.691   2.493   0.176 -0.9996 -0.7913 -1.1078
 7253SOL    HW328779   0.601   2.580   0.261  1.8049  1.2265 -0.0517
 7253SOL    MW428780   0.623   2.546   0.184  0.8994  0.4384  0.6706
 7254SOL     OW28781   4.161   2.867   3.195 -0.1701 -0.4476 -0.1917
 7254SOL    HW228782   4.206   2.840   3.275 -0.8732 -0.9512  0.0388
 7254SOL    HW328783   4.165   2.790   3.138  0.0140 -0.2070 -0.5094
 7254SOL    MW428784   4.168   2.854   3.198  0.6925  0.3238  0.1010
 7255SOL     OW28785   1.211   5.605   6.073 -0.5964  0.2274  0.7520
 7255SOL    HW228786   1.250   5.520   6.096 -0.4253  0.4351  1.2323
 7255SOL    HW328787   1.194   5.647   6.157 -1.1907  0.4439  0.5257
 7255SOL    MW428788   1.214   5.599   6.087 -0.2822  0.1801  0.2628
 7256SOL     OW28789   5.195   3.749   4.035 -0.2900 -0.0981 -0.0973
 7256SOL    HW228790   5.110   3.708   4.047 -1.6206  2.3878 -0.3190
 7256SOL    HW328791   5.191   3.788   3.947  0.8657  0.5338  0.1032
 7256SOL    MW428792   5.183   3.749   4.025  0.4434 -0.0917 -0.2305
 7257SOL     OW28793   0.946   5.416   6.074  0.8759 -0.1224 -0.2317
 7257SOL    HW228794   0.970   5.334   6.118 -0.1624 -0.2198  0.1773
 7257SOL    HW328795   1.022   5.473   6.086  0.5951 -0.1058  1.7713
 7257SOL    MW428796   0.959   5.412   6.081  0.1790  0.8217 -0.3021
 7258SOL     OW28797   2.094   5.979   0.481  0.3795 -0.5680  0.3918
 7258SOL    HW228798   2.070   5.971   0.573  1.8870 -1.4406  0.7489
 7258SOL    HW328799   2.012   5.999   0.436 -0.0290  2.4382  2.2053
 7258SOL    MW428800   2.080   5.981   0.487 -0.4000  0.1459 -0.2846
 7259SOL     OW28801   3.739   0.794   5.567 -0.0998  0.3969 -0.0077
 7259SOL    HW228802   3.644   0.780   5.568  0.0315 -1.3077  3.6032
 7259SOL    HW328803   3.776   0.707   5.554  0.9078  0.6455  1.0100
 7259SOL    MW428804   3.731   0.781   5.566 -0.2452 -0.2718  0.1964
 7260SOL     OW28805   4.135   5.947   0.464  0.3721 -0.2762 -0.3554
 7260SOL    HW228806   4.045   5.927   0.489  0.4979 -3.0817 -1.8232
 7260SOL    HW328807   4.188   5.914   0.536  0.3110  0.0280 -0.1686
 7260SOL    MW428808   4.130   5.940   0.477 -0.2485  0.1189 -0.0733
 7261SOL     OW28809   4.506   0.990   0.766 -0.4980 -0.5979  0.1733
 7261SOL    HW228810   4.579   0.933   0.743 -1.5590 -0.5450 -4.3038
 7261SOL    HW328811   4.453   0.939   0.826  2.1822 -1.3331  2.1139
 7261SOL    MW428812   4.509   0.976   0.771 -0.3358 -0.4042  0.1424
 7262SOL     OW28813   0.392   6.108   1.941  0.0953 -0.3355 -0.3445
 7262SOL    HW228814   0.403   6.192   1.986  1.5326  0.6637 -2.4229
 7262SOL    HW328815   0.304   6.079   1.965  0.0260  1.1501  1.3870
 7262SOL    MW428816   0.382   6.115   1.950  0.0420  0.3790  0.1035
 7263SOL     OW28817   6.162   2.643   3.976  0.4950  0.7249 -0.5709
 7263SOL    HW228818   6.068   2.624   3.979  0.6339 -0.0146 -0.5909
 7263SOL    HW328819   6.173   2.717   4.036  0.1308 -0.2672  0.7849
 7263SOL    MW428820   6.151   2.650   3.985 -0.0151  0.8895  0.2797
 7264SOL     OW28821   1.634   4.860   3.453  0.1751  0.3512  0.3064
 7264SOL    HW228822   1.596   4.773   3.458  0.2237  0.3252  0.2278
 7264SOL    HW328823   1.615   4.890   3.364  1.2543 -0.0843 -0.0870
 7264SOL    MW428824   1.626   4.852   3.442 -0.2749  0.1013 -0.3467
 7265SOL     OW28825   1.803   0.580   6.050 -0.5005  0.9290 -0.1849
 7265SOL    HW228826   1.761   0.637   6.115  0.3869  0.1196  1.1463
 7265SOL    HW328827   1.897   0.591   6.065 -0.1287  2.4933 -2.9283
 7265SOL    MW428828   1.810   0.589   6.061  0.4558  0.3344  0.0498
 7266SOL     OW28829   3.477   4.915   0.659 -0.1271  0.5239 -0.3787
 7266SOL    HW228830   3.453   5.007   0.669  0.0557  0.4152  1.2206
 7266SOL    HW328831   3.515   4.911   0.571 -0.0984  1.9785 -0.4711
 7266SOL    MW428832   3.479   4.927   0.649 -0.0294 -0.2415 -0.2041
 7267SOL     OW28833   0.900   1.899   3.134  0.8500 -0.0405 -0.0152
 7267SOL    HW228834   0.904   1.804   3.142  2.7469 -0.2990 -2.8109
 7267SOL    HW328835   0.828   1.916   3.074 -0.6309  0.4939  1.8097
 7267SOL    MW428836   0.891   1.889   3.127 -0.8039 -0.1440  1.3042
 7268SOL     OW28837   3.798   2.074   4.165 -0.0553  0.0682 -0.1114
 7268SOL    HW228838   3.808   2.161   4.125 -0.6467 -0.3060 -1.1112
 7268SOL    HW328839   3.805   2.090   4.259 -0.8914  1.3205 -0.2375
 7268SOL    MW428840   3.800   2.088   4.172 -0.2851 -0.2442 -0.0381
 7269SOL     OW28841   0.242   2.174   2.289  0.5309  0.1303 -0.0587
 7269SOL    HW228842   0.274   2.224   2.364 -0.3344  0.0819  0.3622
 7269SOL    HW328843   0.155   2.144   2.316  0.8114 -1.1555 -0.5187
 7269SOL    MW428844   0.234   2.177   2.303  0.1854 -0.1810 -0.0397
 7270SOL     OW28845   4.427   2.649   2.240 -0.2965  0.7353  0.5908
 7270SOL    HW228846   4.425   2.596   2.160 -0.1270  1.5978  0.0113
 7270SOL    HW328847   4.483   2.723   2.219 -2.8902  2.7535  0.4122
 7270SOL    MW428848   4.434   2.652   2.227 -0.7022 -0.1859 -0.3735
 7271SOL     OW28849   5.056   0.188   3.384  0.0533 -0.0679 -0.3315
 7271SOL    HW228850   5.001   0.179   3.307  0.7893  1.8630 -1.1459
 7271SOL    HW328851   5.116   0.114   3.381 -0.3103 -0.3252 -1.2908
 7271SOL    MW428852   5.057   0.177   3.374  0.2749  0.5139 -0.1206
 7272SOL     OW28853   2.307   6.110   2.156 -0.2242 -0.0062 -0.0731
 7272SOL    HW228854   2.309   6.160   2.238 -1.6007  1.3512 -0.8016
 7272SOL    HW328855   2.232   6.052   2.165  0.4766 -0.8763  0.1814
 7272SOL    MW428856   2.297   6.109   2.168 -0.4282  0.4335 -0.0461
 7273SOL     OW28857   4.777   1.050   0.976  0.1894  0.2551 -0.5059
 7273SOL    HW228858   4.863   1.069   0.938 -0.0201 -0.2590 -1.2478
 7273SOL    HW328859   4.773   0.955   0.980  0.4053  0.2765  1.3066
 7273SOL    MW428860   4.788   1.040   0.971 -0.2579 -0.6554 -0.9431
 7274SOL     OW28861   0.618   4.918   1.456  0.1783  0.3549  0.4938
 7274SOL    HW228862   0.647   4.840   1.408  0.1931 -0.5610  1.9259
 7274SOL    HW328863   0.551   4.886   1.517  0.1168  1.4767  1.0524
 7274SOL    MW428864   0.613   4.904   1.458 -0.6508  0.2341  0.4906
 7275SOL     OW28865   4.499   2.350   0.390  0.0749  0.5795 -0.2209
 7275SOL    HW228866   4.436   2.405   0.343 -1.1313 -0.4198  0.1721
 7275SOL    HW328867   4.584   2.387   0.368 -0.7115  3.1072  0.6577
 7275SOL    MW428868   4.502   2.362   0.381 -0.1477  0.0209 -0.1855
 7276SOL     OW28869   5.757   1.660   0.810 -0.1561 -0.1039 -0.4356
 7276SOL    HW228870   5.702   1.720   0.861 -0.5887  1.0438 -2.1885
 7276SOL    HW328871   5.695   1.596   0.774  0.0703 -0.5352 -0.0799
 7276SOL    MW428872   5.742   1.659   0.812 -0.1083  0.7040  0.0233
 7277SOL     OW28873   3.930   0.190   2.790  0.1816 -0.3579  0.2415
 7277SOL    HW228874   3.879   0.122   2.746  1.0966 -1.3904  0.7201
 7277SOL    HW328875   3.917   0.268   2.736  2.0002 -1.7660 -2.5316
 7277SOL    MW428876   3.922   0.191   2.777  0.5287  0.1683 -0.0187
 7278SOL     OW28877   4.244   0.108   1.188 -0.0388 -0.6069 -0.6921
 7278SOL    HW228878   4.269   0.018   1.170 -1.1795 -0.6700 -2.2307
 7278SOL    HW328879   4.221   0.144   1.102 -2.7625  0.1276  0.2213
 7278SOL    MW428880   4.244   0.101   1.174  0.2132  0.1786 -0.5232
 7279SOL     OW28881   1.224   5.610   1.109 -0.5001 -0.3564  0.6026
 7279SOL    HW228882   1.185   5.684   1.154 -1.4077 -0.3562 -0.1393
 7279SOL    HW328883   1.211   5.536   1.168  0.4042  0.0571  1.3422
 7279SOL    MW428884   1.217   5.610   1.122 -0.0751 -0.0440  0.2805
 7280SOL     OW28885   3.293   0.799   2.265 -0.8169  0.2041  0.0704
 7280SOL    HW228886   3.378   0.825   2.302 -2.2144  1.0102  3.0336
 7280SOL    HW328887   3.295   0.703   2.264 -0.5218  0.1548  1.9561
 7280SOL    MW428888   3.305   0.790   2.270 -0.1059 -0.6377 -0.3788
 7281SOL     OW28889   5.078   2.050   5.177 -0.2642  0.0099  0.2172
 7281SOL    HW228890   5.050   2.050   5.085  0.1985  0.0390  0.0722
 7281SOL    HW328891   5.148   2.115   5.180  0.1964 -0.4939  0.4419
 7281SOL    MW428892   5.084   2.058   5.165 -0.4401  0.3828  0.0130
 7282SOL     OW28893   0.150   1.346   0.290 -0.6981 -0.4096  0.5994
 7282SOL    HW228894   0.118   1.339   0.200  1.1117  1.6531 -0.3001
 7282SOL    HW328895   0.219   1.412   0.285 -0.2395 -0.5798  3.4438
 7282SOL    MW428896   0.155   1.354   0.277  0.5608 -0.6148  0.5446
 7283SOL     OW28897   6.388   4.335   4.716  0.3079  0.3516  0.0428
 7283SOL    HW228898   6.473   4.374   4.734  1.3868 -1.4153 -0.8756
 7283SOL    HW328899   6.364   4.291   4.797  0.6572  0.1945  0.0620
 7283SOL    MW428900   6.396   4.334   4.729  0.3327 -0.2123  0.0335
 7284SOL     OW28901   3.408   6.276   5.809  0.2452 -0.4850 -0.3038
 7284SOL    HW228902   3.473   6.223   5.764 -0.6272 -1.8891  0.0021
 7284SOL    HW328903   3.325   6.254   5.766 -0.1711  0.4741 -0.0238
 7284SOL    MW428904   3.405   6.266   5.798 -0.5390 -0.3996 -0.0307
 7285SOL     OW28905   5.931   1.438   3.220  0.4363 -0.1425 -0.0357
 7285SOL    HW228906   5.895   1.416   3.306  0.0284 -0.3951 -0.2620
 7285SOL    HW328907   5.899   1.526   3.202 -0.2164 -0.4313 -0.3079
 7285SOL    MW428908   5.922   1.446   3.229  0.4756 -0.3756 -0.1781
 7286SOL     OW28909   0.641   4.707   1.743  0.3419 -0.0437 -0.1204
 7286SOL    HW228910   0.592   4.772   1.793  0.5108 -0.2407  0.2997
 7286SOL    HW328911   0.718   4.753   1.712 -0.0346  0.2312 -0.6721
 7286SOL    MW428912   0.645   4.721   1.745 -0.7644  0.6147  0.1377
 7287SOL     OW28913   1.285   4.429   0.119  0.0033 -0.0224 -0.0073
 7287SOL    HW228914   1.252   4.460   0.203  0.2125 -0.7160  0.3316
 7287SOL    HW328915   1.323   4.507   0.078  0.2514  0.2386  0.7051
 7287SOL    MW428916   1.286   4.444   0.124  0.1706 -0.2623  0.2048
 7288SOL     OW28917   3.153   0.934   5.862  0.8818 -0.5994  0.1753
 7288SOL    HW228918   3.135   0.856   5.809  0.4759 -1.2406  1.2146
 7288SOL    HW328919   3.248   0.944   5.860  0.8451 -0.4368 -0.9025
 7288SOL    MW428920   3.163   0.925   5.855  0.3581  0.0583  0.4535
 7289SOL     OW28921   1.076   1.937   5.565  0.7142 -0.7949 -0.3611
 7289SOL    HW228922   1.168   1.916   5.549  0.8205 -0.7203  0.1339
 7289SOL    HW328923   1.040   1.857   5.603  0.7154 -0.6332 -0.0188
 7289SOL    MW428924   1.084   1.924   5.568 -0.5873 -0.2676 -0.3307
 7290SOL     OW28925   2.131   2.175   6.165 -0.4420  0.8713  0.6189
 7290SOL    HW228926   2.062   2.128   6.211 -0.6233  1.3236  0.8219
 7290SOL    HW328927   2.096   2.263   6.153  0.7717  1.6702  2.3723
 7290SOL    MW428928   2.118   2.180   6.170 -0.5141  0.8694 -0.3208
 7291SOL     OW28929   3.909   2.211   0.999  0.0063 -0.1301  0.2017
 7291SOL    HW228930   3.983   2.226   1.058  1.8540 -3.8087 -0.8598
 7291SOL    HW328931   3.925   2.270   0.925 -0.2320  1.7144  1.5363
 7291SOL    MW428932   3.921   2.221   0.997  0.2118 -0.3669 -0.1505
 7292SOL     OW28933   3.642   4.094   4.659 -0.4601  0.1984 -0.0101
 7292SOL    HW228934   3.640   4.147   4.739  1.8058 -1.0999  1.0003
 7292SOL    HW328935   3.550   4.072   4.643 -0.9648  0.1536  2.4983
 7292SOL    MW428936   3.629   4.098   4.667 -0.0372 -0.2379  0.3795
 7293SOL     OW28937   1.361   5.610   0.297  0.0832  0.5780 -1.0259
 7293SOL    HW228938   1.418   5.635   0.224 -0.0503  0.5503 -1.1403
 7293SOL    HW328939   1.421   5.577   0.364  0.6259  3.8988  0.3522
 7293SOL    MW428940   1.376   5.609   0.296 -0.1174 -0.0563  0.2090
 7294SOL     OW28941   0.519   4.750   0.270  0.2349  0.7332  0.4635
 7294SOL    HW228942   0.469   4.759   0.189 -0.7643  0.9935  1.0938
 7294SOL    HW328943   0.558   4.836   0.283  1.2935  0.3911 -0.2920
 7294SOL    MW428944   0.518   4.763   0.261 -0.0063 -0.2688  0.0550
 7295SOL     OW28945   4.915   5.539   1.451 -0.4578 -0.2113  0.1576
 7295SOL    HW228946   4.827   5.555   1.484 -0.1792  1.7128  0.0827
 7295SOL    HW328947   4.973   5.573   1.519  0.1985 -0.3960 -0.2995
 7295SOL    MW428948   4.911   5.546   1.464  0.0522 -0.6237  0.9725
 7296SOL     OW28949   1.242   3.650   0.082  0.5405  0.1562 -0.5351
 7296SOL    HW228950   1.201   3.712   0.021  0.4206  0.6097  0.0005
 7296SOL    HW328951   1.275   3.580   0.026  0.6201  0.6715 -1.1409
 7296SOL    MW428952   1.241   3.649   0.066  0.4875 -0.0882  0.5490
 7297SOL     OW28953   3.951   1.179   0.665  0.4030 -0.0541  0.2633
 7297SOL    HW228954   3.916   1.216   0.746 -0.0149  0.1203  0.0094
 7297SOL    HW328955   3.873   1.154   0.615  0.6541 -2.2309  0.8446
 7297SOL    MW428956   3.936   1.180   0.669  0.1841  0.4184  0.3936
 7298SOL     OW28957   0.519   0.303   5.038 -0.5389  0.3682 -0.1771
 7298SOL    HW228958   0.558   0.292   5.125 -0.3154 -0.7402 -0.3949
 7298SOL    HW328959   0.539   0.393   5.013 -0.5531  0.6830  0.8912
 7298SOL    MW428960   0.527   0.313   5.046 -0.6751  0.3388 -0.0143
 7299SOL     OW28961   4.420   3.742   5.098  0.1648 -0.4755 -0.3263
 7299SOL    HW228962   4.470   3.820   5.077 -0.2232 -0.4621 -1.2322
 7299SOL    HW328963   4.485   3.671   5.099  0.0618 -0.6906 -2.8433
 7299SOL    MW428964   4.435   3.743   5.096 -0.8732  0.0819 -0.1684
 7300SOL     OW28965   3.296   0.589   5.769 -0.0907 -0.6046  0.1596
 7300SOL    HW228966   3.205   0.615   5.762  0.1675  0.1040 -0.8489
 7300SOL    HW328967   3.344   0.653   5.716  0.7122 -2.3783 -1.3683
 7300SOL    MW428968   3.290   0.601   5.761  0.3291  0.0620 -0.3725
 7301SOL     OW28969   4.786   1.421   1.224 -0.3258 -0.4567 -0.2306
 7301SOL    HW228970   4.703   1.416   1.177  0.5268 -1.2189 -1.7526
 7301SOL    HW328971   4.852   1.430   1.154  0.8328  0.5633  0.9513
 7301SOL    MW428972   4.784   1.421   1.208  0.0873 -0.4665 -0.0383
 7302SOL     OW28973   0.641   1.075   2.359  0.2140  0.7160 -0.5167
 7302SOL    HW228974   0.650   1.167   2.334 -1.4923  1.7472  2.2374
 7302SOL    HW328975   0.690   1.068   2.440 -2.3933  0.1513  1.1274
 7302SOL    MW428976   0.648   1.086   2.366  0.1556  0.1473  0.0992
 7303SOL     OW28977   1.416   3.149   0.386 -0.2568 -0.5450 -0.3974
 7303SOL    HW228978   1.383   3.060   0.402  1.3297 -1.3803 -1.4941
 7303SOL    HW328979   1.368   3.179   0.309 -0.7254 -0.4846 -0.0854
 7303SOL    MW428980   1.405   3.141   0.378 -0.0733  0.2170  0.2777
 7304SOL     OW28981   5.206   4.951   5.657 -0.4776  0.1353  0.3262
 7304SOL    HW228982   5.117   4.936   5.687 -0.8794 -3.2002 -2.0308
 7304SOL    HW328983   5.261   4.931   5.733 -1.6532 -2.1876  0.6572
 7304SOL    MW428984   5.202   4.946   5.671  0.2259  0.1037 -0.4777
 7305SOL     OW28985   6.001   5.434   1.683  0.2594  0.1505 -0.0245
 7305SOL    HW228986   5.942   5.493   1.728 -1.2643 -1.1212 -0.2608
 7305SOL    HW328987   5.980   5.347   1.718  1.5947 -0.4105 -0.5388
 7305SOL    MW428988   5.991   5.430   1.693  0.2415 -0.1148  0.2638
 7306SOL     OW28989   3.294   4.879   6.185 -0.2346  0.8807 -0.3734
 7306SOL    HW228990   3.297   4.932   6.265  0.5175  2.2531 -1.2688
 7306SOL    HW328991   3.267   4.792   6.215  1.8331  0.8201  1.6642
 7306SOL    MW428992   3.291   4.874   6.199 -0.5073  0.0266  0.4726
 7307SOL     OW28993   1.299   3.662   1.992 -0.3296 -0.1201  0.3528
 7307SOL    HW228994   1.352   3.641   2.069 -0.3081 -2.0553 -0.1383
 7307SOL    HW328995   1.305   3.583   1.937  0.4732  1.5585 -2.1211
 7307SOL    MW428996   1.307   3.648   1.995 -0.1503  0.4547  0.4222
 7308SOL     OW28997   2.414   0.722   4.925 -0.6623 -0.5319  0.0194
 7308SOL    HW228998   2.320   0.726   4.904 -1.0135 -1.4938  1.3168
 7308SOL    HW328999   2.420   0.756   5.014  0.0961 -1.3443  0.2938
 7308SOL    MW429000   2.402   0.727   4.934  0.0708 -0.0974 -0.2317
 7309SOL     OW29001   5.238   3.415   5.333 -0.1083  0.2233 -0.0235
 7309SOL    HW229002   5.282   3.497   5.357 -0.7713  1.0236 -1.4585
 7309SOL    HW329003   5.145   3.435   5.338 -0.3529 -1.1638  1.9509
 7309SOL    MW429004   5.232   3.429   5.337 -0.5136 -0.4787  0.2706
 7310SOL     OW29005   1.508   3.860   4.642  0.2619  0.7858 -0.4074
 7310SOL    HW229006   1.585   3.866   4.585 -0.2768  0.5228 -1.1875
 7310SOL    HW329007   1.527   3.787   4.701  1.5528  2.1236  0.9184
 7310SOL    MW429008   1.520   3.851   4.642 -0.1542  0.5862 -0.2229
 7311SOL     OW29009   2.911   1.417   5.034  0.6713 -0.7372 -0.3353
 7311SOL    HW229010   2.847   1.442   4.968 -0.4410  1.8139  1.5326
 7311SOL    HW329011   2.866   1.354   5.091  0.1127  0.2694  0.3728
 7311SOL    MW429012   2.897   1.412   5.033 -0.3022 -0.2111  0.4842
 7312SOL     OW29013   6.240   0.676   0.469 -0.6401 -0.0138  0.1895
 7312SOL    HW229014   6.201   0.607   0.416  1.4253 -0.5734 -0.6575
 7312SOL    HW329015   6.317   0.636   0.509  1.2863  2.0424 -1.2372
 7312SOL    MW429016   6.245   0.662   0.468 -0.3338 -0.0157  0.0702
 7313SOL     OW29017   2.053   1.534   3.586  0.7377 -0.2606  0.3196
 7313SOL    HW229018   2.088   1.546   3.498 -0.6941 -2.0563 -0.5694
 7313SOL    HW329019   1.983   1.599   3.594  1.1250  0.1606  0.2880
 7313SOL    MW429020   2.048   1.544   3.576 -0.4124 -0.2312  0.7227
 7314SOL     OW29021   5.297   4.478   2.121 -0.4504  0.8164 -0.1186
 7314SOL    HW229022   5.203   4.461   2.107  0.0860 -2.3361 -0.6636
 7314SOL    HW329023   5.310   4.463   2.214 -0.2031 -0.8199 -0.3824
 7314SOL    MW429024   5.286   4.474   2.131  0.0139  0.6452  0.3762
 7315SOL     OW29025   3.446   4.610   3.591  0.2327  0.2163 -0.3544
 7315SOL    HW229026   3.394   4.669   3.646  0.2133  0.5366 -0.7165
 7315SOL    HW329027   3.404   4.525   3.602  0.5832  0.1494  0.5976
 7315SOL    MW429028   3.433   4.607   3.600  0.2958  0.4706 -0.0006
 7316SOL     OW29029   4.004   2.754   2.537 -0.1014  0.2564 -0.0125
 7316SOL    HW229030   4.066   2.693   2.496  0.3087  0.7789 -0.1931
 7316SOL    HW329031   3.973   2.809   2.465 -0.2339  0.4565  0.1951
 7316SOL    MW429032   4.008   2.753   2.522  0.3144  0.4060 -0.6191
 7317SOL     OW29033   1.937   4.539   1.577  0.4329 -0.1945 -0.3206
 7317SOL    HW229034   1.905   4.491   1.654  2.0384 -1.9622 -0.6768
 7317SOL    HW329035   2.032   4.541   1.588  0.5468  1.4321 -1.2249
 7317SOL    MW429036   1.945   4.533   1.589  0.3551 -0.3797  0.5288
 7318SOL     OW29037   6.330   2.670   1.462  0.5591 -0.3808 -0.1300
 7318SOL    HW229038   6.375   2.724   1.527  1.5588 -0.9014 -0.3723
 7318SOL    HW329039   6.239   2.669   1.491  0.2713  2.2212 -0.6353
 7318SOL    MW429040   6.324   2.677   1.475  0.2228 -0.5895  0.0469
 7319SOL     OW29041   0.384   4.746   0.639  0.0970  0.2618 -0.1952
 7319SOL    HW229042   0.392   4.673   0.578  0.0604 -0.3003  0.4617
 7319SOL    HW329043   0.370   4.822   0.583 -0.8401 -0.3687 -0.8562
 7319SOL    MW429044   0.383   4.746   0.623 -0.2079 -1.1842  0.0972
 7320SOL     OW29045   4.173   3.278   1.501 -0.2128  0.4876 -0.0966
 7320SOL    HW229046   4.214   3.251   1.419 -0.0932 -0.3490  0.2304
 7320SOL    HW329047   4.079   3.260   1.488 -0.0960 -0.3933  0.2307
 7320SOL    MW429048   4.166   3.272   1.489  0.1384 -0.2224 -0.4738
 7321SOL     OW29049   1.762   0.851   5.194 -0.2006  0.3139  0.4634
 7321SOL    HW229050   1.703   0.891   5.259 -0.2540  2.2783 -0.6978
 7321SOL    HW329051   1.744   0.757   5.200  0.2719  0.3167  3.7262
 7321SOL    MW429052   1.751   0.844   5.204 -0.2904  0.1948  0.7415
 7322SOL     OW29053   2.039   3.297   6.008 -0.1049 -0.3310 -0.1049
 7322SOL    HW229054   2.020   3.266   5.919 -0.8954 -0.3199  0.0477
 7322SOL    HW329055   2.130   3.272   6.024 -0.9186 -3.3878  0.3449
 7322SOL    MW429056   2.048   3.290   5.998  1.0079  0.3901  0.1889
 7323SOL     OW29057   1.152   4.537   1.910 -0.1090 -0.1538 -0.3452
 7323SOL    HW229058   1.168   4.626   1.880  1.4503 -0.4050 -0.3204
 7323SOL    HW329059   1.196   4.481   1.847 -2.9554 -1.0893 -1.6561
 7323SOL    MW429060   1.160   4.541   1.898  0.1250 -0.2705 -0.3962
 7324SOL     OW29061   5.798   5.570   0.021 -0.6862  0.3584  0.0163
 7324SOL    HW229062   5.740   5.511  -0.027  0.0935 -1.6968  1.4573
 7324SOL    HW329063   5.842   5.514   0.084  1.8408  2.1017 -0.0561
 7324SOL    MW429064   5.796   5.555   0.023  0.0236 -0.2115 -0.0877
 7325SOL     OW29065   4.929   4.810   4.422 -0.1128 -0.1548  0.3108
 7325SOL    HW229066   5.012   4.762   4.417 -0.4025 -0.5664 -1.0749
 7325SOL    HW329067   4.910   4.816   4.515  0.6026 -1.5962  0.5817
 7325SOL    MW429068   4.937   4.805   4.433  0.1980  0.4710  0.4254
 7326SOL     OW29069   3.985   3.316   1.894  0.1633 -0.1612  0.1496
 7326SOL    HW229070   3.931   3.300   1.816  1.2807  1.0839 -0.9432
 7326SOL    HW329071   3.938   3.274   1.965 -2.0506  0.5402 -0.8026
 7326SOL    MW429072   3.972   3.309   1.893 -0.2543  0.0019  0.6249
 7327SOL     OW29073   5.347   2.699   1.583  0.5916  0.3124  0.3592
 7327SOL    HW229074   5.319   2.778   1.536  0.8157  0.2096  0.0496
 7327SOL    HW329075   5.320   2.714   1.673 -0.7595  0.0864  0.0232
 7327SOL    MW429076   5.340   2.712   1.588 -0.1081  0.3497 -0.4564
 7328SOL     OW29077   5.690   1.891   5.257 -0.3810  0.1739  0.7955
 7328SOL    HW229078   5.755   1.874   5.326 -1.1964 -3.0535  0.9521
 7328SOL    HW329079   5.606   1.885   5.302 -0.9294  3.0739  0.3601
 7328SOL    MW429080   5.687   1.888   5.272 -0.1634  0.0383  0.2317
 7329SOL     OW29081   5.831   1.639   0.479  0.2115 -0.2924  0.1662
 7329SOL    HW229082   5.775   1.687   0.541 -1.4898 -2.4338  0.4100
 7329SOL    HW329083   5.806   1.673   0.393 -0.0596  0.1366  0.4119
 7329SOL    MW429084   5.820   1.650   0.476 -0.5565  0.4234 -0.1249
 7330SOL     OW29085   2.588   1.571   5.954  0.1756 -0.4186 -0.1122
 7330SOL    HW229086   2.525   1.641   5.936  1.6824  0.9816 -0.1074
 7330SOL    HW329087   2.588   1.562   6.050 -2.1620 -2.5465 -0.1864
 7330SOL    MW429088   2.579   1.579   5.964  0.4046 -0.5575  0.1113
 7331SOL     OW29089   5.925   5.312   1.378 -0.2064 -0.7000  0.2931
 7331SOL    HW229090   5.877   5.280   1.455 -1.1494 -2.2475 -0.8742
 7331SOL    HW329091   6.010   5.268   1.383 -0.3691 -1.0141  0.3045
 7331SOL    MW429092   5.930   5.302   1.389 -0.3669  0.3203  0.4693
 7332SOL     OW29093   3.226   4.496   5.259  0.2936  0.3020 -0.0711
 7332SOL    HW229094   3.206   4.564   5.323  1.1802  0.6127 -0.1194
 7332SOL    HW329095   3.150   4.497   5.200 -0.0261  0.7519  0.3399
 7332SOL    MW429096   3.213   4.505   5.259  0.0857  0.1311  0.4310
 7333SOL     OW29097   2.933   5.221   1.486 -0.6786  1.0034  0.2805
 7333SOL    HW229098   3.014   5.194   1.442 -0.3854  0.8509  0.9080
 7333SOL    HW329099   2.946   5.313   1.506 -1.0902  1.2478 -0.5597
 7333SOL    MW429100   2.946   5.229   1.483 -0.4951  0.0543  0.0379
 7334SOL     OW29101   6.401   2.227   4.042 -0.5533 -0.2925 -0.0709
 7334SOL    HW229102   6.475   2.215   4.101  1.5003 -1.9111 -2.7728
 7334SOL    HW329103   6.367   2.314   4.065  3.0300  1.1700  0.4111
 7334SOL    MW429104   6.406   2.237   4.053  0.3807  0.4234 -0.3567
 7335SOL     OW29105   4.154   0.503   4.798 -0.2335 -0.9034  0.3172
 7335SOL    HW229106   4.116   0.416   4.788 -0.1375 -0.9489  0.3471
 7335SOL    HW329107   4.207   0.516   4.720 -2.1918  0.1272 -0.9197
 7335SOL    MW429108   4.156   0.494   4.787 -0.3294 -0.3442 -0.3257
 7336SOL     OW29109   0.093   6.035   1.379  0.0632 -0.2289  0.3787
 7336SOL    HW229110   0.029   5.977   1.420 -2.4370  1.6272 -0.6973
 7336SOL    HW329111   0.042   6.094   1.325  2.9666 -1.0806 -3.7504
 7336SOL    MW429112   0.078   6.035   1.377 -0.2877  0.1689  0.4649
 7337SOL     OW29113   4.476   2.464   4.516  0.3336  0.0512  0.5954
 7337SOL    HW229114   4.453   2.402   4.448  0.3624  1.1070 -0.4012
 7337SOL    HW329115   4.399   2.521   4.524  0.6310  0.4187  0.8966
 7337SOL    MW429116   4.463   2.464   4.508 -0.2296 -0.1716  0.0202
 7338SOL     OW29117   3.935   0.305   5.184 -0.1304 -0.1222 -0.2642
 7338SOL    HW229118   3.846   0.282   5.159 -0.0396 -1.4280  0.4741
 7338SOL    HW329119   3.990   0.249   5.129  0.3473  1.8656 -1.9367
 7338SOL    MW429120   3.931   0.294   5.173  0.1872  0.0848 -0.3868
 7339SOL     OW29121   6.405   3.166   3.990 -0.0262  0.8712  0.1808
 7339SOL    HW229122   6.411   3.120   4.074 -0.7272  1.3934  0.5337
 7339SOL    HW329123   6.423   3.100   3.924  0.6461  0.4747  0.7480
 7339SOL    MW429124   6.408   3.151   3.993  0.1773  0.0285 -0.0791
 7340SOL     OW29125   1.779   2.875   3.318 -0.1440 -0.3936  0.0037
 7340SOL    HW229126   1.799   2.824   3.239  0.7086 -0.2965  0.1493
 7340SOL    HW329127   1.829   2.956   3.307  0.0354 -0.4107  0.6787
 7340SOL    MW429128   1.788   2.879   3.306  0.1283  0.4460  0.5653
 7341SOL     OW29129   5.196   5.876   4.760 -0.3877 -0.2726 -0.3004
 7341SOL    HW229130   5.110   5.853   4.724 -0.1397 -1.0461 -0.4192
 7341SOL    HW329131   5.223   5.799   4.810  0.1185  0.0678 -0.0355
 7341SOL    MW429132   5.188   5.863   4.762 -0.8608 -0.6727 -0.2430
 7342SOL     OW29133   5.010   6.134   5.074  0.2029  0.1661  0.6174
 7342SOL    HW229134   5.090   6.170   5.110  0.2166  0.1621  0.5914
 7342SOL    HW329135   4.945   6.143   5.144  0.5832 -1.1584  1.1773
 7342SOL    MW429136   5.012   6.140   5.088 -0.4574  0.1427  0.6060
 7343SOL     OW29137   2.442   4.492   0.057 -0.2279  0.6605  0.4263
 7343SOL    HW229138   2.434   4.525  -0.032  0.8364  0.3598  0.2138
 7343SOL    HW329139   2.357   4.511   0.097 -1.1186 -0.2028 -0.9822
 7343SOL    MW429140   2.429   4.499   0.051  0.5421  0.0009 -0.2950
 7344SOL     OW29141   0.517   4.573   1.522 -0.4784 -0.8294 -0.4134
 7344SOL    HW229142   0.553   4.491   1.488  0.4036 -0.0821 -1.3524
 7344SOL    HW329143   0.585   4.609   1.578 -0.6075 -0.4474 -0.4922
 7344SOL    MW429144   0.531   4.567   1.525  0.1732  0.5452  0.1359
 7345SOL     OW29145   6.126   1.048   2.980 -0.0703 -0.4780  0.6489
 7345SOL    HW229146   6.213   1.016   3.004  0.1057  0.6521  1.5918
 7345SOL    HW329147   6.069   1.018   3.052  0.0536  1.0797  1.4237
 7345SOL    MW429148   6.130   1.040   2.993 -0.2972  0.6505 -0.1720
 7346SOL     OW29149   2.437   0.264   5.493  0.0174  0.1102 -0.1886
 7346SOL    HW229150   2.482   0.179   5.492  1.5560  0.8737  0.0607
 7346SOL    HW329151   2.348   0.244   5.522  0.9251 -1.1805  2.0260
 7346SOL    MW429152   2.431   0.250   5.497 -0.3678 -0.0578 -0.4310
 7347SOL     OW29153   2.878   3.495   1.174 -0.1113 -0.1984  0.2966
 7347SOL    HW229154   2.918   3.416   1.211  0.8289  0.4241  0.6544
 7347SOL    HW329155   2.784   3.477   1.175  0.0945 -1.4169  0.1197
 7347SOL    MW429156   2.871   3.482   1.179 -0.3664 -0.5906 -0.1207
 7348SOL     OW29157   5.523   4.905   3.535 -0.0442 -0.3149 -0.4372
 7348SOL    HW229158   5.588   4.845   3.571  0.4840 -0.7988 -2.0990
 7348SOL    HW329159   5.465   4.848   3.483  0.8467  0.6327 -2.5852
 7348SOL    MW429160   5.524   4.889   3.533 -0.2988 -0.4093  0.1858
 7349SOL     OW29161   5.455   6.048   4.341  0.1205 -0.2728 -0.2483
 7349SOL    HW229162   5.502   6.059   4.423  1.3052  1.6631 -1.1135
 7349SOL    HW329163   5.523   6.050   4.273 -0.6494 -3.3876 -1.2679
 7349SOL    MW429164   5.470   6.050   4.343 -0.2012 -0.1422 -0.0997
 7350SOL     OW29165   3.557   1.481   4.641 -0.4107 -0.1733  0.7089
 7350SOL    HW229166   3.504   1.516   4.713 -1.6873  0.9032 -0.7090
 7350SOL    HW329167   3.497   1.474   4.567  1.0652 -0.4314 -0.5236
 7350SOL    MW429168   3.542   1.485   4.641 -0.1016 -0.5673 -0.1952
 7351SOL     OW29169   0.267   4.609   1.379  0.0066  0.2297 -0.1995
 7351SOL    HW229170   0.240   4.700   1.387 -0.2164  0.2579 -1.2318
 7351SOL    HW329171   0.349   4.604   1.429  0.4422  1.1760 -0.8084
 7351SOL    MW429172   0.274   4.620   1.387  0.4960  0.5098 -0.2001
 7352SOL     OW29173   1.953   0.572   4.337 -0.3538 -0.6052 -0.2618
 7352SOL    HW229174   1.943   0.662   4.308 -0.8270 -0.4867  0.2585
 7352SOL    HW329175   1.876   0.555   4.391  0.2814 -0.9671  0.5542
 7352SOL    MW429176   1.942   0.581   4.340 -0.3654 -0.1611 -0.3491
 7353SOL     OW29177   0.289   0.755   3.317 -0.1313  0.2933 -0.4917
 7353SOL    HW229178   0.292   0.849   3.335  1.0080  0.0825  0.5457
 7353SOL    HW329179   0.263   0.715   3.400  0.2659 -0.3708 -0.6773
 7353SOL    MW429180   0.286   0.762   3.330  0.1346  0.2030  0.0662
 7354SOL     OW29181   1.082   5.545   0.811 -0.2698 -0.1067 -0.1092
 7354SOL    HW229182   1.083   5.614   0.877 -0.3540 -0.3201  0.1172
 7354SOL    HW329183   1.034   5.473   0.853  0.0470 -0.3972 -0.2468
 7354SOL    MW429184   1.076   5.545   0.825 -0.0616  0.5545 -0.1733
 7355SOL     OW29185   5.545   5.635   5.128  0.0161 -0.4553  0.4400
 7355SOL    HW229186   5.486   5.632   5.202 -1.7506  0.5381 -0.8581
 7355SOL    HW329187   5.551   5.544   5.098 -2.5330 -0.3535 -0.6101
 7355SOL    MW429188   5.538   5.622   5.134 -0.1716  0.5687  0.5392
 7356SOL     OW29189   0.307   6.204   0.415 -0.0582 -0.0157 -0.1373
 7356SOL    HW229190   0.397   6.224   0.387  0.2777 -1.5372 -0.2472
 7356SOL    HW329191   0.316   6.127   0.471 -1.0766  1.1329  1.7015
 7356SOL    MW429192   0.320   6.197   0.418  0.0534  0.2227 -0.1661
 7357SOL     OW29193   2.391   1.124   6.336 -0.6385  0.0579 -0.3619
 7357SOL    HW229194   2.344   1.183   6.394 -2.8762 -1.7424 -0.2231
 7357SOL    HW329195   2.457   1.083   6.392 -2.1848 -0.9984  0.7776
 7357SOL    MW429196   2.394   1.126   6.351 -0.5335 -0.6156 -0.0654
 7358SOL     OW29197   6.067   6.404   1.057 -0.1894 -0.4078 -0.3352
 7358SOL    HW229198   5.996   6.373   1.001 -1.3935 -1.0543  1.4607
 7358SOL    HW329199   6.092   6.489   1.020 -1.2434 -0.6018 -1.5643
 7358SOL    MW429200   6.061   6.411   1.045 -0.2720 -0.2167 -0.3664
 7359SOL     OW29201   5.955   4.723   5.855  0.0597 -0.0068 -0.1679
 7359SOL    HW229202   5.968   4.628   5.849 -1.3400 -0.2352  0.1837
 7359SOL    HW329203   5.979   4.756   5.768  0.4955 -0.6815 -0.3102
 7359SOL    MW429204   5.960   4.715   5.843 -0.4093  0.0457 -0.4052
 7360SOL     OW29205   4.491   3.616   2.214 -0.4157  0.1700 -0.2266
 7360SOL    HW229206   4.525   3.704   2.229 -0.0972  0.1768 -0.9826
 7360SOL    HW329207   4.507   3.599   2.121 -3.4873  0.6355 -0.9458
 7360SOL    MW429208   4.497   3.625   2.204 -0.0427 -0.6817 -0.7716
 7361SOL     OW29209   4.433   1.416   4.690 -0.3867  0.1299  0.1988
 7361SOL    HW229210   4.409   1.507   4.703 -0.2537  0.1247  0.4879
 7361SOL    HW329211   4.488   1.416   4.611 -0.6673  0.2495  0.0022
 7361SOL    MW429212   4.437   1.428   4.681 -0.2489  0.0257 -0.5043
 7362SOL     OW29213   5.456   2.883   3.291  0.2502 -0.7965 -0.3530
 7362SOL    HW229214   5.495   2.880   3.203 -0.7492  0.3470 -0.8571
 7362SOL    HW329215   5.391   2.813   3.291 -1.1805  0.4703 -1.2700
 7362SOL    MW429216   5.453   2.873   3.279  0.0265 -0.4793 -0.1233
 7363SOL     OW29217   5.872   2.187   1.025  0.1339 -0.1524  0.0195
 7363SOL    HW229218   5.855   2.161   0.934  0.2256 -1.2453  0.3042
 7363SOL    HW329219   5.863   2.106   1.075  2.0968  0.0169  0.7215
 7363SOL    MW429220   5.869   2.173   1.019 -0.1952 -0.0485 -0.4365
 7364SOL     OW29221   0.310   3.405   4.728 -0.3821  0.1301 -0.4415
 7364SOL    HW229222   0.290   3.497   4.744  0.2753  0.1525  0.3227
 7364SOL    HW329223   0.278   3.359   4.806 -3.7946 -0.7989 -2.1849
 7364SOL    MW429224   0.304   3.411   4.740 -0.4637  0.0367  0.4592
 7365SOL     OW29225   3.947   5.641   0.801  0.2592  0.1838  0.8176
 7365SOL    HW229226   3.956   5.550   0.774  1.0799  0.0161  1.5928
 7365SOL    HW329227   3.853   5.654   0.813 -0.0201 -0.0683 -0.8724
 7365SOL    MW429228   3.936   5.631   0.799  0.0242  0.0573 -0.0183
 7366SOL     OW29229   3.201   2.531   2.599 -0.1777 -0.1191  0.2989
 7366SOL    HW229230   3.234   2.441   2.598  0.4580  0.0349  2.2826
 7366SOL    HW329231   3.271   2.583   2.560  0.1483 -0.3039  0.6315
 7366SOL    MW429232   3.214   2.526   2.594  0.1618  0.0329  0.2487
 7367SOL     OW29233   2.935   0.568   1.476  0.1805 -0.6958  0.7635
 7367SOL    HW229234   2.964   0.562   1.385  0.8112  1.0619  0.8063
 7367SOL    HW329235   2.852   0.616   1.471  0.0639 -0.8672  1.0804
 7367SOL    MW429236   2.928   0.574   1.463 -0.0462 -0.3061 -0.2158
 7368SOL     OW29237   4.961   3.207   1.553 -0.0291 -0.5014  0.2285
 7368SOL    HW229238   5.011   3.156   1.617 -0.6923 -1.3125  0.1257
 7368SOL    HW329239   4.900   3.143   1.515  0.8034 -0.2357 -1.7161
 7368SOL    MW429240   4.960   3.192   1.556 -0.5398 -0.4768 -0.2827
 7369SOL     OW29241   4.591   2.584   1.253 -0.2091  0.3753 -0.5857
 7369SOL    HW229242   4.675   2.630   1.263 -0.4454  1.0875 -1.7135
 7369SOL    HW329243   4.543   2.606   1.333  0.4563  0.4220 -0.1872
 7369SOL    MW429244   4.596   2.593   1.265 -0.1568 -0.1858 -0.0695
 7370SOL     OW29245   0.102   1.971   5.037  0.1842  0.6024 -0.2408
 7370SOL    HW229246   0.041   1.926   5.095  1.8292  0.3048  1.3651
 7370SOL    HW329247   0.175   1.996   5.094  1.2271  1.5869 -1.9201
 7370SOL    MW429248   0.104   1.968   5.052 -0.0734  0.7912  0.3202
 7371SOL     OW29249   4.655   1.780   0.915 -0.5306  0.1544  0.4128
 7371SOL    HW229250   4.573   1.829   0.912 -0.4169  0.3451  0.3735
 7371SOL    HW329251   4.643   1.709   0.851  0.1399  1.4641 -1.2499
 7371SOL    MW429252   4.643   1.777   0.906  0.0031  0.5085 -0.4954
 7372SOL     OW29253   5.427   6.254   1.113  0.3904  0.3133  0.4751
 7372SOL    HW229254   5.413   6.253   1.208  0.0044 -0.7170  0.4092
 7372SOL    HW329255   5.517   6.223   1.103 -0.0741 -1.0996  0.4357
 7372SOL    MW429256   5.437   6.250   1.124 -0.4447  0.4199  0.0314
 7373SOL     OW29257   5.906   0.051   4.325 -0.4220  0.0303  0.3348
 7373SOL    HW229258   5.909   0.135   4.279  1.2875 -0.3415 -0.3038
 7373SOL    HW329259   5.977  -0.000   4.286 -0.6676 -1.2827  1.5414
 7373SOL    MW429260   5.916   0.055   4.314 -0.5003  0.1657 -0.0063
 7374SOL     OW29261   3.382   1.246   1.457  0.0451 -0.2699  0.1951
 7374SOL    HW229262   3.387   1.153   1.433 -1.0067 -0.1478 -0.5640
 7374SOL    HW329263   3.289   1.261   1.474 -0.1094  1.0993 -1.6337
 7374SOL    MW429264   3.370   1.236   1.456 -0.3723  0.5442  0.8258
 7375SOL     OW29265   4.588   6.428   5.616 -0.4804  0.4399  0.6556
 7375SOL    HW229266   4.611   6.439   5.708 -1.1765  0.4734  0.8297
 7375SOL    HW329267   4.518   6.363   5.616  1.3147 -1.5988 -0.0806
 7375SOL    MW429268   4.582   6.421   5.628  0.1086  0.0267  0.2426
 7376SOL     OW29269   5.514   4.695   5.359  0.5082  0.0957 -0.2108
 7376SOL    HW229270   5.451   4.623   5.355 -0.3232  0.7867  0.0234
 7376SOL    HW329271   5.570   4.674   5.434 -0.8371  0.5519  0.9690
 7376SOL    MW429272   5.513   4.683   5.368 -0.3709  0.7535  0.5639
 7377SOL     OW29273   5.453   4.754   0.924 -0.1946 -0.2787 -1.1199
 7377SOL    HW229274   5.453   4.714   1.011 -0.4872  0.2350 -0.8792
 7377SOL    HW329275   5.362   4.778   0.909 -0.4573 -1.8799 -2.2910
 7377SOL    MW429276   5.441   4.752   0.934 -0.2899 -0.0853  0.2950
 7378SOL     OW29277   5.668   4.038   2.355 -0.2376 -0.5446 -0.7577
 7378SOL    HW229278   5.737   4.044   2.289  1.1049 -1.0501  0.5503
 7378SOL    HW329279   5.712   4.057   2.438 -1.5056 -1.6362  0.2146
 7378SOL    MW429280   5.683   4.041   2.358 -0.1762  0.1117 -0.4151
 7379SOL     OW29281   6.294   0.644   2.481  0.0980  0.1603 -0.1543
 7379SOL    HW229282   6.223   0.592   2.520  0.7170 -0.7231 -0.1901
 7379SOL    HW329283   6.249   0.720   2.443 -0.8942 -0.6349 -0.6304
 7379SOL    MW429284   6.279   0.647   2.481  0.6342 -0.9947  0.2835
 7380SOL     OW29285   1.545   3.523   4.188  0.7203  0.1108 -0.2266
 7380SOL    HW229286   1.625   3.501   4.236 -0.8101 -2.1487  1.5031
 7380SOL    HW329287   1.478   3.467   4.227 -2.6138  4.4668  0.9914
 7380SOL    MW429288   1.547   3.512   4.200  0.3130  0.2505  0.6685
 7381SOL     OW29289   3.212   3.243   0.987  0.0351 -0.4602 -0.1780
 7381SOL    HW229290   3.303   3.226   0.962 -0.1674 -2.7291  0.4134
 7381SOL    HW329291   3.161   3.184   0.931 -1.3738  2.5720 -2.3498
 7381SOL    MW429292   3.218   3.233   0.976  0.3591  0.2662  0.2607
 7382SOL     OW29293   4.140   0.555   3.483 -0.1867  0.4213 -0.0266
 7382SOL    HW229294   4.102   0.643   3.493 -0.6643  0.1744  0.4417
 7382SOL    HW329295   4.077   0.508   3.429  0.2589  0.4727 -0.5989
 7382SOL    MW429296   4.126   0.560   3.477  0.0016 -0.0042  0.2710
 7383SOL     OW29297   6.249   4.702   5.908 -0.2089  0.0230  0.0910
 7383SOL    HW229298   6.211   4.743   5.830 -0.1779  1.2088  0.6775
 7383SOL    HW329299   6.212   4.750   5.981 -2.4545 -2.8575  1.0306
 7383SOL    MW429300   6.239   4.714   5.907  0.1323 -0.2685 -0.4945
 7384SOL     OW29301   2.059   6.298   3.535  0.3047  0.3062 -0.0278
 7384SOL    HW229302   2.042   6.362   3.604 -1.5956  0.1365 -0.2772
 7384SOL    HW329303   2.095   6.222   3.580  0.3698  0.6916  0.5775
 7384SOL    MW429304   2.062   6.297   3.550  0.2283  0.5140 -0.4020
 7385SOL     OW29305   5.368   6.114   1.343 -0.2093 -0.3281  0.0594
 7385SOL    HW229306   5.297   6.058   1.312 -0.4138  0.9526 -1.9967
 7385SOL    HW329307   5.448   6.070   1.313 -0.1931 -0.9398  0.9582
 7385SOL    MW429308   5.369   6.101   1.335 -0.0303 -0.6657 -0.0047
 7386SOL     OW29309   1.054   5.550   3.679  0.5658  0.4646 -0.1145
 7386SOL    HW229310   1.112   5.483   3.643  0.8666  0.1827  0.8495
 7386SOL    HW329311   1.091   5.633   3.650  1.1243  0.2635  0.0062
 7386SOL    MW429312   1.066   5.552   3.670  0.3664  0.4552  0.3942
 7387SOL     OW29313   5.277   0.822   4.910 -0.2846 -0.6935  0.2462
 7387SOL    HW229314   5.183   0.837   4.916 -0.3401 -1.4523  1.7868
 7387SOL    HW329315   5.288   0.762   4.836 -1.0806 -1.0641  0.4225
 7387SOL    MW429316   5.266   0.816   4.901  0.0244 -0.2739  0.7979
 7388SOL     OW29317   3.619   5.952   0.596  0.4581 -0.2959  0.1894
 7388SOL    HW229318   3.561   5.980   0.667  0.9349 -1.7520  1.1952
 7388SOL    HW329319   3.568   5.967   0.516 -1.0196 -0.8453  0.9845
 7388SOL    MW429320   3.605   5.958   0.595 -0.3188  0.2164 -0.3815
 7389SOL     OW29321   1.263   4.857   5.734  0.0169  0.0384  0.2817
 7389SOL    HW229322   1.262   4.881   5.827 -0.0637 -0.6038  0.4526
 7389SOL    HW329323   1.264   4.761   5.734 -1.2181  0.0076 -0.3891
 7389SOL    MW429324   1.263   4.847   5.747 -0.3612 -0.5712  0.8390
 7390SOL     OW29325   5.265   2.710   2.508 -0.2172  0.0498 -0.1261
 7390SOL    HW229326   5.336   2.717   2.444 -1.7726 -1.9808 -2.2569
 7390SOL    HW329327   5.283   2.629   2.555 -0.4363  0.2226  0.2570
 7390SOL    MW429328   5.277   2.700   2.506 -0.3808 -0.1489  0.2447
 7391SOL     OW29329   2.919   0.677   3.789  0.6994  0.5555 -0.2281
 7391SOL    HW229330   2.914   0.682   3.885 -1.0633 -0.8367 -0.1981
 7391SOL    HW329331   2.918   0.769   3.761 -1.6303  1.0222  1.0362
 7391SOL    MW429332   2.918   0.690   3.798  0.8050  0.3919  0.4695
 7392SOL     OW29333   3.095   5.528   1.283 -0.0848 -0.4551 -0.6791
 7392SOL    HW229334   3.063   5.461   1.221  0.1594 -0.0800 -1.2171
 7392SOL    HW329335   3.071   5.611   1.242  1.2156 -0.1667 -0.9045
 7392SOL    MW429336   3.087   5.530   1.269 -0.6665  0.1793 -0.0006
 7393SOL     OW29337   4.471   1.661   2.755  0.0240  0.0533  0.0428
 7393SOL    HW229338   4.512   1.574   2.759 -0.3704 -0.1622 -0.6094
 7393SOL    HW329339   4.539   1.721   2.788  0.1886 -0.5308  0.7982
 7393SOL    MW429340   4.486   1.658   2.760 -0.7729  0.5004  0.0156
 7394SOL     OW29341   3.413   2.588   3.844 -0.5931 -0.2904 -0.5108
 7394SOL    HW229342   3.487   2.528   3.850 -0.5220 -0.1005  0.8502
 7394SOL    HW329343   3.441   2.666   3.892 -2.1311 -0.7376  1.2228
 7394SOL    MW429344   3.426   2.590   3.851  0.2980 -0.2321 -0.3960
 7395SOL     OW29345   0.856   2.504   6.141  0.1155  0.2869 -0.0716
 7395SOL    HW229346   0.830   2.567   6.209  1.8023  0.7588  0.1760
 7395SOL    HW329347   0.861   2.557   6.061  0.2021  0.1792 -0.1366
 7395SOL    MW429348   0.853   2.519   6.139 -0.4510 -0.1326 -0.6292
 7396SOL     OW29349   0.055   1.682   2.723 -0.3689 -0.3528 -0.3547
 7396SOL    HW229350   0.046   1.725   2.808 -0.0863  1.3204 -1.1249
 7396SOL    HW329351  -0.035   1.670   2.693 -0.4444  0.2152 -0.3640
 7396SOL    MW429352   0.042   1.686   2.730 -0.5108  0.2866 -0.4769
 7397SOL     OW29353   5.201   5.468   5.102 -0.4160 -0.1551  0.1172
 7397SOL    HW229354   5.237   5.523   5.032 -0.5662 -0.9245 -0.5910
 7397SOL    HW329355   5.262   5.479   5.175  0.4811 -0.3387 -0.5842
 7397SOL    MW429356   5.214   5.477   5.102 -0.4308  0.4480  0.0660
 7398SOL     OW29357   0.408   0.850   5.222  0.7039 -0.4797  0.1723
 7398SOL    HW229358   0.421   0.766   5.179  1.9782 -0.9836  1.4867
 7398SOL    HW329359   0.453   0.913   5.166 -1.4953 -0.3725 -1.6186
 7398SOL    MW429360   0.415   0.847   5.209  0.5667 -0.0249  0.6234
 7399SOL     OW29361   1.049   1.529   1.163  0.0443  0.2039  0.3577
 7399SOL    HW229362   1.107   1.504   1.235  0.0218 -2.6855 -0.4714
 7399SOL    HW329363   1.103   1.520   1.085 -0.9802 -0.6892 -0.2753
 7399SOL    MW429364   1.064   1.524   1.163  0.3007  0.0390 -0.1647
 7400SOL     OW29365   3.666   3.502   2.621 -0.0302 -0.0808  0.2137
 7400SOL    HW229366   3.702   3.420   2.585 -0.1912  0.0507 -0.2470
 7400SOL    HW329367   3.582   3.477   2.659  0.7985 -0.5115  1.8368
 7400SOL    MW429368   3.660   3.488   2.621  0.6376 -0.5291 -0.4313
 7401SOL     OW29369   1.601   3.917   4.993 -0.1108 -0.3092  0.1735
 7401SOL    HW229370   1.670   3.891   4.933  0.6832  0.1683  0.8522
 7401SOL    HW329371   1.550   3.982   4.945  0.8653  0.5057  0.1939
 7401SOL    MW429372   1.604   3.922   4.979  0.2421  0.2730 -0.4550
 7402SOL     OW29373   2.096   5.701   5.918 -0.0197 -0.3290  0.2468
 7402SOL    HW229374   2.188   5.724   5.930 -0.3076  0.7746  0.3627
 7402SOL    HW329375   2.086   5.620   5.969  0.6815 -0.0089  0.9233
 7402SOL    MW429376   2.107   5.693   5.927 -0.2863 -0.3676 -0.0297
 7403SOL     OW29377   4.545   0.686   2.250  0.1007  0.2468 -0.0521
 7403SOL    HW229378   4.620   0.642   2.210 -0.4879 -0.4277 -0.4394
 7403SOL    HW329379   4.485   0.702   2.177 -0.9397 -0.8936  0.5186
 7403SOL    MW429380   4.547   0.683   2.235 -0.7227  0.2094  0.7251
 7404SOL     OW29381   2.402   0.164   4.552 -0.1888 -0.7085  0.2600
 7404SOL    HW229382   2.422   0.149   4.645 -0.7293  1.5245  0.8106
 7404SOL    HW329383   2.472   0.222   4.522 -2.2335  2.1125  0.5295
 7404SOL    MW429384   2.414   0.170   4.561  0.4576 -0.2167 -0.3452
 7405SOL     OW29385   4.901   3.831   1.633 -0.2219  0.3329 -0.3465
 7405SOL    HW229386   4.882   3.924   1.624  0.0847  0.2271 -2.6932
 7405SOL    HW329387   4.958   3.810   1.558 -0.0615 -1.6827  0.2658
 7405SOL    MW429388   4.906   3.840   1.622  0.2200  0.0677  0.6993
 7406SOL     OW29389   2.288   2.200   0.204 -0.8752  0.5008  0.1113
 7406SOL    HW229390   2.216   2.217   0.265 -0.9261 -0.6516  0.3877
 7406SOL    HW329391   2.271   2.113   0.170  0.0900  0.4426 -0.2503
 7406SOL    MW429392   2.276   2.191   0.208 -0.6482 -0.1578  0.5165
 7407SOL     OW29393   5.179   2.864   4.527 -0.1901  0.4155  0.0419
 7407SOL    HW229394   5.148   2.797   4.466  0.9008 -1.3286  1.3055
 7407SOL    HW329395   5.270   2.879   4.501  0.5359 -0.9258  1.6459
 7407SOL    MW429396   5.187   2.858   4.515  0.1177 -0.1205 -0.3778
 7408SOL     OW29397   1.066   5.402   6.357 -0.8923  0.1816  0.0545
 7408SOL    HW229398   1.103   5.488   6.377 -2.1969  0.4959  1.2746
 7408SOL    HW329399   1.054   5.361   6.443  1.3083 -1.9612 -0.5442
 7408SOL    MW429400   1.069   5.408   6.371 -1.0540 -0.5038 -0.1201
 7409SOL     OW29401   3.293   0.833   3.918  0.1745  0.1741 -0.4002
 7409SOL    HW229402   3.276   0.914   3.968  0.7676  1.2537 -1.8732
 7409SOL    HW329403   3.253   0.764   3.971  0.9647  1.2087  1.6933
 7409SOL    MW429404   3.285   0.835   3.932 -0.2712  0.4874  0.0515
 7410SOL     OW29405   5.459   0.473   1.620 -0.1208 -0.5408  0.1389
 7410SOL    HW229406   5.432   0.386   1.651  0.0411 -1.5394 -2.2864
 7410SOL    HW329407   5.549   0.483   1.649 -0.1710 -1.1515  0.5117
 7410SOL    MW429408   5.467   0.463   1.628  0.3643  0.1913 -0.5310
 7411SOL     OW29409   1.004   3.588   2.023  0.1738 -0.7312 -0.1225
 7411SOL    HW229410   0.978   3.579   2.114 -2.0074 -1.7055 -0.7672
 7411SOL    HW329411   1.099   3.599   2.025  0.1083 -0.2558  2.2602
 7411SOL    MW429412   1.013   3.588   2.035 -0.3105  0.3786 -0.2052
 7412SOL     OW29413   5.938   2.748   1.028 -0.1518  0.2476  0.4603
 7412SOL    HW229414   5.914   2.655   1.019  1.2754  0.0552 -3.9890
 7412SOL    HW329415   5.989   2.752   1.109  1.0866 -3.2436  0.0142
 7412SOL    MW429416   5.941   2.736   1.037 -0.0088  0.5797 -0.0665
 7413SOL     OW29417   5.405   0.160   4.587 -0.1629 -0.8345  0.4846
 7413SOL    HW229418   5.472   0.207   4.538 -1.4351  1.5686  0.8691
 7413SOL    HW329419   5.340   0.135   4.521 -1.1129  1.0245  0.6385
 7413SOL    MW429420   5.405   0.163   4.572  0.1146 -0.4624  0.1286
 7414SOL     OW29421   4.084   1.575   3.171 -0.1061 -0.4252  0.1056
 7414SOL    HW229422   4.146   1.644   3.194 -0.4219  0.3296 -1.1732
 7414SOL    HW329423   4.087   1.514   3.244  0.5997  0.6604  1.0114
 7414SOL    MW429424   4.093   1.576   3.183 -0.0908 -0.5455  0.0988
 7415SOL     OW29425   2.144   1.911   0.442  0.2039  0.2528  0.1255
 7415SOL    HW229426   2.058   1.931   0.406 -0.2972 -1.9423 -0.0453
 7415SOL    HW329427   2.128   1.841   0.505  1.9106 -0.5473 -0.2809
 7415SOL    MW429428   2.131   1.905   0.445  0.6011 -0.0993  1.0137
 7416SOL     OW29429   5.290   2.372   0.604 -0.0263  0.2095 -0.2757
 7416SOL    HW229430   5.355   2.391   0.537  1.6247 -0.8656  0.9277
 7416SOL    HW329431   5.335   2.391   0.687 -0.9250 -1.3668  0.6298
 7416SOL    MW429432   5.305   2.377   0.606 -0.4012 -0.2650 -0.2085
 7417SOL     OW29433   1.371   5.418   4.786 -0.6471 -0.2138  0.0083
 7417SOL    HW229434   1.450   5.439   4.836  1.4069 -3.1287 -1.6747
 7417SOL    HW329435   1.338   5.503   4.756  1.1630  1.1907  1.7504
 7417SOL    MW429436   1.377   5.432   4.789 -0.3730 -0.2807  0.2586
 7418SOL     OW29437   4.731   1.589   2.502 -0.1053 -0.4077  0.6201
 7418SOL    HW229438   4.754   1.525   2.570  0.4554 -0.1738  0.6565
 7418SOL    HW329439   4.805   1.649   2.500 -0.0271 -0.5280 -0.3379
 7418SOL    MW429440   4.744   1.588   2.511 -0.0502  0.2886  0.3599
 7419SOL     OW29441   3.707   3.700   1.730  0.0666 -0.0556  0.1152
 7419SOL    HW229442   3.687   3.626   1.672 -1.8424 -1.0005  1.8414
 7419SOL    HW329443   3.764   3.663   1.798 -1.5486 -0.2474  1.4486
 7419SOL    MW429444   3.712   3.685   1.732 -0.2612 -0.0371 -0.4260
 7420SOL     OW29445   1.554   4.413   5.889 -0.0211 -0.2504 -0.0354
 7420SOL    HW229446   1.582   4.448   5.804  2.9963  0.4229  1.1137
 7420SOL    HW329447   1.615   4.341   5.906  1.0655  1.1558  2.5642
 7420SOL    MW429448   1.566   4.408   5.880 -0.1268  0.0569  0.2783
 7421SOL     OW29449   0.295   5.881   5.631  0.9821 -0.1806  0.1782
 7421SOL    HW229450   0.258   5.969   5.619 -0.0232 -0.5063  0.7483
 7421SOL    HW329451   0.234   5.837   5.691  0.4736 -1.8716 -1.4872
 7421SOL    MW429452   0.282   5.887   5.638 -0.1221 -0.0649 -0.1761
 7422SOL     OW29453   2.591   5.573   2.101  0.0847  0.4730 -0.3125
 7422SOL    HW229454   2.596   5.557   2.195  0.0891 -1.5188 -0.6057
 7422SOL    HW329455   2.680   5.597   2.076 -0.3083  3.1269  0.4536
 7422SOL    MW429456   2.603   5.574   2.110  0.1778  0.3032 -0.1094
 7423SOL     OW29457   2.930   4.795   1.595 -0.1883 -0.3743  0.3268
 7423SOL    HW229458   2.887   4.750   1.522 -0.8488  0.3659  0.2338
 7423SOL    HW329459   2.923   4.735   1.669  2.3390 -2.0505 -0.6609
 7423SOL    MW429460   2.923   4.781   1.595 -0.7330 -0.4580  0.1495
 7424SOL     OW29461   5.547   3.933   3.575 -0.4345  0.3377 -0.0915
 7424SOL    HW229462   5.579   3.895   3.657 -1.2646 -0.5283 -0.1539
 7424SOL    HW329463   5.617   3.916   3.512  0.0638  0.7140  0.3377
 7424SOL    MW429464   5.561   3.926   3.578  0.7121  0.3578 -0.1326
 7425SOL     OW29465   2.001   4.630   6.225 -0.1212  0.0457  0.3473
 7425SOL    HW229466   1.915   4.605   6.191 -0.3732  0.1658  0.8885
 7425SOL    HW329467   2.036   4.549   6.261 -0.6953  0.3318  1.5830
 7425SOL    MW429468   1.994   4.616   6.225 -0.6079 -0.2887  0.5423
 7426SOL     OW29469   5.289   0.819   1.091  0.2162  0.5551 -0.3658
 7426SOL    HW229470   5.310   0.739   1.138  0.5130  0.4735 -0.6398
 7426SOL    HW329471   5.214   0.855   1.138  0.0207  0.0675 -0.3010
 7426SOL    MW429472   5.282   0.814   1.103 -0.1007  0.0827  0.8342
 7427SOL     OW29473   4.435   5.363   2.263  0.1809  0.0280 -0.2402
 7427SOL    HW229474   4.416   5.457   2.260  0.3293  0.0503 -0.4702
 7427SOL    HW329475   4.366   5.327   2.319  1.0473  0.4995  1.1728
 7427SOL    MW429476   4.423   5.370   2.270 -0.2163 -0.4246  0.0510
 7428SOL     OW29477   4.446   0.146   1.811 -0.0521  0.0833 -0.2817
 7428SOL    HW229478   4.461   0.208   1.883  1.8348  0.8910 -1.3042
 7428SOL    HW329479   4.360   0.170   1.777 -0.2181  0.8387  0.6144
 7428SOL    MW429480   4.437   0.158   1.816  0.0011  0.0285  0.0237
 7429SOL     OW29481   0.081   6.217   4.624  0.3929  0.0756  0.8259
 7429SOL    HW229482   0.093   6.177   4.710  2.1247 -1.5428 -0.1131
 7429SOL    HW329483   0.167   6.250   4.600 -0.3205  1.5637  0.1717
 7429SOL    MW429484   0.094   6.216   4.632 -0.1568 -0.1128 -1.0923
 7430SOL     OW29485   6.364   3.407   3.747  0.3179 -0.1079 -0.4228
 7430SOL    HW229486   6.371   3.428   3.840 -0.0758 -0.1841 -0.3752
 7430SOL    HW329487   6.303   3.471   3.712 -1.0086 -1.2370 -0.2446
 7430SOL    MW429488   6.357   3.418   3.755 -0.6226 -0.4117 -0.6698
 7431SOL     OW29489   3.407   4.056   1.215 -0.5959 -0.0081  0.1210
 7431SOL    HW229490   3.343   4.006   1.164 -1.3495  0.7365  0.3053
 7431SOL    HW329491   3.370   4.145   1.220  0.2224  0.3218  0.6410
 7431SOL    MW429492   3.394   4.061   1.209  0.5708  0.1781 -0.3902
 7432SOL     OW29493   4.881   0.752   1.539  0.7169 -0.1872 -0.4706
 7432SOL    HW229494   4.946   0.686   1.513  1.5974  0.3722  0.2431
 7432SOL    HW329495   4.842   0.781   1.456  0.3616 -1.5419 -0.7993
 7432SOL    MW429496   4.884   0.747   1.525  0.3434 -0.1897 -0.6481
 7433SOL     OW29497   2.171   3.437   4.687 -0.3443  0.2845  0.1297
 7433SOL    HW229498   2.152   3.527   4.712  0.1760  0.4122  0.0862
 7433SOL    HW329499   2.214   3.444   4.601 -0.0684  0.0151  0.2440
 7433SOL    MW429500   2.174   3.450   4.679  0.2777  0.4907  0.3675
 7434SOL     OW29501   0.983   5.107   5.455 -0.2885  0.2151  0.6507
 7434SOL    HW229502   1.038   5.029   5.456 -0.1360  0.3088  1.9507
 7434SOL    HW329503   0.966   5.124   5.363  0.4142 -0.8345  0.3136
 7434SOL    MW429504   0.988   5.099   5.443  0.3697  0.2026  0.1584
 7435SOL     OW29505   5.494   3.577   0.264 -0.2986  0.1690  0.3735
 7435SOL    HW229506   5.447   3.564   0.346 -0.0734  1.7591  0.7858
 7435SOL    HW329507   5.572   3.522   0.271 -0.4965 -0.0281  1.0431
 7435SOL    MW429508   5.498   3.568   0.275 -0.1369 -0.3513  0.0169
 7436SOL     OW29509   4.194   1.809   5.606 -0.0089  0.0712 -0.1805
 7436SOL    HW229510   4.100   1.822   5.621  0.1612  0.7333  0.3295
 7436SOL    HW329511   4.202   1.809   5.511 -0.8429 -2.3722 -0.3334
 7436SOL    MW429512   4.182   1.811   5.595 -0.4506 -0.1083  0.2189
 7437SOL     OW29513   4.055   4.609   5.632 -0.1527  0.4447 -0.3286
 7437SOL    HW229514   4.045   4.649   5.545  0.0869  1.1740 -0.0321
 7437SOL    HW329515   3.966   4.607   5.667 -0.2398  0.2187 -0.5635
 7437SOL    MW429516   4.042   4.614   5.625 -0.0933  0.3875 -0.1837
 7438SOL     OW29517   3.442   0.024   4.824  0.1919  0.8068  0.2490
 7438SOL    HW229518   3.392   0.089   4.774  1.0617  1.2101 -0.1221
 7438SOL    HW329519   3.451  -0.050   4.763 -0.2102  0.6093  0.4263
 7438SOL    MW429520   3.437   0.023   4.809  0.1846  0.3652 -0.2038
 7439SOL     OW29521   1.648   5.251   1.952  0.5273  0.5316  0.2842
 7439SOL    HW229522   1.728   5.206   1.978  1.2686  0.2990 -2.1369
 7439SOL    HW329523   1.621   5.206   1.871 -1.1508  1.6378  0.1920
 7439SOL    MW429524   1.655   5.239   1.945  0.0741  0.0473  0.0597
 7440SOL     OW29525   4.525   2.325   2.533 -0.3459  0.0546  0.0702
 7440SOL    HW229526   4.511   2.287   2.447  0.7602  0.5484 -0.3535
 7440SOL    HW329527   4.600   2.276   2.569 -1.3778 -0.7905  1.1657
 7440SOL    MW429528   4.533   2.314   2.526  0.2215  0.2605  0.1696
 7441SOL     OW29529   0.130   1.758   5.653 -0.3185  0.4826 -0.3537
 7441SOL    HW229530   0.196   1.799   5.709 -0.8060  0.6232  0.1218
 7441SOL    HW329531   0.105   1.678   5.700 -1.5687  1.1792  0.2125
 7441SOL    MW429532   0.135   1.753   5.667 -0.1312 -0.3096  0.5175
 7442SOL     OW29533   0.554   3.443   1.708 -0.8871  0.4223 -0.4256
 7442SOL    HW229534   0.637   3.407   1.678 -0.1226  0.5665  1.3807
 7442SOL    HW329535   0.491   3.372   1.696 -0.0515 -0.4401  0.1882
 7442SOL    MW429536   0.557   3.429   1.702  0.0905 -0.8108 -0.3498
 7443SOL     OW29537   6.333   1.294   4.910 -0.1693 -0.2275  0.5691
 7443SOL    HW229538   6.370   1.210   4.882 -0.7518 -0.3744  0.2341
 7443SOL    HW329539   6.313   1.340   4.829 -3.5445 -1.3773  0.6128
 7443SOL    MW429540   6.335   1.289   4.896 -0.0084  0.0288  0.3721
 7444SOL     OW29541   0.880   4.002   2.416 -0.0847 -0.1600 -0.3512
 7444SOL    HW229542   0.814   3.972   2.479  1.6273  0.2088  1.7546
 7444SOL    HW329543   0.947   4.044   2.470  2.3028 -1.2401 -2.2615
 7444SOL    MW429544   0.881   4.004   2.432  0.4489  0.4687  1.1285
 7445SOL     OW29545   1.370   6.322   4.701  0.5691 -0.5362 -0.0337
 7445SOL    HW229546   1.432   6.274   4.645  0.5027 -0.9306  0.2258
 7445SOL    HW329547   1.301   6.351   4.641  1.3049  0.4374 -0.4386
 7445SOL    MW429548   1.369   6.319   4.686 -0.2199  0.3355  0.5283
 7446SOL     OW29549   0.473   6.178   6.220  0.2548 -0.2991  0.1594
 7446SOL    HW229550   0.380   6.164   6.236  0.4092 -1.1598  0.3681
 7446SOL    HW329551   0.485   6.272   6.229  0.2013 -0.5275  4.4525
 7446SOL    MW429552   0.462   6.188   6.223  0.1364 -0.0152  0.0052
 7447SOL     OW29553   0.392   1.500   0.254  0.4486 -0.2086  0.5610
 7447SOL    HW229554   0.424   1.414   0.281 -1.0291 -1.0449 -0.2118
 7447SOL    HW329555   0.393   1.497   0.158 -1.4426 -0.1250  0.4991
 7447SOL    MW429556   0.396   1.488   0.245  0.2445  0.1737  0.3660
 7448SOL     OW29557   6.452   2.829   1.663  0.1640  0.0111  0.4614
 7448SOL    HW229558   6.541   2.797   1.654  0.4252  1.1673 -1.7542
 7448SOL    HW329559   6.462   2.924   1.669 -0.8812  0.0814  1.5362
 7448SOL    MW429560   6.465   2.838   1.663  0.0084  0.0262 -0.2437
 7449SOL     OW29561   0.614   3.653   5.299  0.0784  0.2123 -0.0282
 7449SOL    HW229562   0.541   3.698   5.255 -0.4977 -1.1522 -0.5065
 7449SOL    HW329563   0.627   3.704   5.379 -1.2760  0.6145 -0.0235
 7449SOL    MW429564   0.606   3.666   5.304  0.1761 -0.0830  0.3032
 7450SOL     OW29565   0.143   0.936   2.733 -0.2393 -0.4207  0.6570
 7450SOL    HW229566   0.221   0.984   2.705 -1.1176  1.1395  0.7930
 7450SOL    HW329567   0.131   0.868   2.667  1.4287 -0.9294  0.8279
 7450SOL    MW429568   0.152   0.933   2.721  0.2978  0.1390 -0.0018
 7451SOL     OW29569   5.765   1.661   1.769 -0.1029 -0.3890  0.5500
 7451SOL    HW229570   5.716   1.596   1.820 -0.4883  0.5930  1.4646
 7451SOL    HW329571   5.767   1.739   1.824  1.1605  0.1000 -0.1311
 7451SOL    MW429572   5.759   1.663   1.783  0.1099 -0.0282  0.0878
 7452SOL     OW29573   5.008   5.024   4.205 -0.0066  0.2302  0.0906
 7452SOL    HW229574   4.933   5.084   4.207 -0.0904  0.1521 -0.4230
 7452SOL    HW329575   4.986   4.955   4.266 -0.0530  0.5581  0.4502
 7452SOL    MW429576   4.995   5.023   4.213  0.0607 -0.3613  0.6023
 7453SOL     OW29577   0.746   2.986   5.068  0.1355 -0.3445 -0.0913
 7453SOL    HW229578   0.824   2.974   5.122 -0.2165 -0.6617  0.3574
 7453SOL    HW329579   0.747   2.912   5.008  0.9727  0.4495 -1.0992
 7453SOL    MW429580   0.756   2.975   5.067 -0.0642  0.4686  0.1981
 7454SOL     OW29581   6.417   5.705   2.791  0.0338  0.1163  0.5586
 7454SOL    HW229582   6.436   5.799   2.783  3.1523 -0.4192  0.5461
 7454SOL    HW329583   6.467   5.665   2.720 -0.4754 -1.6617  1.1590
 7454SOL    MW429584   6.426   5.712   2.780 -0.5234  0.6645  0.3792
 7455SOL     OW29585   5.481   3.696   2.106  0.7641 -0.6917  0.2005
 7455SOL    HW229586   5.489   3.766   2.042  0.9117 -0.7634  0.1419
 7455SOL    HW329587   5.390   3.702   2.136  1.2726  0.7743  1.6173
 7455SOL    MW429588   5.470   3.706   2.102  0.3609 -0.4521 -0.2415
 7456SOL     OW29589   4.368   5.295   6.163 -0.5448  0.4209 -0.2853
 7456SOL    HW229590   4.354   5.213   6.115 -0.8912  0.1930  0.1875
 7456SOL    HW329591   4.281   5.333   6.171 -0.4568  0.5776 -0.0611
 7456SOL    MW429592   4.355   5.289   6.158 -0.5369  0.1058  0.3182
 7457SOL     OW29593   2.085   6.193   0.843 -0.1074  0.5552  0.1863
 7457SOL    HW229594   2.112   6.264   0.785 -0.2830  1.9479  1.7299
 7457SOL    HW329595   1.991   6.183   0.827  0.3415 -1.1707 -1.8872
 7457SOL    MW429596   2.076   6.201   0.833 -0.3145  0.6881  0.5800
 7458SOL     OW29597   2.139   2.527   5.941  0.4616 -0.0158  0.5002
 7458SOL    HW229598   2.215   2.526   5.999 -0.9199 -0.9200  2.4320
 7458SOL    HW329599   2.137   2.440   5.901 -0.6434 -0.7842  2.0903
 7458SOL    MW429600   2.148   2.516   5.944  0.0888  0.6968 -0.0953
 7459SOL     OW29601   2.595   4.526   5.150 -0.0090 -0.4474  0.0102
 7459SOL    HW229602   2.590   4.590   5.221  0.5858  0.6274 -0.8894
 7459SOL    HW329603   2.643   4.453   5.187 -1.2278 -0.6683  1.2470
 7459SOL    MW429604   2.600   4.525   5.164  0.0404  0.2420  0.0047
 7460SOL     OW29605   5.902   1.855   4.264 -0.2997 -0.2168  0.1928
 7460SOL    HW229606   5.971   1.817   4.318 -0.6468 -1.0530  0.0731
 7460SOL    HW329607   5.821   1.821   4.302 -0.5318 -1.2323 -1.1168
 7460SOL    MW429608   5.901   1.845   4.276 -0.6288 -0.0576 -0.5639
 7461SOL     OW29609   3.325   5.720   4.303  0.0981  0.7618 -0.4166
 7461SOL    HW229610   3.387   5.649   4.285 -0.6044 -0.0395  0.2250
 7461SOL    HW329611   3.378   5.790   4.341  0.7952  0.5603 -1.0049
 7461SOL    MW429612   3.340   5.720   4.306  0.1498 -0.4416  0.4148
 7462SOL     OW29613   5.932   3.038   1.039  0.6473  0.1450 -0.7710
 7462SOL    HW229614   5.837   3.041   1.036  0.6440  1.0045 -0.1423
 7462SOL    HW329615   5.954   2.949   1.011 -0.4847 -0.9717  1.5745
 7462SOL    MW429616   5.923   3.027   1.035  0.0498 -0.2151  0.3658
 7463SOL     OW29617   3.200   4.143   0.343  0.1834  0.5348  0.9079
 7463SOL    HW229618   3.240   4.230   0.349 -0.4561  0.8744  0.3639
 7463SOL    HW329619   3.118   4.150   0.393 -0.3385  0.5299  0.0688
 7463SOL    MW429620   3.194   4.155   0.351  0.3022 -0.0773  0.2772
 7464SOL     OW29621   4.050   4.456   0.547 -0.4342  0.0481 -0.4316
 7464SOL    HW229622   4.117   4.524   0.542  0.3754 -0.7984 -1.6458
 7464SOL    HW329623   4.091   4.384   0.596 -0.1920 -0.7229 -1.7175
 7464SOL    MW429624   4.064   4.455   0.553  0.4858 -0.1070 -0.0275
 7465SOL     OW29625   3.896   0.783   0.731 -0.3665  0.3498 -0.9057
 7465SOL    HW229626   3.888   0.852   0.797  0.0245 -0.1899 -0.2805
 7465SOL    HW329627   3.826   0.801   0.668 -1.4001  0.2979  0.1961
 7465SOL    MW429628   3.885   0.794   0.731  0.0356  0.2203 -0.1249
 7466SOL     OW29629   2.832   1.535   1.505  0.3273 -0.4527 -0.2832
 7466SOL    HW229630   2.922   1.552   1.532  0.2678 -0.5859 -0.0013
 7466SOL    HW329631   2.783   1.529   1.587 -0.4409  2.3112 -0.4075
 7466SOL    MW429632   2.837   1.537   1.519  0.4940  0.6135  0.1669
 7467SOL     OW29633   5.842   5.290   2.226  0.1008 -0.3926  0.8897
 7467SOL    HW229634   5.843   5.383   2.247  0.7642  0.2491 -1.6591
 7467SOL    HW329635   5.750   5.265   2.235 -0.2105  0.6991  0.8816
 7467SOL    MW429636   5.830   5.299   2.230  0.3968  0.3622  0.1583
 7468SOL     OW29637   3.797   6.114   4.010 -0.3913  0.1517  0.2043
 7468SOL    HW229638   3.743   6.137   4.086 -0.1008 -0.7982  0.7097
 7468SOL    HW329639   3.736   6.068   3.952 -0.6435  0.9835 -0.2085
 7468SOL    MW429640   3.782   6.111   4.012  0.5350  0.3315  0.1387
 7469SOL     OW29641   1.017   2.840   4.586 -0.4405 -0.1388 -0.4825
 7469SOL    HW229642   1.008   2.842   4.491  0.9053  1.1856 -0.6168
 7469SOL    HW329643   1.110   2.825   4.601 -0.8734 -2.0140  0.6809
 7469SOL    MW429644   1.028   2.838   4.576  0.3880 -0.1569 -0.4933
 7470SOL     OW29645   3.342   5.020   2.924  0.3314 -0.4641 -0.5400
 7470SOL    HW229646   3.273   4.975   2.973  0.2129  0.1933 -0.0867
 7470SOL    HW329647   3.398   4.949   2.891 -0.4852 -0.9964 -0.8105
 7470SOL    MW429648   3.340   5.004   2.926 -0.8611 -0.7292  0.2285
 7471SOL     OW29649   1.243   4.045   6.022  1.0057  0.6329  0.3879
 7471SOL    HW229650   1.289   4.079   6.099  0.4026  2.4913 -0.0162
 7471SOL    HW329651   1.282   4.093   5.949  0.1677  0.3684 -0.2405
 7471SOL    MW429652   1.254   4.056   6.022  0.0041 -0.0880  0.0354
 7472SOL     OW29653   6.389   3.008   5.554 -0.2998  0.2021  0.3439
 7472SOL    HW229654   6.368   2.996   5.461  1.3392  1.6360 -0.2690
 7472SOL    HW329655   6.390   3.103   5.567 -0.1548  0.0332  1.7463
 7472SOL    MW429656   6.387   3.019   5.543  0.0075  0.5726 -0.2577
 7473SOL     OW29657   3.115   2.913   3.206 -0.3482 -0.3086 -0.0396
 7473SOL    HW229658   3.113   2.986   3.268 -1.7417  1.0419 -1.5726
 7473SOL    HW329659   3.044   2.856   3.234 -0.5439 -0.0468 -0.0005
 7473SOL    MW429660   3.105   2.915   3.217 -0.1563  0.2536  0.2185
 7474SOL     OW29661   1.434   0.543   3.575 -0.7557  0.4617 -0.1520
 7474SOL    HW229662   1.477   0.573   3.496  0.3266 -1.3079 -0.3100
 7474SOL    HW329663   1.490   0.472   3.607 -2.3506 -0.3944  0.9295
 7474SOL    MW429664   1.447   0.537   3.569 -0.6407 -0.1550  0.3053
 7475SOL     OW29665   2.591   6.274   1.935  0.0405 -0.4297 -0.5420
 7475SOL    HW229666   2.534   6.285   2.012  1.1197 -4.0018  0.9532
 7475SOL    HW329667   2.539   6.309   1.863 -2.7086 -0.5302  1.2256
 7475SOL    MW429668   2.576   6.280   1.936 -0.6904  1.0096  0.1931
 7476SOL     OW29669   0.616   6.297   1.997  0.5842 -0.1132 -0.4696
 7476SOL    HW229670   0.526   6.322   2.018 -0.1245 -2.3332 -0.6436
 7476SOL    HW329671   0.628   6.325   1.907 -0.4788 -1.1006 -0.9462
 7476SOL    MW429672   0.606   6.304   1.988 -0.3142  0.0708  0.3083
 7477SOL     OW29673   2.360   2.447   0.109 -0.0294 -0.0315  0.2093
 7477SOL    HW229674   2.342   2.358   0.142  0.3638 -0.3775 -0.4877
 7477SOL    HW329675   2.288   2.465   0.049  0.9516 -0.7109 -1.2205
 7477SOL    MW429676   2.348   2.437   0.106 -0.1371 -0.3292  0.1476
 7478SOL     OW29677   2.409   0.323   5.200  0.7646 -0.5961 -0.1064
 7478SOL    HW229678   2.454   0.406   5.185 -1.5434  0.8092  0.2837
 7478SOL    HW329679   2.413   0.310   5.295  0.6682 -0.6878 -0.1146
 7478SOL    MW429680   2.416   0.332   5.211  0.1293  0.6811  0.1560
 7479SOL     OW29681   2.852   3.301   2.937 -0.9076  0.2901  0.0059
 7479SOL    HW229682   2.835   3.308   2.843 -1.1960  0.9909  0.1023
 7479SOL    HW329683   2.816   3.216   2.962 -1.9236  0.6242 -0.2879
 7479SOL    MW429684   2.845   3.291   2.928  0.2888  0.2425 -0.1341
 7480SOL     OW29685   4.879   3.314   5.026 -0.2864 -0.1374  0.0944
 7480SOL    HW229686   4.897   3.349   4.938  0.0142 -0.5474 -0.0069
 7480SOL    HW329687   4.964   3.282   5.057 -0.0310  1.4503  1.1874
 7480SOL    MW429688   4.893   3.315   5.018 -0.5414 -0.4768  0.2050
 7481SOL     OW29689   5.834   3.999   3.743  0.3632 -0.4310  0.3437
 7481SOL    HW229690   5.888   4.057   3.796  1.6002 -1.0216 -0.2418
 7481SOL    HW329691   5.754   3.988   3.794  1.5401 -1.0609  2.1525
 7481SOL    MW429692   5.830   4.005   3.757 -0.1257  0.2247  0.7002
 7482SOL     OW29693   1.923   1.420   4.856  0.0105 -0.4314  0.4045
 7482SOL    HW229694   2.006   1.469   4.857  0.6639 -1.5020  0.6062
 7482SOL    HW329695   1.894   1.425   4.765 -0.2195  0.7752  0.5330
 7482SOL    MW429696   1.930   1.427   4.844 -0.2952 -0.4453 -0.4995
 7483SOL     OW29697   2.975   2.743   4.904 -0.3026  0.6006  0.4460
 7483SOL    HW229698   3.045   2.732   4.840 -0.1945  0.2962  0.6104
 7483SOL    HW329699   2.894   2.739   4.853 -0.2599 -0.6576  0.4417
 7483SOL    MW429700   2.974   2.741   4.889 -0.8496 -0.4910  0.0677
 7484SOL     OW29701   1.401   1.700   5.114  0.4184  0.0448 -0.1142
 7484SOL    HW229702   1.365   1.654   5.038 -0.4875 -0.1682  0.4342
 7484SOL    HW329703   1.403   1.792   5.088  1.6987 -0.2054 -1.0064
 7484SOL    MW429704   1.397   1.706   5.100  0.1293  0.0007  0.5746
 7485SOL     OW29705   5.912   1.569   1.099  0.1543 -0.0251  0.6053
 7485SOL    HW229706   5.945   1.594   1.185  0.1796 -0.1481  0.6319
 7485SOL    HW329707   5.991   1.553   1.047  0.1485 -1.3436  0.9663
 7485SOL    MW429708   5.927   1.570   1.103 -0.3497  0.1213 -0.4393
 7486SOL     OW29709   1.436   4.358   5.328 -0.5063 -0.1566  0.3230
 7486SOL    HW229710   1.394   4.412   5.395 -0.9941  1.0976 -0.9510
 7486SOL    HW329711   1.376   4.361   5.254  0.5642 -0.5596 -0.5921
 7486SOL    MW429712   1.422   4.365   5.327  0.5198 -0.0488 -0.5629
 7487SOL     OW29713   4.578   0.319   5.774  0.2509 -0.1624 -0.2530
 7487SOL    HW229714   4.522   0.320   5.697 -0.6500 -0.3128  0.3925
 7487SOL    HW329715   4.644   0.252   5.754 -0.0917 -0.3466 -0.8066
 7487SOL    MW429716   4.580   0.310   5.761  0.1372  0.1893  0.8327
 7488SOL     OW29717   0.063   1.912   6.058  0.4027  0.0099  1.1386
 7488SOL    HW229718   0.079   1.975   6.128 -0.0439 -1.8092  2.9618
 7488SOL    HW329719   0.149   1.876   6.038  0.7697  1.6197 -0.4076
 7488SOL    MW429720   0.076   1.916   6.064  0.4976  0.0246  1.2139
 7489SOL     OW29721   4.702   3.994   2.599 -0.1265 -0.6805 -0.2368
 7489SOL    HW229722   4.705   4.019   2.506  1.4098 -0.6569 -0.2027
 7489SOL    HW329723   4.612   3.963   2.612 -0.4470 -0.4385 -1.6660
 7489SOL    MW429724   4.691   3.993   2.588  0.6224 -0.0406 -0.4267
 7490SOL     OW29725   1.000   3.759   4.642 -0.0359  0.0884  0.5158
 7490SOL    HW229726   1.008   3.670   4.678  2.8002  1.0317  2.6047
 7490SOL    HW329727   1.071   3.765   4.578 -0.5522  0.7064 -0.0141
 7490SOL    MW429728   1.011   3.748   4.638 -0.6711 -0.5820  0.1617
 7491SOL     OW29729   5.006   3.449   0.473 -0.5106 -0.5941  0.5275
 7491SOL    HW229730   4.936   3.461   0.537 -0.3759 -0.2771  0.6164
 7491SOL    HW329731   4.972   3.488   0.392  0.3563  1.4767  1.0975
 7491SOL    MW429732   4.993   3.456   0.471  0.7157 -0.4277 -0.2087
 7492SOL     OW29733   4.294   3.754   5.361 -0.0300 -0.0889 -0.3556
 7492SOL    HW229734   4.343   3.754   5.278  1.7554 -0.2599  0.6390
 7492SOL    HW329735   4.340   3.818   5.416 -0.8756 -0.3403  0.6665
 7492SOL    MW429736   4.307   3.762   5.357 -0.4387 -0.0006 -0.3288
 7493SOL     OW29737   5.666   6.149   6.383  0.2130  0.1828  0.1897
 7493SOL    HW229738   5.582   6.104   6.384 -0.3571  1.1954 -0.0186
 7493SOL    HW329739   5.731   6.081   6.398 -0.4781 -0.9432 -1.6172
 7493SOL    MW429740   5.664   6.134   6.385 -0.4867 -0.6479  0.2705
 7494SOL     OW29741   5.504   1.753   4.605 -0.3030  0.2821 -0.3733
 7494SOL    HW229742   5.467   1.782   4.522  1.1465  1.1471 -0.7577
 7494SOL    HW329743   5.481   1.822   4.667  0.1691  0.5480 -0.4880
 7494SOL    MW429744   5.496   1.766   4.602 -0.1280  0.3252 -0.1932
 7495SOL     OW29745   0.608   1.769   4.984  0.0363 -0.0751  0.2638
 7495SOL    HW229746   0.541   1.803   5.043  0.1427 -0.8903  0.8732
 7495SOL    HW329747   0.631   1.843   4.929  0.0726  0.7581  1.3684
 7495SOL    MW429748   0.602   1.783   4.984  0.0646  0.1092  0.1556
 7496SOL     OW29749   5.563   2.991   3.011  0.2977  0.1676 -0.5243
 7496SOL    HW229750   5.547   2.902   2.979 -1.1609 -0.0809  0.7650
 7496SOL    HW329751   5.653   2.990   3.042  0.7950 -0.4043 -1.9259
 7496SOL    MW429752   5.573   2.979   3.011 -0.0342 -0.0640  0.2707
 7497SOL     OW29753   1.537   0.506   0.436 -0.1626  0.3120  0.0945
 7497SOL    HW229754   1.561   0.437   0.498 -4.1040 -1.8089 -0.3891
 7497SOL    HW329755   1.515   0.581   0.491  1.3197  0.2605  0.8209
 7497SOL    MW429756   1.537   0.507   0.451  0.1688 -0.4065  0.0863
 7498SOL     OW29757   0.750   5.492   3.139 -0.0951  0.0075 -1.0007
 7498SOL    HW229758   0.785   5.411   3.176 -0.0854  0.2075 -0.5614
 7498SOL    HW329759   0.724   5.468   3.050 -0.6170 -0.6266 -0.6916
 7498SOL    MW429760   0.751   5.478   3.132  0.5227  0.0518 -0.1148
 7499SOL     OW29761   5.510   0.237   0.519  0.3560 -0.5323 -0.1572
 7499SOL    HW229762   5.468   0.285   0.448  0.6660  1.2912  0.8228
 7499SOL    HW329763   5.442   0.179   0.552 -0.2609 -0.2660 -0.9347
 7499SOL    MW429764   5.496   0.236   0.514  0.4584  0.0214  0.0395
 7500SOL     OW29765   1.361   0.260   0.102 -0.1111 -0.1463 -0.2179
 7500SOL    HW229766   1.330   0.320   0.035  0.9751 -0.0530 -0.6500
 7500SOL    HW329767   1.318   0.177   0.082 -2.0597  0.5584  0.7051
 7500SOL    MW429768   1.351   0.257   0.091  0.0223 -0.5103 -0.3799
 7501SOL     OW29769   4.012   1.163   5.921 -0.0826 -0.0349 -0.7010
 7501SOL    HW229770   3.945   1.097   5.902 -0.9280  1.3412 -2.9079
 7501SOL    HW329771   4.089   1.113   5.946 -1.5328 -1.7242  0.6541
 7501SOL    MW429772   4.013   1.148   5.922 -0.0903  0.6551 -0.4074
 7502SOL     OW29773   6.289   2.627   0.356 -0.2542 -0.1478  0.2179
 7502SOL    HW229774   6.277   2.632   0.451  3.0942 -2.3718  0.9308
 7502SOL    HW329775   6.348   2.699   0.335  1.8541 -1.6826  0.5525
 7502SOL    MW429776   6.295   2.637   0.366  0.1009 -0.1721  0.1485
 7503SOL     OW29777   3.606   0.065   4.319  0.6151 -0.1233 -0.5829
 7503SOL    HW229778   3.526   0.017   4.342  2.1110 -2.0409  1.0494
 7503SOL    HW329779   3.614   0.131   4.388  0.1823  0.4253 -1.0511
 7503SOL    MW429780   3.596   0.067   4.331  0.6370  0.0435 -0.0571
 7504SOL     OW29781   5.194   6.313   5.502 -0.4335 -0.2228  0.0848
 7504SOL    HW229782   5.280   6.273   5.490  0.9086  2.2797  0.8868
 7504SOL    HW329783   5.201   6.399   5.461 -2.0319  0.6817  1.5654
 7504SOL    MW429784   5.206   6.319   5.495 -0.1133 -0.4316  0.1463
 7505SOL     OW29785   3.112   0.548   0.525  0.0144  0.2132 -0.1211
 7505SOL    HW229786   3.051   0.622   0.527 -0.4276 -0.1448  1.3388
 7505SOL    HW329787   3.176   0.571   0.458 -0.2468  1.8160  0.1416
 7505SOL    MW429788   3.113   0.561   0.517  0.0902 -0.0836 -0.2141
 7506SOL     OW29789   1.203   4.560   0.673 -0.0060 -0.2958  0.3003
 7506SOL    HW229790   1.154   4.603   0.604  1.3606  0.1771 -0.4071
 7506SOL    HW329791   1.269   4.624   0.700  1.4636 -1.5558 -0.1273
 7506SOL    MW429792   1.205   4.574   0.668 -0.6967 -0.1233 -0.0434
 7507SOL     OW29793   1.160   2.155   0.501 -0.2769 -0.3951 -0.1441
 7507SOL    HW229794   1.211   2.080   0.473 -0.3479 -0.4850 -0.0303
 7507SOL    HW329795   1.220   2.206   0.556  0.0056  0.0142 -0.8271
 7507SOL    MW429796   1.174   2.152   0.505  0.2033  0.7090 -0.0268
 7508SOL     OW29797   4.961   1.661   4.251  0.5535 -0.0602  0.1932
 7508SOL    HW229798   5.031   1.655   4.315  0.6800 -0.8094 -0.0082
 7508SOL    HW329799   4.979   1.742   4.203  0.0170  0.9298  1.5967
 7508SOL    MW429800   4.973   1.671   4.253 -0.0442  0.0813 -0.1973
 7509SOL     OW29801   3.845   1.028   6.325 -0.4630  0.4141 -0.2023
 7509SOL    HW229802   3.897   1.102   6.295 -0.3101  0.6841  0.7129
 7509SOL    HW329803   3.799   0.997   6.246 -1.1288  1.9508 -0.4446
 7509SOL    MW429804   3.846   1.033   6.310  0.1947  0.0638  0.1609
 7510SOL     OW29805   6.426   5.589   5.566 -0.4008 -0.3057 -0.0220
 7510SOL    HW229806   6.440   5.661   5.627 -1.0693  0.5250 -0.8148
 7510SOL    HW329807   6.489   5.522   5.593  2.3069  1.6552 -0.9760
 7510SOL    MW429808   6.436   5.590   5.577 -0.0028 -0.0244 -0.5051
 7511SOL     OW29809   6.165   0.538   0.886  0.0009  0.2898 -0.5974
 7511SOL    HW229810   6.106   0.540   0.962  1.6965  2.0322  0.7870
 7511SOL    HW329811   6.107   0.549   0.811 -1.7592 -1.6093  0.3808
 7511SOL    MW429812   6.150   0.540   0.886 -0.4900 -0.2048  0.0030
 7512SOL     OW29813   0.809   3.602   3.661  0.8660 -0.0076 -1.0645
 7512SOL    HW229814   0.810   3.610   3.757  0.8050  0.8207 -1.1224
 7512SOL    HW329815   0.722   3.568   3.641  0.3595  1.1450 -0.9057
 7512SOL    MW429816   0.798   3.599   3.671 -0.6146  0.0917 -0.3634
 7513SOL     OW29817   5.876   3.275   5.112  0.3996  0.4492  0.1550
 7513SOL    HW229818   5.877   3.215   5.038  1.5864 -1.6046  1.7073
 7513SOL    HW329819   5.958   3.323   5.106 -0.4458  1.8249 -0.9587
 7513SOL    MW429820   5.887   3.273   5.102  0.3891 -0.3651  0.1629
 7514SOL     OW29821   0.252   5.371   0.888 -0.5646  0.0172 -0.3058
 7514SOL    HW229822   0.225   5.282   0.911  0.0095  0.3909  2.0962
 7514SOL    HW329823   0.185   5.402   0.827 -3.2300 -0.5913  2.1024
 7514SOL    MW429824   0.240   5.364   0.883  0.8280 -0.0665  0.3077
 7515SOL     OW29825   4.036   2.589   1.482 -0.5875 -0.1045  0.1761
 7515SOL    HW229826   4.091   2.586   1.561 -0.4600 -1.4755  0.0619
 7515SOL    HW329827   3.955   2.632   1.510 -0.9034 -1.3774  1.3015
 7515SOL    MW429828   4.033   2.595   1.496 -0.3431  0.5705  0.1795
 7516SOL     OW29829   3.838   1.255   4.998  0.2210 -0.1868  0.0294
 7516SOL    HW229830   3.778   1.329   5.006 -0.0131 -0.3253 -0.4188
 7516SOL    HW329831   3.920   1.294   4.966  0.6480  0.1273  1.4558
 7516SOL    MW429832   3.841   1.270   4.995  0.0467  0.3211 -0.3596
 7517SOL     OW29833   2.884   1.975   3.115 -0.3809 -0.2925 -0.2096
 7517SOL    HW229834   2.961   1.945   3.066  0.9896  0.0854  1.5889
 7517SOL    HW329835   2.816   1.910   3.096  0.9033 -1.5985 -0.5422
 7517SOL    MW429836   2.885   1.962   3.106  0.0926  0.4347  0.2375
 7518SOL     OW29837   6.302   3.554   5.616  0.4523 -0.1428  0.1790
 7518SOL    HW229838   6.242   3.614   5.572  0.3605 -1.7591 -2.0475
 7518SOL    HW329839   6.254   3.527   5.695 -0.8909  0.1671 -0.5002
 7518SOL    MW429840   6.288   3.558   5.621  0.1520  0.9118 -0.5829
 7519SOL     OW29841   1.315   0.807   3.102  0.5675  0.2458  0.0191
 7519SOL    HW229842   1.276   0.845   3.180  0.4996  0.9134 -0.3285
 7519SOL    HW329843   1.241   0.780   3.048  0.6033  0.3822 -0.0992
 7519SOL    MW429844   1.300   0.808   3.105 -0.5021  0.1790 -0.6144
 7520SOL     OW29845   1.738   0.690   1.178 -0.1285  0.2844 -0.5507
 7520SOL    HW229846   1.647   0.698   1.207 -0.5333 -2.8699 -0.6567
 7520SOL    HW329847   1.786   0.753   1.233 -2.0505  0.4175  1.0933
 7520SOL    MW429848   1.732   0.700   1.189  0.3942  0.3748  0.1212
 7521SOL     OW29849   0.185   0.193   3.313 -0.0951 -0.6188  0.2380
 7521SOL    HW229850   0.144   0.279   3.322 -0.8612 -0.6713 -2.1063
 7521SOL    HW329851   0.276   0.212   3.288  0.0147 -0.5100  0.7058
 7521SOL    MW429852   0.192   0.207   3.311 -0.4179 -0.0396  0.5622
 7522SOL     OW29853   1.922   2.494   3.406 -0.2884  0.5077  0.0139
 7522SOL    HW229854   1.962   2.451   3.330  0.2581  0.3047  0.4086
 7522SOL    HW329855   1.958   2.582   3.405  0.5158  0.2041  0.6011
 7522SOL    MW429856   1.932   2.500   3.396 -0.5028 -0.8322 -0.0790
 7523SOL     OW29857   0.284   1.018   4.194 -0.4949 -0.4551  0.1530
 7523SOL    HW229858   0.371   0.996   4.230 -0.0010  1.3001  0.1260
 7523SOL    HW329859   0.247   1.078   4.258 -0.5393  0.9593 -1.1522
 7523SOL    MW429860   0.291   1.023   4.207 -0.3747  0.3273  0.6047
 7524SOL     OW29861   4.868   1.997   3.488  0.1145  0.0277 -0.2685
 7524SOL    HW229862   4.798   1.957   3.541  0.9977  0.4489  1.2624
 7524SOL    HW329863   4.828   2.009   3.402 -2.8144  3.0884  1.2796
 7524SOL    MW429864   4.853   1.993   3.484 -0.6283 -0.0930 -0.1262
 7525SOL     OW29865   5.442   3.129   0.643  0.7559  0.0690 -0.2824
 7525SOL    HW229866   5.351   3.128   0.673  1.1401  2.2454  1.2087
 7525SOL    HW329867   5.435   3.111   0.549 -1.1325 -0.4971 -0.0921
 7525SOL    MW429868   5.429   3.127   0.634 -0.6899 -0.4100 -0.6550
 7526SOL     OW29869   5.914   6.027   2.912  0.2519 -0.1054  0.3046
 7526SOL    HW229870   5.997   5.994   2.878 -0.0799  0.9248 -1.5962
 7526SOL    HW329871   5.852   5.956   2.898  0.5148 -0.3826  0.5228
 7526SOL    MW429872   5.917   6.013   2.906 -0.7750  0.4471  0.0583
 7527SOL     OW29873   2.266   0.900   0.365 -0.3864  0.0444  0.3730
 7527SOL    HW229874   2.196   0.965   0.359  0.2161  0.6933  0.1619
 7527SOL    HW329875   2.244   0.847   0.442 -2.1847 -1.0755 -0.8436
 7527SOL    MW429876   2.254   0.902   0.374 -0.1212 -0.0464  0.0232
 7528SOL     OW29877   3.032   0.463   2.538  0.5925  0.1103  0.2056
 7528SOL    HW229878   3.042   0.484   2.445  0.5518  1.8997  0.5688
 7528SOL    HW329879   3.091   0.389   2.552 -0.7378 -1.3881 -1.6079
 7528SOL    MW429880   3.041   0.456   2.528  0.5103  0.3413 -0.0178
 7529SOL     OW29881   5.723   3.428   0.285 -0.2433  0.4173  0.1761
 7529SOL    HW229882   5.777   3.480   0.344  1.0005 -1.3747  0.7148
 7529SOL    HW329883   5.757   3.446   0.198  0.1885  0.4981  0.3625
 7529SOL    MW429884   5.734   3.437   0.281 -0.4294  0.1709  0.4719
 7530SOL     OW29885   3.107   1.593   4.170  0.2330  0.0180  0.9809
 7530SOL    HW229886   3.035   1.599   4.233 -0.5322 -0.7566  0.2239
 7530SOL    HW329887   3.081   1.521   4.112  1.4417 -0.0096  0.4529
 7530SOL    MW429888   3.094   1.584   4.170  0.1837 -0.1100  0.5702
 7531SOL     OW29889   6.407   2.432   1.352  0.4047 -0.3375 -0.3988
 7531SOL    HW229890   6.388   2.510   1.405  0.5179 -0.2495 -0.4878
 7531SOL    HW329891   6.425   2.364   1.416 -0.8406 -0.5873 -0.2997
 7531SOL    MW429892   6.407   2.433   1.367 -0.1995 -0.2860 -0.7317
 7532SOL     OW29893   6.416   3.990   6.398 -0.3362  0.0307 -0.4114
 7532SOL    HW229894   6.486   4.055   6.392 -0.4830  0.0740 -1.9386
 7532SOL    HW329895   6.460   3.907   6.378 -1.1487  0.3772 -4.4593
 7532SOL    MW429896   6.431   3.987   6.395 -0.5558  0.2015 -0.1016
 7533SOL     OW29897   0.741   5.583   3.631  0.0334 -0.3457 -0.3414
 7533SOL    HW229898   0.763   5.634   3.552  3.0970 -0.0755  0.5299
 7533SOL    HW329899   0.742   5.647   3.702  2.8382 -1.2586  0.6106
 7533SOL    MW429900   0.744   5.598   3.630 -0.1292 -0.2879  0.1602
 7534SOL     OW29901   5.549   6.023   4.594  0.2395 -0.4615 -0.1319
 7534SOL    HW229902   5.580   6.106   4.632  0.4846 -0.3494 -0.5601
 7534SOL    HW329903   5.505   5.978   4.666  1.2224 -0.5255  0.4502
 7534SOL    MW429904   5.548   6.028   4.608  0.3548 -0.2199  0.2294
 7535SOL     OW29905   1.831   1.449   2.074 -0.1732 -0.8207 -0.7314
 7535SOL    HW229906   1.753   1.498   2.102 -0.0433 -0.5546 -0.8343
 7535SOL    HW329907   1.899   1.516   2.063  0.0284 -1.0346 -0.7919
 7535SOL    MW429908   1.830   1.465   2.076  0.5126 -0.0964 -0.1361
 7536SOL     OW29909   1.249   4.454   5.124 -0.2163 -0.0170  0.2432
 7536SOL    HW229910   1.282   4.544   5.120 -1.4895  0.4522  0.0818
 7536SOL    HW329911   1.243   4.426   5.033 -0.5334 -0.0121  0.2642
 7536SOL    MW429912   1.253   4.462   5.112  0.3425 -0.2442  0.2547
 7537SOL     OW29913   3.230   3.430   1.538  0.5322 -0.2706  0.1945
 7537SOL    HW229914   3.200   3.520   1.552  0.1245 -0.3212 -0.3384
 7537SOL    HW329915   3.228   3.390   1.625  0.1617  0.0630  0.3409
 7537SOL    MW429916   3.226   3.437   1.551  0.5166 -0.1544  0.0888
 7538SOL     OW29917   2.984   1.642   1.915 -0.7574 -0.1108  0.3424
 7538SOL    HW229918   3.073   1.612   1.931 -0.2792  0.8827 -0.4199
 7538SOL    HW329919   2.929   1.568   1.943  0.3411 -1.2912 -0.4994
 7538SOL    MW429920   2.988   1.628   1.921  0.3404  0.1235  0.2583
 7539SOL     OW29921   3.131   5.064   5.472  0.4474 -0.7293 -0.6288
 7539SOL    HW229922   3.088   5.144   5.504 -0.1666 -1.0392 -0.6495
 7539SOL    HW329923   3.141   5.010   5.551 -3.1222 -2.4557 -1.1165
 7539SOL    MW429924   3.126   5.067   5.487  0.0009  0.4914  0.3711
 7540SOL     OW29925   4.316   1.974   4.268 -0.0118  0.1583  0.4420
 7540SOL    HW229926   4.261   1.895   4.266  0.5063 -0.2276  1.2349
 7540SOL    HW329927   4.377   1.959   4.340 -0.1068  1.4242  0.8049
 7540SOL    MW429928   4.317   1.961   4.277  0.2061  0.2582  0.2823
 7541SOL     OW29929   3.330   2.330   5.941  0.1942  0.1137 -0.3335
 7541SOL    HW229930   3.272   2.254   5.936 -0.7676  0.8959 -2.3333
 7541SOL    HW329931   3.280   2.400   5.899  1.2786  1.7071  0.9542
 7541SOL    MW429932   3.316   2.329   5.935 -0.0252 -0.6459  0.2702
 7542SOL     OW29933   5.633   4.523   5.168 -0.3316 -0.4678 -0.0147
 7542SOL    HW229934   5.727   4.529   5.187 -0.4145  0.3393  0.1648
 7542SOL    HW329935   5.592   4.580   5.233 -0.8190  0.4345 -1.0957
 7542SOL    MW429936   5.640   4.531   5.179  0.6393  0.0592 -0.5479
 7543SOL     OW29937   3.458   5.962   4.408  0.0471  0.2402  0.2916
 7543SOL    HW229938   3.489   5.957   4.498 -0.7142  0.7328  0.5978
 7543SOL    HW329939   3.521   6.019   4.364  1.4727 -1.4683  0.0213
 7543SOL    MW429940   3.470   5.969   4.414  0.4204  0.4113 -0.3044
 7544SOL     OW29941   3.344   4.920   4.031 -0.0895  0.0772  0.6894
 7544SOL    HW229942   3.405   4.928   3.958  0.5685 -1.7563  0.9829
 7544SOL    HW329943   3.315   4.828   4.028 -0.5228  0.1257  2.3536
 7544SOL    MW429944   3.348   4.909   4.021  0.1304  0.1501 -0.3885
 7545SOL     OW29945   4.779   5.258   4.168 -0.1356 -0.3082 -0.0531
 7545SOL    HW229946   4.693   5.297   4.148  0.5076  0.5329 -1.3677
 7545SOL    HW329947   4.808   5.304   4.247 -0.0816  0.8177 -0.6972
 7545SOL    MW429948   4.771   5.269   4.176  0.6090 -0.5010 -0.2798
 7546SOL     OW29949   4.096   4.049   5.164 -0.0646  0.1432  0.0239
 7546SOL    HW229950   4.031   4.118   5.152 -0.8532 -0.7004 -0.6970
 7546SOL    HW329951   4.070   4.004   5.245 -0.2482 -0.0522 -0.1431
 7546SOL    MW429952   4.084   4.052   5.174 -0.1205  0.5503 -0.1661
 7547SOL     OW29953   5.702   3.359   2.821 -0.0198 -0.4997  0.7028
 7547SOL    HW229954   5.614   3.382   2.849 -0.3765 -1.6918  0.6260
 7547SOL    HW329955   5.738   3.440   2.785 -0.3476  0.5180  2.5377
 7547SOL    MW429956   5.695   3.372   2.820  0.0790 -0.4013  0.2220
 7548SOL     OW29957   2.539   1.393   4.700  0.3900  0.2624  0.6538
 7548SOL    HW229958   2.627   1.428   4.713  0.8202 -0.4109 -0.3541
 7548SOL    HW329959   2.523   1.340   4.778  1.7651 -1.3821 -0.1271
 7548SOL    MW429960   2.549   1.391   4.712  0.1189  0.4309 -0.1449
 7549SOL     OW29961   4.769   4.123   5.045 -0.6602  0.8261  0.0809
 7549SOL    HW229962   4.769   4.176   4.965 -1.5116  1.6064  0.5631
 7549SOL    HW329963   4.859   4.127   5.076  0.7338 -2.6882 -2.7988
 7549SOL    MW429964   4.781   4.131   5.038  0.1543 -0.0347 -0.6937
 7550SOL     OW29965   3.342   4.516   5.570 -0.1156  0.5350  0.3103
 7550SOL    HW229966   3.372   4.432   5.606 -0.2388  0.8440  1.1566
 7550SOL    HW329967   3.388   4.524   5.487 -0.3467 -0.5267  0.0549
 7550SOL    MW429968   3.352   4.506   5.564 -0.3063  0.0033  0.6943
 7551SOL     OW29969   0.522   1.569   1.839  0.0837 -0.3611  0.6001
 7551SOL    HW229970   0.577   1.564   1.917  0.6712 -0.9881  0.1623
 7551SOL    HW329971   0.529   1.482   1.799 -0.4489 -0.1426  0.0109
 7551SOL    MW429972   0.530   1.557   1.844  0.2063  0.3097 -0.2236
 7552SOL     OW29973   3.436   2.308   5.651  0.0561 -0.6565 -0.0986
 7552SOL    HW229974   3.342   2.298   5.636 -0.1951  0.2155  0.7374
 7552SOL    HW329975   3.452   2.262   5.734  0.4547 -1.1994 -0.4755
 7552SOL    MW429976   3.426   2.301   5.660  0.1915 -0.1293  0.0765
 7553SOL     OW29977   3.004   1.385   4.021 -0.1689  0.4186  0.0471
 7553SOL    HW229978   2.991   1.291   4.037 -2.8298  0.2869 -2.0973
 7553SOL    HW329979   2.936   1.408   3.957 -0.8094  4.2128  1.8017
 7553SOL    MW429980   2.993   1.375   4.014  0.0080  0.4419 -0.1549
 7554SOL     OW29981   1.648   3.072   5.272  0.1506 -0.4689 -0.2887
 7554SOL    HW229982   1.628   2.983   5.302  1.8357 -0.9465 -0.5112
 7554SOL    HW329983   1.669   3.063   5.180  3.4148 -0.4095  0.3379
 7554SOL    MW429984   1.648   3.059   5.264 -0.5540  0.1830 -0.4733
 7555SOL     OW29985   3.293   5.619   4.921  0.0022  0.1617 -0.1049
 7555SOL    HW229986   3.237   5.550   4.958  0.2560 -0.3589 -0.6636
 7555SOL    HW329987   3.352   5.572   4.861  0.0496  0.8893 -0.6437
 7555SOL    MW429988   3.293   5.603   4.918  0.0880  0.1112  0.4694
 7556SOL     OW29989   1.096   2.129   4.121 -0.0221 -0.2062 -0.8684
 7556SOL    HW229990   1.135   2.064   4.062 -2.1977 -1.7217 -0.7617
 7556SOL    HW329991   1.024   2.167   4.070  0.8965  1.8212 -0.7391
 7556SOL    MW429992   1.092   2.125   4.106 -0.3286 -0.0046  0.2452
 7557SOL     OW29993   2.909   2.658   5.766 -0.2953  0.2600 -0.0884
 7557SOL    HW229994   2.818   2.661   5.795 -0.7825 -0.0487 -1.4825
 7557SOL    HW329995   2.941   2.748   5.774 -0.8642  0.4565 -0.0415
 7557SOL    MW429996   2.901   2.670   5.771 -0.2460 -0.3609  0.2238
 7558SOL     OW29997   4.706   3.061   5.845  1.2207  0.4044 -0.0271
 7558SOL    HW229998   4.786   3.102   5.877  1.7262 -0.2834 -0.3843
 7558SOL    HW329999   4.716   3.059   5.750  0.5047  0.8728 -0.1142
 7558SOL    MW430000   4.718   3.066   5.837  0.4220 -0.0060  0.0057
 7559SOL     OW30001   0.405   5.918   3.854 -0.2069 -0.0336 -0.0511
 7559SOL    HW230002   0.343   5.864   3.805 -1.0869  1.1733 -0.2899
 7559SOL    HW330003   0.353   5.958   3.924  0.5681  0.0176  0.5125
 7559SOL    MW430004   0.390   5.916   3.857 -0.1893 -0.0307  0.1363
 7560SOL     OW30005   3.617   5.696   1.563  0.7422  0.4275 -0.5684
 7560SOL    HW230006   3.594   5.670   1.652  1.8119  1.2310 -0.0365
 7560SOL    HW330007   3.542   5.669   1.510 -1.0361  2.0719  0.9454
 7560SOL    MW430008   3.604   5.689   1.568 -0.3451  0.2477 -0.1135
 7561SOL     OW30009   4.251   5.600   3.152  0.0359  0.2435 -0.1812
 7561SOL    HW230010   4.274   5.570   3.064 -0.0686 -2.1868  0.5610
 7561SOL    HW330011   4.313   5.671   3.170  2.5713 -1.6481 -0.8337
 7561SOL    MW430012   4.262   5.606   3.143  0.4661  0.1551 -0.0516
 7562SOL     OW30013   5.725   0.316   3.332 -0.2589 -0.4035 -0.6547
 7562SOL    HW230014   5.751   0.359   3.414 -3.5225  1.1382 -0.2647
 7562SOL    HW330015   5.664   0.378   3.291 -1.6567 -2.7562 -2.3759
 7562SOL    MW430016   5.720   0.330   3.337 -0.0959 -0.1520  0.1099
 7563SOL     OW30017   1.438   0.938   0.401  0.5856 -0.2161  0.2007
 7563SOL    HW230018   1.395   1.023   0.394 -1.2332 -0.9221  1.9729
 7563SOL    HW330019   1.373   0.876   0.369  0.0117 -1.3524  3.2451
 7563SOL    MW430020   1.424   0.941   0.396  0.4020 -0.3674 -0.0063
 7564SOL     OW30021   4.047   4.034   1.456  0.0653  0.3323  0.6823
 7564SOL    HW230022   4.118   4.059   1.397 -1.2857  0.3456 -1.0223
 7564SOL    HW330023   4.026   4.113   1.504  0.1954  0.7384  0.0796
 7564SOL    MW430024   4.054   4.047   1.455  0.4594  0.0614 -0.1046
 7565SOL     OW30025   4.782   0.842   1.286 -0.2355 -0.4427 -0.2112
 7565SOL    HW230026   4.848   0.898   1.245 -0.1284 -0.8118 -0.5458
 7565SOL    HW330027   4.704   0.898   1.292  0.1678  0.0719  0.4037
 7565SOL    MW430028   4.780   0.857   1.282 -0.1799  0.0938 -0.4366
 7566SOL     OW30029   4.922   1.063   2.135 -0.7285 -0.0966 -0.0051
 7566SOL    HW230030   4.833   1.034   2.153 -1.8533  0.9694 -3.2119
 7566SOL    HW330031   4.961   0.991   2.084 -0.7829  0.6093 -1.0729
 7566SOL    MW430032   4.916   1.050   2.131  0.6670 -0.0509  0.0099
 7567SOL     OW30033   4.813   0.332   1.189  0.2862 -0.5779  1.0574
 7567SOL    HW230034   4.774   0.414   1.221 -2.4457 -1.1351 -0.5998
 7567SOL    HW330035   4.827   0.281   1.269  0.4887  0.8242  1.9730
 7567SOL    MW430036   4.810   0.336   1.204 -0.0294  0.1665  0.2228
 7568SOL     OW30037   1.327   3.964   3.036  0.3391  0.5295 -0.3893
 7568SOL    HW230038   1.337   3.874   3.068 -0.1110  0.3553 -0.7254
 7568SOL    HW330039   1.396   3.974   2.970 -0.8620 -0.2768 -1.8559
 7568SOL    MW430040   1.337   3.953   3.031 -0.0726  0.7949  0.3206
 7569SOL     OW30041   4.698   3.163   0.324 -0.8852 -0.5446  0.4720
 7569SOL    HW230042   4.665   3.243   0.363 -0.2304  0.5364 -1.1008
 7569SOL    HW330043   4.772   3.190   0.271 -0.6640 -2.1915 -0.1383
 7569SOL    MW430044   4.703   3.177   0.322  0.3691 -0.2359  0.2037
 7570SOL     OW30045   1.560   2.081   3.838 -0.1065 -0.2265 -0.0790
 7570SOL    HW230046   1.637   2.055   3.788 -1.7139 -2.4370 -1.6407
 7570SOL    HW330047   1.527   2.159   3.793  0.4974 -0.0418 -0.2013
 7570SOL    MW430048   1.566   2.088   3.825 -0.8459 -0.8220  0.0047
 7571SOL     OW30049   2.655   6.372   3.553  0.4334  0.4061  0.9847
 7571SOL    HW230050   2.683   6.280   3.555 -1.1127 -0.1058  0.7076
 7571SOL    HW330051   2.712   6.413   3.488  1.1470 -0.3462  1.1161
 7571SOL    MW430052   2.666   6.365   3.545 -0.5791 -0.6687  0.2372
 7572SOL     OW30053   3.409   3.913   6.415  0.0934 -0.2629  0.3856
 7572SOL    HW230054   3.391   3.944   6.503 -1.3039  1.2673 -0.3759
 7572SOL    HW330055   3.481   3.968   6.384 -0.3013  0.1117  0.1226
 7572SOL    MW430056   3.416   3.924   6.422 -1.1114 -0.1817 -0.4600
 7573SOL     OW30057   0.702   4.543   0.303  0.7829 -0.0520  0.3321
 7573SOL    HW230058   0.766   4.567   0.370  1.5347 -1.0190 -0.0273
 7573SOL    HW330059   0.649   4.622   0.293  2.2840  0.9941  0.2127
 7573SOL    MW430060   0.704   4.557   0.310  0.4320  0.4243 -0.1504
 7574SOL     OW30061   4.101   4.402   2.372  0.5881 -0.1716  0.0033
 7574SOL    HW230062   4.151   4.353   2.306  2.0792  0.6774  0.4449
 7574SOL    HW330063   4.067   4.334   2.430  2.4315 -0.7660  0.4828
 7574SOL    MW430064   4.103   4.386   2.371  0.0326 -0.4341  0.2418
 7575SOL     OW30065   4.777   1.076   4.126 -0.1464  0.4878  0.3013
 7575SOL    HW230066   4.805   0.999   4.176 -0.1923 -0.7374 -1.4585
 7575SOL    HW330067   4.681   1.072   4.126 -0.1725  1.0348  0.9196
 7575SOL    MW430068   4.768   1.065   4.132 -0.0778 -0.2818 -0.4518
 7576SOL     OW30069   1.282   4.594   5.829 -0.0302 -0.0696  0.1705
 7576SOL    HW230070   1.204   4.615   5.880 -0.2421 -1.1278  0.2994
 7576SOL    HW330071   1.329   4.530   5.882 -0.5872 -1.7034 -1.2155
 7576SOL    MW430072   1.278   4.589   5.843  0.3482  0.3273  0.0755
 7577SOL     OW30073   0.387   4.834   4.181  0.0381 -0.3453 -0.2404
 7577SOL    HW230074   0.365   4.823   4.089 -1.4988 -1.4814  0.2127
 7577SOL    HW330075   0.327   4.902   4.212  0.0292 -0.5001  0.0861
 7577SOL    MW430076   0.376   4.841   4.173 -0.4953  0.3087  0.0706
 7578SOL     OW30077   4.623   3.387   6.089 -0.2272  0.0310  0.4181
 7578SOL    HW230078   4.705   3.432   6.109 -0.3319  0.1652  0.5561
 7578SOL    HW330079   4.636   3.297   6.118 -0.0951  0.0308  0.3540
 7578SOL    MW430080   4.635   3.381   6.096  0.0747  0.1934  0.7242
 7579SOL     OW30081   5.398   2.521   0.374  0.1518  0.2288  0.2740
 7579SOL    HW230082   5.369   2.612   0.384 -0.4256  0.3673 -2.0540
 7579SOL    HW330083   5.325   2.477   0.329  0.9727 -1.0372  0.1076
 7579SOL    MW430084   5.384   2.527   0.369 -0.5582  0.7960 -0.1871
 7580SOL     OW30085   1.649   0.883   0.897 -0.1739 -0.1377  0.0445
 7580SOL    HW230086   1.608   0.905   0.814 -0.6715 -0.4415  0.2032
 7580SOL    HW330087   1.662   0.788   0.893 -0.3583 -0.1797  0.3736
 7580SOL    MW430088   1.645   0.874   0.886  0.0784  0.2517  0.1320
 7581SOL     OW30089   0.501   5.431   0.757  0.3917  0.1028  0.0458
 7581SOL    HW230090   0.417   5.393   0.783  0.1840  0.8046  0.4396
 7581SOL    HW330091   0.511   5.408   0.665 -0.7069  0.8422 -0.2700
 7581SOL    MW430092   0.491   5.423   0.748  0.1690  0.4630 -0.0210
 7582SOL     OW30093   6.113   2.846   0.825  0.0700  0.0319  0.3730
 7582SOL    HW230094   6.207   2.865   0.831  0.4552 -1.7372  0.6608
 7582SOL    HW330095   6.097   2.783   0.896 -1.0158 -0.7932 -0.5688
 7582SOL    MW430096   6.123   2.840   0.835  0.2429 -0.2560  0.2316
 7583SOL     OW30097   3.153   6.147   5.233 -0.3211  0.4896 -0.0684
 7583SOL    HW230098   3.188   6.150   5.323 -0.9814 -1.8148  0.3377
 7583SOL    HW330099   3.062   6.175   5.242  0.1490  2.1972 -0.3861
 7583SOL    MW430100   3.146   6.151   5.246 -0.4291  0.3573 -0.4963
 7584SOL     OW30101   0.831   6.327   2.330  0.7485  0.3417  0.4016
 7584SOL    HW230102   0.778   6.268   2.383  0.2712  0.0560 -0.3738
 7584SOL    HW330103   0.773   6.401   2.311  0.6738  0.1179 -0.2878
 7584SOL    MW430104   0.816   6.329   2.334  0.0450  0.0245  0.2178
 7585SOL     OW30105   1.672   4.413   1.380  0.0372  0.4348 -0.7075
 7585SOL    HW230106   1.756   4.387   1.341 -0.5368 -1.4355 -0.8109
 7585SOL    HW330107   1.638   4.332   1.419 -2.8421  0.4952 -2.7798
 7585SOL    MW430108   1.679   4.399   1.380  0.1309 -0.0293  0.2187
 7586SOL     OW30109   4.803   4.280   4.800  0.5975 -0.4068  0.3861
 7586SOL    HW230110   4.746   4.357   4.799 -0.0126 -0.8403  0.6885
 7586SOL    HW330111   4.797   4.245   4.711  0.3876 -0.4470  0.4149
 7586SOL    MW430112   4.794   4.285   4.788 -0.2790  0.2319  0.1114
 7587SOL     OW30113   0.252   4.556   0.079  0.2661  0.0605  0.7570
 7587SOL    HW230114   0.182   4.529   0.019 -1.1677  0.9806  1.9324
 7587SOL    HW330115   0.213   4.626   0.132  2.8624  2.4016 -0.1716
 7587SOL    MW430116   0.237   4.562   0.078  0.4754  0.5936 -0.5622
 7588SOL     OW30117   6.222   0.963   1.736 -0.9571  0.3941 -0.1429
 7588SOL    HW230118   6.194   0.920   1.817 -1.8198  0.2918 -0.4898
 7588SOL    HW330119   6.171   1.044   1.733  0.8297  1.6106  0.6295
 7588SOL    MW430120   6.212   0.968   1.746  0.2257  0.1546 -0.3143
 7589SOL     OW30121   1.739   3.904   4.515 -0.2226 -0.7901 -0.2298
 7589SOL    HW230122   1.798   3.844   4.562  0.1280  0.2204  0.6529
 7589SOL    HW330123   1.746   3.877   4.423 -0.2311 -2.2307  0.1638
 7589SOL    MW430124   1.748   3.892   4.509 -0.0374  0.2172  0.5202
 7590SOL     OW30125   3.863   2.104   5.069 -0.1749 -0.0035 -0.4354
 7590SOL    HW230126   3.848   2.010   5.062  0.4060  0.0049 -2.3060
 7590SOL    HW330127   3.793   2.144   5.016 -0.3418  0.6197  0.2340
 7590SOL    MW430128   3.852   2.097   5.061  0.2853 -0.1118  0.0483
 7591SOL     OW30129   3.560   3.273   6.300  1.0077 -0.5322 -0.7878
 7591SOL    HW230130   3.597   3.334   6.363  0.3136  0.2277 -1.0974
 7591SOL    HW330131   3.520   3.205   6.354  2.0148 -0.8731 -0.4450
 7591SOL    MW430132   3.560   3.272   6.315  0.7487 -0.5615  0.5286
 7592SOL     OW30133   1.914   2.953   4.714 -0.4058  0.8838  0.2224
 7592SOL    HW230134   2.000   2.931   4.751 -0.8526 -0.2520  0.6455
 7592SOL    HW330135   1.900   3.044   4.739  0.1486  0.7137  1.2384
 7592SOL    MW430136   1.924   2.962   4.722 -0.2475  0.0523  0.1172
 7593SOL     OW30137   2.786   3.035   5.137 -0.3389 -0.3138  0.5865
 7593SOL    HW230138   2.763   3.121   5.174  0.1970  0.4512 -0.7924
 7593SOL    HW330139   2.870   3.013   5.177  1.0958  1.3037 -1.3109
 7593SOL    MW430140   2.794   3.044   5.147 -0.1979  0.5094 -0.3395
 7594SOL     OW30141   2.527   1.276   6.126 -0.0628  0.0753 -0.1655
 7594SOL    HW230142   2.479   1.242   6.201 -1.3926  0.8309 -0.6351
 7594SOL    HW330143   2.470   1.258   6.051  0.7231  0.3497 -0.8377
 7594SOL    MW430144   2.513   1.269   6.126  0.7449  0.5582 -0.7891
 7595SOL     OW30145   0.056   0.797   4.172  0.0425  0.3556 -0.0760
 7595SOL    HW230146   0.023   0.862   4.234 -1.1572  1.1716 -1.5167
 7595SOL    HW330147   0.126   0.842   4.125 -0.0580  0.2475 -0.3327
 7595SOL    MW430148   0.061   0.811   4.174  0.1571 -0.1902 -0.5787
 7596SOL     OW30149   4.454   2.959   2.372  0.1532 -0.5570  0.5303
 7596SOL    HW230150   4.384   2.933   2.431  0.8101 -0.1838  1.5065
 7596SOL    HW330151   4.475   3.049   2.398  0.3780 -0.3449 -0.3559
 7596SOL    MW430152   4.448   2.967   2.383  0.2028  0.0946 -0.1666
 7597SOL     OW30153   4.814   1.413   3.658  0.4044 -0.1583  0.0773
 7597SOL    HW230154   4.741   1.410   3.720 -0.8744 -0.5228 -1.3812
 7597SOL    HW330155   4.887   1.451   3.708 -0.8834  0.5891  1.4621
 7597SOL    MW430156   4.814   1.417   3.673  0.1092 -0.1494 -0.3839
 7598SOL     OW30157   3.893   2.465   0.823 -0.1806  0.0443 -0.2799
 7598SOL    HW230158   3.950   2.534   0.858  0.2628  0.3066 -1.4719
 7598SOL    HW330159   3.937   2.435   0.744 -2.0238  0.7133 -1.6241
 7598SOL    MW430160   3.906   2.470   0.817  0.1318 -0.5107 -0.1517
 7599SOL     OW30161   0.939   3.018   6.260 -0.0399 -0.0072  0.6861
 7599SOL    HW230162   0.916   3.064   6.179  0.3755  1.3165  1.2885
 7599SOL    HW330163   0.923   3.081   6.329 -0.8751 -1.2975  1.7132
 7599SOL    MW430164   0.934   3.032   6.258 -0.1420  0.5731 -0.4266
 7600SOL     OW30165   4.019   1.815   0.196 -0.1527 -0.5136  0.0713
 7600SOL    HW230166   4.079   1.883   0.225  0.0604 -0.8316  0.3800
 7600SOL    HW330167   4.032   1.743   0.257 -0.3733 -0.8354 -0.2521
 7600SOL    MW430168   4.028   1.815   0.208 -0.0957 -0.6964  0.6278
 7601SOL     OW30169   5.303   3.505   0.529  0.6911  0.8210  0.1401
 7601SOL    HW230170   5.263   3.437   0.474  2.2752  1.6254 -2.1718
 7601SOL    HW330171   5.246   3.511   0.605 -1.6436 -0.3921 -1.3951
 7601SOL    MW430172   5.291   3.496   0.532  0.0142  0.2557  0.0454
 7602SOL     OW30173   6.327   5.406   3.940 -0.5350 -0.1318 -0.2479
 7602SOL    HW230174   6.314   5.331   3.882 -0.0891 -0.2591 -0.1803
 7602SOL    HW330175   6.299   5.481   3.887 -0.0752 -0.2396 -0.6491
 7602SOL    MW430176   6.322   5.406   3.925  0.0725  0.2463 -0.3268
 7603SOL     OW30177   1.572   3.141   4.644 -0.7791 -0.6227  0.5773
 7603SOL    HW230178   1.566   3.237   4.647 -0.3090 -0.5601 -0.1502
 7603SOL    HW330179   1.489   3.113   4.608 -0.2078 -0.3468 -1.0431
 7603SOL    MW430180   1.561   3.150   4.640  0.2885 -0.4805  0.5365
 7604SOL     OW30181   0.723   2.569   1.516  0.4265 -0.2424 -0.2838
 7604SOL    HW230182   0.734   2.492   1.461 -0.8374 -0.0895 -0.7855
 7604SOL    HW330183   0.688   2.636   1.457 -1.5705 -0.2641  0.8166
 7604SOL    MW430184   0.720   2.568   1.501 -0.2355 -0.3804 -0.0092
 7605SOL     OW30185   1.966   6.409   4.871 -0.0914  0.6221 -0.1216
 7605SOL    HW230186   1.958   6.380   4.962 -0.5151  0.6172 -0.1548
 7605SOL    HW330187   1.967   6.328   4.820 -1.4546  0.6351 -0.2276
 7605SOL    MW430188   1.965   6.394   4.876 -0.1146 -0.0760 -0.0177
 7606SOL     OW30189   3.005   2.603   0.921  0.2399  0.3117  0.8537
 7606SOL    HW230190   2.934   2.542   0.942  0.5047 -0.9966 -1.6363
 7606SOL    HW330191   2.977   2.644   0.839  2.2642 -0.1682 -0.1394
 7606SOL    MW430192   2.992   2.600   0.913  0.1589  0.1063  0.4645
 7607SOL     OW30193   4.634   2.091   0.319 -0.2789 -0.0375  0.4637
 7607SOL    HW230194   4.633   2.146   0.397 -1.4213  0.3979  0.1625
 7607SOL    HW330195   4.585   2.141   0.254  1.6364  0.1432 -0.9372
 7607SOL    MW430196   4.628   2.105   0.321 -0.4404  0.2038 -0.0564
 7608SOL     OW30197   0.213   3.071   0.329 -0.0012 -0.2460 -0.1528
 7608SOL    HW230198   0.156   3.107   0.397  0.4031 -0.7617  0.4654
 7608SOL    HW330199   0.298   3.059   0.372  0.3271 -0.3489 -0.8137
 7608SOL    MW430200   0.217   3.074   0.343 -0.3770  0.3141 -0.2784
 7609SOL     OW30201   4.089   5.034   3.360  0.0248  0.5967  0.2876
 7609SOL    HW230202   4.138   5.031   3.442  0.2785 -0.3714  0.1098
 7609SOL    HW330203   4.003   4.998   3.382  0.6616 -1.3428 -0.2352
 7609SOL    MW430204   4.084   5.029   3.373  0.4462 -0.5999 -0.1388
 7610SOL     OW30205   4.306   1.340   1.718 -0.5553  0.1614  0.1065
 7610SOL    HW230206   4.224   1.366   1.760 -1.2668 -0.3912 -0.9096
 7610SOL    HW330207   4.346   1.278   1.779 -2.8768 -2.7701 -1.1013
 7610SOL    MW430208   4.300   1.335   1.731 -0.3460 -0.2531  0.0846
 7611SOL     OW30209   3.731   5.448   1.245  0.1333  0.8059 -0.2244
 7611SOL    HW230210   3.763   5.526   1.290  1.5285  0.7004 -0.9762
 7611SOL    HW330211   3.684   5.481   1.169 -2.5449  0.9985  1.4036
 7611SOL    MW430212   3.729   5.462   1.241 -0.7328  0.1355 -0.5340
 7612SOL     OW30213   6.146   0.155   3.960  0.2570  0.3734 -0.2770
 7612SOL    HW230214   6.085   0.126   3.892  0.2906  1.7143 -0.9154
 7612SOL    HW330215   6.233   0.129   3.927  0.0596 -1.6284  0.6815
 7612SOL    MW430216   6.150   0.148   3.946  0.3366  0.4700  0.3119
 7613SOL     OW30217   6.115   2.433   0.820 -0.2654  0.2643  0.3414
 7613SOL    HW230218   6.128   2.469   0.908  0.6773  3.5213 -0.9644
 7613SOL    HW330219   6.021   2.413   0.816 -0.0936 -1.2358  2.4525
 7613SOL    MW430220   6.104   2.435   0.831 -0.3125  0.4681 -0.1652
 7614SOL     OW30221   2.383   3.943   5.921 -0.0669 -0.7241  0.2984
 7614SOL    HW230222   2.353   3.895   5.998  1.0438 -0.6936  0.7668
 7614SOL    HW330223   2.318   4.013   5.909 -0.7416 -1.2840  0.6500
 7614SOL    MW430224   2.371   3.946   5.930 -0.3092 -0.2952  0.0562
 7615SOL     OW30225   2.910   3.971   5.495  0.6702  0.0805  0.5034
 7615SOL    HW230226   2.917   4.066   5.501  2.3393 -0.0262  0.6700
 7615SOL    HW330227   2.901   3.953   5.401 -0.1527  0.4152  0.5109
 7615SOL    MW430228   2.910   3.981   5.483  0.2215 -0.1353  0.0640
 7616SOL     OW30229   0.569   5.402   2.050 -0.1083  0.0781  0.4243
 7616SOL    HW230230   0.614   5.476   2.009 -0.5328  0.2392  0.2458
 7616SOL    HW330231   0.581   5.329   1.988  0.0030  0.0911  0.4308
 7616SOL    MW430232   0.577   5.402   2.037  0.3944 -0.2204  0.0669
 7617SOL     OW30233   2.606   5.755   3.724 -0.5541  0.0328 -0.1080
 7617SOL    HW230234   2.676   5.736   3.787 -0.2611 -1.0855 -0.7521
 7617SOL    HW330235   2.525   5.743   3.775 -0.3391 -1.4157 -0.0473
 7617SOL    MW430236   2.605   5.751   3.739  0.2202 -0.4130  0.0823
 7618SOL     OW30237   1.256   3.487   6.020  0.5147 -0.0216  0.2203
 7618SOL    HW230238   1.255   3.509   5.927 -1.4965 -0.4288  0.0962
 7618SOL    HW330239   1.297   3.561   6.063  0.3568  0.7179 -0.8823
 7618SOL    MW430240   1.261   3.499   6.014 -0.3586  0.3221 -0.1656
 7619SOL     OW30241   6.022   4.521   1.602  0.3704 -0.2644  0.4067
 7619SOL    HW230242   6.091   4.585   1.583 -0.0814 -0.0098 -0.4373
 7619SOL    HW330243   6.011   4.473   1.520 -1.1305  0.3669  0.2153
 7619SOL    MW430244   6.030   4.523   1.588 -0.0058 -0.0135  0.3993
 7620SOL     OW30245   6.340   4.861   5.129  0.2812 -0.5278 -0.4242
 7620SOL    HW230246   6.427   4.873   5.168  0.9735 -0.1068 -2.0289
 7620SOL    HW330247   6.332   4.767   5.116  0.0666 -0.6712  0.6194
 7620SOL    MW430248   6.350   4.850   5.133 -0.1823 -0.3504 -0.4632
 7621SOL     OW30249   2.474   0.843   2.668  0.4508  0.0611  0.0489
 7621SOL    HW230250   2.557   0.799   2.647  1.1318  1.2326  0.2263
 7621SOL    HW330251   2.455   0.896   2.591 -0.4131 -0.5730 -0.1931
 7621SOL    MW430252   2.482   0.844   2.655  0.0636 -0.0374 -0.4479
 7622SOL     OW30253   1.243   0.547   2.853 -0.1778 -0.0985  0.2417
 7622SOL    HW230254   1.285   0.566   2.770  2.0021  0.4109  1.3922
 7622SOL    HW330255   1.191   0.625   2.871 -0.7140 -0.2376 -0.6408
 7622SOL    MW430256   1.241   0.560   2.845 -0.2412  0.6670 -0.6030
 7623SOL     OW30257   2.306   0.052   4.274 -0.5378 -0.7499 -0.0521
 7623SOL    HW230258   2.267   0.082   4.192  0.3104 -1.0551 -0.5836
 7623SOL    HW330259   2.324   0.132   4.323 -0.6405 -0.5437 -0.3534
 7623SOL    MW430260   2.303   0.066   4.270 -0.4602  0.4924  0.1242
 7624SOL     OW30261   0.701   4.450   3.542 -0.0994 -0.3370  0.5313
 7624SOL    HW230262   0.616   4.411   3.521 -0.1985  0.5609 -0.9248
 7624SOL    HW330263   0.698   4.465   3.637 -2.0624  0.7226  0.3638
 7624SOL    MW430264   0.689   4.447   3.552  0.0143 -0.6959  0.2185
 7625SOL     OW30265   4.009   5.403   2.562 -0.1000 -0.8750 -0.5731
 7625SOL    HW230266   3.993   5.418   2.469  0.7587 -1.3672 -0.8045
 7625SOL    HW330267   3.928   5.431   2.605  0.2519  1.4559 -1.2553
 7625SOL    MW430268   3.996   5.409   2.556  0.0843  0.1549  0.0694
 7626SOL     OW30269   2.962   5.144   5.160  0.1189 -0.3268  0.5030
 7626SOL    HW230270   2.894   5.145   5.227  0.8639 -1.6768  1.3282
 7626SOL    HW330271   3.036   5.190   5.200 -0.2581  1.1463 -0.3946
 7626SOL    MW430272   2.963   5.150   5.174  0.1940  0.5133 -0.5076
 7627SOL     OW30273   4.480   0.875   3.224 -0.7935  0.4965 -0.0547
 7627SOL    HW230274   4.492   0.811   3.154 -2.9186 -2.0417  1.7193
 7627SOL    HW330275   4.526   0.953   3.193  1.2444 -1.5735 -2.7104
 7627SOL    MW430276   4.488   0.877   3.211  0.0425 -0.0718  0.4306
 7628SOL     OW30277   4.357   0.372   2.192  0.8637  0.0626 -0.0685
 7628SOL    HW230278   4.445   0.374   2.154  1.1732 -0.4373  0.5971
 7628SOL    HW330279   4.306   0.432   2.138  1.0008 -1.4373 -1.9723
 7628SOL    MW430280   4.362   0.380   2.180 -0.3005 -0.1906  0.0022
 7629SOL     OW30281   3.732   2.798   5.540 -0.3088  0.2320 -0.2463
 7629SOL    HW230282   3.732   2.864   5.610  0.0767 -0.0748  0.0540
 7629SOL    HW330283   3.793   2.731   5.572 -0.3969 -0.0768 -0.7257
 7629SOL    MW430284   3.740   2.798   5.554 -0.1191  0.3418 -0.4931
 7630SOL     OW30285   2.807   4.844   5.481  0.2199 -0.6726  0.1932
 7630SOL    HW230286   2.727   4.826   5.432  0.4343  0.4431 -0.6062
 7630SOL    HW330287   2.777   4.872   5.567 -0.2064 -1.3552  0.2740
 7630SOL    MW430288   2.792   4.845   5.486  0.1387  0.2394  0.3953
 7631SOL     OW30289   1.820   6.233   5.046 -0.2307 -0.1307  0.1572
 7631SOL    HW230290   1.757   6.235   4.973  1.1292 -0.3134 -1.0743
 7631SOL    HW330291   1.852   6.143   5.047 -0.1803 -0.1109  0.9594
 7631SOL    MW430292   1.816   6.221   5.036 -0.3531 -0.1325  0.2169
 7632SOL     OW30293   2.184   2.454   0.486 -0.1078 -0.5602  0.3286
 7632SOL    HW230294   2.128   2.409   0.549  0.7892 -1.2303  0.6627
 7632SOL    HW330295   2.124   2.483   0.417 -0.8954 -1.0408  0.7968
 7632SOL    MW430296   2.169   2.452   0.485  0.0992 -0.3389 -0.0687
 7633SOL     OW30297   1.550   3.520   1.612 -0.2328  0.1834  0.5324
 7633SOL    HW230298   1.459   3.532   1.641 -0.1258 -1.1181  1.5184
 7633SOL    HW330299   1.554   3.428   1.585  0.9141  0.1005  0.9431
 7633SOL    MW430300   1.538   3.509   1.612 -0.5201  0.1896  0.3116
 7634SOL     OW30301   4.688   2.109   5.433 -0.0991  0.1141  0.1042
 7634SOL    HW230302   4.755   2.153   5.485 -0.6612  1.5721 -0.3444
 7634SOL    HW330303   4.645   2.180   5.385 -0.0838 -1.0780 -1.8047
 7634SOL    MW430304   4.691   2.124   5.433  0.4223  0.6651 -0.1794
 7635SOL     OW30305   4.500   6.202   2.776 -0.1177 -0.6980 -0.1012
 7635SOL    HW230306   4.580   6.205   2.724  1.0129 -1.3886  1.5225
 7635SOL    HW330307   4.462   6.289   2.766  1.4148  0.0019 -0.0355
 7635SOL    MW430308   4.505   6.214   2.768 -0.6288 -0.4369  0.0726
 7636SOL     OW30309   4.418   5.457   0.226 -0.1745 -0.4140  0.2921
 7636SOL    HW230310   4.435   5.426   0.314 -0.1584 -0.2597  0.3433
 7636SOL    HW330311   4.324   5.444   0.214  0.0199 -1.5969 -0.1186
 7636SOL    MW430312   4.408   5.451   0.236  0.1970  0.5714 -0.1969
 7637SOL     OW30313   2.204   2.842   4.757  0.1972 -0.6626  0.0698
 7637SOL    HW230314   2.145   2.811   4.688  0.5942 -2.4972  0.5176
 7637SOL    HW330315   2.269   2.773   4.766  1.8222  0.8458  0.3377
 7637SOL    MW430316   2.205   2.829   4.749 -0.1638 -0.2789  0.2561
 7638SOL     OW30317   3.996   4.150   4.320  0.5991 -0.7960  0.1629
 7638SOL    HW230318   4.089   4.163   4.303  0.4540  0.2708  0.0881
 7638SOL    HW330319   3.974   4.069   4.274  1.5588 -1.2387  0.4608
 7638SOL    MW430320   4.005   4.141   4.312  0.0719  0.2140 -0.1904
 7639SOL     OW30321   5.900   3.126   3.342 -0.4429  0.0561 -0.2408
 7639SOL    HW230322   5.937   3.079   3.417 -1.4791 -1.1432 -0.4420
 7639SOL    HW330323   5.956   3.202   3.331  1.4433 -1.2381 -0.0344
 7639SOL    MW430324   5.912   3.130   3.351 -0.2841 -1.3469 -0.0428
 7640SOL     OW30325   5.183   3.106   0.669  0.8192 -0.4420 -0.4591
 7640SOL    HW230326   5.149   3.019   0.690  1.7424 -0.5463  0.6356
 7640SOL    HW330327   5.120   3.141   0.606 -2.2524 -0.0157  2.5656
 7640SOL    MW430328   5.170   3.099   0.663 -0.3081 -0.1592  0.2850
 7641SOL     OW30329   5.630   6.004   1.285 -0.3281  0.2257  0.0790
 7641SOL    HW230330   5.690   6.000   1.359 -0.8632  0.4790  0.5325
 7641SOL    HW330331   5.656   5.931   1.229  1.2570  1.0980 -0.4027
 7641SOL    MW430332   5.641   5.994   1.287  0.4641 -0.6712  0.0450
 7642SOL     OW30333   5.753   0.050   0.410  0.0710  0.0016  0.1064
 7642SOL    HW230334   5.720   0.021   0.325  0.8976  0.9525 -0.5501
 7642SOL    HW330335   5.741   0.145   0.410  0.4853  0.0633  0.8719
 7642SOL    MW430336   5.747   0.058   0.399 -0.0286 -0.7037 -0.6513
 7643SOL     OW30337   5.472   4.893   1.838  0.0967  0.0685  0.5854
 7643SOL    HW230338   5.517   4.862   1.916  0.1415  0.7962  0.8630
 7643SOL    HW330339   5.415   4.821   1.812  2.9416 -1.8030 -1.0657
 7643SOL    MW430340   5.470   4.880   1.845  0.3899  0.0153 -0.2200
 7644SOL     OW30341   3.811   0.702   3.321 -0.1738 -0.2115  0.7469
 7644SOL    HW230342   3.730   0.735   3.282  1.4146 -0.0441 -2.8070
 7644SOL    HW330343   3.806   0.607   3.311  0.4056 -0.1426 -0.3319
 7644SOL    MW430344   3.800   0.694   3.314  0.0505  0.0070  0.0166
 7645SOL     OW30345   1.491   5.570   5.079  0.6668  0.7033 -0.2347
 7645SOL    HW230346   1.412   5.519   5.100 -0.7971  2.3589 -1.4046
 7645SOL    HW330347   1.538   5.516   5.016 -0.1931  0.2332 -0.4926
 7645SOL    MW430348   1.487   5.556   5.073  0.3240 -0.2868  0.5718
 7646SOL     OW30349   0.899   0.275   1.879 -0.1642  0.4206  0.6367
 7646SOL    HW230350   0.925   0.280   1.971  0.0515  1.4461  0.5301
 7646SOL    HW330351   0.918   0.185   1.854 -1.7853 -0.3701  2.0542
 7646SOL    MW430352   0.905   0.264   1.888 -0.0766  0.1384 -0.3583
 7647SOL     OW30353   4.016   4.253   6.158 -0.4680 -0.6130  0.1679
 7647SOL    HW230354   3.968   4.321   6.111  2.2264  1.2913 -0.1172
 7647SOL    HW330355   4.055   4.199   6.089 -2.6121 -2.6253  0.3914
 7647SOL    MW430356   4.015   4.255   6.143 -0.1048  0.0191 -0.5035
 7648SOL     OW30357   3.461   3.509   1.894 -0.6263  0.0080 -0.4907
 7648SOL    HW230358   3.479   3.603   1.890 -0.1948 -0.1097 -2.7831
 7648SOL    HW330359   3.519   3.471   1.829 -0.1632 -1.9952  0.9942
 7648SOL    MW430360   3.471   3.517   1.885 -0.4924 -0.3400 -0.0267
 7649SOL     OW30361   1.449   0.084   3.754 -0.4455  0.0449 -0.2538
 7649SOL    HW230362   1.424   0.118   3.840 -1.5812  1.0111 -0.9418
 7649SOL    HW330363   1.373   0.034   3.725  0.5445 -1.6689 -0.0206
 7649SOL    MW430364   1.435   0.082   3.761  0.1902 -0.9058 -0.3694
 7650SOL     OW30365   6.215   4.352   1.000 -0.2805 -0.0893 -0.6170
 7650SOL    HW230366   6.210   4.386   0.910 -0.6438  0.7774 -0.2729
 7650SOL    HW330367   6.309   4.345   1.018 -0.1892 -1.0827 -1.3545
 7650SOL    MW430368   6.226   4.355   0.990  0.5439  0.2254  0.4293
 7651SOL     OW30369   3.262   0.562   1.427 -0.0873 -0.7656  0.4350
 7651SOL    HW230370   3.205   0.485   1.429  0.0172 -1.0107 -2.4635
 7651SOL    HW330371   3.221   0.621   1.364  2.0566 -0.3051 -0.6102
 7651SOL    MW430372   3.249   0.560   1.419 -0.4649  0.1803  0.2135
 7652SOL     OW30373   2.042   5.248   2.569  0.4366  0.6565  0.4949
 7652SOL    HW230374   2.070   5.158   2.554 -0.1585  0.8368 -2.0712
 7652SOL    HW330375   1.946   5.243   2.570  0.4045  1.2550  0.4186
 7652SOL    MW430376   2.033   5.235   2.567  0.3332  0.1120  0.2785
 7653SOL     OW30377   0.450   4.044   3.756  0.3098 -0.9133 -0.1902
 7653SOL    HW230378   0.368   4.023   3.799  0.1425 -0.4423 -0.2744
 7653SOL    HW330379   0.437   4.017   3.665 -0.3765  0.6900 -0.6079
 7653SOL    MW430380   0.438   4.038   3.750 -0.0863  0.0013 -0.3747
 7654SOL     OW30381   5.112   5.914   3.382  0.5250 -0.5236 -0.4431
 7654SOL    HW230382   5.203   5.918   3.412  0.7745  0.1632 -1.2732
 7654SOL    HW330383   5.088   5.821   3.391  0.8748 -0.5057  0.9874
 7654SOL    MW430384   5.121   5.902   3.387  0.3061  0.1611 -0.1697
 7655SOL     OW30385   1.018   0.533   3.860 -0.3451  0.6641  0.1223
 7655SOL    HW230386   0.961   0.460   3.884 -0.6191  1.4257  1.9243
 7655SOL    HW330387   0.959   0.598   3.822 -0.3663  0.6764  0.1773
 7655SOL    MW430388   1.003   0.532   3.858  0.1398 -0.1284 -0.0381
 7656SOL     OW30389   5.256   2.973   6.141  0.2169  0.3451  0.4947
 7656SOL    HW230390   5.276   3.032   6.214  1.6342  0.5690 -0.0398
 7656SOL    HW330391   5.229   3.031   6.070 -3.6132  0.0112  1.4735
 7656SOL    MW430392   5.255   2.988   6.142 -0.4037 -0.1792  0.3449
 7657SOL     OW30393   5.079   1.610   2.607 -0.0719  0.3637  0.3180
 7657SOL    HW230394   5.089   1.591   2.700  0.4200 -2.4223 -0.2136
 7657SOL    HW330395   5.167   1.631   2.577 -0.5749  3.7719  0.8515
 7657SOL    MW430396   5.092   1.610   2.615  0.2895 -0.0497  0.1176
 7658SOL     OW30397   3.805   0.976   5.809 -0.2813  0.3734 -0.2746
 7658SOL    HW230398   3.779   0.917   5.739 -0.0311  1.9594 -1.7662
 7658SOL    HW330399   3.758   1.058   5.790  1.3018  1.4600  0.2623
 7658SOL    MW430400   3.795   0.979   5.798 -0.0556  0.7410  0.1666
 7659SOL     OW30401   4.179   0.127   6.298 -0.5366  0.0088 -0.0237
 7659SOL    HW230402   4.258   0.181   6.301  0.1070 -0.8930  2.1617
 7659SOL    HW330403   4.110   0.183   6.334 -0.4772  0.2155 -0.2297
 7659SOL    MW430404   4.180   0.141   6.303  0.0168 -0.3800 -0.1517
 7660SOL     OW30405   2.069   2.562   4.833  0.1008  0.3500 -0.2639
 7660SOL    HW230406   2.117   2.594   4.909  0.1757 -0.5828  0.0922
 7660SOL    HW330407   2.032   2.479   4.861 -1.1565  0.7156 -0.7605
 7660SOL    MW430408   2.071   2.556   4.846 -0.0497  0.1496 -0.6459
 7661SOL     OW30409   4.140   4.662   1.671  0.0193  0.0752 -0.6260
 7661SOL    HW230410   4.200   4.737   1.672  0.3473 -0.1689 -1.2024
 7661SOL    HW330411   4.131   4.636   1.762 -1.4169  1.8532 -0.2159
 7661SOL    MW430412   4.147   4.668   1.683  0.4502 -0.3390  0.1631
 7662SOL     OW30413   5.196   1.487   4.111  0.0302 -0.3530  0.6628
 7662SOL    HW230414   5.266   1.488   4.177 -0.8079  0.2295  1.5681
 7662SOL    HW330415   5.138   1.416   4.138 -1.4228  1.1872  1.7785
 7662SOL    MW430416   5.198   1.478   4.123 -0.2655  0.1522  0.4994
 7663SOL     OW30417   2.369   4.715   4.084  0.0327  0.4321  0.2223
 7663SOL    HW230418   2.324   4.630   4.078  1.8367 -0.5409 -0.1930
 7663SOL    HW330419   2.319   4.764   4.150 -1.3907 -0.7189  0.0493
 7663SOL    MW430420   2.356   4.710   4.092 -0.2050 -0.9509  0.1319
 7664SOL     OW30421   6.249   5.080   1.648  0.0493  0.2590 -0.4726
 7664SOL    HW230422   6.262   5.134   1.726 -2.1908 -1.8086  1.5237
 7664SOL    HW330423   6.308   5.006   1.660 -0.6865 -0.3310 -0.4368
 7664SOL    MW430424   6.258   5.077   1.660  0.2701 -0.0854 -0.2257
 7665SOL     OW30425   6.299   1.394   1.313  0.3476  0.1055 -0.2625
 7665SOL    HW230426   6.353   1.473   1.312  0.3269  0.1175 -0.7453
 7665SOL    HW330427   6.306   1.359   1.224 -1.1334  0.5928 -0.6086
 7665SOL    MW430428   6.307   1.400   1.301 -0.6042  0.0315 -0.0636
 7666SOL     OW30429   5.140   2.237   2.964  0.6470 -0.8826 -0.4572
 7666SOL    HW230430   5.070   2.172   2.972 -0.2056 -0.0570 -0.9850
 7666SOL    HW330431   5.198   2.220   3.038 -0.4605 -1.1826  0.3546
 7666SOL    MW430432   5.138   2.226   2.975  0.5353  0.2590 -0.2874
 7667SOL     OW30433   4.556   1.222   4.848  0.2532 -0.2312  0.2816
 7667SOL    HW230434   4.631   1.214   4.790 -0.0179  0.0318 -0.1143
 7667SOL    HW330435   4.497   1.282   4.802 -0.4385 -0.8678  0.3261
 7667SOL    MW430436   4.558   1.229   4.835  0.2989  0.6249 -0.0195
 7668SOL     OW30437   6.090   2.625   6.060 -0.8120 -0.4490 -0.3911
 7668SOL    HW230438   6.085   2.721   6.069  0.7317 -0.4971  1.5053
 7668SOL    HW330439   6.179   2.609   6.030 -0.7012 -1.3540  0.3860
 7668SOL    MW430440   6.101   2.636   6.057  0.4190  0.1972  0.8607
 7669SOL     OW30441   2.800   3.739   0.753  0.2758  0.2831 -0.8040
 7669SOL    HW230442   2.820   3.805   0.818 -2.7676 -0.8852  1.5892
 7669SOL    HW330443   2.854   3.664   0.777 -0.9691 -0.2091  0.6449
 7669SOL    MW430444   2.809   3.737   0.765  0.2025  0.0315 -0.2074
 7670SOL     OW30445   0.714   6.080   2.392 -0.2914 -0.6729  0.1500
 7670SOL    HW230446   0.655   6.078   2.468  0.2016 -2.8617  0.5282
 7670SOL    HW330447   0.658   6.060   2.318 -0.5981  0.5504  0.0242
 7670SOL    MW430448   0.699   6.077   2.392 -0.0697 -0.2166 -0.4770
 7671SOL     OW30449   1.442   0.916   6.402 -0.2031 -0.1696  0.1214
 7671SOL    HW230450   1.451   0.821   6.413 -0.6159 -0.1085  1.0826
 7671SOL    HW330451   1.448   0.930   6.308 -0.6868 -1.2181 -0.0770
 7671SOL    MW430452   1.444   0.905   6.391  0.4394 -0.0245 -0.5874
 7672SOL     OW30453   5.107   2.395   4.338  0.0855 -0.1140  0.3518
 7672SOL    HW230454   5.036   2.335   4.314 -1.6143  1.6618  0.7080
 7672SOL    HW330455   5.137   2.364   4.423  0.0700 -1.1545 -0.0076
 7672SOL    MW430456   5.102   2.383   4.346 -0.6460 -0.8796 -0.1300
 7673SOL     OW30457   0.871   2.820   1.862  0.5497 -0.0941  0.3501
 7673SOL    HW230458   0.799   2.756   1.857 -0.9616  1.6449 -2.1703
 7673SOL    HW330459   0.934   2.790   1.797  1.2031 -0.5044  1.1502
 7673SOL    MW430460   0.870   2.808   1.853 -0.4961 -0.4609 -0.3298
 7674SOL     OW30461   2.107   3.582   5.905  0.1693  0.1871  0.3471
 7674SOL    HW230462   2.203   3.581   5.914  0.3630 -0.8379 -1.2577
 7674SOL    HW330463   2.082   3.490   5.916 -0.5811  0.3927  0.3636
 7674SOL    MW430464   2.117   3.570   5.907  0.1727 -0.4571  0.2701
 7675SOL     OW30465   1.279   5.948   3.731  0.2329  0.2001  0.2768
 7675SOL    HW230466   1.315   6.036   3.740  1.5793 -0.2089 -0.7182
 7675SOL    HW330467   1.337   5.893   3.784  2.0738 -0.6772 -2.3916
 7675SOL    MW430468   1.291   5.952   3.739  0.4623 -0.2551 -0.1083
 7676SOL     OW30469   3.224   1.007   0.013  0.3029 -0.1399  0.1170
 7676SOL    HW230470   3.203   1.084   0.065  2.2382  0.5386 -0.0259
 7676SOL    HW330471   3.320   1.000   0.017  0.1482 -3.2240  1.0767
 7676SOL    MW430472   3.234   1.016   0.020  0.4889 -0.3140  0.1471
 7677SOL     OW30473   3.705   4.522   5.282  0.1756 -0.2346  0.4682
 7677SOL    HW230474   3.613   4.497   5.286 -0.7368  2.5965 -0.4471
 7677SOL    HW330475   3.704   4.617   5.270  3.2176 -0.1420  0.0691
 7677SOL    MW430476   3.693   4.531   5.281 -0.0914 -0.1671 -0.1563
 7678SOL     OW30477   3.493   3.099   1.527 -0.3106  0.3371 -0.3757
 7678SOL    HW230478   3.439   3.112   1.449 -0.4172  0.2761 -0.3120
 7678SOL    HW330479   3.571   3.054   1.495 -0.8483 -0.7013 -0.2777
 7678SOL    MW430480   3.496   3.095   1.513 -0.1251 -0.1081  0.3239
 7679SOL     OW30481   1.332   4.785   3.269  0.0177  0.0642  0.6755
 7679SOL    HW230482   1.337   4.811   3.361  1.6355  0.0259  0.6327
 7679SOL    HW330483   1.390   4.710   3.262  1.0565  0.9401 -0.6418
 7679SOL    MW430484   1.340   4.779   3.280 -0.2452 -0.0690  0.5873
 7680SOL     OW30485   4.376   4.115   5.115 -0.6104  0.5179 -0.6278
 7680SOL    HW230486   4.284   4.089   5.120 -1.6329  3.4759 -1.5903
 7680SOL    HW330487   4.375   4.209   5.133  2.5007  0.3612  1.0739
 7680SOL    MW430488   4.363   4.124   5.118 -0.4807 -0.1589 -0.1975
 7681SOL     OW30489   4.705   3.087   1.936 -0.2194 -0.1101 -0.2757
 7681SOL    HW230490   4.675   3.024   2.001 -1.2357  0.5815 -0.0450
 7681SOL    HW330491   4.797   3.064   1.920 -0.4022 -1.2527  0.2420
 7681SOL    MW430492   4.713   3.076   1.943  0.0991  0.3840  0.4588
 7682SOL     OW30493   6.081   5.710   5.920 -0.8148 -0.4697  0.3317
 7682SOL    HW230494   6.131   5.716   6.001 -0.0683  1.0193 -0.2056
 7682SOL    HW330495   5.990   5.715   5.948 -0.5763 -0.3529  1.1124
 7682SOL    MW430496   6.076   5.712   5.935  0.4523  0.5279  0.1427
 7683SOL     OW30497   4.665   0.591   1.259  0.0129  0.1793  0.0801
 7683SOL    HW230498   4.728   0.664   1.257  0.8043 -0.4874  0.1609
 7683SOL    HW330499   4.637   0.582   1.168 -1.4658  1.7305  0.3374
 7683SOL    MW430500   4.670   0.599   1.247 -0.4606  0.2016 -0.0978
 7684SOL     OW30501   5.812   4.147   2.600  0.5548 -0.1833  0.4003
 7684SOL    HW230502   5.783   4.238   2.608  1.5912  0.1089  1.0536
 7684SOL    HW330503   5.781   4.105   2.680 -0.8535 -0.7016 -0.3801
 7684SOL    MW430504   5.804   4.154   2.611 -0.2168 -0.0843 -0.1128
 7685SOL     OW30505   2.208   2.324   3.796  0.1894 -0.0794 -0.2243
 7685SOL    HW230506   2.181   2.323   3.704 -1.0258  0.7268  0.0973
 7685SOL    HW330507   2.204   2.416   3.821  3.5389  0.1679 -0.1745
 7685SOL    MW430508   2.204   2.336   3.787 -0.0919 -0.0325 -0.5274
 7686SOL     OW30509   0.533   2.402   3.859 -0.0754 -0.2830 -0.4147
 7686SOL    HW230510   0.447   2.410   3.902 -0.8744  1.1670 -2.1282
 7686SOL    HW330511   0.547   2.308   3.850 -1.4028 -0.5476  0.0999
 7686SOL    MW430512   0.523   2.391   3.863  0.1925  0.0419  0.5331
 7687SOL     OW30513   5.683   0.553   1.764 -0.6315 -0.3285 -0.0337
 7687SOL    HW230514   5.748   0.612   1.727 -0.9154  0.0719  0.1045
 7687SOL    HW330515   5.734   0.490   1.815 -0.4937  2.0955  3.1585
 7687SOL    MW430516   5.699   0.552   1.766 -0.2740 -0.0517 -0.2947
 7688SOL     OW30517   6.365   5.703   0.274 -0.1883 -0.1045  0.3978
 7688SOL    HW230518   6.457   5.674   0.274 -0.0404  0.1263 -2.0393
 7688SOL    HW330519   6.327   5.658   0.198 -1.3584  1.9086 -0.2634
 7688SOL    MW430520   6.372   5.693   0.264 -0.4423  0.5627  0.3203
 7689SOL     OW30521   3.141   3.950   1.110  0.1572 -0.0035  0.6499
 7689SOL    HW230522   3.132   3.861   1.077 -1.1776  0.2047  0.3898
 7689SOL    HW330523   3.110   3.945   1.200  0.0619  0.2004  0.6286
 7689SOL    MW430524   3.136   3.938   1.117  0.1042 -0.1095 -0.1036
 7690SOL     OW30525   1.542   6.301   5.071 -0.5024 -0.1161  0.7895
 7690SOL    HW230526   1.496   6.229   5.027 -0.3217  0.7567 -0.9260
 7690SOL    HW330527   1.614   6.259   5.117  1.0653 -0.9163 -2.1341
 7690SOL    MW430528   1.545   6.286   5.071 -0.3352  0.8790 -0.3420
 7691SOL     OW30529   0.485   4.792   3.173  0.1731  0.1690 -0.9732
 7691SOL    HW230530   0.418   4.772   3.108 -0.4437 -0.6842 -0.0910
 7691SOL    HW330531   0.475   4.886   3.188  0.7922  0.5253 -2.6067
 7691SOL    MW430532   0.475   4.802   3.166 -0.0441  0.5071 -0.2200
 7692SOL     OW30533   5.378   5.575   1.362 -0.3868  0.0142 -0.7176
 7692SOL    HW230534   5.304   5.516   1.375 -0.2998 -0.1426 -0.9293
 7692SOL    HW330535   5.338   5.657   1.332 -0.3452 -0.7873 -3.2412
 7692SOL    MW430536   5.363   5.578   1.359  0.5068 -0.1518 -0.1757
 7693SOL     OW30537   4.483   2.072   4.054 -0.2137  0.2668 -0.0960
 7693SOL    HW230538   4.441   2.014   4.117 -1.1420 -0.1109 -1.0314
 7693SOL    HW330539   4.530   2.136   4.108  0.2739 -0.9326  0.9513
 7693SOL    MW430540   4.484   2.073   4.069  0.7546 -0.1487  0.2178
 7694SOL     OW30541   2.007   2.005   1.396  0.7905 -0.5901 -0.0619
 7694SOL    HW230542   1.959   2.087   1.403  0.7716 -0.6729  0.8374
 7694SOL    HW330543   1.948   1.946   1.349  0.3896 -0.4084  0.2175
 7694SOL    MW430544   1.993   2.008   1.391 -0.1138  0.4985 -0.2510
 7695SOL     OW30545   3.916   4.059   4.555 -0.1572  0.3181 -0.1820
 7695SOL    HW230546   3.930   4.098   4.469 -1.1276  1.9298  0.3421
 7695SOL    HW330547   3.824   4.076   4.575 -0.3771 -1.4473  0.5068
 7695SOL    MW430548   3.906   4.066   4.547  0.1344  0.0360 -0.2815
 7696SOL     OW30549   0.382   1.308   6.040 -0.0193  0.1923  0.2423
 7696SOL    HW230550   0.339   1.385   6.077  0.3670  1.2193 -1.3571
 7696SOL    HW330551   0.313   1.263   5.990 -0.0862 -0.1605  0.6431
 7696SOL    MW430552   0.367   1.312   6.038 -0.0906  0.4554  0.4124
 7697SOL     OW30553   0.723   4.964   1.163  0.2206 -0.1292  0.2566
 7697SOL    HW230554   0.764   4.907   1.228  0.4018  0.1470  0.3851
 7697SOL    HW330555   0.641   4.992   1.203 -0.1239 -0.7316 -0.0255
 7697SOL    MW430556   0.718   4.960   1.176  0.3853 -0.2858  0.5534
 7698SOL     OW30557   4.803   3.750   1.900  0.6699 -0.3049 -0.3170
 7698SOL    HW230558   4.731   3.689   1.916 -0.1307  0.6090 -0.2783
 7698SOL    HW330559   4.838   3.724   1.815  0.0561 -0.5580 -0.4993
 7698SOL    MW430560   4.798   3.739   1.891  0.8529  0.4279  0.2964
 7699SOL     OW30561   2.941   1.276   6.176 -0.2844 -0.5924 -0.0514
 7699SOL    HW230562   2.881   1.214   6.134 -0.2498 -0.1573 -0.7676
 7699SOL    HW330563   2.951   1.346   6.111  0.3002 -0.2304  0.4263
 7699SOL    MW430564   2.934   1.277   6.162  0.1917 -0.3944  0.1912
 7700SOL     OW30565   3.881   0.903   5.357  0.2446 -0.3856  0.1112
 7700SOL    HW230566   3.945   0.965   5.392 -1.1112  1.4394 -0.4942
 7700SOL    HW330567   3.843   0.861   5.434  0.7294  0.0000  0.5688
 7700SOL    MW430568   3.884   0.906   5.372  0.2856 -0.1577 -0.1274
 7701SOL     OW30569   5.881   0.258   1.138 -0.1512  0.0672  0.4191
 7701SOL    HW230570   5.810   0.194   1.130 -1.0082  1.2416 -1.9679
 7701SOL    HW330571   5.837   0.342   1.144  1.0359  0.7978 -0.8228
 7701SOL    MW430572   5.866   0.260   1.138  0.0479  0.0059 -0.6536
 7702SOL     OW30573   1.636   4.455   4.136 -0.1987  0.5969  0.1841
 7702SOL    HW230574   1.565   4.435   4.074  0.1524 -1.0627  0.2640
 7702SOL    HW330575   1.716   4.440   4.087  0.0830 -0.3257  0.8935
 7702SOL    MW430576   1.637   4.450   4.122  0.4305  0.5287 -0.5870
 7703SOL     OW30577   0.747   3.020   5.589  0.3804  0.4670  0.0684
 7703SOL    HW230578   0.694   3.080   5.537 -0.3692  1.1150  1.5124
 7703SOL    HW330579   0.699   2.937   5.588 -0.3015  0.8440  0.7672
 7703SOL    MW430580   0.733   3.017   5.582 -0.4474 -0.7217 -1.0349
 7704SOL     OW30581   4.964   3.117   1.265  0.6801  0.3818  0.7737
 7704SOL    HW230582   4.944   3.069   1.346  0.4924  0.9274  1.0508
 7704SOL    HW330583   4.908   3.075   1.199  1.0519 -0.2620  0.8538
 7704SOL    MW430584   4.954   3.105   1.267  0.1363  0.0050 -0.2212
 7705SOL     OW30585   2.432   3.596   1.272  0.5696 -0.4506 -0.1227
 7705SOL    HW230586   2.490   3.603   1.196  1.2313 -2.1220  0.1650
 7705SOL    HW330587   2.346   3.578   1.235  0.7152 -0.3727 -0.5047
 7705SOL    MW430588   2.428   3.594   1.257  0.3768 -0.3596 -0.3133
 7706SOL     OW30589   4.821   5.244   1.380  0.0449 -0.3138  0.1673
 7706SOL    HW230590   4.861   5.325   1.349 -1.2574  0.3849  0.2412
 7706SOL    HW330591   4.839   5.243   1.474 -1.2788  0.7277  0.4622
 7706SOL    MW430592   4.828   5.255   1.388 -0.2150  0.1170  0.3039
 7707SOL     OW30593   6.159   4.254   5.250  0.0799  0.1559  0.5990
 7707SOL    HW230594   6.203   4.245   5.166  1.0825  0.0418  1.1230
 7707SOL    HW330595   6.170   4.346   5.273 -1.8867  0.6730 -0.2754
 7707SOL    MW430596   6.166   4.265   5.242  0.1304  0.7218  0.1000
 7708SOL     OW30597   5.116   1.208   0.096  0.5443 -0.3380 -0.3166
 7708SOL    HW230598   5.111   1.194   0.001 -0.1179 -0.8783 -0.2117
 7708SOL    HW330599   5.024   1.211   0.125  0.6819  1.9504  0.0290
 7708SOL    MW430600   5.103   1.206   0.087  0.1030  0.4166 -0.1250
 7709SOL     OW30601   5.054   5.029   2.760 -0.6393  0.2108 -0.1535
 7709SOL    HW230602   4.984   5.078   2.804 -0.2974 -0.7749  1.5672
 7709SOL    HW330603   5.128   5.090   2.758 -0.6169  0.2268  0.7892
 7709SOL    MW430604   5.054   5.044   2.766 -0.4953 -0.5106 -0.0800
 7710SOL     OW30605   3.225   5.866   0.987  0.1129  0.1133  0.4603
 7710SOL    HW230606   3.154   5.870   0.924  0.1991  0.4405  0.3831
 7710SOL    HW330607   3.277   5.791   0.960  1.1863  1.3185 -0.9725
 7710SOL    MW430608   3.223   5.857   0.975  0.6957  0.2551  0.3767
 7711SOL     OW30609   0.957   4.065   6.038 -0.5454  0.1439 -0.2399
 7711SOL    HW230610   0.917   4.037   5.956 -1.5092 -0.2899  0.3564
 7711SOL    HW330611   1.050   4.074   6.018 -0.4902 -1.6322 -0.9497
 7711SOL    MW430612   0.964   4.063   6.025  0.1405 -0.1495 -0.1842
 7712SOL     OW30613   4.747   5.071   3.324  0.0243 -0.0694  0.0862
 7712SOL    HW230614   4.716   5.077   3.414  2.6829  1.5129  1.0251
 7712SOL    HW330615   4.737   5.159   3.288  1.0844 -0.1115 -0.3680
 7712SOL    MW430616   4.742   5.083   3.331 -0.3232 -0.0482 -0.5639
 7713SOL     OW30617   4.813   5.663   4.458 -0.0044 -0.2051  0.2468
 7713SOL    HW230618   4.828   5.695   4.369 -0.9382 -0.5326 -0.0405
 7713SOL    HW330619   4.888   5.606   4.476  0.2288 -0.0753 -0.3017
 7713SOL    MW430620   4.825   5.659   4.448 -0.2690 -0.2733 -0.7018
 7714SOL     OW30621   1.711   4.926   6.191  0.6001 -0.1744  0.0021
 7714SOL    HW230622   1.790   4.972   6.164  0.1054  1.4697  1.1490
 7714SOL    HW330623   1.692   4.866   6.120  0.8058  2.0630 -2.0584
 7714SOL    MW430624   1.719   4.924   6.178 -0.0189  0.2776  0.0498
 7715SOL     OW30625   6.461   6.109   4.916 -0.1062  0.2624 -0.0431
 7715SOL    HW230626   6.528   6.165   4.956 -1.1538  0.1874  1.9113
 7715SOL    HW330627   6.478   6.022   4.953  0.2286 -0.3042 -1.4699
 7715SOL    MW430628   6.472   6.105   4.926  0.3192  0.0452  0.6310
 7716SOL     OW30629   3.111   5.048   3.803 -0.3404  0.6085 -0.4989
 7716SOL    HW230630   3.046   5.097   3.752 -0.8840  0.6313  0.1994
 7716SOL    HW330631   3.144   5.110   3.868  0.2566  0.5439 -0.7314
 7716SOL    MW430632   3.107   5.063   3.805  0.7188 -0.6632 -0.0001
 7717SOL     OW30633   6.269   3.131   1.744  0.1601 -0.2290 -0.4574
 7717SOL    HW230634   6.216   3.054   1.724 -0.8349  0.0499  0.9985
 7717SOL    HW330635   6.226   3.172   1.818  2.4731 -0.0634  0.9097
 7717SOL    MW430636   6.256   3.126   1.751 -0.7265  0.1917 -0.0792
 7718SOL     OW30637   1.645   5.250   0.683 -0.6563  0.2849  0.3727
 7718SOL    HW230638   1.665   5.162   0.651 -0.5769  0.2360  0.5550
 7718SOL    HW330639   1.731   5.293   0.690 -0.8538  1.3180 -2.3773
 7718SOL    MW430640   1.659   5.244   0.680 -0.0378  0.1523  0.1629
 7719SOL     OW30641   4.005   2.747   0.921 -0.1142  0.4643 -0.1217
 7719SOL    HW230642   3.978   2.837   0.936  2.0112  1.3200 -0.9962
 7719SOL    HW330643   4.061   2.726   0.996 -1.1185 -0.4052  0.4218
 7719SOL    MW430644   4.009   2.756   0.933 -0.2051  0.4219  0.0660
 7720SOL     OW30645   3.803   5.997   5.475  0.5317  0.1886 -0.0561
 7720SOL    HW230646   3.763   6.043   5.549 -1.7362 -1.1679 -0.3222
 7720SOL    HW330647   3.736   5.934   5.448  2.4699 -1.4501 -1.3460
 7720SOL    MW430648   3.789   5.994   5.481 -0.0176 -0.1755 -0.2785
 7721SOL     OW30649   4.727   0.267   0.420 -0.8176  0.2831 -0.0085
 7721SOL    HW230650   4.726   0.182   0.464 -0.8298 -0.6204 -1.6521
 7721SOL    HW330651   4.820   0.286   0.407 -0.8299  0.0757 -0.4247
 7721SOL    MW430652   4.739   0.258   0.424  0.3432  0.4737 -0.4326
 7722SOL     OW30653   5.693   1.314   6.017  0.0208  0.0469 -0.8293
 7722SOL    HW230654   5.764   1.286   6.074 -0.5197 -2.1347 -1.1432
 7722SOL    HW330655   5.622   1.338   6.077  0.4702  0.7531 -0.5598
 7722SOL    MW430656   5.693   1.314   6.033 -0.3867 -0.0412 -0.1695
 7723SOL     OW30657   6.099   0.910   0.732  0.0937  0.2300 -0.3373
 7723SOL    HW230658   6.097   0.953   0.647 -2.2964 -0.2274 -0.5772
 7723SOL    HW330659   6.083   0.817   0.712  1.6332 -0.2474  0.4644
 7723SOL    MW430660   6.097   0.903   0.718  0.1350 -0.3923 -0.0236
 7724SOL     OW30661   0.105   0.687   1.064  0.5589  0.4220 -0.5785
 7724SOL    HW230662   0.073   0.685   0.974  0.1441  1.4242 -0.4668
 7724SOL    HW330663   0.186   0.636   1.063  0.6646  0.6016 -1.5546
 7724SOL    MW430664   0.111   0.680   1.052 -0.2076  0.0906  0.1657
 7725SOL     OW30665   0.498   0.076   3.082 -0.1941  0.3338  0.2830
 7725SOL    HW230666   0.594   0.075   3.086 -0.2343 -0.5348  1.3817
 7725SOL    HW330667   0.478   0.144   3.018  1.1721 -0.0180 -0.5656
 7725SOL    MW430668   0.508   0.085   3.074 -0.4256 -0.2638  0.8669
 7726SOL     OW30669   0.548   5.568   4.842 -0.2032  0.8089 -0.5938
 7726SOL    HW230670   0.579   5.480   4.862 -2.2673 -0.4713 -2.5663
 7726SOL    HW330671   0.578   5.584   4.753  0.3275  2.2202 -0.1829
 7726SOL    MW430672   0.556   5.559   4.833  0.2559  0.4140  0.2374
 7727SOL     OW30673   3.436   1.519   3.591  0.6962  0.4021  0.2498
 7727SOL    HW230674   3.462   1.549   3.504 -0.8974 -1.0141 -0.7671
 7727SOL    HW330675   3.486   1.438   3.604 -0.3875 -0.3409 -0.1295
 7727SOL    MW430676   3.446   1.512   3.582 -0.5006  0.3800 -0.0670
 7728SOL     OW30677   5.218   0.758   0.359  0.0394  0.8535 -0.1210
 7728SOL    HW230678   5.182   0.806   0.434 -0.2916 -0.1768  0.4015
 7728SOL    HW330679   5.143   0.714   0.320  0.5036 -0.1940  0.1296
 7728SOL    MW430680   5.204   0.759   0.364  0.1948 -0.0828  0.3097
 7729SOL     OW30681   0.083   5.291   4.303 -0.3627 -0.2321 -0.3548
 7729SOL    HW230682   0.105   5.356   4.371 -1.3219 -0.0085 -0.2429
 7729SOL    HW330683   0.087   5.340   4.221  0.3702 -0.3982 -0.4242
 7729SOL    MW430684   0.087   5.306   4.301  0.1286 -0.0256  0.0590
 7730SOL     OW30685   2.685   4.719   4.574 -0.6463  0.2817 -0.2377
 7730SOL    HW230686   2.730   4.636   4.590 -1.5318 -0.2675 -0.5620
 7730SOL    HW330687   2.755   4.785   4.576  0.1787 -0.5592 -0.7821
 7730SOL    MW430688   2.700   4.717   4.577 -1.0380 -0.0409 -0.2669
 7731SOL     OW30689   4.535   2.736   0.979  0.4320  0.4680 -0.0319
 7731SOL    HW230690   4.541   2.694   1.065 -0.1994  1.9097  0.7554
 7731SOL    HW330691   4.622   2.774   0.965  0.3940  0.6554  0.2207
 7731SOL    MW430692   4.548   2.736   0.989  0.4717  0.0640 -0.0895
 7732SOL     OW30693   3.597   3.725   0.129  0.0976 -0.2331 -0.0395
 7732SOL    HW230694   3.589   3.767   0.214  2.3261 -0.6807  0.4413
 7732SOL    HW330695   3.534   3.772   0.073  0.0908  1.4607  1.3074
 7732SOL    MW430696   3.588   3.737   0.133  0.2432  0.1312  0.1532
 7733SOL     OW30697   1.368   4.939   2.716  0.0164  0.2223  0.5625
 7733SOL    HW230698   1.295   4.891   2.678  0.7181 -1.2872  1.0564
 7733SOL    HW330699   1.328   5.017   2.755 -1.3104 -0.5008  0.7031
 7733SOL    MW430700   1.353   4.943   2.716  0.1467 -0.3458 -0.1631
 7734SOL     OW30701   0.825   5.784   4.352 -0.1543  0.4666 -0.6677
 7734SOL    HW230702   0.919   5.788   4.331 -0.0637 -1.7826 -0.8668
 7734SOL    HW330703   0.783   5.821   4.274  0.5210 -0.2202 -1.3878
 7734SOL    MW430704   0.832   5.790   4.339 -0.3936 -0.3006 -0.2983
 7735SOL     OW30705   5.636   3.433   1.492  0.0369  0.3668 -0.1584
 7735SOL    HW230706   5.583   3.433   1.412  0.1150  0.8251 -0.2163
 7735SOL    HW330707   5.721   3.468   1.464  0.7499 -1.3816 -0.3008
 7735SOL    MW430708   5.641   3.438   1.477  0.3777 -0.1404 -0.3589
 7736SOL     OW30709   3.064   1.113   1.980  0.7680  0.9570  0.5602
 7736SOL    HW230710   3.114   1.033   1.998 -0.1723 -0.2725 -1.9154
 7736SOL    HW330711   3.004   1.120   2.054  1.3914 -0.1902  1.2093
 7736SOL    MW430712   3.063   1.104   1.992  0.5560  0.0726  0.4497
 7737SOL     OW30713   2.822   5.464   0.616  0.5457 -0.3724  0.1866
 7737SOL    HW230714   2.910   5.480   0.581  0.4489 -1.0082 -0.3671
 7737SOL    HW330715   2.766   5.523   0.566  0.2630 -1.9919 -1.4813
 7737SOL    MW430716   2.826   5.474   0.605 -0.0905  0.2138 -0.0775
 7738SOL     OW30717   1.331   0.570   5.021  0.0651 -0.0457  0.0259
 7738SOL    HW230718   1.412   0.588   5.069 -0.6675 -0.6955  1.5754
 7738SOL    HW330719   1.345   0.607   4.934  2.0129 -0.1232  0.2755
 7738SOL    MW430720   1.343   0.577   5.016  0.4157 -0.2075  0.0327
 7739SOL     OW30721   3.695   3.902   4.343 -0.4907  0.0836  0.0001
 7739SOL    HW230722   3.693   3.820   4.392 -0.6480 -0.4795 -0.9398
 7739SOL    HW330723   3.633   3.889   4.271  1.6678 -0.1151 -1.9355
 7739SOL    MW430724   3.687   3.889   4.340  0.5233 -1.0942 -0.0895
 7740SOL     OW30725   4.598   0.142   4.656 -0.5716  0.0481 -0.0708
 7740SOL    HW230726   4.658   0.096   4.598 -2.7669 -0.2583 -2.2509
 7740SOL    HW330727   4.540   0.190   4.598 -2.1042  0.7929  1.9494
 7740SOL    MW430728   4.598   0.142   4.641 -0.1736  0.4952  0.2930
 7741SOL     OW30729   0.090   2.713   5.741 -0.5022  0.6494 -0.3402
 7741SOL    HW230730   0.184   2.696   5.739 -0.7198 -0.7566  0.1189
 7741SOL    HW330731   0.070   2.753   5.657  0.6388  1.7315 -0.1086
 7741SOL    MW430732   0.099   2.716   5.730 -0.0710 -0.4197 -0.5396
 7742SOL     OW30733   6.052   0.799   1.118  0.2631 -0.0389 -0.1224
 7742SOL    HW230734   6.142   0.793   1.149 -0.2002 -0.6539  1.1735
 7742SOL    HW330735   6.056   0.862   1.045  1.9730 -1.1824 -1.0943
 7742SOL    MW430736   6.065   0.807   1.112 -0.0635 -1.0658 -0.6227
 7743SOL     OW30737   0.716   4.086   0.406  0.4811 -0.1795  0.3004
 7743SOL    HW230738   0.811   4.092   0.394  0.4949  0.5190  0.7616
 7743SOL    HW330739   0.704   4.010   0.464  0.8124  0.1855  0.8576
 7743SOL    MW430740   0.727   4.076   0.412 -0.1242  0.3968 -0.1996
 7744SOL     OW30741   6.116   0.992   4.198 -0.0987  0.7530 -0.3254
 7744SOL    HW230742   6.111   0.926   4.129 -1.0869 -0.3338  0.7330
 7744SOL    HW330743   6.027   1.028   4.202  0.0897  1.1800  0.0240
 7744SOL    MW430744   6.104   0.988   4.189 -0.2252  0.0585  0.4284
 7745SOL     OW30745   3.891   5.803   2.565 -0.2221 -0.2570 -0.0325
 7745SOL    HW230746   3.973   5.829   2.523  0.0094 -3.1008 -1.5939
 7745SOL    HW330747   3.916   5.773   2.652  0.6908 -2.2971 -0.9338
 7745SOL    MW430748   3.905   5.803   2.571 -0.7815  0.3892  0.2648
 7746SOL     OW30749   5.552   3.456   3.218  0.5742  0.7731 -0.1461
 7746SOL    HW230750   5.527   3.396   3.288 -1.6905  1.5690 -0.2066
 7746SOL    HW330751   5.549   3.403   3.139  0.9272  0.4051  0.0833
 7746SOL    MW430752   5.548   3.441   3.217 -0.5391  0.3714  0.5910
 7747SOL     OW30753   4.733   5.381   5.649 -0.1325  0.2125  0.4172
 7747SOL    HW230754   4.654   5.431   5.670 -0.4828 -0.6111  1.1884
 7747SOL    HW330755   4.799   5.413   5.711 -0.4147 -0.3933  1.0493
 7747SOL    MW430756   4.731   5.392   5.660  0.1529  0.0751 -0.3273
 7748SOL     OW30757   2.274   5.569   3.189  0.1830 -0.2056 -0.6214
 7748SOL    HW230758   2.215   5.516   3.244  1.7889 -0.8994  0.5161
 7748SOL    HW330759   2.354   5.517   3.183  1.1347  1.2624 -1.0846
 7748SOL    MW430760   2.277   5.555   3.196  0.0197  0.2576 -0.5517
 7749SOL     OW30761   0.519   1.061   1.582  0.2013  0.3772 -0.1746
 7749SOL    HW230762   0.468   1.141   1.571  0.4854  0.5890  0.0233
 7749SOL    HW330763   0.526   1.025   1.494 -0.8292  0.0027 -0.1091
 7749SOL    MW430764   0.513   1.067   1.569 -0.4144 -0.5597 -0.3521
 7750SOL     OW30765   3.511   0.897   2.390  1.1928  0.8787  0.2778
 7750SOL    HW230766   3.471   0.851   2.464 -1.1074  0.2529 -1.2471
 7750SOL    HW330767   3.560   0.829   2.344 -2.2437 -0.2938 -2.0018
 7750SOL    MW430768   3.512   0.882   2.394  0.0749  0.2808 -0.3997
 7751SOL     OW30769   5.617   5.330   2.829 -0.3417 -0.3869  0.5149
 7751SOL    HW230770   5.650   5.243   2.806  2.2018  0.2771  1.3244
 7751SOL    HW330771   5.567   5.316   2.910  1.2748 -0.9327  1.4679
 7751SOL    MW430772   5.615   5.316   2.837 -0.2797  0.0760 -0.4098
 7752SOL     OW30773   5.785   1.089   2.606 -0.2643 -0.0993 -0.0293
 7752SOL    HW230774   5.745   1.111   2.522  0.7232 -0.9898 -0.7663
 7752SOL    HW330775   5.847   1.018   2.585  0.4064  0.0466  1.3522
 7752SOL    MW430776   5.788   1.082   2.592  0.0731 -0.0340  0.1722
 7753SOL     OW30777   0.734   0.272   2.859  0.2806 -0.2137 -0.2909
 7753SOL    HW230778   0.715   0.340   2.924  0.6434 -0.0177 -0.3923
 7753SOL    HW330779   0.812   0.228   2.892  0.8707  0.3306 -0.9405
 7753SOL    MW430780   0.742   0.275   2.872 -0.1576 -0.4200 -0.1173
 7754SOL     OW30781   1.364   1.863   6.088  0.5721  0.1864 -0.0395
 7754SOL    HW230782   1.451   1.903   6.084  0.1125  1.4506  1.3937
 7754SOL    HW330783   1.324   1.885   6.004  1.9200 -1.1919 -1.0896
 7754SOL    MW430784   1.370   1.871   6.076  0.2264 -0.2686  0.1740
 7755SOL     OW30785   2.427   5.172   1.275 -0.6210 -0.1144 -0.3416
 7755SOL    HW230786   2.382   5.197   1.356  0.5127  0.8813  0.0112
 7755SOL    HW330787   2.514   5.145   1.303  0.1869  1.3364 -1.2888
 7755SOL    MW430788   2.433   5.172   1.290 -0.2038 -0.1363  0.8466
 7756SOL     OW30789   5.570   4.311   2.128 -0.0078  0.5382  0.7051
 7756SOL    HW230790   5.643   4.347   2.180  0.0432  1.1536  0.2236
 7756SOL    HW330791   5.560   4.373   2.056 -1.1687  0.5827  0.8910
 7756SOL    MW430792   5.579   4.324   2.126  0.6561 -0.1877 -0.2746
 7757SOL     OW30793   1.627   1.739   3.988  0.2651  0.6280 -0.4002
 7757SOL    HW230794   1.661   1.823   3.958  0.5704  1.3712  1.8399
 7757SOL    HW330795   1.557   1.762   4.049  0.0521 -0.7586 -0.0919
 7757SOL    MW430796   1.623   1.753   3.992 -0.6809 -0.0681 -0.3594
 7758SOL     OW30797   3.663   0.386   4.379  0.2901 -1.0580 -0.4240
 7758SOL    HW230798   3.681   0.391   4.473  0.1147 -3.6646 -0.1879
 7758SOL    HW330799   3.600   0.456   4.363 -0.1320 -0.9311  1.5090
 7758SOL    MW430800   3.657   0.396   4.390  0.2387  0.5212 -0.1262
 7759SOL     OW30801   2.106   4.471   0.895 -0.3387 -0.6448 -0.4694
 7759SOL    HW230802   2.093   4.559   0.932  2.0583 -0.6655  0.6198
 7759SOL    HW330803   2.035   4.419   0.933 -0.0313  0.1616  1.3455
 7759SOL    MW430804   2.095   4.476   0.905  0.4847 -0.0073  0.2600
 7760SOL     OW30805   4.533   1.613   0.175 -0.2368 -0.0327 -0.1626
 7760SOL    HW230806   4.515   1.635   0.084 -0.9854 -1.1688 -0.3141
 7760SOL    HW330807   4.626   1.589   0.175  0.0634  1.0801 -0.3792
 7760SOL    MW430808   4.543   1.612   0.163 -0.5464 -0.3202  0.4033
 7761SOL     OW30809   1.756   2.808   6.230  0.4222 -0.1513  0.0084
 7761SOL    HW230810   1.726   2.820   6.140  2.1994 -0.9471 -0.7441
 7761SOL    HW330811   1.685   2.761   6.273 -0.8192  0.9831 -0.7109
 7761SOL    MW430812   1.743   2.804   6.224  0.0285  0.2633 -0.8691
 7762SOL     OW30813   0.043   3.297   5.616 -0.0324 -0.0513 -0.0313
 7762SOL    HW230814   0.111   3.335   5.560 -0.4699 -0.7930 -1.0946
 7762SOL    HW330815  -0.022   3.367   5.624  0.0036  0.0465 -0.5249
 7762SOL    MW430816   0.043   3.312   5.609 -0.1210  0.1144 -0.1942
 7763SOL     OW30817   5.756   0.566   0.079 -0.5207 -0.1695 -0.5196
 7763SOL    HW230818   5.682   0.625   0.060  0.9510  1.2290 -2.2967
 7763SOL    HW330819   5.719   0.478   0.068 -2.4330  0.3992  0.8095
 7763SOL    MW430820   5.741   0.562   0.075 -0.2524 -0.7027  0.0703
 7764SOL     OW30821   1.269   5.002   4.926  0.2637  0.2967  0.4070
 7764SOL    HW230822   1.217   4.938   4.975 -0.8498  1.4684  0.8265
 7764SOL    HW330823   1.274   4.967   4.837  0.0233 -0.5615  0.7293
 7764SOL    MW430824   1.263   4.989   4.921 -0.1115  0.6535  0.3228
 7765SOL     OW30825   2.258   1.258   2.676 -0.6382  0.0291 -0.2146
 7765SOL    HW230826   2.208   1.178   2.692 -0.6440  0.1130  0.1940
 7765SOL    HW330827   2.337   1.227   2.632  0.2769 -0.4552  1.6589
 7765SOL    MW430828   2.262   1.243   2.672  0.2707 -0.1719 -0.0777
 7766SOL     OW30829   1.655   5.742   2.387  0.1874 -0.0945 -0.5060
 7766SOL    HW230830   1.635   5.679   2.457  1.4427 -0.4617 -0.4433
 7766SOL    HW330831   1.570   5.762   2.348 -0.5044 -0.1472  0.8941
 7766SOL    MW430832   1.641   5.736   2.391 -0.3745  0.1626 -0.7178
 7767SOL     OW30833   5.000   3.941   2.225 -0.2542  0.2998  0.2896
 7767SOL    HW230834   5.066   3.872   2.212 -1.6064 -1.2264  1.1586
 7767SOL    HW330835   5.006   3.962   2.318 -1.3790 -0.3031  0.5127
 7767SOL    MW430836   5.010   3.934   2.235  0.3779  0.3535  0.1589
 7768SOL     OW30837   0.630   0.612   0.871 -0.1706  0.8604  0.0614
 7768SOL    HW230838   0.553   0.621   0.927  1.3553  1.7801  2.1396
 7768SOL    HW330839   0.622   0.525   0.833 -0.2090 -0.8133  3.5038
 7768SOL    MW430840   0.618   0.602   0.873 -0.0548 -0.6176 -0.1634
 7769SOL     OW30841   5.984   3.573   3.183  0.1390  0.1748 -0.0062
 7769SOL    HW230842   5.948   3.500   3.133  1.8600 -1.5285  1.1064
 7769SOL    HW330843   5.931   3.576   3.263 -0.3487  0.5923 -0.3392
 7769SOL    MW430844   5.972   3.564   3.187  0.4112  0.0391 -0.1065
 7770SOL     OW30845   0.460   6.079   0.093  0.0328 -0.3760 -0.3880
 7770SOL    HW230846   0.428   6.110   0.008  0.6788 -1.3410 -0.9990
 7770SOL    HW330847   0.384   6.038   0.134 -0.4868  0.7760 -0.1387
 7770SOL    MW430848   0.446   6.078   0.088 -0.0320 -0.0071  0.2441
 7771SOL     OW30849   1.286   3.163   1.451 -0.8642 -0.5426  0.1039
 7771SOL    HW230850   1.272   3.131   1.361 -1.0479 -1.7429  0.5402
 7771SOL    HW330851   1.311   3.255   1.440 -2.6988 -0.1261 -1.0720
 7771SOL    MW430852   1.287   3.171   1.437 -0.1591 -0.4104 -0.2833
 7772SOL     OW30853   4.991   5.228   3.070 -0.1290 -0.0950  0.3240
 7772SOL    HW230854   4.898   5.208   3.067 -0.0634 -0.4245 -2.6378
 7772SOL    HW330855   5.009   5.271   2.986  2.5823 -1.0359  0.3227
 7772SOL    MW430856   4.981   5.231   3.059 -0.3428  0.3079 -0.3065
 7773SOL     OW30857   4.700   5.562   3.912  0.2597 -0.1277  0.0170
 7773SOL    HW230858   4.676   5.470   3.920 -1.9773  0.3944 -0.1770
 7773SOL    HW330859   4.617   5.608   3.903  1.3724  1.8539 -0.6491
 7773SOL    MW430860   4.686   5.556   3.912  0.8003 -0.3416 -0.3342
 7774SOL     OW30861   5.404   6.061   6.325  0.3799 -0.6366 -0.0949
 7774SOL    HW230862   5.383   5.996   6.258 -0.5992 -0.7489  0.3053
 7774SOL    HW330863   5.365   6.027   6.405 -0.4697  0.5989  0.0460
 7774SOL    MW430864   5.396   6.048   6.327  0.2948 -0.8112 -0.5260
 7775SOL     OW30865   0.302   3.012   2.203  0.1218  0.0655 -0.3799
 7775SOL    HW230866   0.343   2.949   2.262 -0.7809 -0.2583 -0.0792
 7775SOL    HW330867   0.344   3.096   2.224  1.4636 -0.4353 -0.9106
 7775SOL    MW430868   0.313   3.015   2.213  0.2001  0.4016  0.3084
 7776SOL     OW30869   0.396   0.213   2.107 -0.4000  0.1016  0.0506
 7776SOL    HW230870   0.315   0.253   2.076 -0.2792  1.2885  1.1926
 7776SOL    HW330871   0.459   0.230   2.037 -0.7949  0.3588 -0.2496
 7776SOL    MW430872   0.394   0.221   2.093 -0.3159 -0.2404 -0.2117
 7777SOL     OW30873   1.056   2.664   0.059  0.0460 -0.2230  0.6535
 7777SOL    HW230874   1.098   2.723  -0.004 -0.8501  0.5655  0.7767
 7777SOL    HW330875   1.073   2.576   0.024  0.6114  0.1440 -0.0273
 7777SOL    MW430876   1.064   2.660   0.046 -0.1208  0.2622 -0.2801
 7778SOL     OW30877   6.368   0.856   1.206  0.2541 -0.2803 -0.1751
 7778SOL    HW230878   6.415   0.908   1.272  0.8421 -0.1456 -0.6916
 7778SOL    HW330879   6.434   0.796   1.171  0.4033  0.7702 -1.8231
 7778SOL    MW430880   6.383   0.855   1.210 -0.0511 -0.1236 -0.5983
 7779SOL     OW30881   4.648   0.530   0.190 -0.1934 -0.0092 -0.3580
 7779SOL    HW230882   4.718   0.471   0.162 -0.9842 -0.5019 -1.3712
 7779SOL    HW330883   4.663   0.611   0.140  1.0550  0.7960  1.2380
 7779SOL    MW430884   4.659   0.533   0.180 -0.9215 -0.0117  0.2796
 7780SOL     OW30885   4.398   6.406   4.754 -0.1021 -0.7404  0.0476
 7780SOL    HW230886   4.409   6.394   4.848 -0.7293 -0.9234  0.1015
 7780SOL    HW330887   4.472   6.460   4.728  0.0448 -0.6437  0.6582
 7780SOL    MW430888   4.409   6.412   4.763  0.4548 -0.1978  0.0205
 7781SOL     OW30889   6.031   5.515   2.013  0.5475  0.3287 -0.2340
 7781SOL    HW230890   6.087   5.569   2.070 -0.9424 -0.3695  2.0405
 7781SOL    HW330891   5.983   5.579   1.960  0.8202  1.1253  0.4458
 7781SOL    MW430892   6.032   5.531   2.014  0.2435 -0.1566 -0.1059
 7782SOL     OW30893   4.283   1.580   5.001 -0.1567 -0.1029 -0.2642
 7782SOL    HW230894   4.271   1.503   4.944  2.5466 -0.7404 -0.1155
 7782SOL    HW330895   4.230   1.561   5.078  0.2995 -1.7956 -0.3177
 7782SOL    MW430896   4.275   1.567   5.004 -0.2587  0.0917  0.2289
 7783SOL     OW30897   2.156   5.439   4.932  0.1710 -0.5096  0.9513
 7783SOL    HW230898   2.066   5.463   4.914  0.8183  0.8529 -0.7286
 7783SOL    HW330899   2.175   5.479   5.017 -0.6861 -0.5166  1.1553
 7783SOL    MW430900   2.147   5.447   4.941  0.8702 -0.4943 -0.4713
 7784SOL     OW30901   4.906   1.924   4.125  0.3861  0.2157  0.4598
 7784SOL    HW230902   4.841   1.943   4.058  0.8810 -0.4036 -0.2179
 7784SOL    HW330903   4.916   2.006   4.174 -1.6100  0.0546  1.2245
 7784SOL    MW430904   4.899   1.937   4.123 -0.9020 -0.1416  0.2502
 7785SOL     OW30905   0.879   5.438   0.542  0.3287 -0.2157  0.0399
 7785SOL    HW230906   0.837   5.521   0.565 -0.0619 -0.1877 -0.7416
 7785SOL    HW330907   0.973   5.455   0.552  0.1868 -0.2375  1.6604
 7785SOL    MW430908   0.886   5.451   0.546 -0.0362  0.3083  0.4585
 7786SOL     OW30909   1.093   4.254   3.261  0.0668  0.3879 -0.2875
 7786SOL    HW230910   1.185   4.266   3.284  0.4012  0.6864 -1.7232
 7786SOL    HW330911   1.052   4.339   3.278 -0.4279 -0.2550  2.2582
 7786SOL    MW430912   1.099   4.267   3.267 -0.1020 -0.1244 -0.2132
 7787SOL     OW30913   2.764   4.892   4.209  0.3826  0.0775 -0.1717
 7787SOL    HW230914   2.694   4.860   4.154 -2.2788  3.0952  1.1317
 7787SOL    HW330915   2.828   4.929   4.148 -1.7341  1.9606 -1.4070
 7787SOL    MW430916   2.764   4.893   4.194  0.3322  0.3094 -0.2149
 7788SOL     OW30917   3.860   2.319   0.286  0.0795 -0.0730  0.1949
 7788SOL    HW230918   3.856   2.404   0.241  0.6785 -0.0735  0.1414
 7788SOL    HW330919   3.890   2.258   0.220  0.4092 -0.1801  0.4386
 7788SOL    MW430920   3.863   2.322   0.272  0.0183 -0.1451 -0.8921
 7789SOL     OW30921   2.411   5.817   2.349  0.1912  0.0191 -0.1924
 7789SOL    HW230922   2.354   5.894   2.358  0.6045  0.3771 -0.5713
 7789SOL    HW330923   2.355   5.750   2.311 -0.3945 -0.1279  0.9115
 7789SOL    MW430924   2.396   5.819   2.345  0.1675 -0.1352  0.5839
 7790SOL     OW30925   4.948   3.252   3.665 -0.2078 -0.0971  0.4635
 7790SOL    HW230926   4.949   3.186   3.595  1.1345 -0.5307  0.8723
 7790SOL    HW330927   4.948   3.201   3.746  0.4595  0.3955  0.7853
 7790SOL    MW430928   4.948   3.236   3.666 -0.8554 -0.1939 -0.0584
 7791SOL     OW30929   1.689   6.116   2.039  0.0984  0.5278  0.2733
 7791SOL    HW230930   1.709   6.108   2.132  0.7122 -0.9975  0.0283
 7791SOL    HW330931   1.593   6.122   2.035 -0.2125 -2.5305  0.8693
 7791SOL    MW430932   1.679   6.116   2.050  0.0199 -0.3189  0.1038
 7792SOL     OW30933   2.573   5.396   3.601  0.0883  0.2910 -0.1184
 7792SOL    HW230934   2.498   5.455   3.598  0.2507  0.4517 -2.3491
 7792SOL    HW330935   2.538   5.312   3.571  0.2677 -0.3257  1.3114
 7792SOL    MW430936   2.558   5.392   3.597  0.0628  0.4492  0.3909
 7793SOL     OW30937   4.418   1.284   1.258  0.1427  0.2914  0.4798
 7793SOL    HW230938   4.332   1.285   1.301 -0.8417 -1.8881 -1.2174
 7793SOL    HW330939   4.464   1.212   1.299  0.8973  0.9600  0.8328
 7793SOL    MW430940   4.412   1.275   1.269 -0.0202 -0.5296 -0.2838
 7794SOL     OW30941   0.210   5.229   6.231  0.5112 -0.1193 -0.5144
 7794SOL    HW230942   0.286   5.282   6.208  0.6835 -1.3001 -2.9737
 7794SOL    HW330943   0.223   5.147   6.183 -1.3795 -1.0902  0.5325
 7794SOL    MW430944   0.222   5.225   6.222 -0.1317 -0.2487  0.2840
 7795SOL     OW30945   0.802   0.776   2.954  0.1550  0.1727 -0.2394
 7795SOL    HW230946   0.784   0.869   2.941  1.5442  0.3702 -0.9003
 7795SOL    HW330947   0.825   0.769   3.047  2.0060  0.8832 -0.5912
 7795SOL    MW430948   0.803   0.787   2.965 -0.2762  0.4155  0.0607
 7796SOL     OW30949   0.538   0.295   0.073 -0.3179 -0.6164  0.3655
 7796SOL    HW230950   0.554   0.366   0.135  0.5760 -0.5159  0.0353
 7796SOL    HW330951   0.449   0.309   0.042 -0.4332 -0.1179  0.9179
 7796SOL    MW430952   0.529   0.306   0.077  0.0893 -0.2155 -0.0217
 7797SOL     OW30953   4.754   5.280   5.223  0.0485  0.4767 -0.0207
 7797SOL    HW230954   4.797   5.343   5.281  0.0261  0.0855  0.4335
 7797SOL    HW330955   4.661   5.292   5.239 -0.0228  1.2515 -0.9274
 7797SOL    MW430956   4.748   5.290   5.233  0.3142 -0.3441  0.4676
 7798SOL     OW30957   2.711   0.962   2.038  0.0968  0.5783  0.2380
 7798SOL    HW230958   2.757   0.959   1.954  1.4086  0.7500  0.9147
 7798SOL    HW330959   2.669   1.048   2.039  0.2148  0.6413 -0.1749
 7798SOL    MW430960   2.712   0.973   2.027  0.0804 -0.5833 -0.1991
 7799SOL     OW30961   1.004   4.278   3.693  0.1444 -0.4529 -0.3445
 7799SOL    HW230962   0.922   4.283   3.643 -0.1512  1.4512  0.2212
 7799SOL    HW330963   1.063   4.225   3.639 -1.0322 -0.7385 -1.3911
 7799SOL    MW430964   1.001   4.272   3.679  0.3283 -0.8275 -0.1400
 7800SOL     OW30965   1.943   2.959   5.966  0.0121  0.5636  0.2774
 7800SOL    HW230966   2.015   2.916   6.011 -1.3406 -1.2703  0.8556
 7800SOL    HW330967   1.982   2.999   5.889  1.5565 -0.9854  0.1909
 7800SOL    MW430968   1.957   2.958   5.962  0.2901 -0.4035  0.0795
 7801SOL     OW30969   5.139   2.310   2.549 -0.2278  0.3716 -0.2053
 7801SOL    HW230970   5.211   2.346   2.601 -1.0348  1.5498  0.1359
 7801SOL    HW330971   5.060   2.344   2.591 -0.9391  0.1766 -1.3500
 7801SOL    MW430972   5.138   2.319   2.561 -0.3216  0.0517  0.3971
 7802SOL     OW30973   2.469   3.571   0.322 -0.0143  0.7382 -0.1608
 7802SOL    HW230974   2.474   3.615   0.406 -0.3285 -0.8859  0.7505
 7802SOL    HW330975   2.440   3.482   0.343  2.0349 -0.3936 -1.7221
 7802SOL    MW430976   2.466   3.565   0.335  0.4035 -0.8801  1.1713
 7803SOL     OW30977   3.553   5.196   1.843  0.2788  0.5036 -0.3722
 7803SOL    HW230978   3.518   5.263   1.901 -2.0485 -0.9089 -0.0146
 7803SOL    HW330979   3.635   5.169   1.884  1.1540  2.8749 -0.3979
 7803SOL    MW430980   3.559   5.201   1.856  0.1081  0.2787 -0.1738
 7804SOL     OW30981   0.949   5.032   2.346 -0.3884 -0.5278 -0.1986
 7804SOL    HW230982   0.855   5.035   2.366 -0.6178 -1.6171 -1.0638
 7804SOL    HW330983   0.986   5.104   2.398 -1.6805 -0.1310  0.2186
 7804SOL    MW430984   0.941   5.042   2.356  0.0160  0.0666 -0.3755
 7805SOL     OW30985   3.121   1.300   1.543 -0.0354 -0.3225  0.2853
 7805SOL    HW230986   3.136   1.302   1.637  0.9355 -2.2313  0.2196
 7805SOL    HW330987   3.123   1.392   1.516 -0.4375  0.2610  2.1172
 7805SOL    MW430988   3.123   1.313   1.552  0.2125 -0.2752  0.0277
 7806SOL     OW30989   1.157   3.204   6.033  0.1157  0.1858 -0.3418
 7806SOL    HW230990   1.168   3.298   6.018  0.6963  0.0282 -0.9257
 7806SOL    HW330991   1.185   3.163   5.951  0.6470 -0.5432  0.1930
 7806SOL    MW430992   1.162   3.211   6.020 -0.2007  0.3546 -0.0061
 7807SOL     OW30993   5.459   0.833   4.288  0.2543 -0.0961 -0.5510
 7807SOL    HW230994   5.554   0.822   4.290  0.1510 -1.3729 -1.5115
 7807SOL    HW330995   5.444   0.909   4.233  0.7342  0.6822  0.3562
 7807SOL    MW430996   5.470   0.841   4.281 -0.8855 -0.0923  0.4719
 7808SOL     OW30997   4.433   5.940   3.630 -0.5064 -0.4012  0.0688
 7808SOL    HW230998   4.445   5.869   3.693  1.7878 -0.3747 -0.2749
 7808SOL    HW330999   4.517   5.985   3.627 -1.2631  1.0342 -1.3068
 7808SOL    MW431000   4.446   5.936   3.638  0.0570  0.0260 -0.2136
 7809SOL     OW31001   2.105   3.945   5.442  0.5147  0.4240 -0.0515
 7809SOL    HW231002   2.152   3.928   5.361  0.1450  1.0949 -0.4147
 7809SOL    HW331003   2.150   4.021   5.480 -0.8423  1.7025 -0.8904
 7809SOL    MW431004   2.117   3.953   5.437 -0.0204 -0.0071  0.1773
 7810SOL     OW31005   2.224   3.472   1.936  0.6103 -0.3733  0.4981
 7810SOL    HW231006   2.288   3.401   1.935  0.1692 -0.7735 -0.4315
 7810SOL    HW331007   2.191   3.477   1.846  0.3818  0.7856  0.6231
 7810SOL    MW431008   2.228   3.463   1.924 -0.4043  0.3344  0.1297
 7811SOL     OW31009   6.408   0.313   1.421  0.4027  0.1580 -0.0709
 7811SOL    HW231010   6.327   0.280   1.384 -0.7313  1.5714  1.0299
 7811SOL    HW331011   6.456   0.349   1.347 -0.7326  0.7690 -0.5229
 7811SOL    MW431012   6.404   0.314   1.407  0.3836 -0.4356 -0.2578
 7812SOL     OW31013   6.222   2.811   3.756  0.3226  0.4050  0.1559
 7812SOL    HW231014   6.220   2.745   3.826 -0.6963  0.1393 -0.1046
 7812SOL    HW331015   6.145   2.866   3.773  0.8207  1.1633  0.0144
 7812SOL    MW431016   6.212   2.810   3.768 -0.0439 -0.1285  0.2649
 7813SOL     OW31017   6.413   3.313   0.233  0.7033  0.4828 -0.3669
 7813SOL    HW231018   6.408   3.406   0.251  1.1478  0.5189 -0.4100
 7813SOL    HW331019   6.329   3.292   0.191  1.4520  1.3473 -2.4690
 7813SOL    MW431020   6.401   3.322   0.230  0.4402 -0.1667  0.6004
 7814SOL     OW31021   1.868   5.119   5.916  0.4945  0.7478  0.3446
 7814SOL    HW231022   1.903   5.082   5.997  2.0536  1.0419 -0.1581
 7814SOL    HW331023   1.891   5.056   5.848 -0.5930  0.6167  0.0697
 7814SOL    MW431024   1.875   5.106   5.917 -0.4957  0.5938 -0.0388
 7815SOL     OW31025   0.740   5.928   3.233  0.2468  0.0532  0.1872
 7815SOL    HW231026   0.654   5.959   3.262  0.3126  1.2755 -0.8311
 7815SOL    HW331027   0.759   5.853   3.289 -0.7885  0.7176  1.4741
 7815SOL    MW431028   0.731   5.922   3.244  0.1641 -0.2744  0.1655
 7816SOL     OW31029   5.587   5.383   3.373  0.1880  0.5397  0.2860
 7816SOL    HW231030   5.510   5.414   3.325 -0.0173  0.0809  0.3148
 7816SOL    HW331031   5.567   5.400   3.465  0.1298  0.4415  0.2917
 7816SOL    MW431032   5.574   5.389   3.379  0.1697  0.1444 -0.4188
 7817SOL     OW31033   0.911   5.911   3.523  0.0421  0.1158 -0.6880
 7817SOL    HW231034   0.997   5.880   3.548 -0.8984 -2.6440 -0.5713
 7817SOL    HW331035   0.925   6.002   3.496  3.0599 -0.4474 -1.3217
 7817SOL    MW431036   0.924   5.919   3.523  0.1980 -0.4667 -0.6121
 7818SOL     OW31037   1.807   0.089   3.479  0.1392 -0.0450 -0.2609
 7818SOL    HW231038   1.784   0.019   3.539 -1.1627 -0.3220 -1.0415
 7818SOL    HW331039   1.826   0.045   3.396 -1.9802  0.5308 -1.1396
 7818SOL    MW431040   1.806   0.074   3.476 -0.2056 -0.5971  0.0078
 7819SOL     OW31041   6.217   4.718   0.714  0.3282  0.0146  0.1169
 7819SOL    HW231042   6.197   4.733   0.807  0.4034 -0.5286  0.2250
 7819SOL    HW331043   6.308   4.745   0.704  0.4147 -0.2115  0.2741
 7819SOL    MW431044   6.226   4.724   0.725 -0.0788 -0.2178  0.2367
 7820SOL     OW31045   5.314   0.779   3.876 -0.4957  0.2644  0.0391
 7820SOL    HW231046   5.288   0.706   3.820 -1.2783 -0.3165  1.1404
 7820SOL    HW331047   5.340   0.738   3.958  3.1238  0.8584 -0.6264
 7820SOL    MW431048   5.314   0.764   3.879  0.3824  0.3264 -0.5613
 7821SOL     OW31049   3.516   2.192   3.765  0.4672  0.0871 -0.1197
 7821SOL    HW231050   3.494   2.214   3.855  1.4957  0.1299  0.1386
 7821SOL    HW331051   3.546   2.275   3.727  1.1050 -0.1593 -0.1600
 7821SOL    MW431052   3.517   2.206   3.772  0.2917  0.5864 -0.0913
 7822SOL     OW31053   3.601   3.584   4.000 -0.1240 -0.1515 -0.3640
 7822SOL    HW231054   3.617   3.602   4.093 -0.4968  0.5906 -0.4366
 7822SOL    HW331055   3.684   3.551   3.967  0.3593  0.6902 -0.0226
 7822SOL    MW431056   3.614   3.582   4.008  0.0279  0.3063  0.1536
 7823SOL     OW31057   5.971   1.393   0.602  0.2331 -0.0498  0.2199
 7823SOL    HW231058   5.953   1.487   0.600  0.8275  0.0680  0.1095
 7823SOL    HW331059   5.885   1.351   0.593 -0.1151  0.4754  1.0472
 7823SOL    MW431060   5.957   1.400   0.600 -0.7827 -0.6688  0.4700
 7824SOL     OW31061   5.442   0.866   0.252  0.1134 -0.5317  0.0988
 7824SOL    HW231062   5.415   0.956   0.239  1.6709  0.0582  0.7071
 7824SOL    HW331063   5.363   0.820   0.280 -0.7404  0.5809 -0.4375
 7824SOL    MW431064   5.428   0.872   0.254 -0.5625 -0.0779  0.0924
 7825SOL     OW31065   2.180   2.036   2.600  0.3341 -0.2277 -0.0488
 7825SOL    HW231066   2.187   2.119   2.647  1.3994  0.0897 -0.7198
 7825SOL    HW331067   2.150   2.060   2.513  1.2813 -0.4672 -0.4504
 7825SOL    MW431068   2.177   2.050   2.595  0.3471  0.6574  0.1447
 7826SOL     OW31069   3.178   4.065   4.380 -0.3092  0.2491  0.2328
 7826SOL    HW231070   3.239   4.097   4.312  0.1612 -1.0526  0.0153
 7826SOL    HW331071   3.232   4.061   4.459 -0.4904  0.4117  0.3649
 7826SOL    MW431072   3.193   4.069   4.381  0.2010  0.5196 -0.3698
 7827SOL     OW31073   2.780   1.323   2.944  0.1359  0.1091  0.0199
 7827SOL    HW231074   2.826   1.279   3.015 -0.8034  1.3035  1.4347
 7827SOL    HW331075   2.809   1.414   2.950  0.0449  0.2293 -1.1436
 7827SOL    MW431076   2.790   1.329   2.954 -0.0980  0.3179 -0.3739
 7828SOL     OW31077   1.713   5.670   5.540 -0.1547 -0.4738 -0.5388
 7828SOL    HW231078   1.660   5.609   5.488  1.6785 -1.1663 -1.6960
 7828SOL    HW331079   1.801   5.631   5.540  0.1568  0.0038  2.3096
 7828SOL    MW431080   1.718   5.657   5.533  0.3759  0.1582  0.3457
 7829SOL     OW31081   3.959   0.826   1.940  0.2088 -0.5152  0.1596
 7829SOL    HW231082   4.027   0.861   1.997  1.6435 -2.2713 -0.3639
 7829SOL    HW331083   3.995   0.834   1.852 -1.1453  0.3631 -0.3458
 7829SOL    MW431084   3.973   0.832   1.936 -0.2875 -0.1322 -0.4458
 7830SOL     OW31085   3.114   3.326   2.673 -0.2573 -0.0779 -0.1404
 7830SOL    HW231086   3.198   3.327   2.626  0.0442 -0.5742  0.3708
 7830SOL    HW331087   3.086   3.235   2.670  0.3662 -0.3799  1.6480
 7830SOL    MW431088   3.121   3.314   2.666  0.1309 -0.1074  0.1195
 7831SOL     OW31089   4.574   5.751   2.145  0.1941 -0.0068 -0.0071
 7831SOL    HW231090   4.590   5.738   2.052  0.3348 -0.0591  0.0232
 7831SOL    HW331091   4.588   5.845   2.159 -0.4039  0.1045 -0.1472
 7831SOL    MW431092   4.578   5.762   2.135  0.5263  0.1864  0.5159
 7832SOL     OW31093   3.667   5.984   3.793  0.2185  0.6416 -0.1085
 7832SOL    HW231094   3.580   5.944   3.795 -0.3219  1.6679 -1.7301
 7832SOL    HW331095   3.727   5.912   3.812 -0.9462 -0.1613  0.6410
 7832SOL    MW431096   3.664   5.969   3.796 -0.5282  0.0232 -0.4201
 7833SOL     OW31097   0.709   1.792   0.676  0.5684  0.1063  0.1033
 7833SOL    HW231098   0.666   1.740   0.744  0.1050  2.1768  1.4592
 7833SOL    HW331099   0.802   1.778   0.689  0.4438 -1.1118 -0.1822
 7833SOL    MW431100   0.715   1.783   0.686 -0.1264  0.2451  0.0485
 7834SOL     OW31101   4.886   0.220   5.769  0.5257  0.4638  0.5663
 7834SOL    HW231102   4.952   0.276   5.728  1.2404  0.2176  1.3505
 7834SOL    HW331103   4.903   0.133   5.734  0.1574  0.5295  0.2248
 7834SOL    MW431104   4.897   0.216   5.759  0.0648  0.5577  0.1466
 7835SOL     OW31105   3.873   0.211   0.197 -0.0466 -0.0207 -0.4622
 7835SOL    HW231106   3.782   0.239   0.191 -0.8863 -1.8637  1.9653
 7835SOL    HW331107   3.870   0.116   0.187  1.1903 -0.4469  2.2009
 7835SOL    MW431108   3.861   0.202   0.195  0.7415  0.7938 -0.0433
 7836SOL     OW31109   1.803   3.649   3.645 -0.3087 -0.0163 -0.0086
 7836SOL    HW231110   1.730   3.698   3.607 -0.7949 -0.0276  0.8787
 7836SOL    HW331111   1.821   3.692   3.728  1.0493  0.2938 -0.4306
 7836SOL    MW431112   1.796   3.661   3.651  0.1950  0.0976 -0.6276
 7837SOL     OW31113   2.921   3.857   3.146  0.4416 -0.2609  0.1368
 7837SOL    HW231114   2.840   3.880   3.192  0.4530 -1.5491  0.8699
 7837SOL    HW331115   2.904   3.769   3.111  1.2158 -0.1841 -0.4567
 7837SOL    MW431116   2.908   3.848   3.147 -0.4998  0.0350 -0.8953
 7838SOL     OW31117   0.833   0.974   2.570 -0.5789 -0.0271  0.2180
 7838SOL    HW231118   0.866   0.890   2.601 -1.0930 -0.2645  0.1329
 7838SOL    HW331119   0.746   0.981   2.608 -1.2890 -0.3898 -1.2620
 7838SOL    MW431120   0.826   0.964   2.579  0.3457 -0.5125 -0.0817
 7839SOL     OW31121   1.947   3.295   4.651 -0.0475  0.2101  0.1870
 7839SOL    HW231122   1.950   3.277   4.557  0.0102  3.1911 -0.4785
 7839SOL    HW331123   2.032   3.333   4.671  0.0249 -0.5997  1.5405
 7839SOL    MW431124   1.959   3.298   4.641  0.5580 -0.2366  0.1316
 7840SOL     OW31125   5.452   0.840   5.950 -0.9144  0.4787  0.0611
 7840SOL    HW231126   5.434   0.750   5.926  0.1182  0.4798 -0.7992
 7840SOL    HW331127   5.416   0.892   5.879 -1.0443  0.7183  0.2990
 7840SOL    MW431128   5.445   0.835   5.938  0.2985  0.0784 -0.8475
 7841SOL     OW31129   5.554   5.428   4.574  0.0128 -0.3231  0.0627
 7841SOL    HW231130   5.462   5.446   4.595  0.4180  1.9878  0.1309
 7841SOL    HW331131   5.550   5.379   4.491 -1.2979 -1.7713  0.9232
 7841SOL    MW431132   5.541   5.424   4.566  0.3764 -0.3573  0.1719
 7842SOL     OW31133   1.923   4.690   2.161  0.3260 -0.3157 -0.5242
 7842SOL    HW231134   1.881   4.644   2.233  0.1282  0.9778  0.1944
 7842SOL    HW331135   1.982   4.624   2.122  0.3767 -1.0497  0.7515
 7842SOL    MW431136   1.926   4.675   2.165  0.4053 -0.0695 -0.4388
 7843SOL     OW31137   4.240   1.028   2.677  0.1193 -0.5637 -0.2148
 7843SOL    HW231138   4.167   1.031   2.738  1.6342  0.3850  1.6679
 7843SOL    HW331139   4.232   1.108   2.625  0.5403  0.2569  0.9361
 7843SOL    MW431140   4.229   1.039   2.678 -0.4853 -0.0584  0.1406
 7844SOL     OW31141   1.408   4.152   0.396  0.1363 -0.1537  0.3672
 7844SOL    HW231142   1.491   4.192   0.421 -0.0644 -0.1956  1.1351
 7844SOL    HW331143   1.367   4.129   0.479 -0.5681 -0.2915 -0.0128
 7844SOL    MW431144   1.414   4.154   0.410  0.3390  0.6271 -0.3725
 7845SOL     OW31145   1.373   4.186   5.798  0.2442 -0.2397 -0.5650
 7845SOL    HW231146   1.427   4.151   5.727 -1.7832  0.8063 -2.7605
 7845SOL    HW331147   1.425   4.258   5.834  0.8915 -0.1420 -1.6690
 7845SOL    MW431148   1.387   4.191   5.794 -0.3047  0.2476 -0.1948
 7846SOL     OW31149   3.600   6.359   1.655 -0.1126 -0.1098 -0.0472
 7846SOL    HW231150   3.621   6.328   1.743  0.3363 -0.5457 -0.3063
 7846SOL    HW331151   3.588   6.454   1.666  3.2107  0.4098 -0.0674
 7846SOL    MW431152   3.601   6.368   1.668  0.1307 -0.2652 -0.5492
 7847SOL     OW31153   4.599   2.330   4.181 -0.0626 -0.3728  0.7978
 7847SOL    HW231154   4.640   2.413   4.202  0.9918 -1.1212  1.8261
 7847SOL    HW331155   4.573   2.293   4.266 -1.4509 -0.6491  0.2939
 7847SOL    MW431156   4.601   2.336   4.195 -0.5292  0.2424 -0.1677
 7848SOL     OW31157   4.558   1.055   0.508  0.6003 -0.1391 -0.1991
 7848SOL    HW231158   4.512   1.131   0.473  2.4534  2.0535  1.7871
 7848SOL    HW331159   4.503   1.024   0.580 -0.0619 -0.6126 -0.8899
 7848SOL    MW431160   4.545   1.061   0.513  0.0777  0.5624 -0.2105
 7849SOL     OW31161   4.750   3.658   2.548 -0.6915 -0.0476 -0.3278
 7849SOL    HW231162   4.759   3.732   2.488 -0.7296  0.8269  0.6976
 7849SOL    HW331163   4.662   3.624   2.531  0.6969 -2.4182 -3.5513
 7849SOL    MW431164   4.740   3.664   2.538  0.4912  0.0266 -0.3665
 7850SOL     OW31165   2.420   4.011   2.811  0.4702  0.4363 -0.2083
 7850SOL    HW231166   2.393   3.926   2.776 -0.7555  0.8246 -0.2599
 7850SOL    HW331167   2.339   4.061   2.816  1.4632  2.5324 -2.6616
 7850SOL    MW431168   2.406   4.006   2.807 -0.1016  0.1427 -0.0465
 7851SOL     OW31169   4.468   4.894   3.490 -0.1112  0.8438  0.3550
 7851SOL    HW231170   4.540   4.832   3.487 -0.1612  0.8095 -0.2415
 7851SOL    HW331171   4.422   4.882   3.406 -0.5515  1.1663  0.5436
 7851SOL    MW431172   4.471   4.884   3.478  0.5924 -0.0690 -0.0600
 7852SOL     OW31173   4.521   1.022   5.380  0.3606  0.2738 -0.3945
 7852SOL    HW231174   4.604   1.067   5.363 -0.4439  2.2012  0.4703
 7852SOL    HW331175   4.457   1.068   5.327 -0.4774  0.0860  0.4197
 7852SOL    MW431176   4.524   1.034   5.371 -0.8111  0.0350  0.2418
 7853SOL     OW31177   3.686   4.055   5.791 -0.7676 -0.2621 -0.1498
 7853SOL    HW231178   3.669   4.146   5.767  0.0569 -0.2189 -0.6157
 7853SOL    HW331179   3.711   4.013   5.708 -2.3729 -1.2258 -0.1777
 7853SOL    MW431180   3.687   4.061   5.777 -0.5613  0.1957  0.5113
 7854SOL     OW31181   2.253   1.229   5.027  0.4333 -0.3398 -0.6584
 7854SOL    HW231182   2.227   1.141   5.053 -2.2633  0.3038 -0.8842
 7854SOL    HW331183   2.196   1.287   5.078  0.7105  1.1933 -2.0062
 7854SOL    MW431184   2.242   1.225   5.037 -0.3245 -0.6753  0.0427
 7855SOL     OW31185   6.381   1.531   5.470 -0.5257  0.3410  0.1194
 7855SOL    HW231186   6.446   1.586   5.428 -0.3635 -0.8946 -1.3070
 7855SOL    HW331187   6.361   1.576   5.553  1.6115  1.0910  0.2723
 7855SOL    MW431188   6.387   1.544   5.476 -0.2971  0.2377  0.1865
 7856SOL     OW31189   0.284   3.355   0.284  0.1938 -0.2384 -0.0473
 7856SOL    HW231190   0.228   3.415   0.334  0.9756 -1.0090  1.8682
 7856SOL    HW331191   0.223   3.303   0.232 -0.5763  1.3419 -0.8125
 7856SOL    MW431192   0.268   3.356   0.284 -0.0199 -0.5291  0.6233
 7857SOL     OW31193   6.295   6.299   2.506  0.1227 -0.3874 -0.3079
 7857SOL    HW231194   6.375   6.345   2.484  0.4432 -0.5346  0.5141
 7857SOL    HW331195   6.312   6.261   2.593 -0.3449 -1.5340 -0.6917
 7857SOL    MW431196   6.308   6.300   2.515  0.0462 -0.6357  0.5246
 7858SOL     OW31197   6.272   2.654   4.369  0.2633  0.3597 -0.3484
 7858SOL    HW231198   6.192   2.653   4.422  0.7756 -0.8083  0.4612
 7858SOL    HW331199   6.337   2.698   4.424  0.6788 -0.4505 -0.1737
 7858SOL    MW431200   6.270   2.659   4.383  0.0517 -0.3072 -0.8508
 7859SOL     OW31201   4.215   2.486   3.105  0.6216  0.0987  0.3879
 7859SOL    HW231202   4.273   2.539   3.159  0.9886  1.6353 -1.4281
 7859SOL    HW331203   4.186   2.544   3.035 -1.8430 -1.0883  0.2958
 7859SOL    MW431204   4.219   2.501   3.103 -0.0900  0.5137  0.3810
 7860SOL     OW31205   1.052   5.151   4.919 -0.2924  0.0616 -0.1440
 7860SOL    HW231206   1.013   5.082   4.865  0.7331 -0.7755  0.1572
 7860SOL    HW331207   1.143   5.124   4.930 -0.2828  0.6297  1.3453
 7860SOL    MW431208   1.059   5.138   4.914 -0.1504 -0.1930  0.2124
 7861SOL     OW31209   6.437   4.155   2.246  0.0012  0.2284 -0.5202
 7861SOL    HW231210   6.429   4.077   2.301  1.3868  1.2249  1.1751
 7861SOL    HW331211   6.465   4.224   2.305 -0.8124  1.9719 -2.0503
 7861SOL    MW431212   6.439   4.154   2.261  0.4045 -0.6217 -0.4999
 7862SOL     OW31213   5.109   5.265   0.920  0.2008  0.0008  0.1885
 7862SOL    HW231214   5.087   5.299   0.833  2.5736 -0.8539 -0.8373
 7862SOL    HW331215   5.187   5.315   0.946  1.4708 -1.9377  0.3270
 7862SOL    MW431216   5.117   5.276   0.912  0.1156 -0.2794  0.0748
 7863SOL     OW31217   2.545   5.977   3.941 -0.3127 -0.0296 -0.1783
 7863SOL    HW231218   2.515   6.068   3.935 -1.0320 -0.2738 -0.4200
 7863SOL    HW331219   2.612   5.978   4.010  0.8879  0.9786 -1.3251
 7863SOL    MW431220   2.550   5.989   3.950 -0.2445 -0.2748  0.3258
 7864SOL     OW31221   5.853   2.422   2.075  0.2015  0.2226  0.2262
 7864SOL    HW231222   5.825   2.330   2.073 -0.0011  0.2161  1.8710
 7864SOL    HW331223   5.948   2.418   2.079  0.2179  0.1027 -0.2546
 7864SOL    MW431224   5.862   2.409   2.075 -0.7265  0.2962  0.1753
 7865SOL     OW31225   1.563   2.654   2.612  0.0834  0.0854  0.6202
 7865SOL    HW231226   1.529   2.743   2.606  1.2951  0.5091 -0.5495
 7865SOL    HW331227   1.521   2.607   2.539  0.2799 -0.0088  0.5677
 7865SOL    MW431228   1.553   2.659   2.602  0.5348 -0.1262 -0.0500
 7866SOL     OW31229   2.252   0.279   1.306 -0.5645 -0.5689 -0.2593
 7866SOL    HW231230   2.238   0.239   1.392 -0.6112  1.5905  0.8185
 7866SOL    HW331231   2.336   0.243   1.276  1.6856  1.7202  2.6905
 7866SOL    MW431232   2.262   0.269   1.314 -0.0676 -0.1564 -0.0199
 7867SOL     OW31233   2.836   0.576   2.862  0.0673  0.2952 -0.0863
 7867SOL    HW231234   2.814   0.644   2.925  0.6455  0.9466 -0.5702
 7867SOL    HW331235   2.773   0.505   2.879  1.8797 -0.7475  3.0307
 7867SOL    MW431236   2.825   0.575   2.872  0.2672 -0.4173 -0.3428
 7868SOL     OW31237   0.889   1.857   1.382 -0.1136 -0.3171 -0.2638
 7868SOL    HW231238   0.962   1.920   1.377  0.1731 -0.7028 -3.5388
 7868SOL    HW331239   0.811   1.912   1.393  0.2717  0.5856 -1.6649
 7868SOL    MW431240   0.889   1.873   1.383 -0.4421  0.0705 -0.7614
 7869SOL     OW31241   0.426   0.392   2.986 -0.0287  0.2417 -0.1820
 7869SOL    HW231242   0.360   0.460   2.974 -1.0192 -1.0260 -2.4309
 7869SOL    HW331243   0.510   0.437   2.972 -0.4839  1.4687  0.7989
 7869SOL    MW431244   0.428   0.407   2.983  0.3962 -0.2346  0.3130
 7870SOL     OW31245   1.157   1.703   4.672  0.2731  0.2400 -0.2558
 7870SOL    HW231246   1.168   1.797   4.682  1.0419  0.1189  0.0929
 7870SOL    HW331247   1.207   1.665   4.744  2.0297 -0.5070 -1.7764
 7870SOL    MW431248   1.165   1.710   4.683  0.0328 -0.4685 -0.8712
 7871SOL     OW31249   4.361   5.611   1.244 -0.2797 -0.6186 -0.1143
 7871SOL    HW231250   4.430   5.599   1.179 -1.1522 -1.3350 -0.9441
 7871SOL    HW331251   4.280   5.594   1.196 -1.0071 -0.3076  0.9597
 7871SOL    MW431252   4.359   5.607   1.229  0.1178  0.6701  0.1401
 7872SOL     OW31253   5.484   4.201   5.896 -0.1968  0.3855  0.0079
 7872SOL    HW231254   5.507   4.118   5.854  0.4167  0.9405 -0.7835
 7872SOL    HW331255   5.396   4.186   5.931 -1.1132  0.1337 -2.1781
 7872SOL    MW431256   5.475   4.188   5.895  0.1521 -0.5971 -0.1769
 7873SOL     OW31257   4.162   3.870   6.255 -0.5958  0.1214  0.5356
 7873SOL    HW231258   4.106   3.811   6.306 -1.1569  0.3141  0.1488
 7873SOL    HW331259   4.127   3.866   6.166 -1.5125  2.0557  0.7519
 7873SOL    MW431260   4.150   3.862   6.250 -0.3961  0.8837  0.3289
 7874SOL     OW31261   5.927   1.411   6.300  1.0353  0.8028 -0.0685
 7874SOL    HW231262   5.895   1.479   6.240  0.9070 -0.7254 -1.8087
 7874SOL    HW331263   5.930   1.332   6.247 -0.0805 -0.8809  2.2177
 7874SOL    MW431264   5.923   1.410   6.285 -0.0746  0.1324  0.5110
 7875SOL     OW31265   5.889   6.014   2.502  0.1379  0.2469 -0.0557
 7875SOL    HW231266   5.832   5.937   2.503 -0.8478  0.9549  1.3192
 7875SOL    HW331267   5.965   5.989   2.554  0.7646 -0.4399 -1.2578
 7875SOL    MW431268   5.891   6.001   2.509  0.0752  0.2856 -0.1402
 7876SOL     OW31269   6.228   5.363   5.278 -0.5259  0.3648 -0.0800
 7876SOL    HW231270   6.285   5.376   5.202 -0.3256 -0.0243  0.0013
 7876SOL    HW331271   6.212   5.452   5.311  0.6454  0.4475  0.3347
 7876SOL    MW431272   6.234   5.377   5.272  0.0678 -0.2422 -0.0029
 7877SOL     OW31273   5.685   0.344   6.329 -0.1381  0.4142 -0.1428
 7877SOL    HW231274   5.771   0.329   6.290  0.1633 -0.2014  0.7167
 7877SOL    HW331275   5.644   0.257   6.331 -0.3348  0.5173  0.4654
 7877SOL    MW431276   5.691   0.330   6.324  0.1304  0.8110 -0.4188
 7878SOL     OW31277   4.752   5.385   0.062 -0.0535 -0.7371  0.1451
 7878SOL    HW231278   4.790   5.401  -0.024 -0.8705  1.3621  0.1074
 7878SOL    HW331279   4.668   5.344   0.044 -0.7767  0.8099 -0.1790
 7878SOL    MW431280   4.746   5.382   0.049 -0.5025  0.2289 -0.0471
 7879SOL     OW31281   4.927   6.384   5.670  0.3204 -0.1491 -0.0778
 7879SOL    HW231282   5.022   6.368   5.671  0.3030 -0.2578  0.8564
 7879SOL    HW331283   4.889   6.301   5.699 -0.1032 -0.2833 -0.9819
 7879SOL    MW431284   4.935   6.371   5.674  0.1167  1.2360  0.0394
 7880SOL     OW31285   2.394   0.523   2.716 -0.4863 -0.3233 -0.0355
 7880SOL    HW231286   2.423   0.476   2.638  0.9659  0.5687 -0.0566
 7880SOL    HW331287   2.378   0.613   2.686 -3.1575 -0.6848  0.0258
 7880SOL    MW431288   2.396   0.529   2.702 -0.0514 -0.2211 -0.4273
 7881SOL     OW31289   4.326   1.669   3.457 -0.1989 -0.0395  0.4623
 7881SOL    HW231290   4.244   1.718   3.457  0.2615  0.7768  1.8169
 7881SOL    HW331291   4.364   1.685   3.370 -0.0513  2.0725  0.8776
 7881SOL    MW431292   4.321   1.678   3.445 -0.3250  0.7807 -0.1156
 7882SOL     OW31293   0.618   1.946   4.538 -0.1134  0.9936  0.1834
 7882SOL    HW231294   0.656   2.023   4.496 -0.0162  1.1397  0.5392
 7882SOL    HW331295   0.674   1.930   4.614 -0.4616  0.9012  0.4220
 7882SOL    MW431296   0.631   1.954   4.542 -0.0621  0.1997 -0.5892
 7883SOL     OW31297   0.167   3.562   0.470  0.0816 -0.7559  0.7294
 7883SOL    HW231298   0.072   3.561   0.483 -0.0077 -0.5873  0.1219
 7883SOL    HW331299   0.179   3.610   0.388  0.5280 -2.8356 -0.4810
 7883SOL    MW431300   0.156   3.568   0.461 -0.1395  0.4915  0.2258
 7884SOL     OW31301   0.393   3.708   3.704  0.1976  0.2079 -0.1164
 7884SOL    HW231302   0.430   3.774   3.646 -0.3770 -0.7906 -1.6952
 7884SOL    HW331303   0.304   3.737   3.721  0.4009  0.5567  0.3712
 7884SOL    MW431304   0.386   3.720   3.698 -0.0382  0.0723 -0.3020
 7885SOL     OW31305   1.178   1.765   1.538 -0.0480 -0.3468 -0.4880
 7885SOL    HW231306   1.098   1.755   1.591 -0.5237 -2.1877 -1.4648
 7885SOL    HW331307   1.249   1.750   1.600 -0.5997 -2.3843 -0.2650
 7885SOL    MW431308   1.176   1.762   1.553  0.1321 -0.0734  0.4460
 7886SOL     OW31309   4.984   1.897   5.719 -0.0651  0.0207 -0.8720
 7886SOL    HW231310   4.941   1.816   5.690 -2.0023  0.2954  0.9556
 7886SOL    HW331311   5.064   1.902   5.667 -1.1045 -1.7734 -2.7909
 7886SOL    MW431312   4.989   1.887   5.709 -0.0056  0.2606  0.1117
 7887SOL     OW31313   1.551   2.369   6.206 -0.6152 -0.3666  0.4987
 7887SOL    HW231314   1.621   2.406   6.259 -0.6459  0.0508  0.2551
 7887SOL    HW331315   1.596   2.315   6.141 -0.6340 -1.8862  1.6889
 7887SOL    MW431316   1.566   2.367   6.204 -0.1073  0.8911 -0.2867
 7888SOL     OW31317   1.289   6.271   4.385  0.1010 -0.1391 -0.1281
 7888SOL    HW231318   1.346   6.345   4.365  0.7872 -0.8473 -0.8323
 7888SOL    HW331319   1.215   6.282   4.325 -0.6590  0.9140  0.9522
 7888SOL    MW431320   1.286   6.282   4.374  0.7184  0.0875 -0.4957
 7889SOL     OW31321   6.255   5.454   2.683  0.5627  0.0560  0.1635
 7889SOL    HW231322   6.346   5.473   2.661  0.4046 -0.1802 -0.7424
 7889SOL    HW331323   6.250   5.358   2.682 -0.1895  0.0659 -2.0398
 7889SOL    MW431324   6.267   5.443   2.680  0.2530  0.0449  0.5470
 7890SOL     OW31325   3.723   1.174   1.830 -0.2345  0.4970  0.1792
 7890SOL    HW231326   3.641   1.128   1.811  0.6591 -2.4594  2.6109
 7890SOL    HW331327   3.772   1.171   1.748 -0.3107 -2.9987  0.1060
 7890SOL    MW431328   3.719   1.167   1.817  0.5643 -0.3794  0.2465
 7891SOL     OW31329   5.609   1.878   0.413  0.1924  0.1637  0.1714
 7891SOL    HW231330   5.699   1.884   0.447 -0.2128 -0.7773  1.4974
 7891SOL    HW331331   5.572   1.964   0.430  1.0046  0.7670 -0.9476
 7891SOL    MW431332   5.616   1.890   0.420 -0.6493  0.3335 -0.1031
 7892SOL     OW31333   3.245   0.804   0.957 -0.4153 -0.4212  0.2557
 7892SOL    HW231334   3.308   0.864   0.916 -0.5007 -0.4404  0.0926
 7892SOL    HW331335   3.258   0.721   0.910 -0.1921 -0.5722  0.5834
 7892SOL    MW431336   3.255   0.801   0.945  0.4211 -0.3467 -0.0560
 7893SOL     OW31337   2.588   4.226   0.020 -0.3570 -0.4650  0.7015
 7893SOL    HW231338   2.628   4.225  -0.067  0.7104 -1.0580  1.1784
 7893SOL    HW331339   2.527   4.300   0.017 -0.2785 -0.4236 -0.5161
 7893SOL    MW431340   2.585   4.236   0.008  0.3402  0.1643 -0.7289
 7894SOL     OW31341   2.010   5.442   3.024  0.3953  0.3452 -0.1219
 7894SOL    HW231342   2.040   5.411   2.938 -1.0101  1.5164 -1.0927
 7894SOL    HW331343   2.023   5.537   3.021  2.4891  0.2055  1.9032
 7894SOL    MW431344   2.016   5.451   3.012  0.7370 -0.5676 -0.1064
 7895SOL     OW31345   6.025   1.452   5.963 -0.5229  0.2836  0.8014
 7895SOL    HW231346   6.111   1.483   5.994 -1.0581 -0.2091  2.9625
 7895SOL    HW331347   6.036   1.357   5.954 -0.3217  0.4413 -0.8383
 7895SOL    MW431348   6.038   1.444   5.966  0.5383 -0.5294 -0.1381
 7896SOL     OW31349   1.202   3.781   0.522 -0.3072 -0.5336 -0.0258
 7896SOL    HW231350   1.293   3.768   0.547 -0.5139 -1.9415  0.1167
 7896SOL    HW331351   1.203   3.788   0.427 -0.3189 -4.4376 -0.5067
 7896SOL    MW431352   1.214   3.780   0.513  0.2419 -0.4926 -0.2071
 7897SOL     OW31353   2.731   5.908   0.696 -0.0125 -0.3549 -0.0930
 7897SOL    HW231354   2.701   5.842   0.633 -1.0581  1.4132 -1.5428
 7897SOL    HW331355   2.667   5.905   0.767  1.0304 -2.1753  0.8772
 7897SOL    MW431356   2.719   5.899   0.697 -0.3298  0.7492 -0.2465
 7898SOL     OW31357   1.636   4.958   1.101  0.1491  0.5058  0.0104
 7898SOL    HW231358   1.718   5.003   1.121  1.3897 -1.5847 -0.1015
 7898SOL    HW331359   1.607   4.996   1.018  0.6391  1.7120  0.3614
 7898SOL    MW431360   1.643   4.969   1.093 -0.2619  0.0075 -0.3564
 7899SOL     OW31361   5.919   0.232   5.544 -0.3932 -0.3104 -0.2558
 7899SOL    HW231362   5.996   0.193   5.502 -1.0532 -0.2435 -1.6110
 7899SOL    HW331363   5.942   0.324   5.556 -0.3760 -0.2058 -1.0067
 7899SOL    MW431364   5.932   0.239   5.540 -0.1586  0.2735 -0.1853
 7900SOL     OW31365   1.839   2.735   1.285 -0.2091 -0.0858 -0.0609
 7900SOL    HW231366   1.919   2.746   1.336  1.8623 -0.9162 -2.9103
 7900SOL    HW331367   1.783   2.681   1.341  1.4821 -0.1282  1.7068
 7900SOL    MW431368   1.842   2.729   1.299 -0.3842 -0.2162 -0.1797
 7901SOL     OW31369   0.471   2.070   5.774 -0.0861 -0.2868  0.3563
 7901SOL    HW231370   0.519   2.058   5.692 -1.3108  0.9031 -0.5798
 7901SOL    HW331371   0.540   2.073   5.841  0.8510 -3.3689 -0.2655
 7901SOL    MW431372   0.487   2.069   5.772  0.0793 -0.2111  0.4542
 7902SOL     OW31373   2.518   1.833   0.379  0.3110  0.2131 -0.0385
 7902SOL    HW231374   2.448   1.799   0.323  0.0331  1.8792 -0.7603
 7902SOL    HW331375   2.485   1.917   0.411  2.3502  1.5528 -1.2595
 7902SOL    MW431376   2.504   1.839   0.376  0.2385 -0.2536 -0.5344
 7903SOL     OW31377   1.206   0.873   2.107 -0.0447 -0.3996 -0.1244
 7903SOL    HW231378   1.142   0.807   2.079  1.7265 -1.8650 -0.9331
 7903SOL    HW331379   1.260   0.828   2.172 -0.1917  1.0175  1.0336
 7903SOL    MW431380   1.205   0.859   2.112 -0.6770  0.2063 -0.1459
 7904SOL     OW31381   4.844   2.912   2.630  0.3498  0.1311  0.0108
 7904SOL    HW231382   4.916   2.938   2.573  0.5656  1.5002  0.8587
 7904SOL    HW331383   4.799   2.994   2.650 -1.3157 -0.6759 -0.3109
 7904SOL    MW431384   4.848   2.926   2.625  0.3523  0.2880  0.1598
 7905SOL     OW31385   5.158   6.063   2.226  0.0106 -0.5892 -0.7773
 7905SOL    HW231386   5.149   6.158   2.234 -0.6903 -0.6104 -1.2711
 7905SOL    HW331387   5.175   6.033   2.316 -2.3398 -0.2665 -0.1450
 7905SOL    MW431388   5.159   6.071   2.239  0.0436  0.6245 -0.4332
 7906SOL     OW31389   0.758   5.682   0.608 -0.1357 -0.7466 -0.6045
 7906SOL    HW231390   0.803   5.746   0.553  1.8620 -1.4642  0.0804
 7906SOL    HW331391   0.772   5.715   0.697 -2.5416 -0.0777 -0.4163
 7906SOL    MW431392   0.766   5.695   0.613 -0.1797 -1.0899 -0.2217
 7907SOL     OW31393   3.516   3.841   4.158  0.1102 -0.0318  0.1868
 7907SOL    HW231394   3.502   3.859   4.065 -0.0764  0.2890  0.2759
 7907SOL    HW331395   3.436   3.796   4.186  0.2860 -0.3863  0.1269
 7907SOL    MW431396   3.503   3.837   4.149 -0.5999 -0.3472  0.3698
 7908SOL     OW31397   3.946   4.093   3.241  0.2453 -0.2638 -0.2287
 7908SOL    HW231398   4.039   4.075   3.255  0.3772  1.5686  1.7149
 7908SOL    HW331399   3.927   4.168   3.297 -2.2078  0.0155 -1.2950
 7908SOL    MW431400   3.956   4.100   3.250 -0.3570  0.2089  0.4292
 7909SOL     OW31401   2.595   1.833   2.792 -0.2470 -0.7128 -0.3432
 7909SOL    HW231402   2.690   1.829   2.785 -0.1453 -0.5433  0.7485
 7909SOL    HW331403   2.565   1.853   2.703  0.7807 -0.0124 -0.5456
 7909SOL    MW431404   2.603   1.835   2.779  0.3568  0.2600 -0.2693
 7910SOL     OW31405   4.038   2.212   2.956  0.0193  0.2813  0.5681
 7910SOL    HW231406   4.108   2.216   3.021 -1.1980 -0.5124  1.9898
 7910SOL    HW331407   3.981   2.286   2.977 -1.3605 -1.0257  1.6339
 7910SOL    MW431408   4.040   2.222   2.968 -0.0559  0.0663 -0.4290
 7911SOL     OW31409   4.981   0.483   1.483 -0.2837  0.0584  0.0041
 7911SOL    HW231410   4.989   0.484   1.388 -0.5942 -1.5496 -0.0618
 7911SOL    HW331411   5.070   0.502   1.514 -0.0286 -0.0861 -0.6144
 7911SOL    MW431412   4.994   0.485   1.475 -0.0460 -0.2045  0.3238
 7912SOL     OW31413   2.881   0.097   6.423  0.1315 -0.3894 -1.1339
 7912SOL    HW231414   2.948   0.054   6.371 -0.5776  1.0366 -3.3807
 7912SOL    HW331415   2.908   0.189   6.425  0.1067 -0.3837  1.0674
 7912SOL    MW431416   2.893   0.104   6.416  0.3432 -0.4237 -0.5073
 7913SOL     OW31417   2.777   0.884   4.211 -0.3163 -0.3823  0.8030
 7913SOL    HW231418   2.777   0.901   4.306 -2.2159  0.2926  0.7367
 7913SOL    HW331419   2.685   0.890   4.186  0.1745 -0.2602 -1.1502
 7913SOL    MW431420   2.765   0.887   4.221  0.2691  0.1738 -0.3282
 7914SOL     OW31421   5.821   1.605   2.356  0.3777 -0.3320 -0.1628
 7914SOL    HW231422   5.854   1.695   2.353 -0.5588  0.0279 -0.1180
 7914SOL    HW331423   5.899   1.551   2.368  0.7927  0.5975  1.6527
 7914SOL    MW431424   5.836   1.610   2.357  0.5892 -0.1259 -0.6883
 7915SOL     OW31425   3.200   1.288   4.286 -0.0050 -0.2927 -0.1484
 7915SOL    HW231426   3.206   1.233   4.208 -1.2648 -0.7547  0.0567
 7915SOL    HW331427   3.127   1.348   4.268  0.8370  0.7968 -0.0398
 7915SOL    MW431428   3.191   1.289   4.274  0.4073  0.6130 -0.2266
 7916SOL     OW31429   0.998   2.616   0.824 -0.3166  0.1154  0.5172
 7916SOL    HW231430   0.908   2.613   0.791 -0.9491 -1.1950  2.2212
 7916SOL    HW331431   1.052   2.590   0.749 -1.5861 -1.5075  0.1100
 7916SOL    MW431432   0.993   2.612   0.810  0.0460 -0.7013 -0.4864
 7917SOL     OW31433   4.700   0.887   3.836 -0.8724 -0.2430  0.2547
 7917SOL    HW231434   4.659   0.859   3.754 -1.6660 -0.2933  0.6572
 7917SOL    HW331435   4.741   0.971   3.815 -0.9286 -0.3378 -0.2366
 7917SOL    MW431436   4.700   0.895   3.822  0.4357 -0.0756 -0.0042
 7918SOL     OW31437   0.973   2.055   6.160  0.0785 -0.3806  0.7821
 7918SOL    HW231438   1.050   2.039   6.214  0.5118  0.2068  0.3581
 7918SOL    HW331439   1.003   2.041   6.070 -0.1701  0.3369  0.5773
 7918SOL    MW431440   0.987   2.051   6.155 -0.2399  0.7868 -0.0586
 7919SOL     OW31441   3.338   2.791   1.189  0.2940  0.7089  0.6454
 7919SOL    HW231442   3.408   2.853   1.165  0.1222  1.1451  1.2496
 7919SOL    HW331443   3.352   2.774   1.282 -1.4851  2.2431  1.2502
 7919SOL    MW431444   3.349   2.797   1.198  0.2632 -0.1532 -0.1516
 7920SOL     OW31445   5.504   2.737   2.895 -0.0670  0.2759 -0.1623
 7920SOL    HW231446   5.578   2.677   2.889  0.4734  1.0340 -1.3603
 7920SOL    HW331447   5.429   2.680   2.915  0.8931 -0.4415  1.5957
 7920SOL    MW431448   5.504   2.721   2.897  0.5003 -0.3628 -0.3052
 7921SOL     OW31449   0.685   5.931   2.968 -0.1370 -0.3798  0.1289
 7921SOL    HW231450   0.608   5.987   2.961  0.1968  0.1447  0.5548
 7921SOL    HW331451   0.694   5.913   3.062 -0.1267 -0.9935  0.0158
 7921SOL    MW431452   0.676   5.936   2.979 -0.4389 -0.0909  0.0883
 7922SOL     OW31453   2.121   1.388   2.873 -0.0100  0.0956 -0.2295
 7922SOL    HW231454   2.105   1.329   2.947  1.5583  0.7043  0.6254
 7922SOL    HW331455   2.175   1.337   2.812 -1.1288 -0.3335 -0.9012
 7922SOL    MW431456   2.126   1.373   2.874  0.0337 -0.1795 -0.5391
 7923SOL     OW31457   2.299   3.204   3.446  0.1935 -0.5308 -0.0361
 7923SOL    HW231458   2.372   3.265   3.445 -1.2491  1.3040 -1.5064
 7923SOL    HW331459   2.278   3.193   3.539  1.2703  0.2143  0.3156
 7923SOL    MW431460   2.306   3.211   3.458  0.0457 -0.6043 -0.5403
 7924SOL     OW31461   2.637   5.737   3.451  0.4765  0.6741 -0.0744
 7924SOL    HW231462   2.658   5.741   3.544  1.3253 -2.2951 -0.0529
 7924SOL    HW331463   2.541   5.729   3.449  0.4069  1.2462  0.4820
 7924SOL    MW431464   2.627   5.737   3.463 -0.1516 -0.2524  0.1558
 7925SOL     OW31465   5.357   1.273   3.913  0.4052  0.1558 -0.1704
 7925SOL    HW231466   5.275   1.226   3.897  1.3632 -1.2132 -1.3722
 7925SOL    HW331467   5.334   1.365   3.909 -0.8002 -0.1839 -2.1515
 7925SOL    MW431468   5.343   1.279   3.911 -0.2035  0.0770  0.0937
 7926SOL     OW31469   0.752   3.274   3.300  0.2798  0.1213 -0.0964
 7926SOL    HW231470   0.748   3.359   3.256  2.1733  1.2699  1.7437
 7926SOL    HW331471   0.661   3.255   3.325 -0.4009  0.8032 -1.8934
 7926SOL    MW431472   0.739   3.282   3.298  0.3012  0.8938 -0.6837
 7927SOL     OW31473   6.329   0.776   4.889  0.1940 -0.3950 -0.1146
 7927SOL    HW231474   6.262   0.801   4.826  0.7686 -0.6293 -0.8308
 7927SOL    HW331475   6.366   0.695   4.854  0.6414 -0.4324  0.4297
 7927SOL    MW431476   6.325   0.768   4.876 -0.1018 -0.1862 -0.4527
 7928SOL     OW31477   1.292   2.347   4.132 -0.2185  0.1522 -0.3553
 7928SOL    HW231478   1.243   2.421   4.167 -0.4905  0.1823 -0.7886
 7928SOL    HW331479   1.228   2.275   4.130 -0.0623  0.0116 -0.2950
 7928SOL    MW431480   1.277   2.347   4.136 -0.2775 -0.5548 -0.0535
 7929SOL     OW31481   3.355   6.248   2.938 -0.2351  0.0043 -0.3779
 7929SOL    HW231482   3.294   6.216   3.004 -0.5393  1.8677  0.3002
 7929SOL    HW331483   3.304   6.307   2.884  0.5578  0.2475 -0.8827
 7929SOL    MW431484   3.340   6.252   2.940 -0.2157  0.6856 -0.0329
 7930SOL     OW31485   6.397   1.908   0.194 -0.3741  0.2925  0.1421
 7930SOL    HW231486   6.388   1.817   0.168 -2.9242 -0.1913  2.3129
 7930SOL    HW331487   6.334   1.955   0.140  0.5540  0.7109 -0.5961
 7930SOL    MW431488   6.388   1.902   0.184  0.0526 -0.1615 -0.1305
 7931SOL     OW31489   5.515   1.068   2.988 -0.3034  0.1702  0.1534
 7931SOL    HW231490   5.577   1.006   3.025 -1.5765 -0.8749  0.6310
 7931SOL    HW331491   5.555   1.154   3.001  1.5301 -0.5279 -0.5646
 7931SOL    MW431492   5.528   1.071   2.994 -0.1189  0.0073  0.2116
 7932SOL     OW31493   1.359   2.012   2.064  0.0803  0.2866  0.6473
 7932SOL    HW231494   1.334   2.083   2.004  1.2842  0.4537  0.3256
 7932SOL    HW331495   1.438   2.044   2.108 -0.1663 -0.2879  1.5371
 7932SOL    MW431496   1.366   2.026   2.062 -0.1093 -0.1630 -0.2394
 7933SOL     OW31497   5.452   4.134   3.267 -0.2297 -0.5232 -0.7370
 7933SOL    HW231498   5.397   4.199   3.221 -1.6264 -2.1196 -1.4234
 7933SOL    HW331499   5.415   4.130   3.355 -1.5532 -1.8920 -1.3159
 7933SOL    MW431500   5.440   4.142   3.272  0.0248 -0.4216  0.0137
 7934SOL     OW31501   2.442   6.408   4.774 -0.0763  0.3142 -0.0385
 7934SOL    HW231502   2.453   6.327   4.824  3.1236  0.9230  0.4982
 7934SOL    HW331503   2.486   6.390   4.690 -1.4385  0.7680 -0.8727
 7934SOL    MW431504   2.450   6.395   4.769 -0.7244  0.0494  0.3849
 7935SOL     OW31505   6.131   6.381   1.353  0.4046  0.1884  0.5812
 7935SOL    HW231506   6.129   6.369   1.258  3.8454  0.6813  0.3186
 7935SOL    HW331507   6.076   6.310   1.387 -0.1578 -0.5720 -1.7282
 7935SOL    MW431508   6.124   6.370   1.345  0.0440 -0.1718  0.4417
 7936SOL     OW31509   6.178   1.431   6.410 -0.0696  0.1356 -0.6806
 7936SOL    HW231510   6.092   1.416   6.370 -0.4753 -1.9741  0.7751
 7936SOL    HW331511   6.241   1.406   6.343 -0.6872 -1.0992 -0.8334
 7936SOL    MW431512   6.175   1.426   6.396 -0.3790  0.0941  0.7164
 7937SOL     OW31513   6.191   4.367   5.630  0.0619  0.0303 -0.0694
 7937SOL    HW231514   6.171   4.427   5.558 -1.5633  0.5837  0.8143
 7937SOL    HW331515   6.161   4.282   5.599  1.2963 -0.1495 -0.8538
 7937SOL    MW431516   6.185   4.364   5.616  0.2951 -0.5412 -0.5313
 7938SOL     OW31517   1.510   3.215   0.044 -0.1779  0.2403  0.0477
 7938SOL    HW231518   1.555   3.263   0.114  0.0146  1.7749 -1.0608
 7938SOL    HW331519   1.576   3.153   0.012  0.3130  0.7011  0.1329
 7938SOL    MW431520   1.525   3.213   0.049 -0.3870  0.4906  0.7544
 7939SOL     OW31521   6.043   4.613   5.045 -0.2116  0.6826 -0.1707
 7939SOL    HW231522   5.984   4.689   5.044 -0.3157  0.6451  1.3326
 7939SOL    HW331523   6.004   4.552   4.983 -2.0421  0.4748  1.1029
 7939SOL    MW431524   6.030   4.615   5.037 -0.8917 -0.0533 -0.0350
 7940SOL     OW31525   2.434   0.372   5.804 -0.0896  0.1267 -0.6015
 7940SOL    HW231526   2.428   0.409   5.716 -0.2283  1.4629 -0.0480
 7940SOL    HW331527   2.467   0.283   5.790  0.3261  0.4664 -1.9651
 7940SOL    MW431528   2.438   0.365   5.791  0.1088 -0.1531  0.2711
 7941SOL     OW31529   5.550   2.271   5.934 -0.3176  0.3595 -0.1833
 7941SOL    HW231530   5.531   2.350   5.984 -1.3425  0.3010 -0.4714
 7941SOL    HW331531   5.633   2.289   5.891 -0.4743  1.2223 -0.1362
 7941SOL    MW431532   5.559   2.284   5.935 -0.1381  0.0304  0.1094
 7942SOL     OW31533   5.064   2.896   0.344 -0.4477 -0.1838 -0.8474
 7942SOL    HW231534   5.140   2.859   0.390 -1.5609 -0.4791  0.8260
 7942SOL    HW331535   5.046   2.978   0.389 -1.5191 -0.4446 -0.7637
 7942SOL    MW431536   5.072   2.902   0.356  0.1391  0.0031 -0.4318
 7943SOL     OW31537   2.062   5.287   0.928 -0.4515 -0.6230  0.0217
 7943SOL    HW231538   1.979   5.316   0.891 -0.1174  1.2788  0.6056
 7943SOL    HW331539   2.049   5.288   1.023  0.2639 -0.1388  0.1297
 7943SOL    MW431540   2.050   5.291   0.936 -0.5840 -0.3291  0.3018
 7944SOL     OW31541   2.488   0.801   5.999  0.0268 -0.1020 -0.1347
 7944SOL    HW231542   2.533   0.824   6.080  0.8171  0.5260 -0.7342
 7944SOL    HW331543   2.532   0.722   5.968  0.3563  0.1975 -0.4361
 7944SOL    MW431544   2.499   0.794   6.006  0.6901 -0.1590 -0.5842
 7945SOL     OW31545   1.341   5.565   3.432 -0.2373  0.3617  0.3127
 7945SOL    HW231546   1.358   5.507   3.357 -1.2195 -0.5001  0.7321
 7945SOL    HW331547   1.427   5.593   3.460  0.1694  0.5363 -1.0109
 7945SOL    MW431548   1.354   5.561   3.426  0.1451 -0.3442 -0.3510
 7946SOL     OW31549   1.353   6.405   0.244 -0.2585  0.1214  0.0030
 7946SOL    HW231550   1.290   6.338   0.219 -0.3168  0.2003 -0.0623
 7946SOL    HW331551   1.395   6.370   0.323 -1.6600  0.8495  1.1277
 7946SOL    MW431552   1.350   6.392   0.251  0.5837 -0.1585 -0.5952
 7947SOL     OW31553   4.389   4.656   0.965 -0.4025 -0.2380 -0.0644
 7947SOL    HW231554   4.436   4.640   1.046 -0.9139  1.2590  0.5636
 7947SOL    HW331555   4.297   4.647   0.988 -0.5647  0.4553 -0.4020
 7947SOL    MW431556   4.383   4.653   0.979  0.3239  0.1153 -0.1693
 7948SOL     OW31557   1.744   0.309   1.950  0.1502  0.4794  0.0061
 7948SOL    HW231558   1.758   0.384   2.008  1.2357  0.0865  0.2822
 7948SOL    HW331559   1.833   0.281   1.926 -0.2414 -0.6580 -0.1605
 7948SOL    MW431560   1.758   0.315   1.954 -0.8115  0.1412 -0.0745
 7949SOL     OW31561   2.610   1.500   3.136  0.6490  0.1127  0.2465
 7949SOL    HW231562   2.633   1.586   3.100  0.9304  0.1583  0.5311
 7949SOL    HW331563   2.675   1.440   3.098  1.2803  0.2471  1.0789
 7949SOL    MW431564   2.622   1.503   3.126 -0.2973 -0.3919  0.4154
 7950SOL     OW31565   4.047   0.345   1.027 -0.0463 -0.3248  0.1066
 7950SOL    HW231566   4.141   0.326   1.023  0.4888  2.1744 -1.3223
 7950SOL    HW331567   4.022   0.362   0.936 -1.2713  1.5717  0.7471
 7950SOL    MW431568   4.057   0.345   1.014  0.3243 -0.2895 -0.1856
 7951SOL     OW31569   3.995   2.258   6.127 -0.1121  0.6185 -0.1343
 7951SOL    HW231570   4.053   2.247   6.202  0.3353  0.6843 -0.4725
 7951SOL    HW331571   3.924   2.314   6.161 -0.5236 -0.3020  0.5659
 7951SOL    MW431572   3.993   2.264   6.142 -0.0782  0.5857  0.0975
 7952SOL     OW31573   5.177   3.265   4.004  0.0632 -0.1748 -0.1834
 7952SOL    HW231574   5.206   3.198   4.066 -0.5884 -1.6012 -1.3543
 7952SOL    HW331575   5.244   3.264   3.935  0.1609  0.5575 -0.1101
 7952SOL    MW431576   5.190   3.256   4.003 -0.1837  0.2864 -0.4305
 7953SOL     OW31577   5.274   3.564   6.211  0.0935  0.0270 -0.4467
 7953SOL    HW231578   5.339   3.514   6.260 -1.0046 -2.1765 -1.1231
 7953SOL    HW331579   5.305   3.561   6.121  0.6544  1.6871 -0.3391
 7953SOL    MW431580   5.286   3.557   6.206 -0.5798  0.0276  0.9602
 7954SOL     OW31581   0.478   4.172   1.886  0.1193  0.0645 -0.0824
 7954SOL    HW231582   0.423   4.094   1.896  0.7385 -0.5268 -1.0483
 7954SOL    HW331583   0.566   4.137   1.872  0.4976  0.9546  0.0328
 7954SOL    MW431584   0.482   4.157   1.885  0.3886  0.1235  0.2028
 7955SOL     OW31585   0.237   2.351   3.927 -0.0754  0.2509 -0.6686
 7955SOL    HW231586   0.200   2.276   3.973 -0.1970 -0.6326 -2.1315
 7955SOL    HW331587   0.161   2.401   3.897  0.0003  0.7445 -0.0560
 7955SOL    MW431588   0.222   2.348   3.929  0.1675 -0.2550  0.3602
 7956SOL     OW31589   2.835   4.415   5.315  0.2550  0.3791 -0.2921
 7956SOL    HW231590   2.867   4.455   5.234  1.0966 -0.2129 -0.2705
 7956SOL    HW331591   2.894   4.446   5.383 -1.7560  2.6835  0.5630
 7956SOL    MW431592   2.847   4.424   5.313 -0.2820  0.0291  0.2720
 7957SOL     OW31593   5.228   1.842   3.341  0.0435  0.2426  0.6121
 7957SOL    HW231594   5.252   1.929   3.372 -1.0145  0.8776 -0.2605
 7957SOL    HW331595   5.244   1.845   3.246  0.1422 -0.5658  0.5941
 7957SOL    MW431596   5.233   1.854   3.332 -0.4249 -0.6843  0.4133
 7958SOL     OW31597   1.250   4.140   5.074 -0.0567 -0.1161  0.6766
 7958SOL    HW231598   1.244   4.060   5.126 -1.8871 -0.2233  0.3725
 7958SOL    HW331599   1.163   4.179   5.080  0.6560  1.6110  0.4026
 7958SOL    MW431600   1.238   4.135   5.082  0.2074  0.6088  0.2424
 7959SOL     OW31601   4.780   0.485   5.543  0.0385 -0.7484 -0.2436
 7959SOL    HW231602   4.718   0.556   5.562  0.7444 -0.3960  0.8920
 7959SOL    HW331603   4.770   0.425   5.616  1.0969 -0.6267  0.0204
 7959SOL    MW431604   4.770   0.487   5.555 -0.1737  0.1402 -0.0794
 7960SOL     OW31605   5.468   6.043   2.431 -0.1595 -0.5817  0.2411
 7960SOL    HW231606   5.496   6.003   2.513  0.0231  0.0804  0.5066
 7960SOL    HW331607   5.524   6.120   2.421 -1.4315  0.4019  0.4482
 7960SOL    MW431608   5.479   6.048   2.440  0.8752 -0.1679 -0.2043
 7961SOL     OW31609   0.747   3.722   0.806  0.5394 -0.0158  0.2885
 7961SOL    HW231610   0.695   3.798   0.778  0.2185 -0.0600  0.7454
 7961SOL    HW331611   0.825   3.725   0.751  0.4381  0.5341  0.1637
 7961SOL    MW431612   0.750   3.733   0.795  0.1919  0.7902  0.5631
 7962SOL     OW31613   0.093   4.230   2.848  0.0741 -0.2553  0.2468
 7962SOL    HW231614   0.078   4.137   2.828 -2.7999  0.1875  0.0090
 7962SOL    HW331615   0.145   4.229   2.928 -1.0467 -2.0939  1.0118
 7962SOL    MW431616   0.098   4.218   2.856 -0.0701 -0.1310 -0.8583
 7963SOL     OW31617   5.693   0.112   3.661  0.1014  0.2502 -0.0745
 7963SOL    HW231618   5.623   0.177   3.665 -1.6499 -1.5308 -0.5782
 7963SOL    HW331619   5.674   0.061   3.582  2.9974  0.7861 -1.2562
 7963SOL    MW431620   5.681   0.114   3.651  0.2573  0.2751  0.1037
 7964SOL     OW31621   4.907   2.450   1.811 -0.0005 -0.0788 -0.7268
 7964SOL    HW231622   4.972   2.379   1.811 -0.1155 -0.3030  2.0968
 7964SOL    HW331623   4.826   2.410   1.781  0.1421 -0.9706  0.0403
 7964SOL    MW431624   4.905   2.436   1.807 -0.4707  0.7146  0.6294
 7965SOL     OW31625   3.060   4.310   3.908  0.1529 -0.3975  0.8556
 7965SOL    HW231626   3.041   4.242   3.973  3.8697 -0.7092  1.8581
 7965SOL    HW331627   3.037   4.392   3.951 -0.2415 -0.7684  1.3704
 7965SOL    MW431628   3.055   4.312   3.922 -0.0715  0.2605  0.4087
 7966SOL     OW31629   5.719   2.889   2.501  0.2297  0.2531  0.4348
 7966SOL    HW231630   5.666   2.865   2.425  0.9132 -0.0664  0.0491
 7966SOL    HW331631   5.701   2.983   2.513 -1.3271 -0.0957  1.0577
 7966SOL    MW431632   5.709   2.898   2.492 -0.3734  0.2987 -0.1545
 7967SOL     OW31633   4.300   5.750   0.943 -1.1003 -0.1978  0.0773
 7967SOL    HW231634   4.233   5.686   0.967 -0.6864 -0.4048  0.6924
 7967SOL    HW331635   4.323   5.793   1.025 -1.0920  0.4753 -0.2702
 7967SOL    MW431636   4.294   5.747   0.957  0.0150 -0.2285 -0.2336
 7968SOL     OW31637   0.511   1.613   6.268 -0.6609  0.1350  0.2025
 7968SOL    HW231638   0.560   1.638   6.346 -0.3136  0.1393 -0.0176
 7968SOL    HW331639   0.485   1.697   6.228  0.8037  0.1751 -0.7278
 7968SOL    MW431640   0.514   1.628   6.273 -0.2795 -0.1988 -0.9562
 7969SOL     OW31641   1.130   0.982   2.352  0.3455  0.1098  0.0416
 7969SOL    HW231642   1.147   0.964   2.259 -1.1986 -1.3311 -0.0017
 7969SOL    HW331643   1.097   1.072   2.352  1.9187  0.7235 -0.5754
 7969SOL    MW431644   1.128   0.992   2.340 -0.1209 -0.3902  0.1159
 7970SOL     OW31645   5.969   1.451   0.280  0.1702  0.8757 -0.0465
 7970SOL    HW231646   5.889   1.500   0.262 -0.9392 -0.7896  0.1609
 7970SOL    HW331647   5.977   1.451   0.375  2.0643  3.4935 -0.1085
 7970SOL    MW431648   5.960   1.458   0.290 -0.4038 -0.4068  0.3716
 7971SOL     OW31649   4.066   2.118   2.031 -0.3761 -0.5343 -0.4956
 7971SOL    HW231650   4.161   2.113   2.047 -0.6110 -2.4586  0.6394
 7971SOL    HW331651   4.052   2.065   1.953 -0.7299 -2.0790  0.5786
 7971SOL    MW431652   4.077   2.111   2.023  0.7218  0.1921 -0.2089
 7972SOL     OW31653   6.344   0.810   5.370  0.0425  0.1441 -0.3702
 7972SOL    HW231654   6.431   0.772   5.363  1.0851  2.5639 -1.9925
 7972SOL    HW331655   6.320   0.833   5.280 -2.5650 -0.9905 -0.0442
 7972SOL    MW431656   6.352   0.808   5.358 -0.2080  0.2347  0.4507
 7973SOL     OW31657   3.464   0.011   0.481  0.4161 -0.3508  0.3213
 7973SOL    HW231658   3.560   0.009   0.471  0.4351  0.5437  0.2194
 7973SOL    HW331659   3.441  -0.077   0.512  1.1571 -0.9093 -0.6363
 7973SOL    MW431660   3.474  -0.001   0.484  0.4680  0.0891 -0.0988
 7974SOL     OW31661   5.915   0.361   2.873  0.3488  0.1407  0.4334
 7974SOL    HW231662   5.865   0.407   2.806  0.6799  0.5411  0.4630
 7974SOL    HW331663   5.850   0.303   2.915  0.2613 -0.5658 -0.6254
 7974SOL    MW431664   5.900   0.359   2.870  0.4207  0.1824  0.0262
 7975SOL     OW31665   2.307   4.151   0.840 -0.1851  0.1641 -0.4732
 7975SOL    HW231666   2.399   4.126   0.851 -0.7632 -2.1833 -0.5318
 7975SOL    HW331667   2.261   4.102   0.908 -1.1983  3.2752  1.2900
 7975SOL    MW431668   2.313   4.141   0.850  0.0110  0.4678 -0.2378
 7976SOL     OW31669   4.107   1.810   3.479 -0.4194 -0.3370  0.0643
 7976SOL    HW231670   4.090   1.780   3.568  3.2559 -0.3384  0.9612
 7976SOL    HW331671   4.113   1.905   3.486 -2.3750 -0.1177 -0.7262
 7976SOL    MW431672   4.106   1.819   3.492  0.0293  0.1747 -0.6689
 7977SOL     OW31673   1.963   3.409   0.649 -0.3932  0.5349  0.6759
 7977SOL    HW231674   2.014   3.482   0.683  0.2883  0.6438 -0.5288
 7977SOL    HW331675   2.002   3.332   0.691  0.5708  0.6486  0.0315
 7977SOL    MW431676   1.975   3.408   0.659 -0.1892  0.1536  0.2914
 7978SOL     OW31677   1.158   3.205   2.516  0.2204 -0.3979 -0.3812
 7978SOL    HW231678   1.078   3.217   2.464 -0.0067  0.0839  0.0625
 7978SOL    HW331679   1.157   3.112   2.540  0.5183 -0.7106 -1.5225
 7978SOL    MW431680   1.147   3.194   2.512 -0.2766  0.5903 -0.2919
 7979SOL     OW31681   0.622   2.897   0.779  0.2084  0.8218 -0.5932
 7979SOL    HW231682   0.590   2.813   0.748  1.5840  0.0075  0.0691
 7979SOL    HW331683   0.607   2.895   0.874  4.1440 -0.6637  0.2216
 7979SOL    MW431684   0.616   2.885   0.788 -0.0678 -0.4776 -0.2791
 7980SOL     OW31685   5.830   0.267   0.180  0.8164  0.3771  0.7051
 7980SOL    HW231686   5.807   0.301   0.266 -0.2306  1.7533 -0.0991
 7980SOL    HW331687   5.747   0.253   0.136  1.2677 -1.8468  0.4448
 7980SOL    MW431688   5.816   0.269   0.186 -0.4870 -0.5273 -0.1939
 7981SOL     OW31689   5.113   6.030   2.889  0.4543 -0.2290  0.1023
 7981SOL    HW231690   5.124   6.114   2.845 -1.3979  0.4251  0.7777
 7981SOL    HW331691   5.093   5.968   2.819  0.6468  0.1345 -0.2801
 7981SOL    MW431692   5.112   6.033   2.874  0.5335  0.0602 -0.0532
 7982SOL     OW31693   4.127   3.731   3.875  0.2316  0.1781 -0.0049
 7982SOL    HW231694   4.183   3.720   3.952  1.6031 -1.6904 -1.1660
 7982SOL    HW331695   4.072   3.653   3.874  3.1257 -2.1120 -3.0370
 7982SOL    MW431696   4.127   3.719   3.885 -0.3009  0.0172 -0.1511
 7983SOL     OW31697   1.605   2.002   6.094  0.0738 -0.2688  0.7255
 7983SOL    HW231698   1.616   2.091   6.060  2.3516 -0.6214  0.3882
 7983SOL    HW331699   1.687   1.958   6.073 -1.6099 -3.0176 -0.6859
 7983SOL    MW431700   1.617   2.008   6.087  0.2463 -0.4082 -0.4559
 7984SOL     OW31701   6.457   3.211   2.851  0.5188  0.6553  0.4833
 7984SOL    HW231702   6.425   3.247   2.934 -0.0563  0.1677  0.4789
 7984SOL    HW331703   6.467   3.118   2.868  0.9023  0.6371  0.1560
 7984SOL    MW431704   6.454   3.204   2.864  0.0683  0.1578  0.1397
 7985SOL     OW31705   1.770   1.611   0.313 -0.1951 -0.0104  0.4066
 7985SOL    HW231706   1.771   1.544   0.245  3.2723  0.9585 -0.6640
 7985SOL    HW331707   1.692   1.664   0.294 -0.2237 -0.7555 -1.7726
 7985SOL    MW431708   1.760   1.609   0.302  0.2366 -0.5878  0.3289
 7986SOL     OW31709   0.064   2.184   4.894 -0.1831 -0.1509  0.4530
 7986SOL    HW231710  -0.007   2.236   4.932 -3.5070 -2.5065 -1.9689
 7986SOL    HW331711   0.083   2.118   4.961  0.2766  0.9058  1.3942
 7986SOL    MW431712   0.057   2.182   4.908  0.2427  0.7410 -0.2262
 7987SOL     OW31713   2.597   3.793   0.147 -0.0975  0.4014 -0.0442
 7987SOL    HW231714   2.662   3.853   0.185 -0.4070  0.2854  0.6821
 7987SOL    HW331715   2.572   3.736   0.219 -0.6782  0.1532 -0.4338
 7987SOL    MW431716   2.602   3.794   0.161 -0.1415 -0.2190  0.4644
 7988SOL     OW31717   2.407   1.130   2.230 -0.3622  0.1371 -0.0139
 7988SOL    HW231718   2.375   1.041   2.216  0.1222  0.2793 -2.5317
 7988SOL    HW331719   2.494   1.131   2.188  0.5402  1.2662  1.7681
 7988SOL    MW431720   2.414   1.119   2.223  0.0819 -0.8657  0.2570
 7989SOL     OW31721   5.622   4.202   5.492 -0.5110 -0.5257 -0.3470
 7989SOL    HW231722   5.540   4.162   5.522 -0.8507  0.5483  0.1824
 7989SOL    HW331723   5.606   4.222   5.399 -0.3938 -1.4390 -0.5779
 7989SOL    MW431724   5.609   4.199   5.484 -0.0392 -0.0515  0.1853
 7990SOL     OW31725   5.001   5.150   4.573 -0.0197  0.0471  0.2429
 7990SOL    HW231726   4.950   5.218   4.616 -1.5520 -0.0278 -1.3369
 7990SOL    HW331727   4.952   5.069   4.591 -0.0756 -0.1329 -0.6566
 7990SOL    MW431728   4.987   5.148   4.581  0.5107 -0.2860 -0.1105
 7991SOL     OW31729   2.785   4.108   2.075  0.3570  0.6920 -0.2941
 7991SOL    HW231730   2.726   4.148   2.139  1.1368  0.0326  0.8601
 7991SOL    HW331731   2.728   4.055   2.019 -0.6532  2.9973 -1.5998
 7991SOL    MW431732   2.770   4.107   2.076 -0.1765 -0.3291  0.3985
 7992SOL     OW31733   1.269   5.205   1.012 -0.3237  0.5583 -0.0109
 7992SOL    HW231734   1.315   5.165   0.938 -0.1091 -2.2957  1.5348
 7992SOL    HW331735   1.186   5.236   0.975  0.2298  0.1834 -1.6348
 7992SOL    MW431736   1.264   5.204   0.997 -0.0300 -0.3134 -0.0433
 7993SOL     OW31737   6.185   1.338   3.295  0.5445 -0.1323 -0.2178
 7993SOL    HW231738   6.096   1.367   3.275  0.1723 -1.4458 -0.5632
 7993SOL    HW331739   6.234   1.419   3.308 -0.4610  0.6383 -1.0456
 7993SOL    MW431740   6.179   1.352   3.294 -0.0646  0.6494 -0.1997
 7994SOL     OW31741   1.415   3.651   2.244  0.3028 -0.1299 -0.1303
 7994SOL    HW231742   1.414   3.744   2.266 -3.7092 -0.0369  0.0228
 7994SOL    HW331743   1.505   3.624   2.259  1.3123  3.3971  1.1785
 7994SOL    MW431744   1.426   3.660   2.249 -0.0428  0.4154 -0.2635
 7995SOL     OW31745   0.838   0.474   1.052  0.3094  0.4057 -0.3923
 7995SOL    HW231746   0.772   0.521   1.000 -0.0070  4.6305  3.2392
 7995SOL    HW331747   0.791   0.400   1.089 -0.2693 -0.8770 -3.3773
 7995SOL    MW431748   0.823   0.471   1.050 -0.2473 -0.5487  0.6068
 7996SOL     OW31749   1.725   6.196   0.090 -0.0386  0.2131  0.2997
 7996SOL    HW231750   1.795   6.194   0.155  1.0521 -0.3823 -0.8418
 7996SOL    HW331751   1.717   6.289   0.066  1.0250  0.1812 -0.2282
 7996SOL    MW431752   1.733   6.208   0.095 -0.5343 -0.3921  0.2780
 7997SOL     OW31753   5.050   0.262   2.167 -0.1761 -0.4062 -0.0684
 7997SOL    HW231754   5.119   0.324   2.145  0.4262 -0.7436  0.8201
 7997SOL    HW331755   4.999   0.306   2.235  0.2638 -0.8655  0.5781
 7997SOL    MW431756   5.052   0.276   2.173  0.1597 -0.0434  0.3389
 7998SOL     OW31757   2.086   5.940   2.221  0.3792  0.2545 -0.2875
 7998SOL    HW231758   2.037   6.012   2.181 -2.2378 -0.6953  0.9528
 7998SOL    HW331759   2.063   5.864   2.169  0.3592 -0.2541  0.4460
 7998SOL    MW431760   2.076   5.940   2.209  0.4380  1.0481  0.6182
 7999SOL     OW31761   1.234   1.737   3.299 -0.0698  0.3841 -0.3308
 7999SOL    HW231762   1.287   1.673   3.346 -1.4590 -0.4100  0.1994
 7999SOL    HW331763   1.264   1.732   3.208 -0.3804 -1.2782 -0.3627
 7999SOL    MW431764   1.245   1.728   3.293 -0.1185  0.3655 -0.4988
 8000SOL     OW31765   2.288   3.430   4.439  0.1741  0.2690 -0.3432
 8000SOL    HW231766   2.354   3.368   4.408  0.0805 -0.3947  0.7263
 8000SOL    HW331767   2.208   3.408   4.390 -0.4154 -1.8413  1.4253
 8000SOL    MW431768   2.286   3.419   4.428  0.6163  0.0766 -0.3928
 8001SOL     OW31769   0.409   0.058   0.127  0.3412  0.3070  0.2569
 8001SOL    HW231770   0.474   0.128   0.134  0.4156  0.1353  1.3565
 8001SOL    HW331771   0.440  -0.011   0.186 -0.4073 -0.1191  0.1704
 8001SOL    MW431772   0.422   0.058   0.135  0.0593 -0.5242 -0.5855
 8002SOL     OW31773   6.257   6.364   5.952 -0.3965  1.1430  0.1533
 8002SOL    HW231774   6.238   6.332   6.040  1.0024  1.2778  0.5264
 8002SOL    HW331775   6.181   6.419   5.930 -1.5157 -0.1790  0.6008
 8002SOL    MW431776   6.244   6.367   5.961 -0.7636 -0.2319 -0.2617
 8003SOL     OW31777   0.699   3.772   2.024 -0.1939  0.1863 -0.1919
 8003SOL    HW231778   0.683   3.682   1.996 -0.2063 -0.1068  0.7341
 8003SOL    HW331779   0.795   3.780   2.025 -0.1798  0.8517 -2.3065
 8003SOL    MW431780   0.710   3.761   2.020 -0.1684 -0.3169 -0.0499
 8004SOL     OW31781   5.227   1.613   1.993  0.2937 -0.1154 -0.0904
 8004SOL    HW231782   5.132   1.604   1.993  0.3259 -1.0695 -2.0130
 8004SOL    HW331783   5.244   1.684   1.931  0.8415 -0.3668 -0.2368
 8004SOL    MW431784   5.217   1.621   1.984  0.1668  0.3079 -0.3513
 8005SOL     OW31785   3.785   1.335   3.745  0.4875 -0.5612  0.2507
 8005SOL    HW231786   3.823   1.420   3.767  0.7465 -0.6284  0.0644
 8005SOL    HW331787   3.816   1.317   3.656 -0.8977 -0.0887 -0.3550
 8005SOL    MW431788   3.794   1.343   3.736 -0.0621 -0.3718  0.6265
 8006SOL     OW31789   0.682   0.071   3.912 -0.2406  0.1080  0.4834
 8006SOL    HW231790   0.619   0.013   3.869 -0.4047  1.3831 -1.1482
 8006SOL    HW331791   0.683   0.149   3.856  1.8238  0.6516  1.2073
 8006SOL    MW431792   0.673   0.074   3.899  0.2708  0.1461 -0.2268
 8007SOL     OW31793   0.459   5.352   4.632 -0.2352 -0.2901  0.0995
 8007SOL    HW231794   0.535   5.409   4.629  0.0630 -0.7076 -0.4631
 8007SOL    HW331795   0.403   5.389   4.701  0.8804 -0.4956  1.1377
 8007SOL    MW431796   0.461   5.364   4.641  0.4420  0.0300  0.0471
 8008SOL     OW31797   5.327   5.965   5.682 -0.0156  0.5386  0.7666
 8008SOL    HW231798   5.375   5.891   5.721 -1.5198 -0.9739 -0.1127
 8008SOL    HW331799   5.242   5.964   5.726 -0.3638  1.1964  0.1186
 8008SOL    MW431800   5.322   5.955   5.693  0.6440  0.3161 -0.5661
 8009SOL     OW31801   3.729   2.328   2.704  0.0382  0.3054  0.0599
 8009SOL    HW231802   3.727   2.256   2.767  1.1523  0.2254  0.0276
 8009SOL    HW331803   3.817   2.364   2.712 -0.3819  1.4247 -0.1988
 8009SOL    MW431804   3.741   2.323   2.713 -0.8099 -0.7096  0.1668
 8010SOL     OW31805   5.123   1.149   2.316 -0.0186 -0.4240 -0.1450
 8010SOL    HW231806   5.178   1.112   2.248 -0.5799 -0.4957 -0.5726
 8010SOL    HW331807   5.033   1.128   2.288 -0.3416  0.9785 -0.2603
 8010SOL    MW431808   5.118   1.142   2.303  0.1626 -0.0851  0.2097
 8011SOL     OW31809   6.009   0.998   1.327 -0.1483 -0.1582  0.1522
 8011SOL    HW231810   5.978   0.934   1.263 -0.9134  0.3167  0.0348
 8011SOL    HW331811   6.048   0.945   1.397  0.0631 -0.7044 -0.3740
 8011SOL    MW431812   6.010   0.982   1.328  0.3489 -0.1415 -0.4664
 8012SOL     OW31813   1.235   6.286   2.359  0.6498 -0.0542 -0.0575
 8012SOL    HW231814   1.324   6.286   2.325  0.9904  1.4891  0.7607
 8012SOL    HW331815   1.195   6.365   2.322 -0.0461 -0.1687  0.4270
 8012SOL    MW431816   1.241   6.296   2.349 -0.4866 -0.4442 -0.0328
 8013SOL     OW31817   1.721   0.229   2.416  0.3009  0.2570 -0.0785
 8013SOL    HW231818   1.802   0.228   2.468 -0.4319 -1.2241  1.0870
 8013SOL    HW331819   1.735   0.163   2.348  0.5501  0.9122 -0.6772
 8013SOL    MW431820   1.734   0.220   2.414  0.0233  0.0965  0.0624
 8014SOL     OW31821   3.049   6.030   5.596  0.1291 -0.4025 -0.2926
 8014SOL    HW231822   3.049   6.111   5.647  0.8216 -0.4825 -0.1458
 8014SOL    HW331823   3.032   6.059   5.506  0.9162 -0.0134 -0.3349
 8014SOL    MW431824   3.047   6.045   5.591 -0.3173 -0.0356 -0.0877
 8015SOL     OW31825   2.055   5.110   1.483 -0.5721  0.0835 -0.5717
 8015SOL    HW231826   2.118   5.060   1.431 -0.8860  0.4422 -1.3097
 8015SOL    HW331827   1.985   5.132   1.421  0.2516  2.7411 -0.7008
 8015SOL    MW431828   2.054   5.106   1.468 -0.1995 -0.7395 -0.6288
 8016SOL     OW31829   0.500   0.699   1.356 -0.4100 -0.4629 -0.2557
 8016SOL    HW231830   0.481   0.609   1.380 -1.3341 -0.0434  0.6331
 8016SOL    HW331831   0.590   0.697   1.323  0.1891 -1.4177  1.3412
 8016SOL    MW431832   0.509   0.687   1.354  0.4821  0.4038 -0.1991
 8017SOL     OW31833   2.179   3.017   0.594  0.6681  0.7228 -0.1863
 8017SOL    HW231834   2.180   2.922   0.587  0.3153  0.7392 -0.5007
 8017SOL    HW331835   2.268   3.041   0.620  0.7539  0.3066 -0.1028
 8017SOL    MW431836   2.191   3.008   0.596 -0.0104 -0.4951 -0.6092
 8018SOL     OW31837   3.128   6.272   0.053  0.4471  0.3165  0.7694
 8018SOL    HW231838   3.174   6.313  -0.020  2.7016 -1.3500  1.1137
 8018SOL    HW331839   3.048   6.237   0.015  0.3364  1.6886 -0.3175
 8018SOL    MW431840   3.124   6.273   0.039  0.2118 -0.2846 -0.1063
 8019SOL     OW31841   0.835   5.908   5.206  0.7301  0.3587 -0.4810
 8019SOL    HW231842   0.819   5.924   5.299  2.9420 -0.8487  0.1883
 8019SOL    HW331843   0.847   5.994   5.167 -0.4652  0.8869  0.2985
 8019SOL    MW431844   0.835   5.921   5.213  0.2525  0.2143  0.1915
 8020SOL     OW31845   2.581   2.381   0.751  0.4983 -0.0711 -0.3215
 8020SOL    HW231846   2.497   2.412   0.786  1.3989 -0.1844  2.1033
 8020SOL    HW331847   2.571   2.286   0.747  0.0856 -0.0032 -1.3278
 8020SOL    MW431848   2.568   2.372   0.755  0.0315  0.0687  0.0397
 8021SOL     OW31849   3.574   0.373   2.773  0.2282  0.6003  0.3179
 8021SOL    HW231850   3.640   0.441   2.757  0.7509  0.0261 -0.0110
 8021SOL    HW331851   3.604   0.330   2.853  2.2753 -1.9744 -1.6682
 8021SOL    MW431852   3.587   0.376   2.782  0.2216 -0.0409  0.1113
 8022SOL     OW31853   1.439   2.926   2.642 -0.2936  0.1147  0.2835
 8022SOL    HW231854   1.458   2.943   2.734 -0.7137 -0.7630  0.5401
 8022SOL    HW331855   1.343   2.926   2.636 -0.3082 -1.3572  0.1626
 8022SOL    MW431856   1.429   2.928   2.653  0.0493 -0.3139  0.1964
 8023SOL     OW31857   3.288   2.941   5.501  0.3677  0.1513 -0.4399
 8023SOL    HW231858   3.356   2.898   5.552  0.0867  0.2462  0.0217
 8023SOL    HW331859   3.333   2.977   5.425  0.7572 -0.1554 -0.3536
 8023SOL    MW431860   3.303   2.940   5.498 -0.7086  0.6024 -0.5904
 8024SOL     OW31861   4.314   5.177   4.251 -0.2950  0.5170 -0.3927
 8024SOL    HW231862   4.368   5.243   4.207  0.0773  0.0562 -0.6340
 8024SOL    HW331863   4.228   5.185   4.209 -0.1075  0.4949 -0.7896
 8024SOL    MW431864   4.309   5.187   4.239 -0.8186 -0.2409 -0.4367
 8025SOL     OW31865   1.706   5.822   1.925 -0.3945  0.4971  0.3743
 8025SOL    HW231866   1.779   5.803   1.867  0.5490 -0.9097  1.9353
 8025SOL    HW331867   1.729   5.905   1.967  0.5398 -0.1310  1.1481
 8025SOL    MW431868   1.719   5.831   1.923 -0.3938 -1.1110 -0.3809
 8026SOL     OW31869   4.988   4.332   0.200 -0.2770  0.6571 -0.2385
 8026SOL    HW231870   5.012   4.280   0.123  2.0717  1.4110 -0.1046
 8026SOL    HW331871   4.986   4.422   0.168  1.9216  1.1244  0.7454
 8026SOL    MW431872   4.991   4.337   0.185  0.4871  0.0401 -0.2346
 8027SOL     OW31873   4.526   5.552   5.669  0.0483 -0.6447  0.3855
 8027SOL    HW231874   4.477   5.518   5.595  0.0689  0.1213  0.0104
 8027SOL    HW331875   4.461   5.565   5.738 -0.7035  2.2357 -0.7306
 8027SOL    MW431876   4.511   5.549   5.668  0.2559  0.1590 -0.5512
 8028SOL     OW31877   3.619   4.086   1.036 -0.3614 -0.4768 -0.3242
 8028SOL    HW231878   3.661   4.024   1.096  1.0397  0.6216 -0.1226
 8028SOL    HW331879   3.538   4.110   1.080 -0.7955 -1.9264 -0.2730
 8028SOL    MW431880   3.614   4.081   1.050  0.2485  0.5749 -0.6411
 8029SOL     OW31881   1.424   3.988   2.107 -0.2611  0.4559 -0.4058
 8029SOL    HW231882   1.427   3.910   2.052  0.5021  0.4632 -0.3789
 8029SOL    HW331883   1.497   4.042   2.077  0.5325  0.2054  0.9797
 8029SOL    MW431884   1.434   3.985   2.096 -0.1024  0.1940  0.2218
 8030SOL     OW31885   3.124   6.271   2.347  0.3839  0.2557 -0.2558
 8030SOL    HW231886   3.052   6.222   2.386  0.8576  0.6069  1.0897
 8030SOL    HW331887   3.122   6.247   2.254 -0.4035 -1.0420  0.0809
 8030SOL    MW431888   3.114   6.261   2.340  0.3821 -0.0375 -0.4180
 8031SOL     OW31889   1.988   0.553   5.580 -0.0448 -0.0138  0.2804
 8031SOL    HW231890   1.996   0.627   5.641  0.3568 -0.5519  0.8925
 8031SOL    HW331891   2.054   0.491   5.609 -0.5935 -0.7556 -0.0351
 8031SOL    MW431892   1.998   0.555   5.592  0.1795 -0.1072  0.5308
 8032SOL     OW31893   1.297   5.830   5.346 -0.2347  0.1006 -0.3569
 8032SOL    HW231894   1.222   5.834   5.286 -1.2741 -1.2395  0.8000
 8032SOL    HW331895   1.308   5.737   5.365  2.0300  0.2144 -0.8229
 8032SOL    MW431896   1.289   5.818   5.340 -0.1538 -0.4370 -0.5906
 8033SOL     OW31897   2.332   3.412   2.511  0.1428  0.4544  0.6509
 8033SOL    HW231898   2.262   3.347   2.514  0.1769  0.4437  1.4387
 8033SOL    HW331899   2.317   3.468   2.587  0.7201  0.7320  0.5702
 8033SOL    MW431900   2.321   3.411   2.521  0.4233 -0.4355  0.0330
 8034SOL     OW31901   4.200   4.957   2.129 -0.1362 -0.3092 -0.3623
 8034SOL    HW231902   4.214   4.869   2.164  1.1147 -0.0452 -0.1348
 8034SOL    HW331903   4.106   4.971   2.135 -0.1753 -1.0281  1.0896
 8034SOL    MW431904   4.190   4.947   2.135 -0.0134 -0.4828  0.0230
 8035SOL     OW31905   3.899   5.981   4.588 -0.0891  0.1142 -0.1766
 8035SOL    HW231906   3.923   5.955   4.677  0.8678 -0.1650 -0.5027
 8035SOL    HW331907   3.850   5.906   4.554 -1.3951  0.6562  0.4710
 8035SOL    MW431908   3.896   5.967   4.595  0.3218  0.2592 -0.0447
 8036SOL     OW31909   0.777   0.089   3.111 -0.5287 -0.1956 -0.6103
 8036SOL    HW231910   0.792   0.045   3.027 -1.2243 -1.4462 -0.1093
 8036SOL    HW331911   0.864   0.097   3.149 -0.0798  1.2140 -1.8047
 8036SOL    MW431912   0.790   0.084   3.105  0.2683  0.1219 -0.3751
 8037SOL     OW31913   2.217   3.042   4.327  0.2732  0.0662  0.3623
 8037SOL    HW231914   2.288   2.979   4.318  0.6649  0.3376  1.3995
 8037SOL    HW331915   2.248   3.104   4.393 -0.9794  0.1151  0.9381
 8037SOL    MW431916   2.230   3.042   4.335 -0.4682 -0.4960 -0.8757
 8038SOL     OW31917   6.289   4.088   1.914  0.4558  0.0946  0.5700
 8038SOL    HW231918   6.289   3.995   1.936 -1.2047 -0.1895 -0.4180
 8038SOL    HW331919   6.371   4.122   1.950  0.9942 -1.6996  1.1210
 8038SOL    MW431920   6.299   4.080   1.922  0.1298 -0.2762 -0.5267
 8039SOL     OW31921   1.037   0.699   2.000 -0.0057  0.2237  0.5962
 8039SOL    HW231922   0.949   0.674   1.971  0.5268  0.6833 -1.6195
 8039SOL    HW331923   1.090   0.621   1.985  0.3970  0.6508 -0.2529
 8039SOL    MW431924   1.032   0.686   1.994 -0.3691  0.0553 -0.0767
 8040SOL     OW31925   6.240   5.219   4.300  0.2425  0.3030 -0.5079
 8040SOL    HW231926   6.329   5.234   4.332  0.6068 -0.5880 -1.0650
 8040SOL    HW331927   6.246   5.138   4.250 -1.5678 -1.8085  2.3143
 8040SOL    MW431928   6.252   5.210   4.298 -0.6794 -0.9547 -0.4561
 8041SOL     OW31929   1.646   0.787   2.127  0.0522 -0.0826 -0.0077
 8041SOL    HW231930   1.585   0.819   2.060 -1.1646 -1.3548  0.4218
 8041SOL    HW331931   1.707   0.859   2.140 -1.2434  1.1951 -0.6187
 8041SOL    MW431932   1.646   0.801   2.120 -0.3365  0.3883  0.0095
 8042SOL     OW31933   2.649   1.334   4.094 -1.1038 -0.1055  0.0790
 8042SOL    HW231934   2.626   1.351   4.003 -1.6653 -2.0025 -0.1846
 8042SOL    HW331935   2.619   1.412   4.142  2.5805  2.6961 -1.7196
 8042SOL    MW431936   2.642   1.347   4.089  0.0725 -0.2842  0.1449
 8043SOL     OW31937   0.597   1.064   1.312 -0.2152  0.2699  0.1362
 8043SOL    HW231938   0.648   0.998   1.264  0.4186  0.3153  0.7184
 8043SOL    HW331939   0.643   1.146   1.294 -0.7695  0.4942 -0.2641
 8043SOL    MW431940   0.610   1.066   1.303 -0.4673 -0.2957 -0.5776
 8044SOL     OW31941   6.236   2.596   2.897  0.3367 -0.1333 -0.1089
 8044SOL    HW231942   6.288   2.628   2.971  1.1125 -1.4623 -0.0466
 8044SOL    HW331943   6.225   2.503   2.914 -1.4020 -0.0354 -0.5529
 8044SOL    MW431944   6.242   2.588   2.909  0.9982 -0.5491 -0.3779
 8045SOL     OW31945   4.883   2.603   5.912 -0.2434 -0.2733  0.1581
 8045SOL    HW231946   4.866   2.565   5.998  1.8442 -0.2407  0.6376
 8045SOL    HW331947   4.886   2.527   5.853 -2.1640 -0.2572 -0.0283
 8045SOL    MW431948   4.881   2.588   5.916  0.5395 -0.5555  0.2508
 8046SOL     OW31949   1.173   5.805   2.356 -0.0979  0.6023  0.6833
 8046SOL    HW231950   1.176   5.772   2.446 -1.6418  0.0285  0.5544
 8046SOL    HW331951   1.134   5.892   2.363  1.5787  1.4019  0.7376
 8046SOL    MW431952   1.169   5.812   2.369  0.1075 -0.2643 -0.1938
 8047SOL     OW31953   5.856   1.716   4.578  0.2440  0.0593  0.1105
 8047SOL    HW231954   5.799   1.682   4.647 -1.5584  1.3403 -0.6941
 8047SOL    HW331955   5.842   1.811   4.579  1.3218  0.2609 -1.0358
 8047SOL    MW431956   5.847   1.724   4.588  0.2871  0.5008 -0.0861
 8048SOL     OW31957   3.002   5.850   0.793  0.3718 -0.0832  0.6862
 8048SOL    HW231958   3.053   5.818   0.718  0.4281 -0.6308  0.9554
 8048SOL    HW331959   2.922   5.885   0.754 -0.4317 -1.9978  0.4862
 8048SOL    MW431960   2.999   5.850   0.778  0.0119 -0.5819  0.2866
 8049SOL     OW31961   4.736   2.758   0.621  0.4431 -0.0843  0.7873
 8049SOL    HW231962   4.642   2.740   0.627  0.2166 -0.9299 -2.9502
 8049SOL    HW331963   4.774   2.711   0.695 -1.8437 -1.9063  0.9229
 8049SOL    MW431964   4.728   2.750   0.631 -0.0087 -0.0865 -0.0467
 8050SOL     OW31965   2.679   5.141   0.493 -0.2924  0.1858  0.2106
 8050SOL    HW231966   2.763   5.160   0.452 -0.7929  1.4348 -0.2863
 8050SOL    HW331967   2.681   5.047   0.511  1.3577  0.2728  0.5693
 8050SOL    MW431968   2.690   5.131   0.490 -0.1568  0.4203 -0.7313
 8051SOL     OW31969   0.863   5.892   0.421 -0.0891  0.0635  0.3594
 8051SOL    HW231970   0.816   5.856   0.345 -0.5910  1.7348 -0.1505
 8051SOL    HW331971   0.947   5.920   0.385  0.7541 -1.5286  0.9772
 8051SOL    MW431972   0.868   5.891   0.406  0.2177  0.3676 -0.1171
 8052SOL     OW31973   2.583   0.262   1.759  0.8791 -0.0631  0.6336
 8052SOL    HW231974   2.609   0.318   1.832  1.2867  0.9717 -0.2764
 8052SOL    HW331975   2.499   0.298   1.729  1.2581  0.2533 -0.1046
 8052SOL    MW431976   2.576   0.274   1.764  0.2031 -0.0474  0.0842
 8053SOL     OW31977   0.707   1.902   5.368  0.3104 -0.6509  0.8351
 8053SOL    HW231978   0.662   1.945   5.441  1.1479  0.3549  0.7803
 8053SOL    HW331979   0.781   1.857   5.409  0.3821 -0.6739  0.6788
 8053SOL    MW431980   0.710   1.901   5.383  0.3214  0.5956  0.1281
 8054SOL     OW31981   1.117   4.324   5.659  0.5187  0.2989 -0.0950
 8054SOL    HW231982   1.161   4.385   5.718  0.6287 -1.0320  1.2596
 8054SOL    HW331983   1.187   4.264   5.631  0.2165  0.1891 -0.6280
 8054SOL    MW431984   1.132   4.324   5.663  0.4511 -0.2755  0.4689
 8055SOL     OW31985   4.240   0.477   1.432  0.3498 -0.7229  0.2465
 8055SOL    HW231986   4.215   0.385   1.422  1.6771 -1.3114  1.8474
 8055SOL    HW331987   4.336   0.476   1.426  0.3184  0.7638 -1.0473
 8055SOL    MW431988   4.250   0.464   1.430  0.4269 -0.4842 -0.5229
 8056SOL     OW31989   6.186   4.727   0.266  0.0081 -0.1421 -0.3794
 8056SOL    HW231990   6.109   4.672   0.278  0.9476 -0.8986  3.2599
 8056SOL    HW331991   6.258   4.677   0.304  1.8491  1.6149 -1.3334
 8056SOL    MW431992   6.186   4.713   0.273 -0.3394 -0.2728  0.0850
 8057SOL     OW31993   2.373   0.777   4.323 -0.2793  0.8303  0.3112
 8057SOL    HW231994   2.404   0.826   4.399  1.8873  0.7617 -0.4458
 8057SOL    HW331995   2.351   0.691   4.357 -1.2803  1.4144  1.1754
 8057SOL    MW431996   2.375   0.772   4.337 -0.0534  0.4913  0.1791
 8058SOL     OW31997   3.126   2.886   2.037 -0.0552  0.3108  0.3953
 8058SOL    HW231998   3.051   2.852   2.086  0.0054 -0.7411 -0.2072
 8058SOL    HW331999   3.094   2.892   1.947  0.4300  0.3370  0.2244
 8058SOL    MW432000   3.112   2.882   2.032 -0.7872 -0.6318 -0.2288
 8059SOL     OW32001   0.902   0.730   1.665 -0.0349  0.1766  0.3014
 8059SOL    HW232002   0.870   0.673   1.734 -1.4695  0.1105 -0.3588
 8059SOL    HW332003   0.863   0.815   1.685 -1.6092 -0.1548 -1.1124
 8059SOL    MW432004   0.892   0.734   1.677  0.5240 -0.2934 -0.0915
 8060SOL     OW32005   5.288   2.744   0.473  0.1729 -0.0486  0.0288
 8060SOL    HW232006   5.213   2.729   0.531  1.1297 -1.7683  0.8883
 8060SOL    HW332007   5.356   2.780   0.531  0.1946  1.0573 -0.6513
 8060SOL    MW432008   5.287   2.747   0.489 -0.7079 -0.7679 -0.6770
 8061SOL     OW32009   2.802   5.083   2.732  0.1029 -0.2929  0.4802
 8061SOL    HW232010   2.780   5.169   2.699  0.5814  0.1108  1.1771
 8061SOL    HW332011   2.775   5.022   2.663 -0.5307  0.3868  0.1223
 8061SOL    MW432012   2.796   5.086   2.719  0.4405  0.6353 -0.2316
 8062SOL     OW32013   0.797   0.264   2.585 -0.3642  0.0325 -0.1866
 8062SOL    HW232014   0.890   0.284   2.576 -0.5050  0.8971  0.1602
 8062SOL    HW332015   0.782   0.261   2.679 -1.0662  1.8172 -0.2120
 8062SOL    MW432016   0.807   0.266   2.596 -0.6078 -0.3899  0.1812
 8063SOL     OW32017   6.232   6.132   5.124  0.0393  0.1757  0.4453
 8063SOL    HW232018   6.220   6.042   5.095 -1.4902  0.9284 -1.5653
 8063SOL    HW332019   6.305   6.165   5.071 -0.9269  0.7528 -0.5648
 8063SOL    MW432020   6.240   6.125   5.113 -0.0061  0.3800  0.0345
 8064SOL     OW32021   3.908   2.976   3.435 -0.0190 -0.2601 -0.2191
 8064SOL    HW232022   3.943   2.975   3.346 -0.0463 -3.2562 -0.2741
 8064SOL    HW332023   3.983   2.957   3.491  0.0630  1.8965  0.5099
 8064SOL    MW432024   3.922   2.973   3.431  0.3054 -0.2393 -0.5227
 8065SOL     OW32025   2.672   6.095   3.229  0.1840  0.1170 -0.3033
 8065SOL    HW232026   2.668   6.078   3.323 -1.5789 -0.3961 -0.4427
 8065SOL    HW332027   2.691   6.010   3.190 -1.3015 -0.1361 -0.5282
 8065SOL    MW432028   2.674   6.082   3.236  0.3875 -0.2636 -0.2114
 8066SOL     OW32029   0.275   1.846   4.880  0.1963  0.7716 -0.3246
 8066SOL    HW232030   0.236   1.769   4.838  0.9296 -0.1361  0.6200
 8066SOL    HW332031   0.204   1.886   4.929  0.4506 -1.0221  1.6065
 8066SOL    MW432032   0.261   1.841   4.881 -0.1581 -0.2749  0.0272
 8067SOL     OW32033   1.406   4.011   3.496 -0.1319 -0.6393 -0.1209
 8067SOL    HW232034   1.435   4.042   3.582  1.6956  1.3237 -1.3766
 8067SOL    HW332035   1.476   3.953   3.467  0.9467  1.3336 -1.6588
 8067SOL    MW432036   1.419   4.007   3.504 -0.4329 -0.4765 -0.1397
 8068SOL     OW32037   3.058   4.415   0.598 -0.1681  0.2459  0.3870
 8068SOL    HW232038   3.112   4.437   0.521 -2.1693  1.0478 -0.8929
 8068SOL    HW332039   3.111   4.442   0.673  1.1125  1.1996 -0.7980
 8068SOL    MW432040   3.072   4.422   0.597  0.2591  0.4534  0.0530
 8069SOL     OW32041   1.793   4.456   0.081  0.1302  0.1298 -0.1597
 8069SOL    HW232042   1.797   4.391   0.151  1.6636  1.1881  0.7913
 8069SOL    HW332043   1.846   4.418   0.011 -0.0990 -0.2407 -0.1349
 8069SOL    MW432044   1.800   4.442   0.081  0.1382  0.1635  0.3754
 8070SOL     OW32045   5.432   6.258   4.985 -0.2325 -0.4708  0.0017
 8070SOL    HW232046   5.522   6.262   4.952 -0.5595  1.0187 -0.8178
 8070SOL    HW332047   5.406   6.167   4.973  0.2109 -0.3390 -2.4433
 8070SOL    MW432048   5.441   6.247   4.979  0.0170 -0.3962 -0.2705
 8071SOL     OW32049   6.369   5.722   3.953 -0.1203  0.4581 -0.4389
 8071SOL    HW232050   6.379   5.726   4.048  0.2967 -0.2910 -0.4440
 8071SOL    HW332051   6.278   5.749   3.938 -1.0144 -1.7944  0.3969
 8071SOL    MW432052   6.358   5.726   3.964  0.2337  0.5679 -0.0566
 8072SOL     OW32053   4.212   5.158   2.326  0.0031 -0.0759 -0.0476
 8072SOL    HW232054   4.161   5.231   2.289 -0.0729  0.4250  1.0148
 8072SOL    HW332055   4.233   5.103   2.250 -0.1277  0.9292 -0.8352
 8072SOL    MW432056   4.208   5.161   2.311  0.2549  0.7220 -0.1211
 8073SOL     OW32057   6.343   1.456   3.797 -0.4205  0.4402  0.2278
 8073SOL    HW232058   6.349   1.459   3.892 -0.4096  0.6413  0.2209
 8073SOL    HW332059   6.410   1.517   3.767 -0.1170  0.0438  0.0818
 8073SOL    MW432060   6.353   1.464   3.805 -0.2475  0.4354 -0.5289
 8074SOL     OW32061   4.880   0.339   2.396 -0.3952 -0.7564  0.3553
 8074SOL    HW232062   4.830   0.406   2.349  0.7989 -0.8398 -1.1134
 8074SOL    HW332063   4.915   0.385   2.472 -0.7857 -0.1035  0.1545
 8074SOL    MW432064   4.878   0.354   2.400 -1.1709  0.0689 -0.0300
 8075SOL     OW32065   4.001   3.243   6.240  0.3381 -0.6782 -0.3236
 8075SOL    HW232066   4.068   3.217   6.303  0.3072  0.4812  0.2132
 8075SOL    HW332067   3.931   3.178   6.251 -0.0095 -0.0638  1.4287
 8075SOL    MW432068   4.001   3.231   6.250  0.0303  0.5015 -0.3529
 8076SOL     OW32069   1.940   5.028   3.661  0.0151  0.1536 -0.1218
 8076SOL    HW232070   1.943   4.940   3.625 -0.2501  0.3203 -0.5534
 8076SOL    HW332071   1.848   5.054   3.654  0.1484  0.5886 -0.2874
 8076SOL    MW432072   1.928   5.020   3.656  0.0676 -0.5983  0.1504
 8077SOL     OW32073   6.126   4.507   4.481 -0.0551 -0.4807  0.3300
 8077SOL    HW232074   6.035   4.483   4.466 -0.3929  0.9813 -0.1589
 8077SOL    HW332075   6.128   4.602   4.469  1.5561 -0.4996  0.1845
 8077SOL    MW432076   6.114   4.517   4.477 -0.0733 -0.1531 -0.4925
 8078SOL     OW32077   1.749   4.980   4.568  0.2107 -0.2691  0.0082
 8078SOL    HW232078   1.740   4.904   4.626 -1.0662  1.5014  2.2834
 8078SOL    HW332079   1.675   5.036   4.591  0.6058  1.2913 -2.2428
 8078SOL    MW432080   1.738   4.977   4.579  0.2929 -0.3288  0.0400
 8079SOL     OW32081   0.126   4.582   4.063 -0.1605  0.1436  0.5265
 8079SOL    HW232082   0.172   4.561   3.982 -1.6806 -1.0246 -0.1009
 8079SOL    HW332083   0.060   4.513   4.071 -0.2754  0.4273  2.5892
 8079SOL    MW432084   0.123   4.570   4.054  0.1535  0.6283  0.4092
 8080SOL     OW32085   5.946   5.279   0.436  0.3565 -0.3075  0.2287
 8080SOL    HW232086   5.954   5.366   0.396  1.6803  0.0306  1.1614
 8080SOL    HW332087   6.036   5.256   0.460  0.1729 -2.3243 -0.7624
 8080SOL    MW432088   5.959   5.288   0.434  0.0083  0.3860  0.1031
 8081SOL     OW32089   0.810   2.264   6.304 -0.3678  0.4879 -0.2956
 8081SOL    HW232090   0.821   2.354   6.273  1.1473  1.2773  2.1739
 8081SOL    HW332091   0.837   2.209   6.231  0.0715  2.0793 -1.3761
 8081SOL    MW432092   0.815   2.269   6.290  0.4543  0.0993  1.0224
 8082SOL     OW32093   4.344   5.514   0.675  0.4307  0.2580 -0.6478
 8082SOL    HW232094   4.372   5.481   0.760 -0.4021 -0.5992 -0.6908
 8082SOL    HW332095   4.250   5.500   0.674  0.3281  0.9222 -1.4383
 8082SOL    MW432096   4.335   5.508   0.686 -0.3323 -0.5438  0.4639
 8083SOL     OW32097   5.397   5.894   3.426 -0.2356 -0.3127 -0.2457
 8083SOL    HW232098   5.488   5.865   3.428 -0.0563  0.2658  0.1774
 8083SOL    HW332099   5.395   5.971   3.483 -1.0440 -0.4728 -0.0514
 8083SOL    MW432100   5.409   5.900   3.433  0.0329  0.4068  0.5570
 8084SOL     OW32101   3.455   1.000   5.436  0.0148 -0.2960 -0.1371
 8084SOL    HW232102   3.538   1.015   5.391  0.9036 -2.2404  0.7382
 8084SOL    HW332103   3.391   0.988   5.366  0.4528  1.1401 -0.8235
 8084SOL    MW432104   3.458   1.001   5.421 -0.1311  0.3300  0.3728
 8085SOL     OW32105   4.879   4.916   5.710  0.9572  0.3269 -0.1000
 8085SOL    HW232106   4.852   4.824   5.719 -1.2065  0.6666 -2.2526
 8085SOL    HW332107   4.852   4.957   5.792 -0.5613 -0.4342 -0.1836
 8085SOL    MW432108   4.872   4.909   5.722 -0.1613  0.0868 -0.0197
 8086SOL     OW32109   4.217   6.094   3.517  0.1881 -0.2776  0.2739
 8086SOL    HW232110   4.250   6.130   3.435 -0.6039  0.4083  0.2443
 8086SOL    HW332111   4.288   6.038   3.549  1.8288  1.9649  0.7493
 8086SOL    MW432112   4.231   6.091   3.511  0.8585 -0.0409 -0.6489
 8087SOL     OW32113   3.894   0.111   4.488  0.2673 -0.4375 -0.2804
 8087SOL    HW232114   3.897   0.177   4.419 -0.7769  0.1116  0.1611
 8087SOL    HW332115   3.959   0.046   4.463  0.9137  0.4725 -1.0265
 8087SOL    MW432116   3.903   0.111   4.475 -0.2263 -0.2956  0.1334
 8088SOL     OW32117   2.035   2.927   4.005 -0.1112  0.6278 -0.0343
 8088SOL    HW232118   2.026   3.018   4.034 -1.8338  0.8921 -1.1975
 8088SOL    HW332119   1.956   2.911   3.953  1.9140 -0.3368 -3.0706
 8088SOL    MW432120   2.023   2.937   4.002 -0.5207 -0.3510 -0.6927
 8089SOL     OW32121   3.249   3.680   6.317 -0.4178  1.0493  0.3362
 8089SOL    HW232122   3.285   3.768   6.319 -1.4630  1.4871  0.8776
 8089SOL    HW332123   3.188   3.677   6.391  0.1718 -0.3864  0.7981
 8089SOL    MW432124   3.246   3.691   6.327 -0.2645  0.7547  0.2535
 8090SOL     OW32125   4.436   4.724   1.868 -0.0942 -0.1408  0.3423
 8090SOL    HW232126   4.409   4.642   1.910 -0.3177  0.3424  1.1784
 8090SOL    HW332127   4.361   4.783   1.881  0.7217  0.7333  1.2895
 8090SOL    MW432128   4.422   4.721   1.875  0.3726 -0.6369 -0.2401
 8091SOL     OW32129   2.414   5.097   4.459 -0.1291  0.5850 -0.0946
 8091SOL    HW232130   2.471   5.080   4.534  0.4396  0.6415 -0.5021
 8091SOL    HW332131   2.474   5.127   4.390 -0.7555  1.4508 -0.2776
 8091SOL    MW432132   2.430   5.098   4.460  0.0493  0.4067  0.3114
 8092SOL     OW32133   1.770   5.676   4.144 -0.3102 -0.4778  0.7107
 8092SOL    HW232134   1.815   5.649   4.223  2.4469 -0.2714 -0.6784
 8092SOL    HW332135   1.761   5.771   4.153 -0.8074 -0.5534  1.1116
 8092SOL    MW432136   1.774   5.685   4.156 -0.2981  0.0989  0.7353
 8093SOL     OW32137   5.580   6.077   5.210 -0.2375 -0.4038  0.5393
 8093SOL    HW232138   5.530   6.136   5.154 -1.3777 -0.8791  1.0200
 8093SOL    HW332139   5.551   5.989   5.185  0.1643 -0.6812  1.0091
 8093SOL    MW432140   5.570   6.073   5.199 -0.0295  0.0727 -0.3056
 8094SOL     OW32141   5.049   3.370   1.185 -0.4084  0.0523 -0.0468
 8094SOL    HW232142   5.042   3.275   1.196  2.2861 -0.2715 -0.5809
 8094SOL    HW332143   5.033   3.405   1.273  4.1756 -1.3734  1.6062
 8094SOL    MW432144   5.046   3.362   1.198  0.5695 -0.4383 -0.0373
 8095SOL     OW32145   3.815   4.380   2.595 -0.2778 -0.5739  0.8151
 8095SOL    HW232146   3.755   4.326   2.647 -1.4915 -0.3531 -0.3341
 8095SOL    HW332147   3.829   4.458   2.649 -0.1876 -1.0786  1.5441
 8095SOL    MW432148   3.809   4.383   2.609 -0.5744 -0.0929 -0.0897
 8096SOL     OW32149   1.955   4.055   2.115  0.5118 -0.0019  0.5998
 8096SOL    HW232150   1.887   3.999   2.078 -0.3266  1.9369 -0.9891
 8096SOL    HW332151   2.037   4.019   2.084 -0.0413 -0.0616 -0.8446
 8096SOL    MW432152   1.957   4.043   2.106  0.0629 -0.7214 -0.2063
 8097SOL     OW32153   6.195   6.425   3.126 -0.4147  0.1360 -0.1773
 8097SOL    HW232154   6.182   6.520   3.123  1.3232  0.3902 -1.8159
 8097SOL    HW332155   6.290   6.413   3.116 -0.2121 -1.7372  2.6306
 8097SOL    MW432156   6.206   6.436   3.124 -0.2562  0.2226 -0.6879
 8098SOL     OW32157   4.758   4.169   1.352 -0.1012  0.4204 -0.1199
 8098SOL    HW232158   4.811   4.244   1.327  2.1101 -0.9338  0.1939
 8098SOL    HW332159   4.787   4.099   1.292 -1.2314 -0.4914  0.3660
 8098SOL    MW432160   4.769   4.169   1.341 -0.3138  0.2692 -0.5824
 8099SOL     OW32161   3.153   3.858   0.541 -0.1774 -0.1145  0.3639
 8099SOL    HW232162   3.194   3.944   0.556  1.5781 -0.7343 -0.5262
 8099SOL    HW332163   3.150   3.818   0.628 -1.4038  0.9880  0.8553
 8099SOL    MW432164   3.158   3.864   0.554 -0.4362  0.6894 -0.1008
 8100SOL     OW32165   1.175   1.971   3.920 -0.2477 -0.1766 -0.0815
 8100SOL    HW232166   1.248   1.914   3.894 -1.9366 -2.0283 -0.9989
 8100SOL    HW332167   1.189   2.051   3.871  1.6647 -0.1005  0.4916
 8100SOL    MW432168   1.187   1.974   3.910 -0.1738  0.1733  0.7103
 8101SOL     OW32169   3.671   1.756   3.572  0.1137 -0.0449 -0.0547
 8101SOL    HW232170   3.733   1.683   3.575 -0.0212 -0.1366  0.8997
 8101SOL    HW332171   3.585   1.714   3.575  0.0378  0.1539  1.0411
 8101SOL    MW432172   3.668   1.740   3.573 -0.3487 -0.2857 -0.2802
 8102SOL     OW32173   5.850   4.926   5.510 -0.3861  0.5697  0.2393
 8102SOL    HW232174   5.811   4.879   5.583  1.1021 -0.5301  0.3768
 8102SOL    HW332175   5.797   4.901   5.434 -1.1520  0.6953  0.7312
 8102SOL    MW432176   5.838   4.917   5.509  0.1452 -0.3430  0.5455
 8103SOL     OW32177   6.444   1.413   1.729  0.3265 -0.6616 -0.2309
 8103SOL    HW232178   6.381   1.405   1.801 -0.9132  1.3379 -0.9961
 8103SOL    HW332179   6.431   1.333   1.678 -0.2278 -1.1627  0.6464
 8103SOL    MW432180   6.434   1.401   1.732 -0.0711 -0.3488 -0.1354
 8104SOL     OW32181   2.128   5.374   4.647 -0.1908  0.4452  0.4503
 8104SOL    HW232182   2.177   5.405   4.723 -1.0785 -0.6071  1.5122
 8104SOL    HW332183   2.039   5.361   4.681 -0.4068 -0.8355 -0.5501
 8104SOL    MW432184   2.123   5.376   4.662 -0.0694 -0.2963  0.2741
 8105SOL     OW32185   2.861   5.140   3.337  0.0672  0.0351  0.4067
 8105SOL    HW232186   2.809   5.106   3.265  0.1622 -0.2782  0.4867
 8105SOL    HW332187   2.950   5.147   3.302  0.2687 -0.8468  0.7246
 8105SOL    MW432188   2.866   5.137   3.323 -0.0934  0.5759  0.0417
 8106SOL     OW32189   0.284   5.463   4.847 -0.3185  0.1520  0.3754
 8106SOL    HW232190   0.214   5.521   4.879 -0.7465 -0.6590  0.9326
 8106SOL    HW332191   0.364   5.513   4.861 -0.4851 -0.1157  2.6872
 8106SOL    MW432192   0.285   5.478   4.853 -0.1866 -0.6354  0.0977
 8107SOL     OW32193   5.495   3.107   5.882  0.0009  0.0463 -0.6337
 8107SOL    HW232194   5.464   3.193   5.855 -0.2338 -0.3574 -1.6739
 8107SOL    HW332195   5.421   3.049   5.868 -0.4960 -0.0367  1.8538
 8107SOL    MW432196   5.481   3.110   5.877  0.0560 -0.5659 -0.0220
 8108SOL     OW32197   3.827   0.521   0.470  0.1390  0.4106  0.8337
 8108SOL    HW232198   3.784   0.549   0.551  0.4144  1.6927  0.5557
 8108SOL    HW332199   3.915   0.559   0.476  1.0200 -1.5522  1.0542
 8108SOL    MW432200   3.833   0.530   0.482 -0.1467 -0.0470  0.0947
 8109SOL     OW32201   4.933   2.934   1.836 -0.1417  0.0853  0.0263
 8109SOL    HW232202   4.903   2.867   1.774  1.5640 -0.8877  0.1970
 8109SOL    HW332203   4.995   2.987   1.786  1.0560 -0.5514  0.7891
 8109SOL    MW432204   4.937   2.932   1.821 -0.2573  0.4460 -0.6086
 8110SOL     OW32205   1.528   2.047   3.079 -0.0572 -0.1113  0.1647
 8110SOL    HW232206   1.463   2.082   3.140 -0.1047 -1.3676  0.8825
 8110SOL    HW332207   1.572   1.978   3.128 -0.2726 -1.3522 -1.2994
 8110SOL    MW432208   1.525   2.042   3.094 -0.3412 -0.4916  0.0470
 8111SOL     OW32209   4.657   5.594   0.436 -0.2602 -0.3182 -0.3296
 8111SOL    HW232210   4.711   5.661   0.477 -0.7358  1.0021 -1.7816
 8111SOL    HW332211   4.590   5.642   0.388 -0.6994 -1.8364 -1.3177
 8111SOL    MW432212   4.655   5.609   0.435 -0.3652 -0.4895 -0.1392
 8112SOL     OW32213   5.840   5.663   2.640 -0.5139  0.1446 -0.8506
 8112SOL    HW232214   5.780   5.625   2.703  1.2169 -1.2385  0.0701
 8112SOL    HW332215   5.923   5.670   2.688  0.3465  0.9292 -2.3861
 8112SOL    MW432216   5.843   5.659   2.655 -0.2285  0.1345 -0.2349
 8113SOL     OW32217   5.095   0.992   3.324 -0.1668 -0.1348 -0.1132
 8113SOL    HW232218   5.012   0.978   3.279  0.3279 -0.0745 -1.0669
 8113SOL    HW332219   5.154   1.025   3.256  0.3285  0.8969  0.7840
 8113SOL    MW432220   5.092   0.995   3.310 -0.3110  0.5317 -0.4915
 8114SOL     OW32221   3.593   3.384   1.654  0.6552  0.4444  0.0117
 8114SOL    HW232222   3.618   3.395   1.563  1.4806  0.0792  0.1902
 8114SOL    HW332223   3.524   3.318   1.652 -0.0334  1.1480 -0.4341
 8114SOL    MW432224   3.587   3.377   1.642 -0.2415 -0.2641  0.1806
 8115SOL     OW32225   4.390   3.732   6.340  0.0506 -0.2638 -0.4195
 8115SOL    HW232226   4.387   3.654   6.285 -2.1767  0.3847 -1.3002
 8115SOL    HW332227   4.328   3.792   6.300  1.4597  1.8718  0.4211
 8115SOL    MW432228   4.382   3.730   6.328 -0.0588 -0.4969 -0.1733
 8116SOL     OW32229   4.307   2.641   5.683  0.0287 -0.0862 -0.4197
 8116SOL    HW232230   4.287   2.582   5.611 -1.4531 -1.8850  1.3747
 8116SOL    HW332231   4.246   2.617   5.753  3.1991 -0.3904  2.5073
 8116SOL    MW432232   4.296   2.630   5.683 -0.3876 -0.1826  0.2354
 8117SOL     OW32233   3.453   4.418   4.182 -0.3628  0.0237  0.2533
 8117SOL    HW232234   3.441   4.323   4.175  1.3117 -0.1730 -0.6123
 8117SOL    HW332235   3.478   4.433   4.273 -0.5351 -0.3765  0.3663
 8117SOL    MW432236   3.455   4.407   4.193 -0.7834  0.5643 -0.0766
 8118SOL     OW32237   5.347   3.947   2.919  0.0095 -0.2161  0.2334
 8118SOL    HW232238   5.407   3.953   2.844  0.1628 -2.3008  0.1366
 8118SOL    HW332239   5.301   3.864   2.906  0.1972 -0.7378  2.5563
 8118SOL    MW432240   5.349   3.937   2.907 -0.1132  0.4606 -0.1796
 8119SOL     OW32241   0.677   1.335   2.255 -0.4815  0.0302  0.0560
 8119SOL    HW232242   0.664   1.383   2.337 -0.8346 -3.2532  2.0686
 8119SOL    HW332243   0.767   1.355   2.229  0.1715 -0.0486  2.1077
 8119SOL    MW432244   0.687   1.344   2.262  0.7131  0.4206  0.4896
 8120SOL     OW32245   4.194   0.702   2.962 -0.3483 -0.2961  0.7773
 8120SOL    HW232246   4.227   0.654   3.038 -0.9668  1.6327  2.3626
 8120SOL    HW332247   4.246   0.783   2.961 -0.5944 -0.1223 -0.6764
 8120SOL    MW432248   4.206   0.707   2.972  0.0768  0.5214 -0.1419
 8121SOL     OW32249   4.727   0.019   0.595 -0.3108  0.2966  0.2917
 8121SOL    HW232250   4.812  -0.004   0.632 -1.8266 -2.1849  2.5458
 8121SOL    HW332251   4.668   0.025   0.670 -2.2701  1.5534 -1.2135
 8121SOL    MW432252   4.730   0.017   0.610  0.1031  0.2858  0.2297
 8122SOL     OW32253   4.986   5.562   3.893 -0.6713  0.0591 -0.2969
 8122SOL    HW232254   4.891   5.562   3.905 -0.5740 -2.0496  1.0880
 8122SOL    HW332255   5.012   5.472   3.912  1.6354  0.6107 -0.5441
 8122SOL    MW432256   4.977   5.550   3.897  0.2331  1.0160  0.4272
 8123SOL     OW32257   1.207   4.372   0.416  0.4963  0.2031 -0.2170
 8123SOL    HW232258   1.241   4.383   0.504 -0.2529  0.1814  0.0817
 8123SOL    HW332259   1.262   4.304   0.377 -0.8166 -1.7143  1.1148
 8123SOL    MW432260   1.219   4.365   0.422  0.2558  0.2724 -0.2743
 8124SOL     OW32261   4.261   5.617   4.028  0.3370  0.0708 -0.6480
 8124SOL    HW232262   4.187   5.673   4.051 -0.7087 -0.7607 -1.8660
 8124SOL    HW332263   4.334   5.654   4.078 -0.3737  2.2718 -1.1035
 8124SOL    MW432264   4.261   5.629   4.038  0.1319 -0.7646 -0.6113
 8125SOL     OW32265   1.009   4.829   6.091 -0.0933 -0.2571  0.0794
 8125SOL    HW232266   0.951   4.887   6.042  1.8631  2.8451  1.1051
 8125SOL    HW332267   0.990   4.847   6.183 -0.1766 -2.1345  0.4692
 8125SOL    MW432268   0.999   4.839   6.097  0.2439 -0.0986 -0.2724
 8126SOL     OW32269   0.041   5.863   5.056 -0.7283 -0.3845 -0.7115
 8126SOL    HW232270  -0.054   5.863   5.071 -0.4951 -0.0233  0.9656
 8126SOL    HW332271   0.078   5.886   5.142  0.8843 -0.7824 -1.2869
 8126SOL    MW432272   0.033   5.866   5.070 -0.4010 -0.2072  0.0612
 8127SOL     OW32273   1.494   3.431   4.688  0.1104  0.6544 -0.8095
 8127SOL    HW232274   1.499   3.447   4.782 -0.9541  2.2331 -0.9833
 8127SOL    HW332275   1.571   3.475   4.652  0.1745  0.6015 -0.7373
 8127SOL    MW432276   1.505   3.439   4.695  0.4102 -0.1339  0.8993
 8128SOL     OW32277   4.360   3.144   5.723  0.3755  0.1374  0.4871
 8128SOL    HW232278   4.363   3.067   5.667 -0.0278  0.4591  0.0061
 8128SOL    HW332279   4.313   3.116   5.801 -0.6701  0.1504 -0.1176
 8128SOL    MW432280   4.354   3.130   5.726  0.6120  0.6049  0.1990
 8129SOL     OW32281   1.078   1.597   6.139 -0.1740 -0.7794 -0.3446
 8129SOL    HW232282   1.132   1.596   6.218  0.9606 -1.8703 -1.0902
 8129SOL    HW332283   1.028   1.679   6.145  2.2264  0.7839 -0.0306
 8129SOL    MW432284   1.079   1.608   6.150 -0.2588  0.5662  0.2711
 8130SOL     OW32285   2.078   1.536   6.277 -0.0307  0.0778 -0.0369
 8130SOL    HW232286   2.073   1.563   6.369 -1.1433 -0.8676  0.1998
 8130SOL    HW332287   1.989   1.550   6.243  0.6327  1.5597 -1.3353
 8130SOL    MW432288   2.066   1.542   6.285 -0.4109  0.8706  0.6495
 8131SOL     OW32289   4.201   0.239   1.726  0.0733 -0.0193  0.0615
 8131SOL    HW232290   4.162   0.214   1.642  0.6855  0.7342 -0.4612
 8131SOL    HW332291   4.194   0.335   1.727  0.7553  0.0268  0.5351
 8131SOL    MW432292   4.195   0.248   1.715 -0.0312  0.5221 -0.1166
 8132SOL     OW32293   2.993   2.322   0.201 -0.1732 -0.2642  0.6461
 8132SOL    HW232294   3.063   2.323   0.136  1.1503  1.2763  1.9915
 8132SOL    HW332295   2.950   2.237   0.190 -0.0590 -0.0267 -2.2305
 8132SOL    MW432296   2.996   2.311   0.191 -0.3703 -0.3838 -0.2478
 8133SOL     OW32297   6.438   4.143   3.263 -0.4180  0.1420 -0.6988
 8133SOL    HW232298   6.447   4.092   3.344  0.5812  0.5245 -0.5542
 8133SOL    HW332299   6.421   4.232   3.292 -0.0676  0.2790 -0.8969
 8133SOL    MW432300   6.437   4.148   3.277 -0.7254 -0.0193 -0.0022
 8134SOL     OW32301   5.935   0.885   4.511 -0.0679 -0.4455 -0.3837
 8134SOL    HW232302   5.939   0.835   4.430  1.8522  0.0025 -0.6135
 8134SOL    HW332303   5.884   0.830   4.571  0.4577 -1.8311 -1.1730
 8134SOL    MW432304   5.929   0.871   4.508 -1.1573  0.3980  0.4308
 8135SOL     OW32305   2.029   1.269   3.323 -0.1719 -0.0020  0.9789
 8135SOL    HW232306   2.029   1.232   3.235  0.4704 -0.4632  1.1578
 8135SOL    HW332307   1.939   1.297   3.338 -0.0783  0.9675 -0.1814
 8135SOL    MW432308   2.017   1.268   3.314  0.2144  0.1196 -0.5103
 8136SOL     OW32309   2.353   3.180   4.108 -0.0544  0.2935 -0.3941
 8136SOL    HW232310   2.372   3.130   4.029  0.4428  0.9308 -0.6914
 8136SOL    HW332311   2.299   3.122   4.161  0.7842 -0.6766 -0.5808
 8136SOL    MW432312   2.348   3.166   4.105 -0.2168  0.5069 -0.2570
 8137SOL     OW32313   3.481   4.869   1.900 -0.3496  1.0885 -0.2775
 8137SOL    HW232314   3.400   4.819   1.906  0.4555 -0.3420 -0.8081
 8137SOL    HW332315   3.493   4.885   1.806  0.3374  0.6814 -0.2639
 8137SOL    MW432316   3.472   4.865   1.888  0.6962 -0.1783  0.5118
 8138SOL     OW32317   2.984   1.831   6.330 -0.1375 -0.2246 -0.3619
 8138SOL    HW232318   2.890   1.845   6.338  0.3749  3.7031  1.0780
 8138SOL    HW332319   3.015   1.822   6.420  1.0966  1.3064 -0.5854
 8138SOL    MW432320   2.976   1.832   6.342  0.0316  0.5056 -0.4717
 8139SOL     OW32321   3.565   4.792   3.918  0.7472  0.2150 -0.4278
 8139SOL    HW232322   3.584   4.796   3.825 -0.2749  0.8248 -0.6394
 8139SOL    HW332323   3.639   4.836   3.960  1.0317  0.2721 -0.9835
 8139SOL    MW432324   3.577   4.799   3.912  0.2705  0.3627 -0.4116
 8140SOL     OW32325   0.484   0.805   3.712 -0.4496 -0.2023  0.2878
 8140SOL    HW232326   0.486   0.744   3.786  1.4665  0.2159  0.6258
 8140SOL    HW332327   0.517   0.887   3.747  1.9322 -0.3800 -1.3264
 8140SOL    MW432328   0.488   0.807   3.726 -0.3562  0.8975 -0.2377
 8141SOL     OW32329   1.697   2.792   4.601  0.5783 -0.5140  0.1025
 8141SOL    HW232330   1.688   2.746   4.685 -2.0100 -0.1548  0.1163
 8141SOL    HW332331   1.752   2.868   4.621 -0.5232 -0.0720  1.6716
 8141SOL    MW432332   1.703   2.796   4.615 -0.1717 -0.0341 -0.2469
 8142SOL     OW32333   5.726   5.744   5.317  0.2249 -0.1951  0.0209
 8142SOL    HW232334   5.703   5.699   5.236 -1.5427 -0.3025  0.5440
 8142SOL    HW332335   5.761   5.828   5.289 -0.3494 -0.2381 -0.8635
 8142SOL    MW432336   5.728   5.749   5.303  0.8054 -0.2155 -0.1619
 8143SOL     OW32337   0.351   0.518   3.905  0.7312  0.6803 -0.4600
 8143SOL    HW232338   0.332   0.457   3.977 -2.2045 -0.6471 -2.1976
 8143SOL    HW332339   0.366   0.461   3.829 -0.2962  2.0589 -1.7462
 8143SOL    MW432340   0.351   0.502   3.905 -0.2658 -0.1163  0.3860
 8144SOL     OW32341   1.818   3.366   3.047  0.0327 -0.2414 -0.2700
 8144SOL    HW232342   1.737   3.415   3.064 -0.1076 -0.3387 -0.6340
 8144SOL    HW332343   1.793   3.301   2.982  0.9840  1.4818 -2.5177
 8144SOL    MW432344   1.804   3.364   3.040 -0.6006 -0.0809 -0.2385
 8145SOL     OW32345   2.902   0.733   0.518 -0.3411 -0.6709 -0.4842
 8145SOL    HW232346   2.872   0.707   0.431 -0.4247 -0.0473 -0.6467
 8145SOL    HW332347   2.905   0.829   0.515  2.9455 -0.6671 -0.9234
 8145SOL    MW432348   2.899   0.742   0.506  0.5486 -0.2398 -0.2696
 8146SOL     OW32349   0.144   5.446   4.060  0.8666 -0.3924  0.8962
 8146SOL    HW232350   0.055   5.455   4.026 -0.0251 -2.5726  2.3828
 8146SOL    HW332351   0.175   5.536   4.072 -0.6798  0.4121 -0.7508
 8146SOL    MW432352   0.136   5.459   4.057  0.0553 -0.1233 -0.0786
 8147SOL     OW32353   5.664   5.399   6.293  0.6950  0.7697  0.9078
 8147SOL    HW232354   5.597   5.390   6.225  1.6002  2.2228 -0.2485
 8147SOL    HW332355   5.666   5.314   6.336  0.2096 -0.2618 -1.0050
 8147SOL    MW432356   5.655   5.387   6.290 -0.0059 -0.0636  0.2444
 8148SOL     OW32357   2.389   0.951   2.001  0.0985 -0.1398 -0.5527
 8148SOL    HW232358   2.389   1.018   1.932 -0.3309  0.0408 -0.3776
 8148SOL    HW332359   2.481   0.924   2.008  0.6942  2.0258  0.9224
 8148SOL    MW432360   2.401   0.956   1.993 -0.1141  0.6043 -0.4240
 8149SOL     OW32361   3.931   3.011   3.152  0.4264  0.0927  0.2726
 8149SOL    HW232362   4.013   2.962   3.160 -0.3161 -1.0359  1.3997
 8149SOL    HW332363   3.870   2.948   3.114 -0.4253  0.2667  1.3061
 8149SOL    MW432364   3.934   2.996   3.148 -1.3904 -0.0815  0.6063
 8150SOL     OW32365   2.801   0.759   4.790  0.1209  0.0628  0.8287
 8150SOL    HW232366   2.892   0.789   4.792  0.5712 -0.8699 -1.6303
 8150SOL    HW332367   2.750   0.839   4.801  1.2805  1.0465 -0.5127
 8150SOL    MW432368   2.806   0.774   4.792 -0.4786 -0.4149 -0.0989
 8151SOL     OW32369   2.206   1.280   5.421 -0.3403  0.0999  0.0332
 8151SOL    HW232370   2.293   1.301   5.387 -0.1981 -1.7665 -0.9390
 8151SOL    HW332371   2.213   1.295   5.515  0.7946  0.7264 -0.1242
 8151SOL    MW432372   2.219   1.285   5.429 -0.1532 -0.1208 -0.5378
 8152SOL     OW32373   6.244   2.326   2.943 -0.1803  0.1582 -0.0327
 8152SOL    HW232374   6.249   2.252   3.003  0.5801 -0.6277 -1.0287
 8152SOL    HW332375   6.152   2.333   2.920 -0.6005  0.8798  1.6773
 8152SOL    MW432376   6.233   2.318   2.948  0.6709 -0.1838  0.3283
 8153SOL     OW32377   5.525   4.946   6.022 -0.0166  0.5846  0.7365
 8153SOL    HW232378   5.523   5.030   6.069 -0.8335 -0.3107  2.3946
 8153SOL    HW332379   5.619   4.930   6.007  0.2809  0.9333  2.0501
 8153SOL    MW432380   5.537   4.955   6.026 -0.3302 -0.1260 -0.1738
 8154SOL     OW32381   2.123   4.031   6.105  0.1814  0.2566  0.1621
 8154SOL    HW232382   2.034   4.030   6.140  0.2526  1.3329  0.4396
 8154SOL    HW332383   2.118   4.090   6.029  0.6187  0.1992  0.0876
 8154SOL    MW432384   2.111   4.039   6.100  0.1113  1.0638 -0.1581
 8155SOL     OW32385   5.933   5.815   4.068 -0.5398 -0.0634  0.5036
 8155SOL    HW232386   5.959   5.902   4.099  1.2999  0.0999 -1.2874
 8155SOL    HW332387   5.865   5.832   4.002 -2.1818 -0.2193  2.0775
 8155SOL    MW432388   5.927   5.829   4.063  0.0956 -0.1112  0.3382
 8156SOL     OW32389   0.455   3.008   0.591  0.4508 -0.6388 -0.5416
 8156SOL    HW232390   0.517   2.976   0.657  0.4027 -2.4512 -1.3019
 8156SOL    HW332391   0.369   2.987   0.627  0.3804 -0.3999 -0.5735
 8156SOL    MW432392   0.452   3.001   0.605 -0.5818 -0.4602  0.2028
 8157SOL     OW32393   0.231   5.692   4.513  0.0355 -0.4101  0.1119
 8157SOL    HW232394   0.309   5.668   4.464 -0.3356 -0.8063 -0.2977
 8157SOL    HW332395   0.179   5.611   4.516 -0.1258 -0.2883  0.8222
 8157SOL    MW432396   0.234   5.678   4.507  0.0890  0.0974 -0.4105
 8158SOL     OW32397   0.085   3.798   4.705 -0.1376 -0.1187  0.4610
 8158SOL    HW232398  -0.000   3.761   4.683 -0.9520  0.6568  2.1768
 8158SOL    HW332399   0.076   3.892   4.687  0.1198  0.0752  1.2939
 8158SOL    MW432400   0.073   3.806   4.699 -0.5482  0.4711 -0.3012
 8159SOL     OW32401   0.764   3.844   0.537  0.5712 -0.3479  0.1580
 8159SOL    HW232402   0.847   3.795   0.535  0.7938  0.0341 -1.2435
 8159SOL    HW332403   0.698   3.781   0.508  0.7715 -0.0105 -1.0988
 8159SOL    MW432404   0.766   3.829   0.533 -0.4415  0.0920  0.3696
 8160SOL     OW32405   0.204   0.364   4.587 -0.1725 -0.4565  0.1843
 8160SOL    HW232406   0.145   0.408   4.649  1.3848  0.9533  0.7337
 8160SOL    HW332407   0.249   0.435   4.542 -1.2781 -1.4421 -2.6763
 8160SOL    MW432408   0.202   0.379   4.589 -0.7784  0.0108 -0.4867
 8161SOL     OW32409   6.404   1.228   1.518 -1.1212 -0.3864  0.4432
 8161SOL    HW232410   6.352   1.278   1.456  0.4394  0.2079 -0.4425
 8161SOL    HW332411   6.412   1.141   1.478  1.6040  0.5647 -1.3249
 8161SOL    MW432412   6.398   1.223   1.504  0.1758 -1.0527  0.3743
 8162SOL     OW32413   5.244   5.814   2.147 -0.1877 -0.0133 -0.1200
 8162SOL    HW232414   5.336   5.839   2.155 -0.2827  0.2977  0.0361
 8162SOL    HW332415   5.197   5.897   2.142 -0.5011 -0.1614  0.2767
 8162SOL    MW432416   5.250   5.828   2.147 -0.6553 -0.0693 -0.4410
 8163SOL     OW32417   6.302   1.338   0.676 -0.0003 -0.1713 -0.2911
 8163SOL    HW232418   6.346   1.271   0.625  1.4325 -0.7024  1.5459
 8163SOL    HW332419   6.226   1.294   0.714  0.0125 -0.2921 -0.4055
 8163SOL    MW432420   6.298   1.324   0.674 -0.0860 -0.4525 -0.3843
 8164SOL     OW32421   0.150   4.775   1.856 -0.4518  0.1291 -1.0691
 8164SOL    HW232422   0.072   4.720   1.861  0.9774 -1.9587  0.0572
 8164SOL    HW332423   0.214   4.722   1.808  0.9430  0.8397 -0.0697
 8164SOL    MW432424   0.148   4.761   1.851  0.5111 -0.7689 -0.1569
 8165SOL     OW32425   2.815   6.179   0.901 -0.4333  0.3087  0.4021
 8165SOL    HW232426   2.769   6.096   0.916 -1.3287  0.4860 -1.1892
 8165SOL    HW332427   2.891   6.156   0.848 -0.9108  0.5506 -0.3974
 8165SOL    MW432428   2.819   6.165   0.896 -0.4651  0.2930 -0.3523
 8166SOL     OW32429   1.148   3.334   1.786 -0.3528  0.5117 -0.0210
 8166SOL    HW232430   1.111   3.410   1.741 -1.4640  1.0242  1.6518
 8166SOL    HW332431   1.086   3.315   1.856  1.4144 -0.0151  1.5031
 8166SOL    MW432432   1.135   3.342   1.789  0.3376 -0.1725 -0.1905
 8167SOL     OW32433   6.101   2.794   3.216  0.0584  0.2435 -0.4070
 8167SOL    HW232434   6.131   2.823   3.302 -1.1197 -2.0164  0.8913
 8167SOL    HW332435   6.121   2.700   3.214 -0.7872  0.0510 -2.2161
 8167SOL    MW432436   6.107   2.785   3.227 -0.4050 -0.0285 -0.0283
 8168SOL     OW32437   1.334   3.463   1.392  0.7144 -0.1889 -0.8225
 8168SOL    HW232438   1.312   3.534   1.452  0.7367 -0.5223 -0.4186
 8168SOL    HW332439   1.370   3.507   1.315  4.0534  0.1464  0.7527
 8168SOL    MW432440   1.336   3.478   1.390  0.0470 -0.2910 -0.2286
 8169SOL     OW32441   6.109   0.813   1.522  0.5363 -0.4338  0.5547
 8169SOL    HW232442   6.179   0.752   1.497 -0.6389 -2.5974  2.2617
 8169SOL    HW332443   6.146   0.864   1.594  1.0904  0.0145 -0.0344
 8169SOL    MW432444   6.123   0.812   1.528 -0.3855  0.0436  0.5993
 8170SOL     OW32445   0.639   4.838   6.369 -0.0248 -0.1055  0.3754
 8170SOL    HW232446   0.649   4.783   6.291 -0.7718  0.6654 -0.2801
 8170SOL    HW332447   0.554   4.813   6.405 -0.4064  0.6532  0.0283
 8170SOL    MW432448   0.629   4.828   6.364  0.1547 -0.2435  0.9159
 8171SOL     OW32449   3.728   4.644   0.062  0.6502 -0.5483  0.3657
 8171SOL    HW232450   3.802   4.702   0.042  0.7480 -0.9350 -0.4197
 8171SOL    HW332451   3.652   4.692   0.028  0.6901 -0.7156  0.0367
 8171SOL    MW432452   3.728   4.658   0.055 -0.0127  0.2033 -0.0565
 8172SOL     OW32453   6.376   5.730   1.198  0.6153 -0.0829  0.1556
 8172SOL    HW232454   6.465   5.709   1.226  0.4691 -2.2377 -0.7586
 8172SOL    HW332455   6.341   5.647   1.167 -1.8803  0.6169  0.8521
 8172SOL    MW432456   6.383   5.716   1.198  1.0276 -0.2071 -0.4266
 8173SOL     OW32457   0.492   0.749   5.475 -0.6726 -0.1040  0.2564
 8173SOL    HW232458   0.457   0.794   5.398  0.3680 -1.0913 -0.8183
 8173SOL    HW332459   0.459   0.801   5.549  0.8608  2.7704 -0.9039
 8173SOL    MW432460   0.483   0.762   5.475 -0.0123 -0.1481 -0.2956
 8174SOL     OW32461   5.786   0.260   1.428  0.5507 -0.1495 -0.2334
 8174SOL    HW232462   5.831   0.343   1.414 -0.6193  1.3185  3.4414
 8174SOL    HW332463   5.851   0.193   1.408  2.0757  1.6513 -1.6531
 8174SOL    MW432464   5.800   0.262   1.423  0.2384 -0.0096 -0.1046
 8175SOL     OW32465   2.190   2.597   3.832  0.2785  0.5485 -0.5175
 8175SOL    HW232466   2.217   2.689   3.833  0.1015  0.5998  0.1450
 8175SOL    HW332467   2.101   2.599   3.799  0.6830  0.4834 -1.6793
 8175SOL    MW432468   2.182   2.609   3.828  0.5447 -0.2840 -0.3017
 8176SOL     OW32469   4.542   3.661   0.426  0.2911 -0.1964  0.1929
 8176SOL    HW232470   4.560   3.736   0.369  0.6717 -1.5752 -1.5871
 8176SOL    HW332471   4.539   3.698   0.514  0.1737  1.9510 -0.6533
 8176SOL    MW432472   4.544   3.676   0.430  0.1058 -0.0057  0.7511
 8177SOL     OW32473   0.964   3.280   5.547  0.2265  0.1587 -1.0699
 8177SOL    HW232474   0.896   3.311   5.607  0.4845 -1.2137 -0.0276
 8177SOL    HW332475   0.918   3.266   5.464 -0.8665 -1.0302 -0.3082
 8177SOL    MW432476   0.949   3.282   5.544  0.7410 -0.2691  0.0765
 8178SOL     OW32477   3.270   1.917   1.406  0.6140 -0.5284  0.2185
 8178SOL    HW232478   3.182   1.953   1.414  0.5335 -0.3053 -1.2621
 8178SOL    HW332479   3.325   1.992   1.382  0.8847 -0.9553 -0.5372
 8178SOL    MW432480   3.266   1.932   1.404  0.2208  0.2246 -0.2281
 8179SOL     OW32481   5.632   4.375   5.721  0.2205 -0.1594  0.2980
 8179SOL    HW232482   5.581   4.320   5.780  1.6676 -1.4166  0.4518
 8179SOL    HW332483   5.642   4.321   5.642  0.5283  0.4416 -0.0812
 8179SOL    MW432484   5.627   4.360   5.718  0.8183 -0.1994 -0.5060
 8180SOL     OW32485   3.842   5.185   5.734 -0.1204  0.3870  0.5197
 8180SOL    HW232486   3.932   5.155   5.741 -0.4242 -0.8872 -0.6118
 8180SOL    HW332487   3.820   5.174   5.642 -2.2154 -1.8004  1.1634
 8180SOL    MW432488   3.851   5.180   5.723 -0.1612  0.2666  0.0206
 8181SOL     OW32489   4.435   2.950   6.087 -0.0036  0.3448  0.7462
 8181SOL    HW232490   4.458   2.938   5.995  2.5432  0.0788  1.3403
 8181SOL    HW332491   4.358   3.006   6.086  1.5081  2.5887 -1.5213
 8181SOL    MW432492   4.428   2.956   6.075 -0.0367 -0.3881 -0.3093
 8182SOL     OW32493   1.527   1.123   3.680 -0.1092  0.0780 -0.0579
 8182SOL    HW232494   1.573   1.198   3.642  1.4150 -0.4197  0.7504
 8182SOL    HW332495   1.454   1.162   3.728  0.8253  1.0870  0.5923
 8182SOL    MW432496   1.523   1.138   3.681 -0.4227  0.3747  0.1213
 8183SOL     OW32497   3.798   5.565   4.179 -0.0055 -0.4803  0.0909
 8183SOL    HW232498   3.723   5.620   4.158  0.6994  0.4512 -0.1063
 8183SOL    HW332499   3.818   5.520   4.097  1.3329  1.4090 -0.7069
 8183SOL    MW432500   3.791   5.566   4.165  0.1854 -0.4945 -0.5952
 8184SOL     OW32501   3.370   2.431   0.814 -0.2705  0.1290  0.5249
 8184SOL    HW232502   3.276   2.414   0.802 -0.2314  0.2822 -0.0077
 8184SOL    HW332503   3.410   2.344   0.815 -0.1095  0.1193 -1.8620
 8184SOL    MW432504   3.363   2.417   0.813 -0.0038 -0.7238 -0.4309
 8185SOL     OW32505   5.376   5.143   1.969  0.0677  0.2989 -0.6762
 8185SOL    HW232506   5.346   5.057   1.939  0.6830  0.1135 -0.7693
 8185SOL    HW332507   5.357   5.202   1.896 -0.0727  0.1847 -0.7326
 8185SOL    MW432508   5.370   5.139   1.956  0.3796  0.2682 -0.2254
 8186SOL     OW32509   1.745   2.617   4.811  0.3971  0.2343 -0.3741
 8186SOL    HW232510   1.840   2.611   4.805  0.3542 -0.2836 -0.6927
 8186SOL    HW332511   1.727   2.631   4.904  0.7326 -1.0194 -0.1000
 8186SOL    MW432512   1.755   2.618   4.822  0.0985 -0.0507 -0.5412
 8187SOL     OW32513   0.123   5.833   3.513 -0.0758 -0.0561  0.6491
 8187SOL    HW232514   0.133   5.928   3.525 -0.5107 -0.0939  1.3263
 8187SOL    HW332515   0.037   5.823   3.473  0.4663 -0.0881 -0.5453
 8187SOL    MW432516   0.113   5.844   3.509 -0.3281  0.2648  0.1433
 8188SOL     OW32517   2.165   6.039   3.632  0.2033  0.4032 -0.6481
 8188SOL    HW232518   2.258   6.032   3.654  0.4504  2.2019 -0.9460
 8188SOL    HW332519   2.138   5.950   3.611  1.9111 -0.1178 -0.7611
 8188SOL    MW432520   2.174   6.027   3.633  0.4637  0.7596  0.0241
 8189SOL     OW32521   1.500   3.476   1.155 -0.1382  0.2005 -0.6383
 8189SOL    HW232522   1.519   3.428   1.074 -1.0917 -0.8708 -0.2617
 8189SOL    HW332523   1.583   3.478   1.202  0.3548  0.5794 -1.5143
 8189SOL    MW432524   1.513   3.470   1.151  0.0674  0.0851 -0.1796
 8190SOL     OW32525   2.771   4.748   3.576  0.4417 -0.0645 -0.7679
 8190SOL    HW232526   2.839   4.737   3.510  2.2304  0.0379  0.9801
 8190SOL    HW332527   2.750   4.841   3.574  0.3696 -0.0900 -1.2853
 8190SOL    MW432528   2.777   4.759   3.567  0.3960  0.9231 -0.4903
 8191SOL     OW32529   3.406   4.439   1.573  0.0528 -0.1476 -0.1121
 8191SOL    HW232530   3.367   4.352   1.567 -0.1474 -0.0930  0.2789
 8191SOL    HW332531   3.469   4.432   1.645  0.5108 -0.1436 -0.5167
 8191SOL    MW432532   3.409   4.427   1.582  0.4457 -1.1359  0.0229
 8192SOL     OW32533   5.837   0.847   3.921  0.7891 -0.2064 -0.3471
 8192SOL    HW232534   5.832   0.943   3.926  2.5555 -0.0161 -1.3107
 8192SOL    HW332535   5.921   0.825   3.962  0.7795 -1.2667 -0.8552
 8192SOL    MW432536   5.847   0.857   3.927 -0.3491  0.0989  0.4134
 8193SOL     OW32537   3.479   3.195   0.933  0.0598  0.1624 -0.5390
 8193SOL    HW232538   3.451   3.136   0.863 -1.4722 -0.5950  0.6509
 8193SOL    HW332539   3.483   3.141   1.011 -1.7458  1.6247  0.6662
 8193SOL    MW432540   3.476   3.180   0.934 -0.2261  0.2187  0.2423
 8194SOL     OW32541   3.625   2.694   4.208 -0.1626  0.2409 -0.2650
 8194SOL    HW232542   3.659   2.689   4.297  1.2821  0.8150 -0.7444
 8194SOL    HW332543   3.640   2.784   4.181 -1.5593  0.3502 -0.7366
 8194SOL    MW432544   3.632   2.705   4.216  0.5785 -0.0190  0.3858
 8195SOL     OW32545   5.926   1.660   6.155 -0.4392  0.8304  0.6770
 8195SOL    HW232546   5.963   1.610   6.083  0.8180  0.5081  1.5261
 8195SOL    HW332547   5.893   1.740   6.114 -2.3114 -0.5342 -0.6836
 8195SOL    MW432548   5.926   1.664   6.140  0.5565 -0.5347  0.3689
 8196SOL     OW32549   4.275   2.355   1.717  0.0289 -0.8237  0.2081
 8196SOL    HW232550   4.289   2.297   1.791 -0.5638 -0.3291  0.7186
 8196SOL    HW332551   4.197   2.320   1.673 -1.2076  0.3810  1.3480
 8196SOL    MW432552   4.267   2.343   1.721  0.0940 -0.1225 -0.5062
 8197SOL     OW32553   3.406   5.891   3.857  0.7659  0.0647  0.4109
 8197SOL    HW232554   3.368   5.964   3.905  1.0028  0.3818  0.1209
 8197SOL    HW332555   3.336   5.861   3.800  0.2206 -0.8248  1.4977
 8197SOL    MW432556   3.392   5.897   3.856  0.3499  0.5639  0.1826
 8198SOL     OW32557   4.918   0.583   0.958  0.3941 -0.7460 -0.7024
 8198SOL    HW232558   4.988   0.626   0.908  1.7924  0.4002  1.9654
 8198SOL    HW332559   4.878   0.522   0.897  1.8415  0.6331 -3.1917
 8198SOL    MW432560   4.922   0.581   0.943  0.4266  0.5006  0.1723
 8199SOL     OW32561   5.811   6.249   3.079  0.1023 -0.1234  0.1195
 8199SOL    HW232562   5.811   6.316   3.011 -1.8228 -0.4791 -0.3173
 8199SOL    HW332563   5.835   6.168   3.033  1.5074  0.0797  0.4570
 8199SOL    MW432564   5.814   6.247   3.064  0.5433 -0.1984 -0.0807
 8200SOL     OW32565   2.549   3.756   1.706 -0.2594 -0.1306  0.6288
 8200SOL    HW232566   2.488   3.724   1.639  0.8137 -0.4712 -0.2188
 8200SOL    HW332567   2.626   3.699   1.697  1.7831  2.6434 -0.9839
 8200SOL    MW432568   2.551   3.744   1.696  0.3328  0.6813  0.3076
 8201SOL     OW32569   4.664   1.424   3.902 -0.4858 -0.0620  0.4201
 8201SOL    HW232570   4.580   1.464   3.926 -0.0017 -0.2218  2.5435
 8201SOL    HW332571   4.714   1.425   3.983  2.4458  2.0985 -1.2253
 8201SOL    MW432572   4.659   1.430   3.916 -0.3569 -0.0855 -0.2324
 8202SOL     OW32573   2.497   1.088   5.872 -0.1346 -0.1698 -0.6288
 8202SOL    HW232574   2.451   1.052   5.797 -0.6007 -1.5167  0.2658
 8202SOL    HW332575   2.522   1.012   5.924  0.2906  0.7189  0.5181
 8202SOL    MW432576   2.494   1.073   5.869  0.4505  0.2617 -0.3609
 8203SOL     OW32577   2.653   3.855   1.264 -0.0129  0.4746  0.1212
 8203SOL    HW232578   2.714   3.795   1.306 -1.0905 -0.6469  0.1646
 8203SOL    HW332579   2.598   3.887   1.336  0.7695  1.7909  0.1447
 8203SOL    MW432580   2.654   3.851   1.279 -0.4134  0.1274  0.0341
 8204SOL     OW32581   3.978   3.647   5.156  0.4040  0.4081  0.1704
 8204SOL    HW232582   4.027   3.565   5.165 -3.5869 -2.0496  1.9871
 8204SOL    HW332583   3.927   3.635   5.076 -0.4957  0.8977  0.6584
 8204SOL    MW432584   3.978   3.634   5.147 -0.2012  0.4378  0.1257
 8205SOL     OW32585   3.050   6.238   3.863 -0.5730  0.0443  0.0316
 8205SOL    HW232586   2.964   6.249   3.823 -0.3874  0.2387 -0.3217
 8205SOL    HW332587   3.102   6.310   3.828 -0.6327  0.7260  1.2888
 8205SOL    MW432588   3.045   6.249   3.853  0.4487  0.2639  0.0751
 8206SOL     OW32589   3.018   0.264   3.429 -0.2398  0.2811 -0.4371
 8206SOL    HW232590   2.922   0.272   3.430 -0.3011 -0.4408  0.4325
 8206SOL    HW332591   3.048   0.331   3.490 -0.1509  0.7857 -1.0184
 8206SOL    MW432592   3.009   0.274   3.437 -0.2115  0.2575 -0.7843
 8207SOL     OW32593   5.475   2.715   6.188 -0.5686  0.4673 -0.2294
 8207SOL    HW232594   5.431   2.782   6.136 -1.5470  0.1825  0.2064
 8207SOL    HW332595   5.405   2.671   6.235  0.0632 -0.7802 -0.4000
 8207SOL    MW432596   5.460   2.718   6.188  0.0201  0.3910  0.4776
 8208SOL     OW32597   1.975   6.189   4.476  0.0962 -0.3363 -0.0011
 8208SOL    HW232598   1.885   6.222   4.480  0.4575  0.6884  0.0540
 8208SOL    HW332599   2.009   6.201   4.565  0.4749 -0.1272 -0.1680
 8208SOL    MW432600   1.968   6.195   4.489 -0.2958  0.3362  0.4711
 8209SOL     OW32601   1.819   5.926   5.485  0.3971  0.8207  0.3208
 8209SOL    HW232602   1.763   5.853   5.514 -1.4724  2.0002 -0.1933
 8209SOL    HW332603   1.797   5.998   5.545 -1.0334  2.2633 -1.8147
 8209SOL    MW432604   1.809   5.926   5.497  0.7057 -0.2081  0.4857
 8210SOL     OW32605   4.340   4.183   3.739 -0.5469  0.3337  0.0272
 8210SOL    HW232606   4.281   4.181   3.814  0.7311 -0.4513  1.0630
 8210SOL    HW332607   4.363   4.275   3.729 -0.5303  0.4185  0.7816
 8210SOL    MW432608   4.335   4.195   3.748  0.1332 -0.2895  0.2046
 8211SOL     OW32609   4.106   6.269   2.251 -0.4742  0.1963  0.1519
 8211SOL    HW232610   4.047   6.291   2.179  0.0708  0.2158 -0.3005
 8211SOL    HW332611   4.157   6.195   2.218 -0.3123  0.1171  0.5709
 8211SOL    MW432612   4.105   6.262   2.237 -0.1508 -0.2370 -1.0024
 8212SOL     OW32613   2.802   1.456   4.760  0.4297 -0.3573 -0.0355
 8212SOL    HW232614   2.881   1.422   4.718  0.6756 -0.4857  0.5263
 8212SOL    HW332615   2.802   1.550   4.740  1.7148  0.0172  1.4940
 8212SOL    MW432616   2.812   1.464   4.752  0.5116 -0.0873 -0.8114
 8213SOL     OW32617   3.775   1.581   5.233  0.4555  0.6853 -0.3405
 8213SOL    HW232618   3.867   1.598   5.212  0.9164 -0.2463  0.7973
 8213SOL    HW332619   3.768   1.600   5.326  0.0499 -1.3507  0.0848
 8213SOL    MW432620   3.786   1.586   5.242  0.2581 -0.0589 -0.2749
 8214SOL     OW32621   2.364   2.801   5.903 -0.2540  0.0978  0.1054
 8214SOL    HW232622   2.432   2.772   5.842  0.9079  0.8645  0.9920
 8214SOL    HW332623   2.374   2.743   5.979 -0.1058  0.6839  0.5354
 8214SOL    MW432624   2.374   2.789   5.905 -0.3253  0.1733  0.0562
 8215SOL     OW32625   0.392   1.032   3.401 -0.3484  0.0888 -0.3475
 8215SOL    HW232626   0.478   1.023   3.441 -0.4406 -1.0954 -0.3621
 8215SOL    HW332627   0.365   1.122   3.420  0.0643 -0.1117  1.3329
 8215SOL    MW432628   0.400   1.043   3.409  0.1844  0.1706  0.2722
 8216SOL     OW32629   1.686   0.353   5.157 -0.6155  0.2073  0.4501
 8216SOL    HW232630   1.721   0.380   5.242  1.0495 -0.2656 -0.0492
 8216SOL    HW332631   1.682   0.257   5.162 -1.2690  0.2190  0.2634
 8216SOL    MW432632   1.690   0.344   5.169  0.1662 -0.3867  0.1963
 8217SOL     OW32633   2.348   0.355   1.646  0.1376  0.5301 -0.2386
 8217SOL    HW232634   2.329   0.445   1.618  1.3898  0.7701 -0.3765
 8217SOL    HW332635   2.309   0.349   1.733  0.1244  1.2445 -0.1826
 8217SOL    MW432636   2.341   0.366   1.654 -0.6960 -0.1974 -0.2218
 8218SOL     OW32637   1.570   3.362   3.748 -0.1317 -0.6573 -0.3019
 8218SOL    HW232638   1.656   3.364   3.790 -0.4597  1.4870  0.3981
 8218SOL    HW332639   1.509   3.335   3.817 -0.4086  0.9553  0.1233
 8218SOL    MW432640   1.573   3.359   3.763  0.1791 -0.3854 -0.1625
 8219SOL     OW32641   0.412   0.021   1.511  0.0588  0.0286  0.2419
 8219SOL    HW232642   0.460   0.093   1.470  0.8149 -0.1168  0.8504
 8219SOL    HW332643   0.475  -0.051   1.514 -0.8876 -0.8869 -0.9590
 8219SOL    MW432644   0.426   0.021   1.506  0.5048 -0.7541  0.3965
 8220SOL     OW32645   4.636   5.563   1.583  0.0526  0.0018  0.2342
 8220SOL    HW232646   4.567   5.501   1.559 -0.1356  0.0532  0.6269
 8220SOL    HW332647   4.670   5.528   1.666 -0.3362  0.6467  0.6750
 8220SOL    MW432648   4.631   5.550   1.591  0.3962  0.0837 -0.4102
 8221SOL     OW32649   3.814   5.656   4.936 -0.1621  0.0784  0.8694
 8221SOL    HW232650   3.731   5.651   4.888 -0.4585 -0.3037  1.4043
 8221SOL    HW332651   3.853   5.738   4.907 -1.0504  0.6031  1.1092
 8221SOL    MW432652   3.808   5.666   4.926 -0.4683 -0.2672  0.0123
 8222SOL     OW32653   0.563   0.936   4.867 -0.0142  0.1755 -0.1237
 8222SOL    HW232654   0.618   0.863   4.840 -1.1077 -0.9595  0.6436
 8222SOL    HW332655   0.474   0.908   4.845 -0.4311  1.3721 -0.0155
 8222SOL    MW432656   0.558   0.923   4.860  0.1287 -0.6639  0.1336
 8223SOL     OW32657   2.925   2.979   0.418 -0.3802 -0.0140 -0.3075
 8223SOL    HW232658   2.871   2.900   0.409 -0.0608 -0.0911 -1.8541
 8223SOL    HW332659   2.928   3.016   0.330  1.5031  0.3685 -0.1259
 8223SOL    MW432660   2.918   2.973   0.405  0.7122  0.3488  0.3524
 8224SOL     OW32661   4.178   0.975   3.277 -0.2528 -0.0523 -0.4968
 8224SOL    HW232662   4.213   1.048   3.328 -0.4321  0.2448 -0.7971
 8224SOL    HW332663   4.152   0.911   3.343  2.0501 -0.8583 -0.2853
 8224SOL    MW432664   4.179   0.976   3.292  0.7008 -0.0687 -0.1306
 8225SOL     OW32665   6.437   2.169   1.024 -0.2015 -0.1257  0.1969
 8225SOL    HW232666   6.384   2.248   1.019  0.7393  0.6851  2.0119
 8225SOL    HW332667   6.525   2.197   0.999 -0.2530 -1.0740 -1.1315
 8225SOL    MW432668   6.442   2.183   1.020 -0.2225  0.4096  0.0201
 8226SOL     OW32669   6.218   5.215   0.522 -0.1399  0.0803 -0.0261
 8226SOL    HW232670   6.173   5.143   0.477  0.4422  0.2723 -0.9477
 8226SOL    HW332671   6.206   5.197   0.615 -0.7816 -0.7139 -0.2559
 8226SOL    MW432672   6.211   5.203   0.528 -0.3779 -0.6063  0.1748
 8227SOL     OW32673   5.067   1.307   2.589  0.0662  0.8512  0.2688
 8227SOL    HW232674   5.066   1.403   2.585  0.5769  0.8401 -0.1852
 8227SOL    HW332675   5.096   1.279   2.502  0.0871  0.2904  0.4520
 8227SOL    MW432676   5.071   1.316   2.577  0.3096 -0.2028  0.5551
 8228SOL     OW32677   3.611   6.112   4.238 -0.3821  0.2254 -0.1835
 8228SOL    HW232678   3.687   6.153   4.279 -0.4164 -0.6965  0.8418
 8228SOL    HW332679   3.641   6.024   4.215 -1.3310 -0.3993  0.8827
 8228SOL    MW432680   3.625   6.106   4.240  0.2399  0.1308  0.0696
 8229SOL     OW32681   0.054   2.540   3.862 -0.7833  0.1836  0.0504
 8229SOL    HW232682   0.062   2.583   3.948 -0.2737 -0.9610  0.5904
 8229SOL    HW332683  -0.036   2.507   3.860 -1.0855  0.9870 -0.2475
 8229SOL    MW432684   0.043   2.542   3.873  0.1245 -0.3746  0.1545
 8230SOL     OW32685   1.464   1.559   2.820  0.0564  0.5372  0.0795
 8230SOL    HW232686   1.542   1.611   2.797 -0.6716  1.0756 -1.3145
 8230SOL    HW332687   1.416   1.614   2.881  0.5500  0.3830  0.6191
 8230SOL    MW432688   1.468   1.573   2.825  0.5691  0.1163  0.3617
 8231SOL     OW32689   3.367   4.156   5.037 -0.5085  0.1543 -0.5449
 8231SOL    HW232690   3.315   4.098   4.980 -0.1932 -0.7346  0.0539
 8231SOL    HW332691   3.347   4.126   5.126  2.7164 -1.7793 -0.3292
 8231SOL    MW432692   3.357   4.144   5.041  0.4234  0.1824 -0.6198
 8232SOL     OW32693   4.240   1.475   6.044  0.4424 -0.2463  0.6398
 8232SOL    HW232694   4.293   1.413   6.094  0.6340  0.1583  0.9386
 8232SOL    HW332695   4.304   1.529   5.997  0.2901  0.1124  0.8436
 8232SOL    MW432696   4.256   1.474   6.044 -0.2496 -0.0468  0.3708
 8233SOL     OW32697   5.726   4.823   0.945  0.4055 -0.2218  0.4235
 8233SOL    HW232698   5.776   4.757   0.898  1.6361  1.1170 -0.2195
 8233SOL    HW332699   5.635   4.807   0.920  0.7372 -1.2908 -0.1660
 8233SOL    MW432700   5.720   4.812   0.936 -0.4125 -0.4097 -0.3453
 8234SOL     OW32701   6.111   5.811   3.866  0.1158  0.1596  0.1119
 8234SOL    HW232702   6.101   5.729   3.818 -0.1251  0.3750 -0.2093
 8234SOL    HW332703   6.062   5.797   3.947  2.6942 -1.1827  1.5697
 8234SOL    MW432704   6.103   5.798   3.870 -0.0238 -0.0439  0.4520
 8235SOL     OW32705   0.999   0.305   6.274 -0.0081 -0.7555  0.1308
 8235SOL    HW232706   1.020   0.259   6.193  0.0450  0.0514 -0.3254
 8235SOL    HW332707   1.082   0.344   6.302  0.3258 -2.3252  1.4358
 8235SOL    MW432708   1.012   0.304   6.267 -0.3201 -0.1451 -0.0386
 8236SOL     OW32709   2.758   2.444   1.911 -0.7728  0.4977 -0.5009
 8236SOL    HW232710   2.722   2.369   1.959  2.7689 -1.1299 -0.1451
 8236SOL    HW332711   2.768   2.413   1.822  1.6571  0.0943 -0.1402
 8236SOL    MW432712   2.754   2.430   1.906  0.6340  0.6797 -0.1019
 8237SOL     OW32713   2.957   2.173   5.697  0.1271  1.2112 -0.3549
 8237SOL    HW232714   2.993   2.084   5.688 -3.8691 -0.7556  0.7538
 8237SOL    HW332715   2.981   2.198   5.786  1.1035  1.1945 -0.5995
 8237SOL    MW432716   2.965   2.164   5.708  0.4244  0.0302 -0.3039
 8238SOL     OW32717   4.993   0.677   0.241  0.7151 -0.1924 -0.5360
 8238SOL    HW232718   4.912   0.716   0.274 -0.5976 -2.3490 -0.9885
 8238SOL    HW332719   4.995   0.701   0.148  0.1876 -0.7261 -0.6927
 8238SOL    MW432720   4.983   0.685   0.233 -0.6241  0.0028  0.0701
 8239SOL     OW32721   1.743   0.027   5.638 -0.1443 -0.2727 -0.2005
 8239SOL    HW232722   1.723   0.050   5.728  1.4662  1.2266 -0.1725
 8239SOL    HW332723   1.756  -0.068   5.639 -0.9062 -0.3802  0.9684
 8239SOL    MW432724   1.742   0.017   5.650 -0.6045  0.1622 -0.7452
 8240SOL     OW32725   4.466   3.661   4.448  0.3942  0.2013  0.5878
 8240SOL    HW232726   4.418   3.605   4.387  1.1600 -0.3828  0.5118
 8240SOL    HW332727   4.405   3.676   4.520  0.3047 -1.0540  0.7981
 8240SOL    MW432728   4.452   3.656   4.449 -0.1898  0.4804 -0.0659
 8241SOL     OW32729   1.828   0.615   2.833  0.3350 -0.0925  0.0796
 8241SOL    HW232730   1.912   0.652   2.858 -0.0004  0.5660  0.2641
 8241SOL    HW332731   1.776   0.617   2.914  0.4348 -1.3548  0.1999
 8241SOL    MW432732   1.832   0.620   2.847 -0.3481  0.3145 -0.0889
 8242SOL     OW32733   2.347   0.385   0.873  0.8087 -0.1656  0.0793
 8242SOL    HW232734   2.340   0.292   0.895 -0.7486  0.0138  0.4749
 8242SOL    HW332735   2.416   0.418   0.931  0.8106 -0.9062  0.5190
 8242SOL    MW432736   2.355   0.377   0.884 -0.2632  0.6086  0.3857
 8243SOL     OW32737   6.130   2.029   4.961  0.4608  0.3431  0.3827
 8243SOL    HW232738   6.123   1.937   4.936  0.6180 -0.3455  2.6322
 8243SOL    HW332739   6.040   2.054   4.982  0.5854  0.3016  0.9913
 8243SOL    MW432740   6.117   2.020   4.961  0.9291  0.2689 -0.0947
 8244SOL     OW32741   3.446   5.648   2.470 -0.4159 -0.5349  0.2097
 8244SOL    HW232742   3.441   5.743   2.459  0.3528 -0.5121 -0.0123
 8244SOL    HW332743   3.403   5.612   2.393 -0.1767 -0.3701  0.0002
 8244SOL    MW432744   3.440   5.656   2.459  0.2985  0.0448 -0.2059
 8245SOL     OW32745   3.369   2.147   1.290  0.0006 -0.0265  0.1283
 8245SOL    HW232746   3.351   2.111   1.203  1.3478  0.0829 -0.2189
 8245SOL    HW332747   3.323   2.231   1.292  0.3203  0.1679 -0.6359
 8245SOL    MW432748   3.360   2.153   1.279 -0.3020 -0.0105 -0.1394
 8246SOL     OW32749   2.020   4.421   5.198  0.0877 -0.3033 -0.4986
 8246SOL    HW232750   1.997   4.493   5.139  0.6545  0.2613 -0.0415
 8246SOL    HW332751   2.115   4.425   5.206 -0.0788  0.6218  1.6647
 8246SOL    MW432752   2.029   4.431   5.191 -0.3072 -0.0605 -0.0260
 8247SOL     OW32753   0.630   4.741   5.544 -0.9689 -0.5068 -0.2814
 8247SOL    HW232754   0.570   4.668   5.532 -0.8775 -0.6212 -0.0358
 8247SOL    HW332755   0.677   4.748   5.461 -0.1831 -1.4326  0.0720
 8247SOL    MW432756   0.628   4.733   5.532  0.2603 -0.0902 -0.6431
 8248SOL     OW32757   3.750   0.865   1.745  0.8197  0.2420 -0.3940
 8248SOL    HW232758   3.786   0.864   1.834  0.5230  0.9194 -0.2606
 8248SOL    HW332759   3.655   0.865   1.758  0.7549  1.6897 -0.6697
 8248SOL    MW432760   3.742   0.865   1.759  0.0168  0.0093 -0.4118
 8249SOL     OW32761   1.839   3.868   5.255  0.4337 -0.0928 -0.1872
 8249SOL    HW232762   1.919   3.921   5.252 -0.5342  1.6487  1.9046
 8249SOL    HW332763   1.772   3.928   5.288 -1.2489 -2.1023  0.2497
 8249SOL    MW432764   1.841   3.883   5.259  0.2304  0.4697 -0.2450
 8250SOL     OW32765   3.591   5.478   0.972  0.0066 -0.2308  0.5262
 8250SOL    HW232766   3.573   5.384   0.964 -1.4506  0.1014 -0.7016
 8250SOL    HW332767   3.504   5.518   0.977  0.5295  1.2067 -1.1168
 8250SOL    MW432768   3.577   5.471   0.972 -0.0496  0.0289  0.0652
 8251SOL     OW32769   0.809   3.158   1.177  0.2926  0.5066  0.2973
 8251SOL    HW232770   0.827   3.219   1.106 -0.4346  0.0329 -0.3072
 8251SOL    HW332771   0.865   3.082   1.158  0.5836  0.6409  0.5981
 8251SOL    MW432772   0.819   3.156   1.165 -0.4879 -0.6519  0.6060
 8252SOL     OW32773   4.099   0.069   3.003 -0.5323  0.2373 -0.2371
 8252SOL    HW232774   4.004   0.063   3.011 -0.6560 -1.7741 -2.2964
 8252SOL    HW332775   4.129  -0.021   2.993  1.6144  0.8267  0.2469
 8252SOL    MW432776   4.091   0.057   3.003 -0.3631  0.5993  0.2245
 8253SOL     OW32777   6.392   3.742   4.153 -0.3151  0.0242  0.1247
 8253SOL    HW232778   6.427   3.732   4.065  0.0068  1.0175  0.1326
 8253SOL    HW332779   6.386   3.652   4.186  1.6786 -0.2352 -0.0863
 8253SOL    MW432780   6.395   3.729   4.146  0.0056  0.3932 -0.5763
 8254SOL     OW32781   1.465   1.140   5.625  0.4375  0.2134 -0.3106
 8254SOL    HW232782   1.455   1.168   5.716  2.0531  2.3675 -0.7201
 8254SOL    HW332783   1.439   1.048   5.625 -2.0307  0.7961  1.8044
 8254SOL    MW432784   1.460   1.132   5.637  0.0772  0.5881  0.1034
 8255SOL     OW32785   3.193   5.368   2.820  0.0165  0.2612 -0.4167
 8255SOL    HW232786   3.146   5.285   2.819 -0.3680  0.4722 -1.2582
 8255SOL    HW332787   3.286   5.343   2.822 -0.0952 -0.1879 -0.6592
 8255SOL    MW432788   3.199   5.354   2.820  0.3203  0.3138 -0.1395
 8256SOL     OW32789   4.972   5.831   0.142  0.8575 -0.2085  0.0852
 8256SOL    HW232790   4.928   5.751   0.173  0.5345 -0.2108 -0.3521
 8256SOL    HW332791   4.957   5.895   0.211 -1.1530  0.2317 -0.6886
 8256SOL    MW432792   4.964   5.829   0.155 -0.1150  0.0088  0.6870
 8257SOL     OW32793   3.116   1.543   0.877  0.2299  0.4345  0.3071
 8257SOL    HW232794   3.176   1.508   0.812  0.6741 -0.6805  1.2695
 8257SOL    HW332795   3.172   1.563   0.953 -0.5178 -0.0146  0.9933
 8257SOL    MW432796   3.131   1.541   0.879  0.1498  0.1354  0.2669
 8258SOL     OW32797   0.723   6.047   0.040 -0.4946  0.2966 -0.2606
 8258SOL    HW232798   0.632   6.071   0.062 -0.8668  0.1439 -1.5448
 8258SOL    HW332799   0.760   6.126   0.001  0.2381  0.6425  1.0560
 8258SOL    MW432800   0.716   6.061   0.038 -0.0029 -0.1936  0.3606
 8259SOL     OW32801   5.957   2.373   5.156 -0.2829  0.2974 -0.1544
 8259SOL    HW232802   6.045   2.340   5.136 -1.4561 -1.6484 -2.6714
 8259SOL    HW332803   5.919   2.393   5.070 -2.1403  1.6088  0.9078
 8259SOL    MW432804   5.964   2.371   5.142  0.2502 -0.4049 -0.2903
 8260SOL     OW32805   0.562   3.908   1.803  0.0912  0.3255  0.1464
 8260SOL    HW232806   0.510   3.834   1.770  0.7288 -0.1329  0.1384
 8260SOL    HW332807   0.617   3.869   1.871  2.3668  0.1741 -1.6446
 8260SOL    MW432808   0.563   3.893   1.807 -0.5134 -0.4026 -0.8832
 8261SOL     OW32809   4.549   4.605   1.172 -0.5050  0.1139  0.2428
 8261SOL    HW232810   4.502   4.574   1.249 -1.0967  0.6144  0.0951
 8261SOL    HW332811   4.578   4.693   1.195 -2.4230  1.0713 -0.7891
 8261SOL    MW432812   4.546   4.613   1.185 -0.1798 -0.2192  0.8350
 8262SOL     OW32813   2.290   5.860   1.795  0.1152 -0.0356  0.5323
 8262SOL    HW232814   2.365   5.918   1.809  1.1816 -1.1868 -0.1765
 8262SOL    HW332815   2.301   5.790   1.860  1.2708 -1.7027 -1.3317
 8262SOL    MW432816   2.301   5.858   1.805  0.2281 -0.0444 -0.0983
 8263SOL     OW32817   1.059   4.957   3.491 -0.2197 -0.6156 -0.4502
 8263SOL    HW232818   1.026   4.920   3.409 -0.6542  0.2673 -0.6849
 8263SOL    HW332819   1.017   4.905   3.559  0.6139 -1.7619 -0.7688
 8263SOL    MW432820   1.049   4.945   3.489  0.5287 -0.3395  0.0504
 8264SOL     OW32821   5.160   6.280   3.654 -0.2234  0.1624  0.0849
 8264SOL    HW232822   5.187   6.193   3.622  0.2601 -0.1852  1.3770
 8264SOL    HW332823   5.210   6.292   3.734  0.3957  2.0466 -0.5439
 8264SOL    MW432824   5.170   6.270   3.660 -0.0340  0.4034  0.2682
 8265SOL     OW32825   1.104   2.795   5.935  0.8932  0.0273  0.8457
 8265SOL    HW232826   1.081   2.770   6.025 -1.3076  0.9416  0.6183
 8265SOL    HW332827   1.198   2.779   5.929  0.5324 -3.6172  2.1465
 8265SOL    MW432828   1.113   2.790   5.946 -0.3940 -0.0630  0.2140
 8266SOL     OW32829   3.460   2.998   3.598 -0.0383 -0.4652  0.0341
 8266SOL    HW232830   3.517   2.943   3.544  0.5538  0.6704 -0.5240
 8266SOL    HW332831   3.455   3.081   3.551 -1.1455 -0.1189  0.7245
 8266SOL    MW432832   3.467   3.002   3.585  0.2482  0.0184  0.5015
 8267SOL     OW32833   6.353   4.975   3.373  0.2344 -0.2233  0.2985
 8267SOL    HW232834   6.447   4.967   3.390  0.4796  0.3894 -0.6947
 8267SOL    HW332835   6.337   5.069   3.372 -0.6391 -0.3299  1.6797
 8267SOL    MW432836   6.363   4.986   3.375  0.5332  0.4411  0.1303
 8268SOL     OW32837   4.588   4.251   3.366 -0.1342  0.2750 -0.6449
 8268SOL    HW232838   4.494   4.271   3.368 -0.1692  0.0884 -0.3633
 8268SOL    HW332839   4.629   4.324   3.413 -0.2105 -0.0271 -0.1033
 8268SOL    MW432840   4.581   4.264   3.372  0.2147 -0.0819  0.6283
 8269SOL     OW32841   0.089   2.251   2.823  0.1602 -0.2150 -0.1872
 8269SOL    HW232842   0.087   2.181   2.758  2.1938 -0.3611 -0.1543
 8269SOL    HW332843   0.001   2.251   2.861  0.2655 -3.2466  0.3314
 8269SOL    MW432844   0.077   2.242   2.819  0.6603  0.0023  0.3574
 8270SOL     OW32845   0.164   6.305   6.095  0.3647 -0.6182  0.3738
 8270SOL    HW232846   0.108   6.366   6.143  0.2437  0.0450 -0.5779
 8270SOL    HW332847   0.230   6.361   6.054 -0.5344 -0.9250 -1.6328
 8270SOL    MW432848   0.165   6.320   6.096 -0.2593  0.4022 -0.2012
 8271SOL     OW32849   4.001   5.589   0.443  0.7112 -0.0377 -0.5735
 8271SOL    HW232850   3.984   5.669   0.492 -3.4069  0.6515 -2.6833
 8271SOL    HW332851   3.981   5.518   0.505 -0.5870  0.7079 -0.1083
 8271SOL    MW432852   3.996   5.590   0.458  0.2613 -0.3576 -0.2141
 8272SOL     OW32853   6.310   4.303   1.737 -0.2721  0.2635  0.1405
 8272SOL    HW232854   6.314   4.219   1.783 -1.2203 -0.3333 -0.8095
 8272SOL    HW332855   6.348   4.285   1.651 -0.0791  0.9151  0.0875
 8272SOL    MW432856   6.315   4.289   1.731  0.3586  0.1008  0.5004
 8273SOL     OW32857   6.088   4.159   0.249 -0.0091 -0.8524 -0.4421
 8273SOL    HW232858   6.139   4.236   0.225 -1.0393 -0.3089 -0.9699
 8273SOL    HW332859   6.034   4.141   0.172 -2.1158 -0.1485  0.7705
 8273SOL    MW432860   6.088   4.167   0.236  0.5469 -0.0810 -0.7541
 8274SOL     OW32861   1.692   4.577   4.387 -0.0967 -0.3672 -0.3044
 8274SOL    HW232862   1.666   4.522   4.314  0.4651 -0.0652 -0.7405
 8274SOL    HW332863   1.783   4.555   4.403  0.1168  0.3810 -0.4468
 8274SOL    MW432864   1.700   4.567   4.380 -0.7118 -0.2930  0.2013
 8275SOL     OW32865   2.534   2.421   4.437  0.0347  0.0070 -0.4497
 8275SOL    HW232866   2.470   2.370   4.388  0.5067 -0.3591 -0.6949
 8275SOL    HW332867   2.492   2.506   4.450 -0.6610 -0.3631 -0.2452
 8275SOL    MW432868   2.520   2.426   4.432 -0.8739 -0.5219  0.3538
 8276SOL     OW32869   0.729   3.034   2.412 -0.6108 -0.4041 -0.0399
 8276SOL    HW232870   0.782   3.042   2.491  1.5344  1.5489 -1.5256
 8276SOL    HW332871   0.750   2.947   2.378  0.2535 -0.3751  0.3720
 8276SOL    MW432872   0.739   3.023   2.418  0.3050 -0.4814 -0.0881
 8277SOL     OW32873   0.413   4.781   3.872 -0.1552 -0.3303 -0.8057
 8277SOL    HW232874   0.464   4.796   3.792  2.1190 -0.6182  0.5095
 8277SOL    HW332875   0.381   4.868   3.897  0.7615  0.0682 -0.9966
 8277SOL    MW432876   0.416   4.795   3.865 -0.3919  0.5737 -0.2487
 8278SOL     OW32877   4.494   3.466   0.160 -0.5269  0.1747 -0.2679
 8278SOL    HW232878   4.551   3.489   0.087  1.2107  1.8004  1.4748
 8278SOL    HW332879   4.443   3.546   0.176  1.6107  1.1298  2.4072
 8278SOL    MW432880   4.495   3.480   0.152 -0.0030  0.8410 -0.1804
 8279SOL     OW32881   3.993   4.963   5.490 -0.2040 -0.3266 -0.1119
 8279SOL    HW232882   4.006   5.032   5.425  0.6712 -0.9347 -0.6058
 8279SOL    HW332883   4.030   4.999   5.571 -0.6180  0.1390 -0.1240
 8279SOL    MW432884   4.000   4.977   5.492 -0.0039  0.1900  0.0551
 8280SOL     OW32885   2.421   3.723   4.505  0.2103 -0.3915  0.4111
 8280SOL    HW232886   2.489   3.685   4.449  0.4610  0.4137  0.1460
 8280SOL    HW332887   2.350   3.659   4.504  0.5768 -0.7982 -0.0989
 8280SOL    MW432888   2.421   3.709   4.497  0.0995  0.0327  0.1312
 8281SOL     OW32889   3.237   3.161   4.043 -0.0875 -0.1039  0.1263
 8281SOL    HW232890   3.204   3.172   4.132  3.2129  0.4896  1.4095
 8281SOL    HW332891   3.291   3.238   4.027 -1.8656  0.6335 -3.1064
 8281SOL    MW432892   3.240   3.172   4.053  0.8459  0.1828  0.2418
 8282SOL     OW32893   4.523   1.671   1.161  0.1493  0.2024  0.1963
 8282SOL    HW232894   4.584   1.718   1.104 -0.5259  0.7436 -0.0976
 8282SOL    HW332895   4.437   1.707   1.139 -0.0020  1.4140  2.5020
 8282SOL    MW432896   4.520   1.682   1.151  0.3533  0.1803  0.1938
 8283SOL     OW32897   3.890   0.350   3.592 -0.6344  0.4226  0.4175
 8283SOL    HW232898   3.963   0.298   3.625  0.4829  1.6889  0.0541
 8283SOL    HW332899   3.815   0.292   3.596  0.1889 -0.6016  1.7628
 8283SOL    MW432900   3.890   0.336   3.597  0.0062  0.0769 -0.3227
 8284SOL     OW32901   1.865   3.110   0.624 -0.2485  0.0752  0.0524
 8284SOL    HW232902   1.834   3.119   0.533 -1.8133  0.3711  0.5862
 8284SOL    HW332903   1.900   3.021   0.629 -0.1956  0.0367 -0.8308
 8284SOL    MW432904   1.865   3.100   0.612 -0.2590 -0.1859  0.1605
 8285SOL     OW32905   1.474   5.021   1.319  0.0122  0.0449 -0.3719
 8285SOL    HW232906   1.510   4.978   1.241 -0.4903  0.3252 -0.7660
 8285SOL    HW332907   1.482   4.956   1.388  2.5192  0.5372 -0.0998
 8285SOL    MW432908   1.480   5.007   1.318 -0.5103 -0.2390 -0.3189
 8286SOL     OW32909   2.506   1.704   4.364  0.1879  0.0180 -0.0126
 8286SOL    HW232910   2.593   1.666   4.354 -0.2412 -0.3535 -3.4358
 8286SOL    HW332911   2.522   1.787   4.410  2.1712 -0.4847  0.3254
 8286SOL    MW432912   2.520   1.710   4.369  0.1357 -0.2599 -0.2371
 8287SOL     OW32913   3.526   0.099   2.483  0.2487 -0.9030  0.3057
 8287SOL    HW232914   3.596   0.094   2.548 -0.4778  0.7959  1.3046
 8287SOL    HW332915   3.468   0.168   2.516  0.3201  0.7296 -2.5692
 8287SOL    MW432916   3.528   0.108   2.496 -0.1671 -0.1874 -0.2641
 8288SOL     OW32917   0.202   1.288   5.781  0.6656  0.2770 -0.2526
 8288SOL    HW232918   0.292   1.304   5.752  1.3039  0.7287  1.7966
 8288SOL    HW332919   0.195   1.192   5.787  1.5421  0.2741  1.0386
 8288SOL    MW432920   0.213   1.277   5.778 -0.5594 -0.2772 -0.7447
 8289SOL     OW32921   1.375   5.482   2.727  0.2884  0.5944 -0.2798
 8289SOL    HW232922   1.411   5.499   2.814  1.4665  0.1184 -0.6460
 8289SOL    HW332923   1.336   5.394   2.735 -1.5578  1.4107  0.3233
 8289SOL    MW432924   1.374   5.472   2.740  0.0057 -0.1196  0.3546
 8290SOL     OW32925   4.775   1.717   5.269  0.2328  0.4991  0.7219
 8290SOL    HW232926   4.716   1.666   5.213 -0.6556  1.9151  0.3153
 8290SOL    HW332927   4.860   1.710   5.226 -0.0471  0.0038  0.2343
 8290SOL    MW432928   4.778   1.710   5.256  0.0678  0.2885 -0.3079
 8291SOL     OW32929   1.499   6.207   0.437 -0.0581  0.1357 -0.0156
 8291SOL    HW232930   1.544   6.292   0.435  0.0156  0.1741  1.6661
 8291SOL    HW332931   1.536   6.159   0.363 -0.9159  1.9345 -1.6956
 8291SOL    MW432932   1.510   6.212   0.427 -0.2818  0.1855 -0.5670
 8292SOL     OW32933   1.918   2.968   4.371 -0.0544 -0.3121  0.6549
 8292SOL    HW232934   1.998   3.002   4.331  0.3841 -2.4422 -0.4169
 8292SOL    HW332935   1.948   2.925   4.451 -0.5002  1.0901  1.6034
 8292SOL    MW432936   1.932   2.967   4.376  0.0761  0.3163  0.1752
 8293SOL     OW32937   6.167   6.258   6.204  0.1410  0.3986  0.0912
 8293SOL    HW232938   6.163   6.344   6.246  1.2871 -0.3410  1.8456
 8293SOL    HW332939   6.190   6.198   6.275 -0.3639 -1.3318 -1.1383
 8293SOL    MW432940   6.170   6.261   6.219 -0.4389  0.2454 -0.2006
 8294SOL     OW32941   0.737   2.213   0.334 -0.6972 -0.3618 -0.4872
 8294SOL    HW232942   0.775   2.155   0.267  0.4131 -1.0688  0.6939
 8294SOL    HW332943   0.783   2.188   0.415 -2.2602  0.2044  0.6120
 8294SOL    MW432944   0.748   2.202   0.336 -0.2085 -0.1337  0.0281
 8295SOL     OW32945   6.139   5.896   2.626 -0.6232  0.4064  0.0601
 8295SOL    HW232946   6.162   5.805   2.645  0.3301  0.3500 -1.1917
 8295SOL    HW332947   6.203   5.923   2.560 -1.6813  1.5932 -0.5127
 8295SOL    MW432948   6.150   5.888   2.620 -0.7361 -0.6499 -0.1084
 8296SOL     OW32949   1.653   3.840   2.305  0.2018  0.1462 -0.3338
 8296SOL    HW232950   1.717   3.905   2.334  1.2270 -0.7092 -0.5975
 8296SOL    HW332951   1.646   3.779   2.379  1.5165 -1.0813 -1.1755
 8296SOL    MW432952   1.661   3.841   2.319 -0.0337 -0.3847  0.3262
 8297SOL     OW32953   3.286   3.304   0.522 -0.7544  0.2233  0.4549
 8297SOL    HW232954   3.255   3.382   0.474 -0.7853 -1.2396 -2.0995
 8297SOL    HW332955   3.381   3.316   0.527 -0.7744  0.5120  0.2277
 8297SOL    MW432956   3.294   3.316   0.516 -0.2628 -0.1245  0.5651
 8298SOL     OW32957   5.996   1.164   4.827  0.0376 -0.2661  0.0521
 8298SOL    HW232958   6.024   1.178   4.736 -0.9340 -1.0471 -0.3887
 8298SOL    HW332959   6.045   1.229   4.877 -1.8292  2.5059 -1.4387
 8298SOL    MW432960   6.006   1.174   4.822  1.1061 -0.0666  0.5340
 8299SOL     OW32961   3.341   5.944   5.173  0.1545 -0.0668  0.2446
 8299SOL    HW232962   3.359   5.922   5.082 -1.5837 -2.7723  0.4571
 8299SOL    HW332963   3.280   6.018   5.169 -0.8944 -0.9668 -0.8470
 8299SOL    MW432964   3.335   5.951   5.161  0.0921  0.4835  0.2262
 8300SOL     OW32965   3.384   1.170   3.069 -0.0476  0.5907 -0.0173
 8300SOL    HW232966   3.314   1.152   3.007  0.6419 -1.1290 -0.3433
 8300SOL    HW332967   3.454   1.209   3.017 -0.3995  1.4718  0.1505
 8300SOL    MW432968   3.384   1.173   3.054 -0.0007 -0.3023 -0.0588
 8301SOL     OW32969   2.243   0.879   3.744  0.4777  0.0573 -0.2302
 8301SOL    HW232970   2.221   0.972   3.753  1.7520  0.3753 -0.2381
 8301SOL    HW332971   2.243   0.845   3.833 -0.1574  0.0148 -0.2411
 8301SOL    MW432972   2.240   0.887   3.757  0.7259 -0.2514  0.1326
 8302SOL     OW32973   4.160   0.921   2.203 -0.1088  0.1994  0.3456
 8302SOL    HW232974   4.230   0.867   2.167 -0.3491 -0.3131  0.6300
 8302SOL    HW332975   4.107   0.860   2.255 -0.4678  0.6809  0.5549
 8302SOL    MW432976   4.162   0.906   2.205 -0.3424  0.3292  0.0991
 8303SOL     OW32977   1.328   0.276   5.162  0.5376 -0.4603  0.4414
 8303SOL    HW232978   1.332   0.369   5.140  0.0991 -0.1385  1.6450
 8303SOL    HW332979   1.277   0.237   5.091 -1.7533  0.7182  1.3391
 8303SOL    MW432980   1.322   0.283   5.149 -0.0774 -0.0692 -0.2664
 8304SOL     OW32981   2.991   2.202   4.366  0.0495  0.6075  0.1822
 8304SOL    HW232982   3.046   2.133   4.328 -0.2753  1.4827 -2.0124
 8304SOL    HW332983   2.925   2.220   4.298 -2.2513  0.4333  2.2331
 8304SOL    MW432984   2.990   2.195   4.352  0.0761  0.2249 -0.1222
 8305SOL     OW32985   3.795   2.111   4.442 -0.1529  0.3920  0.1687
 8305SOL    HW232986   3.816   2.058   4.519 -0.0105  0.5090  0.2115
 8305SOL    HW332987   3.702   2.094   4.425  0.2235 -1.0153 -0.6939
 8305SOL    MW432988   3.786   2.101   4.450 -0.1841 -0.2085  0.0701
 8306SOL     OW32989   4.371   0.013   2.691  0.5363 -0.2590  0.0694
 8306SOL    HW232990   4.444   0.071   2.665 -1.2982  1.7073 -1.0175
 8306SOL    HW332991   4.363  -0.049   2.618 -0.1304  0.8266 -0.8186
 8306SOL    MW432992   4.380   0.012   2.678  0.0394  0.2634 -0.4122
 8307SOL     OW32993   1.863   3.061   2.475 -0.4138 -0.4964 -0.3312
 8307SOL    HW232994   1.911   3.008   2.539 -0.5713 -0.6647 -0.3506
 8307SOL    HW332995   1.862   3.149   2.513 -1.1387 -0.7476  0.2518
 8307SOL    MW432996   1.869   3.066   2.489  0.2251  0.5313 -0.0083
 8308SOL     OW32997   5.859   3.475   4.052  0.5825  0.1127 -0.0968
 8308SOL    HW232998   5.851   3.523   4.135 -1.5078 -1.4503  0.7144
 8308SOL    HW332999   5.775   3.490   4.008  0.8202 -0.8540 -0.9188
 8308SOL    MW433000   5.847   3.483   4.057  0.4354 -0.0805  0.2438
 8309SOL     OW33001   5.421   5.490   2.277 -0.2839 -0.0133 -0.6269
 8309SOL    HW233002   5.327   5.477   2.261 -0.1862 -0.3883 -0.9266
 8309SOL    HW333003   5.457   5.401   2.276 -0.0171  0.0830  0.1096
 8309SOL    MW433004   5.413   5.476   2.275  0.0992  0.2828 -0.2549
 8310SOL     OW33005   3.846   5.616   5.675  0.5846  0.0473 -0.1712
 8310SOL    HW233006   3.906   5.573   5.614 -0.2443  0.1043 -1.0410
 8310SOL    HW333007   3.776   5.553   5.690  0.3678  0.3408  0.0773
 8310SOL    MW433008   3.845   5.602   5.669 -0.0580  0.1343  0.1813
 8311SOL     OW33009   1.786   3.969   3.451 -0.8376 -0.4444 -0.5682
 8311SOL    HW233010   1.810   4.006   3.535  1.3207 -1.6274 -0.5828
 8311SOL    HW333011   1.712   3.912   3.470 -0.2647 -0.8386  0.5825
 8311SOL    MW433012   1.779   3.966   3.464  0.2415 -0.2913  0.1098
 8312SOL     OW33013   2.428   3.180   0.051  0.2049  0.4531 -0.3565
 8312SOL    HW233014   2.352   3.126   0.033 -0.9930  1.7617  0.5651
 8312SOL    HW333015   2.392   3.265   0.077  1.9358  0.7873  1.1727
 8312SOL    MW433016   2.414   3.184   0.052 -0.0906 -0.2298 -0.0765
 8313SOL     OW33017   3.844   2.584   2.391  0.6221  0.0812  0.8910
 8313SOL    HW233018   3.865   2.611   2.481 -0.0975  1.1209  0.7664
 8313SOL    HW333019   3.918   2.530   2.365  1.9700  1.6061  1.3442
 8313SOL    MW433020   3.857   2.581   2.400  0.1116  0.0327 -0.1808
 8314SOL     OW33021   1.065   0.284   2.506 -0.0729  0.1734 -0.1562
 8314SOL    HW233022   1.149   0.256   2.544  0.0546  0.0596 -0.5176
 8314SOL    HW333023   1.030   0.205   2.464 -0.7470  0.0181  0.6755
 8314SOL    MW433024   1.072   0.270   2.505 -0.0574 -0.1998  0.5509
 8315SOL     OW33025   2.397   2.047   0.506  0.5835 -0.6022  0.1816
 8315SOL    HW233026   2.307   2.020   0.521  1.2099 -1.7844  2.1170
 8315SOL    HW333027   2.393   2.142   0.495 -1.0838 -0.8318 -1.7265
 8315SOL    MW433028   2.385   2.055   0.506 -0.0489  0.1392 -0.2533
 8316SOL     OW33029   6.343   1.564   3.120 -0.4037  0.1323 -0.3184
 8316SOL    HW233030   6.257   1.565   3.078 -0.3557 -0.7277 -0.4403
 8316SOL    HW333031   6.401   1.523   3.057 -0.5630 -2.2352  0.9769
 8316SOL    MW433032   6.339   1.559   3.106 -0.2757 -0.3281 -0.7125
 8317SOL     OW33033   3.774   0.037   2.314  0.2147  0.1256 -0.5973
 8317SOL    HW233034   3.776  -0.056   2.336  1.9832  0.2302 -0.2290
 8317SOL    HW333035   3.691   0.068   2.350  0.3395 -0.9666  0.7043
 8317SOL    MW433036   3.763   0.029   2.322  0.1143  0.1018 -0.2496
 8318SOL     OW33037   1.945   2.056   3.045  0.3256  0.5472 -0.1627
 8318SOL    HW233038   1.981   2.094   3.124 -1.4436 -0.1820  1.0639
 8318SOL    HW333039   2.017   2.006   3.007  1.2742  1.1179  0.8406
 8318SOL    MW433040   1.959   2.054   3.050  0.0747  0.2841 -0.1603
 8319SOL     OW33041   6.312   5.162   1.015  0.1266  0.1709  0.3368
 8319SOL    HW233042   6.319   5.254   1.040 -1.5104  0.4941 -0.2707
 8319SOL    HW333043   6.270   5.163   0.930  2.5891 -1.0563 -1.0265
 8319SOL    MW433044   6.308   5.174   1.007 -0.0160  0.0173  0.6055
 8320SOL     OW33045   0.759   1.030   5.129 -0.2376 -0.0976 -0.7148
 8320SOL    HW233046   0.766   0.968   5.056  0.4960  0.7952 -1.4103
 8320SOL    HW333047   0.664   1.039   5.143 -0.4003 -0.0430 -1.7605
 8320SOL    MW433048   0.747   1.023   5.121 -0.2386  0.5677  0.3810
 8321SOL     OW33049   5.098   3.249   5.543  0.1298  0.7453 -0.1563
 8321SOL    HW233050   5.087   3.174   5.601  1.2849  0.9372  0.3342
 8321SOL    HW333051   5.179   3.231   5.495 -1.7490 -0.3354 -3.1779
 8321SOL    MW433052   5.107   3.237   5.544  0.4897  0.0504 -0.1259
 8322SOL     OW33053   2.036   0.384   4.109 -1.0488 -0.7573  0.0091
 8322SOL    HW233054   1.991   0.441   4.171 -0.3375 -0.7052  0.4894
 8322SOL    HW333055   1.995   0.298   4.121 -0.9399 -0.7372  0.5260
 8322SOL    MW433056   2.025   0.380   4.119  0.5118 -0.4647 -0.4386
 8323SOL     OW33057   4.508   0.797   4.251  0.8791 -0.3677  0.0965
 8323SOL    HW233058   4.451   0.851   4.306  0.9710 -2.6408  2.6598
 8323SOL    HW333059   4.448   0.755   4.188  0.4999  0.9077 -0.4263
 8323SOL    MW433060   4.492   0.798   4.250 -0.0405 -0.4238 -0.4455
 8324SOL     OW33061   0.676   1.472   4.313 -0.0275 -0.0714  0.1029
 8324SOL    HW233062   0.674   1.398   4.253  2.7196  1.6888 -2.4412
 8324SOL    HW333063   0.653   1.548   4.259 -1.1622  1.2078  2.2184
 8324SOL    MW433064   0.672   1.472   4.298 -0.1348 -0.7508 -0.3283
 8325SOL     OW33065   4.128   4.455   6.329 -0.2521  0.7396 -0.9020
 8325SOL    HW233066   4.113   4.390   6.261  1.2947 -0.7269  0.0747
 8325SOL    HW333067   4.210   4.428   6.371 -1.1493  1.5654  1.5496
 8325SOL    MW433068   4.137   4.443   6.326  0.4603 -0.1910  0.4833
 8326SOL     OW33069   0.679   5.437   2.873 -0.0021 -0.1668 -0.7530
 8326SOL    HW233070   0.590   5.427   2.907  0.5260  1.2049  1.1698
 8326SOL    HW333071   0.707   5.347   2.855 -1.0968 -0.7819  0.4459
 8326SOL    MW433072   0.671   5.423   2.875  0.0355 -0.4492  0.0864
 8327SOL     OW33073   3.137   5.574   0.123  0.0853 -0.4726  0.2889
 8327SOL    HW233074   3.209   5.559   0.184 -0.8162  0.4576  1.6639
 8327SOL    HW333075   3.123   5.669   0.126 -1.3841 -0.6671  0.3068
 8327SOL    MW433076   3.145   5.584   0.132  0.0198  0.5713  0.3262
 8328SOL     OW33077   2.958   6.008   3.434 -0.5579  0.4737 -0.5275
 8328SOL    HW233078   2.868   6.017   3.465 -0.8880 -1.4422 -0.8633
 8328SOL    HW333079   2.996   5.940   3.490  0.3680  0.5077 -1.0967
 8328SOL    MW433080   2.951   6.000   3.446  0.2238  0.2609 -0.5750
 8329SOL     OW33081   4.040   3.785   1.991  0.1302 -0.3077  0.2204
 8329SOL    HW233082   4.114   3.763   2.049 -0.5971 -0.4089  1.1385
 8329SOL    HW333083   4.080   3.829   1.916  1.2609 -1.6046  0.0326
 8329SOL    MW433084   4.055   3.788   1.989 -0.6863 -0.0018 -0.1826
 8330SOL     OW33085   3.204   0.838   3.202 -0.1255  0.1541  0.0552
 8330SOL    HW233086   3.154   0.774   3.253 -1.7528  2.1012  1.0371
 8330SOL    HW333087   3.250   0.891   3.267  1.3035 -0.0654 -0.7442
 8330SOL    MW433088   3.203   0.837   3.217  0.0924 -0.2742  0.0375
 8331SOL     OW33089   3.269   1.651   2.766  0.0158  0.2173 -0.2464
 8331SOL    HW233090   3.347   1.685   2.722 -0.5599  0.1078 -1.4035
 8331SOL    HW333091   3.287   1.661   2.859  0.5757  2.0588 -0.5189
 8331SOL    MW433092   3.282   1.657   2.773 -0.2234  0.2031  0.1118
 8332SOL     OW33093   2.156   1.037   5.513 -0.4997 -0.7076  0.5819
 8332SOL    HW233094   2.165   1.113   5.456 -2.5691  0.1698  1.3494
 8332SOL    HW333095   2.117   0.969   5.458 -1.8341 -0.0879  0.7409
 8332SOL    MW433096   2.152   1.038   5.498 -0.5145  0.0226 -0.1407
 8333SOL     OW33097   0.418   4.088   1.125  0.4140  0.1337 -0.4891
 8333SOL    HW233098   0.378   4.152   1.067 -1.1590  0.9478  1.3913
 8333SOL    HW333099   0.360   4.012   1.121  0.8328 -0.1775 -0.7086
 8333SOL    MW433100   0.405   4.087   1.117  0.0845  0.0411 -0.2478
 8334SOL     OW33101   5.600   4.544   1.947 -0.1408  0.5552  0.0816
 8334SOL    HW233102   5.684   4.539   1.902  0.4168  1.6544  0.9454
 8334SOL    HW333103   5.604   4.626   1.996 -2.3172  1.4212 -1.0395
 8334SOL    MW433104   5.612   4.554   1.948 -0.0823  0.1520 -0.4248
 8335SOL     OW33105   3.781   0.996   0.198  0.2865 -0.2622 -0.5812
 8335SOL    HW233106   3.805   1.018   0.108 -0.2083  0.5284 -0.5254
 8335SOL    HW333107   3.830   0.916   0.217 -1.0030 -1.5185 -2.1974
 8335SOL    MW433108   3.790   0.988   0.189  0.8272  0.3204  0.0158
 8336SOL     OW33109   3.127   1.929   2.982  0.0882  0.3732 -0.4000
 8336SOL    HW233110   3.143   1.844   3.024 -1.0012 -0.3589 -1.3948
 8336SOL    HW333111   3.162   1.993   3.044  2.3766 -0.8400 -0.3265
 8336SOL    MW433112   3.133   1.926   2.996 -0.1424 -0.4473 -0.0919
 8337SOL     OW33113   4.943   1.921   0.601 -0.0423 -0.2866  0.1845
 8337SOL    HW233114   4.938   1.928   0.506  1.0615  0.9534  0.1899
 8337SOL    HW333115   5.012   1.982   0.626  1.1352 -2.0959  1.6038
 8337SOL    MW433116   4.951   1.930   0.592 -0.3509 -0.1132 -0.0302
 8338SOL     OW33117   0.648   6.108   5.580 -0.2162 -0.2331 -0.3703
 8338SOL    HW233118   0.572   6.163   5.597  1.2265  2.2063 -1.3278
 8338SOL    HW333119   0.690   6.098   5.666 -1.6823 -1.8587  0.2239
 8338SOL    MW433120   0.644   6.114   5.594  0.0269 -0.2671  0.2178
 8339SOL     OW33121   5.545   0.712   1.918  0.6201  0.4521 -0.2494
 8339SOL    HW233122   5.594   0.669   1.848 -1.7733 -2.3832 -0.3902
 8339SOL    HW333123   5.586   0.682   1.999  0.6919  0.1810 -0.3875
 8339SOL    MW433124   5.557   0.702   1.920  0.5043 -0.0055  0.6469
 8340SOL     OW33125   1.675   4.268   2.223 -0.3424 -0.0364 -0.1342
 8340SOL    HW233126   1.608   4.246   2.288  0.1390 -1.0939  0.0108
 8340SOL    HW333127   1.655   4.359   2.198 -2.0837 -0.4620 -0.4028
 8340SOL    MW433128   1.663   4.277   2.228 -0.0503 -0.0420  0.3064
 8341SOL     OW33129   4.574   0.271   1.045 -0.1018  0.5935  0.2962
 8341SOL    HW233130   4.664   0.261   1.075 -0.5091  1.1489  1.7537
 8341SOL    HW333131   4.560   0.366   1.041 -0.1932  0.5431 -1.3174
 8341SOL    MW433132   4.584   0.282   1.048  0.6072  0.4401 -0.0609
 8342SOL     OW33133   0.278   5.625   1.976 -0.6681  0.0645  0.1896
 8342SOL    HW233134   0.359   5.656   1.937  1.1949  0.0405  3.6587
 8342SOL    HW333135   0.256   5.691   2.042 -0.1604 -2.5805  3.2793
 8342SOL    MW433136   0.285   5.638   1.979  0.3554  0.2455  0.2745
 8343SOL     OW33137   2.838   1.063   0.485 -0.5370 -0.3694 -0.3431
 8343SOL    HW233138   2.923   1.085   0.524 -0.7401  1.7390 -0.9471
 8343SOL    HW333139   2.855   1.058   0.391 -1.0528 -0.0633 -0.4552
 8343SOL    MW433140   2.851   1.065   0.478 -0.0261 -0.3287 -0.1877
 8344SOL     OW33141   4.206   2.775   3.494 -0.8244  0.1327  0.3552
 8344SOL    HW233142   4.233   2.860   3.529 -0.8550 -0.1058  0.9742
 8344SOL    HW333143   4.288   2.732   3.471 -0.8652  0.9226 -1.4302
 8344SOL    MW433144   4.221   2.781   3.496  0.4142 -0.2469  0.3592
 8345SOL     OW33145   5.002   5.653   3.412 -0.6086 -0.7094 -0.1666
 8345SOL    HW233146   4.992   5.604   3.494  1.2190 -1.4007 -0.3022
 8345SOL    HW333147   5.029   5.588   3.348 -0.8423  0.0271 -1.0365
 8345SOL    MW433148   5.004   5.638   3.415  0.0504  0.2501 -0.3670
 8346SOL     OW33149   4.198   6.252   4.663 -0.1784  0.5115  0.2725
 8346SOL    HW233150   4.204   6.182   4.728  0.1153 -1.7832 -2.0209
 8346SOL    HW333151   4.279   6.301   4.673  0.6492 -0.8554  0.5616
 8346SOL    MW433152   4.209   6.249   4.673  0.2122  0.1863  0.0407
 8347SOL     OW33153   3.331   6.017   2.130 -0.0271  0.4159 -0.5345
 8347SOL    HW233154   3.376   6.101   2.137  1.5394 -0.2962 -1.4983
 8347SOL    HW333155   3.361   5.967   2.205 -0.2943  0.4059 -0.4314
 8347SOL    MW433156   3.341   6.022   2.141  0.9834 -0.0690  0.2225
 8348SOL     OW33157   4.693   3.975   3.037 -0.3075  0.4194 -0.1385
 8348SOL    HW233158   4.610   3.964   3.083 -0.5996 -0.9699 -0.9264
 8348SOL    HW333159   4.719   3.886   3.014  0.9592  0.9099 -0.6837
 8348SOL    MW433160   4.685   3.962   3.040 -0.3595 -0.1656 -0.4044
 8349SOL     OW33161   3.450   5.542   4.692  0.1375  0.5382  0.0699
 8349SOL    HW233162   3.506   5.464   4.691 -0.0307  0.4135  0.2754
 8349SOL    HW333163   3.374   5.517   4.640 -0.0315  0.4760  0.3424
 8349SOL    MW433164   3.448   5.528   4.685  0.0501 -0.0017  0.4615
 8350SOL     OW33165   5.451   4.969   4.198 -0.2576 -0.7873 -0.2123
 8350SOL    HW233166   5.452   5.052   4.150 -0.7286  0.0432  1.1588
 8350SOL    HW333167   5.536   4.929   4.181 -0.1446 -0.1737 -1.1274
 8350SOL    MW433168   5.462   4.974   4.189  0.3322  0.2315  0.5965
 8351SOL     OW33169   2.046   1.060   1.960 -0.6306  0.2870 -0.3986
 8351SOL    HW233170   2.062   1.065   1.866  1.1154  1.4351 -0.0929
 8351SOL    HW333171   2.111   0.998   1.993  0.9227  2.2411  0.4144
 8351SOL    MW433172   2.057   1.052   1.952  0.1374  0.0558  0.1998
 8352SOL     OW33173   1.545   5.112   4.689  0.3255  0.6722  0.2007
 8352SOL    HW233174   1.470   5.171   4.696 -0.0394  0.1770  0.5399
 8352SOL    HW333175   1.526   5.041   4.751  0.4280 -0.1458 -0.6761
 8352SOL    MW433176   1.532   5.110   4.698  0.3125  0.6251  0.4243
 8353SOL     OW33177   4.080   6.112   5.643  0.2512  0.3518 -0.2761
 8353SOL    HW233178   4.135   6.164   5.585 -0.4615  0.0733 -1.2401
 8353SOL    HW333179   4.002   6.166   5.656  0.0270  0.0336 -0.3022
 8353SOL    MW433180   4.077   6.126   5.637  0.2773 -0.1136 -0.4462
 8354SOL     OW33181   1.925   0.223   5.583 -0.4525  0.1420  0.1338
 8354SOL    HW233182   1.941   0.225   5.488 -0.4836  0.5381  0.1354
 8354SOL    HW333183   1.843   0.176   5.592 -1.0607  1.1100 -0.1266
 8354SOL    MW433184   1.916   0.217   5.571  0.0420  0.7843  0.3074
 8355SOL     OW33185   4.905   3.867   4.753 -0.1359 -0.6466 -0.0991
 8355SOL    HW233186   4.833   3.931   4.754  0.4922  0.0734 -0.1367
 8355SOL    HW333187   4.911   3.840   4.661  1.4043  1.3565 -0.6544
 8355SOL    MW433188   4.896   3.872   4.741  0.1706  0.0775  0.3154
 8356SOL     OW33189   4.846   1.613   1.809  0.1391  0.0650  0.0072
 8356SOL    HW233190   4.879   1.553   1.741  1.0116 -2.2634  2.3282
 8356SOL    HW333191   4.751   1.600   1.809  0.1030  0.2645 -0.8963
 8356SOL    MW433192   4.838   1.603   1.800 -0.0761  0.3454 -0.6422
 8357SOL     OW33193   1.470   5.081   5.475  0.2208  0.2759 -0.5635
 8357SOL    HW233194   1.485   5.009   5.536  1.4950 -0.4122 -1.6413
 8357SOL    HW333195   1.437   5.152   5.530  0.1318 -0.7169  0.7209
 8357SOL    MW433196   1.468   5.081   5.490  0.2844 -0.4177  0.3247
 8358SOL     OW33197   0.053   0.711   6.326  0.1124 -0.0005  0.1936
 8358SOL    HW233198   0.012   0.680   6.407  1.7076  0.4122  1.1995
 8358SOL    HW333199   0.100   0.635   6.292  0.8551  0.2810  0.5845
 8358SOL    MW433200   0.054   0.697   6.332 -0.3191  0.1953 -0.0863
 8359SOL     OW33201   5.133   4.468   2.373  0.8222  0.2559  0.3323
 8359SOL    HW233202   5.155   4.455   2.465 -3.1906 -1.1678  1.2939
 8359SOL    HW333203   5.067   4.537   2.373 -0.4621 -0.8953 -1.2291
 8359SOL    MW433204   5.127   4.475   2.385  0.2531  0.4632  0.4599
 8360SOL     OW33205   5.041   1.044   4.807  0.4351  0.2378 -0.0894
 8360SOL    HW233206   5.024   0.978   4.740  1.9307 -1.3583  1.0457
 8360SOL    HW333207   5.038   0.997   4.890  1.7403  1.5313  0.7512
 8360SOL    MW433208   5.038   1.029   4.809  0.4198  0.1267  0.1124
 8361SOL     OW33209   0.317   0.091   5.969  0.1519 -0.3409  0.1112
 8361SOL    HW233210   0.362   0.042   5.899  0.7398 -1.9684  1.5597
 8361SOL    HW333211   0.353   0.179   5.964  1.3766 -0.8656 -0.6067
 8361SOL    MW433212   0.327   0.096   5.959 -0.0813  0.2311  0.0468
 8362SOL     OW33213   1.822   2.002   0.965 -0.2742  0.3691  0.5670
 8362SOL    HW233214   1.874   1.947   0.906 -0.7967  0.9175 -0.4459
 8362SOL    HW333215   1.872   2.083   0.971 -1.5236  1.3612 -1.3835
 8362SOL    MW433216   1.835   2.005   0.958  0.6888  0.6949 -0.5686
 8363SOL     OW33217   0.264   3.693   5.842 -0.7557 -0.0563 -0.6636
 8363SOL    HW233218   0.192   3.702   5.780 -0.7322 -0.9903 -0.8417
 8363SOL    HW333219   0.277   3.599   5.850 -0.4763  0.0609  0.4432
 8363SOL    MW433220   0.256   3.682   5.835  0.3311  0.4919 -0.6835
 8364SOL     OW33221   0.615   4.703   6.136  0.9253  0.7451 -0.4225
 8364SOL    HW233222   0.681   4.648   6.094  1.5337 -0.4233  1.8931
 8364SOL    HW333223   0.556   4.642   6.180 -0.0953  1.8645 -0.1658
 8364SOL    MW433224   0.616   4.688   6.136 -0.9562 -0.4524 -0.3871
 8365SOL     OW33225   0.758   6.371   0.622 -0.1029  0.5700  0.1814
 8365SOL    HW233226   0.799   6.450   0.587  1.3827  0.4231  1.4847
 8365SOL    HW333227   0.734   6.320   0.545  0.4031  1.5487 -0.6545
 8365SOL    MW433228   0.760   6.375   0.607 -0.3005 -0.1047  0.5350
 8366SOL     OW33229   2.926   3.675   5.217 -0.5863  0.3099  0.0928
 8366SOL    HW233230   2.902   3.659   5.308 -2.4156 -3.0113 -0.8051
 8366SOL    HW333231   2.864   3.740   5.187 -0.2100  1.1581  1.0796
 8366SOL    MW433232   2.915   3.681   5.225 -1.0600  0.1358 -0.5190
 8367SOL     OW33233   3.588   2.259   6.021  0.3732  0.5489 -0.3255
 8367SOL    HW233234   3.613   2.172   5.989  0.8882  1.1306 -1.6110
 8367SOL    HW333235   3.504   2.276   5.979 -1.4406 -0.6393  2.5372
 8367SOL    MW433236   3.580   2.250   6.011  0.4340  0.0711 -0.4205
 8368SOL     OW33237   1.631   2.579   2.226 -0.0208  0.4780  0.1063
 8368SOL    HW233238   1.724   2.558   2.235 -0.1721 -0.1107  0.3293
 8368SOL    HW333239   1.593   2.502   2.184  0.0391  1.7466 -2.4359
 8368SOL    MW433240   1.639   2.566   2.222 -0.4662 -0.2630 -0.3749
 8369SOL     OW33241   1.511   5.336   1.166 -0.0181  0.2189  0.1316
 8369SOL    HW233242   1.427   5.298   1.141 -0.3655  0.2241  1.2264
 8369SOL    HW333243   1.528   5.299   1.253  0.3860  1.3854  0.5581
 8369SOL    MW433244   1.502   5.326   1.174 -0.6324  0.2469  0.1180
 8370SOL     OW33245   1.509   2.734   4.344 -0.5255  0.4379  0.1559
 8370SOL    HW233246   1.527   2.761   4.434  0.3787 -0.4013  0.2518
 8370SOL    HW333247   1.566   2.789   4.291  0.2636 -0.2574  0.2485
 8370SOL    MW433248   1.519   2.745   4.349  0.4649 -0.1705  0.3042
 8371SOL     OW33249   2.764   1.977   1.977  0.9443  0.0525 -0.3238
 8371SOL    HW233250   2.714   1.901   2.005 -0.0300  0.7370 -0.1502
 8371SOL    HW333251   2.855   1.950   1.986  0.6769 -1.8526 -2.3431
 8371SOL    MW433252   2.769   1.963   1.982  0.0134 -0.1582 -0.4458
 8372SOL     OW33253   5.621   5.591   2.794 -0.6762 -0.1678 -0.9014
 8372SOL    HW233254   5.632   5.498   2.815 -2.3157  0.0355  1.0441
 8372SOL    HW333255   5.558   5.592   2.722 -1.8119 -0.5423  0.0560
 8372SOL    MW433256   5.614   5.579   2.787 -0.2662  0.5179 -0.3523
 8373SOL     OW33257   2.682   5.555   3.013  0.2214  0.4119  0.1643
 8373SOL    HW233258   2.628   5.493   3.064 -0.1219 -0.9828 -1.7840
 8373SOL    HW333259   2.763   5.507   2.996 -1.0260 -0.7072 -3.5846
 8373SOL    MW433260   2.686   5.540   3.018  0.4216  0.0510 -0.2340
 8374SOL     OW33261   1.363   2.886   5.551 -0.5028 -0.5689  0.1964
 8374SOL    HW233262   1.405   2.800   5.547  0.0421 -0.2843 -0.4534
 8374SOL    HW333263   1.328   2.899   5.463  0.8100  0.5460 -0.2035
 8374SOL    MW433264   1.364   2.876   5.539 -0.6643 -0.5155  0.2724
 8375SOL     OW33265   3.834   5.124   3.684 -0.1266 -0.0625  0.1545
 8375SOL    HW233266   3.886   5.058   3.638  0.5903 -0.1312  1.0155
 8375SOL    HW333267   3.780   5.165   3.617 -1.0371 -1.9383 -0.3010
 8375SOL    MW433268   3.834   5.121   3.669 -0.2928  0.2018 -0.4050
 8376SOL     OW33269   0.206   4.988   3.392 -0.7005  0.1225  0.1084
 8376SOL    HW233270   0.269   4.997   3.321 -1.2924 -0.3687 -0.4904
 8376SOL    HW333271   0.226   4.904   3.432 -0.9675 -0.0308 -0.0779
 8376SOL    MW433272   0.217   4.978   3.388 -0.2292 -0.3825  0.3447
 8377SOL     OW33273   2.175   2.926   6.244  0.2085 -0.4703  0.1199
 8377SOL    HW233274   2.228   2.985   6.190 -1.0248 -0.9686 -1.7630
 8377SOL    HW333275   2.141   2.981   6.314  3.1372 -0.1411  1.4031
 8377SOL    MW433276   2.177   2.941   6.246  0.4371 -0.1839 -0.4586
 8378SOL     OW33277   3.309   4.144   1.602 -0.0533  0.0165  0.1159
 8378SOL    HW233278   3.385   4.102   1.562 -0.2460  1.8942 -2.5392
 8378SOL    HW333279   3.327   4.143   1.696  2.5166 -0.9268 -0.3001
 8378SOL    MW433280   3.321   4.138   1.609  0.2658  0.5430 -0.0918
 8379SOL     OW33281   0.176   0.745   4.650 -0.3344  0.7177 -0.3147
 8379SOL    HW233282   0.115   0.816   4.628 -1.8845  0.4420  2.5418
 8379SOL    HW333283   0.212   0.771   4.735  3.1391  0.5246 -1.5904
 8379SOL    MW433284   0.172   0.758   4.658 -0.0856 -0.1434 -0.3430
 8380SOL     OW33285   0.080   3.542   3.386  0.9775  0.0449  0.4665
 8380SOL    HW233286   0.099   3.555   3.293  2.0968  0.6430  0.7669
 8380SOL    HW333287  -0.013   3.517   3.388  0.7376  0.7667 -0.7453
 8380SOL    MW433288   0.070   3.540   3.374  0.2038 -0.7928  0.2377
 8381SOL     OW33289   4.574   4.123   4.442 -0.0492  0.2870  0.8031
 8381SOL    HW233290   4.490   4.079   4.430  0.6429 -0.5840 -1.3253
 8381SOL    HW333291   4.572   4.194   4.378  1.1235 -0.2166  0.1875
 8381SOL    MW433292   4.562   4.127   4.432  0.1252  0.0467 -0.1346
 8382SOL     OW33293   0.575   6.078   3.678 -0.1307 -0.0757  0.4178
 8382SOL    HW233294   0.553   6.167   3.703 -2.4305 -0.6771  0.7075
 8382SOL    HW333295   0.517   6.023   3.730  0.8485 -1.7372 -0.1571
 8382SOL    MW433296   0.565   6.082   3.688  0.2835  0.2934  0.0998
 8383SOL     OW33297   5.539   3.414   1.222  0.3787 -0.1570 -0.0895
 8383SOL    HW233298   5.500   3.349   1.164  3.5400 -0.9366 -1.5467
 8383SOL    HW333299   5.597   3.464   1.166  1.6344  0.7614  1.9352
 8383SOL    MW433300   5.541   3.412   1.207  0.0854  0.2502  0.1783
 8384SOL     OW33301   1.355   3.942   2.636 -0.6418  0.6115  0.4214
 8384SOL    HW233302   1.301   3.879   2.684 -1.1738 -0.0367 -0.9690
 8384SOL    HW333303   1.321   3.939   2.546 -0.3743  2.5609  0.2186
 8384SOL    MW433304   1.344   3.933   2.630  0.2224  0.1124  0.2149
 8385SOL     OW33305   1.725   2.249   6.020 -0.2055 -0.3078  0.5253
 8385SOL    HW233306   1.801   2.302   6.044  0.0980 -1.2148  1.6784
 8385SOL    HW333307   1.667   2.309   5.973  1.8413  0.0671 -1.6596
 8385SOL    MW433308   1.727   2.264   6.017 -0.2708 -0.1285  0.2816
 8386SOL     OW33309   3.307   5.702   3.598 -0.2307  0.2957 -0.0637
 8386SOL    HW233310   3.270   5.674   3.682  0.9514 -1.3700 -0.0435
 8386SOL    HW333311   3.231   5.717   3.542 -1.0148 -1.2923  0.4922
 8386SOL    MW433312   3.292   5.700   3.602 -0.0513  0.5321 -0.7006
 8387SOL     OW33313   1.272   0.362   3.310 -0.4026 -0.3361  0.4603
 8387SOL    HW233314   1.243   0.448   3.340 -0.3332  0.2374 -1.0658
 8387SOL    HW333315   1.196   0.326   3.264 -0.2892 -0.9233  0.7157
 8387SOL    MW433316   1.258   0.369   3.308 -0.0371  0.2378 -0.5108
 8388SOL     OW33317   1.621   6.045   5.819  0.2489 -0.0311 -0.3973
 8388SOL    HW233318   1.553   6.098   5.859 -1.8706 -1.2350 -2.2130
 8388SOL    HW333319   1.638   5.975   5.883 -0.5578  0.0245 -0.1114
 8388SOL    MW433320   1.615   6.042   5.833 -0.0181  0.0201  0.1730
 8389SOL     OW33321   0.554   1.633   5.803 -0.2724  0.3047 -0.0886
 8389SOL    HW233322   0.497   1.710   5.796  2.0342  2.3345  1.8179
 8389SOL    HW333323   0.588   1.636   5.892  0.3245 -2.7204 -0.0952
 8389SOL    MW433324   0.551   1.643   5.813  0.0694 -0.3278 -0.3294
 8390SOL     OW33325   1.195   2.027   2.290 -0.0091 -0.2551  0.3048
 8390SOL    HW233326   1.134   1.953   2.295 -0.0753 -0.1512  1.2348
 8390SOL    HW333327   1.258   2.001   2.222 -0.3832 -0.9012  0.1922
 8390SOL    MW433328   1.195   2.014   2.282  0.0079  0.5780  0.2549
 8391SOL     OW33329   0.977   0.078   4.333  0.1851 -0.2001 -0.3998
 8391SOL    HW233330   1.052   0.097   4.389  0.1807 -0.3781 -0.3359
 8391SOL    HW333331   0.979  -0.017   4.320  0.7533 -0.0615 -1.4848
 8391SOL    MW433332   0.987   0.068   4.339 -0.7530 -0.3523 -0.6792
 8392SOL     OW33333   3.408   3.688   5.810 -0.2621 -0.0026  0.4327
 8392SOL    HW233334   3.429   3.677   5.717  1.7353  0.9143  0.7136
 8392SOL    HW333335   3.471   3.753   5.841 -1.2565  0.1368  2.3219
 8392SOL    MW433336   3.419   3.695   5.802 -0.2118  0.7219 -0.6245
 8393SOL     OW33337   3.673   1.576   0.567 -0.2015 -0.1780  0.0995
 8393SOL    HW233338   3.594   1.615   0.604  0.4526  0.1516  1.2017
 8393SOL    HW333339   3.675   1.606   0.476 -1.8141 -0.9472 -0.2374
 8393SOL    MW433340   3.663   1.585   0.560  0.2139  0.2614 -0.1119
 8394SOL     OW33341   4.764   3.198   2.617 -0.3874  0.4190  0.3060
 8394SOL    HW233342   4.756   3.284   2.659 -0.6444 -0.3818  2.0049
 8394SOL    HW333343   4.797   3.217   2.529  0.2127  2.2086  0.8613
 8394SOL    MW433344   4.768   3.212   2.611 -0.2153  0.2756 -0.5468
 8395SOL     OW33345   4.866   4.474   5.335  0.3851  0.6051  0.0978
 8395SOL    HW233346   4.891   4.475   5.242  3.2358 -2.0582  0.7009
 8395SOL    HW333347   4.771   4.484   5.333  0.1940 -0.4676 -3.1743
 8395SOL    MW433348   4.857   4.476   5.322 -0.1106  0.7711  0.2670
 8396SOL     OW33349   3.880   1.951   2.429  0.8906  0.0083 -0.2081
 8396SOL    HW233350   3.889   1.921   2.520 -1.6479 -0.3769 -0.0072
 8396SOL    HW333351   3.810   2.015   2.433  0.9854  0.2421 -1.8733
 8396SOL    MW433352   3.872   1.955   2.442 -0.3693  0.2143 -0.1240
 8397SOL     OW33353   6.096   2.738   1.943 -0.0781 -0.1501  0.0063
 8397SOL    HW233354   6.125   2.647   1.950 -1.1019 -0.6799 -1.8371
 8397SOL    HW333355   6.007   2.738   1.978 -0.2025  0.0668 -0.3058
 8397SOL    MW433356   6.088   2.726   1.948 -0.0400 -0.2664  0.2236
 8398SOL     OW33357   2.745   1.082   6.071  0.1463 -0.5923 -0.6725
 8398SOL    HW233358   2.767   1.081   5.978  2.0557  2.8250 -0.4150
 8398SOL    HW333359   2.666   1.136   6.076  0.5746  0.0038 -0.2545
 8398SOL    MW433360   2.737   1.089   6.060 -0.2835 -0.2374  0.2793
 8399SOL     OW33361   4.818   3.568   2.231  0.5136 -0.2017 -0.2434
 8399SOL    HW233362   4.785   3.656   2.214 -0.4042 -0.7187 -1.2860
 8399SOL    HW333363   4.739   3.515   2.246  1.0858 -0.7107  1.1312
 8399SOL    MW433364   4.803   3.573   2.231  0.4159  0.0946  0.3887
 8400SOL     OW33365   6.079   1.532   2.106  0.3320 -0.5042  0.3271
 8400SOL    HW233366   6.084   1.518   2.200 -0.8003 -2.7045  0.1069
 8400SOL    HW333367   6.018   1.466   2.074 -1.1084  1.6303 -1.6797
 8400SOL    MW433368   6.072   1.522   2.114  0.0001  0.0613  0.5944
 8401SOL     OW33369   0.111   4.943   5.472  0.2892  0.3377  0.2106
 8401SOL    HW233370   0.146   4.910   5.389 -3.2770  0.6836 -1.6151
 8401SOL    HW333371   0.046   5.008   5.446 -2.0865 -0.6460  3.1645
 8401SOL    MW433372   0.107   4.947   5.458  0.6867 -0.2302 -0.0643
 8402SOL     OW33373   5.665   4.597   5.852 -0.1501  0.3390  0.3139
 8402SOL    HW233374   5.676   4.508   5.816  0.5013  0.6352 -0.2575
 8402SOL    HW333375   5.752   4.620   5.884 -0.2600  0.8661  0.2378
 8402SOL    MW433376   5.678   4.588   5.851  0.4457  0.0901  0.5080
 8403SOL     OW33377   1.243   4.800   0.426 -0.1514  0.3681 -0.6443
 8403SOL    HW233378   1.180   4.872   0.431 -2.4826 -1.5309 -0.3438
 8403SOL    HW333379   1.322   4.839   0.389 -1.8351  2.7102 -2.0880
 8403SOL    MW433380   1.245   4.814   0.422 -0.2072  0.2443  0.3262
 8404SOL     OW33381   5.537   0.098   3.385  0.0910 -0.8816  0.0105
 8404SOL    HW233382   5.612   0.155   3.370  2.6982 -3.9621  0.1903
 8404SOL    HW333383   5.538   0.038   3.310 -3.0564 -0.2960 -0.6275
 8404SOL    MW433384   5.547   0.098   3.373  0.1645 -0.3681  0.0457
 8405SOL     OW33385   4.588   2.273   5.720  0.1125 -0.5201 -0.1708
 8405SOL    HW233386   4.514   2.230   5.763 -0.1013  0.5925  0.6119
 8405SOL    HW333387   4.592   2.360   5.760  0.9346 -0.0384 -1.2498
 8405SOL    MW433388   4.578   2.279   5.731 -0.3639  0.3276  0.1695
 8406SOL     OW33389   1.950   3.587   1.123 -0.3082  0.0765  0.0822
 8406SOL    HW233390   1.914   3.608   1.037 -1.0156  0.7229  0.5162
 8406SOL    HW333391   1.898   3.512   1.153  1.1236 -1.3164 -0.7776
 8406SOL    MW433392   1.938   3.580   1.116  0.1885  0.6694 -0.4151
 8407SOL     OW33393   4.662   4.822   1.298  0.0679  0.0999  0.9780
 8407SOL    HW233394   4.693   4.794   1.384 -0.8042 -0.1501  1.2232
 8407SOL    HW333395   4.736   4.869   1.260  0.8075 -0.6501  1.4544
 8407SOL    MW433396   4.675   4.825   1.305 -0.0379 -0.2428 -0.1136
 8408SOL     OW33397   5.038   1.020   5.229 -0.1044 -0.2170 -0.2139
 8408SOL    HW233398   4.947   1.043   5.248  0.2226  1.6445 -0.7545
 8408SOL    HW333399   5.063   0.959   5.299 -0.9436  1.3488  1.5138
 8408SOL    MW433400   5.030   1.015   5.240 -0.3770  0.2046 -0.8333
 8409SOL     OW33401   4.106   4.186   0.675 -0.0684  0.3253  0.0332
 8409SOL    HW233402   4.033   4.170   0.734 -0.1107  2.2212  0.5495
 8409SOL    HW333403   4.092   4.125   0.602  0.1225 -2.2609  2.0161
 8409SOL    MW433404   4.095   4.176   0.673 -0.0312  0.8421  0.4486
 8410SOL     OW33405   0.510   5.884   4.644  0.9102 -0.1432  0.2262
 8410SOL    HW233406   0.586   5.894   4.700  0.7546  1.3956  0.2123
 8410SOL    HW333407   0.435   5.903   4.701  0.5162 -1.6629  0.2491
 8410SOL    MW433408   0.510   5.888   4.659  0.1872  0.4917  0.0202
 8411SOL     OW33409   2.275   1.622   2.957  0.1318 -0.2591  0.0460
 8411SOL    HW233410   2.230   1.706   2.946 -1.3521 -0.3667  3.7227
 8411SOL    HW333411   2.207   1.556   2.939  0.5271 -0.6114 -0.1730
 8411SOL    MW433412   2.260   1.624   2.953  0.0467 -0.3474  0.6407
 8412SOL     OW33413   3.274   0.936   1.635 -0.0571  0.3329 -0.0112
 8412SOL    HW233414   3.198   0.880   1.653 -0.3033  0.3620 -0.9147
 8412SOL    HW333415   3.341   0.907   1.697 -1.6101  2.0482  2.6703
 8412SOL    MW433416   3.273   0.925   1.646  0.0313 -0.0280 -0.9888
 8413SOL     OW33417   1.457   2.355   1.338 -0.0149  0.4045  0.2256
 8413SOL    HW233418   1.389   2.406   1.381 -0.3353 -0.2725  0.5210
 8413SOL    HW333419   1.410   2.290   1.285  0.3374 -1.7030  2.3267
 8413SOL    MW433420   1.442   2.353   1.337  0.4651 -0.1884  0.3048
 8414SOL     OW33421   2.993   1.223   0.719 -0.3132 -0.1230 -0.3661
 8414SOL    HW233422   3.081   1.250   0.745 -0.9781  0.3501  1.6240
 8414SOL    HW333423   2.954   1.188   0.800 -1.8494 -0.5912 -1.2665
 8414SOL    MW433424   2.999   1.222   0.733  0.6238 -0.5972  0.2793
 8415SOL     OW33425   1.407   3.836   5.530  0.2131  0.2707  0.1377
 8415SOL    HW233426   1.391   3.809   5.439 -0.1913 -0.4986  0.4260
 8415SOL    HW333427   1.326   3.878   5.558 -0.1825 -0.7322  0.5678
 8415SOL    MW433428   1.395   3.838   5.522  0.6294 -0.1522 -0.2917
 8416SOL     OW33429   5.613   5.585   1.190 -0.1510  0.8344  0.1593
 8416SOL    HW233430   5.528   5.573   1.231 -0.8159  0.0828 -1.3644
 8416SOL    HW333431   5.676   5.560   1.258 -1.1936 -0.1344  0.7952
 8416SOL    MW433432   5.610   5.580   1.204  0.4343  0.0617  0.5592
 8417SOL     OW33433   2.787   5.159   1.940 -0.3427 -0.1883  0.7017
 8417SOL    HW233434   2.877   5.190   1.947  0.3697 -2.1727  0.7258
 8417SOL    HW333435   2.777   5.135   1.848 -1.6234  2.0903  0.1515
 8417SOL    MW433436   2.797   5.160   1.928  0.0828  0.1953  0.0589
 8418SOL     OW33437   4.688   3.631   1.605 -0.4282 -0.0596 -0.0440
 8418SOL    HW233438   4.744   3.709   1.609 -0.4239 -0.0388 -0.5075
 8418SOL    HW333439   4.739   3.563   1.648  0.0037 -0.0726 -0.5733
 8418SOL    MW433440   4.702   3.633   1.612  0.1363  0.2504 -0.0556
 8419SOL     OW33441   3.487   0.340   1.328 -0.0945  0.0309 -0.0146
 8419SOL    HW233442   3.418   0.275   1.314  0.5188 -0.6029 -0.1582
 8419SOL    HW333443   3.465   0.381   1.411 -0.8889  0.1552 -0.2747
 8419SOL    MW433444   3.475   0.337   1.337  0.3885 -0.2775 -0.1937
 8420SOL     OW33445   0.927   6.079   6.176 -0.0886  0.1582  0.1173
 8420SOL    HW233446   0.841   6.062   6.137 -1.2546  1.1110  2.1403
 8420SOL    HW333447   0.937   6.174   6.171 -0.4142  0.3616  2.2859
 8420SOL    MW433448   0.917   6.090   6.170 -0.2609 -0.3719  0.3403
 8421SOL     OW33449   5.623   4.457   0.410 -0.1562  0.9056 -0.1170
 8421SOL    HW233450   5.680   4.495   0.477  0.7395  1.7139 -1.2970
 8421SOL    HW333451   5.577   4.386   0.455 -0.0245  1.7985  1.4995
 8421SOL    MW433452   5.624   4.453   0.425  0.0358 -0.0660 -0.0053
 8422SOL     OW33453   2.451   0.956   4.535 -0.0837  0.0119  0.3415
 8422SOL    HW233454   2.544   0.961   4.515  0.0013  1.5024  0.9737
 8422SOL    HW333455   2.418   1.044   4.519 -1.5528 -0.6800 -0.6003
 8422SOL    MW433456   2.459   0.968   4.530  0.0192 -0.3915  0.0696
 8423SOL     OW33457   0.245   6.013   4.063 -0.0435  0.4021  0.3333
 8423SOL    HW233458   0.157   5.996   4.030 -0.2646  1.6302  0.2252
 8423SOL    HW333459   0.245   5.977   4.152 -0.4366 -0.2015  0.0901
 8423SOL    MW433460   0.233   6.006   4.070 -0.5185  0.1267 -0.2659
 8424SOL     OW33461   0.507   1.246   0.303 -0.3438  1.2028  0.7268
 8424SOL    HW233462   0.499   1.151   0.309  2.4848  0.5348 -2.5898
 8424SOL    HW333463   0.597   1.264   0.331 -0.1000  2.5286 -0.7686
 8424SOL    MW433464   0.518   1.236   0.308  0.0312  0.3928  0.1849
 8425SOL     OW33465   2.782   4.242   0.245 -0.4904  0.4536 -0.6485
 8425SOL    HW233466   2.715   4.250   0.176 -0.8101 -2.4230 -0.7789
 8425SOL    HW333467   2.864   4.260   0.199 -0.8118 -0.1597 -1.5013
 8425SOL    MW433468   2.784   4.246   0.230  0.0649 -0.2412 -0.0888
 8426SOL     OW33469   3.411   5.968   5.676 -0.5189 -0.2513 -0.0765
 8426SOL    HW233470   3.396   5.884   5.631  1.3329  0.3064 -1.8814
 8426SOL    HW333471   3.420   5.945   5.768 -2.2365 -1.7348 -0.2216
 8426SOL    MW433472   3.410   5.954   5.682 -0.3758  0.0608 -0.4788
 8427SOL     OW33473   1.629   2.359   4.767  0.1923  0.0824 -0.2902
 8427SOL    HW233474   1.572   2.373   4.692 -1.4906  1.0706  1.0843
 8427SOL    HW333475   1.685   2.436   4.769  0.8108 -0.3394 -0.9839
 8427SOL    MW433476   1.629   2.371   4.757 -0.2682  0.0180 -0.3629
 8428SOL     OW33477   1.034   0.866   0.089  0.3725 -0.7502  0.3130
 8428SOL    HW233478   1.082   0.949   0.086  0.3223 -0.7279  0.1532
 8428SOL    HW333479   1.051   0.825   0.005  0.9259 -1.1984  0.6343
 8428SOL    MW433480   1.043   0.872   0.078  0.5052 -0.1117  0.2504
 8429SOL     OW33481   3.264   4.895   4.892 -0.0650 -0.2230 -0.2016
 8429SOL    HW233482   3.258   4.815   4.944  0.2405 -0.9977 -1.3180
 8429SOL    HW333483   3.357   4.903   4.871 -0.0377  0.6420  0.2296
 8429SOL    MW433484   3.275   4.885   4.896  0.0652  0.3233 -0.1928
 8430SOL     OW33485   2.096   6.131   1.367 -0.4718 -0.2877  0.1610
 8430SOL    HW233486   2.067   6.172   1.449  0.1191  0.3165  0.0765
 8430SOL    HW333487   2.126   6.044   1.393  0.1693  0.0797  0.6720
 8430SOL    MW433488   2.096   6.125   1.381  0.3662  0.4689  0.2935
 8431SOL     OW33489   1.038   2.463   2.573 -0.4415 -0.4495  0.4335
 8431SOL    HW233490   0.974   2.425   2.513  0.5458 -0.7699 -0.4446
 8431SOL    HW333491   1.098   2.391   2.593 -1.0416 -0.5093  2.2590
 8431SOL    MW433492   1.038   2.448   2.568 -0.2928 -0.0118 -0.3851
 8432SOL     OW33493   6.288   4.439   0.739  0.5480  0.2110  0.4558
 8432SOL    HW233494   6.377   4.442   0.704  0.3362  0.9735 -0.0387
 8432SOL    HW333495   6.249   4.522   0.713 -0.0485  0.2382  1.3812
 8432SOL    MW433496   6.295   4.450   0.731  0.3567 -0.1229 -0.1556
 8433SOL     OW33497   2.389   1.397   2.344 -0.2404  0.1642  0.0684
 8433SOL    HW233498   2.398   1.322   2.285  1.8888  1.8908 -2.0256
 8433SOL    HW333499   2.478   1.414   2.374 -0.7484  1.5119  0.9036
 8433SOL    MW433500   2.402   1.389   2.340  0.2065 -0.1210 -0.1774
 8434SOL     OW33501   1.947   3.997   2.393 -0.7982  0.3037 -0.0139
 8434SOL    HW233502   1.983   3.981   2.305  0.9804  0.9248  0.5596
 8434SOL    HW333503   2.024   4.015   2.447 -1.8606 -0.0960  1.6913
 8434SOL    MW433504   1.962   3.997   2.389 -0.1869 -0.3698 -0.0404
 8435SOL     OW33505   3.695   3.208   3.212  0.1575  0.2993 -0.3666
 8435SOL    HW233506   3.757   3.150   3.167 -0.0082 -0.5130  0.4273
 8435SOL    HW333507   3.614   3.201   3.161 -0.2582 -1.2034  0.4456
 8435SOL    MW433508   3.692   3.199   3.199  0.4831  0.5161 -0.0945
 8436SOL     OW33509   1.745   4.511   6.139 -0.7878  0.3088 -0.8175
 8436SOL    HW233510   1.696   4.480   6.216 -2.1515  3.7369 -0.1125
 8436SOL    HW333511   1.678   4.517   6.070 -0.7151  2.0522 -0.7610
 8436SOL    MW433512   1.729   4.507   6.140 -0.3466  0.5082 -0.0663
 8437SOL     OW33513   1.601   5.226   6.171 -0.0615 -0.1233 -0.0014
 8437SOL    HW233514   1.563   5.298   6.221 -1.3727 -0.9305  0.1914
 8437SOL    HW333515   1.675   5.196   6.224 -0.5846 -0.0652  0.7738
 8437SOL    MW433516   1.606   5.232   6.184 -0.6142 -0.1584  0.4445
 8438SOL     OW33517   1.809   0.818   4.225  0.1272  0.0999 -0.2125
 8438SOL    HW233518   1.831   0.825   4.132 -0.4643  1.2766 -0.2883
 8438SOL    HW333519   1.718   0.787   4.226  0.1704 -0.0231 -0.0249
 8438SOL    MW433520   1.800   0.815   4.213  0.4901  0.3975  0.0184
 8439SOL     OW33521   3.223   4.561   1.724 -0.7566 -0.1577 -0.4163
 8439SOL    HW233522   3.139   4.519   1.705 -0.7926  0.2628 -1.2412
 8439SOL    HW333523   3.286   4.512   1.671  0.0561 -2.3687  2.3351
 8439SOL    MW433524   3.220   4.549   1.715  0.0306 -0.0651 -0.2842
 8440SOL     OW33525   0.151   6.421   2.846  0.1756  0.2619 -0.2754
 8440SOL    HW233526   0.143   6.504   2.799 -1.9144 -0.0723 -0.5896
 8440SOL    HW333527   0.125   6.442   2.936  0.4558  0.1166 -0.1612
 8440SOL    MW433528   0.147   6.435   2.852  0.1910 -0.1848  0.0524
 8441SOL     OW33529   3.070   5.771   5.679  0.1143  0.0852  0.0528
 8441SOL    HW233530   3.063   5.863   5.653  0.7159  0.1134 -0.0148
 8441SOL    HW333531   3.163   5.757   5.695 -0.0615 -0.3291  0.7612
 8441SOL    MW433532   3.081   5.781   5.677  0.3400  0.0454  0.0900
 8442SOL     OW33533   2.122   2.741   5.289 -0.1946  0.2759 -0.3521
 8442SOL    HW233534   2.041   2.789   5.273  0.3868  1.2119 -0.5425
 8442SOL    HW333535   2.187   2.808   5.311  0.4919 -0.4696 -0.0274
 8442SOL    MW433536   2.120   2.756   5.290 -0.1470  0.5868  0.6297
 8443SOL     OW33537   6.355   1.583   2.421 -0.7054 -0.5988  0.2079
 8443SOL    HW233538   6.324   1.642   2.352 -0.8749 -2.3670 -1.3218
 8443SOL    HW333539   6.275   1.553   2.465 -0.5503  1.2844  1.9336
 8443SOL    MW433540   6.340   1.587   2.418 -0.3009 -0.8667  0.3156
 8444SOL     OW33541   2.085   1.046   2.684 -0.8278  0.4946 -0.9475
 8444SOL    HW233542   2.111   0.956   2.663  2.5526  0.3154  2.8678
 8444SOL    HW333543   1.998   1.037   2.722 -1.3044 -0.8384 -2.2303
 8444SOL    MW433544   2.077   1.033   2.686 -0.2682  0.6837 -0.5041
 8445SOL     OW33545   6.139   0.268   1.320 -0.2922 -0.6018  1.0096
 8445SOL    HW233546   6.101   0.233   1.240  0.0469  1.1135  0.0521
 8445SOL    HW333547   6.132   0.363   1.311  1.0237 -0.3275  2.3732
 8445SOL    MW433548   6.133   0.276   1.309 -0.3828 -0.4546 -0.2267
 8446SOL     OW33549   1.758   4.167   0.169  0.2124  0.3590 -0.0596
 8446SOL    HW233550   1.739   4.100   0.235  1.2778  2.6367  2.7488
 8446SOL    HW333551   1.853   4.176   0.171  0.0013  3.5200  1.4476
 8446SOL    MW433552   1.768   4.159   0.178 -0.1330 -0.1963 -0.2683
 8447SOL     OW33553   3.166   5.362   4.240 -0.2598  0.0098  0.1819
 8447SOL    HW233554   3.075   5.333   4.244 -0.4959  0.3295 -1.7727
 8447SOL    HW333555   3.162   5.449   4.199  0.8633  0.3709  0.7858
 8447SOL    MW433556   3.154   5.370   4.235  0.0450  0.5277 -0.3024
 8448SOL     OW33557   2.680   2.789   3.066  0.6032 -0.4651  0.5694
 8448SOL    HW233558   2.621   2.799   3.141 -0.0924  1.6374 -0.1743
 8448SOL    HW333559   2.727   2.707   3.083 -0.2268 -0.5539  2.7958
 8448SOL    MW433560   2.679   2.780   3.078 -0.3173  0.5590  0.2904
 8449SOL     OW33561   1.389   0.394   1.298 -0.5175 -0.4930 -0.2306
 8449SOL    HW233562   1.298   0.397   1.269 -0.1070 -1.2294 -1.6871
 8449SOL    HW333563   1.385   0.408   1.392 -2.0364  0.6094 -0.4311
 8449SOL    MW433564   1.377   0.396   1.306 -0.1280 -0.7685 -0.0058
 8450SOL     OW33565   2.708   6.279   0.344 -0.1176 -0.3547  0.0475
 8450SOL    HW233566   2.777   6.339   0.317 -2.0237  1.8495 -0.1937
 8450SOL    HW333567   2.679   6.312   0.428 -0.4957 -1.6226  0.4312
 8450SOL    MW433568   2.713   6.291   0.351 -0.8554 -0.3429  0.1319
 8451SOL     OW33569   2.262   1.735   0.265 -0.1150  1.0650  0.4607
 8451SOL    HW233570   2.204   1.676   0.217  0.7228  1.9365 -1.7711
 8451SOL    HW333571   2.203   1.789   0.318 -1.2378  0.9362 -0.5994
 8451SOL    MW433572   2.246   1.735   0.265  0.5993 -0.1327 -0.0308
 8452SOL     OW33573   6.310   0.612   3.386  0.3500 -0.3008  0.3190
 8452SOL    HW233574   6.324   0.662   3.466  0.5239 -1.1938  0.8618
 8452SOL    HW333575   6.340   0.670   3.316  0.3546  0.4250  0.9130
 8452SOL    MW433576   6.316   0.626   3.388 -0.3562 -0.0722  0.2987
 8453SOL     OW33577   5.154   2.968   2.049  0.0745 -0.5382  0.0333
 8453SOL    HW233578   5.148   3.014   2.133 -0.5132 -1.6571  0.6242
 8453SOL    HW333579   5.068   2.930   2.036 -0.4102  1.0379 -1.9588
 8453SOL    MW433580   5.142   2.969   2.058  0.3538  0.4848  0.4182
 8454SOL     OW33581   6.009   2.616   5.587  0.2423 -0.0506  0.2019
 8454SOL    HW233582   6.072   2.684   5.614  0.9974  0.0813 -1.7815
 8454SOL    HW333583   6.040   2.587   5.502 -1.3564 -1.3366  0.0212
 8454SOL    MW433584   6.022   2.621   5.580 -0.1959  0.2619  0.4507
 8455SOL     OW33585   4.609   2.021   2.328 -0.1881 -0.1184 -0.4874
 8455SOL    HW233586   4.584   1.990   2.415  0.4183  0.6271 -0.0408
 8455SOL    HW333587   4.624   1.941   2.277  0.1409 -0.5572  0.2919
 8455SOL    MW433588   4.607   2.006   2.332 -0.4139  0.4782 -0.1578
 8456SOL     OW33589   0.167   5.613   2.331  0.2082 -0.0178  0.1439
 8456SOL    HW233590   0.257   5.580   2.324  0.6664  1.3687 -0.9276
 8456SOL    HW333591   0.113   5.537   2.310  1.2124 -0.2858 -1.7441
 8456SOL    MW433592   0.172   5.599   2.327 -0.2800  0.1667 -0.1269
 8457SOL     OW33593   1.698   4.191   2.840  0.2956  0.6142 -0.0929
 8457SOL    HW233594   1.717   4.235   2.758  1.4430 -0.1611 -0.2561
 8457SOL    HW333595   1.783   4.162   2.873 -0.1737  0.6420  1.2168
 8457SOL    MW433596   1.711   4.193   2.834  0.0971  0.0640 -0.3862
 8458SOL     OW33597   2.766   4.576   6.228  0.0068 -0.4362 -0.4183
 8458SOL    HW233598   2.790   4.652   6.176 -2.9126  1.0272  0.1303
 8458SOL    HW333599   2.670   4.572   6.221 -0.2282 -2.0436  2.2590
 8458SOL    MW433600   2.756   4.585   6.220  0.5810 -0.3471 -0.4107
 8459SOL     OW33601   0.945   0.355   0.798 -0.0178  0.3115  0.1747
 8459SOL    HW233602   0.999   0.371   0.875 -0.4006 -0.9875  0.7422
 8459SOL    HW333603   0.925   0.442   0.764  0.2621  0.9036  1.4616
 8459SOL    MW433604   0.950   0.369   0.804 -0.3848  0.4198  0.1422
 8460SOL     OW33605   6.310   3.959   2.717 -0.3541 -0.9125  0.1400
 8460SOL    HW233606   6.392   3.938   2.762 -0.2421 -1.4454 -0.3054
 8460SOL    HW333607   6.242   3.942   2.782 -0.1374 -0.8128  0.3968
 8460SOL    MW433608   6.312   3.954   2.732 -0.1890  0.0488  0.5250
 8461SOL     OW33609   5.226   6.023   3.987 -0.4054 -0.2414 -0.6322
 8461SOL    HW233610   5.186   5.936   3.981 -0.6652 -0.1555 -0.1682
 8461SOL    HW333611   5.178   6.066   4.057  1.3271 -0.5605  0.7957
 8461SOL    MW433612   5.214   6.017   3.995  1.0356 -0.3032  0.2042
 8462SOL     OW33613   5.965   2.188   0.404  0.3606 -0.5311  0.1362
 8462SOL    HW233614   6.043   2.173   0.458  0.8153 -1.2099 -0.6796
 8462SOL    HW333615   5.950   2.283   0.409  1.7796 -0.2479 -0.4015
 8462SOL    MW433616   5.973   2.199   0.412 -0.3003  0.0545  0.1120
 8463SOL     OW33617   6.353   0.247   5.345  0.3122 -0.1785  0.3877
 8463SOL    HW233618   6.437   0.223   5.384  2.6437  1.7164 -2.9431
 8463SOL    HW333619   6.333   0.333   5.381  0.2002 -0.2997  0.6145
 8463SOL    MW433620   6.361   0.255   5.355  0.8903  0.2699 -0.0890
 8464SOL     OW33621   3.862   5.371   4.558  0.1918  0.3680  0.2483
 8464SOL    HW233622   3.908   5.454   4.551  1.6643 -0.4178  0.1442
 8464SOL    HW333623   3.865   5.334   4.470 -3.1198  1.4813 -0.4756
 8464SOL    MW433624   3.868   5.377   4.546 -0.5230  0.1929 -0.0827
 8465SOL     OW33625   1.550   6.192   0.714 -0.2915 -0.2512  0.3051
 8465SOL    HW233626   1.497   6.253   0.765  0.4768  0.4929  0.2248
 8465SOL    HW333627   1.526   6.208   0.623 -2.0692 -1.9583  0.3986
 8465SOL    MW433628   1.540   6.202   0.709 -0.4093 -0.0283  0.1044
 8466SOL     OW33629   4.915   5.999   1.316  0.3249  0.2330  0.1829
 8466SOL    HW233630   4.949   6.050   1.390 -0.4367  0.0198  0.6912
 8466SOL    HW333631   4.916   6.060   1.242  1.0223  0.4716  0.3882
 8466SOL    MW433632   4.919   6.014   1.316  0.3477 -0.3921 -1.1978
 8467SOL     OW33633   0.148   5.621   5.300  0.4333  1.0380 -0.7556
 8467SOL    HW233634   0.110   5.627   5.388 -2.8343  1.3195 -2.0450
 8467SOL    HW333635   0.193   5.536   5.300 -1.4528 -0.0585  0.5553
 8467SOL    MW433636   0.149   5.610   5.312  0.2498  0.1547  0.2126
 8468SOL     OW33637   4.447   6.021   1.838  0.4975  0.1513 -0.2581
 8468SOL    HW233638   4.413   6.014   1.927  0.6605 -1.8860 -0.3126
 8468SOL    HW333639   4.498   6.102   1.838  2.3467 -0.8944  2.1710
 8468SOL    MW433640   4.449   6.030   1.850 -0.4770 -0.6255 -0.0785
 8469SOL     OW33641   2.980   4.255   4.258 -0.2563  0.1130  0.1955
 8469SOL    HW233642   3.030   4.198   4.317 -1.2502  0.2089  1.1567
 8469SOL    HW333643   3.033   4.335   4.251  0.9778 -0.7530 -0.8851
 8469SOL    MW433644   2.994   4.258   4.264  0.4063  0.0806 -0.2220
 8470SOL     OW33645   4.885   5.568   5.914 -0.4083 -0.1626  0.3956
 8470SOL    HW233646   4.978   5.561   5.936 -0.0236  1.1265 -0.7013
 8470SOL    HW333647   4.848   5.625   5.981 -0.1257  0.3382  0.1355
 8470SOL    MW433648   4.892   5.574   5.926  0.3844  0.6087 -0.0473
 8471SOL     OW33649   2.815   5.135   2.423 -0.3029  0.2277 -0.3668
 8471SOL    HW233650   2.725   5.113   2.397  0.6118 -1.2825 -2.5669
 8471SOL    HW333651   2.866   5.058   2.399  1.5979  0.9872  0.9831
 8471SOL    MW433652   2.810   5.122   2.417  0.3448  0.0406 -0.1109
 8472SOL     OW33653   1.499   6.330   4.056  0.0807 -0.0051  0.2354
 8472SOL    HW233654   1.577   6.382   4.038 -0.4169  0.1050 -1.7538
 8472SOL    HW333655   1.427   6.394   4.057 -0.1998 -0.3207  0.4358
 8472SOL    MW433656   1.500   6.346   4.054 -0.2893  0.0134 -0.1311
 8473SOL     OW33657   1.622   1.896   6.389 -0.3596 -0.3924  0.1693
 8473SOL    HW233658   1.542   1.850   6.364  0.9642 -1.6957 -1.9488
 8473SOL    HW333659   1.625   1.973   6.332 -1.1627  0.9277  1.8054
 8473SOL    MW433660   1.612   1.900   6.378 -0.1767  0.0444  0.0100
 8474SOL     OW33661   1.687   6.417   2.627 -0.0672  0.0087 -0.0370
 8474SOL    HW233662   1.719   6.416   2.718 -2.9499  1.0006  1.0963
 8474SOL    HW333663   1.688   6.509   2.603 -2.6399  0.2059  0.3589
 8474SOL    MW433664   1.691   6.429   2.636  0.4381 -0.2048  0.2280
 8475SOL     OW33665   5.796   1.761   5.782 -0.0786  0.2521 -0.0304
 8475SOL    HW233666   5.787   1.667   5.796  0.9892  0.4272  2.1177
 8475SOL    HW333667   5.853   1.769   5.705 -0.2728 -0.8330 -0.3024
 8475SOL    MW433668   5.802   1.750   5.774 -0.1730  0.1229 -0.8488
 8476SOL     OW33669   0.582   2.461   4.255 -0.7046  0.0760 -0.5226
 8476SOL    HW233670   0.615   2.456   4.344  1.3692  1.6228 -1.1273
 8476SOL    HW333671   0.592   2.372   4.220  0.8518  0.0034  0.0291
 8476SOL    MW433672   0.588   2.449   4.262 -0.0467 -0.2690  0.0011
 8477SOL     OW33673   0.508   0.250   1.398  0.7582 -0.2426 -0.0689
 8477SOL    HW233674   0.434   0.306   1.372 -0.4130 -2.0044 -0.7038
 8477SOL    HW333675   0.524   0.273   1.489 -2.7012 -1.8976  1.1423
 8477SOL    MW433676   0.500   0.261   1.407 -0.0643  0.4057 -0.4782
 8478SOL     OW33677   4.755   0.988   6.042  0.1812  0.4271 -0.2840
 8478SOL    HW233678   4.703   0.909   6.028 -1.2963  0.8578  2.1327
 8478SOL    HW333679   4.690   1.057   6.058  1.4576  1.7946 -0.7712
 8478SOL    MW433680   4.740   0.987   6.042 -0.2305  0.7057 -0.0924
 8479SOL     OW33681   1.853   5.733   3.704  0.0666 -0.4259  0.1383
 8479SOL    HW233682   1.845   5.638   3.711  0.5633 -0.4382  0.5901
 8479SOL    HW333683   1.944   5.747   3.675  0.0872 -0.0820  0.3675
 8479SOL    MW433684   1.864   5.722   3.701 -0.2377  0.2822 -0.3150
 8480SOL     OW33685   3.100   2.072   0.424  0.2680  0.4185 -0.4722
 8480SOL    HW233686   3.116   2.058   0.517  1.2271  0.0995 -0.6758
 8480SOL    HW333687   3.008   2.100   0.419 -0.5400 -1.9267  0.3183
 8480SOL    MW433688   3.090   2.074   0.435 -0.0046  0.2109  0.2324
 8481SOL     OW33689   5.750   0.617   0.577 -0.0607  0.0518 -0.5095
 8481SOL    HW233690   5.779   0.647   0.491 -0.8607 -1.3421 -1.2983
 8481SOL    HW333691   5.697   0.689   0.611  0.7684  0.8635 -0.9045
 8481SOL    MW433692   5.746   0.630   0.570  0.4170  0.0091 -0.4394
 8482SOL     OW33693   1.794   1.982   5.360 -0.2184  0.4490 -0.3016
 8482SOL    HW233694   1.763   2.072   5.348 -1.2841  0.2426  0.7238
 8482SOL    HW333695   1.885   1.991   5.388 -0.2395  1.2024 -0.4675
 8482SOL    MW433696   1.802   1.995   5.362 -0.3950 -0.8935 -0.3558
 8483SOL     OW33697   4.812   0.892   6.315 -0.5499  0.0533  0.4842
 8483SOL    HW233698   4.811   0.932   6.228 -0.8011 -0.4124  0.2632
 8483SOL    HW333699   4.754   0.816   6.306 -0.6662  0.0670  1.0899
 8483SOL    MW433700   4.804   0.887   6.302  0.3775  0.3079 -0.0245
 8484SOL     OW33701   1.823   3.863   3.891 -0.1877  0.5390 -0.2739
 8484SOL    HW233702   1.832   3.787   3.948 -0.1428  0.7370 -0.0126
 8484SOL    HW333703   1.730   3.886   3.897 -0.4461 -0.1995 -1.2719
 8484SOL    MW433704   1.812   3.856   3.900  0.1343 -0.2793 -0.0837
 8485SOL     OW33705   1.897   4.085   3.716 -0.3643  0.7176 -0.3336
 8485SOL    HW233706   1.861   4.169   3.743  0.0260  0.8791 -0.3094
 8485SOL    HW333707   1.881   4.026   3.790 -1.1259  0.6263 -0.5662
 8485SOL    MW433708   1.890   4.088   3.729  0.7108 -0.1932 -0.4977
 8486SOL     OW33709   6.395   0.676   0.829 -0.0101  0.5638  0.1170
 8486SOL    HW233710   6.426   0.626   0.753  2.6717 -3.0410  3.1829
 8486SOL    HW333711   6.316   0.630   0.857  0.6521  0.0078  1.1134
 8486SOL    MW433712   6.389   0.663   0.822  0.4504  0.5326  0.2361
 8487SOL     OW33713   0.600   5.350   3.873 -0.1133  0.4156 -0.1093
 8487SOL    HW233714   0.658   5.281   3.841 -1.2545  0.5582 -2.6861
 8487SOL    HW333715   0.525   5.303   3.909  1.0368  0.2693  2.3686
 8487SOL    MW433716   0.598   5.334   3.874  0.6893 -0.1418 -0.3764
 8488SOL     OW33717   3.019   1.545   2.676 -1.1981  0.0941  0.2168
 8488SOL    HW233718   2.999   1.594   2.596  1.4193  0.1573 -0.4981
 8488SOL    HW333719   3.094   1.591   2.714 -0.0503 -2.0608  0.7085
 8488SOL    MW433720   3.026   1.557   2.670 -0.0864  0.6131 -0.0353
 8489SOL     OW33721   4.047   6.221   3.911  0.0421  0.4965  0.3003
 8489SOL    HW233722   3.974   6.181   3.958  0.3009  0.7561  0.9374
 8489SOL    HW333723   4.065   6.302   3.959 -0.4579  1.3869 -0.9506
 8489SOL    MW433724   4.040   6.226   3.924  0.0242 -0.5883 -0.0939
 8490SOL     OW33725   0.732   2.517   0.779 -0.2338 -0.1599 -0.3457
 8490SOL    HW233726   0.682   2.464   0.717 -1.9120  0.2674  0.5848
 8490SOL    HW333727   0.670   2.537   0.849  1.5376 -0.4876  1.4142
 8490SOL    MW433728   0.717   2.513   0.780 -0.2400  0.3897 -0.1195
 8491SOL     OW33729   6.021   4.905   2.272 -0.5759  0.6081  0.2806
 8491SOL    HW233730   6.110   4.937   2.256 -1.0001  1.6868 -0.0194
 8491SOL    HW333731   5.979   4.907   2.186 -0.4685 -1.3228  0.1428
 8491SOL    MW433732   6.027   4.910   2.258  0.1600  0.1173  0.1431
 8492SOL     OW33733   0.113   4.245   1.559  0.1694 -0.8212  0.4462
 8492SOL    HW233734   0.187   4.260   1.618  0.1442  0.3678  0.2028
 8492SOL    HW333735   0.150   4.194   1.486  0.1936 -2.3249  1.4571
 8492SOL    MW433736   0.127   4.240   1.557  0.6357  0.5051 -0.0664
 8493SOL     OW33737   4.947   1.908   0.318  0.0884  0.8663  0.4902
 8493SOL    HW233738   4.991   1.828   0.288  0.3592  2.2012 -3.1822
 8493SOL    HW333739   4.880   1.926   0.251 -4.5822  0.3837  4.4207
 8493SOL    MW433740   4.944   1.900   0.305 -0.4252  0.1556 -0.4746
 8494SOL     OW33741   0.308   3.688   1.163 -1.1689 -0.6722 -0.3167
 8494SOL    HW233742   0.240   3.623   1.178 -2.0154  0.2554 -0.0465
 8494SOL    HW333743   0.337   3.714   1.251 -2.4004  0.9080 -0.3430
 8494SOL    MW433744   0.303   3.683   1.177 -0.3659  0.6707 -0.4094
 8495SOL     OW33745   1.507   0.680   1.589  0.2913  0.1258 -0.5215
 8495SOL    HW233746   1.488   0.590   1.615 -0.3086  0.4864  0.3699
 8495SOL    HW333747   1.442   0.700   1.522  0.4846 -0.1301 -0.7867
 8495SOL    MW433748   1.496   0.671   1.584  0.0763 -0.1983 -0.6213
 8496SOL     OW33749   3.357   1.761   1.086  0.0658 -0.1111 -0.3576
 8496SOL    HW233750   3.434   1.815   1.104  0.1871 -0.3224 -0.2411
 8496SOL    HW333751   3.391   1.673   1.074 -0.3022 -0.5048  1.2380
 8496SOL    MW433752   3.371   1.757   1.087 -0.7295 -0.2004 -0.4221
 8497SOL     OW33753   0.336   6.326   4.599  0.2777  0.0181 -0.4733
 8497SOL    HW233754   0.295   6.373   4.672 -1.4101  0.3353 -1.5774
 8497SOL    HW333755   0.376   6.394   4.546  0.4980 -0.1040 -0.4666
 8497SOL    MW433756   0.336   6.341   4.601 -1.0256  0.0373  0.5706
 8498SOL     OW33757   3.469   3.485   2.856 -0.4021 -0.3673 -1.0222
 8498SOL    HW233758   3.379   3.468   2.883 -0.3532 -0.9135 -1.1950
 8498SOL    HW333759   3.520   3.480   2.937 -0.8625  2.6439 -0.4388
 8498SOL    MW433760   3.464   3.482   2.870  0.2628  0.2397  0.0918
 8499SOL     OW33761   2.055   3.078   2.909  0.1007  0.1658 -0.4498
 8499SOL    HW233762   2.079   3.024   2.985 -0.1850 -0.6150 -0.9017
 8499SOL    HW333763   1.960   3.083   2.913  0.1476  0.9949 -0.1828
 8499SOL    MW433764   2.046   3.071   2.920 -0.2217 -0.6307  0.1543
 8500SOL     OW33765   4.750   2.105   1.117  0.5537  0.3972 -0.0475
 8500SOL    HW233766   4.696   2.097   1.038  1.2323  1.0114 -0.5938
 8500SOL    HW333767   4.711   2.177   1.166 -0.1796 -0.3181  0.4521
 8500SOL    MW433768   4.738   2.113   1.113  0.3095 -0.4841  0.2598
 8501SOL     OW33769   2.631   3.997   1.853  0.2283 -0.1984 -0.1395
 8501SOL    HW233770   2.695   4.012   1.783  0.3044  1.1041  0.1946
 8501SOL    HW333771   2.592   3.911   1.831  1.7350 -0.7938 -0.5987
 8501SOL    MW433772   2.634   3.987   1.841 -0.8647  0.0520 -0.6724
 8502SOL     OW33773   5.988   3.192   0.736 -0.1948  0.0873 -0.2985
 8502SOL    HW233774   5.912   3.226   0.688 -1.2466 -0.0398  1.2146
 8502SOL    HW333775   5.973   3.097   0.739  0.1654  0.0333 -0.2153
 8502SOL    MW433776   5.976   3.184   0.730 -0.7464  0.5515  0.3473
 8503SOL     OW33777   6.096   5.785   0.904 -0.3273  0.2037  0.1254
 8503SOL    HW233778   6.186   5.770   0.874 -0.4226  2.5077 -1.6130
 8503SOL    HW333779   6.084   5.880   0.897 -3.0834 -0.0807 -0.2130
 8503SOL    MW433780   6.106   5.796   0.899 -0.2510 -0.4761  0.2084
 8504SOL     OW33781   5.404   1.600   1.736 -0.2125  0.4989 -0.1808
 8504SOL    HW233782   5.468   1.580   1.803 -0.2915 -0.1527 -0.2971
 8504SOL    HW333783   5.376   1.689   1.756 -2.4909 -0.6833  2.5100
 8504SOL    MW433784   5.409   1.609   1.747  0.3424 -0.0699  0.6998
 8505SOL     OW33785   4.118   2.068   3.489  0.5408  0.1164 -0.0728
 8505SOL    HW233786   4.079   2.099   3.408  1.0124 -2.7731 -1.5321
 8505SOL    HW333787   4.050   2.082   3.556 -1.4678 -1.0728 -1.7475
 8505SOL    MW433788   4.104   2.074   3.487 -0.5642  0.0342  0.0666
 8506SOL     OW33789   4.549   2.615   6.054 -0.0259 -0.3288  0.2231
 8506SOL    HW233790   4.494   2.537   6.066 -0.3082 -0.4043 -1.2782
 8506SOL    HW333791   4.638   2.585   6.073 -0.3816 -0.4187  1.8685
 8506SOL    MW433792   4.553   2.601   6.058  0.1478  1.1950  0.2067
 8507SOL     OW33793   2.912   4.831   3.077  0.0135 -0.1552 -0.0459
 8507SOL    HW233794   2.918   4.759   3.140 -1.2218 -0.0928  0.1580
 8507SOL    HW333795   2.893   4.789   2.993  1.4825 -0.2235 -0.3721
 8507SOL    MW433796   2.910   4.816   3.074  0.2631  0.5166 -0.0605
 8508SOL     OW33797   0.198   2.487   0.627 -0.6283  0.2529  0.2738
 8508SOL    HW233798   0.190   2.568   0.677 -0.9997  1.6762 -1.9444
 8508SOL    HW333799   0.290   2.461   0.639 -0.5878  0.8203  1.2820
 8508SOL    MW433800   0.209   2.494   0.635 -0.1547  0.5104 -0.6598
 8509SOL     OW33801   0.797   4.301   4.630 -0.1582 -0.2282 -1.0275
 8509SOL    HW233802   0.874   4.261   4.670 -1.1009 -0.8358  0.2682
 8509SOL    HW333803   0.725   4.243   4.654 -1.1099  0.6081 -1.7582
 8509SOL    MW433804   0.798   4.288   4.638  0.1825 -0.1112 -0.2733
 8510SOL     OW33805   5.648   3.569   6.315 -0.2202  0.0296 -0.0093
 8510SOL    HW233806   5.649   3.658   6.352 -0.0539 -0.5969  1.5906
 8510SOL    HW333807   5.723   3.526   6.356 -0.4336 -0.9199 -0.5989
 8510SOL    MW433808   5.658   3.575   6.326  0.2775  0.0216  0.6532
 8511SOL     OW33809   0.956   6.427   2.561  0.6033 -0.1906 -0.4559
 8511SOL    HW233810   0.931   6.398   2.473  0.8737  0.8793 -0.9021
 8511SOL    HW333811   0.874   6.459   2.599  1.1348  3.6658 -2.0555
 8511SOL    MW433812   0.942   6.427   2.554  0.3455  0.1366  0.1910
 8512SOL     OW33813   5.328   6.320   6.198 -0.7474 -0.2882  0.1771
 8512SOL    HW233814   5.301   6.383   6.265  0.5824  2.3938 -1.6244
 8512SOL    HW333815   5.376   6.253   6.246  0.2393  1.5687  1.9442
 8512SOL    MW433816   5.331   6.319   6.213  0.4086  0.2329  0.1434
 8513SOL     OW33817   3.756   6.297   1.033 -0.4542 -0.3734  0.0605
 8513SOL    HW233818   3.744   6.300   1.128 -1.9604 -0.1270 -0.1196
 8513SOL    HW333819   3.832   6.354   1.017 -1.7432  1.6856  0.8919
 8513SOL    MW433820   3.765   6.305   1.043  0.2947  0.0046  0.1561
 8514SOL     OW33821   4.815   1.422   4.141 -0.0924 -0.4465  0.4105
 8514SOL    HW233822   4.847   1.507   4.169 -0.3180 -0.1701 -0.1511
 8514SOL    HW333823   4.893   1.372   4.119  0.0329 -0.3242  0.5804
 8514SOL    MW433824   4.829   1.427   4.142 -0.0380 -0.0041  0.0059
 8515SOL     OW33825   5.711   3.853   0.859  0.1728  0.4550  0.2741
 8515SOL    HW233826   5.701   3.852   0.954 -3.4856  2.4423  0.0735
 8515SOL    HW333827   5.781   3.918   0.843  2.7042 -1.7748  1.5205
 8515SOL    MW433828   5.719   3.862   0.869  0.0725  0.1136 -0.4776
 8516SOL     OW33829   3.439   5.130   3.687 -0.1413 -0.5551  0.1079
 8516SOL    HW233830   3.459   5.149   3.779  1.9442 -1.5231 -0.0803
 8516SOL    HW333831   3.353   5.088   3.689 -0.6240  0.4281  1.4745
 8516SOL    MW433832   3.431   5.127   3.699 -0.1935  0.2891  0.0448
 8517SOL     OW33833   0.507   3.753   2.422 -0.2415 -0.2766 -0.0454
 8517SOL    HW233834   0.525   3.659   2.425 -1.5666 -0.5698  3.1778
 8517SOL    HW333835   0.570   3.788   2.359  1.9224 -2.9930  0.4360
 8517SOL    MW433836   0.518   3.745   2.414 -0.0400 -0.1665  0.9709
 8518SOL     OW33837   3.174   3.517   5.512 -0.0735 -0.1392 -0.2386
 8518SOL    HW233838   3.158   3.430   5.476 -0.5350  0.0694 -0.5560
 8518SOL    HW333839   3.088   3.548   5.541  0.2930 -0.2961  1.0530
 8518SOL    MW433840   3.161   3.510   5.511  0.9210 -0.1207 -0.3817
 8519SOL     OW33841   1.900   3.051   0.199  0.2232  0.1272  0.5086
 8519SOL    HW233842   1.846   3.045   0.121 -0.5570 -0.4155  1.0662
 8519SOL    HW333843   1.954   2.972   0.198  1.3526  0.8850 -0.2777
 8519SOL    MW433844   1.900   3.040   0.189 -0.4001  0.3358  0.3513
 8520SOL     OW33845   5.825   2.199   4.758  0.0401 -0.0018 -0.2906
 8520SOL    HW233846   5.737   2.230   4.738  0.3252  0.3218 -1.0898
 8520SOL    HW333847   5.816   2.153   4.842 -1.2811 -1.7130 -1.3051
 8520SOL    MW433848   5.812   2.197   4.766 -0.1148  0.0080 -0.0595
 8521SOL     OW33849   0.983   4.478   2.933  0.2635 -0.1322  0.0088
 8521SOL    HW233850   1.069   4.442   2.915 -0.1747 -0.2545 -2.0559
 8521SOL    HW333851   0.938   4.477   2.848 -0.9685  2.0399  0.5645
 8521SOL    MW433852   0.988   4.473   2.919  0.1038 -0.4560  0.1885
 8522SOL     OW33853   1.126   3.016   0.546  0.7356 -0.0541  0.5058
 8522SOL    HW233854   1.058   3.033   0.611  1.9014 -0.0415  1.7855
 8522SOL    HW333855   1.099   3.065   0.469 -0.3631  0.4863  1.2098
 8522SOL    MW433856   1.114   3.025   0.545 -0.4004 -0.2867  0.7112
 8523SOL     OW33857   4.164   1.850   2.961  0.0164 -0.0513 -0.4409
 8523SOL    HW233858   4.068   1.850   2.970  0.1560  0.7392  1.2331
 8523SOL    HW333859   4.181   1.774   2.904 -1.5148 -1.0015  0.2753
 8523SOL    MW433860   4.153   1.840   2.954  0.1126 -0.5338  0.4185
 8524SOL     OW33861   1.593   4.571   3.741 -0.5183  0.4182 -0.1828
 8524SOL    HW233862   1.507   4.606   3.762 -0.5995 -0.8369  1.7643
 8524SOL    HW333863   1.654   4.637   3.773 -0.7228  0.4874  0.0612
 8524SOL    MW433864   1.590   4.585   3.748 -0.2128  0.3722 -0.4215
 8525SOL     OW33865   5.875   5.592   5.127 -0.4387  0.4826 -0.2805
 8525SOL    HW233866   5.882   5.499   5.145  1.6944  0.5311 -0.5433
 8525SOL    HW333867   5.949   5.631   5.173 -1.5691  2.1384  0.2336
 8525SOL    MW433868   5.886   5.585   5.135 -0.4181 -0.4976  0.4088
 8526SOL     OW33869   1.565   5.832   2.713 -0.1378  0.3239  0.3928
 8526SOL    HW233870   1.494   5.882   2.673 -0.7565 -0.1676  0.8502
 8526SOL    HW333871   1.645   5.870   2.676 -0.6511  0.5562 -0.5182
 8526SOL    MW433872   1.567   5.844   2.703 -0.6823  0.4638  0.1991
 8527SOL     OW33873   6.165   5.153   1.383 -0.5944 -0.1215 -0.1993
 8527SOL    HW233874   6.186   5.107   1.464  2.6779  0.3324 -0.6356
 8527SOL    HW333875   6.135   5.085   1.323 -0.2689 -0.9423  0.5518
 8527SOL    MW433876   6.164   5.138   1.386  0.0676  0.8099 -0.0742
 8528SOL     OW33877   2.270   3.571   2.772  0.2211  0.0678 -0.1056
 8528SOL    HW233878   2.326   3.568   2.849 -1.5017  2.7444  1.4136
 8528SOL    HW333879   2.183   3.545   2.804 -0.4569  0.8449 -1.2194
 8528SOL    MW433880   2.266   3.567   2.786  0.2406 -0.1930 -0.3580
 8529SOL     OW33881   1.800   3.380   5.029  0.2771  0.5803  0.0595
 8529SOL    HW233882   1.827   3.375   5.120  1.1489  1.0051 -0.1660
 8529SOL    HW333883   1.808   3.472   5.005 -1.5233  0.7611 -0.0001
 8529SOL    MW433884   1.805   3.391   5.038 -0.7712 -0.0961 -0.1545
 8530SOL     OW33885   5.355   1.362   1.616 -0.0156 -0.2105 -0.4024
 8530SOL    HW233886   5.443   1.340   1.587  1.0114  0.2772  2.1168
 8530SOL    HW333887   5.364   1.447   1.659 -1.1709 -1.2311  2.0586
 8530SOL    MW433888   5.368   1.371   1.618 -0.6973 -0.2323  0.2302
 8531SOL     OW33889   3.249   4.416   3.615  0.0686 -0.0316 -0.4000
 8531SOL    HW233890   3.192   4.492   3.626  0.0538 -0.0510 -0.3417
 8531SOL    HW333891   3.265   4.385   3.704  1.4377  0.9054 -0.3002
 8531SOL    MW433892   3.243   4.422   3.628 -0.4946 -0.1396  0.7506
 8532SOL     OW33893   1.395   2.733   2.287  0.2511 -0.1684 -0.0062
 8532SOL    HW233894   1.480   2.710   2.250  0.1490  1.0713 -1.0694
 8532SOL    HW333895   1.395   2.829   2.289 -0.5696 -0.1692  1.3274
 8532SOL    MW433896   1.406   2.742   2.282  0.5281  0.2562  0.2285
 8533SOL     OW33897   6.067   2.709   4.913  0.4392  0.0604 -0.6291
 8533SOL    HW233898   6.099   2.619   4.910  1.7436  0.5036 -0.8551
 8533SOL    HW333899   6.099   2.743   4.997 -0.7556  0.0725 -0.1646
 8533SOL    MW433900   6.076   2.702   4.923  0.2982  0.0373  0.1484
 8534SOL     OW33901   5.236   0.355   4.276 -0.2272 -0.7474 -0.1862
 8534SOL    HW233902   5.204   0.369   4.187  0.7045  0.7321 -0.3214
 8534SOL    HW333903   5.263   0.263   4.278 -1.2958 -1.1003 -1.0713
 8534SOL    MW433904   5.236   0.345   4.265 -0.1456 -0.4109 -0.0453
 8535SOL     OW33905   2.014   1.327   0.813 -0.0086 -0.0528 -0.9249
 8535SOL    HW233906   1.982   1.249   0.768 -2.5990 -0.5714  1.5293
 8535SOL    HW333907   2.016   1.302   0.906  1.3593  2.0928 -0.3136
 8535SOL    MW433908   2.010   1.313   0.820 -0.9636 -0.4566 -0.2073
 8536SOL     OW33909   1.032   6.113   0.993  0.0956  0.3676  0.1365
 8536SOL    HW233910   1.011   6.169   0.919  1.3579  4.0281  2.2572
 8536SOL    HW333911   0.956   6.120   1.051  0.4731  0.2421  0.6533
 8536SOL    MW433912   1.019   6.121   0.991 -0.0802  0.3027 -0.1133
 8537SOL     OW33913   3.746   3.246   0.877 -0.0958  0.9597  0.0447
 8537SOL    HW233914   3.781   3.289   0.955 -1.2143  3.6505 -0.8203
 8537SOL    HW333915   3.656   3.225   0.900 -0.1877  1.0217 -0.2631
 8537SOL    MW433916   3.739   3.249   0.891 -0.1385 -0.2260 -0.3661
 8538SOL     OW33917   1.070   3.000   3.106 -0.3765 -0.7089  0.5090
 8538SOL    HW233918   0.976   3.012   3.111 -0.3500 -0.2066 -0.1539
 8538SOL    HW333919   1.102   3.024   3.193 -0.6845  0.7315  0.2336
 8538SOL    MW433920   1.062   3.004   3.118 -0.0347  0.2740 -0.5632
 8539SOL     OW33921   6.440   3.956   3.497 -0.1165  0.5868 -0.3766
 8539SOL    HW233922   6.433   4.014   3.573 -1.9348 -0.2858  0.1815
 8539SOL    HW333923   6.352   3.919   3.488  0.8725 -1.7424 -0.9730
 8539SOL    MW433924   6.427   3.959   3.506 -0.3871  0.1246  0.2034
 8540SOL     OW33925   2.713   4.201   5.098  0.0335 -0.0699  0.0282
 8540SOL    HW233926   2.630   4.226   5.058  0.9453  0.2556 -1.7466
 8540SOL    HW333927   2.778   4.256   5.054  1.2460 -0.6128  1.0866
 8540SOL    MW433928   2.710   4.212   5.087  0.2016 -0.0208  0.3272
 8541SOL     OW33929   2.592   2.404   6.417 -0.4766  0.0896 -0.5338
 8541SOL    HW233930   2.607   2.313   6.443 -1.1743 -0.6059 -2.4273
 8541SOL    HW333931   2.512   2.429   6.464 -0.6758 -0.5014 -0.5483
 8541SOL    MW433932   2.583   2.396   6.427  0.4105  0.0284  1.1070
 8542SOL     OW33933   5.052   5.760   2.743 -0.9290  0.4078  0.0483
 8542SOL    HW233934   5.135   5.717   2.723 -0.9308  0.6912 -0.5762
 8542SOL    HW333935   5.032   5.732   2.833 -0.0060  0.5845  0.3201
 8542SOL    MW433936   5.060   5.751   2.752 -0.2015 -0.1691 -0.1665
 8543SOL     OW33937   3.014   3.627   5.742 -0.0716 -0.1352 -0.1256
 8543SOL    HW233938   3.076   3.680   5.691 -1.2732  1.1941 -0.2711
 8543SOL    HW333939   2.951   3.596   5.677 -0.3733 -0.2636  0.2267
 8543SOL    MW433940   3.014   3.630   5.727 -0.3704 -0.0451  0.7149
 8544SOL     OW33941   6.362   5.283   6.324  0.0512  0.2789 -0.0034
 8544SOL    HW233942   6.293   5.219   6.305 -0.4592  0.6251  0.6179
 8544SOL    HW333943   6.436   5.255   6.271 -0.7621  0.2382 -1.1728
 8544SOL    MW433944   6.362   5.271   6.314 -0.2199 -0.5432  0.5890
 8545SOL     OW33945   0.869   3.940   5.342  0.5625 -0.0239  0.1249
 8545SOL    HW233946   0.814   3.901   5.410 -0.9159  0.2299 -0.8904
 8545SOL    HW333947   0.902   3.865   5.292 -0.2382 -0.1060 -0.2894
 8545SOL    MW433948   0.866   3.925   5.344 -0.3641 -0.4265 -0.3057
 8546SOL     OW33949   2.441   4.033   0.420  0.6905  0.4294 -0.0652
 8546SOL    HW233950   2.448   4.119   0.379  1.7766  0.2537 -0.2832
 8546SOL    HW333951   2.510   4.033   0.487  0.2587 -0.0256  0.3890
 8546SOL    MW433952   2.451   4.044   0.424  0.6997  0.6577 -0.3494
 8547SOL     OW33953   5.305   2.959   3.883  0.4437 -0.1380  0.3309
 8547SOL    HW233954   5.222   2.913   3.888  0.6056 -0.5862 -0.7909
 8547SOL    HW333955   5.305   2.999   3.796  0.6300  1.3847  1.0011
 8547SOL    MW433956   5.294   2.958   3.872  0.1431 -0.2639 -0.2083
 8548SOL     OW33957   6.353   2.065   3.791  0.8225  0.2837  0.2079
 8548SOL    HW233958   6.396   2.125   3.852 -0.0644  0.3539  0.7728
 8548SOL    HW333959   6.295   2.012   3.845  1.9820 -1.4961 -0.1939
 8548SOL    MW433960   6.351   2.066   3.806  0.6852 -0.0135  0.0038
 8549SOL     OW33961   0.222   1.173   5.024  0.6826  0.3452 -0.4575
 8549SOL    HW233962   0.235   1.260   4.986  3.0105 -0.2694 -1.2493
 8549SOL    HW333963   0.166   1.128   4.961 -0.0281  1.0595 -0.3501
 8549SOL    MW433964   0.217   1.179   5.010  0.2775  0.3397  0.1164
 8550SOL     OW33965   1.375   1.593   3.779  0.0681 -0.5279  0.0905
 8550SOL    HW233966   1.301   1.594   3.839 -0.7535 -1.9647 -0.8423
 8550SOL    HW333967   1.403   1.685   3.773  1.7333 -0.5334  4.4312
 8550SOL    MW433968   1.369   1.605   3.786 -0.1879  0.0355  0.6743
 8551SOL     OW33969   4.359   5.415   3.844  0.4401  0.4135 -0.1538
 8551SOL    HW233970   4.290   5.463   3.890  0.0981  2.4055 -2.5173
 8551SOL    HW333971   4.311   5.348   3.794  0.2007  1.4177 -1.3336
 8551SOL    MW433972   4.343   5.412   3.843  0.0264 -0.0030 -0.4157
 8552SOL     OW33973   1.597   6.023   4.353  0.1301  0.2761  0.1460
 8552SOL    HW233974   1.665   5.994   4.292 -2.5400 -0.4903 -2.7035
 8552SOL    HW333975   1.590   5.951   4.416  1.5364  0.1292  0.1867
 8552SOL    MW433976   1.605   6.010   4.353  0.2041  0.2755 -0.0473
 8553SOL     OW33977   3.924   0.114   1.577  0.2530  0.4734  0.2549
 8553SOL    HW233978   3.849   0.150   1.530 -1.5031 -0.2997  2.2870
 8553SOL    HW333979   3.915   0.019   1.568 -0.2733  0.2833  2.2211
 8553SOL    MW433980   3.913   0.106   1.570  0.5190  0.0968 -0.4113
 8554SOL     OW33981   3.424   6.246   5.041 -0.2770 -0.1151  0.1065
 8554SOL    HW233982   3.501   6.207   5.082 -0.9191 -0.5340  0.9381
 8554SOL    HW333983   3.458   6.319   4.989  0.6132  0.0711  0.9390
 8554SOL    MW433984   3.438   6.251   5.039  0.1553 -0.0091 -1.0658
 8555SOL     OW33985   4.692   6.248   0.410 -0.2085  0.6618 -0.2840
 8555SOL    HW233986   4.659   6.169   0.453  0.4561  1.0045  0.8697
 8555SOL    HW333987   4.694   6.315   0.478 -1.5916  1.9489 -1.4439
 8555SOL    MW433988   4.688   6.246   0.424  0.3451 -0.1516  0.0134
 8556SOL     OW33989   4.837   1.134   3.788  0.0854  0.0091  0.0756
 8556SOL    HW233990   4.795   1.198   3.846  0.4332  0.6036 -0.3128
 8556SOL    HW333991   4.866   1.185   3.712 -2.3454 -1.1114 -1.7279
 8556SOL    MW433992   4.835   1.149   3.786 -0.4551  0.6542 -0.3220
 8557SOL     OW33993   5.858   4.967   3.258 -0.1795  0.3018 -0.2165
 8557SOL    HW233994   5.768   4.980   3.290  0.2028 -2.0934  2.2454
 8557SOL    HW333995   5.861   4.875   3.232  1.6426  0.2458  0.0506
 8557SOL    MW433996   5.846   4.956   3.259  0.0569  0.5180  0.7910
 8558SOL     OW33997   0.043   3.821   0.623 -0.1046 -0.0287  0.5206
 8558SOL    HW233998  -0.024   3.801   0.557 -0.0279 -0.8961  0.6947
 8558SOL    HW333999   0.016   3.905   0.660 -0.4697  0.1793 -0.2068
 8558SOL    MW434000   0.030   3.829   0.619  0.3089 -0.1938 -0.3329
 8559SOL     OW34001   1.889   1.937   4.239  0.4308  0.2968 -0.4023
 8559SOL    HW234002   1.873   2.004   4.306  0.6889  0.2859 -0.3297
 8559SOL    HW334003   1.979   1.953   4.209  0.1666  0.5896 -1.0721
 8559SOL    MW434004   1.899   1.948   4.244 -0.3540  0.6583  0.4913
 8560SOL     OW34005   3.154   4.580   1.303  0.1768  0.3781 -0.0127
 8560SOL    HW234006   3.181   4.612   1.217 -0.0633  3.5502  0.9737
 8560SOL    HW334007   3.186   4.646   1.364 -0.8189 -1.0935  2.2244
 8560SOL    MW434008   3.162   4.593   1.300 -0.0815 -0.2340 -0.1581
 8561SOL     OW34009   3.985   0.995   0.901 -0.3717 -0.4062  0.0666
 8561SOL    HW234010   3.993   0.995   0.997  1.1143  0.5462 -0.0249
 8561SOL    HW334011   4.055   1.052   0.871 -0.9163 -0.5569 -1.6046
 8561SOL    MW434012   3.995   1.002   0.910 -0.6488 -0.1126 -0.2376
 8562SOL     OW34013   0.898   0.005   3.449 -0.0237 -0.4535 -0.2051
 8562SOL    HW234014   0.988   0.035   3.435  0.4310 -1.5858  0.1601
 8562SOL    HW334015   0.886   0.005   3.544 -0.1487 -0.9961 -0.2136
 8562SOL    MW434016   0.908   0.009   3.459 -0.0351 -0.3523  0.0154
 8563SOL     OW34017   4.973   4.340   0.927  0.3240 -0.3701 -0.0021
 8563SOL    HW234018   4.887   4.378   0.908  0.8697  0.2856 -1.2344
 8563SOL    HW334019   5.007   4.393   1.000 -0.4926 -0.9322  0.8078
 8563SOL    MW434020   4.966   4.352   0.934  0.5582 -0.0198  0.4136
 8564SOL     OW34021   5.002   0.648   1.243 -0.2947 -0.0238 -0.6549
 8564SOL    HW234022   4.999   0.611   1.155 -1.4204 -0.8125 -0.3081
 8564SOL    HW334023   5.019   0.741   1.230  0.5250 -0.3018 -1.6535
 8564SOL    MW434024   5.004   0.656   1.230  0.0044 -0.2406  0.0427
 8565SOL     OW34025   4.514   4.075   0.108  0.1484  0.1687  0.0906
 8565SOL    HW234026   4.476   4.050   0.024  1.3015 -3.1915  0.3948
 8565SOL    HW334027   4.567   4.152   0.089  0.2142 -0.3869 -2.2393
 8565SOL    MW434028   4.516   4.082   0.094  0.3852  0.6530 -0.1158
 8566SOL     OW34029   1.861   1.157   1.382 -0.3267  0.9948 -0.2210
 8566SOL    HW234030   1.794   1.138   1.447 -0.3257  1.5642 -0.0537
 8566SOL    HW334031   1.874   1.074   1.336 -0.2353  0.5531  0.5834
 8566SOL    MW434032   1.854   1.143   1.384 -0.3040  0.4371  0.0274
 8567SOL     OW34033   5.102   0.461   3.349  0.2074  0.1625  0.5553
 8567SOL    HW234034   5.124   0.370   3.368  2.7510  0.5461 -0.2504
 8567SOL    HW334035   5.087   0.463   3.254  3.3357  1.0605 -0.0272
 8567SOL    MW434036   5.103   0.449   3.339 -0.6697  0.6409 -0.1074
 8568SOL     OW34037   0.051   6.394   5.625  0.2155  0.2772 -0.0256
 8568SOL    HW234038   0.074   6.451   5.552  1.1181  0.4804  0.3960
 8568SOL    HW334039   0.064   6.448   5.703 -1.5987  0.3462  0.2652
 8568SOL    MW434040   0.056   6.409   5.625  0.1063  0.9005 -0.0520
 8569SOL     OW34041   0.915   3.271   0.947  0.2004  0.3272 -0.2955
 8569SOL    HW234042   0.871   3.354   0.932 -2.0523 -0.1740  2.5495
 8569SOL    HW334043   0.886   3.215   0.875 -0.4913  1.2187 -0.7355
 8569SOL    MW434044   0.905   3.274   0.936  0.0885 -0.2562  0.0373
 8570SOL     OW34045   2.687   2.214   5.699 -0.0248  0.1802  0.1827
 8570SOL    HW234046   2.776   2.179   5.701 -0.0655  0.0080 -0.7217
 8570SOL    HW334047   2.664   2.216   5.606  0.1056  2.9313  0.1348
 8570SOL    MW434048   2.695   2.210   5.687 -0.5924 -0.0365  0.2468
 8571SOL     OW34049   5.559   2.180   2.210 -0.0381 -0.5485 -0.0280
 8571SOL    HW234050   5.527   2.164   2.299  1.4309  3.5410  1.4920
 8571SOL    HW334051   5.497   2.244   2.173  0.6761 -0.3729 -0.9889
 8571SOL    MW434052   5.546   2.187   2.217  0.3384 -0.2380 -0.8674
 8572SOL     OW34053   4.018   4.715   5.368 -0.2339 -0.5379  0.2701
 8572SOL    HW234054   4.019   4.716   5.272  1.0691 -0.6908  0.2675
 8572SOL    HW334055   3.976   4.797   5.393  1.4596  0.5721 -0.4288
 8572SOL    MW434056   4.012   4.726   5.359  0.2844  0.2532 -0.1904
 8573SOL     OW34057   5.792   0.118   1.677 -0.2391  0.3007 -0.2657
 8573SOL    HW234058   5.886   0.102   1.667 -0.1390 -0.6937  1.7714
 8573SOL    HW334059   5.772   0.183   1.610  1.4235 -1.0686 -2.2167
 8573SOL    MW434060   5.802   0.125   1.667 -0.0223  0.2284  0.0395
 8574SOL     OW34061   2.388   2.867   1.298 -0.1396 -0.3717 -0.1148
 8574SOL    HW234062   2.427   2.853   1.212  1.7853  0.9120  0.4843
 8574SOL    HW334063   2.372   2.961   1.303 -1.0542 -0.5419  0.6302
 8574SOL    MW434064   2.391   2.877   1.287  0.1583  0.5059  0.6857
 8575SOL     OW34065   6.350   2.466   5.404  0.2260 -0.4205 -0.3318
 8575SOL    HW234066   6.324   2.444   5.493 -1.5669 -1.8379 -1.1425
 8575SOL    HW334067   6.273   2.508   5.366  1.3793  1.2950 -0.8868
 8575SOL    MW434068   6.337   2.469   5.410 -0.0730  0.3610 -0.3162
 8576SOL     OW34069   5.401   5.139   0.011  0.2000  0.0158 -0.1565
 8576SOL    HW234070   5.330   5.194  -0.021  0.0487  0.4864  0.9684
 8576SOL    HW334071   5.364   5.051   0.014  0.5902 -0.3094 -2.4502
 8576SOL    MW434072   5.387   5.134   0.007  0.0562  0.9912 -0.4119
 8577SOL     OW34073   4.085   2.901   1.582 -0.1462 -0.1665 -0.2001
 8577SOL    HW234074   4.173   2.932   1.602 -0.6285  0.0765  1.7584
 8577SOL    HW334075   4.078   2.906   1.487  1.0730  2.2301 -0.2161
 8577SOL    MW434076   4.095   2.906   1.572 -0.5911 -0.3137  0.1876
 8578SOL     OW34077   3.407   5.586   2.171  0.1245 -0.2346 -0.3798
 8578SOL    HW234078   3.492   5.621   2.147  0.4290 -0.5001  0.2916
 8578SOL    HW334079   3.417   5.491   2.170  0.2879 -0.2625  1.1977
 8578SOL    MW434080   3.419   5.578   2.168  0.0335 -0.2205  0.5456
 8579SOL     OW34081   0.618   3.042   1.422 -0.1240 -0.0690 -0.8543
 8579SOL    HW234082   0.700   3.025   1.468  0.2887  2.0261 -0.7498
 8579SOL    HW334083   0.550   3.016   1.485  0.4420  0.1366 -0.1504
 8579SOL    MW434084   0.620   3.036   1.436 -0.3400  0.4184  0.0766
 8580SOL     OW34085   0.294   5.241   0.552  0.3669  0.5107 -0.4751
 8580SOL    HW234086   0.320   5.174   0.615  1.9031 -0.2669 -1.8784
 8580SOL    HW334087   0.221   5.202   0.505  0.6502  0.2092 -0.6630
 8580SOL    MW434088   0.288   5.227   0.554 -0.2567  0.4511 -0.2698
 8581SOL     OW34089   0.259   0.322   1.866  0.0180  0.1575 -0.8392
 8581SOL    HW234090   0.297   0.240   1.833  0.6515  0.3245 -0.5231
 8581SOL    HW334091   0.165   0.305   1.866  0.0103  0.0448 -2.4539
 8581SOL    MW434092   0.251   0.309   1.862 -0.3988  0.1592  0.2872
 8582SOL     OW34093   3.789   1.346   5.615 -0.6493 -0.2287 -0.6646
 8582SOL    HW234094   3.872   1.305   5.642 -0.2777  1.7239  1.4680
 8582SOL    HW334095   3.786   1.334   5.521  2.7013  0.6646 -1.0010
 8582SOL    MW434096   3.800   1.339   5.606  0.3481  0.5679 -0.4049
 8583SOL     OW34097   0.631   5.449   1.486  0.0437 -0.3714  0.0556
 8583SOL    HW234098   0.606   5.470   1.395 -2.7671 -2.5048  0.1970
 8583SOL    HW334099   0.676   5.365   1.480 -0.2506 -0.5749  0.6211
 8583SOL    MW434100   0.633   5.441   1.473  0.5561 -0.1323 -0.2928
 8584SOL     OW34101   4.347   0.884   4.438  0.0283 -0.2984 -0.6773
 8584SOL    HW234102   4.377   0.972   4.461 -0.4716  0.0190 -1.1983
 8584SOL    HW334103   4.289   0.898   4.363 -0.0485 -1.0757 -0.7685
 8584SOL    MW434104   4.343   0.898   4.431  0.0857 -0.1612 -0.0668
 8585SOL     OW34105   1.559   5.403   5.428  0.3028 -0.3230  0.0653
 8585SOL    HW234106   1.573   5.334   5.363  0.2618  1.7244 -2.2650
 8585SOL    HW334107   1.469   5.433   5.411  0.8658  1.3502 -0.0901
 8585SOL    MW434108   1.549   5.398   5.417 -0.1872  0.1740 -0.2792
 8586SOL     OW34109   2.428   0.618   2.139  0.1164 -0.4725 -0.4416
 8586SOL    HW234110   2.524   0.627   2.136  0.0276  0.2749 -2.3961
 8586SOL    HW334111   2.410   0.583   2.226  1.8739  2.6190  1.3059
 8586SOL    MW434112   2.439   0.614   2.150  0.3574  0.3129  0.0123
 8587SOL     OW34113   1.245   1.887   0.102  0.3471  0.3940  0.0979
 8587SOL    HW234114   1.229   1.967   0.053  0.0674 -0.3256 -1.0071
 8587SOL    HW334115   1.282   1.917   0.185 -0.9203  1.7390  0.2160
 8587SOL    MW434116   1.248   1.901   0.107 -0.1454  0.2414  0.4523
 8588SOL     OW34117   2.350   1.630   4.944 -0.2357  0.0079 -0.0284
 8588SOL    HW234118   2.345   1.543   4.905 -2.0627  0.9807 -2.2080
 8588SOL    HW334119   2.416   1.676   4.893  0.2043  0.1483  0.6517
 8588SOL    MW434120   2.358   1.625   4.932 -0.1709 -0.0480  0.1315
 8589SOL     OW34121   0.704   0.283   3.740  0.4703 -0.1881  0.5850
 8589SOL    HW234122   0.741   0.274   3.652  0.5801  0.9861  0.4943
 8589SOL    HW334123   0.616   0.316   3.726  0.6909  0.5748  0.9239
 8589SOL    MW434124   0.698   0.286   3.727  0.3979 -0.6446 -0.1538
 8590SOL     OW34125   4.167   0.661   5.530 -0.3961 -0.0885 -0.2674
 8590SOL    HW234126   4.249   0.699   5.497 -1.1348  2.9605  1.0421
 8590SOL    HW334127   4.129   0.617   5.454  0.8943  1.3140 -1.8187
 8590SOL    MW434128   4.173   0.660   5.516  0.3519 -0.4130 -0.7213
 8591SOL     OW34129   4.870   3.920   5.552  0.2616  0.5625 -0.4616
 8591SOL    HW234130   4.879   3.903   5.645  0.3911  2.4417 -0.1045
 8591SOL    HW334131   4.877   4.015   5.543 -1.5044  0.6077 -2.1736
 8591SOL    MW434132   4.872   3.930   5.563  0.0322  0.3891  0.0141
 8592SOL     OW34133   0.959   0.191   1.281 -0.2409 -0.2554 -0.0438
 8592SOL    HW234134   0.985   0.163   1.369 -0.1926 -0.0192  0.0185
 8592SOL    HW334135   0.866   0.214   1.290 -0.3490 -0.6529 -0.1572
 8592SOL    MW434136   0.950   0.191   1.294 -0.2609  0.2365  0.3674
 8593SOL     OW34137   6.092   4.997   0.359  0.1538 -0.4317  0.4606
 8593SOL    HW234138   6.138   4.913   0.350  0.8283 -0.1787  1.4811
 8593SOL    HW334139   6.070   5.021   0.269  0.2485 -1.5373  0.1243
 8593SOL    MW434140   6.095   4.989   0.346  0.0425 -0.2661  0.1510
 8594SOL     OW34141   3.097   5.645   4.653  0.2912  0.4668  0.2494
 8594SOL    HW234142   3.123   5.672   4.742  1.5436 -2.3194  0.8116
 8594SOL    HW334143   3.169   5.591   4.622 -1.2582 -0.7450 -1.4532
 8594SOL    MW434144   3.110   5.642   4.661 -0.4467  0.2735 -0.4260
 8595SOL     OW34145   1.055   5.207   2.564  0.5120 -0.4643 -0.5277
 8595SOL    HW234146   1.004   5.160   2.630  1.1859  0.6017  0.8164
 8595SOL    HW334147   1.001   5.283   2.541 -0.1574 -1.3426 -1.9846
 8595SOL    MW434148   1.041   5.211   2.570  0.7310 -0.4468  0.3510
 8596SOL     OW34149   1.289   2.139   1.224  0.1898  0.0641 -0.0431
 8596SOL    HW234150   1.273   2.153   1.130  2.6938 -0.8942 -0.6872
 8596SOL    HW334151   1.337   2.056   1.228 -1.7962 -1.1125  2.3424
 8596SOL    MW434152   1.293   2.130   1.212 -0.1459 -0.0044 -0.0672
 8597SOL     OW34153   0.249   4.167   3.117  0.6588  0.5642  0.1221
 8597SOL    HW234154   0.269   4.260   3.128  2.4364  0.1145  0.9853
 8597SOL    HW334155   0.173   4.152   3.173  0.1523  1.5358 -0.2729
 8597SOL    MW434156   0.242   4.178   3.126 -0.4542 -0.2110  0.6492
 8598SOL     OW34157   5.109   1.148   4.330 -0.2843  0.0697  0.2545
 8598SOL    HW234158   5.055   1.184   4.259  0.3057 -0.8604 -0.6991
 8598SOL    HW334159   5.193   1.128   4.288  1.0254  1.9702  1.8207
 8598SOL    MW434160   5.113   1.150   4.315  0.1372  0.5553  0.1241
 8599SOL     OW34161   0.826   2.762   2.329  0.1892  0.2577 -0.2016
 8599SOL    HW234162   0.899   2.728   2.381  0.0847  0.4828  0.1016
 8599SOL    HW334163   0.754   2.702   2.347  0.2639  0.1112 -0.3955
 8599SOL    MW434164   0.826   2.750   2.338 -0.5182 -0.5044  0.2667
 8600SOL     OW34165   1.832   5.260   4.762 -0.2172 -0.2644 -0.2942
 8600SOL    HW234166   1.784   5.320   4.704  1.2228  0.5461 -0.7110
 8600SOL    HW334167   1.795   5.174   4.743  0.1910 -0.0333 -2.4888
 8600SOL    MW434168   1.821   5.257   4.752 -0.3585  0.3366  0.5946
 8601SOL     OW34169   1.403   0.505   6.067 -0.7430  0.1560  0.3988
 8601SOL    HW234170   1.455   0.561   6.009  2.2375 -2.0989  0.6824
 8601SOL    HW334171   1.395   0.422   6.021 -0.0382 -1.0521  2.3287
 8601SOL    MW434172   1.409   0.501   6.053  0.2256 -0.2231  0.1826
 8602SOL     OW34173   5.238   3.820   1.107  0.1029  0.4940  0.1778
 8602SOL    HW234174   5.201   3.895   1.153  2.4279  1.7663  0.1586
 8602SOL    HW334175   5.263   3.759   1.176 -2.4640 -0.6903  0.1604
 8602SOL    MW434176   5.236   3.822   1.122  0.1596  0.0953  0.5661
 8603SOL     OW34177   3.326   5.293   3.135  0.1208  0.8113  0.6281
 8603SOL    HW234178   3.348   5.258   3.050 -0.2743  0.6904  0.5733
 8603SOL    HW334179   3.334   5.219   3.195  1.5027  1.1440  0.8942
 8603SOL    MW434180   3.330   5.279   3.132  0.3493  0.0413  0.0926
 8604SOL     OW34181   0.411   5.433   2.945 -0.3953  0.5726  0.4384
 8604SOL    HW234182   0.397   5.518   2.902  0.4173  0.3028 -0.3888
 8604SOL    HW334183   0.414   5.454   3.039  0.1178  1.5045  0.2258
 8604SOL    MW434184   0.409   5.447   2.952 -0.4204 -0.4458  0.5988
 8605SOL     OW34185   1.730   3.041   6.397 -0.0734  0.0944  0.2274
 8605SOL    HW234186   1.742   2.956   6.356 -2.2525 -0.2187  0.1122
 8605SOL    HW334187   1.751   3.104   6.328 -0.1029 -0.3738 -0.2171
 8605SOL    MW434188   1.734   3.038   6.382  0.1196  0.0461 -0.3614
 8606SOL     OW34189   5.532   0.395   3.916  0.2031 -0.5336  0.1745
 8606SOL    HW234190   5.492   0.365   3.835  1.0343  2.1092 -1.3190
 8606SOL    HW334191   5.605   0.335   3.931 -0.2175 -1.2989 -0.7730
 8606SOL    MW434192   5.536   0.383   3.907 -0.0350 -0.0228 -0.5537
 8607SOL     OW34193   4.168   2.400   6.341 -0.8044 -0.2379  0.0333
 8607SOL    HW234194   4.142   2.467   6.403  1.2398 -0.5047  1.2737
 8607SOL    HW334195   4.164   2.318   6.390  1.8941 -0.3287  0.2602
 8607SOL    MW434196   4.164   2.398   6.356  0.2933  0.2265 -0.3512
 8608SOL     OW34197   2.126   1.469   4.482  0.3020 -0.3620  0.2577
 8608SOL    HW234198   2.098   1.518   4.405  1.4048  0.7892  0.5577
 8608SOL    HW334199   2.189   1.526   4.525 -0.1571 -1.0511  1.9320
 8608SOL    MW434200   2.130   1.483   4.477  0.6256  0.1628 -0.3333
 8609SOL     OW34201   5.415   3.347   4.977  0.0899  0.4609 -0.5275
 8609SOL    HW234202   5.464   3.421   5.013 -1.6716  1.0263  0.8924
 8609SOL    HW334203   5.463   3.270   5.007 -0.0351  0.9939  1.1594
 8609SOL    MW434204   5.428   3.347   4.986 -0.1190 -0.0758  0.2178
 8610SOL     OW34205   2.531   3.528   3.965 -0.0677 -0.7763  0.2228
 8610SOL    HW234206   2.567   3.439   3.975  0.6564 -0.4123  0.9377
 8610SOL    HW334207   2.472   3.539   4.039 -2.7421 -1.8194 -1.5725
 8610SOL    MW434208   2.528   3.517   3.976  0.4159 -0.9388  0.1852
 8611SOL     OW34209   1.541   3.943   2.855 -0.1499  0.6238 -0.3994
 8611SOL    HW234210   1.485   3.958   2.778  0.6641  0.2397 -1.0827
 8611SOL    HW334211   1.582   4.028   2.871 -1.0225  0.9481  0.2000
 8611SOL    MW434212   1.539   3.957   2.847 -0.0482  0.2366  0.2146
 8612SOL     OW34213   0.922   0.206   2.221  0.0455 -0.0467  0.4049
 8612SOL    HW234214   0.902   0.299   2.210 -1.3488 -0.0456  2.3682
 8612SOL    HW334215   0.837   0.165   2.233  0.6526 -1.5942 -0.3190
 8612SOL    MW434216   0.908   0.213   2.221  0.7601  0.4749  0.4631
 8613SOL     OW34217   5.979   4.397   1.365  0.6222  0.2469  0.9596
 8613SOL    HW234218   5.934   4.322   1.403  1.5907 -0.1949  1.2908
 8613SOL    HW334219   6.068   4.364   1.347  0.1986  0.4037 -1.7778
 8613SOL    MW434220   5.985   4.383   1.368 -0.1510 -0.0589  0.2725
 8614SOL     OW34221   1.983   3.047   3.688 -0.3214  0.1586 -0.2662
 8614SOL    HW234222   2.065   3.094   3.705 -0.1809  0.1677 -0.9477
 8614SOL    HW334223   1.936   3.101   3.626 -0.5807 -0.1424 -0.3344
 8614SOL    MW434224   1.988   3.060   3.682  1.2647  0.1622  0.0581
 8615SOL     OW34225   6.121   2.227   5.533 -0.0160  0.7280  0.2837
 8615SOL    HW234226   6.163   2.311   5.552 -0.7308  1.2985 -0.5706
 8615SOL    HW334227   6.180   2.184   5.471 -0.4647  1.3385 -0.5777
 8615SOL    MW434228   6.134   2.232   5.527 -0.0552 -0.0616  0.7552
 8616SOL     OW34229   4.435   1.007   0.044 -0.4312 -0.0569  0.2442
 8616SOL    HW234230   4.512   1.025   0.098 -0.5073 -1.0865  0.7226
 8616SOL    HW334231   4.460   0.931  -0.009 -0.1705  1.2434 -1.5878
 8616SOL    MW434232   4.449   0.999   0.044  0.3190  0.9556  0.3202
 8617SOL     OW34233   1.042   1.098   6.128 -0.1508 -0.1685  0.1421
 8617SOL    HW234234   1.085   1.183   6.115 -1.6846  0.8507  1.3300
 8617SOL    HW334235   0.958   1.106   6.081  0.6142 -1.9087 -1.6755
 8617SOL    MW434236   1.036   1.110   6.120  0.2678 -0.1830  0.2466
 8618SOL     OW34237   0.912   1.481   3.604 -0.5241  0.4683  0.5872
 8618SOL    HW234238   0.950   1.402   3.566  2.0036  1.2789  1.2174
 8618SOL    HW334239   0.932   1.550   3.541  0.0353  1.0954  1.4259
 8618SOL    MW434240   0.920   1.479   3.591  0.0054  0.1321 -0.1365
 8619SOL     OW34241   3.166   3.289   6.395  0.0024 -0.0805  0.1213
 8619SOL    HW234242   3.199   3.288   6.305 -0.8613 -1.6150 -0.2152
 8619SOL    HW334243   3.234   3.334   6.445  1.3484 -0.7937 -0.9938
 8619SOL    MW434244   3.180   3.295   6.390  0.3602 -0.0948 -0.0864
 8620SOL     OW34245   2.519   1.674   1.006  0.0560 -0.0844 -0.1587
 8620SOL    HW234246   2.539   1.696   1.097 -1.7383  1.2185 -0.0288
 8620SOL    HW334247   2.465   1.595   1.012  0.6233 -0.4815 -0.1692
 8620SOL    MW434248   2.515   1.666   1.019 -0.2301 -0.3249 -0.0532
 8621SOL     OW34249   4.842   2.937   1.097  0.1915 -0.5235 -0.7128
 8621SOL    HW234250   4.844   2.960   1.004  0.1038 -0.9431 -0.8225
 8621SOL    HW334251   4.761   2.976   1.130  0.4481  0.0112 -0.7063
 8621SOL    MW434252   4.832   2.945   1.089  0.5651 -0.8021  0.2062
 8622SOL     OW34253   0.939   2.597   3.960  0.2129  0.6067  0.5721
 8622SOL    HW234254   0.863   2.628   4.009 -0.2739 -0.2049  0.3618
 8622SOL    HW334255   0.926   2.632   3.871 -0.6915 -0.6986  0.1551
 8622SOL    MW434256   0.927   2.606   3.955 -0.2331  0.0557 -0.0322
 8623SOL     OW34257   2.142   6.404   2.811 -0.2810 -0.4957 -0.3069
 8623SOL    HW234258   2.119   6.311   2.812 -0.1986 -0.5139  0.6571
 8623SOL    HW334259   2.078   6.445   2.870  0.5384 -0.1588  0.3637
 8623SOL    MW434260   2.130   6.397   2.819  0.2116  0.0430 -0.0815
 8624SOL     OW34261   0.042   2.236   1.535 -0.0186 -0.0751  0.3256
 8624SOL    HW234262  -0.043   2.241   1.578 -1.0998  1.0019 -1.7699
 8624SOL    HW334263   0.056   2.143   1.520 -0.7399 -0.2784  0.8607
 8624SOL    MW434264   0.033   2.224   1.538 -0.3595 -0.4359 -0.3115
 8625SOL     OW34265   2.988   2.928   5.771 -0.4976  0.5017 -0.0027
 8625SOL    HW234266   2.897   2.958   5.772 -0.4619  0.6093  0.7024
 8625SOL    HW334267   3.020   2.947   5.860  0.1421  0.2544 -0.1769
 8625SOL    MW434268   2.980   2.935   5.783 -0.6145 -0.4063  0.2018
 8626SOL     OW34269   0.783   2.277   1.911 -0.1298  0.2484  0.1154
 8626SOL    HW234270   0.791   2.233   1.826 -2.3209 -1.3999  0.6484
 8626SOL    HW334271   0.850   2.236   1.965 -0.4690 -0.6727 -0.1220
 8626SOL    MW434272   0.793   2.265   1.907 -0.3787  0.6128 -0.0133
 8627SOL     OW34273   0.238   3.329   2.486  0.5423  0.3825  0.4658
 8627SOL    HW234274   0.201   3.365   2.405 -0.4930 -3.2183 -0.8991
 8627SOL    HW334275   0.177   3.259   2.510  1.1023  0.9692  4.1795
 8627SOL    MW434276   0.225   3.324   2.478  0.0297  0.1325  0.0187
 8628SOL     OW34277   1.495   3.369   4.970  0.1316 -0.3704 -0.4451
 8628SOL    HW234278   1.446   3.404   5.044  0.2321 -1.7763  0.3159
 8628SOL    HW334279   1.587   3.383   4.993  0.1504 -0.3758 -0.5169
 8628SOL    MW434280   1.501   3.376   4.983  0.4194  0.3019 -0.4678
 8629SOL     OW34281   0.239   1.684   3.964 -0.0020 -0.0903  0.1554
 8629SOL    HW234282   0.150   1.657   3.986  0.2955 -0.2140  1.2634
 8629SOL    HW334283   0.247   1.773   3.997  0.3343 -0.1455  0.2337
 8629SOL    MW434284   0.229   1.692   3.971 -0.0192  0.0599  0.3930
 8630SOL     OW34285   1.056   2.451   4.693  0.2952 -0.0682 -0.0022
 8630SOL    HW234286   0.988   2.517   4.688 -1.1980 -1.5825 -0.7673
 8630SOL    HW334287   1.121   2.479   4.629 -0.3828  0.5827 -0.4178
 8630SOL    MW434288   1.056   2.463   4.684  0.0061 -0.5845  0.5224
 8631SOL     OW34289   2.820   2.429   0.620  0.4160 -0.0550 -0.2123
 8631SOL    HW234290   2.741   2.430   0.675 -0.6556  1.4910 -1.6827
 8631SOL    HW334291   2.822   2.342   0.580 -1.2238  0.2673 -1.0568
 8631SOL    MW434292   2.810   2.418   0.622 -0.1529  0.6554 -0.3913
 8632SOL     OW34293   3.826   0.616   5.976 -0.0768  0.4645  0.0025
 8632SOL    HW234294   3.850   0.523   5.983  1.0983  0.8259  1.1992
 8632SOL    HW334295   3.735   0.615   5.946 -0.4454 -1.1041  1.0348
 8632SOL    MW434296   3.817   0.603   5.973 -0.4008  0.5028 -0.5057
 8633SOL     OW34297   0.830   1.000   4.446 -0.2829  0.0081  0.3233
 8633SOL    HW234298   0.882   1.043   4.378 -1.0497 -0.6834 -0.7483
 8633SOL    HW334299   0.852   1.045   4.527 -0.5643  1.9652 -0.6362
 8633SOL    MW434300   0.839   1.011   4.448  0.1666 -0.0500 -0.1284
 8634SOL     OW34301   0.124   5.414   1.518  0.1344 -0.0784  0.2499
 8634SOL    HW234302   0.128   5.466   1.599 -0.0716 -0.7152  0.6752
 8634SOL    HW334303   0.031   5.403   1.502  0.1747  0.0575 -0.0936
 8634SOL    MW434304   0.112   5.420   1.527  1.1348  0.0765 -0.3052
 8635SOL     OW34305   0.249   2.259   5.599  0.2539  0.3089 -0.0981
 8635SOL    HW234306   0.185   2.211   5.547 -2.2777  1.4736  1.7779
 8635SOL    HW334307   0.241   2.349   5.570  0.6118  0.5736  0.6029
 8635SOL    MW434308   0.240   2.264   5.588  0.3513  0.2386 -0.6207
 8636SOL     OW34309   1.929   4.537   3.441  0.1236  0.1061  0.4599
 8636SOL    HW234310   1.956   4.449   3.468 -4.4139 -1.7888 -0.2474
 8636SOL    HW334311   1.935   4.537   3.346  0.6149  0.8136  0.4795
 8636SOL    MW434312   1.933   4.525   3.432 -0.3049  0.1146  0.4073
 8637SOL     OW34313   1.992   3.883   2.818 -0.4662 -0.1093 -0.3843
 8637SOL    HW234314   2.045   3.828   2.875 -1.5456 -0.3040  0.4727
 8637SOL    HW334315   1.986   3.966   2.865  0.4767  0.4916 -1.2867
 8637SOL    MW434316   1.998   3.887   2.832  0.8058  0.2423  0.0386
 8638SOL     OW34317   3.475   0.451   3.180  0.4804 -0.0104  0.0055
 8638SOL    HW234318   3.544   0.399   3.137 -1.1035 -2.8860  0.6500
 8638SOL    HW334319   3.440   0.393   3.247 -3.1438  0.9363 -0.8610
 8638SOL    MW434320   3.480   0.436   3.183  0.9253 -0.4102 -0.1970
 8639SOL     OW34321   2.225   0.005   2.274 -0.4323  0.8527  0.4090
 8639SOL    HW234322   2.194   0.022   2.363 -1.3667  0.5872  0.1413
 8639SOL    HW334323   2.320   0.013   2.280 -0.5955  2.9496  0.9855
 8639SOL    MW434324   2.233   0.009   2.287  0.0409 -0.0994  0.1668
 8640SOL     OW34325   5.380   5.905   2.962  0.2028 -0.0873 -0.6775
 8640SOL    HW234326   5.382   5.810   2.953 -1.2427  0.0669 -3.5363
 8640SOL    HW334327   5.288   5.929   2.953  0.4873  1.5959  0.3126
 8640SOL    MW434328   5.369   5.896   2.960 -0.2760 -0.3889  0.6559
 8641SOL     OW34329   5.860   3.832   4.227  0.1951  0.0871 -0.4760
 8641SOL    HW234330   5.833   3.742   4.248 -2.1306  0.5092 -1.3779
 8641SOL    HW334331   5.894   3.827   4.138  0.8586 -0.0276 -0.2209
 8641SOL    MW434332   5.861   3.819   4.218 -0.9595  0.5833 -0.1568
 8642SOL     OW34333   3.068   0.434   2.829 -0.1205 -0.2803  0.2038
 8642SOL    HW234334   3.005   0.492   2.872  0.6716 -0.5170  1.7635
 8642SOL    HW334335   3.147   0.488   2.820  0.2784 -0.7795  0.6845
 8642SOL    MW434336   3.070   0.449   2.834 -0.1006 -0.0430 -0.1523
 8643SOL     OW34337   0.246   1.840   0.192 -0.6161 -0.0835  0.2217
 8643SOL    HW234338   0.270   1.780   0.262 -0.2153  2.1070  2.0708
 8643SOL    HW334339   0.154   1.862   0.209  0.1717  2.4134  1.6902
 8643SOL    MW434340   0.237   1.835   0.203 -0.0565 -0.4747  0.2338
 8644SOL     OW34341   3.353   4.903   4.315 -0.6262 -0.3983  0.2605
 8644SOL    HW234342   3.436   4.862   4.339  0.2283  0.2671 -1.3823
 8644SOL    HW334343   3.350   4.899   4.220 -1.3689  1.6525  0.1303
 8644SOL    MW434344   3.363   4.897   4.306 -0.6320 -0.3213 -0.2587
 8645SOL     OW34345   0.902   0.616   0.711 -0.3186  0.7446  0.2367
 8645SOL    HW234346   0.953   0.651   0.638 -3.0600  2.0489 -1.2159
 8645SOL    HW334347   0.912   0.680   0.781  1.2423  0.1629  0.5930
 8645SOL    MW434348   0.910   0.629   0.711  0.3486 -0.6981 -0.3867
 8646SOL     OW34349   1.265   1.297   1.829 -0.0770 -0.3993  0.2349
 8646SOL    HW234350   1.253   1.323   1.921 -2.1782  0.2578 -0.1716
 8646SOL    HW334351   1.243   1.204   1.829  0.1393 -0.4528  0.4262
 8646SOL    MW434352   1.261   1.288   1.841 -0.1430  0.3814  0.6906
 8647SOL     OW34353   5.068   3.486   5.699  0.0732  0.4461  0.0450
 8647SOL    HW234354   4.977   3.512   5.712 -0.3774 -0.6365 -0.7478
 8647SOL    HW334355   5.063   3.398   5.662  1.3690  1.0060 -1.6388
 8647SOL    MW434356   5.055   3.478   5.696  0.2673  0.5186  0.3497
 8648SOL     OW34357   0.776   3.675   3.322 -0.8645  0.1311  0.3563
 8648SOL    HW234358   0.759   3.755   3.371 -1.0386 -1.0697  2.3761
 8648SOL    HW334359   0.854   3.637   3.363 -0.9489 -0.8639 -0.3658
 8648SOL    MW434360   0.784   3.680   3.334  0.0062  0.5107  0.0559
 8649SOL     OW34361   3.755   4.012   1.468  0.0267 -0.5330  0.2794
 8649SOL    HW234362   3.767   4.023   1.562  0.2117 -2.1750  0.4810
 8649SOL    HW334363   3.765   4.100   1.431  0.8502 -0.0115  1.6921
 8649SOL    MW434364   3.758   4.025   1.475 -0.0840 -0.2377  0.3721
 8650SOL     OW34365   4.044   5.252   4.119  0.2109  0.2203 -0.1589
 8650SOL    HW234366   3.964   5.285   4.160 -0.4166 -1.3297 -0.0574
 8650SOL    HW334367   4.030   5.266   4.025 -0.3954 -0.4765 -0.1780
 8650SOL    MW434368   4.032   5.258   4.112 -0.8683  0.4245  0.1334
 8651SOL     OW34369   4.156   0.515   1.713  0.2202 -0.6061  0.1874
 8651SOL    HW234370   4.203   0.513   1.630 -0.2067 -1.2681 -0.0510
 8651SOL    HW334371   4.064   0.509   1.688 -0.1632  2.1572  0.5488
 8651SOL    MW434372   4.150   0.514   1.699  0.1933  0.6244 -0.2833
 8652SOL     OW34373   3.204   2.349   6.204  0.1134  0.0354 -0.3221
 8652SOL    HW234374   3.261   2.281   6.170 -0.6255 -0.7820  0.0382
 8652SOL    HW334375   3.223   2.352   6.297 -1.9122 -1.7647  0.2181
 8652SOL    MW434376   3.214   2.341   6.211 -0.1936  0.0873 -0.3002
 8653SOL     OW34377   1.089   0.474   2.313 -0.1291 -0.0214 -0.3260
 8653SOL    HW234378   1.086   0.407   2.381  0.6937 -1.0359 -1.2652
 8653SOL    HW334379   1.087   0.557   2.361 -1.0317 -0.7029  0.8567
 8653SOL    MW434380   1.088   0.476   2.328 -0.1532  0.6194 -0.2352
 8654SOL     OW34381   3.174   0.297   0.205 -0.1253 -0.1834  0.4801
 8654SOL    HW234382   3.089   0.330   0.232 -0.7453  0.0088 -1.5768
 8654SOL    HW334383   3.193   0.226   0.266 -1.6536 -0.0779  1.1033
 8654SOL    MW434384   3.165   0.292   0.217 -0.1751 -0.2309 -0.1591
 8655SOL     OW34385   1.636   0.715   6.257 -0.1404 -0.1081  0.0551
 8655SOL    HW234386   1.592   0.641   6.298 -1.3938  0.4194 -0.2602
 8655SOL    HW334387   1.571   0.750   6.195 -0.0103  1.8755  0.9480
 8655SOL    MW434388   1.621   0.710   6.254  0.0347  0.4435 -0.5283
 8656SOL     OW34389   4.588   1.504   4.466 -0.3707  0.1382 -0.2600
 8656SOL    HW234390   4.504   1.520   4.423  0.6186  2.2383 -1.5598
 8656SOL    HW334391   4.621   1.424   4.427  0.3134  1.7604 -3.2792
 8656SOL    MW434392   4.581   1.496   4.455  0.3405  0.2415 -0.4064
 8657SOL     OW34393   4.282   4.687   5.114  0.0355 -0.5655 -0.4533
 8657SOL    HW234394   4.346   4.727   5.055 -1.3301 -0.4828 -1.9329
 8657SOL    HW334395   4.306   4.720   5.201  1.9603 -0.5175 -0.9511
 8657SOL    MW434396   4.294   4.697   5.118  0.3045  0.1332  0.6272
 8658SOL     OW34397   4.991   1.924   5.995 -0.2175  0.7352 -0.2023
 8658SOL    HW234398   5.052   1.856   6.023  0.9914  1.8612 -0.0171
 8658SOL    HW334399   4.994   1.922   5.900  0.5940  1.1762 -0.1991
 8658SOL    MW434400   4.999   1.915   5.986 -0.2296  0.4106 -0.7728
 8659SOL     OW34401   3.470   0.033   5.233  0.6077  0.7083 -0.5875
 8659SOL    HW234402   3.395   0.076   5.191 -0.6046 -0.5840  0.1737
 8659SOL    HW334403   3.459  -0.060   5.212  0.7900  0.2288  1.3108
 8659SOL    MW434404   3.458   0.027   5.224 -0.0438 -0.5914 -0.2507
 8660SOL     OW34405   4.990   0.173   0.777  0.1593 -0.2347  0.9444
 8660SOL    HW234406   5.038   0.172   0.860  1.1945  0.7434  0.3972
 8660SOL    HW334407   4.990   0.082   0.748  3.0245 -0.1247  0.2753
 8660SOL    MW434408   4.996   0.161   0.784 -0.2914  0.3002 -0.0035
 8661SOL     OW34409   6.128   1.348   5.517 -0.5111  0.0673  0.2186
 8661SOL    HW234410   6.171   1.305   5.590  1.0083  1.5436  0.2497
 8661SOL    HW334411   6.171   1.433   5.510 -2.4175  1.0304 -0.7241
 8661SOL    MW434412   6.139   1.354   5.525  0.5139 -0.3338 -0.4482
 8662SOL     OW34413   0.457   3.411   5.112  0.4468 -0.3101 -0.1198
 8662SOL    HW234414   0.546   3.380   5.130  0.2751 -0.3905  0.6201
 8662SOL    HW334415   0.469   3.503   5.087  1.1228 -1.2508 -3.8831
 8662SOL    MW434416   0.470   3.419   5.111  0.3991 -0.3214  0.6159
 8663SOL     OW34417   1.893   2.721   2.252 -0.3393  0.2112 -0.4570
 8663SOL    HW234418   1.964   2.785   2.260 -0.5830  0.6344 -1.5608
 8663SOL    HW334419   1.889   2.679   2.338  0.6136  0.8479 -0.0881
 8663SOL    MW434420   1.902   2.724   2.265  0.3119 -0.4399 -0.1181
 8664SOL     OW34421   6.291   4.783   3.819 -0.0137 -0.2541  0.4009
 8664SOL    HW234422   6.267   4.860   3.766  0.3453  0.1214  0.7735
 8664SOL    HW334423   6.340   4.820   3.892  1.4312 -0.9659 -0.1838
 8664SOL    MW434424   6.294   4.798   3.822  0.0858  0.5584 -0.0160
 8665SOL     OW34425   1.344   5.214   0.574  0.6013  0.3119  0.5011
 8665SOL    HW234426   1.259   5.214   0.618  0.0881  1.0941 -0.4478
 8665SOL    HW334427   1.377   5.303   0.585  0.2592  0.6550 -1.0385
 8665SOL    MW434428   1.337   5.225   0.581  0.4861  0.0234 -0.1525
 8666SOL     OW34429   2.586   3.972   2.425  0.0333 -0.1861  0.0350
 8666SOL    HW234430   2.568   3.976   2.331  0.1880  0.1381  0.0167
 8666SOL    HW334431   2.665   4.025   2.436 -0.3835  0.3728  0.4434
 8666SOL    MW434432   2.594   3.980   2.414  0.0552  0.1762  0.7036
 8667SOL     OW34433   2.366   5.015   4.162 -0.4654 -0.4243 -0.1732
 8667SOL    HW234434   2.305   4.966   4.217 -1.4182 -0.6800 -1.4302
 8667SOL    HW334435   2.323   5.022   4.077  1.7028 -1.5642 -1.4563
 8667SOL    MW434436   2.352   5.009   4.158  0.4791 -0.0631  0.0205
 8668SOL     OW34437   4.472   2.472   2.015  0.3489 -0.3452  0.7219
 8668SOL    HW234438   4.405   2.405   2.027 -0.2347  0.5700  3.1195
 8668SOL    HW334439   4.554   2.427   2.037  0.3839 -1.0891 -0.8310
 8668SOL    MW434440   4.474   2.457   2.020 -0.0214  0.0167 -0.7067
 8669SOL     OW34441   5.368   4.780   4.943  0.2423 -0.4393 -0.0547
 8669SOL    HW234442   5.324   4.790   4.859 -1.2333 -0.8228  0.6411
 8669SOL    HW334443   5.348   4.861   4.991  2.2690  0.4139 -0.5653
 8669SOL    MW434444   5.359   4.792   4.939 -0.0894  0.4083  0.4983
 8670SOL     OW34445   3.390   2.227   4.024  0.8450  0.6435 -0.6426
 8670SOL    HW234446   3.457   2.289   4.053  1.0209  0.2993 -0.3024
 8670SOL    HW334447   3.406   2.148   4.076  1.0193  0.0935 -1.5079
 8670SOL    MW434448   3.401   2.225   4.035  0.3950  0.1573 -0.0176
 8671SOL     OW34449   4.137   1.615   2.209  0.5637 -0.3941 -0.3813
 8671SOL    HW234450   4.052   1.584   2.241  0.5507  0.0778  0.0692
 8671SOL    HW334451   4.199   1.585   2.275  0.6589 -0.1967 -0.3807
 8671SOL    MW434452   4.134   1.607   2.222 -0.3835  0.2598  0.0823
 8672SOL     OW34453   6.158   5.757   2.165 -0.0004 -0.7670  0.0032
 8672SOL    HW234454   6.089   5.820   2.143  0.4702 -0.5108 -0.7820
 8672SOL    HW334455   6.210   5.800   2.232  0.2779 -0.3329 -0.4796
 8672SOL    MW434456   6.156   5.771   2.171 -0.7963  0.0184  0.4798
 8673SOL     OW34457   3.599   4.525   2.341 -0.1916  0.6051 -0.1265
 8673SOL    HW234458   3.528   4.464   2.360 -0.3402  1.0373  0.7517
 8673SOL    HW334459   3.677   4.470   2.339 -0.1582  0.5125  1.8188
 8673SOL    MW434460   3.600   4.509   2.344  0.3202 -0.0867 -1.1260
 8674SOL     OW34461   3.648   5.724   4.700  0.0780  0.3781 -0.5045
 8674SOL    HW234462   3.699   5.713   4.620  0.4583 -1.7830 -0.0207
 8674SOL    HW334463   3.578   5.659   4.693  0.5708 -0.3857  1.2601
 8674SOL    MW434464   3.645   5.714   4.688 -0.0269 -0.3243  0.6891
 8675SOL     OW34465   0.625   3.778   4.434  0.1678 -0.0104 -0.2420
 8675SOL    HW234466   0.602   3.707   4.494 -2.9805  0.5667 -0.5700
 8675SOL    HW334467   0.679   3.837   4.486  0.3725 -1.2009  0.9566
 8675SOL    MW434468   0.629   3.776   4.449  0.0229  0.1011 -0.3502
 8676SOL     OW34469   4.513   2.252   0.072  0.1929  0.5350 -0.4624
 8676SOL    HW234470   4.530   2.170   0.025 -1.3590 -0.7131  0.9910
 8676SOL    HW334471   4.418   2.255   0.079  0.3331  0.8132  2.2332
 8676SOL    MW434472   4.503   2.241   0.067  0.0698 -0.2676 -0.0820
 8677SOL     OW34473   2.592   3.110   1.706  0.1549 -0.0968 -0.5646
 8677SOL    HW234474   2.582   3.047   1.634  0.0092 -0.5505 -0.1525
 8677SOL    HW334475   2.674   3.155   1.687  1.1099 -1.5271 -0.0274
 8677SOL    MW434476   2.601   3.107   1.694  0.0589 -0.5019  0.2730
 8678SOL     OW34477   0.126   5.361   5.617 -0.1256 -0.5220  0.3809
 8678SOL    HW234478   0.045   5.325   5.653  0.0914  0.2211  1.6696
 8678SOL    HW334479   0.135   5.319   5.531 -1.8697 -0.6147  0.2001
 8678SOL    MW434480   0.116   5.351   5.610  0.2901  0.1557 -0.1933
 8679SOL     OW34481   4.350   1.536   2.418  0.1695  0.2302  0.5573
 8679SOL    HW234482   4.391   1.562   2.501  0.9438 -1.9515  0.9285
 8679SOL    HW334483   4.423   1.503   2.365 -0.7252 -1.3096  0.2330
 8679SOL    MW434484   4.365   1.535   2.422  0.6102 -0.3661  0.4237
 8680SOL     OW34485   4.469   3.945   2.242  0.2356  0.2522  0.2004
 8680SOL    HW234486   4.399   3.923   2.302 -0.5970  0.0354 -0.8228
 8680SOL    HW334487   4.470   4.041   2.240 -0.4464  0.2614 -0.2229
 8680SOL    MW434488   4.460   3.955   2.249 -0.0778 -0.1718 -0.0132
 8681SOL     OW34489   4.027   6.028   5.308 -0.6873 -0.4326  0.5813
 8681SOL    HW234490   3.961   6.009   5.374 -1.2534  0.1837  0.2022
 8681SOL    HW334491   4.101   5.972   5.332 -0.6011  0.2909  2.1620
 8681SOL    MW434492   4.028   6.018   5.320  0.3480  0.5484 -0.3860
 8682SOL     OW34493   3.013   4.154   4.681  0.0091  0.0738  0.7769
 8682SOL    HW234494   2.930   4.129   4.641  1.1092 -1.6034 -0.5648
 8682SOL    HW334495   3.048   4.221   4.622  0.1687 -0.0920  0.6844
 8682SOL    MW434496   3.006   4.160   4.668 -0.0421 -0.0737 -0.1492
 8683SOL     OW34497   2.643   5.444   5.544  0.2355  0.7981 -0.1611
 8683SOL    HW234498   2.563   5.486   5.575  0.6816  1.7824 -0.3123
 8683SOL    HW334499   2.672   5.498   5.470  0.4686 -0.1615 -0.7980
 8683SOL    MW434500   2.636   5.457   5.538 -0.4728 -0.5185  0.1616
 8684SOL     OW34501   2.203   4.879   5.473  0.5879  0.2723 -0.2518
 8684SOL    HW234502   2.117   4.874   5.517  0.3545  1.2168 -0.5640
 8684SOL    HW334503   2.223   4.789   5.449 -0.2134  0.0039  0.0327
 8684SOL    MW434504   2.194   4.867   5.476 -0.1898 -0.2399 -0.1888
 8685SOL     OW34505   3.022   1.616   5.694 -0.7266 -0.1251  0.5735
 8685SOL    HW234506   2.964   1.541   5.705  1.7183 -2.3249 -0.5082
 8685SOL    HW334507   3.085   1.609   5.765 -0.1579  0.6151  0.1595
 8685SOL    MW434508   3.023   1.605   5.705  0.5156  0.1779  0.0404
 8686SOL     OW34509   6.178   1.085   3.411  0.2080 -0.3031 -0.1101
 8686SOL    HW234510   6.228   1.091   3.493 -0.1462 -0.7273  0.1424
 8686SOL    HW334511   6.190   1.170   3.370  1.0764 -0.3695 -0.0188
 8686SOL    MW434512   6.186   1.097   3.417 -0.5157  0.3822  0.2872
 8687SOL     OW34513   5.105   0.065   4.808 -0.0043 -0.3212  0.2087
 8687SOL    HW234514   5.079   0.042   4.897 -1.0411  0.2060  0.0544
 8687SOL    HW334515   5.199   0.086   4.816 -0.1028 -0.1802  1.1985
 8687SOL    MW434516   5.114   0.065   4.821 -0.1381  0.3157  0.5006
 8688SOL     OW34517   2.622   0.989   4.762  0.3605 -0.4327 -0.0162
 8688SOL    HW234518   2.587   1.043   4.833  0.1653  0.5852 -0.8500
 8688SOL    HW334519   2.551   0.985   4.698  1.1646  0.3000 -1.0006
 8688SOL    MW434520   2.608   0.996   4.763 -0.8052 -0.3550 -0.2072
 8689SOL     OW34521   3.261   0.911   2.017  0.4472  0.1709  1.0829
 8689SOL    HW234522   3.294   0.995   2.048  1.0684  0.0361  0.8219
 8689SOL    HW334523   3.267   0.853   2.093  2.9308 -0.4298  0.5296
 8689SOL    MW434524   3.266   0.914   2.031 -0.4670  0.0750  0.0021
 8690SOL     OW34525   5.527   3.120   6.194 -0.2341 -0.0638  0.3525
 8690SOL    HW234526   5.513   3.133   6.101 -0.8456  1.1024  0.5882
 8690SOL    HW334527   5.615   3.153   6.211 -0.0215 -0.5214  0.1491
 8690SOL    MW434528   5.537   3.126   6.184  0.2127  0.2174  0.1195
 8691SOL     OW34529   2.013   5.913   3.281 -0.9079  0.0244 -0.2248
 8691SOL    HW234530   1.974   5.997   3.259  1.5088  1.8400  1.8108
 8691SOL    HW334531   1.944   5.867   3.331 -1.5803  1.7193  0.4932
 8691SOL    MW434532   1.998   5.918   3.285 -0.3057 -0.0512 -0.6195
 8692SOL     OW34533   3.863   4.496   2.253  0.2091 -0.7438  0.1704
 8692SOL    HW234534   3.835   4.431   2.188  0.7586 -0.3417 -0.4824
 8692SOL    HW334535   3.932   4.452   2.302  0.2837 -0.8026  0.0137
 8692SOL    MW434536   3.868   4.481   2.251  0.5544  0.6297 -0.0748
 8693SOL     OW34537   6.455   3.702   1.297  0.1703 -0.4291  0.5383
 8693SOL    HW234538   6.505   3.698   1.379  0.9599  0.2747  0.1069
 8693SOL    HW334539   6.467   3.792   1.266 -2.8527  0.3593  1.3288
 8693SOL    MW434540   6.463   3.714   1.304 -0.5522  0.8692  0.1946
 8694SOL     OW34541   1.283   4.308   2.229  0.2429 -0.4195  0.4123
 8694SOL    HW234542   1.348   4.259   2.279  1.0886 -0.6655 -0.8685
 8694SOL    HW334543   1.268   4.256   2.150 -1.4917 -0.3335  0.6577
 8694SOL    MW434544   1.290   4.295   2.225  0.2071 -0.1539  0.1320
 8695SOL     OW34545   3.464   5.557   2.728  0.0409  0.8209 -0.4343
 8695SOL    HW234546   3.390   5.579   2.784 -0.1531 -0.7278 -0.0324
 8695SOL    HW334547   3.434   5.578   2.639 -0.5906  0.9521 -0.1952
 8695SOL    MW434548   3.450   5.562   2.723 -0.2843  0.2918  0.0745
 8696SOL     OW34549   4.646   6.085   3.456  0.4120 -0.1426  0.9350
 8696SOL    HW234550   4.648   6.034   3.376 -0.2101  1.8662 -0.4378
 8696SOL    HW334551   4.735   6.077   3.492  0.9948 -0.2924 -0.4846
 8696SOL    MW434552   4.658   6.077   3.450  0.8227  0.5026  0.1771
 8697SOL     OW34553   5.292   2.799   1.834  0.3478 -0.4775 -0.4039
 8697SOL    HW234554   5.280   2.885   1.875  0.6892 -0.1368 -1.0104
 8697SOL    HW334555   5.218   2.747   1.866  0.4176 -0.1115  0.3612
 8697SOL    MW434556   5.280   2.804   1.844  0.1353  0.1493  0.0541
 8698SOL     OW34557   2.023   0.238   5.322  0.4441  0.4586  0.2117
 8698SOL    HW234558   2.056   0.323   5.291 -1.4394  1.1090 -0.1442
 8698SOL    HW334559   1.979   0.200   5.246 -0.3450  0.0261  0.8634
 8698SOL    MW434560   2.022   0.244   5.308  0.3145  0.2390 -0.1760
 8699SOL     OW34561   2.959   2.804   3.798  0.3522  0.2540 -0.0195
 8699SOL    HW234562   3.002   2.832   3.717  2.2213  0.7590  1.0799
 8699SOL    HW334563   3.021   2.827   3.867 -1.0848 -0.3761  1.5505
 8699SOL    MW434564   2.973   2.811   3.797  0.0897 -0.0714  0.0702
 8700SOL     OW34565   0.170   1.100   0.088 -0.2780  0.1232 -0.4016
 8700SOL    HW234566   0.093   1.085   0.144  1.3184 -0.9575  1.6568
 8700SOL    HW334567   0.167   1.193   0.068 -2.1197  0.1116 -0.4048
 8700SOL    MW434568   0.159   1.110   0.093  0.3761 -0.1253  0.0698
 8701SOL     OW34569   5.384   3.169   5.453  0.3856 -0.6734  0.2342
 8701SOL    HW234570   5.451   3.143   5.389 -0.3771 -1.1955 -0.3634
 8701SOL    HW334571   5.364   3.260   5.432  0.6979 -0.6050  0.2290
 8701SOL    MW434572   5.390   3.177   5.442 -0.3648  0.3072 -0.2823
 8702SOL     OW34573   2.381   2.171   6.262 -0.4616 -0.4117 -0.4554
 8702SOL    HW234574   2.424   2.239   6.210 -0.7598 -0.2849 -0.5376
 8702SOL    HW334575   2.288   2.179   6.240 -0.2898 -2.2882 -2.2133
 8702SOL    MW434576   2.374   2.181   6.252 -0.7273  0.3297  0.0138
 8703SOL     OW34577   3.850   3.829   0.050  0.1797 -0.1663 -0.1390
 8703SOL    HW234578   3.829   3.862  -0.038 -0.5742 -0.0357  0.0828
 8703SOL    HW334579   3.772   3.780   0.076 -0.7498  2.0531  1.5502
 8703SOL    MW434580   3.837   3.827   0.042 -0.4121  0.1273  0.1678
 8704SOL     OW34581   5.746   1.957   1.503 -0.2569  0.4241  0.6656
 8704SOL    HW234582   5.751   1.981   1.596 -0.8909  3.5232 -0.0073
 8704SOL    HW334583   5.833   1.921   1.484  0.7601  2.0185  1.9379
 8704SOL    MW434584   5.758   1.955   1.513 -0.3195  0.2969 -0.1152
 8705SOL     OW34585   2.229   3.189   3.717 -1.1737  0.4639  0.6497
 8705SOL    HW234586   2.309   3.141   3.740 -2.6741 -1.5559  1.9660
 8705SOL    HW334587   2.248   3.280   3.742  0.0060 -0.3316  2.9033
 8705SOL    MW434588   2.242   3.195   3.723  0.6181 -0.0255  0.3194
 8706SOL     OW34589   0.606   1.090   5.785  0.6467  0.1553 -0.1004
 8706SOL    HW234590   0.621   1.149   5.711  0.7825 -0.8838 -0.9137
 8706SOL    HW334591   0.545   1.025   5.752  0.1964  0.0471  0.9118
 8706SOL    MW434592   0.600   1.089   5.771  0.2621 -0.1011 -0.5536
 8707SOL     OW34593   4.490   2.274   3.655 -0.4860 -0.1718 -0.0920
 8707SOL    HW234594   4.461   2.189   3.688 -0.0847 -0.5649 -0.7383
 8707SOL    HW334595   4.486   2.331   3.731 -0.5287 -0.8268  0.4089
 8707SOL    MW434596   4.486   2.270   3.669  0.1095  0.2037  0.2635
 8708SOL     OW34597   4.403   4.541   6.000 -0.1764  0.4333  0.2215
 8708SOL    HW234598   4.322   4.521   5.954 -1.1482 -1.5819  2.5922
 8708SOL    HW334599   4.471   4.538   5.932 -1.8144  0.3817 -1.5012
 8708SOL    MW434600   4.401   4.538   5.985 -0.2267  0.4642  0.2364
 8709SOL     OW34601   6.448   4.529   1.503  0.1172 -0.7716  0.1418
 8709SOL    HW234602   6.527   4.568   1.466  0.2177 -0.6979  0.4285
 8709SOL    HW334603   6.479   4.448   1.544  0.2782 -0.1081  1.3906
 8709SOL    MW434604   6.463   4.523   1.503 -0.2064  0.1602 -0.0594
 8710SOL     OW34605   0.553   2.909   1.071 -0.0039  0.4658 -0.4440
 8710SOL    HW234606   0.601   2.976   1.119 -0.4501  1.0720 -0.8278
 8710SOL    HW334607   0.468   2.905   1.115 -0.2914  0.7815 -0.9634
 8710SOL    MW434608   0.548   2.917   1.083  0.3000  0.0099 -0.3901
 8711SOL     OW34609   1.510   6.009   1.764  0.7364 -0.0843 -0.2564
 8711SOL    HW234610   1.531   5.928   1.811  0.7979 -0.7632 -1.3913
 8711SOL    HW334611   1.592   6.058   1.763  1.0702 -0.6315 -0.7073
 8711SOL    MW434612   1.524   6.005   1.770 -0.8146 -0.6664  0.0760
 8712SOL     OW34613   1.973   5.015   6.174  0.0961 -0.0149  0.3541
 8712SOL    HW234614   2.023   4.936   6.152  0.2828 -0.0902  1.0404
 8712SOL    HW334615   2.023   5.056   6.245  2.3148  2.9618 -2.6167
 8712SOL    MW434616   1.986   5.010   6.180  0.4613  0.1576  0.0028
 8713SOL     OW34617   3.534   4.774   1.169  0.3122  0.0333  0.1895
 8713SOL    HW234618   3.528   4.860   1.211  0.2806 -0.9469  2.2961
 8713SOL    HW334619   3.625   4.768   1.140  0.7410  0.1887  1.4439
 8713SOL    MW434620   3.546   4.785   1.171 -0.1385 -0.6031 -0.3376
 8714SOL     OW34621   0.721   2.685   4.138 -0.5545 -0.2697  0.4822
 8714SOL    HW234622   0.665   2.610   4.155 -2.0830  0.6668 -0.2202
 8714SOL    HW334623   0.671   2.740   4.077  0.9693  0.7934  0.1130
 8714SOL    MW434624   0.707   2.682   4.132  0.1065 -0.2165  0.6747
 8715SOL     OW34625   0.120   1.293   2.533 -0.2617  0.3892 -0.1651
 8715SOL    HW234626   0.133   1.223   2.470 -0.0627  0.3280 -0.0571
 8715SOL    HW334627   0.108   1.249   2.617 -0.5990  0.4674 -0.1699
 8715SOL    MW434628   0.120   1.278   2.536 -0.1290 -0.2528 -0.2890
 8716SOL     OW34629   0.047   1.531   5.795 -0.6313  0.0992 -0.1948
 8716SOL    HW234630   0.085   1.445   5.780 -1.5735 -0.1555 -1.2264
 8716SOL    HW334631  -0.015   1.518   5.866  0.4805  0.3218  0.8534
 8716SOL    MW434632   0.044   1.518   5.803 -0.0803 -0.3521  0.2267
 8717SOL     OW34633   2.089   3.484   2.301  0.0453 -0.1700 -0.5891
 8717SOL    HW234634   2.062   3.493   2.210 -0.2261 -0.7114 -0.5671
 8717SOL    HW334635   2.155   3.414   2.299  1.0470  0.7549 -0.5648
 8717SOL    MW434636   2.094   3.476   2.289  0.4264 -0.1099  0.1442
 8718SOL     OW34637   5.053   0.778   6.069  0.1992 -0.0775  0.3550
 8718SOL    HW234638   5.055   0.873   6.055  0.7034 -0.1825 -0.3563
 8718SOL    HW334639   5.143   0.755   6.089  0.7069 -0.7984 -2.3913
 8718SOL    MW434640   5.065   0.788   6.070 -0.5263  0.6258 -0.2892
 8719SOL     OW34641   0.401   3.739   1.433 -0.3761  0.5590 -0.1207
 8719SOL    HW234642   0.454   3.819   1.429  0.2771  0.1358 -0.0789
 8719SOL    HW334643   0.461   3.669   1.406 -0.4430 -0.1642  1.4743
 8719SOL    MW434644   0.416   3.740   1.429  0.0330  0.0166  0.1694
 8720SOL     OW34645   5.738   5.605   4.700 -0.0652 -0.0348  0.2752
 8720SOL    HW234646   5.682   5.660   4.755  0.0632  2.7242 -2.0899
 8720SOL    HW334647   5.677   5.557   4.644 -0.1468  0.5588 -0.1558
 8720SOL    MW434648   5.723   5.606   4.700 -0.1246 -0.3813  0.0402
 8721SOL     OW34649   3.486   3.037   1.142 -0.1947  0.3390  0.5172
 8721SOL    HW234650   3.572   3.065   1.175 -0.7271  1.4338  1.0276
 8721SOL    HW334651   3.425   3.059   1.213 -0.4854 -4.0083  1.9203
 8721SOL    MW434652   3.489   3.044   1.156 -0.2593 -0.3162  0.2168
 8722SOL     OW34653   0.809   1.010   1.621 -0.2118 -0.0659 -0.3441
 8722SOL    HW234654   0.721   1.018   1.584 -0.0589 -0.3313 -0.7701
 8722SOL    HW334655   0.867   1.052   1.557  0.1391 -1.1708 -0.7857
 8722SOL    MW434656   0.805   1.016   1.608  0.3100  0.3017 -0.5945
 8723SOL     OW34657   3.146   2.000   3.798  0.3942  0.1701  0.0688
 8723SOL    HW234658   3.126   1.990   3.891  0.3044 -0.9105 -0.0560
 8723SOL    HW334659   3.156   2.094   3.786 -0.4137  0.3938  1.0006
 8723SOL    MW434660   3.145   2.011   3.809 -0.0548 -0.6237 -0.0594
 8724SOL     OW34661   1.567   2.453   5.006 -0.7180  0.4901 -0.1259
 8724SOL    HW234662   1.603   2.405   4.931  0.4571  0.1385  0.6355
 8724SOL    HW334663   1.488   2.405   5.029  0.3480 -1.0275  0.5102
 8724SOL    MW434664   1.561   2.440   4.999 -0.0003 -0.9537  0.5705
 8725SOL     OW34665   3.667   3.467   3.097 -0.6030 -0.7081 -0.0803
 8725SOL    HW234666   3.692   3.390   3.148 -2.4887 -0.6029  1.1049
 8725SOL    HW334667   3.749   3.498   3.058  1.9810  1.5503  5.9615
 8725SOL    MW434668   3.681   3.461   3.098 -0.2628  0.0683  0.0407
 8726SOL     OW34669   1.893   4.384   4.891 -0.2520 -0.7517  0.0509
 8726SOL    HW234670   1.977   4.342   4.872 -0.8602 -1.3388 -1.4858
 8726SOL    HW334671   1.828   4.319   4.866 -1.1885 -0.5956  1.9320
 8726SOL    MW434672   1.896   4.370   4.886  0.5450  0.1329  0.0619
 8727SOL     OW34673   1.499   2.073   4.846 -0.6424  0.3014  0.6888
 8727SOL    HW234674   1.460   2.154   4.814  0.7286  0.8185  0.2547
 8727SOL    HW334675   1.524   2.093   4.937  0.8171  0.8107  0.2050
 8727SOL    MW434676   1.497   2.087   4.854 -0.0499  0.1179 -0.2512
 8728SOL     OW34677   1.684   0.539   4.435 -0.7302  0.1397  0.1041
 8728SOL    HW234678   1.659   0.605   4.499  1.8935  1.3192  0.0322
 8728SOL    HW334679   1.694   0.458   4.486  0.4150  0.8570  1.0845
 8728SOL    MW434680   1.682   0.537   4.450  0.3575  0.4052 -0.0204
 8729SOL     OW34681   5.904   2.971   2.256  0.4547 -0.1695 -0.2295
 8729SOL    HW234682   5.887   2.970   2.350 -0.5669  1.0436 -0.3743
 8729SOL    HW334683   5.852   2.898   2.222 -0.2465  0.2103  0.0007
 8729SOL    MW434684   5.895   2.961   2.264  0.2871  0.7250 -0.1117
 8730SOL     OW34685   0.548   1.607   2.972  0.7834  0.2445 -0.0467
 8730SOL    HW234686   0.531   1.516   2.945  1.2456  0.5196 -1.3146
 8730SOL    HW334687   0.604   1.598   3.049  1.0174 -0.5545 -0.2938
 8730SOL    MW434688   0.553   1.594   2.978 -0.0856 -0.5287 -0.0391
 8731SOL     OW34689   3.242   6.139   4.453  0.3636 -0.3529  0.4912
 8731SOL    HW234690   3.330   6.102   4.449  0.9113  0.8704  0.8856
 8731SOL    HW334691   3.208   6.129   4.364  1.0453 -0.4700  0.2398
 8731SOL    MW434692   3.249   6.133   4.441 -0.7527 -0.8001  0.2412
 8732SOL     OW34693   1.671   5.887   0.474 -0.6550  0.2131  0.3412
 8732SOL    HW234694   1.725   5.808   0.467  2.6345  2.2661  0.4186
 8732SOL    HW334695   1.583   5.854   0.494  0.4299 -3.4054 -0.0793
 8732SOL    MW434696   1.667   5.872   0.476 -0.2717 -0.9859  0.2409
 8733SOL     OW34697   3.626   1.228   4.376 -0.0708 -0.1308 -0.2791
 8733SOL    HW234698   3.594   1.191   4.294  0.0317 -0.9457  0.0346
 8733SOL    HW334699   3.677   1.304   4.351  0.3829 -0.6683 -1.0086
 8733SOL    MW434700   3.628   1.233   4.362  0.3156  0.2137 -0.4563
 8734SOL     OW34701   0.170   6.409   0.535 -0.6747  0.0927  0.2773
 8734SOL    HW234702   0.079   6.385   0.554 -0.5719 -0.7780 -0.2576
 8734SOL    HW334703   0.208   6.329   0.498  0.3679  0.3853  0.6912
 8734SOL    MW434704   0.163   6.395   0.533 -0.6750 -0.1401 -0.5340
 8735SOL     OW34705   5.062   4.095   5.121 -0.3677  0.4621  0.2659
 8735SOL    HW234706   5.082   4.021   5.178  0.2839  0.3440 -0.0998
 8735SOL    HW334707   5.140   4.151   5.126 -0.1988  0.3394 -0.6690
 8735SOL    MW434708   5.075   4.093   5.129  0.1486  0.4613 -0.2866
 8736SOL     OW34709   5.551   5.598   0.898  0.0334  0.1168  0.0302
 8736SOL    HW234710   5.570   5.595   0.992 -0.3091 -0.5390  0.0885
 8736SOL    HW334711   5.634   5.576   0.856  0.2689  0.7393  0.1697
 8736SOL    MW434712   5.564   5.595   0.905  0.3089  0.0612  0.0235
 8737SOL     OW34713   6.026   1.189   1.811  0.2906  0.2716  0.4262
 8737SOL    HW234714   6.089   1.250   1.848  1.9034 -0.3119 -1.1900
 8737SOL    HW334715   6.020   1.215   1.719 -0.7889 -0.5579  0.2510
 8737SOL    MW434716   6.033   1.201   1.804 -0.1071 -0.1750 -0.0764
 8738SOL     OW34717   3.021   2.454   5.372 -0.2183 -0.1614  0.1382
 8738SOL    HW234718   2.962   2.415   5.308 -1.6300 -0.2777  1.4631
 8738SOL    HW334719   3.031   2.545   5.343 -0.7223 -0.2457 -0.3169
 8738SOL    MW434720   3.015   2.461   5.360 -0.3456 -0.4498  0.0988
 8739SOL     OW34721   3.169   2.387   4.312 -0.3137  0.1221 -0.1710
 8739SOL    HW234722   3.133   2.303   4.341  1.6083 -1.0341 -0.9658
 8739SOL    HW334723   3.264   2.374   4.311 -0.0328  1.8889 -1.5481
 8739SOL    MW434724   3.177   2.374   4.316 -0.4281  0.0752 -0.0887
 8740SOL     OW34725   1.248   0.988   5.886 -0.4943 -0.1132 -0.2843
 8740SOL    HW234726   1.159   0.957   5.903 -1.0086  1.9559  1.1709
 8740SOL    HW334727   1.236   1.064   5.828  0.5072 -0.9231 -1.6124
 8740SOL    MW434728   1.235   0.994   5.880  0.4465 -0.1465 -0.3323
 8741SOL     OW34729   3.908   1.740   4.852 -0.0615  0.1651  0.6285
 8741SOL    HW234730   3.863   1.766   4.933 -2.0661  0.1544 -0.4238
 8741SOL    HW334731   3.881   1.649   4.838  0.0399  0.2556 -0.1797
 8741SOL    MW434732   3.898   1.732   4.861  0.0273 -0.0611 -0.1849
 8742SOL     OW34733   4.040   3.456   0.425  0.1915  0.0457  0.2683
 8742SOL    HW234734   3.947   3.480   0.416  0.1895  0.2639  0.7867
 8742SOL    HW334735   4.086   3.539   0.423  0.4213 -0.0969 -0.4407
 8742SOL    MW434736   4.034   3.470   0.424  0.1082 -0.3279  0.4266
 8743SOL     OW34737   3.115   0.894   6.142  0.0565  0.1967 -0.6830
 8743SOL    HW234738   3.181   0.960   6.163  0.9913 -0.8215 -0.3508
 8743SOL    HW334739   3.102   0.902   6.048  0.0108  0.9716 -0.6224
 8743SOL    MW434740   3.122   0.904   6.132  0.4964 -0.9970 -0.3968
 8744SOL     OW34741   0.890   5.001   0.229  0.4430  0.2267  0.2943
 8744SOL    HW234742   0.809   5.042   0.198  1.2349  1.1889 -0.5494
 8744SOL    HW334743   0.954   5.020   0.161  1.7175  0.5660  1.5501
 8744SOL    MW434744   0.888   5.009   0.216  0.2118 -0.1404 -0.0923
 8745SOL     OW34745   3.143   4.097   3.016  0.4131  0.2456 -0.3396
 8745SOL    HW234746   3.192   4.157   2.960  1.2596 -1.2764 -1.2890
 8745SOL    HW334747   3.123   4.022   2.960  0.3701 -0.8757  1.1069
 8745SOL    MW434748   3.147   4.095   3.001 -0.4473  0.2388 -0.1562
 8746SOL     OW34749   6.270   0.489   3.007 -0.0596 -0.4276  0.1886
 8746SOL    HW234750   6.234   0.400   3.012 -0.5294 -0.2541 -0.0438
 8746SOL    HW334751   6.355   0.478   2.964  0.9632 -1.0593  2.2700
 8746SOL    MW434752   6.276   0.476   3.002 -0.4230  0.1080  0.4237
 8747SOL     OW34753   4.105   4.621   0.257  0.4359 -0.3625  0.1606
 8747SOL    HW234754   4.136   4.623   0.347  0.1822  0.6487  0.2328
 8747SOL    HW334755   4.184   4.631   0.203  0.3163  2.0805  0.3396
 8747SOL    MW434756   4.119   4.623   0.262  0.0176 -0.1732 -0.1932
 8748SOL     OW34757   5.894   2.474   1.074  0.6047 -0.4582 -0.0523
 8748SOL    HW234758   5.871   2.384   1.050 -1.9766  0.2580 -0.4963
 8748SOL    HW334759   5.861   2.484   1.164 -5.3417  1.8467 -2.0435
 8748SOL    MW434760   5.887   2.463   1.083  0.1100  0.2156 -0.2695
 8749SOL     OW34761   3.829   5.900   2.097 -0.7400  0.2099  0.1990
 8749SOL    HW234762   3.793   5.811   2.090 -2.1394  0.7659  0.0720
 8749SOL    HW334763   3.825   5.935   2.008  1.2528 -0.1053 -0.0612
 8749SOL    MW434764   3.824   5.893   2.084 -0.6523  0.5253  0.1271
 8750SOL     OW34765   5.358   4.113   0.841  0.0432 -0.2738  0.3715
 8750SOL    HW234766   5.443   4.145   0.812 -0.6211 -0.4742 -1.9511
 8750SOL    HW334767   5.356   4.021   0.814  0.0560 -1.0338  2.7120
 8750SOL    MW434768   5.369   4.105   0.834 -0.2600  0.2821  0.1539
 8751SOL     OW34769   5.085   2.644   1.983 -0.2081 -0.1702  0.1347
 8751SOL    HW234770   5.022   2.581   1.947  1.6146 -0.6304 -2.5902
 8751SOL    HW334771   5.147   2.591   2.032  0.2320 -0.2891 -0.5284
 8751SOL    MW434772   5.085   2.629   1.984  0.4038 -0.1870 -0.0906
 8752SOL     OW34773   5.259   5.869   1.590 -0.5462 -0.0597  0.1722
 8752SOL    HW234774   5.340   5.907   1.624 -0.2163 -1.3499  0.8738
 8752SOL    HW334775   5.268   5.874   1.495 -0.9038  2.3723  0.1888
 8752SOL    MW434776   5.271   5.875   1.582 -0.1172 -0.1826 -0.4002
 8753SOL     OW34777   4.749   6.227   2.658 -0.4517 -0.3508  0.4460
 8753SOL    HW234778   4.790   6.311   2.637 -1.1465  0.0817  0.7583
 8753SOL    HW334779   4.821   6.164   2.660 -0.1301 -0.1075 -1.5774
 8753SOL    MW434780   4.764   6.230   2.655 -0.2805 -0.2397  0.3356
 8754SOL     OW34781   6.193   6.108   4.753  0.1487 -0.0572 -0.7914
 8754SOL    HW234782   6.150   6.024   4.741  0.2103 -0.6110  2.1805
 8754SOL    HW334783   6.281   6.087   4.782 -0.7986  0.8019  3.3257
 8754SOL    MW434784   6.199   6.094   4.755  0.9547 -0.2982 -0.2473
 8755SOL     OW34785   5.489   2.594   5.811  0.5094 -0.1143  0.1944
 8755SOL    HW234786   5.567   2.605   5.865 -0.1745  1.3348  0.9320
 8755SOL    HW334787   5.504   2.651   5.735  0.5201 -0.4896 -0.0924
 8755SOL    MW434788   5.502   2.603   5.808 -0.4473 -0.7391  0.1631
 8756SOL     OW34789   4.755   4.558   4.078  0.6839 -0.4345  0.0352
 8756SOL    HW234790   4.765   4.648   4.108  0.1664  0.0573 -1.2151
 8756SOL    HW334791   4.709   4.565   3.995 -0.8261 -1.9528  0.6725
 8756SOL    MW434792   4.751   4.571   4.071 -0.2994 -0.2767  0.7003
 8757SOL     OW34793   0.113   6.175   3.243  0.0269 -0.4356  0.2140
 8757SOL    HW234794   0.087   6.105   3.182 -0.4516  0.8778 -1.1508
 8757SOL    HW334795   0.209   6.177   3.236 -0.0492  0.1092 -1.0313
 8757SOL    MW434796   0.122   6.166   3.234  0.1539 -0.0889  0.0978
 8758SOL     OW34797   5.472   5.581   1.636  0.4802 -0.1202  0.3731
 8758SOL    HW234798   5.402   5.617   1.690  0.8149 -0.4214  1.0255
 8758SOL    HW334799   5.458   5.618   1.549  0.1900  0.7174  0.7728
 8758SOL    MW434800   5.461   5.590   1.632 -0.0672 -0.2426  0.2649
 8759SOL     OW34801   3.908   0.274   6.346 -0.6233 -0.3456  0.0715
 8759SOL    HW234802   3.886   0.254   6.437  0.5803  0.1130  0.4849
 8759SOL    HW334803   3.825   0.301   6.306 -1.0067  0.3134  1.2681
 8759SOL    MW434804   3.894   0.275   6.353 -0.6869 -0.0863  0.3176
 8760SOL     OW34805   2.357   6.350   5.997  0.2918  0.1435  0.1945
 8760SOL    HW234806   2.262   6.351   6.004  0.2482  0.6558 -0.4390
 8760SOL    HW334807   2.387   6.410   6.066  0.0797  1.3009 -0.7021
 8760SOL    MW434808   2.349   6.358   6.007 -0.4126  0.8304 -0.0183
 8761SOL     OW34809   2.425   4.205   2.444  0.4945 -0.3741 -0.3624
 8761SOL    HW234810   2.451   4.235   2.531  1.2008 -0.8140 -0.4161
 8761SOL    HW334811   2.467   4.120   2.434 -0.4402 -0.8052 -0.7219
 8761SOL    MW434812   2.434   4.198   2.454 -0.2733 -0.3217  0.0316
 8762SOL     OW34813   3.980   0.871   5.075  0.2390  0.3666  0.0064
 8762SOL    HW234814   3.978   0.869   5.171  1.7130 -1.6450  0.0557
 8762SOL    HW334815   4.037   0.798   5.051  2.3368  2.6065 -2.3533
 8762SOL    MW434816   3.987   0.861   5.085 -0.4552  0.0687  0.0366
 8763SOL     OW34817   5.236   5.108   3.886 -0.4336 -0.2866 -0.0807
 8763SOL    HW234818   5.267   5.101   3.796 -0.6834 -0.3180 -0.1647
 8763SOL    HW334819   5.216   5.017   3.911 -3.5993 -0.0003 -1.1401
 8763SOL    MW434820   5.237   5.095   3.878  0.2132  1.0003  0.5831
 8764SOL     OW34821   0.944   5.662   3.905  0.3222  0.0443 -0.5516
 8764SOL    HW234822   0.880   5.727   3.878  0.5003  0.4741  0.0426
 8764SOL    HW334823   0.976   5.624   3.823 -0.6017 -0.0993 -0.8599
 8764SOL    MW434824   0.940   5.665   3.890 -0.4037  0.0011  0.4431
 8765SOL     OW34825   2.922   2.872   1.416 -0.4268 -0.5057 -0.1410
 8765SOL    HW234826   3.010   2.861   1.453 -0.9019  0.0218  1.1954
 8765SOL    HW334827   2.885   2.784   1.415 -0.5628 -0.4854  1.0953
 8765SOL    MW434828   2.929   2.859   1.421 -0.1647  0.0083  0.3586
 8766SOL     OW34829   4.450   0.468   4.918 -0.3501 -0.1151 -0.2973
 8766SOL    HW234830   4.389   0.395   4.904 -0.5912  0.6124 -4.5955
 8766SOL    HW334831   4.404   0.526   4.979 -1.5251 -2.0396  0.7748
 8766SOL    MW434832   4.436   0.466   4.924 -1.0719 -0.7798  0.1382
 8767SOL     OW34833   4.402   0.715   3.417 -0.1516 -0.4146 -0.4264
 8767SOL    HW234834   4.437   0.773   3.349  0.1299  0.2028  0.2222
 8767SOL    HW334835   4.346   0.654   3.370 -1.9830  1.5397 -0.9493
 8767SOL    MW434836   4.399   0.715   3.402  0.4375 -0.2968 -0.2550
 8768SOL     OW34837   2.732   2.636   1.221 -0.3943  0.0370 -0.0837
 8768SOL    HW234838   2.657   2.692   1.203 -0.1308  0.9030  1.3555
 8768SOL    HW334839   2.695   2.562   1.269 -0.4234  0.1820  0.1221
 8768SOL    MW434840   2.718   2.634   1.225 -0.0662  0.6224 -0.2428
 8769SOL     OW34841   2.840   1.382   5.741  0.6416 -0.4899 -0.3063
 8769SOL    HW234842   2.745   1.387   5.743  0.6182 -1.2326  0.9071
 8769SOL    HW334843   2.862   1.303   5.790  1.9383  0.4113  0.6346
 8769SOL    MW434844   2.831   1.373   5.748 -0.2782 -0.2656  0.3078
 8770SOL     OW34845   2.054   1.320   1.702 -0.6491 -0.0361 -0.9142
 8770SOL    HW234846   2.033   1.342   1.611  0.3212  1.9035 -0.7002
 8770SOL    HW334847   1.970   1.327   1.748 -0.6413  1.9069 -1.1332
 8770SOL    MW434848   2.040   1.324   1.696 -0.2891  0.3547 -0.1997
 8771SOL     OW34849   6.182   5.161   5.962  0.0928  0.3838  0.6707
 8771SOL    HW234850   6.178   5.069   5.988  0.4347  0.1985  0.0868
 8771SOL    HW334851   6.134   5.165   5.880  1.3198  0.4349 -0.0650
 8771SOL    MW434852   6.175   5.149   5.955 -0.5619  0.1067  0.3264
 8772SOL     OW34853   3.697   4.763   3.664  0.0172  0.2403 -0.3108
 8772SOL    HW234854   3.639   4.714   3.607 -0.1874  1.1657 -0.9287
 8772SOL    HW334855   3.782   4.720   3.657 -0.1905 -0.0991 -0.7244
 8772SOL    MW434856   3.700   4.751   3.656 -0.4833  0.0907 -0.5954
 8773SOL     OW34857   4.825   1.759   3.832  0.0306  0.2852 -0.1199
 8773SOL    HW234858   4.774   1.765   3.751 -1.0023  1.4300  0.5807
 8773SOL    HW334859   4.763   1.725   3.897  0.8099 -0.4922  0.2453
 8773SOL    MW434860   4.810   1.755   3.830  0.0540  0.0482 -0.7548
 8774SOL     OW34861   2.814   2.927   0.790  0.4391 -0.0514 -0.2000
 8774SOL    HW234862   2.880   2.982   0.832  1.3730 -1.3354  0.0690
 8774SOL    HW334863   2.865   2.868   0.734 -0.5670 -0.4319 -0.7323
 8774SOL    MW434864   2.830   2.926   0.788  0.0764  0.2799  0.2686
 8775SOL     OW34865   0.339   5.722   1.525 -0.0162  0.0635  0.1290
 8775SOL    HW234866   0.335   5.644   1.580  0.1240  0.4425  0.6781
 8775SOL    HW334867   0.330   5.688   1.436  1.8690 -0.7981  0.2088
 8775SOL    MW434868   0.338   5.707   1.520 -0.1609  0.2167  0.1473
 8776SOL     OW34869   5.381   5.511   5.337 -0.0461 -0.4134  0.2674
 8776SOL    HW234870   5.334   5.519   5.420  0.9147 -0.1155  0.7978
 8776SOL    HW334871   5.440   5.437   5.350  1.4648  0.8019  0.5437
 8776SOL    MW434872   5.382   5.503   5.350 -0.3153  0.2231  0.3222
 8777SOL     OW34873   4.014   0.811   6.273  0.1734 -0.4104 -0.6083
 8777SOL    HW234874   3.967   0.894   6.281 -1.1216 -1.2423  1.7195
 8777SOL    HW334875   4.053   0.798   6.360  1.2505 -1.7312 -1.2625
 8777SOL    MW434876   4.013   0.820   6.286 -0.0849 -0.2477  0.2713
 8778SOL     OW34877   3.046   2.963   5.284 -0.0712  0.2508  0.1282
 8778SOL    HW234878   3.071   3.018   5.358  1.2222  2.3798 -1.8006
 8778SOL    HW334879   3.061   2.873   5.315  0.4650  1.0614  2.3938
 8778SOL    MW434880   3.051   2.958   5.298  0.0642 -0.4363 -1.2919
 8779SOL     OW34881   2.235   5.955   2.746  0.3170 -0.2150  0.1663
 8779SOL    HW234882   2.177   6.024   2.777 -1.8534 -1.0643 -1.7861
 8779SOL    HW334883   2.225   5.884   2.810 -3.3419 -1.5637 -1.6137
 8779SOL    MW434884   2.226   5.955   2.759  0.5965 -0.2891  0.1498
 8780SOL     OW34885   1.459   2.635   3.521  0.3135  0.0855 -0.0500
 8780SOL    HW234886   1.519   2.567   3.552 -1.6620 -0.8512  1.9597
 8780SOL    HW334887   1.494   2.661   3.435  2.1508 -2.1525 -0.0614
 8780SOL    MW434888   1.472   2.630   3.513 -0.5570  0.8966  0.1582
 8781SOL     OW34889   0.829   4.468   0.056 -0.0488  0.2943  0.2941
 8781SOL    HW234890   0.792   4.487   0.141 -0.1099 -1.3744  0.6712
 8781SOL    HW334891   0.902   4.408   0.074  1.1272  1.3729 -0.6655
 8781SOL    MW434892   0.834   4.463   0.069  0.2780  0.7269  0.4349
 8782SOL     OW34893   0.225   2.753   0.710 -0.1433 -0.5307  0.0185
 8782SOL    HW234894   0.209   2.847   0.707 -0.0167 -0.5386 -1.2891
 8782SOL    HW334895   0.318   2.744   0.688 -0.5042 -1.0461 -1.3650
 8782SOL    MW434896   0.235   2.764   0.707 -0.7517  0.6288 -0.4544
 8783SOL     OW34897   4.246   0.149   2.093 -0.3220 -0.0461  0.3199
 8783SOL    HW234898   4.175   0.187   2.042  1.5947  0.8013 -1.8975
 8783SOL    HW334899   4.286   0.224   2.137 -0.0072 -0.3424  0.5447
 8783SOL    MW434900   4.242   0.164   2.092 -0.3391  0.6621  0.0048
 8784SOL     OW34901   5.394   1.724   0.588  0.3636  0.4577 -0.0016
 8784SOL    HW234902   5.487   1.742   0.572  0.2433  0.0114 -1.3732
 8784SOL    HW334903   5.348   1.787   0.532 -0.1084 -1.0395 -1.3644
 8784SOL    MW434904   5.400   1.735   0.578  0.1451 -0.1799  0.4284
 8785SOL     OW34905   0.465   2.086   6.181 -0.4976 -0.1307 -0.5020
 8785SOL    HW234906   0.438   2.157   6.123 -0.6644  0.5044  0.3303
 8785SOL    HW334907   0.495   2.130   6.260  0.3534 -0.9527 -0.3487
 8785SOL    MW434908   0.466   2.101   6.184 -0.1116  0.5421  0.2077
 8786SOL     OW34909   6.363   1.003   4.323 -0.4549  0.6164  0.2271
 8786SOL    HW234910   6.278   0.994   4.280 -0.7310  0.7328  0.7317
 8786SOL    HW334911   6.380   1.098   4.322 -0.7682  0.6876  0.9312
 8786SOL    MW434912   6.354   1.015   4.317 -0.6683 -0.7494 -0.4777
 8787SOL     OW34913   5.586   0.492   4.178 -0.0511 -0.1257  0.2152
 8787SOL    HW234914   5.638   0.572   4.169  1.6159 -1.0814  0.9105
 8787SOL    HW334915   5.555   0.474   4.089  0.4089  0.7272 -0.1298
 8787SOL    MW434916   5.589   0.500   4.165 -0.5195 -0.2406  0.2785
 8788SOL     OW34917   4.923   4.871   5.353 -0.4642  0.4274 -0.9368
 8788SOL    HW234918   4.879   4.808   5.411 -1.0364  0.4736 -1.3095
 8788SOL    HW334919   4.971   4.817   5.291  1.1355  0.3766  0.2868
 8788SOL    MW434920   4.923   4.855   5.353 -0.1837 -0.0223  0.6076
 8789SOL     OW34921   6.464   5.959   2.736 -0.5096 -0.7468 -0.3596
 8789SOL    HW234922   6.420   6.037   2.770 -0.3727  0.0682 -1.9752
 8789SOL    HW334923   6.476   5.977   2.643  2.9133 -1.0537 -0.1108
 8789SOL    MW434924   6.460   5.972   2.728 -0.2681  0.7259  0.1455
 8790SOL     OW34925   1.690   4.227   4.789 -0.6441 -0.0045  0.1189
 8790SOL    HW234926   1.616   4.172   4.815 -0.4202 -0.8966 -1.0283
 8790SOL    HW334927   1.686   4.228   4.693  0.1409  0.9117  0.0846
 8790SOL    MW434928   1.679   4.220   4.780 -0.2098 -0.4019  0.0523
 8791SOL     OW34929   2.678   4.467   0.877  0.0600 -0.5510  0.1630
 8791SOL    HW234930   2.628   4.450   0.956 -0.8896 -1.8377 -0.6842
 8791SOL    HW334931   2.763   4.498   0.909 -1.2287  1.7241  1.6297
 8791SOL    MW434932   2.683   4.469   0.891 -0.5840 -0.4826  0.2506
 8792SOL     OW34933   4.616   2.193   0.815  0.0382 -0.6533 -0.2335
 8792SOL    HW234934   4.686   2.152   0.764 -0.7081  0.0781 -1.9227
 8792SOL    HW334935   4.603   2.278   0.773 -1.0407 -0.2754  0.8226
 8792SOL    MW434936   4.624   2.199   0.803 -0.1300  1.0727 -0.0834
 8793SOL     OW34937   3.177   2.889   1.535  0.6957 -0.1075  0.0633
 8793SOL    HW234938   3.214   2.877   1.623 -0.6098  2.6701  1.1065
 8793SOL    HW334939   3.169   2.984   1.525 -1.7430 -0.4094 -1.9456
 8793SOL    MW434940   3.181   2.900   1.545  0.2776 -0.5186  0.4283
 8794SOL     OW34941   5.181   2.209   5.478  0.7231 -0.0032 -0.5054
 8794SOL    HW234942   5.235   2.261   5.538  1.6959 -2.2472  0.7214
 8794SOL    HW334943   5.229   2.209   5.396  0.9091  0.6787 -0.4045
 8794SOL    MW434944   5.195   2.216   5.475  0.2467 -0.8081 -0.3724
 8795SOL     OW34945   3.987   0.061   5.751  0.2447 -0.0587  0.0448
 8795SOL    HW234946   3.968  -0.023   5.793  0.5151  0.7888  1.9529
 8795SOL    HW334947   4.034   0.037   5.671 -1.7339 -1.8071 -0.6786
 8795SOL    MW434948   3.991   0.047   5.746 -0.2722 -0.3788 -0.1695
 8796SOL     OW34949   1.532   4.202   1.477 -0.5437 -0.5229 -0.0120
 8796SOL    HW234950   1.456   4.249   1.441 -0.5575  0.0736  0.7810
 8796SOL    HW334951   1.501   4.167   1.560  0.1179 -0.0779  0.4273
 8796SOL    MW434952   1.518   4.204   1.483 -0.5789 -0.3297  0.5581
 8797SOL     OW34953   5.627   4.569   2.837  0.0104  0.3505  0.3066
 8797SOL    HW234954   5.576   4.560   2.918 -0.5820  1.1359  0.0315
 8797SOL    HW334955   5.718   4.562   2.866 -0.2054  0.1641  0.9733
 8797SOL    MW434956   5.632   4.567   2.852 -1.1914 -0.0693  0.2782
 8798SOL     OW34957   2.639   4.900   4.905 -0.0171 -0.1101 -0.2656
 8798SOL    HW234958   2.685   4.949   4.837  0.2841 -1.0844 -0.7987
 8798SOL    HW334959   2.546   4.909   4.883  0.0666 -0.2109 -0.6683
 8798SOL    MW434960   2.633   4.907   4.893 -0.0259 -0.0965 -0.2299
 8799SOL     OW34961   1.557   5.601   1.647 -0.0367 -0.6554  0.1173
 8799SOL    HW234962   1.625   5.593   1.715  1.5895 -2.4777 -1.6011
 8799SOL    HW334963   1.605   5.594   1.565 -2.3524 -2.5642 -1.1917
 8799SOL    MW434964   1.573   5.599   1.645 -0.0675  0.5339 -0.6854
 8800SOL     OW34965   0.772   3.495   5.910 -0.1996  0.2920 -0.1573
 8800SOL    HW234966   0.777   3.412   5.863 -1.8150  0.8095 -1.3474
 8800SOL    HW334967   0.817   3.478   5.992  2.9391 -0.6094 -1.8845
 8800SOL    MW434968   0.779   3.482   5.914 -0.1035 -0.4277  0.1877
 8801SOL     OW34969   4.392   3.044   4.467 -0.2335  0.3813 -0.3814
 8801SOL    HW234970   4.384   3.139   4.470 -2.7787  0.2765 -1.1254
 8801SOL    HW334971   4.383   3.017   4.559  0.8647  0.8474 -0.1239
 8801SOL    MW434972   4.390   3.053   4.480 -0.2625  0.6873 -0.0454
 8802SOL     OW34973   1.364   4.133   4.406 -0.3996 -0.4031  0.4405
 8802SOL    HW234974   1.318   4.062   4.361 -1.1603 -0.0810  0.6829
 8802SOL    HW334975   1.444   4.147   4.356 -1.0233 -0.3418 -0.5565
 8802SOL    MW434976   1.368   4.126   4.393 -0.1714 -0.1630  0.3718
 8803SOL     OW34977   0.796   3.309   2.702  0.1643  0.4852 -0.7985
 8803SOL    HW234978   0.769   3.387   2.654 -0.8860  0.6332 -0.0164
 8803SOL    HW334979   0.728   3.297   2.769  2.7504  1.7972  2.3576
 8803SOL    MW434980   0.783   3.318   2.705  0.2454  0.1767  0.6756
 8804SOL     OW34981   2.396   3.563   2.160  0.2056  0.1450  0.0759
 8804SOL    HW234982   2.349   3.627   2.214 -0.6645  0.0705 -0.5784
 8804SOL    HW334983   2.329   3.527   2.102  0.9645 -0.3819 -0.4830
 8804SOL    MW434984   2.381   3.567   2.160  0.1018  0.1304 -0.6767
 8805SOL     OW34985   0.230   0.915   3.707 -0.3836 -0.1206 -0.5008
 8805SOL    HW234986   0.245   0.959   3.791  0.1244 -0.6518 -0.3055
 8805SOL    HW334987   0.317   0.886   3.680 -0.6928 -0.8591 -0.7059
 8805SOL    MW434988   0.243   0.917   3.715 -0.1983  0.0863  0.1291
 8806SOL     OW34989   5.800   6.146   1.989  0.0457 -0.0686 -0.1075
 8806SOL    HW234990   5.806   6.186   2.076  0.7506 -0.8587  0.2267
 8806SOL    HW334991   5.708   6.126   1.977  0.2281 -2.3915  1.6276
 8806SOL    MW434992   5.789   6.148   1.999 -0.0156 -0.2878 -0.3563
 8807SOL     OW34993   2.797   3.963   0.209  0.0398 -0.1198  0.3488
 8807SOL    HW234994   2.840   3.939   0.292 -0.0985 -1.9039 -0.0537
 8807SOL    HW334995   2.815   4.056   0.199  1.5045 -0.2351  1.5474
 8807SOL    MW434996   2.805   3.972   0.219 -0.3440 -0.0281 -0.0218
 8808SOL     OW34997   1.259   4.896   4.688  0.1060 -0.7115 -0.3026
 8808SOL    HW234998   1.194   4.840   4.731  0.7587 -1.2804 -0.0293
 8808SOL    HW334999   1.209   4.949   4.627 -1.0358  0.8506  1.8443
 8808SOL    MW435000   1.244   4.896   4.686 -0.0360 -0.2320 -0.5935
 8809SOL     OW35001   3.645   0.457   2.121 -0.1989 -0.1465  0.5371
 8809SOL    HW235002   3.560   0.418   2.105 -0.2277  0.0956  0.0754
 8809SOL    HW335003   3.666   0.434   2.211 -1.0222  0.2904  0.8459
 8809SOL    MW435004   3.637   0.449   2.131 -0.1333  0.5104  0.3042
 8810SOL     OW35005   0.864   2.640   4.703  0.0683  0.1108  0.0006
 8810SOL    HW235006   0.907   2.714   4.662 -1.3532 -0.2909 -2.4169
 8810SOL    HW335007   0.832   2.674   4.787  0.8686  1.7347 -0.3178
 8810SOL    MW435008   0.865   2.654   4.709 -0.5967 -0.2779  0.2869
 8811SOL     OW35009   0.692   3.103   0.110 -0.4077  0.1803 -0.1233
 8811SOL    HW235010   0.663   3.058   0.190 -0.1943  1.0376  0.4476
 8811SOL    HW335011   0.660   3.048   0.039 -0.5244 -0.6449  0.5553
 8811SOL    MW435012   0.684   3.090   0.111 -0.2629  0.5847 -0.0035
 8812SOL     OW35013   0.237   5.043   0.039  0.1547 -0.4200  0.0588
 8812SOL    HW235014   0.244   5.121  -0.016 -1.1280  0.7177  1.4144
 8812SOL    HW335015   0.279   5.068   0.121 -2.6493 -0.0858  1.5141
 8812SOL    MW435016   0.243   5.057   0.043 -0.5746 -0.3999 -0.4883
 8813SOL     OW35017   5.071   5.979   6.077 -0.1584  0.3361  0.1272
 8813SOL    HW235018   5.009   5.931   6.131 -0.9059 -0.1129 -1.0966
 8813SOL    HW335019   5.157   5.955   6.112 -0.5371 -1.4430 -0.0760
 8813SOL    MW435020   5.074   5.969   6.089  0.4242 -0.9888  0.1455
 8814SOL     OW35021   0.563   4.456   2.783 -0.0749 -0.0795 -0.8687
 8814SOL    HW235022   0.566   4.443   2.878  0.9586 -3.0560 -1.2229
 8814SOL    HW335023   0.476   4.426   2.758  0.1625 -0.6603 -1.0100
 8814SOL    MW435024   0.552   4.451   2.792  0.2529  0.4338 -0.3973
 8815SOL     OW35025   3.703   4.406   5.548  0.4813 -0.0293  0.3166
 8815SOL    HW235026   3.755   4.326   5.555  0.7844  0.0906 -0.4027
 8815SOL    HW335027   3.719   4.437   5.459  1.5353  1.6199  1.0225
 8815SOL    MW435028   3.712   4.400   5.537 -0.2440 -0.3144  0.0607
 8816SOL     OW35029   4.413   4.434   3.688  0.3839  0.7085 -0.3723
 8816SOL    HW235030   4.453   4.493   3.751 -0.7308  0.1915  0.8750
 8816SOL    HW335031   4.361   4.491   3.631 -0.6519  0.9732  0.7965
 8816SOL    MW435032   4.411   4.449   3.689 -0.2680  0.2270  0.6421
 8817SOL     OW35033   1.577   0.950   1.167 -0.4259 -0.2466 -0.1359
 8817SOL    HW235034   1.481   0.944   1.161 -0.4128 -0.1295 -0.5014
 8817SOL    HW335035   1.608   0.913   1.085 -0.0875 -1.7247  0.6383
 8817SOL    MW435036   1.568   0.945   1.156  0.1693 -0.1613  0.0323
 8818SOL     OW35037   0.470   2.408   0.648 -0.3480 -0.0393  0.8118
 8818SOL    HW235038   0.466   2.337   0.711  1.6372 -0.6254  0.3451
 8818SOL    HW335039   0.477   2.365   0.562 -0.2764  0.7137  0.4280
 8818SOL    MW435040   0.470   2.393   0.645 -0.2703  0.0003  0.0167
 8819SOL     OW35041   5.949   1.817   3.898  0.3325 -0.8518 -0.2255
 8819SOL    HW235042   5.885   1.868   3.849  0.4058  0.3018  0.8279
 8819SOL    HW335043   6.026   1.874   3.905  0.6699 -1.3648  0.3946
 8819SOL    MW435044   5.951   1.831   3.893 -0.2991  0.4173  0.1486
 8820SOL     OW35045   1.466   0.927   1.978 -0.3941  0.2042  0.4662
 8820SOL    HW235046   1.413   0.957   2.052 -0.4822 -0.0132  0.4914
 8820SOL    HW335047   1.505   1.007   1.942 -1.0855  0.4188  0.1774
 8820SOL    MW435048   1.464   0.942   1.983 -0.2358 -0.3988 -0.2460
 8821SOL     OW35049   1.678   3.021   0.405  0.1961 -0.5010  0.6128
 8821SOL    HW235050   1.589   3.055   0.397 -0.1641 -1.6490 -0.3816
 8821SOL    HW335051   1.724   3.055   0.327  0.4601 -0.4483  0.7882
 8821SOL    MW435052   1.673   3.030   0.394  0.0848 -0.5898 -0.1921
 8822SOL     OW35053   2.781   2.473   4.331  0.3475  0.3566 -0.6611
 8822SOL    HW235054   2.788   2.552   4.278 -1.3034 -0.2938 -1.9337
 8822SOL    HW335055   2.689   2.469   4.357  1.0448  0.5791  2.2361
 8822SOL    MW435056   2.770   2.483   4.327  0.0825 -0.7182 -0.4919
 8823SOL     OW35057   4.312   3.632   3.377  0.1726  0.2541  0.4560
 8823SOL    HW235058   4.334   3.648   3.469 -2.0268 -1.5909  1.3818
 8823SOL    HW335059   4.240   3.692   3.359 -0.9513 -0.9782  0.6949
 8823SOL    MW435060   4.305   3.642   3.387 -0.3975 -0.1501 -0.2143
 8824SOL     OW35061   4.379   0.885   2.419  0.5142 -0.0022 -0.6348
 8824SOL    HW235062   4.306   0.944   2.399  0.1716 -0.2425 -0.1253
 8824SOL    HW335063   4.347   0.798   2.396  0.6381 -0.1093 -0.4010
 8824SOL    MW435064   4.365   0.882   2.413 -0.6151  0.0754  0.5632
 8825SOL     OW35065   5.174   4.298   0.720 -0.4287 -0.0348 -0.0150
 8825SOL    HW235066   5.090   4.275   0.761 -0.7256  1.3807  0.2288
 8825SOL    HW335067   5.236   4.235   0.755 -1.2671 -0.7280  0.2701
 8825SOL    MW435068   5.171   4.287   0.730 -0.0002  0.0742  0.2821
 8826SOL     OW35069   1.398   2.784   3.753  0.1800 -0.1239 -0.1477
 8826SOL    HW235070   1.417   2.755   3.664  2.0209  0.4922  0.0100
 8826SOL    HW335071   1.355   2.709   3.794 -1.2285 -0.2155 -1.7035
 8826SOL    MW435072   1.395   2.770   3.747 -0.2818 -0.3296  0.3624
 8827SOL     OW35073   5.409   4.124   2.248  0.1793 -0.2453  0.0252
 8827SOL    HW235074   5.453   4.176   2.180 -0.4773 -0.3907 -0.5146
 8827SOL    HW335075   5.480   4.078   2.292  0.9889  2.2552  1.5460
 8827SOL    MW435076   5.424   4.125   2.245 -0.1387 -0.1311 -0.2853
 8828SOL     OW35077   1.243   3.922   4.264  0.2617 -0.2839  0.4318
 8828SOL    HW235078   1.149   3.938   4.270  0.3548 -0.0371  1.5604
 8828SOL    HW335079   1.260   3.853   4.328  0.6505 -1.3756 -0.7923
 8828SOL    MW435080   1.233   3.915   4.273  0.0638  0.7888  0.1612
 8829SOL     OW35081   1.900   6.306   0.468  0.0242 -0.1803  0.6426
 8829SOL    HW235082   1.862   6.352   0.542  0.8065  0.6111  0.5673
 8829SOL    HW335083   1.990   6.288   0.494 -0.0024 -0.8397  0.2996
 8829SOL    MW435084   1.907   6.310   0.481  0.1220  0.2161 -0.7798
 8830SOL     OW35085   5.152   3.581   4.783  0.4402  0.1236 -0.0482
 8830SOL    HW235086   5.070   3.554   4.742  0.4100  1.5207 -0.9812
 8830SOL    HW335087   5.127   3.609   4.871  0.3640 -2.0400  0.6662
 8830SOL    MW435088   5.138   3.581   4.789 -0.4692  0.0994 -0.0959
 8831SOL     OW35089   0.333   5.256   3.965  0.1119  0.1842 -0.4016
 8831SOL    HW235090   0.251   5.307   3.969  0.2570  0.7766 -2.9831
 8831SOL    HW335091   0.358   5.243   4.057 -0.6529  3.6380  0.4354
 8831SOL    MW435092   0.325   5.261   3.978  0.1991  0.3877  0.1516
 8832SOL     OW35093   5.980   6.206   1.493  0.4776 -0.1453  0.1099
 8832SOL    HW235094   5.901   6.259   1.482  0.5174  0.3869  2.0541
 8832SOL    HW335095   5.948   6.115   1.490  0.1101  0.0039 -1.1224
 8832SOL    MW435096   5.965   6.201   1.491 -0.1564  0.4062 -0.0953
 8833SOL     OW35097   3.987   4.244   1.639 -0.2416  0.0114 -0.3860
 8833SOL    HW235098   3.926   4.283   1.701 -0.6199  0.7581 -1.1929
 8833SOL    HW335099   4.015   4.318   1.584  0.5174 -0.5259 -0.7347
 8833SOL    MW435100   3.983   4.259   1.640  0.0437 -0.0014 -0.7603
 8834SOL     OW35101   1.550   4.488   0.308 -0.0287  0.0968 -1.2035
 8834SOL    HW235102   1.588   4.418   0.360 -1.5608  0.0374 -0.1290
 8834SOL    HW335103   1.481   4.446   0.257 -1.0101  0.8200 -0.4948
 8834SOL    MW435104   1.546   4.474   0.308  0.5188  0.6625 -0.0149
 8835SOL     OW35105   3.573   0.793   3.848  0.1578 -0.3948  0.4546
 8835SOL    HW235106   3.596   0.743   3.770  1.3983  1.1260 -0.1902
 8835SOL    HW335107   3.477   0.793   3.849  0.1359 -1.1675 -0.5730
 8835SOL    MW435108   3.563   0.786   3.838 -0.0186 -0.6720 -0.5964
 8836SOL     OW35109   2.972   0.325   1.589 -0.1080 -0.0640  0.1363
 8836SOL    HW235110   2.955   0.344   1.681  1.7838  0.0936  0.5048
 8836SOL    HW335111   2.974   0.411   1.546 -0.8616 -0.1281 -0.0322
 8836SOL    MW435112   2.970   0.339   1.595 -0.6023 -0.1681  1.0592
 8837SOL     OW35113   3.332   2.217   2.363  0.4851 -0.0310  0.0072
 8837SOL    HW235114   3.265   2.181   2.304  0.3350  1.5347 -0.8428
 8837SOL    HW335115   3.350   2.304   2.328  1.4653  0.3842  1.4525
 8837SOL    MW435116   3.325   2.224   2.350  0.0832 -0.0165 -0.2284
 8838SOL     OW35117   5.993   3.854   1.330  0.4166 -0.2963  0.2879
 8838SOL    HW235118   5.949   3.887   1.408  0.8013  1.9635 -0.3930
 8838SOL    HW335119   5.964   3.763   1.323 -1.3293  0.0927  1.8310
 8838SOL    MW435120   5.984   3.846   1.339  0.3121  0.6855  0.6040
 8839SOL     OW35121   5.020   3.360   3.326 -0.3381 -0.2249  0.0411
 8839SOL    HW235122   5.085   3.372   3.395 -1.0727 -1.2401  0.9389
 8839SOL    HW335123   5.070   3.364   3.245  0.3764  2.2778  0.5197
 8839SOL    MW435124   5.035   3.362   3.325 -0.5985  0.2888 -0.0118
 8840SOL     OW35125   2.967   0.186   3.900  0.0958  0.0461  0.2219
 8840SOL    HW235126   2.907   0.257   3.876 -0.7667  0.3832  3.0031
 8840SOL    HW335127   2.961   0.123   3.828 -1.4770  1.3640 -0.8531
 8840SOL    MW435128   2.959   0.187   3.887 -0.0457  0.7047 -0.0701
 8841SOL     OW35129   4.375   4.096   6.277  0.3310  0.0117  0.1010
 8841SOL    HW235130   4.288   4.068   6.304 -0.0295 -0.1810 -1.2153
 8841SOL    HW335131   4.405   4.029   6.216  1.3678  0.1202  0.4645
 8841SOL    MW435132   4.368   4.084   6.272  0.2982  0.0483  0.2807
 8842SOL     OW35133   5.789   1.291   3.465 -0.2553 -0.1453  0.3426
 8842SOL    HW235134   5.820   1.200   3.466  0.6696  0.1368 -0.8653
 8842SOL    HW335135   5.822   1.328   3.547  1.4778 -0.2471 -0.2742
 8842SOL    MW435136   5.797   1.284   3.476  0.4446 -0.1377 -0.4264
 8843SOL     OW35137   3.600   6.278   6.369 -0.3030  0.0416  0.1449
 8843SOL    HW235138   3.556   6.356   6.403  0.0150  0.0709  0.4931
 8843SOL    HW335139   3.536   6.207   6.380  0.4302 -0.3311  2.5379
 8843SOL    MW435140   3.585   6.279   6.375 -0.1517 -0.3673 -0.0746
 8844SOL     OW35141   0.099   2.701   4.927 -0.3417 -0.2245  0.8032
 8844SOL    HW235142   0.016   2.659   4.906 -0.4507  0.0236  0.7301
 8844SOL    HW335143   0.156   2.681   4.852 -0.5758  0.2460  0.4937
 8844SOL    MW435144   0.095   2.693   4.914  0.0984 -0.5184 -0.0102
 8845SOL     OW35145   5.987   4.630   2.296 -0.8366 -0.0348  0.4780
 8845SOL    HW235146   5.999   4.722   2.274 -1.4568 -0.4478 -1.8585
 8845SOL    HW335147   6.060   4.585   2.253 -1.3819 -0.7764  0.3058
 8845SOL    MW435148   5.998   4.636   2.287  0.2791 -0.2276 -0.9299
 8846SOL     OW35149   3.137   2.547   5.895  0.1765  0.2158  0.7744
 8846SOL    HW235150   3.067   2.576   5.836  0.8394 -2.2501 -1.4099
 8846SOL    HW335151   3.120   2.593   5.977 -1.5222  2.9189 -0.9350
 8846SOL    MW435152   3.126   2.557   5.898  0.3434  0.6641  0.1609
 8847SOL     OW35153   5.831   2.840   4.944  0.0871  0.0809  0.8885
 8847SOL    HW235154   5.901   2.781   4.914 -0.6311 -0.2738 -0.1543
 8847SOL    HW335155   5.784   2.790   5.010 -0.3378 -0.4259  0.2194
 8847SOL    MW435156   5.834   2.826   4.949 -0.2115 -0.0183 -0.1466
 8848SOL     OW35157   5.777   1.232   1.619 -0.0096 -0.1023  0.0827
 8848SOL    HW235158   5.756   1.142   1.594  0.3355  0.4706 -2.6086
 8848SOL    HW335159   5.719   1.286   1.565  0.2602  1.3159  1.1507
 8848SOL    MW435160   5.767   1.227   1.609  0.2072  0.1227  0.2467
 8849SOL     OW35161   6.285   6.424   3.532 -0.0752  0.1752  0.0956
 8849SOL    HW235162   6.237   6.500   3.500 -0.6406  0.0184  0.5521
 8849SOL    HW335163   6.218   6.356   3.544  0.4503 -0.4701 -0.5155
 8849SOL    MW435164   6.270   6.425   3.529  0.7736 -0.5310 -0.3074
 8850SOL     OW35165   1.113   5.281   3.823 -0.1714 -0.4211 -0.1645
 8850SOL    HW235166   1.170   5.281   3.746 -0.6187 -2.5669 -0.5739
 8850SOL    HW335167   1.027   5.309   3.790  0.0083  0.2334 -0.0918
 8850SOL    MW435168   1.109   5.285   3.809 -0.4481  0.2599  0.0548
 8851SOL     OW35169   0.892   2.162   0.565  0.3319 -0.3141 -0.3422
 8851SOL    HW235170   0.901   2.221   0.640  0.2760  0.6503 -1.0805
 8851SOL    HW335171   0.982   2.142   0.539  0.3512 -0.2902 -0.2939
 8851SOL    MW435172   0.905   2.167   0.572  0.0221  0.1416  0.2211
 8852SOL     OW35173   6.414   3.573   6.111  0.6906  0.2347  0.7138
 8852SOL    HW235174   6.466   3.631   6.167  0.5868  2.8012 -1.6134
 8852SOL    HW335175   6.324   3.605   6.121  0.5962  0.3589 -0.4730
 8852SOL    MW435176   6.409   3.585   6.120 -0.4778 -0.5667 -0.5527
 8853SOL     OW35177   5.744   0.585   3.799 -0.4004 -0.2572 -0.2483
 8853SOL    HW235178   5.747   0.666   3.850  0.2318 -0.1748 -0.4064
 8853SOL    HW335179   5.656   0.551   3.814 -0.7568  0.5771 -0.3578
 8853SOL    MW435180   5.733   0.591   3.808  0.0066  0.0531 -0.3469
 8854SOL     OW35181   0.722   4.095   5.167 -0.0099 -0.0953  0.0539
 8854SOL    HW235182   0.717   4.021   5.107 -1.1500  0.7775 -0.9716
 8854SOL    HW335183   0.766   4.060   5.244 -2.1865 -2.3850  0.3918
 8854SOL    MW435184   0.727   4.081   5.169  0.1854  0.0212  0.0902
 8855SOL     OW35185   5.697   4.405   2.612  0.1699 -0.2473 -0.3806
 8855SOL    HW235186   5.672   4.449   2.693  3.2752  0.2917  0.4263
 8855SOL    HW335187   5.750   4.469   2.565  1.2782 -1.6789 -1.1864
 8855SOL    MW435188   5.701   4.419   2.617 -0.2618  0.2000  0.4696
 8856SOL     OW35189   5.651   4.973   1.640  0.2398  0.5492 -0.1885
 8856SOL    HW235190   5.705   4.894   1.645  0.5818  0.8271  0.6056
 8856SOL    HW335191   5.589   4.963   1.712  0.3333  1.0458 -0.0409
 8856SOL    MW435192   5.650   4.961   1.650 -0.2708  0.0505  0.4322
 8857SOL     OW35193   4.742   1.858   4.753  0.6727 -0.7680 -0.3580
 8857SOL    HW235194   4.662   1.900   4.785  2.5354  1.3844  1.8256
 8857SOL    HW335195   4.732   1.766   4.776 -1.5742 -0.7841 -1.1202
 8857SOL    MW435196   4.730   1.852   4.760  0.0736 -0.3407  0.1551
 8858SOL     OW35197   3.868   3.574   1.942  0.1755 -0.3912  0.3521
 8858SOL    HW235198   3.932   3.644   1.952  0.2294  0.2261 -3.0167
 8858SOL    HW335199   3.920   3.499   1.912 -0.4647 -0.1873 -1.3857
 8858SOL    MW435200   3.883   3.573   1.939 -0.1370 -0.4726 -0.0013
 8859SOL     OW35201   5.431   3.121   0.357  0.0778 -0.1338  0.1863
 8859SOL    HW235202   5.396   3.067   0.286 -0.1800  1.6775 -1.1322
 8859SOL    HW335203   5.406   3.210   0.333  0.6876  0.6134  2.1709
 8859SOL    MW435204   5.423   3.125   0.344 -0.2075 -0.6260  0.2569
 8860SOL     OW35205   5.557   3.570   3.572  0.4794  0.1015  0.3073
 8860SOL    HW235206   5.466   3.578   3.543  0.1148 -0.9561  1.0989
 8860SOL    HW335207   5.563   3.482   3.609  1.8260  0.1655  0.2928
 8860SOL    MW435208   5.546   3.559   3.573  0.0121  0.4466 -0.1030
 8861SOL     OW35209   5.657   3.810   1.138 -0.0098  0.3754 -0.3538
 8861SOL    HW235210   5.582   3.869   1.129  0.0139  0.1584 -2.6572
 8861SOL    HW335211   5.733   3.868   1.145 -0.3396  0.6009  2.3150
 8861SOL    MW435212   5.657   3.826   1.138 -0.1614 -0.4484  0.4693
 8862SOL     OW35213   2.915   1.486   5.998 -0.5527 -0.1281 -0.1536
 8862SOL    HW235214   3.003   1.523   5.986 -0.7277  0.2971 -0.1627
 8862SOL    HW335215   2.886   1.465   5.909 -1.1537  1.3883 -0.3519
 8862SOL    MW435216   2.923   1.488   5.985 -0.2940 -0.1657 -0.1802
 8863SOL     OW35217   0.400   4.522   6.210  0.7499  0.3413  0.2079
 8863SOL    HW235218   0.429   4.495   6.297  2.7614  0.3339 -0.4145
 8863SOL    HW335219   0.385   4.440   6.163  1.5167  0.3152 -0.0085
 8863SOL    MW435220   0.402   4.507   6.215 -0.0326  0.2698  0.5178
 8864SOL     OW35221   3.026   0.050   5.816  0.0579 -0.1307 -0.0513
 8864SOL    HW235222   3.087   0.121   5.837  1.4701 -1.3774  0.2258
 8864SOL    HW335223   2.979   0.081   5.739  1.3843  0.6847 -0.5592
 8864SOL    MW435224   3.028   0.063   5.809  0.2958  0.3831  0.0663
 8865SOL     OW35225   1.825   5.898   2.677 -0.0497  0.5628 -0.2229
 8865SOL    HW235226   1.884   5.964   2.641  0.6505  0.6409  1.0070
 8865SOL    HW335227   1.863   5.814   2.650  1.2149  0.5764  1.3341
 8865SOL    MW435228   1.838   5.896   2.669  0.0471  0.0789  0.0136
 8866SOL     OW35229   2.140   2.857   0.261 -0.1398  0.1378 -0.0070
 8866SOL    HW235230   2.161   2.950   0.270 -0.3898  0.1851  0.0945
 8866SOL    HW335231   2.159   2.819   0.347 -1.3081  0.3506  0.3694
 8866SOL    MW435232   2.145   2.864   0.273  0.2172  0.9165  0.1623
 8867SOL     OW35233   2.233   4.143   0.130  0.3015 -0.4079 -0.7605
 8867SOL    HW235234   2.298   4.196   0.177  0.0709 -0.3090 -0.5522
 8867SOL    HW335235   2.281   4.065   0.103  0.3212 -0.6800  0.0468
 8867SOL    MW435236   2.248   4.140   0.133 -0.0439  0.3886 -0.2904
 8868SOL     OW35237   2.128   6.238   5.140  0.4929  0.1041 -0.1077
 8868SOL    HW235238   2.153   6.330   5.128 -0.8563  0.5217  0.0741
 8868SOL    HW335239   2.065   6.240   5.212 -0.9393 -0.6956 -1.2848
 8868SOL    MW435240   2.123   6.250   5.148 -0.0789 -0.1814  0.0038
 8869SOL     OW35241   4.864   0.203   1.687  0.3782  0.0747  0.1013
 8869SOL    HW235242   4.800   0.132   1.679  1.7686 -1.0236 -2.3799
 8869SOL    HW335243   4.812   0.283   1.683 -1.1087 -0.7291  1.7117
 8869SOL    MW435244   4.849   0.204   1.685 -0.1907 -0.2109  0.4885
 8870SOL     OW35245   4.560   1.404   1.064  0.1767 -0.0710 -0.2303
 8870SOL    HW235246   4.499   1.352   1.115  0.0241  0.3340  0.0074
 8870SOL    HW335247   4.525   1.493   1.068  1.0914  0.2728  0.3851
 8870SOL    MW435248   4.547   1.409   1.071  0.3892  0.0966  0.5786
 8871SOL     OW35249   5.867   4.811   5.026 -0.3251  0.4614 -0.1554
 8871SOL    HW235250   5.912   4.894   5.015 -1.9572  1.8955  2.8336
 8871SOL    HW335251   5.795   4.814   4.962  0.2087  0.8816 -0.7426
 8871SOL    MW435252   5.863   4.822   5.016 -0.2056 -0.0471  0.2201
 8872SOL     OW35253   6.411   4.329   4.071  0.2235  0.1260  0.2530
 8872SOL    HW235254   6.354   4.329   3.995  0.6445 -0.2120 -0.0654
 8872SOL    HW335255   6.352   4.331   4.146 -0.2218 -0.7406 -0.0661
 8872SOL    MW435256   6.396   4.329   4.071  0.2013  0.2007  0.0990
 8873SOL     OW35257   3.104   5.958   3.774  0.0919 -0.1300 -0.1738
 8873SOL    HW235258   3.059   5.904   3.839 -1.6263 -0.6150 -1.6893
 8873SOL    HW335259   3.078   6.048   3.796 -1.5826 -0.3929 -0.9436
 8873SOL    MW435260   3.095   5.963   3.786  0.0412 -0.3658  0.0510
 8874SOL     OW35261   5.595   1.862   0.934 -0.2455  0.0937 -0.5141
 8874SOL    HW235262   5.638   1.840   1.016  2.6089 -0.1265 -1.9591
 8874SOL    HW335263   5.652   1.928   0.893 -2.7299  1.8951 -1.3825
 8874SOL    MW435264   5.608   1.868   0.939 -0.8037  0.4245  0.1634
 8875SOL     OW35265   1.154   4.402   2.471  0.0244  0.0604  0.1397
 8875SOL    HW235266   1.212   4.374   2.399  0.9873 -0.8402  1.2127
 8875SOL    HW335267   1.213   4.410   2.546 -1.1865 -0.4909  1.1740
 8875SOL    MW435268   1.170   4.399   2.471 -0.7246  0.1364 -0.5781
 8876SOL     OW35269   0.394   4.251   0.733  0.0589 -0.6178 -0.0931
 8876SOL    HW235270   0.311   4.290   0.762  0.9950  0.5650  1.0884
 8876SOL    HW335271   0.371   4.160   0.713 -1.5533 -0.2873  0.0937
 8876SOL    MW435272   0.380   4.244   0.734 -0.1249  0.0034 -0.7373
 8877SOL     OW35273   3.931   5.781   2.836 -0.5815 -0.1056 -0.2035
 8877SOL    HW235274   3.838   5.781   2.860 -0.7250 -1.3303 -0.6709
 8877SOL    HW335275   3.973   5.728   2.904  0.3752  3.0466  1.8967
 8877SOL    MW435276   3.924   5.774   2.848 -0.1734 -0.2547 -1.0046
 8878SOL     OW35277   3.787   3.609   4.946 -0.4763  0.1386  0.0637
 8878SOL    HW235278   3.775   3.689   4.895 -0.1070  1.2599  1.6766
 8878SOL    HW335279   3.784   3.539   4.881  2.2940  1.6060 -1.8759
 8878SOL    MW435280   3.785   3.610   4.930  0.1430  0.1131 -0.1021
 8879SOL     OW35281   6.253   3.709   4.617  0.0414 -0.1335  0.2920
 8879SOL    HW235282   6.193   3.723   4.543 -0.6936 -1.2281  0.6462
 8879SOL    HW335283   6.211   3.639   4.668  1.9137 -1.3719  0.2317
 8879SOL    MW435284   6.239   3.701   4.614 -0.2612 -0.0252  0.0816
 8880SOL     OW35285   1.385   0.583   3.892 -0.4933  0.2245 -0.1873
 8880SOL    HW235286   1.332   0.641   3.837  2.7278  1.9061 -1.8147
 8880SOL    HW335287   1.442   0.538   3.830  0.1361 -1.3570  1.4640
 8880SOL    MW435288   1.386   0.585   3.876 -0.1217 -0.0154 -0.1689
 8881SOL     OW35289   1.960   4.226   0.533 -0.3583  0.3922  0.0494
 8881SOL    HW235290   1.943   4.171   0.609  0.3163  0.7047  0.4323
 8881SOL    HW335291   2.052   4.251   0.541  0.1219 -0.6509 -1.5581
 8881SOL    MW435292   1.970   4.222   0.544 -0.2748 -0.0226 -0.4769
 8882SOL     OW35293   1.299   4.892   6.034 -0.2080  0.2307 -0.4279
 8882SOL    HW235294   1.343   4.813   6.066  0.1346  1.0428  1.2491
 8882SOL    HW335295   1.206   4.872   6.041 -0.1337  0.1606  0.5858
 8882SOL    MW435296   1.293   4.879   6.039  0.4632 -0.8482 -0.6852
 8883SOL     OW35297   6.157   5.212   4.844  0.6002  0.0740  0.7067
 8883SOL    HW235298   6.119   5.292   4.880  2.1614  0.3063  1.9782
 8883SOL    HW335299   6.087   5.173   4.792 -0.9084  1.1397  1.8442
 8883SOL    MW435300   6.143   5.217   4.842  0.1479 -0.3772  0.2840
 8884SOL     OW35301   0.658   5.319   3.466 -0.3744  0.5565 -0.3015
 8884SOL    HW235302   0.732   5.293   3.410  1.0714 -1.5598  2.3360
 8884SOL    HW335303   0.682   5.405   3.498  1.8160 -0.6568  1.6251
 8884SOL    MW435304   0.671   5.327   3.463  0.3995  0.1882 -0.4426
 8885SOL     OW35305   5.892   1.183   2.861 -0.5664  0.2151 -0.0815
 8885SOL    HW235306   5.974   1.137   2.880 -1.1707 -0.1226  1.8948
 8885SOL    HW335307   5.865   1.149   2.776  0.9909 -0.1477 -0.4693
 8885SOL    MW435308   5.899   1.172   2.852 -0.5599 -0.1291 -0.0094
 8886NA      NA35309   1.570   5.628   2.026  0.2408  0.1790  0.2582
 8887NA      NA35310   4.426   3.419   5.659  0.4763  0.4504  0.1697
 8888NA      NA35311   5.340   3.418   4.743 -0.3701 -0.2047  0.1348
 8889NA      NA35312   3.033   3.500   3.669  0.4174  0.1615  0.4988
 8890NA      NA35313   4.193   0.160   2.796 -0.2369  0.0514 -0.6705
 8891NA      NA35314   0.479   1.617   3.962  0.2707  0.2971  0.1455
 8892NA      NA35315   1.598   1.572   5.178  0.6207 -0.0353 -0.0028
   6.42900   6.42900   6.42900
