A-SYNC WITH FASUDIL
35315
  121NASP     N    1   4.432   1.094   3.814  0.9072 -0.8533 -0.1555
  121NASP    H1    2   4.358   1.035   3.779  0.0974  0.6910 -1.1920
  121NASP    H2    3   4.518   1.043   3.823 -1.1352 -4.6983 -0.4282
  121NASP    H3    4   4.445   1.170   3.748 -0.7179  0.8601  1.3670
  121NASP    CA    5   4.386   1.152   3.940 -0.1537 -0.5620 -0.1477
  121NASP    HA    6   4.455   1.229   3.976  1.3933 -2.0145  0.1089
  121NASP    CB    7   4.242   1.211   3.935  0.2249 -0.4810 -0.3380
  121NASP   HB1    8   4.223   1.273   4.023  1.9345 -1.6517  0.9298
  121NASP   HB2    9   4.168   1.133   3.949 -0.7624  0.7856  2.0106
  121NASP    CG   10   4.200   1.297   3.812 -0.3200  0.7589  0.1647
  121NASP   OD1   11   4.085   1.343   3.817  0.0299 -0.1622  0.2250
  121NASP   OD2   12   4.286   1.305   3.718 -0.2037 -0.1349 -0.7374
  121NASP     C   13   4.386   1.044   4.054  0.0078 -0.3740  0.4148
  121NASP     O   14   4.393   0.925   4.018 -0.7984 -0.1087  0.6070
  122ASN      N   15   4.391   1.089   4.181 -0.1677 -0.2197 -0.6776
  122ASN      H   16   4.380   1.188   4.193 -0.7637 -0.4375  0.8011
  122ASN     CA   17   4.372   1.009   4.300  0.5819 -0.2271  0.2141
  122ASN     HA   18   4.402   0.907   4.273  0.8081 -0.0374 -0.2531
  122ASN     CB   19   4.450   1.059   4.419  0.3300  0.6393  0.3944
  122ASN    HB1   20   4.421   0.997   4.504  1.7773 -0.0343  0.4339
  122ASN    HB2   21   4.425   1.162   4.442 -0.6447  0.7814 -1.1728
  122ASN     CG   22   4.605   1.061   4.408  0.4618 -0.4158 -0.3556
  122ASN    OD1   23   4.673   1.002   4.328 -0.0401  0.1454  0.6980
  122ASN    ND2   24   4.667   1.136   4.499  0.1624  0.2810  0.1350
  122ASN   HD21   25   4.761   1.168   4.479 -0.1838  2.1914  1.4213
  122ASN   HD22   26   4.607   1.172   4.571 -0.2111  0.0983 -0.0815
  122ASN      C   27   4.222   1.016   4.333  0.1202  0.3355  0.4569
  122ASN      O   28   4.154   1.118   4.305 -0.2160  0.2725 -0.3456
  123GLU      N   29   4.169   0.914   4.402 -0.5857 -0.1107  0.1453
  123GLU      H   30   4.248   0.865   4.441  0.1351  1.3045  0.5651
  123GLU     CA   31   4.038   0.921   4.463  0.1563  0.7969  0.4410
  123GLU     HA   32   3.974   0.970   4.389  0.2613  2.3568  1.3511
  123GLU     CB   33   4.000   0.769   4.487  0.5569 -0.0136 -0.0877
  123GLU    HB1   34   3.907   0.769   4.544  0.4661 -0.3127 -0.2373
  123GLU    HB2   35   4.077   0.716   4.543  0.9244  0.6128  0.0136
  123GLU     CG   36   3.982   0.693   4.359  0.9298 -0.1003 -0.1683
  123GLU    HG1   37   3.967   0.586   4.370  0.6129  0.1216  1.9837
  123GLU    HG2   38   4.072   0.700   4.298  0.6992 -0.8173 -0.5993
  123GLU     CD   39   3.866   0.739   4.270 -0.2572  1.0184 -0.4795
  123GLU    OE1   40   3.859   0.696   4.152  0.1658  0.0886  0.0036
  123GLU    OE2   41   3.772   0.810   4.312 -0.2529 -0.2562 -0.0116
  123GLU      C   42   4.028   1.000   4.589  0.0267  0.1951  0.0975
  123GLU      O   43   4.136   1.010   4.655  0.4708  0.0167  0.2834
  124ALA      N   44   3.909   1.045   4.631 -0.0451  0.4097  0.0675
  124ALA      H   45   3.837   1.020   4.564  0.3154 -2.7926  0.6886
  124ALA     CA   46   3.879   1.113   4.755 -0.5391  0.6352  0.2818
  124ALA     HA   47   3.963   1.176   4.781  0.2914 -0.6622  0.8672
  124ALA     CB   48   3.736   1.176   4.759  0.9146  0.0912  0.4044
  124ALA    HB1   49   3.709   1.201   4.862  0.7684  1.1912  0.1144
  124ALA    HB2   50   3.658   1.111   4.719  1.6192 -0.4172 -0.1727
  124ALA    HB3   51   3.725   1.272   4.708 -1.9148  0.1083  0.8611
  124ALA      C   52   3.882   1.003   4.864 -0.0044  0.5255  0.1205
  124ALA      O   53   3.841   0.886   4.843 -0.4477 -0.1201 -0.4265
  125TYR      N   54   3.935   1.042   4.980  0.1598 -0.2483  0.2379
  125TYR      H   55   3.980   1.133   4.981  0.8017 -0.5453 -0.3935
  125TYR     CA   56   3.944   0.960   5.105 -0.5610  0.8426  0.8258
  125TYR     HA   57   3.989   0.864   5.081 -2.0715  0.4151 -0.4517
  125TYR     CB   58   4.025   1.024   5.217  0.8334  0.1736  0.0812
  125TYR    HB1   59   3.973   1.110   5.260 -0.6568  0.0696 -1.4110
  125TYR    HB2   60   4.122   1.062   5.186  0.0537  1.6569 -0.6481
  125TYR     CG   61   4.049   0.935   5.335 -0.4584  0.2471 -0.7744
  125TYR    CD1   62   3.990   0.951   5.465 -0.4630 -0.4616 -0.3195
  125TYR    HD1   63   3.935   1.041   5.486  0.6306  0.5979 -1.7912
  125TYR    CE1   64   4.025   0.864   5.569  0.1142  0.5111 -0.2708
  125TYR    HE1   65   3.993   0.883   5.671 -1.8415  1.9354 -1.0849
  125TYR     CZ   66   4.129   0.769   5.551 -0.1649 -0.5400  0.2701
  125TYR     OH   67   4.170   0.690   5.653 -0.4710  0.2533 -0.3032
  125TYR     HH   68   4.130   0.707   5.739 -0.7844 -0.1686 -0.3629
  125TYR    CE2   69   4.190   0.752   5.424  0.6236 -0.9455 -0.4169
  125TYR    HE2   70   4.272   0.682   5.418  1.2226 -0.8121  3.6552
  125TYR    CD2   71   4.144   0.831   5.311 -0.3968  0.0092  0.5501
  125TYR    HD2   72   4.192   0.828   5.215 -2.9511 -0.9422 -0.7742
  125TYR      C   73   3.803   0.934   5.154  0.1890  0.4265  0.5828
  125TYR      O   74   3.716   1.012   5.113 -0.2649  0.3291  0.5350
  126GLU      N   75   3.790   0.843   5.248  0.8381  0.7544  0.2157
  126GLU      H   76   3.870   0.813   5.302  0.4431  1.3056  1.1319
  126GLU     CA   77   3.658   0.800   5.296  0.2789  0.4976  0.2094
  126GLU     HA   78   3.593   0.759   5.220  0.1370  0.6452  0.2514
  126GLU     CB   79   3.676   0.685   5.397 -0.3782 -0.5822 -0.0284
  126GLU    HB1   80   3.721   0.724   5.488 -1.4857 -0.0108  0.2961
  126GLU    HB2   81   3.729   0.602   5.349  2.3905  0.8802  0.2965
  126GLU     CG   82   3.536   0.632   5.438  0.4807  0.2428  0.2910
  126GLU    HG1   83   3.472   0.626   5.350  0.1734  1.9239  0.3706
  126GLU    HG2   84   3.479   0.699   5.502 -0.7600  0.1155 -0.6399
  126GLU     CD   85   3.554   0.494   5.507  0.7444 -0.0897  0.0090
  126GLU    OE1   86   3.584   0.396   5.432 -0.5306  0.3797 -0.1552
  126GLU    OE2   87   3.542   0.488   5.631 -0.4117 -0.5343  0.3434
  126GLU      C   88   3.592   0.924   5.360  0.1838  0.0127 -0.3226
  126GLU      O   89   3.657   0.994   5.443  0.1739  0.1039 -0.0433
  127MET      N   90   3.470   0.963   5.322  0.4734  0.0433 -0.0607
  127MET      H   91   3.437   0.926   5.233 -0.7511 -1.7588  1.0763
  127MET     CA   92   3.404   1.082   5.381  0.4992 -0.3098  0.1010
  127MET     HA   93   3.475   1.164   5.393 -1.5752  1.4333  1.2347
  127MET     CB   94   3.296   1.137   5.284  0.3803  0.4216  0.3168
  127MET    HB1   95   3.239   1.048   5.256  2.0111 -1.0946  1.4885
  127MET    HB2   96   3.349   1.173   5.196  1.8403 -0.6214  0.7261
  127MET     CG   97   3.214   1.254   5.335 -0.1438  0.0716  0.2300
  127MET    HG1   98   3.142   1.221   5.410 -1.7930 -2.3398 -2.1942
  127MET    HG2   99   3.177   1.309   5.248  1.7984  1.3034  0.1267
  127MET     SD  100   3.298   1.387   5.417  0.2387 -0.1280  0.3862
  127MET     CE  101   3.156   1.493   5.451  0.3056 -0.4430  0.8863
  127MET    HE1  102   3.184   1.562   5.531  0.2631 -0.6552  1.0888
  127MET    HE2  103   3.070   1.435   5.484  0.7774 -1.6260  0.1076
  127MET    HE3  104   3.138   1.547   5.358  0.7456  0.5486  1.3638
  127MET      C  105   3.336   1.043   5.513  0.0520  0.0379 -1.3761
  127MET      O  106   3.244   0.955   5.516 -0.0631  0.0881  0.4968
  128PRO      N  107   3.380   1.101   5.633 -0.2427 -0.0422  0.3758
  128PRO     CD  108   3.479   1.195   5.653 -0.0889 -0.3787  0.1786
  128PRO    HD1  109   3.460   1.277   5.584  0.9247  0.0280  0.3730
  128PRO    HD2  110   3.574   1.144   5.637  0.4897 -0.2866  2.7910
  128PRO     CG  111   3.467   1.229   5.804 -0.5249 -0.9285 -0.5815
  128PRO    HG1  112   3.391   1.305   5.823  0.7311  0.4245 -0.8017
  128PRO    HG2  113   3.562   1.273   5.834 -1.0954  0.4589 -0.7331
  128PRO     CB  114   3.421   1.102   5.868  0.2503 -0.1880  0.8195
  128PRO    HB1  115   3.499   1.026   5.869  1.7488  1.2772  0.3883
  128PRO    HB2  116   3.373   1.111   5.965 -0.1986 -1.5742  0.7407
  128PRO     CA  117   3.325   1.049   5.758 -0.1238 -0.4990  0.4696
  128PRO     HA  118   3.320   0.941   5.754  0.2136 -0.4997 -0.1833
  128PRO      C  119   3.185   1.089   5.796  0.9658 -0.0859  0.1876
  128PRO      O  120   3.135   1.197   5.763  0.0493  0.9291  0.0232
  129SER      N  121   3.120   1.002   5.864  0.2897  0.3618  0.5401
  129SER      H  122   3.160   0.915   5.896 -2.8432 -1.1873  0.6542
  129SER     CA  123   2.975   1.006   5.886 -0.1299 -0.5958 -0.7471
  129SER     HA  124   2.926   1.060   5.805 -1.5131 -1.0204 -0.2289
  129SER     CB  125   2.921   0.863   5.880  1.2233  0.1899  0.0460
  129SER    HB1  126   2.974   0.803   5.806  1.1102 -1.5540  1.3117
  129SER    HB2  127   2.813   0.861   5.864  1.3544 -2.9677 -1.3077
  129SER     OG  128   2.941   0.809   6.005  0.2639  0.2262 -0.2388
  129SER    HG1  129   2.920   0.716   5.994 -1.8246  0.7505 -1.2645
  129SER      C  130   2.930   1.086   6.013 -0.2477  0.0327  0.8072
  129SER      O  131   3.000   1.114   6.110  0.2741  0.2911  1.0755
  130GLU      N  132   2.808   1.139   6.001  0.3449 -0.1487 -0.2502
  130GLU      H  133   2.766   1.116   5.912  1.4699  1.7222 -1.3313
  130GLU     CA  134   2.742   1.242   6.080 -0.1283  0.0799 -0.8388
  130GLU     HA  135   2.812   1.324   6.097  1.0747 -1.2626  1.0294
  130GLU     CB  136   2.619   1.296   6.000 -0.0738 -0.0431 -0.4828
  130GLU    HB1  137   2.589   1.383   6.059  0.7112 -1.1374  1.6377
  130GLU    HB2  138   2.549   1.213   5.986 -1.7793  1.3260 -0.3387
  130GLU     CG  139   2.658   1.348   5.863 -0.7352  0.5388  0.6608
  130GLU    HG1  140   2.705   1.269   5.803  0.5218 -0.1465  2.4527
  130GLU    HG2  141   2.731   1.427   5.879 -2.7765  2.5912  0.4130
  130GLU     CD  142   2.540   1.413   5.799 -0.1522  0.8334  0.2787
  130GLU    OE1  143   2.548   1.533   5.779 -0.4932  0.1211  0.2255
  130GLU    OE2  144   2.449   1.341   5.745  0.0219  0.9526  0.1626
  130GLU      C  145   2.694   1.188   6.215  0.0741  0.1668 -0.7198
  130GLU      O  146   2.671   1.262   6.306 -0.2246 -0.4545  0.6180
  131GLU      N  147   2.671   1.057   6.225  0.6763 -0.0930  0.3490
  131GLU      H  148   2.690   1.002   6.143  1.0703 -0.5668  0.7585
  131GLU     CA  149   2.628   0.979   6.339  0.1128  0.9384  0.0608
  131GLU     HA  150   2.546   1.031   6.389 -1.4599 -1.7871  0.4846
  131GLU     CB  151   2.568   0.847   6.293 -0.0711  0.2009  0.1225
  131GLU    HB1  152   2.481   0.861   6.228 -0.5297 -1.1968  0.3995
  131GLU    HB2  153   2.531   0.797   6.383  0.6439  2.5170  1.7996
  131GLU     CG  154   2.660   0.750   6.220  0.4750  0.0603  0.2658
  131GLU    HG1  155   2.748   0.735   6.281 -0.3115 -0.1704  1.3741
  131GLU    HG2  156   2.688   0.788   6.122  0.4717  2.8379  1.2669
  131GLU     CD  157   2.590   0.611   6.200  0.3916 -0.5566  0.1156
  131GLU    OE1  158   2.533   0.589   6.092 -0.0590  0.1648 -0.2392
  131GLU    OE2  159   2.608   0.519   6.284 -0.0768 -0.9654  0.4261
  131GLU      C  160   2.738   0.962   6.444 -0.3886  0.1218  0.3358
  131GLU      O  161   2.857   0.979   6.424  0.1843  0.0452 -0.2080
  132GLY      N  162   2.698   0.919   6.565 -0.0666  0.4731  0.0535
  132GLY      H  163   2.600   0.912   6.590  0.4641 -2.1225  1.9865
  132GLY     CA  164   2.787   0.914   6.677 -1.2087 -0.2569  0.3589
  132GLY    HA1  165   2.869   0.985   6.671 -1.9623  0.6188  0.2621
  132GLY    HA2  166   2.827   0.813   6.677 -1.0138 -0.1793  0.4115
  132GLY      C  167   2.713   0.945   6.809 -0.3648  0.0332  0.4985
  132GLY      O  168   2.593   0.925   6.830  0.1523 -0.3218  0.0294
  133TYR      N  169   2.790   1.017   6.889 -0.0848  0.1170 -0.1592
  133TYR      H  170   2.889   1.021   6.868 -0.0102 -0.1260  0.1360
  133TYR     CA  171   2.737   1.068   7.015  0.5498  0.1943  0.0105
  133TYR     HA  172   2.692   0.976   7.051  0.3793  0.7508  1.2687
  133TYR     CB  173   2.862   1.114   7.106 -0.1092  0.0191  0.4506
  133TYR    HB1  174   2.824   1.146   7.203  1.4526  2.3876  0.3468
  133TYR    HB2  175   2.918   1.201   7.073  3.8447 -1.1860  3.2229
  133TYR     CG  176   2.974   1.012   7.129  0.2446  0.3396  0.8824
  133TYR    CD1  177   3.104   1.037   7.072 -0.2485  0.3964 -0.3200
  133TYR    HD1  178   3.127   1.132   7.025  0.7284 -0.1309 -0.9672
  133TYR    CE1  179   3.209   0.959   7.100 -0.1147  0.2624 -0.3369
  133TYR    HE1  180   3.309   0.978   7.062  0.0088 -1.5574 -0.9991
  133TYR     CZ  181   3.191   0.842   7.174 -0.6195  0.2348 -0.9018
  133TYR     OH  182   3.299   0.773   7.216 -0.2019 -0.4806  0.2382
  133TYR     HH  183   3.370   0.808   7.162 -2.9701  1.5963 -2.4070
  133TYR    CE2  184   3.061   0.801   7.213 -0.2417 -0.3183  0.3842
  133TYR    HE2  185   3.050   0.709   7.269  1.0930 -1.7155 -1.5287
  133TYR    CD2  186   2.950   0.885   7.193  0.1753 -0.1636  0.7399
  133TYR    HD2  187   2.851   0.853   7.222 -0.4594  0.2622 -0.8708
  133TYR      C  188   2.621   1.170   7.015 -0.2735  0.0386 -0.6220
  133TYR      O  189   2.595   1.247   6.921 -0.5575 -0.3243 -0.2634
  134GLN      N  190   2.549   1.175   7.127 -0.1043  0.0973  0.2212
  134GLN      H  191   2.575   1.109   7.198  0.6253 -2.1978 -2.0041
  134GLN     CA  192   2.433   1.256   7.148 -0.2386 -0.4948 -0.0258
  134GLN     HA  193   2.359   1.216   7.078 -1.2688 -1.7722  1.7232
  134GLN     CB  194   2.372   1.225   7.280  0.3366  0.1034  0.4605
  134GLN    HB1  195   2.366   1.117   7.289 -0.3939  0.0492 -0.4622
  134GLN    HB2  196   2.274   1.273   7.280 -0.7959 -1.8133 -3.3580
  134GLN     CG  197   2.455   1.274   7.400  0.2408  0.0009  0.1486
  134GLN    HG1  198   2.459   1.383   7.393  0.3575 -0.1044 -1.8689
  134GLN    HG2  199   2.559   1.245   7.385  0.5556  1.6231 -1.1244
  134GLN     CD  200   2.388   1.239   7.532  0.6392  0.7128  0.0333
  134GLN    OE1  201   2.324   1.135   7.551  0.6283 -0.7483  0.4050
  134GLN    NE2  202   2.397   1.320   7.634 -0.2448 -0.6726 -0.4261
  134GLN   HE21  203   2.362   1.295   7.725 -1.5654  0.3481 -0.6167
  134GLN   HE22  204   2.444   1.409   7.623 -0.9495 -0.3158 -0.6162
  134GLN      C  205   2.443   1.405   7.120 -0.3753  0.6146  0.7989
  134GLN      O  206   2.547   1.464   7.141  0.3983  0.4806  0.4814
  135ASP      N  207   2.323   1.463   7.096 -0.4051  0.5276  0.6246
  135ASP      H  208   2.246   1.398   7.096 -1.0153  1.1620  2.7290
  135ASP     CA  209   2.307   1.611   7.113  0.1328 -0.1438 -0.3152
  135ASP     HA  210   2.405   1.654   7.096  1.6156 -3.3857 -0.5873
  135ASP     CB  211   2.188   1.665   7.028 -0.7688  0.4299 -0.2696
  135ASP    HB1  212   2.238   1.675   6.932  1.5188 -0.6884  0.7047
  135ASP    HB2  213   2.171   1.768   7.060  0.5124  0.0115  2.0225
  135ASP     CG  214   2.052   1.595   7.023  0.0715  0.2258  0.1509
  135ASP    OD1  215   2.032   1.492   7.096  0.1916  0.1199  0.1454
  135ASP    OD2  216   1.970   1.645   6.943  0.2150 -0.5580 -0.3962
  135ASP      C  217   2.275   1.634   7.263  0.1874  0.3292 -0.5181
  135ASP      O  218   2.358   1.694   7.325  0.0176 -0.0146 -0.2060
  136TYR      N  219   2.178   1.554   7.314 -0.8316  0.2899  0.6400
  136TYR      H  220   2.121   1.495   7.255  0.2755 -0.2236  0.0354
  136TYR     CA  221   2.134   1.576   7.450 -0.4434 -0.0170  0.5145
  136TYR     HA  222   2.207   1.629   7.511 -0.0589  1.1766 -0.9271
  136TYR     CB  223   2.004   1.651   7.446 -0.4210 -0.1799  0.4406
  136TYR    HB1  224   1.972   1.676   7.547  1.3333  0.9043  0.7732
  136TYR    HB2  225   1.930   1.593   7.391 -0.0642 -0.8869  0.6989
  136TYR     CG  226   2.018   1.782   7.377  0.0866  0.2295  0.7247
  136TYR    CD1  227   1.957   1.810   7.255  0.0901 -0.0462 -0.4864
  136TYR    HD1  228   1.887   1.738   7.215 -0.1768 -0.5158  0.8044
  136TYR    CE1  229   1.970   1.933   7.189 -0.8675  0.0687  0.1097
  136TYR    HE1  230   1.912   1.955   7.101 -0.9745  0.6921  0.3276
  136TYR     CZ  231   2.077   2.016   7.236  0.1436 -0.1028 -0.5126
  136TYR     OH  232   2.096   2.127   7.170 -0.9241  0.1051  0.4452
  136TYR     HH  233   2.064   2.127   7.079 -0.5807 -1.8502  0.2808
  136TYR    CE2  234   2.148   1.995   7.350 -0.4713 -0.8924 -0.0290
  136TYR    HE2  235   2.219   2.071   7.380  0.4119 -0.5184 -2.7773
  136TYR    CD2  236   2.115   1.877   7.421  0.4857 -0.6191  0.0599
  136TYR    HD2  237   2.163   1.857   7.515 -1.0941  0.6477  1.2010
  136TYR      C  238   2.102   1.439   7.511  0.1580  0.7275 -0.1558
  136TYR      O  239   2.087   1.337   7.439 -0.0331  0.1109 -0.0426
  137GLU      N  240   2.081   1.429   7.641 -0.2007 -0.0961  0.6704
  137GLU      H  241   2.087   1.517   7.689  1.6462  0.0840  0.1990
  137GLU     CA  242   2.037   1.308   7.711  0.4487 -0.5668 -0.4024
  137GLU     HA  243   2.107   1.227   7.692  1.0823  0.0353 -0.6826
  137GLU     CB  244   2.014   1.329   7.856 -0.5203 -0.1140 -0.2569
  137GLU    HB1  245   1.984   1.236   7.903 -1.1391 -0.3991 -1.1839
  137GLU    HB2  246   1.936   1.406   7.861  1.7169  2.4322 -1.6687
  137GLU     CG  247   2.122   1.401   7.936 -0.8032  0.3552 -0.6468
  137GLU    HG1  248   2.084   1.436   8.032 -1.3672  1.7524 -1.3574
  137GLU    HG2  249   2.167   1.483   7.880 -0.7751  0.2745 -0.7429
  137GLU     CD  250   2.238   1.301   7.957  0.1051  0.0424  0.5243
  137GLU    OE1  251   2.221   1.192   8.018  0.3552  0.2919  0.2842
  137GLU    OE2  252   2.350   1.340   7.912 -0.1438 -0.1843  0.5115
  137GLU      C  253   1.901   1.257   7.648  0.5390  0.2755 -0.8308
  137GLU      O  254   1.815   1.340   7.620  0.3076 -0.5775 -0.5052
  138PRO      N  255   1.880   1.128   7.629 -0.1303  0.0686  0.5598
  138PRO     CD  256   1.970   1.028   7.677 -0.8633 -0.0441  0.6829
  138PRO    HD1  257   2.002   1.056   7.777 -1.6546 -1.5753  1.3938
  138PRO    HD2  258   2.060   1.024   7.616 -1.5656 -0.9475 -0.3421
  138PRO     CG  259   1.890   0.896   7.671 -0.9576 -0.2475 -0.4349
  138PRO    HG1  260   1.840   0.878   7.767 -0.4664  1.5434  0.2002
  138PRO    HG2  261   1.949   0.810   7.643 -0.4434 -1.4604  3.6896
  138PRO     CB  262   1.781   0.920   7.572 -0.3941  0.4950 -0.0972
  138PRO    HB1  263   1.833   0.907   7.477 -1.3211  1.0101 -0.6903
  138PRO    HB2  264   1.699   0.848   7.584 -1.3746  1.5742 -0.1372
  138PRO     CA  265   1.748   1.067   7.599  0.4700  0.7034  0.2751
  138PRO     HA  266   1.707   1.109   7.507 -1.5963 -0.1149  0.7837
  138PRO      C  267   1.652   1.085   7.719 -0.4080  0.3816  0.0397
  138PRO      O  268   1.689   1.074   7.836  0.2071 -0.5846 -0.3374
  139GLU      N  269   1.523   1.104   7.691  0.6736 -0.5361  0.4654
  139GLU      H  270   1.498   1.125   7.596 -0.6875 -2.9545  0.1992
  139GLU     CA  271   1.416   1.117   7.790 -0.2091 -0.3271  0.3109
  139GLU     HA  272   1.454   1.180   7.871 -1.0252  0.4097  0.1428
  139GLU     CB  273   1.275   1.170   7.750 -0.5647 -0.4596  0.6223
  139GLU    HB1  274   1.220   1.180   7.843 -0.6775 -1.6343  0.6851
  139GLU    HB2  275   1.222   1.109   7.678 -2.3463  1.5243  0.1349
  139GLU     CG  276   1.266   1.311   7.687  0.2216 -0.6971  0.2667
  139GLU    HG1  277   1.161   1.337   7.673  0.4306 -0.4660 -1.0181
  139GLU    HG2  278   1.309   1.312   7.587  0.3951  0.4791  0.3376
  139GLU     CD  279   1.333   1.425   7.770 -0.0898 -0.3872  0.9292
  139GLU    OE1  280   1.337   1.416   7.892 -0.0525  0.1993  0.2243
  139GLU    OE2  281   1.361   1.524   7.706 -0.5346 -0.4483  0.2754
  139GLU      C  282   1.391   0.979   7.864  0.2669 -0.0230 -0.0995
  139GLU      O  283   1.434   0.874   7.817 -0.2403  0.1623  0.1932
  140CALA     N  284   1.314   0.983   7.973  0.3977 -0.1658 -0.2095
  140CALA     H  285   1.275   1.070   8.006 -2.1652 -1.6828  1.1704
  140CALA    CA  286   1.287   0.876   8.071 -0.3194  0.2914 -0.0596
  140CALA    HA  287   1.297   0.780   8.020 -1.3952 -0.3370  0.8707
  140CALA    CB  288   1.385   0.899   8.185 -0.8856  0.2089 -0.6281
  140CALA   HB1  289   1.352   0.849   8.277  0.8294 -1.4696 -0.8539
  140CALA   HB2  290   1.400   1.006   8.200  0.0310  0.0648 -0.4583
  140CALA   HB3  291   1.477   0.846   8.160 -1.8323 -0.4547 -2.9523
  140CALA     C  292   1.147   0.882   8.125  0.1348  0.0946  0.6088
  140CALA   OC1  293   1.109   0.993   8.162  0.9610  0.5129 -0.4724
  140CALA   OC2  294   1.074   0.783   8.119 -0.9621  0.9712 -0.0948
  141FAS      C  295   2.667   1.103   3.835 -0.3570 -0.0070 -0.6041
  141FAS     C1  296   2.740   0.966   3.862  0.9530  0.1390 -0.1523
  141FAS      N  297   2.706   0.874   3.981 -0.2280  0.1909 -0.1211
  141FAS     C2  298   2.580   0.804   3.961  0.0830 -0.2413 -0.0425
  141FAS     C3  299   2.444   0.881   3.953 -0.8104  0.9073  0.1642
  141FAS     N1  300   2.438   0.990   3.849 -0.0340 -0.3024 -0.3883
  141FAS     C4  301   2.524   1.108   3.890  0.5556  0.3258  0.0300
  141FAS      S  302   2.403   0.960   3.690  0.3024  0.3772 -0.2443
  141FAS      O  303   2.356   1.092   3.649 -0.1002 -0.4934  0.9926
  141FAS     O1  304   2.508   0.879   3.629 -0.0778 -0.3893 -0.6494
  141FAS     C5  305   2.253   0.860   3.713  0.2216  0.4628 -0.1937
  141FAS     C6  306   2.245   0.735   3.641 -0.0425 -0.6429 -0.4814
  141FAS     C7  307   2.134   0.657   3.649 -0.2675  0.6199 -0.0766
  141FAS     C8  308   2.029   0.691   3.732 -0.2864 -0.0673 -0.1690
  141FAS     C9  309   2.039   0.809   3.804  0.7160  0.7176  0.3673
  141FAS    C10  310   2.147   0.900   3.794 -0.2713  0.4515 -0.5702
  141FAS    C11  311   2.142   1.015   3.870  0.3658 -0.9249 -0.1146
  141FAS    C12  312   2.035   1.038   3.951 -0.2462 -0.2424 -0.2000
  141FAS     N2  313   1.929   0.958   3.963 -0.2688  0.3033  0.0851
  141FAS    C13  314   1.937   0.846   3.890  0.4603 -0.0266 -0.9045
  141FAS      H  315   2.676   1.125   3.728  4.5251  0.9958 -0.2285
  141FAS     H1  316   2.721   1.183   3.886 -1.3449 -0.7184  1.7254
  141FAS     H2  317   2.847   0.987   3.860  1.1629 -0.7964  0.5235
  141FAS     H3  318   2.723   0.912   3.768  0.7168  2.9359 -1.8257
  141FAS     H4  319   2.787   0.811   3.982  2.1248  2.9777 -0.2113
  141FAS     H5  320   2.574   0.740   4.049  0.6260  0.5980  0.6122
  141FAS     H6  321   2.588   0.747   3.868 -0.4345  1.2435 -1.0352
  141FAS     H7  322   2.413   0.934   4.045 -0.1585 -0.5814  1.2861
  141FAS     H8  323   2.362   0.808   3.945 -0.7312  0.7760  0.5295
  141FAS     H9  324   2.525   1.106   3.999  2.0858 -0.6799  0.0201
  141FAS    H10  325   2.480   1.206   3.870 -0.5746 -0.1883 -0.1360
  141FAS    H11  326   2.335   0.705   3.587 -1.3523 -0.6002 -2.7699
  141FAS    H12  327   2.138   0.561   3.599  0.1605  1.1039 -1.0150
  141FAS    H13  328   1.944   0.625   3.751  1.1876 -1.0209  4.6569
  141FAS    H14  329   2.217   1.094   3.866  2.7883 -3.1702 -2.1421
  141FAS    H15  330   2.040   1.121   4.022  2.9405  0.1459 -0.7288
  141FAS    H16  331   1.853   0.777   3.901  1.0415 -0.4844  0.9091
  141FAS    H17  332   2.715   0.927   4.068  1.9917 -1.5660  0.8205
  142SOL     OW  333   3.082   6.407   2.149  0.2576  0.2211  0.0408
  142SOL    HW2  334   3.020   6.368   2.211 -0.6664  1.8220  0.1970
  142SOL    HW3  335   3.034   6.411   2.066  1.1249 -0.9673 -0.5385
  142SOL    MW4  336   3.067   6.403   2.146 -0.9038  0.5773 -0.0330
  143SOL     OW  337   5.777   3.220   4.578  0.0739  0.4432  0.4248
  143SOL    HW2  338   5.703   3.159   4.579 -0.5958  1.2153 -0.1582
  143SOL    HW3  339   5.740   3.301   4.542  1.0521  1.0480  0.7531
  143SOL    MW4  340   5.762   3.223   4.573  0.1549 -0.2003  0.3092
  144SOL     OW  341   2.977   4.747   2.841 -0.6016 -0.4825 -0.1310
  144SOL    HW2  342   3.036   4.737   2.917 -1.6377 -1.3336  0.5904
  144SOL    HW3  343   3.036   4.756   2.766  0.4567  0.7545  0.8011
  144SOL    MW4  344   2.993   4.747   2.841  0.5014  0.0279 -0.1925
  145SOL     OW  345   3.750   1.886   1.665  0.5892  0.4933  0.0842
  145SOL    HW2  346   3.841   1.858   1.668 -0.4806 -3.6218  1.2362
  145SOL    HW3  347   3.730   1.913   1.754  0.0819 -1.3123  0.5639
  145SOL    MW4  348   3.759   1.886   1.677  0.3852 -0.0485  0.2172
  146SOL     OW  349   5.478   5.988   0.144 -0.3215 -0.3078  0.1176
  146SOL    HW2  350   5.498   5.943   0.062 -0.6214 -0.6825  0.2476
  146SOL    HW3  351   5.386   5.967   0.161 -1.7827  3.5837 -1.8750
  146SOL    MW4  352   5.469   5.979   0.136  0.1057 -0.4247 -0.0165
  147SOL     OW  353   3.886   1.620   2.605  0.2922 -0.1984 -0.5575
  147SOL    HW2  354   3.921   1.532   2.619 -1.4273 -0.8245  0.0136
  147SOL    HW3  355   3.868   1.624   2.511  1.3780 -0.0341 -0.7775
  147SOL    MW4  356   3.888   1.609   2.595  0.1132 -0.9225  0.6933
  148SOL     OW  357   3.618   4.558   5.661  0.4267 -0.0180  0.6062
  148SOL    HW2  358   3.586   4.645   5.685  2.1875  0.2735  2.1736
  148SOL    HW3  359   3.699   4.575   5.612 -0.7963 -0.7597 -1.8065
  148SOL    MW4  360   3.625   4.572   5.658  0.3681  0.3249  0.5299
  149SOL     OW  361   0.517   4.615   1.086 -0.2934  0.0003  0.5428
  149SOL    HW2  362   0.539   4.576   1.171  0.4269 -0.5194  0.1325
  149SOL    HW3  363   0.422   4.619   1.085 -0.3104  0.1175  1.4206
  149SOL    MW4  364   0.508   4.611   1.097  0.0699  0.0125 -0.3714
  150SOL     OW  365   1.668   4.126   2.943 -0.6407 -0.4634 -0.4125
  150SOL    HW2  366   1.616   4.064   2.892 -1.2629  1.0223 -1.6608
  150SOL    HW3  367   1.759   4.100   2.928 -0.8877 -1.1155 -0.8248
  150SOL    MW4  368   1.673   4.114   2.935 -0.1500  0.1974  0.1949
  151SOL     OW  369   0.827   0.937   5.306  0.6273 -0.1131 -0.2065
  151SOL    HW2  370   0.753   0.934   5.367  1.4122 -0.5630  0.7641
  151SOL    HW3  371   0.796   0.990   5.233 -0.9445 -1.0099 -0.2298
  151SOL    MW4  372   0.813   0.944   5.305 -0.3184 -0.1651  0.3813
  152SOL     OW  373   3.773   1.525   1.497 -0.0138 -0.0129  0.5889
  152SOL    HW2  374   3.745   1.435   1.516 -1.1837  0.5008  1.4582
  152SOL    HW3  375   3.802   1.559   1.582  2.4542 -0.2127 -0.1082
  152SOL    MW4  376   3.773   1.518   1.511  0.6801 -0.3444  0.0948
  153SOL     OW  377   5.082   5.039   3.785 -0.2041  0.0952  0.0405
  153SOL    HW2  378   5.018   5.105   3.757 -1.1618 -0.9371 -0.2552
  153SOL    HW3  379   5.134   5.021   3.707 -1.4967 -1.2259 -0.5519
  153SOL    MW4  380   5.080   5.045   3.771  0.2846  0.3508  0.2413
  154SOL     OW  381   1.487   5.409   1.917  0.4175 -0.3771 -0.2021
  154SOL    HW2  382   1.440   5.339   1.962  0.4744 -0.6495 -0.5652
  154SOL    HW3  383   1.439   5.421   1.834  0.9497 -0.6135 -0.5463
  154SOL    MW4  384   1.474   5.402   1.912  0.1631 -0.0527 -0.3460
  155SOL     OW  385   5.452   5.802   2.125  0.2745 -0.2255 -0.4987
  155SOL    HW2  386   5.417   5.722   2.164 -1.4873 -0.7277 -2.8625
  155SOL    HW3  387   5.433   5.870   2.190  1.0846 -1.5474  1.2116
  155SOL    MW4  388   5.445   5.801   2.139 -0.4446  0.0260 -0.7096
  156SOL     OW  389   3.562   5.501   0.864 -0.3826  0.2244 -0.2866
  156SOL    HW2  390   3.539   5.579   0.914 -1.8936 -0.5002  0.2157
  156SOL    HW3  391   3.658   5.500   0.863 -0.3436  1.6889  0.3024
  156SOL    MW4  392   3.572   5.511   0.871 -0.1572  0.2767  0.3336
  157SOL     OW  393   0.012   5.495   6.339 -0.1283  0.4493 -0.6669
  157SOL    HW2  394  -0.055   5.516   6.403 -0.2864 -0.1525 -0.6347
  157SOL    HW3  395   0.095   5.518   6.382 -0.2313  0.0354 -0.2459
  157SOL    MW4  396   0.014   5.501   6.353  0.1476 -0.5408 -0.2429
  158SOL     OW  397   0.730   1.453   2.116 -0.8448 -0.4931  0.0806
  158SOL    HW2  398   0.645   1.416   2.091 -1.2014  0.9732 -1.0199
  158SOL    HW3  399   0.747   1.520   2.049  0.6646 -0.0232  0.9074
  158SOL    MW4  400   0.721   1.457   2.104  0.7225 -0.6831  0.3994
  159SOL     OW  401   0.012   5.125   4.525  0.4201 -0.1200  0.2985
  159SOL    HW2  402  -0.082   5.143   4.522  0.6861  1.3223 -0.1223
  159SOL    HW3  403   0.035   5.102   4.435  0.9698  2.4696 -0.2936
  159SOL    MW4  404   0.002   5.124   4.513  0.7239  0.1296 -0.3397
  160SOL     OW  405   3.377   4.990   1.402 -0.4241 -0.1578 -0.2398
  160SOL    HW2  406   3.444   5.017   1.465 -2.3755 -0.4523  2.1300
  160SOL    HW3  407   3.373   4.895   1.411 -1.3789 -0.1088 -0.1046
  160SOL    MW4  408   3.385   4.981   1.411  0.2053 -0.2404  0.3904
  161SOL     OW  409   2.017   1.890   0.418  0.0269 -0.1519  0.2634
  161SOL    HW2  410   2.112   1.878   0.423 -0.0909 -1.4541 -0.3970
  161SOL    HW3  411   1.981   1.812   0.460 -0.7499 -0.6874 -1.3440
  161SOL    MW4  412   2.025   1.878   0.424  0.6728 -0.6375 -0.6458
  162SOL     OW  413   2.844   4.839   3.992  0.1076 -0.1009  0.1954
  162SOL    HW2  414   2.820   4.916   4.042  0.1107 -0.0642  0.1406
  162SOL    HW3  415   2.893   4.873   3.917  0.0936 -0.1546  0.1615
  162SOL    MW4  416   2.847   4.854   3.988  0.0745 -0.1352  0.0725
  163SOL     OW  417   3.299   3.690   4.772  0.1383 -0.5871 -0.5315
  163SOL    HW2  418   3.225   3.718   4.826  0.4681  0.0162 -0.3819
  163SOL    HW3  419   3.334   3.614   4.818  0.1940 -0.2983 -0.0829
  163SOL    MW4  420   3.294   3.684   4.785  0.4950 -0.0168 -0.4938
  164SOL     OW  421   0.046   3.141   2.139 -0.3426  0.3107 -0.5693
  164SOL    HW2  422   0.045   3.220   2.193  0.6091 -0.2586  0.3171
  164SOL    HW3  423  -0.020   3.157   2.072 -0.2596  1.7989 -0.3293
  164SOL    MW4  424   0.037   3.154   2.137  0.0840  0.5315 -0.9334
  165SOL     OW  425   3.563   3.578   2.422  0.3442  0.4517 -0.1010
  165SOL    HW2  426   3.632   3.524   2.383 -0.3869 -1.8189  1.5899
  165SOL    HW3  427   3.511   3.518   2.475 -1.1257  2.6561  1.1341
  165SOL    MW4  428   3.565   3.563   2.424 -0.1901  0.3090 -0.7925
  166SOL     OW  429   0.932   3.534   4.028 -0.1153  0.3527 -0.1827
  166SOL    HW2  430   0.907   3.529   4.120  0.8600  1.3616  0.1527
  166SOL    HW3  431   0.981   3.616   4.021  0.3200 -0.0039 -1.4771
  166SOL    MW4  432   0.935   3.544   4.039 -0.1854  0.1760 -0.4040
  167SOL     OW  433   0.504   4.500   3.065  0.8020 -0.2118 -0.4645
  167SOL    HW2  434   0.578   4.538   3.017  0.7004  0.5410 -0.0236
  167SOL    HW3  435   0.460   4.445   3.000  0.0708  1.5706 -1.5599
  167SOL    MW4  436   0.508   4.497   3.050 -0.4058  0.9337 -0.1742
  168SOL     OW  437   0.164   0.837   3.933  0.2251  0.3674  0.8426
  168SOL    HW2  438   0.203   0.855   4.019 -1.1278 -1.6511  1.9517
  168SOL    HW3  439   0.137   0.745   3.937 -2.1203  0.8743 -0.8224
  168SOL    MW4  440   0.165   0.828   3.945  0.0083 -0.7017  0.0029
  169SOL     OW  441   2.060   0.415   2.112 -0.0830  0.7111 -0.0770
  169SOL    HW2  442   1.990   0.473   2.083 -0.7259 -0.2291 -0.4494
  169SOL    HW3  443   2.104   0.388   2.031 -1.4407 -1.3604 -0.2123
  169SOL    MW4  444   2.056   0.419   2.097  0.0924 -0.2257 -0.5997
  170SOL     OW  445   2.382   0.468   6.396 -0.2005 -0.0679  0.0177
  170SOL    HW2  446   2.473   0.491   6.375 -0.5687  2.3638  0.7619
  170SOL    HW3  447   2.383   0.449   6.489 -0.4283 -0.1989 -0.0075
  170SOL    MW4  448   2.394   0.469   6.405 -0.5965  0.2797 -0.2150
  171SOL     OW  449   0.282   3.992   2.687  0.3325  0.2470  0.0888
  171SOL    HW2  450   0.337   4.014   2.612 -1.0985  1.5915 -0.6384
  171SOL    HW3  451   0.207   4.051   2.680 -0.7352 -0.8384  1.5790
  171SOL    MW4  452   0.279   4.003   2.676 -0.1238 -0.5637 -0.0162
  172SOL     OW  453   2.762   1.747   3.282 -0.0207 -0.0680  0.4249
  172SOL    HW2  454   2.673   1.716   3.304  0.2317 -1.1292  0.0300
  172SOL    HW3  455   2.812   1.733   3.362 -0.4296  1.5429  1.0052
  172SOL    MW4  456   2.757   1.741   3.296 -0.4080 -0.7600  0.3484
  173SOL     OW  457   6.263   4.160   0.086 -0.0343 -0.4454  0.1191
  173SOL    HW2  458   6.263   4.251   0.057 -1.1090 -1.0031 -1.8680
  173SOL    HW3  459   6.259   4.165   0.181  2.1367  1.5561  0.1849
  173SOL    MW4  460   6.262   4.173   0.095  0.6949  0.4500 -0.4716
  174SOL     OW  461   0.581   4.036   0.868 -0.7926  0.1682  0.1484
  174SOL    HW2  462   0.513   4.045   0.801 -0.9410  0.8431  0.3822
  174SOL    HW3  463   0.612   4.125   0.882 -1.6345  0.2354  1.8811
  174SOL    MW4  464   0.576   4.049   0.861 -0.0278 -0.1228 -0.7608
  175SOL     OW  465   3.897   3.612   0.780  0.3861 -0.0001 -0.4056
  175SOL    HW2  466   3.968   3.586   0.840  1.7537 -1.3356 -2.4568
  175SOL    HW3  467   3.873   3.700   0.808  1.9574 -0.0139  1.1902
  175SOL    MW4  468   3.904   3.620   0.792  0.8370 -0.3996 -0.1984
  176SOL     OW  469   2.709   2.005   1.135  0.6253  0.1106  0.5026
  176SOL    HW2  470   2.671   2.085   1.171  0.4214  0.5264 -0.5899
  176SOL    HW3  471   2.676   2.001   1.045  2.9178  0.3555 -0.4233
  176SOL    MW4  472   2.700   2.015   1.128 -0.4729  0.6390  0.2056
  177SOL     OW  473   0.553   2.707   3.306  0.1250  1.0789  0.2540
  177SOL    HW2  474   0.602   2.734   3.228 -0.9200  0.8709 -0.4872
  177SOL    HW3  475   0.561   2.781   3.366  1.7566  0.8573  0.3549
  177SOL    MW4  476   0.561   2.720   3.304 -0.0098  0.3032  0.0701
  178SOL     OW  477   3.535   1.836   6.406 -0.0504  0.0743 -0.3305
  178SOL    HW2  478   3.581   1.807   6.484 -1.1364 -0.8295 -0.0066
  178SOL    HW3  479   3.600   1.827   6.335 -0.5896 -4.4225 -0.4993
  178SOL    MW4  480   3.550   1.831   6.407 -0.4706 -0.3304 -0.6089
  179SOL     OW  481   0.171   5.918   6.382 -0.4987  0.0756 -0.4692
  179SOL    HW2  482   0.214   5.900   6.465  0.3686  2.3819 -0.3305
  179SOL    HW3  483   0.084   5.950   6.406 -0.3927  0.3625 -0.4639
  179SOL    MW4  484   0.165   5.920   6.396 -0.2203  0.5166  0.9725
  180SOL     OW  485   3.164   3.913   3.190  0.0087 -0.1918 -0.8825
  180SOL    HW2  486   3.112   3.861   3.252  0.6243  0.0850 -0.1187
  180SOL    HW3  487   3.129   3.889   3.104 -0.8710 -0.5771 -0.4342
  180SOL    MW4  488   3.153   3.903   3.187  0.1083  0.1222  0.1894
  181SOL     OW  489   3.549   4.789   6.160 -0.2412  0.4378 -0.0642
  181SOL    HW2  490   3.546   4.694   6.173  1.9541  0.1810 -0.9943
  181SOL    HW3  491   3.472   4.808   6.105 -0.0906 -0.9806 -0.8159
  181SOL    MW4  492   3.538   4.779   6.154  0.2210  0.0398 -0.4209
  182SOL     OW  493   2.942   5.583   5.234  0.6341 -0.1107 -0.6380
  182SOL    HW2  494   2.961   5.494   5.262  1.0921  0.2298  0.1680
  182SOL    HW3  495   3.003   5.638   5.284 -1.1003  0.8473  0.5512
  182SOL    MW4  496   2.953   5.579   5.244  0.0181 -0.6615  0.2264
  183SOL     OW  497   0.280   1.957   2.790  0.1804 -0.4857 -0.1238
  183SOL    HW2  498   0.191   1.959   2.824 -0.3130  0.6081 -1.3501
  183SOL    HW3  499   0.296   1.865   2.767  0.3540 -1.1612  2.4314
  183SOL    MW4  500   0.271   1.945   2.791 -0.2368 -0.0869  0.2886
  184SOL     OW  501   1.428   2.595   4.395  0.1287  0.2253 -0.0368
  184SOL    HW2  502   1.474   2.520   4.432 -1.8710 -0.7177  0.6595
  184SOL    HW3  503   1.335   2.576   4.409 -0.4488  2.7716  0.0358
  184SOL    MW4  504   1.422   2.583   4.402  0.1696 -0.3863  0.1437
  185SOL     OW  505   4.245   3.389   5.662 -0.6106 -0.3985  0.2484
  185SOL    HW2  506   4.212   3.393   5.752 -0.3826  0.5834  0.3020
  185SOL    HW3  507   4.167   3.393   5.607 -0.6787  0.5437  0.3938
  185SOL    MW4  508   4.230   3.390   5.667  0.5581 -0.2497 -0.1610
  186SOL     OW  509   4.336   2.523   0.456  0.2025 -0.1808  0.0222
  186SOL    HW2  510   4.363   2.606   0.495  0.9433 -0.3309 -0.1740
  186SOL    HW3  511   4.408   2.463   0.473 -0.1746 -0.6964 -0.1496
  186SOL    MW4  512   4.349   2.526   0.464  0.4878 -0.1304  0.3996
  187SOL     OW  513   3.615   5.666   6.052  0.5037 -0.3985 -0.2250
  187SOL    HW2  514   3.604   5.733   6.120 -0.0872 -0.3498 -0.3635
  187SOL    HW3  515   3.692   5.617   6.079  2.1792  1.5902 -1.1747
  187SOL    MW4  516   3.624   5.668   6.065  0.4871 -0.2164 -0.2030
  188SOL     OW  517   5.416   1.394   3.096 -0.8714  0.3210 -0.5410
  188SOL    HW2  518   5.433   1.377   3.189  1.4442 -0.1636 -0.9975
  188SOL    HW3  519   5.448   1.483   3.081 -1.9351  0.6871 -0.7470
  188SOL    MW4  520   5.422   1.404   3.106 -0.2988  0.0522  0.0762
  189SOL     OW  521   1.061   1.971   4.569  0.1392  0.9537  0.1629
  189SOL    HW2  522   0.998   1.967   4.497  0.2457  0.0156  0.1117
  189SOL    HW3  523   1.145   1.982   4.526  0.3296 -0.6699  0.0597
  189SOL    MW4  524   1.063   1.972   4.554  0.0033  0.1367 -0.4927
  190SOL     OW  525   4.118   0.449   3.748 -0.5205  0.4242 -0.3475
  190SOL    HW2  526   4.163   0.417   3.826  1.1970  1.5238 -0.8360
  190SOL    HW3  527   4.031   0.409   3.752  1.1269 -3.6049 -0.4664
  190SOL    MW4  528   4.113   0.439   3.758 -0.0123  0.4046 -0.0039
  191SOL     OW  529   0.350   3.372   3.065  0.2911 -0.1243  0.0889
  191SOL    HW2  530   0.338   3.467   3.074  1.7803 -0.0203  1.4653
  191SOL    HW3  531   0.444   3.359   3.078  0.4434 -1.6199 -2.0329
  191SOL    MW4  532   0.361   3.383   3.068  0.0235  0.3892 -0.1491
  192SOL     OW  533   0.600   5.058   4.885  0.7871 -0.0575 -0.5619
  192SOL    HW2  534   0.633   5.147   4.901  0.0106  0.2207 -0.4427
  192SOL    HW3  535   0.587   5.054   4.791  0.0298  0.2529 -0.4780
  192SOL    MW4  536   0.603   5.070   4.875 -0.5238 -0.1807 -0.0651
  193SOL     OW  537   6.293   4.955   1.727  0.0358 -0.6868  0.2136
  193SOL    HW2  538   6.365   4.938   1.667  0.0641 -0.6702  0.2428
  193SOL    HW3  539   6.284   4.874   1.778  0.8230 -0.2743  1.0309
  193SOL    MW4  540   6.301   4.942   1.726 -0.5968 -0.0650  0.2973
  194SOL     OW  541   3.978   6.342   0.695 -0.3037 -0.1801  0.2255
  194SOL    HW2  542   3.989   6.363   0.602 -0.3238  0.9364  0.4639
  194SOL    HW3  543   4.056   6.292   0.718 -0.2534 -0.3774 -0.3698
  194SOL    MW4  544   3.989   6.338   0.686  0.4371  0.4159 -0.6178
  195SOL     OW  545   4.312   1.921   0.309 -0.6757 -0.1186  0.2523
  195SOL    HW2  546   4.254   1.987   0.348 -0.6701  0.1846 -0.2463
  195SOL    HW3  547   4.266   1.892   0.231 -1.3760 -1.7977  1.2358
  195SOL    MW4  548   4.298   1.926   0.304  0.2008 -0.2317 -0.7224
  196SOL     OW  549   1.678   5.416   5.737 -0.3842  0.0418 -0.1645
  196SOL    HW2  550   1.750   5.386   5.681 -0.6488  0.8559 -0.9602
  196SOL    HW3  551   1.689   5.366   5.819  2.3049  1.5706  0.5311
  196SOL    MW4  552   1.689   5.405   5.741 -0.6829  0.4740 -0.1785
  197SOL     OW  553   4.943   1.287   4.638 -0.8852 -0.3640  0.7010
  197SOL    HW2  554   4.864   1.341   4.632 -0.5318  0.0706 -0.2616
  197SOL    HW3  555   4.995   1.328   4.708 -1.0154  0.0245  0.5757
  197SOL    MW4  556   4.940   1.300   4.646  0.0042 -0.0169 -0.3756
  198SOL     OW  557   4.684   3.393   1.014 -0.1067  0.2317  0.7481
  198SOL    HW2  558   4.711   3.474   1.058  2.2995 -0.5432  0.8478
  198SOL    HW3  559   4.692   3.413   0.920  1.2396 -0.0759  0.7773
  198SOL    MW4  560   4.689   3.406   1.007 -0.6163 -0.5374 -0.1977
  199SOL     OW  561   0.084   2.722   1.239 -0.0902  0.1371 -0.1061
  199SOL    HW2  562   0.053   2.710   1.328 -1.4413 -0.2374 -0.6043
  199SOL    HW3  563   0.095   2.817   1.230 -0.6606  0.2375  0.2279
  199SOL    MW4  564   0.082   2.733   1.249 -0.9725 -0.0044 -0.1767
  200SOL     OW  565   5.884   2.983   0.333  0.2254 -0.3333 -0.4894
  200SOL    HW2  566   5.933   2.918   0.383  1.1622  2.8761  3.2533
  200SOL    HW3  567   5.793   2.971   0.361 -0.2591 -2.1490 -2.5558
  200SOL    MW4  568   5.878   2.972   0.344 -0.1590  0.0772 -0.0812
  201SOL     OW  569   2.579   5.867   4.488 -0.0143  0.5248 -0.0956
  201SOL    HW2  570   2.490   5.902   4.485 -0.2909 -0.2210 -1.2114
  201SOL    HW3  571   2.588   5.833   4.576 -1.0600  0.0587 -0.1481
  201SOL    MW4  572   2.568   5.867   4.499  0.0994  0.4441 -0.0156
  202SOL     OW  573   2.858   3.730   5.793  0.2034  0.2044 -0.3099
  202SOL    HW2  574   2.825   3.652   5.748  0.0661  1.4699 -2.4846
  202SOL    HW3  575   2.781   3.784   5.807  0.4806  0.4961  0.1014
  202SOL    MW4  576   2.844   3.727   5.789  0.5374 -0.1101 -0.3616
  203SOL     OW  577   3.593   4.855   1.779 -0.2445 -0.4721 -0.3244
  203SOL    HW2  578   3.578   4.937   1.733 -0.4833 -1.3743 -1.9050
  203SOL    HW3  579   3.687   4.855   1.798 -0.1722 -0.0233 -0.6756
  203SOL    MW4  580   3.603   4.866   1.776  0.5661  0.5153 -0.0076
  204SOL     OW  581   5.609   2.944   0.872  0.5030  0.0562  0.5260
  204SOL    HW2  582   5.672   2.875   0.894  2.0395  1.1664 -0.1928
  204SOL    HW3  583   5.622   3.010   0.940 -0.9330 -0.3155  1.1891
  204SOL    MW4  584   5.619   2.943   0.884 -0.1988  0.2185 -0.0136
  205SOL     OW  585   5.159   4.782   4.503  0.1003 -0.3674 -0.2093
  205SOL    HW2  586   5.101   4.856   4.481  0.9157  0.8731  1.5113
  205SOL    HW3  587   5.195   4.754   4.420 -0.6903  0.8185 -0.9881
  205SOL    MW4  588   5.156   4.788   4.489  0.3575  0.3181 -0.0623
  206SOL     OW  589   1.028   0.506   4.025 -0.3601 -0.3016  0.3534
  206SOL    HW2  590   1.043   0.597   4.049 -0.0999 -0.9831  3.0840
  206SOL    HW3  591   1.114   0.464   4.036 -0.4023 -0.8751 -1.1751
  206SOL    MW4  592   1.042   0.512   4.030  0.3741 -0.5344 -0.3802
  207SOL     OW  593   5.247   5.402   5.461 -0.1591 -0.5014  0.4627
  207SOL    HW2  594   5.166   5.366   5.496 -0.9210  0.9160  0.2404
  207SOL    HW3  595   5.221   5.445   5.380  0.2957  2.1046  1.5911
  207SOL    MW4  596   5.233   5.403   5.455 -0.7713 -0.3043 -0.3963
  208SOL     OW  597   3.152   5.257   1.298  0.4038 -0.4451 -0.4117
  208SOL    HW2  598   3.113   5.332   1.253  1.4530  0.1960 -0.2790
  208SOL    HW3  599   3.128   5.182   1.244  0.0330  0.0800 -0.9951
  208SOL    MW4  600   3.144   5.257   1.285 -0.1764  0.5077  0.3251
  209SOL     OW  601   2.261   6.338   4.056  0.2434  0.2298 -0.3694
  209SOL    HW2  602   2.243   6.417   4.005  2.2996 -0.0017 -1.5412
  209SOL    HW3  603   2.327   6.365   4.119 -0.2973 -0.1692  0.3859
  209SOL    MW4  604   2.267   6.352   4.058  0.3243  0.2785 -0.5864
  210SOL     OW  605   4.875   4.481   4.749 -0.0526  0.1731  0.2862
  210SOL    HW2  606   4.868   4.564   4.703  3.2976  0.7385  0.5998
  210SOL    HW3  607   4.962   4.482   4.788  0.4773 -3.8507 -0.3947
  210SOL    MW4  608   4.885   4.492   4.748 -0.1294  0.0645 -0.0699
  211SOL     OW  609   5.909   0.813   1.331  0.1394  0.3298  0.0697
  211SOL    HW2  610   5.926   0.906   1.312  0.4164  0.3744  0.5160
  211SOL    HW3  611   5.933   0.803   1.423 -1.2267  0.1350  0.4189
  211SOL    MW4  612   5.915   0.824   1.341  0.0803 -0.6848  0.2219
  212SOL     OW  613   3.158   5.343   3.479  0.0566 -0.3516  0.1467
  212SOL    HW2  614   3.178   5.419   3.534 -0.9011 -0.3716  0.5525
  212SOL    HW3  615   3.123   5.278   3.540  1.0163 -1.1947 -0.1750
  212SOL    MW4  616   3.156   5.345   3.494  0.3185  0.1668 -0.1075
  213SOL     OW  617   2.631   3.146   0.195 -0.2921 -0.0564  0.1475
  213SOL    HW2  618   2.598   3.115   0.279 -1.4381 -0.5906 -0.4654
  213SOL    HW3  619   2.569   3.111   0.131 -0.0706  1.2538 -0.8278
  213SOL    MW4  620   2.618   3.137   0.198 -0.0389 -0.6347  0.2392
  214SOL     OW  621   0.222   2.888   5.458 -0.3558 -0.2945  0.6640
  214SOL    HW2  622   0.310   2.857   5.437 -0.1228  0.1829  0.9271
  214SOL    HW3  623   0.231   2.932   5.543 -0.4193  1.5205 -0.2066
  214SOL    MW4  624   0.234   2.890   5.467  0.4318  0.2604 -0.7447
  215SOL     OW  625   2.091   6.255   3.139 -0.3224 -0.0631 -0.3598
  215SOL    HW2  626   2.054   6.330   3.093  0.2380 -0.2372 -1.1154
  215SOL    HW3  627   2.022   6.189   3.139 -0.7027  0.3342  0.0178
  215SOL    MW4  628   2.077   6.256   3.133  0.3186 -0.0405  0.8143
  216SOL     OW  629   6.224   1.179   3.836  0.1034  0.2921  0.4412
  216SOL    HW2  630   6.310   1.141   3.855 -0.3386  0.0824  2.2558
  216SOL    HW3  631   6.173   1.161   3.915 -1.7928 -0.0966 -0.8118
  216SOL    MW4  632   6.229   1.171   3.849 -0.3837 -0.0848  0.2721
  217SOL     OW  633   1.264   0.790   2.819 -1.1062  0.0019 -0.1427
  217SOL    HW2  634   1.328   0.779   2.890 -1.7802  0.8415  0.6245
  217SOL    HW3  635   1.251   0.702   2.784 -1.7334 -0.6594  1.6505
  217SOL    MW4  636   1.271   0.777   2.824 -0.0350 -0.4385  0.9662
  218SOL     OW  637   2.968   3.386   4.916  0.2844  0.0339 -0.0657
  218SOL    HW2  638   3.030   3.314   4.900 -0.9426 -0.8441 -1.1361
  218SOL    HW3  639   3.007   3.436   4.988  1.4723 -1.3590  0.3118
  218SOL    MW4  640   2.981   3.383   4.924  0.3034 -0.4772 -0.2893
  219SOL     OW  641   3.325   0.396   0.825 -0.1968  0.4303  0.2110
  219SOL    HW2  642   3.261   0.411   0.756  0.6338  0.3960 -0.5819
  219SOL    HW3  643   3.283   0.333   0.884  0.2170 -1.9044 -1.8574
  219SOL    MW4  644   3.311   0.390   0.824  0.5222 -0.4388  0.1192
  220SOL     OW  645   4.095   2.906   4.282  0.0062  0.8623  0.3173
  220SOL    HW2  646   4.144   2.902   4.364 -0.9554 -0.9590  0.8572
  220SOL    HW3  647   4.162   2.920   4.215  0.8653  1.7946  1.3423
  220SOL    MW4  648   4.110   2.907   4.284 -0.2074 -0.0190 -0.3114
  221SOL     OW  649   5.086   0.479   1.922  1.0686 -0.0886 -0.2689
  221SOL    HW2  650   5.031   0.555   1.903 -0.5411 -0.8541  1.0377
  221SOL    HW3  651   5.113   0.491   2.013  1.4809 -0.6771 -0.3056
  221SOL    MW4  652   5.082   0.490   1.932 -0.3882  0.3680  0.9329
  222SOL     OW  653   3.963   6.245   3.234 -0.3423 -0.4112  0.3349
  222SOL    HW2  654   4.055   6.222   3.215 -0.8184 -1.8899 -0.3650
  222SOL    HW3  655   3.916   6.162   3.226 -1.7300  0.2893  0.8901
  222SOL    MW4  656   3.969   6.231   3.231  0.3124 -0.4056  0.3088
  223SOL     OW  657   3.218   6.079   3.081 -0.4205  0.5092 -0.0626
  223SOL    HW2  658   3.133   6.089   3.124 -0.7482  1.8810 -0.9538
  223SOL    HW3  659   3.247   6.169   3.065  0.1249  0.0547 -1.8159
  223SOL    MW4  660   3.211   6.092   3.085  0.1553  0.5256 -0.0613
  224SOL     OW  661   3.015   1.615   2.467  0.4213  0.1902 -0.8241
  224SOL    HW2  662   2.995   1.534   2.420 -3.2203  0.9011 -0.7295
  224SOL    HW3  663   2.998   1.685   2.403  0.2893  0.9860  0.0645
  224SOL    MW4  664   3.010   1.614   2.452 -0.1311 -0.1155 -0.1656
  225SOL     OW  665   5.872   1.097   2.471  0.0278  0.6397 -0.0239
  225SOL    HW2  666   5.802   1.104   2.536  0.1601 -0.1002  0.1975
  225SOL    HW3  667   5.927   1.174   2.488 -0.3881  0.8971  0.1944
  225SOL    MW4  668   5.870   1.108   2.482 -0.3000 -0.1554  0.2304
  226SOL     OW  669   4.267   5.086   5.344  0.6316 -0.4719  0.7749
  226SOL    HW2  670   4.277   5.044   5.430  1.1905 -0.5411  0.6797
  226SOL    HW3  671   4.291   5.177   5.359  2.2225 -0.7969  0.3886
  226SOL    MW4  672   4.271   5.092   5.358  0.5747  0.7486  0.2586
  227SOL     OW  673   1.877   4.394   5.537 -0.3572  0.4637  0.0692
  227SOL    HW2  674   1.922   4.412   5.620 -0.2601 -0.1902  0.1670
  227SOL    HW3  675   1.943   4.352   5.483 -0.7100 -0.0537  0.0335
  227SOL    MW4  676   1.892   4.391   5.541  0.1516  0.4234  0.4449
  228SOL     OW  677   4.678   5.957   1.695 -0.9024 -0.4560  0.3183
  228SOL    HW2  678   4.644   5.940   1.783 -2.2671 -1.6942 -0.3981
  228SOL    HW3  679   4.758   5.904   1.689  1.0768  2.1195  1.8568
  228SOL    MW4  680   4.684   5.947   1.706 -0.3363 -0.0832  0.2524
  229SOL     OW  681   4.038   1.465   1.346 -0.7050 -0.1549  0.3659
  229SOL    HW2  682   4.067   1.540   1.293 -0.8375 -0.3722 -0.0232
  229SOL    HW3  683   3.952   1.492   1.379 -0.6151 -0.0109  0.4842
  229SOL    MW4  684   4.030   1.479   1.343 -0.3863  0.0491  0.3939
  230SOL     OW  685   0.720   5.904   5.563 -0.3198  0.1188  0.0765
  230SOL    HW2  686   0.691   5.850   5.637  0.3221  0.2002  0.4022
  230SOL    HW3  687   0.705   5.994   5.593  0.5074  0.1712  0.3668
  230SOL    MW4  688   0.714   5.908   5.577 -0.0219 -0.2217 -0.3917
  231SOL     OW  689   0.906   2.551   4.118 -0.4276 -0.4929  0.0082
  231SOL    HW2  690   0.817   2.548   4.153 -1.0367  0.2271 -1.3996
  231SOL    HW3  691   0.955   2.604   4.181 -0.8330 -1.3711  1.0927
  231SOL    MW4  692   0.901   2.558   4.131 -0.5621  0.3540 -0.1776
  232SOL     OW  693   3.729   2.066   1.879  0.2908 -0.5314  0.1543
  232SOL    HW2  694   3.635   2.064   1.896  0.6646 -1.4886  2.6325
  232SOL    HW3  695   3.741   2.140   1.819 -2.0485 -0.5786 -0.4647
  232SOL    MW4  696   3.718   2.076   1.874 -0.1773 -0.3750  0.0189
  233SOL     OW  697   0.309   3.102   5.020  0.3857 -0.2262 -0.1641
  233SOL    HW2  698   0.271   3.039   4.958 -1.3100 -0.6547  1.2222
  233SOL    HW3  699   0.265   3.083   5.103  1.9123  0.9413  0.9701
  233SOL    MW4  700   0.298   3.091   5.023  0.2609  0.5707 -0.0414
  234SOL     OW  701   0.723   4.770   0.910  0.2055 -0.0760 -0.1164
  234SOL    HW2  702   0.667   4.723   0.971  1.9603 -0.0384  1.6139
  234SOL    HW3  703   0.684   4.857   0.903  0.9868  0.5687  2.5357
  234SOL    MW4  704   0.710   4.775   0.917 -0.5553 -0.4823 -0.5037
  235SOL     OW  705   5.364   4.693   3.539 -0.2021 -0.1236 -0.3304
  235SOL    HW2  706   5.419   4.725   3.467 -1.0205 -0.8447 -1.2942
  235SOL    HW3  707   5.294   4.644   3.497 -1.1992  0.1591  0.9144
  235SOL    MW4  708   5.362   4.691   3.524  0.3599 -0.0034 -0.0300
  236SOL     OW  709   4.991   6.117   6.013 -0.1788  0.5963 -0.4097
  236SOL    HW2  710   4.966   6.200   5.973 -0.2858  0.8572  0.1840
  236SOL    HW3  711   5.065   6.086   5.961 -0.0058  1.1698 -0.5074
  236SOL    MW4  712   4.997   6.124   6.001  0.1787 -0.4195 -0.0966
  237SOL     OW  713   6.304   2.998   5.387  0.2802 -0.2087 -0.6176
  237SOL    HW2  714   6.285   2.931   5.453  0.7774 -1.2739 -1.5031
  237SOL    HW3  715   6.381   3.044   5.420  0.5371 -0.7470 -0.4496
  237SOL    MW4  716   6.312   2.995   5.400 -0.4613  0.3315 -0.7439
  238SOL     OW  717   6.068   3.247   3.984  0.1801 -0.0931  0.1910
  238SOL    HW2  718   6.163   3.235   3.988  0.2370  0.6248  1.7929
  238SOL    HW3  719   6.057   3.342   3.982 -0.5054 -0.1786 -0.1955
  238SOL    MW4  720   6.079   3.258   3.984  0.0403  0.3348 -0.0124
  239SOL     OW  721   0.998   3.852   5.380  0.4030  0.0409 -0.0925
  239SOL    HW2  722   1.043   3.915   5.323  1.0261 -0.8998 -0.6531
  239SOL    HW3  723   0.969   3.905   5.455  3.8004  0.4955  1.1078
  239SOL    MW4  724   1.000   3.868   5.383  0.3921  0.0161 -0.2745
  240SOL     OW  725   2.697   6.272   5.477 -0.6682  0.2158 -0.2804
  240SOL    HW2  726   2.702   6.287   5.572  0.0748  0.0857 -0.2959
  240SOL    HW3  727   2.786   6.250   5.451 -0.7162  0.9825 -1.1413
  240SOL    MW4  728   2.709   6.271   5.486  0.3744 -0.0655  0.3871
  241SOL     OW  729   4.182   0.809   1.579 -0.1585 -0.1558 -0.4847
  241SOL    HW2  730   4.110   0.872   1.590 -0.0899  0.5862 -3.4412
  241SOL    HW3  731   4.261   0.858   1.601 -0.3547 -0.1963  0.3184
  241SOL    MW4  732   4.183   0.824   1.583  0.1113 -0.5772  0.6996
  242SOL     OW  733   4.375   1.986   3.571 -0.6237 -0.0313  0.2016
  242SOL    HW2  734   4.451   1.974   3.514 -0.4934  0.2915  0.3039
  242SOL    HW3  735   4.356   1.899   3.604  1.6624  0.2979  2.6754
  242SOL    MW4  736   4.383   1.973   3.568 -0.2961 -0.1005 -0.3135
  243SOL     OW  737   3.221   5.129   3.135 -0.5472  1.1302 -0.3396
  243SOL    HW2  738   3.248   5.185   3.208 -0.1543  0.8703 -0.2749
  243SOL    HW3  739   3.293   5.066   3.126 -1.1943  0.3291 -0.0851
  243SOL    MW4  740   3.234   5.128   3.144  0.4718  0.3542 -0.4669
  244SOL     OW  741   4.953   5.342   2.830 -0.7820 -0.0960  0.1698
  244SOL    HW2  742   4.878   5.386   2.870 -0.5624  1.4998 -1.0312
  244SOL    HW3  743   4.928   5.250   2.824 -1.8205  0.0698  1.5747
  244SOL    MW4  744   4.940   5.336   2.834 -0.2147 -0.8815 -0.0117
  245SOL     OW  745   1.416   3.236   0.924  0.4082  0.6029 -0.3219
  245SOL    HW2  746   1.434   3.255   0.832  0.6505 -1.1384 -0.6674
  245SOL    HW3  747   1.465   3.156   0.942 -1.8932 -0.6988  0.5187
  245SOL    MW4  748   1.425   3.228   0.914  0.0001  0.4332  0.7210
  246SOL     OW  749   3.969   5.959   0.410  0.3395 -0.4346 -0.1676
  246SOL    HW2  750   3.907   5.948   0.338  0.5028 -1.8987 -0.1276
  246SOL    HW3  751   3.922   6.010   0.475  0.5226  1.8182 -1.6782
  246SOL    MW4  752   3.955   5.964   0.409 -0.0866 -0.2894 -0.2964
  247SOL     OW  753   1.299   6.064   0.923 -0.8262  0.3017  0.3566
  247SOL    HW2  754   1.339   6.074   0.837 -4.0496 -0.7893 -1.4393
  247SOL    HW3  755   1.340   5.986   0.960 -0.1566  0.1708 -0.6395
  247SOL    MW4  756   1.310   6.055   0.917 -0.1839  0.3572 -0.1245
  248SOL     OW  757   4.130   3.579   1.786  0.0425 -0.5561  0.2642
  248SOL    HW2  758   4.044   3.547   1.816 -0.1047  0.0441  0.5091
  248SOL    HW3  759   4.161   3.633   1.859  0.2847 -0.1548 -0.1344
  248SOL    MW4  760   4.122   3.582   1.800  0.2064  0.5363 -0.1827
  249SOL     OW  761   4.536   1.386   0.953  0.0070 -0.0021  0.1196
  249SOL    HW2  762   4.621   1.389   0.910  1.3523 -0.5107  2.5794
  249SOL    HW3  763   4.505   1.296   0.939 -0.0972  0.1500 -0.6745
  249SOL    MW4  764   4.543   1.375   0.946 -0.3970 -0.3509 -0.4464
  250SOL     OW  765   5.359   1.993   1.916  0.9561 -0.1269 -0.0164
  250SOL    HW2  766   5.267   2.021   1.915  1.1056  0.3934  0.5011
  250SOL    HW3  767   5.366   1.935   1.840  0.0221 -0.7578  0.3648
  250SOL    MW4  768   5.348   1.989   1.906  0.0861  0.2313  0.0390
  251SOL     OW  769   6.371   1.337   0.316 -0.5379 -0.2237 -0.1194
  251SOL    HW2  770   6.462   1.308   0.312 -0.4003  0.2462 -0.6112
  251SOL    HW3  771   6.328   1.275   0.375 -0.1239 -1.0375 -0.6531
  251SOL    MW4  772   6.377   1.325   0.323  0.1148  0.4048 -0.5785
  252SOL     OW  773   4.708   3.106   1.022  0.0420 -0.6838 -0.2232
  252SOL    HW2  774   4.692   3.197   1.048 -0.7277 -1.4196  2.0203
  252SOL    HW3  775   4.730   3.113   0.929 -0.9055  1.7027 -0.3599
  252SOL    MW4  776   4.708   3.119   1.013 -0.2844 -0.2585  0.4370
  253SOL     OW  777   0.744   4.802   3.169  0.3340  0.5306 -0.2530
  253SOL    HW2  778   0.658   4.828   3.137 -0.0375  1.0511  1.1475
  253SOL    HW3  779   0.754   4.712   3.138 -0.3156  0.7703 -1.1975
  253SOL    MW4  780   0.734   4.793   3.160  0.3577  0.1793 -0.1311
  254SOL     OW  781   3.979   4.286   1.042  0.1772  0.0506 -0.0551
  254SOL    HW2  782   3.963   4.330   1.126  0.0846 -0.4017  0.1686
  254SOL    HW3  783   3.920   4.211   1.043  2.3393 -1.7284  0.8311
  254SOL    MW4  784   3.969   4.282   1.053  1.0629  0.0548  0.3893
  255SOL     OW  785   5.150   1.601   4.558 -0.0959  0.1881  0.1020
  255SOL    HW2  786   5.230   1.570   4.601 -0.5284 -1.3557 -0.1337
  255SOL    HW3  787   5.154   1.696   4.566  0.6752  0.0443  2.0221
  255SOL    MW4  788   5.161   1.609   4.565  0.2953 -0.4555  0.5306
  256SOL     OW  789   4.264   0.154   0.743 -0.3229 -0.0708 -0.2125
  256SOL    HW2  790   4.234   0.110   0.663 -0.6628 -0.9710  0.3907
  256SOL    HW3  791   4.241   0.093   0.814  0.5872  0.3958  0.5114
  256SOL    MW4  792   4.257   0.140   0.742  0.6154 -0.3112  0.1537
  257SOL     OW  793   2.435   5.293   5.193 -0.0841 -0.1819 -0.4096
  257SOL    HW2  794   2.379   5.288   5.116 -1.3063 -1.7458  0.5178
  257SOL    HW3  795   2.432   5.205   5.231  2.6072 -0.2070 -0.0102
  257SOL    MW4  796   2.428   5.281   5.188  0.0476  0.1188  0.2842
  258SOL     OW  797   2.673   2.845   3.299 -0.0124 -0.3937 -0.1108
  258SOL    HW2  798   2.671   2.910   3.369 -0.5079 -0.9887  0.4386
  258SOL    HW3  799   2.762   2.809   3.302 -0.4071 -1.3587  1.1198
  258SOL    MW4  800   2.685   2.849   3.308 -0.2201  0.6674  0.3769
  259SOL     OW  801   3.917   2.257   6.350 -0.3618 -0.3920 -0.4799
  259SOL    HW2  802   3.914   2.171   6.393 -0.9127 -1.3601 -2.3259
  259SOL    HW3  803   3.985   2.247   6.284  1.4880  1.5225  1.0140
  259SOL    MW4  804   3.926   2.244   6.347  0.2364 -0.3341  0.3141
  260SOL     OW  805   5.446   4.664   3.273 -0.5615 -0.1257  0.2419
  260SOL    HW2  806   5.465   4.571   3.279  0.8288 -0.2527 -3.3686
  260SOL    HW3  807   5.360   4.668   3.230 -0.1837  0.1852 -0.5169
  260SOL    MW4  808   5.437   4.652   3.268 -0.0860 -0.0021 -0.4027
  261SOL     OW  809   4.066   4.359   0.438  0.2691 -0.6192 -0.2132
  261SOL    HW2  810   4.153   4.398   0.427  0.9107 -1.7660  0.5786
  261SOL    HW3  811   4.018   4.424   0.490  0.6558  0.0058 -0.6141
  261SOL    MW4  812   4.072   4.373   0.443  0.5247 -0.3652  0.1519
  262SOL     OW  813   2.529   5.490   5.883  0.3486  0.1328  0.0459
  262SOL    HW2  814   2.468   5.453   5.946  0.4464  0.3971  0.2948
  262SOL    HW3  815   2.473   5.535   5.819  0.0278 -2.3755 -1.6061
  262SOL    MW4  816   2.514   5.491   5.883  0.1087 -0.0373  0.0489
  263SOL     OW  817   0.216   4.996   1.492 -0.1153 -0.3592 -0.1637
  263SOL    HW2  818   0.172   5.079   1.473 -0.1454  0.1231  1.8612
  263SOL    HW3  819   0.300   5.003   1.446 -1.0514 -0.2442 -1.9752
  263SOL    MW4  820   0.222   5.008   1.483  0.5239 -0.6097  0.0216
  264SOL     OW  821   3.627   2.676   3.336  0.0211  0.9704  0.2448
  264SOL    HW2  822   3.550   2.680   3.393  0.3252  0.1644  0.7346
  264SOL    HW3  823   3.699   2.705   3.392  0.5391 -1.0596  0.7224
  264SOL    MW4  824   3.626   2.680   3.351  0.7291  0.0168 -0.1762
  265SOL     OW  825   5.894   2.545   0.410 -0.8039 -0.3745  0.3895
  265SOL    HW2  826   5.941   2.468   0.441 -0.1045 -1.3631 -2.8070
  265SOL    HW3  827   5.808   2.512   0.384 -1.5055  0.4863  1.5248
  265SOL    MW4  828   5.889   2.531   0.411  0.9262 -0.3026  0.2419
  266SOL     OW  829   4.051   4.645   1.514  0.4273  0.1578 -0.5930
  266SOL    HW2  830   3.999   4.650   1.594  0.3757  0.5436 -0.6501
  266SOL    HW3  831   4.011   4.709   1.455  1.3638  0.9484 -0.4030
  266SOL    MW4  832   4.039   4.654   1.517 -0.2466  0.2597  0.6878
  267SOL     OW  833   0.731   5.172   5.247  0.4310  0.3628 -0.5861
  267SOL    HW2  834   0.815   5.127   5.239  0.1444 -0.1257 -0.8374
  267SOL    HW3  835   0.754   5.265   5.250  1.0552  0.1953  0.3455
  267SOL    MW4  836   0.745   5.179   5.246 -0.2047  0.4509  0.3000
  268SOL     OW  837   0.608   1.852   3.393  0.0184 -0.2116  0.4359
  268SOL    HW2  838   0.594   1.768   3.349 -0.1018  0.3753 -0.6794
  268SOL    HW3  839   0.528   1.867   3.443 -0.1529 -0.5480  0.2618
  268SOL    MW4  840   0.595   1.843   3.394  0.2727  0.3633 -0.2559
  269SOL     OW  841   0.905   3.678   6.149  0.1602  0.1582  0.6497
  269SOL    HW2  842   0.975   3.620   6.118 -1.8533 -2.0886 -0.0064
  269SOL    HW3  843   0.927   3.696   6.240  0.8994 -1.6871  0.8810
  269SOL    MW4  844   0.917   3.673   6.157  0.3442  0.3824  0.0774
  270SOL     OW  845   4.509   4.763   1.096  0.6192  0.0609 -0.3278
  270SOL    HW2  846   4.596   4.801   1.090  0.1870  0.9770 -1.0833
  270SOL    HW3  847   4.450   4.838   1.099 -0.0539 -0.4521  2.8837
  270SOL    MW4  848   4.513   4.778   1.096 -0.0775 -0.1028  0.2205
  271SOL     OW  849   4.911   2.119   5.546  0.7313 -0.4906  0.6459
  271SOL    HW2  850   4.846   2.186   5.524 -0.7216 -2.3256 -1.1013
  271SOL    HW3  851   4.994   2.166   5.549 -0.2575  1.4392 -0.1948
  271SOL    MW4  852   4.913   2.134   5.543 -0.4095 -0.4322 -0.4072
  272SOL     OW  853   4.387   3.897   5.395  0.1022  0.3502  0.0423
  272SOL    HW2  854   4.410   3.862   5.481  0.2618  0.9838  0.2664
  272SOL    HW3  855   4.333   3.829   5.355  2.4746 -1.2801 -0.5701
  272SOL    MW4  856   4.383   3.884   5.401  0.3014 -0.6960 -0.3198
  273SOL     OW  857   1.225   4.447   3.942  0.4100  0.1945 -0.0950
  273SOL    HW2  858   1.220   4.530   3.988 -0.1022 -0.8349  1.8262
  273SOL    HW3  859   1.154   4.394   3.979  0.9260 -1.2146 -1.0069
  273SOL    MW4  860   1.215   4.451   3.953  0.0279  0.6624 -0.0372
  274SOL     OW  861   2.260   4.991   1.759  0.1377  0.5617  0.2320
  274SOL    HW2  862   2.210   4.937   1.699  0.8549  1.0977 -0.8718
  274SOL    HW3  863   2.208   4.991   1.840  1.3071 -3.9592  1.2908
  274SOL    MW4  864   2.247   4.984   1.762 -0.7971  0.4923  0.1143
  275SOL     OW  865   1.503   0.624   6.071 -0.9935  0.2865 -0.1076
  275SOL    HW2  866   1.571   0.558   6.064  0.7447  1.5567  2.8393
  275SOL    HW3  867   1.532   0.695   6.015 -0.1920  0.5621  0.6401
  275SOL    MW4  868   1.515   0.624   6.063 -0.7107 -0.1863 -0.1310
  276SOL     OW  869   0.251   0.448   4.263 -0.5891 -0.1378  0.1172
  276SOL    HW2  870   0.325   0.432   4.322 -0.6370 -1.0434 -0.0413
  276SOL    HW3  871   0.174   0.445   4.320 -0.5660 -0.0913  0.1507
  276SOL    MW4  872   0.251   0.445   4.279 -0.4678 -0.5859 -0.7850
  277SOL     OW  873   5.302   2.088   2.543  0.1667 -0.4595  0.4979
  277SOL    HW2  874   5.231   2.034   2.508  0.2572 -0.2301 -0.0656
  277SOL    HW3  875   5.263   2.175   2.554 -0.2226 -0.8283  2.2464
  277SOL    MW4  876   5.287   2.092   2.540 -0.3888  0.4187  0.2925
  278SOL     OW  877   2.981   1.795   0.534 -0.5572  0.2149  0.1983
  278SOL    HW2  878   2.948   1.854   0.602 -0.3499 -0.2429  0.7129
  278SOL    HW3  879   2.943   1.827   0.453 -1.5916  0.2102  0.6620
  278SOL    MW4  880   2.972   1.807   0.532 -0.0163  0.5174 -0.2830
  279SOL     OW  881   5.086   6.351   4.708 -0.1442 -0.5437  0.4459
  279SOL    HW2  882   4.997   6.338   4.740 -0.1047 -1.0304  0.3677
  279SOL    HW3  883   5.137   6.375   4.786 -0.3634 -0.1419  0.4689
  279SOL    MW4  884   5.081   6.352   4.722  0.1111 -0.4047  0.5861
  280SOL     OW  885   6.392   2.999   6.012 -0.0329 -0.2096  0.1030
  280SOL    HW2  886   6.378   2.943   5.936 -1.1725  1.2263 -0.7676
  280SOL    HW3  887   6.389   2.938   6.087 -1.8493 -1.2507 -0.7567
  280SOL    MW4  888   6.390   2.983   6.012 -0.0647 -0.2912 -0.0680
  281SOL     OW  889   5.658   4.639   5.667  0.3449  0.0184  0.3021
  281SOL    HW2  890   5.595   4.681   5.609 -0.7605 -2.0396 -0.0726
  281SOL    HW3  891   5.697   4.711   5.717 -1.5448  1.4484 -0.2004
  281SOL    MW4  892   5.655   4.654   5.666  0.3960 -0.2856 -0.2905
  282SOL     OW  893   1.698   5.732   4.340 -0.1517  0.1563  0.1356
  282SOL    HW2  894   1.745   5.714   4.259  0.3926  0.4493  0.3775
  282SOL    HW3  895   1.750   5.689   4.408 -0.4500  0.1465  0.3575
  282SOL    MW4  896   1.711   5.724   4.339 -0.7430 -0.0369  0.2403
  283SOL     OW  897   3.921   6.343   5.630  0.5080  0.0814 -0.1922
  283SOL    HW2  898   3.929   6.273   5.565 -1.1665 -0.4862  0.1548
  283SOL    HW3  899   3.893   6.298   5.710 -0.0290  1.0760  0.1912
  283SOL    MW4  900   3.918   6.328   5.632  0.1724  0.0490 -0.2155
  284SOL     OW  901   1.183   3.328   5.894 -0.2258 -0.2359  0.3055
  284SOL    HW2  902   1.206   3.238   5.915 -1.4783 -1.0082 -1.4167
  284SOL    HW3  903   1.117   3.351   5.960 -1.7099 -1.4891 -0.6594
  284SOL    MW4  904   1.177   3.319   5.906  0.2358  0.1208  0.1359
  285SOL     OW  905   2.211   5.586   3.524  0.5191  0.2966  0.4497
  285SOL    HW2  906   2.240   5.647   3.592  1.6359  0.5893 -0.2618
  285SOL    HW3  907   2.117   5.600   3.517  0.6785  1.5569  0.6684
  285SOL    MW4  908   2.203   5.596   3.532 -0.0929 -0.5540  0.0896
  286SOL     OW  909   3.965   4.808   0.782  0.3887 -0.1943  0.0895
  286SOL    HW2  910   3.923   4.775   0.702 -0.4965  0.2106  0.3752
  286SOL    HW3  911   3.957   4.903   0.775  1.6922 -0.0825 -0.0692
  286SOL    MW4  912   3.958   4.817   0.770  0.0883 -0.6357 -0.3097
  287SOL     OW  913   1.717   3.325   3.480 -0.9534 -0.0079  0.3117
  287SOL    HW2  914   1.676   3.251   3.435  0.7241 -2.4278  2.4678
  287SOL    HW3  915   1.763   3.373   3.411 -2.2913 -0.7858 -1.1848
  287SOL    MW4  916   1.718   3.321   3.465  0.0080 -0.8600 -0.5777
  288SOL     OW  917   2.210   0.292   1.555 -0.2942 -0.0610 -0.0510
  288SOL    HW2  918   2.222   0.319   1.464  3.5066  1.1702  0.6613
  288SOL    HW3  919   2.252   0.206   1.561  0.0217  0.1353  0.6760
  288SOL    MW4  920   2.217   0.284   1.544  0.0329 -0.4189  0.2509
  289SOL     OW  921   2.926   2.803   5.181  0.4074 -0.0021 -0.0054
  289SOL    HW2  922   2.900   2.723   5.137 -0.4759  0.3280 -0.1089
  289SOL    HW3  923   2.906   2.787   5.273  0.3631  0.0492 -0.0060
  289SOL    MW4  924   2.920   2.791   5.188  0.7809  0.0465 -0.3936
  290SOL     OW  925   6.019   6.292   2.345 -0.0602 -0.1670  0.4175
  290SOL    HW2  926   5.994   6.226   2.410 -1.3482 -0.3691 -0.2536
  290SOL    HW3  927   6.030   6.242   2.264 -0.4340  0.3564  0.0428
  290SOL    MW4  928   6.017   6.276   2.343  0.1354 -0.1498  0.1184
  291SOL     OW  929   4.409   5.654   0.092 -0.0451 -0.2545  0.7943
  291SOL    HW2  930   4.357   5.732   0.078 -0.9840 -0.6975  1.6692
  291SOL    HW3  931   4.351   5.595   0.140  0.4742 -1.6823 -0.2653
  291SOL    MW4  932   4.395   5.656   0.097 -0.1883  0.1717  0.5419
  292SOL     OW  933   6.114   0.935   6.185  0.2124  0.1226 -0.1725
  292SOL    HW2  934   6.123   0.981   6.268  1.7442 -0.5406  0.0665
  292SOL    HW3  935   6.034   0.883   6.194 -2.0446  3.2032 -0.7512
  292SOL    MW4  936   6.104   0.934   6.197 -0.3628 -0.6106 -0.8696
  293SOL     OW  937   2.497   5.395   6.375  0.4228 -0.4006  0.3483
  293SOL    HW2  938   2.589   5.412   6.359  0.5499  0.1863  1.6051
  293SOL    HW3  939   2.495   5.335   6.449 -0.1999  1.4557  1.9434
  293SOL    MW4  940   2.509   5.390   6.383 -0.8130 -0.6010 -0.8849
  294SOL     OW  941   3.615   6.375   1.181  0.1328  0.2035 -1.0414
  294SOL    HW2  942   3.615   6.297   1.125  2.4994 -0.5645 -0.1203
  294SOL    HW3  943   3.703   6.411   1.171  0.4841  0.3310  1.7172
  294SOL    MW4  944   3.627   6.369   1.173 -0.3974  0.1634  0.1183
  295SOL     OW  945   1.224   5.660   5.056  0.6074  0.2357  0.5981
  295SOL    HW2  946   1.218   5.736   4.997  1.4706  0.6856  1.0654
  295SOL    HW3  947   1.175   5.685   5.133  1.5204  0.6456  1.0665
  295SOL    MW4  948   1.217   5.673   5.058 -0.2884  0.0908 -0.3281
  296SOL     OW  949   2.963   1.816   3.041 -0.3193 -0.0723  0.4568
  296SOL    HW2  950   2.989   1.743   3.098 -0.6063 -0.2577  0.3518
  296SOL    HW3  951   2.984   1.895   3.092  0.1557 -0.2263  0.4971
  296SOL    MW4  952   2.969   1.817   3.055 -0.4425  0.0868  0.6952
  297SOL     OW  953   4.782   0.095   3.124 -0.1603  0.1816  0.7761
  297SOL    HW2  954   4.872   0.119   3.103 -0.3595 -1.2493 -2.2059
  297SOL    HW3  955   4.789   0.008   3.164 -0.1810  0.3480  1.1439
  297SOL    MW4  956   4.795   0.087   3.127 -0.0466 -0.0484  0.4339
  298SOL     OW  957   5.393   1.756   2.059  0.3289  0.2083  0.0379
  298SOL    HW2  958   5.321   1.700   2.031 -1.7991  1.0703  3.3289
  298SOL    HW3  959   5.376   1.840   2.017 -1.7939  0.9554  2.1554
  298SOL    MW4  960   5.381   1.760   2.050 -0.8008  0.0460 -0.0135
  299SOL     OW  961   4.205   1.663   1.255 -0.1482 -0.3907 -0.4801
  299SOL    HW2  962   4.207   1.734   1.191 -2.1201 -1.1266 -1.4462
  299SOL    HW3  963   4.290   1.668   1.299  0.1736  1.8765 -1.2297
  299SOL    MW4  964   4.217   1.673   1.252  0.5451  0.3338 -0.6914
  300SOL     OW  965   4.186   3.020   0.451  0.6591 -1.0371  0.0617
  300SOL    HW2  966   4.171   2.979   0.536  2.2486  0.5940  1.2078
  300SOL    HW3  967   4.252   2.966   0.408  0.0278 -1.7322 -0.0424
  300SOL    MW4  968   4.193   3.008   0.457  0.1772  0.4988 -0.4414
  301SOL     OW  969   3.295   1.941   3.982  0.4074  0.3081  0.0713
  301SOL    HW2  970   3.360   1.980   3.924 -0.5228  0.6986 -0.7397
  301SOL    HW3  971   3.219   1.999   3.974 -0.5165 -0.9013 -0.0856
  301SOL    MW4  972   3.294   1.954   3.973  0.4190  0.5773 -0.1492
  302SOL     OW  973   4.151   5.814   2.616 -0.6521  0.5117  0.4488
  302SOL    HW2  974   4.173   5.726   2.649  0.7446  0.7088  0.1235
  302SOL    HW3  975   4.199   5.873   2.673 -1.1824  1.0524  0.3419
  302SOL    MW4  976   4.160   5.810   2.628 -0.4022 -0.2975 -0.0505
  303SOL     OW  977   2.786   3.644   3.764  0.5937  0.3277 -0.0115
  303SOL    HW2  978   2.715   3.692   3.808  1.2124  0.8333  0.4463
  303SOL    HW3  979   2.756   3.636   3.673  0.0259  0.6803  0.1362
  303SOL    MW4  980   2.773   3.649   3.758 -0.0173  0.3521  0.2137
  304SOL     OW  981   5.184   4.370   0.593 -0.0746  0.4532  0.6330
  304SOL    HW2  982   5.158   4.445   0.648  1.8977  0.6761  1.3149
  304SOL    HW3  983   5.268   4.396   0.555 -0.1063 -0.8124 -0.3593
  304SOL    MW4  984   5.191   4.383   0.595 -0.1067 -0.7916 -0.3638
  305SOL     OW  985   5.292   5.373   5.864  0.0516  0.0013 -0.4231
  305SOL    HW2  986   5.205   5.380   5.903 -0.6810  0.4130 -2.0469
  305SOL    HW3  987   5.313   5.280   5.869  1.1464  0.2889  3.2175
  305SOL    MW4  988   5.283   5.362   5.870 -0.9458  0.0445  0.1656
  306SOL     OW  989   6.417   2.670   1.799 -0.6117  0.0219 -0.7403
  306SOL    HW2  990   6.422   2.716   1.715 -0.7580  1.2328 -0.0982
  306SOL    HW3  991   6.441   2.735   1.864 -0.4037 -0.9319  0.1658
  306SOL    MW4  992   6.421   2.685   1.796  0.3650  0.1922  0.3951
  307SOL     OW  993   1.250   4.830   1.114  0.3922 -0.4363 -0.3514
  307SOL    HW2  994   1.254   4.891   1.188 -0.1907 -0.7035 -0.0876
  307SOL    HW3  995   1.296   4.752   1.144 -0.8560 -0.9904  0.1836
  307SOL    MW4  996   1.256   4.828   1.128 -0.2959  0.0321  0.1733
  308SOL     OW  997   2.077   3.795   3.736  0.1336 -0.4414  0.0331
  308SOL    HW2  998   2.074   3.709   3.777  0.0061 -0.1643  0.6112
  308SOL    HW3  999   2.119   3.780   3.651 -0.0003 -1.0900  0.0781
  308SOL    MW4 1000   2.082   3.782   3.730  0.1925 -0.7266  0.0610
  309SOL     OW 1001   4.903   0.474   3.139  0.0232  0.2105 -0.0455
  309SOL    HW2 1002   4.923   0.415   3.211  0.3828  1.7735  1.1797
  309SOL    HW3 1003   4.977   0.533   3.134 -0.2816  0.5217 -1.3081
  309SOL    MW4 1004   4.915   0.474   3.148  0.4982  0.8099 -0.0741
  310SOL     OW 1005   1.614   4.414   1.439 -0.6232 -0.0151  0.0306
  310SOL    HW2 1006   1.577   4.361   1.509 -0.7798  0.3668  0.2444
  310SOL    HW3 1007   1.539   4.434   1.382 -0.3663 -0.9485 -0.6691
  310SOL    MW4 1008   1.599   4.410   1.440 -0.4202  0.0534  0.1996
  311SOL     OW 1009   3.654   0.526   5.052  0.3438 -0.4157 -0.5084
  311SOL    HW2 1010   3.654   0.596   4.986  0.7996 -0.2289 -0.3154
  311SOL    HW3 1011   3.747   0.506   5.066  0.3656  0.7252  1.3054
  311SOL    MW4 1012   3.666   0.533   5.045 -0.5822 -0.9005 -0.2247
  312SOL     OW 1013   0.556   0.836   3.802  0.0728  0.4878  0.3498
  312SOL    HW2 1014   0.538   0.887   3.881  0.4010  2.1532 -0.5791
  312SOL    HW3 1015   0.494   0.870   3.738  0.8593  0.3107 -0.5250
  312SOL    MW4 1016   0.546   0.847   3.804 -0.6597 -0.0222 -0.1488
  313SOL     OW 1017   6.270   0.616   4.755 -0.3169  0.1113  0.5716
  313SOL    HW2 1018   6.351   0.596   4.708 -0.8218 -0.3933 -0.1068
  313SOL    HW3 1019   6.228   0.685   4.703 -1.5649 -1.4248 -0.5689
  313SOL    MW4 1020   6.275   0.623   4.742  0.0917  0.4947 -0.2596
  314SOL     OW 1021   3.828   1.097   3.538  0.4036  0.1381  0.1867
  314SOL    HW2 1022   3.847   1.091   3.632 -0.6088  2.0805  0.5799
  314SOL    HW3 1023   3.757   1.035   3.523 -0.4347  0.8424  1.0604
  314SOL    MW4 1024   3.821   1.088   3.548 -0.4465  0.3021  0.5130
  315SOL     OW 1025   2.146   6.145   1.311 -0.7068 -0.2292 -0.2490
  315SOL    HW2 1026   2.215   6.089   1.345 -0.8043 -1.4481 -1.9028
  315SOL    HW3 1027   2.079   6.084   1.280 -1.0629  0.8059 -1.6229
  315SOL    MW4 1028   2.146   6.130   1.311 -0.9618  0.7142  0.3409
  316SOL     OW 1029   5.422   1.827   0.474  0.2317 -0.3002  0.0214
  316SOL    HW2 1030   5.492   1.836   0.540  1.5176  2.1219 -1.5088
  316SOL    HW3 1031   5.381   1.913   0.471  0.3080 -0.2774 -2.3783
  316SOL    MW4 1032   5.426   1.840   0.483  0.0830 -0.0285  0.8514
  317SOL     OW 1033   4.324   3.012   5.470 -0.0399 -0.1701  0.6760
  317SOL    HW2 1034   4.407   3.061   5.472 -1.4941  2.7646 -1.9963
  317SOL    HW3 1035   4.327   2.963   5.388 -1.6229  1.5245 -0.4774
  317SOL    MW4 1036   4.335   3.012   5.459  0.2072 -0.0515 -0.5236
  318SOL     OW 1037   6.064   1.212   0.802 -0.2691 -0.0817 -0.1020
  318SOL    HW2 1038   6.094   1.132   0.845  0.0599  0.6937  1.1893
  318SOL    HW3 1039   6.145   1.261   0.785 -0.5888  1.2935  1.9111
  318SOL    MW4 1040   6.079   1.208   0.806 -0.4379  0.4560  0.1487
  319SOL     OW 1041   6.036   0.668   3.572 -0.6475 -0.4499  0.4889
  319SOL    HW2 1042   6.058   0.579   3.596 -1.2383 -0.7966 -0.2000
  319SOL    HW3 1043   6.101   0.693   3.506 -1.3810 -0.9473 -0.4620
  319SOL    MW4 1044   6.047   0.660   3.566 -0.5030 -0.0792  0.1907
  320SOL     OW 1045   4.586   3.554   1.382 -0.5123  0.0253 -0.6223
  320SOL    HW2 1046   4.502   3.580   1.345 -0.7679 -0.9432 -0.7563
  320SOL    HW3 1047   4.584   3.458   1.381  0.5607 -0.0096 -0.5553
  320SOL    MW4 1048   4.575   3.545   1.377  0.2428 -0.1356 -0.4295
  321SOL     OW 1049   5.392   0.127   4.907  0.7399  0.0433  0.9468
  321SOL    HW2 1050   5.356   0.211   4.881 -0.8782 -1.1051 -0.8347
  321SOL    HW3 1051   5.341   0.100   4.982 -0.7479 -0.5870 -0.2369
  321SOL    MW4 1052   5.381   0.134   4.913 -0.1615  0.0169  0.3754
  322SOL     OW 1053   0.568   2.060   3.866  0.0905  0.2677  0.6048
  322SOL    HW2 1054   0.632   2.029   3.929  0.4017  1.5311  0.9399
  322SOL    HW3 1055   0.615   2.063   3.783 -0.0253 -0.4104  0.5102
  322SOL    MW4 1056   0.583   2.057   3.864 -0.1992  0.5299 -0.2136
  323SOL     OW 1057   3.545   2.790   5.895 -0.0028  0.2288  1.0350
  323SOL    HW2 1058   3.542   2.886   5.898  2.4847  0.3671  1.3891
  323SOL    HW3 1059   3.611   2.766   5.959 -0.0351 -1.6957  0.4193
  323SOL    MW4 1060   3.553   2.800   5.904  0.1038 -0.2462  0.2521
  324SOL     OW 1061   6.366   2.151   6.091  0.3193  0.4013  0.3726
  324SOL    HW2 1062   6.422   2.169   6.016  0.5959  3.2623  1.1373
  324SOL    HW3 1063   6.411   2.080   6.138 -0.5559 -2.4161 -2.7035
  324SOL    MW4 1064   6.379   2.144   6.087  0.1145  0.2754 -0.1171
  325SOL     OW 1065   3.703   1.255   1.618 -0.0912  0.1816  0.1821
  325SOL    HW2 1066   3.667   1.298   1.695 -0.9784  0.3564 -0.3087
  325SOL    HW3 1067   3.635   1.193   1.591  1.0051 -1.2545  0.6377
  325SOL    MW4 1068   3.689   1.252   1.624  0.3956  0.2190 -0.2051
  326SOL     OW 1069   1.357   5.366   1.680 -0.6982  0.0785  0.0718
  326SOL    HW2 1070   1.265   5.345   1.663 -0.8750  0.3592  0.6521
  326SOL    HW3 1071   1.398   5.280   1.694 -0.5821 -0.1520 -1.4905
  326SOL    MW4 1072   1.350   5.352   1.680  0.0757 -0.7699 -0.2394
  327SOL     OW 1073   0.575   2.386   3.759  0.0506 -0.6299  0.2661
  327SOL    HW2 1074   0.567   2.479   3.735  0.5092 -1.0860 -1.8940
  327SOL    HW3 1075   0.663   2.362   3.730  0.2103 -1.5787  1.4764
  327SOL    MW4 1076   0.586   2.395   3.752 -0.1390  0.2588  0.3831
  328SOL     OW 1077   4.217   3.295   0.537  0.2027  0.0806  0.5511
  328SOL    HW2 1078   4.238   3.213   0.494  2.0125  0.7263  0.1054
  328SOL    HW3 1079   4.125   3.310   0.516  0.2795 -1.0265 -0.7189
  328SOL    MW4 1080   4.208   3.286   0.529  0.0116 -0.2762 -0.0520
  329SOL     OW 1081   1.521   5.583   4.765  0.8842  0.9160  0.2456
  329SOL    HW2 1082   1.495   5.656   4.709  0.5703  1.1450  0.6893
  329SOL    HW3 1083   1.579   5.530   4.709  1.7313  1.9024  0.1545
  329SOL    MW4 1084   1.526   5.585   4.750 -0.1997 -0.1141  0.0437
  330SOL     OW 1085   5.938   2.938   1.499 -0.1487  0.0571  0.3772
  330SOL    HW2 1086   5.877   2.870   1.524 -0.4218  0.7165  1.5717
  330SOL    HW3 1087   5.897   3.020   1.529  0.6788  0.6359 -0.0242
  330SOL    MW4 1088   5.925   2.940   1.506 -0.5593 -0.6271  0.2336
  331SOL     OW 1089   3.229   5.585   4.468  0.9607 -0.0049  0.5305
  331SOL    HW2 1090   3.258   5.586   4.559 -0.7158  0.6457  1.1105
  331SOL    HW3 1091   3.170   5.510   4.463  0.1659  0.6191  0.3060
  331SOL    MW4 1092   3.225   5.575   4.480  0.0791 -0.0692  0.5865
  332SOL     OW 1093   3.433   3.734   5.699  0.1177 -0.6373 -0.7557
  332SOL    HW2 1094   3.504   3.797   5.696 -1.3647  1.1862  0.2537
  332SOL    HW3 1095   3.474   3.650   5.677  2.3502  0.4846 -1.1423
  332SOL    MW4 1096   3.448   3.731   5.696  0.2017  0.5953 -0.4863
  333SOL     OW 1097   0.819   2.988   1.540 -0.2209 -0.0292  0.4685
  333SOL    HW2 1098   0.902   2.969   1.583 -0.4714 -2.0507  0.1399
  333SOL    HW3 1099   0.815   3.084   1.536  2.4711  0.1125 -0.2501
  333SOL    MW4 1100   0.829   2.998   1.545 -0.2281  0.3681 -0.0405
  334SOL     OW 1101   2.994   2.373   0.446 -0.4603 -0.2420 -0.1618
  334SOL    HW2 1102   3.088   2.359   0.461 -0.6731 -1.2385  0.3115
  334SOL    HW3 1103   2.989   2.462   0.410  0.5706  0.2304  0.7730
  334SOL    MW4 1104   3.006   2.383   0.443 -0.7352 -0.3028 -0.3472
  335SOL     OW 1105   0.090   6.061   5.518 -0.4834  0.6498 -0.7545
  335SOL    HW2 1106   0.010   6.102   5.550 -0.9283 -0.6561 -0.1231
  335SOL    HW3 1107   0.060   5.985   5.469  0.2726  1.6829 -2.9152
  335SOL    MW4 1108   0.076   6.056   5.516  0.2330  0.4370 -0.2967
  336SOL     OW 1109   1.168   1.574   2.058 -0.5988  0.1058  0.4190
  336SOL    HW2 1110   1.110   1.649   2.050  0.1578  0.7366  0.7539
  336SOL    HW3 1111   1.146   1.537   2.144 -0.2030  0.6120  0.7450
  336SOL    MW4 1112   1.158   1.579   2.068 -0.6829 -0.5912 -0.2775
  337SOL     OW 1113   3.794   2.009   4.259 -0.4020 -0.0778 -0.4481
  337SOL    HW2 1114   3.820   1.925   4.222  1.3265  0.2774 -0.1084
  337SOL    HW3 1115   3.875   2.049   4.289 -1.5076  0.3613  2.2557
  337SOL    MW4 1116   3.808   2.003   4.258 -0.3000 -0.5576  0.4535
  338SOL     OW 1117   1.357   5.215   0.613  0.1328  0.0664 -0.5781
  338SOL    HW2 1118   1.340   5.288   0.672  0.6951 -0.3416  0.0985
  338SOL    HW3 1119   1.272   5.197   0.572  0.2198  1.8014 -1.5835
  338SOL    MW4 1120   1.344   5.222   0.615  0.3143 -0.2998 -0.1391
  339SOL     OW 1121   5.764   2.891   2.706 -0.3126  0.1701  0.1267
  339SOL    HW2 1122   5.722   2.959   2.760  0.2349  1.1630 -0.6556
  339SOL    HW3 1123   5.691   2.847   2.663 -0.7532 -0.5339  1.5269
  339SOL    MW4 1124   5.748   2.894   2.708  0.2550  0.7046  0.5819
  340SOL     OW 1125   0.010   1.713   2.590 -0.3837  0.1946 -0.7231
  340SOL    HW2 1126   0.030   1.650   2.521  0.3075 -0.2317 -0.1587
  340SOL    HW3 1127  -0.078   1.745   2.571 -1.6619 -2.5472  0.1644
  340SOL    MW4 1128   0.001   1.709   2.579  0.5692 -0.1398 -0.3289
  341SOL     OW 1129   5.834   5.488   4.171 -0.6799  0.3422 -0.0102
  341SOL    HW2 1130   5.836   5.519   4.081 -0.2563  0.8042  0.1555
  341SOL    HW3 1131   5.764   5.423   4.172  0.6929 -1.2065 -1.1476
  341SOL    MW4 1132   5.825   5.484   4.159 -0.1676  0.0596  0.4921
  342SOL     OW 1133   3.064   6.003   6.091  0.5392  0.3233 -0.3727
  342SOL    HW2 1134   3.008   6.075   6.121  2.0150  1.1900  0.4354
  342SOL    HW3 1135   3.008   5.926   6.095 -0.7307  1.2216 -0.0540
  342SOL    MW4 1136   3.049   6.002   6.095 -0.5168 -0.0492  0.3808
  343SOL     OW 1137   5.247   5.291   0.115 -0.2889 -0.2276 -0.2641
  343SOL    HW2 1138   5.181   5.236   0.073 -0.4074 -1.1092  1.0241
  343SOL    HW3 1139   5.322   5.233   0.129 -0.0188  0.2075  0.1391
  343SOL    MW4 1140   5.248   5.276   0.112  0.1062  0.1911  0.0138
  344SOL     OW 1141   5.893   4.670   1.056  0.0235  0.1110 -0.4247
  344SOL    HW2 1142   5.891   4.590   1.004 -2.8321 -0.3020  0.1918
  344SOL    HW3 1143   5.857   4.645   1.141 -0.2520  1.8752  0.0240
  344SOL    MW4 1144   5.888   4.656   1.061 -0.0538  0.7113 -0.0839
  345SOL     OW 1145   1.537   4.631   3.248 -0.4181 -0.2158  0.3090
  345SOL    HW2 1146   1.494   4.716   3.241 -0.0598  0.0018  0.7051
  345SOL    HW3 1147   1.567   4.627   3.339  0.8499 -0.1416 -0.0807
  345SOL    MW4 1148   1.535   4.642   3.259  0.3026 -0.3896  0.1322
  346SOL     OW 1149   1.297   6.121   0.486 -0.3659  0.1438  0.2526
  346SOL    HW2 1150   1.293   6.030   0.514  1.6069 -0.0986 -0.0877
  346SOL    HW3 1151   1.276   6.171   0.565 -2.2532 -0.5693  0.2494
  346SOL    MW4 1152   1.294   6.116   0.500 -0.2211 -0.5333  0.2723
  347SOL     OW 1153   0.922   5.959   4.835 -0.1505  0.7652  0.1477
  347SOL    HW2 1154   0.897   5.973   4.927  1.3567  1.6497  0.4603
  347SOL    HW3 1155   0.865   6.018   4.786  0.1290  1.4823  0.6718
  347SOL    MW4 1156   0.911   5.969   4.841  0.2979  0.5124 -0.0425
  348SOL     OW 1157   4.880   4.819   0.328  0.0792  0.4287  0.4939
  348SOL    HW2 1158   4.866   4.908   0.359  1.2812  0.8130 -0.0072
  348SOL    HW3 1159   4.814   4.767   0.374  0.2712  1.3445  1.8553
  348SOL    MW4 1160   4.869   4.824   0.338  0.2737 -0.5049 -0.2626
  349SOL     OW 1161   4.624   5.009   5.986  0.2908  0.2263 -0.3110
  349SOL    HW2 1162   4.597   4.930   6.032 -1.3697  1.0420  0.1888
  349SOL    HW3 1163   4.701   5.039   6.034  1.7160 -1.7179 -1.2707
  349SOL    MW4 1164   4.631   5.003   5.999  0.6527 -0.2827  0.7211
  350SOL     OW 1165   4.472   6.415   5.219  0.1895 -0.3582 -0.1907
  350SOL    HW2 1166   4.498   6.470   5.145  0.7479  0.6730  0.7393
  350SOL    HW3 1167   4.399   6.462   5.260  1.1450  0.1062  1.0465
  350SOL    MW4 1168   4.466   6.428   5.215 -0.0218  0.0834  0.3146
  351SOL     OW 1169   0.145   5.546   0.536  0.1212  0.8263  0.6250
  351SOL    HW2 1170   0.083   5.479   0.563 -1.5799  1.6047 -1.0814
  351SOL    HW3 1171   0.189   5.509   0.459 -1.4273  1.8630 -0.8528
  351SOL    MW4 1172   0.143   5.532   0.529  0.3545 -0.3503  0.2658
  352SOL     OW 1173   2.268   1.185   2.473 -0.2802  0.2849 -0.5497
  352SOL    HW2 1174   2.251   1.151   2.385  0.3253  1.3197 -1.0914
  352SOL    HW3 1175   2.318   1.265   2.458  0.0517  0.3423  0.7567
  352SOL    MW4 1176   2.272   1.191   2.459  0.6432  0.0852  0.0960
  353SOL     OW 1177   0.652   4.172   5.204 -0.1958 -0.0737 -0.1956
  353SOL    HW2 1178   0.606   4.253   5.228  0.0638 -0.4128  1.5738
  353SOL    HW3 1179   0.701   4.196   5.125 -0.1326  1.5109  0.2734
  353SOL    MW4 1180   0.652   4.186   5.197 -0.3499  0.1542  0.3617
  354SOL     OW 1181   5.212   2.587   3.958 -0.1870 -0.9184 -0.6966
  354SOL    HW2 1182   5.232   2.670   4.000 -1.5486  0.0526 -1.8901
  354SOL    HW3 1183   5.159   2.540   4.022 -0.1656 -0.4996 -0.3691
  354SOL    MW4 1184   5.208   2.592   3.972 -0.4405  0.6219 -0.2223
  355SOL     OW 1185   5.229   4.222   0.824 -0.6460 -0.1568  0.0375
  355SOL    HW2 1186   5.213   4.136   0.786  0.8277  0.2570 -1.6857
  355SOL    HW3 1187   5.238   4.280   0.748  1.0129  0.9982  1.0561
  355SOL    MW4 1188   5.228   4.218   0.809  0.1018 -0.7840  0.3298
  356SOL     OW 1189   3.943   4.836   5.427  0.0289  0.0907  0.0691
  356SOL    HW2 1190   3.902   4.753   5.451  1.8798 -0.9740 -0.3018
  356SOL    HW3 1191   3.986   4.866   5.507  0.7861 -0.1772 -0.2354
  356SOL    MW4 1192   3.943   4.829   5.441 -0.2556 -0.2551 -0.3652
  357SOL     OW 1193   4.670   1.741   5.224 -0.0499 -0.4461  0.3033
  357SOL    HW2 1194   4.583   1.768   5.251  0.3644 -1.7516  3.3049
  357SOL    HW3 1195   4.690   1.665   5.279  2.0056 -1.7942 -2.0631
  357SOL    MW4 1196   4.661   1.735   5.235  0.4603 -0.5668 -0.2295
  358SOL     OW 1197   1.837   5.877   1.714  0.1177  0.6078 -0.6665
  358SOL    HW2 1198   1.912   5.935   1.704  0.3378  0.5127  0.3154
  358SOL    HW3 1199   1.762   5.936   1.720  0.4238  0.8696  1.1241
  358SOL    MW4 1200   1.837   5.892   1.714  0.0155 -0.8559  0.1603
  359SOL     OW 1201   6.074   4.229   1.878  0.1159  0.4071 -0.1043
  359SOL    HW2 1202   5.991   4.274   1.891 -1.2285 -1.8170 -0.4524
  359SOL    HW3 1203   6.051   4.136   1.874  2.7158 -0.3675  0.6015
  359SOL    MW4 1204   6.060   4.223   1.880  0.0687 -0.3853 -0.7560
  360SOL     OW 1205   1.995   5.598   0.423  0.0165  0.8675 -0.2775
  360SOL    HW2 1206   1.954   5.618   0.508 -0.6451 -1.5889  0.0635
  360SOL    HW3 1207   2.080   5.561   0.446 -0.5320 -0.6432 -0.6101
  360SOL    MW4 1208   2.000   5.596   0.438 -0.4282 -0.4819  0.1907
  361SOL     OW 1209   4.077   3.184   3.941 -0.2138 -0.2302 -0.0189
  361SOL    HW2 1210   4.018   3.253   3.909  0.7636 -0.0704 -1.5656
  361SOL    HW3 1211   4.021   3.106   3.947 -0.7646  0.0981 -0.7356
  361SOL    MW4 1212   4.061   3.182   3.937 -0.0960  0.1315 -0.0238
  362SOL     OW 1213   1.687   1.996   2.013  0.3068  0.3337  0.3120
  362SOL    HW2 1214   1.674   2.091   2.009  1.6823  0.4941 -1.1158
  362SOL    HW3 1215   1.598   1.960   2.011 -0.2170  1.5671  0.2395
  362SOL    MW4 1216   1.673   2.004   2.013  0.0796  0.2419  0.0884
  363SOL     OW 1217   4.678   1.432   5.834 -0.1132  0.5158  0.6135
  363SOL    HW2 1218   4.588   1.444   5.864  0.0090 -0.7012  1.5280
  363SOL    HW3 1219   4.732   1.449   5.911  0.4466  1.1049  0.1054
  363SOL    MW4 1220   4.674   1.436   5.848  0.9151  0.9400  0.1108
  364SOL     OW 1221   1.139   4.385   6.125 -0.2222  0.3095  0.9245
  364SOL    HW2 1222   1.053   4.345   6.137  0.1315 -0.3908  1.1429
  364SOL    HW3 1223   1.179   4.384   6.212 -0.6297  2.1590  1.1748
  364SOL    MW4 1224   1.133   4.380   6.138 -0.2847 -0.1016 -0.0484
  365SOL     OW 1225   3.955   3.371   2.819  0.0057 -0.2829  0.2463
  365SOL    HW2 1226   4.017   3.405   2.884  2.1259 -1.2860 -1.1422
  365SOL    HW3 1227   3.886   3.330   2.872  0.6623  0.5893  1.8655
  365SOL    MW4 1228   3.954   3.370   2.835 -0.0486  0.0307  0.6310
  366SOL     OW 1229   1.587   1.795   0.086  0.4124  0.2513 -0.6119
  366SOL    HW2 1230   1.665   1.746   0.112  0.3083  1.6605  2.7791
  366SOL    HW3 1231   1.589   1.874   0.140 -2.7951  0.8520 -1.2075
  366SOL    MW4 1232   1.598   1.799   0.097  0.1592 -0.6332  0.0289
  367SOL     OW 1233   6.191   5.846   2.901  1.0439  0.4576  0.4448
  367SOL    HW2 1234   6.190   5.791   2.979  2.2904 -0.6390 -0.2773
  367SOL    HW3 1235   6.281   5.880   2.897  0.7635  1.1538 -0.0685
  367SOL    MW4 1236   6.203   5.843   2.911 -1.1541  0.0422 -0.5428
  368SOL     OW 1237   1.572   6.043   4.897  0.3390  0.0274 -0.2750
  368SOL    HW2 1238   1.503   6.057   4.832  0.4326  1.8142 -0.0457
  368SOL    HW3 1239   1.606   5.955   4.877  0.0817  0.3456 -2.3869
  368SOL    MW4 1240   1.568   6.033   4.886  0.3775  0.1655 -0.1320
  369SOL     OW 1241   4.981   4.459   3.214 -0.9847  0.1130 -0.0673
  369SOL    HW2 1242   4.961   4.404   3.289 -1.3224  1.2869  0.7312
  369SOL    HW3 1243   4.896   4.487   3.181 -0.8299  1.5334  0.6221
  369SOL    MW4 1244   4.967   4.456   3.220 -0.4675  0.3655 -0.5121
  370SOL     OW 1245   1.786   3.770   2.903 -0.0860  0.2443  0.2842
  370SOL    HW2 1246   1.742   3.799   2.823 -1.2517  0.3175  0.9342
  370SOL    HW3 1247   1.779   3.675   2.901 -0.1529  0.2481  0.3092
  370SOL    MW4 1248   1.779   3.761   2.892 -0.4551  0.2138  0.6500
  371SOL     OW 1249   0.240   5.946   1.819 -0.2461  0.2216  0.0246
  371SOL    HW2 1250   0.254   5.933   1.912  1.1660 -0.1436 -0.2201
  371SOL    HW3 1251   0.313   6.001   1.791 -0.2838 -0.2184 -0.9864
  371SOL    MW4 1252   0.251   5.952   1.827  0.1488 -0.7286 -0.3122
  372SOL     OW 1253   2.987   4.959   5.931 -0.1584  0.1547 -0.2931
  372SOL    HW2 1254   2.909   5.015   5.932  0.1578  0.6250  2.0553
  372SOL    HW3 1255   2.970   4.894   5.999  1.7628  0.6610  0.7195
  372SOL    MW4 1256   2.974   4.957   5.940 -0.3875 -0.1928  0.1367
  373SOL     OW 1257   2.577   1.505   6.352 -0.4831 -0.0652 -0.2237
  373SOL    HW2 1258   2.631   1.429   6.332  0.1888  0.2832  0.2070
  373SOL    HW3 1259   2.490   1.483   6.319 -0.2381 -0.9126 -0.3195
  373SOL    MW4 1260   2.573   1.492   6.345 -0.1368 -0.5403 -0.3455
  374SOL     OW 1261   1.564   2.982   1.364  0.0725 -0.2696  0.3695
  374SOL    HW2 1262   1.583   2.893   1.394  1.2821 -0.6059 -1.2586
  374SOL    HW3 1263   1.477   2.977   1.325 -0.0772 -0.6026  0.7415
  374SOL    MW4 1264   1.555   2.970   1.363 -0.4572  0.4247 -0.2595
  375SOL     OW 1265   5.733   1.194   1.772 -0.1272 -0.0999 -0.3327
  375SOL    HW2 1266   5.738   1.281   1.813 -0.3560  0.2914 -1.1196
  375SOL    HW3 1267   5.816   1.153   1.794  1.3522  1.4867 -2.4752
  375SOL    MW4 1268   5.745   1.200   1.780  0.4214  0.5831 -0.5778
  376SOL     OW 1269   2.343   4.638   1.249 -0.0443 -0.2253 -0.1887
  376SOL    HW2 1270   2.419   4.604   1.203 -0.5507  0.3984 -1.5421
  376SOL    HW3 1271   2.378   4.703   1.310  0.5815 -0.6848 -0.0450
  376SOL    MW4 1272   2.357   4.642   1.251  0.0842  0.1240 -0.2290
  377SOL     OW 1273   2.028   0.769   5.140 -0.0321 -0.4240 -0.1455
  377SOL    HW2 1274   2.118   0.791   5.168 -0.3043 -1.8822  2.1712
  377SOL    HW3 1275   2.018   0.677   5.165 -2.9455  0.3421  1.9650
  377SOL    MW4 1276   2.039   0.760   5.147 -0.1858 -0.3640  0.4140
  378SOL     OW 1277   1.987   0.828   4.312 -0.2800  0.0227 -0.2847
  378SOL    HW2 1278   2.001   0.764   4.243  0.7013 -1.7785  1.4804
  378SOL    HW3 1279   1.895   0.816   4.336 -0.1917 -0.5192 -0.1933
  378SOL    MW4 1280   1.976   0.818   4.306 -0.3466  0.0687  0.1013
  379SOL     OW 1281   2.589   5.006   4.823 -0.6395  0.2472  0.0552
  379SOL    HW2 1282   2.681   5.010   4.797  0.0987 -0.7620  2.2449
  379SOL    HW3 1283   2.543   4.972   4.746  1.0655 -0.8259 -0.5424
  379SOL    MW4 1284   2.595   5.002   4.809  0.4916  0.4822 -0.8198
  380SOL     OW 1285   1.978   0.673   0.079 -0.2380  0.0051 -0.1569
  380SOL    HW2 1286   1.965   0.579   0.093  1.9010 -0.3325 -0.1525
  380SOL    HW3 1287   2.037   0.679   0.004 -0.8223  1.3906 -0.5504
  380SOL    MW4 1288   1.984   0.662   0.071 -0.4788 -0.2007 -0.2776
  381SOL     OW 1289   5.358   1.457   4.258 -0.2209 -0.3873  0.2580
  381SOL    HW2 1290   5.390   1.412   4.179 -1.3849  0.4137 -0.6994
  381SOL    HW3 1291   5.278   1.411   4.281 -0.0588 -0.4066  0.8035
  381SOL    MW4 1292   5.352   1.445   4.251  0.4820  0.2912 -0.1214
  382SOL     OW 1293   1.387   0.762   0.699  0.1345 -0.4342  0.0045
  382SOL    HW2 1294   1.395   0.816   0.778  3.2763 -0.9234  0.1585
  382SOL    HW3 1295   1.388   0.672   0.731 -2.9980 -0.7377 -0.4026
  382SOL    MW4 1296   1.388   0.757   0.714  0.3393 -0.0273  0.5925
  383SOL     OW 1297   3.322   6.301   0.897 -0.2189  0.0230 -0.2870
  383SOL    HW2 1298   3.300   6.231   0.836  1.7411 -0.9497  0.0486
  383SOL    HW3 1299   3.345   6.375   0.841  1.8146 -0.9384 -0.8075
  383SOL    MW4 1300   3.322   6.301   0.882  0.1494  0.8230  0.1883
  384SOL     OW 1301   1.190   0.099   4.700  0.1244 -0.4706  0.3425
  384SOL    HW2 1302   1.245   0.107   4.623  0.7122 -0.6249  0.7384
  384SOL    HW3 1303   1.233   0.153   4.766 -0.0600 -0.7932  0.7322
  384SOL    MW4 1304   1.203   0.108   4.699  0.2214 -0.5653 -0.0602
  385SOL     OW 1305   3.606   2.996   4.062  0.2433 -0.0900 -0.4338
  385SOL    HW2 1306   3.646   3.082   4.061  1.0814 -0.4443 -2.5587
  385SOL    HW3 1307   3.646   2.952   4.137  0.0600  1.2134  0.4641
  385SOL    MW4 1308   3.617   3.001   4.072 -0.4089  0.5290  0.0562
  386SOL     OW 1309   0.361   1.685   3.113  0.5794  0.3260 -0.3727
  386SOL    HW2 1310   0.269   1.699   3.137  0.6688 -0.3576  0.4515
  386SOL    HW3 1311   0.393   1.772   3.089 -0.2591  0.5876 -0.5878
  386SOL    MW4 1312   0.353   1.698   3.113 -0.1930 -0.0867 -0.1256
  387SOL     OW 1313   3.259   0.214   0.432  0.8129 -0.1292  0.2362
  387SOL    HW2 1314   3.212   0.284   0.477  0.6963  1.0166 -1.5933
  387SOL    HW3 1315   3.190   0.154   0.404  0.6788  0.2548 -0.2613
  387SOL    MW4 1316   3.243   0.215   0.434 -0.4276  0.0537 -0.0994
  388SOL     OW 1317   0.958   2.139   0.186 -0.3477 -0.0888  0.1550
  388SOL    HW2 1318   1.037   2.191   0.205 -1.3404  1.2094  0.8741
  388SOL    HW3 1319   0.965   2.063   0.243 -0.8053  1.2638  2.1240
  388SOL    MW4 1320   0.970   2.136   0.196 -0.6939 -0.4234 -0.0442
  389SOL     OW 1321   1.838   3.778   5.070  0.5065  0.1870  0.0931
  389SOL    HW2 1322   1.762   3.721   5.056  0.8771 -0.0160 -1.2570
  389SOL    HW3 1323   1.851   3.822   4.986  1.9834  0.0772  0.2296
  389SOL    MW4 1324   1.830   3.776   5.057 -0.2674  0.2573 -0.3137
  390SOL     OW 1325   2.092   4.250   5.398 -0.5288  0.7993  0.2330
  390SOL    HW2 1326   2.082   4.268   5.305  0.7342  2.0484  0.3030
  390SOL    HW3 1327   2.042   4.170   5.413 -2.2507  1.5604 -1.1497
  390SOL    MW4 1328   2.084   4.242   5.388  0.8936 -0.4191 -0.0805
  391SOL     OW 1329   4.307   6.197   6.014 -0.1571 -0.2103 -0.3576
  391SOL    HW2 1330   4.357   6.254   6.072 -0.5155  1.9672 -2.0341
  391SOL    HW3 1331   4.368   6.177   5.942  0.4116 -3.1713  0.7754
  391SOL    MW4 1332   4.322   6.202   6.012  0.0232  0.4081 -0.2164
  392SOL     OW 1333   3.513   0.647   2.135  0.1424  0.3694  0.0680
  392SOL    HW2 1334   3.546   0.736   2.150 -0.4354  0.7152 -0.6517
  392SOL    HW3 1335   3.587   0.600   2.098 -0.3486  1.4005 -2.4540
  392SOL    MW4 1336   3.527   0.653   2.132 -1.1100 -0.3896  0.3414
  393SOL     OW 1337   0.688   5.612   2.085 -0.0091 -0.1763  0.0223
  393SOL    HW2 1338   0.634   5.601   2.006  1.1661  0.2204 -0.8683
  393SOL    HW3 1339   0.757   5.672   2.057 -0.4147  1.1987  1.7905
  393SOL    MW4 1340   0.690   5.619   2.071  0.0725 -0.5726 -0.2000
  394SOL     OW 1341   6.100   3.782   0.980  0.0965  0.0358  0.5171
  394SOL    HW2 1342   6.090   3.833   1.061  0.8756  0.0921  0.5931
  394SOL    HW3 1343   6.195   3.771   0.971 -0.0314 -0.8482  0.1504
  394SOL    MW4 1344   6.112   3.788   0.990 -0.1070  0.0833 -0.0374
  395SOL     OW 1345   5.776   1.836   3.860  0.1666  0.1550 -0.6247
  395SOL    HW2 1346   5.867   1.847   3.889  0.4238 -2.3233 -0.2726
  395SOL    HW3 1347   5.743   1.763   3.912 -2.4866  1.7722  0.1487
  395SOL    MW4 1348   5.784   1.828   3.871  0.0490  0.1976  0.0502
  396SOL     OW 1349   0.272   3.355   5.247  0.0410  0.1190 -0.1315
  396SOL    HW2 1350   0.308   3.424   5.192 -0.0455 -0.7454 -1.3354
  396SOL    HW3 1351   0.345   3.328   5.303  0.6472 -0.0959 -0.9930
  396SOL    MW4 1352   0.286   3.360   5.247  0.4348 -0.5815 -0.2728
  397SOL     OW 1353   1.276   4.232   3.583  0.2520  0.4893  0.6604
  397SOL    HW2 1354   1.246   4.168   3.648 -1.0070 -0.1614 -0.4893
  397SOL    HW3 1355   1.370   4.216   3.574  0.2739  0.0021  1.6767
  397SOL    MW4 1356   1.284   4.221   3.590 -0.4494 -0.4481 -0.6696
  398SOL     OW 1357   0.738   3.272   4.529  0.0411  0.2126  0.2720
  398SOL    HW2 1358   0.659   3.268   4.582 -0.6418  0.0459 -0.7338
  398SOL    HW3 1359   0.717   3.223   4.450  1.1980  0.0516  0.0398
  398SOL    MW4 1360   0.725   3.265   4.525  0.0835 -0.1143 -0.5626
  399SOL     OW 1361   6.011   2.042   2.304 -0.4686 -0.2943 -0.2815
  399SOL    HW2 1362   5.997   2.117   2.247 -1.4605 -0.3595 -0.1344
  399SOL    HW3 1363   5.931   1.990   2.298  0.2668 -1.4620 -0.5389
  399SOL    MW4 1364   5.999   2.045   2.296  0.2438  0.5113  0.2130
  400SOL     OW 1365   3.426   2.883   1.595  0.1136  0.2514 -0.0722
  400SOL    HW2 1366   3.473   2.910   1.673 -0.7269  0.1717  0.4783
  400SOL    HW3 1367   3.416   2.788   1.604  1.3405  0.0003 -1.0376
  400SOL    MW4 1368   3.431   2.874   1.606 -0.7941 -0.4998 -0.3020
  401SOL     OW 1369   1.986   4.081   6.337  0.4306 -0.4642 -0.0159
  401SOL    HW2 1370   2.047   4.017   6.300  3.9098  2.7549 -0.5034
  401SOL    HW3 1371   2.020   4.098   6.425  0.3951  1.4852 -0.3328
  401SOL    MW4 1372   1.999   4.075   6.344  0.2567 -0.2918 -0.4417
  402SOL     OW 1373   6.144   4.310   5.434  0.5460 -0.1597  0.1554
  402SOL    HW2 1374   6.163   4.299   5.341  2.2018  0.9698  0.3220
  402SOL    HW3 1375   6.104   4.227   5.460  2.3738 -1.4769 -1.0065
  402SOL    MW4 1376   6.141   4.298   5.425  0.2449 -0.0968  0.0584
  403SOL     OW 1377   4.233   0.851   4.840 -0.4795 -0.1586 -0.8307
  403SOL    HW2 1378   4.200   0.898   4.764 -0.2047 -1.6370 -1.9061
  403SOL    HW3 1379   4.322   0.826   4.816 -0.3153 -0.4582  0.0530
  403SOL    MW4 1380   4.240   0.854   4.827  0.5514 -0.0626 -0.0925
  404SOL     OW 1381   0.684   1.649   2.333 -0.1741 -0.5074 -0.3182
  404SOL    HW2 1382   0.763   1.656   2.387 -0.9461 -1.3109  0.9810
  404SOL    HW3 1383   0.705   1.583   2.267  0.0095 -1.2637  0.4839
  404SOL    MW4 1384   0.697   1.641   2.332  0.1371 -0.0967  0.6673
  405SOL     OW 1385   6.396   2.046   2.075  0.2409 -0.0604  0.1577
  405SOL    HW2 1386   6.463   2.038   2.007 -0.3477 -1.6421 -0.2817
  405SOL    HW3 1387   6.402   1.963   2.123 -0.3161  0.4576  1.1434
  405SOL    MW4 1388   6.406   2.034   2.073 -0.1366  0.4899  0.5713
  406SOL     OW 1389   6.157   4.751   3.719  0.0700  0.1907  0.0281
  406SOL    HW2 1390   6.082   4.751   3.659  0.8325  2.2158 -1.0272
  406SOL    HW3 1391   6.230   4.721   3.664  0.3357 -0.2363  0.6116
  406SOL    MW4 1392   6.157   4.747   3.704 -0.0798 -0.0064 -0.4871
  407SOL     OW 1393   1.468   6.166   3.137 -0.0440 -0.0337  0.0957
  407SOL    HW2 1394   1.538   6.216   3.180  0.4907 -0.1578 -0.5994
  407SOL    HW3 1395   1.477   6.188   3.044  1.1198 -2.4662 -0.4423
  407SOL    MW4 1396   1.479   6.175   3.130 -0.3685  0.0784 -0.3848
  408SOL     OW 1397   5.478   6.161   2.159  0.4775 -0.2330  0.4987
  408SOL    HW2 1398   5.443   6.250   2.149  0.9770 -0.0389  0.3969
  408SOL    HW3 1399   5.572   6.175   2.171  0.4862 -0.7244  1.0006
  408SOL    MW4 1400   5.486   6.175   2.159  0.3924  0.8885 -0.2926
  409SOL     OW 1401   2.510   3.848   4.463 -0.1700  0.7487 -0.3028
  409SOL    HW2 1402   2.463   3.798   4.396 -0.2338  0.8954 -0.3661
  409SOL    HW3 1403   2.560   3.913   4.414  1.9409 -0.8575 -0.4626
  409SOL    MW4 1404   2.511   3.850   4.448  0.1728  0.1730  0.5543
  410SOL     OW 1405   2.053   2.627   5.876  0.3377 -0.2544 -0.0740
  410SOL    HW2 1406   1.975   2.676   5.903  1.4790  0.4802  2.1023
  410SOL    HW3 1407   2.119   2.694   5.860  1.4997 -0.9559  1.5342
  410SOL    MW4 1408   2.051   2.642   5.878  0.4114 -0.3898  0.6065
  411SOL     OW 1409   2.949   5.435   2.282  0.1847  0.2208  0.6251
  411SOL    HW2 1410   2.936   5.402   2.371 -1.3811 -0.0699  0.3216
  411SOL    HW3 1411   2.860   5.445   2.247  0.7757 -1.2810 -1.4834
  411SOL    MW4 1412   2.935   5.432   2.289 -0.2167 -0.3566  0.0330
  412SOL     OW 1413   2.569   3.609   0.124 -0.2143  0.9838  0.7295
  412SOL    HW2 1414   2.512   3.574   0.193 -2.5349  0.2471 -1.4237
  412SOL    HW3 1415   2.602   3.532   0.078  1.0345  1.4712  0.7669
  412SOL    MW4 1416   2.566   3.594   0.127 -0.4717 -0.6110 -0.2725
  413SOL     OW 1417   0.275   1.067   4.266 -0.0568  0.2202 -0.2655
  413SOL    HW2 1418   0.346   1.131   4.262 -0.6733  0.8746 -1.4096
  413SOL    HW3 1419   0.238   1.077   4.354  0.9502  0.2156  0.1621
  413SOL    MW4 1420   0.279   1.077   4.277  0.2895 -0.4790 -0.4924
  414SOL     OW 1421   1.504   5.241   3.016 -1.0420  0.3886  0.0897
  414SOL    HW2 1422   1.450   5.321   3.017 -1.9186 -0.1902  0.3839
  414SOL    HW3 1423   1.490   5.202   3.101 -1.6814 -0.7650 -0.5263
  414SOL    MW4 1424   1.495   5.247   3.027  0.2754  0.0211 -0.8732
  415SOL     OW 1425   3.247   6.053   0.326  0.3918  0.1827  0.2974
  415SOL    HW2 1426   3.287   6.087   0.246 -0.3414  0.9849  0.2543
  415SOL    HW3 1427   3.175   5.998   0.295 -0.4084  1.1430  0.3883
  415SOL    MW4 1428   3.243   6.050   0.311 -0.2344  0.3042 -0.3319
  416SOL     OW 1429   1.998   3.115   2.379  0.0829  0.3749  0.2118
  416SOL    HW2 1430   2.011   3.034   2.330 -0.7095  1.1446 -1.3355
  416SOL    HW3 1431   1.906   3.137   2.366  0.3069  1.5916  0.4922
  416SOL    MW4 1432   1.988   3.108   2.371 -0.0362  0.6244  0.7491
  417SOL     OW 1433   3.782   1.806   0.925 -0.1311 -0.3041  0.4713
  417SOL    HW2 1434   3.770   1.893   0.963 -1.0000 -0.4451  0.5497
  417SOL    HW3 1435   3.694   1.769   0.923  0.4032 -1.7529  1.7868
  417SOL    MW4 1436   3.769   1.813   0.929  0.3535 -0.0592 -0.1176
  418SOL     OW 1437   3.663   0.233   4.224 -0.2972 -0.1298  0.2856
  418SOL    HW2 1438   3.573   0.214   4.199  0.3015 -1.3327 -1.0764
  418SOL    HW3 1439   3.713   0.157   4.196  1.1865  0.5893  0.8458
  418SOL    MW4 1440   3.658   0.221   4.217 -0.6216  0.2775  0.7519
  419SOL     OW 1441   1.515   0.592   3.962 -0.2966  0.0854  0.0043
  419SOL    HW2 1442   1.590   0.532   3.959  0.3163  0.5364  3.1195
  419SOL    HW3 1443   1.440   0.535   3.977 -0.2316 -0.1478 -0.5135
  419SOL    MW4 1444   1.515   0.576   3.964 -0.0598 -0.0250  0.1130
  420SOL     OW 1445   3.244   6.066   5.041  0.6536 -0.1528  0.0797
  420SOL    HW2 1446   3.185   6.101   5.108 -0.5841  0.3059 -1.1962
  420SOL    HW3 1447   3.224   6.117   4.963  1.8951 -0.8357 -0.7146
  420SOL    MW4 1448   3.233   6.077   5.040  0.0549 -0.4700 -0.2180
  421SOL     OW 1449   2.638   0.696   3.489 -0.1275 -0.4025  0.0060
  421SOL    HW2 1450   2.577   0.764   3.515  0.1863  0.4407 -1.3527
  421SOL    HW3 1451   2.655   0.713   3.396  1.4389 -1.1632  0.1149
  421SOL    MW4 1452   2.633   0.707   3.480 -0.9738 -0.2659 -0.0214
  422SOL     OW 1453   1.620   3.295   3.743  0.1686  0.6117  0.1379
  422SOL    HW2 1454   1.537   3.343   3.744  0.3583  1.0860 -1.9359
  422SOL    HW3 1455   1.650   3.302   3.652  0.6965 -2.5782 -0.0423
  422SOL    MW4 1456   1.613   3.302   3.731  0.6707  0.3896 -0.2533
  423SOL     OW 1457   4.721   2.292   4.748  0.3949  0.4045  0.1399
  423SOL    HW2 1458   4.756   2.239   4.677  0.3861 -0.8087  1.0119
  423SOL    HW3 1459   4.782   2.278   4.821 -0.2000  0.7487  0.7202
  423SOL    MW4 1460   4.734   2.283   4.748 -0.4845 -0.1651 -0.1807
  424SOL     OW 1461   2.733   4.557   0.581 -0.0407  0.1912  0.2249
  424SOL    HW2 1462   2.706   4.647   0.596  0.5832  0.1747  1.6166
  424SOL    HW3 1463   2.672   4.523   0.516 -0.8762  1.3260  0.4013
  424SOL    MW4 1464   2.722   4.564   0.575  0.1855 -0.1944 -0.1961
  425SOL     OW 1465   1.152   3.001   0.504  0.2462 -0.4462 -0.1442
  425SOL    HW2 1466   1.139   2.920   0.552 -0.8231  0.2620  0.7980
  425SOL    HW3 1467   1.189   3.062   0.569  1.4837 -0.2971 -0.9522
  425SOL    MW4 1468   1.155   2.999   0.519 -0.0912  0.0132 -0.0165
  426SOL     OW 1469   6.282   3.681   4.270  0.6286  0.0361 -0.2166
  426SOL    HW2 1470   6.237   3.749   4.220  0.6519 -0.6328 -1.1692
  426SOL    HW3 1471   6.284   3.605   4.212  0.1092 -0.9719  1.0229
  426SOL    MW4 1472   6.277   3.680   4.256 -0.0402 -0.1422  0.3684
  427SOL     OW 1473   4.291   0.784   0.885  0.1596 -0.1346  0.6719
  427SOL    HW2 1474   4.282   0.700   0.930 -3.9795  0.5944  1.6135
  427SOL    HW3 1475   4.221   0.785   0.820  0.8256  2.1176 -0.1096
  427SOL    MW4 1476   4.281   0.773   0.883  0.6904  0.1071 -0.2413
  428SOL     OW 1477   6.007   4.926   1.150  0.0192 -0.2375  0.2044
  428SOL    HW2 1478   5.954   4.850   1.124 -1.1656  0.4928  0.4374
  428SOL    HW3 1479   5.980   4.944   1.240  0.6542  0.1675  0.3204
  428SOL    MW4 1480   5.997   4.918   1.159 -0.4751  0.2139 -0.2713
  429SOL     OW 1481   6.049   1.647   4.711  0.0705 -0.1079 -0.1457
  429SOL    HW2 1482   5.979   1.649   4.646 -1.3904  1.8699  1.3501
  429SOL    HW3 1483   6.010   1.601   4.786  0.9495 -0.3978  0.1423
  429SOL    MW4 1484   6.034   1.641   4.712 -0.4603 -0.1674  0.2213
  430SOL     OW 1485   1.256   0.184   5.069  0.5380  0.8109 -0.0299
  430SOL    HW2 1486   1.294   0.194   5.157  0.1292  2.3865 -0.0128
  430SOL    HW3 1487   1.305   0.245   5.014 -0.2491  0.9848 -0.5555
  430SOL    MW4 1488   1.268   0.193   5.074  0.0696  0.4691 -0.1239
  431SOL     OW 1489   6.104   0.457   2.474  0.5546 -0.6266 -0.2923
  431SOL    HW2 1490   6.054   0.388   2.519  0.7144  0.6864  2.0725
  431SOL    HW3 1491   6.195   0.434   2.491  0.6492 -0.6307 -0.8044
  431SOL    MW4 1492   6.109   0.445   2.483 -0.0547 -0.1488 -0.1474
  432SOL     OW 1493   1.208   2.256   1.432  0.0376  0.2210  0.7661
  432SOL    HW2 1494   1.253   2.339   1.416  0.2582 -0.2346 -1.2858
  432SOL    HW3 1495   1.262   2.211   1.497  1.4332  0.5579 -0.1250
  432SOL    MW4 1496   1.221   2.261   1.439  0.2646  0.6435  0.0007
  433SOL     OW 1497   3.159   3.482   5.746 -0.0888  0.7485 -0.1329
  433SOL    HW2 1498   3.132   3.439   5.828  1.9105  2.3915  1.4872
  433SOL    HW3 1499   3.238   3.435   5.719  0.4264  1.5010  0.0343
  433SOL    MW4 1500   3.166   3.470   5.753 -0.1386  0.6088  0.0695
  434SOL     OW 1501   0.970   4.102   0.335  0.2443 -0.1852 -0.0653
  434SOL    HW2 1502   0.931   4.151   0.408 -0.7838  1.3287 -1.5656
  434SOL    HW3 1503   0.937   4.013   0.347  1.0065 -0.2502  1.9274
  434SOL    MW4 1504   0.960   4.097   0.346 -0.6635 -0.0921 -0.2001
  435SOL     OW 1505   6.011   3.488   0.382  0.1014  0.0851 -0.0725
  435SOL    HW2 1506   5.994   3.579   0.360  2.2610 -0.0122 -2.6824
  435SOL    HW3 1507   6.058   3.492   0.466 -0.6054  1.2792  0.2829
  435SOL    MW4 1508   6.015   3.501   0.390 -0.4853  0.0891  0.1055
  436SOL     OW 1509   3.062   2.789   5.828  0.5697  0.4280 -0.0205
  436SOL    HW2 1510   2.968   2.795   5.812  0.7996  0.2460 -1.6719
  436SOL    HW3 1511   3.089   2.710   5.782  1.6602  0.9373 -0.2915
  436SOL    MW4 1512   3.053   2.780   5.820 -0.3172  0.0653 -0.0740
  437SOL     OW 1513   4.965   0.823   0.387  0.2284 -0.2291 -0.1387
  437SOL    HW2 1514   5.000   0.865   0.466  0.5373 -0.3659 -0.2005
  437SOL    HW3 1515   4.885   0.780   0.416  0.8618 -1.1281  0.3289
  437SOL    MW4 1516   4.959   0.823   0.401  0.4633 -0.4041 -0.2225
  438SOL     OW 1517   3.904   5.332   3.071 -0.4164 -0.0583  0.0751
  438SOL    HW2 1518   3.883   5.370   3.156  0.4028  1.0594 -0.2027
  438SOL    HW3 1519   3.907   5.406   3.011 -0.8651 -0.8186 -0.9191
  438SOL    MW4 1520   3.902   5.347   3.074 -0.2867  0.2404 -0.0669
  439SOL     OW 1521   1.176   4.400   4.508 -0.2240  0.3876 -0.1379
  439SOL    HW2 1522   1.095   4.350   4.517  1.0581 -1.6809  0.7157
  439SOL    HW3 1523   1.230   4.349   4.448  0.7879  1.2752 -0.0243
  439SOL    MW4 1524   1.173   4.387   4.501 -0.1859 -0.0919  0.0566
  440SOL     OW 1525   3.566   0.695   0.333  0.2507 -0.4340 -0.5302
  440SOL    HW2 1526   3.504   0.643   0.385 -0.1850  0.1005 -0.5112
  440SOL    HW3 1527   3.647   0.693   0.385 -0.1151 -0.0943  0.0589
  440SOL    MW4 1528   3.569   0.688   0.347  0.2135  0.4220 -0.5025
  441SOL     OW 1529   0.226   2.955   5.725 -0.0309 -0.5402  0.2057
  441SOL    HW2 1530   0.299   2.910   5.766 -0.7945 -1.0457  1.0612
  441SOL    HW3 1531   0.243   3.048   5.742 -0.4359 -0.7366  1.9619
  441SOL    MW4 1532   0.238   2.962   5.733  0.3361 -0.0879 -0.3029
  442SOL     OW 1533   3.937   5.147   2.514 -0.3326 -0.0138  0.2557
  442SOL    HW2 1534   3.901   5.235   2.498  0.1016  0.1489  0.1759
  442SOL    HW3 1535   3.859   5.092   2.523 -0.6106  0.3679  0.2537
  442SOL    MW4 1536   3.922   5.151   2.513  0.3816 -0.4399  0.4560
  443SOL     OW 1537   1.276   5.839   0.554 -0.0819  0.8138 -0.2619
  443SOL    HW2 1538   1.186   5.860   0.582 -0.5464 -2.3458  1.0162
  443SOL    HW3 1539   1.265   5.782   0.478  0.9596  1.9585 -1.3147
  443SOL    MW4 1540   1.262   5.834   0.548  0.1989 -0.3406 -0.5292
  444SOL     OW 1541   0.324   5.273   2.966  0.4197  0.0701 -0.2242
  444SOL    HW2 1542   0.284   5.195   2.926 -0.6670 -0.3213  1.4833
  444SOL    HW3 1543   0.325   5.253   3.060 -0.1714  2.2187  0.2972
  444SOL    MW4 1544   0.319   5.260   2.973 -0.0311  0.0140  0.2017
  445SOL     OW 1545   2.043   2.975   1.262 -0.6274  0.0061  0.0393
  445SOL    HW2 1546   2.027   2.881   1.276 -1.0165  0.0323 -0.2005
  445SOL    HW3 1547   2.036   3.013   1.350 -1.7334 -0.0151 -0.0191
  445SOL    MW4 1548   2.040   2.968   1.276 -0.0328  0.5809 -0.3842
  446SOL     OW 1549   3.430   3.324   2.503  0.1820  0.1473  0.4213
  446SOL    HW2 1550   3.479   3.252   2.464 -0.8587 -1.3893  1.7754
  446SOL    HW3 1551   3.470   3.336   2.589 -0.4636  0.2988  0.7052
  446SOL    MW4 1552   3.441   3.316   2.509 -0.4370 -0.1743 -0.0577
  447SOL     OW 1553   5.214   3.928   1.041 -0.4601 -0.6270  0.4149
  447SOL    HW2 1554   5.218   3.834   1.058  1.4429 -0.4425  1.2424
  447SOL    HW3 1555   5.197   3.934   0.947  0.5288 -1.8397  0.1224
  447SOL    MW4 1556   5.212   3.916   1.031  0.0711  0.3888 -0.2174
  448SOL     OW 1557   1.049   0.936   4.533  0.1580  0.3358 -0.5448
  448SOL    HW2 1558   1.077   0.845   4.543  0.1281  0.4786  1.3146
  448SOL    HW3 1559   1.085   0.981   4.610 -0.1708  1.8055 -1.2078
  448SOL    MW4 1560   1.057   0.930   4.545  0.0382 -0.0364  0.0496
  449SOL     OW 1561   3.639   3.497   1.042  0.2132 -0.2428 -0.1600
  449SOL    HW2 1562   3.691   3.448   0.979  0.1501 -1.7621  0.9085
  449SOL    HW3 1563   3.623   3.435   1.113 -1.7035  0.6810  0.2795
  449SOL    MW4 1564   3.644   3.483   1.043 -0.4293  0.3954  0.4728
  450SOL     OW 1565   0.006   5.994   0.740 -0.0647 -0.7753 -0.1646
  450SOL    HW2 1566   0.035   5.903   0.743 -0.4439 -0.9967 -1.9398
  450SOL    HW3 1567  -0.035   6.009   0.825  2.7242 -1.2676  1.3946
  450SOL    MW4 1568   0.004   5.984   0.751 -0.5824  0.3680  0.0971
  451SOL     OW 1569   2.789   0.096   5.398  0.4087  0.4532  0.1471
  451SOL    HW2 1570   2.745   0.020   5.438  2.4136 -0.6960  0.3103
  451SOL    HW3 1571   2.785   0.164   5.466  0.0600 -0.0558  0.6540
  451SOL    MW4 1572   2.782   0.095   5.413  0.2722 -0.6439  1.0326
  452SOL     OW 1573   3.202   2.448   3.275 -0.4367 -0.2527 -0.0313
  452SOL    HW2 1574   3.209   2.434   3.370  2.1161 -1.5980 -0.3167
  452SOL    HW3 1575   3.195   2.542   3.265 -3.0213 -0.1647  1.5170
  452SOL    MW4 1576   3.202   2.458   3.286 -0.7941 -0.1382  0.8526
  453SOL     OW 1577   6.206   4.667   1.838  0.1890  0.2562 -0.3190
  453SOL    HW2 1578   6.198   4.672   1.934  1.3110 -0.6799 -0.1423
  453SOL    HW3 1579   6.118   4.646   1.808 -0.2548  0.8982  0.4719
  453SOL    MW4 1580   6.194   4.665   1.847  0.0760  0.0278 -0.0479
  454SOL     OW 1581   2.607   3.954   1.950 -0.0186  0.4793  0.2152
  454SOL    HW2 1582   2.559   3.991   2.025  1.6061 -0.6494  1.8962
  454SOL    HW3 1583   2.586   3.861   1.953 -2.2012  0.7513 -2.5556
  454SOL    MW4 1584   2.598   3.947   1.961  0.0131 -0.8502  0.7464
  455SOL     OW 1585   4.202   3.763   0.016 -0.0794  0.1476  0.3210
  455SOL    HW2 1586   4.216   3.855  -0.002 -0.0734 -0.0492 -0.7126
  455SOL    HW3 1587   4.157   3.729  -0.061  1.9189 -1.2019 -0.3459
  455SOL    MW4 1588   4.198   3.770   0.004 -0.0796 -0.3947  0.2289
  456SOL     OW 1589   1.976   5.157   4.295  0.4750 -0.9406  0.0226
  456SOL    HW2 1590   1.994   5.201   4.379  0.1768 -0.4777 -0.1515
  456SOL    HW3 1591   2.061   5.150   4.253  0.2949  1.5885 -0.9652
  456SOL    MW4 1592   1.989   5.162   4.301 -0.2679 -0.0632 -0.3332
  457SOL     OW 1593   3.827   0.931   2.424  0.1860 -0.1332 -0.1945
  457SOL    HW2 1594   3.857   0.977   2.502  2.3403 -1.4547 -0.1709
  457SOL    HW3 1595   3.732   0.944   2.423  0.2050  0.5299  2.2288
  457SOL    MW4 1596   3.818   0.939   2.434 -0.0100  0.1255  0.4141
  458SOL     OW 1597   3.188   5.485   0.409  0.1606  0.3738  0.0569
  458SOL    HW2 1598   3.103   5.442   0.420  0.6434 -0.2855  1.6377
  458SOL    HW3 1599   3.234   5.468   0.492  1.7444  0.9115 -0.6624
  458SOL    MW4 1600   3.183   5.477   0.422 -0.5442  0.2634  0.2136
  459SOL     OW 1601   4.014   1.863   1.579 -0.5043 -0.5879  0.6985
  459SOL    HW2 1602   4.030   1.957   1.576 -2.0257 -0.3242 -0.9066
  459SOL    HW3 1603   4.096   1.825   1.609  0.7449  1.1171 -0.3924
  459SOL    MW4 1604   4.027   1.870   1.582 -0.5640  0.0577  0.4913
  460SOL     OW 1605   2.249   2.890   4.037  0.0638  0.2452  0.8430
  460SOL    HW2 1606   2.273   2.980   4.060  1.7624  0.2013 -0.5806
  460SOL    HW3 1607   2.229   2.848   4.121 -0.8088  1.9401  1.5225
  460SOL    MW4 1608   2.249   2.896   4.051  0.3341 -0.4885  0.3710
  461SOL     OW 1609   2.673   5.006   4.157  0.3972 -0.0959 -0.6743
  461SOL    HW2 1610   2.602   4.942   4.151  0.5046 -0.2475 -0.3427
  461SOL    HW3 1611   2.629   5.089   4.176  0.3809 -0.3820  0.6388
  461SOL    MW4 1612   2.658   5.008   4.159  0.0289 -0.0701  0.2998
  462SOL     OW 1613   3.245   3.050   3.601 -0.0960  0.0576 -0.3472
  462SOL    HW2 1614   3.159   3.010   3.587  0.3692 -1.0377 -0.1455
  462SOL    HW3 1615   3.301   2.977   3.627  1.2708  0.4758 -1.9763
  462SOL    MW4 1616   3.241   3.035   3.603  0.0743  0.0067  0.1923
  463SOL     OW 1617   5.061   2.681   3.736 -0.7502  0.0258  0.0337
  463SOL    HW2 1618   5.039   2.625   3.662 -0.6005 -1.1996  0.8956
  463SOL    HW3 1619   5.102   2.623   3.799  1.3929  1.4864  0.1058
  463SOL    MW4 1620   5.063   2.666   3.734  0.2414 -0.1762 -0.1047
  464SOL     OW 1621   5.946   1.692   0.658 -0.1035  0.1793 -0.1751
  464SOL    HW2 1622   5.978   1.693   0.568  0.9865 -0.0763  0.1844
  464SOL    HW3 1623   5.865   1.641   0.655  0.6764 -1.0749 -0.7745
  464SOL    MW4 1624   5.940   1.685   0.646  0.0629  0.5161 -0.2840
  465SOL     OW 1625   6.300   0.950   0.312  0.4238  0.7637  0.0787
  465SOL    HW2 1626   6.354   0.880   0.276 -0.6732  0.1458 -0.4005
  465SOL    HW3 1627   6.221   0.907   0.343 -0.0734  1.7227  0.2019
  465SOL    MW4 1628   6.297   0.935   0.311  0.3547  0.4271 -0.0571
  466SOL     OW 1629   4.238   0.538   2.170  0.4255  0.0872 -0.4107
  466SOL    HW2 1630   4.320   0.587   2.170  0.1255  0.6033 -1.0314
  466SOL    HW3 1631   4.264   0.446   2.164  0.9346  0.3093 -2.0050
  466SOL    MW4 1632   4.252   0.533   2.169  0.1934  0.0444  0.2030
  467SOL     OW 1633   1.077   1.786   1.505  0.3000 -0.0862  0.1443
  467SOL    HW2 1634   1.157   1.797   1.453  0.9382  0.2672  1.1595
  467SOL    HW3 1635   1.085   1.698   1.543  1.0510  0.5375  1.5516
  467SOL    MW4 1636   1.089   1.776   1.503  0.3054  0.3265 -0.2873
  468SOL     OW 1637   3.637   1.514   4.722  0.1046 -0.4152 -0.0631
  468SOL    HW2 1638   3.576   1.517   4.795 -1.8698 -1.9187 -1.5276
  468SOL    HW3 1639   3.619   1.594   4.672 -0.5134 -0.7292 -0.3516
  468SOL    MW4 1640   3.627   1.525   4.725 -0.3122 -0.4867 -0.0602
  469SOL     OW 1641   0.304   1.177   2.103  0.0309 -0.1930  0.4467
  469SOL    HW2 1642   0.279   1.128   2.024  1.2425 -1.5514  0.8580
  469SOL    HW3 1643   0.306   1.111   2.172  2.6594  0.2057  0.8423
  469SOL    MW4 1644   0.301   1.162   2.102 -0.2307  0.0199 -0.3772
  470SOL     OW 1645   2.268   2.466   1.157  0.1656  0.1980  0.1783
  470SOL    HW2 1646   2.266   2.546   1.208 -0.4953  1.6781 -2.0296
  470SOL    HW3 1647   2.341   2.478   1.096 -0.7922 -0.2340 -1.1071
  470SOL    MW4 1648   2.278   2.478   1.155  0.3727  0.4253 -0.1627
  471SOL     OW 1649   5.087   3.045   4.325 -0.0250 -0.0743 -0.3234
  471SOL    HW2 1650   5.075   3.102   4.249  0.1016  0.0874 -0.2228
  471SOL    HW3 1651   5.173   3.069   4.360  0.0050 -0.2896 -0.2487
  471SOL    MW4 1652   5.097   3.056   4.319  0.8843  0.3881  0.3892
  472SOL     OW 1653   2.472   5.902   3.561 -0.1996  0.5467 -0.0615
  472SOL    HW2 1654   2.428   5.969   3.508 -1.9753 -0.0084  0.6523
  472SOL    HW3 1655   2.480   5.827   3.502 -0.8204  0.4241  0.0079
  472SOL    MW4 1656   2.467   5.901   3.546  0.1336  0.2918 -0.1770
  473SOL     OW 1657   1.634   2.597   1.114  0.0365 -0.0186 -0.2132
  473SOL    HW2 1658   1.717   2.600   1.161 -0.7290 -2.6907  1.4701
  473SOL    HW3 1659   1.658   2.616   1.023  2.2966  0.4122  0.4118
  473SOL    MW4 1660   1.648   2.600   1.108 -0.1187  0.2201  0.0738
  474SOL     OW 1661   5.325   0.547   5.489 -0.4762 -0.1387 -0.5139
  474SOL    HW2 1662   5.314   0.633   5.531 -0.9312  0.3688 -1.6434
  474SOL    HW3 1663   5.239   0.527   5.453 -0.1906 -0.7595 -0.8479
  474SOL    MW4 1664   5.313   0.556   5.490  0.5213 -0.3311 -0.4513
  475SOL     OW 1665   0.716   2.393   6.310 -0.8729 -0.1829 -0.0577
  475SOL    HW2 1666   0.729   2.306   6.347  1.0676 -0.1566 -0.5898
  475SOL    HW3 1667   0.803   2.433   6.310 -1.4545  1.1796 -1.2582
  475SOL    MW4 1668   0.729   2.387   6.315 -0.3251  0.1477 -0.0625
  476SOL     OW 1669   5.146   1.030   4.106 -0.6216 -0.1104 -0.8652
  476SOL    HW2 1670   5.079   1.035   4.039 -2.7835 -1.3083  1.0642
  476SOL    HW3 1671   5.116   0.961   4.165  2.3712 -0.7575  0.0709
  476SOL    MW4 1672   5.134   1.022   4.105  0.6494 -0.3662 -0.2524
  477SOL     OW 1673   1.451   4.281   3.858  0.0445  0.2717  0.1787
  477SOL    HW2 1674   1.372   4.334   3.842  0.0276  0.0353 -0.5758
  477SOL    HW3 1675   1.518   4.345   3.882 -0.1811  0.5602  0.0468
  477SOL    MW4 1676   1.449   4.297   3.859  0.6855  0.0059 -0.1399
  478SOL     OW 1677   4.275   1.119   4.941  0.2485 -0.2845 -0.2458
  478SOL    HW2 1678   4.344   1.116   5.007  0.7283  0.1807 -0.7266
  478SOL    HW3 1679   4.270   1.030   4.907  1.7389  0.0211 -1.3580
  478SOL    MW4 1680   4.283   1.107   4.945 -0.4549  0.1867  0.3231
  479SOL     OW 1681   5.411   4.579   2.553 -0.1202  0.0370  0.5640
  479SOL    HW2 1682   5.337   4.537   2.598 -0.0461  0.1304  0.7720
  479SOL    HW3 1683   5.371   4.654   2.508  0.1981  1.4860  2.5734
  479SOL    MW4 1684   5.396   4.583   2.553 -0.4326  0.4924  0.1871
  480SOL     OW 1685   2.068   5.222   5.661  0.1140  0.3762  0.6649
  480SOL    HW2 1686   2.046   5.134   5.690  0.6529 -0.1887 -0.5916
  480SOL    HW3 1687   2.115   5.210   5.578  0.3670  1.8276  0.5641
  480SOL    MW4 1688   2.071   5.209   5.654  0.3402  0.2722 -0.1246
  481SOL     OW 1689   3.160   4.183   0.347 -0.0883 -0.8175  0.2252
  481SOL    HW2 1690   3.099   4.246   0.308 -0.4036 -1.1732  0.1327
  481SOL    HW3 1691   3.110   4.144   0.418 -0.3527 -1.8740 -0.5142
  481SOL    MW4 1692   3.145   4.186   0.351  0.0725 -0.0571 -0.5915
  482SOL     OW 1693   4.992   2.685   4.973 -0.2059  0.0554 -0.2109
  482SOL    HW2 1694   4.924   2.713   5.034  0.0313 -1.8429  1.0169
  482SOL    HW3 1695   5.069   2.736   4.998 -0.9154  1.6216 -1.0742
  482SOL    MW4 1696   4.993   2.695   4.984 -0.3665  0.0287 -0.0930
  483SOL     OW 1697   1.733   4.707   5.642 -0.3596 -0.2917  0.0659
  483SOL    HW2 1698   1.727   4.686   5.549  1.1214 -1.5447  0.2221
  483SOL    HW3 1699   1.823   4.737   5.654 -0.5179 -0.1931  1.1095
  483SOL    MW4 1700   1.744   4.708   5.632  0.6311 -0.0746  0.4416
  484SOL     OW 1701   0.148   3.703   4.290  0.2243 -0.0170 -0.0938
  484SOL    HW2 1702   0.179   3.721   4.202  0.6016 -1.0666 -0.1855
  484SOL    HW3 1703   0.054   3.721   4.287 -0.0120 -1.2503 -1.0665
  484SOL    MW4 1704   0.139   3.708   4.278  0.5168  0.1991 -0.3543
  485SOL     OW 1705   0.195   5.623   3.409 -0.4798  0.5883 -0.2571
  485SOL    HW2 1706   0.170   5.546   3.459  2.8046  0.2482  1.0889
  485SOL    HW3 1707   0.143   5.694   3.448 -1.5602 -0.4569  0.2960
  485SOL    MW4 1708   0.185   5.622   3.421 -0.0743  0.0360  0.4777
  486SOL     OW 1709   2.048   1.097   1.802 -0.3635  0.3281  0.4549
  486SOL    HW2 1710   2.119   1.067   1.860 -0.7018 -2.4574 -0.4238
  486SOL    HW3 1711   2.091   1.111   1.718 -0.5657  0.3962  0.3635
  486SOL    MW4 1712   2.063   1.095   1.799 -0.1991 -0.1127 -0.0133
  487SOL     OW 1713   2.949   0.635   3.206 -0.3559 -0.3125  0.7719
  487SOL    HW2 1714   3.014   0.566   3.218 -1.8044 -2.6335 -2.7527
  487SOL    HW3 1715   2.990   0.697   3.146 -1.1805 -1.8347 -1.5422
  487SOL    MW4 1716   2.963   0.634   3.199  0.2300  0.0612  0.2883
  488SOL     OW 1717   2.973   6.415   1.036  0.3501 -0.0539 -0.1701
  488SOL    HW2 1718   2.899   6.450   1.085 -1.6196 -0.9819 -2.2756
  488SOL    HW3 1719   2.989   6.329   1.074  1.5879  0.8519  1.4531
  488SOL    MW4 1720   2.965   6.409   1.047 -0.2102  0.2921  0.2784
  489SOL     OW 1721   4.389   3.617   3.031 -0.1412 -0.5413 -0.0773
  489SOL    HW2 1722   4.453   3.603   3.101 -1.0670  0.9633  1.1346
  489SOL    HW3 1723   4.420   3.563   2.959  1.3127 -1.4948  1.2078
  489SOL    MW4 1724   4.402   3.608   3.031  0.1502  0.2596 -0.1279
  490SOL     OW 1725   2.156   3.962   3.331  0.3042  0.4312 -0.1814
  490SOL    HW2 1726   2.182   3.882   3.376 -0.7727  0.9831  1.5042
  490SOL    HW3 1727   2.083   3.935   3.275 -0.3565  0.3146  0.7284
  490SOL    MW4 1728   2.150   3.948   3.329 -0.5274  0.9760 -0.1152
  491SOL     OW 1729   0.802   3.186   4.817 -0.3593 -0.0518 -1.0328
  491SOL    HW2 1730   0.821   3.260   4.875  1.6189 -1.7864  0.7014
  491SOL    HW3 1731   0.728   3.142   4.858 -0.3275 -0.1044 -1.0328
  491SOL    MW4 1732   0.795   3.190   4.830  0.6209  0.1497 -0.7606
  492SOL     OW 1733   0.479   1.269   1.250 -0.3312 -0.1448  0.8380
  492SOL    HW2 1734   0.496   1.302   1.161 -1.2854  1.3753  1.1772
  492SOL    HW3 1735   0.565   1.251   1.286  0.0986 -0.2694 -0.1986
  492SOL    MW4 1736   0.492   1.271   1.243 -0.2875 -0.5953  0.0092
  493SOL     OW 1737   4.202   4.904   3.400 -0.3833  0.0715 -0.0229
  493SOL    HW2 1738   4.124   4.959   3.403 -0.6519 -0.3451  0.9214
  493SOL    HW3 1739   4.176   4.828   3.349  0.1128  0.9642 -1.7010
  493SOL    MW4 1740   4.188   4.902   3.394  0.7926  0.2505  0.0922
  494SOL     OW 1741   4.261   4.653   5.608 -0.6548 -0.0180 -0.5938
  494SOL    HW2 1742   4.185   4.679   5.661 -0.5430 -0.2193 -0.3286
  494SOL    HW3 1743   4.283   4.566   5.640  1.6686  1.2421  1.6357
  494SOL    MW4 1744   4.254   4.645   5.620 -0.1443 -0.2089  0.3267
  495SOL     OW 1745   2.039   0.733   0.524  0.3146  0.5165  0.4869
  495SOL    HW2 1746   2.073   0.791   0.591 -0.8438  1.3766  0.3511
  495SOL    HW3 1747   1.980   0.674   0.571 -1.6647  2.0721  0.0526
  495SOL    MW4 1748   2.036   0.733   0.539  0.4587  0.3092 -0.1532
  496SOL     OW 1749   5.232   1.940   6.288 -0.1629 -0.6926 -0.2394
  496SOL    HW2 1750   5.225   1.909   6.378  0.0850 -0.0977 -0.0095
  496SOL    HW3 1751   5.142   1.955   6.261 -0.2163 -0.3847  0.0912
  496SOL    MW4 1752   5.219   1.938   6.296  0.6898  0.2607 -0.1406
  497SOL     OW 1753   2.789   0.050   1.236 -0.3867  0.4161 -0.3863
  497SOL    HW2 1754   2.857   0.084   1.294 -0.8468  0.3807  0.1734
  497SOL    HW3 1755   2.744   0.129   1.204 -1.5492  0.3679  1.0263
  497SOL    MW4 1756   2.792   0.065   1.239 -0.0007  0.4662  0.1061
  498SOL     OW 1757   5.583   6.371   5.936  0.6139 -0.0614  0.1503
  498SOL    HW2 1758   5.524   6.414   5.999 -0.0738 -1.0576  0.2090
  498SOL    HW3 1759   5.550   6.398   5.851  0.4430 -0.1224  0.1951
  498SOL    MW4 1760   5.571   6.380   5.933  0.5937  0.3880  0.2491
  499SOL     OW 1761   5.377   6.237   2.562  0.1146 -0.4178 -0.3761
  499SOL    HW2 1762   5.388   6.332   2.569  1.1876 -0.4880 -0.9076
  499SOL    HW3 1763   5.288   6.226   2.529 -1.0408  0.2891  2.2597
  499SOL    MW4 1764   5.367   6.248   2.559  0.5083  0.7337  0.3941
  500SOL     OW 1765   2.088   3.147   5.356  0.2521 -0.0106 -0.0268
  500SOL    HW2 1766   2.152   3.215   5.371 -0.1525  0.4366 -0.3026
  500SOL    HW3 1767   2.008   3.193   5.329 -0.1979 -0.5482  0.3488
  500SOL    MW4 1768   2.086   3.162   5.354 -0.6532  0.0311  0.1093
  501SOL     OW 1769   4.335   3.443   5.321  0.0871  0.3305 -0.2838
  501SOL    HW2 1770   4.270   3.435   5.390  0.4812  0.4678  0.1061
  501SOL    HW3 1771   4.314   3.371   5.260 -0.8207  0.7734 -0.5057
  501SOL    MW4 1772   4.324   3.432   5.322 -0.0562 -0.0578 -0.0300
  502SOL     OW 1773   5.763   5.311   0.192  0.3368  0.0312 -0.0143
  502SOL    HW2 1774   5.855   5.304   0.216  0.8450  1.1767 -1.4993
  502SOL    HW3 1775   5.727   5.375   0.253  0.8585  0.6079 -0.3072
  502SOL    MW4 1776   5.770   5.318   0.203 -0.1408 -0.1287 -0.0293
  503SOL     OW 1777   1.180   2.246   5.266 -0.4460  0.0252  0.2809
  503SOL    HW2 1778   1.088   2.235   5.242 -0.4655 -0.7069  0.6521
  503SOL    HW3 1779   1.210   2.158   5.289  0.7548 -0.0068 -1.2341
  503SOL    MW4 1780   1.172   2.233   5.266 -0.0819 -0.1577  0.8883
  504SOL     OW 1781   5.864   3.512   1.197  0.0154  0.3071 -0.8046
  504SOL    HW2 1782   5.855   3.434   1.143  0.7327 -0.0232 -0.4582
  504SOL    HW3 1783   5.958   3.523   1.210 -0.0761  1.1602 -0.7417
  504SOL    MW4 1784   5.875   3.503   1.192  0.2387 -0.5220 -0.8097
  505SOL     OW 1785   1.540   0.368   3.368 -0.4925  0.5199 -1.3837
  505SOL    HW2 1786   1.586   0.372   3.452 -0.7604 -0.9166 -1.1432
  505SOL    HW3 1787   1.572   0.444   3.319  1.6462 -0.0553 -0.9728
  505SOL    MW4 1788   1.550   0.379   3.372  0.3948 -0.1401 -0.2325
  506SOL     OW 1789   0.507   1.932   2.588  0.0368 -0.0630 -0.9512
  506SOL    HW2 1790   0.422   1.889   2.579 -0.2742  0.5925 -1.2535
  506SOL    HW3 1791   0.539   1.904   2.674 -0.4792 -0.3270 -0.8375
  506SOL    MW4 1792   0.500   1.923   2.598  1.1071  0.2532  0.3720
  507SOL     OW 1793   1.710   1.603   1.248  0.6917  0.2600 -0.2525
  507SOL    HW2 1794   1.753   1.519   1.262 -0.2165 -0.5029 -1.7387
  507SOL    HW3 1795   1.640   1.584   1.185  1.1975  2.3411 -1.5464
  507SOL    MW4 1796   1.706   1.589   1.241 -0.0945  0.1717  0.3262
  508SOL     OW 1797   4.518   0.483   2.477  0.0478 -0.4410  0.4467
  508SOL    HW2 1798   4.507   0.574   2.501  0.3636  0.2342 -1.7071
  508SOL    HW3 1799   4.433   0.442   2.494 -0.2168  0.3526  1.0342
  508SOL    MW4 1800   4.506   0.489   2.482 -0.3081  0.0989 -0.2181
  509SOL     OW 1801   6.169   0.436   3.621 -0.2876 -0.0235  0.0273
  509SOL    HW2 1802   6.248   0.431   3.568  0.0461  3.9235 -0.1571
  509SOL    HW3 1803   6.174   0.360   3.679  2.0522 -1.5246 -1.9557
  509SOL    MW4 1804   6.180   0.425   3.622  0.0535  0.3965 -0.0230
  510SOL     OW 1805   1.176   5.594   2.194  0.0111 -0.0340  0.2003
  510SOL    HW2 1806   1.195   5.505   2.223  2.1203  0.2646 -0.0510
  510SOL    HW3 1807   1.105   5.623   2.251 -0.9087 -1.9384  0.1007
  510SOL    MW4 1808   1.169   5.586   2.205  0.5979 -0.0819 -0.1341
  511SOL     OW 1809   3.709   5.206   6.134 -0.6264  0.2874 -0.4102
  511SOL    HW2 1810   3.656   5.276   6.173 -1.8896 -1.2571  0.7610
  511SOL    HW3 1811   3.697   5.131   6.192  1.1485 -0.7666 -1.3204
  511SOL    MW4 1812   3.700   5.205   6.146 -0.3029  0.1319  0.0582
  512SOL     OW 1813   6.363   2.851   4.493 -0.2868  0.1020  0.0880
  512SOL    HW2 1814   6.404   2.902   4.563 -0.1160  0.5134 -0.3053
  512SOL    HW3 1815   6.333   2.916   4.430 -2.7735 -0.0884  0.9765
  512SOL    MW4 1816   6.364   2.866   4.494 -0.5957 -0.6726  0.4268
  513SOL     OW 1817   3.704   2.614   4.106  0.0165 -0.3460 -0.5812
  513SOL    HW2 1818   3.738   2.549   4.168  2.2630  0.3060 -1.0067
  513SOL    HW3 1819   3.731   2.698   4.141 -1.5602  0.2837 -0.8021
  513SOL    MW4 1820   3.712   2.616   4.119 -0.0403 -0.3248 -0.4124
  514SOL     OW 1821   5.416   0.043   0.247  0.0334  0.1121 -0.2327
  514SOL    HW2 1822   5.456  -0.043   0.262 -1.6463 -0.5395  0.7675
  514SOL    HW3 1823   5.369   0.033   0.164 -0.5685 -0.1097  0.1284
  514SOL    MW4 1824   5.415   0.030   0.238  0.3009  0.3196 -0.0721
  515SOL     OW 1825   5.747   4.652   5.358 -0.1657 -0.3215  0.1726
  515SOL    HW2 1826   5.837   4.631   5.381  0.5849  2.4293  0.0784
  515SOL    HW3 1827   5.699   4.570   5.368  2.2458 -1.7347  0.6793
  515SOL    MW4 1828   5.752   4.639   5.362  0.3123 -0.3581 -0.5319
  516SOL     OW 1829   3.564   0.816   0.688 -0.2673  0.0112  0.2066
  516SOL    HW2 1830   3.613   0.894   0.714  0.3294 -0.1526 -0.3602
  516SOL    HW3 1831   3.618   0.778   0.618 -0.4743 -0.9841  0.5764
  516SOL    MW4 1832   3.578   0.821   0.682 -0.0341  0.7576  0.4096
  517SOL     OW 1833   6.158   5.704   3.167 -0.4386  0.2117 -0.3066
  517SOL    HW2 1834   6.075   5.749   3.183 -0.1499  0.3201  0.9766
  517SOL    HW3 1835   6.224   5.758   3.212  0.2280 -0.2729 -0.6796
  517SOL    MW4 1836   6.156   5.717   3.175  0.1919 -0.1685 -0.5515
  518SOL     OW 1837   5.003   2.562   3.485 -0.1401  0.5325 -0.2912
  518SOL    HW2 1838   5.075   2.516   3.442 -0.2469  0.3818 -0.3060
  518SOL    HW3 1839   4.951   2.494   3.526  0.3167  0.7211  0.6392
  518SOL    MW4 1840   5.006   2.547   3.485 -0.1211  0.1678  0.4055
  519SOL     OW 1841   3.429   5.969   5.281 -0.1185  0.0500 -0.2256
  519SOL    HW2 1842   3.361   6.036   5.290  1.2147  1.3846  0.5809
  519SOL    HW3 1843   3.504   6.005   5.330  1.4604 -0.9295 -1.7891
  519SOL    MW4 1844   3.430   5.983   5.289 -0.0446  0.4336  0.2205
  520SOL     OW 1845   1.226   5.537   3.873 -0.2459  0.0211 -0.0012
  520SOL    HW2 1846   1.276   5.485   3.936 -0.5744  0.2288  0.4339
  520SOL    HW3 1847   1.280   5.536   3.793  0.7888  0.8052  0.6550
  520SOL    MW4 1848   1.240   5.530   3.870  0.5556 -0.3233 -0.0908
  521SOL     OW 1849   5.788   3.340   2.541 -0.0123  0.3026  0.0480
  521SOL    HW2 1850   5.785   3.245   2.531  1.4908  0.2132  0.1433
  521SOL    HW3 1851   5.852   3.369   2.476 -0.0407  1.1818  0.3949
  521SOL    MW4 1852   5.796   3.331   2.531  0.4431  0.2899 -0.6856
  522SOL     OW 1853   2.130   5.880   4.621 -0.6894 -0.0782  0.8971
  522SOL    HW2 1854   2.165   5.819   4.686 -0.7617  0.3592  1.3500
  522SOL    HW3 1855   2.048   5.911   4.658 -1.4689 -0.8984 -0.0471
  522SOL    MW4 1856   2.124   5.876   4.634 -0.0934  0.5279 -0.3463
  523SOL     OW 1857   0.460   1.461   1.807 -0.2823  0.0097 -0.0138
  523SOL    HW2 1858   0.475   1.454   1.901  1.0025 -0.9556 -0.2534
  523SOL    HW3 1859   0.517   1.394   1.769 -2.3436 -1.0918 -1.3581
  523SOL    MW4 1860   0.470   1.451   1.814  0.0105 -0.4568  0.2554
  524SOL     OW 1861   6.252   5.193   1.839 -0.5122  0.8625 -0.2108
  524SOL    HW2 1862   6.277   5.108   1.802 -0.1446  0.2378  1.3924
  524SOL    HW3 1863   6.256   5.180   1.934 -1.7789  2.2935  0.0701
  524SOL    MW4 1864   6.256   5.180   1.846 -0.3785  0.0033  0.5178
  525SOL     OW 1865   5.998   0.402   5.911  0.1541 -0.6046 -0.4380
  525SOL    HW2 1866   6.053   0.384   5.835  0.2834 -1.4247 -0.1642
  525SOL    HW3 1867   5.913   0.424   5.875  0.6803  0.8322 -0.8743
  525SOL    MW4 1868   5.994   0.403   5.896 -0.7281  0.3229  0.4480
  526SOL     OW 1869   5.915   0.293   4.680 -0.0841  0.2433  0.2947
  526SOL    HW2 1870   5.871   0.300   4.766 -0.1442  2.5766  0.1505
  526SOL    HW3 1871   6.007   0.309   4.699  0.0286 -0.0734  0.0177
  526SOL    MW4 1872   5.921   0.296   4.694 -0.2104  0.1022 -0.5108
  527SOL     OW 1873   6.383   5.380   0.670 -0.3054 -0.3103 -0.1773
  527SOL    HW2 1874   6.372   5.286   0.662 -0.7174 -0.2378 -0.4636
  527SOL    HW3 1875   6.373   5.398   0.763 -0.9825 -0.4525 -0.2202
  527SOL    MW4 1876   6.381   5.370   0.681 -0.2728  0.4740  0.5635
  528SOL     OW 1877   0.177   0.040   0.702 -0.2804 -0.1034 -0.6325
  528SOL    HW2 1878   0.098   0.017   0.653 -0.1269  1.0874 -1.4791
  528SOL    HW3 1879   0.158   0.126   0.739 -0.2561 -0.8199  1.1427
  528SOL    MW4 1880   0.164   0.048   0.701  0.1934  0.2576 -0.8275
  529SOL     OW 1881   4.089   1.458   1.920  0.7172  0.0054  0.5523
  529SOL    HW2 1882   4.060   1.405   1.846 -0.9813  1.0366  0.4261
  529SOL    HW3 1883   4.154   1.404   1.965 -0.9315 -2.1829  0.4492
  529SOL    MW4 1884   4.094   1.444   1.916  0.4782 -0.1958 -0.0941
  530SOL     OW 1885   5.123   3.458   3.249  0.0427 -0.5184 -0.0249
  530SOL    HW2 1886   5.091   3.532   3.199  0.9847  0.5053  0.8342
  530SOL    HW3 1887   5.205   3.434   3.207 -0.1083 -0.8844 -0.1151
  530SOL    MW4 1888   5.129   3.464   3.237 -0.0418  0.3861  0.0385
  531SOL     OW 1889   5.372   3.623   5.772 -0.6541  0.3805  0.0337
  531SOL    HW2 1890   5.445   3.572   5.737 -0.1694 -0.0644  1.6168
  531SOL    HW3 1891   5.407   3.665   5.851 -2.1298  0.0569  0.8982
  531SOL    MW4 1892   5.386   3.622   5.778  0.0076  0.1354 -0.3361
  532SOL     OW 1893   1.128   1.376   2.725 -0.3817 -0.8843  0.3055
  532SOL    HW2 1894   1.193   1.443   2.704 -1.1477 -0.6692 -1.5957
  532SOL    HW3 1895   1.178   1.295   2.727  0.2099 -0.5235  0.5185
  532SOL    MW4 1896   1.143   1.374   2.722  0.0470 -0.2689  0.7487
  533SOL     OW 1897   1.582   5.193   0.454 -0.0366 -0.0868  0.2723
  533SOL    HW2 1898   1.499   5.184   0.500 -1.8942 -3.5551 -3.1527
  533SOL    HW3 1899   1.561   5.241   0.374  0.7380 -2.2676 -1.3626
  533SOL    MW4 1900   1.569   5.198   0.449  0.3144  0.2270 -0.2950
  534SOL     OW 1901   1.038   1.491   0.479 -0.1366  0.2214 -0.3611
  534SOL    HW2 1902   1.125   1.460   0.457  0.2062 -0.4651  1.7358
  534SOL    HW3 1903   1.030   1.575   0.434  3.1495  2.1855  2.2725
  534SOL    MW4 1904   1.048   1.498   0.471  0.0694  0.6053  0.2733
  535SOL     OW 1905   3.867   0.304   1.972  0.3270 -0.2156 -0.0419
  535SOL    HW2 1906   3.915   0.329   1.893 -1.1685  0.3444 -0.8219
  535SOL    HW3 1907   3.790   0.257   1.939  0.1939 -0.8724  1.1449
  535SOL    MW4 1908   3.863   0.301   1.957  0.3025  0.0134  0.2360
  536SOL     OW 1909   2.253   2.941   3.087 -0.1120 -0.1982 -0.1947
  536SOL    HW2 1910   2.236   3.011   3.150 -0.9847 -2.2645  2.0031
  536SOL    HW3 1911   2.348   2.933   3.085 -0.0743 -0.3038  1.1585
  536SOL    MW4 1912   2.263   2.949   3.095 -0.4822  0.0615  0.2452
  537SOL     OW 1913   0.990   1.980   5.586  0.0499  0.4869 -0.4557
  537SOL    HW2 1914   1.057   1.922   5.621  0.2186  1.9174  1.7876
  537SOL    HW3 1915   1.017   2.068   5.613 -0.9966  1.4885 -2.4017
  537SOL    MW4 1916   1.003   1.984   5.594  0.4598  0.3749  0.0923
  538SOL     OW 1917   5.768   3.070   2.451 -0.0626  0.0551  0.2993
  538SOL    HW2 1918   5.809   3.014   2.517 -0.1492 -3.0063 -1.9783
  538SOL    HW3 1919   5.675   3.072   2.475 -0.1418 -1.2599  0.1890
  538SOL    MW4 1920   5.761   3.063   2.463 -0.1652 -0.1712  0.7575
  539SOL     OW 1921   0.812   4.724   1.796  0.0065  0.1737 -0.7296
  539SOL    HW2 1922   0.734   4.696   1.747 -2.0322  0.2308  2.1783
  539SOL    HW3 1923   0.832   4.811   1.762 -1.7593  0.5119 -1.0141
  539SOL    MW4 1924   0.804   4.732   1.785  0.2821 -0.3996 -0.0400
  540SOL     OW 1925   2.531   4.532   0.121  0.2710 -0.0339  0.6161
  540SOL    HW2 1926   2.536   4.442   0.087  1.2986 -0.1339  0.9903
  540SOL    HW3 1927   2.493   4.522   0.208  1.7309 -0.2882  1.2455
  540SOL    MW4 1928   2.526   4.519   0.128  0.2239 -0.1709  0.4668
  541SOL     OW 1929   0.070   5.408   4.924  0.1994 -0.4689  0.4269
  541SOL    HW2 1930   0.124   5.473   4.967 -1.7210  0.3504  1.7708
  541SOL    HW3 1931   0.086   5.327   4.972 -1.0396  0.1786  2.0132
  541SOL    MW4 1932   0.079   5.406   4.936  0.5435 -0.4480  0.2952
  542SOL     OW 1933   3.353   0.525   2.768 -0.3124 -0.5607  0.4796
  542SOL    HW2 1934   3.382   0.582   2.838  1.4110  2.0131 -2.1100
  542SOL    HW3 1935   3.259   0.540   2.762 -0.5161 -0.9482  2.2516
  542SOL    MW4 1936   3.344   0.534   2.776 -0.3786 -0.2287  0.3407
  543SOL     OW 1937   3.050   4.035   0.940 -0.6435  0.0817  0.1449
  543SOL    HW2 1938   3.144   4.048   0.951 -0.6581 -0.5380  1.0547
  543SOL    HW3 1939   3.019   4.118   0.903  0.1254  0.6054  0.6493
  543SOL    MW4 1940   3.058   4.048   0.936  0.9666 -0.3800 -0.0233
  544SOL     OW 1941   2.045   3.858   5.711 -0.4599  0.1624 -0.5092
  544SOL    HW2 1942   2.102   3.903   5.648 -1.1022 -1.2730 -2.1726
  544SOL    HW3 1943   2.091   3.777   5.730 -1.6703 -0.7867 -1.4934
  544SOL    MW4 1944   2.059   3.854   5.705 -0.2578  0.4666  0.4605
  545SOL     OW 1945   0.137   5.921   6.114 -0.6525  0.5208 -0.1196
  545SOL    HW2 1946   0.135   5.909   6.209 -1.2047 -0.3716 -0.2263
  545SOL    HW3 1947   0.131   6.015   6.102 -1.8055  0.5788  0.7206
  545SOL    MW4 1948   0.136   5.932   6.125 -0.1965 -0.0488  0.2311
  546SOL     OW 1949   1.352   6.370   3.986 -0.3797 -0.1350 -0.9269
  546SOL    HW2 1950   1.418   6.321   4.035 -1.4864  0.2265  1.0323
  546SOL    HW3 1951   1.342   6.322   3.903 -1.0596 -2.9646  0.6716
  546SOL    MW4 1952   1.359   6.357   3.981  0.1844  0.0439  0.5168
  547SOL     OW 1953   2.567   1.784   4.041 -0.4697 -0.0701  0.0731
  547SOL    HW2 1954   2.571   1.819   3.952  1.0269 -0.6668 -0.1214
  547SOL    HW3 1955   2.540   1.693   4.031 -2.2847  0.3908  0.4187
  547SOL    MW4 1956   2.564   1.777   4.028  0.2682  0.7083  0.4159
  548SOL     OW 1957   2.063   5.343   4.026  0.0497 -0.1060 -0.3546
  548SOL    HW2 1958   2.113   5.405   4.079 -1.0702  0.2637  0.3140
  548SOL    HW3 1959   1.972   5.360   4.049 -0.2907 -2.2841  0.1738
  548SOL    MW4 1960   2.058   5.353   4.036  0.1131  0.1121 -0.2459
  549SOL     OW 1961   2.815   3.968   5.138 -0.6299  0.1473 -0.0588
  549SOL    HW2 1962   2.832   4.030   5.209 -0.9387 -0.6908  0.7789
  549SOL    HW3 1963   2.874   3.995   5.068 -0.1348  0.8534  0.6083
  549SOL    MW4 1964   2.825   3.979   5.138  0.2344 -0.2001  0.2503
  550SOL     OW 1965   2.805   3.747   5.463 -0.2735  0.0734  0.3034
  550SOL    HW2 1966   2.767   3.733   5.377  1.8174 -2.6408 -0.3277
  550SOL    HW3 1967   2.772   3.675   5.516  0.9565 -0.1379  0.8194
  550SOL    MW4 1968   2.796   3.736   5.459  0.1005  0.5524 -0.1395
  551SOL     OW 1969   4.167   3.448   2.987 -0.1990  0.6049  0.2359
  551SOL    HW2 1970   4.118   3.438   3.069 -0.4086  0.1023  0.0539
  551SOL    HW3 1971   4.249   3.490   3.012  0.2581 -0.6482  0.8798
  551SOL    MW4 1972   4.171   3.452   3.001 -0.5733 -0.0310  0.2049
  552SOL     OW 1973   1.527   3.046   2.234  0.5346  0.4092  0.2893
  552SOL    HW2 1974   1.474   3.081   2.306  1.9307  0.4683  1.3366
  552SOL    HW3 1975   1.470   2.984   2.190 -0.5378  0.7818  1.1141
  552SOL    MW4 1976   1.513   3.043   2.238  0.1561  0.0114 -0.1673
  553SOL     OW 1977   2.948   0.958   5.089 -0.4460  0.4062 -0.0333
  553SOL    HW2 1978   3.019   1.013   5.058 -0.0485  0.1780  0.4562
  553SOL    HW3 1979   2.990   0.876   5.115 -0.7743  0.5173  0.9136
  553SOL    MW4 1980   2.963   0.954   5.089  0.1426 -0.1282 -0.2995
  554SOL     OW 1981   4.537   1.615   2.863 -0.1200  0.7702  0.4104
  554SOL    HW2 1982   4.597   1.683   2.831  1.5919 -1.1163 -0.5803
  554SOL    HW3 1983   4.544   1.620   2.958  0.9079  1.1807  0.3251
  554SOL    MW4 1984   4.546   1.625   2.871  0.3724 -0.1438  0.1849
  555SOL     OW 1985   1.978   2.645   4.220 -0.0218 -0.1981 -0.1440
  555SOL    HW2 1986   2.017   2.619   4.136 -1.5409  1.1631 -1.3290
  555SOL    HW3 1987   2.036   2.714   4.253  0.7551 -0.9543  0.1173
  555SOL    MW4 1988   1.991   2.650   4.213  0.0784 -0.1734  0.0345
  556SOL     OW 1989   1.153   2.816   6.271  0.0150  0.1542 -0.0750
  556SOL    HW2 1990   1.248   2.814   6.287 -0.2692 -0.3876  1.8805
  556SOL    HW3 1991   1.140   2.754   6.200  0.9391 -1.5508  1.1538
  556SOL    MW4 1992   1.164   2.807   6.264  0.1194 -0.5614  0.2498
  557SOL     OW 1993   0.257   0.784   1.094  0.4475  0.7947 -0.0392
  557SOL    HW2 1994   0.252   0.731   1.014  1.2456  1.0211 -0.2401
  557SOL    HW3 1995   0.281   0.871   1.065 -1.9565  1.6121  0.1746
  557SOL    MW4 1996   0.259   0.788   1.080  0.6533 -0.0200 -0.3694
  558SOL     OW 1997   0.189   0.301   0.352  0.0149  0.7021  0.0759
  558SOL    HW2 1998   0.211   0.343   0.436  0.7500  0.6820 -0.0973
  558SOL    HW3 1999   0.240   0.220   0.352 -0.7536  0.2142  0.0388
  558SOL    MW4 2000   0.199   0.296   0.363  0.5499 -0.1669  0.0434
  559SOL     OW 2001   2.898   5.315   5.033  0.5348 -0.0032 -0.4836
  559SOL    HW2 2002   2.913   5.222   5.022  2.6141 -0.3940  3.4927
  559SOL    HW3 2003   2.818   5.321   5.084  1.0154  0.2420  0.2690
  559SOL    MW4 2004   2.890   5.304   5.039 -0.3962  0.0533  0.0594
  560SOL     OW 2005   0.512   2.447   2.526 -0.2634  0.0371 -0.5637
  560SOL    HW2 2006   0.496   2.506   2.600 -0.7346  0.9625 -1.3818
  560SOL    HW3 2007   0.607   2.452   2.513 -0.3761  1.1817 -1.0637
  560SOL    MW4 2008   0.523   2.456   2.534 -0.8124 -0.7885 -0.0133
  561SOL     OW 2009   3.498   2.292   4.973  0.5796 -0.3100 -0.3676
  561SOL    HW2 2010   3.526   2.207   5.006 -1.1576 -0.6553  0.3522
  561SOL    HW3 2011   3.408   2.278   4.942 -0.5380  1.6342  1.6507
  561SOL    MW4 2012   3.490   2.279   4.973  0.0937 -0.0291 -0.5804
  562SOL     OW 2013   4.619   1.496   0.191  0.1867 -0.8154 -1.2410
  562SOL    HW2 2014   4.675   1.455   0.125  2.6733  0.6818 -0.2350
  562SOL    HW3 2015   4.591   1.425   0.248  0.4034 -1.7222 -2.2478
  562SOL    MW4 2016   4.623   1.481   0.190 -0.1202 -0.0396  0.3237
  563SOL     OW 2017   4.122   5.283   1.056  0.3379  0.0985  0.5541
  563SOL    HW2 2018   4.030   5.303   1.043 -0.1026 -1.7121  0.6047
  563SOL    HW3 2019   4.126   5.242   1.142  0.3766 -3.8445 -1.0972
  563SOL    MW4 2020   4.111   5.280   1.065 -0.0355  0.2591 -0.1318
  564SOL     OW 2021   4.117   0.120   5.578  0.0193 -0.8678 -0.1329
  564SOL    HW2 2022   4.042   0.066   5.602 -1.4330  1.3314  0.5560
  564SOL    HW3 2023   4.179   0.109   5.649 -0.7544 -0.7708  0.5692
  564SOL    MW4 2024   4.115   0.112   5.590 -0.2727 -0.3585 -0.2360
  565SOL     OW 2025   4.057   0.060   5.954  0.1174  0.1036 -0.0206
  565SOL    HW2 2026   4.116   0.055   5.879 -0.5396  0.5833 -0.5911
  565SOL    HW3 2027   3.978   0.103   5.919 -0.0737  0.6319  1.0196
  565SOL    MW4 2028   4.054   0.065   5.940  0.0294 -0.3310 -0.9037
  566SOL     OW 2029   5.529   3.783   4.742  0.2276  0.1531 -0.2342
  566SOL    HW2 2030   5.516   3.698   4.700  0.4573 -0.5616  1.0916
  566SOL    HW3 2031   5.455   3.793   4.801  0.7375  0.3911  0.3807
  566SOL    MW4 2032   5.518   3.773   4.744  0.2171 -0.2665 -0.9589
  567SOL     OW 2033   4.149   1.483   6.025 -0.6272 -0.0976 -0.1383
  567SOL    HW2 2034   4.242   1.483   6.004 -0.8037  0.2333 -0.9701
  567SOL    HW3 2035   4.133   1.396   6.062  0.6385  0.8990  3.0923
  567SOL    MW4 2036   4.159   1.471   6.027 -0.1433 -0.4502 -0.0841
  568SOL     OW 2037   6.325   3.444   5.088 -0.1712  0.3920 -0.2820
  568SOL    HW2 2038   6.271   3.479   5.017 -0.8068  0.0608  0.0309
  568SOL    HW3 2039   6.268   3.383   5.134  0.1111  0.8831  0.7510
  568SOL    MW4 2040   6.310   3.440   5.085  0.5681  0.6962 -0.1049
  569SOL     OW 2041   5.438   2.268   2.206 -0.5743  0.6138 -0.1059
  569SOL    HW2 2042   5.490   2.259   2.126  0.6614 -0.3708  0.7702
  569SOL    HW3 2043   5.371   2.201   2.200 -1.0587  1.1367 -0.7117
  569SOL    MW4 2044   5.436   2.258   2.195  0.0924  0.6130 -0.0772
  570SOL     OW 2045   0.594   4.098   0.090 -0.1112 -0.4704 -0.4588
  570SOL    HW2 2046   0.540   4.102   0.011  0.8427 -1.2298 -1.1799
  570SOL    HW3 2047   0.615   4.005   0.101  1.5230 -0.1465 -0.5651
  570SOL    MW4 2048   0.590   4.086   0.081 -0.2251 -0.9425  0.4010
  571SOL     OW 2049   0.758   4.054   1.273  0.4594  0.0090  0.3718
  571SOL    HW2 2050   0.818   3.979   1.271  2.2648  1.3802  0.4238
  571SOL    HW3 2051   0.685   4.028   1.216  1.7993 -1.1759 -0.8848
  571SOL    MW4 2052   0.756   4.041   1.265 -0.6571  0.1925 -0.5294
  572SOL     OW 2053   0.459   2.997   5.294 -0.1114  0.0802 -0.4517
  572SOL    HW2 2054   0.548   3.025   5.272  0.7926 -2.2940 -0.1017
  572SOL    HW3 2055   0.438   2.930   5.229 -0.1214 -2.0257  1.5646
  572SOL    MW4 2056   0.468   2.992   5.283 -0.4495  0.2078 -0.0230
  573SOL     OW 2057   4.415   0.644   3.972  0.6158  0.5765 -0.5268
  573SOL    HW2 2058   4.391   0.611   3.885  5.3280  0.1913 -1.9709
  573SOL    HW3 2059   4.404   0.739   3.966 -2.9162  0.3533  0.0383
  573SOL    MW4 2060   4.410   0.652   3.960  0.3490  0.4802  0.7135
  574SOL     OW 2061   3.285   2.416   0.871  0.0438  0.0582 -0.3510
  574SOL    HW2 2062   3.256   2.478   0.939 -0.1456 -0.5779  0.1530
  574SOL    HW3 2063   3.205   2.390   0.827 -0.4778 -2.8480  2.0030
  574SOL    MW4 2064   3.271   2.421   0.874 -0.0918  0.3398 -0.1502
  575SOL     OW 2065   6.177   4.872   4.048  0.0044  0.2775 -0.0333
  575SOL    HW2 2066   6.233   4.806   4.005 -0.3167 -0.1242  0.1564
  575SOL    HW3 2067   6.177   4.946   3.988  1.4377  0.6194  0.3524
  575SOL    MW4 2068   6.185   4.873   4.034  0.2720 -0.7800  0.4674
  576SOL     OW 2069   0.630   0.021   5.283 -0.2098  0.0881  0.2377
  576SOL    HW2 2070   0.697  -0.046   5.276  0.2365 -0.0896  4.1195
  576SOL    HW3 2071   0.676   0.098   5.316 -1.5150  0.7262  0.6584
  576SOL    MW4 2072   0.645   0.023   5.286 -0.4133 -0.0652  0.0256
  577SOL     OW 2073   0.124   5.349   4.161 -0.1222  0.2656 -0.2077
  577SOL    HW2 2074   0.215   5.373   4.175 -0.1720 -0.0192  0.6895
  577SOL    HW3 2075   0.119   5.256   4.185 -0.8941  0.5993  1.0807
  577SOL    MW4 2076   0.135   5.340   4.166  0.1964 -0.5244  0.3285
  578SOL     OW 2077   6.166   3.235   3.005  0.0946 -0.3596 -0.8524
  578SOL    HW2 2078   6.192   3.157   3.055  1.9431 -0.4241 -1.8202
  578SOL    HW3 2079   6.233   3.242   2.936  0.0049  2.1202 -0.7621
  578SOL    MW4 2080   6.179   3.225   3.003  0.1656  0.0776  0.0791
  579SOL     OW 2081   1.006   5.370   0.857 -0.3961  0.5349 -0.6908
  579SOL    HW2 2082   0.939   5.393   0.921 -0.3572  2.3780 -1.2329
  579SOL    HW3 2083   1.045   5.289   0.889 -0.7434  1.1260  1.3259
  579SOL    MW4 2084   1.003   5.363   0.869  0.1140  0.0508  0.6986
  580SOL     OW 2085   5.222   0.328   1.638  0.0427 -0.1193 -0.2509
  580SOL    HW2 2086   5.146   0.386   1.639  1.1303  1.3596  0.1359
  580SOL    HW3 2087   5.259   0.339   1.551  0.4517  0.0545 -0.0571
  580SOL    MW4 2088   5.217   0.337   1.627  0.1056  0.5854 -0.4727
  581SOL     OW 2089   5.186   4.125   4.007  0.2813  0.2767 -0.2431
  581SOL    HW2 2090   5.261   4.141   4.065  0.3341 -0.8005 -0.0059
  581SOL    HW3 2091   5.143   4.048   4.044 -3.6862  3.3642  2.3940
  581SOL    MW4 2092   5.190   4.117   4.020 -0.5473  0.1449 -0.2293
  582SOL     OW 2093   5.150   6.396   6.149  0.0907 -0.2883 -0.2100
  582SOL    HW2 2094   5.171   6.458   6.218 -0.9146  0.5487 -0.6324
  582SOL    HW3 2095   5.224   6.336   6.147 -0.6884 -1.5556  2.9086
  582SOL    MW4 2096   5.162   6.396   6.158  0.2944  0.0388  0.0506
  583SOL     OW 2097   5.912   1.602   0.991  0.1221  0.6988  0.1369
  583SOL    HW2 2098   5.907   1.532   0.926 -0.4110  1.6269 -0.8453
  583SOL    HW3 2099   5.990   1.581   1.042 -1.1646 -1.7826  1.2730
  583SOL    MW4 2100   5.922   1.590   0.989 -0.2330  0.2800  0.5017
  584SOL     OW 2101   4.797   0.890   4.098  0.2406  0.1102 -0.5290
  584SOL    HW2 2102   4.749   0.939   4.165  1.7141 -0.8940  1.3712
  584SOL    HW3 2103   4.736   0.822   4.070 -1.0409  1.6205 -1.6118
  584SOL    MW4 2104   4.783   0.887   4.103 -0.0847  0.1344  0.2935
  585SOL     OW 2105   5.776   4.940   6.067 -0.0280 -0.0246  0.2534
  585SOL    HW2 2106   5.852   4.992   6.095  0.8048 -0.1914 -1.5038
  585SOL    HW3 2107   5.711   5.006   6.040 -0.2703  0.1160  1.1655
  585SOL    MW4 2108   5.778   4.956   6.067  0.1176 -0.2077  0.4253
  586SOL     OW 2109   3.444   0.864   2.630 -0.1703 -0.0018 -0.0302
  586SOL    HW2 2110   3.360   0.850   2.674 -0.1958 -0.6971 -0.2757
  586SOL    HW3 2111   3.498   0.791   2.659  0.1445  0.1021 -0.3554
  586SOL    MW4 2112   3.440   0.853   2.639  0.2136  0.3017  0.5199
  587SOL     OW 2113   2.289   5.113   4.573  0.3124 -0.0067  0.6449
  587SOL    HW2 2114   2.341   5.181   4.616  0.7390 -0.4675  0.8561
  587SOL    HW3 2115   2.344   5.035   4.575  0.0813 -0.2035 -0.1654
  587SOL    MW4 2116   2.303   5.112   4.579  0.4704 -0.2194  0.6190
  588SOL     OW 2117   3.698   3.089   1.321 -0.0225  0.0651  0.4159
  588SOL    HW2 2118   3.744   3.040   1.253  0.1512 -1.0637  1.3244
  588SOL    HW3 2119   3.630   3.030   1.351  0.0782  0.4441  1.4188
  588SOL    MW4 2120   3.695   3.075   1.316  0.7098 -0.1033  0.4037
  589SOL     OW 2121   0.160   3.257   0.379 -0.2312 -0.1139  0.0904
  589SOL    HW2 2122   0.139   3.188   0.316  0.0127 -1.8850  1.8343
  589SOL    HW3 2123   0.255   3.271   0.369 -0.2079 -0.3273  0.0112
  589SOL    MW4 2124   0.170   3.250   0.369  0.0107  0.3222  0.3075
  590SOL     OW 2125   0.513   3.328   4.732 -0.2249 -0.2977 -0.4233
  590SOL    HW2 2126   0.420   3.348   4.724  0.0751  0.7816 -1.5883
  590SOL    HW3 2127   0.535   3.356   4.821 -0.8390  0.2605 -0.4309
  590SOL    MW4 2128   0.504   3.335   4.743 -0.4935 -0.6693  0.4843
  591SOL     OW 2129   2.987   4.523   0.724 -0.1959 -0.4352 -0.2910
  591SOL    HW2 2130   2.910   4.551   0.674 -0.9131 -0.5603  0.7072
  591SOL    HW3 2131   3.043   4.601   0.726 -0.9746  0.1361  0.2090
  591SOL    MW4 2132   2.984   4.537   0.718  0.6766  0.0112  0.3245
  592SOL     OW 2133   5.794   0.521   5.651 -0.4852 -0.0960  0.0128
  592SOL    HW2 2134   5.881   0.530   5.612  0.8242  0.9667  2.9170
  592SOL    HW3 2135   5.794   0.434   5.690 -0.1995  0.3733  1.0967
  592SOL    MW4 2136   5.806   0.511   5.651 -0.3658 -0.2324  0.4730
  593SOL     OW 2137   1.001   0.155   3.856  0.4493 -0.4429  0.4633
  593SOL    HW2 2138   1.086   0.199   3.851 -0.5207  1.8061  2.1103
  593SOL    HW3 2139   0.972   0.170   3.946 -2.1918 -0.1535 -0.3664
  593SOL    MW4 2140   1.009   0.162   3.867 -0.3523  0.4954 -0.1130
  594SOL     OW 2141   0.275   4.764   2.313  0.4317 -0.1809  0.1242
  594SOL    HW2 2142   0.340   4.794   2.250  1.2195  1.6865  1.7381
  594SOL    HW3 2143   0.316   4.777   2.398 -1.7986  0.4183  1.1749
  594SOL    MW4 2144   0.289   4.770   2.316 -0.2291  0.2140  0.4300
  595SOL     OW 2145   0.010   5.039   3.498 -0.4709  0.2116  0.0138
  595SOL    HW2 2146   0.034   4.961   3.547 -0.2485  0.4696  0.3185
  595SOL    HW3 2147  -0.082   5.025   3.475 -0.0730 -0.7404 -1.0905
  595SOL    MW4 2148   0.001   5.027   3.502 -0.3086  0.4766  0.3690
  596SOL     OW 2149   1.731   2.880   6.317  0.4298 -0.0665 -0.6571
  596SOL    HW2 2150   1.776   2.818   6.260  0.6483  0.4814 -1.0912
  596SOL    HW3 2151   1.751   2.850   6.406  1.9606  0.3774 -0.8239
  596SOL    MW4 2152   1.740   2.868   6.321  0.1695 -0.0697 -0.6034
  597SOL     OW 2153   1.753   2.580   2.659 -0.2717 -0.2181  0.2511
  597SOL    HW2 2154   1.757   2.655   2.600  0.0024 -1.5818 -1.5311
  597SOL    HW3 2155   1.820   2.598   2.725  2.5518 -0.5751 -2.2852
  597SOL    MW4 2156   1.762   2.593   2.660  0.4680 -0.3340  0.6467
  598SOL     OW 2157   2.613   3.993   5.490  0.1829  0.2495 -0.1294
  598SOL    HW2 2158   2.641   4.062   5.551  1.4366  0.4976 -0.9535
  598SOL    HW3 2159   2.680   3.925   5.498  1.0263  0.7941 -2.0485
  598SOL    MW4 2160   2.626   3.993   5.499 -0.4959 -0.5640  0.0805
  599SOL     OW 2161   2.437   0.122   2.089 -0.4283  0.2489 -0.0944
  599SOL    HW2 2162   2.418   0.147   2.179  0.0610 -3.0097  1.0519
  599SOL    HW3 2163   2.374   0.052   2.069 -1.2955  1.6630 -2.7598
  599SOL    MW4 2164   2.427   0.116   2.098  0.0890 -0.1562 -0.3389
  600SOL     OW 2165   2.902   5.455   3.692  0.3429  0.4966 -0.0106
  600SOL    HW2 2166   2.868   5.437   3.604 -0.8718 -0.2426  0.5873
  600SOL    HW3 2167   2.860   5.537   3.718 -0.1831  0.1275  0.3170
  600SOL    MW4 2168   2.892   5.463   3.684 -0.4409 -0.2615 -0.3507
  601SOL     OW 2169   5.401   2.489   4.153  0.0013  0.0063  0.1707
  601SOL    HW2 2170   5.345   2.496   4.076 -0.8107  1.6025  0.8662
  601SOL    HW3 2171   5.373   2.560   4.210  1.1969 -0.5807  1.5579
  601SOL    MW4 2172   5.390   2.499   4.150  0.4567 -0.1279 -0.2180
  602SOL     OW 2173   0.057   5.544   4.686 -0.5520 -0.0411  0.5175
  602SOL    HW2 2174  -0.030   5.506   4.676 -0.4900  0.0505 -0.5790
  602SOL    HW3 2175   0.100   5.489   4.751 -0.7116 -1.4331 -0.5089
  602SOL    MW4 2176   0.051   5.532   4.693  0.2757 -0.3642  0.3085
  603SOL     OW 2177   3.658   5.950   4.109 -0.4185  0.3246  0.1105
  603SOL    HW2 2178   3.682   6.030   4.156 -1.1349  0.8014 -0.3235
  603SOL    HW3 2179   3.564   5.958   4.096 -0.5627 -0.7766  0.4000
  603SOL    MW4 2180   3.649   5.962   4.114 -0.3163 -0.0551  0.5312
  604SOL     OW 2181   1.847   4.903   2.651 -0.3381 -0.2670 -0.0904
  604SOL    HW2 2182   1.930   4.949   2.650 -0.9337  0.8460 -0.0861
  604SOL    HW3 2183   1.831   4.880   2.559 -1.1884  1.7505 -0.5152
  604SOL    MW4 2184   1.856   4.906   2.639 -0.6855 -0.1167  0.0593
  605SOL     OW 2185   5.042   3.703   3.149 -0.0735  0.1192 -0.2151
  605SOL    HW2 2186   5.040   3.700   3.054  1.2205  1.7496 -0.3412
  605SOL    HW3 2187   5.117   3.759   3.170  0.0355 -0.6792  1.7746
  605SOL    MW4 2188   5.051   3.710   3.139  0.0530 -0.3008  0.0382
  606SOL     OW 2189   4.717   1.937   1.605 -0.4306  0.3991  0.4927
  606SOL    HW2 2190   4.676   1.935   1.519  0.2072 -1.9553  0.1516
  606SOL    HW3 2191   4.811   1.930   1.587 -0.2873 -0.0972  1.3592
  606SOL    MW4 2192   4.724   1.936   1.591 -0.0819 -0.5939 -0.3818
  607SOL     OW 2193   5.284   5.184   3.921 -0.3681  0.4310 -0.0704
  607SOL    HW2 2194   5.195   5.149   3.923 -1.1228  2.1961 -0.1121
  607SOL    HW3 2195   5.308   5.182   3.829 -0.0599 -0.7130  0.0216
  607SOL    MW4 2196   5.275   5.179   3.909 -0.0684 -0.3057 -0.1208
  608SOL     OW 2197   4.008   0.273   4.436  0.5551  0.1823 -0.2918
  608SOL    HW2 2198   3.997   0.306   4.525  2.4471  1.4921 -0.4820
  608SOL    HW3 2199   3.949   0.327   4.383  1.3731  1.2350 -0.1656
  608SOL    MW4 2200   3.999   0.284   4.440 -0.3353 -0.4067  0.3164
  609SOL     OW 2201   6.161   0.699   4.196 -0.6297 -0.7673 -0.3112
  609SOL    HW2 2202   6.167   0.643   4.119 -0.4195 -2.2789  0.7692
  609SOL    HW3 2203   6.190   0.644   4.269  1.6718  1.3273  0.5343
  609SOL    MW4 2204   6.166   0.684   4.196  0.0460  0.2816 -0.4192
  610SOL     OW 2205   3.388   4.742   3.717  0.3842  0.1694 -0.0550
  610SOL    HW2 2206   3.385   4.725   3.623 -1.5983  0.9169 -0.1858
  610SOL    HW3 2207   3.331   4.675   3.755  0.1011  0.6903  0.4500
  610SOL    MW4 2208   3.380   4.731   3.709  0.0348  0.2350 -0.4825
  611SOL     OW 2209   2.635   0.283   4.386 -0.2860  0.3554  0.0235
  611SOL    HW2 2210   2.630   0.193   4.419 -0.4983  0.0053 -0.9108
  611SOL    HW3 2211   2.703   0.325   4.438  1.6112 -1.0906 -1.1574
  611SOL    MW4 2212   2.643   0.277   4.397  0.4093  0.1194 -0.3961
  612SOL     OW 2213   4.569   3.177   5.480 -0.2564 -0.0247  0.1265
  612SOL    HW2 2214   4.577   3.192   5.386  0.3675 -0.1338  0.1584
  612SOL    HW3 2215   4.548   3.263   5.516 -1.0030 -0.0777 -0.1654
  612SOL    MW4 2216   4.567   3.190   5.472 -0.0753  0.2375 -0.1580
  613SOL     OW 2217   4.855   1.619   1.833  0.3994  0.2037 -0.1960
  613SOL    HW2 2218   4.791   1.670   1.882 -0.0869 -0.9415  0.4001
  613SOL    HW3 2219   4.810   1.592   1.754 -0.0247 -0.9507  0.4149
  613SOL    MW4 2220   4.841   1.622   1.829  0.4342  0.1426  0.7403
  614SOL     OW 2221   6.394   4.515   1.697 -0.0834  0.4399  0.2793
  614SOL    HW2 2222   6.315   4.562   1.723 -0.3242  0.4934 -0.5160
  614SOL    HW3 2223   6.365   4.425   1.681  0.1953  0.2406  0.8874
  614SOL    MW4 2224   6.380   4.510   1.698  0.5532  0.4500 -0.5096
  615SOL     OW 2225   4.603   1.284   5.518  0.1097  0.2619  0.0759
  615SOL    HW2 2226   4.526   1.228   5.520  0.7985 -0.7706 -1.0532
  615SOL    HW3 2227   4.661   1.247   5.585  0.5581 -0.4061 -0.6590
  615SOL    MW4 2228   4.600   1.272   5.527  0.5653  0.1962 -0.3108
  616SOL     OW 2229   1.888   0.261   5.744 -0.6941 -0.2909  0.1018
  616SOL    HW2 2230   1.816   0.323   5.757 -0.0739  0.5211 -0.2277
  616SOL    HW3 2231   1.887   0.206   5.822 -0.5788  0.8610  0.9469
  616SOL    MW4 2232   1.879   0.262   5.756 -0.0216 -0.0941 -0.2582
  617SOL     OW 2233   5.428   0.464   3.720  0.4264  0.3351 -0.3109
  617SOL    HW2 2234   5.488   0.515   3.774  1.1771  0.6597 -1.4122
  617SOL    HW3 2235   5.466   0.468   3.632  0.2655 -1.7376 -0.5256
  617SOL    MW4 2236   5.441   0.471   3.715  0.1667  0.4383  0.1684
  618SOL     OW 2237   0.956   1.875   6.070  0.6100 -0.5113  0.8141
  618SOL    HW2 2238   0.878   1.896   6.120  0.6210 -0.1509  0.6806
  618SOL    HW3 2239   0.936   1.904   5.981 -0.2532 -3.0762  0.0846
  618SOL    MW4 2240   0.943   1.882   6.065  0.2454 -0.6957 -0.0667
  619SOL     OW 2241   5.152   5.524   6.163 -0.6599  0.3254 -0.1480
  619SOL    HW2 2242   5.110   5.437   6.159 -0.7823  0.3271  0.9057
  619SOL    HW3 2243   5.244   5.507   6.143 -0.6293 -0.0926  0.3247
  619SOL    MW4 2244   5.158   5.510   6.160  0.5574  0.0714  0.2085
  620SOL     OW 2245   2.904   4.556   1.426  0.6733 -0.1738  0.7315
  620SOL    HW2 2246   2.928   4.465   1.442  0.2281 -0.1640  1.4970
  620SOL    HW3 2247   2.828   4.571   1.482 -1.0993 -0.1747 -1.5092
  620SOL    MW4 2248   2.897   4.546   1.436  0.4292  0.0803  0.0152
  621SOL     OW 2249   5.126   5.321   3.529  0.1613  0.1397  0.1638
  621SOL    HW2 2250   5.114   5.393   3.467  1.8466 -0.5071 -0.9632
  621SOL    HW3 2251   5.101   5.243   3.481 -3.2847 -0.0081  1.8839
  621SOL    MW4 2252   5.121   5.320   3.515  0.3011 -0.2639  0.4513
  622SOL     OW 2253   2.195   0.538   0.331 -0.1894 -0.2037 -0.1591
  622SOL    HW2 2254   2.193   0.453   0.287 -1.0007 -0.4606  0.3508
  622SOL    HW3 2255   2.182   0.517   0.423  1.1730  0.3537  0.1730
  622SOL    MW4 2256   2.193   0.524   0.337  0.2501  0.0642  0.2689
  623SOL     OW 2257   3.104   6.273   1.493  0.1729  0.0832  0.2041
  623SOL    HW2 2258   3.129   6.268   1.585 -0.3154 -0.4320  0.3140
  623SOL    HW3 2259   3.163   6.338   1.455  0.2865  0.3969  0.9106
  623SOL    MW4 2260   3.115   6.281   1.500  0.3862 -0.0037  0.2825
  624SOL     OW 2261   2.967   5.270   1.548  0.4336  0.6662  0.0382
  624SOL    HW2 2262   2.921   5.282   1.465  0.3336 -1.5051 -0.2642
  624SOL    HW3 2263   3.034   5.204   1.530  0.7106  0.4901  1.5644
  624SOL    MW4 2264   2.970   5.263   1.535  0.5187 -0.5024  0.2142
  625SOL     OW 2265   0.462   1.256   3.011 -0.0443  0.0466  0.4537
  625SOL    HW2 2266   0.534   1.271   3.073 -0.5674 -0.3421  1.1586
  625SOL    HW3 2267   0.458   1.161   3.001 -0.1727  0.0915  0.0746
  625SOL    MW4 2268   0.471   1.246   3.018 -0.0998  0.7742  0.2844
  626SOL     OW 2269   1.780   1.459   0.700 -0.6677  0.5151 -0.1774
  626SOL    HW2 2270   1.872   1.482   0.704 -0.4294 -0.5118  1.2577
  626SOL    HW3 2271   1.769   1.394   0.770 -1.9213 -1.3435 -1.9895
  626SOL    MW4 2272   1.790   1.453   0.710 -0.1006 -0.1715 -0.8676
  627SOL     OW 2273   0.157   3.615   4.620 -0.1186 -0.1883  0.2917
  627SOL    HW2 2274   0.141   3.570   4.537  0.7860  1.1895 -0.6850
  627SOL    HW3 2275   0.087   3.680   4.626  0.4126  0.4276  0.0413
  627SOL    MW4 2276   0.146   3.618   4.610 -0.0659  0.5114  0.8922
  628SOL     OW 2277   5.351   5.176   3.648 -0.0856 -0.2735  0.4712
  628SOL    HW2 2278   5.334   5.104   3.588  0.5429  0.2307 -0.3379
  628SOL    HW3 2279   5.286   5.243   3.624  1.5300  0.7921 -1.1587
  628SOL    MW4 2280   5.340   5.176   3.637  0.0803  0.1131 -0.1104
  629SOL     OW 2281   3.560   3.553   0.571 -0.1793  0.3891 -0.2983
  629SOL    HW2 2282   3.467   3.554   0.551 -0.6105  0.7318  1.5242
  629SOL    HW3 2283   3.570   3.484   0.636  0.9489 -0.0340 -0.8983
  629SOL    MW4 2284   3.549   3.544   0.577  0.1472  0.2052  0.0326
  630SOL     OW 2285   4.868   4.251   5.282  0.3891 -0.3223  0.1047
  630SOL    HW2 2286   4.910   4.165   5.286  0.6316 -0.1641  1.8669
  630SOL    HW3 2287   4.781   4.234   5.246  0.9809 -1.0531 -1.0336
  630SOL    MW4 2288   4.862   4.238   5.278  0.4282  0.2529 -0.3346
  631SOL     OW 2289   2.438   4.484   0.385  0.7755 -0.4088 -0.0756
  631SOL    HW2 2290   2.378   4.553   0.356  1.0192 -0.6979 -1.3127
  631SOL    HW3 2291   2.393   4.402   0.364  1.0030 -0.6278  0.2803
  631SOL    MW4 2292   2.424   4.482   0.378  0.1242 -0.5059 -0.4874
  632SOL     OW 2293   0.592   5.853   1.592  0.1124  0.2685 -0.6630
  632SOL    HW2 2294   0.606   5.876   1.500  0.5878  0.0221 -0.6573
  632SOL    HW3 2295   0.674   5.811   1.619 -0.2611 -0.2475 -0.3093
  632SOL    MW4 2296   0.605   5.851   1.583 -0.6668  0.1836 -0.1523
  633SOL     OW 2297   0.467   1.077   1.636  0.3654  0.8072  0.2374
  633SOL    HW2 2298   0.413   1.094   1.559 -0.0592  1.6692  0.7101
  633SOL    HW3 2299   0.543   1.029   1.602  0.1141  1.0481 -0.6946
  633SOL    MW4 2300   0.470   1.073   1.622  0.5011 -0.1967  0.0132
  634SOL     OW 2301   2.385   6.407   4.762  0.6110  0.1464 -0.3492
  634SOL    HW2 2302   2.444   6.370   4.827  0.2276 -0.8642 -0.5670
  634SOL    HW3 2303   2.339   6.477   4.809  1.6267  0.6318 -0.0545
  634SOL    MW4 2304   2.386   6.412   4.777  0.7026  0.2625 -0.4802
  635SOL     OW 2305   0.838   3.137   1.843 -0.3263 -0.1510 -0.3971
  635SOL    HW2 2306   0.877   3.147   1.930 -0.4775  1.7319 -0.4916
  635SOL    HW3 2307   0.897   3.078   1.797  0.1586 -0.5965  0.7461
  635SOL    MW4 2308   0.851   3.131   1.848 -0.1158 -0.1057 -0.2902
  636SOL     OW 2309   5.591   3.314   5.275 -0.1512 -0.1491 -0.6375
  636SOL    HW2 2310   5.635   3.397   5.290  2.2532 -1.8763  3.6661
  636SOL    HW3 2311   5.649   3.266   5.216  0.9877 -0.4251  0.6690
  636SOL    MW4 2312   5.605   3.319   5.269 -0.1789 -0.0663 -0.2208
  637SOL     OW 2313   3.489   2.262   2.140 -0.1666 -0.0815  0.2109
  637SOL    HW2 2314   3.398   2.244   2.118 -0.4795  0.4176  1.0460
  637SOL    HW3 2315   3.513   2.193   2.202  0.7164 -1.4991 -1.6422
  637SOL    MW4 2316   3.480   2.251   2.146  0.6363 -0.0031 -0.1158
  638SOL     OW 2317   5.114   5.222   1.482  0.2779 -0.4173  0.0382
  638SOL    HW2 2318   5.120   5.261   1.569 -0.3874 -0.5484  0.1466
  638SOL    HW3 2319   5.109   5.297   1.423  0.2146 -0.3267  0.1570
  638SOL    MW4 2320   5.114   5.237   1.486  0.1548 -0.0244 -0.0900
  639SOL     OW 2321   4.842   2.864   1.088 -0.3935 -0.4183  0.0464
  639SOL    HW2 2322   4.789   2.943   1.078  0.0077 -0.1025  0.3364
  639SOL    HW3 2323   4.784   2.800   1.128 -1.1909 -0.7906 -1.6255
  639SOL    MW4 2324   4.827   2.866   1.092 -0.6520  0.0930  0.5312
  640SOL     OW 2325   3.807   4.384   4.540 -0.1879  0.0005  0.0398
  640SOL    HW2 2326   3.782   4.292   4.545  1.5175 -0.4706  0.2064
  640SOL    HW3 2327   3.868   4.389   4.467  1.0868  0.6545  1.1115
  640SOL    MW4 2328   3.812   4.373   4.531  0.0008  0.5785 -0.1261
  641SOL     OW 2329   0.052   1.474   2.426 -0.3416 -0.6104  0.5206
  641SOL    HW2 2330  -0.024   1.451   2.373 -0.2558  0.9334 -0.3123
  641SOL    HW3 2331   0.127   1.456   2.370 -0.0595 -1.8733  1.2444
  641SOL    MW4 2332   0.052   1.469   2.412 -0.2430 -0.0760 -0.2998
  642SOL     OW 2333   5.656   1.604   5.012 -0.2047 -0.3124 -0.5085
  642SOL    HW2 2334   5.573   1.570   5.047 -0.2359  0.5799  0.3509
  642SOL    HW3 2335   5.677   1.677   5.070  0.9771 -0.2668 -0.9782
  642SOL    MW4 2336   5.648   1.609   5.024 -0.9765  0.4087 -0.5091
  643SOL     OW 2337   0.203   1.803   3.828 -0.3373  0.4065 -0.1059
  643SOL    HW2 2338   0.230   1.895   3.823  0.5502  0.1084 -1.3619
  643SOL    HW3 2339   0.200   1.774   3.736 -0.7304 -0.7756  0.2637
  643SOL    MW4 2340   0.206   1.812   3.815  0.4813  0.2496  0.5711
  644SOL     OW 2341   6.266   0.623   5.648  0.0473 -0.5122 -0.4021
  644SOL    HW2 2342   6.339   0.671   5.686 -0.9583  1.4706 -0.8660
  644SOL    HW3 2343   6.275   0.534   5.684  1.1864  0.3441  1.5970
  644SOL    MW4 2344   6.277   0.617   5.658 -0.6220 -0.1316  0.0821
  645SOL     OW 2345   6.212   2.953   3.152  0.0297 -0.2450  0.5601
  645SOL    HW2 2346   6.287   2.959   3.093  0.4632  2.5846  1.2651
  645SOL    HW3 2347   6.251   2.937   3.238 -0.2123  0.4560  0.8066
  645SOL    MW4 2348   6.227   2.951   3.156 -0.3833 -0.0113 -0.3497
  646SOL     OW 2349   5.492   3.497   1.839  0.2091  0.1125  0.1415
  646SOL    HW2 2350   5.490   3.456   1.925 -1.1614  1.7112  0.9320
  646SOL    HW3 2351   5.568   3.555   1.841 -0.4575  1.0036  0.7454
  646SOL    MW4 2352   5.502   3.499   1.850 -0.0174 -0.5557  0.0389
  647SOL     OW 2353   2.321   3.226   4.938 -0.2353 -0.6714 -0.1709
  647SOL    HW2 2354   2.405   3.264   4.911  0.1327  0.5774  2.4110
  647SOL    HW3 2355   2.265   3.302   4.955 -0.4180 -1.2745  2.3414
  647SOL    MW4 2356   2.325   3.241   4.937  0.1519  0.6600 -0.2722
  648SOL     OW 2357   4.213   4.220   4.176 -0.6710  0.1460  0.2139
  648SOL    HW2 2358   4.134   4.255   4.136 -1.6987 -0.5567  1.5263
  648SOL    HW3 2359   4.268   4.192   4.103 -1.5519  0.8293 -0.7224
  648SOL    MW4 2360   4.210   4.221   4.161  0.0009 -0.0593 -0.3427
  649SOL     OW 2361   3.998   5.746   1.837  0.3070  0.1807 -0.6226
  649SOL    HW2 2362   3.940   5.772   1.765 -2.0418  2.6072  1.9050
  649SOL    HW3 2363   4.064   5.815   1.841  0.5640 -0.0660 -0.5702
  649SOL    MW4 2364   3.999   5.759   1.828 -0.6641 -0.7248  0.0117
  650SOL     OW 2365   5.765   5.614   2.438 -0.4724  0.4018  0.0871
  650SOL    HW2 2366   5.689   5.667   2.418 -0.8354  0.8814  2.4504
  650SOL    HW3 2367   5.733   5.548   2.500  0.4559 -1.1975 -1.0397
  650SOL    MW4 2368   5.751   5.612   2.444 -0.4261  0.1071  0.2828
  651SOL     OW 2369   0.980   5.487   0.202 -0.1565 -0.0542  0.0464
  651SOL    HW2 2370   1.054   5.522   0.252 -0.5237  1.3781 -0.3810
  651SOL    HW3 2371   0.993   5.521   0.114 -1.5711  0.6003  0.0794
  651SOL    MW4 2372   0.992   5.496   0.197 -0.1849  0.5062 -0.3162
  652SOL     OW 2373   2.019   3.008   1.754  0.1186  0.3734 -0.9665
  652SOL    HW2 2374   1.929   3.038   1.747  0.0463  0.5103  0.2310
  652SOL    HW3 2375   2.059   3.032   1.671 -0.6835  1.2433 -1.1273
  652SOL    MW4 2376   2.013   3.015   1.742  0.1954  0.3598  0.2101
  653SOL     OW 2377   4.722   3.028   2.338  0.3083  0.2910  0.1678
  653SOL    HW2 2378   4.747   3.118   2.361  0.8765 -0.1648  1.4294
  653SOL    HW3 2379   4.655   3.005   2.403 -0.3453  0.0398 -0.5860
  653SOL    MW4 2380   4.717   3.037   2.350  0.2354  0.4467  0.3487
  654SOL     OW 2381   0.839   1.503   4.336  0.0366 -0.3352  0.2090
  654SOL    HW2 2382   0.829   1.575   4.399 -3.2373 -1.0399  0.6732
  654SOL    HW3 2383   0.822   1.544   4.251 -0.9328 -0.3815  0.3765
  654SOL    MW4 2384   0.836   1.518   4.333 -0.2284  0.0131  0.0165
  655SOL     OW 2385   4.663   6.285   2.510  0.5068  0.2122  0.0206
  655SOL    HW2 2386   4.711   6.253   2.434  1.7748 -0.5716  1.1236
  655SOL    HW3 2387   4.580   6.235   2.508  1.1930 -0.9733  0.0237
  655SOL    MW4 2388   4.658   6.274   2.500  0.2941 -0.1483 -0.3674
  656SOL     OW 2389   0.278   3.947   6.242  0.1449 -0.2474  0.2897
  656SOL    HW2 2390   0.269   3.852   6.234  2.0485 -0.6331  1.9318
  656SOL    HW3 2391   0.241   3.968   6.328 -0.4374  0.5270 -0.1414
  656SOL    MW4 2392   0.272   3.937   6.253 -0.8369  0.0056 -1.4333
  657SOL     OW 2393   5.905   1.447   0.109 -0.3569 -0.0849  0.3316
  657SOL    HW2 2394   5.927   1.366   0.063  0.5648  0.1159  0.4035
  657SOL    HW3 2395   5.918   1.427   0.201 -2.1100 -0.4558  0.5311
  657SOL    MW4 2396   5.909   1.433   0.115  0.0687  0.1123 -0.3135
  658SOL     OW 2397   2.914   4.078   3.333 -0.2563 -0.0799 -0.2917
  658SOL    HW2 2398   2.892   4.113   3.419 -0.0472 -0.2661 -0.1636
  658SOL    HW3 2399   2.987   4.131   3.302 -1.3445  1.0518 -1.0506
  658SOL    MW4 2400   2.920   4.089   3.340  0.0690  0.5201 -0.2987
  659SOL     OW 2401   3.709   0.411   4.432 -0.8062 -0.0939 -0.0435
  659SOL    HW2 2402   3.691   0.331   4.382 -0.0298  0.1160 -0.6745
  659SOL    HW3 2403   3.719   0.381   4.522  1.3480 -0.9919 -0.5232
  659SOL    MW4 2404   3.708   0.396   4.437  0.3735  0.1076  0.3245
  660SOL     OW 2405   3.046   4.410   3.100 -0.5644  0.6804  0.1486
  660SOL    HW2 2406   3.076   4.339   3.157 -1.6798  0.5579  0.6086
  660SOL    HW3 2407   2.999   4.365   3.029  0.4035  0.8607 -0.6239
  660SOL    MW4 2408   3.044   4.395   3.099 -0.6417 -0.4279 -0.5763
  661SOL     OW 2409   1.046   2.531   2.023 -0.1832  0.2436  0.4290
  661SOL    HW2 2410   1.052   2.466   1.953  0.3831  0.8932 -0.1437
  661SOL    HW3 2411   1.133   2.531   2.063 -0.0957  0.8168  0.2587
  661SOL    MW4 2412   1.058   2.523   2.019 -0.5973 -0.5453 -0.2385
  662SOL     OW 2413   1.181   6.269   0.672 -0.1946  0.2032  0.4092
  662SOL    HW2 2414   1.093   6.247   0.642 -0.1924 -0.7030  1.0163
  662SOL    HW3 2415   1.196   6.358   0.641 -0.9217 -0.0092 -0.5824
  662SOL    MW4 2416   1.171   6.278   0.664 -0.3431  0.0702  0.0276
  663SOL     OW 2417   5.858   5.698   0.358  0.1059 -0.5080  0.6406
  663SOL    HW2 2418   5.928   5.758   0.331  1.6173 -2.8644 -0.9709
  663SOL    HW3 2419   5.781   5.754   0.365  1.1212  1.4497 -2.1207
  663SOL    MW4 2420   5.857   5.714   0.356 -0.3646  0.2411 -0.1918
  664SOL     OW 2421   3.262   0.137   1.112 -1.0705  0.3335  0.1844
  664SOL    HW2 2422   3.214   0.120   1.031  1.7360 -0.1905 -1.4767
  664SOL    HW3 2423   3.290   0.051   1.142  0.4465  0.7386  0.0175
  664SOL    MW4 2424   3.259   0.124   1.106 -0.1033  0.0870 -0.6473
  665SOL     OW 2425   4.226   3.616   6.002  0.0906  0.1771 -0.3845
  665SOL    HW2 2426   4.237   3.653   5.915  3.2736  0.6504  0.1168
  665SOL    HW3 2427   4.283   3.539   6.003  1.3952  1.0682  1.6974
  665SOL    MW4 2428   4.235   3.611   5.991 -0.3619  0.5181 -0.1016
  666SOL     OW 2429   4.216   4.381   4.511 -0.0721 -0.1563 -0.3618
  666SOL    HW2 2430   4.303   4.379   4.471  0.4618 -0.0065  0.7753
  666SOL    HW3 2431   4.224   4.326   4.589 -0.9894 -0.0973 -0.2209
  666SOL    MW4 2432   4.229   4.373   4.516 -0.1396  0.3391 -0.3834
  667SOL     OW 2433   3.244   3.883   5.890  0.0636 -0.6459 -0.4650
  667SOL    HW2 2434   3.174   3.839   5.939  0.1539 -2.3233 -1.7409
  667SOL    HW3 2435   3.286   3.813   5.840  1.3836  0.6496 -1.2584
  667SOL    MW4 2436   3.240   3.868   5.890  0.1094 -0.5928  0.0354
  668SOL     OW 2437   6.227   3.574   2.473  0.8316 -0.9962 -0.3197
  668SOL    HW2 2438   6.214   3.669   2.464  0.1417 -1.1799 -1.3585
  668SOL    HW3 2439   6.193   3.554   2.561  1.3422 -0.2259  0.0651
  668SOL    MW4 2440   6.221   3.584   2.483 -0.3894  0.1326 -0.0580
  669SOL     OW 2441   2.986   2.649   4.712 -0.6505 -0.0802 -0.1246
  669SOL    HW2 2442   3.055   2.583   4.719 -1.0681 -0.4243  1.2401
  669SOL    HW3 2443   2.928   2.617   4.644 -0.4759 -0.7679  0.0475
  669SOL    MW4 2444   2.988   2.636   4.704  0.2830  0.0536  0.0381
  670SOL     OW 2445   0.853   2.733   4.903 -0.0642  0.1458  0.6438
  670SOL    HW2 2446   0.805   2.767   4.827 -1.1309 -0.4957  1.0082
  670SOL    HW3 2447   0.810   2.650   4.923  1.1179 -0.3792  1.0948
  670SOL    MW4 2448   0.841   2.727   4.895  0.0194 -0.5915  0.1526
  671SOL     OW 2449   5.330   0.861   4.448  0.8984 -0.4486 -0.0264
  671SOL    HW2 2450   5.268   0.817   4.389  2.2914  0.8180 -2.6126
  671SOL    HW3 2451   5.297   0.950   4.455  1.0917 -0.4252  0.6120
  671SOL    MW4 2452   5.317   0.867   4.441  0.1510  0.2340 -0.0827
  672SOL     OW 2453   4.654   1.654   4.466 -0.3604 -0.2477 -0.0214
  672SOL    HW2 2454   4.634   1.590   4.535  0.4860  0.1281  0.5937
  672SOL    HW3 2455   4.586   1.721   4.475  0.0967  0.1168  0.8742
  672SOL    MW4 2456   4.643   1.654   4.476 -0.3971 -0.4767  0.4498
  673SOL     OW 2457   1.677   3.933   5.725  0.0237  0.2507 -0.3209
  673SOL    HW2 2458   1.634   3.939   5.640 -1.5594  0.8937  0.4786
  673SOL    HW3 2459   1.641   4.007   5.775  0.9234 -0.1104  0.8991
  673SOL    MW4 2460   1.667   3.944   5.720  0.0280  0.4206 -0.4969
  674SOL     OW 2461   5.217   0.434   4.955 -0.5545 -0.4885  0.2463
  674SOL    HW2 2462   5.184   0.489   5.026  0.1062  0.2370  0.0031
  674SOL    HW3 2463   5.197   0.483   4.876 -1.7413 -1.5194 -0.1424
  674SOL    MW4 2464   5.210   0.447   4.954  0.8401  0.2690 -0.0145
  675SOL     OW 2465   5.537   0.719   0.286 -0.5193 -0.2627  0.5155
  675SOL    HW2 2466   5.621   0.761   0.301 -0.2912 -0.9363  1.1582
  675SOL    HW3 2467   5.473   0.782   0.321 -0.1457 -0.6791  2.0327
  675SOL    MW4 2468   5.539   0.733   0.293  0.3977 -0.2994  0.6654
  676SOL     OW 2469   1.240   0.047   0.962  0.4549  0.3644  0.3667
  676SOL    HW2 2470   1.270  -0.025   1.018  0.2975  0.3392  0.4217
  676SOL    HW3 2471   1.317   0.074   0.913  0.5202  0.1719  0.3625
  676SOL    MW4 2472   1.254   0.041   0.963  0.5884  0.1047 -0.0980
  677SOL     OW 2473   2.461   0.452   5.383  0.6849  0.3136  0.3838
  677SOL    HW2 2474   2.451   0.357   5.389  1.5586  0.1775 -0.0993
  677SOL    HW3 2475   2.488   0.478   5.471 -1.3252  0.3835  1.0376
  677SOL    MW4 2476   2.463   0.443   5.396  0.3434  0.0115 -0.1269
  678SOL     OW 2477   5.048   0.550   4.601  0.0662  0.3995  0.0253
  678SOL    HW2 2478   4.972   0.576   4.548 -0.2330  2.0190  1.1504
  678SOL    HW3 2479   5.124   0.571   4.547 -0.2520  1.4281 -0.0453
  678SOL    MW4 2480   5.048   0.556   4.587 -0.0926 -0.0246  0.8486
  679SOL     OW 2481   0.248   3.258   5.749  0.1123  0.2381 -0.0982
  679SOL    HW2 2482   0.342   3.241   5.736 -0.1369 -0.0975 -1.6096
  679SOL    HW3 2483   0.239   3.352   5.736  0.4556  0.5413  1.6159
  679SOL    MW4 2484   0.259   3.268   5.746  0.1951 -0.0739  0.2507
  680SOL     OW 2485   4.992   3.237   5.483  0.2237 -0.3272  0.3163
  680SOL    HW2 2486   5.018   3.254   5.573  0.2967 -0.7112  0.3693
  680SOL    HW3 2487   4.934   3.309   5.460 -0.6014 -0.7641  1.0049
  680SOL    MW4 2488   4.988   3.249   5.492  0.5299 -0.1398  0.2847
  681SOL     OW 2489   4.853   3.626   3.943  0.2567 -0.1575 -0.1299
  681SOL    HW2 2490   4.874   3.661   4.030  1.0354  0.6269 -0.6065
  681SOL    HW3 2491   4.935   3.587   3.913  0.1705  0.1219 -0.7484
  681SOL    MW4 2492   4.867   3.626   3.951 -0.0174  0.0564  0.4337
  682SOL     OW 2493   5.548   0.232   2.018  0.5458  0.6115 -0.2918
  682SOL    HW2 2494   5.548   0.252   1.924  3.6456  1.8662 -0.1452
  682SOL    HW3 2495   5.468   0.272   2.052  0.9626  3.0065 -1.9092
  682SOL    MW4 2496   5.537   0.240   2.010  0.2785 -0.7798 -0.4296
  683SOL     OW 2497   5.806   4.710   0.184 -0.2610 -0.5595 -0.3188
  683SOL    HW2 2498   5.826   4.799   0.156 -0.2814  0.2132  1.9587
  683SOL    HW3 2499   5.723   4.717   0.232 -0.4701 -1.8857 -0.4308
  683SOL    MW4 2500   5.798   4.723   0.186  0.0100 -0.2590 -0.2563
  684SOL     OW 2501   4.458   3.195   4.060 -0.0963  0.4192 -0.1533
  684SOL    HW2 2502   4.411   3.274   4.085 -0.6313  0.6985 -1.9336
  684SOL    HW3 2503   4.464   3.199   3.965  1.1170 -0.9922 -0.1822
  684SOL    MW4 2504   4.453   3.206   4.051 -0.4190  0.3001 -0.1564
  685SOL     OW 2505   4.282   4.998   5.067 -0.3542  0.3637  0.0348
  685SOL    HW2 2506   4.339   4.921   5.072  0.6394  1.1084  0.5150
  685SOL    HW3 2507   4.270   5.024   5.158 -0.5704  0.8542 -0.1332
  685SOL    MW4 2508   4.288   4.991   5.080 -0.2151 -0.0697 -0.0304
  686SOL     OW 2509   3.393   2.857   5.161 -0.3347  0.4997 -0.2486
  686SOL    HW2 2510   3.314   2.889   5.118  0.9059  1.7292 -1.7213
  686SOL    HW3 2511   3.361   2.810   5.238 -2.6475 -1.4832 -2.2605
  686SOL    MW4 2512   3.379   2.855   5.165 -0.1537 -0.2376  0.0284
  687SOL     OW 2513   3.202   1.722   3.230 -0.3229  0.2482 -0.1632
  687SOL    HW2 2514   3.264   1.745   3.161 -1.3011  0.0598 -1.1348
  687SOL    HW3 2515   3.256   1.705   3.307  0.9302 -1.2434 -1.3280
  687SOL    MW4 2516   3.217   1.723   3.231  0.5960 -0.1065 -0.3080
  688SOL     OW 2517   0.573   4.897   5.889  0.1922  0.1221  0.1010
  688SOL    HW2 2518   0.569   4.906   5.793 -0.4907  1.8057  0.2505
  688SOL    HW3 2519   0.505   4.834   5.910  0.7730 -0.7598 -0.5525
  688SOL    MW4 2520   0.564   4.890   5.879 -0.4208  0.1686 -0.5478
  689SOL     OW 2521   4.105   2.874   3.167  0.3683  0.2081 -0.2579
  689SOL    HW2 2522   4.141   2.889   3.080  0.8940 -0.6156 -0.1962
  689SOL    HW3 2523   4.147   2.940   3.223 -0.1041  0.8505 -0.6542
  689SOL    MW4 2524   4.115   2.884   3.163 -0.2635  0.7168  0.1929
  690SOL     OW 2525   3.551   5.992   5.662  0.5487  0.2420 -0.1625
  690SOL    HW2 2526   3.618   6.005   5.594 -1.7339 -0.2972 -2.6807
  690SOL    HW3 2527   3.551   5.898   5.678 -0.1593  0.1125 -0.8452
  690SOL    MW4 2528   3.560   5.981   5.655 -0.6472 -0.0557  0.4717
  691SOL     OW 2529   3.678   2.056   3.609  0.9004 -0.2129  0.2274
  691SOL    HW2 2530   3.626   2.046   3.689 -1.6970 -2.5542 -1.5647
  691SOL    HW3 2531   3.752   1.997   3.621 -1.0815 -2.9511 -0.1667
  691SOL    MW4 2532   3.681   2.047   3.621 -0.2058  0.4114  0.3095
  692SOL     OW 2533   2.589   5.500   4.315 -0.1585  0.1477 -0.0018
  692SOL    HW2 2534   2.574   5.416   4.271 -1.6747 -0.3539  1.3251
  692SOL    HW3 2535   2.501   5.537   4.326  0.5726  2.9347 -2.2900
  692SOL    MW4 2536   2.576   5.494   4.311 -0.6511 -0.0419  0.3265
  693SOL     OW 2537   3.516   2.059   5.930  0.0646  0.1561 -0.2827
  693SOL    HW2 2538   3.534   1.977   5.884 -1.4224 -2.2015  2.9690
  693SOL    HW3 2539   3.580   2.061   6.001 -1.7853  0.1850  1.4664
  693SOL    MW4 2540   3.527   2.048   5.933 -0.4847 -1.1540 -0.1154
  694SOL     OW 2541   1.818   4.675   6.376  0.5185 -0.4906 -0.5559
  694SOL    HW2 2542   1.762   4.752   6.371  0.5086 -0.5161 -0.8348
  694SOL    HW3 2543   1.907   4.710   6.370  0.5061 -0.5229 -0.9484
  694SOL    MW4 2544   1.822   4.690   6.375 -0.1097 -0.3943  0.2531
  695SOL     OW 2545   2.874   5.673   4.677 -0.8074  0.0483 -0.2569
  695SOL    HW2 2546   2.918   5.592   4.651  0.4600  0.2181  1.2101
  695SOL    HW3 2547   2.943   5.740   4.677 -1.2561  0.5595  1.0581
  695SOL    MW4 2548   2.889   5.671   4.674 -0.3994 -0.1407  0.2434
  696SOL     OW 2549   2.521   1.738   5.593 -0.1321 -0.0878 -0.0824
  696SOL    HW2 2550   2.569   1.694   5.662  0.0527 -0.0432 -0.1804
  696SOL    HW3 2551   2.551   1.829   5.597  1.3711 -0.4642 -1.4761
  696SOL    MW4 2552   2.531   1.745   5.602  0.3343  0.5239 -0.3915
  697SOL     OW 2553   2.751   1.739   5.909  0.5759  0.0875  0.5227
  697SOL    HW2 2554   2.755   1.674   5.979  0.3564  0.3727  0.7962
  697SOL    HW3 2555   2.779   1.690   5.831  0.5301 -0.3059  0.7476
  697SOL    MW4 2556   2.755   1.724   5.908 -0.0637 -0.4030 -0.2664
  698SOL     OW 2557   1.624   0.830   4.603 -0.2907 -0.1437 -0.1496
  698SOL    HW2 2558   1.577   0.912   4.587  0.7756  0.1531 -1.9111
  698SOL    HW3 2559   1.628   0.824   4.699 -1.7293  1.0514  0.0330
  698SOL    MW4 2560   1.618   0.840   4.614  0.1123 -0.3259  0.0183
  699SOL     OW 2561   5.567   5.169   6.000 -0.1662 -0.3572 -0.2637
  699SOL    HW2 2562   5.488   5.128   6.033 -1.1094  0.7161 -1.0977
  699SOL    HW3 2563   5.547   5.192   5.909  1.0231  0.1356 -0.4295
  699SOL    MW4 2564   5.554   5.167   5.992  0.2949 -0.3977 -0.9959
  700SOL     OW 2565   5.533   5.023   5.603 -0.0498  0.1845  0.0663
  700SOL    HW2 2566   5.619   5.066   5.595 -0.6907  1.5587  0.2589
  700SOL    HW3 2567   5.521   4.980   5.518  0.1487  1.3275 -0.5784
  700SOL    MW4 2568   5.543   5.023   5.590  0.2805 -0.0268 -0.2584
  701SOL     OW 2569   2.699   2.449   0.423 -0.1411 -0.4642  0.5781
  701SOL    HW2 2570   2.790   2.419   0.429 -0.7144 -2.2871  0.9554
  701SOL    HW3 2571   2.670   2.419   0.337 -0.5139 -0.2951  0.6443
  701SOL    MW4 2572   2.707   2.441   0.412  0.2454  0.6698  0.2435
  702SOL     OW 2573   2.777   5.094   1.698  0.4927  0.1762  0.1294
  702SOL    HW2 2574   2.722   5.064   1.626 -0.2655 -4.1632  2.1681
  702SOL    HW3 2575   2.846   5.145   1.656 -0.1921 -1.6304 -3.6146
  702SOL    MW4 2576   2.779   5.097   1.683  0.6255  0.7261  0.8264
  703SOL     OW 2577   1.824   0.275   3.172 -0.3256 -0.0400 -0.3857
  703SOL    HW2 2578   1.736   0.238   3.175 -0.7580  0.9749  0.6471
  703SOL    HW3 2579   1.850   0.269   3.081 -0.1193 -3.3316 -0.2268
  703SOL    MW4 2580   1.816   0.269   3.161  0.6690  0.0520 -0.4114
  704SOL     OW 2581   4.753   0.573   0.797  0.2164  0.3293  0.1879
  704SOL    HW2 2582   4.774   0.479   0.801  1.4361  0.6172  1.7589
  704SOL    HW3 2583   4.687   0.585   0.865  0.3178  0.6717  0.2259
  704SOL    MW4 2584   4.747   0.562   0.807 -0.6664 -0.0676  0.1118
  705SOL     OW 2585   5.238   1.971   4.298 -0.3445 -0.0831  0.1966
  705SOL    HW2 2586   5.202   1.939   4.216 -1.1323  0.5580  0.2782
  705SOL    HW3 2587   5.306   2.033   4.271 -0.6047  0.1294  0.0184
  705SOL    MW4 2588   5.242   1.975   4.284  0.6890  1.1190 -0.0166
  706SOL     OW 2589   3.594   4.527   4.421 -0.2659 -0.0544 -0.1847
  706SOL    HW2 2590   3.666   4.476   4.460 -1.4263 -0.5524  1.4013
  706SOL    HW3 2591   3.559   4.578   4.494 -4.1453 -2.8567  0.2109
  706SOL    MW4 2592   3.599   4.527   4.436  0.6373 -0.0684  0.2789
  707SOL     OW 2593   4.987   1.933   1.542  0.2113 -0.0781 -0.9194
  707SOL    HW2 2594   5.040   1.875   1.597  0.1547  1.0719  0.3917
  707SOL    HW3 2595   5.051   1.980   1.489  0.8347  2.5712  1.8574
  707SOL    MW4 2596   5.002   1.932   1.542  0.4402 -0.1975  0.1263
  708SOL     OW 2597   0.866   2.032   5.034 -0.0576  0.3349  0.3088
  708SOL    HW2 2598   0.822   1.976   5.097  0.3605  1.9682  2.1657
  708SOL    HW3 2599   0.807   2.035   4.959 -0.1284 -2.4325  0.1425
  708SOL    MW4 2600   0.852   2.025   5.033  0.1073  0.0321  0.5182
  709SOL     OW 2601   6.181   0.697   0.024  0.0496  0.1885 -0.1140
  709SOL    HW2 2602   6.198   0.670  -0.066  1.3732 -0.4728  0.3048
  709SOL    HW3 2603   6.265   0.732   0.054  0.1439 -1.2410  1.4124
  709SOL    MW4 2604   6.194   0.698   0.016 -0.3382  0.3577  0.4139
  710SOL     OW 2605   3.702   4.982   3.864  0.0381  0.2862 -0.0545
  710SOL    HW2 2606   3.685   4.924   3.789 -0.2288 -0.9406  0.9370
  710SOL    HW3 2607   3.771   4.938   3.913 -0.9755  0.2031  1.3479
  710SOL    MW4 2608   3.709   4.968   3.860  0.0384  0.2817 -0.2672
  711SOL     OW 2609   1.679   0.127   2.698  0.4488 -0.0787 -1.0163
  711SOL    HW2 2610   1.631   0.061   2.647 -0.3609 -0.8968  0.7257
  711SOL    HW3 2611   1.697   0.197   2.635 -2.4386 -0.0338 -1.9534
  711SOL    MW4 2612   1.675   0.128   2.683 -0.3488 -0.0425  0.2560
  712SOL     OW 2613   5.157   0.881   1.417  0.7356  0.2920 -0.4484
  712SOL    HW2 2614   5.152   0.909   1.508  2.0555  0.6328 -0.4685
  712SOL    HW3 2615   5.219   0.808   1.417 -1.5730 -1.8572 -0.6209
  712SOL    MW4 2616   5.164   0.875   1.429 -0.5255  0.0084 -0.4619
  713SOL     OW 2617   1.248   0.409   3.299  0.0796  0.2964 -0.2622
  713SOL    HW2 2618   1.178   0.433   3.361 -0.7924 -0.8725 -0.7735
  713SOL    HW3 2619   1.327   0.409   3.353 -0.7681 -1.4793  1.0771
  713SOL    MW4 2620   1.249   0.412   3.315  0.0466  0.1307  0.1592
  714SOL     OW 2621   3.377   3.664   0.925  0.2549  0.5125  0.4443
  714SOL    HW2 2622   3.299   3.617   0.896  0.3511  1.3556 -1.3092
  714SOL    HW3 2623   3.424   3.600   0.979 -0.9568 -0.4586  0.4029
  714SOL    MW4 2624   3.373   3.649   0.929 -0.1887 -0.7661 -0.2781
  715SOL     OW 2625   1.346   0.742   5.484 -0.7731 -0.2456 -0.2673
  715SOL    HW2 2626   1.384   0.726   5.570 -0.0167  0.2592 -0.4939
  715SOL    HW3 2627   1.287   0.816   5.497 -1.5681 -0.9176  0.0494
  715SOL    MW4 2628   1.343   0.750   5.497 -0.3639  0.9435 -0.4066
  716SOL     OW 2629   1.545   2.668   5.649 -0.4489  0.4882  0.0700
  716SOL    HW2 2630   1.598   2.589   5.659  0.4470  0.8872 -1.1990
  716SOL    HW3 2631   1.587   2.733   5.705 -1.2597  0.0662  1.2127
  716SOL    MW4 2632   1.558   2.666   5.657 -0.0356  1.0365 -0.0727
  717SOL     OW 2633   1.976   2.158   1.526 -0.4799 -0.4823  0.2509
  717SOL    HW2 2634   1.902   2.181   1.582  0.6530 -1.4407  2.2152
  717SOL    HW3 2635   1.982   2.231   1.464 -1.1040  1.2251  2.0855
  717SOL    MW4 2636   1.967   2.171   1.525  0.2019 -0.5472 -0.7199
  718SOL     OW 2637   1.872   4.439   4.815  0.4549  0.2811  0.3153
  718SOL    HW2 2638   1.782   4.406   4.811  0.3590  0.6645 -2.4063
  718SOL    HW3 2639   1.879   4.499   4.741  3.5400 -1.3706 -0.9045
  718SOL    MW4 2640   1.861   4.442   4.805  0.4253 -0.4402 -0.4323
  719SOL     OW 2641   5.967   2.839   4.002  0.1402  0.8535 -0.1024
  719SOL    HW2 2642   5.952   2.745   3.998 -1.0046  0.8216  2.7336
  719SOL    HW3 2643   6.060   2.848   4.021 -0.1891  0.1048  2.1690
  719SOL    MW4 2644   5.977   2.828   4.004  0.3000 -0.3803  0.1591
  720SOL     OW 2645   2.897   2.455   1.679 -0.2373 -0.5860 -0.0893
  720SOL    HW2 2646   2.833   2.526   1.676  0.9380  0.9044  3.5184
  720SOL    HW3 2647   2.844   2.375   1.686 -1.6047  0.1057 -1.9427
  720SOL    MW4 2648   2.882   2.453   1.680 -0.6324 -0.0466  0.5235
  721SOL     OW 2649   5.188   0.664   0.355  0.1039  0.0306  0.2151
  721SOL    HW2 2650   5.096   0.691   0.361  0.1167 -0.0127  0.5978
  721SOL    HW3 2651   5.193   0.586   0.410  0.2223 -0.3483 -0.3252
  721SOL    MW4 2652   5.176   0.657   0.363 -0.2132  0.3854 -0.5052
  722SOL     OW 2653   2.299   1.039   1.385 -0.1384  0.0818  0.0020
  722SOL    HW2 2654   2.283   1.092   1.307  0.3959  1.3473  0.7248
  722SOL    HW3 2655   2.275   1.095   1.458 -0.8330 -1.1648  0.7576
  722SOL    MW4 2656   2.294   1.054   1.384 -0.3396 -0.0669  0.2936
  723SOL     OW 2657   5.385   5.528   2.262 -0.0210 -0.6128  0.2414
  723SOL    HW2 2658   5.359   5.471   2.335 -1.1907 -0.8766 -0.3528
  723SOL    HW3 2659   5.302   5.562   2.228  0.5833  0.3950 -0.2619
  723SOL    MW4 2660   5.370   5.525   2.267 -0.5604  0.4510 -0.4191
  724SOL     OW 2661   1.502   5.189   3.305 -0.3853 -0.8837  0.0018
  724SOL    HW2 2662   1.598   5.188   3.304 -0.3886 -1.6163 -0.5851
  724SOL    HW3 2663   1.479   5.273   3.346  0.5038 -1.0019  0.7697
  724SOL    MW4 2664   1.512   5.200   3.310 -0.3261  0.4138  0.0093
  725SOL     OW 2665   3.753   6.095   0.256  0.0396 -0.0696  0.3297
  725SOL    HW2 2666   3.757   6.013   0.207  0.2456 -1.0892  1.9813
  725SOL    HW3 2667   3.678   6.085   0.314 -1.4986  1.9689 -1.1479
  725SOL    MW4 2668   3.744   6.083   0.257  0.3062  0.0663  0.0774
  726SOL     OW 2669   2.648   2.300   0.185  0.2640  0.4956  0.5095
  726SOL    HW2 2670   2.589   2.316   0.111  0.0708 -0.3649  0.4698
  726SOL    HW3 2671   2.735   2.314   0.149  0.1635  0.2343  0.1501
  726SOL    MW4 2672   2.652   2.304   0.170  0.4392 -0.3072 -0.1759
  727SOL     OW 2673   6.293   1.909   3.467  0.0715  0.6258 -0.3920
  727SOL    HW2 2674   6.276   1.828   3.516 -0.1648  2.4254  2.7306
  727SOL    HW3 2675   6.228   1.907   3.396 -1.1944 -1.0656  0.7149
  727SOL    MW4 2676   6.282   1.898   3.464  0.4908 -0.0130 -0.5908
  728SOL     OW 2677   2.536   1.909   0.869 -0.2922 -0.3329  0.0982
  728SOL    HW2 2678   2.620   1.872   0.842  1.0193  0.5927  2.5663
  728SOL    HW3 2679   2.480   1.832   0.882 -0.8459 -0.8709 -4.1464
  728SOL    MW4 2680   2.540   1.894   0.867 -0.0058  0.2633  0.5739
  729SOL     OW 2681   2.850   2.006   1.858 -0.3709  1.1276  0.4253
  729SOL    HW2 2682   2.941   1.999   1.885 -0.5207 -1.1191  0.4642
  729SOL    HW3 2683   2.800   2.002   1.940 -0.5689  0.3572  0.2757
  729SOL    MW4 2684   2.855   2.005   1.873 -0.0762 -0.4026  0.0741
  730SOL     OW 2685   5.399   5.382   1.222  0.0098 -0.2615  0.3459
  730SOL    HW2 2686   5.335   5.323   1.181  0.9011 -0.8943 -0.1568
  730SOL    HW3 2687   5.480   5.332   1.224  0.8087  0.9776 -0.1756
  730SOL    MW4 2688   5.401   5.368   1.217 -0.4581  0.4836  0.1698
  731SOL     OW 2689   0.738   1.641   1.913 -0.3486 -0.0010 -0.3884
  731SOL    HW2 2690   0.660   1.697   1.917 -1.2333 -0.9564 -2.7759
  731SOL    HW3 2691   0.811   1.703   1.920 -1.2586  0.9764  1.2814
  731SOL    MW4 2692   0.738   1.657   1.915  0.6295  0.8254  0.1181
  732SOL     OW 2693   0.582   2.231   2.783  0.2148 -0.4372  0.1702
  732SOL    HW2 2694   0.505   2.227   2.727  0.7328 -0.5658 -0.5511
  732SOL    HW3 2695   0.561   2.297   2.848 -0.6414 -0.7291  0.1950
  732SOL    MW4 2696   0.569   2.239   2.784 -0.1872  0.5178 -0.2698
  733SOL     OW 2697   1.719   0.750   4.342  0.1109  0.7855  0.5533
  733SOL    HW2 2698   1.713   0.657   4.365  0.6947  0.8036  0.7928
  733SOL    HW3 2699   1.698   0.796   4.424 -0.5977  0.8753  0.3318
  733SOL    MW4 2700   1.715   0.743   4.356  0.3068 -0.7488 -0.6594
  734SOL     OW 2701   4.166   0.476   6.138  0.3345 -0.4717  0.2227
  734SOL    HW2 2702   4.137   0.542   6.201 -0.2255 -1.5537  1.1505
  734SOL    HW3 2703   4.097   0.473   6.073 -0.0102 -0.6571  0.5906
  734SOL    MW4 2704   4.153   0.484   6.138 -0.2325 -0.2691  0.3208
  735SOL     OW 2705   4.561   4.313   3.219 -0.2605 -0.0100 -0.5311
  735SOL    HW2 2706   4.540   4.243   3.158  0.2518 -2.1575  1.5949
  735SOL    HW3 2707   4.477   4.356   3.236 -0.7347 -0.6198 -1.2801
  735SOL    MW4 2708   4.547   4.310   3.213 -0.1879  0.2504  0.1799
  736SOL     OW 2709   3.351   5.165   6.300 -0.4703 -0.1795  0.1417
  736SOL    HW2 2710   3.289   5.155   6.229 -0.4158  1.0631 -0.1038
  736SOL    HW3 2711   3.297   5.183   6.377 -0.4187  1.7288 -0.2280
  736SOL    MW4 2712   3.336   5.166   6.301  0.2731  0.4693 -0.3222
  737SOL     OW 2713   6.264   0.296   5.474  0.0452 -0.0407 -0.2157
  737SOL    HW2 2714   6.331   0.232   5.499  1.0134  0.7507 -0.7359
  737SOL    HW3 2715   6.250   0.348   5.553 -0.9798 -1.0595  0.3101
  737SOL    MW4 2716   6.271   0.294   5.487 -0.0893 -0.0417  0.2245
  738SOL     OW 2717   6.195   3.358   1.924 -0.2291  0.0522 -0.3258
  738SOL    HW2 2718   6.226   3.384   2.011 -0.2981 -0.6194 -0.0913
  738SOL    HW3 2719   6.146   3.433   1.892  1.8912  1.2786 -0.8516
  738SOL    MW4 2720   6.193   3.371   1.931  0.3717  0.2458 -0.1443
  739SOL     OW 2721   1.924   3.208   3.668 -0.4470  0.3097  0.7253
  739SOL    HW2 2722   1.849   3.247   3.623  0.2597  1.0577  0.1621
  739SOL    HW3 2723   1.893   3.191   3.757 -1.6870 -0.6493  0.1259
  739SOL    MW4 2724   1.910   3.211   3.674 -0.1186 -0.2620 -0.1174
  740SOL     OW 2725   5.680   3.251   4.150 -0.3805  0.2059  0.3985
  740SOL    HW2 2726   5.738   3.180   4.176 -0.8525  0.3635  1.9740
  740SOL    HW3 2727   5.641   3.282   4.231 -1.1235  1.4620 -0.3908
  740SOL    MW4 2728   5.683   3.246   4.164  0.8256 -0.2486  0.1648
  741SOL     OW 2729   4.737   1.213   0.102  0.0337 -0.4385  0.0332
  741SOL    HW2 2730   4.817   1.241   0.145 -0.7372  2.1033 -0.0609
  741SOL    HW3 2731   4.726   1.273   0.029 -0.9554 -1.9843 -1.1669
  741SOL    MW4 2732   4.746   1.224   0.098 -0.4109  0.0670  0.5525
  742SOL     OW 2733   1.318   1.245   4.745  0.2286 -0.3097 -0.6553
  742SOL    HW2 2734   1.348   1.326   4.703 -0.2654 -0.6328 -1.6550
  742SOL    HW3 2735   1.395   1.211   4.790  0.1271  1.4513  1.0117
  742SOL    MW4 2736   1.332   1.251   4.745  0.4163  0.4527  0.3448
  743SOL     OW 2737   2.958   3.090   2.321 -0.5521 -0.1991 -0.3538
  743SOL    HW2 2738   3.018   3.109   2.394 -2.0388  2.9615  0.2230
  743SOL    HW3 2739   2.876   3.133   2.347 -0.8879  1.9053 -4.2590
  743SOL    MW4 2740   2.955   3.098   2.334 -0.2199 -0.0547  0.3367
  744SOL     OW 2741   3.676   3.196   5.403  0.3131  0.1154 -0.1649
  744SOL    HW2 2742   3.653   3.175   5.493  0.5440  2.0689  0.4071
  744SOL    HW3 2743   3.662   3.291   5.396 -0.0529 -0.0322 -2.3004
  744SOL    MW4 2744   3.671   3.206   5.414 -0.6038 -0.1690 -0.0604
  745SOL     OW 2745   0.426   3.561   5.550 -0.5305 -0.3752 -0.1377
  745SOL    HW2 2746   0.410   3.603   5.466 -0.4087  0.0910  0.0671
  745SOL    HW3 2747   0.441   3.634   5.611  0.7900 -0.7398  0.0030
  745SOL    MW4 2748   0.426   3.576   5.547 -0.4329  0.9198  0.0816
  746SOL     OW 2749   5.133   0.334   3.788 -0.1014  0.0563 -0.8132
  746SOL    HW2 2750   5.214   0.323   3.839 -0.1940  1.2083 -0.3833
  746SOL    HW3 2751   5.078   0.390   3.843 -0.7238  0.2448 -1.6180
  746SOL    MW4 2752   5.137   0.340   3.802 -0.4267  0.3176  0.2011
  747SOL     OW 2753   0.106   1.324   3.391  0.1529 -0.4779 -0.2789
  747SOL    HW2 2754   0.050   1.340   3.316  0.9523  2.5935 -0.3388
  747SOL    HW3 2755   0.190   1.298   3.354 -0.0530 -1.0768 -0.3372
  747SOL    MW4 2756   0.110   1.322   3.377 -0.4472 -0.0914 -0.2400
  748SOL     OW 2757   1.348   3.666   4.653 -0.6098 -0.1026  0.3964
  748SOL    HW2 2758   1.276   3.666   4.715 -0.4784 -1.2118  0.5697
  748SOL    HW3 2759   1.402   3.741   4.679  0.2263 -1.3690  2.5802
  748SOL    MW4 2760   1.346   3.676   4.665  0.2564 -0.6085 -0.4842
  749SOL     OW 2761   0.601   0.004   2.547  0.0026  0.0882  0.2197
  749SOL    HW2 2762   0.649   0.057   2.483  0.6824  2.1459  2.3151
  749SOL    HW3 2763   0.669  -0.031   2.605 -0.6525 -1.2405  0.2223
  749SOL    MW4 2764   0.616   0.006   2.546  0.4114 -0.3281  0.2299
  750SOL     OW 2765   3.988   3.618   1.528 -0.9835  0.4668 -0.0677
  750SOL    HW2 2766   3.966   3.668   1.449  0.3343  0.7537 -0.2729
  750SOL    HW3 2767   4.057   3.669   1.571  0.8089 -1.4002 -0.5718
  750SOL    MW4 2768   3.994   3.631   1.523 -0.3231  0.3460 -0.3469
  751SOL     OW 2769   1.060   0.601   5.852 -0.5074  0.1788  0.0734
  751SOL    HW2 2770   1.117   0.526   5.837 -1.4150 -0.2249 -1.5774
  751SOL    HW3 2771   0.996   0.598   5.780 -1.8635  1.3048  1.1687
  751SOL    MW4 2772   1.059   0.591   5.840 -0.3269 -0.2777 -0.4207
  752SOL     OW 2773   1.515   4.456   2.286  0.0468 -0.2598  0.2988
  752SOL    HW2 2774   1.470   4.427   2.366  1.5285 -0.6345  1.0335
  752SOL    HW3 2775   1.452   4.514   2.243 -0.3987  0.8566  2.3098
  752SOL    MW4 2776   1.501   4.460   2.291  0.8684  0.2175 -0.2645
  753SOL     OW 2777   2.112   3.766   4.715 -0.3800  0.3589 -0.1920
  753SOL    HW2 2778   2.199   3.803   4.703  0.0541 -0.7590 -0.5778
  753SOL    HW3 2779   2.121   3.673   4.693 -1.1442 -0.3068  1.9693
  753SOL    MW4 2780   2.125   3.758   4.711 -0.1003 -0.0060 -0.3858
  754SOL     OW 2781   1.413   1.822   3.495  0.3193 -0.3062  0.7422
  754SOL    HW2 2782   1.401   1.890   3.561 -1.6323 -0.0523  0.2025
  754SOL    HW3 2783   1.324   1.792   3.475  0.9358 -1.1624 -0.9493
  754SOL    MW4 2784   1.399   1.827   3.501  0.4393  0.2142  0.2481
  755SOL     OW 2785   0.911   5.127   5.576 -0.4888  0.4501  0.4195
  755SOL    HW2 2786   0.980   5.090   5.631 -0.1587  0.4322 -0.0014
  755SOL    HW3 2787   0.886   5.055   5.518  1.9998  1.4949 -2.2410
  755SOL    MW4 2788   0.917   5.113   5.575 -0.8112  0.0772  0.0738
  756SOL     OW 2789   6.321   1.170   1.534  0.0888  0.5858 -0.1498
  756SOL    HW2 2790   6.399   1.202   1.580  0.6743  0.7717 -1.2379
  756SOL    HW3 2791   6.356   1.126   1.456 -0.6853 -2.3189  0.9929
  756SOL    MW4 2792   6.336   1.168   1.530  0.1796  0.4778 -0.2905
  757SOL     OW 2793   4.285   0.889   0.498 -0.2942 -0.0607  0.1810
  757SOL    HW2 2794   4.306   0.944   0.574 -1.7644 -0.2900  0.7845
  757SOL    HW3 2795   4.190   0.898   0.488 -0.2223 -0.6219 -1.1884
  757SOL    MW4 2796   4.275   0.898   0.507  0.6954 -0.1036  0.4763
  758SOL     OW 2797   5.342   3.634   5.298  0.3727 -0.4000 -0.0534
  758SOL    HW2 2798   5.284   3.709   5.313  1.9747  0.9479 -0.2672
  758SOL    HW3 2799   5.334   3.617   5.204  0.0773 -0.4391 -0.0228
  758SOL    MW4 2800   5.333   3.642   5.287  0.1008 -0.4103  0.5613
  759SOL     OW 2801   0.508   5.950   0.059 -0.6177  0.3548  0.3217
  759SOL    HW2 2802   0.577   5.914   0.114 -0.2023  0.5337 -0.0706
  759SOL    HW3 2803   0.502   5.890  -0.015 -1.2473  0.0549  0.6067
  759SOL    MW4 2804   0.516   5.938   0.056  0.1859 -0.1970 -0.2317
  760SOL     OW 2805   0.687   4.941   3.956 -0.2796  0.7235 -0.5141
  760SOL    HW2 2806   0.712   4.992   3.878 -0.1984  2.9505  0.8931
  760SOL    HW3 2807   0.770   4.925   4.001 -0.2579 -1.0349 -1.0955
  760SOL    MW4 2808   0.702   4.946   3.951 -0.1278  0.1811  0.3955
  761SOL     OW 2809   1.370   2.430   5.823  0.1748 -0.5530  0.7631
  761SOL    HW2 2810   1.316   2.496   5.778  0.2210  0.0829  1.6091
  761SOL    HW3 2811   1.313   2.354   5.831  0.1148 -0.6192 -0.2251
  761SOL    MW4 2812   1.355   2.429   5.818  0.3389 -1.0396 -0.4551
  762SOL     OW 2813   0.365   2.665   0.540 -0.4671 -0.6445 -0.2636
  762SOL    HW2 2814   0.456   2.696   0.532 -0.5332 -0.1687  0.7761
  762SOL    HW3 2815   0.359   2.628   0.628 -0.7778 -2.4142 -0.9883
  762SOL    MW4 2816   0.376   2.664   0.550  0.0556 -0.5211 -0.2688
  763SOL     OW 2817   3.752   5.556   1.479 -0.5085  0.5615  0.4564
  763SOL    HW2 2818   3.843   5.528   1.470  0.4669  2.3543  3.4569
  763SOL    HW3 2819   3.707   5.481   1.516 -0.1145 -0.0771 -0.3190
  763SOL    MW4 2820   3.758   5.542   1.483 -0.0300  0.6975 -0.4173
  764SOL     OW 2821   1.082   5.612   1.609 -0.1662  0.3320  0.0402
  764SOL    HW2 2822   1.113   5.588   1.522 -1.5119 -0.9586 -0.1244
  764SOL    HW3 2823   1.150   5.669   1.644  0.9611 -0.0752 -1.3965
  764SOL    MW4 2824   1.095   5.616   1.602  0.4496  0.1801 -0.0552
  765SOL     OW 2825   6.150   1.471   5.461  0.0336 -0.1889  0.0112
  765SOL    HW2 2826   6.167   1.383   5.430 -1.2575 -0.3532 -0.2634
  765SOL    HW3 2827   6.175   1.469   5.554  5.1908  0.6543 -1.0222
  765SOL    MW4 2828   6.156   1.459   5.470  0.7159  0.0525 -0.3163
  766SOL     OW 2829   5.517   0.343   2.727  0.0615 -0.5366  0.4994
  766SOL    HW2 2830   5.440   0.286   2.725 -0.3318 -0.0410  1.1481
  766SOL    HW3 2831   5.521   0.375   2.817 -0.0718  0.9068  0.0157
  766SOL    MW4 2832   5.507   0.340   2.738  0.4902 -0.2094 -0.8632
  767SOL     OW 2833   1.829   2.408   4.643  0.5708  0.4094 -0.4240
  767SOL    HW2 2834   1.825   2.455   4.726  0.7580  1.2832 -0.8928
  767SOL    HW3 2835   1.859   2.474   4.580 -1.5924  0.3444 -1.6050
  767SOL    MW4 2836   1.833   2.423   4.646 -0.1743 -0.2803 -0.7256
  768SOL     OW 2837   2.699   6.408   4.982 -0.2104 -0.0709  0.2849
  768SOL    HW2 2838   2.672   6.328   4.937 -1.3864  0.0725  0.7215
  768SOL    HW3 2839   2.794   6.398   4.991 -0.2846 -1.2472  0.0212
  768SOL    MW4 2840   2.708   6.396   4.977 -0.3681  0.0740  0.0619
  769SOL     OW 2841   3.359   2.698   0.419 -0.1232  0.7845 -0.2629
  769SOL    HW2 2842   3.348   2.689   0.513 -0.5799 -3.0046 -0.5036
  769SOL    HW3 2843   3.269   2.706   0.385 -0.2995 -1.4997 -0.4997
  769SOL    MW4 2844   3.346   2.698   0.427  0.1348  0.5718 -0.0586
  770SOL     OW 2845   0.047   5.359   1.704  0.0570  0.1325  0.0582
  770SOL    HW2 2846  -0.019   5.407   1.654  1.1521  0.1159 -1.4703
  770SOL    HW3 2847  -0.004   5.296   1.755 -1.1921  0.9921 -0.0617
  770SOL    MW4 2848   0.031   5.357   1.704 -0.5095  0.1841 -0.0406
  771SOL     OW 2849   5.805   3.252   3.509  0.5182  0.2364  0.1478
  771SOL    HW2 2850   5.854   3.171   3.496  0.1175 -0.0133  0.1853
  771SOL    HW3 2851   5.717   3.224   3.535  0.6565  0.6823  1.1762
  771SOL    MW4 2852   5.800   3.238   3.511 -0.7907 -0.3489  0.6567
  772SOL     OW 2853   1.435   2.944   5.005  0.4459 -0.5224 -0.6394
  772SOL    HW2 2854   1.473   2.902   5.082  0.3094  0.0530 -0.2495
  772SOL    HW3 2855   1.460   3.036   5.013  0.5355 -0.4785 -1.3513
  772SOL    MW4 2856   1.443   2.951   5.017  0.3196 -0.7602 -0.1389
  773SOL     OW 2857   2.254   0.082   0.528  0.6320  0.0371  0.0909
  773SOL    HW2 2858   2.348   0.094   0.523  0.8393 -1.0765  0.8163
  773SOL    HW3 2859   2.221   0.110   0.443  1.6586  0.0729 -0.3041
  773SOL    MW4 2860   2.262   0.087   0.516 -0.1198 -0.0705 -0.2012
  774SOL     OW 2861   4.365   4.075   0.757  0.5167 -0.4478  0.2031
  774SOL    HW2 2862   4.274   4.106   0.758 -0.7919 -3.8456  1.0898
  774SOL    HW3 2863   4.392   4.083   0.666 -0.0597  2.0936  0.2009
  774SOL    MW4 2864   4.357   4.080   0.745  0.2979  0.1304 -0.7782
  775SOL     OW 2865   3.817   2.066   3.077  0.1489  0.2590  0.1364
  775SOL    HW2 2866   3.858   2.020   3.151 -0.5297  1.1645  1.1097
  775SOL    HW3 2867   3.890   2.088   3.020  0.5108 -1.8339 -0.2779
  775SOL    MW4 2868   3.832   2.063   3.080 -0.1258 -0.6670 -0.7427
  776SOL     OW 2869   3.041   0.082   4.593  0.2275 -0.0609  0.4283
  776SOL    HW2 2870   2.988   0.134   4.653  1.6373  1.1204  0.6961
  776SOL    HW3 2871   3.014   0.109   4.506 -2.9306 -2.8703  0.3451
  776SOL    MW4 2872   3.031   0.092   4.589  0.2570  0.2667  0.1273
  777SOL     OW 2873   0.985   5.055   2.915 -0.1882  0.3543 -0.0918
  777SOL    HW2 2874   0.975   5.147   2.940 -1.2134 -0.0293  1.0242
  777SOL    HW3 2875   0.994   5.009   2.998  2.0260 -0.4052 -0.7129
  777SOL    MW4 2876   0.985   5.061   2.929  0.7054  0.0702 -0.0614
  778SOL     OW 2877   3.059   5.933   3.582  0.5984 -0.2415 -0.4954
  778SOL    HW2 2878   2.980   5.917   3.530  0.3864 -0.5285 -0.0900
  778SOL    HW3 2879   3.128   5.947   3.518  0.2345 -0.0813 -0.8547
  778SOL    MW4 2880   3.058   5.933   3.567 -0.5957  0.0751 -0.1611
  779SOL     OW 2881   2.649   1.643   0.301  0.6693  0.1392 -0.1494
  779SOL    HW2 2882   2.613   1.716   0.352  0.4165 -0.2232  0.1985
  779SOL    HW3 2883   2.734   1.675   0.269 -0.4269  1.4135 -1.9324
  779SOL    MW4 2884   2.656   1.657   0.304 -0.3006 -0.4446 -0.3571
  780SOL     OW 2885   1.058   5.627   0.618 -0.2783  0.7629  0.6184
  780SOL    HW2 2886   1.108   5.626   0.700 -1.4828  0.1801  1.3720
  780SOL    HW3 2887   1.013   5.543   0.616 -0.2094  0.7375 -0.6997
  780SOL    MW4 2888   1.059   5.616   0.628 -0.8332 -0.4385  0.1359
  781SOL     OW 2889   2.218   0.148   0.804  0.1057  0.3602 -0.2355
  781SOL    HW2 2890   2.210   0.126   0.711 -0.1654 -0.3360 -0.0552
  781SOL    HW3 2891   2.268   0.076   0.842 -1.8904 -0.6772  0.6015
  781SOL    MW4 2892   2.223   0.135   0.797  0.0983 -0.0632  0.4008
  782SOL     OW 2893   0.908   6.133   0.052 -0.2138  0.1087  0.5346
  782SOL    HW2 2894   0.978   6.197   0.037 -0.6823  0.8387  1.3353
  782SOL    HW3 2895   0.931   6.093   0.136 -0.6260  0.1826  0.6822
  782SOL    MW4 2896   0.921   6.136   0.061 -0.4475 -0.6729 -0.0124
  783SOL     OW 2897   4.404   5.735   2.276 -0.1175  0.2883  0.4854
  783SOL    HW2 2898   4.434   5.821   2.307 -0.6063  0.5983  0.1087
  783SOL    HW3 2899   4.471   5.674   2.307  0.0727  0.7605  1.0347
  783SOL    MW4 2900   4.417   5.738   2.284 -0.1752 -0.7034 -0.6880
  784SOL     OW 2901   5.524   3.943  -0.005 -0.5094  0.4083  0.0317
  784SOL    HW2 2902   5.513   4.019  -0.062 -3.0438  0.0083 -0.1194
  784SOL    HW3 2903   5.473   3.963   0.073 -0.8297 -0.9010  0.1880
  784SOL    MW4 2904   5.516   3.956  -0.002  0.0071  0.0505 -0.3705
  785SOL     OW 2905   2.808   3.164   3.726  0.2196 -0.0231  0.6667
  785SOL    HW2 2906   2.732   3.209   3.763  1.6378  1.7323  1.5752
  785SOL    HW3 2907   2.833   3.100   3.792  0.9590  1.0601  1.4516
  785SOL    MW4 2908   2.801   3.161   3.739  0.2613  0.1215 -0.7982
  786SOL     OW 2909   4.396   3.471   3.639 -0.4564 -0.4523 -0.1479
  786SOL    HW2 2910   4.348   3.429   3.567 -0.2055 -1.5363  0.2965
  786SOL    HW3 2911   4.468   3.517   3.595 -1.5688  0.7856 -0.7738
  786SOL    MW4 2912   4.399   3.472   3.624 -0.1229 -0.3562  0.4024
  787SOL     OW 2913   5.948   5.921   1.139  0.2379 -0.3001  0.4082
  787SOL    HW2 2914   5.995   6.003   1.156 -0.4887  0.1144  0.4460
  787SOL    HW3 2915   5.935   5.882   1.226 -0.3435  0.0703  0.4942
  787SOL    MW4 2916   5.953   5.927   1.153 -0.3112 -0.5073  0.5483
  788SOL     OW 2917   6.176   4.681   3.262  0.5150 -0.3623  0.1021
  788SOL    HW2 2918   6.212   4.594   3.246  0.0131 -0.1611 -2.5575
  788SOL    HW3 2919   6.095   4.683   3.211 -0.5853  0.9890  1.7867
  788SOL    MW4 2920   6.170   4.670   3.253  0.5561 -0.1324  0.5408
  789SOL     OW 2921   4.992   5.753   0.670  0.0978  0.0681  0.7200
  789SOL    HW2 2922   4.932   5.795   0.732  0.4680  0.3973  0.8618
  789SOL    HW3 2923   4.936   5.698   0.616 -0.2076 -0.3242  1.4302
  789SOL    MW4 2924   4.977   5.751   0.671 -0.6804  0.3888  0.3438
  790SOL     OW 2925   1.377   1.410   0.738  0.3744 -0.3286 -0.1736
  790SOL    HW2 2926   1.300   1.464   0.718  0.4143 -0.2103 -0.0085
  790SOL    HW3 2927   1.442   1.472   0.770 -0.8531 -0.8277  3.8573
  790SOL    MW4 2928   1.375   1.425   0.740 -0.2060 -0.6742  0.1067
  791SOL     OW 2929   3.746   4.193   1.929  0.1101 -0.6486  0.1787
  791SOL    HW2 2930   3.836   4.215   1.905 -0.2941  0.0188 -0.7629
  791SOL    HW3 2931   3.744   4.200   2.024  0.0363  3.4264  0.0303
  791SOL    MW4 2932   3.758   4.197   1.938 -0.0796 -0.1258  0.3021
  792SOL     OW 2933   4.763   3.377   4.935  0.8479  0.1029 -0.5185
  792SOL    HW2 2934   4.770   3.473   4.935 -1.0679  0.2755  0.5368
  792SOL    HW3 2935   4.671   3.359   4.951  1.1961 -1.9411 -0.5468
  792SOL    MW4 2936   4.752   3.387   4.937  0.0983 -0.0047  0.3822
  793SOL     OW 2937   2.102   6.412   5.505  0.4476  0.3021  0.3998
  793SOL    HW2 2938   2.157   6.425   5.582 -0.5953  0.0843  1.2093
  793SOL    HW3 2939   2.112   6.492   5.454  0.7557  0.6644  1.0219
  793SOL    MW4 2940   2.111   6.424   5.508 -0.0832 -0.0917 -0.1516
  794SOL     OW 2941   4.613   0.556   4.737  0.1326  0.2948  0.2662
  794SOL    HW2 2942   4.655   0.476   4.769 -0.1307  0.2539  0.5135
  794SOL    HW3 2943   4.519   0.541   4.752  0.1544  1.0626  1.2610
  794SOL    MW4 2944   4.606   0.543   4.743  0.7669  0.1685 -0.1557
  795SOL     OW 2945   5.422   5.927   3.888 -0.0676 -0.3474 -0.5053
  795SOL    HW2 2946   5.486   5.865   3.925  0.0502  0.7709  1.2872
  795SOL    HW3 2947   5.444   5.931   3.795  2.5509  0.0515  0.0445
  795SOL    MW4 2948   5.433   5.919   3.881  1.0514 -0.1740 -0.4505
  796SOL     OW 2949   2.428   4.675   3.164  0.4364 -0.1448  0.2034
  796SOL    HW2 2950   2.353   4.704   3.216  0.8314 -0.3255  0.8844
  796SOL    HW3 2951   2.492   4.646   3.228 -0.1763 -3.2483 -0.4265
  796SOL    MW4 2952   2.426   4.675   3.179  0.7588  0.0700  0.0307
  797SOL     OW 2953   3.040   3.398   3.335  0.1273  0.0394 -0.0830
  797SOL    HW2 2954   3.084   3.317   3.309 -0.3400 -0.8402  1.7035
  797SOL    HW3 2955   3.011   3.382   3.424 -1.4750  1.5849 -0.2727
  797SOL    MW4 2956   3.042   3.385   3.343  0.2466 -0.9092  0.6730
  798SOL     OW 2957   4.243   4.047   3.352  0.1862  0.6851  0.1567
  798SOL    HW2 2958   4.213   3.965   3.312 -0.9008  1.4210 -0.5784
  798SOL    HW3 2959   4.325   4.068   3.306  0.8473 -0.3187  0.8248
  798SOL    MW4 2960   4.250   4.039   3.341  0.1772 -0.4888 -0.2755
  799SOL     OW 2961   1.470   5.811   4.618 -0.5981  0.0687  0.2535
  799SOL    HW2 2962   1.397   5.770   4.571 -0.7869  1.0149 -0.3066
  799SOL    HW3 2963   1.479   5.897   4.578  1.2472 -0.2486 -0.1179
  799SOL    MW4 2964   1.462   5.817   4.606  0.0864  0.0693  0.3776
  800SOL     OW 2965   1.697   0.459   5.308  0.2129 -0.0166 -0.0307
  800SOL    HW2 2966   1.744   0.405   5.372  1.7372  0.7370 -0.4569
  800SOL    HW3 2967   1.665   0.534   5.358 -2.4103 -1.4817  0.6857
  800SOL    MW4 2968   1.699   0.462   5.323  0.3476 -0.0696  0.4383
  801SOL     OW 2969   2.297   6.408   5.066 -0.6563 -0.0382 -0.2432
  801SOL    HW2 2970   2.272   6.500   5.066  0.4705  0.2875  1.1326
  801SOL    HW3 2971   2.298   6.383   5.158 -2.9945 -2.0418 -0.6469
  801SOL    MW4 2972   2.294   6.417   5.078 -0.7303 -0.5869  0.0012
  802SOL     OW 2973   5.494   5.770   5.040 -0.0040 -0.1892 -0.0618
  802SOL    HW2 2974   5.414   5.818   5.018 -0.2099 -0.4700  0.0576
  802SOL    HW3 2975   5.558   5.799   4.976  0.2716  1.2594  0.8094
  802SOL    MW4 2976   5.492   5.780   5.029  0.8333 -0.2486  0.4374
  803SOL     OW 2977   6.279   3.745   4.870  0.1695  0.2825 -0.0529
  803SOL    HW2 2978   6.234   3.772   4.950  0.7504 -0.7764  0.6606
  803SOL    HW3 2979   6.238   3.661   4.848  0.6803  0.1002 -0.3133
  803SOL    MW4 2980   6.268   3.737   4.878 -0.1286  0.0678  0.0821
  804SOL     OW 2981   5.227   3.362   0.802  0.3013  0.1288 -0.4113
  804SOL    HW2 2982   5.139   3.355   0.840  1.9565 -1.8655  3.5880
  804SOL    HW3 2983   5.241   3.279   0.757  0.4159  0.1268 -0.3725
  804SOL    MW4 2984   5.217   3.350   0.801 -0.0887 -0.2187 -0.0023
  805SOL     OW 2985   5.966   0.841   0.786 -0.3429 -0.1299  0.1747
  805SOL    HW2 2986   5.930   0.805   0.706 -2.1715 -0.3666  1.0588
  805SOL    HW3 2987   5.916   0.801   0.856  1.0434  0.2501  1.4549
  805SOL    MW4 2988   5.955   0.831   0.785  0.3169  0.3669  0.5183
  806SOL     OW 2989   3.275   3.852   1.112  0.2420  0.0726  0.6504
  806SOL    HW2 2990   3.323   3.923   1.069 -1.2622  0.3640 -0.6249
  806SOL    HW3 2991   3.303   3.773   1.066  0.5857  0.0488  0.8937
  806SOL    MW4 2992   3.285   3.851   1.100 -0.4253 -0.5341  0.1801
  807SOL     OW 2993   2.154   0.950   5.725 -0.1168 -0.0878  0.0947
  807SOL    HW2 2994   2.187   0.989   5.806 -0.1832  0.9288 -0.3438
  807SOL    HW3 2995   2.158   0.856   5.740 -1.4217  0.0807  1.7962
  807SOL    MW4 2996   2.159   0.943   5.738  0.1751 -0.2393  0.1843
  808SOL     OW 2997   1.929   4.670   2.210  0.2281  0.5054  0.6912
  808SOL    HW2 2998   1.911   4.658   2.303  3.9352 -2.1222  1.2927
  808SOL    HW3 2999   1.893   4.592   2.168 -0.0121  0.8915  0.1743
  808SOL    MW4 3000   1.922   4.658   2.217  0.0705 -0.0467  0.2203
  809SOL     OW 3001   5.439   0.819   2.604  0.1509 -0.0111 -0.3186
  809SOL    HW2 3002   5.458   0.871   2.682  1.7634  0.0833 -0.7317
  809SOL    HW3 3003   5.367   0.761   2.630 -0.9546  1.6647  0.4801
  809SOL    MW4 3004   5.432   0.818   2.618 -0.1405 -0.2963 -0.1659
  810SOL     OW 3005   0.275   2.393   3.084 -0.4816  0.7110  0.1853
  810SOL    HW2 3006   0.286   2.306   3.120  2.8766 -0.0052 -2.0880
  810SOL    HW3 3007   0.207   2.383   3.017 -1.8982  0.5112  1.5954
  810SOL    MW4 3008   0.268   2.380   3.080  0.5300 -0.0118 -0.0842
  811SOL     OW 3009   5.372   1.299   4.756 -0.0474 -0.1821 -0.1978
  811SOL    HW2 3010   5.360   1.262   4.669  0.4626  0.9068 -0.7495
  811SOL    HW3 3011   5.439   1.243   4.797  0.3484 -0.1774 -0.8297
  811SOL    MW4 3012   5.379   1.287   4.750 -0.1975  0.0709 -0.5868
  812SOL     OW 3013   3.206   1.430   2.253 -0.4100  0.1254 -0.1446
  812SOL    HW2 3014   3.125   1.410   2.207 -0.1242 -1.4658 -0.0009
  812SOL    HW3 3015   3.187   1.411   2.345  0.1308 -0.2633 -0.1085
  812SOL    MW4 3016   3.193   1.425   2.259  0.5077 -0.4535 -0.5260
  813SOL     OW 3017   4.503   1.050   3.510 -0.4551 -0.2875  0.1641
  813SOL    HW2 3018   4.529   1.005   3.430  0.3910  2.3768 -1.1816
  813SOL    HW3 3019   4.558   1.129   3.512  1.1885 -1.2362  4.5519
  813SOL    MW4 3020   4.514   1.055   3.500 -0.2329  0.3667  0.6707
  814SOL     OW 3021   0.561   0.759   3.324  0.0612 -0.0231 -0.3217
  814SOL    HW2 3022   0.563   0.746   3.419 -1.9489 -0.4986 -0.2915
  814SOL    HW3 3023   0.552   0.671   3.288 -0.2526  0.2261 -0.8756
  814SOL    MW4 3024   0.560   0.746   3.332 -0.1154 -0.0812  0.0708
  815SOL     OW 3025   2.855   3.353   1.929 -0.3099 -0.3217  0.3888
  815SOL    HW2 3026   2.939   3.399   1.933 -0.8019  0.6463  0.0772
  815SOL    HW3 3027   2.878   3.260   1.924  0.7258 -0.0933  0.6487
  815SOL    MW4 3028   2.869   3.347   1.929  0.0171  0.0221 -0.0616
  816SOL     OW 3029   2.209   1.406   1.907  0.1045  0.1465  0.4071
  816SOL    HW2 3030   2.114   1.414   1.911  0.0683  1.9337 -1.9895
  816SOL    HW3 3031   2.225   1.340   1.839  0.4452  2.9863 -2.5051
  816SOL    MW4 3032   2.199   1.398   1.899 -0.1367  0.4359  0.6635
  817SOL     OW 3033   4.210   4.000   5.005  0.0596  0.1529 -0.8013
  817SOL    HW2 3034   4.273   4.071   5.009  0.4749 -0.2555  0.3074
  817SOL    HW3 3035   4.158   4.010   5.085  0.1665 -0.8244 -0.6014
  817SOL    MW4 3036   4.211   4.011   5.016 -0.4692  0.0140 -0.2483
  818SOL     OW 3037   1.398   0.360   4.543 -0.0575  0.0889 -0.6633
  818SOL    HW2 3038   1.388   0.335   4.635 -0.9229  2.9615  0.1161
  818SOL    HW3 3039   1.358   0.288   4.495  0.5457 -1.5685  1.1570
  818SOL    MW4 3040   1.391   0.347   4.549 -0.3573  0.1681  0.1099
  819SOL     OW 3041   1.522   0.160   1.946 -0.1726  0.7583  0.1530
  819SOL    HW2 3042   1.528   0.065   1.932 -0.3298  0.8094 -0.2940
  819SOL    HW3 3043   1.532   0.197   1.858  0.8401  1.2025  0.4440
  819SOL    MW4 3044   1.524   0.152   1.932  0.4267  0.4802 -0.3495
  820SOL     OW 3045   0.821   1.285   3.726  0.1347 -0.3166 -0.6313
  820SOL    HW2 3046   0.749   1.245   3.678 -1.1373  0.5617  0.4557
  820SOL    HW3 3047   0.819   1.243   3.812 -0.4647  1.1668  0.1170
  820SOL    MW4 3048   0.811   1.274   3.731  0.0225 -0.2725 -0.6575
  821SOL     OW 3049   3.806   3.570   2.694 -0.0603  0.0358  0.1792
  821SOL    HW2 3050   3.866   3.515   2.743 -0.0281  1.8843  2.4167
  821SOL    HW3 3051   3.838   3.568   2.604  2.3199 -0.3781  0.9798
  821SOL    MW4 3052   3.818   3.563   2.688 -0.6070 -0.2137  0.5260
  822SOL     OW 3053   0.752   5.434   5.274  0.2049 -0.5692 -0.4742
  822SOL    HW2 3054   0.779   5.417   5.364  0.7109  3.7656  0.4328
  822SOL    HW3 3055   0.833   5.451   5.227 -0.1839  1.4979 -0.5307
  822SOL    MW4 3056   0.766   5.434   5.280  0.1095 -0.7621 -0.0696
  823SOL     OW 3057   0.709   6.315   2.282 -0.0329 -0.2661  0.0265
  823SOL    HW2 3058   0.644   6.353   2.222  0.1870 -1.0207 -0.7119
  823SOL    HW3 3059   0.743   6.390   2.330 -0.2333  0.3665 -0.7876
  823SOL    MW4 3060   0.705   6.330   2.280  0.2520 -0.4646 -0.4054
  824SOL     OW 3061   1.469   1.460   6.279 -0.0315  0.2018 -0.2119
  824SOL    HW2 3062   1.550   1.509   6.293 -0.3031  0.7331 -0.4940
  824SOL    HW3 3063   1.469   1.394   6.349  1.0383 -0.3251 -0.6864
  824SOL    MW4 3064   1.480   1.458   6.290  0.2006  0.4671 -0.1868
  825SOL     OW 3065   5.052   1.964   5.935 -0.2179  0.0895 -0.2847
  825SOL    HW2 3066   5.037   2.031   5.869  0.4689  0.9394  0.4002
  825SOL    HW3 3067   5.132   1.920   5.908 -0.6124 -0.3968 -0.6784
  825SOL    MW4 3068   5.061   1.967   5.923 -0.3539  0.6296 -0.2278
  826SOL     OW 3069   5.708   0.628   4.367  0.1681  0.2589  0.2032
  826SOL    HW2 3070   5.652   0.694   4.327 -0.6275 -0.0768  0.7300
  826SOL    HW3 3071   5.698   0.551   4.310  0.4029  0.3244  0.0755
  826SOL    MW4 3072   5.699   0.627   4.354  0.2350 -0.2300  0.4780
  827SOL     OW 3073   0.817   6.179   1.207  0.2904 -0.5077 -0.0520
  827SOL    HW2 3074   0.755   6.244   1.173  0.4694 -1.4637 -2.4268
  827SOL    HW3 3075   0.763   6.118   1.257 -0.3593 -0.1839 -0.3507
  827SOL    MW4 3076   0.802   6.180   1.209 -0.2322  0.0623 -0.3747
  828SOL     OW 3077   4.013   5.854   3.699 -0.1956  0.0638 -0.4648
  828SOL    HW2 3078   3.950   5.791   3.665 -2.0423  0.1334  2.5154
  828SOL    HW3 3079   4.059   5.807   3.769  1.8299  0.6049 -1.3510
  828SOL    MW4 3080   4.011   5.839   3.704 -0.4772  0.2475 -0.2439
  829SOL     OW 3081   4.675   0.304   3.277  0.1412 -0.5833 -0.2197
  829SOL    HW2 3082   4.709   0.230   3.226 -0.6604 -0.4978 -0.9030
  829SOL    HW3 3083   4.581   0.304   3.259  0.0872  0.4132  0.0193
  829SOL    MW4 3084   4.668   0.294   3.268 -0.2519  0.6612  0.2999
  830SOL     OW 3085   0.675   2.627   0.791  0.3685  0.0368 -0.5807
  830SOL    HW2 3086   0.684   2.720   0.813  1.5167 -0.0590 -0.5779
  830SOL    HW3 3087   0.763   2.600   0.767  0.2659 -1.3404  0.5206
  830SOL    MW4 3088   0.688   2.636   0.790 -0.2256 -0.2781  0.4489
  831SOL     OW 3089   0.441   2.134   5.927 -0.1151 -0.4308  0.6606
  831SOL    HW2 3090   0.487   2.074   5.986 -1.3910 -1.0267  1.0726
  831SOL    HW3 3091   0.491   2.130   5.845  0.7989 -0.7448  1.2228
  831SOL    MW4 3092   0.454   2.125   5.924  0.6605 -0.1315  0.6772
  832SOL     OW 3093   5.489   0.195   6.034 -0.1811  0.7498  0.2113
  832SOL    HW2 3094   5.416   0.195   5.972 -0.3462 -0.9290  0.3815
  832SOL    HW3 3095   5.447   0.207   6.119 -0.5880 -2.5346  0.5852
  832SOL    MW4 3096   5.474   0.197   6.037  0.3020 -0.2447  0.4093
  833SOL     OW 3097   0.716   3.923   5.909  0.0343 -0.1300  0.1986
  833SOL    HW2 3098   0.770   3.953   5.982 -2.5431  0.3239  2.0535
  833SOL    HW3 3099   0.690   4.003   5.864 -0.4641 -0.2097  0.3435
  833SOL    MW4 3100   0.720   3.938   5.912 -0.3626  0.8038 -0.0617
  834SOL     OW 3101   6.208   6.409   4.692 -0.0171  0.4060 -0.0389
  834SOL    HW2 3102   6.208   6.495   4.650 -0.9682 -0.1427 -1.2191
  834SOL    HW3 3103   6.290   6.368   4.665  0.1849  0.7320  0.0813
  834SOL    MW4 3104   6.219   6.415   4.683 -0.0127 -0.1063  0.9102
  835SOL     OW 3105   5.282   0.634   3.436  0.5537 -0.0949  0.5719
  835SOL    HW2 3106   5.287   0.602   3.346 -0.1129 -0.1539  0.5524
  835SOL    HW3 3107   5.333   0.715   3.436 -0.1748  0.3767 -0.0725
  835SOL    MW4 3108   5.289   0.640   3.424 -0.5171 -0.3146  0.0030
  836SOL     OW 3109   2.155   1.729   5.758 -0.1135  0.1702  0.0284
  836SOL    HW2 3110   2.131   1.687   5.841  0.0646  1.0747  0.5482
  836SOL    HW3 3111   2.211   1.665   5.714 -0.9270 -0.6895  0.1939
  836SOL    MW4 3112   2.159   1.715   5.764  0.0226 -0.4884 -0.0059
  837SOL     OW 3113   1.120   6.027   5.151 -0.0255 -0.2790 -0.3644
  837SOL    HW2 3114   1.038   5.997   5.111 -0.3439  0.6813 -0.4572
  837SOL    HW3 3115   1.128   6.119   5.124 -0.2529  0.4201  1.7306
  837SOL    MW4 3116   1.110   6.035   5.143  0.0438 -0.3502 -0.1384
  838SOL     OW 3117   0.450   6.175   0.309 -0.1135  0.6652  0.7706
  838SOL    HW2 3118   0.405   6.141   0.232  0.8316  2.9716 -0.9099
  838SOL    HW3 3119   0.380   6.208   0.366 -0.8592 -1.6772  1.3061
  838SOL    MW4 3120   0.435   6.175   0.307 -0.3397 -0.3001  0.6284
  839SOL     OW 3121   3.231   5.762   5.812  0.0946 -0.4059  0.2132
  839SOL    HW2 3122   3.281   5.699   5.759  0.4826 -0.6651  0.8791
  839SOL    HW3 3123   3.297   5.817   5.853 -0.1937 -0.3552  0.6110
  839SOL    MW4 3124   3.246   5.761   5.810  1.0415 -0.0591 -1.1232
  840SOL     OW 3125   1.232   4.151   5.063  0.0546  0.7529  0.2437
  840SOL    HW2 3126   1.283   4.151   4.982 -1.0508 -1.4519 -0.5220
  840SOL    HW3 3127   1.291   4.114   5.128 -0.0962 -0.5265 -0.3274
  840SOL    MW4 3128   1.246   4.146   5.061  0.5918  0.6069  0.3760
  841SOL     OW 3129   3.384   3.992   1.676  0.0961 -0.0254  0.5573
  841SOL    HW2 3130   3.426   3.942   1.606 -0.5582 -0.7700  0.6731
  841SOL    HW3 3131   3.456   4.035   1.721  0.4486  1.5084 -1.3319
  841SOL    MW4 3132   3.399   3.991   1.673  0.1036  0.1416  0.0785
  842SOL     OW 3133   3.143   2.829   6.091 -0.0254 -0.2760  0.3124
  842SOL    HW2 3134   3.115   2.816   6.001 -1.5512 -0.0884  0.7271
  842SOL    HW3 3135   3.075   2.787   6.144  0.6092 -0.0030  1.3900
  842SOL    MW4 3136   3.131   2.821   6.086  0.2989 -0.3697 -0.3952
  843SOL     OW 3137   4.569   2.374   0.530  0.2347 -0.6868  0.2530
  843SOL    HW2 3138   4.590   2.342   0.617 -0.5984 -1.7816  0.0824
  843SOL    HW3 3139   4.651   2.369   0.481  0.3067 -1.8162  0.4717
  843SOL    MW4 3140   4.582   2.369   0.535 -0.2743  0.6221 -0.5206
  844SOL     OW 3141   0.301   5.190   4.953 -0.4798  0.1168 -0.0118
  844SOL    HW2 3142   0.311   5.248   5.029  0.2352 -0.0610  0.0383
  844SOL    HW3 3143   0.309   5.102   4.989 -3.1507 -0.1351  0.1690
  844SOL    MW4 3144   0.304   5.186   4.968  0.0069 -0.6694  0.0535
  845SOL     OW 3145   1.621   2.263   3.692  0.0996 -0.1241  0.2425
  845SOL    HW2 3146   1.684   2.261   3.764  0.1336  1.2880  0.2707
  845SOL    HW3 3147   1.584   2.174   3.690  1.3418 -0.6816  0.8751
  845SOL    MW4 3148   1.624   2.251   3.701  0.5497 -0.0343 -0.4897
  846SOL     OW 3149   2.288   5.063   6.259 -0.1358 -0.2888  0.2600
  846SOL    HW2 3150   2.383   5.064   6.243  0.0938  0.9378  1.5282
  846SOL    HW3 3151   2.251   5.106   6.181  0.4105 -0.1640  0.0585
  846SOL    MW4 3152   2.296   5.069   6.247  0.0250  0.3334 -0.2594
  847SOL     OW 3153   2.362   3.132   1.622  0.5748 -0.0868 -0.1164
  847SOL    HW2 3154   2.406   3.216   1.612 -2.8800  1.7809 -0.9850
  847SOL    HW3 3155   2.328   3.132   1.711  0.6203 -0.6014 -0.0958
  847SOL    MW4 3156   2.363   3.143   1.632  0.0767 -0.7406  0.2005
  848SOL     OW 3157   6.144   2.215   5.290  0.7446 -0.2990  0.6252
  848SOL    HW2 3158   6.165   2.190   5.380  0.9743 -0.5463  0.5033
  848SOL    HW3 3159   6.213   2.174   5.237  1.1797  0.6551  0.4300
  848SOL    MW4 3160   6.156   2.206   5.295  0.4315 -0.1563 -0.6217
  849SOL     OW 3161   3.819   5.769   4.470 -0.0365  0.2983  0.3428
  849SOL    HW2 3162   3.838   5.769   4.564  0.4040  1.6461  0.2741
  849SOL    HW3 3163   3.856   5.851   4.438 -2.3903  1.0771 -0.5706
  849SOL    MW4 3164   3.827   5.780   4.478  0.4256 -0.2164  0.3317
  850SOL     OW 3165   5.681   1.750   2.097  0.0207 -0.1162  0.2601
  850SOL    HW2 3166   5.675   1.661   2.131 -0.2841 -0.5018 -0.7705
  850SOL    HW3 3167   5.596   1.766   2.057  0.5039  0.1612 -0.6874
  850SOL    MW4 3168   5.669   1.741   2.096  0.3353  0.6363 -0.1942
  851SOL     OW 3169   3.547   2.676   2.406  0.0687 -0.1384  0.3923
  851SOL    HW2 3170   3.567   2.593   2.362  0.8476 -0.1053  0.6540
  851SOL    HW3 3171   3.458   2.697   2.380 -0.1720 -1.1115  0.3950
  851SOL    MW4 3172   3.538   2.668   2.397 -0.1253 -0.4413 -0.1561
  852SOL     OW 3173   1.819   5.270   2.647 -0.4602  0.2587  0.2381
  852SOL    HW2 3174   1.809   5.225   2.731 -2.3375 -0.1018 -0.1351
  852SOL    HW3 3175   1.748   5.236   2.593  0.6958  0.4927 -1.5138
  852SOL    MW4 3176   1.808   5.260   2.651  0.2524 -0.9433 -0.1144
  853SOL     OW 3177   4.567   5.913   0.684 -0.0647 -0.4023  0.5669
  853SOL    HW2 3178   4.483   5.868   0.673 -1.4184  2.3242 -1.6483
  853SOL    HW3 3179   4.617   5.890   0.605 -0.2312  0.8391  0.0865
  853SOL    MW4 3180   4.563   5.904   0.672  0.0547 -0.3353 -0.0799
  854SOL     OW 3181   3.204   1.550   0.402  0.1050  0.1883 -0.0547
  854SOL    HW2 3182   3.134   1.537   0.338 -1.5686  0.4073  1.6615
  854SOL    HW3 3183   3.189   1.638   0.437  1.5492  0.4359  0.0142
  854SOL    MW4 3184   3.193   1.560   0.398  0.0046 -0.1025  0.2744
  855SOL     OW 3185   1.764   1.576   2.848  0.4924  0.2892 -0.0751
  855SOL    HW2 3186   1.851   1.611   2.828 -0.3472  2.1227 -0.7315
  855SOL    HW3 3187   1.760   1.493   2.801  1.5301  0.6584 -0.8654
  855SOL    MW4 3188   1.775   1.569   2.839  0.4464  0.8450 -0.1797
  856SOL     OW 3189   0.312   6.229   0.980  0.1012 -0.4301  0.4616
  856SOL    HW2 3190   0.282   6.200   0.894  0.2353  0.1759  0.2044
  856SOL    HW3 3191   0.307   6.324   0.976 -2.1325 -0.3867  1.9062
  856SOL    MW4 3192   0.307   6.238   0.968 -0.4823  0.3027  0.1810
  857SOL     OW 3193   4.088   5.815   5.823 -0.8254  0.0703 -0.0616
  857SOL    HW2 3194   4.146   5.742   5.800 -0.4056  0.4993 -0.3933
  857SOL    HW3 3195   4.128   5.855   5.900  0.2196  1.3153 -1.1800
  857SOL    MW4 3196   4.101   5.811   5.830  0.4030 -0.2342  0.4161
  858SOL     OW 3197   6.186   1.518   2.798 -0.3984 -0.4964  0.5005
  858SOL    HW2 3198   6.177   1.518   2.893 -1.6281 -0.2562  0.3998
  858SOL    HW3 3199   6.126   1.586   2.768  0.9518  0.3528 -0.3806
  858SOL    MW4 3200   6.177   1.527   2.807  0.1471 -0.6579 -0.7042
  859SOL     OW 3201   5.491   2.626   4.973 -0.4439 -0.4883 -0.0969
  859SOL    HW2 3202   5.547   2.653   4.899  1.2068 -3.1701  0.0472
  859SOL    HW3 3203   5.492   2.531   4.970 -0.6398 -0.6943  3.1616
  859SOL    MW4 3204   5.499   2.617   4.963 -0.1787  0.4321 -0.1251
  860SOL     OW 3205   5.139   3.654   1.612 -0.1010 -0.3129 -0.3306
  860SOL    HW2 3206   5.089   3.637   1.532 -1.7050 -0.9382  0.7629
  860SOL    HW3 3207   5.203   3.721   1.586 -2.5146  1.7301 -1.4540
  860SOL    MW4 3208   5.141   3.661   1.598 -0.0458 -0.6260  0.0083
  861SOL     OW 3209   2.697   1.725   2.347  0.6255 -0.1191 -0.0535
  861SOL    HW2 3210   2.755   1.778   2.400  0.2595 -1.1125  1.4053
  861SOL    HW3 3211   2.687   1.643   2.396  0.1452 -1.0363 -1.5787
  861SOL    MW4 3212   2.704   1.721   2.360  0.4939  0.4061  0.2799
  862SOL     OW 3213   3.936   2.717   3.706  0.7769  0.1708  0.0459
  862SOL    HW2 3214   3.909   2.759   3.624  0.5297  2.2075  1.1250
  862SOL    HW3 3215   3.855   2.700   3.753  1.0140  0.7665  0.6835
  862SOL    MW4 3216   3.922   2.720   3.701 -0.4536  0.1484  0.3019
  863SOL     OW 3217   3.207   3.535   4.501 -0.3889  0.0330  0.3284
  863SOL    HW2 3218   3.296   3.531   4.537 -0.1244  2.1153  0.0274
  863SOL    HW3 3219   3.189   3.446   4.472  1.2848 -0.6131  1.1492
  863SOL    MW4 3220   3.217   3.523   4.502 -0.4287  0.4691  0.0720
  864SOL     OW 3221   2.256   3.292   6.257  0.0379  0.3707 -0.2590
  864SOL    HW2 3222   2.334   3.261   6.211  1.4767 -0.2377  2.4296
  864SOL    HW3 3223   2.186   3.236   6.225  0.8803  0.2069 -1.9342
  864SOL    MW4 3224   2.257   3.280   6.247  0.1002  0.3839 -0.7481
  865SOL     OW 3225   2.470   4.915   4.577 -0.1328  0.4490 -0.1517
  865SOL    HW2 3226   2.539   4.895   4.514 -0.7168  0.0514 -0.6845
  865SOL    HW3 3227   2.448   4.831   4.616  0.8634  0.8122  1.2967
  865SOL    MW4 3228   2.476   4.901   4.574 -0.0409  0.5277 -0.5171
  866SOL     OW 3229   2.511   1.922   1.977 -0.8728  0.2693  0.4498
  866SOL    HW2 3230   2.475   1.878   1.900 -0.2653 -1.4425  1.1090
  866SOL    HW3 3231   2.571   1.858   2.016 -0.4244  1.4614  1.7961
  866SOL    MW4 3232   2.514   1.908   1.972  0.4400  0.3167  0.2802
  867SOL     OW 3233   0.876   4.260   3.631 -0.3005 -0.1724 -0.5505
  867SOL    HW2 3234   0.885   4.251   3.536 -0.9797  0.8858 -0.7444
  867SOL    HW3 3235   0.878   4.355   3.646 -1.0226 -0.2916  0.3944
  867SOL    MW4 3236   0.877   4.272   3.620  0.1802  0.0753 -0.4193
  868SOL     OW 3237   0.677   3.163   4.250 -0.1151 -0.3634 -0.1191
  868SOL    HW2 3238   0.765   3.199   4.255  0.5023 -1.7700 -0.5530
  868SOL    HW3 3239   0.620   3.240   4.248  1.0234  0.5653  1.1112
  868SOL    MW4 3240   0.681   3.178   4.251  0.1842 -0.0869  0.5667
  869SOL     OW 3241   5.760   1.964   5.430  0.5967  0.6040  0.4683
  869SOL    HW2 3242   5.746   1.896   5.364  0.0627 -1.2291  2.3441
  869SOL    HW3 3243   5.736   1.922   5.512  0.4073  3.0633  1.7520
  869SOL    MW4 3244   5.755   1.949   5.432 -0.4726  0.1685  0.1155
  870SOL     OW 3245   2.499   5.804   6.149 -0.0801  0.0150  0.5713
  870SOL    HW2 3246   2.426   5.789   6.089 -0.2533  0.0359  0.7752
  870SOL    HW3 3247   2.558   5.730   6.135  0.2476  0.4048 -0.1676
  870SOL    MW4 3248   2.497   5.793   6.139 -0.1350  0.6405  0.1248
  871SOL     OW 3249   6.297   3.923   3.164  0.0240 -0.6273  0.1743
  871SOL    HW2 3250   6.256   3.868   3.231 -0.2906  0.9537  1.3417
  871SOL    HW3 3251   6.326   4.001   3.212  0.5220  0.2047 -1.4082
  871SOL    MW4 3252   6.296   3.926   3.179 -0.4184  0.0784  0.4249
  872SOL     OW 3253   0.856   0.266   3.656  0.1443  0.5095 -0.5142
  872SOL    HW2 3254   0.846   0.215   3.736 -2.3438 -2.6293 -2.5628
  872SOL    HW3 3255   0.779   0.323   3.655 -0.4520 -0.2871 -1.1574
  872SOL    MW4 3256   0.844   0.267   3.667 -0.0222  0.0245 -0.4342
  873SOL     OW 3257   1.654   1.816   5.995 -0.0975 -0.0273 -0.1020
  873SOL    HW2 3258   1.612   1.730   5.999  1.4063 -0.7797 -0.0142
  873SOL    HW3 3259   1.657   1.836   5.901 -0.4023 -0.0872 -0.1278
  873SOL    MW4 3260   1.649   1.807   5.983  0.1939 -0.1338 -0.6547
  874SOL     OW 3261   4.235   6.404   2.331 -0.5458 -0.6226  0.3218
  874SOL    HW2 3262   4.233   6.466   2.404 -0.7117 -0.2480  0.0081
  874SOL    HW3 3263   4.307   6.436   2.275  0.2608 -1.5037  0.8272
  874SOL    MW4 3264   4.244   6.417   2.333 -0.4467 -0.2466 -0.4181
  875SOL     OW 3265   4.171   4.805   5.920  0.0348  0.3795  0.2636
  875SOL    HW2 3266   4.114   4.823   5.994  0.1767 -1.3681  0.8289
  875SOL    HW3 3267   4.244   4.866   5.931 -1.3144  2.1648 -0.0877
  875SOL    MW4 3268   4.173   4.816   5.931 -0.9948 -0.0231 -0.3457
  876SOL     OW 3269   2.310   6.114   3.023 -0.0665 -0.6089  0.1089
  876SOL    HW2 3270   2.268   6.194   3.054  2.5942  0.8743  0.1397
  876SOL    HW3 3271   2.303   6.119   2.927 -0.6109 -0.7818  0.1343
  876SOL    MW4 3272   2.303   6.125   3.014 -0.3336 -1.2247  0.5085
  877SOL     OW 3273   2.763   0.101   3.415 -0.3354 -0.9863 -0.5419
  877SOL    HW2 3274   2.728   0.175   3.465  0.4143 -0.0056 -1.4307
  877SOL    HW3 3275   2.704   0.029   3.435 -2.3007  0.3650 -1.2318
  877SOL    MW4 3276   2.751   0.101   3.424 -0.0348 -0.1792 -0.0337
  878SOL     OW 3277   0.036   2.815   1.544 -0.1262  0.7044 -0.2409
  878SOL    HW2 3278   0.101   2.867   1.591  1.0715  0.7682 -1.8557
  878SOL    HW3 3279  -0.033   2.877   1.519 -2.0489  0.2536  3.3569
  878SOL    MW4 3280   0.036   2.830   1.547  0.0789  0.3811  0.0660
  879SOL     OW 3281   4.617   5.946   5.762  0.1345  0.1805 -0.1984
  879SOL    HW2 3282   4.558   5.917   5.692  0.2385 -2.5410  0.7559
  879SOL    HW3 3283   4.704   5.940   5.724  0.0046  3.6272 -1.4071
  879SOL    MW4 3284   4.620   5.942   5.748 -0.0207 -0.2376 -0.1739
  880SOL     OW 3285   2.952   0.297   0.014 -0.1113 -0.7770 -0.1145
  880SOL    HW2 3286   2.875   0.292  -0.043 -0.2455  1.1230 -0.1519
  880SOL    HW3 3287   2.935   0.373   0.070  0.4826 -1.9877  1.8047
  880SOL    MW4 3288   2.939   0.306   0.014 -0.5687  0.4509 -0.7422
  881SOL     OW 3289   6.156   1.814   2.594 -0.4145  0.8184 -0.3734
  881SOL    HW2 3290   6.202   1.882   2.544  0.6966 -0.9603 -1.8682
  881SOL    HW3 3291   6.134   1.747   2.529  0.2524 -1.1597  1.3350
  881SOL    MW4 3292   6.159   1.815   2.578  0.0103 -0.5906 -0.3603
  882SOL     OW 3293   6.225   5.648   5.041  0.6102  0.2586 -0.0990
  882SOL    HW2 3294   6.178   5.728   5.066  0.0723 -0.3832  1.0511
  882SOL    HW3 3295   6.157   5.591   5.005  0.7810 -0.1111  0.1641
  882SOL    MW4 3296   6.210   5.651   5.040 -0.4087 -0.0346  0.0652
  883SOL     OW 3297   2.233   5.197   2.945 -0.0280  0.9154  0.1519
  883SOL    HW2 3298   2.287   5.160   3.014 -0.3193  1.5919  0.7511
  883SOL    HW3 3299   2.176   5.260   2.990  1.0834  2.7995 -0.9413
  883SOL    MW4 3300   2.232   5.201   2.960  0.2849 -0.2969  0.4936
  884SOL     OW 3301   1.146   3.364   2.049 -0.2105  0.1276  0.0631
  884SOL    HW2 3302   1.064   3.324   2.077  0.3789 -0.5110  0.9292
  884SOL    HW3 3303   1.198   3.292   2.014 -0.2710  0.6406 -1.1191
  884SOL    MW4 3304   1.142   3.349   2.048 -0.2801  0.7157 -0.4462
  885SOL     OW 3305   5.864   5.569   0.810 -0.1533  0.3462  0.2107
  885SOL    HW2 3306   5.806   5.634   0.772 -0.4176 -0.5621 -1.0219
  885SOL    HW3 3307   5.806   5.503   0.847  0.0844 -0.1592 -0.3016
  885SOL    MW4 3308   5.849   5.569   0.810 -0.1135 -0.0159  0.0172
  886SOL     OW 3309   1.056   4.897   3.428 -0.0305  0.0257  0.3366
  886SOL    HW2 3310   1.012   4.909   3.344 -2.2289  1.1294  1.5573
  886SOL    HW3 3311   1.120   4.969   3.433 -0.0134  0.0582 -0.2972
  886SOL    MW4 3312   1.059   4.908   3.418  0.4793  0.0588 -0.0240
  887SOL     OW 3313   5.381   1.113   5.872  0.1669  0.2588  0.0807
  887SOL    HW2 3314   5.428   1.100   5.954  0.5812 -0.6302 -0.2917
  887SOL    HW3 3315   5.344   1.201   5.880  1.0642  0.5916  0.7841
  887SOL    MW4 3316   5.382   1.123   5.884  0.1282  0.1079  0.2814
  888SOL     OW 3317   2.909   3.866   3.848  0.8135  0.1003 -0.2482
  888SOL    HW2 3318   2.844   3.935   3.861  2.9896  2.3759 -0.7086
  888SOL    HW3 3319   2.858   3.790   3.821 -1.6519  1.6897 -0.4010
  888SOL    MW4 3320   2.894   3.865   3.846  0.4261 -0.0502  0.6565
  889SOL     OW 3321   4.891   5.354   0.855  0.1592  0.5045  0.1947
  889SOL    HW2 3322   4.854   5.403   0.782 -4.5352  2.0421  3.1179
  889SOL    HW3 3323   4.936   5.420   0.907  0.9979 -0.0019  0.1208
  889SOL    MW4 3324   4.892   5.369   0.852 -0.2280  0.1198  0.3145
  890SOL     OW 3325   2.004   0.713   3.346 -0.3167  0.7832 -0.0748
  890SOL    HW2 3326   1.991   0.757   3.262  1.6154  0.0559 -0.8002
  890SOL    HW3 3327   1.979   0.622   3.329  1.5004  0.2971 -0.3309
  890SOL    MW4 3328   1.999   0.707   3.333  0.5635  0.2812  0.0447
  891SOL     OW 3329   2.262   5.396   3.304  0.2951 -0.2055 -0.5685
  891SOL    HW2 3330   2.267   5.484   3.340  0.5144 -0.2482 -0.4908
  891SOL    HW3 3331   2.348   5.381   3.264 -0.3548  0.3290 -2.2468
  891SOL    MW4 3332   2.274   5.405   3.303  0.2922 -0.1249  0.0650
  892SOL     OW 3333   4.083   1.235   6.126 -0.5131  0.3407 -0.4813
  892SOL    HW2 3334   3.999   1.241   6.171 -0.7437 -0.9583 -0.7195
  892SOL    HW3 3335   4.148   1.252   6.194 -0.9528  2.6205 -0.5281
  892SOL    MW4 3336   4.081   1.238   6.141 -0.1231 -0.6594 -0.6593
  893SOL     OW 3337   6.048   1.304   6.338 -0.1061 -0.3506 -0.3602
  893SOL    HW2 3338   6.055   1.259   6.253  0.9832  0.3487 -0.6617
  893SOL    HW3 3339   6.095   1.248   6.399 -1.6386 -1.3046  0.0004
  893SOL    MW4 3340   6.055   1.290   6.335  0.0526  0.1942 -0.2215
  894SOL     OW 3341   2.093   2.131   5.034  0.3196  0.5430  0.0083
  894SOL    HW2 3342   2.030   2.189   5.077  0.5372  1.0075 -0.2970
  894SOL    HW3 3343   2.075   2.142   4.940  0.7381  0.5387 -0.0713
  894SOL    MW4 3344   2.082   2.140   5.027  0.4339 -0.0900 -0.4790
  895SOL     OW 3345   4.682   3.812   5.357  0.0598 -0.1171  0.1579
  895SOL    HW2 3346   4.637   3.808   5.442  0.0838 -1.3071  0.1350
  895SOL    HW3 3347   4.658   3.730   5.314 -0.5917  0.7979 -1.3273
  895SOL    MW4 3348   4.673   3.801   5.363 -0.2362  0.1780 -0.2249
  896SOL     OW 3349   3.224   4.944   0.199  0.1053 -0.1004 -0.1087
  896SOL    HW2 3350   3.189   5.032   0.185  0.0023  0.0743  1.1604
  896SOL    HW3 3351   3.147   4.889   0.211  0.1609 -0.4273 -1.1504
  896SOL    MW4 3352   3.210   4.948   0.199 -0.1253 -0.3313 -0.5985
  897SOL     OW 3353   3.033   4.917   6.344  0.2880 -0.8472 -0.4548
  897SOL    HW2 3354   3.031   4.909   6.440  1.1929 -0.5654 -0.3984
  897SOL    HW3 3355   3.123   4.893   6.321  0.7630  1.2417 -1.0055
  897SOL    MW4 3356   3.045   4.913   6.354 -0.2506  0.5141  0.3919
  898SOL     OW 3357   1.966   3.994   1.956 -0.5655 -0.1394  0.1953
  898SOL    HW2 3358   2.047   3.945   1.969  0.2150  0.8533 -0.7633
  898SOL    HW3 3359   1.897   3.927   1.954  0.4605 -1.2009 -1.0271
  898SOL    MW4 3360   1.968   3.979   1.958  0.2820 -1.0041  0.9490
  899SOL     OW 3361   6.009   5.912   0.185 -0.2494  0.2826  0.1460
  899SOL    HW2 3362   5.979   5.912   0.094  0.2868  1.0572 -0.0332
  899SOL    HW3 3363   6.095   5.870   0.182  0.4832  1.7638  0.0517
  899SOL    MW4 3364   6.017   5.906   0.173 -0.2347 -0.2174  0.1969
  900SOL     OW 3365   1.320   1.156   0.612 -0.4318 -0.2354  0.4116
  900SOL    HW2 3366   1.322   1.217   0.687 -1.7689  1.6804 -0.9972
  900SOL    HW3 3367   1.239   1.107   0.624  1.0023 -2.4014  1.9409
  900SOL    MW4 3368   1.309   1.158   0.624  0.3530 -0.5449 -0.0326
  901SOL     OW 3369   5.842   4.910   4.655  0.0682  0.2988  0.1182
  901SOL    HW2 3370   5.861   4.992   4.700 -0.0312  0.3028  0.1527
  901SOL    HW3 3371   5.857   4.842   4.721  1.4534  0.1851 -0.2729
  901SOL    MW4 3372   5.846   4.912   4.670 -0.9153 -0.4922 -0.1517
  902SOL     OW 3373   5.861   2.524   3.258 -0.4572  0.4185 -0.2415
  902SOL    HW2 3374   5.912   2.540   3.178  1.7195 -1.2344  0.7227
  902SOL    HW3 3375   5.900   2.582   3.324 -1.1151  0.5247  0.0643
  902SOL    MW4 3376   5.873   2.534   3.256  0.0899 -0.8676  0.2259
  903SOL     OW 3377   3.277   0.762   3.557 -0.3096 -0.1325 -0.3531
  903SOL    HW2 3378   3.300   0.854   3.573 -0.7280 -0.2489  1.0336
  903SOL    HW3 3379   3.193   0.766   3.512 -0.4449  0.1657 -0.0781
  903SOL    MW4 3380   3.269   0.775   3.553  0.6689  0.0872 -0.0186
  904SOL     OW 3381   3.785   4.342   3.639  0.0092  0.3442  0.2241
  904SOL    HW2 3382   3.754   4.253   3.653 -1.7514  0.4508 -2.2462
  904SOL    HW3 3383   3.712   4.397   3.668  0.7002  0.9567  0.8388
  904SOL    MW4 3384   3.771   4.338   3.644  0.2465  0.5121 -0.0142
  905SOL     OW 3385   2.961   6.167   0.677  0.2689 -0.5132 -0.3009
  905SOL    HW2 3386   2.999   6.079   0.670  0.3604 -0.3947 -1.4307
  905SOL    HW3 3387   2.867   6.154   0.664 -0.0093 -0.6775  1.5260
  905SOL    MW4 3388   2.954   6.154   0.675 -0.7818  0.2400  0.4462
  906SOL     OW 3389   0.852   4.181   3.348  0.3887  0.4377 -0.3902
  906SOL    HW2 3390   0.944   4.205   3.334  0.8836 -1.7832 -1.2649
  906SOL    HW3 3391   0.856   4.099   3.396 -1.1706  0.4387 -0.2354
  906SOL    MW4 3392   0.865   4.174   3.353  0.1033  0.1453  0.3646
  907SOL     OW 3393   1.447   2.572   6.054  0.0823 -0.7524 -0.5538
  907SOL    HW2 3394   1.435   2.508   5.984  3.8368  0.7631 -2.9106
  907SOL    HW3 3395   1.522   2.539   6.103 -1.0510 -0.5806  1.3940
  907SOL    MW4 3396   1.455   2.559   6.051 -0.0430  0.0497  0.4738
  908SOL     OW 3397   5.563   4.885   2.700 -0.3806 -0.1652 -0.2981
  908SOL    HW2 3398   5.584   4.817   2.635  0.4666  0.3773 -0.6099
  908SOL    HW3 3399   5.647   4.925   2.720 -0.5858 -0.5187  1.3907
  908SOL    MW4 3400   5.577   4.881   2.694 -0.0725 -0.1329 -0.3098
  909SOL     OW 3401   4.947   4.752   4.196 -0.0664 -0.8221 -0.3063
  909SOL    HW2 3402   4.900   4.696   4.135  0.2297 -1.2968 -0.1017
  909SOL    HW3 3403   4.967   4.831   4.146  1.5376 -1.8194 -1.3243
  909SOL    MW4 3404   4.943   4.755   4.181 -0.1048 -0.5864 -0.5770
  910SOL     OW 3405   2.913   5.728   1.825 -0.4061 -0.1509  0.6869
  910SOL    HW2 3406   2.926   5.634   1.835 -0.5705 -0.2542  0.0011
  910SOL    HW3 3407   2.945   5.766   1.907  1.5256 -0.6472  0.2089
  910SOL    MW4 3408   2.919   5.721   1.837 -0.1104 -0.5006  0.5909
  911SOL     OW 3409   6.309   5.712   6.200  0.5242  0.8164 -0.3026
  911SOL    HW2 3410   6.291   5.644   6.135 -1.6821 -0.2701  1.3310
  911SOL    HW3 3411   6.372   5.672   6.261 -0.5660  0.2977  0.5060
  911SOL    MW4 3412   6.315   5.698   6.199 -0.0370  0.0901 -0.2507
  912SOL     OW 3413   4.689   3.521   0.772 -0.0203  0.4665 -0.1030
  912SOL    HW2 3414   4.641   3.600   0.747  0.3633  0.4931 -0.7696
  912SOL    HW3 3415   4.717   3.483   0.688  1.1177  0.4440  0.2802
  912SOL    MW4 3416   4.686   3.526   0.757 -0.2713  0.6036  0.3069
  913SOL     OW 3417   2.033   0.150   2.339 -0.2271 -0.3481 -0.5135
  913SOL    HW2 3418   2.007   0.058   2.332 -2.3108  0.1635 -0.1582
  913SOL    HW3 3419   2.024   0.171   2.432 -0.0808  0.3033 -0.6369
  913SOL    MW4 3420   2.029   0.141   2.350  0.2134  0.2275 -0.4712
  914SOL     OW 3421   1.900   4.759   5.086 -0.2436 -0.1647  0.2747
  914SOL    HW2 3422   1.907   4.785   5.178 -1.9070  0.0743  0.3647
  914SOL    HW3 3423   1.850   4.678   5.087  1.6819 -1.4277 -0.2915
  914SOL    MW4 3424   1.894   4.752   5.098 -0.6877  0.3297  0.4709
  915SOL     OW 3425   5.043   5.350   4.262  0.1020 -0.3200  0.4157
  915SOL    HW2 3426   5.117   5.406   4.240 -1.2847  0.6065 -2.3893
  915SOL    HW3 3427   5.067   5.264   4.227 -1.0597  0.5706 -2.8799
  915SOL    MW4 3428   5.056   5.346   4.255 -0.5561  0.3386 -0.8897
  916SOL     OW 3429   2.338   1.785   1.454 -0.2833 -0.1757  0.0788
  916SOL    HW2 3430   2.380   1.842   1.390 -0.8037  2.2713  1.7572
  916SOL    HW3 3431   2.391   1.705   1.454  0.8510  0.5166 -1.9661
  916SOL    MW4 3432   2.350   1.782   1.446 -0.1902  0.3755  0.3913
  917SOL     OW 3433   3.028   0.428   0.918  0.6176 -0.2290 -0.1921
  917SOL    HW2 3434   3.054   0.470   0.836  1.4618 -1.3380 -0.5128
  917SOL    HW3 3435   3.053   0.491   0.985  0.1244  0.5946 -0.7533
  917SOL    MW4 3436   3.034   0.442   0.916 -0.0120 -0.4795  0.8631
  918SOL     OW 3437   2.859   2.571   5.017 -0.3848 -0.1747 -0.0050
  918SOL    HW2 3438   2.772   2.595   4.986 -0.2094  1.8136  0.8760
  918SOL    HW3 3439   2.893   2.511   4.951 -1.9761 -0.1138 -0.9286
  918SOL    MW4 3440   2.852   2.566   5.004  0.5286  0.3026  0.4819
  919SOL     OW 3441   5.617   4.214   3.663 -0.5878  0.0417  0.5262
  919SOL    HW2 3442   5.692   4.270   3.644 -0.9700  0.3270 -0.1652
  919SOL    HW3 3443   5.651   4.149   3.724  0.2232  0.1703  0.2243
  919SOL    MW4 3444   5.631   4.213   3.669  0.0508  0.1878  0.0389
  920SOL     OW 3445   6.109   2.202   4.307 -0.1464 -0.3183 -0.2890
  920SOL    HW2 3446   6.179   2.137   4.299 -0.2800 -0.5826  0.6402
  920SOL    HW3 3447   6.085   2.201   4.400 -1.7928 -0.6464 -0.6937
  920SOL    MW4 3448   6.115   2.193   4.318  0.2229  0.2465  0.3654
  921SOL     OW 3449   4.223   1.965   5.823  0.2795  0.5437 -0.3152
  921SOL    HW2 3450   4.242   2.058   5.836  3.3009  0.1904 -1.3372
  921SOL    HW3 3451   4.264   1.922   5.899  0.0179 -0.0403 -0.5041
  921SOL    MW4 3452   4.231   1.971   5.835  0.1054 -0.6395  0.3302
  922SOL     OW 3453   1.973   2.174   3.657 -0.0018  0.1923 -0.2830
  922SOL    HW2 3454   1.916   2.193   3.582  1.6621  2.7546 -1.0334
  922SOL    HW3 3455   2.062   2.178   3.622  0.7694 -0.7425  1.4340
  922SOL    MW4 3456   1.977   2.177   3.642 -0.3907  0.3255 -0.1242
  923SOL     OW 3457   5.004   1.741   2.246 -0.2732 -0.0306  0.6404
  923SOL    HW2 3458   5.055   1.688   2.185 -0.8257 -0.9753  0.9693
  923SOL    HW3 3459   4.940   1.680   2.282 -0.8701  0.8507  1.1082
  923SOL    MW4 3460   5.002   1.726   2.243  0.5544  0.0658 -0.6262
  924SOL     OW 3461   2.701   6.149   4.880  0.3740 -0.6242  0.1527
  924SOL    HW2 3462   2.761   6.086   4.920 -1.1911 -1.9152  0.5550
  924SOL    HW3 3463   2.728   6.153   4.788  1.3368 -0.8626  0.4156
  924SOL    MW4 3464   2.712   6.141   4.873  0.2809 -0.8320 -0.0856
  925SOL     OW 3465   3.506   5.218   4.918 -1.0336  0.0063  0.1233
  925SOL    HW2 3466   3.549   5.170   4.989 -0.4746  0.2880 -0.0237
  925SOL    HW3 3467   3.413   5.214   4.940 -0.8764 -0.0133  0.8124
  925SOL    MW4 3468   3.499   5.211   4.930  0.0207 -0.4366  0.0223
  926SOL     OW 3469   3.152   0.183   0.859  0.0184 -0.3509  0.1662
  926SOL    HW2 3470   3.089   0.116   0.831 -0.4145 -1.3194  3.1263
  926SOL    HW3 3471   3.099   0.261   0.874  0.4007  0.5075 -2.4421
  926SOL    MW4 3472   3.137   0.184   0.857 -0.9439  0.1313  0.1921
  927SOL     OW 3473   2.627   3.376   3.861 -0.0435  0.0777 -0.2623
  927SOL    HW2 3474   2.578   3.423   3.794  0.1764  1.0081  0.2079
  927SOL    HW3 3475   2.712   3.419   3.863 -0.0505  0.0675  0.6174
  927SOL    MW4 3476   2.632   3.388   3.852 -0.0406 -0.1167  0.5534
  928SOL     OW 3477   4.798   0.431   6.001 -0.3418  0.0656  0.2847
  928SOL    HW2 3478   4.744   0.416   6.079 -2.3770  4.1842 -0.0317
  928SOL    HW3 3479   4.878   0.472   6.035  0.4970 -1.5619  0.3781
  928SOL    MW4 3480   4.801   0.435   6.016  0.1196  0.4024  0.5927
  929SOL     OW 3481   2.953   3.983   2.272 -0.1513 -0.1724 -0.2068
  929SOL    HW2 3482   2.912   4.012   2.191  1.7135 -2.3290 -2.0740
  929SOL    HW3 3483   3.047   3.987   2.254  0.2947 -1.0926  1.6905
  929SOL    MW4 3484   2.960   3.987   2.259 -0.0880 -0.1503 -0.2618
  930SOL     OW 3485   1.423   4.025   3.307  0.3334  0.3213  0.0197
  930SOL    HW2 3486   1.501   3.981   3.274  1.8572  2.3909  0.6705
  930SOL    HW3 3487   1.407   3.986   3.393 -2.1537 -3.2903 -1.8336
  930SOL    MW4 3488   1.431   4.014   3.314 -0.6216  0.2309 -0.6294
  931SOL     OW 3489   3.954   2.154   3.870 -0.1707 -0.1124 -0.2389
  931SOL    HW2 3490   3.954   2.062   3.897  0.0655 -0.6876 -2.0594
  931SOL    HW3 3491   4.028   2.193   3.919 -0.7679 -0.6551  1.1588
  931SOL    MW4 3492   3.964   2.147   3.880 -0.2904  0.7020 -0.2746
  932SOL     OW 3493   5.026   4.233   5.855  0.2367 -0.4790 -0.0057
  932SOL    HW2 3494   5.036   4.201   5.765  0.1011 -0.4024 -0.0485
  932SOL    HW3 3495   5.058   4.161   5.909  0.6328 -0.3911 -0.1265
  932SOL    MW4 3496   5.031   4.219   5.850 -0.3532 -0.1303 -0.2413
  933SOL     OW 3497   5.318   4.803   2.420 -0.1556 -0.3043 -0.6344
  933SOL    HW2 3498   5.230   4.794   2.382 -0.0779  0.5786 -1.0473
  933SOL    HW3 3499   5.371   4.839   2.349  0.2344  0.4067 -0.0040
  933SOL    MW4 3500   5.313   4.807   2.405 -0.2240 -0.2717 -0.1441
  934SOL     OW 3501   2.633   5.831   2.482 -0.1483  0.1632 -0.1520
  934SOL    HW2 3502   2.553   5.859   2.435 -0.7281 -0.0263  0.7045
  934SOL    HW3 3503   2.614   5.741   2.509  0.5096 -0.0073 -0.2504
  934SOL    MW4 3504   2.620   5.823   2.479 -0.0089  0.1569 -0.2307
  935SOL     OW 3505   3.942   2.485   3.541 -0.4606 -0.9543  0.2707
  935SOL    HW2 3506   3.975   2.537   3.467 -1.0066 -1.3378 -0.2495
  935SOL    HW3 3507   3.909   2.550   3.603  1.2739 -0.5516  0.8342
  935SOL    MW4 3508   3.942   2.501   3.540  0.2649 -0.3329 -0.4291
  936SOL     OW 3509   5.652   4.711   4.091  0.3357  0.3666 -0.1106
  936SOL    HW2 3510   5.722   4.675   4.037  1.9434 -0.8283  2.5922
  936SOL    HW3 3511   5.688   4.792   4.127 -0.0962  0.3130  0.4561
  936SOL    MW4 3512   5.666   4.717   4.088  0.3005  0.0718  0.0168
  937SOL     OW 3513   4.042   3.262   1.314 -0.1113  0.0974 -0.2225
  937SOL    HW2 3514   3.998   3.338   1.277 -0.3805 -0.2846 -0.6863
  937SOL    HW3 3515   4.050   3.283   1.407  2.6941  2.1209 -0.7859
  937SOL    MW4 3516   4.037   3.275   1.322  0.1668 -0.1031 -0.1869
  938SOL     OW 3517   3.029   3.297   5.970  0.0506  0.6079 -0.1353
  938SOL    HW2 3518   2.956   3.332   6.021 -0.8050 -1.5976  0.2339
  938SOL    HW3 3519   2.991   3.277   5.885  0.4674  0.3607 -0.2654
  938SOL    MW4 3520   3.015   3.299   5.966 -1.0163  0.5925  0.3202
  939SOL     OW 3521   2.435   3.159   2.537  0.6913 -0.1962  0.5841
  939SOL    HW2 3522   2.434   3.064   2.548  1.1955 -0.3658 -0.5960
  939SOL    HW3 3523   2.472   3.193   2.618  1.1159 -1.0596  0.7623
  939SOL    MW4 3524   2.440   3.151   2.549 -0.0777 -0.2793 -0.5191
  940SOL     OW 3525   6.248   2.208   0.459  0.5040 -0.9929  0.3618
  940SOL    HW2 3526   6.340   2.222   0.436  0.3160  0.0032  0.1737
  940SOL    HW3 3527   6.221   2.135   0.403  0.7717 -0.2889 -0.7192
  940SOL    MW4 3528   6.256   2.200   0.448  0.2755  0.2660  0.4327
  941SOL     OW 3529   5.262   5.268   0.412 -0.1591  0.0889 -0.2377
  941SOL    HW2 3530   5.305   5.230   0.336 -0.3532 -0.2573 -0.1755
  941SOL    HW3 3531   5.178   5.300   0.379  1.0384  2.8665 -0.8852
  941SOL    MW4 3532   5.257   5.267   0.398 -0.1092  0.1462  0.3796
  942SOL     OW 3533   6.146   4.054   6.092  0.1759  0.2267 -0.1856
  942SOL    HW2 3534   6.220   4.094   6.137  0.0791  2.1382 -1.6291
  942SOL    HW3 3535   6.091   4.127   6.065 -1.0822 -1.0124 -1.1392
  942SOL    MW4 3536   6.149   4.069   6.095  0.0239 -0.5418 -0.5723
  943SOL     OW 3537   5.125   3.300   4.761 -0.3850  0.0762  0.5239
  943SOL    HW2 3538   5.084   3.248   4.829 -0.4903 -1.4916 -0.6749
  943SOL    HW3 3539   5.217   3.273   4.761 -0.3668  0.1177  0.1039
  943SOL    MW4 3540   5.132   3.290   4.770 -0.3483 -0.0385 -0.1151
  944SOL     OW 3541   2.657   3.916   5.840 -0.5712  0.7079  0.0848
  944SOL    HW2 3542   2.637   3.952   5.926 -0.0956  1.6924 -0.1985
  944SOL    HW3 3543   2.676   3.993   5.786  0.1304  0.0437 -0.6362
  944SOL    MW4 3544   2.657   3.931   5.844  0.7698 -0.2340 -0.1797
  945SOL     OW 3545   0.837   4.911   4.852  0.3894  0.1233  0.0419
  945SOL    HW2 3546   0.752   4.952   4.869  0.1653 -0.7285  1.0455
  945SOL    HW3 3547   0.816   4.828   4.810  0.6809 -0.4072  0.9215
  945SOL    MW4 3548   0.823   4.905   4.849 -0.0067 -0.0991  0.3353
  946SOL     OW 3549   5.916   5.195   1.115 -0.5181  0.0148  0.2438
  946SOL    HW2 3550   5.850   5.212   1.048  1.6065 -0.3717 -2.1000
  946SOL    HW3 3551   5.953   5.110   1.091 -0.2983 -0.5800  2.4938
  946SOL    MW4 3552   5.913   5.186   1.103  0.2174  0.1990 -0.2094
  947SOL     OW 3553   6.085   2.801   2.855 -0.3249  0.0365  0.3073
  947SOL    HW2 3554   6.003   2.766   2.890  0.1211  0.0125  1.3550
  947SOL    HW3 3555   6.153   2.764   2.911  0.4703 -0.4597 -0.9401
  947SOL    MW4 3556   6.083   2.791   2.867  0.2526 -0.1568 -0.3754
  948SOL     OW 3557   4.944   3.413   1.618 -0.3382 -0.1851  0.1116
  948SOL    HW2 3558   4.895   3.331   1.616  2.2947 -1.8778 -0.6732
  948SOL    HW3 3559   5.002   3.405   1.694 -0.5560  1.3091  0.4681
  948SOL    MW4 3560   4.946   3.401   1.628  0.4541  0.3469  0.0132
  949SOL     OW 3561   3.815   2.476   6.220 -0.5341 -0.6090 -0.1401
  949SOL    HW2 3562   3.806   2.425   6.139 -1.7495 -1.1281  0.2878
  949SOL    HW3 3563   3.797   2.412   6.289 -0.0259 -0.0493  0.5108
  949SOL    MW4 3564   3.812   2.461   6.218 -0.2854 -0.6328  0.7700
  950SOL     OW 3565   5.481   0.903   2.050 -0.3373 -0.1701 -0.1759
  950SOL    HW2 3566   5.570   0.869   2.051 -0.9431 -1.8124  0.4731
  950SOL    HW3 3567   5.492   0.998   2.057  1.3582 -0.3240 -0.4044
  950SOL    MW4 3568   5.494   0.911   2.051 -0.9796  0.0441  0.2170
  951SOL     OW 3569   5.418   5.808   3.361 -0.4228 -0.4171  0.1191
  951SOL    HW2 3570   5.331   5.847   3.354 -0.1324 -0.0794 -2.8926
  951SOL    HW3 3571   5.409   5.722   3.321  0.6811 -0.2087 -0.6294
  951SOL    MW4 3572   5.405   5.802   3.355 -0.4708  0.3096  0.8668
  952SOL     OW 3573   4.363   0.187   3.448 -0.2035  0.2582  0.2454
  952SOL    HW2 3574   4.408   0.212   3.529 -1.7765  0.7846  0.9937
  952SOL    HW3 3575   4.298   0.122   3.476  0.0777 -0.4924 -0.8063
  952SOL    MW4 3576   4.360   0.182   3.463 -0.4078 -0.2599 -0.3740
  953SOL     OW 3577   1.740   0.832   2.906 -0.1562 -0.2683 -0.4776
  953SOL    HW2 3578   1.646   0.837   2.922  0.2172  1.1885  1.5614
  953SOL    HW3 3579   1.747   0.819   2.811 -2.3812  0.2757 -0.7709
  953SOL    MW4 3580   1.729   0.831   2.895  0.2429 -0.1641 -0.9679
  954SOL     OW 3581   1.324   5.603   5.713 -0.1947 -0.3216 -0.5433
  954SOL    HW2 3582   1.350   5.692   5.687 -0.2838 -0.0736  0.1921
  954SOL    HW3 3583   1.330   5.603   5.809 -2.0600 -0.5147 -0.3948
  954SOL    MW4 3584   1.329   5.615   5.723 -0.1665  0.4440 -0.1850
  955SOL     OW 3585   1.430   5.267   6.044  0.5868  0.1814 -0.1777
  955SOL    HW2 3586   1.412   5.348   6.092 -1.7663 -1.1352  1.3642
  955SOL    HW3 3587   1.383   5.277   5.962 -0.8744 -0.1422  0.5980
  955SOL    MW4 3588   1.422   5.279   6.040  0.1591 -0.0434 -0.6471
  956SOL     OW 3589   4.442   4.286   4.367  0.0406  0.0211 -0.1694
  956SOL    HW2 3590   4.502   4.347   4.323 -0.3724  1.0465  0.6372
  956SOL    HW3 3591   4.382   4.257   4.298 -0.4176  1.3809 -0.3884
  956SOL    MW4 3592   4.442   4.291   4.352 -0.5629 -0.1801 -0.1042
  957SOL     OW 3593   1.848   5.327   5.533  0.1700 -0.0098  0.0430
  957SOL    HW2 3594   1.853   5.376   5.451  1.8644  0.4839  0.4173
  957SOL    HW3 3595   1.935   5.289   5.544 -0.3928 -1.0635  1.0153
  957SOL    MW4 3596   1.860   5.329   5.524 -0.3416 -0.1779  0.7528
  958SOL     OW 3597   4.250   0.894   2.203 -0.6164  0.4266 -0.1242
  958SOL    HW2 3598   4.209   0.892   2.289 -2.2797  0.5769 -0.8619
  958SOL    HW3 3599   4.311   0.821   2.203 -0.4552  0.5471  1.2362
  958SOL    MW4 3600   4.253   0.884   2.214 -0.0176  0.2686 -0.0301
  959SOL     OW 3601   3.690   2.849   5.572  0.6119 -0.1305 -0.0309
  959SOL    HW2 3602   3.722   2.836   5.483  0.8772  0.9269 -0.1038
  959SOL    HW3 3603   3.646   2.767   5.595  3.5498 -1.7634  0.1722
  959SOL    MW4 3604   3.688   2.836   5.564  0.2236 -0.1825 -0.5544
  960SOL     OW 3605   2.553   2.324   4.903  0.6157 -0.0076  0.3763
  960SOL    HW2 3606   2.473   2.338   4.954  0.7546  1.6604  0.2053
  960SOL    HW3 3607   2.523   2.292   4.818  0.0153  1.5903 -0.0466
  960SOL    MW4 3608   2.539   2.322   4.899 -0.4500 -0.0372  0.0814
  961SOL     OW 3609   3.207   4.363   5.718  0.3493 -0.1792 -0.0471
  961SOL    HW2 3610   3.248   4.277   5.713  1.2497  0.2043  0.6875
  961SOL    HW3 3611   3.168   4.367   5.805 -0.9584 -0.3897 -0.5935
  961SOL    MW4 3612   3.207   4.353   5.729 -0.5754 -0.4116 -0.4197
  962SOL     OW 3613   1.627   1.334   5.571 -0.0054  0.0175 -0.9110
  962SOL    HW2 3614   1.690   1.312   5.502  0.2228 -0.2295 -0.6256
  962SOL    HW3 3615   1.677   1.327   5.653 -0.7236 -1.4588 -0.5690
  962SOL    MW4 3616   1.642   1.330   5.573  0.5962 -0.0609 -0.3125
  963SOL     OW 3617   4.313   5.477   0.671  0.1433  1.0296  0.5402
  963SOL    HW2 3618   4.271   5.411   0.726  2.2506  0.7667  1.9449
  963SOL    HW3 3619   4.361   5.426   0.605  0.1798  1.2199  0.4206
  963SOL    MW4 3620   4.314   5.461   0.670  0.7365 -0.3958  0.0271
  964SOL     OW 3621   5.611   6.199   0.384  0.2353 -0.3006  0.0362
  964SOL    HW2 3622   5.675   6.128   0.381 -0.2373 -0.7166 -0.4256
  964SOL    HW3 3623   5.555   6.179   0.459 -0.4601 -0.9219 -0.6337
  964SOL    MW4 3624   5.612   6.187   0.393  0.3576 -0.5495  0.7391
  965SOL     OW 3625   2.338   6.394   1.255  0.0274 -1.1930  0.0266
  965SOL    HW2 3626   2.432   6.374   1.255  0.1966 -0.4600  1.0634
  965SOL    HW3 3627   2.296   6.308   1.250  0.7318 -1.4917 -1.4695
  965SOL    MW4 3628   2.345   6.380   1.254  0.1274 -0.0382  0.4439
  966SOL     OW 3629   5.319   0.591   1.810  0.0520 -0.1545  0.5115
  966SOL    HW2 3630   5.251   0.532   1.843 -1.9231  0.5982 -1.9067
  966SOL    HW3 3631   5.295   0.677   1.843 -1.4665  0.4622 -1.9261
  966SOL    MW4 3632   5.307   0.594   1.818 -0.3974  0.2145  0.3195
  967SOL     OW 3633   2.197   5.350   1.167  0.0020  0.0607 -0.4284
  967SOL    HW2 3634   2.247   5.429   1.186  0.7125 -0.4952  0.0839
  967SOL    HW3 3635   2.211   5.333   1.074 -0.1603  0.5356 -0.5408
  967SOL    MW4 3636   2.205   5.358   1.158 -0.4774  0.4644  0.3736
  968SOL     OW 3637   1.582   0.966   2.047  0.9007  0.2485 -0.1389
  968SOL    HW2 3638   1.634   1.035   2.005  0.5792  0.7587  0.2977
  968SOL    HW3 3639   1.527   1.012   2.110 -0.4224 -0.2315 -0.9093
  968SOL    MW4 3640   1.582   0.981   2.050  0.3018 -0.1510  0.0651
  969SOL     OW 3641   5.684   6.359   5.281 -0.0441  0.0094 -0.0224
  969SOL    HW2 3642   5.678   6.449   5.314  1.6077  0.0964  0.1399
  969SOL    HW3 3643   5.771   6.330   5.308 -0.4381 -1.5482 -0.3384
  969SOL    MW4 3644   5.695   6.367   5.289 -0.1192  0.1510 -0.7185
  970SOL     OW 3645   3.494   1.898   0.570 -0.1178 -0.2353 -0.2085
  970SOL    HW2 3646   3.460   1.965   0.629 -0.2427  0.5240 -1.1256
  970SOL    HW3 3647   3.416   1.855   0.534 -0.0515 -1.9343  1.5035
  970SOL    MW4 3648   3.479   1.901   0.573  0.6926  0.1324 -0.0694
  971SOL     OW 3649   4.870   1.266   4.146  0.0276  0.0327 -0.2637
  971SOL    HW2 3650   4.892   1.197   4.082 -0.5553  0.0677 -0.5049
  971SOL    HW3 3651   4.904   1.346   4.107 -0.2369  0.0389 -0.4818
  971SOL    MW4 3652   4.877   1.267   4.132 -0.2386 -0.5525  0.4031
  972SOL     OW 3653   4.192   0.581   1.884 -0.4749 -0.1970 -0.6261
  972SOL    HW2 3654   4.172   0.570   1.977 -1.9010 -0.1305 -0.9001
  972SOL    HW3 3655   4.204   0.675   1.873  2.5976 -0.4267 -0.0035
  972SOL    MW4 3656   4.191   0.592   1.895 -0.3102 -0.0073  0.0607
  973SOL     OW 3657   5.459   3.294   6.049  0.2966 -0.2605  0.8179
  973SOL    HW2 3658   5.470   3.280   5.955 -0.1467 -0.0499  0.7312
  973SOL    HW3 3659   5.535   3.346   6.075 -0.0816  0.5283  0.3793
  973SOL    MW4 3660   5.471   3.299   6.040 -0.4160  0.3746  0.0178
  974SOL     OW 3661   5.832   4.087   0.217  0.4305 -0.2822  0.2001
  974SOL    HW2 3662   5.892   4.073   0.290  0.5008 -0.4464  0.1121
  974SOL    HW3 3663   5.884   4.065   0.139 -0.4432 -2.7590  0.2443
  974SOL    MW4 3664   5.847   4.083   0.216  0.1344  0.3916 -0.3046
  975SOL     OW 3665   3.819   3.611   3.010 -0.1279  0.1980  0.3064
  975SOL    HW2 3666   3.749   3.661   2.969 -0.7580 -0.3258  0.7206
  975SOL    HW3 3667   3.775   3.561   3.079  0.6206 -0.2942  0.4351
  975SOL    MW4 3668   3.804   3.611   3.014  0.1677 -0.4692 -0.5229
  976SOL     OW 3669   2.958   5.926   1.292 -0.0639 -0.8277  0.2179
  976SOL    HW2 3670   2.943   5.884   1.377  1.0743 -1.6702  0.0285
  976SOL    HW3 3671   2.879   5.907   1.241 -1.2831  0.6755  1.4351
  976SOL    MW4 3672   2.946   5.918   1.297 -0.1295 -0.4482  0.2490
  977SOL     OW 3673   1.928   2.933   3.025  0.1978  0.2677  0.0010
  977SOL    HW2 3674   2.009   2.984   3.020 -0.7006  1.8256  0.5572
  977SOL    HW3 3675   1.956   2.842   3.011  1.8997  0.8629 -0.7992
  977SOL    MW4 3676   1.942   2.928   3.022 -0.2146 -0.6229 -0.2140
  978SOL     OW 3677   5.467   4.725   5.492  0.3688  0.3538 -0.3765
  978SOL    HW2 3678   5.440   4.645   5.446 -0.2431  0.2897  0.0773
  978SOL    HW3 3679   5.403   4.734   5.562  2.4608 -0.7182  1.8352
  978SOL    MW4 3680   5.455   4.715   5.495  0.1704 -0.0626  0.2488
  979SOL     OW 3681   6.152   0.852   1.931  0.8082  0.6009  0.1340
  979SOL    HW2 3682   6.101   0.906   1.870 -1.7851 -2.6885 -0.8646
  979SOL    HW3 3683   6.201   0.792   1.876 -0.9928 -1.9476  1.1355
  979SOL    MW4 3684   6.152   0.851   1.916  0.3865 -0.2626 -0.2999
  980SOL     OW 3685   3.552   3.796   5.127  0.2058  0.5784 -0.5749
  980SOL    HW2 3686   3.588   3.716   5.089 -0.4424  0.1776 -0.3635
  980SOL    HW3 3687   3.627   3.840   5.167  0.0329 -1.9449  2.9916
  980SOL    MW4 3688   3.566   3.791   5.127  0.4162  0.3732 -0.0265
  981SOL     OW 3689   0.763   2.320   4.756  0.1659 -0.0056 -0.3492
  981SOL    HW2 3690   0.707   2.257   4.802 -3.0962  1.5690 -1.8052
  981SOL    HW3 3691   0.792   2.380   4.824  0.0072 -0.8017  0.4458
  981SOL    MW4 3692   0.760   2.320   4.771  0.0978  0.1640 -0.3182
  982SOL     OW 3693   0.557   4.241   0.559 -0.0630  0.3789 -0.1825
  982SOL    HW2 3694   0.650   4.256   0.539 -0.2786  0.0269 -1.4755
  982SOL    HW3 3695   0.533   4.315   0.615  1.5330 -0.6147  2.0085
  982SOL    MW4 3696   0.566   4.252   0.564 -0.0855 -0.1566  0.3882
  983SOL     OW 3697   6.266   4.450   4.374 -0.3267 -0.1270 -0.1071
  983SOL    HW2 3698   6.207   4.472   4.302  1.6636 -0.7243 -2.0153
  983SOL    HW3 3699   6.225   4.373   4.415 -1.1177 -0.2546 -1.0957
  983SOL    MW4 3700   6.252   4.443   4.370  0.0275 -0.2512  0.5190
  984SOL     OW 3701   2.206   5.744   1.509  0.1406  0.0213  0.0067
  984SOL    HW2 3702   2.216   5.774   1.599  0.0527  1.2605 -0.3849
  984SOL    HW3 3703   2.265   5.669   1.502 -0.0081 -0.2217  1.1469
  984SOL    MW4 3704   2.215   5.738   1.520  0.6821  0.2091 -0.1658
  985SOL     OW 3705   4.254   5.554   2.657 -0.3597 -0.5041 -0.7037
  985SOL    HW2 3706   4.245   5.467   2.696 -1.4042  0.1160  0.5333
  985SOL    HW3 3707   4.241   5.539   2.564  1.4508 -1.9354 -0.7764
  985SOL    MW4 3708   4.251   5.540   2.650  0.0306 -0.8827  0.1663
  986SOL     OW 3709   6.392   1.165   5.125  0.1134 -0.1411  0.2872
  986SOL    HW2 3710   6.368   1.073   5.114  1.3971 -0.2901 -1.8029
  986SOL    HW3 3711   6.413   1.174   5.218  0.8607 -2.1942  0.3631
  986SOL    MW4 3712   6.391   1.154   5.135  0.1236  0.4338 -0.0542
  987SOL     OW 3713   4.064   6.285   5.219  0.2422 -0.4979 -0.1177
  987SOL    HW2 3714   3.991   6.311   5.163  0.0742  0.0521  0.3526
  987SOL    HW3 3715   4.131   6.255   5.157 -0.2327 -0.6356 -0.5715
  987SOL    MW4 3716   4.063   6.285   5.203 -0.3924 -0.1882 -0.4179
  988SOL     OW 3717   0.026   4.984   0.431 -0.3607  0.6508  0.5498
  988SOL    HW2 3718   0.086   5.056   0.450  2.2891 -1.2782  0.0687
  988SOL    HW3 3719   0.002   4.996   0.339  1.1689  0.2516  0.0677
  988SOL    MW4 3720   0.031   4.995   0.421 -0.3204 -0.1610  0.6198
  989SOL     OW 3721   1.039   5.612   5.663  0.3879  0.1232  0.1488
  989SOL    HW2 3722   0.995   5.686   5.704  0.4505 -0.3451  1.0754
  989SOL    HW3 3723   1.129   5.615   5.697  0.6657  0.1940 -0.5722
  989SOL    MW4 3724   1.045   5.622   5.673 -0.4340 -0.1455 -0.3997
  990SOL     OW 3725   5.360   5.440   0.827 -0.0327  1.0687  0.0873
  990SOL    HW2 3726   5.365   5.489   0.909 -1.4503 -2.3935  2.4783
  990SOL    HW3 3727   5.272   5.458   0.794 -0.6516  0.0491  1.1036
  990SOL    MW4 3728   5.349   5.449   0.834  0.3434 -0.5490  0.0310
  991SOL     OW 3729   5.487   1.962   5.884 -0.0706  0.2883  0.2295
  991SOL    HW2 3730   5.407   1.966   5.833  0.0656 -1.3875 -0.1763
  991SOL    HW3 3731   5.461   1.991   5.972 -1.4876 -1.5445  0.4801
  991SOL    MW4 3732   5.473   1.966   5.889 -0.0998 -0.8203 -0.2816
  992SOL     OW 3733   3.299   4.548   4.906  0.2884  0.3984  0.0656
  992SOL    HW2 3734   3.330   4.609   4.839 -0.3905  1.0878  0.3746
  992SOL    HW3 3735   3.209   4.573   4.923 -0.0462 -0.7627  0.1251
  992SOL    MW4 3736   3.291   4.559   4.900  0.1853  0.8388  0.0807
  993SOL     OW 3737   0.316   4.439   5.139 -0.5030 -0.0705 -0.1990
  993SOL    HW2 3738   0.276   4.425   5.225 -0.1984  1.8238  0.2910
  993SOL    HW3 3739   0.242   4.441   5.079 -1.5770  4.7721  0.8587
  993SOL    MW4 3740   0.301   4.438   5.143 -0.3376 -0.4522  0.1082
  994SOL     OW 3741   4.535   4.766   1.726  0.0825  0.2516 -0.3377
  994SOL    HW2 3742   4.548   4.837   1.788  1.2327 -1.3381  1.3667
  994SOL    HW3 3743   4.453   4.724   1.754 -0.3240  0.5597 -1.0221
  994SOL    MW4 3744   4.526   4.769   1.738  0.4162  0.6149 -0.6328
  995SOL     OW 3745   3.577   6.217   0.971  0.4353 -0.3465 -0.0291
  995SOL    HW2 3746   3.636   6.249   0.903  0.2155  1.5177  0.6086
  995SOL    HW3 3747   3.495   6.265   0.957  0.5186  0.4088  1.7718
  995SOL    MW4 3748   3.574   6.227   0.960 -1.2476 -0.3779  0.3894
  996SOL     OW 3749   0.796   2.580   5.239  0.1017 -0.0658  0.6647
  996SOL    HW2 3750   0.749   2.663   5.240  1.3519  0.7100 -0.7627
  996SOL    HW3 3751   0.734   2.516   5.274 -0.9310  1.4291  1.6526
  996SOL    MW4 3752   0.782   2.582   5.244  0.1402 -0.7055  0.3688
  997SOL     OW 3753   3.961   3.990   6.346  0.7429 -0.5055 -0.1629
  997SOL    HW2 3754   4.032   4.029   6.396  1.4430  1.7820 -2.7157
  997SOL    HW3 3755   4.004   3.947   6.273 -0.3896 -1.4506 -0.3088
  997SOL    MW4 3756   3.976   3.990   6.343  0.0494 -0.5401 -0.1997
  998SOL     OW 3757   4.950   5.282   4.769  0.7796 -0.1360 -0.7155
  998SOL    HW2 3758   5.013   5.270   4.698  0.8954 -1.6319 -0.3811
  998SOL    HW3 3759   4.865   5.280   4.726  0.8804 -0.0860 -0.9198
  998SOL    MW4 3760   4.947   5.281   4.754 -0.2989  0.0451  0.4278
  999SOL     OW 3761   3.256   6.356   5.762  0.3518 -0.6400  0.3471
  999SOL    HW2 3762   3.166   6.379   5.737 -0.0078 -0.3989  1.7676
  999SOL    HW3 3763   3.308   6.433   5.741  0.3297 -0.9498 -0.9227
  999SOL    MW4 3764   3.251   6.369   5.756  0.4805 -0.7028  0.3415
 1000SOL     OW 3765   1.372   0.849   4.135 -0.2987  0.3150  0.2321
 1000SOL    HW2 3766   1.462   0.873   4.113 -0.0182 -0.5894  0.3567
 1000SOL    HW3 3767   1.355   0.894   4.218 -0.5887  1.9040 -0.6323
 1000SOL    MW4 3768   1.381   0.858   4.143 -0.0218  0.8528  0.8069
 1001SOL     OW 3769   2.833   4.325   5.138  0.2698  0.0353 -0.9187
 1001SOL    HW2 3770   2.777   4.277   5.199 -0.7213 -1.2935 -2.7553
 1001SOL    HW3 3771   2.798   4.414   5.138  2.3119  1.0507  2.7694
 1001SOL    MW4 3772   2.821   4.330   5.146 -0.6240  0.2994 -0.4207
 1002SOL     OW 3773   5.498   1.258   1.502 -0.1201 -0.1255  0.8012
 1002SOL    HW2 3774   5.548   1.228   1.426 -0.2043  1.3254  0.1374
 1002SOL    HW3 3775   5.487   1.180   1.556  0.7197 -0.9952 -0.2396
 1002SOL    MW4 3776   5.503   1.244   1.499  0.0229 -0.3499 -0.1804
 1003SOL     OW 3777   5.909   1.972   5.967 -0.4123 -0.2429 -0.0611
 1003SOL    HW2 3778   5.982   1.994   6.025  0.0740 -0.4994 -0.5648
 1003SOL    HW3 3779   5.831   1.984   6.021  0.0138 -0.1635  0.5487
 1003SOL    MW4 3780   5.908   1.976   5.982  0.8225  0.2452 -0.5496
 1004SOL     OW 3781   5.341   2.043   3.166  0.7047  0.2341  0.5666
 1004SOL    HW2 3782   5.412   1.983   3.186 -0.7823 -1.7375  0.2641
 1004SOL    HW3 3783   5.377   2.103   3.101  1.5028 -2.1655 -1.3892
 1004SOL    MW4 3784   5.355   2.043   3.160  0.0539 -0.0671  0.2384
 1005SOL     OW 3785   3.767   5.534   1.203 -0.0628  0.4414 -0.0558
 1005SOL    HW2 3786   3.686   5.565   1.162 -1.6768 -3.3929 -0.1945
 1005SOL    HW3 3787   3.745   5.525   1.295  0.6694  0.5600  0.1380
 1005SOL    MW4 3788   3.754   5.537   1.210 -0.1215  0.3276  0.0731
 1006SOL     OW 3789   4.342   0.145   1.823  0.1422  0.3066 -0.7761
 1006SOL    HW2 3790   4.425   0.146   1.870 -0.0660  1.2048 -0.4108
 1006SOL    HW3 3791   4.366   0.121   1.733  0.7514  0.2366 -0.6005
 1006SOL    MW4 3792   4.356   0.142   1.817 -0.2268 -0.0138 -0.4863
 1007SOL     OW 3793   0.738   4.496   2.249 -0.2618  0.1117 -0.6184
 1007SOL    HW2 3794   0.716   4.528   2.161  0.5759  0.4260 -0.7239
 1007SOL    HW3 3795   0.831   4.472   2.243  0.3675  2.0089  0.7171
 1007SOL    MW4 3796   0.748   4.497   2.236  0.3644 -0.1236  0.3809
 1008SOL     OW 3797   4.752   5.614   4.203  0.3132  0.3804  0.3876
 1008SOL    HW2 3798   4.787   5.556   4.136 -0.4850 -0.4990  0.7171
 1008SOL    HW3 3799   4.765   5.568   4.286  0.2533  0.9466  0.7203
 1008SOL    MW4 3800   4.758   5.601   4.205  0.3651 -0.0500  0.6101
 1009SOL     OW 3801   0.882   1.527   3.841  0.2949 -0.8204  0.7867
 1009SOL    HW2 3802   0.865   1.452   3.784 -0.9846 -0.8010  1.1131
 1009SOL    HW3 3803   0.975   1.543   3.832 -0.0297 -0.0610 -2.2783
 1009SOL    MW4 3804   0.892   1.519   3.832 -0.9298 -0.6523 -0.0226
 1010SOL     OW 3805   3.206   3.291   1.553 -0.2274  0.9620  0.3895
 1010SOL    HW2 3806   3.208   3.199   1.527 -0.9684  1.3655 -1.2445
 1010SOL    HW3 3807   3.248   3.337   1.480  0.3567  1.9120  1.2998
 1010SOL    MW4 3808   3.212   3.285   1.540 -0.2946 -0.2404 -0.6293
 1011SOL     OW 3809   5.102   2.747   1.779 -0.4090  0.1543  0.0419
 1011SOL    HW2 3810   5.175   2.768   1.837  1.4213 -0.6279 -1.8348
 1011SOL    HW3 3811   5.125   2.787   1.695 -1.0517 -1.9259 -1.2029
 1011SOL    MW4 3812   5.114   2.755   1.775  0.6332  0.2186  0.2068
 1012SOL     OW 3813   0.745   6.303   2.778  0.2340 -0.7369 -0.5201
 1012SOL    HW2 3814   0.758   6.270   2.867  0.0945 -2.8502 -1.2140
 1012SOL    HW3 3815   0.822   6.272   2.730  1.2901  2.0379 -0.7706
 1012SOL    MW4 3816   0.757   6.294   2.783 -0.1161 -0.2751  0.1893
 1013SOL     OW 3817   0.452   5.474   1.449 -0.5562  0.1824  0.2367
 1013SOL    HW2 3818   0.399   5.423   1.511 -0.7494 -0.3085 -0.3232
 1013SOL    HW3 3819   0.439   5.430   1.365  1.7854 -0.7687  0.2971
 1013SOL    MW4 3820   0.443   5.462   1.447  0.3412 -0.1897  0.1069
 1014SOL     OW 3821   5.608   1.892   3.200 -0.0656  0.0831 -0.1469
 1014SOL    HW2 3822   5.699   1.913   3.221 -0.8051  2.2347  1.2027
 1014SOL    HW3 3823   5.579   1.835   3.271 -0.3591  1.1276  0.5863
 1014SOL    MW4 3824   5.616   1.887   3.212 -0.0125  0.4226  0.0481
 1015SOL     OW 3825   5.673   2.635   1.261 -0.5557  0.7497 -0.0854
 1015SOL    HW2 3826   5.717   2.710   1.301 -0.2456  0.5613 -0.0667
 1015SOL    HW3 3827   5.693   2.562   1.320 -0.4626  0.5606 -0.3510
 1015SOL    MW4 3828   5.681   2.635   1.274  0.2018 -0.0060 -0.0890
 1016SOL     OW 3829   2.680   2.903   4.906  0.0019 -0.0575 -0.0009
 1016SOL    HW2 3830   2.639   2.861   4.830  1.7518 -0.5427 -0.7352
 1016SOL    HW3 3831   2.702   2.830   4.964  1.1247  0.0175 -0.3043
 1016SOL    MW4 3832   2.678   2.888   4.904 -0.0307  0.0659  0.4818
 1017SOL     OW 3833   2.805   2.563   4.505 -0.5612  0.1680  0.3177
 1017SOL    HW2 3834   2.743   2.502   4.545 -0.3710 -0.2501 -0.0237
 1017SOL    HW3 3835   2.755   2.645   4.497 -1.6336 -0.6032 -1.4597
 1017SOL    MW4 3836   2.790   2.566   4.510 -0.1466 -0.3638  0.1472
 1018SOL     OW 3837   4.175   4.801   1.737 -0.0855  0.0822 -0.6166
 1018SOL    HW2 3838   4.198   4.717   1.777 -0.2243 -0.4803 -1.6893
 1018SOL    HW3 3839   4.137   4.778   1.653 -0.3238  1.2205 -0.8362
 1018SOL    MW4 3840   4.173   4.787   1.731 -0.0365 -0.3282  0.0771
 1019SOL     OW 3841   2.988   3.994   1.799  0.7931  0.2189  0.3760
 1019SOL    HW2 3842   3.057   4.050   1.764  1.4537 -1.6873 -1.6444
 1019SOL    HW3 3843   2.907   4.041   1.782  1.3288  0.6038 -1.2480
 1019SOL    MW4 3844   2.986   4.007   1.792 -0.5498 -0.3195  0.1997
 1020SOL     OW 3845   2.408   3.814   5.421 -0.4350 -0.1728 -0.1031
 1020SOL    HW2 3846   2.327   3.862   5.405  0.9844  1.5031 -3.2871
 1020SOL    HW3 3847   2.477   3.881   5.417  1.3724 -1.9764 -1.3645
 1020SOL    MW4 3848   2.407   3.829   5.418  0.1154 -0.5735 -0.3458
 1021SOL     OW 3849   3.290   4.852   1.788 -0.1662 -0.1071  0.1003
 1021SOL    HW2 3850   3.385   4.854   1.797  0.1596  1.0983 -2.5847
 1021SOL    HW3 3851   3.264   4.764   1.816  1.7526 -0.5250  0.6600
 1021SOL    MW4 3852   3.299   4.840   1.793 -0.3891 -0.7713  0.6864
 1022SOL     OW 3853   6.037   0.052   3.678 -0.3076  0.1244 -0.0855
 1022SOL    HW2 3854   5.979   0.034   3.753 -0.9977 -2.2010 -1.0740
 1022SOL    HW3 3855   6.104   0.110   3.713 -0.6791 -0.7689  2.3185
 1022SOL    MW4 3856   6.038   0.057   3.692  0.1643  0.0596  0.5024
 1023SOL     OW 3857   5.057   2.637   6.251  0.5208 -0.2899 -0.0143
 1023SOL    HW2 3858   5.081   2.627   6.159 -0.3992 -0.1140 -0.2895
 1023SOL    HW3 3859   4.961   2.643   6.250  0.5142 -0.0603  0.9361
 1023SOL    MW4 3860   5.047   2.636   6.239 -0.7083  0.3036  0.2511
 1024SOL     OW 3861   1.411   5.539   0.438  0.1808  0.6610 -0.4933
 1024SOL    HW2 3862   1.487   5.584   0.474  0.5016 -0.3215  0.1020
 1024SOL    HW3 3863   1.401   5.461   0.493 -1.5753  1.0293 -0.2256
 1024SOL    MW4 3864   1.419   5.535   0.450  0.2250 -0.0184 -0.4133
 1025SOL     OW 3865   5.785   2.087   3.771 -0.0352 -0.2311  0.2813
 1025SOL    HW2 3866   5.750   2.005   3.806 -1.5058  1.1684  2.3044
 1025SOL    HW3 3867   5.832   2.126   3.844  0.7284  0.7060 -0.6827
 1025SOL    MW4 3868   5.786   2.081   3.785  0.2750  0.2376  0.5228
 1026SOL     OW 3869   0.308   2.661   6.392 -0.6177  0.5095  0.0237
 1026SOL    HW2 3870   0.337   2.576   6.361 -0.5901  0.4938  0.0910
 1026SOL    HW3 3871   0.222   2.644   6.432 -1.4462  0.8170 -1.5383
 1026SOL    MW4 3872   0.300   2.648   6.394  0.3866 -0.9016 -0.2813
 1027SOL     OW 3873   2.181   3.568   4.382 -0.1762 -0.0128 -0.7782
 1027SOL    HW2 3874   2.268   3.571   4.343  0.1325  1.5728 -0.0545
 1027SOL    HW3 3875   2.193   3.521   4.464  0.5744  2.2351  0.5029
 1027SOL    MW4 3876   2.194   3.563   4.388  0.1350  0.1472 -0.1759
 1028SOL     OW 3877   5.019   4.234   0.393 -0.0773 -0.7666  0.4090
 1028SOL    HW2 3878   4.990   4.289   0.321 -0.2784 -0.2135  0.9088
 1028SOL    HW3 3879   5.067   4.293   0.451 -0.6781 -1.0067  1.1739
 1028SOL    MW4 3880   5.022   4.249   0.392  0.3352  0.4865 -0.1478
 1029SOL     OW 3881   5.090   6.230   2.146 -0.6514  0.5946  0.3635
 1029SOL    HW2 3882   5.173   6.277   2.154 -0.2605 -0.2436  1.4515
 1029SOL    HW3 3883   5.059   6.251   2.057  0.9179  0.6017 -0.2113
 1029SOL    MW4 3884   5.097   6.239   2.135 -0.0378 -0.1237  0.2760
 1030SOL     OW 3885   4.807   5.213   4.441 -0.6822 -0.9277  0.1760
 1030SOL    HW2 3886   4.829   5.200   4.349 -0.2629  1.4976 -0.1223
 1030SOL    HW3 3887   4.713   5.231   4.442 -0.5990 -0.4729  0.1456
 1030SOL    MW4 3888   4.797   5.214   4.429 -0.0042 -0.2138 -0.1465
 1031SOL     OW 3889   0.083   3.670   1.885  0.6607 -0.3736 -0.6679
 1031SOL    HW2 3890   0.086   3.583   1.846  0.6965 -0.1186 -1.2569
 1031SOL    HW3 3891   0.125   3.660   1.971 -0.0156 -1.0827 -0.4183
 1031SOL    MW4 3892   0.089   3.658   1.891  0.2115 -0.2071 -0.0940
 1032SOL     OW 3893   3.710   3.151   4.802 -0.1254 -0.2641  0.4080
 1032SOL    HW2 3894   3.710   3.215   4.731 -3.2258  0.5394  0.9713
 1032SOL    HW3 3895   3.732   3.203   4.880  0.9337 -0.6771  0.4057
 1032SOL    MW4 3896   3.713   3.167   4.803  0.1751  0.2981 -0.0380
 1033SOL     OW 3897   5.478   2.087   1.151 -0.9639 -0.2440 -0.2712
 1033SOL    HW2 3898   5.458   2.178   1.172  0.4800  0.3792 -1.4701
 1033SOL    HW3 3899   5.573   2.083   1.146 -1.0604 -1.2881 -2.4241
 1033SOL    MW4 3900   5.488   2.098   1.153  0.3740 -0.6261 -0.0696
 1034SOL     OW 3901   0.417   6.358   1.250 -0.1355 -0.0069 -0.3374
 1034SOL    HW2 3902   0.342   6.401   1.210 -1.3904 -2.6266 -1.0143
 1034SOL    HW3 3903   0.382   6.275   1.284  2.2621 -0.8945  0.1840
 1034SOL    MW4 3904   0.402   6.353   1.249  0.2286  0.6090 -0.1995
 1035SOL     OW 3905   5.232   4.959   3.560  0.2145 -0.1433  0.3268
 1035SOL    HW2 3906   5.183   4.962   3.478  1.7375 -1.3566 -0.6785
 1035SOL    HW3 3907   5.264   4.869   3.566  0.4138  0.0019  2.1095
 1035SOL    MW4 3908   5.230   4.948   3.550  0.2401  0.8614  0.3883
 1036SOL     OW 3909   2.690   2.450   5.966 -0.0829 -0.1801  0.5001
 1036SOL    HW2 3910   2.680   2.376   6.025 -1.2881 -2.1016 -1.9292
 1036SOL    HW3 3911   2.769   2.429   5.915 -0.1544  0.4510  0.1230
 1036SOL    MW4 3912   2.699   2.437   5.967  0.3773  0.0470 -0.0995
 1037SOL     OW 3913   2.070   1.238   5.326 -0.5385 -0.1034 -0.0125
 1037SOL    HW2 3914   2.083   1.312   5.385 -0.0624  0.1198 -0.3966
 1037SOL    HW3 3915   2.150   1.186   5.335  0.0618  0.5566 -1.3518
 1037SOL    MW4 3916   2.082   1.241   5.335  0.4919 -0.7331  0.1175
 1038SOL     OW 3917   6.314   3.816   3.963  0.2711 -0.4198  0.3574
 1038SOL    HW2 3918   6.272   3.739   3.926 -0.6475 -0.5736  1.6654
 1038SOL    HW3 3919   6.255   3.888   3.943 -0.6084 -0.6176  2.0966
 1038SOL    MW4 3920   6.301   3.815   3.955 -1.0220  0.0650 -0.2695
 1039SOL     OW 3921   2.930   2.410   0.778 -0.2435  0.0815  0.1192
 1039SOL    HW2 3922   2.917   2.498   0.811  1.9975 -0.2711  2.2093
 1039SOL    HW3 3923   2.981   2.421   0.698 -1.4801  0.7132 -0.6137
 1039SOL    MW4 3924   2.935   2.423   0.772  0.0978  0.7507 -0.2857
 1040SOL     OW 3925   1.849   0.063   5.236  0.0604 -0.1144  0.5399
 1040SOL    HW2 3926   1.789   0.090   5.167  0.1698  2.4320  1.3373
 1040SOL    HW3 3927   1.931   0.109   5.217  0.7242 -0.9584  1.2606
 1040SOL    MW4 3928   1.852   0.073   5.225  0.1600 -0.2955  0.0113
 1041SOL     OW 3929   6.268   6.150   6.224 -0.4678 -0.4492  0.2939
 1041SOL    HW2 3930   6.212   6.078   6.197 -0.9614 -0.1701  0.5657
 1041SOL    HW3 3931   6.208   6.215   6.263  0.1126 -0.4549  1.2367
 1041SOL    MW4 3932   6.253   6.149   6.226  0.3011 -0.1980 -0.0161
 1042SOL     OW 3933   2.339   3.911   3.854 -0.5191  0.3727  0.1137
 1042SOL    HW2 3934   2.250   3.892   3.824 -0.7360  0.7787  0.4941
 1042SOL    HW3 3935   2.375   3.967   3.785 -1.2046  1.7614  0.8316
 1042SOL    MW4 3936   2.332   3.916   3.841  0.4320 -0.1058 -0.1948
 1043SOL     OW 3937   2.543   0.922   2.093  0.2579  0.0493 -0.3028
 1043SOL    HW2 3938   2.584   1.007   2.074  1.2860 -0.6534 -1.2852
 1043SOL    HW3 3939   2.457   0.928   2.051  0.1206  0.7700  0.0477
 1043SOL    MW4 3940   2.537   0.934   2.085 -0.3912  0.0585 -0.1491
 1044SOL     OW 3941   0.398   2.220   2.418  0.3607  0.4661 -1.0964
 1044SOL    HW2 3942   0.453   2.295   2.442  0.9836  0.3007 -1.9512
 1044SOL    HW3 3943   0.454   2.166   2.362  0.4058 -1.3736  0.6094
 1044SOL    MW4 3944   0.412   2.223   2.413  0.1696 -0.2782 -0.6910
 1045SOL     OW 3945   4.251   2.242   5.519 -0.4395  0.8566 -0.1056
 1045SOL    HW2 3946   4.285   2.297   5.448 -1.3679  1.8098  0.1696
 1045SOL    HW3 3947   4.181   2.293   5.558  0.2386  0.4644  1.7013
 1045SOL    MW4 3948   4.247   2.256   5.515 -0.0559 -0.3867 -0.2379
 1046SOL     OW 3949   4.062   3.164   4.231 -0.6536  0.8169 -0.4634
 1046SOL    HW2 3950   4.068   3.187   4.138 -2.9570  0.1739 -0.8466
 1046SOL    HW3 3951   4.063   3.069   4.233  0.9073  0.8213  0.3569
 1046SOL    MW4 3952   4.063   3.155   4.219  0.0403  0.1689  0.5519
 1047SOL     OW 3953   4.198   2.044   3.142  0.0586  1.1849  0.3883
 1047SOL    HW2 3954   4.249   2.124   3.158 -1.4137  2.0811  0.8363
 1047SOL    HW3 3955   4.128   2.047   3.207 -0.2542 -0.2975  0.1574
 1047SOL    MW4 3956   4.196   2.055   3.153  0.5037  0.1645  0.3376
 1048SOL     OW 3957   3.592   0.969   3.413 -0.7626  0.2200  0.6648
 1048SOL    HW2 3958   3.601   0.887   3.460 -1.6766  0.1838  0.7778
 1048SOL    HW3 3959   3.528   0.951   3.344  0.9330  0.1076 -0.9847
 1048SOL    MW4 3960   3.585   0.956   3.410 -0.3688  0.1942 -0.1687
 1049SOL     OW 3961   4.103   2.339   4.474  0.2344 -0.1607  0.0754
 1049SOL    HW2 3962   4.166   2.397   4.430  0.0538 -1.7648 -2.4688
 1049SOL    HW3 3963   4.072   2.280   4.405 -3.1780 -0.2484  1.4742
 1049SOL    MW4 3964   4.107   2.339   4.459 -0.2669 -0.3091 -0.0215
 1050SOL     OW 3965   5.938   4.273   2.226  0.4349  0.1881 -0.0345
 1050SOL    HW2 3966   6.023   4.242   2.195  0.5451 -0.4483  0.8693
 1050SOL    HW3 3967   5.896   4.310   2.148  1.3190  0.0264 -0.6004
 1050SOL    MW4 3968   5.944   4.274   2.212  0.7035 -0.2755 -0.2928
 1051SOL     OW 3969   2.603   2.260   1.175 -0.0017  0.1876 -0.2470
 1051SOL    HW2 3970   2.524   2.246   1.228  0.4365 -1.3216  0.0357
 1051SOL    HW3 3971   2.575   2.323   1.108 -0.6036  2.0598  1.6454
 1051SOL    MW4 3972   2.589   2.267   1.173 -0.1982 -0.5432  0.1958
 1052SOL     OW 3973   2.732   0.819   1.915 -0.2772  0.2741 -0.0237
 1052SOL    HW2 3974   2.669   0.853   1.978 -1.3335  0.7586 -1.2921
 1052SOL    HW3 3975   2.710   0.726   1.906  0.1768  0.0936  0.6400
 1052SOL    MW4 3976   2.721   0.811   1.922 -0.4335 -0.5335  0.6606
 1053SOL     OW 3977   3.855   3.117   6.309 -0.7053  0.1261 -0.0848
 1053SOL    HW2 3978   3.819   3.111   6.220  0.2711  2.2431 -0.7051
 1053SOL    HW3 3979   3.835   3.207   6.336  0.6193  0.0899  1.0977
 1053SOL    MW4 3980   3.847   3.128   6.301  0.5058 -0.2109 -0.0308
 1054SOL     OW 3981   6.415   0.024   0.960  0.4181 -0.0515 -0.0056
 1054SOL    HW2 3982   6.462   0.067   0.888 -0.6931  0.1814 -0.6121
 1054SOL    HW3 3983   6.343   0.083   0.980 -1.0493 -1.5022 -0.7374
 1054SOL    MW4 3984   6.412   0.037   0.953  0.6979  0.4046  0.4861
 1055SOL     OW 3985   4.393   1.590   5.213  0.3966 -0.0479 -0.1467
 1055SOL    HW2 3986   4.429   1.554   5.294  0.0263  1.7386  0.8544
 1055SOL    HW3 3987   4.438   1.542   5.143  0.6493 -1.6941  1.0925
 1055SOL    MW4 3988   4.404   1.579   5.214 -0.8194  0.0338  0.2816
 1056SOL     OW 3989   4.327   1.314   1.983  0.1893 -0.2108  0.3124
 1056SOL    HW2 3990   4.406   1.360   1.954  0.5279 -1.2164 -0.4157
 1056SOL    HW3 3991   4.336   1.309   2.078  0.8965 -0.1189  0.2583
 1056SOL    MW4 3992   4.338   1.319   1.992  0.3464 -0.7695 -0.7376
 1057SOL     OW 3993   5.986   3.882   2.126 -0.7275 -0.4422  0.2159
 1057SOL    HW2 3994   5.973   3.789   2.140 -0.5747 -0.3523  1.0126
 1057SOL    HW3 3995   5.899   3.921   2.137 -0.6386 -0.3927  0.7714
 1057SOL    MW4 3996   5.973   3.875   2.129 -0.2954  0.0583  0.5075
 1058SOL     OW 3997   5.049   3.340   3.641 -0.0023 -0.0137 -0.5417
 1058SOL    HW2 3998   5.053   3.374   3.731 -0.3834  1.0342 -0.9024
 1058SOL    HW3 3999   4.956   3.338   3.621  0.0076 -1.2597 -0.5644
 1058SOL    MW4 4000   5.037   3.344   3.650  0.3462  0.3763 -0.3693
 1059SOL     OW 4001   5.468   5.942   3.619 -0.1520  0.1751  0.0988
 1059SOL    HW2 4002   5.452   5.873   3.554 -0.3472  1.2490 -1.0400
 1059SOL    HW3 4003   5.417   6.017   3.587 -1.5199  0.2931  2.3321
 1059SOL    MW4 4004   5.459   5.943   3.606  0.2841 -0.0194 -0.1978
 1060SOL     OW 4005   4.432   0.496   5.429  0.3214  0.3235 -0.6353
 1060SOL    HW2 4006   4.370   0.458   5.492 -1.0307  0.7805 -1.6227
 1060SOL    HW3 4007   4.472   0.569   5.476 -0.7086  0.6902 -0.2909
 1060SOL    MW4 4008   4.429   0.501   5.444 -0.3503 -0.0655 -0.2084
 1061SOL     OW 4009   0.448   1.946   5.369  0.0800  0.0056 -0.2085
 1061SOL    HW2 4010   0.484   1.857   5.373 -0.4861 -0.2438 -0.4387
 1061SOL    HW3 4011   0.371   1.944   5.426 -0.1886  0.2188 -0.5537
 1061SOL    MW4 4012   0.443   1.934   5.377  0.0655  0.0726  0.6515
 1062SOL     OW 4013   0.379   3.362   2.270 -0.6496  0.0871  0.2272
 1062SOL    HW2 4014   0.332   3.279   2.281 -1.0582  0.2310 -0.3590
 1062SOL    HW3 4015   0.418   3.356   2.183 -0.6177  0.4782  0.2133
 1062SOL    MW4 4016   0.378   3.350   2.260  0.0691 -0.3395  0.0398
 1063SOL     OW 4017   3.830   3.394   6.397  0.3005  0.1241 -0.0313
 1063SOL    HW2 4018   3.766   3.454   6.435 -0.1958 -0.0651 -0.5375
 1063SOL    HW3 4019   3.901   3.390   6.461 -2.0663 -3.0439  2.7794
 1063SOL    MW4 4020   3.831   3.401   6.410 -0.3650 -0.1599  0.6567
 1064SOL     OW 4021   2.021   1.753   4.865 -0.8770  0.1294  0.7736
 1064SOL    HW2 4022   2.111   1.779   4.845 -1.1332  0.7105  0.3301
 1064SOL    HW3 4023   2.001   1.798   4.947 -1.2854  1.2984  0.0585
 1064SOL    MW4 4024   2.030   1.762   4.873 -0.1641 -0.8218 -0.0922
 1065SOL     OW 4025   0.464   4.788   1.711  0.3083  0.1286  0.6253
 1065SOL    HW2 4026   0.507   4.707   1.685  1.1456  1.2157 -1.6667
 1065SOL    HW3 4027   0.376   4.762   1.739 -0.7816 -1.2902 -3.5205
 1065SOL    MW4 4028   0.458   4.774   1.712 -0.4767  0.2905  0.0230
 1066SOL     OW 4029   3.796   1.272   6.208 -0.4306  0.5936 -0.0610
 1066SOL    HW2 4030   3.773   1.192   6.161  0.6507 -0.3267  0.9038
 1066SOL    HW3 4031   3.713   1.319   6.217 -0.9000  0.1367 -1.6135
 1066SOL    MW4 4032   3.782   1.267   6.203  0.3174  0.0744 -0.2249
 1067SOL     OW 4033   5.622   3.336   3.216 -0.0969  0.4721 -0.1412
 1067SOL    HW2 4034   5.705   3.326   3.169 -0.2621  0.5865 -0.4685
 1067SOL    HW3 4035   5.615   3.258   3.270 -0.3956 -0.1804 -1.0903
 1067SOL    MW4 4036   5.632   3.325   3.217  0.0390  0.2577  0.4368
 1068SOL     OW 4037   2.078   5.745   0.208 -0.6060 -0.1540 -0.2285
 1068SOL    HW2 4038   2.076   5.665   0.156 -3.8009  0.2036 -0.8341
 1068SOL    HW3 4039   2.052   5.718   0.296  0.0764 -0.0222  0.0236
 1068SOL    MW4 4040   2.074   5.731   0.213  0.0018 -0.0978 -0.4754
 1069SOL     OW 4041   1.621   2.451   4.984  0.4554  0.0171 -0.2565
 1069SOL    HW2 4042   1.608   2.357   4.999 -3.2309  0.5664  1.1451
 1069SOL    HW3 4043   1.593   2.464   4.893  1.7691 -0.2997 -0.7272
 1069SOL    MW4 4044   1.615   2.440   4.974  0.9128 -0.0515  0.2033
 1070SOL     OW 4045   0.446   1.685   1.127 -1.0649 -0.5852  0.0745
 1070SOL    HW2 4046   0.383   1.737   1.177 -0.9089  0.2634 -0.5916
 1070SOL    HW3 4047   0.517   1.746   1.106  0.5204 -1.7778  1.6974
 1070SOL    MW4 4048   0.447   1.700   1.131 -0.7075  0.2408  0.0248
 1071SOL     OW 4049   5.879   0.759   6.183  0.4542  0.3698  0.3178
 1071SOL    HW2 4050   5.850   0.690   6.244 -1.0270 -0.4954 -1.3021
 1071SOL    HW3 4051   5.804   0.775   6.127  2.0125  0.4920 -1.8689
 1071SOL    MW4 4052   5.865   0.752   6.184 -0.4826  0.6206 -0.3700
 1072SOL     OW 4053   3.184   0.113   4.047 -0.0551  0.2949 -0.2781
 1072SOL    HW2 4054   3.170   0.086   3.956  0.3593 -2.4029  0.3963
 1072SOL    HW3 4055   3.128   0.056   4.099  1.4808  0.1405  1.3178
 1072SOL    MW4 4056   3.175   0.102   4.042  0.2340  0.6548  0.1372
 1073SOL     OW 4057   4.596   3.272   2.162 -0.4532  0.1050  0.1101
 1073SOL    HW2 4058   4.632   3.196   2.117  1.2275  0.7860  0.2084
 1073SOL    HW3 4059   4.591   3.340   2.095  0.2398  0.5529  0.4882
 1073SOL    MW4 4060   4.600   3.271   2.148 -0.0830 -0.1974  0.6072
 1074SOL     OW 4061   0.893   0.610   1.760 -0.0559 -0.0235  0.0109
 1074SOL    HW2 4062   0.953   0.682   1.738  0.3624 -0.2757  0.3155
 1074SOL    HW3 4063   0.867   0.574   1.676 -0.4788  0.6579 -0.1563
 1074SOL    MW4 4064   0.898   0.615   1.746  1.0728 -0.2263  0.1786
 1075SOL     OW 4065   0.426   5.910   3.577  0.3914 -0.0346  0.0151
 1075SOL    HW2 4066   0.449   5.931   3.668 -0.7364  0.2189  0.2546
 1075SOL    HW3 4067   0.454   5.987   3.528  0.0366  0.2850  0.3063
 1075SOL    MW4 4068   0.433   5.923   3.583  0.2132  0.9380 -0.5131
 1076SOL     OW 4069   5.715   1.043   5.820  0.4473  0.7173 -0.3649
 1076SOL    HW2 4070   5.768   1.022   5.743  1.9914  1.2282  0.5177
 1076SOL    HW3 4071   5.625   1.029   5.791  0.9515  1.2958 -2.3942
 1076SOL    MW4 4072   5.710   1.038   5.806 -0.4021 -0.6249  0.4026
 1077SOL     OW 4073   4.503   6.092   1.135  0.4348  0.9240  0.0171
 1077SOL    HW2 4074   4.523   5.998   1.133  0.0954  0.8462 -1.9932
 1077SOL    HW3 4075   4.413   6.097   1.165  0.8497  0.7206  1.3612
 1077SOL    MW4 4076   4.494   6.080   1.139 -0.1718  0.0167 -0.0081
 1078SOL     OW 4077   1.538   2.545   2.020 -0.4706  0.2733 -0.3173
 1078SOL    HW2 4078   1.512   2.604   2.091 -0.7523  0.6610 -0.7318
 1078SOL    HW3 4079   1.460   2.492   2.004 -0.0386 -0.6043  0.4304
 1078SOL    MW4 4080   1.524   2.546   2.027 -0.4596  0.2830  0.3722
 1079SOL     OW 4081   5.297   4.670   4.262  0.0493  0.4145 -0.5931
 1079SOL    HW2 4082   5.270   4.591   4.216 -3.0372  0.1587  1.3711
 1079SOL    HW3 4083   5.376   4.645   4.310 -1.4619 -1.9122  0.8643
 1079SOL    MW4 4084   5.304   4.656   4.262  0.0614  0.1544  0.2588
 1080SOL     OW 4085   1.828   4.649   5.391 -0.4753 -0.3175 -0.2148
 1080SOL    HW2 4086   1.738   4.655   5.361 -1.6370 -1.1559  2.6991
 1080SOL    HW3 4087   1.834   4.562   5.430  1.4492 -0.0890  0.0909
 1080SOL    MW4 4088   1.817   4.638   5.392 -0.1040  0.2441 -0.3974
 1081SOL     OW 4089   4.865   2.178   4.022  0.1025 -0.4447 -0.1056
 1081SOL    HW2 4090   4.801   2.209   3.958 -1.1022 -0.6344  0.9656
 1081SOL    HW3 4091   4.948   2.219   3.996 -0.9309  1.7400 -0.1522
 1081SOL    MW4 4092   4.868   2.187   4.010 -0.2447  0.4160 -0.1066
 1082SOL     OW 4093   4.095   3.050   1.131  0.1990  0.7348 -0.5628
 1082SOL    HW2 4094   4.004   3.026   1.113  0.0718 -2.4194  3.1533
 1082SOL    HW3 4095   4.089   3.115   1.201  0.7295 -1.0214  1.1809
 1082SOL    MW4 4096   4.082   3.056   1.137 -0.1712  0.2392  0.1342
 1083SOL     OW 4097   4.768   4.779   3.848  0.3055 -0.4591 -0.2074
 1083SOL    HW2 4098   4.721   4.704   3.885  0.8616  0.7867  3.4512
 1083SOL    HW3 4099   4.859   4.752   3.848  0.2842 -0.5650 -1.1248
 1083SOL    MW4 4100   4.774   4.766   3.853  0.2541 -0.3129  0.4935
 1084SOL     OW 4101   1.918   2.353   1.779  0.4380  0.1588  0.0057
 1084SOL    HW2 4102   1.951   2.432   1.738 -0.2404 -0.2125 -1.3141
 1084SOL    HW3 4103   1.982   2.332   1.847  2.0412  0.3675 -1.3748
 1084SOL    MW4 4104   1.931   2.361   1.783  0.2263 -0.0655  0.3424
 1085SOL     OW 4105   3.176   0.964   2.052  0.4385 -0.6380  0.1645
 1085SOL    HW2 4106   3.100   0.906   2.062  0.0725 -0.5466 -1.6461
 1085SOL    HW3 4107   3.138   1.045   2.017  1.2825 -0.2991  0.0290
 1085SOL    MW4 4108   3.161   0.967   2.049  0.1871  0.0953  0.3503
 1086SOL     OW 4109   5.005   1.407   5.934  0.0242  0.0629  0.4039
 1086SOL    HW2 4110   4.987   1.456   5.853  0.8513  3.2281  1.9887
 1086SOL    HW3 4111   5.097   1.382   5.927 -0.8447 -3.3514 -1.2877
 1086SOL    MW4 4112   5.014   1.410   5.922  0.2410 -0.0874  0.2476
 1087SOL     OW 4113   5.263   1.397   1.034 -0.1416 -0.3820 -0.0666
 1087SOL    HW2 4114   5.319   1.332   1.078  3.4812  2.0641 -0.6528
 1087SOL    HW3 4115   5.211   1.436   1.105  1.5649 -0.2742  1.1809
 1087SOL    MW4 4116   5.263   1.393   1.049  0.2932  0.0086  0.6070
 1088SOL     OW 4117   0.615   0.656   4.803  0.8673 -0.2790 -0.2213
 1088SOL    HW2 4118   0.677   0.726   4.783 -0.0544  0.0959 -1.9113
 1088SOL    HW3 4119   0.557   0.694   4.869  0.1728  0.7227 -1.3561
 1088SOL    MW4 4120   0.615   0.670   4.809 -0.3184  0.1651 -0.0647
 1089SOL     OW 4121   5.223   1.985   1.390 -0.1685  0.0817  0.6384
 1089SOL    HW2 4122   5.300   1.934   1.413 -0.8715 -1.1550  0.3382
 1089SOL    HW3 4123   5.181   1.935   1.319 -0.4151  1.5294 -0.2893
 1089SOL    MW4 4124   5.227   1.972   1.383 -0.5251 -0.3383  0.0261
 1090SOL     OW 4125   0.312   5.764   5.325 -0.0107  0.2140 -0.2559
 1090SOL    HW2 4126   0.301   5.672   5.351  1.0295 -0.0374 -0.6437
 1090SOL    HW3 4127   0.236   5.808   5.361 -0.9782 -0.9544 -0.7740
 1090SOL    MW4 4128   0.301   5.757   5.333  0.5990 -0.3034 -0.1947
 1091SOL     OW 4129   1.810   1.410   1.688 -0.0276  0.6120  0.3102
 1091SOL    HW2 4130   1.804   1.321   1.654  0.5486  0.8712 -0.5123
 1091SOL    HW3 4131   1.726   1.450   1.666 -1.1267 -0.3299  2.5461
 1091SOL    MW4 4132   1.798   1.404   1.680  0.2378 -0.2496  0.1862
 1092SOL     OW 4133   2.404   1.044   1.713 -0.6325  0.6241 -0.6950
 1092SOL    HW2 4134   2.478   1.087   1.671 -0.7362  1.0044 -0.4855
 1092SOL    HW3 4135   2.327   1.079   1.668 -0.6317 -0.9612 -2.0275
 1092SOL    MW4 4136   2.403   1.054   1.702 -0.2078  0.5588 -0.2407
 1093SOL     OW 4137   3.627   0.470   2.968  0.1176  0.0893 -0.5563
 1093SOL    HW2 4138   3.692   0.451   2.900  1.8172 -0.5785  1.1729
 1093SOL    HW3 4139   3.662   0.547   3.013  0.2031 -0.7882  0.9439
 1093SOL    MW4 4140   3.640   0.478   2.965 -0.2675  0.4854  0.5330
 1094SOL     OW 4141   1.222   2.120   2.117 -0.0085  0.4493 -0.3533
 1094SOL    HW2 4142   1.198   2.112   2.210 -0.0966  0.9951 -0.3267
 1094SOL    HW3 4143   1.257   2.034   2.094  0.5591  0.4887  0.3418
 1094SOL    MW4 4144   1.223   2.108   2.126 -0.1897  0.3611 -0.2181
 1095SOL     OW 4145   2.463   0.466   4.299  0.0829 -0.5358 -0.3218
 1095SOL    HW2 4146   2.409   0.476   4.377  0.7376 -1.0910  0.2157
 1095SOL    HW3 4147   2.532   0.404   4.325  0.6735 -0.2419 -1.1379
 1095SOL    MW4 4148   2.465   0.459   4.313  0.1146  0.2244 -0.3088
 1096SOL     OW 4149   5.937   5.524   2.237  0.0205  0.5134  0.2503
 1096SOL    HW2 4150   6.015   5.519   2.292 -0.3409 -0.4273  0.6965
 1096SOL    HW3 4151   5.870   5.560   2.295  0.1755  1.6175 -0.2187
 1096SOL    MW4 4152   5.939   5.528   2.252  0.0046  0.4056 -0.4050
 1097SOL     OW 4153   6.109   0.046   0.060 -0.3268 -0.0640 -0.2382
 1097SOL    HW2 4154   6.078   0.097   0.135  1.1189 -1.6011  1.4623
 1097SOL    HW3 4155   6.081  -0.043   0.078  2.9386 -1.1066  0.2596
 1097SOL    MW4 4156   6.101   0.041   0.072  0.6043 -0.8550  0.5990
 1098SOL     OW 4157   4.623   2.270   0.806 -0.2712  0.2006 -0.5794
 1098SOL    HW2 4158   4.593   2.241   0.892 -0.4962  0.1704 -0.6681
 1098SOL    HW3 4159   4.617   2.365   0.809  0.4937  0.2510 -0.2782
 1098SOL    MW4 4160   4.618   2.278   0.818  0.0441 -0.6324  0.0333
 1099SOL     OW 4161   3.916   0.902   0.973  0.2572  0.4430  0.0113
 1099SOL    HW2 4162   3.864   0.831   1.011 -0.5794  0.2686 -1.3925
 1099SOL    HW3 4163   3.994   0.906   1.028 -0.2719 -0.7000  0.9007
 1099SOL    MW4 4164   3.919   0.893   0.986  0.5901  0.1380 -0.5596
 1100SOL     OW 4165   0.825   5.951   5.121  0.0488 -0.0156 -0.9864
 1100SOL    HW2 4166   0.840   5.900   5.201 -1.5467 -0.3133 -0.8500
 1100SOL    HW3 4167   0.738   5.924   5.091 -0.5354  2.0708 -1.3300
 1100SOL    MW4 4168   0.815   5.940   5.128 -0.2058 -0.1782  0.0641
 1101SOL     OW 4169   0.876   4.267   6.191  0.0327  0.0124  1.0582
 1101SOL    HW2 4170   0.871   4.173   6.174 -1.3706  0.0281  1.2428
 1101SOL    HW3 4171   0.804   4.304   6.140  0.4292  0.9666  1.1686
 1101SOL    MW4 4172   0.866   4.260   6.182  0.2694  0.2650 -0.1009
 1102SOL     OW 4173   4.583   5.326   5.561  0.1289  0.5609 -0.1054
 1102SOL    HW2 4174   4.644   5.394   5.531  0.8732  0.5221  1.2401
 1102SOL    HW3 4175   4.577   5.265   5.488 -0.2419  1.8539 -1.1964
 1102SOL    MW4 4176   4.590   5.327   5.548 -0.3608  0.0935  0.1696
 1103SOL     OW 4177   1.565   4.805   2.421  0.0546  0.4768  0.1095
 1103SOL    HW2 4178   1.502   4.842   2.482 -0.2555  0.4661 -0.2031
 1103SOL    HW3 4179   1.605   4.733   2.469 -1.0291 -0.2882 -0.1004
 1103SOL    MW4 4180   1.562   4.800   2.435 -1.0787 -0.5652 -0.1282
 1104SOL     OW 4181   1.697   4.625   0.766  0.2730  0.4663 -0.0907
 1104SOL    HW2 4182   1.710   4.692   0.833  0.3347  1.1054 -0.7293
 1104SOL    HW3 4183   1.630   4.567   0.803 -0.1126  1.1337  0.2942
 1104SOL    MW4 4184   1.690   4.626   0.779 -0.2048 -0.7373  0.2930
 1105SOL     OW 4185   5.876   3.652   3.744  0.1349  0.4891  0.0133
 1105SOL    HW2 4186   5.906   3.617   3.659  0.3432 -0.5657  0.5064
 1105SOL    HW3 4187   5.788   3.617   3.754 -0.8372  2.5238 -0.8209
 1105SOL    MW4 4188   5.869   3.643   3.734 -0.0911  0.1083  0.2283
 1106SOL     OW 4189   2.427   1.836   2.640 -0.0756 -0.4821 -0.1846
 1106SOL    HW2 4190   2.436   1.867   2.550  0.1213  1.8150  0.5470
 1106SOL    HW3 4191   2.515   1.805   2.663  0.2090  0.1577 -0.3841
 1106SOL    MW4 4192   2.440   1.836   2.632 -0.0043  0.0898 -0.4604
 1107SOL     OW 4193   1.550   6.298   2.617 -0.1591 -0.0230 -0.0966
 1107SOL    HW2 4194   1.535   6.215   2.573 -0.2725 -0.0982  0.0805
 1107SOL    HW3 4195   1.550   6.276   2.711 -0.7377  0.2619 -0.0255
 1107SOL    MW4 4196   1.548   6.284   2.624  0.1448 -0.8187 -0.1611
 1108SOL     OW 4197   2.119   6.012   2.536 -0.3392 -0.5333 -0.6565
 1108SOL    HW2 4198   2.030   6.047   2.534  0.0033  0.3598 -1.0873
 1108SOL    HW3 4199   2.173   6.086   2.563  0.1268 -1.4270  0.9505
 1108SOL    MW4 4200   2.114   6.027   2.539  1.0961  0.4478 -0.1321
 1109SOL     OW 4201   0.075   5.550   2.266 -0.1942  0.0639 -0.2898
 1109SOL    HW2 4202   0.088   5.455   2.267 -0.5159  0.0204 -0.2777
 1109SOL    HW3 4203  -0.006   5.563   2.218 -0.9833  0.2351  1.0550
 1109SOL    MW4 4204   0.066   5.539   2.260 -0.2012  0.0459  0.2074
 1110SOL     OW 4205   3.862   1.654   1.138 -0.0721  0.1698  0.1682
 1110SOL    HW2 4206   3.822   1.724   1.086 -0.8010  0.1598  0.6887
 1110SOL    HW3 4207   3.794   1.587   1.143  0.8308 -0.8596 -0.8355
 1110SOL    MW4 4208   3.847   1.655   1.132  0.2287 -0.2208  0.0782
 1111SOL     OW 4209   1.655   0.210   0.144 -0.8352 -0.4627 -0.2203
 1111SOL    HW2 4210   1.565   0.239   0.162 -0.2970  0.5976  0.9398
 1111SOL    HW3 4211   1.645   0.138   0.081 -2.4956 -0.4307 -0.0445
 1111SOL    MW4 4212   1.642   0.204   0.138 -0.1635 -0.5091 -0.0551
 1112SOL     OW 4213   1.003   1.429   5.157 -0.7509 -0.0654  0.0539
 1112SOL    HW2 4214   1.064   1.396   5.091 -0.3087  0.7979  0.0193
 1112SOL    HW3 4215   1.033   1.390   5.239  0.4920  1.1329  0.2078
 1112SOL    MW4 4216   1.015   1.420   5.159  0.1797  0.4988  0.1620
 1113SOL     OW 4217   2.876   0.277   4.729  0.1966  0.3527  0.1868
 1113SOL    HW2 4218   2.780   0.280   4.728  0.1678 -0.1592  0.6754
 1113SOL    HW3 4219   2.903   0.364   4.699 -0.3877 -0.7609 -4.4165
 1113SOL    MW4 4220   2.867   0.289   4.725  0.6930 -0.7823 -0.4085
 1114SOL     OW 4221   5.970   1.955   3.588 -0.5030 -0.3431 -0.4414
 1114SOL    HW2 4222   5.906   2.006   3.638 -0.3709 -0.6242  0.0293
 1114SOL    HW3 4223   6.004   1.892   3.652  0.5731  0.1044 -0.5583
 1114SOL    MW4 4224   5.966   1.953   3.603  0.5645 -0.3635 -0.9189
 1115SOL     OW 4225   0.746   4.468   4.632 -0.1556 -0.9103 -0.7668
 1115SOL    HW2 4226   0.760   4.532   4.702 -2.6234 -1.6454  0.5433
 1115SOL    HW3 4227   0.697   4.515   4.565 -0.4475 -0.9827 -0.6043
 1115SOL    MW4 4228   0.741   4.483   4.633 -0.0523  0.0272  1.2532
 1116SOL     OW 4229   5.530   1.860   0.724 -0.6197  0.4136  0.0032
 1116SOL    HW2 4230   5.468   1.933   0.728  0.2529  1.1305  0.6529
 1116SOL    HW3 4231   5.531   1.825   0.813 -0.5676 -0.0152 -0.1621
 1116SOL    MW4 4232   5.522   1.865   0.736 -0.0262  0.2082  0.2363
 1117SOL     OW 4233   3.972   0.444   4.677  0.2973 -0.5911  0.5589
 1117SOL    HW2 4234   3.973   0.527   4.724  2.2310 -1.2809  1.8049
 1117SOL    HW3 4235   3.894   0.399   4.710 -1.6950  1.2461 -1.2509
 1117SOL    MW4 4236   3.962   0.449   4.687 -0.4009  0.6045 -0.1486
 1118SOL     OW 4237   5.337   3.039   2.048  0.4638 -0.2442 -0.3607
 1118SOL    HW2 4238   5.372   2.988   2.121  2.3145  0.2218 -0.8540
 1118SOL    HW3 4239   5.265   3.089   2.086  0.8717 -0.6001  0.9520
 1118SOL    MW4 4240   5.332   3.039   2.063 -0.0726 -0.1527  0.1826
 1119SOL     OW 4241   3.553   6.047   0.492  0.9286 -0.4073  0.1232
 1119SOL    HW2 4242   3.637   6.060   0.536  1.5307 -0.3969 -0.9943
 1119SOL    HW3 4243   3.504   6.127   0.511  2.1237  0.6999 -1.2547
 1119SOL    MW4 4244   3.558   6.059   0.501  0.5084  0.1714 -0.4374
 1120SOL     OW 4245   2.049   4.353   1.602  0.8311  0.7112 -0.1791
 1120SOL    HW2 4246   2.123   4.368   1.543  0.0785  0.4565 -1.2170
 1120SOL    HW3 4247   2.075   4.277   1.653  1.8058  1.3750  0.3478
 1120SOL    MW4 4248   2.062   4.345   1.601  0.4004  0.1258  0.4595
 1121SOL     OW 4249   3.326   1.507   1.114 -0.4090 -0.2691  0.2084
 1121SOL    HW2 4250   3.360   1.443   1.177 -0.1259 -0.6060 -0.2789
 1121SOL    HW3 4251   3.378   1.493   1.035 -1.2918 -0.3985 -0.3664
 1121SOL    MW4 4252   3.337   1.497   1.112  0.0722  0.1143 -0.1166
 1122SOL     OW 4253   6.087   0.777   0.381  0.5437  0.3395 -0.3361
 1122SOL    HW2 4254   6.007   0.772   0.330 -1.7113  1.5210  2.7258
 1122SOL    HW3 4255   6.125   0.689   0.375 -2.6691 -1.2753  0.4816
 1122SOL    MW4 4256   6.081   0.765   0.374  0.0118 -0.4030  0.7141
 1123SOL     OW 4257   3.221   2.975   1.862  0.0727  0.2715  0.1215
 1123SOL    HW2 4258   3.197   3.011   1.947  1.0919  0.7398  0.2227
 1123SOL    HW3 4259   3.230   2.881   1.877 -0.4931  0.2513  0.3498
 1123SOL    MW4 4260   3.219   2.967   1.875  0.0562 -1.3942 -0.3223
 1124SOL     OW 4261   0.771   0.011   3.275  0.5704  0.7387  0.6573
 1124SOL    HW2 4262   0.801   0.095   3.242 -0.6718  0.9088 -0.1247
 1124SOL    HW3 4263   0.678   0.008   3.252  1.0604 -1.8803 -1.6736
 1124SOL    MW4 4264   0.762   0.021   3.267 -0.8243 -0.1744 -0.3989
 1125SOL     OW 4265   6.312   1.717   4.608 -0.3168 -0.2826 -0.1449
 1125SOL    HW2 4266   6.326   1.623   4.597 -2.2151 -0.6783  0.3581
 1125SOL    HW3 4267   6.220   1.724   4.634 -0.8348  1.8847 -2.2811
 1125SOL    MW4 4268   6.302   1.706   4.610  0.0803  0.1642  0.0337
 1126SOL     OW 4269   4.406   6.241   0.898  0.1690  0.1333 -0.3257
 1126SOL    HW2 4270   4.429   6.206   0.984  0.9171 -0.6071 -0.8052
 1126SOL    HW3 4271   4.491   6.265   0.859  0.0336 -1.1856 -1.5276
 1126SOL    MW4 4272   4.420   6.239   0.904  0.4234  0.1398 -0.2343
 1127SOL     OW 4273   0.303   0.906   5.091 -0.0143  0.2900 -0.4832
 1127SOL    HW2 4274   0.282   0.985   5.042 -0.8483  1.6348  1.8791
 1127SOL    HW3 4275   0.233   0.898   5.155  2.2148  0.1028  2.1354
 1127SOL    MW4 4276   0.291   0.915   5.093  0.1874  0.0184  0.4050
 1128SOL     OW 4277   0.366   2.387   5.041 -0.1368 -0.1861  0.2480
 1128SOL    HW2 4278   0.334   2.371   5.130 -0.7420  0.5635  0.1776
 1128SOL    HW3 4279   0.408   2.304   5.016  1.3526  0.0442  1.7599
 1128SOL    MW4 4280   0.367   2.374   5.050  0.2965  0.2195  0.0327
 1129SOL     OW 4281   1.071   0.059   0.316 -0.2385 -0.4117  0.5071
 1129SOL    HW2 4282   1.108  -0.023   0.285  0.5075 -0.5408  1.6932
 1129SOL    HW3 4283   1.002   0.079   0.253  0.1420 -1.4942 -0.2837
 1129SOL    MW4 4284   1.066   0.051   0.304  0.2250 -0.1633  0.1756
 1130SOL     OW 4285   3.512   1.339   2.805 -0.3936  0.3435 -0.5043
 1130SOL    HW2 4286   3.565   1.261   2.821 -0.6736  0.1479 -0.5282
 1130SOL    HW3 4287   3.569   1.397   2.754 -0.2866  0.0384 -0.7325
 1130SOL    MW4 4288   3.526   1.336   2.801 -0.6928 -0.0128  0.6019
 1131SOL     OW 4289   5.368   2.613   3.480  0.3271 -0.1617 -0.2903
 1131SOL    HW2 4290   5.376   2.603   3.574  1.9377 -1.0859 -0.4936
 1131SOL    HW3 4291   5.455   2.591   3.446 -0.0645  0.6811 -1.9504
 1131SOL    MW4 4292   5.381   2.609   3.488 -0.6779 -0.7424 -0.3173
 1132SOL     OW 4293   0.142   2.456   0.143  0.3882  0.1371  0.1402
 1132SOL    HW2 4294   0.095   2.538   0.132 -1.2236 -0.6381  0.9262
 1132SOL    HW3 4295   0.111   2.400   0.072  2.7729  0.6995 -1.4704
 1132SOL    MW4 4296   0.132   2.459   0.132 -0.2328 -0.4169  0.1032
 1133SOL     OW 4297   0.406   5.245   3.617  0.1019 -0.4832 -0.3802
 1133SOL    HW2 4298   0.360   5.269   3.698  0.2876 -1.2893 -0.0318
 1133SOL    HW3 4299   0.481   5.194   3.646  0.0869 -0.9163 -1.0715
 1133SOL    MW4 4300   0.410   5.242   3.631  0.5103  0.0326 -0.4092
 1134SOL     OW 4301   3.666   6.391   2.661  0.1297 -0.0839  0.2499
 1134SOL    HW2 4302   3.752   6.392   2.619  1.1227 -1.2956  2.1307
 1134SOL    HW3 4303   3.659   6.477   2.703  0.2784  0.1379 -0.1741
 1134SOL    MW4 4304   3.677   6.403   2.661 -0.0931  0.0669  0.2350
 1135SOL     OW 4305   1.471   0.792   3.744  0.3232 -0.7272  0.2011
 1135SOL    HW2 4306   1.510   0.736   3.812 -0.4923 -1.8258 -0.2056
 1135SOL    HW3 4307   1.477   0.740   3.664  2.2747  0.9739 -0.8601
 1135SOL    MW4 4308   1.477   0.778   3.743 -0.9005 -0.1406  0.6141
 1136SOL     OW 4309   3.479   3.456   4.505  0.3436 -0.4337 -0.1234
 1136SOL    HW2 4310   3.517   3.411   4.429  2.0485  1.8128 -0.7096
 1136SOL    HW3 4311   3.541   3.440   4.576  0.7728  0.6182 -0.2417
 1136SOL    MW4 4312   3.492   3.448   4.505 -0.3629  0.5968  0.0558
 1137SOL     OW 4313   2.688   6.196   5.974 -0.1199 -0.0056  0.3112
 1137SOL    HW2 4314   2.761   6.235   6.021  0.3773 -0.2077 -0.2854
 1137SOL    HW3 4315   2.688   6.104   6.001  0.7214 -0.3305 -0.7495
 1137SOL    MW4 4316   2.697   6.189   5.984  0.3469 -0.5873  0.0921
 1138SOL     OW 4317   1.534   2.600   2.837  0.1131 -0.3047  0.0584
 1138SOL    HW2 4318   1.598   2.589   2.766  1.3432 -1.2441  1.2375
 1138SOL    HW3 4319   1.461   2.542   2.812  0.6344 -0.8139 -0.3315
 1138SOL    MW4 4320   1.533   2.591   2.824  0.2012 -0.1925  0.4444
 1139SOL     OW 4321   1.196   0.127   3.229 -0.2700 -0.5167  0.0823
 1139SOL    HW2 4322   1.209   0.220   3.248  2.9192 -1.0780  1.2164
 1139SOL    HW3 4323   1.129   0.100   3.293 -1.8645  1.0768 -0.7990
 1139SOL    MW4 4324   1.189   0.136   3.240 -0.2007  0.2303 -0.2569
 1140SOL     OW 4325   3.769   3.307   3.359  0.3919 -0.2059 -0.2308
 1140SOL    HW2 4326   3.717   3.356   3.295  1.7414  0.9238 -0.4992
 1140SOL    HW3 4327   3.734   3.334   3.444  2.0233  2.4673 -0.2779
 1140SOL    MW4 4328   3.757   3.317   3.361 -0.1207 -0.6811 -0.4097
 1141SOL     OW 4329   3.017   0.380   5.421  0.2670  0.1608  0.4816
 1141SOL    HW2 4330   3.072   0.423   5.486  1.4931 -0.8392  0.1527
 1141SOL    HW3 4331   2.933   0.365   5.466  0.5108  0.9978  1.2518
 1141SOL    MW4 4332   3.013   0.384   5.435  0.5584  0.1235  0.8489
 1142SOL     OW 4333   3.598   0.729   3.534 -0.3551 -0.2504 -0.1726
 1142SOL    HW2 4334   3.545   0.687   3.602 -0.6086  1.0107  0.4414
 1142SOL    HW3 4335   3.686   0.694   3.547 -0.2192  0.5899  1.3750
 1142SOL    MW4 4336   3.603   0.718   3.545 -0.3207 -0.0118 -0.5842
 1143SOL     OW 4337   4.590   5.170   5.324  0.2698  0.2699 -0.2722
 1143SOL    HW2 4338   4.561   5.079   5.331 -0.1349  0.5251  3.8615
 1143SOL    HW3 4339   4.516   5.216   5.284 -1.3632 -0.5921  1.6072
 1143SOL    MW4 4340   4.576   5.164   5.319  0.0685 -0.2621  0.0234
 1144SOL     OW 4341   4.467   5.036   0.171 -0.0974 -0.2255 -0.1086
 1144SOL    HW2 4342   4.531   5.103   0.149  0.3586 -1.2095 -1.9718
 1144SOL    HW3 4343   4.482   5.018   0.263 -0.1905  2.1535  0.4458
 1144SOL    MW4 4344   4.477   5.043   0.180 -0.1458  0.2475  0.0368
 1145SOL     OW 4345   6.389   3.479   3.268 -0.0208 -0.2227 -0.5550
 1145SOL    HW2 4346   6.407   3.394   3.228  0.2774 -0.8140  0.8122
 1145SOL    HW3 4347   6.318   3.515   3.215 -2.3961 -2.7053  0.7024
 1145SOL    MW4 4348   6.382   3.473   3.255 -0.0120  0.2657 -0.1634
 1146SOL     OW 4349   4.688   3.704   2.746 -0.1931 -0.0729 -0.2709
 1146SOL    HW2 4350   4.775   3.739   2.728 -0.9135  0.6270 -2.9156
 1146SOL    HW3 4351   4.639   3.779   2.779  0.0757 -0.3759  0.8550
 1146SOL    MW4 4352   4.693   3.719   2.748  0.0595  0.1458 -0.0629
 1147SOL     OW 4353   0.819   3.761   1.358 -0.7795  1.0573 -0.0324
 1147SOL    HW2 4354   0.903   3.805   1.371 -0.4183  1.2522 -2.5362
 1147SOL    HW3 4355   0.763   3.794   1.428  0.6917  2.3435  0.5894
 1147SOL    MW4 4356   0.823   3.771   1.369 -0.1364  0.9665 -0.4029
 1148SOL     OW 4357   0.982   2.503   6.301  0.3920 -0.0856 -0.2542
 1148SOL    HW2 4358   1.044   2.486   6.230 -0.1717 -0.2323 -0.7185
 1148SOL    HW3 4359   1.036   2.505   6.380  0.9901 -0.1848 -0.6538
 1148SOL    MW4 4360   0.997   2.501   6.302 -0.1427  0.1804  0.5015
 1149SOL     OW 4361   1.033   5.884   0.144 -0.0061 -0.5885  0.7975
 1149SOL    HW2 4362   1.094   5.940   0.095 -0.5255 -1.9858 -1.5810
 1149SOL    HW3 4363   1.077   5.870   0.228  1.7683  0.4794  0.1114
 1149SOL    MW4 4364   1.047   5.890   0.149  0.1059 -0.2841 -0.4508
 1150SOL     OW 4365   5.661   0.860   4.622 -0.8228 -0.0652  0.4798
 1150SOL    HW2 4366   5.612   0.777   4.617 -0.4465 -0.3473  1.2676
 1150SOL    HW3 4367   5.738   0.839   4.674  0.8401  0.0537 -1.8084
 1150SOL    MW4 4368   5.664   0.846   4.628  0.1111  0.1619  0.3824
 1151SOL     OW 4369   0.041   1.772   4.837 -0.5708  0.3502 -0.2762
 1151SOL    HW2 4370   0.000   1.706   4.892  0.3065  0.4205  0.4903
 1151SOL    HW3 4371   0.009   1.754   4.748 -1.4353 -0.2127  0.1418
 1151SOL    MW4 4372   0.032   1.761   4.832  0.2504  0.4959  0.0304
 1152SOL     OW 4373   4.755   6.155   0.627  0.0809 -0.2185 -0.0223
 1152SOL    HW2 4374   4.718   6.124   0.710 -1.1238  0.3687 -0.3170
 1152SOL    HW3 4375   4.809   6.230   0.651 -1.8665  1.2272  0.0577
 1152SOL    MW4 4376   4.757   6.161   0.641 -0.3007 -0.5074  0.0044
 1153SOL     OW 4377   3.137   1.461   3.264 -0.3575 -0.8115 -0.1626
 1153SOL    HW2 4378   3.161   1.548   3.232 -1.7931 -0.2012  0.3483
 1153SOL    HW3 4379   3.197   1.444   3.336  0.5484 -0.6684 -0.8677
 1153SOL    MW4 4380   3.148   1.470   3.269 -0.2761  0.5487 -0.6323
 1154SOL     OW 4381   5.380   3.417   1.373 -0.2271  0.0219 -0.2731
 1154SOL    HW2 4382   5.320   3.361   1.421 -2.4000  1.1605 -1.5251
 1154SOL    HW3 4383   5.401   3.367   1.294 -0.0197 -0.1108 -0.1357
 1154SOL    MW4 4384   5.375   3.403   1.369 -1.0443  0.1391  0.0371
 1155SOL     OW 4385   0.502   2.795   5.541 -0.2346  0.1513 -0.3279
 1155SOL    HW2 4386   0.596   2.800   5.523 -0.2654 -0.9384 -0.8368
 1155SOL    HW3 4387   0.467   2.737   5.474 -1.1972  0.1513  0.1553
 1155SOL    MW4 4388   0.510   2.788   5.530 -0.0806 -0.2876 -0.5042
 1156SOL     OW 4389   2.151   1.877   5.501 -0.9810 -0.0284 -0.1931
 1156SOL    HW2 4390   2.154   1.854   5.593 -0.2559  1.1896  0.1105
 1156SOL    HW3 4391   2.120   1.968   5.500 -0.6546  0.0841 -1.1195
 1156SOL    MW4 4392   2.147   1.886   5.513  0.0663  0.0557  0.5076
 1157SOL     OW 4393   5.749   6.306   1.535  0.4348 -0.1189 -0.4154
 1157SOL    HW2 4394   5.808   6.233   1.556  1.6883  0.7801 -0.6898
 1157SOL    HW3 4395   5.718   6.286   1.446 -0.3923 -1.0375  0.0596
 1157SOL    MW4 4396   5.753   6.293   1.526  0.0758 -0.0025  0.1321
 1158SOL     OW 4397   1.660   6.122   6.271 -0.0426 -0.0165  0.2428
 1158SOL    HW2 4398   1.610   6.049   6.236 -1.1632  0.9482 -0.2027
 1158SOL    HW3 4399   1.740   6.123   6.219  1.0559 -2.2693  1.6924
 1158SOL    MW4 4400   1.664   6.112   6.260  0.0751 -0.2348 -0.4327
 1159SOL     OW 4401   3.877   5.371   5.126  0.1047 -0.3283 -0.1836
 1159SOL    HW2 4402   3.893   5.419   5.207  1.4220  0.4556 -0.8702
 1159SOL    HW3 4403   3.825   5.430   5.073  0.3846 -0.2973 -0.4250
 1159SOL    MW4 4404   3.873   5.385   5.130  0.0278 -0.4290 -0.3848
 1160SOL     OW 4405   4.967   3.084   1.508 -0.2760 -0.1847  0.5767
 1160SOL    HW2 4406   4.960   2.990   1.489 -0.1916 -0.6920  2.7839
 1160SOL    HW3 4407   4.938   3.127   1.427 -2.0260 -2.1146  0.0823
 1160SOL    MW4 4408   4.962   3.077   1.495 -0.2571 -0.0440  0.0055
 1161SOL     OW 4409   3.592   5.017   3.472  0.4035 -0.1835  0.2675
 1161SOL    HW2 4410   3.609   5.086   3.408 -0.1909 -0.6458 -0.4021
 1161SOL    HW3 4411   3.511   5.045   3.516 -0.1875 -0.7527 -0.4389
 1161SOL    MW4 4412   3.583   5.030   3.470 -0.3694  0.1525 -0.3781
 1162SOL     OW 4413   1.316   4.753   5.276 -0.6063 -0.1454 -0.1379
 1162SOL    HW2 4414   1.333   4.805   5.198 -0.1682 -2.1883 -1.5015
 1162SOL    HW3 4415   1.229   4.715   5.260  0.5628 -2.6781 -0.9728
 1162SOL    MW4 4416   1.307   4.755   5.263 -0.8459  0.0374 -0.1135
 1163SOL     OW 4417   1.764   2.867   1.649  0.8735 -0.1341 -0.6090
 1163SOL    HW2 4418   1.714   2.829   1.577  1.3906  0.7082 -1.4302
 1163SOL    HW3 4419   1.734   2.820   1.726  0.0848 -0.8431 -1.3290
 1163SOL    MW4 4420   1.754   2.856   1.649 -0.2383 -0.5380 -0.1632
 1164SOL     OW 4421   0.994   0.759   1.445 -0.4812  0.5067 -0.0278
 1164SOL    HW2 4422   1.027   0.782   1.532 -0.8793 -1.4022  0.6745
 1164SOL    HW3 4423   0.983   0.843   1.401  0.7373  1.4619  1.3851
 1164SOL    MW4 4424   0.997   0.773   1.451  0.0294  0.2398  0.1916
 1165SOL     OW 4425   6.284   4.873   1.147  0.1385  0.3860 -0.2665
 1165SOL    HW2 4426   6.289   4.783   1.179  0.5254  0.1725 -0.8914
 1165SOL    HW3 4427   6.191   4.888   1.131  0.0571  0.1441 -0.0242
 1165SOL    MW4 4428   6.272   4.863   1.149 -0.1637 -0.4301  0.1072
 1166SOL     OW 4429   1.474   5.990   1.320  0.1928  0.2982 -0.5007
 1166SOL    HW2 4430   1.393   6.039   1.304 -0.0917 -0.3802 -1.2003
 1166SOL    HW3 4431   1.444   5.903   1.349  0.6202 -0.4961 -2.3205
 1166SOL    MW4 4432   1.459   5.985   1.322  0.0094 -0.0769 -0.2177
 1167SOL     OW 4433   3.398   2.155   4.148  0.0410  0.0903  0.4386
 1167SOL    HW2 4434   3.449   2.094   4.202  1.2355 -0.1902 -0.9495
 1167SOL    HW3 4435   3.362   2.101   4.078 -0.4153  0.6566  0.2319
 1167SOL    MW4 4436   3.400   2.140   4.146  0.2273 -0.2778  0.1402
 1168SOL     OW 4437   5.286   0.073   4.090  0.1650  0.2293  0.7048
 1168SOL    HW2 4438   5.311   0.060   3.998 -0.6107  0.3735  0.4684
 1168SOL    HW3 4439   5.305  -0.010   4.132 -0.2501 -0.1107  0.2312
 1168SOL    MW4 4440   5.292   0.061   4.083  0.4960  0.2213 -0.0239
 1169SOL     OW 4441   0.664   2.781   3.064  0.5437  0.3415 -0.7178
 1169SOL    HW2 4442   0.675   2.749   2.974 -1.2481 -0.0381 -0.8370
 1169SOL    HW3 4443   0.754   2.795   3.095  1.2257 -0.1223 -2.3388
 1169SOL    MW4 4444   0.678   2.779   3.056  0.1312 -0.1584  0.3817
 1170SOL     OW 4445   5.930   2.604   0.141  0.1297 -0.0782 -0.1033
 1170SOL    HW2 4446   5.932   2.612   0.236  0.4813  0.5651 -0.1620
 1170SOL    HW3 4447   5.839   2.583   0.121  0.0725 -0.3095  0.3774
 1170SOL    MW4 4448   5.918   2.602   0.151 -0.0117  0.3273  0.2194
 1171SOL     OW 4449   4.252   1.837   1.053  0.2544 -0.0143  0.1841
 1171SOL    HW2 4450   4.308   1.819   0.977 -1.3492  0.2438 -1.1276
 1171SOL    HW3 4451   4.180   1.888   1.017 -0.8063 -0.2980  1.8106
 1171SOL    MW4 4452   4.250   1.841   1.038  0.2771 -0.5047 -0.3959
 1172SOL     OW 4453   0.645   2.329   3.241  0.0492  0.3614  0.3068
 1172SOL    HW2 4454   0.706   2.257   3.251  2.4706  2.3767  0.9246
 1172SOL    HW3 4455   0.603   2.337   3.327  0.3296  0.1729  0.4625
 1172SOL    MW4 4456   0.647   2.321   3.254  0.1893 -0.0659 -0.0762
 1173SOL     OW 4457   6.046   3.545   1.790  0.2189  0.4980  0.4209
 1173SOL    HW2 4458   6.094   3.611   1.839  0.1785 -0.0083  1.1724
 1173SOL    HW3 4459   5.955   3.555   1.819 -0.0410  1.0618 -0.5503
 1173SOL    MW4 4460   6.040   3.555   1.800  0.5861 -0.5666  0.0521
 1174SOL     OW 4461   2.254   5.496   0.494 -0.3003  0.0423 -0.4290
 1174SOL    HW2 4462   2.341   5.520   0.525 -0.4177  0.4413 -0.4022
 1174SOL    HW3 4463   2.232   5.416   0.542 -0.9601  1.2679  1.4020
 1174SOL    MW4 4464   2.262   5.489   0.505 -0.0272  0.0429  0.1600
 1175SOL     OW 4465   1.875   4.965   1.769 -0.3826 -0.2064 -0.8236
 1175SOL    HW2 4466   1.949   4.981   1.711 -0.0191 -0.9382 -0.5695
 1175SOL    HW3 4467   1.840   4.880   1.741 -0.4477 -0.3768 -0.2331
 1175SOL    MW4 4468   1.880   4.956   1.758 -0.1009  0.6011 -0.3706
 1176SOL     OW 4469   4.817   3.731   3.672  0.7868  0.0466 -0.5561
 1176SOL    HW2 4470   4.868   3.812   3.681  1.7540 -0.5650 -0.4778
 1176SOL    HW3 4471   4.798   3.705   3.762  0.0119  0.4557 -0.5871
 1176SOL    MW4 4472   4.821   3.738   3.685 -0.5224 -0.0450  0.3002
 1177SOL     OW 4473   4.961   1.407   1.993  0.5763 -0.1513 -0.1035
 1177SOL    HW2 4474   4.940   1.481   1.936  0.9252 -0.6801 -0.9385
 1177SOL    HW3 4475   4.952   1.330   1.937  3.6415 -0.5053 -0.2767
 1177SOL    MW4 4476   4.957   1.406   1.978 -0.0536  0.3178  0.2573
 1178SOL     OW 4477   1.823   4.287   1.778  0.2988  0.0988  0.4193
 1178SOL    HW2 4478   1.824   4.352   1.848  3.5058  0.6547 -0.0198
 1178SOL    HW3 4479   1.896   4.310   1.722 -1.1870 -1.2818 -2.3079
 1178SOL    MW4 4480   1.833   4.298   1.780  0.0179 -0.1212  0.1049
 1179SOL     OW 4481   2.562   3.217   2.785 -0.7061  0.1045  0.1197
 1179SOL    HW2 4482   2.487   3.261   2.825 -0.5976 -0.8127  1.3667
 1179SOL    HW3 4483   2.555   3.126   2.814  1.0644  0.0680  0.5212
 1179SOL    MW4 4484   2.551   3.211   2.794 -0.1964 -0.4969 -0.4150
 1180SOL     OW 4485   3.468   1.039   2.132  0.3163 -0.2041 -0.6683
 1180SOL    HW2 4486   3.545   1.010   2.082  0.9295  0.5007 -0.1645
 1180SOL    HW3 4487   3.394   1.024   2.073  0.8443 -0.8724 -1.1741
 1180SOL    MW4 4488   3.469   1.033   2.117 -0.4783 -0.3317 -0.4936
 1181SOL     OW 4489   1.915   2.642   2.867  0.4252 -0.0401 -0.4524
 1181SOL    HW2 4490   1.960   2.563   2.899 -0.2283 -0.1112  0.3153
 1181SOL    HW3 4491   1.976   2.680   2.804  1.2331 -0.5495  0.0055
 1181SOL    MW4 4492   1.929   2.637   2.863 -0.2978 -0.2033 -0.4156
 1182SOL     OW 4493   5.735   5.230   3.175 -0.3453  0.1112 -0.1399
 1182SOL    HW2 4494   5.764   5.317   3.148  1.0362 -0.2760  0.0214
 1182SOL    HW3 4495   5.799   5.170   3.137 -1.1682 -0.8305 -0.0868
 1182SOL    MW4 4496   5.748   5.233   3.167 -0.0391 -0.5604 -0.2791
 1183SOL     OW 4497   3.728   4.398   2.502 -0.1702 -0.4991  0.3100
 1183SOL    HW2 4498   3.743   4.432   2.414  0.3611  1.9329  1.2571
 1183SOL    HW3 4499   3.633   4.383   2.507 -0.2529 -0.2506 -0.5259
 1183SOL    MW4 4500   3.717   4.400   2.491 -0.6177  0.1285  0.3110
 1184SOL     OW 4501   5.806   2.220   3.365  0.2325 -0.6496  0.3059
 1184SOL    HW2 4502   5.799   2.240   3.272  0.5307 -1.2896  0.1373
 1184SOL    HW3 4503   5.900   2.227   3.384  0.0858  0.2899  0.7545
 1184SOL    MW4 4504   5.818   2.223   3.355  0.2700  0.0560 -0.1814
 1185SOL     OW 4505   0.812   0.293   6.222 -0.0128  0.2479 -0.3090
 1185SOL    HW2 4506   0.732   0.278   6.272  0.6696 -0.0639  0.7336
 1185SOL    HW3 4507   0.783   0.302   6.132 -1.0812 -1.3244 -0.1605
 1185SOL    MW4 4508   0.798   0.293   6.217  0.2687  0.0805  0.0085
 1186SOL     OW 4509   2.649   4.556   1.539  0.4087 -0.1852  0.3956
 1186SOL    HW2 4510   2.660   4.616   1.613 -0.0900  0.1834  0.1738
 1186SOL    HW3 4511   2.620   4.474   1.579  0.8570 -0.2065  0.6781
 1186SOL    MW4 4512   2.647   4.553   1.554  0.2735  0.5655  0.5312
 1187SOL     OW 4513   3.629   4.309   0.521  1.2619  0.0186 -0.1619
 1187SOL    HW2 4514   3.551   4.299   0.466 -1.0052 -0.1037  2.8389
 1187SOL    HW3 4515   3.682   4.375   0.475 -1.1808  1.0353 -1.7198
 1187SOL    MW4 4516   3.626   4.316   0.508 -0.1040 -0.3185  0.4167
 1188SOL     OW 4517   3.464   4.353   1.692  0.2123  0.0732  0.2004
 1188SOL    HW2 4518   3.531   4.420   1.704  1.0467 -0.5591 -0.6859
 1188SOL    HW3 4519   3.496   4.301   1.618 -0.3933 -1.3114  0.8773
 1188SOL    MW4 4520   3.477   4.355   1.684  0.0276 -0.0517  0.6300
 1189SOL     OW 4521   1.704   4.778   1.024  0.2986 -0.4419  0.0033
 1189SOL    HW2 4522   1.767   4.846   1.047  2.1779 -2.0041 -0.2163
 1189SOL    HW3 4523   1.734   4.700   1.071 -2.7293 -0.8223  1.5815
 1189SOL    MW4 4524   1.716   4.777   1.033  0.1602  0.3870 -0.1051
 1190SOL     OW 4525   4.441   5.126   3.694  0.0297 -0.2039 -0.7604
 1190SOL    HW2 4526   4.374   5.180   3.651 -0.4099  0.4018  0.6285
 1190SOL    HW3 4527   4.523   5.171   3.677 -0.3034  0.7975  0.1645
 1190SOL    MW4 4528   4.443   5.139   3.686 -0.4129  0.1371 -0.6901
 1191SOL     OW 4529   0.010   0.665   0.551  0.1372 -0.0513 -0.4405
 1191SOL    HW2 4530  -0.057   0.720   0.592  0.3265  1.1425 -1.6568
 1191SOL    HW3 4531   0.092   0.699   0.585  0.2201 -0.0451 -0.6463
 1191SOL    MW4 4532   0.012   0.677   0.561 -0.1214 -0.3170  0.5333
 1192SOL     OW 4533   1.241   5.115   0.021  0.0354 -0.0342  0.0117
 1192SOL    HW2 4534   1.207   5.038   0.068  1.4566 -0.9559 -0.4003
 1192SOL    HW3 4535   1.308   5.150   0.079  0.4305 -0.0102 -0.4555
 1192SOL    MW4 4536   1.246   5.109   0.035 -0.6051 -0.3605  0.0863
 1193SOL     OW 4537   3.677   5.952   2.923  0.1696 -0.0322 -0.4760
 1193SOL    HW2 4538   3.584   5.941   2.906  0.1658  0.4524 -0.7751
 1193SOL    HW3 4539   3.695   6.044   2.903  1.3760 -0.8114 -3.7046
 1193SOL    MW4 4540   3.667   5.963   2.918 -0.3731  0.3800  0.1210
 1194SOL     OW 4541   5.335   4.573   1.111 -0.0162  0.3727  0.0198
 1194SOL    HW2 4542   5.251   4.595   1.069  1.4378  1.9137 -2.3054
 1194SOL    HW3 4543   5.354   4.484   1.082 -0.5191  0.2690 -0.0037
 1194SOL    MW4 4544   5.326   4.564   1.102  0.3801 -0.0245 -0.3338
 1195SOL     OW 4545   5.612   1.392   4.372  0.1386  0.3895  0.6611
 1195SOL    HW2 4546   5.524   1.388   4.337 -0.1030 -2.4726  1.3744
 1195SOL    HW3 4547   5.607   1.458   4.442 -1.8444 -0.7028  1.6282
 1195SOL    MW4 4548   5.600   1.400   4.377 -0.4672 -0.0273  0.3281
 1196SOL     OW 4549   1.539   1.171   4.908  0.1526  0.2397  0.1859
 1196SOL    HW2 4550   1.502   1.177   4.996 -0.9830  0.2243 -0.2762
 1196SOL    HW3 4551   1.612   1.234   4.908 -1.6232  2.4091  0.2816
 1196SOL    MW4 4552   1.544   1.180   4.919 -0.3917 -0.2308 -0.3214
 1197SOL     OW 4553   5.446   3.716   0.569 -0.4511  0.8635 -0.7594
 1197SOL    HW2 4554   5.387   3.756   0.505 -0.1361  0.5475 -1.2480
 1197SOL    HW3 4555   5.513   3.673   0.517 -0.1385  0.6791 -0.2144
 1197SOL    MW4 4556   5.447   3.716   0.554  0.3631  0.7595 -0.6890
 1198SOL     OW 4557   1.987   5.365   2.460  0.7651 -0.6614 -0.1706
 1198SOL    HW2 4558   2.041   5.427   2.509 -0.6834  0.2480  0.3541
 1198SOL    HW3 4559   1.924   5.332   2.525 -1.0786  0.4218 -1.3273
 1198SOL    MW4 4560   1.986   5.369   2.475  0.4405  0.4983 -0.4594
 1199SOL     OW 4561   0.247   3.229   6.215 -0.3132  0.0438  0.3268
 1199SOL    HW2 4562   0.247   3.177   6.135  0.1253 -0.8981  0.9105
 1199SOL    HW3 4563   0.155   3.248   6.231 -0.3547  0.8017 -0.7373
 1199SOL    MW4 4564   0.235   3.225   6.207  0.0156  0.2119 -0.7809
 1200SOL     OW 4565   0.601   2.465   5.376 -0.6507  0.2550  0.0739
 1200SOL    HW2 4566   0.580   2.381   5.336  0.2104  0.6052 -1.1961
 1200SOL    HW3 4567   0.523   2.519   5.362  0.1053  0.8195 -2.5207
 1200SOL    MW4 4568   0.588   2.461   5.369  0.3786 -0.0923 -0.2062
 1201SOL     OW 4569   6.291   2.351   5.598  0.1587  0.1122  0.6173
 1201SOL    HW2 4570   6.255   2.263   5.591 -1.2704  0.8094 -2.5876
 1201SOL    HW3 4571   6.383   2.343   5.573 -0.3426 -0.3157 -1.2037
 1201SOL    MW4 4572   6.298   2.339   5.594  0.7306 -0.1501  0.0720
 1202SOL     OW 4573   1.552   4.131   4.515  0.1459 -0.0417  0.5731
 1202SOL    HW2 4574   1.506   4.211   4.542 -0.1554  0.4442 -1.1823
 1202SOL    HW3 4575   1.606   4.159   4.441  0.5541 -1.3338  0.3552
 1202SOL    MW4 4576   1.553   4.145   4.509  0.5499  0.1311  0.2921
 1203SOL     OW 4577   2.951   3.802   6.277  0.4977  0.2665  0.2526
 1203SOL    HW2 4578   2.976   3.787   6.186  0.0867  0.0173  0.1780
 1203SOL    HW3 4579   2.870   3.752   6.288  0.8867 -0.2327  0.9391
 1203SOL    MW4 4580   2.944   3.793   6.267  0.2533  0.7277 -0.5328
 1204SOL     OW 4581   1.040   0.154   1.300 -0.1005 -0.7809 -0.2253
 1204SOL    HW2 4582   0.981   0.196   1.238 -0.4177 -1.4353 -0.3783
 1204SOL    HW3 4583   1.003   0.066   1.313 -1.8690  0.3030  3.3103
 1204SOL    MW4 4584   1.028   0.148   1.293 -0.0871  0.4206 -0.2273
 1205SOL     OW 4585   0.575   5.018   4.596  0.2104  0.1625  0.1317
 1205SOL    HW2 4586   0.568   4.935   4.549  0.5512  0.2072  0.0055
 1205SOL    HW3 4587   0.515   5.077   4.549 -0.8676 -0.2999  0.8663
 1205SOL    MW4 4588   0.566   5.015   4.584  0.1889 -0.2611  0.6923
 1206SOL     OW 4589   2.405   0.606   1.954 -0.0525  0.1415  0.0340
 1206SOL    HW2 4590   2.450   0.522   1.947 -1.6005 -0.9325  1.9093
 1206SOL    HW3 4591   2.420   0.649   1.870  1.5204 -1.6127 -0.6480
 1206SOL    MW4 4592   2.413   0.601   1.942  0.0728  0.0509 -0.4157
 1207SOL     OW 4593   1.236   5.863   6.177  0.1659 -0.5941 -0.1705
 1207SOL    HW2 4594   1.174   5.924   6.138 -0.6730 -1.4103 -0.1687
 1207SOL    HW3 4595   1.234   5.787   6.119 -1.4887 -2.0413  1.6610
 1207SOL    MW4 4596   1.228   5.861   6.164  0.1682  0.3497  0.4556
 1208SOL     OW 4597   5.768   1.610   2.501 -0.4181 -0.0057 -0.1937
 1208SOL    HW2 4598   5.717   1.689   2.521  0.6479  1.0411 -1.3636
 1208SOL    HW3 4599   5.703   1.543   2.482 -1.4983  1.8497 -3.8601
 1208SOL    MW4 4600   5.753   1.612   2.501 -0.2692  0.0618 -0.3914
 1209SOL     OW 4601   2.721   2.086   3.080 -0.6434 -0.3052  0.0049
 1209SOL    HW2 4602   2.743   2.035   3.158 -0.9717  0.3423  0.5333
 1209SOL    HW3 4603   2.719   2.022   3.009  1.0427 -0.6903  0.2669
 1209SOL    MW4 4604   2.724   2.071   3.081  0.2042 -0.2579  1.0445
 1210SOL     OW 4605   1.240   0.936   3.743 -0.1488  0.8846  0.0772
 1210SOL    HW2 4606   1.319   0.883   3.748 -1.6210 -1.5392 -0.5193
 1210SOL    HW3 4607   1.207   0.923   3.654 -0.8599  2.4408  0.0687
 1210SOL    MW4 4608   1.246   0.928   3.732 -0.0196 -0.5966  0.0238
 1211SOL     OW 4609   5.930   3.799   1.551 -0.7717  0.0561  0.2864
 1211SOL    HW2 4610   5.921   3.711   1.514  1.4817 -0.6524  1.2558
 1211SOL    HW3 4611   6.020   3.825   1.529 -1.9002  2.9607 -1.6256
 1211SOL    MW4 4612   5.941   3.791   1.543 -1.0802  0.0854  0.2117
 1212SOL     OW 4613   3.087   1.370   6.123 -0.3691  0.3664 -0.4056
 1212SOL    HW2 4614   3.044   1.284   6.121 -1.3508  0.7969  0.8935
 1212SOL    HW3 4615   3.180   1.351   6.122 -0.5642 -0.6638 -1.3593
 1212SOL    MW4 4616   3.093   1.356   6.122 -0.3491 -0.1039  0.1113
 1213SOL     OW 4617   4.799   2.841   4.547  0.1860 -0.2085  0.2834
 1213SOL    HW2 4618   4.873   2.815   4.601 -1.5487 -2.4064  1.8104
 1213SOL    HW3 4619   4.811   2.935   4.532  3.9481 -0.7181 -0.7678
 1213SOL    MW4 4620   4.810   2.850   4.552  0.0251 -0.3692  0.2517
 1214SOL     OW 4621   6.173   4.444   0.299  0.6152  0.2503  0.3311
 1214SOL    HW2 4622   6.178   4.439   0.203 -1.0104  0.8015  0.1811
 1214SOL    HW3 4623   6.241   4.506   0.324  0.4108  0.8609 -0.5731
 1214SOL    MW4 4624   6.183   4.451   0.289  0.0564 -0.1980 -0.1160
 1215SOL     OW 4625   1.614   6.134   1.531 -0.3724 -0.4810  0.0276
 1215SOL    HW2 4626   1.701   6.122   1.493 -1.2942  1.3533 -3.0186
 1215SOL    HW3 4627   1.555   6.084   1.475 -1.4552 -0.4791  1.1158
 1215SOL    MW4 4628   1.618   6.126   1.519 -0.0817 -0.6559 -0.3512
 1216SOL     OW 4629   0.303   0.791   0.144  0.1174  0.9076 -0.0522
 1216SOL    HW2 4630   0.355   0.712   0.156  0.2456  0.9305 -0.4355
 1216SOL    HW3 4631   0.249   0.773   0.067  0.7492  1.4998 -0.6504
 1216SOL    MW4 4632   0.303   0.778   0.136 -0.6386  0.5721 -0.5669
 1217SOL     OW 4633   5.762   0.202   2.732  0.2643 -0.5878  0.6164
 1217SOL    HW2 4634   5.682   0.252   2.745  0.1875 -0.1426 -1.2708
 1217SOL    HW3 4635   5.833   0.263   2.753  0.1988  0.7015 -2.4738
 1217SOL    MW4 4636   5.761   0.217   2.737  0.2987  0.1198 -0.1751
 1218SOL     OW 4637   0.479   1.426   3.826  0.1149 -0.2557  0.4588
 1218SOL    HW2 4638   0.385   1.409   3.827  0.3373 -1.5290  0.9736
 1218SOL    HW3 4639   0.509   1.393   3.742  0.0195  0.7077  0.0337
 1218SOL    MW4 4640   0.471   1.420   3.815 -0.2049 -0.3148  0.0100
 1219SOL     OW 4641   3.696   1.103   0.330 -0.5422  0.1157 -0.1038
 1219SOL    HW2 4642   3.635   1.051   0.278 -0.9915  3.4140 -3.2590
 1219SOL    HW3 4643   3.645   1.131   0.406 -1.6446 -0.5485 -0.5738
 1219SOL    MW4 4644   3.681   1.100   0.333 -0.0940 -0.0515  0.2190
 1220SOL     OW 4645   1.438   5.818   5.563 -0.7068 -0.0580 -0.3973
 1220SOL    HW2 4646   1.534   5.828   5.562 -0.8002  0.9488  0.0957
 1220SOL    HW3 4647   1.409   5.858   5.481 -0.8401  1.2634  0.2697
 1220SOL    MW4 4648   1.447   5.824   5.552  0.2739  0.0892  0.4477
 1221SOL     OW 4649   4.074   1.106   0.865 -0.3735 -0.1722  0.1297
 1221SOL    HW2 4650   4.119   1.144   0.939 -0.8500 -1.1050  0.9274
 1221SOL    HW3 4651   4.015   1.041   0.903 -2.5797  1.1569 -0.8422
 1221SOL    MW4 4652   4.072   1.102   0.880 -0.3289 -0.3401  0.2246
 1222SOL     OW 4653   2.530   5.649   5.197  0.3209  0.2256 -0.3717
 1222SOL    HW2 4654   2.460   5.621   5.139  0.9215 -0.3165 -0.8496
 1222SOL    HW3 4655   2.583   5.571   5.211  1.8744  1.0171 -1.5204
 1222SOL    MW4 4656   2.528   5.635   5.191 -0.0061 -0.2862  0.0357
 1223SOL     OW 4657   3.536   5.926   3.458 -0.3248  0.1770 -0.3752
 1223SOL    HW2 4658   3.596   5.999   3.477 -0.0911 -0.3508  1.1135
 1223SOL    HW3 4659   3.490   5.952   3.378  0.4325  1.5178 -0.4077
 1223SOL    MW4 4660   3.538   5.939   3.450  0.1421 -0.1363 -0.1459
 1224SOL     OW 4661   6.108   1.085   5.816 -0.8672  0.6712 -0.1951
 1224SOL    HW2 4662   6.111   1.091   5.911  1.1565  1.5822 -0.2690
 1224SOL    HW3 4663   6.083   0.994   5.798  0.3076  0.0324  1.2279
 1224SOL    MW4 4664   6.105   1.074   5.826  0.1508  0.1179  0.3306
 1225SOL     OW 4665   0.742   1.601   0.459  0.2094 -0.3252 -0.1272
 1225SOL    HW2 4666   0.703   1.560   0.536 -0.1011 -1.3542 -0.8157
 1225SOL    HW3 4667   0.803   1.666   0.495  0.3334 -1.0271  0.9819
 1225SOL    MW4 4668   0.745   1.604   0.474 -0.5551  0.4012  0.2892
 1226SOL     OW 4669   3.665   3.559   5.011 -0.0259  0.2585  0.0341
 1226SOL    HW2 4670   3.691   3.473   5.042  0.2602 -0.0328 -0.9760
 1226SOL    HW3 4671   3.746   3.598   4.977 -0.5986 -0.0661 -1.7833
 1226SOL    MW4 4672   3.679   3.553   5.011 -0.2059 -0.6495  0.3440
 1227SOL     OW 4673   3.623   0.183   2.827 -0.1670  0.2060 -0.1984
 1227SOL    HW2 4674   3.712   0.176   2.862  0.1810  1.0995 -0.8616
 1227SOL    HW3 4675   3.622   0.267   2.781 -1.4232  0.3085 -0.0246
 1227SOL    MW4 4676   3.635   0.193   2.826 -0.2227  0.0449 -0.5719
 1228SOL     OW 4677   1.114   5.253   1.107 -0.3756  0.0919  0.1156
 1228SOL    HW2 4678   1.116   5.170   1.059 -2.4020 -0.1366  0.3371
 1228SOL    HW3 4679   1.146   5.230   1.195  0.4011 -0.1321 -0.2120
 1228SOL    MW4 4680   1.119   5.239   1.112  0.0527 -0.4004  0.0201
 1229SOL     OW 4681   6.298   4.488   0.925  0.2154 -0.3004  0.4037
 1229SOL    HW2 4682   6.281   4.441   1.006 -0.0562  0.0396  0.5435
 1229SOL    HW3 4683   6.224   4.547   0.915 -1.2853 -2.3662 -1.6076
 1229SOL    MW4 4684   6.286   4.490   0.934  0.0558 -0.2420  0.3558
 1230SOL     OW 4685   0.708   3.469   2.130  0.3773 -0.0312 -0.1746
 1230SOL    HW2 4686   0.637   3.446   2.069 -1.3987  0.2635  1.6746
 1230SOL    HW3 4687   0.736   3.556   2.101 -0.5881  0.2021 -0.4537
 1230SOL    MW4 4688   0.702   3.477   2.118  0.8219  0.3339  0.2436
 1231SOL     OW 4689   5.103   4.292   6.397 -0.2167 -0.2926 -0.0391
 1231SOL    HW2 4690   5.073   4.326   6.312  0.0886 -0.4959 -0.2291
 1231SOL    HW3 4691   5.115   4.198   6.383  0.5725 -0.2047  0.0145
 1231SOL    MW4 4692   5.101   4.284   6.384  0.1439 -0.3268 -0.0624
 1232SOL     OW 4693   0.711   3.449   3.622 -0.2699  0.4201 -0.7977
 1232SOL    HW2 4694   0.714   3.355   3.605  1.3083  0.6375 -1.8261
 1232SOL    HW3 4695   0.677   3.456   3.712 -1.7406 -1.0403 -1.1934
 1232SOL    MW4 4696   0.707   3.438   3.632  0.1235  0.0387 -0.2861
 1233SOL     OW 4697   0.164   4.908   0.680  0.0620  0.0186  0.0683
 1233SOL    HW2 4698   0.076   4.902   0.717  0.0783 -0.0172  0.1012
 1233SOL    HW3 4699   0.150   4.909   0.585  0.1187 -1.6321  0.0271
 1233SOL    MW4 4700   0.150   4.908   0.673 -0.3406  0.4402  0.0090
 1234SOL     OW 4701   2.818   3.555   3.051 -0.1028 -0.4394 -0.1665
 1234SOL    HW2 4702   2.812   3.499   2.974  1.9375 -1.7322  0.5419
 1234SOL    HW3 4703   2.799   3.497   3.125  0.3388  0.2062  0.4707
 1234SOL    MW4 4704   2.815   3.540   3.051 -0.8939  0.2942 -0.0534
 1235SOL     OW 4705   5.567   5.557   1.459  0.5861 -0.3766 -0.1663
 1235SOL    HW2 4706   5.646   5.579   1.409  0.7839 -0.6128  0.0379
 1235SOL    HW3 4707   5.577   5.464   1.480  0.7614 -0.1532  0.7628
 1235SOL    MW4 4708   5.579   5.548   1.455 -0.3521  0.1624  0.0984
 1236SOL     OW 4709   1.487   6.036   0.713 -0.3608  0.2199  0.3430
 1236SOL    HW2 4710   1.534   5.992   0.642  1.4064  2.7621 -0.1867
 1236SOL    HW3 4711   1.552   6.047   0.782 -1.0265  1.1173  0.8455
 1236SOL    MW4 4712   1.502   6.032   0.713  0.4647  0.3432  0.1358
 1237SOL     OW 4713   2.795   3.395   2.797 -0.7460 -0.0343 -0.2870
 1237SOL    HW2 4714   2.867   3.343   2.760 -0.5957 -0.0306 -0.0072
 1237SOL    HW3 4715   2.722   3.333   2.801 -0.5356 -0.2692  0.1508
 1237SOL    MW4 4716   2.795   3.380   2.793  0.0751 -0.0210  0.7858
 1238SOL     OW 4717   5.279   0.557   4.407 -0.0795  0.2925  0.5716
 1238SOL    HW2 4718   5.247   0.570   4.318  2.0511  0.1912 -0.2733
 1238SOL    HW3 4719   5.311   0.467   4.408 -2.2996 -0.5644  2.2340
 1238SOL    MW4 4720   5.279   0.547   4.395 -0.0714  0.5032 -0.6600
 1239SOL     OW 4721   1.471   2.227   0.869 -0.1530  0.0098 -0.3824
 1239SOL    HW2 4722   1.475   2.278   0.950 -0.7047  0.8031 -0.8389
 1239SOL    HW3 4723   1.405   2.159   0.886  0.4276 -0.4275  0.1550
 1239SOL    MW4 4724   1.463   2.225   0.882 -0.5814 -0.1740 -0.6162
 1240SOL     OW 4725   2.432   5.072   1.105 -0.2312  0.1530 -0.1517
 1240SOL    HW2 4726   2.352   5.104   1.063 -0.0863  0.7094 -0.0035
 1240SOL    HW3 4727   2.463   5.146   1.157  0.6053  0.0677 -0.5289
 1240SOL    MW4 4728   2.425   5.086   1.106 -0.0502 -0.1094  0.8184
 1241SOL     OW 4729   5.816   1.399   1.975 -0.1681 -0.5743  0.4064
 1241SOL    HW2 4730   5.882   1.334   1.999 -0.2630 -1.9109 -2.4873
 1241SOL    HW3 4731   5.864   1.466   1.927 -0.5697 -0.2809  0.4065
 1241SOL    MW4 4732   5.831   1.399   1.972  0.2406 -0.2285 -0.4376
 1242SOL     OW 4733   5.757   2.072   1.111 -0.5824 -0.2785 -0.5506
 1242SOL    HW2 4734   5.753   1.977   1.097  1.8651 -0.3519 -1.3285
 1242SOL    HW3 4735   5.804   2.082   1.193 -0.7980  0.2702 -0.4884
 1242SOL    MW4 4736   5.763   2.061   1.120  0.1281  0.2009  0.0812
 1243SOL     OW 4737   5.808   0.518   1.552  0.0477 -0.3229 -0.1173
 1243SOL    HW2 4738   5.862   0.588   1.590  1.3045 -0.9457 -0.6852
 1243SOL    HW3 4739   5.806   0.450   1.620  1.5569 -1.0637 -0.7512
 1243SOL    MW4 4740   5.815   0.518   1.566 -0.4887 -0.0889  0.0603
 1244SOL     OW 4741   0.652   4.571   1.969  0.3687  0.3990  0.9443
 1244SOL    HW2 4742   0.563   4.605   1.978 -0.0273  0.2595 -1.7510
 1244SOL    HW3 4743   0.699   4.641   1.924  1.2786 -0.0692  1.1634
 1244SOL    MW4 4744   0.646   4.585   1.964 -0.0477  0.1793 -0.2775
 1245SOL     OW 4745   2.330   2.818   0.723 -0.3191  0.1040 -0.2855
 1245SOL    HW2 4746   2.369   2.751   0.665  0.4066 -0.4876  0.8533
 1245SOL    HW3 4747   2.342   2.783   0.811 -3.2530 -0.0091  0.1899
 1245SOL    MW4 4748   2.337   2.804   0.727 -0.5962  0.0849  0.0774
 1246SOL     OW 4749   1.585   4.176   5.843 -0.0676 -0.2374  0.4353
 1246SOL    HW2 4750   1.629   4.240   5.786 -1.2272  1.0739  0.9459
 1246SOL    HW3 4751   1.649   4.157   5.911  0.6753 -0.4387 -0.3027
 1246SOL    MW4 4752   1.599   4.182   5.845 -0.7746  0.0291  0.6312
 1247SOL     OW 4753   2.029   5.628   2.015  0.7851  0.0035 -0.4283
 1247SOL    HW2 4754   2.071   5.542   2.021  1.0678  0.1652 -0.0112
 1247SOL    HW3 4755   2.100   5.688   1.993  0.7304  0.2411  0.0215
 1247SOL    MW4 4756   2.044   5.624   2.013  0.3621 -0.1921  0.1970
 1248SOL     OW 4757   4.173   5.237   0.027  0.5979 -0.8716  0.0753
 1248SOL    HW2 4758   4.147   5.161   0.078 -0.9957 -0.0801  0.4988
 1248SOL    HW3 4759   4.160   5.210  -0.064 -0.6652 -0.8884  0.2429
 1248SOL    MW4 4760   4.168   5.223   0.021  0.6491  0.0882 -0.1461
 1249SOL     OW 4761   2.838   3.828   2.479  0.0750 -0.4690 -0.0923
 1249SOL    HW2 4762   2.890   3.882   2.538  0.2831 -1.0819  0.2902
 1249SOL    HW3 4763   2.888   3.827   2.397 -0.7534  1.2998 -0.6780
 1249SOL    MW4 4764   2.851   3.835   2.476  0.1316  0.1770  0.2878
 1250SOL     OW 4765   2.817   4.423   5.761  0.1738  0.0757 -0.1933
 1250SOL    HW2 4766   2.778   4.508   5.741 -1.8239 -0.8023 -0.2498
 1250SOL    HW3 4767   2.826   4.422   5.856 -0.2583  0.1672 -0.1509
 1250SOL    MW4 4768   2.813   4.434   5.771 -0.1485 -0.4905  0.3531
 1251SOL     OW 4769   4.680   0.284   0.170 -0.5390 -0.4504  0.0829
 1251SOL    HW2 4770   4.639   0.345   0.109  1.3829  0.0673 -0.7511
 1251SOL    HW3 4771   4.632   0.297   0.252 -1.4741  0.7140 -0.6053
 1251SOL    MW4 4772   4.668   0.294   0.173  0.0254 -0.2044  0.3854
 1252SOL     OW 4773   4.387   2.245   0.112 -0.1839 -0.1169  0.8365
 1252SOL    HW2 4774   4.331   2.245   0.189  0.4171  0.9309  1.2929
 1252SOL    HW3 4775   4.442   2.323   0.122  2.9353 -2.2167  1.5600
 1252SOL    MW4 4776   4.387   2.255   0.123 -0.5738  0.1732 -0.0586
 1253SOL     OW 4777   3.947   1.893   3.989  0.2006 -0.4381 -0.0919
 1253SOL    HW2 4778   4.025   1.845   3.960  0.2233 -0.5780  0.2034
 1253SOL    HW3 4779   3.892   1.826   4.029 -1.0476 -0.7924 -2.1990
 1253SOL    MW4 4780   3.950   1.878   3.990 -0.5432 -0.0268 -0.1594
 1254SOL     OW 4781   3.336   3.454   2.795 -0.8655  0.1528  0.7379
 1254SOL    HW2 4782   3.274   3.458   2.868  0.3911  0.6322  1.8274
 1254SOL    HW3 4783   3.350   3.360   2.782 -0.5863  0.0619  1.5961
 1254SOL    MW4 4784   3.330   3.442   2.803  0.3558 -0.2399  0.2393
 1255SOL     OW 4785   3.546   2.960   3.287  0.4722 -0.1538 -0.2557
 1255SOL    HW2 4786   3.576   2.979   3.376  1.0911 -2.1433  0.0044
 1255SOL    HW3 4787   3.565   2.867   3.274 -3.4064 -1.0281 -0.9268
 1255SOL    MW4 4788   3.552   2.950   3.297  0.5607  0.1690 -0.3737
 1256SOL     OW 4789   1.633   5.717   0.483 -0.3851  0.2288  0.1236
 1256SOL    HW2 4790   1.633   5.808   0.455  0.6276  0.3001  0.2961
 1256SOL    HW3 4791   1.663   5.720   0.574  2.9546 -0.4805 -0.8100
 1256SOL    MW4 4792   1.637   5.729   0.491  0.3014 -0.6714 -0.4059
 1257SOL     OW 4793   3.486   1.382   1.328  0.1913  0.4450 -0.2068
 1257SOL    HW2 4794   3.487   1.302   1.380 -0.1282  0.8763  0.4928
 1257SOL    HW3 4795   3.480   1.452   1.394  1.0766  1.0708 -0.7737
 1257SOL    MW4 4796   3.485   1.381   1.344  0.4609 -0.7749  0.2944
 1258SOL     OW 4797   1.307   2.239   4.910 -0.5370  0.2536 -0.1509
 1258SOL    HW2 4798   1.262   2.287   4.979 -2.9019 -1.6632 -0.2231
 1258SOL    HW3 4799   1.238   2.190   4.866  1.5240 -2.2052 -0.8858
 1258SOL    MW4 4800   1.292   2.239   4.913  0.0708  0.2527  0.5316
 1259SOL     OW 4801   5.691   5.587   1.960 -0.3149  0.1287  0.1570
 1259SOL    HW2 4802   5.715   5.617   1.872 -0.2240 -0.5649 -0.0593
 1259SOL    HW3 4803   5.721   5.658   2.018 -0.0682  0.4373 -0.3388
 1259SOL    MW4 4804   5.698   5.600   1.956  0.0245 -0.0053  0.5875
 1260SOL     OW 4805   0.840   1.133   0.968  0.3217 -0.1230  0.1010
 1260SOL    HW2 4806   0.864   1.041   0.957  0.5544  0.2052 -3.8816
 1260SOL    HW3 4807   0.923   1.181   0.958 -0.3031  0.5863 -2.4288
 1260SOL    MW4 4808   0.854   1.128   0.965 -0.1542 -0.1523 -0.2755
 1261SOL     OW 4809   3.087   3.088   0.409 -0.6889  0.4889  0.2722
 1261SOL    HW2 4810   3.027   3.090   0.483  0.2635  2.7454  1.0734
 1261SOL    HW3 4811   3.031   3.096   0.332 -1.6350 -1.1450  0.7519
 1261SOL    MW4 4812   3.072   3.090   0.408 -0.6022  0.4149 -0.3111
 1262SOL     OW 4813   0.381   4.753   5.555  0.0711  0.3895  0.2739
 1262SOL    HW2 4814   0.466   4.789   5.581  1.0394 -0.8058 -1.1102
 1262SOL    HW3 4815   0.365   4.683   5.618  1.2527 -0.9021 -0.7993
 1262SOL    MW4 4816   0.390   4.749   5.567  0.3199 -0.5284  0.0373
 1263SOL     OW 4817   5.838   0.374   3.747 -0.0570  0.6448  0.4011
 1263SOL    HW2 4818   5.821   0.332   3.662 -0.5731  0.0742  0.7789
 1263SOL    HW3 4819   5.820   0.306   3.811 -2.5607  1.8587  1.1333
 1263SOL    MW4 4820   5.833   0.359   3.744  0.0619  0.3295 -0.1832
 1264SOL     OW 4821   5.959   5.047   3.134  0.3542 -0.9239 -0.4629
 1264SOL    HW2 4822   6.033   5.080   3.084 -0.4942 -1.2820 -2.0378
 1264SOL    HW3 4823   5.907   4.998   3.070 -1.3478 -0.4989  0.5309
 1264SOL    MW4 4824   5.962   5.045   3.119 -0.3687  0.4280  0.0394
 1265SOL     OW 4825   2.690   4.344   1.765 -0.1980 -0.5661 -0.1529
 1265SOL    HW2 4826   2.758   4.371   1.828 -2.0671 -1.3933  2.4161
 1265SOL    HW3 4827   2.610   4.338   1.818 -2.1323 -0.4484 -2.8693
 1265SOL    MW4 4828   2.689   4.347   1.781  0.3434 -0.1982  0.1686
 1266SOL     OW 4829   1.827   4.723   1.610  0.3708 -0.1846 -0.6400
 1266SOL    HW2 4830   1.888   4.677   1.668  0.6018  0.2410 -0.5364
 1266SOL    HW3 4831   1.741   4.684   1.629  0.1313  1.1046  1.2791
 1266SOL    MW4 4832   1.824   4.712   1.620 -0.1885  0.0712  0.4667
 1267SOL     OW 4833   2.098   1.503   5.405 -0.7989  0.5566  0.4522
 1267SOL    HW2 4834   2.169   1.522   5.466  0.4757  1.4122 -1.2148
 1267SOL    HW3 4835   2.024   1.553   5.438 -0.2661  0.6885  1.5102
 1267SOL    MW4 4836   2.098   1.512   5.417  0.1413  0.1209 -0.0795
 1268SOL     OW 4837   3.002   4.000   5.677  0.1065 -0.5661  0.1799
 1268SOL    HW2 4838   3.094   4.012   5.654 -0.4445  2.0124 -1.0784
 1268SOL    HW3 4839   2.984   3.908   5.658  2.4719 -1.2206  0.8090
 1268SOL    MW4 4840   3.011   3.989   5.672 -0.1493 -0.0447  0.6123
 1269SOL     OW 4841   5.146   0.965   2.168 -0.6439 -0.0631 -0.1260
 1269SOL    HW2 4842   5.149   0.929   2.256  1.5200 -1.9103 -0.8418
 1269SOL    HW3 4843   5.226   1.017   2.160 -0.2920 -0.7390 -1.2704
 1269SOL    MW4 4844   5.157   0.967   2.178 -0.8602 -0.1466 -0.1569
 1270SOL     OW 4845   2.555   5.829   5.585 -0.6362  0.9834 -0.3033
 1270SOL    HW2 4846   2.635   5.848   5.634 -1.0983  0.0299  0.8591
 1270SOL    HW3 4847   2.492   5.895   5.615 -0.8147  0.6129  0.1571
 1270SOL    MW4 4848   2.557   5.840   5.595  0.0926  0.1459 -0.2507
 1271SOL     OW 4849   2.225   5.553   4.146  0.0292  0.4410 -0.3656
 1271SOL    HW2 4850   2.281   5.612   4.096  0.2926  0.0725 -0.5039
 1271SOL    HW3 4851   2.254   5.563   4.237 -0.5067  1.1741 -0.2689
 1271SOL    MW4 4852   2.236   5.562   4.152 -0.2534 -0.6465  0.6123
 1272SOL     OW 4853   1.680   2.619   0.847 -0.5533 -0.1779  0.1362
 1272SOL    HW2 4854   1.739   2.673   0.794  0.4322 -1.2260  0.1402
 1272SOL    HW3 4855   1.599   2.615   0.796  0.0079 -0.2511 -0.7611
 1272SOL    MW4 4856   1.677   2.626   0.833  0.0083 -0.3445 -0.2816
 1273SOL     OW 4857   1.533   6.032   2.487 -0.3551  0.4892  0.1974
 1273SOL    HW2 4858   1.475   5.997   2.555  1.7394  0.1867  1.9317
 1273SOL    HW3 4859   1.542   5.960   2.424  1.2129 -0.9990  1.9827
 1273SOL    MW4 4860   1.527   6.018   2.488 -0.0519 -0.0644 -0.5460
 1274SOL     OW 4861   0.370   5.409   0.903  0.0111  0.6504  0.2387
 1274SOL    HW2 4862   0.373   5.484   0.845  0.9909  0.7113  0.3589
 1274SOL    HW3 4863   0.353   5.334   0.846  1.1852  0.6806 -0.1702
 1274SOL    MW4 4864   0.368   5.409   0.888  0.0122  0.6140 -0.4352
 1275SOL     OW 4865   1.980   3.168   6.236  0.0580  0.4989  0.2021
 1275SOL    HW2 4866   1.935   3.149   6.319 -1.7355 -0.2357 -0.8881
 1275SOL    HW3 4867   1.949   3.255   6.211  0.9199  0.9011  0.4694
 1275SOL    MW4 4868   1.970   3.177   6.244  0.0345 -0.0556  0.3947
 1276SOL     OW 4869   0.058   0.727   5.893  0.6074 -0.2535  0.0943
 1276SOL    HW2 4870   0.042   0.787   5.965  0.5709 -0.8310  0.5699
 1276SOL    HW3 4871   0.036   0.640   5.927 -3.4472 -0.2190 -1.7934
 1276SOL    MW4 4872   0.053   0.723   5.907  0.7579  0.3164  0.7162
 1277SOL     OW 4873   2.499   4.350   5.021 -0.4026  0.2471 -0.5118
 1277SOL    HW2 4874   2.530   4.260   5.015 -0.3419  0.2022  0.3759
 1277SOL    HW3 4875   2.404   4.343   5.012 -0.3036  0.2406 -1.7710
 1277SOL    MW4 4876   2.491   4.338   5.019 -0.0488  0.3098 -0.3670
 1278SOL     OW 4877   2.991   5.168   3.953 -0.0914  0.5332 -0.2300
 1278SOL    HW2 4878   3.041   5.238   3.910  0.4915 -1.3098 -2.8154
 1278SOL    HW3 4879   2.912   5.160   3.900  0.4775 -1.5968 -0.8374
 1278SOL    MW4 4880   2.988   5.177   3.940 -0.4461 -0.3601  0.2901
 1279SOL     OW 4881   4.753   0.717   5.344 -0.0613 -0.9469 -0.1478
 1279SOL    HW2 4882   4.670   0.739   5.386  0.4992  2.4401 -0.4902
 1279SOL    HW3 4883   4.728   0.677   5.261 -1.3665 -0.4226 -0.0362
 1279SOL    MW4 4884   4.739   0.715   5.339  0.2360 -0.3822 -0.0110
 1280SOL     OW 4885   0.038   2.733   0.095  0.1339 -0.6446  0.2310
 1280SOL    HW2 4886  -0.052   2.731   0.129 -0.4736  0.0630 -1.2636
 1280SOL    HW3 4887   0.086   2.785   0.160 -1.2547  1.6424 -0.4490
 1280SOL    MW4 4888   0.032   2.740   0.108  0.6943 -0.2649 -0.5035
 1281SOL     OW 4889   1.955   3.393   5.162  0.2248  0.2239 -0.1215
 1281SOL    HW2 4890   1.940   3.479   5.200 -0.0201  0.5670 -0.9609
 1281SOL    HW3 4891   2.013   3.409   5.087 -1.2413 -0.0550 -1.3845
 1281SOL    MW4 4892   1.961   3.406   5.157 -0.4257  0.1990  0.9370
 1282SOL     OW 4893   3.191   0.631   1.541  0.1015  0.0569  0.6363
 1282SOL    HW2 4894   3.126   0.652   1.474  0.1255 -0.0173  0.5901
 1282SOL    HW3 4895   3.269   0.680   1.515 -0.8540  2.7899  2.4073
 1282SOL    MW4 4896   3.193   0.640   1.529 -0.5212  0.4366 -0.5431
 1283SOL     OW 4897   6.114   6.118   5.639  0.0205  0.3263  0.0006
 1283SOL    HW2 4898   6.169   6.041   5.654  0.5793  0.5385 -0.8863
 1283SOL    HW3 4899   6.075   6.137   5.724 -0.6722 -1.3479  0.0942
 1283SOL    MW4 4900   6.116   6.110   5.652  0.5552  0.1978  0.0752
 1284SOL     OW 4901   3.013   0.247   3.592 -0.6280 -0.2749 -0.1816
 1284SOL    HW2 4902   2.961   0.327   3.593 -0.8975 -0.4324 -0.8528
 1284SOL    HW3 4903   3.035   0.234   3.499 -0.3715 -0.8394 -0.0461
 1284SOL    MW4 4904   3.009   0.256   3.580 -0.9779 -0.6030 -0.5876
 1285SOL     OW 4905   4.958   0.947   5.074  0.1677  0.1582 -0.0688
 1285SOL    HW2 4906   4.981   0.858   5.101  0.4172  0.3224  0.2752
 1285SOL    HW3 4907   4.908   0.982   5.148  0.1706  0.3432 -0.1540
 1285SOL    MW4 4908   4.954   0.940   5.088 -0.1771  0.1518 -0.1500
 1286SOL     OW 4909   5.032   4.098   1.968  0.0285 -0.1275 -0.0714
 1286SOL    HW2 4910   5.064   4.123   2.055 -1.1655 -0.9443  0.6216
 1286SOL    HW3 4911   5.066   4.166   1.910  4.4176 -1.6631  0.2778
 1286SOL    MW4 4912   5.041   4.110   1.972  0.3333 -0.2117 -0.5430
 1287SOL     OW 4913   1.758   4.303   2.549 -0.1878  0.9597 -0.6022
 1287SOL    HW2 4914   1.844   4.283   2.586  0.4463  2.5072 -1.1498
 1287SOL    HW3 4915   1.749   4.242   2.475 -1.2571 -1.8216  1.6393
 1287SOL    MW4 4916   1.768   4.292   2.544 -0.0905 -0.5342  0.0165
 1288SOL     OW 4917   5.090   1.540   3.955 -0.2050 -0.6924 -0.0345
 1288SOL    HW2 4918   5.003   1.537   3.993 -0.5736  0.5163 -0.7290
 1288SOL    HW3 4919   5.143   1.587   4.019 -0.3712 -0.3374 -0.1522
 1288SOL    MW4 4920   5.086   1.546   3.968  0.0306  0.0253  0.0117
 1289SOL     OW 4921   0.186   3.545   5.704 -0.0626  0.4512  0.2566
 1289SOL    HW2 4922   0.137   3.627   5.706  1.1935  1.2249  0.9580
 1289SOL    HW3 4923   0.248   3.557   5.631 -1.5280 -0.9211 -1.3005
 1289SOL    MW4 4924   0.188   3.558   5.694  0.7082 -0.3153 -0.4544
 1290SOL     OW 4925   3.364   4.897   5.977  0.0868 -0.2629 -0.1132
 1290SOL    HW2 4926   3.418   4.970   5.947  1.7181 -1.7445 -0.9298
 1290SOL    HW3 4927   3.299   4.885   5.907 -0.2360  0.4090  0.0568
 1290SOL    MW4 4928   3.362   4.905   5.964 -0.3880 -0.2321  0.1277
 1291SOL     OW 4929   2.259   4.806   2.727  0.5331  0.1583  0.1876
 1291SOL    HW2 4930   2.351   4.834   2.730  0.4201  0.9178 -1.7471
 1291SOL    HW3 4931   2.210   4.888   2.728  0.0079 -0.1031 -1.4267
 1291SOL    MW4 4932   2.265   4.821   2.728  0.0937 -0.4918 -0.0544
 1292SOL     OW 4933   1.012   3.517   3.023  0.0254  0.1447  0.1946
 1292SOL    HW2 4934   0.969   3.431   3.020  0.6408 -0.1451 -1.0827
 1292SOL    HW3 4935   0.951   3.573   3.070 -0.8857 -0.7207  0.0848
 1292SOL    MW4 4936   0.999   3.513   3.029 -0.2827 -0.0453 -0.5295
 1293SOL     OW 4937   4.144   3.945   6.071  0.1700  0.2656  0.4594
 1293SOL    HW2 4938   4.081   3.910   6.007  0.3359 -0.0488  0.4670
 1293SOL    HW3 4939   4.208   3.993   6.018 -1.4104  2.7140  0.6211
 1293SOL    MW4 4940   4.144   3.947   6.055 -0.0759  1.3880  0.1283
 1294SOL     OW 4941   5.724   5.224   1.787  0.1823 -0.1754  0.3513
 1294SOL    HW2 4942   5.819   5.223   1.779  0.3450  0.2916  1.9263
 1294SOL    HW3 4943   5.702   5.136   1.816 -0.1880 -1.1456 -2.4855
 1294SOL    MW4 4944   5.734   5.212   1.790  0.1380 -0.6060 -0.9375
 1295SOL     OW 4945   3.949   4.710   4.403  0.3365  0.8466  0.1250
 1295SOL    HW2 4946   4.015   4.779   4.393 -1.3930  2.8625  1.4985
 1295SOL    HW3 4947   3.878   4.736   4.343 -0.5163  0.5180  0.9575
 1295SOL    MW4 4948   3.948   4.723   4.394 -0.0002 -0.3584  0.1573
 1296SOL     OW 4949   5.782   5.040   0.339  0.4380  0.3208 -0.3766
 1296SOL    HW2 4950   5.741   5.037   0.252 -1.3005 -0.9167  0.4216
 1296SOL    HW3 4951   5.767   5.129   0.369  1.5178  0.9229 -1.5267
 1296SOL    MW4 4952   5.775   5.051   0.331 -0.8306  0.3269 -0.1834
 1297SOL     OW 4953   0.219   1.129   3.682 -0.4297 -0.2204 -0.1305
 1297SOL    HW2 4954   0.142   1.135   3.626  0.0601 -1.2480 -0.9659
 1297SOL    HW3 4955   0.187   1.088   3.763 -1.3624  2.2944  0.8504
 1297SOL    MW4 4956   0.204   1.124   3.686 -0.0799 -0.5550  0.4597
 1298SOL     OW 4957   4.077   1.359   2.616 -0.5949 -0.1493  0.0655
 1298SOL    HW2 4958   4.140   1.422   2.580 -0.4992 -1.1619 -1.6525
 1298SOL    HW3 4959   4.123   1.319   2.690  0.0381  0.4829  0.0315
 1298SOL    MW4 4960   4.092   1.362   2.621 -0.5209  0.2398 -0.0297
 1299SOL     OW 4961   6.170   6.074   4.553 -0.1929  0.8032 -0.1721
 1299SOL    HW2 4962   6.202   6.104   4.638 -2.7089  3.0402  0.1174
 1299SOL    HW3 4963   6.199   6.142   4.492  0.0687  0.1357 -0.8047
 1299SOL    MW4 4964   6.178   6.087   4.556 -0.9522 -0.2300  0.8404
 1300SOL     OW 4965   4.420   4.703   2.205  0.0838  0.4266 -0.1408
 1300SOL    HW2 4966   4.391   4.790   2.179  0.3367  1.1758  1.8998
 1300SOL    HW3 4967   4.481   4.718   2.277  0.5887 -1.4210 -0.1211
 1300SOL    MW4 4968   4.424   4.716   2.211  0.0434  0.0557 -0.4981
 1301SOL     OW 4969   0.627   0.983   1.138 -0.2215 -0.3101 -0.6029
 1301SOL    HW2 4970   0.694   1.050   1.152 -0.0473 -0.2394 -1.6673
 1301SOL    HW3 4971   0.630   0.929   1.217  1.4605 -0.6344 -0.8515
 1301SOL    MW4 4972   0.636   0.985   1.150 -0.3496  0.3623 -0.3495
 1302SOL     OW 4973   0.789   4.617   4.885  0.0063 -0.5888  0.4021
 1302SOL    HW2 4974   0.861   4.564   4.919  1.8754  0.4299 -1.6871
 1302SOL    HW3 4975   0.711   4.563   4.898  1.2123 -2.0218  2.1541
 1302SOL    MW4 4976   0.789   4.603   4.891  0.5186 -0.1799 -0.0528
 1303SOL     OW 4977   3.773   4.070   2.216 -0.4044  0.7114 -0.5061
 1303SOL    HW2 4978   3.768   3.983   2.177  1.8758  0.3991 -0.2751
 1303SOL    HW3 4979   3.736   4.059   2.303  0.0355 -0.0977 -0.4084
 1303SOL    MW4 4980   3.768   4.057   2.222  0.5874 -0.2996  0.0931
 1304SOL     OW 4981   1.684   4.006   3.665  0.5760 -0.1715 -0.1970
 1304SOL    HW2 4982   1.697   3.922   3.621  1.3625  0.4756 -1.2680
 1304SOL    HW3 4983   1.772   4.034   3.689  0.2943  0.2390  0.3788
 1304SOL    MW4 4984   1.697   3.999   3.662 -0.2719 -0.2236  0.0408
 1305SOL     OW 4985   3.138   1.097   2.511  0.6519 -0.1743  0.0628
 1305SOL    HW2 4986   3.195   1.161   2.553  1.5898 -0.1920 -1.1165
 1305SOL    HW3 4987   3.190   1.063   2.438 -0.8671 -0.1956 -1.0597
 1305SOL    MW4 4988   3.152   1.101   2.507 -0.6765  0.3689 -0.7138
 1306SOL     OW 4989   3.612   3.014   3.541  0.1252  0.1305  0.1601
 1306SOL    HW2 4990   3.638   2.977   3.626  0.3080  1.1172  0.5487
 1306SOL    HW3 4991   3.562   3.093   3.564 -0.1039  0.2249 -0.6496
 1306SOL    MW4 4992   3.609   3.020   3.555 -0.0366  0.1049 -0.0906
 1307SOL     OW 4993   3.079   0.560   2.768 -0.7773 -0.2130 -0.2176
 1307SOL    HW2 4994   3.080   0.465   2.761  0.7964 -0.2267 -0.0976
 1307SOL    HW3 4995   3.020   0.578   2.842 -1.7893 -1.0282 -0.8076
 1307SOL    MW4 4996   3.071   0.550   2.777  0.5827  0.0409 -0.1220
 1308SOL     OW 4997   3.754   5.021   5.677  0.4213 -0.0736  0.0852
 1308SOL    HW2 4998   3.709   4.946   5.638  2.0727 -0.4115 -1.3316
 1308SOL    HW3 4999   3.695   5.052   5.745 -0.8264 -1.9493 -0.0601
 1308SOL    MW4 5000   3.740   5.015   5.681 -0.4387 -0.0576 -0.3985
 1309SOL     OW 5001   1.882   4.189   4.677  0.4188 -0.4221 -0.2750
 1309SOL    HW2 5002   1.829   4.121   4.719 -0.1690  0.1680 -0.0525
 1309SOL    HW3 5003   1.914   4.243   4.749 -2.5357  2.0377 -0.5989
 1309SOL    MW4 5004   1.880   4.187   4.692  0.7768 -0.5180  0.0627
 1310SOL     OW 5005   3.444   0.105   4.935 -0.3641 -0.3774  0.4903
 1310SOL    HW2 5006   3.410   0.093   4.846 -0.2441  0.6448  0.2916
 1310SOL    HW3 5007   3.387   0.051   4.990 -0.3015 -1.2042 -0.2218
 1310SOL    MW4 5008   3.432   0.096   4.930 -0.3512 -0.2767  0.7251
 1311SOL     OW 5009   1.378   2.816   3.382  0.4326 -0.0686  0.1005
 1311SOL    HW2 5010   1.458   2.791   3.428  0.0506 -0.6828  0.4602
 1311SOL    HW3 5011   1.407   2.855   3.300  1.1321  0.9762  0.8322
 1311SOL    MW4 5012   1.392   2.818   3.377 -0.6364  0.6445 -0.0510
 1312SOL     OW 5013   4.951   4.490   2.052  0.2136  0.8819 -0.0500
 1312SOL    HW2 5014   5.017   4.492   2.121  0.4018 -0.0903 -0.1918
 1312SOL    HW3 5015   4.871   4.462   2.097  0.5247 -0.5589 -0.3603
 1312SOL    MW4 5016   4.949   4.487   2.067  0.0423  0.1301 -1.2057
 1313SOL     OW 5017   4.100   4.583   1.099  0.2740 -0.6147 -0.5061
 1313SOL    HW2 5018   4.067   4.523   1.166  1.7145 -1.3812 -0.4535
 1313SOL    HW3 5019   4.162   4.639   1.146  1.5891 -1.4121 -1.2408
 1313SOL    MW4 5020   4.103   4.582   1.114 -1.0964 -0.1980 -0.3386
 1314SOL     OW 5021   3.634   6.126   5.410 -0.4897  0.1170  0.3342
 1314SOL    HW2 5022   3.606   6.212   5.440 -0.8733 -0.0461  0.4591
 1314SOL    HW3 5023   3.728   6.133   5.397 -0.6890  0.9243 -0.8554
 1314SOL    MW4 5024   3.642   6.138   5.412 -0.2719 -0.1533 -0.0130
 1315SOL     OW 5025   1.182   4.479   0.460  0.1791 -0.3084  0.3680
 1315SOL    HW2 5026   1.207   4.389   0.482  1.0154 -0.4419 -0.9753
 1315SOL    HW3 5027   1.125   4.470   0.384  0.6398  0.3158 -0.0617
 1315SOL    MW4 5028   1.178   4.466   0.453 -0.3494  0.9062 -0.4815
 1316SOL     OW 5029   0.540   5.443   1.924  0.0475  0.2222  0.2121
 1316SOL    HW2 5030   0.563   5.350   1.918  0.9911  0.5498 -2.2091
 1316SOL    HW3 5031   0.482   5.458   1.850 -0.3057  1.5318  0.7318
 1316SOL    MW4 5032   0.536   5.432   1.913  0.3331  0.2955  0.3579
 1317SOL     OW 5033   4.978   1.507   1.459  0.0027  0.4492  0.4455
 1317SOL    HW2 5034   5.008   1.420   1.482 -0.2612  0.4202  0.6900
 1317SOL    HW3 5035   4.894   1.516   1.504 -0.1173  0.7115  0.1714
 1317SOL    MW4 5036   4.971   1.497   1.468  0.1137 -0.0951  0.3604
 1318SOL     OW 5037   3.930   0.253   2.313  0.3786  0.8024 -0.8289
 1318SOL    HW2 5038   3.945   0.345   2.337  0.6153  0.4510  0.4344
 1318SOL    HW3 5039   3.986   0.239   2.237  1.5838  1.2740 -0.0558
 1318SOL    MW4 5040   3.939   0.264   2.306 -0.3197 -0.9302  0.6538
 1319SOL     OW 5041   0.277   0.994   6.157  0.2325 -0.3394 -0.2303
 1319SOL    HW2 5042   0.289   0.910   6.113  2.5157 -0.3528  0.2874
 1319SOL    HW3 5043   0.302   0.978   6.248  3.2361  1.3473 -0.6136
 1319SOL    MW4 5044   0.282   0.981   6.163 -0.3681 -0.2904  0.4199
 1320SOL     OW 5045   6.160   0.821   4.570  0.0703 -0.0237  0.3224
 1320SOL    HW2 5046   6.071   0.798   4.546  0.3608 -1.9164  0.8788
 1320SOL    HW3 5047   6.150   0.889   4.637 -0.8879  0.8171 -0.6491
 1320SOL    MW4 5048   6.147   0.827   4.576  0.1370 -0.7061 -0.4977
 1321SOL     OW 5049   5.840   5.999   2.980 -0.0297  1.0555  0.5557
 1321SOL    HW2 5050   5.803   6.083   3.008 -0.7856  0.4828  1.3411
 1321SOL    HW3 5051   5.774   5.934   3.005 -0.3749  0.4037 -1.8194
 1321SOL    MW4 5052   5.826   6.001   2.987 -0.1981  0.0996 -0.8382
 1322SOL     OW 5053   5.079   6.260   4.314 -0.8284  0.0505 -0.5331
 1322SOL    HW2 5054   5.046   6.187   4.366 -0.9977  0.7791  0.3934
 1322SOL    HW3 5055   5.027   6.257   4.233 -1.2991 -0.4404 -0.2193
 1322SOL    MW4 5056   5.068   6.250   4.310 -0.5122  0.1226  0.3441
 1323SOL     OW 5057   3.295   1.963   6.159 -0.1689 -0.1697 -0.3975
 1323SOL    HW2 5058   3.301   1.870   6.184  0.3104  0.3364  1.5285
 1323SOL    HW3 5059   3.289   1.961   6.063  0.2743 -2.1684 -0.4412
 1323SOL    MW4 5060   3.295   1.950   6.150  0.2422  0.4411  0.0480
 1324SOL     OW 5061   2.392   1.413   3.370 -0.2303 -0.2564  0.0038
 1324SOL    HW2 5062   2.463   1.382   3.426 -0.1410 -1.8979 -0.9727
 1324SOL    HW3 5063   2.312   1.392   3.419 -0.1042  0.6525  0.6327
 1324SOL    MW4 5064   2.391   1.406   3.384 -0.4230 -0.2275 -0.1217
 1325SOL     OW 5065   1.106   0.330   2.552  0.2320  0.4581 -0.6927
 1325SOL    HW2 5066   1.092   0.325   2.457  0.9055 -1.5696 -0.7300
 1325SOL    HW3 5067   1.071   0.249   2.586  3.1222 -0.5043  0.3144
 1325SOL    MW4 5068   1.100   0.319   2.544  0.2971 -0.3070  0.2850
 1326SOL     OW 5069   5.980   2.864   4.387  0.2264  0.1669 -0.7322
 1326SOL    HW2 5070   6.013   2.878   4.476  0.5198 -0.5939 -0.7136
 1326SOL    HW3 5071   5.889   2.893   4.390  0.5710  1.3035 -0.5092
 1326SOL    MW4 5072   5.973   2.870   4.399 -0.2838 -0.4138  0.1957
 1327SOL     OW 5073   6.413   4.723   5.230 -0.5001  0.4009  0.6621
 1327SOL    HW2 5074   6.508   4.716   5.225 -0.5724  0.1994 -0.7506
 1327SOL    HW3 5075   6.398   4.795   5.291  0.4820 -1.1425  2.8507
 1327SOL    MW4 5076   6.423   4.732   5.238 -0.3684  0.6599  0.0129
 1328SOL     OW 5077   5.340   5.261   3.281 -0.2581 -0.0145  0.6050
 1328SOL    HW2 5078   5.387   5.234   3.360 -0.6135 -0.6079  0.6198
 1328SOL    HW3 5079   5.345   5.356   3.281  0.4367 -0.0508  0.9163
 1328SOL    MW4 5080   5.347   5.270   3.291  0.3939  0.3350 -0.7350
 1329SOL     OW 5081   3.471   3.088   6.219  0.2924  0.9033  0.0844
 1329SOL    HW2 5082   3.501   3.152   6.284  0.7830  1.9855 -1.1588
 1329SOL    HW3 5083   3.408   3.137   6.165 -0.4510 -0.1047  0.0080
 1329SOL    MW4 5084   3.467   3.103   6.220  0.0329  0.4810  0.1249
 1330SOL     OW 5085   1.674   1.940   3.171  0.3070 -0.0583  0.1839
 1330SOL    HW2 5086   1.609   1.893   3.119 -0.1114  1.1966 -0.4948
 1330SOL    HW3 5087   1.623   1.986   3.237 -0.0308  3.3523 -2.1428
 1330SOL    MW4 5088   1.659   1.940   3.173  0.9066  0.0524  0.2790
 1331SOL     OW 5089   2.144   6.051   2.042  0.3058 -0.0547 -0.2696
 1331SOL    HW2 5090   2.056   6.082   2.064 -1.2664 -1.2993 -4.0024
 1331SOL    HW3 5091   2.196   6.131   2.031 -0.9272  0.8097  0.0048
 1331SOL    MW4 5092   2.139   6.066   2.043 -0.5420 -0.2777 -0.1442
 1332SOL     OW 5093   5.552   2.187   1.955 -0.1707  0.0687  0.3392
 1332SOL    HW2 5094   5.568   2.238   1.876  2.3585 -1.2520 -0.1085
 1332SOL    HW3 5095   5.491   2.118   1.928  0.5121 -0.2462 -0.4483
 1332SOL    MW4 5096   5.546   2.184   1.941 -0.1509  0.1050 -0.3167
 1333SOL     OW 5097   4.302   2.158   2.312 -0.5866  0.2519  0.3495
 1333SOL    HW2 5098   4.331   2.131   2.399 -2.5464  0.0777  1.0090
 1333SOL    HW3 5099   4.217   2.199   2.328 -0.8140  0.5433 -1.4550
 1333SOL    MW4 5100   4.295   2.160   2.326 -0.2640  0.2111  0.1453
 1334SOL     OW 5101   3.290   0.364   1.485 -0.0879  0.2099 -0.1630
 1334SOL    HW2 5102   3.246   0.431   1.537 -1.1367 -0.2176 -0.4774
 1334SOL    HW3 5103   3.383   0.385   1.492 -0.1734  0.0633  2.0373
 1334SOL    MW4 5104   3.296   0.375   1.493 -0.0432  0.0653 -0.2259
 1335SOL     OW 5105   2.730   4.681   5.832  0.1282 -0.2903  0.3728
 1335SOL    HW2 5106   2.656   4.737   5.856  0.7223  0.6419  0.0524
 1335SOL    HW3 5107   2.756   4.639   5.914  1.0765  1.5993  1.0873
 1335SOL    MW4 5108   2.724   4.683   5.846 -0.0066  0.6012 -0.0824
 1336SOL     OW 5109   4.753   2.370   5.182 -0.0141  0.0594  0.6439
 1336SOL    HW2 5110   4.685   2.307   5.209  0.8167 -1.6446 -0.9727
 1336SOL    HW3 5111   4.704   2.443   5.145 -1.0421 -1.0872 -0.3984
 1336SOL    MW4 5112   4.737   2.371   5.181  0.1368  0.0076 -0.3943
 1337SOL     OW 5113   3.343   3.748   2.989 -0.2804 -0.3484  0.1740
 1337SOL    HW2 5114   3.268   3.692   2.969 -1.4535  0.8372  1.1166
 1337SOL    HW3 5115   3.316   3.835   2.960  2.2039 -0.4547 -2.9792
 1337SOL    MW4 5116   3.329   3.752   2.982 -0.2191 -0.7842  0.4659
 1338SOL     OW 5117   5.659   4.305   1.739  0.1569 -0.3943  0.1944
 1338SOL    HW2 5118   5.591   4.240   1.757  1.5330 -1.7842  0.5258
 1338SOL    HW3 5119   5.698   4.276   1.656  2.4022 -1.4491  1.5524
 1338SOL    MW4 5120   5.655   4.293   1.730 -0.7244  0.1647  0.2776
 1339SOL     OW 5121   0.487   1.278   4.320  0.2639 -0.3681  0.3073
 1339SOL    HW2 5122   0.494   1.296   4.226 -0.3905  1.5829  0.5852
 1339SOL    HW3 5123   0.577   1.264   4.348  0.5080 -0.5458 -0.5253
 1339SOL    MW4 5124   0.500   1.279   4.311  0.8798  0.0791 -0.0177
 1340SOL     OW 5125   2.420   1.592   3.673 -0.2546  1.0099  0.2694
 1340SOL    HW2 5126   2.485   1.598   3.604  0.6827  0.1133  1.0369
 1340SOL    HW3 5127   2.387   1.502   3.668  0.4341  0.6634  1.4820
 1340SOL    MW4 5128   2.424   1.581   3.664  0.2166 -0.5148  0.7275
 1341SOL     OW 5129   1.604   6.338   4.646 -0.0940  0.0826  0.1168
 1341SOL    HW2 5130   1.637   6.425   4.624 -1.6807  1.4515  2.6658
 1341SOL    HW3 5131   1.607   6.335   4.741  2.0868 -3.6376  0.1401
 1341SOL    MW4 5132   1.609   6.349   4.655 -0.5661  0.2341  0.4083
 1342SOL     OW 5133   5.335   5.181   4.384 -0.1806  0.1292  0.4959
 1342SOL    HW2 5134   5.409   5.237   4.362  0.6139 -0.8022  0.7174
 1342SOL    HW3 5135   5.284   5.232   4.448 -0.2261  1.1314 -0.3278
 1342SOL    MW4 5136   5.338   5.195   4.390 -0.6345 -0.0792  0.6780
 1343SOL     OW 5137   0.788   4.250   0.191  0.2891  0.0261  0.2399
 1343SOL    HW2 5138   0.839   4.194   0.249  1.4751  0.8982  0.0921
 1343SOL    HW3 5139   0.728   4.191   0.146 -0.0137 -0.7802  1.6812
 1343SOL    MW4 5140   0.787   4.235   0.192  0.1107  0.1116  0.5135
 1344SOL     OW 5141   6.236   1.271   2.680  0.0123 -0.2340  0.0136
 1344SOL    HW2 5142   6.207   1.354   2.718  0.3269 -0.6347  1.1650
 1344SOL    HW3 5143   6.330   1.268   2.699 -0.0054 -0.8737  0.0062
 1344SOL    MW4 5144   6.244   1.282   2.688  0.4840 -0.4699  0.1604
 1345SOL     OW 5145   0.128   0.550   3.916 -0.8276  0.3635 -0.8019
 1345SOL    HW2 5146   0.132   0.498   3.835 -0.6736 -1.9189  0.5742
 1345SOL    HW3 5147   0.207   0.525   3.964 -1.3770  0.9537  0.4558
 1345SOL    MW4 5148   0.139   0.540   3.912 -0.3733  0.2307  0.5396
 1346SOL     OW 5149   4.724   5.806   3.573  0.1537  0.0013 -0.2278
 1346SOL    HW2 5150   4.735   5.712   3.558 -1.7306 -0.1454 -0.8805
 1346SOL    HW3 5151   4.729   5.844   3.486 -0.1636  0.3772 -0.0816
 1346SOL    MW4 5152   4.726   5.798   3.560  0.3673  0.7496 -0.0615
 1347SOL     OW 5153   4.908   2.163   0.870 -0.5448 -0.0541 -0.3358
 1347SOL    HW2 5154   4.953   2.192   0.790 -1.1973 -1.8065 -1.4083
 1347SOL    HW3 5155   4.816   2.187   0.855 -0.5895  0.0495  0.1112
 1347SOL    MW4 5156   4.902   2.170   0.857 -0.0978  0.0840 -0.4193
 1348SOL     OW 5157   4.113   0.768   5.917 -0.2887  0.2404  0.2559
 1348SOL    HW2 5158   4.165   0.691   5.940 -0.2727  0.1656 -0.0235
 1348SOL    HW3 5159   4.103   0.816   6.000  2.4853  1.6714 -0.0908
 1348SOL    MW4 5160   4.119   0.764   5.931  0.4313 -0.0307 -0.5404
 1349SOL     OW 5161   1.760   5.324   1.972 -0.2844  0.6259  0.1321
 1349SOL    HW2 5162   1.677   5.353   1.934 -0.4844  2.6383  1.8861
 1349SOL    HW3 5163   1.759   5.360   2.061  1.9640 -0.3112  0.6053
 1349SOL    MW4 5164   1.749   5.333   1.979 -0.0347 -0.5919 -0.4429
 1350SOL     OW 5165   4.503   5.223   6.273  0.1041  0.1037 -0.3806
 1350SOL    HW2 5166   4.482   5.314   6.253 -0.8086 -0.3242 -1.5490
 1350SOL    HW3 5167   4.433   5.173   6.230  1.4099 -1.2198 -1.0601
 1350SOL    MW4 5168   4.491   5.228   6.265 -0.7662 -0.2294 -0.2778
 1351SOL     OW 5169   1.243   4.756   0.558  0.3200 -0.0930 -0.1146
 1351SOL    HW2 5170   1.259   4.668   0.525  3.1227 -0.0146  0.7307
 1351SOL    HW3 5171   1.330   4.789   0.580 -0.6882  2.7440  0.0023
 1351SOL    MW4 5172   1.257   4.749   0.557 -0.0409 -0.1911  0.2829
 1352SOL     OW 5173   4.187   2.642   0.243 -0.1456 -0.3226  0.5890
 1352SOL    HW2 5174   4.236   2.590   0.307  1.0488 -2.4707 -1.8721
 1352SOL    HW3 5175   4.153   2.577   0.181 -4.0166  1.3150  0.6898
 1352SOL    MW4 5176   4.189   2.626   0.243 -0.2850 -0.3546 -0.9429
 1353SOL     OW 5177   3.507   3.950   0.324 -0.0463 -0.0145 -0.0266
 1353SOL    HW2 5178   3.453   3.987   0.394 -0.0579  0.9842 -0.5346
 1353SOL    HW3 5179   3.562   4.023   0.296  1.7373 -1.0540  0.6155
 1353SOL    MW4 5180   3.507   3.965   0.330  0.3690  0.2393  0.0519
 1354SOL     OW 5181   1.450   4.240   3.075 -0.4486  0.0854 -0.1780
 1354SOL    HW2 5182   1.442   4.252   3.170 -0.7242  0.3634 -0.2344
 1354SOL    HW3 5183   1.532   4.192   3.063 -0.8875 -0.7948  0.2739
 1354SOL    MW4 5184   1.460   4.235   3.086 -0.0745 -1.0489 -0.7581
 1355SOL     OW 5185   2.023   5.006   3.036 -0.3274 -0.2208  0.0238
 1355SOL    HW2 5186   2.089   5.060   2.993 -0.5272  0.6147  0.7306
 1355SOL    HW3 5187   1.939   5.037   3.001 -0.3467 -2.2939 -2.0265
 1355SOL    MW4 5188   2.020   5.017   3.026  0.2098  0.4021  0.0831
 1356SOL     OW 5189   5.501   2.864   3.831 -0.3216 -0.5268 -0.7106
 1356SOL    HW2 5190   5.473   2.783   3.789  0.3821 -0.0381 -2.1723
 1356SOL    HW3 5191   5.422   2.918   3.833 -0.0226  0.0915 -3.0208
 1356SOL    MW4 5192   5.487   2.861   3.826  0.0764 -0.2553  0.0237
 1357SOL     OW 5193   6.168   1.748   5.297  0.0792 -0.5672 -0.3928
 1357SOL    HW2 5194   6.111   1.703   5.234 -0.4098 -0.8899  0.2760
 1357SOL    HW3 5195   6.209   1.818   5.246 -0.2734 -0.8581 -1.0855
 1357SOL    MW4 5196   6.166   1.751   5.282  0.1823  0.3121  0.0685
 1358SOL     OW 5197   4.430   5.501   4.672  0.3521  0.4432 -0.2776
 1358SOL    HW2 5198   4.359   5.552   4.712  0.0760 -0.0296 -0.1609
 1358SOL    HW3 5199   4.387   5.450   4.604  1.0176  2.2616 -2.1779
 1358SOL    MW4 5200   4.415   5.501   4.668 -0.0143 -0.0597 -0.8807
 1359SOL     OW 5201   0.194   5.211   0.142  0.8862  0.5315 -0.4454
 1359SOL    HW2 5202   0.114   5.159   0.135  1.9559 -1.4652  1.1952
 1359SOL    HW3 5203   0.232   5.210   0.054  0.7369 -1.3041 -0.5216
 1359SOL    MW4 5204   0.189   5.204   0.130 -0.2893 -0.3577 -0.0646
 1360SOL     OW 5205   1.104   1.915   1.755 -0.2512 -0.2396  0.0615
 1360SOL    HW2 5206   1.115   1.863   1.676  0.4229  2.6965 -1.9420
 1360SOL    HW3 5207   1.192   1.922   1.792 -0.0765  0.6134 -0.4905
 1360SOL    MW4 5208   1.117   1.909   1.749 -0.0771  0.2403  0.7636
 1361SOL     OW 5209   6.417   0.782   1.210 -0.1531 -0.5949 -0.4880
 1361SOL    HW2 5210   6.503   0.764   1.173  0.4486  0.2239  0.4386
 1361SOL    HW3 5211   6.355   0.760   1.141  0.8589 -0.2310 -1.5358
 1361SOL    MW4 5212   6.420   0.777   1.196  0.0631 -0.0844  0.4360
 1362SOL     OW 5213   4.719   1.644   5.662 -0.3443 -0.6105 -0.7315
 1362SOL    HW2 5214   4.644   1.699   5.637 -0.6508 -0.5304  0.3348
 1362SOL    HW3 5215   4.682   1.577   5.720  0.4614 -0.3258  0.1383
 1362SOL    MW4 5216   4.704   1.643   5.666  0.0537  0.3258  0.1987
 1363SOL     OW 5217   5.724   4.825   0.652  0.6383  0.4204 -0.5104
 1363SOL    HW2 5218   5.674   4.890   0.603  0.1845  0.3570 -0.1392
 1363SOL    HW3 5219   5.658   4.764   0.686  0.7875  1.1495  1.2106
 1363SOL    MW4 5220   5.709   4.825   0.650  0.7216  0.4729 -0.5415
 1364SOL     OW 5221   1.006   5.319   2.955 -0.1587 -0.2175  0.0088
 1364SOL    HW2 5222   0.969   5.399   2.992 -0.5063 -0.5727  0.4377
 1364SOL    HW3 5223   1.099   5.324   2.976 -0.1920  0.0489  0.0935
 1364SOL    MW4 5224   1.013   5.330   2.963 -0.7727 -0.3692 -0.4102
 1365SOL     OW 5225   5.086   3.812   1.975  0.3782 -0.1959  0.6442
 1365SOL    HW2 5226   5.018   3.799   1.909 -0.0196  0.3798  0.9297
 1365SOL    HW3 5227   5.090   3.907   1.986  2.0996 -0.1382 -0.2643
 1365SOL    MW4 5228   5.077   3.823   1.968 -0.3948  0.2394  0.3836
 1366SOL     OW 5229   3.169   0.153   6.127  0.8517 -0.0873 -0.7828
 1366SOL    HW2 5230   3.242   0.150   6.066 -0.4260  1.3675 -2.5128
 1366SOL    HW3 5231   3.101   0.099   6.086  1.3485 -2.6182  1.4955
 1366SOL    MW4 5232   3.170   0.146   6.113  0.3355 -0.0046 -0.0994
 1367SOL     OW 5233   4.806   0.143   5.989  0.1887 -0.0188  0.3725
 1367SOL    HW2 5234   4.773   0.116   6.075  1.0934 -2.1404  0.1019
 1367SOL    HW3 5235   4.826   0.236   5.999 -0.4243 -0.0524  2.2269
 1367SOL    MW4 5236   4.804   0.152   6.002 -0.1932 -0.3160  0.2175
 1368SOL     OW 5237   0.428   5.960   6.084 -0.1755  0.4781 -0.1324
 1368SOL    HW2 5238   0.334   5.943   6.076  0.1684 -1.0301 -1.3653
 1368SOL    HW3 5239   0.447   6.022   6.014  0.1902 -1.3123 -1.6890
 1368SOL    MW4 5240   0.418   5.966   6.074 -0.2925 -0.4502  0.4911
 1369SOL     OW 5241   4.272   2.278   2.745 -0.4731 -0.1962  0.1279
 1369SOL    HW2 5242   4.325   2.215   2.794 -1.6506 -0.7363  0.7489
 1369SOL    HW3 5243   4.331   2.313   2.679  0.5844 -0.9558  0.6482
 1369SOL    MW4 5244   4.286   2.274   2.743  0.1132  0.2360  1.0712
 1370SOL     OW 5245   2.776   0.316   5.562  0.1023  0.2809  0.6852
 1370SOL    HW2 5246   2.833   0.329   5.638  0.5352  0.4081  0.3417
 1370SOL    HW3 5247   2.691   0.348   5.590  0.0260 -0.5311  1.4355
 1370SOL    MW4 5248   2.772   0.322   5.576  0.3463  0.3882  0.1886
 1371SOL     OW 5249   1.761   0.483   2.820 -0.5966  0.3082  0.2534
 1371SOL    HW2 5250   1.748   0.490   2.726  1.0919 -0.5779 -0.0858
 1371SOL    HW3 5251   1.851   0.514   2.834 -0.5618 -0.2799  1.4690
 1371SOL    MW4 5252   1.772   0.488   2.810  0.1983  0.0818 -0.3341
 1372SOL     OW 5253   0.000   2.275   6.399  0.1663 -0.1075 -0.5210
 1372SOL    HW2 5254   0.055   2.204   6.364 -0.5900 -0.2909 -1.3584
 1372SOL    HW3 5255  -0.089   2.241   6.395 -0.1600  0.7216 -0.5038
 1372SOL    MW4 5256  -0.004   2.261   6.394  0.1616  0.2351 -0.1866
 1373SOL     OW 5257   1.973   0.190   0.882  0.6301  0.4687 -0.3832
 1373SOL    HW2 5258   2.061   0.165   0.853  0.1390 -0.6178 -1.0017
 1373SOL    HW3 5259   1.944   0.116   0.935 -0.0620  0.6378 -0.5188
 1373SOL    MW4 5260   1.981   0.177   0.885  0.2441 -0.0067  0.2046
 1374SOL     OW 5261   3.267   5.448   0.686  0.2606  0.3411  0.0491
 1374SOL    HW2 5262   3.182   5.432   0.727  0.5253 -0.1775  0.3981
 1374SOL    HW3 5263   3.318   5.369   0.705  0.6772  0.4636 -0.5295
 1374SOL    MW4 5264   3.262   5.435   0.694  0.6309  0.1996  0.7168
 1375SOL     OW 5265   0.397   1.419   6.132 -0.2214 -0.5451  0.3471
 1375SOL    HW2 5266   0.449   1.438   6.053  0.6761 -0.4974  0.9325
 1375SOL    HW3 5267   0.445   1.348   6.175  0.0381  0.3097  1.5118
 1375SOL    MW4 5268   0.410   1.412   6.127 -0.0146 -0.0414 -0.2655
 1376SOL     OW 5269   1.452   3.135   0.430  0.2218 -0.6351 -0.4090
 1376SOL    HW2 5270   1.533   3.186   0.427  0.9176 -1.4866  1.7459
 1376SOL    HW3 5271   1.384   3.198   0.451  0.8737 -0.3632  0.9801
 1376SOL    MW4 5272   1.454   3.150   0.433  0.0693 -0.0532  0.1331
 1377SOL     OW 5273   4.330   1.628   1.927  0.1849  0.7234 -0.4240
 1377SOL    HW2 5274   4.260   1.563   1.928  1.8132 -1.1174 -0.4352
 1377SOL    HW3 5275   4.336   1.659   2.017 -0.7730  1.0930 -0.4729
 1377SOL    MW4 5276   4.322   1.624   1.939 -0.3684 -0.0197 -0.0122
 1378SOL     OW 5277   5.605   1.458   3.754  0.3063  0.4412  0.2299
 1378SOL    HW2 5278   5.573   1.419   3.836  0.2175  1.3123  0.6223
 1378SOL    HW3 5279   5.568   1.546   3.753 -1.1212 -0.1153 -1.6020
 1378SOL    MW4 5280   5.596   1.464   3.765  0.1377 -0.1716  0.2386
 1379SOL     OW 5281   1.013   6.228   5.003 -0.1006  0.0838  0.2880
 1379SOL    HW2 5282   1.064   6.244   4.924 -0.3826  1.3781  0.3393
 1379SOL    HW3 5283   0.982   6.315   5.029 -2.6060 -0.6552  0.0738
 1379SOL    MW4 5284   1.016   6.242   4.996  0.0252 -0.1943 -0.0260
 1380SOL     OW 5285   3.120   2.489   2.870  0.0702  0.1295  0.2300
 1380SOL    HW2 5286   3.077   2.497   2.955  0.8844  0.6181  0.6123
 1380SOL    HW3 5287   3.049   2.494   2.807 -0.3925  1.9031  0.8114
 1380SOL    MW4 5288   3.105   2.491   2.873  0.4603 -0.4913 -0.3914
 1381SOL     OW 5289   0.208   0.177   1.405 -0.1244 -0.2669  0.6386
 1381SOL    HW2 5290   0.297   0.147   1.423  0.3274  0.2671 -0.6009
 1381SOL    HW3 5291   0.220   0.251   1.346 -1.4204 -0.5389  0.0162
 1381SOL    MW4 5292   0.221   0.183   1.399  0.0875 -0.3731 -0.3546
 1382SOL     OW 5293   0.723   5.313   4.861  0.1960 -0.2131 -0.4697
 1382SOL    HW2 5294   0.640   5.329   4.816 -0.6136 -1.1422  0.5996
 1382SOL    HW3 5295   0.781   5.280   4.793 -0.4898 -0.0710 -1.1430
 1382SOL    MW4 5296   0.720   5.311   4.846  0.2369  0.1763  0.1730
 1383SOL     OW 5297   1.503   0.619   4.841  0.3854 -0.1643 -0.4456
 1383SOL    HW2 5298   1.463   0.705   4.830  2.0327  1.0161  1.9402
 1383SOL    HW3 5299   1.505   0.605   4.935  3.2149 -1.2326 -0.5472
 1383SOL    MW4 5300   1.498   0.628   4.852  0.7277  0.4483 -0.1418
 1384SOL     OW 5301   0.641   1.359   5.214  0.3768 -0.0729 -0.6532
 1384SOL    HW2 5302   0.678   1.281   5.173 -0.7276  0.4690 -2.8640
 1384SOL    HW3 5303   0.688   1.432   5.174  1.2443  0.4383  1.2297
 1384SOL    MW4 5304   0.652   1.358   5.203  0.4903  0.1636 -0.0821
 1385SOL     OW 5305   5.060   0.098   3.100 -0.5311  0.0006  0.5098
 1385SOL    HW2 5306   5.049   0.031   3.033  0.5073 -1.6778  1.9391
 1385SOL    HW3 5307   5.050   0.051   3.183  1.0294  1.4374  1.5761
 1385SOL    MW4 5308   5.057   0.083   3.102 -0.3855 -0.0050 -0.0935
 1386SOL     OW 5309   4.336   5.028   5.961  0.9836  0.3884  0.0488
 1386SOL    HW2 5310   4.301   5.114   5.941 -0.7476 -0.6221 -1.6014
 1386SOL    HW3 5311   4.429   5.043   5.978  0.9121  2.4494 -1.0763
 1386SOL    MW4 5312   4.344   5.041   5.960 -0.0192  0.2299  0.5581
 1387SOL     OW 5313   1.152   2.103   6.151 -0.7307  0.2209 -0.2969
 1387SOL    HW2 5314   1.153   2.145   6.065  1.3649  0.3320 -0.2844
 1387SOL    HW3 5315   1.124   2.013   6.133  0.2839  0.0673 -1.2141
 1387SOL    MW4 5316   1.149   2.096   6.137  0.0270  0.2688 -0.5879
 1388SOL     OW 5317   0.548   2.639   3.618  0.5855  0.3882 -0.0850
 1388SOL    HW2 5318   0.491   2.616   3.544  0.5399 -0.0135  0.0706
 1388SOL    HW3 5319   0.544   2.734   3.623 -0.4363  0.3419  0.2072
 1388SOL    MW4 5320   0.540   2.648   3.609 -0.3856 -0.2523 -0.1156
 1389SOL     OW 5321   6.341   4.707   2.814 -0.3024 -0.1122 -1.1545
 1389SOL    HW2 5322   6.411   4.665   2.763  0.2515 -0.5180 -0.0962
 1389SOL    HW3 5323   6.262   4.657   2.792  0.4007 -2.0224  0.3470
 1389SOL    MW4 5324   6.340   4.695   2.804  0.0772  0.1061 -0.0287
 1390SOL     OW 5325   2.324   4.240   0.334 -0.5222  0.3088  0.3569
 1390SOL    HW2 5326   2.294   4.206   0.418 -0.3833 -1.8368 -0.4059
 1390SOL    HW3 5327   2.405   4.192   0.316 -0.2575  1.1372 -0.7502
 1390SOL    MW4 5328   2.331   4.229   0.342 -0.4357  0.0605  0.3160
 1391SOL     OW 5329   0.596   1.326   0.984  0.1125  0.3249 -0.4162
 1391SOL    HW2 5330   0.653   1.399   1.007  0.0159  0.5749 -0.9702
 1391SOL    HW3 5331   0.648   1.248   1.003 -0.1000  0.5117  1.0343
 1391SOL    MW4 5332   0.610   1.325   0.990 -0.2571 -0.6790 -0.2967
 1392SOL     OW 5333   3.637   3.335   2.686  0.4708 -0.3378 -0.3633
 1392SOL    HW2 5334   3.684   3.292   2.757  1.0435 -1.0985 -1.1761
 1392SOL    HW3 5335   3.669   3.425   2.687  0.2691 -0.2674  0.5044
 1392SOL    MW4 5336   3.648   3.341   2.695  0.3131  0.0552  0.0574
 1393SOL     OW 5337   1.847   5.706   5.819 -0.0826  0.2458  0.1526
 1393SOL    HW2 5338   1.785   5.709   5.892 -0.6422 -1.2536 -0.2161
 1393SOL    HW3 5339   1.873   5.614   5.814  1.8238  0.7405 -0.0170
 1393SOL    MW4 5340   1.842   5.694   5.828  0.2879  0.5079 -0.4382
 1394SOL     OW 5341   4.231   3.661   3.740  0.0309  0.6730  0.1669
 1394SOL    HW2 5342   4.223   3.661   3.835  1.2251  2.4651  0.3080
 1394SOL    HW3 5343   4.278   3.580   3.720 -0.6536  0.0408  1.0420
 1394SOL    MW4 5344   4.236   3.650   3.750  0.3624 -0.0819  1.0702
 1395SOL     OW 5345   2.442   3.499   0.792  0.1267 -0.5997  0.2365
 1395SOL    HW2 5346   2.428   3.407   0.769  1.1441 -0.9879  1.0779
 1395SOL    HW3 5347   2.359   3.542   0.773 -0.8044 -1.9511  1.0774
 1395SOL    MW4 5348   2.429   3.493   0.787 -0.1173 -0.0809  0.2832
 1396SOL     OW 5349   1.063   3.764   1.878 -0.1866  0.0559  0.2266
 1396SOL    HW2 5350   1.060   3.670   1.864 -1.2563 -0.1892  1.8099
 1396SOL    HW3 5351   1.110   3.774   1.961 -0.3094  0.8966  0.2045
 1396SOL    MW4 5352   1.069   3.753   1.887 -0.0486 -0.5825  0.1666
 1397SOL     OW 5353   5.212   3.065   0.970 -0.4890  0.2203  0.3706
 1397SOL    HW2 5354   5.151   3.053   0.897  2.0008 -1.8752 -1.5730
 1397SOL    HW3 5355   5.254   2.980   0.980  1.9580  1.4896  1.7590
 1397SOL    MW4 5356   5.209   3.052   0.962 -0.1109  0.2984  0.3420
 1398SOL     OW 5357   4.675   1.851   2.453 -0.0111 -0.2603  0.8849
 1398SOL    HW2 5358   4.666   1.756   2.455 -0.3036 -0.2471  0.3735
 1398SOL    HW3 5359   4.608   1.883   2.513 -1.1009 -0.3134 -0.2616
 1398SOL    MW4 5360   4.665   1.843   2.461  0.0212 -0.3666 -0.2933
 1399SOL     OW 5361   3.924   1.633   5.988 -0.3046  0.6840 -0.3709
 1399SOL    HW2 5362   3.997   1.571   5.987 -0.5052  0.2193  2.9073
 1399SOL    HW3 5363   3.943   1.693   5.916  2.2000 -0.6439 -0.9321
 1399SOL    MW4 5364   3.936   1.633   5.978  0.3642 -0.2976  0.1971
 1400SOL     OW 5365   1.725   5.708   0.754  0.6162  0.5179 -0.6654
 1400SOL    HW2 5366   1.634   5.717   0.783  0.8259  0.5801 -0.0031
 1400SOL    HW3 5367   1.762   5.796   0.761  0.6319  0.5639 -1.2779
 1400SOL    MW4 5368   1.718   5.721   0.759 -0.2988 -0.3109 -0.0084
 1401SOL     OW 5369   2.803   6.345   0.437 -0.0946 -0.1391 -0.2896
 1401SOL    HW2 5370   2.891   6.382   0.437 -0.7113  1.3830  0.7098
 1401SOL    HW3 5371   2.817   6.250   0.433  1.7597 -0.2039  3.7298
 1401SOL    MW4 5372   2.816   6.337   0.436  0.2880 -0.4058  0.0909
 1402SOL     OW 5373   0.061   0.829   2.055 -0.6918  0.0130 -0.2714
 1402SOL    HW2 5374   0.037   0.801   1.966 -0.4639 -0.3853 -0.2099
 1402SOL    HW3 5375   0.069   0.747   2.104 -0.9797  0.2400  0.1593
 1402SOL    MW4 5376   0.059   0.814   2.049  0.3466  0.2425  0.7769
 1403SOL     OW 5377   5.579   3.036   4.579  0.6148  0.0664  0.6049
 1403SOL    HW2 5378   5.621   2.972   4.521 -1.1720 -0.2610 -0.3953
 1403SOL    HW3 5379   5.504   3.067   4.530  0.7655  2.0836  1.5655
 1403SOL    MW4 5380   5.575   3.031   4.565 -0.2058 -0.0596 -0.7019
 1404SOL     OW 5381   5.877   0.847   5.259 -0.0662 -0.1292  1.4533
 1404SOL    HW2 5382   5.852   0.761   5.295 -0.3046 -0.8691 -0.3834
 1404SOL    HW3 5383   5.873   0.835   5.164  1.4388  1.4771  1.1424
 1404SOL    MW4 5384   5.874   0.834   5.251 -0.3538 -0.1386  0.0669
 1405SOL     OW 5385   1.439   0.468   0.837 -0.2377  0.6451  0.3272
 1405SOL    HW2 5386   1.511   0.491   0.896 -0.2334 -1.2660  1.1413
 1405SOL    HW3 5387   1.378   0.419   0.891 -0.6071 -0.4997 -1.0689
 1405SOL    MW4 5388   1.441   0.465   0.852 -0.0488  0.2048 -0.1515
 1406SOL     OW 5389   3.512   3.686   4.358  0.0221 -0.3354  0.4040
 1406SOL    HW2 5390   3.525   3.642   4.274  0.8552 -0.5487  0.6346
 1406SOL    HW3 5391   3.514   3.617   4.423  0.7505 -0.0377  0.7147
 1406SOL    MW4 5392   3.514   3.671   4.356  0.1333  0.3233  0.3101
 1407SOL     OW 5393   2.873   0.057   6.084  0.1754  0.2076  0.2841
 1407SOL    HW2 5394   2.831   0.117   6.146  0.0486 -1.5982  2.0507
 1407SOL    HW3 5395   2.827   0.073   6.002 -1.4689  0.8826  1.2664
 1407SOL    MW4 5396   2.861   0.067   6.082 -0.6557 -0.4226 -1.1308
 1408SOL     OW 5397   3.256   4.857   5.717  0.7465 -0.1998 -0.2109
 1408SOL    HW2 5398   3.250   4.782   5.658 -1.4996  0.0193 -0.3677
 1408SOL    HW3 5399   3.225   4.931   5.665  1.5194  0.5686  0.3913
 1408SOL    MW4 5400   3.251   4.857   5.702  0.1774 -0.0270  0.2466
 1409SOL     OW 5401   5.310   2.189   3.677  0.2714 -0.1626  0.7959
 1409SOL    HW2 5402   5.284   2.253   3.610  0.1612 -1.0005  0.0165
 1409SOL    HW3 5403   5.391   2.225   3.714 -0.5281  1.1180  1.3516
 1409SOL    MW4 5404   5.318   2.202   3.673 -0.3411  0.4199  0.2416
 1410SOL     OW 5405   2.880   1.979   6.029  0.1722 -0.1338  0.0336
 1410SOL    HW2 5406   2.859   1.897   5.985  0.4314  0.2129 -0.7525
 1410SOL    HW3 5407   2.892   2.042   5.958  3.0963 -0.1198  0.4331
 1410SOL    MW4 5408   2.878   1.976   6.014  0.1701 -0.7721 -0.1085
 1411SOL     OW 5409   0.116   3.813   5.273 -0.1670 -0.3127  0.2153
 1411SOL    HW2 5410   0.141   3.827   5.182  0.1252 -0.1858  0.3144
 1411SOL    HW3 5411   0.108   3.718   5.282  1.4968 -0.4494  0.5005
 1411SOL    MW4 5412   0.118   3.802   5.262 -0.4113  0.3978  0.1344
 1412SOL     OW 5413   4.749   1.944   0.310 -0.1136 -0.0777 -0.4245
 1412SOL    HW2 5414   4.758   1.855   0.275 -0.5172  0.3175 -1.5910
 1412SOL    HW3 5415   4.674   1.981   0.263 -0.4608  0.6176  0.6308
 1412SOL    MW4 5416   4.741   1.937   0.299  0.0103 -0.0004  0.2853
 1413SOL     OW 5417   0.832   2.387   2.193  0.3576 -0.5137  0.2575
 1413SOL    HW2 5418   0.800   2.299   2.172 -0.5886  0.3541 -2.2406
 1413SOL    HW3 5419   0.881   2.415   2.116  0.3921  1.2758  0.8675
 1413SOL    MW4 5420   0.834   2.379   2.180 -0.5943 -0.3228 -0.3127
 1414SOL     OW 5421   3.306   1.852   1.466 -0.1713 -0.7181  0.0571
 1414SOL    HW2 5422   3.358   1.848   1.386  0.2534 -0.3156  0.3016
 1414SOL    HW3 5423   3.219   1.822   1.440 -0.0787 -0.4561 -0.5868
 1414SOL    MW4 5424   3.301   1.848   1.452  0.0130 -0.2605 -0.4011
 1415SOL     OW 5425   5.596   5.343   2.335 -0.0493  0.2825 -0.5918
 1415SOL    HW2 5426   5.532   5.396   2.289  1.1132  1.8832 -0.4301
 1415SOL    HW3 5427   5.579   5.360   2.428  1.0790  1.3229 -0.5604
 1415SOL    MW4 5428   5.585   5.352   2.341  0.1704  0.1867  0.0971
 1416SOL     OW 5429   2.766   3.065   5.364  0.4862 -0.0239  0.4190
 1416SOL    HW2 5430   2.740   3.138   5.307  1.1894  0.2281  0.4053
 1416SOL    HW3 5431   2.732   2.987   5.320  1.3600  0.1314 -0.5837
 1416SOL    MW4 5432   2.758   3.065   5.350  0.2211  0.0295  0.0001
 1417SOL     OW 5433   5.368   3.907   4.966 -0.1672 -0.1378  0.2037
 1417SOL    HW2 5434   5.372   3.952   5.050 -1.7751 -0.5957  0.5681
 1417SOL    HW3 5435   5.304   3.957   4.915  0.0796 -0.4220 -0.3909
 1417SOL    MW4 5436   5.360   3.919   4.971 -0.3758  0.1939 -0.4685
 1418SOL     OW 5437   1.589   3.916   2.740 -0.5607 -0.5584 -0.3035
 1418SOL    HW2 5438   1.539   3.863   2.802 -0.2190 -0.9519 -0.3585
 1418SOL    HW3 5439   1.617   3.854   2.673  1.7550 -0.7857  0.7948
 1418SOL    MW4 5440   1.586   3.901   2.739 -0.8357 -0.6009  0.2267
 1419SOL     OW 5441   4.753   3.038   5.844 -0.0917 -0.2842 -0.4615
 1419SOL    HW2 5442   4.770   3.052   5.750 -1.2007 -0.6723 -0.7364
 1419SOL    HW3 5443   4.744   2.944   5.853 -3.7664 -0.1166 -0.7229
 1419SOL    MW4 5444   4.754   3.028   5.833  0.0777 -0.0361 -0.0124
 1420SOL     OW 5445   4.447   5.829   3.887  0.1293  0.6615  0.4124
 1420SOL    HW2 5446   4.440   5.911   3.936  0.3506  1.2057 -0.4687
 1420SOL    HW3 5447   4.474   5.854   3.799  1.3355 -0.4444  0.4305
 1420SOL    MW4 5448   4.450   5.843   3.882 -0.2001 -0.2767 -0.4316
 1421SOL     OW 5449   2.672   2.453   2.408 -0.8191 -0.2280 -0.9454
 1421SOL    HW2 5450   2.719   2.450   2.491 -1.4022 -1.1936 -0.6406
 1421SOL    HW3 5451   2.741   2.464   2.342 -0.4147  1.5680 -0.3018
 1421SOL    MW4 5452   2.687   2.454   2.410  0.0987 -0.1087 -0.5377
 1422SOL     OW 5453   1.346   2.220   4.401 -0.4525 -0.9960  0.3987
 1422SOL    HW2 5454   1.290   2.274   4.457 -0.3794 -1.1620  0.6315
 1422SOL    HW3 5455   1.324   2.247   4.312 -1.5067 -1.6450  0.4467
 1422SOL    MW4 5456   1.336   2.231   4.396  0.4630  0.0367  0.3484
 1423SOL     OW 5457   1.588   4.943   1.909 -0.3078 -0.0246  0.1214
 1423SOL    HW2 5458   1.569   4.852   1.933 -0.8125  0.3105  1.0314
 1423SOL    HW3 5459   1.627   4.981   1.988  0.5505  0.3681 -0.4754
 1423SOL    MW4 5460   1.591   4.936   1.923 -0.2564 -0.2902 -0.4314
 1424SOL     OW 5461   5.422   3.367   2.846 -0.2503  0.4935 -0.2293
 1424SOL    HW2 5462   5.514   3.388   2.855  0.2459 -1.1187 -1.0431
 1424SOL    HW3 5463   5.403   3.381   2.753 -0.3078 -0.9541 -0.4583
 1424SOL    MW4 5464   5.431   3.371   2.835 -0.0348  0.1643 -0.1612
 1425SOL     OW 5465   2.875   3.059   1.079  0.0264  0.3147  0.3549
 1425SOL    HW2 5466   2.825   3.011   1.013  1.0338  0.4688 -0.5447
 1425SOL    HW3 5467   2.911   3.134   1.031  0.7491  0.4428  1.0855
 1425SOL    MW4 5468   2.873   3.063   1.064  0.8555  0.3116  0.0684
 1426SOL     OW 5469   1.253   1.141   2.625 -0.1407  0.8245  0.1173
 1426SOL    HW2 5470   1.196   1.102   2.559 -0.8927  1.5219  0.3379
 1426SOL    HW3 5471   1.297   1.213   2.578 -0.4958  1.1673  0.3018
 1426SOL    MW4 5472   1.251   1.146   2.610  0.4304 -0.6855  0.5416
 1427SOL     OW 5473   3.705   5.650   1.914  0.3616 -0.0382 -0.0616
 1427SOL    HW2 5474   3.795   5.678   1.928  0.5018 -1.3895  2.1503
 1427SOL    HW3 5475   3.657   5.732   1.898  2.1108  0.5897 -2.7983
 1427SOL    MW4 5476   3.710   5.665   1.914  0.0150 -0.2426 -0.4059
 1428SOL     OW 5477   4.217   2.915   4.539  0.1796 -0.1777  0.0104
 1428SOL    HW2 5478   4.308   2.946   4.538 -0.4890  1.9412 -1.2148
 1428SOL    HW3 5479   4.224   2.823   4.562  2.6566 -0.0978 -0.1138
 1428SOL    MW4 5480   4.230   2.907   4.542 -0.1088  0.2627  0.0880
 1429SOL     OW 5481   5.833   0.064   5.922  0.1570  0.0845 -0.2000
 1429SOL    HW2 5482   5.743   0.032   5.933  0.2658 -0.2202 -0.1758
 1429SOL    HW3 5483   5.824   0.143   5.869 -0.3975  1.8023  2.2888
 1429SOL    MW4 5484   5.820   0.070   5.916  0.5001 -0.1285 -0.9756
 1430SOL     OW 5485   3.204   0.509   0.154  0.1519 -0.7738  0.0390
 1430SOL    HW2 5486   3.250   0.453   0.092 -0.9425 -1.8612  0.1812
 1430SOL    HW3 5487   3.123   0.533   0.109 -0.5478 -1.3822  0.9351
 1430SOL    MW4 5488   3.199   0.505   0.140 -0.1233 -0.2567 -0.2936
 1431SOL     OW 5489   0.037   2.378   4.440 -0.1228 -1.1816 -0.2010
 1431SOL    HW2 5490   0.021   2.369   4.346 -0.6614  0.6093 -0.3338
 1431SOL    HW3 5491   0.130   2.401   4.447 -0.4504  0.4054 -0.4958
 1431SOL    MW4 5492   0.047   2.380   4.428  0.7154 -0.8158 -0.5311
 1432SOL     OW 5493   1.301   2.643   1.833 -0.3236  0.0603 -0.1136
 1432SOL    HW2 5494   1.231   2.637   1.768  1.3508  1.3767 -2.1783
 1432SOL    HW3 5495   1.295   2.733   1.867 -1.2868 -0.6606  1.7761
 1432SOL    MW4 5496   1.291   2.654   1.829  0.5063 -0.4398  0.1628
 1433SOL     OW 5497   4.462   5.358   0.474  0.2632 -0.6400  0.4521
 1433SOL    HW2 5498   4.475   5.434   0.418 -0.9206 -0.4045  0.4815
 1433SOL    HW3 5499   4.408   5.298   0.422 -0.3958 -0.6476  1.1190
 1433SOL    MW4 5500   4.457   5.360   0.460  0.6810 -0.2106 -0.7013
 1434SOL     OW 5501   5.012   2.221   2.922 -0.2307  0.2743  0.3387
 1434SOL    HW2 5502   5.040   2.167   2.848  0.4240 -0.8843  1.3883
 1434SOL    HW3 5503   5.034   2.310   2.896  1.6698 -0.2863 -0.1625
 1434SOL    MW4 5504   5.019   2.226   2.909  0.5060  0.0713  0.1174
 1435SOL     OW 5505   4.155   3.005   1.870  0.1474  0.4750 -0.2289
 1435SOL    HW2 5506   4.215   2.931   1.873  0.4474  0.6446 -1.4173
 1435SOL    HW3 5507   4.096   2.992   1.944 -0.6851 -1.7027 -1.1920
 1435SOL    MW4 5508   4.155   2.994   1.880 -0.3870 -0.0713 -0.0946
 1436SOL     OW 5509   3.482   5.797   0.375 -0.0328 -0.6827  0.1734
 1436SOL    HW2 5510   3.458   5.732   0.441 -0.6261 -0.9381 -0.2849
 1436SOL    HW3 5511   3.491   5.878   0.425 -0.3069 -0.9033  0.5936
 1436SOL    MW4 5512   3.480   5.799   0.391  0.0436  0.9143 -0.1511
 1437SOL     OW 5513   4.454   4.781   3.969 -0.0440 -0.1715  0.0666
 1437SOL    HW2 5514   4.366   4.805   3.942  0.2697  3.9492  2.0188
 1437SOL    HW3 5515   4.454   4.790   4.065  2.4003 -0.4512  0.1678
 1437SOL    MW4 5516   4.442   4.785   3.978 -0.0122  0.1387 -0.0383
 1438SOL     OW 5517   0.029   0.724   0.264  0.2609 -0.1655  0.3617
 1438SOL    HW2 5518   0.120   0.729   0.234  0.4244 -0.7326  0.7466
 1438SOL    HW3 5519   0.036   0.716   0.359 -0.2239  0.7044  0.4795
 1438SOL    MW4 5520   0.042   0.724   0.273  0.2356 -0.0607 -0.0884
 1439SOL     OW 5521   3.058   1.092   0.349 -0.2546 -0.6000  0.9833
 1439SOL    HW2 5522   3.147   1.127   0.342 -0.7818  0.4491 -1.9294
 1439SOL    HW3 5523   3.006   1.167   0.378 -0.3279 -1.0064  1.9293
 1439SOL    MW4 5524   3.063   1.107   0.352 -0.0584  0.6490  0.6448
 1440SOL     OW 5525   2.412   5.229   2.727 -0.0983  0.0565 -0.0408
 1440SOL    HW2 5526   2.371   5.313   2.708 -0.0057  0.2818  0.7230
 1440SOL    HW3 5527   2.370   5.198   2.807  1.1411  0.2578  0.7187
 1440SOL    MW4 5528   2.401   5.236   2.735  0.1994 -0.1538 -0.1049
 1441SOL     OW 5529   5.668   0.118   5.018  0.0319  0.4783  0.5494
 1441SOL    HW2 5530   5.577   0.104   4.992  0.5417  0.1989 -1.2668
 1441SOL    HW3 5531   5.666   0.125   5.113 -2.1517  2.6565  0.4148
 1441SOL    MW4 5532   5.656   0.117   5.027 -0.3979 -0.3726 -0.1270
 1442SOL     OW 5533   3.770   0.745   0.516  0.1703 -0.2347 -0.4335
 1442SOL    HW2 5534   3.824   0.824   0.517  0.5947 -0.5148 -0.6722
 1442SOL    HW3 5535   3.828   0.677   0.549 -0.5645 -0.2220  0.9445
 1442SOL    MW4 5536   3.785   0.746   0.521  0.0617 -0.4947  0.3647
 1443SOL     OW 5537   2.697   1.701   4.915 -0.3572  0.0203  0.0903
 1443SOL    HW2 5538   2.663   1.678   4.829  0.6855 -0.0690 -0.3116
 1443SOL    HW3 5539   2.670   1.629   4.972  1.1413 -1.2576 -0.7270
 1443SOL    MW4 5540   2.689   1.689   4.911  0.6607 -0.4600  0.1794
 1444SOL     OW 5541   4.538   2.698   3.195 -0.3126  0.2608  0.3160
 1444SOL    HW2 5542   4.470   2.690   3.261 -0.9120 -0.8354 -0.4086
 1444SOL    HW3 5543   4.602   2.630   3.218 -0.8501 -0.5738 -0.5822
 1444SOL    MW4 5544   4.538   2.688   3.207  0.4799  0.1279 -0.1317
 1445SOL     OW 5545   2.226   5.616   0.840  0.3816  0.6750  0.9033
 1445SOL    HW2 5546   2.135   5.612   0.810  1.1135  2.6459 -2.0052
 1445SOL    HW3 5547   2.226   5.683   0.908 -0.5434 -0.5018  2.1193
 1445SOL    MW4 5548   2.214   5.624   0.845 -0.1308 -0.4778 -0.0136
 1446SOL     OW 5549   5.843   0.629   3.339  0.4464  0.5279 -0.2900
 1446SOL    HW2 5550   5.750   0.650   3.350  0.2455  0.2371 -1.3637
 1446SOL    HW3 5551   5.885   0.668   3.416 -0.5891  0.4395  0.3449
 1446SOL    MW4 5552   5.836   0.637   3.351 -0.3913  0.1379 -0.1957
 1447SOL     OW 5553   2.935   1.000   1.071 -0.5111  0.1369 -0.5649
 1447SOL    HW2 5554   2.863   1.056   1.099 -0.8316  0.3832 -1.8344
 1447SOL    HW3 5555   2.901   0.911   1.077 -0.5512  0.1772 -0.1415
 1447SOL    MW4 5556   2.921   0.996   1.076  0.0712 -0.2928  0.1610
 1448SOL     OW 5557   2.219   5.195   1.409 -0.0188 -0.7869  0.2523
 1448SOL    HW2 5558   2.222   5.259   1.338  1.2528 -1.3318 -0.1977
 1448SOL    HW3 5559   2.133   5.210   1.450 -0.7010 -0.3546 -1.2668
 1448SOL    MW4 5560   2.208   5.206   1.405 -0.1758 -0.2489 -0.3994
 1449SOL     OW 5561   2.176   5.167   6.020 -0.3196 -0.1567 -0.0415
 1449SOL    HW2 5562   2.248   5.154   5.958  0.8227  1.2233  0.9447
 1449SOL    HW3 5563   2.157   5.260   6.016 -0.0904 -0.0033  1.8037
 1449SOL    MW4 5564   2.183   5.177   6.011 -0.2880  0.0434 -0.3123
 1450SOL     OW 5565   4.468   6.014   3.161 -0.2152 -0.0827 -0.1209
 1450SOL    HW2 5566   4.443   5.938   3.108 -1.3908  0.1658  0.0600
 1450SOL    HW3 5567   4.475   6.086   3.099 -1.3475  0.1524  0.0011
 1450SOL    MW4 5568   4.466   6.014   3.146  0.0397 -0.3204 -0.0252
 1451SOL     OW 5569   4.264   5.295   5.935  0.3722  0.7153 -0.3705
 1451SOL    HW2 5570   4.173   5.317   5.953  0.3912 -0.2840  1.0784
 1451SOL    HW3 5571   4.274   5.312   5.841 -1.4011  0.5153 -0.6298
 1451SOL    MW4 5572   4.253   5.300   5.925 -0.8095  0.0047 -0.2451
 1452SOL     OW 5573   6.201   0.740   2.735 -1.1940  0.2966 -0.2058
 1452SOL    HW2 5574   6.152   0.799   2.678 -1.6552 -0.2639 -0.3926
 1452SOL    HW3 5575   6.291   0.745   2.703 -1.8025 -1.8425 -2.5936
 1452SOL    MW4 5576   6.206   0.749   2.723 -0.2314 -0.1435 -0.6180
 1453SOL     OW 5577   4.513   1.132   4.775 -0.1263  0.3285 -0.2550
 1453SOL    HW2 5578   4.532   1.039   4.786  2.0016  0.8253  0.6590
 1453SOL    HW3 5579   4.431   1.145   4.823  0.7864 -0.6602  1.7066
 1453SOL    MW4 5580   4.505   1.122   4.783  0.0866 -0.0295  0.2025
 1454SOL     OW 5581   1.338   4.890   5.033  0.1222 -0.0951  0.8251
 1454SOL    HW2 5582   1.268   4.952   5.011 -0.9428 -0.8139  2.0455
 1454SOL    HW3 5583   1.419   4.940   5.022 -0.7113  1.7166  2.2930
 1454SOL    MW4 5584   1.339   4.905   5.029  0.1017 -0.4180  0.3667
 1455SOL     OW 5585   2.179   4.554   4.549  0.0578  0.5870  0.0017
 1455SOL    HW2 5586   2.260   4.575   4.595  0.7864 -1.3276 -0.3328
 1455SOL    HW3 5587   2.206   4.537   4.459 -0.2175 -2.8568  0.4572
 1455SOL    MW4 5588   2.193   4.555   4.543  0.2836 -0.5824 -0.0045
 1456SOL     OW 5589   3.162   3.192   4.847 -0.2687  0.2141 -0.3810
 1456SOL    HW2 5590   3.248   3.195   4.890 -0.6388 -3.4016  0.9869
 1456SOL    HW3 5591   3.176   3.138   4.769 -1.0892  0.6289 -0.8287
 1456SOL    MW4 5592   3.175   3.185   4.842  0.6403  0.1694 -0.7732
 1457SOL     OW 5593   1.316   2.873   2.133 -0.1810 -0.0229 -0.7482
 1457SOL    HW2 5594   1.231   2.911   2.153 -0.0863  0.5047 -1.3277
 1457SOL    HW3 5595   1.319   2.870   2.037  1.4247  2.2238 -0.8454
 1457SOL    MW4 5596   1.305   2.877   2.123  0.0955  0.5927 -0.0734
 1458SOL     OW 5597   4.656   1.887   0.910 -0.4201  0.1922 -0.1835
 1458SOL    HW2 5598   4.623   1.964   0.864 -2.1682  0.3234  1.1999
 1458SOL    HW3 5599   4.594   1.817   0.889  0.1283 -0.3687  0.0257
 1458SOL    MW4 5600   4.644   1.888   0.901  0.4232  0.4708 -0.0846
 1459SOL     OW 5601   0.591   4.917   3.460  0.3133 -0.5728 -0.0246
 1459SOL    HW2 5602   0.573   4.826   3.439  2.4086 -0.9140 -0.5291
 1459SOL    HW3 5603   0.623   4.955   3.378  0.5346  0.3029  0.4514
 1459SOL    MW4 5604   0.593   4.910   3.446 -0.4472 -0.2294 -0.2075
 1460SOL     OW 5605   5.807   4.286   1.957  0.2791 -0.2150  0.2037
 1460SOL    HW2 5606   5.757   4.287   1.876  1.4193 -0.4540 -0.5285
 1460SOL    HW3 5607   5.741   4.288   2.026 -0.7635 -1.4028 -0.7152
 1460SOL    MW4 5608   5.792   4.286   1.956  0.3772 -0.0988 -0.7471
 1461SOL     OW 5609   0.109   4.008   2.313  0.0613 -0.1829 -0.3911
 1461SOL    HW2 5610   0.058   3.984   2.390  1.6891 -0.6227  0.6114
 1461SOL    HW3 5611   0.143   4.096   2.333 -0.1008  0.0026 -0.9263
 1461SOL    MW4 5612   0.107   4.016   2.326  0.4980 -0.5362 -0.0892
 1462SOL     OW 5613   5.353   6.288   3.233 -0.6829  0.2887  0.1063
 1462SOL    HW2 5614   5.351   6.374   3.192 -2.4740 -0.2949 -1.1570
 1462SOL    HW3 5615   5.443   6.256   3.219 -0.3964  1.3773 -0.6065
 1462SOL    MW4 5616   5.365   6.295   3.226  0.2018 -0.1638 -0.5831
 1463SOL     OW 5617   6.365   4.490   5.517 -0.4228 -0.4479  0.0293
 1463SOL    HW2 5618   6.332   4.483   5.607  0.2329  0.6134  0.3684
 1463SOL    HW3 5619   6.310   4.429   5.467 -0.4336 -1.4979  1.2406
 1463SOL    MW4 5620   6.353   4.481   5.522 -0.4106  0.3323  0.4809
 1464SOL     OW 5621   0.837   4.855   0.334 -0.1933 -0.2731  0.4441
 1464SOL    HW2 5622   0.931   4.871   0.338  0.0666 -1.0024 -1.6588
 1464SOL    HW3 5623   0.799   4.939   0.308  0.0455 -0.3191 -0.0727
 1464SOL    MW4 5624   0.844   4.868   0.331  0.0474  0.3322  0.0096
 1465SOL     OW 5625   1.650   6.398   0.730 -0.0938  0.2999  0.2508
 1465SOL    HW2 5626   1.713   6.359   0.670 -0.2386  1.1702 -0.4947
 1465SOL    HW3 5627   1.600   6.324   0.765 -0.9749 -0.1389 -1.7992
 1465SOL    MW4 5628   1.652   6.383   0.727  0.0855 -0.0032 -0.2796
 1466SOL     OW 5629   3.138   4.141   3.738 -0.3808 -0.2806 -0.0801
 1466SOL    HW2 5630   3.182   4.062   3.706 -0.5423 -0.7751  0.8948
 1466SOL    HW3 5631   3.118   4.122   3.829  2.0040  1.9193  1.0164
 1466SOL    MW4 5632   3.141   4.128   3.746 -0.0876 -0.2020  0.3012
 1467SOL     OW 5633   0.995   2.695   5.392  0.3838 -0.0796  0.5211
 1467SOL    HW2 5634   0.951   2.638   5.329  0.2126  0.6368 -0.0137
 1467SOL    HW3 5635   1.082   2.708   5.354  0.4172  0.0297  0.6380
 1467SOL    MW4 5636   1.001   2.689   5.378 -0.3229  0.4132 -0.1870
 1468SOL     OW 5637   2.638   4.268   1.303 -0.2669 -0.1981  0.2438
 1468SOL    HW2 5638   2.711   4.240   1.358 -1.3883 -1.5503  1.0912
 1468SOL    HW3 5639   2.562   4.270   1.362 -1.5272 -1.7748 -1.2184
 1468SOL    MW4 5640   2.638   4.265   1.318  0.0681  0.3131 -0.2692
 1469SOL     OW 5641   0.792   0.806   5.705 -0.0342 -0.0950 -0.0426
 1469SOL    HW2 5642   0.774   0.831   5.795  1.6461  1.8571 -0.1796
 1469SOL    HW3 5643   0.705   0.790   5.667 -0.8199 -0.1720  1.6732
 1469SOL    MW4 5644   0.778   0.807   5.712 -0.4544 -0.2523 -0.0523
 1470SOL     OW 5645   1.336   1.782   1.396 -0.0264 -0.3031  0.3371
 1470SOL    HW2 5646   1.364   1.693   1.374 -0.2427 -0.1133 -0.7560
 1470SOL    HW3 5647   1.418   1.830   1.410  0.0826 -0.7822  1.4157
 1470SOL    MW4 5648   1.351   1.776   1.395  0.6519  0.3279  0.6051
 1471SOL     OW 5649   5.848   0.221   2.455  0.2976 -0.5457 -0.7098
 1471SOL    HW2 5650   5.838   0.193   2.546  1.0499 -0.2277 -0.5207
 1471SOL    HW3 5651   5.792   0.162   2.405 -2.9385  1.4499  0.2852
 1471SOL    MW4 5652   5.839   0.210   2.461 -0.1264 -0.8439  0.2211
 1472SOL     OW 5653   1.620   5.433   5.112  0.4697 -0.0379  0.1119
 1472SOL    HW2 5654   1.599   5.526   5.120  3.1049  0.6322 -0.0948
 1472SOL    HW3 5655   1.535   5.389   5.119 -0.7900  2.3307  0.6906
 1472SOL    MW4 5656   1.606   5.439   5.114 -0.1703  0.4355  0.2175
 1473SOL     OW 5657   2.284   1.345   3.690 -0.4174 -0.1775 -0.4853
 1473SOL    HW2 5658   2.326   1.265   3.659 -1.5095  0.2459 -3.3769
 1473SOL    HW3 5659   2.193   1.336   3.662 -0.1419  2.9466 -3.0005
 1473SOL    MW4 5660   2.277   1.333   3.682  0.0051  0.2087 -0.1395
 1474SOL     OW 5661   0.386   0.337   1.616 -0.0699  0.0234 -0.6019
 1474SOL    HW2 5662   0.305   0.372   1.652 -0.4824  0.5529 -1.9911
 1474SOL    HW3 5663   0.436   0.415   1.591  0.5267 -0.3192 -0.4959
 1474SOL    MW4 5664   0.382   0.352   1.617  0.3323 -0.1353  0.3657
 1475SOL     OW 5665   2.134   2.320   5.359  0.3086  0.4516 -0.7663
 1475SOL    HW2 5666   2.078   2.333   5.282 -0.4398 -2.3799 -0.7834
 1475SOL    HW3 5667   2.097   2.244   5.404  0.5759  2.1010  2.6012
 1475SOL    MW4 5668   2.122   2.312   5.355  0.2519 -0.0517 -0.7036
 1476SOL     OW 5669   4.111   1.102   3.175 -0.0684 -0.2184  0.0292
 1476SOL    HW2 5670   4.100   1.052   3.256  0.5926  0.0911  0.3152
 1476SOL    HW3 5671   4.050   1.061   3.113 -0.8098 -0.2679  0.7633
 1476SOL    MW4 5672   4.101   1.090   3.177  0.4292  0.3816  0.0462
 1477SOL     OW 5673   4.695   6.392   5.751  0.0815  0.2494  0.3437
 1477SOL    HW2 5674   4.659   6.315   5.796 -1.1004  0.8705  0.5096
 1477SOL    HW3 5675   4.695   6.461   5.817  1.1993  0.3805  0.2138
 1477SOL    MW4 5676   4.690   6.391   5.765 -0.3311 -0.3495 -0.1724
 1478SOL     OW 5677   4.358   0.577   3.055 -0.0778  0.2397 -0.5495
 1478SOL    HW2 5678   4.352   0.642   2.985 -0.3027  1.6220  0.7014
 1478SOL    HW3 5679   4.452   0.564   3.068 -0.0370 -0.1211 -1.1892
 1478SOL    MW4 5680   4.369   0.584   3.048 -0.7143  0.6920 -0.0798
 1479SOL     OW 5681   0.154   3.641   6.243 -0.0425  0.3121 -0.0397
 1479SOL    HW2 5682   0.089   3.705   6.213 -0.8176 -0.5755 -0.3089
 1479SOL    HW3 5683   0.118   3.607   6.324  0.4061  0.2679  0.1437
 1479SOL    MW4 5684   0.141   3.645   6.250 -0.2748 -0.2058  0.1495
 1480SOL     OW 5685   1.922   2.737   1.862 -0.4614 -0.0924  0.4048
 1480SOL    HW2 5686   1.946   2.828   1.843  0.0233  0.0378  1.5382
 1480SOL    HW3 5687   1.936   2.691   1.780  1.1851  0.4863  0.3274
 1480SOL    MW4 5688   1.927   2.743   1.849  0.2710  0.0879 -0.3497
 1481SOL     OW 5689   1.253   1.813   5.659  0.5807 -0.0052  0.1400
 1481SOL    HW2 5690   1.299   1.879   5.607 -0.1267 -0.0209 -0.5226
 1481SOL    HW3 5691   1.207   1.759   5.595  2.3532 -2.1330  0.5384
 1481SOL    MW4 5692   1.253   1.815   5.644 -0.5177 -0.2853  0.1895
 1482SOL     OW 5693   3.067   5.155   0.549  0.1076 -0.4358 -0.0364
 1482SOL    HW2 5694   2.986   5.177   0.594  0.2529 -1.7699  0.9262
 1482SOL    HW3 5695   3.096   5.074   0.590  2.9970  1.0010  1.0849
 1482SOL    MW4 5696   3.060   5.147   0.560  0.4267 -0.1133 -0.7340
 1483SOL     OW 5697   4.394   1.763   0.816  0.2995  0.0080  0.2740
 1483SOL    HW2 5698   4.406   1.844   0.766  1.8329 -0.3030  0.0897
 1483SOL    HW3 5699   4.347   1.705   0.756  0.9217  0.1002 -0.3057
 1483SOL    MW4 5700   4.389   1.766   0.802  0.2052  0.2588  0.3273
 1484SOL     OW 5701   5.372   3.750   0.852  0.2382 -0.1563  0.6064
 1484SOL    HW2 5702   5.379   3.663   0.893  1.8469  0.6120  2.0665
 1484SOL    HW3 5703   5.392   3.734   0.759  1.3349 -1.2258  1.0041
 1484SOL    MW4 5704   5.376   3.736   0.845  0.2852  0.1704  0.3332
 1485SOL     OW 5705   2.596   2.301   5.255  0.1062  0.3093  0.4036
 1485SOL    HW2 5706   2.686   2.309   5.226  0.1524  0.1163  0.4938
 1485SOL    HW3 5707   2.547   2.359   5.196  0.4286  1.2370  1.0320
 1485SOL    MW4 5708   2.601   2.310   5.243 -0.1580 -0.0952  0.4369
 1486SOL     OW 5709   0.894   4.947   1.066 -0.3388  0.0969  0.0812
 1486SOL    HW2 5710   0.948   4.967   0.990 -1.8820  0.2810 -1.0087
 1486SOL    HW3 5711   0.822   4.896   1.031 -1.8950  1.4672  1.1372
 1486SOL    MW4 5712   0.892   4.943   1.052  0.2412  0.1599 -0.4835
 1487SOL     OW 5713   2.378   3.868   5.693  0.0432  0.2471  0.2457
 1487SOL    HW2 5714   2.407   3.847   5.604  0.4899 -0.0375  0.4531
 1487SOL    HW3 5715   2.459   3.867   5.745 -0.1174  1.1578  0.5148
 1487SOL    MW4 5716   2.393   3.865   5.688 -0.1900  0.1753 -0.0195
 1488SOL     OW 5717   0.884   1.348   2.588  0.1040  0.2959 -0.0279
 1488SOL    HW2 5718   0.891   1.320   2.497  2.3102 -2.6379  0.9024
 1488SOL    HW3 5719   0.974   1.351   2.620 -0.6573  0.2374  2.3346
 1488SOL    MW4 5720   0.897   1.345   2.580 -0.3475 -0.3955 -0.0062
 1489SOL     OW 5721   0.591   3.133   1.341 -0.1970  0.3426 -0.1120
 1489SOL    HW2 5722   0.521   3.075   1.313 -0.9404  0.7659  0.8281
 1489SOL    HW3 5723   0.556   3.178   1.418  2.5712 -2.4823  3.0921
 1489SOL    MW4 5724   0.577   3.131   1.348 -0.7656 -0.9040 -0.3697
 1490SOL     OW 5725   3.641   2.728   5.076 -0.7350 -0.2743  0.2523
 1490SOL    HW2 5726   3.709   2.757   5.137 -0.9355  1.7185 -0.3763
 1490SOL    HW3 5727   3.559   2.751   5.121 -0.9150 -0.2367 -0.0964
 1490SOL    MW4 5728   3.639   2.735   5.090  0.6237 -0.2673 -0.0623
 1491SOL     OW 5729   1.651   4.561   5.034  0.5914  0.3331 -0.1760
 1491SOL    HW2 5730   1.721   4.522   5.086  1.1570 -0.5260 -1.5368
 1491SOL    HW3 5731   1.627   4.493   4.971  0.8933  1.7833 -1.9519
 1491SOL    MW4 5732   1.657   4.546   5.033 -0.5076  0.0129  0.1429
 1492SOL     OW 5733   3.873   4.823   1.356  0.0893  0.6191  0.0686
 1492SOL    HW2 5734   3.793   4.771   1.363  1.0833 -1.0233 -0.2119
 1492SOL    HW3 5735   3.880   4.844   1.263 -0.5521  1.7045  0.2460
 1492SOL    MW4 5736   3.863   4.819   1.344  1.0760 -0.0855 -0.0345
 1493SOL     OW 5737   4.636   2.047   5.924 -0.6260 -0.3976 -0.2616
 1493SOL    HW2 5738   4.680   1.962   5.917  1.2047  0.2940  1.7027
 1493SOL    HW3 5739   4.644   2.070   6.016  0.3262  2.5721 -0.9787
 1493SOL    MW4 5740   4.643   2.038   5.935  0.0492  0.2508 -0.0693
 1494SOL     OW 5741   0.163   5.575   0.970 -0.0558 -0.4895 -0.2316
 1494SOL    HW2 5742   0.220   5.498   0.962 -0.6793 -0.7740 -4.0845
 1494SOL    HW3 5743   0.075   5.539   0.972 -0.2775  0.0793  1.5834
 1494SOL    MW4 5744   0.159   5.560   0.969  0.3051 -0.1666  0.0307
 1495SOL     OW 5745   2.114   3.371   4.115 -0.6574  0.0448 -0.1008
 1495SOL    HW2 5746   2.152   3.444   4.065 -0.3375  0.4888  0.7569
 1495SOL    HW3 5747   2.106   3.406   4.204 -0.9303 -0.8259  0.2210
 1495SOL    MW4 5748   2.118   3.386   4.120 -0.1537  0.8701  0.2044
 1496SOL     OW 5749   1.010   1.490   2.956  0.7959 -0.1065  0.3195
 1496SOL    HW2 5750   1.038   1.450   2.874  1.0281 -0.1773  0.4324
 1496SOL    HW3 5751   1.092   1.517   2.999  0.6967 -0.3303  0.6584
 1496SOL    MW4 5752   1.025   1.488   2.951 -0.1348 -0.3600 -0.5572
 1497SOL     OW 5753   4.256   1.275   6.325 -0.1674 -0.3143  0.2148
 1497SOL    HW2 5754   4.225   1.241   6.409 -1.4018  1.1712  0.4130
 1497SOL    HW3 5755   4.323   1.340   6.349 -0.8168  0.4161  0.1112
 1497SOL    MW4 5756   4.260   1.279   6.339 -0.7692  0.0135 -0.2507
 1498SOL     OW 5757   6.351   3.361   2.814 -0.0111 -0.1123 -0.4468
 1498SOL    HW2 5758   6.338   3.294   2.746  1.0776 -0.1768 -0.6146
 1498SOL    HW3 5759   6.444   3.353   2.836 -0.0946  0.7165  0.2054
 1498SOL    MW4 5760   6.362   3.351   2.808  0.0369 -0.2788  0.5267
 1499SOL     OW 5761   5.348   3.441   5.527  0.8903 -0.4507 -0.3518
 1499SOL    HW2 5762   5.269   3.427   5.578  1.2585  0.0082  0.3554
 1499SOL    HW3 5763   5.324   3.507   5.463  1.4391  1.8539  1.6826
 1499SOL    MW4 5764   5.335   3.448   5.525  0.3902 -0.2615  0.0700
 1500SOL     OW 5765   5.307   1.568   3.408 -0.0144  0.1197  0.1246
 1500SOL    HW2 5766   5.245   1.600   3.343 -2.2076 -2.6617  0.6457
 1500SOL    HW3 5767   5.258   1.570   3.490  1.5413  0.3672  1.0768
 1500SOL    MW4 5768   5.292   1.573   3.410  0.4322 -0.2589  1.1153
 1501SOL     OW 5769   4.976   3.205   2.495 -0.2127 -0.0339 -0.0034
 1501SOL    HW2 5770   5.027   3.272   2.540 -1.1203  0.3144  0.5405
 1501SOL    HW3 5771   4.896   3.250   2.468 -0.2663 -0.5787 -0.7793
 1501SOL    MW4 5772   4.972   3.220   2.497  0.3262  0.6879 -0.4646
 1502SOL     OW 5773   5.151   5.616   1.926  0.3710 -0.0096  0.4849
 1502SOL    HW2 5774   5.241   5.584   1.934  1.0226  1.7921  0.9295
 1502SOL    HW3 5775   5.107   5.550   1.873  3.2941  1.4232 -4.4298
 1502SOL    MW4 5776   5.157   5.603   1.920  0.5161 -0.8188  0.0155
 1503SOL     OW 5777   5.792   2.059   2.001  0.8210 -0.9241  0.1505
 1503SOL    HW2 5778   5.711   2.110   1.996  0.4989 -1.2176  1.7370
 1503SOL    HW3 5779   5.856   2.121   2.036  0.7150 -1.2737  0.9873
 1503SOL    MW4 5780   5.789   2.074   2.005  0.4026 -0.5119  0.2207
 1504SOL     OW 5781   2.331   5.975   1.434 -0.0766  0.8299  0.3816
 1504SOL    HW2 5782   2.368   5.952   1.348  0.7896  0.5035  0.8325
 1504SOL    HW3 5783   2.299   5.892   1.469  0.9489  0.6787  1.0115
 1504SOL    MW4 5784   2.332   5.961   1.427  0.1928 -0.0845 -0.8136
 1505SOL     OW 5785   5.036   2.550   4.426 -0.2173  0.1381 -0.4162
 1505SOL    HW2 5786   4.953   2.594   4.408 -0.6140 -0.1860  0.5591
 1505SOL    HW3 5787   5.031   2.525   4.518  1.4900  1.2451  0.0263
 1505SOL    MW4 5788   5.025   2.552   4.436  0.6708 -0.2196 -0.1400
 1506SOL     OW 5789   1.129   5.237   0.464  0.3378  0.5420 -0.3372
 1506SOL    HW2 5790   1.064   5.296   0.502 -0.0497  0.3820 -0.7509
 1506SOL    HW3 5791   1.093   5.213   0.379  1.0546  0.6593 -0.6864
 1506SOL    MW4 5792   1.116   5.242   0.458  0.5533  0.5021  0.2307
 1507SOL     OW 5793   0.964   5.420   5.875 -0.3993 -0.4516  0.4134
 1507SOL    HW2 5794   1.031   5.352   5.869  0.7228  0.4688  1.7478
 1507SOL    HW3 5795   0.962   5.460   5.789  1.1042 -0.2177  0.4665
 1507SOL    MW4 5796   0.973   5.416   5.863 -0.9737 -0.5046 -0.1376
 1508SOL     OW 5797   0.449   2.698   1.734  0.4840  0.0628 -0.5485
 1508SOL    HW2 5798   0.448   2.773   1.675  1.9542 -0.4133 -1.2094
 1508SOL    HW3 5799   0.440   2.622   1.677  0.3131 -0.3317 -0.0069
 1508SOL    MW4 5800   0.447   2.698   1.719 -0.4271  0.0255 -0.6810
 1509SOL     OW 5801   2.298   2.803   1.706 -0.6038  0.1693  0.0631
 1509SOL    HW2 5802   2.367   2.869   1.698  0.4390 -0.8715  0.2111
 1509SOL    HW3 5803   2.244   2.834   1.778  0.6816  0.1870  1.0627
 1509SOL    MW4 5804   2.300   2.816   1.714 -0.4504 -0.0364  0.0988
 1510SOL     OW 5805   3.853   0.110   3.642  0.7487 -0.1073  0.8148
 1510SOL    HW2 5806   3.911   0.037   3.661  0.6170  0.1802  2.4276
 1510SOL    HW3 5807   3.862   0.169   3.717 -0.4448  0.6953  0.3610
 1510SOL    MW4 5808   3.862   0.108   3.654 -0.0548 -0.4156  0.4045
 1511SOL     OW 5809   0.463   4.718   4.770  0.5406 -0.1645 -0.1370
 1511SOL    HW2 5810   0.478   4.640   4.824 -2.5061  0.5560  2.0030
 1511SOL    HW3 5811   0.455   4.789   4.834 -2.4516  0.8785 -1.4912
 1511SOL    MW4 5812   0.464   4.717   4.786  0.0075 -0.8467  0.1593
 1512SOL     OW 5813   5.837   2.221   3.095  0.2773  0.7370 -0.1234
 1512SOL    HW2 5814   5.836   2.315   3.077  1.5011  0.7816 -0.0443
 1512SOL    HW3 5815   5.930   2.198   3.098  0.0489 -0.1232  1.7270
 1512SOL    MW4 5816   5.849   2.230   3.093 -0.1930 -0.3023 -0.7458
 1513SOL     OW 5817   4.533   2.018   0.180  0.5256  0.2647  0.3638
 1513SOL    HW2 5818   4.492   2.097   0.145  0.1712  0.0420  0.2615
 1513SOL    HW3 5819   4.463   1.976   0.231  0.3632 -0.5647 -0.5083
 1513SOL    MW4 5820   4.518   2.023   0.182 -0.1643 -0.5190  0.1021
 1514SOL     OW 5821   4.299   5.736   1.791 -0.0633 -0.3327  0.6381
 1514SOL    HW2 5822   4.391   5.711   1.797 -0.3310 -0.9516  2.9055
 1514SOL    HW3 5823   4.299   5.809   1.729  1.5178 -2.1261 -1.6603
 1514SOL    MW4 5824   4.311   5.742   1.783 -0.0117 -0.3490 -0.4287
 1515SOL     OW 5825   4.566   0.570   2.771 -0.3083  0.0205  0.7155
 1515SOL    HW2 5826   4.605   0.648   2.811  2.4581 -0.1402 -1.3974
 1515SOL    HW3 5827   4.582   0.500   2.834  0.6523  0.4478  0.9655
 1515SOL    MW4 5828   4.573   0.571   2.784 -0.1933 -0.3506 -0.2011
 1516SOL     OW 5829   2.541   3.272   2.017  0.0467  0.0772 -0.1109
 1516SOL    HW2 5830   2.551   3.344   2.079  0.3479 -0.7240  0.8068
 1516SOL    HW3 5831   2.592   3.298   1.941 -0.2929  1.0620 -0.0172
 1516SOL    MW4 5832   2.549   3.285   2.015  0.2728 -0.3022  0.6762
 1517SOL     OW 5833   1.138   1.761   0.456  0.5203  0.0925  0.6527
 1517SOL    HW2 5834   1.205   1.745   0.389 -0.0865 -1.6750  0.4093
 1517SOL    HW3 5835   1.188   1.768   0.538  1.3916  3.4451  0.0023
 1517SOL    MW4 5836   1.153   1.760   0.458 -0.1039  0.0933 -0.1061
 1518SOL     OW 5837   2.995   5.601   4.944 -0.1440 -0.4326 -0.6540
 1518SOL    HW2 5838   2.933   5.635   4.880 -1.2864  1.2793  1.2435
 1518SOL    HW3 5839   2.942   5.544   5.000  0.4718 -0.6311 -0.2674
 1518SOL    MW4 5840   2.980   5.598   4.943 -0.3386 -0.1351 -0.2548
 1519SOL     OW 5841   5.801   1.216   3.052 -0.2065  0.0295 -0.6133
 1519SOL    HW2 5842   5.800   1.299   3.101 -0.2151  0.5531 -1.4688
 1519SOL    HW3 5843   5.876   1.224   2.993  1.1685 -1.5313  0.8411
 1519SOL    MW4 5844   5.811   1.228   3.051  0.1519  0.0613  0.4475
 1520SOL     OW 5845   1.354   2.102   1.619  0.0132 -0.2853 -0.4630
 1520SOL    HW2 5846   1.448   2.099   1.638  0.2440 -0.5867 -1.5547
 1520SOL    HW3 5847   1.315   2.142   1.696  1.4060  2.7468 -1.2012
 1520SOL    MW4 5848   1.362   2.107   1.631  0.1623 -0.4731  0.0774
 1521SOL     OW 5849   4.132   5.734   3.008 -0.4315  0.3653  0.1241
 1521SOL    HW2 5850   4.125   5.746   3.102  1.4351 -0.3138  0.3993
 1521SOL    HW3 5851   4.226   5.728   2.992 -0.6711  1.1134 -1.8737
 1521SOL    MW4 5852   4.144   5.735   3.018 -0.3169 -0.3035  0.6470
 1522SOL     OW 5853   3.110   3.564   0.832  0.5102  0.2778  0.7560
 1522SOL    HW2 5854   3.110   3.650   0.790 -0.4067 -0.5381 -0.9942
 1522SOL    HW3 5855   3.031   3.564   0.886  0.5529  0.5548  0.8187
 1522SOL    MW4 5856   3.100   3.575   0.834  0.0211 -0.7229 -1.0897
 1523SOL     OW 5857   5.702   5.200   2.089  0.0601 -0.3483 -0.2986
 1523SOL    HW2 5858   5.753   5.264   2.039 -0.2800 -0.2026 -0.4623
 1523SOL    HW3 5859   5.665   5.250   2.162  0.1810 -0.4624 -0.1574
 1523SOL    MW4 5860   5.704   5.215   2.092 -0.4769 -0.5124 -0.4494
 1524SOL     OW 5861   2.758   1.221   1.789 -0.0112  0.5790  0.7715
 1524SOL    HW2 5862   2.779   1.315   1.794 -0.6429  0.8090 -0.3787
 1524SOL    HW3 5863   2.692   1.216   1.719 -0.0266 -0.7188  0.8693
 1524SOL    MW4 5864   2.752   1.233   1.780  0.1457 -0.3761 -0.1866
 1525SOL     OW 5865   1.447   0.925   2.649 -0.5553 -0.7585  0.2057
 1525SOL    HW2 5866   1.415   0.875   2.724  0.8315 -0.1506  1.2441
 1525SOL    HW3 5867   1.385   0.996   2.638 -1.4178 -1.5250  0.0102
 1525SOL    MW4 5868   1.435   0.927   2.657 -0.0536 -0.2887  0.4981
 1526SOL     OW 5869   1.931   4.192   2.151 -0.3704 -0.1751  0.3188
 1526SOL    HW2 5870   2.015   4.225   2.181 -0.4343 -0.3040  0.6363
 1526SOL    HW3 5871   1.953   4.112   2.102 -0.0458  1.1667 -1.8590
 1526SOL    MW4 5872   1.945   4.185   2.148  0.0840 -0.0135  0.0943
 1527SOL     OW 5873   6.232   1.114   2.463 -0.0875 -0.5999  0.1590
 1527SOL    HW2 5874   6.229   1.170   2.540  0.4718  0.7088 -0.7256
 1527SOL    HW3 5875   6.179   1.038   2.486 -0.7032  0.1978  1.4812
 1527SOL    MW4 5876   6.224   1.112   2.476  0.5712 -0.3710 -0.1197
 1528SOL     OW 5877   6.258   5.553   2.817 -0.2500  0.5793  0.2355
 1528SOL    HW2 5878   6.341   5.530   2.859  0.7255  1.7326 -0.9521
 1528SOL    HW3 5879   6.253   5.649   2.824 -1.0274  0.6101 -0.5046
 1528SOL    MW4 5880   6.268   5.563   2.823 -0.3392 -0.2608 -0.2446
 1529SOL     OW 5881   3.475   3.970   2.029 -0.9846  0.4945  0.1919
 1529SOL    HW2 5882   3.421   3.898   1.996 -1.4795  0.9133  0.0785
 1529SOL    HW3 5883   3.560   3.930   2.045 -1.4531 -0.2883  0.8151
 1529SOL    MW4 5884   3.479   3.955   2.027  0.2484  0.3870 -0.1245
 1530SOL     OW 5885   3.000   2.213   5.466  0.6654 -0.4023  0.4205
 1530SOL    HW2 5886   3.011   2.306   5.447 -1.4112 -0.1171  0.3828
 1530SOL    HW3 5887   3.058   2.169   5.405  1.8511  0.8606  0.5885
 1530SOL    MW4 5888   3.009   2.219   5.456  0.3296 -0.2605  0.1811
 1531SOL     OW 5889   5.235   3.191   1.492 -0.0492  0.4358 -0.1754
 1531SOL    HW2 5890   5.294   3.115   1.492  0.4247  0.7989  0.1105
 1531SOL    HW3 5891   5.148   3.154   1.508  0.1422 -0.0758 -0.3048
 1531SOL    MW4 5892   5.231   3.176   1.494  0.1872  0.0241  0.1463
 1532SOL     OW 5893   2.639   2.764   5.514  0.5072  0.6097  0.4782
 1532SOL    HW2 5894   2.601   2.676   5.519 -0.8305  1.0353 -1.1823
 1532SOL    HW3 5895   2.731   2.749   5.492  0.0570 -0.3807 -0.8511
 1532SOL    MW4 5896   2.646   2.751   5.512 -0.1040 -0.1075  0.4848
 1533SOL     OW 5897   3.976   0.001   4.464 -0.2586  0.0757  0.5011
 1533SOL    HW2 5898   3.885  -0.026   4.476  0.0561 -0.3640  2.1849
 1533SOL    HW3 5899   3.971   0.095   4.449 -0.9351  0.3493  2.1608
 1533SOL    MW4 5900   3.963   0.010   4.464 -0.2910 -1.2983  0.1022
 1534SOL     OW 5901   0.259   5.124   5.905 -0.3020  0.5077  0.6307
 1534SOL    HW2 5902   0.238   5.061   5.836  0.7545  1.3612 -0.5090
 1534SOL    HW3 5903   0.287   5.071   5.980  1.4894 -0.3926 -0.6220
 1534SOL    MW4 5904   0.260   5.109   5.906 -0.1333 -0.4495  0.1873
 1535SOL     OW 5905   5.094   5.676   4.015 -0.1078 -0.7120 -0.4720
 1535SOL    HW2 5906   5.166   5.614   4.030 -0.8435 -1.2529  1.0666
 1535SOL    HW3 5907   5.105   5.743   4.083 -0.1760  0.0409 -1.1958
 1535SOL    MW4 5908   5.105   5.676   4.026 -0.0565 -0.0131 -0.2259
 1536SOL     OW 5909   4.583   4.370   4.754 -0.0074 -0.1829  0.2750
 1536SOL    HW2 5910   4.536   4.316   4.818 -1.3772  0.9552  0.2793
 1536SOL    HW3 5911   4.641   4.426   4.808 -0.3274 -0.0099  0.4421
 1536SOL    MW4 5912   4.585   4.371   4.770  0.1384  0.0514 -0.3830
 1537SOL     OW 5913   4.177   3.078   3.346 -0.2642  0.0985 -0.2338
 1537SOL    HW2 5914   4.205   3.157   3.393  1.0600 -1.2146  1.3085
 1537SOL    HW3 5915   4.082   3.076   3.357 -0.2187  1.0292  0.4765
 1537SOL    MW4 5916   4.168   3.088   3.354 -0.3113  0.0806  0.5024
 1538SOL     OW 5917   1.147   3.643   5.971 -0.0906 -0.4697  0.0172
 1538SOL    HW2 5918   1.173   3.735   5.967  0.2316 -0.4669  1.6678
 1538SOL    HW3 5919   1.231   3.596   5.977 -0.2775 -0.6068  2.9386
 1538SOL    MW4 5920   1.162   3.649   5.971 -0.3938 -0.6484 -0.1939
 1539SOL     OW 5921   4.576   3.221   2.848 -0.5178  0.2817 -0.0311
 1539SOL    HW2 5922   4.661   3.203   2.807 -0.4696 -1.6449  0.7731
 1539SOL    HW3 5923   4.599   3.256   2.934 -0.4087 -2.1705  1.0216
 1539SOL    MW4 5924   4.590   3.223   2.854  0.2962 -0.5042  0.5154
 1540SOL     OW 5925   2.782   2.027   2.150 -0.0243  0.3173 -0.1374
 1540SOL    HW2 5926   2.738   2.083   2.215  2.5958  0.9233  1.2799
 1540SOL    HW3 5927   2.809   1.950   2.200  1.1181  0.3133 -0.7324
 1540SOL    MW4 5928   2.780   2.025   2.165  0.0407  0.6455  0.2984
 1541SOL     OW 5929   0.375   0.183   5.235  0.2554 -0.0393  0.0534
 1541SOL    HW2 5930   0.459   0.200   5.277  0.7753 -2.4661  0.1466
 1541SOL    HW3 5931   0.393   0.113   5.173 -0.7948  2.4442 -3.3302
 1541SOL    MW4 5932   0.388   0.176   5.233 -0.2317 -0.1295  0.2282
 1542SOL     OW 5933   6.207   4.847   0.474 -0.9650 -0.2365 -0.0265
 1542SOL    HW2 5934   6.129   4.900   0.490 -2.2437 -2.3318  1.2171
 1542SOL    HW3 5935   6.278   4.910   0.463 -2.5940  1.7117  0.1024
 1542SOL    MW4 5936   6.206   4.862   0.475 -0.0366  0.1589 -1.0009
 1543SOL     OW 5937   3.775   3.101   6.045  0.0012 -0.4615  0.3766
 1543SOL    HW2 5938   3.681   3.119   6.041 -1.1143 -5.0933 -0.3936
 1543SOL    HW3 5939   3.812   3.151   5.973 -2.4838 -0.8155 -1.2729
 1543SOL    MW4 5940   3.767   3.110   6.035 -1.0435  0.2500  0.5820
 1544SOL     OW 5941   5.270   5.504   4.621 -0.1866  0.0795 -0.0266
 1544SOL    HW2 5942   5.348   5.543   4.582 -0.6166 -0.4065 -1.4304
 1544SOL    HW3 5943   5.303   5.454   4.696  0.4962  2.2278  1.2002
 1544SOL    MW4 5944   5.285   5.503   4.626  0.6913  0.0980  0.2343
 1545SOL     OW 5945   5.409   5.573   1.865 -0.2515  0.1102 -0.4033
 1545SOL    HW2 5946   5.500   5.573   1.895  0.1193 -1.9157 -1.3406
 1545SOL    HW3 5947   5.410   5.624   1.785 -0.5046  2.2993  0.9087
 1545SOL    MW4 5948   5.421   5.579   1.859 -0.1754 -0.4621  0.3718
 1546SOL     OW 5949   0.346   0.061   4.437  0.6699 -0.1270  0.3717
 1546SOL    HW2 5950   0.287   0.103   4.500  2.5970  1.4088  1.3130
 1546SOL    HW3 5951   0.357  -0.028   4.471  0.4722  0.2020  1.3559
 1546SOL    MW4 5952   0.340   0.055   4.450 -0.3581 -0.1817  0.1876
 1547SOL     OW 5953   3.051   0.105   5.217 -0.3677  0.2297 -0.2650
 1547SOL    HW2 5954   3.088   0.016   5.217 -2.3255 -0.6299 -0.5611
 1547SOL    HW3 5955   2.985   0.104   5.286 -0.4941  1.4497 -0.3427
 1547SOL    MW4 5956   3.047   0.093   5.226  0.2669  0.2181 -0.9034
 1548SOL     OW 5957   0.180   6.163   2.935 -0.7193 -0.0819  0.4060
 1548SOL    HW2 5958   0.223   6.079   2.919 -0.6197 -0.3906  2.1504
 1548SOL    HW3 5959   0.242   6.213   2.988 -0.9196  0.9977 -0.3264
 1548SOL    MW4 5960   0.194   6.159   2.940  0.0496 -0.0040  1.1578
 1549SOL     OW 5961   0.322   5.642   2.139  0.2866 -0.1299  0.1917
 1549SOL    HW2 5962   0.229   5.624   2.153  0.3673 -0.3332  0.4669
 1549SOL    HW3 5963   0.368   5.567   2.178  0.5379 -0.4637 -0.7357
 1549SOL    MW4 5964   0.316   5.630   2.146 -0.1127  0.1623 -0.0872
 1550SOL     OW 5965   5.799   1.384   5.304  0.8807  0.3949  0.2656
 1550SOL    HW2 5966   5.870   1.445   5.324  0.7668 -0.1403  2.5925
 1550SOL    HW3 5967   5.804   1.319   5.374  1.3588 -2.6608 -2.3612
 1550SOL    MW4 5968   5.809   1.383   5.316  0.1291  0.0746  0.1032
 1551SOL     OW 5969   4.831   5.831   0.876 -0.4180  0.0031 -0.1956
 1551SOL    HW2 5970   4.767   5.760   0.874 -0.9654  0.5123 -1.2858
 1551SOL    HW3 5971   4.779   5.911   0.873  0.1788  0.4910  1.2835
 1551SOL    MW4 5972   4.816   5.832   0.875 -0.1528 -0.8520  0.5936
 1552SOL     OW 5973   1.506   1.176   0.929 -0.0290 -0.2270 -0.5787
 1552SOL    HW2 5974   1.588   1.226   0.925 -0.0314 -0.0995  0.6872
 1552SOL    HW3 5975   1.441   1.236   0.892  0.1273  0.3849  0.1091
 1552SOL    MW4 5976   1.508   1.191   0.923  0.0394  0.0899  0.4196
 1553SOL     OW 5977   2.794   1.797   5.337 -0.5525 -0.2551  0.2692
 1553SOL    HW2 5978   2.718   1.846   5.306  0.9111  2.1491  0.1764
 1553SOL    HW3 5979   2.804   1.822   5.429 -0.3211 -1.1436  0.4922
 1553SOL    MW4 5980   2.786   1.807   5.345 -0.0449  0.3234  0.0240
 1554SOL     OW 5981   5.893   4.395   3.747 -0.0891 -0.4235  0.6841
 1554SOL    HW2 5982   5.978   4.394   3.792  0.6842 -0.3792 -0.7313
 1554SOL    HW3 5983   5.906   4.341   3.669 -1.5225 -0.8469  0.7025
 1554SOL    MW4 5984   5.906   4.388   3.743  0.4241  0.2631 -0.0205
 1555SOL     OW 5985   3.090   3.267   2.971 -0.0984 -0.3259 -0.7654
 1555SOL    HW2 5986   3.110   3.273   2.878  1.1562 -1.6660 -0.6089
 1555SOL    HW3 5987   2.998   3.239   2.974 -0.7078  1.4521 -1.5439
 1555SOL    MW4 5988   3.080   3.264   2.959 -0.5670  0.5615 -0.4908
 1556SOL     OW 5989   5.718   2.792   3.564 -0.1211 -0.1290 -0.0220
 1556SOL    HW2 5990   5.733   2.845   3.643 -1.2379  1.0217 -0.5424
 1556SOL    HW3 5991   5.764   2.839   3.495 -1.6494  0.5437 -0.6109
 1556SOL    MW4 5992   5.726   2.805   3.566 -0.3050 -0.1644  0.2417
 1557SOL     OW 5993   6.202   2.796   1.223 -0.0589 -0.6467 -0.3749
 1557SOL    HW2 5994   6.286   2.757   1.200  0.2523  0.3536 -0.9925
 1557SOL    HW3 5995   6.225   2.865   1.286 -0.4848 -0.7450 -0.1088
 1557SOL    MW4 5996   6.216   2.800   1.229 -0.2807  0.2203 -0.1931
 1558SOL     OW 5997   3.576   4.156   2.693 -0.2959 -0.5911 -0.0849
 1558SOL    HW2 5998   3.513   4.105   2.744 -1.1454 -2.2109 -2.5535
 1558SOL    HW3 5999   3.575   4.114   2.606  1.3336  1.7479 -1.3198
 1558SOL    MW4 6000   3.568   4.143   2.688 -0.4547 -0.1856  0.4621
 1559SOL     OW 6001   5.360   2.017   3.478 -0.2300 -0.1462  0.2569
 1559SOL    HW2 6002   5.328   2.058   3.398 -0.4291 -0.6215  0.0913
 1559SOL    HW3 6003   5.368   2.089   3.540  0.2730  0.2877 -0.2964
 1559SOL    MW4 6004   5.357   2.032   3.475 -0.3289  0.1072 -0.7235
 1560SOL     OW 6005   5.008   5.604   3.642  0.1696  0.0259 -0.1114
 1560SOL    HW2 6006   5.032   5.593   3.550 -0.1814  1.3555 -0.3852
 1560SOL    HW3 6007   5.069   5.671   3.674 -1.1274  1.1838  0.0106
 1560SOL    MW4 6008   5.019   5.612   3.634  0.4478 -0.5621  0.1375
 1561SOL     OW 6009   0.768   5.861   3.887 -0.0668  0.6558  0.2130
 1561SOL    HW2 6010   0.743   5.776   3.923  1.7158  0.1344  0.3003
 1561SOL    HW3 6011   0.798   5.911   3.963  1.3379  0.4240 -0.1612
 1561SOL    MW4 6012   0.768   5.856   3.902 -0.4245  0.1142 -0.5710
 1562SOL     OW 6013   5.472   1.418   5.695 -1.1814  0.6384  0.7527
 1562SOL    HW2 6014   5.565   1.431   5.714 -1.2709  0.0118  1.6712
 1562SOL    HW3 6015   5.468   1.336   5.647 -1.3768 -0.0594  1.9238
 1562SOL    MW4 6016   5.484   1.409   5.691 -0.1425  0.0967  0.2028
 1563SOL     OW 6017   2.786   1.435   1.429  0.1608  0.3104 -0.0189
 1563SOL    HW2 6018   2.856   1.374   1.452 -0.4507 -0.6194 -0.5477
 1563SOL    HW3 6019   2.808   1.515   1.475  0.8967 -0.3640  0.8466
 1563SOL    MW4 6020   2.798   1.437   1.438 -0.3195 -0.5912  0.6643
 1564SOL     OW 6021   1.166   1.739   3.437 -0.1986  0.0619  0.1139
 1564SOL    HW2 6022   1.135   1.651   3.462 -1.0562  0.7382  1.5716
 1564SOL    HW3 6023   1.104   1.799   3.478  2.2186  1.4626  2.0015
 1564SOL    MW4 6024   1.154   1.735   3.446 -0.0705  0.5939  0.0858
 1565SOL     OW 6025   1.201   4.223   0.565  0.0603 -0.1937 -0.1802
 1565SOL    HW2 6026   1.286   4.182   0.578 -0.1659 -0.2015  1.6449
 1565SOL    HW3 6027   1.138   4.152   0.575 -0.3083  0.3850  2.5198
 1565SOL    MW4 6028   1.204   4.208   0.568  0.1277  0.0975 -0.1205
 1566SOL     OW 6029   1.994   4.771   0.842 -0.2373 -0.2697  0.7072
 1566SOL    HW2 6030   1.947   4.691   0.817 -0.1843 -0.9478  2.6636
 1566SOL    HW3 6031   2.022   4.756   0.932  2.1401  0.8696  0.2517
 1566SOL    MW4 6032   1.992   4.758   0.850  0.2349  0.0417 -0.0271
 1567SOL     OW 6033   2.532   4.017   3.345  0.0220  0.2789 -0.4141
 1567SOL    HW2 6034   2.452   4.034   3.296  1.1761  1.2804 -2.0933
 1567SOL    HW3 6035   2.567   4.105   3.363 -0.1103 -0.0824  1.8485
 1567SOL    MW4 6036   2.526   4.031   3.341  0.3539  0.7375  0.8183
 1568SOL     OW 6037   5.696   3.904   4.953  0.6411  0.0944 -0.0072
 1568SOL    HW2 6038   5.644   3.849   4.895 -0.0022  0.5752  0.0981
 1568SOL    HW3 6039   5.706   3.853   5.033  1.2733 -0.4459 -0.4164
 1568SOL    MW4 6040   5.691   3.890   4.956 -0.1098 -0.5668 -0.3186
 1569SOL     OW 6041   1.625   2.783   1.910  0.6020 -0.1795  0.1430
 1569SOL    HW2 6042   1.585   2.696   1.910  0.0376  0.0768 -0.0125
 1569SOL    HW3 6043   1.553   2.842   1.891  1.3207  0.1823 -1.5890
 1569SOL    MW4 6044   1.610   2.779   1.908 -0.5097  0.0307  1.1080
 1570SOL     OW 6045   2.788   4.809   2.115  0.1916 -0.0156 -0.1273
 1570SOL    HW2 6046   2.813   4.846   2.200 -2.8371 -0.4131  1.0486
 1570SOL    HW3 6047   2.746   4.881   2.069 -0.6426 -0.4992 -0.1397
 1570SOL    MW4 6048   2.786   4.823   2.120 -0.5318 -0.1267  0.1407
 1571SOL     OW 6049   4.821   5.722   6.127 -0.0329  0.0018  0.4332
 1571SOL    HW2 6050   4.824   5.627   6.122 -0.5600 -0.1575  2.4086
 1571SOL    HW3 6051   4.750   5.746   6.067  0.3566 -0.8017 -0.3736
 1571SOL    MW4 6052   4.812   5.713   6.118  0.4922 -0.2480  0.0010
 1572SOL     OW 6053   6.022   5.473   4.932  0.0181 -0.1368  0.5943
 1572SOL    HW2 6054   6.031   5.414   5.007  0.5502 -0.8499 -0.0017
 1572SOL    HW3 6055   5.947   5.528   4.952 -0.9028 -1.4588  0.8981
 1572SOL    MW4 6056   6.014   5.472   4.944 -0.6225 -0.2761  0.1922
 1573SOL     OW 6057   0.065   0.129   3.810 -0.2240  0.4083  0.0130
 1573SOL    HW2 6058   0.101   0.187   3.877 -2.2657  0.7681  0.8543
 1573SOL    HW3 6059   0.103   0.043   3.829 -0.8569  0.4798  1.7389
 1573SOL    MW4 6060   0.075   0.125   3.821 -0.4562 -0.2300  0.0220
 1574SOL     OW 6061   3.836   1.925   5.606  0.1558 -0.7851 -0.0164
 1574SOL    HW2 6062   3.807   2.009   5.642 -0.3573 -0.6935 -0.6410
 1574SOL    HW3 6063   3.756   1.874   5.596  0.2588 -0.7262 -1.2395
 1574SOL    MW4 6064   3.822   1.930   5.610 -0.4521  0.6480 -0.1851
 1575SOL     OW 6065   1.592   3.447   5.499  0.5657  0.1034 -0.1145
 1575SOL    HW2 6066   1.577   3.541   5.490 -1.2408  0.2528  2.9202
 1575SOL    HW3 6067   1.504   3.410   5.504  1.2518 -1.7755 -1.2134
 1575SOL    MW4 6068   1.578   3.455   5.499  0.4558 -0.3021  0.3703
 1576SOL     OW 6069   1.405   4.726   3.722 -0.5531 -0.0384  0.6985
 1576SOL    HW2 6070   1.353   4.647   3.712 -0.0184 -0.3135 -0.0195
 1576SOL    HW3 6071   1.344   4.798   3.707 -0.6462 -0.3676 -0.6192
 1576SOL    MW4 6072   1.390   4.725   3.719 -0.5434  0.3320 -0.3065
 1577SOL     OW 6073   1.635   3.226   2.607 -0.1211 -0.6640  0.3565
 1577SOL    HW2 6074   1.629   3.222   2.511 -1.2657 -2.0659  0.4714
 1577SOL    HW3 6075   1.690   3.152   2.630 -1.4572 -1.5070  0.9046
 1577SOL    MW4 6076   1.642   3.216   2.597  0.3037  0.4083  0.6195
 1578SOL     OW 6077   0.451   4.017   2.469  0.4873  0.2974  0.3010
 1578SOL    HW2 6078   0.517   4.017   2.400  1.1074  1.1920  0.8703
 1578SOL    HW3 6079   0.393   4.090   2.447  0.7800  0.6893  0.7946
 1578SOL    MW4 6080   0.452   4.027   2.457 -0.1960  0.1407  0.1282
 1579SOL     OW 6081   6.202   2.220   1.787  0.1656 -0.3994  0.5263
 1579SOL    HW2 6082   6.265   2.151   1.767  2.3123  1.4375  0.6036
 1579SOL    HW3 6083   6.228   2.251   1.874 -0.0003  1.3036 -0.0087
 1579SOL    MW4 6084   6.213   2.215   1.796  0.4073  0.2497  0.5427
 1580SOL     OW 6085   0.914   6.341   0.525 -0.2354 -0.1549  0.2268
 1580SOL    HW2 6086   0.954   6.418   0.484  0.8201 -0.7290  0.1479
 1580SOL    HW3 6087   0.902   6.280   0.453  0.7407 -0.8001  0.5878
 1580SOL    MW4 6088   0.918   6.343   0.510  0.2779 -0.2162 -0.2518
 1581SOL     OW 6089   5.989   5.135   6.093  0.4457  0.1535 -0.0306
 1581SOL    HW2 6090   5.922   5.192   6.131  0.1687 -0.1477 -0.0576
 1581SOL    HW3 6091   5.984   5.152   5.999 -1.2999 -1.6140 -0.3376
 1581SOL    MW4 6092   5.979   5.145   6.085 -0.4303  0.2147  0.0272
 1582SOL     OW 6093   3.072   1.135   1.661  0.0057  0.2508 -0.0072
 1582SOL    HW2 6094   2.990   1.086   1.669  0.1390 -0.0678 -0.4785
 1582SOL    HW3 6095   3.132   1.073   1.619  0.4115  0.5646  0.1029
 1582SOL    MW4 6096   3.069   1.120   1.656  0.3381  0.6083 -0.0891
 1583SOL     OW 6097   4.079   2.432   5.216 -0.0637  0.3810 -0.7431
 1583SOL    HW2 6098   4.161   2.481   5.217 -0.0499  0.3649 -0.9784
 1583SOL    HW3 6099   4.082   2.382   5.134 -0.3003  0.3685 -0.7456
 1583SOL    MW4 6100   4.090   2.431   5.205 -0.4951  0.1668  0.2670
 1584SOL     OW 6101   0.386   1.999   0.778  0.0585 -0.2864  0.0916
 1584SOL    HW2 6102   0.405   1.988   0.685 -0.6774 -1.6308  0.0677
 1584SOL    HW3 6103   0.290   1.999   0.784  0.0837  0.7555  0.7596
 1584SOL    MW4 6104   0.376   1.997   0.767 -0.1138  0.3332 -0.0038
 1585SOL     OW 6105   5.492   4.385   3.331  0.3882  0.2441 -0.2243
 1585SOL    HW2 6106   5.573   4.353   3.290  0.1398 -0.7220  0.0115
 1585SOL    HW3 6107   5.468   4.316   3.393 -0.1994  0.8832  0.2711
 1585SOL    MW4 6108   5.500   4.372   3.334  0.4087 -0.0784  0.1349
 1586SOL     OW 6109   1.183   6.380   2.507 -0.1920  0.1438 -0.0035
 1586SOL    HW2 6110   1.165   6.292   2.476  1.8830  0.0372 -1.0599
 1586SOL    HW3 6111   1.160   6.437   2.434 -0.6700  0.3973  0.3431
 1586SOL    MW4 6112   1.178   6.376   2.493  0.5806 -0.1438  0.2294
 1587SOL     OW 6113   0.377   4.560   5.773  0.1734  0.2115 -0.0404
 1587SOL    HW2 6114   0.366   4.603   5.857  0.2133  1.3416 -0.5912
 1587SOL    HW3 6115   0.311   4.491   5.772 -0.8019  1.1159  0.3431
 1587SOL    MW4 6116   0.367   4.557   5.784 -0.5108 -0.2784  1.0586
 1588SOL     OW 6117   2.823   5.138   1.108 -0.2467 -0.1132 -0.0102
 1588SOL    HW2 6118   2.903   5.115   1.061 -0.6174  0.3529 -0.8807
 1588SOL    HW3 6119   2.792   5.054   1.143 -0.0814 -0.5013 -0.7769
 1588SOL    MW4 6120   2.830   5.124   1.107 -0.2594  0.3797  0.7945
 1589SOL     OW 6121   2.315   5.697   1.116 -0.8975 -0.4216 -0.4885
 1589SOL    HW2 6122   2.372   5.622   1.130  0.6932  0.6654 -0.9097
 1589SOL    HW3 6123   2.245   5.687   1.181  0.6273 -0.9443  1.1213
 1589SOL    MW4 6124   2.313   5.686   1.126 -0.6980 -0.1645  0.1917
 1590SOL     OW 6125   0.106   0.237   1.976 -0.2462 -0.0812 -0.0649
 1590SOL    HW2 6126   0.117   0.162   1.917 -0.1452 -0.0625 -0.0700
 1590SOL    HW3 6127   0.179   0.229   2.038  0.2851  0.5132 -0.6006
 1590SOL    MW4 6128   0.117   0.226   1.977 -0.3754  0.6111  1.3459
 1591SOL     OW 6129   2.635   0.328   0.759  0.1041  0.4485  0.5013
 1591SOL    HW2 6130   2.709   0.304   0.704 -0.1813  1.0207 -0.1450
 1591SOL    HW3 6131   2.671   0.331   0.848  0.4248 -1.1143  0.4510
 1591SOL    MW4 6132   2.650   0.325   0.764  0.3015 -0.0742  0.0580
 1592SOL     OW 6133   0.348   1.108   5.553 -0.0350 -0.9583  0.4313
 1592SOL    HW2 6134   0.267   1.059   5.539 -0.5086 -0.5893  1.7097
 1592SOL    HW3 6135   0.360   1.108   5.648  0.4432  0.6047  0.3954
 1592SOL    MW4 6136   0.339   1.102   5.563 -0.0226 -0.3856 -0.2928
 1593SOL     OW 6137   5.734   4.300   5.935 -0.0828 -0.5923  0.6645
 1593SOL    HW2 6138   5.809   4.340   5.978 -1.2779  1.6574  0.7824
 1593SOL    HW3 6139   5.749   4.314   5.842 -0.6774  0.5463  0.7219
 1593SOL    MW4 6140   5.746   4.307   5.929 -0.0179 -0.4655  0.1326
 1594SOL     OW 6141   1.626   3.087   3.330  0.2464 -0.0172 -0.2032
 1594SOL    HW2 6142   1.701   3.035   3.359 -0.1905  0.9540  2.9761
 1594SOL    HW3 6143   1.555   3.023   3.321  0.3769 -0.3559  1.0556
 1594SOL    MW4 6144   1.627   3.072   3.332 -0.1282  0.1092 -0.6574
 1595SOL     OW 6145   3.935   5.016   5.214 -0.0938  0.1802 -0.2579
 1595SOL    HW2 6146   4.026   5.048   5.213 -0.3193  0.8677  0.3274
 1595SOL    HW3 6147   3.935   4.947   5.281 -0.0552  0.3484 -0.0825
 1595SOL    MW4 6148   3.947   5.011   5.223  0.2468 -0.1708 -0.2557
 1596SOL     OW 6149   1.379   5.932   3.771 -0.5963 -0.0968 -0.4725
 1596SOL    HW2 6150   1.360   6.026   3.764 -0.6192 -0.2247 -2.8013
 1596SOL    HW3 6151   1.303   5.895   3.816 -0.7059  0.9456  0.2349
 1596SOL    MW4 6152   1.367   5.940   3.776 -0.2268  0.2872 -0.7429
 1597SOL     OW 6153   4.837   4.531   4.032  0.2921 -0.1800 -0.3292
 1597SOL    HW2 6154   4.867   4.460   3.975 -0.4376 -2.0145  1.4668
 1597SOL    HW3 6155   4.756   4.498   4.070  1.1123  0.6419  2.2884
 1597SOL    MW4 6156   4.831   4.517   4.029 -0.2010  0.2290  0.2410
 1598SOL     OW 6157   3.874   5.146   1.778 -0.1509  0.5283 -0.1439
 1598SOL    HW2 6158   3.888   5.096   1.698 -0.5013 -0.9393  0.6916
 1598SOL    HW3 6159   3.783   5.129   1.803 -0.8053  2.8452 -0.6613
 1598SOL    MW4 6160   3.864   5.137   1.771 -0.5154 -0.2373  0.1758
 1599SOL     OW 6161   0.886   1.276   0.548 -0.0176 -0.1598 -0.5267
 1599SOL    HW2 6162   0.920   1.364   0.533 -1.0530  0.0687 -1.7100
 1599SOL    HW3 6163   0.952   1.234   0.604  0.7773  1.1641 -0.4274
 1599SOL    MW4 6164   0.899   1.282   0.553  0.3356 -0.3623 -0.2890
 1600SOL     OW 6165   3.335   4.634   2.289  0.3342  0.1907  0.2619
 1600SOL    HW2 6166   3.264   4.571   2.279 -0.2808  0.4977  2.1394
 1600SOL    HW3 6167   3.292   4.714   2.320  1.5186  0.1050  2.3753
 1600SOL    MW4 6168   3.320   4.636   2.292  0.0767  0.6055 -0.0429
 1601SOL     OW 6169   5.088   0.290   6.085  0.5708  0.2474  0.1467
 1601SOL    HW2 6170   5.016   0.276   6.145 -0.6742  2.0912 -0.8100
 1601SOL    HW3 6171   5.081   0.220   6.021 -0.1547  0.2024  0.2721
 1601SOL    MW4 6172   5.078   0.279   6.084 -0.2134 -0.2186  0.0771
 1602SOL     OW 6173   5.766   5.291   0.873  0.3673 -0.3910 -0.1820
 1602SOL    HW2 6174   5.672   5.283   0.889  0.3626  1.7838  1.3716
 1602SOL    HW3 6175   5.778   5.265   0.782 -2.0150  0.7849 -0.9018
 1602SOL    MW4 6176   5.755   5.287   0.863 -0.6144 -0.6962  0.0890
 1603SOL     OW 6177   4.021   4.093   5.195  0.0045  0.3895  0.7786
 1603SOL    HW2 6178   3.999   4.185   5.208 -0.1881  0.5947 -0.7900
 1603SOL    HW3 6179   3.936   4.049   5.188  0.0804 -0.0567  2.2603
 1603SOL    MW4 6180   4.007   4.099   5.195 -0.3562 -0.2641 -0.4481
 1604SOL     OW 6181   2.293   0.624   0.751  0.4900 -0.5168  0.5183
 1604SOL    HW2 6182   2.283   0.551   0.812 -1.0715  0.3785  1.3770
 1604SOL    HW3 6183   2.256   0.699   0.797  0.7822  0.5307 -0.9001
 1604SOL    MW4 6184   2.287   0.624   0.765 -0.1132  0.0653  0.6425
 1605SOL     OW 6185   1.790   1.384   2.277  0.4403  0.4590 -0.8716
 1605SOL    HW2 6186   1.850   1.431   2.335  1.2776 -1.6794  0.0927
 1605SOL    HW3 6187   1.847   1.326   2.225 -0.4476  1.1921 -2.7667
 1605SOL    MW4 6188   1.806   1.382   2.278  0.1739  0.1721 -0.2717
 1606SOL     OW 6189   2.018   5.230   0.411  0.0593  0.5753  0.5863
 1606SOL    HW2 6190   1.961   5.288   0.361  0.7685  0.8689  0.0891
 1606SOL    HW3 6191   1.960   5.162   0.445 -0.1764 -0.9331 -2.4936
 1606SOL    MW4 6192   2.003   5.229   0.409 -0.3399 -0.2279  0.6774
 1607SOL     OW 6193   5.679   4.633   5.078 -0.3320  0.5257  0.3552
 1607SOL    HW2 6194   5.688   4.540   5.100 -0.7092  0.0073 -1.4567
 1607SOL    HW3 6195   5.702   4.679   5.158  0.5666 -1.1154  1.0997
 1607SOL    MW4 6196   5.683   4.626   5.091 -0.3816  0.0758  0.8744
 1608SOL     OW 6197   2.528   4.928   0.138 -0.0895 -0.2998 -0.0768
 1608SOL    HW2 6198   2.506   5.017   0.111  1.7808  0.3594  0.4428
 1608SOL    HW3 6199   2.578   4.892   0.065 -1.0672 -1.0611 -0.4009
 1608SOL    MW4 6200   2.531   4.935   0.125  0.3934  0.2552 -0.3242
 1609SOL     OW 6201   3.021   5.159   0.885 -0.0583 -0.4440 -0.1788
 1609SOL    HW2 6202   3.115   5.174   0.891  0.0712  0.0765 -2.3890
 1609SOL    HW3 6203   3.012   5.064   0.884  0.5670 -0.5099 -0.9213
 1609SOL    MW4 6204   3.032   5.149   0.886  0.4507  0.0296  0.5616
 1610SOL     OW 6205   3.021   2.501   1.920 -0.2510 -0.0289 -0.0390
 1610SOL    HW2 6206   2.993   2.506   1.829  2.7526 -2.0416 -1.2186
 1610SOL    HW3 6207   2.969   2.429   1.957 -0.3318 -0.2831 -0.6364
 1610SOL    MW4 6208   3.010   2.492   1.913  0.2853 -0.2034  0.0421
 1611SOL     OW 6209   5.254   6.174   4.867  0.0729  0.0177 -0.5626
 1611SOL    HW2 6210   5.211   6.105   4.817  0.7531 -2.3200  1.8391
 1611SOL    HW3 6211   5.184   6.213   4.919  0.1591 -0.9891  0.3287
 1611SOL    MW4 6212   5.240   6.170   4.867  0.0449 -0.0659 -0.6970
 1612SOL     OW 6213   1.200   6.272   1.901  0.5423 -0.1843  0.2819
 1612SOL    HW2 6214   1.195   6.343   1.837  0.7903 -1.2605 -0.9661
 1612SOL    HW3 6215   1.294   6.261   1.917  0.4986 -0.1697  0.5497
 1612SOL    MW4 6216   1.212   6.280   1.895  0.7720 -0.5555  0.3093
 1613SOL     OW 6217   0.644   1.704   0.796  0.2178  0.3573  0.1314
 1613SOL    HW2 6218   0.569   1.686   0.740  0.3788 -0.0770  0.0541
 1613SOL    HW3 6219   0.706   1.749   0.738  0.0088  0.7487  0.2043
 1613SOL    MW4 6220   0.642   1.708   0.781  0.3177  0.0762 -0.3177
 1614SOL     OW 6221   2.048   5.344   3.127  0.4788 -0.2398 -0.1501
 1614SOL    HW2 6222   2.111   5.356   3.198  1.5115  1.1709 -1.2646
 1614SOL    HW3 6223   2.041   5.429   3.085 -4.1873  0.4816  1.4504
 1614SOL    MW4 6224   2.055   5.357   3.131  0.2947  0.3208  0.7587
 1615SOL     OW 6225   5.619   4.961   1.794 -0.1734  0.2957 -0.1759
 1615SOL    HW2 6226   5.534   5.005   1.786  0.4751  1.7976  0.8821
 1615SOL    HW3 6227   5.619   4.924   1.882  0.2768  0.3246 -0.1616
 1615SOL    MW4 6228   5.608   4.962   1.804  0.2904  0.3519 -0.4904
 1616SOL     OW 6229   6.034   2.348   0.155  0.1468 -0.7670 -0.6619
 1616SOL    HW2 6230   5.995   2.332   0.241  1.4954 -0.4879  0.0332
 1616SOL    HW3 6231   5.984   2.421   0.119 -1.6385 -2.0541 -0.9530
 1616SOL    MW4 6232   6.022   2.355   0.161  0.2437 -0.3264 -0.2014
 1617SOL     OW 6233   2.709   5.544   5.463 -0.3549 -0.3704 -0.2005
 1617SOL    HW2 6234   2.655   5.609   5.509  0.4085 -0.5735  1.0597
 1617SOL    HW3 6235   2.775   5.519   5.528  0.1526 -1.4488 -1.1012
 1617SOL    MW4 6236   2.711   5.549   5.478 -0.0333  0.1586 -0.2038
 1618SOL     OW 6237   0.872   3.939   3.470  0.5240  0.6296  0.4427
 1618SOL    HW2 6238   0.941   3.874   3.471  0.0313  0.1024  1.2944
 1618SOL    HW3 6239   0.800   3.898   3.421  0.3396  0.6709  0.6771
 1618SOL    MW4 6240   0.871   3.925   3.463 -0.4910  0.0029  0.2549
 1619SOL     OW 6241   5.380   0.794   6.055  0.2693  0.1341  0.3347
 1619SOL    HW2 6242   5.299   0.811   6.104  0.0994  2.5385 -0.6399
 1619SOL    HW3 6243   5.351   0.750   5.976  0.5086 -3.4364  2.0493
 1619SOL    MW4 6244   5.365   0.791   6.051  0.1267 -0.2933  0.0129
 1620SOL     OW 6245   2.334   2.744   2.303 -0.1221  0.0463 -0.1231
 1620SOL    HW2 6246   2.343   2.656   2.268 -0.6115 -0.2220  0.4255
 1620SOL    HW3 6247   2.251   2.744   2.350 -0.6425  1.0909 -0.9756
 1620SOL    MW4 6248   2.325   2.733   2.304 -0.0599 -0.1223 -0.4157
 1621SOL     OW 6249   0.762   3.922   0.702  0.1491  0.5257  0.2553
 1621SOL    HW2 6250   0.707   3.977   0.757  1.1208  3.0793 -1.1648
 1621SOL    HW3 6251   0.719   3.922   0.617 -0.2713 -1.7099  0.4098
 1621SOL    MW4 6252   0.749   3.929   0.698 -0.2121 -0.0083 -0.6300
 1622SOL     OW 6253   0.059   0.897   5.287  0.1818  0.1016  0.0930
 1622SOL    HW2 6254   0.101   0.908   5.373 -0.2729  0.5288  0.2714
 1622SOL    HW3 6255  -0.014   0.837   5.304 -0.5536  1.0127  0.2406
 1622SOL    MW4 6256   0.055   0.890   5.301  0.6642 -0.4261 -0.5877
 1623SOL     OW 6257   1.840   3.717   5.558  0.0662 -0.3707 -0.2588
 1623SOL    HW2 6258   1.803   3.670   5.633  0.4453 -0.3523 -0.0612
 1623SOL    HW3 6259   1.887   3.790   5.597 -0.0397 -0.1559 -0.5365
 1623SOL    MW4 6260   1.841   3.720   5.573 -0.2441 -0.4718 -0.4689
 1624SOL     OW 6261   1.504   1.273   2.916  0.0413  0.0528  0.4553
 1624SOL    HW2 6262   1.436   1.207   2.904 -0.1259 -0.0003  1.5793
 1624SOL    HW3 6263   1.581   1.237   2.872 -0.4958 -0.1381 -0.3392
 1624SOL    MW4 6264   1.505   1.260   2.909  1.0297  0.2672  0.0834
 1625SOL     OW 6265   0.467   1.032   2.450 -0.1184  0.3064  0.2901
 1625SOL    HW2 6266   0.492   1.102   2.390  0.2854 -0.3159 -0.2844
 1625SOL    HW3 6267   0.389   0.993   2.409  2.3571 -2.6959 -2.0544
 1625SOL    MW4 6268   0.460   1.036   2.436 -0.0031 -0.2338  0.5350
 1626SOL     OW 6269   3.020   4.532   3.425  0.9782  0.0080 -0.0147
 1626SOL    HW2 6270   2.997   4.591   3.353  0.0393  0.3337  0.5346
 1626SOL    HW3 6271   3.054   4.590   3.494 -1.8744  0.2413  1.3391
 1626SOL    MW4 6272   3.021   4.548   3.425 -0.7076 -0.2496 -0.5775
 1627SOL     OW 6273   6.356   1.441   3.782  0.7711 -0.0250 -0.0192
 1627SOL    HW2 6274   6.336   1.515   3.840 -1.5918  0.5449 -1.4522
 1627SOL    HW3 6275   6.297   1.371   3.811 -0.4088  0.2535 -1.6378
 1627SOL    MW4 6276   6.346   1.441   3.794  0.4769  0.0341 -0.4145
 1628SOL     OW 6277   0.791   5.082   5.970  0.5073 -0.2424  0.0499
 1628SOL    HW2 6278   0.718   5.020   5.960  1.0755 -0.8099 -0.7762
 1628SOL    HW3 6279   0.780   5.143   5.897 -0.1895  0.8029  1.0050
 1628SOL    MW4 6280   0.780   5.082   5.959  0.6643 -0.1942 -0.0820
 1629SOL     OW 6281   3.590   6.286   4.337 -0.3622 -0.4949  0.6040
 1629SOL    HW2 6282   3.541   6.368   4.348  2.0456  0.8178  2.6227
 1629SOL    HW3 6283   3.650   6.302   4.265 -1.0805 -1.1685 -0.1666
 1629SOL    MW4 6284   3.591   6.299   4.329 -0.4859  0.0800 -1.2026
 1630SOL     OW 6285   0.348   4.716   2.815  0.4225  0.5925 -0.3370
 1630SOL    HW2 6286   0.276   4.751   2.867  0.7865  1.3610 -0.3297
 1630SOL    HW3 6287   0.369   4.632   2.855 -1.8855 -0.7128 -1.6505
 1630SOL    MW4 6288   0.341   4.709   2.827  0.0325 -0.0089 -0.5419
 1631SOL     OW 6289   2.369   4.810   0.702 -0.3059 -0.1282  0.2106
 1631SOL    HW2 6290   2.363   4.768   0.788 -0.5667 -1.2864 -0.3542
 1631SOL    HW3 6291   2.279   4.811   0.670  0.0034 -1.2927 -0.7645
 1631SOL    MW4 6292   2.357   4.804   0.709 -0.0760  0.1465 -0.1524
 1632SOL     OW 6293   5.667   0.080   2.280  0.4081  0.1397  0.0356
 1632SOL    HW2 6294   5.688  -0.009   2.253 -2.2301 -0.3321 -0.7104
 1632SOL    HW3 6295   5.644   0.126   2.199 -1.5438  0.4844  0.7214
 1632SOL    MW4 6296   5.667   0.074   2.266 -0.0046 -0.4420 -0.5242
 1633SOL     OW 6297   4.260   3.370   0.799 -0.1864 -0.0860  0.1685
 1633SOL    HW2 6298   4.188   3.429   0.820 -0.2607  0.5559 -1.6981
 1633SOL    HW3 6299   4.232   3.326   0.719  1.1756 -0.3951 -0.1648
 1633SOL    MW4 6300   4.247   3.372   0.791 -0.1071  0.3559  0.1852
 1634SOL     OW 6301   1.636   6.333   1.166  0.7663  0.1280  0.6508
 1634SOL    HW2 6302   1.636   6.426   1.141 -0.7947 -0.5255 -2.1229
 1634SOL    HW3 6303   1.550   6.301   1.141  1.7268 -2.3991  0.2647
 1634SOL    MW4 6304   1.625   6.341   1.159 -0.3415 -0.9533  0.3727
 1635SOL     OW 6305   3.364   4.310   3.746  0.1456  0.1616  0.1479
 1635SOL    HW2 6306   3.288   4.255   3.728  0.4785 -0.1006 -0.4761
 1635SOL    HW3 6307   3.399   4.331   3.660 -0.7546  2.4842  0.2774
 1635SOL    MW4 6308   3.359   4.306   3.732 -0.5687  0.2182  0.1960
 1636SOL     OW 6309   4.872   5.248   6.242  0.5475  0.5140  0.5978
 1636SOL    HW2 6310   4.943   5.222   6.301 -0.2682 -0.2775  1.2536
 1636SOL    HW3 6311   4.793   5.213   6.283 -0.1636  0.9055 -0.4089
 1636SOL    MW4 6312   4.871   5.240   6.255  0.3454 -0.1676 -0.1871
 1637SOL     OW 6313   1.040   1.047   0.653 -0.3587 -0.1578 -0.0802
 1637SOL    HW2 6314   1.050   1.065   0.746 -0.8973  0.3241 -0.1096
 1637SOL    HW3 6315   0.960   0.995   0.647  0.0896 -0.8510 -0.2043
 1637SOL    MW4 6316   1.031   1.043   0.664 -0.5219  0.2753  0.1482
 1638SOL     OW 6317   3.446   5.197   0.622 -0.7296  0.1417  0.3722
 1638SOL    HW2 6318   3.503   5.248   0.565 -0.4011 -1.7997 -1.0963
 1638SOL    HW3 6319   3.504   5.136   0.667 -1.5491 -1.7920 -1.0644
 1638SOL    MW4 6320   3.461   5.196   0.621 -0.5727  0.4185  0.1739
 1639SOL     OW 6321   1.045   5.572   6.363 -0.1377 -0.3349 -0.2137
 1639SOL    HW2 6322   1.089   5.513   6.303  2.7256  0.1207  1.2384
 1639SOL    HW3 6323   1.115   5.626   6.400 -2.1239  1.4113  1.3236
 1639SOL    MW4 6324   1.060   5.571   6.360  0.0736 -0.4483  0.2786
 1640SOL     OW 6325   1.928   4.105   2.877 -0.0451  0.2554 -0.0212
 1640SOL    HW2 6326   1.989   4.130   2.947  0.2999 -0.3741 -0.0856
 1640SOL    HW3 6327   1.958   4.153   2.800 -0.1679  0.6233  0.1569
 1640SOL    MW4 6328   1.940   4.115   2.876 -0.0887 -0.5734  0.0379
 1641SOL     OW 6329   2.915   4.759   6.126  0.3030  0.2132  0.5858
 1641SOL    HW2 6330   2.838   4.709   6.153 -0.0361  0.7537  0.6159
 1641SOL    HW3 6331   2.940   4.810   6.203 -0.1189  1.0640  0.1722
 1641SOL    MW4 6332   2.908   4.759   6.139 -0.3754  0.0845  0.3890
 1642SOL     OW 6333   5.207   2.388   3.142 -0.0925 -0.7242  0.6443
 1642SOL    HW2 6334   5.128   2.337   3.128  1.4408 -3.1496  0.3186
 1642SOL    HW3 6335   5.264   2.366   3.068  0.4555  2.0160  0.1110
 1642SOL    MW4 6336   5.204   2.379   3.130  0.4316  0.1972 -0.0328
 1643SOL     OW 6337   5.810   0.037   0.716 -0.0711 -0.2097 -1.0064
 1643SOL    HW2 6338   5.832  -0.012   0.637  0.2453  0.7258 -1.5244
 1643SOL    HW3 6339   5.852  -0.011   0.787  0.2633 -0.6554 -1.4987
 1643SOL    MW4 6340   5.818   0.025   0.715 -0.1607 -0.0238  0.3469
 1644SOL     OW 6341   4.757   6.146   0.050 -0.3226  0.3645 -0.0891
 1644SOL    HW2 6342   4.826   6.102   0.101 -1.3013  0.3094  1.2508
 1644SOL    HW3 6343   4.676   6.125   0.097 -1.0683  1.7983 -0.6723
 1644SOL    MW4 6344   4.755   6.137   0.063 -0.1136  0.7206 -0.3474
 1645SOL     OW 6345   5.121   1.257   3.610  0.4705  0.1757 -0.2781
 1645SOL    HW2 6346   5.170   1.262   3.692  0.8117 -0.1209 -0.4605
 1645SOL    HW3 6347   5.030   1.251   3.637  0.6327 -0.7189  0.1033
 1645SOL    MW4 6348   5.116   1.257   3.625 -0.0843 -0.1581 -0.4426
 1646SOL     OW 6349   2.707   6.244   4.041  0.1860  0.2047 -0.6232
 1646SOL    HW2 6350   2.726   6.305   4.112  1.6324  0.6251 -1.3296
 1646SOL    HW3 6351   2.735   6.159   4.075 -0.2886  0.1953 -0.2439
 1646SOL    MW4 6352   2.713   6.241   4.055 -0.6983  0.5989  0.2866
 1647SOL     OW 6353   4.283   6.269   5.433  0.0435  0.3839 -0.1641
 1647SOL    HW2 6354   4.345   6.331   5.470 -0.2126  0.2856  0.4306
 1647SOL    HW3 6355   4.214   6.323   5.395 -0.1185  0.4691  0.2467
 1647SOL    MW4 6356   4.282   6.284   5.433 -0.3239 -0.4534 -0.3913
 1648SOL     OW 6357   2.784   3.679   3.467  0.2690 -0.9653  0.4282
 1648SOL    HW2 6358   2.723   3.740   3.426  1.2494  0.1427  0.5776
 1648SOL    HW3 6359   2.758   3.593   3.433  0.0992 -0.2563 -1.3352
 1648SOL    MW4 6360   2.773   3.676   3.457 -0.0149  0.0683  0.2460
 1649SOL     OW 6361   1.846   2.576   4.893 -0.0999 -0.7494  0.4148
 1649SOL    HW2 6362   1.804   2.642   4.839 -1.6285 -3.4423 -1.9655
 1649SOL    HW3 6363   1.775   2.538   4.945 -0.0708 -2.9607 -1.0301
 1649SOL    MW4 6364   1.831   2.579   4.893  0.1500 -0.6808  0.3556
 1650SOL     OW 6365   2.677   5.582   6.080 -0.1444 -0.9311 -0.0359
 1650SOL    HW2 6366   2.675   5.508   6.141  1.0576 -0.3026  0.8021
 1650SOL    HW3 6367   2.628   5.551   6.004 -2.7921 -1.3054  1.6851
 1650SOL    MW4 6368   2.670   5.568   6.078  0.1370 -0.4290 -0.5697
 1651SOL     OW 6369   5.707   5.005   2.947  0.1207 -0.8538  1.0284
 1651SOL    HW2 6370   5.730   5.082   2.895  1.9862 -1.3835  0.9825
 1651SOL    HW3 6371   5.624   5.028   2.989 -0.1798  0.5331 -0.2419
 1651SOL    MW4 6372   5.699   5.018   2.946  0.0325  0.1932  0.4906
 1652SOL     OW 6373   4.844   3.100   4.471  0.0015 -0.5491  0.2740
 1652SOL    HW2 6374   4.781   3.106   4.399 -0.9496 -0.6343  1.0591
 1652SOL    HW3 6375   4.928   3.082   4.430 -0.2815  0.6336 -0.9032
 1652SOL    MW4 6376   4.846   3.099   4.456 -0.0204  0.3141  0.1477
 1653SOL     OW 6377   2.996   1.714   4.321  0.1564 -0.0177  0.1298
 1653SOL    HW2 6378   3.075   1.764   4.300 -0.1679  0.6346  0.4245
 1653SOL    HW3 6379   3.017   1.624   4.296  2.0571 -0.4653  2.9017
 1653SOL    MW4 6380   3.009   1.709   4.315 -0.1366 -0.1381  0.1531
 1654SOL     OW 6381   5.784   4.410   4.002 -0.4721  0.6160  0.1053
 1654SOL    HW2 6382   5.823   4.405   3.914  0.3126 -0.5607  0.4889
 1654SOL    HW3 6383   5.690   4.398   3.987 -0.4083  0.9531 -0.6189
 1654SOL    MW4 6384   5.777   4.408   3.988 -0.0385  0.1146 -0.0508
 1655SOL     OW 6385   4.876   0.859   4.456  0.1498  0.2950  0.3702
 1655SOL    HW2 6386   4.816   0.921   4.416  2.1840 -0.0086 -3.7572
 1655SOL    HW3 6387   4.927   0.911   4.518 -1.7639  1.3812  1.1079
 1655SOL    MW4 6388   4.875   0.874   4.459 -0.8881 -0.1381 -0.3167
 1656SOL     OW 6389   2.084   5.034   2.674 -0.3731 -0.2814  0.2891
 1656SOL    HW2 6390   2.096   5.098   2.744  0.1148 -0.0411 -0.0043
 1656SOL    HW3 6391   2.112   5.079   2.595  1.9853 -1.4753  0.3417
 1656SOL    MW4 6392   2.090   5.048   2.673 -0.1945 -0.3399  0.1948
 1657SOL     OW 6393   4.008   6.212   3.522 -0.0201 -0.6192 -0.2550
 1657SOL    HW2 6394   4.062   6.134   3.511 -0.9527 -1.1150 -1.5441
 1657SOL    HW3 6395   3.966   6.224   3.437 -2.1150 -0.4075  0.7479
 1657SOL    MW4 6396   4.009   6.203   3.509 -0.2779 -0.2560  0.1975
 1658SOL     OW 6397   2.764   5.095   2.939  0.7896  0.5195 -0.1102
 1658SOL    HW2 6398   2.743   5.005   2.965 -0.3928  0.9235  0.4088
 1658SOL    HW3 6399   2.859   5.098   2.936  0.8478 -0.6634  0.2085
 1658SOL    MW4 6400   2.773   5.084   2.942 -0.1700 -0.2830  0.3861
 1659SOL     OW 6401   3.697   2.420   4.814  0.8978 -0.5045  0.0379
 1659SOL    HW2 6402   3.680   2.514   4.814 -1.0549 -0.7895 -1.8761
 1659SOL    HW3 6403   3.616   2.381   4.846  1.5161 -1.5617  0.3433
 1659SOL    MW4 6404   3.684   2.427   4.818  0.0017  0.8955  0.4199
 1660SOL     OW 6405   1.088   0.413   0.344  0.1083  0.1075  0.6287
 1660SOL    HW2 6406   1.141   0.378   0.272 -0.7865 -1.5041  0.7019
 1660SOL    HW3 6407   1.142   0.400   0.422  1.4165  2.5815  0.2308
 1660SOL    MW4 6408   1.102   0.406   0.345 -0.3221 -0.7225 -0.4650
 1661SOL     OW 6409   3.424   2.624   4.100 -0.0694  0.4897 -0.0206
 1661SOL    HW2 6410   3.389   2.591   4.017  0.0651 -1.1174  0.5200
 1661SOL    HW3 6411   3.517   2.639   4.083  0.1570 -0.7101  0.0464
 1661SOL    MW4 6412   3.432   2.621   4.087 -0.2489  0.5745 -0.5170
 1662SOL     OW 6413   4.185   4.256   4.760 -0.1838 -0.1474  0.0363
 1662SOL    HW2 6414   4.255   4.286   4.818 -0.2133  0.4622 -0.2362
 1662SOL    HW3 6415   4.105   4.277   4.807 -0.1968 -0.9151  0.3825
 1662SOL    MW4 6416   4.184   4.263   4.774 -0.0156 -0.3784  0.4397
 1663SOL     OW 6417   5.853   2.576   1.502  0.1296 -0.0936  0.3965
 1663SOL    HW2 6418   5.871   2.639   1.572 -0.9123 -0.5270  1.0798
 1663SOL    HW3 6419   5.927   2.586   1.441 -1.0410  3.2859 -0.6583
 1663SOL    MW4 6420   5.865   2.586   1.504  0.6755 -0.1453  0.4767
 1664SOL     OW 6421   3.326   6.108   5.623  0.3408 -0.3620 -0.0237
 1664SOL    HW2 6422   3.309   6.181   5.681 -1.7983  0.1476 -1.1835
 1664SOL    HW3 6423   3.413   6.077   5.647  0.2615  0.9695  2.1603
 1664SOL    MW4 6424   3.335   6.114   5.634  0.4189  0.0331 -0.4295
 1665SOL     OW 6425   3.207   1.501   1.455  0.4282 -0.2247 -0.7361
 1665SOL    HW2 6426   3.138   1.474   1.516  1.1312 -1.7443 -0.5603
 1665SOL    HW3 6427   3.160   1.526   1.375 -0.3662 -0.7019 -0.4328
 1665SOL    MW4 6428   3.191   1.500   1.452 -0.6150  0.7051 -0.0581
 1666SOL     OW 6429   2.449   1.771   6.402  0.0134  0.1737  0.2830
 1666SOL    HW2 6430   2.463   1.776   6.307  1.8739  0.7180  0.5503
 1666SOL    HW3 6431   2.468   1.679   6.424  0.2268  0.2007  0.2147
 1666SOL    MW4 6432   2.453   1.759   6.392  0.5280 -0.5631  0.4506
 1667SOL     OW 6433   1.764   5.052   5.451 -0.0291 -0.6182 -0.5337
 1667SOL    HW2 6434   1.771   5.146   5.469 -0.1174 -0.6963 -0.0953
 1667SOL    HW3 6435   1.716   5.016   5.525  0.0668 -1.0241 -0.6645
 1667SOL    MW4 6436   1.759   5.060   5.463  0.6622 -0.4849 -0.0356
 1668SOL     OW 6437   2.380   5.384   6.086  0.4526 -0.6614  0.3933
 1668SOL    HW2 6438   2.388   5.377   6.182 -1.8259  1.8217  0.9002
 1668SOL    HW3 6439   2.291   5.416   6.072  1.8306  2.6370 -2.2711
 1668SOL    MW4 6440   2.369   5.387   6.097 -0.3301 -0.2464  0.4740
 1669SOL     OW 6441   2.160   0.691   5.847 -1.3189 -0.0067 -0.0944
 1669SOL    HW2 6442   2.152   0.604   5.807 -1.3650 -0.4983  0.9697
 1669SOL    HW3 6443   2.114   0.684   5.930 -1.7943  1.2061 -0.2350
 1669SOL    MW4 6444   2.153   0.679   5.852 -0.2673 -0.4456  0.1920
 1670SOL     OW 6445   2.790   5.174   2.406 -0.0638  0.6966 -0.0646
 1670SOL    HW2 6446   2.725   5.147   2.471 -0.8949  2.0228 -0.3201
 1670SOL    HW3 6447   2.832   5.092   2.379  0.5818  0.1321  2.4056
 1670SOL    MW4 6448   2.787   5.160   2.411 -0.5218 -0.1813 -0.3804
 1671SOL     OW 6449   2.976   0.722   1.359 -0.0576 -0.2973 -0.7302
 1671SOL    HW2 6450   3.003   0.814   1.362  2.0134 -0.8794 -0.1160
 1671SOL    HW3 6451   3.001   0.693   1.271 -0.1535 -0.4304 -0.7134
 1671SOL    MW4 6452   2.983   0.730   1.348  0.3877 -0.4088  0.1941
 1672SOL     OW 6453   6.401   3.765   5.734  1.0227  0.7634 -0.3573
 1672SOL    HW2 6454   6.336   3.744   5.667  0.9455  0.5907 -0.2295
 1672SOL    HW3 6455   6.351   3.806   5.804  0.9695  0.1752 -0.0422
 1672SOL    MW4 6456   6.386   3.767   5.735 -0.0332  0.0709 -0.0923
 1673SOL     OW 6457   4.987   1.706   2.976 -0.2123 -0.3194 -0.5315
 1673SOL    HW2 6458   4.943   1.621   2.978  1.1858 -1.0697  0.6033
 1673SOL    HW3 6459   5.008   1.723   3.068 -0.0192  1.0314 -0.8110
 1673SOL    MW4 6460   4.984   1.697   2.989 -0.1138 -0.0197 -0.0380
 1674SOL     OW 6461   2.530   5.863   0.835  0.4512 -0.2323 -0.6137
 1674SOL    HW2 6462   2.574   5.777   0.834 -0.5862 -0.7749 -0.6599
 1674SOL    HW3 6463   2.451   5.850   0.783  0.1953  0.7197 -0.4781
 1674SOL    MW4 6464   2.525   5.850   0.828  0.2972 -0.0129 -0.4841
 1675SOL     OW 6465   4.817   1.015   5.335 -0.6563  0.1829  0.2782
 1675SOL    HW2 6466   4.769   1.095   5.313 -0.2207  0.7309  1.2650
 1675SOL    HW3 6467   4.750   0.946   5.335 -1.8436  1.1662  3.0810
 1675SOL    MW4 6468   4.802   1.016   5.332 -0.5200 -0.7328 -0.2143
 1676SOL     OW 6469   2.399   3.481   2.654  0.4365  0.4108  0.1709
 1676SOL    HW2 6470   2.346   3.514   2.582  0.5647 -0.1738 -0.1976
 1676SOL    HW3 6471   2.481   3.531   2.648 -0.5369  2.3286  1.5913
 1676SOL    MW4 6472   2.403   3.492   2.644  0.7286  0.1219 -0.3699
 1677SOL     OW 6473   2.331   1.120   5.363  0.3188  0.6289  0.2934
 1677SOL    HW2 6474   2.318   1.151   5.453 -0.4513 -0.6348  0.6455
 1677SOL    HW3 6475   2.425   1.125   5.349  0.6650 -0.7458  1.8062
 1677SOL    MW4 6476   2.341   1.124   5.373  0.2031  0.4104  0.1292
 1678SOL     OW 6477   1.789   0.533   0.593 -0.3122  0.2597  0.2394
 1678SOL    HW2 6478   1.786   0.553   0.687 -1.3592 -0.6498  0.4219
 1678SOL    HW3 6479   1.837   0.450   0.588  0.0991  0.5163 -0.0698
 1678SOL    MW4 6480   1.795   0.524   0.605  0.2944 -0.7567 -0.2614
 1679SOL     OW 6481   3.034   1.779   1.426  0.2511  0.6335 -0.2592
 1679SOL    HW2 6482   2.948   1.745   1.447  0.7760  1.1865  3.4220
 1679SOL    HW3 6483   3.042   1.768   1.331 -3.6787  0.2873 -0.7009
 1679SOL    MW4 6484   3.024   1.773   1.416  0.0656  0.5444  0.4736
 1680SOL     OW 6485   1.478   1.083   2.251 -0.0274 -0.1763 -0.4380
 1680SOL    HW2 6486   1.423   1.151   2.211  1.9216  1.6599 -0.2316
 1680SOL    HW3 6487   1.531   1.131   2.315  0.6327 -2.1325  0.5357
 1680SOL    MW4 6488   1.478   1.098   2.254 -0.0145 -0.2903  0.3592
 1681SOL     OW 6489   1.886   0.016   0.210 -0.2028  0.0076  0.6198
 1681SOL    HW2 6490   1.821   0.069   0.163  0.6434  0.3597 -0.2023
 1681SOL    HW3 6491   1.840  -0.064   0.233 -1.5778  1.1645  2.0827
 1681SOL    MW4 6492   1.872   0.013   0.207 -0.4504 -0.2093  0.5494
 1682SOL     OW 6493   4.801   5.476   5.435 -0.1588  0.6585  0.1716
 1682SOL    HW2 6494   4.813   5.414   5.364  2.1859  1.7713 -0.5251
 1682SOL    HW3 6495   4.877   5.462   5.492  0.5633  2.9298 -0.1148
 1682SOL    MW4 6496   4.813   5.466   5.433 -0.1749 -0.0790 -0.0575
 1683SOL     OW 6497   2.673   0.134   3.735  0.0834  0.2243 -0.4005
 1683SOL    HW2 6498   2.721   0.051   3.731  1.6548  1.1143 -0.8489
 1683SOL    HW3 6499   2.639   0.138   3.824  2.0344  0.1583  0.3957
 1683SOL    MW4 6500   2.675   0.124   3.746  0.1098  0.3229 -0.7901
 1684SOL     OW 6501   2.083   1.629   3.209  0.0759 -0.1491  0.0935
 1684SOL    HW2 6502   2.046   1.541   3.209  2.4711 -1.2340 -0.6130
 1684SOL    HW3 6503   2.041   1.672   3.134 -0.2264 -1.0857 -0.2898
 1684SOL    MW4 6504   2.072   1.623   3.199 -0.4100 -0.8312  0.2809
 1685SOL     OW 6505   2.631   4.563   3.590  0.0973 -0.2306 -0.1434
 1685SOL    HW2 6506   2.581   4.481   3.596  0.8686 -0.6166  1.9877
 1685SOL    HW3 6507   2.701   4.552   3.654  1.4094  1.3303 -1.2371
 1685SOL    MW4 6508   2.633   4.551   3.599  0.3012  0.8004  0.1444
 1686SOL     OW 6509   3.181   3.139   3.870 -0.6181  0.2749 -0.1142
 1686SOL    HW2 6510   3.210   3.131   3.779  1.3526 -0.2205  0.4990
 1686SOL    HW3 6511   3.188   3.050   3.905 -1.9059  0.3553  0.3734
 1686SOL    MW4 6512   3.186   3.126   3.862  0.7281  0.0015 -0.2140
 1687SOL     OW 6513   5.487   0.359   5.636 -0.3314  0.0737 -0.3051
 1687SOL    HW2 6514   5.426   0.430   5.616  0.0319  0.8588  1.2398
 1687SOL    HW3 6515   5.471   0.294   5.568  0.3821  2.2661 -2.7812
 1687SOL    MW4 6516   5.477   0.360   5.624  0.0611  0.1716 -0.9465
 1688SOL     OW 6517   6.216   2.613   3.988  0.5954 -0.0042 -0.4325
 1688SOL    HW2 6518   6.155   2.571   4.049  1.3820 -0.4589  0.0577
 1688SOL    HW3 6519   6.279   2.545   3.966  0.7425  0.3622 -1.2072
 1688SOL    MW4 6520   6.216   2.599   3.993 -0.0006 -0.2512 -0.2361
 1689SOL     OW 6521   1.977   4.859   4.806  0.0150 -0.0926 -0.2579
 1689SOL    HW2 6522   1.926   4.932   4.773 -1.4978 -2.2223 -3.0283
 1689SOL    HW3 6523   1.933   4.832   4.886 -0.2020  1.1339  0.0510
 1689SOL    MW4 6524   1.965   4.865   4.812  0.3453 -0.3827 -0.0946
 1690SOL     OW 6525   6.263   1.986   2.385  0.5402  0.1942  0.3079
 1690SOL    HW2 6526   6.305   1.916   2.334  0.4728 -0.0404  0.5746
 1690SOL    HW3 6527   6.177   1.996   2.345 -0.3921 -1.4988  1.7022
 1690SOL    MW4 6528   6.257   1.978   2.373 -0.8003 -0.2820 -0.0566
 1691SOL     OW 6529   3.147   3.176   0.858  0.2172  0.4957  0.0665
 1691SOL    HW2 6530   3.122   3.237   0.789  1.3156 -0.2359 -1.0333
 1691SOL    HW3 6531   3.242   3.179   0.860  0.3597 -1.5669 -0.4519
 1691SOL    MW4 6532   3.156   3.184   0.849 -0.1599  0.1472 -0.4565
 1692SOL     OW 6533   0.764   2.061   0.875  0.2091  0.3342  0.5637
 1692SOL    HW2 6534   0.786   1.995   0.940 -3.4954 -1.8815 -0.1071
 1692SOL    HW3 6535   0.740   2.138   0.926 -0.8519 -0.7559  1.7835
 1692SOL    MW4 6536   0.764   2.062   0.890  0.1257  0.0013  0.0493
 1693SOL     OW 6537   1.161   4.972   4.424 -0.3413  0.1222 -0.1119
 1693SOL    HW2 6538   1.243   4.949   4.468 -0.8891  2.8564  2.6843
 1693SOL    HW3 6539   1.092   4.941   4.483 -1.3860 -1.1230 -1.8703
 1693SOL    MW4 6540   1.163   4.965   4.437  0.0470  0.2847  0.2058
 1694SOL     OW 6541   4.716   2.095   6.219  0.6427 -0.1687  0.5440
 1694SOL    HW2 6542   4.641   2.055   6.264  1.0596 -1.5159  0.0977
 1694SOL    HW3 6543   4.748   2.161   6.279 -1.5926  1.2605  0.2823
 1694SOL    MW4 6544   4.710   2.098   6.233  0.4959 -0.1028  0.5554
 1695SOL     OW 6545   2.116   0.440   5.720 -0.0557  0.4395 -0.8856
 1695SOL    HW2 6546   2.049   0.372   5.730 -1.1105  1.1896 -2.4355
 1695SOL    HW3 6547   2.197   0.398   5.748 -1.1962 -0.4002  1.3827
 1695SOL    MW4 6548   2.118   0.426   5.725  0.4947 -0.1065  0.1693
 1696SOL     OW 6549   1.291   5.348   2.273  0.6911 -0.1107 -0.2927
 1696SOL    HW2 6550   1.336   5.364   2.356  0.0333 -0.0588  0.0579
 1696SOL    HW3 6551   1.216   5.294   2.296  0.7352 -0.4497 -0.9175
 1696SOL    MW4 6552   1.287   5.343   2.287  0.4157 -0.0579 -0.1496
 1697SOL     OW 6553   3.018   3.448   4.076  0.0833 -0.1527 -0.1725
 1697SOL    HW2 6554   3.031   3.485   3.989 -1.2891 -1.1311 -0.8285
 1697SOL    HW3 6555   3.075   3.500   4.133  0.4772  0.9630 -1.5297
 1697SOL    MW4 6556   3.027   3.460   4.072 -0.3471 -0.2088  0.2311
 1698SOL     OW 6557   4.162   1.229   2.391  0.0350  0.6820  0.0519
 1698SOL    HW2 6558   4.151   1.269   2.477  0.1059 -0.2018  0.4706
 1698SOL    HW3 6559   4.091   1.267   2.339 -0.2889  0.8681  0.6198
 1698SOL    MW4 6560   4.151   1.240   2.395  0.0647  0.3601  0.2745
 1699SOL     OW 6561   5.037   4.168   4.970  0.0319  0.1273  0.3284
 1699SOL    HW2 6562   5.060   4.257   4.941 -0.3030 -0.0633 -0.5554
 1699SOL    HW3 6563   4.952   4.151   4.930 -0.4237 -0.1821  1.4007
 1699SOL    MW4 6564   5.029   4.178   4.961  0.3439 -0.2425  0.2864
 1700SOL     OW 6565   4.294   2.806   5.644 -0.1543 -0.0819  0.4717
 1700SOL    HW2 6566   4.311   2.726   5.595  0.9676 -0.9904  2.2417
 1700SOL    HW3 6567   4.297   2.876   5.579 -1.3343 -1.4515 -1.1438
 1700SOL    MW4 6568   4.296   2.805   5.629 -0.3320 -0.7017  0.0322
 1701SOL     OW 6569   0.510   4.014   1.141 -0.3342 -0.0767  0.9764
 1701SOL    HW2 6570   0.481   4.104   1.156 -0.0938 -0.1780  2.1632
 1701SOL    HW3 6571   0.533   4.012   1.048 -1.8483  0.6432  0.5439
 1701SOL    MW4 6572   0.509   4.026   1.130  0.1662 -0.2705  0.4158
 1702SOL     OW 6573   2.578   2.610   4.920 -0.0074  0.0722  0.4065
 1702SOL    HW2 6574   2.560   2.517   4.905  1.5169 -0.4113  1.3587
 1702SOL    HW3 6575   2.538   2.655   4.845  0.8259 -1.5096 -1.0497
 1702SOL    MW4 6576   2.570   2.604   4.908  0.5152 -0.3139 -0.4638
 1703SOL     OW 6577   4.344   3.548   0.494  0.4601  0.3787 -0.3539
 1703SOL    HW2 6578   4.290   3.566   0.417 -0.4382 -0.1064  0.1322
 1703SOL    HW3 6579   4.310   3.464   0.527 -0.9143  1.7411  1.9895
 1703SOL    MW4 6580   4.332   3.539   0.489 -0.6813  0.5315 -0.3502
 1704SOL     OW 6581   3.860   5.016   1.122 -0.3658  0.7414 -0.1963
 1704SOL    HW2 6582   3.892   5.079   1.187  0.0032 -0.9649  1.3415
 1704SOL    HW3 6583   3.772   5.047   1.100 -0.2460  1.7084  0.6326
 1704SOL    MW4 6584   3.852   5.029   1.128 -0.6627 -0.0354 -0.0108
 1705SOL     OW 6585   4.737   4.017   1.545 -0.5838 -0.1701  0.1377
 1705SOL    HW2 6586   4.814   3.979   1.504 -1.0916  0.1426 -1.1608
 1705SOL    HW3 6587   4.766   4.042   1.633  0.7047 -0.3339 -0.2180
 1705SOL    MW4 6588   4.751   4.016   1.552  0.3239  0.4340 -0.0267
 1706SOL     OW 6589   1.144   4.923   5.418  0.7149  0.0551 -0.1327
 1706SOL    HW2 6590   1.215   4.884   5.368  0.3989 -0.1094 -0.4554
 1706SOL    HW3 6591   1.122   5.003   5.371  0.8423  0.2276  0.0982
 1706SOL    MW4 6592   1.151   4.929   5.405 -0.6896  0.4077 -0.7272
 1707SOL     OW 6593   0.983   6.307   1.374  0.2255  0.3476 -0.5946
 1707SOL    HW2 6594   0.916   6.258   1.326  2.2874 -1.0895 -2.1483
 1707SOL    HW3 6595   0.978   6.272   1.463  1.0749 -2.1947 -1.4573
 1707SOL    MW4 6596   0.973   6.296   1.380 -0.4239  0.0636 -0.1349
 1708SOL     OW 6597   0.471   0.570   0.089 -0.1118  0.1720  0.3306
 1708SOL    HW2 6598   0.549   0.590   0.037  0.5955  0.6619  1.5560
 1708SOL    HW3 6599   0.430   0.497   0.042  0.7949  0.2415 -0.6108
 1708SOL    MW4 6600   0.476   0.563   0.076  0.2304  0.0334  0.7545
 1709SOL     OW 6601   1.934   4.464   0.690  0.1216  0.1569  0.3748
 1709SOL    HW2 6602   1.839   4.465   0.680  0.1203  0.6362  0.4087
 1709SOL    HW3 6603   1.961   4.380   0.654 -0.4749 -0.7372  1.9085
 1709SOL    MW4 6604   1.925   4.453   0.684 -0.2013 -0.0620  0.4239
 1710SOL     OW 6605   3.414   3.161   0.899 -0.2709 -0.2313  0.0269
 1710SOL    HW2 6606   3.432   3.096   0.832 -0.0495 -0.1118 -0.0321
 1710SOL    HW3 6607   3.449   3.123   0.980 -0.4863 -0.3505  0.0648
 1710SOL    MW4 6608   3.421   3.148   0.901  0.1013  0.1654  0.0917
 1711SOL     OW 6609   0.382   2.948   0.959  0.2528  0.1811  0.3920
 1711SOL    HW2 6610   0.353   3.008   0.890 -0.3693  0.0439  0.5257
 1711SOL    HW3 6611   0.310   2.886   0.968  1.0472 -0.8113  0.0109
 1711SOL    MW4 6612   0.369   2.948   0.951 -0.4448  0.5982  0.5378
 1712SOL     OW 6613   4.382   5.343   5.269 -0.3518 -0.9032  0.1233
 1712SOL    HW2 6614   4.306   5.355   5.213  0.4496  0.6225 -0.7016
 1712SOL    HW3 6615   4.407   5.432   5.295  1.8485 -1.2446 -0.6084
 1712SOL    MW4 6616   4.375   5.357   5.265 -0.5203 -0.4934 -0.3150
 1713SOL     OW 6617   1.866   0.055   4.339  0.4425  0.5074 -0.4624
 1713SOL    HW2 6618   1.858  -0.033   4.300  1.1263  0.5865 -0.7865
 1713SOL    HW3 6619   1.775   0.084   4.349  0.1367 -0.7020  0.7324
 1713SOL    MW4 6620   1.853   0.047   4.335 -0.2235 -0.0098  0.3946
 1714SOL     OW 6621   1.725   2.178   3.012 -0.1985 -0.3082  0.1131
 1714SOL    HW2 6622   1.698   2.112   3.076 -1.1839  0.9127  0.9763
 1714SOL    HW3 6623   1.788   2.232   3.059 -0.3987  0.1763 -0.1783
 1714SOL    MW4 6624   1.730   2.176   3.027 -0.1456  0.3786  0.0927
 1715SOL     OW 6625   0.890   4.943   1.632  0.1927 -0.0375  0.1859
 1715SOL    HW2 6626   0.954   4.973   1.697  0.5708  0.3417 -0.3538
 1715SOL    HW3 6627   0.943   4.923   1.554 -0.0404 -2.0075  0.4685
 1715SOL    MW4 6628   0.906   4.944   1.630 -0.1291  0.3248  0.1163
 1716SOL     OW 6629   5.090   5.537   1.563  0.4365 -0.1162  0.5261
 1716SOL    HW2 6630   5.183   5.543   1.538  0.4923 -0.2493  0.6971
 1716SOL    HW3 6631   5.049   5.613   1.521  0.6188 -0.0700  0.4300
 1716SOL    MW4 6632   5.097   5.548   1.554  0.4377 -0.0162  0.7153
 1717SOL     OW 6633   0.793   3.830   3.780 -0.3016 -0.2463  0.2360
 1717SOL    HW2 6634   0.881   3.858   3.808  0.1673 -0.5031 -0.9314
 1717SOL    HW3 6635   0.741   3.832   3.860 -0.0594  3.0201  0.4201
 1717SOL    MW4 6636   0.798   3.834   3.794 -0.0023  0.1350  0.6021
 1718SOL     OW 6637   2.664   2.171   0.535  0.0326 -0.9674  0.0699
 1718SOL    HW2 6638   2.640   2.254   0.492  0.8964  0.2923  1.8939
 1718SOL    HW3 6639   2.746   2.145   0.494  0.0899 -0.5727 -0.0699
 1718SOL    MW4 6640   2.671   2.179   0.524  0.4310 -0.0349 -0.6160
 1719SOL     OW 6641   2.652   1.276   4.399 -0.5251 -0.5623 -0.2441
 1719SOL    HW2 6642   2.719   1.289   4.466  0.5124 -1.4823 -1.0720
 1719SOL    HW3 6643   2.677   1.336   4.328 -1.3412  0.0477 -0.0360
 1719SOL    MW4 6644   2.664   1.286   4.398 -0.1447 -0.1468  0.3035
 1720SOL     OW 6645   2.190   1.353   3.983  0.3436  0.3772 -0.1242
 1720SOL    HW2 6646   2.240   1.341   3.903  2.4908  4.1990  0.4201
 1720SOL    HW3 6647   2.105   1.385   3.954  0.3134 -0.3266 -0.8684
 1720SOL    MW4 6648   2.186   1.355   3.969  0.2184 -0.6820 -0.4506
 1721SOL     OW 6649   6.132   1.763   2.946 -0.4090  0.1798  0.4467
 1721SOL    HW2 6650   6.042   1.763   2.978 -0.2436 -0.4558  0.9433
 1721SOL    HW3 6651   6.129   1.815   2.865 -1.0698  0.8001  0.8524
 1721SOL    MW4 6652   6.120   1.770   2.939 -0.6551 -0.0222  0.3579
 1722SOL     OW 6653   5.661   2.764   0.148  0.2986  0.1141  0.1684
 1722SOL    HW2 6654   5.706   2.837   0.106  0.0530  0.4385  0.4665
 1722SOL    HW3 6655   5.648   2.701   0.077  0.7971  0.2191 -0.0205
 1722SOL    MW4 6656   5.665   2.765   0.133  0.1989 -0.0154 -0.4737
 1723SOL     OW 6657   2.769   4.277   6.027  0.4774  0.2674  0.1199
 1723SOL    HW2 6658   2.694   4.260   5.971  0.7475  0.6721 -0.3829
 1723SOL    HW3 6659   2.837   4.216   5.995  0.2501 -0.3601  0.8171
 1723SOL    MW4 6660   2.768   4.267   6.015 -0.6396  0.3781  0.0673
 1724SOL     OW 6661   1.866   3.942   4.848 -0.2469  0.4499 -0.4734
 1724SOL    HW2 6662   1.893   3.884   4.777 -0.7303 -1.3626  0.7486
 1724SOL    HW3 6663   1.947   3.983   4.879  0.1368  0.2450 -1.1922
 1724SOL    MW4 6664   1.880   3.940   4.843 -0.5140  0.0758 -0.1797
 1725SOL     OW 6665   0.908   3.691   2.525  0.5826 -0.2519  0.0567
 1725SOL    HW2 6666   0.862   3.614   2.493  0.5611 -0.3105  0.2264
 1725SOL    HW3 6667   0.928   3.670   2.616 -1.2049  0.7254  0.7391
 1725SOL    MW4 6668   0.904   3.678   2.533 -0.5006 -0.1075  0.2666
 1726SOL     OW 6669   0.200   0.821   3.500 -0.0493  0.4949 -0.5686
 1726SOL    HW2 6670   0.202   0.844   3.407 -0.1981  0.2913 -0.6195
 1726SOL    HW3 6671   0.120   0.862   3.533  0.1337  0.7808 -0.4764
 1726SOL    MW4 6672   0.190   0.830   3.492 -0.3951  0.5969  0.0607
 1727SOL     OW 6673   0.150   6.149   2.279  0.1770 -0.4446  0.1807
 1727SOL    HW2 6674   0.068   6.153   2.231  0.4994 -1.1675 -0.4493
 1727SOL    HW3 6675   0.218   6.158   2.212  0.6315  1.0254  0.7807
 1727SOL    MW4 6676   0.148   6.151   2.264 -0.4630  0.1463  0.5328
 1728SOL     OW 6677   5.644   2.957   0.434  0.1489 -0.3996 -0.2624
 1728SOL    HW2 6678   5.598   3.003   0.504  0.0861 -1.1388  0.1982
 1728SOL    HW3 6679   5.664   2.871   0.471  1.3689 -0.3130 -0.6583
 1728SOL    MW4 6680   5.641   2.951   0.448  0.1619 -0.5256  0.2823
 1729SOL     OW 6681   1.719   1.493   5.174  0.3973  0.1421 -0.1683
 1729SOL    HW2 6682   1.631   1.481   5.140  0.8731 -0.4900 -1.2281
 1729SOL    HW3 6683   1.742   1.583   5.149 -0.7085  1.1280  2.0156
 1729SOL    MW4 6684   1.711   1.504   5.166  0.1622  0.1599  0.1942
 1730SOL     OW 6685   4.747   2.206   2.834  0.1345  0.9492  0.4367
 1730SOL    HW2 6686   4.820   2.169   2.884 -0.0266  0.4592  0.3090
 1730SOL    HW3 6687   4.787   2.238   2.753 -0.2601 -2.3498 -1.1836
 1730SOL    MW4 6688   4.762   2.206   2.830  0.4674 -0.4498 -0.3533
 1731SOL     OW 6689   5.353   1.597   1.386  0.8457 -0.0328  0.0366
 1731SOL    HW2 6690   5.332   1.577   1.477 -1.8234 -0.5279 -0.6072
 1731SOL    HW3 6691   5.402   1.679   1.391  1.1315 -0.2620  1.9343
 1731SOL    MW4 6692   5.357   1.606   1.399  0.2247 -0.7985 -0.0800
 1732SOL     OW 6693   4.747   1.521   1.609 -0.1675 -0.1378  0.6378
 1732SOL    HW2 6694   4.652   1.535   1.607 -0.5110 -2.1465  0.9836
 1732SOL    HW3 6695   4.757   1.428   1.627  1.8983  0.1451  1.1718
 1732SOL    MW4 6696   4.736   1.511   1.611 -0.3009 -0.3133  0.1270
 1733SOL     OW 6697   4.727   4.076   5.692 -0.1262 -0.3749  0.0456
 1733SOL    HW2 6698   4.755   4.064   5.783  0.2294  0.7932  0.0956
 1733SOL    HW3 6699   4.633   4.095   5.698 -0.9646 -3.7109 -0.0886
 1733SOL    MW4 6700   4.718   4.077   5.705  0.1907 -0.1743  0.4864
 1734SOL     OW 6701   2.392   1.446   2.454  0.2822  0.1889 -0.6343
 1734SOL    HW2 6702   2.357   1.476   2.370 -0.4069 -0.9697 -0.7702
 1734SOL    HW3 6703   2.332   1.482   2.519 -0.1170 -0.2635 -0.7489
 1734SOL    MW4 6704   2.380   1.455   2.451  0.1237 -0.2498  0.1668
 1735SOL     OW 6705   3.285   0.404   1.208 -0.0652  0.0466  0.3221
 1735SOL    HW2 6706   3.258   0.313   1.194  2.5246 -1.1290  2.1505
 1735SOL    HW3 6707   3.294   0.412   1.303  0.2917  2.0767  0.1653
 1735SOL    MW4 6708   3.282   0.393   1.219  0.3197 -0.4633 -0.2640
 1736SOL     OW 6709   4.456   1.170   5.825 -0.2778 -0.2876  0.3350
 1736SOL    HW2 6710   4.407   1.097   5.785 -0.8384  1.0655 -1.5666
 1736SOL    HW3 6711   4.548   1.145   5.814 -0.4596 -1.3045  0.9214
 1736SOL    MW4 6712   4.461   1.157   5.819 -0.4599 -0.2967  1.3533
 1737SOL     OW 6713   0.384   4.648   1.435 -0.2167  0.4926  0.3670
 1737SOL    HW2 6714   0.330   4.608   1.503 -1.0923  2.6273  1.0114
 1737SOL    HW3 6715   0.323   4.663   1.363  0.7632 -2.0195 -1.1118
 1737SOL    MW4 6716   0.369   4.644   1.435 -0.2613 -0.1280 -0.3492
 1738SOL     OW 6717   4.813   4.432   2.462 -0.5489 -0.3392 -0.0355
 1738SOL    HW2 6718   4.866   4.353   2.448 -0.6170 -0.1325 -1.6835
 1738SOL    HW3 6719   4.874   4.504   2.448 -0.9526 -0.1081 -0.6667
 1738SOL    MW4 6720   4.828   4.431   2.458  0.4368 -0.4771 -0.0123
 1739SOL     OW 6721   6.264   3.967   2.888  0.0711  0.5093  0.1419
 1739SOL    HW2 6722   6.274   3.960   2.983 -1.2828  1.9314  0.4332
 1739SOL    HW3 6723   6.213   3.890   2.863 -0.0624  0.4267  0.6635
 1739SOL    MW4 6724   6.258   3.956   2.897 -0.8443 -0.2237 -0.0261
 1740SOL     OW 6725   4.929   1.348   3.362  0.1913 -0.3450 -0.0744
 1740SOL    HW2 6726   4.985   1.275   3.334 -0.0786  0.3204 -2.5718
 1740SOL    HW3 6727   4.962   1.370   3.449  0.6987 -2.9964  0.5094
 1740SOL    MW4 6728   4.941   1.341   3.370  0.4044  0.2763  0.5262
 1741SOL     OW 6729   0.040   4.715   2.191  0.5920  0.4181  0.5189
 1741SOL    HW2 6730  -0.016   4.742   2.263  0.8542  1.1930  0.4419
 1741SOL    HW3 6731   0.129   4.717   2.228  0.6565  0.0961  0.3839
 1741SOL    MW4 6732   0.045   4.719   2.205 -0.0902 -0.0780 -0.1332
 1742SOL     OW 6733   0.328   1.138   2.731 -0.0786 -0.2392 -0.1712
 1742SOL    HW2 6734   0.326   1.108   2.640 -1.6014 -0.2609 -0.1646
 1742SOL    HW3 6735   0.320   1.058   2.782  0.8320 -0.2315 -0.0102
 1742SOL    MW4 6736   0.327   1.123   2.725 -0.3474  0.2768  0.2723
 1743SOL     OW 6737   5.715   5.562   5.846 -0.5739  0.4528 -0.3858
 1743SOL    HW2 6738   5.702   5.600   5.759 -0.0809 -2.4894 -1.8730
 1743SOL    HW3 6739   5.810   5.553   5.855 -0.6375  0.4085  0.3317
 1743SOL    MW4 6740   5.726   5.566   5.836 -0.5764  0.6058 -0.6760
 1744SOL     OW 6741   5.673   5.919   3.369  0.2869  0.1268 -0.2963
 1744SOL    HW2 6742   5.595   5.863   3.369 -2.4490  3.5714  1.2213
 1744SOL    HW3 6743   5.669   5.966   3.453  2.4217  2.4946 -1.3926
 1744SOL    MW4 6744   5.663   5.918   3.380 -0.3716  0.1735  0.5832
 1745SOL     OW 6745   4.513   2.495   0.099  0.4139 -0.0085  0.2403
 1745SOL    HW2 6746   4.458   2.516   0.023  2.7916 -0.5973 -1.7600
 1745SOL    HW3 6747   4.485   2.558   0.166  0.1641  2.5234 -2.0666
 1745SOL    MW4 6748   4.502   2.506   0.098 -0.3550 -0.5687 -0.4978
 1746SOL     OW 6749   3.407   0.122   1.653 -0.4233 -0.1794 -0.8436
 1746SOL    HW2 6750   3.455   0.080   1.725  1.2835  1.3259 -1.0309
 1746SOL    HW3 6751   3.322   0.146   1.692 -0.0830 -0.6745  0.2487
 1746SOL    MW4 6752   3.402   0.120   1.668  0.8330 -0.3364  0.1441
 1747SOL     OW 6753   2.753   0.363   1.004  0.5246 -0.1020 -0.0026
 1747SOL    HW2 6754   2.844   0.377   0.981  0.1895  0.9279 -0.7407
 1747SOL    HW3 6755   2.739   0.418   1.081  0.0522  1.1978 -0.9939
 1747SOL    MW4 6756   2.763   0.372   1.011  0.0364 -0.0909  0.2571
 1748SOL     OW 6757   0.906   1.174   3.972 -0.1099 -0.3541  0.1013
 1748SOL    HW2 6758   0.869   1.090   3.946  1.0483 -1.0992  0.7492
 1748SOL    HW3 6759   0.870   1.192   4.059  0.1193 -0.4963  0.2277
 1748SOL    MW4 6760   0.897   1.166   3.980  0.0806 -0.5181 -0.0371
 1749SOL     OW 6761   0.767   1.641   1.623 -0.3315 -0.0792  0.3301
 1749SOL    HW2 6762   0.739   1.550   1.613  0.6883 -0.3356 -0.3223
 1749SOL    HW3 6763   0.803   1.645   1.712  1.3051 -0.8013 -0.2736
 1749SOL    MW4 6764   0.768   1.629   1.634  0.0363  0.1789 -0.4148
 1750SOL     OW 6765   4.515   0.234   0.798 -0.4384  0.3506  0.7206
 1750SOL    HW2 6766   4.446   0.179   0.759 -0.8130  1.4057 -0.1574
 1750SOL    HW3 6767   4.488   0.244   0.889  0.2389 -1.8288  1.2231
 1750SOL    MW4 6768   4.502   0.228   0.805  0.1250  0.0307 -0.0194
 1751SOL     OW 6769   0.530   0.035   2.109  0.0647 -0.0111 -0.3629
 1751SOL    HW2 6770   0.560   0.042   2.018  1.3155 -0.8009 -0.0356
 1751SOL    HW3 6771   0.479   0.115   2.123  0.7004  0.6166 -1.4529
 1751SOL    MW4 6772   0.528   0.047   2.099  0.0435 -0.4794 -0.0447
 1752SOL     OW 6773   2.738   2.205   0.801 -0.1046  0.5752 -0.4668
 1752SOL    HW2 6774   2.704   2.182   0.715 -1.1270  1.7996 -0.4144
 1752SOL    HW3 6775   2.803   2.273   0.784 -0.2854  0.7960 -0.2798
 1752SOL    MW4 6776   2.742   2.211   0.788  0.1586 -0.7217 -0.2811
 1753SOL     OW 6777   3.665   5.053   0.737  0.2233 -0.0232  0.1226
 1753SOL    HW2 6778   3.741   5.063   0.678  1.2644  0.3212  1.4701
 1753SOL    HW3 6779   3.643   4.960   0.732  1.7453 -0.4529  0.8941
 1753SOL    MW4 6780   3.672   5.042   0.728 -0.6399  0.2599 -0.1750
 1754SOL     OW 6781   6.292   1.991   4.192 -0.0450 -0.2547 -0.0207
 1754SOL    HW2 6782   6.387   1.999   4.202 -0.0974 -1.1683  1.7410
 1754SOL    HW3 6783   6.276   1.896   4.187 -0.8155 -0.0858 -1.1541
 1754SOL    MW4 6784   6.303   1.979   4.193  0.0755 -0.2352 -0.6032
 1755SOL     OW 6785   0.408   6.185   5.923  0.2238 -0.4335  0.2092
 1755SOL    HW2 6786   0.338   6.171   5.859  1.3366  1.0961 -1.4555
 1755SOL    HW3 6787   0.485   6.143   5.884  0.7182 -0.2729  0.9860
 1755SOL    MW4 6788   0.409   6.178   5.909 -0.2234  0.1077 -0.1999
 1756SOL     OW 6789   4.637   3.399   4.298  0.5030 -0.3064 -0.0408
 1756SOL    HW2 6790   4.689   3.345   4.239 -0.8626 -1.2935 -0.3858
 1756SOL    HW3 6791   4.610   3.474   4.245  0.5107 -0.4391 -0.2331
 1756SOL    MW4 6792   4.641   3.402   4.283 -0.5696 -0.4060  0.0865
 1757SOL     OW 6793   4.208   1.121   1.804  0.2715  0.3256 -0.1555
 1757SOL    HW2 6794   4.208   1.025   1.808  0.2130  0.1851 -2.2292
 1757SOL    HW3 6795   4.263   1.148   1.877 -1.5679 -1.1525  1.8986
 1757SOL    MW4 6796   4.215   1.112   1.814 -0.0738  0.9350 -0.0368
 1758SOL     OW 6797   6.150   3.981   0.804 -0.1223  0.2588  0.5677
 1758SOL    HW2 6798   6.069   4.027   0.784 -0.3112  0.4678  1.7487
 1758SOL    HW3 6799   6.128   3.924   0.878  1.0708  1.1746  1.6951
 1758SOL    MW4 6800   6.137   3.979   0.811  0.3035 -0.0067  0.5744
 1759SOL     OW 6801   6.060   2.381   6.209 -0.1264 -0.0341 -0.3068
 1759SOL    HW2 6802   6.100   2.360   6.125 -2.0154  1.5230 -1.7084
 1759SOL    HW3 6803   6.122   2.441   6.252  1.3217 -1.6395 -0.0798
 1759SOL    MW4 6804   6.073   2.386   6.204  0.9790  0.7436  0.4905
 1760SOL     OW 6805   1.466   5.877   2.739  0.4639 -0.4659 -0.2505
 1760SOL    HW2 6806   1.372   5.878   2.757  0.6837 -0.4792  0.9914
 1760SOL    HW3 6807   1.493   5.786   2.755  0.9145 -0.1719  0.7139
 1760SOL    MW4 6808   1.457   5.865   2.743  0.1014 -0.5427  0.1190
 1761SOL     OW 6809   3.048   6.155   4.039  0.0390 -0.2392  0.1314
 1761SOL    HW2 6810   3.037   6.088   4.107 -0.5442 -1.2327 -0.9119
 1761SOL    HW3 6811   3.125   6.126   3.990  0.7063  0.6969  0.6023
 1761SOL    MW4 6812   3.057   6.142   4.042 -0.1959  0.0722  0.1868
 1762SOL     OW 6813   1.306   0.223   2.103 -0.2065  0.3740 -0.1234
 1762SOL    HW2 6814   1.373   0.183   2.048 -0.6412  0.3803 -0.6621
 1762SOL    HW3 6815   1.304   0.315   2.076  1.7792  1.1660  2.0690
 1762SOL    MW4 6816   1.315   0.230   2.092  0.4519 -0.1445  0.0704
 1763SOL     OW 6817   3.314   6.052   6.235  0.7824 -0.2547  0.1248
 1763SOL    HW2 6818   3.229   6.030   6.196  1.6733 -2.5428 -0.6712
 1763SOL    HW3 6819   3.354   6.112   6.173  0.7110 -1.0728 -0.7410
 1763SOL    MW4 6820   3.308   6.057   6.222 -0.4398  0.2583  0.0601
 1764SOL     OW 6821   2.168   0.405   3.085  0.3311 -0.2848 -0.4789
 1764SOL    HW2 6822   2.203   0.440   3.167  0.6418  0.5294 -0.9340
 1764SOL    HW3 6823   2.240   0.416   3.022 -0.2413  0.0496 -1.0901
 1764SOL    MW4 6824   2.182   0.411   3.088  0.2823  0.4951  1.0036
 1765SOL     OW 6825   0.769   2.725   2.779  0.2732  0.1389  0.7974
 1765SOL    HW2 6826   0.826   2.801   2.773  0.1033  0.1807 -0.9113
 1765SOL    HW3 6827   0.826   2.653   2.805  1.1293  0.1868 -0.8512
 1765SOL    MW4 6828   0.784   2.725   2.782  0.0418 -0.3276  0.5034
 1766SOL     OW 6829   1.711   2.208   0.459  0.2701  0.6119  0.3865
 1766SOL    HW2 6830   1.635   2.229   0.513  0.0184  0.1146  0.2245
 1766SOL    HW3 6831   1.693   2.249   0.375 -0.1782 -0.1492  0.1008
 1766SOL    MW4 6832   1.699   2.216   0.455 -0.4688 -0.3216 -0.1996
 1767SOL     OW 6833   2.024   3.771   0.016  0.4746  0.2789 -0.6421
 1767SOL    HW2 6834   2.020   3.781   0.111  1.2179 -0.8111 -0.4854
 1767SOL    HW3 6835   2.113   3.743  -0.001 -0.0178 -0.7826 -1.5426
 1767SOL    MW4 6836   2.035   3.769   0.026 -1.0989 -0.2566  0.4816
 1768SOL     OW 6837   1.352   5.812   0.981  0.4038  0.0441  0.0324
 1768SOL    HW2 6838   1.384   5.769   1.060  0.0932 -3.8346 -1.7166
 1768SOL    HW3 6839   1.273   5.763   0.958  1.0850  0.2662 -3.2388
 1768SOL    MW4 6840   1.346   5.800   0.989  0.0561  0.2459 -0.6062
 1769SOL     OW 6841   4.878   0.918   1.543 -0.2907 -0.3761 -0.3772
 1769SOL    HW2 6842   4.908   0.842   1.493 -1.8134 -2.1230  1.1688
 1769SOL    HW3 6843   4.944   0.930   1.611 -0.2904 -0.6731 -0.3212
 1769SOL    MW4 6844   4.891   0.909   1.546 -0.6635  0.2951 -0.3434
 1770SOL     OW 6845   4.966   1.855   5.592 -0.4978 -0.7897  0.5414
 1770SOL    HW2 6846   5.057   1.851   5.562  0.0384 -0.2136  1.9640
 1770SOL    HW3 6847   4.941   1.946   5.581 -1.2261 -1.1175 -0.6647
 1770SOL    MW4 6848   4.975   1.866   5.587  0.0243  0.9839 -0.0258
 1771SOL     OW 6849   3.061   4.701   5.061  0.1853 -0.3737 -0.0258
 1771SOL    HW2 6850   3.053   4.702   4.965  1.6195  1.9732 -0.1962
 1771SOL    HW3 6851   2.989   4.756   5.092 -0.3826 -1.2697  0.2921
 1771SOL    MW4 6852   3.051   4.708   5.052 -0.4698 -0.1240  0.2654
 1772SOL     OW 6853   4.363   6.221   1.678 -0.1579  0.0191  0.1248
 1772SOL    HW2 6854   4.364   6.253   1.769 -1.5486  2.6306 -0.6908
 1772SOL    HW3 6855   4.447   6.249   1.642 -0.7443  1.5034 -0.1433
 1772SOL    MW4 6856   4.374   6.229   1.685  0.2598  0.0796  0.2551
 1773SOL     OW 6857   3.188   3.856   3.802  0.0064 -1.2186 -0.3844
 1773SOL    HW2 6858   3.183   3.783   3.740 -1.1739 -1.0561 -0.4943
 1773SOL    HW3 6859   3.097   3.880   3.819  0.3689  0.3451 -0.4866
 1773SOL    MW4 6860   3.175   3.850   3.796  0.1990 -0.1660 -0.3963
 1774SOL     OW 6861   0.366   2.808   5.103 -0.1390  0.5770 -0.2236
 1774SOL    HW2 6862   0.276   2.773   5.101  0.1027 -0.1949  1.0956
 1774SOL    HW3 6863   0.415   2.751   5.044 -0.3382  0.4584 -0.2758
 1774SOL    MW4 6864   0.360   2.796   5.095 -0.6388  0.5587 -0.1159
 1775SOL     OW 6865   4.122   5.334   2.817 -0.2061  0.1614  0.8213
 1775SOL    HW2 6866   4.097   5.245   2.794  1.1731 -0.0302 -0.0181
 1775SOL    HW3 6867   4.172   5.325   2.898  0.0091  0.1602  0.6889
 1775SOL    MW4 6868   4.126   5.321   2.825  0.3133  0.0527 -0.1439
 1776SOL     OW 6869   3.461   2.024   1.869  0.1922  0.0513  0.0519
 1776SOL    HW2 6870   3.415   2.108   1.872  0.6116  0.2681  0.7280
 1776SOL    HW3 6871   3.425   1.980   1.793 -0.3506  0.6654 -0.0599
 1776SOL    MW4 6872   3.450   2.030   1.859  0.2247 -0.0914  0.4008
 1777SOL     OW 6873   2.662   3.218   3.117  0.2622  0.5671 -0.5731
 1777SOL    HW2 6874   2.616   3.135   3.106  0.1345  0.3903  1.1169
 1777SOL    HW3 6875   2.739   3.210   3.060  0.6677 -1.0257  0.1481
 1777SOL    MW4 6876   2.666   3.206   3.108 -0.3536  0.4918  0.1102
 1778SOL     OW 6877   3.077   5.871   4.734 -0.1293 -0.0036 -0.0968
 1778SOL    HW2 6878   3.087   5.936   4.665  0.6587  0.9013  0.8380
 1778SOL    HW3 6879   3.166   5.840   4.752 -0.3931 -0.6707  0.1045
 1778SOL    MW4 6880   3.090   5.875   4.728  0.6341 -0.4915 -0.4564
 1779SOL     OW 6881   3.624   5.361   0.455 -0.0961 -0.1164 -0.0654
 1779SOL    HW2 6882   3.692   5.310   0.412 -0.0434 -0.1200  0.0241
 1779SOL    HW3 6883   3.667   5.443   0.481 -0.3731  0.3222 -0.9386
 1779SOL    MW4 6884   3.638   5.365   0.453 -0.4570  0.3499  0.2186
 1780SOL     OW 6885   0.794   1.743   3.703  0.2768 -0.3562  0.1046
 1780SOL    HW2 6886   0.806   1.714   3.612  1.1854 -0.3157  0.2014
 1780SOL    HW3 6887   0.835   1.675   3.756  0.8735  0.2393  0.4194
 1780SOL    MW4 6888   0.801   1.731   3.698  0.7523 -0.7603  1.0742
 1781SOL     OW 6889   1.833   2.718   3.296  0.0622 -0.1189 -0.2277
 1781SOL    HW2 6890   1.786   2.718   3.213  1.2841 -1.0057 -0.9380
 1781SOL    HW3 6891   1.923   2.697   3.273  0.1040 -2.0796  1.4848
 1781SOL    MW4 6892   1.839   2.715   3.282  0.0074 -0.0293 -0.1887
 1782SOL     OW 6893   2.006   4.181   4.016 -0.2918 -0.5763  0.3758
 1782SOL    HW2 6894   2.090   4.208   3.977 -0.8694  1.3828  0.4097
 1782SOL    HW3 6895   2.026   4.099   4.062  1.0775 -1.3905 -1.5357
 1782SOL    MW4 6896   2.020   4.174   4.017 -0.5315 -0.6364  0.1045
 1783SOL     OW 6897   5.366   1.727   6.155 -0.3729 -0.1031 -0.0272
 1783SOL    HW2 6898   5.317   1.787   6.210 -1.0149  0.0490 -0.7487
 1783SOL    HW3 6899   5.372   1.647   6.205  0.0476  0.3904  0.7335
 1783SOL    MW4 6900   5.361   1.725   6.169  1.0936  0.1060  0.0937
 1784SOL     OW 6901   5.874   1.047   1.159 -0.2485  0.1113  0.0584
 1784SOL    HW2 6902   5.779   1.050   1.174 -0.4197  1.3657 -1.1079
 1784SOL    HW3 6903   5.903   1.136   1.177  0.5921 -0.0719 -0.3696
 1784SOL    MW4 6904   5.865   1.059   1.164 -0.0239 -0.3921  0.3783
 1785SOL     OW 6905   4.247   1.589   0.293 -0.4044 -0.6441 -0.3830
 1785SOL    HW2 6906   4.283   1.506   0.263 -0.3973 -0.6858 -0.2584
 1785SOL    HW3 6907   4.307   1.618   0.362 -0.7702 -0.8597  0.0352
 1785SOL    MW4 6908   4.260   1.582   0.298  0.2942  0.9471  0.2236
 1786SOL     OW 6909   5.492   1.057   6.129 -0.2389  0.4914  0.2117
 1786SOL    HW2 6910   5.463   0.966   6.133  0.5514  0.2269  0.2191
 1786SOL    HW3 6911   5.586   1.051   6.113 -0.5139  1.3005 -2.1740
 1786SOL    MW4 6912   5.501   1.044   6.127  0.0896  0.0564 -0.0010
 1787SOL     OW 6913   3.133   6.220   1.782 -0.1492  0.0956 -0.3938
 1787SOL    HW2 6914   3.051   6.191   1.821 -0.3716 -0.1243 -1.0252
 1787SOL    HW3 6915   3.193   6.229   1.857 -0.1501 -1.7324 -0.1376
 1787SOL    MW4 6916   3.130   6.217   1.797 -0.5165 -0.3496 -0.0406
 1788SOL     OW 6917   4.001   3.657   4.501  0.6451  0.7238  0.1756
 1788SOL    HW2 6918   3.941   3.713   4.452 -0.8466  0.6288  1.8368
 1788SOL    HW3 6919   4.077   3.712   4.518  1.6212  0.5290 -2.8772
 1788SOL    MW4 6920   4.003   3.671   4.497 -0.0523  0.7663  0.4629
 1789SOL     OW 6921   5.738   6.246   2.171 -0.2277  0.1370 -0.0425
 1789SOL    HW2 6922   5.766   6.161   2.203 -1.5095 -0.7286 -1.1069
 1789SOL    HW3 6923   5.777   6.253   2.084 -0.1587  0.6260  0.0239
 1789SOL    MW4 6924   5.746   6.236   2.164  0.1113  0.2866  0.0724
 1790SOL     OW 6925   0.516   2.913   1.559 -0.4336  0.0411  0.4855
 1790SOL    HW2 6926   0.564   2.971   1.619  1.5550 -0.9205 -0.0738
 1790SOL    HW3 6927   0.581   2.887   1.493 -2.0682 -0.3990 -1.0407
 1790SOL    MW4 6928   0.531   2.917   1.558 -0.2007 -0.6620  0.2418
 1791SOL     OW 6929   0.611   0.403   3.619  0.6656 -0.7860  0.0841
 1791SOL    HW2 6930   0.530   0.353   3.614  1.0625 -1.7626  2.1744
 1791SOL    HW3 6931   0.588   0.481   3.668  0.6113 -0.1315 -0.9531
 1791SOL    MW4 6932   0.598   0.407   3.625  0.4281  0.8320  0.9877
 1792SOL     OW 6933   6.256   6.307   3.022 -0.2831  0.1544 -0.0452
 1792SOL    HW2 6934   6.301   6.257   3.091 -1.0079  0.1982  0.4757
 1792SOL    HW3 6935   6.208   6.240   2.973 -1.6561  0.3617  0.9605
 1792SOL    MW4 6936   6.256   6.291   3.025 -0.0487  0.3695 -0.0370
 1793SOL     OW 6937   3.525   3.186   3.093 -0.4345  0.2798 -0.7121
 1793SOL    HW2 6938   3.551   3.120   3.157 -2.7482  0.4447  0.5150
 1793SOL    HW3 6939   3.441   3.156   3.059 -1.0354  2.0329 -0.9060
 1793SOL    MW4 6940   3.517   3.173   3.097  0.0123  0.4546 -0.0227
 1794SOL     OW 6941   5.509   4.670   4.731  0.3621 -0.7720  0.0091
 1794SOL    HW2 6942   5.432   4.727   4.732  0.9175  0.0225  1.4682
 1794SOL    HW3 6943   5.561   4.700   4.657  0.5305  0.4880  0.6142
 1794SOL    MW4 6944   5.505   4.682   4.722  0.3537  0.3899 -0.2975
 1795SOL     OW 6945   3.216   3.037   5.709 -0.2347  0.1627  0.0770
 1795SOL    HW2 6946   3.182   2.956   5.746 -1.2718 -0.5078 -2.2039
 1795SOL    HW3 6947   3.145   3.100   5.718 -1.4396 -0.6441 -2.7041
 1795SOL    MW4 6948   3.202   3.035   5.715 -0.2670 -1.1451  0.0233
 1796SOL     OW 6949   0.373   2.579   6.017 -0.1651  0.0808  0.0156
 1796SOL    HW2 6950   0.389   2.529   6.098 -1.3470 -0.8045 -0.2746
 1796SOL    HW3 6951   0.282   2.608   6.023 -0.1500  0.3389 -0.8192
 1796SOL    MW4 6952   0.363   2.576   6.028  0.1807  0.0324  0.0958
 1797SOL     OW 6953   5.783   6.088   4.961 -0.4019 -0.8420 -0.2545
 1797SOL    HW2 6954   5.772   6.079   5.056 -0.2797 -0.1611 -0.1721
 1797SOL    HW3 6955   5.795   6.181   4.947 -1.8100 -0.7555 -1.0810
 1797SOL    MW4 6956   5.783   6.099   4.972 -0.1747  0.3311  0.1226
 1798SOL     OW 6957   4.370   4.106   3.975  0.0375  0.1647  0.2422
 1798SOL    HW2 6958   4.302   4.114   3.908  1.5309 -0.0925 -1.3834
 1798SOL    HW3 6959   4.451   4.133   3.931  1.0663  0.1431  2.0014
 1798SOL    MW4 6960   4.372   4.110   3.961  0.0324  0.6543 -0.2975
 1799SOL     OW 6961   1.922   4.458   4.019  0.3050 -0.0006 -0.1490
 1799SOL    HW2 6962   1.826   4.460   4.012  0.2188  0.5021  0.9299
 1799SOL    HW3 6963   1.943   4.365   4.024  0.1777 -0.3372 -3.4217
 1799SOL    MW4 6964   1.912   4.446   4.019 -0.2430 -0.2713  0.1170
 1800SOL     OW 6965   5.320   0.507   6.124  0.2432  0.4753 -0.3548
 1800SOL    HW2 6966   5.409   0.542   6.135  1.8630 -3.2438 -0.0470
 1800SOL    HW3 6967   5.322   0.463   6.039 -0.7610 -1.0019  0.3433
 1800SOL    MW4 6968   5.332   0.506   6.114  0.2333 -0.2848 -0.3682
 1801SOL     OW 6969   3.490   1.218   3.499 -0.2167 -0.4555  0.1160
 1801SOL    HW2 6970   3.539   1.242   3.578  2.8168  0.4436 -1.8929
 1801SOL    HW3 6971   3.530   1.137   3.469  0.3328  0.4724 -1.7683
 1801SOL    MW4 6972   3.502   1.211   3.506 -0.1697  0.1278 -0.6208
 1802SOL     OW 6973   1.582   3.646   0.593 -0.3766  0.4480 -0.2146
 1802SOL    HW2 6974   1.519   3.640   0.665  1.2224  0.6080  1.2566
 1802SOL    HW3 6975   1.570   3.733   0.557 -1.7543  0.0765 -0.7175
 1802SOL    MW4 6976   1.572   3.656   0.598 -0.8704  0.6161 -0.2809
 1803SOL     OW 6977   4.224   5.045   1.325 -0.3659  0.1110 -0.2307
 1803SOL    HW2 6978   4.222   4.950   1.333 -0.2604  0.1831  0.9220
 1803SOL    HW3 6979   4.315   5.069   1.343  0.4838  0.2321 -3.9376
 1803SOL    MW4 6980   4.236   5.035   1.329 -0.0833  0.3468  0.0290
 1804SOL     OW 6981   0.559   3.507   4.947  0.6899  0.1932 -0.2637
 1804SOL    HW2 6982   0.472   3.504   4.986  1.0436  0.0162  0.5340
 1804SOL    HW3 6983   0.613   3.450   5.002  1.2459  0.0552 -0.9228
 1804SOL    MW4 6984   0.555   3.499   4.959  0.0132 -0.1837 -0.1210
 1805SOL     OW 6985   5.085   4.785   2.238 -0.2073 -0.5224  0.8878
 1805SOL    HW2 6986   5.144   4.788   2.162 -1.0155 -1.4147  0.1976
 1805SOL    HW3 6987   5.040   4.869   2.237  1.3077  0.3377  1.6567
 1805SOL    MW4 6988   5.087   4.796   2.228 -0.0121 -0.0546 -0.0038
 1806SOL     OW 6989   5.919   3.322   5.543  1.0122  0.3282 -0.2084
 1806SOL    HW2 6990   5.982   3.381   5.500  3.1748  0.3349  2.6781
 1806SOL    HW3 6991   5.873   3.378   5.605 -1.3732  0.1215 -1.6543
 1806SOL    MW4 6992   5.921   3.337   5.545  0.4233  0.8526  0.2490
 1807SOL     OW 6993   4.675   2.756   5.919  0.4356 -0.3964  0.0594
 1807SOL    HW2 6994   4.708   2.776   6.006  0.9063  0.8705 -0.3807
 1807SOL    HW3 6995   4.720   2.675   5.895  1.1694 -0.1464  0.5513
 1807SOL    MW4 6996   4.685   2.748   5.927 -0.6837  0.2782 -0.6855
 1808SOL     OW 6997   5.738   0.955   6.375  0.8732 -0.5159 -0.0515
 1808SOL    HW2 6998   5.747   0.948   6.280  0.5637  0.9016 -0.2051
 1808SOL    HW3 6999   5.652   0.918   6.394  1.4762 -2.0236 -0.1441
 1808SOL    MW4 7000   5.727   0.949   6.365  0.2275 -0.0809  0.5014
 1809SOL     OW 7001   2.687   5.244   3.281  0.1137 -0.0091  0.4540
 1809SOL    HW2 7002   2.699   5.163   3.230  0.9138  0.1935  0.3015
 1809SOL    HW3 7003   2.775   5.264   3.314  0.0178  1.0528  0.0960
 1809SOL    MW4 7004   2.700   5.236   3.278 -0.0610  0.5888  0.3660
 1810SOL     OW 7005   3.456   4.718   4.588  0.1106 -0.1836 -0.6798
 1810SOL    HW2 7006   3.383   4.718   4.526 -2.1383 -0.6165  1.7584
 1810SOL    HW3 7007   3.477   4.811   4.601 -0.7016  0.0065 -0.6860
 1810SOL    MW4 7008   3.449   4.731   4.582 -0.4647  0.6724 -0.1209
 1811SOL     OW 7009   1.710   2.350   0.192 -0.0053  0.3706 -0.5143
 1811SOL    HW2 7010   1.649   2.415   0.157  0.9311  0.3723 -2.2778
 1811SOL    HW3 7011   1.796   2.381   0.162  0.9018  0.3321  1.8142
 1811SOL    MW4 7012   1.713   2.363   0.183 -0.0480 -0.1666  0.4784
 1812SOL     OW 7013   4.394   1.754   2.171 -0.4945  0.3617  0.4067
 1812SOL    HW2 7014   4.490   1.753   2.179 -0.2517 -3.2683 -0.9060
 1812SOL    HW3 7015   4.363   1.746   2.261  0.5803 -0.6625  0.7157
 1812SOL    MW4 7016   4.403   1.752   2.184 -0.1671 -0.0651 -0.3284
 1813SOL     OW 7017   3.033   2.114   0.147 -0.1277  0.4522 -0.0363
 1813SOL    HW2 7018   3.023   2.204   0.115  1.0126 -0.0642 -2.0532
 1813SOL    HW3 7019   3.047   2.062   0.068 -3.0241 -1.9247  0.7972
 1813SOL    MW4 7020   3.033   2.119   0.132 -0.4741 -0.2604 -0.5226
 1814SOL     OW 7021   5.950   3.240   6.349  0.0990  0.0519  0.0235
 1814SOL    HW2 7022   5.880   3.297   6.381 -0.7053 -1.3798  0.9499
 1814SOL    HW3 7023   5.971   3.183   6.423  1.9079  0.0966 -0.3944
 1814SOL    MW4 7024   5.944   3.240   6.363  0.0904  0.4041  0.1738
 1815SOL     OW 7025   3.181   3.969   0.170 -0.6358  0.5035 -0.1222
 1815SOL    HW2 7026   3.167   4.028   0.244 -1.5288  0.3889 -0.1947
 1815SOL    HW3 7027   3.119   3.998   0.103 -1.3220 -0.7078 -0.0424
 1815SOL    MW4 7028   3.171   3.980   0.171  0.2587 -0.0813  0.5602
 1816SOL     OW 7029   3.092   0.064   3.792  0.1673  0.4248  0.0553
 1816SOL    HW2 7030   3.161   0.010   3.754  0.1849  0.0544  0.6081
 1816SOL    HW3 7031   3.070   0.126   3.723  1.1212  0.6151 -0.0873
 1816SOL    MW4 7032   3.098   0.065   3.778 -0.6698 -0.8564 -0.0924
 1817SOL     OW 7033   1.584   2.265   1.328  0.1563  0.1663 -0.1695
 1817SOL    HW2 7034   1.587   2.323   1.404  1.6555  0.7767 -0.6637
 1817SOL    HW3 7035   1.618   2.181   1.360  2.4922  0.9150 -0.5340
 1817SOL    MW4 7036   1.589   2.261   1.342 -0.1228 -0.5975  0.2680
 1818SOL     OW 7037   3.853   2.989   3.035 -0.2029  0.2190  0.2642
 1818SOL    HW2 7038   3.925   2.926   3.047 -1.6332 -1.6836 -0.6403
 1818SOL    HW3 7039   3.779   2.936   3.006 -1.1946  2.4963 -1.6884
 1818SOL    MW4 7040   3.853   2.974   3.033 -0.3566  0.7765  0.4883
 1819SOL     OW 7041   2.877   1.751   0.936  0.2305  0.3663 -0.1550
 1819SOL    HW2 7042   2.796   1.702   0.923  0.2684 -0.2287  1.6159
 1819SOL    HW3 7043   2.945   1.696   0.896 -0.0470  0.1893 -0.3873
 1819SOL    MW4 7044   2.875   1.737   0.929  0.2576 -0.2286  0.2162
 1820SOL     OW 7045   4.750   0.635   0.481 -0.2284  0.0794 -0.0902
 1820SOL    HW2 7046   4.785   0.621   0.569 -0.2688 -0.3422 -0.1423
 1820SOL    HW3 7047   4.658   0.610   0.488 -0.2184 -0.0042 -0.2656
 1820SOL    MW4 7048   4.742   0.630   0.494  0.2628  0.1436  0.3946
 1821SOL     OW 7049   0.352   0.073   6.346  0.0583 -0.1239 -0.2351
 1821SOL    HW2 7050   0.340  -0.021   6.356  2.0015 -0.6200 -1.8130
 1821SOL    HW3 7051   0.303   0.096   6.267  0.3663  0.0039 -0.3905
 1821SOL    MW4 7052   0.344   0.064   6.337 -0.0137 -0.1454 -0.0377
 1822SOL     OW 7053   1.750   1.355   4.917 -0.1432 -0.1231 -0.0783
 1822SOL    HW2 7054   1.795   1.409   4.982 -1.3003 -0.5723  1.1426
 1822SOL    HW3 7055   1.818   1.332   4.854  0.3928  2.7085 -0.6298
 1822SOL    MW4 7056   1.765   1.359   4.918 -0.0877 -0.3282  0.7699
 1823SOL     OW 7057   2.911   4.088   5.375  0.1224  0.2690  0.3962
 1823SOL    HW2 7058   2.954   4.007   5.404 -0.5046  0.4316  1.8489
 1823SOL    HW3 7059   2.942   4.155   5.437 -1.7755  0.4917  1.1601
 1823SOL    MW4 7060   2.921   4.086   5.387  0.0293 -0.1422  0.1068
 1824SOL     OW 7061   0.465   0.585   3.756  0.3626  0.2918  0.6154
 1824SOL    HW2 7062   0.456   0.529   3.833 -0.7544  1.4712  1.3729
 1824SOL    HW3 7063   0.501   0.667   3.790 -1.3328  1.2805  0.1214
 1824SOL    MW4 7064   0.469   0.588   3.770 -0.6719 -0.1269 -0.1734
 1825SOL     OW 7065   0.494   5.946   2.610  0.4945  0.0916  0.3072
 1825SOL    HW2 7066   0.502   6.007   2.537  1.2713  0.1497  0.4242
 1825SOL    HW3 7067   0.585   5.921   2.630  0.3378  0.4378  1.5443
 1825SOL    MW4 7068   0.507   5.951   2.603 -0.4317 -0.1942 -0.1446
 1826SOL     OW 7069   3.880   3.534   1.910 -0.0656 -0.5257  0.5316
 1826SOL    HW2 7070   3.920   3.570   1.989  1.0313 -1.1561  0.3006
 1826SOL    HW3 7071   3.842   3.450   1.938 -1.0420 -0.0407  0.6986
 1826SOL    MW4 7072   3.880   3.528   1.924  1.0634 -0.7866  0.2914
 1827SOL     OW 7073   0.396   5.697   2.969  0.2353 -0.4188 -0.3092
 1827SOL    HW2 7074   0.431   5.626   3.022  0.2372 -0.2655 -0.1047
 1827SOL    HW3 7075   0.344   5.749   3.030 -1.3744 -1.3189 -0.8277
 1827SOL    MW4 7076   0.394   5.694   2.984 -0.1463  0.1401 -0.5866
 1828SOL     OW 7077   2.386   4.513   3.906  0.3453 -0.0970 -0.5273
 1828SOL    HW2 7078   2.475   4.486   3.928  0.3249  0.8274  0.8189
 1828SOL    HW3 7079   2.398   4.579   3.838  0.8371  1.2088  0.7731
 1828SOL    MW4 7080   2.400   4.518   3.900  0.3002  0.2575 -0.0520
 1829SOL     OW 7081   0.500   0.130   3.731  0.4016  0.3926  0.3550
 1829SOL    HW2 7082   0.581   0.106   3.686  0.8629 -1.7284  2.1482
 1829SOL    HW3 7083   0.445   0.168   3.662  2.2991  0.4305 -1.2423
 1829SOL    MW4 7084   0.503   0.132   3.716  0.5488 -0.4432  0.1653
 1830SOL     OW 7085   6.123   4.053   3.634  0.0037  0.4872  0.1244
 1830SOL    HW2 7086   6.187   3.984   3.612 -0.3902 -0.0923  0.7607
 1830SOL    HW3 7087   6.156   4.130   3.589 -0.2503 -0.4178 -1.6946
 1830SOL    MW4 7088   6.136   4.054   3.625 -0.2998  0.0605  0.0352
 1831SOL     OW 7089   1.380   2.016   0.456  0.2866  0.2779 -0.0777
 1831SOL    HW2 7090   1.351   1.944   0.512  0.0380  0.6115  0.2264
 1831SOL    HW3 7091   1.466   1.989   0.426  0.5528  0.2216  0.7044
 1831SOL    MW4 7092   1.387   2.003   0.459 -0.1220 -0.2710  0.3437
 1832SOL     OW 7093   2.359   4.092   1.754 -0.3744  0.4825  0.0451
 1832SOL    HW2 7094   2.367   4.065   1.663 -0.1007  1.5283 -0.2506
 1832SOL    HW3 7095   2.423   4.039   1.801  1.6685  2.0592 -0.8429
 1832SOL    MW4 7096   2.368   4.082   1.749  0.3570  0.5722  0.3758
 1833SOL     OW 7097   2.608   5.049   3.663  0.3170 -0.0898  0.3578
 1833SOL    HW2 7098   2.670   5.019   3.597 -0.2037 -1.3667  0.4287
 1833SOL    HW3 7099   2.547   5.105   3.615  1.6272  1.3965  0.3356
 1833SOL    MW4 7100   2.608   5.053   3.648  0.3506 -0.0315  0.0870
 1834SOL     OW 7101   5.231   5.872   5.016 -0.1398 -0.2099 -0.0857
 1834SOL    HW2 7102   5.251   5.954   4.972  1.0259 -0.5436 -0.2319
 1834SOL    HW3 7103   5.157   5.835   4.968 -0.0464  0.2942 -0.6263
 1834SOL    MW4 7104   5.224   5.878   5.004 -0.6080  0.0318 -0.2602
 1835SOL     OW 7105   5.496   5.190   0.909 -0.0674 -0.0080 -0.2594
 1835SOL    HW2 7106   5.504   5.187   1.004  1.0025  0.5491 -0.3280
 1835SOL    HW3 7107   5.441   5.266   0.891 -3.1663 -1.9590  0.0318
 1835SOL    MW4 7108   5.489   5.199   0.919 -0.1075 -0.6527 -0.1225
 1836SOL     OW 7109   0.939   1.084   0.369 -0.0795 -0.0166 -0.2961
 1836SOL    HW2 7110   0.918   1.136   0.446 -0.7294 -1.0433  0.2408
 1836SOL    HW3 7111   0.986   1.144   0.312  0.7405  0.6682  1.0496
 1836SOL    MW4 7112   0.943   1.099   0.372 -0.0410  0.5315  0.6955
 1837SOL     OW 7113   4.258   2.197   3.442  0.6726  0.3713  0.6760
 1837SOL    HW2 7114   4.308   2.126   3.483 -2.1780 -1.7640  0.8083
 1837SOL    HW3 7115   4.228   2.251   3.515 -1.5670 -1.4900  1.2807
 1837SOL    MW4 7116   4.260   2.195   3.457  0.0374 -0.5791  0.6071
 1838SOL     OW 7117   3.868   0.417   4.159  0.1758  0.3203  0.6304
 1838SOL    HW2 7118   3.784   0.376   4.179  0.5354 -0.4031  0.6880
 1838SOL    HW3 7119   3.850   0.511   4.163 -0.7670  0.1825  0.0618
 1838SOL    MW4 7120   3.854   0.424   4.162 -0.5607 -0.2744 -0.5749
 1839SOL     OW 7121   3.923   4.772   2.335  0.2942  0.0949  0.3989
 1839SOL    HW2 7122   3.888   4.861   2.328  0.7436  0.1591 -2.0286
 1839SOL    HW3 7123   3.989   4.777   2.404  0.6374  1.7653 -0.0105
 1839SOL    MW4 7124   3.927   4.784   2.343  0.1107 -0.1165  0.2431
 1840SOL     OW 7125   6.153   5.012   3.791 -0.0206 -0.4090  0.3207
 1840SOL    HW2 7126   6.059   5.030   3.789 -0.3176 -1.6389  1.5297
 1840SOL    HW3 7127   6.159   4.917   3.777  0.9148 -0.5969  1.8403
 1840SOL    MW4 7128   6.142   5.002   3.789 -0.4821 -0.3205 -0.1999
 1841SOL     OW 7129   1.961   6.305   6.299 -0.5180 -0.3430 -0.2912
 1841SOL    HW2 7130   1.957   6.248   6.375  0.2748 -1.0902 -0.7893
 1841SOL    HW3 7131   1.936   6.248   6.225 -0.7800  0.2339 -0.6542
 1841SOL    MW4 7132   1.957   6.290   6.299  0.1934 -0.1551  0.1207
 1842SOL     OW 7133   2.709   4.575   6.108 -0.1561 -0.3821 -0.1480
 1842SOL    HW2 7134   2.709   4.479   6.105 -2.4430 -0.4270 -0.4895
 1842SOL    HW3 7135   2.633   4.598   6.161 -0.3678  1.2387 -1.0741
 1842SOL    MW4 7136   2.699   4.565   6.114  0.2651  0.1700  0.0485
 1843SOL     OW 7137   0.026   1.809   2.282  0.1313  0.5828  0.7631
 1843SOL    HW2 7138   0.011   1.716   2.266  0.9680  0.5533  0.0411
 1843SOL    HW3 7139   0.097   1.812   2.346  1.9040  0.6793 -1.0934
 1843SOL    MW4 7140   0.033   1.797   2.288 -0.0975 -0.2574  0.1667
 1844SOL     OW 7141   3.495   1.388   0.836  0.3303 -0.2748  0.2265
 1844SOL    HW2 7142   3.405   1.355   0.833  0.6413 -1.1406 -2.5428
 1844SOL    HW3 7143   3.539   1.331   0.899 -0.6115 -1.0969  0.1763
 1844SOL    MW4 7144   3.489   1.376   0.844 -0.2839  0.3311 -0.1712
 1845SOL     OW 7145   1.525   3.896   0.458  0.7827 -0.0357 -0.2133
 1845SOL    HW2 7146   1.609   3.919   0.417  0.9575  0.3882  0.3654
 1845SOL    HW3 7147   1.501   3.974   0.508  0.4933 -0.4791  0.3526
 1845SOL    MW4 7148   1.533   3.910   0.459  0.0578 -0.9947  0.4045
 1846SOL     OW 7149   0.009   6.243   1.662 -0.6721 -0.6054 -0.0681
 1846SOL    HW2 7150   0.035   6.272   1.574  2.8648  0.1706  1.0875
 1846SOL    HW3 7151  -0.082   6.270   1.669 -0.3571  1.5879 -2.5971
 1846SOL    MW4 7152   0.000   6.250   1.651 -0.1095 -0.2594 -0.3746
 1847SOL     OW 7153   2.264   2.379   5.038  0.1709 -0.2335 -0.1779
 1847SOL    HW2 7154   2.204   2.445   5.004 -0.4299 -0.6094  0.1330
 1847SOL    HW3 7155   2.210   2.323   5.093  1.0206  0.0666  1.0148
 1847SOL    MW4 7156   2.249   2.380   5.041 -0.0075 -0.6819  0.1503
 1848SOL     OW 7157   6.241   3.872   6.394  0.0525  0.1145 -0.5678
 1848SOL    HW2 7158   6.187   3.945   6.421  0.4760 -0.1721  1.1774
 1848SOL    HW3 7159   6.316   3.873   6.454  0.5313 -1.1995 -1.0861
 1848SOL    MW4 7160   6.244   3.881   6.406 -0.6772 -0.2255 -0.3389
 1849SOL     OW 7161   4.212   0.151   5.313  0.2786 -0.5428  0.2084
 1849SOL    HW2 7162   4.177   0.139   5.401 -0.6215  1.0153  0.1133
 1849SOL    HW3 7163   4.136   0.139   5.256  0.5304 -0.0569 -0.2340
 1849SOL    MW4 7164   4.197   0.148   5.317  0.0694  0.0720 -0.1448
 1850SOL     OW 7165   5.893   3.236   4.825 -0.5958 -0.1695 -0.2314
 1850SOL    HW2 7166   5.844   3.157   4.848 -1.1504  0.2510  0.0410
 1850SOL    HW3 7167   5.859   3.262   4.739 -0.1443 -0.4393 -0.4954
 1850SOL    MW4 7168   5.882   3.229   4.817  0.1963 -0.0222 -0.3085
 1851SOL     OW 7169   1.340   0.534   5.100  0.1100 -0.2903  0.2475
 1851SOL    HW2 7170   1.367   0.625   5.090  0.2703 -0.5831 -2.5638
 1851SOL    HW3 7171   1.421   0.484   5.103 -0.0035 -0.4944 -0.0371
 1851SOL    MW4 7172   1.354   0.540   5.099 -0.4659  0.3757  0.8766
 1852SOL     OW 7173   4.254   1.740   3.716 -0.1513  0.2457  0.2684
 1852SOL    HW2 7174   4.326   1.677   3.722 -1.0178 -0.8683 -0.5220
 1852SOL    HW3 7175   4.193   1.701   3.653 -1.0203  1.5925  0.2224
 1852SOL    MW4 7176   4.255   1.727   3.709  0.1651  0.2658 -0.0652
 1853SOL     OW 7177   6.082   1.988   0.323  0.2674  0.0461  0.6343
 1853SOL    HW2 7178   6.069   1.902   0.363  0.7601  0.6214  2.0996
 1853SOL    HW3 7179   6.144   1.972   0.252 -0.3130 -0.9517  0.3375
 1853SOL    MW4 7180   6.089   1.974   0.319  0.1009  0.2094 -1.0536
 1854SOL     OW 7181   1.448   0.795   5.096  0.0290  0.7112  0.2875
 1854SOL    HW2 7182   1.514   0.789   5.164  0.2615  1.4159  0.1321
 1854SOL    HW3 7183   1.493   0.837   5.022 -0.0475 -0.5561 -0.5221
 1854SOL    MW4 7184   1.463   0.799   5.095 -0.2802 -0.0551  0.4367
 1855SOL     OW 7185   1.626   4.186   5.152 -0.2026 -0.5097 -0.2739
 1855SOL    HW2 7186   1.575   4.237   5.216 -0.4792 -0.2297 -0.7144
 1855SOL    HW3 7187   1.638   4.101   5.194  1.4732  0.3198  1.0943
 1855SOL    MW4 7188   1.621   4.182   5.166  0.3695  0.0519 -0.1817
 1856SOL     OW 7189   4.162   0.521   0.349  0.1543  0.5344 -0.1393
 1856SOL    HW2 7190   4.253   0.490   0.343 -0.1040 -0.2895  0.0247
 1856SOL    HW3 7191   4.125   0.501   0.263 -0.6161 -1.6565  0.6253
 1856SOL    MW4 7192   4.169   0.514   0.337  0.0327  0.0535  0.3908
 1857SOL     OW 7193   2.195   3.203   4.618  0.1284  0.3383  0.4381
 1857SOL    HW2 7194   2.263   3.178   4.681 -0.1250  0.1696  0.6512
 1857SOL    HW3 7195   2.135   3.128   4.618  0.8583 -0.2880 -1.0577
 1857SOL    MW4 7196   2.196   3.190   4.626 -0.3919 -0.5139  0.0825
 1858SOL     OW 7197   4.623   0.841   1.654  0.4379  0.2706  0.2569
 1858SOL    HW2 7198   4.572   0.920   1.634  0.7355  0.4144  0.0508
 1858SOL    HW3 7199   4.711   0.861   1.623  0.3852 -0.3579 -0.3313
 1858SOL    MW4 7200   4.628   0.854   1.647 -0.2455 -0.1631  0.0457
 1859SOL     OW 7201   0.645   0.389   4.709 -0.1584  0.3513 -0.0220
 1859SOL    HW2 7202   0.707   0.360   4.776 -0.4623 -2.2289 -0.7357
 1859SOL    HW3 7203   0.628   0.480   4.730  1.9171  0.4336  1.7059
 1859SOL    MW4 7204   0.651   0.397   4.721 -0.9660 -0.1120 -1.0702
 1860SOL     OW 7205   6.150   3.220   4.745 -0.0851 -0.4829 -0.2203
 1860SOL    HW2 7206   6.188   3.168   4.816  0.8559 -0.6304 -0.8138
 1860SOL    HW3 7207   6.056   3.224   4.766  0.1862 -0.4205  1.0817
 1860SOL    MW4 7208   6.143   3.214   4.757  0.6893  0.0590  0.3948
 1861SOL     OW 7209   2.012   4.751   5.666 -1.2211 -0.2408 -0.4877
 1861SOL    HW2 7210   2.079   4.750   5.597 -0.7605  0.1473 -0.0491
 1861SOL    HW3 7211   2.027   4.833   5.713  0.4111 -1.8165  1.9712
 1861SOL    MW4 7212   2.023   4.761   5.663 -0.0427 -0.3392 -0.6402
 1862SOL     OW 7213   5.458   3.328   2.054  0.2796  0.1755 -0.6610
 1862SOL    HW2 7214   5.397   3.257   2.040  0.7154 -0.3589  0.1154
 1862SOL    HW3 7215   5.544   3.290   2.035  0.8562 -0.4053  2.5265
 1862SOL    MW4 7216   5.462   3.314   2.049 -0.2630  0.8045  0.2145
 1863SOL     OW 7217   1.962   1.205   2.109 -0.5261  0.4348 -0.1201
 1863SOL    HW2 7218   1.997   1.259   2.038 -2.1819 -1.1180 -2.2445
 1863SOL    HW3 7219   2.036   1.150   2.135 -0.4587 -0.6544 -2.3942
 1863SOL    MW4 7220   1.977   1.205   2.103  0.2816  0.3483 -0.3768
 1864SOL     OW 7221   3.557   2.472   5.176  0.4332 -0.2798 -0.3781
 1864SOL    HW2 7222   3.584   2.551   5.130 -1.2312  0.2256 -0.5661
 1864SOL    HW3 7223   3.537   2.410   5.106  0.2224 -0.3308 -0.2726
 1864SOL    MW4 7224   3.558   2.474   5.160  0.0733  0.0761  0.0021
 1865SOL     OW 7225   5.387   5.168   5.340  0.1949 -0.3737  0.1960
 1865SOL    HW2 7226   5.479   5.186   5.357  0.4246 -1.1307 -0.2044
 1865SOL    HW3 7227   5.340   5.242   5.380  0.9846  0.1603  0.1544
 1865SOL    MW4 7228   5.393   5.180   5.347 -0.1044  0.2279  0.2685
 1866SOL     OW 7229   2.501   4.711   5.529  0.6470  0.3242 -0.0017
 1866SOL    HW2 7230   2.425   4.699   5.472  0.0477  0.0181  0.8385
 1866SOL    HW3 7231   2.492   4.643   5.596  1.6177  0.3392  0.1549
 1866SOL    MW4 7232   2.490   4.700   5.531  0.2460  0.8480  0.1417
 1867SOL     OW 7233   2.971   3.835   4.151 -0.3566  0.6417 -0.8366
 1867SOL    HW2 7234   3.056   3.793   4.159 -0.5601  0.3707 -0.0026
 1867SOL    HW3 7235   2.975   3.882   4.067  0.6567  0.7463 -0.7382
 1867SOL    MW4 7236   2.983   3.836   4.141  0.6825  0.4931 -0.0657
 1868SOL     OW 7237   6.364   4.129   0.928 -0.5047  0.0046  0.0838
 1868SOL    HW2 7238   6.309   4.067   0.880 -2.0104  1.5594 -0.3159
 1868SOL    HW3 7239   6.383   4.198   0.864  0.3787  0.4228  0.7659
 1868SOL    MW4 7240   6.360   4.130   0.913  0.0727  0.5076  0.3593
 1869SOL     OW 7241   5.178   3.625   2.271 -0.5535  0.4159 -0.3752
 1869SOL    HW2 7242   5.117   3.580   2.212 -1.4102  1.6060 -0.4292
 1869SOL    HW3 7243   5.259   3.576   2.264 -1.7502 -1.8352  0.4430
 1869SOL    MW4 7244   5.180   3.613   2.263 -0.1692  0.1736  0.7088
 1870SOL     OW 7245   5.078   5.759   1.352  0.0868  0.5382  0.4727
 1870SOL    HW2 7246   5.160   5.710   1.343 -1.2166 -1.7754  0.3640
 1870SOL    HW3 7247   5.105   5.846   1.382  2.7640  0.7521 -2.1143
 1870SOL    MW4 7248   5.093   5.764   1.355  0.0810  0.0336  0.0481
 1871SOL     OW 7249   1.013   0.167   3.448 -0.0823  0.2675  0.7978
 1871SOL    HW2 7250   0.953   0.187   3.519  1.6567  2.6062  1.7634
 1871SOL    HW3 7251   0.980   0.218   3.374 -0.4502 -0.1053  0.7054
 1871SOL    MW4 7252   1.001   0.177   3.447  0.7440  0.1553  0.9145
 1872SOL     OW 7253   4.209   1.587   2.915 -0.4543  0.0330 -0.4330
 1872SOL    HW2 7254   4.115   1.602   2.915 -0.4941 -0.1732 -1.6567
 1872SOL    HW3 7255   4.241   1.638   2.989 -1.7492 -1.3438  1.1747
 1872SOL    MW4 7256   4.201   1.595   2.925  0.3044  0.0020 -0.1387
 1873SOL     OW 7257   5.386   5.568   5.670 -0.3363  0.3324  0.0889
 1873SOL    HW2 7258   5.371   5.511   5.745  1.9531  0.0488  0.4125
 1873SOL    HW3 7259   5.383   5.510   5.594 -0.2393  0.1773  0.2038
 1873SOL    MW4 7260   5.384   5.553   5.670 -0.6899 -0.3129 -0.8856
 1874SOL     OW 7261   3.568   2.879   2.052 -0.0308 -0.0282  0.5231
 1874SOL    HW2 7262   3.639   2.900   2.113 -0.1989  1.7978  0.1583
 1874SOL    HW3 7263   3.488   2.893   2.102 -0.1585 -0.8807  0.5700
 1874SOL    MW4 7264   3.567   2.884   2.067  0.7914 -0.2065  0.5980
 1875SOL     OW 7265   3.882   4.784   3.978 -0.6599  0.0013 -0.0076
 1875SOL    HW2 7266   3.836   4.833   4.047 -0.1192  0.6086 -0.0733
 1875SOL    HW3 7267   3.974   4.788   4.003 -0.7382 -2.9078  1.2170
 1875SOL    MW4 7268   3.888   4.791   3.991  0.3170  0.2682 -0.4631
 1876SOL     OW 7269   3.857   4.481   0.882 -0.1709  0.0623  0.3291
 1876SOL    HW2 7270   3.901   4.411   0.931  1.1800  0.3540 -0.4078
 1876SOL    HW3 7271   3.849   4.552   0.945 -1.6581 -0.7746  1.1164
 1876SOL    MW4 7272   3.862   4.481   0.897 -0.3737  0.6770 -0.2916
 1877SOL     OW 7273   3.990   6.220   2.525 -0.0426 -0.3320 -0.3400
 1877SOL    HW2 7274   4.070   6.170   2.506  1.2059  1.9224 -1.4768
 1877SOL    HW3 7275   3.929   6.194   2.456  0.7115 -0.0694 -1.1265
 1877SOL    MW4 7276   3.993   6.210   2.513 -0.1191 -0.3373  0.0614
 1878SOL     OW 7277   0.597   4.908   1.919  0.1401  0.4993 -0.4379
 1878SOL    HW2 7278   0.552   4.883   1.838  0.5600 -2.6812  0.1876
 1878SOL    HW3 7279   0.526   4.923   1.981 -0.1617  0.0520 -0.6612
 1878SOL    MW4 7280   0.582   4.906   1.916  0.2099  0.0746 -0.3291
 1879SOL     OW 7281   0.200   4.070   5.032  0.3799  0.0864  0.4355
 1879SOL    HW2 7282   0.194   4.059   4.937  0.6860 -0.5070  0.4773
 1879SOL    HW3 7283   0.292   4.051   5.053  0.6734  1.6185  0.6861
 1879SOL    MW4 7284   0.212   4.066   5.022 -0.1503 -0.0075  0.3656
 1880SOL     OW 7285   3.356   2.570   2.137 -0.2219  0.3234 -0.6018
 1880SOL    HW2 7286   3.442   2.531   2.121 -0.7238 -0.4373 -1.5810
 1880SOL    HW3 7287   3.323   2.522   2.213 -0.7781 -1.1441 -1.7160
 1880SOL    MW4 7288   3.363   2.558   2.145  0.0952 -0.9242  0.7630
 1881SOL     OW 7289   4.725   0.404   5.732 -0.0994  0.2882  0.0123
 1881SOL    HW2 7290   4.761   0.479   5.684  0.9421 -0.8032 -0.9594
 1881SOL    HW3 7291   4.744   0.424   5.824  3.2468 -0.2749 -0.4320
 1881SOL    MW4 7292   4.733   0.417   5.738 -0.2775  0.4747  0.8779
 1882SOL     OW 7293   5.331   1.779   2.338 -0.0694  0.0158  0.1689
 1882SOL    HW2 7294   5.415   1.797   2.380 -0.3662 -0.1615  0.8507
 1882SOL    HW3 7295   5.354   1.750   2.249  0.6026 -0.3036  0.4435
 1882SOL    MW4 7296   5.345   1.777   2.332 -0.7807 -0.3904 -0.5566
 1883SOL     OW 7297   6.110   4.670   5.170 -0.3334  0.2774  0.4609
 1883SOL    HW2 7298   6.205   4.666   5.178 -0.2568  2.9564  1.8040
 1883SOL    HW3 7299   6.077   4.640   5.254 -0.8182 -1.8603 -0.4096
 1883SOL    MW4 7300   6.118   4.665   5.182 -0.6279 -0.2189 -0.1321
 1884SOL     OW 7301   4.208   0.928   3.764  0.0196  0.2665 -0.4379
 1884SOL    HW2 7302   4.177   0.898   3.849  1.1225 -0.9374 -0.4204
 1884SOL    HW3 7303   4.171   0.866   3.701  0.1396  0.4659 -0.7090
 1884SOL    MW4 7304   4.199   0.916   3.767  0.1849 -0.1865  0.1114
 1885SOL     OW 7305   4.785   5.679   4.672 -0.4762  0.0446 -0.3999
 1885SOL    HW2 7306   4.873   5.680   4.707 -0.5286  1.0330 -0.2473
 1885SOL    HW3 7307   4.758   5.771   4.674 -2.1909 -0.4345  1.2676
 1885SOL    MW4 7308   4.793   5.692   4.677  0.0151 -0.7541  0.1038
 1886SOL     OW 7309   0.458   4.735   2.559  0.7072  0.5734 -0.6661
 1886SOL    HW2 7310   0.517   4.661   2.543  2.0557  0.7949  2.4889
 1886SOL    HW3 7311   0.425   4.720   2.648 -0.0435  3.0515 -0.4524
 1886SOL    MW4 7312   0.461   4.723   2.569  0.5076 -0.4963  0.9003
 1887SOL     OW 7313   3.738   2.899   0.607 -0.2469  0.0286  0.3397
 1887SOL    HW2 7314   3.772   2.828   0.553  0.6028  0.1725  0.6838
 1887SOL    HW3 7315   3.801   2.970   0.598 -0.7029  0.4762  0.5972
 1887SOL    MW4 7316   3.751   2.899   0.599  0.1116 -0.7444 -0.6524
 1888SOL     OW 7317   3.382   1.308   1.834 -0.4528 -0.1834 -0.1845
 1888SOL    HW2 7318   3.309   1.362   1.862  1.0505  1.5499  0.6548
 1888SOL    HW3 7319   3.455   1.337   1.889  0.6314 -2.5511 -0.2759
 1888SOL    MW4 7320   3.382   1.319   1.845 -0.4063  0.3210  0.3331
 1889SOL     OW 7321   5.398   2.099   6.112 -0.1464 -0.6300  0.2743
 1889SOL    HW2 7322   5.353   2.041   6.174  0.0581 -0.6083  0.4431
 1889SOL    HW3 7323   5.329   2.156   6.078 -0.6150 -1.7889 -0.8483
 1889SOL    MW4 7324   5.383   2.099   6.116  0.1956  0.0723 -0.4416
 1890SOL     OW 7325   1.622   0.894   4.871  0.0855  0.1427 -0.3917
 1890SOL    HW2 7326   1.674   0.906   4.950  0.8395  0.9170 -0.9847
 1890SOL    HW3 7327   1.571   0.975   4.864  0.3914  0.2873 -0.9649
 1890SOL    MW4 7328   1.622   0.906   4.881 -0.3769 -0.0228  0.1579
 1891SOL     OW 7329   3.493   1.176   0.510  0.0608  0.0145 -0.0275
 1891SOL    HW2 7330   3.527   1.136   0.590 -0.7755  0.9178  0.8057
 1891SOL    HW3 7331   3.486   1.269   0.531  2.3669  0.7619 -2.0503
 1891SOL    MW4 7332   3.497   1.183   0.523 -0.0764  0.6562 -0.5741
 1892SOL     OW 7333   4.992   2.043   0.191  0.4455 -0.3299  0.0696
 1892SOL    HW2 7334   4.898   2.023   0.196  0.7234 -1.9271 -0.5972
 1892SOL    HW3 7335   5.029   2.004   0.270  0.4077  1.4166  1.0046
 1892SOL    MW4 7336   4.984   2.035   0.202  0.5778  0.2160  0.1134
 1893SOL     OW 7337   3.799   3.792   3.935 -0.3623  0.7936  0.2366
 1893SOL    HW2 7338   3.746   3.748   3.868 -0.0637  0.1538  0.4190
 1893SOL    HW3 7339   3.736   3.845   3.985 -0.5600  1.4516 -0.6774
 1893SOL    MW4 7340   3.784   3.793   3.933  0.4342  0.4073 -0.0845
 1894SOL     OW 7341   1.994   6.282   2.316 -0.0648 -0.2390 -0.3296
 1894SOL    HW2 7342   1.934   6.245   2.380  1.0324 -1.9406 -0.2204
 1894SOL    HW3 7343   1.959   6.253   2.231 -0.6759  0.7358 -0.4180
 1894SOL    MW4 7344   1.982   6.273   2.313 -0.0660  0.4852  0.4318
 1895SOL     OW 7345   1.622   2.729   3.480  0.3606  0.8346 -0.3250
 1895SOL    HW2 7346   1.690   2.714   3.414  0.3790 -1.4170  0.1466
 1895SOL    HW3 7347   1.596   2.642   3.509 -2.2858  1.6325 -0.0103
 1895SOL    MW4 7348   1.627   2.716   3.475  0.4690 -0.1362 -0.2715
 1896SOL     OW 7349   1.166   6.156   5.401 -0.3559  0.3918 -0.0318
 1896SOL    HW2 7350   1.158   6.083   5.339  1.1001  0.5607 -0.4650
 1896SOL    HW3 7351   1.120   6.126   5.479  1.2221 -1.5123  0.2426
 1896SOL    MW4 7352   1.159   6.142   5.403 -0.3215  0.0680  0.5896
 1897SOL     OW 7353   4.057   2.969   2.529 -0.2912 -0.6520 -0.3015
 1897SOL    HW2 7354   4.097   2.885   2.508  1.9928 -0.5468  2.9305
 1897SOL    HW3 7355   4.107   3.033   2.479  0.1762 -0.9632 -0.2329
 1897SOL    MW4 7356   4.069   2.967   2.520 -0.3024 -0.5565 -0.0945
 1898SOL     OW 7357   2.462   2.947   1.416 -0.5391 -0.1238  0.2856
 1898SOL    HW2 7358   2.375   2.929   1.380  0.1851 -0.8168 -1.2455
 1898SOL    HW3 7359   2.446   2.982   1.504 -2.2816 -3.3333  1.4065
 1898SOL    MW4 7360   2.449   2.949   1.423 -0.8524 -0.3270 -0.4779
 1899SOL     OW 7361   4.540   4.907   5.347  0.3298  0.2695  0.4114
 1899SOL    HW2 7362   4.625   4.882   5.312  1.0031  0.9560  1.4814
 1899SOL    HW3 7363   4.533   4.858   5.429  0.0362  0.7648  0.6920
 1899SOL    MW4 7364   4.550   4.898   5.354 -0.0375  1.1542  0.0150
 1900SOL     OW 7365   2.917   2.443   1.150  0.2634  0.0849  0.7709
 1900SOL    HW2 7366   2.917   2.371   1.087 -0.0187  0.9091 -0.1923
 1900SOL    HW3 7367   3.006   2.479   1.145 -0.2516  1.2734 -0.5062
 1900SOL    MW4 7368   2.929   2.439   1.141 -0.3010 -0.5089 -0.0486
 1901SOL     OW 7369   2.937   5.165   6.254  0.3987 -0.4367  0.5162
 1901SOL    HW2 7370   3.014   5.198   6.207  1.7494 -1.6724  1.7321
 1901SOL    HW3 7371   2.964   5.078   6.285 -1.7801 -1.2160  0.3459
 1901SOL    MW4 7372   2.951   5.158   6.252 -0.0659 -0.0498 -0.0228
 1902SOL     OW 7373   2.710   4.929   0.839 -0.3452 -0.5752  0.2024
 1902SOL    HW2 7374   2.805   4.934   0.852  0.0510 -1.1197 -1.9714
 1902SOL    HW3 7375   2.676   4.893   0.920  1.1528  0.6982  1.4742
 1902SOL    MW4 7376   2.718   4.925   0.851 -0.1928  0.1096  0.1430
 1903SOL     OW 7377   5.368   3.377   3.888  0.2232  0.1666 -0.6107
 1903SOL    HW2 7378   5.311   3.300   3.897  1.0575 -0.3331  0.7609
 1903SOL    HW3 7379   5.442   3.346   3.837 -0.2154  0.5362 -1.4966
 1903SOL    MW4 7380   5.370   3.363   3.882  0.1907 -0.4270 -0.4352
 1904SOL     OW 7381   2.820   5.716   3.747 -0.0994 -0.2086 -0.2104
 1904SOL    HW2 7382   2.843   5.796   3.794  1.0762 -0.8606  0.3926
 1904SOL    HW3 7383   2.812   5.743   3.655 -3.3502  1.2695  0.3722
 1904SOL    MW4 7384   2.822   5.730   3.741 -0.2532 -0.3942 -0.2610
 1905SOL     OW 7385   4.295   5.387   3.955  0.0683 -0.4428  0.2848
 1905SOL    HW2 7386   4.259   5.457   4.008  0.7293 -0.2971  0.5566
 1905SOL    HW3 7387   4.372   5.425   3.914 -2.2252  0.5666 -3.5647
 1905SOL    MW4 7388   4.301   5.401   3.957  0.3724 -0.6715  0.4938
 1906SOL     OW 7389   4.587   1.594   4.202 -0.2400  0.9432 -0.0764
 1906SOL    HW2 7390   4.601   1.595   4.296  0.4518  2.3039 -0.1615
 1906SOL    HW3 7391   4.571   1.686   4.179 -1.1755  0.5427 -1.1831
 1906SOL    MW4 7392   4.587   1.606   4.211 -1.0394 -0.0785 -0.0337
 1907SOL     OW 7393   1.005   4.444   2.195  0.3597 -0.2495 -0.9847
 1907SOL    HW2 7394   1.020   4.377   2.262  0.8741  0.7032 -0.1201
 1907SOL    HW3 7395   0.991   4.394   2.114  1.5548 -1.3823 -0.5319
 1907SOL    MW4 7396   1.005   4.428   2.193 -0.3130 -0.3307 -0.5215
 1908SOL     OW 7397   4.582   4.295   1.838  0.1339 -0.1523  0.4479
 1908SOL    HW2 7398   4.594   4.380   1.878  0.8310 -0.2966  0.5582
 1908SOL    HW3 7399   4.617   4.305   1.749 -0.8385 -0.0073  0.0596
 1908SOL    MW4 7400   4.588   4.307   1.831  0.1793  0.1007  0.7458
 1909SOL     OW 7401   0.231   6.280   0.466 -0.2328 -0.0861 -0.5078
 1909SOL    HW2 7402   0.215   6.228   0.545  2.7013  0.5073  0.5973
 1909SOL    HW3 7403   0.215   6.370   0.493 -1.8486 -0.0653 -1.4209
 1909SOL    MW4 7404   0.227   6.285   0.480  0.8073  0.3320 -0.2725
 1910SOL     OW 7405   0.987   1.791   1.971  0.1442  0.3120 -0.1405
 1910SOL    HW2 7406   1.037   1.816   1.893  0.6617  0.0470  0.1023
 1910SOL    HW3 7407   0.954   1.873   2.006  0.0598  0.4518 -0.5337
 1910SOL    MW4 7408   0.989   1.805   1.965  0.2889  0.4066 -0.0454
 1911SOL     OW 7409   3.447   4.238   2.186  0.2367 -0.6368 -0.2368
 1911SOL    HW2 7410   3.500   4.158   2.186 -0.3696 -1.0731  1.2646
 1911SOL    HW3 7411   3.435   4.259   2.094 -0.1503 -2.6597 -0.6937
 1911SOL    MW4 7412   3.453   4.230   2.174  0.3212  0.0259  0.0516
 1912SOL     OW 7413   5.979   6.264   6.216 -0.5539  0.3069  0.0550
 1912SOL    HW2 7414   6.007   6.323   6.146  1.4514 -0.3053  0.2690
 1912SOL    HW3 7415   5.911   6.209   6.176 -1.8917  2.1689 -0.3718
 1912SOL    MW4 7416   5.974   6.265   6.202 -0.6035  0.6317  0.7573
 1913SOL     OW 7417   5.964   4.915   6.355 -0.2528 -0.1035  0.1706
 1913SOL    HW2 7418   6.025   4.978   6.393 -1.1506 -0.4045  2.2550
 1913SOL    HW3 7419   5.877   4.950   6.374 -0.8291  0.3306 -2.7677
 1913SOL    MW4 7420   5.961   4.928   6.363  0.4305  0.0851 -0.4498
 1914SOL     OW 7421   1.817   5.481   4.047 -0.6595 -0.0603 -0.1242
 1914SOL    HW2 7422   1.869   5.548   4.091  0.7505 -0.7682 -0.6736
 1914SOL    HW3 7423   1.773   5.434   4.118 -0.1275  0.2021  0.3825
 1914SOL    MW4 7424   1.818   5.484   4.062 -0.1894 -0.0481 -0.1813
 1915SOL     OW 7425   2.737   0.857   2.655 -0.0039  0.0603  0.7453
 1915SOL    HW2 7426   2.725   0.796   2.729  1.6707 -1.5924 -0.2691
 1915SOL    HW3 7427   2.648   0.880   2.629 -0.6529  0.7957  3.3130
 1915SOL    MW4 7428   2.724   0.852   2.662 -0.5121  0.3142  0.1495
 1916SOL     OW 7429   2.386   2.212   3.847  0.0783  0.2074  0.3477
 1916SOL    HW2 7430   2.451   2.147   3.822  0.5969  0.7544  0.2432
 1916SOL    HW3 7431   2.383   2.208   3.942  0.1202  0.0365  0.3412
 1916SOL    MW4 7432   2.394   2.203   3.856 -0.4945  0.1896  0.4357
 1917SOL     OW 7433   1.626   0.621   6.340 -0.3093  0.5620 -0.1269
 1917SOL    HW2 7434   1.648   0.693   6.400 -0.5071  1.3318 -0.9574
 1917SOL    HW3 7435   1.545   0.649   6.298 -1.5340 -1.0841  1.0190
 1917SOL    MW4 7436   1.618   0.635   6.343 -0.3832  0.3508 -0.1429
 1918SOL     OW 7437   4.805   1.571   5.387 -0.1022  0.0395 -0.2845
 1918SOL    HW2 7438   4.890   1.529   5.391  0.2629  0.7609 -0.2409
 1918SOL    HW3 7439   4.793   1.610   5.474 -0.3219  0.2164 -0.3922
 1918SOL    MW4 7440   4.815   1.571   5.399  0.5882 -0.1373  0.2828
 1919SOL     OW 7441   1.965   0.876   3.115 -0.5453  0.2562 -0.1017
 1919SOL    HW2 7442   1.956   0.968   3.142  0.3522  0.4216 -0.3383
 1919SOL    HW3 7443   1.908   0.869   3.038 -1.2952  0.3833  0.4341
 1919SOL    MW4 7444   1.956   0.887   3.108 -0.2488 -0.3696  0.1497
 1920SOL     OW 7445   2.013   3.722   1.566 -0.2996 -0.3679  0.6957
 1920SOL    HW2 7446   1.971   3.806   1.546 -0.3762 -0.5015  0.2634
 1920SOL    HW3 7447   2.089   3.718   1.508 -0.2801 -0.5809  0.7321
 1920SOL    MW4 7448   2.017   3.732   1.555 -0.6148 -0.1510  0.2278
 1921SOL     OW 7449   6.040   5.518   6.253  0.3995 -0.6421  0.8252
 1921SOL    HW2 7450   5.952   5.553   6.253  0.0837 -1.2165 -1.9789
 1921SOL    HW3 7451   6.064   5.513   6.346 -1.4534  1.9906  1.5563
 1921SOL    MW4 7452   6.032   5.522   6.266  0.0188  0.3792 -0.3382
 1922SOL     OW 7453   5.146   0.679   1.044 -0.4373  0.1310  0.1322
 1922SOL    HW2 7454   5.194   0.741   0.990 -0.4066  0.0026  0.0100
 1922SOL    HW3 7455   5.071   0.653   0.991 -0.6070  0.2825  0.2978
 1922SOL    MW4 7456   5.142   0.683   1.030  0.4304 -0.2671  0.2593
 1923SOL     OW 7457   4.719   5.574   1.572 -0.4588  0.5847  0.0558
 1923SOL    HW2 7458   4.631   5.603   1.546 -0.2598  1.0687 -0.0825
 1923SOL    HW3 7459   4.768   5.655   1.585  0.1243  0.3048 -0.3912
 1923SOL    MW4 7460   4.714   5.589   1.571  0.3538 -0.5643  0.3598
 1924SOL     OW 7461   5.859   3.737  -0.000  0.6967 -0.4669  0.1772
 1924SOL    HW2 7462   5.834   3.773  -0.085 -0.9414 -0.1371  0.7618
 1924SOL    HW3 7463   5.950   3.710  -0.011  1.0397  1.1060 -1.1635
 1924SOL    MW4 7464   5.868   3.738  -0.013  0.5149 -0.1094 -0.0541
 1925SOL     OW 7465   0.223   4.931   5.711 -0.1369 -0.2454 -0.8891
 1925SOL    HW2 7466   0.156   4.874   5.749  0.8568 -0.8649  0.0097
 1925SOL    HW3 7467   0.281   4.871   5.663  0.7397  0.0355 -0.2093
 1925SOL    MW4 7468   0.222   4.915   5.710 -0.0285 -0.2818  0.1522
 1926SOL     OW 7469   3.116   2.395   4.085 -0.5352  0.2602 -0.4265
 1926SOL    HW2 7470   3.060   2.470   4.105 -1.1435 -0.2942 -0.0523
 1926SOL    HW3 7471   3.190   2.404   4.145 -0.8725  0.2642 -0.0108
 1926SOL    MW4 7472   3.118   2.406   4.096  0.3646  0.1558  0.0220
 1927SOL     OW 7473   6.388   3.985   1.197  0.2532 -0.2947 -0.3260
 1927SOL    HW2 7474   6.394   3.984   1.101  0.2376  1.6516 -0.3778
 1927SOL    HW3 7475   6.440   4.060   1.224 -0.6924 -0.1192  1.1112
 1927SOL    MW4 7476   6.395   3.995   1.188 -0.4171 -0.1427  0.0144
 1928SOL     OW 7477   6.028   4.565   5.413 -0.0890 -0.3042 -0.1852
 1928SOL    HW2 7478   6.049   4.475   5.434  0.6629  0.0485  0.6390
 1928SOL    HW3 7479   6.087   4.617   5.468  1.4042  0.6980 -2.5710
 1928SOL    MW4 7480   6.039   4.560   5.423  0.5411  0.2472  0.1802
 1929SOL     OW 7481   1.186   3.731   2.130 -0.2565 -0.2490  0.6292
 1929SOL    HW2 7482   1.148   3.679   2.200 -0.8100 -0.8804 -0.1365
 1929SOL    HW3 7483   1.263   3.681   2.102 -0.3092 -0.2293  0.4527
 1929SOL    MW4 7484   1.191   3.718   2.136 -0.4393 -0.1486 -0.1844
 1930SOL     OW 7485   0.546   1.024   3.239  0.6491 -0.1096  0.1862
 1930SOL    HW2 7486   0.574   1.066   3.319  1.0834 -0.6171  0.3066
 1930SOL    HW3 7487   0.552   0.930   3.257  0.1475 -0.2331 -0.2284
 1930SOL    MW4 7488   0.550   1.017   3.252 -0.3917  0.1868 -0.1525
 1931SOL     OW 7489   4.106   3.892   1.614  0.3377  0.1116  0.2056
 1931SOL    HW2 7490   4.200   3.875   1.625  0.0970 -0.8436  0.9775
 1931SOL    HW3 7491   4.076   3.913   1.703 -0.4602 -1.1790  0.2730
 1931SOL    MW4 7492   4.115   3.892   1.627  0.2701 -0.1515 -0.1870
 1932SOL     OW 7493   5.991   6.219   5.862  0.1671  0.6034 -0.3868
 1932SOL    HW2 7494   6.074   6.227   5.908 -0.3754 -0.2736  0.7867
 1932SOL    HW3 7495   5.933   6.174   5.923 -0.4640 -1.0091 -2.0640
 1932SOL    MW4 7496   5.994   6.214   5.876  0.0624 -0.4766 -0.1731
 1933SOL     OW 7497   1.762   4.546   2.413  0.1108  0.3239 -0.0716
 1933SOL    HW2 7498   1.687   4.535   2.354  0.6917  0.8301 -0.9268
 1933SOL    HW3 7499   1.761   4.468   2.467 -1.4378  0.6269  0.4023
 1933SOL    MW4 7500   1.752   4.535   2.412  0.5011 -0.3886  0.0621
 1934SOL     OW 7501   4.817   1.632   5.016  0.2459  0.4484  1.2763
 1934SOL    HW2 7502   4.902   1.655   4.978  1.2648 -2.7270  1.2817
 1934SOL    HW3 7503   4.795   1.706   5.072  2.1630  2.1331 -0.0255
 1934SOL    MW4 7504   4.825   1.645   5.018 -0.0954 -0.0162 -1.1316
 1935SOL     OW 7505   4.295   2.254   0.679  0.2250  0.0172 -0.3054
 1935SOL    HW2 7506   4.271   2.342   0.648 -0.7862 -0.0598  0.2462
 1935SOL    HW3 7507   4.274   2.197   0.605  0.2183  0.1456 -0.4051
 1935SOL    MW4 7508   4.289   2.258   0.665  0.1150 -0.2146 -0.2884
 1936SOL     OW 7509   5.362   0.419   0.850 -0.0649 -0.4397 -0.2094
 1936SOL    HW2 7510   5.289   0.371   0.812 -0.1135 -1.3451  0.9699
 1936SOL    HW3 7511   5.424   0.430   0.778 -0.5879 -1.2219 -0.7948
 1936SOL    MW4 7512   5.361   0.414   0.836  0.2480 -0.5480 -0.2053
 1937SOL     OW 7513   1.991   5.355   4.832 -0.5360  0.4248 -0.2075
 1937SOL    HW2 7514   1.927   5.293   4.868  0.7973 -0.9041 -0.0121
 1937SOL    HW3 7515   1.997   5.331   4.740  0.9350 -0.6765  0.1287
 1937SOL    MW4 7516   1.984   5.343   4.825 -0.0887  0.1735  0.0436
 1938SOL     OW 7517   5.504   0.926   2.867 -0.0311 -0.7180  0.0627
 1938SOL    HW2 7518   5.567   0.876   2.919  0.0595 -0.0780  0.5708
 1938SOL    HW3 7519   5.515   1.016   2.895  0.3349 -0.2767 -1.3877
 1938SOL    MW4 7520   5.514   0.931   2.877 -0.6072  0.7525 -0.7186
 1939SOL     OW 7521   5.213   3.747   3.777  0.0386 -0.2353 -0.2586
 1939SOL    HW2 7522   5.124   3.745   3.744 -1.5974  0.0414  3.5934
 1939SOL    HW3 7523   5.230   3.839   3.798  1.9016 -0.0295 -2.2331
 1939SOL    MW4 7524   5.204   3.759   3.776  0.2964  0.1273  0.3043
 1940SOL     OW 7525   5.264   4.823   4.815  0.5811 -0.2811  0.6522
 1940SOL    HW2 7526   5.312   4.905   4.807  0.5854 -0.3049  0.4251
 1940SOL    HW3 7527   5.311   4.774   4.882  0.8538 -0.2873  0.4593
 1940SOL    MW4 7528   5.276   4.827   4.823 -0.0032 -0.3907 -0.3434
 1941SOL     OW 7529   0.227   3.367   4.710 -0.2146 -0.1594  0.1888
 1941SOL    HW2 7530   0.184   3.348   4.793 -0.2760  0.7422  0.3773
 1941SOL    HW3 7531   0.206   3.459   4.693 -0.7007 -0.4902 -1.1255
 1941SOL    MW4 7532   0.218   3.377   4.719 -0.0045 -0.2468  0.5317
 1942SOL     OW 7533   2.648   3.602   4.451 -0.8248  0.1073  0.1855
 1942SOL    HW2 7534   2.619   3.691   4.429  0.5486  0.5506  0.0563
 1942SOL    HW3 7535   2.726   3.588   4.397 -0.5016 -0.8305  0.8620
 1942SOL    MW4 7536   2.655   3.612   4.441  0.1831  0.1913  0.3824
 1943SOL     OW 7537   4.289   4.912   6.370  0.4901  0.3335  0.4054
 1943SOL    HW2 7538   4.338   4.945   6.445 -1.8774  1.0729  1.7148
 1943SOL    HW3 7539   4.302   4.817   6.372 -0.2322  0.2362  2.3347
 1943SOL    MW4 7540   4.297   4.904   6.380 -0.1415 -0.8312 -0.1483
 1944SOL     OW 7541   3.144   3.839   4.534  0.5119  0.0542  0.2586
 1944SOL    HW2 7542   3.091   3.906   4.579  1.3147  1.5361 -0.9182
 1944SOL    HW3 7543   3.179   3.785   4.605  1.7466  2.3284  1.5022
 1944SOL    MW4 7544   3.142   3.841   4.550 -0.0046 -0.2134 -0.2747
 1945SOL     OW 7545   6.238   5.521   0.098  0.2715  0.2516 -0.3568
 1945SOL    HW2 7546   6.234   5.475   0.182  2.2395 -1.3524 -1.0549
 1945SOL    HW3 7547   6.237   5.614   0.121  0.7845 -0.1429  1.4444
 1945SOL    MW4 7548   6.237   5.527   0.112 -0.3502  0.5054 -0.4542
 1946SOL     OW 7549   1.228   4.386   1.977 -0.3574 -0.7002 -0.6257
 1946SOL    HW2 7550   1.229   4.291   1.983 -1.4307 -0.7085 -0.2709
 1946SOL    HW3 7551   1.284   4.415   2.050  0.3619 -1.0531 -1.0257
 1946SOL    MW4 7552   1.235   4.378   1.988  0.6930  0.5982  0.3166
 1947SOL     OW 7553   3.817   4.094   4.484 -0.1962  0.2180  0.1445
 1947SOL    HW2 7554   3.746   4.054   4.535 -1.6260 -0.1423 -2.0375
 1947SOL    HW3 7555   3.896   4.067   4.530 -1.3561 -1.1392  1.4652
 1947SOL    MW4 7556   3.818   4.085   4.497  0.0308 -0.5664 -0.1119
 1948SOL     OW 7557   0.902   5.297   4.662 -0.1040  0.4945  0.1694
 1948SOL    HW2 7558   0.898   5.380   4.615 -0.1226  0.2415 -0.2862
 1948SOL    HW3 7559   0.878   5.232   4.596 -2.3555  0.3285  1.0621
 1948SOL    MW4 7560   0.898   5.299   4.647 -0.2452  0.5726 -0.0203
 1949SOL     OW 7561   0.617   4.956   2.587 -0.1353  0.3176 -0.8965
 1949SOL    HW2 7562   0.595   4.972   2.495 -1.8368 -0.8292 -0.7242
 1949SOL    HW3 7563   0.584   4.869   2.605 -1.0933  1.0496  1.1916
 1949SOL    MW4 7564   0.610   4.947   2.577 -0.3160 -0.2473  0.5242
 1950SOL     OW 7565   5.998   6.408   5.648 -0.2410 -0.2708 -0.1421
 1950SOL    HW2 7566   6.081   6.444   5.678 -0.6983  0.6607  0.0261
 1950SOL    HW3 7567   5.969   6.351   5.720  0.3860 -0.8449 -0.3299
 1950SOL    MW4 7568   6.005   6.405   5.661 -0.0339 -0.1512 -0.9114
 1951SOL     OW 7569   0.232   3.383   0.104 -0.1735  0.6305  0.3837
 1951SOL    HW2 7570   0.323   3.358   0.092  0.1962  2.1606 -0.3524
 1951SOL    HW3 7571   0.191   3.308   0.147  0.9907 -0.8342 -0.9693
 1951SOL    MW4 7572   0.239   3.370   0.108  0.3883  0.2941  0.7843
 1952SOL     OW 7573   3.913   0.925   1.591 -0.2823 -0.1912 -0.1157
 1952SOL    HW2 7574   3.886   0.847   1.639 -0.3853  0.3498  0.7281
 1952SOL    HW3 7575   3.898   0.998   1.652  1.3071  0.3267 -0.2817
 1952SOL    MW4 7576   3.908   0.925   1.606 -0.4042  0.3866  0.5501
 1953SOL     OW 7577   2.016   0.213   2.610 -0.3029 -0.2825  0.2224
 1953SOL    HW2 7578   1.963   0.228   2.689  1.6071  2.5534  1.1056
 1953SOL    HW3 7579   2.069   0.292   2.601  1.2346 -1.4956 -2.6278
 1953SOL    MW4 7580   2.016   0.225   2.619  0.1140  0.4657 -0.6850
 1954SOL     OW 7581   5.607   1.144   2.027  0.1696 -0.3368 -0.1449
 1954SOL    HW2 7582   5.684   1.109   2.072  0.3830 -0.2808 -0.4636
 1954SOL    HW3 7583   5.633   1.146   1.935 -0.5118 -1.1351 -0.3684
 1954SOL    MW4 7584   5.621   1.140   2.021 -0.5792 -0.0926  0.8926
 1955SOL     OW 7585   0.653   0.676   6.284 -0.1791  0.1315  0.0943
 1955SOL    HW2 7586   0.690   0.752   6.330  1.0630 -0.9692  1.0036
 1955SOL    HW3 7587   0.721   0.653   6.220 -1.7036  1.3852 -2.1037
 1955SOL    MW4 7588   0.667   0.683   6.282  0.2140  0.3149  0.5890
 1956SOL     OW 7589   3.381   5.358   4.355  0.8737 -0.0855 -0.0054
 1956SOL    HW2 7590   3.365   5.449   4.381  0.0474  0.0202 -0.8457
 1956SOL    HW3 7591   3.455   5.330   4.410  1.5064  1.2640 -0.1309
 1956SOL    MW4 7592   3.389   5.366   4.365 -0.2564  0.1043  0.3128
 1957SOL     OW 7593   5.395   5.729   1.632 -0.6095  0.2367 -0.5508
 1957SOL    HW2 7594   5.448   5.681   1.569 -1.6369  0.7146 -1.8241
 1957SOL    HW3 7595   5.451   5.802   1.660 -0.6529  0.8812 -2.0694
 1957SOL    MW4 7596   5.409   5.732   1.627 -0.0305  0.4390 -0.5248
 1958SOL     OW 7597   3.008   1.505   0.197 -0.2183  0.1526  0.0748
 1958SOL    HW2 7598   3.070   1.453   0.146  1.4876  1.1592  1.0474
 1958SOL    HW3 7599   2.957   1.440   0.245  0.8376 -0.6769  0.1091
 1958SOL    MW4 7600   3.009   1.489   0.197 -0.1248  0.5054  0.3666
 1959SOL     OW 7601   2.909   2.379   0.092 -0.5713 -0.4060  0.4175
 1959SOL    HW2 7602   2.990   2.424   0.116 -1.0702 -0.1345  1.7011
 1959SOL    HW3 7603   2.908   2.380  -0.004  0.7873 -0.1609  0.3852
 1959SOL    MW4 7604   2.919   2.385   0.082  0.6580 -0.3865 -0.6346
 1960SOL     OW 7605   3.129   2.855   4.480  0.0590  0.2945  0.3646
 1960SOL    HW2 7606   3.152   2.774   4.526 -0.3379 -1.3526 -2.1370
 1960SOL    HW3 7607   3.163   2.842   4.392 -1.0106  2.4098 -0.4119
 1960SOL    MW4 7608   3.136   2.842   4.475  0.3581 -0.3237 -0.2001
 1961SOL     OW 7609   5.875   0.143   3.451 -0.4127  0.3499  0.4061
 1961SOL    HW2 7610   5.927   0.216   3.416  0.4599 -0.2526  0.4300
 1961SOL    HW3 7611   5.937   0.092   3.502 -1.1487 -0.1134  0.8477
 1961SOL    MW4 7612   5.890   0.146   3.453  0.3305  0.3703  0.4453
 1962SOL     OW 7613   0.284   2.374   5.300  0.1311  0.2254 -0.6847
 1962SOL    HW2 7614   0.303   2.324   5.380  0.7758 -0.0783 -1.0163
 1962SOL    HW3 7615   0.190   2.390   5.304  0.2702  0.8618  0.5063
 1962SOL    MW4 7616   0.274   2.369   5.311  0.0530  0.3239 -0.0033
 1963SOL     OW 7617   6.164   6.321   1.383 -0.0983 -0.0427  0.5701
 1963SOL    HW2 7618   6.132   6.310   1.472  3.0507  1.2307  1.9966
 1963SOL    HW3 7619   6.258   6.308   1.389  0.2104 -0.2229 -2.6788
 1963SOL    MW4 7620   6.172   6.318   1.395  0.7610 -0.1403 -0.7192
 1964SOL     OW 7621   4.006   3.777   2.875 -0.2870  0.4880 -0.0542
 1964SOL    HW2 7622   3.974   3.801   2.788 -1.0329  0.1764  0.1224
 1964SOL    HW3 7623   3.956   3.698   2.897  0.4859  0.0973  0.3164
 1964SOL    MW4 7624   3.995   3.770   2.866 -0.1941  0.1819  0.1471
 1965SOL     OW 7625   4.973   0.923   1.945  0.0025  0.0072 -0.4711
 1965SOL    HW2 7626   5.032   0.955   2.014  0.3831 -0.5535 -0.5266
 1965SOL    HW3 7627   4.971   0.993   1.880 -0.2941  0.5074  0.0670
 1965SOL    MW4 7628   4.981   0.936   1.946 -0.3661 -0.6052  0.7436
 1966SOL     OW 7629   1.966   4.144   3.471 -0.3556 -0.5245 -0.8785
 1966SOL    HW2 7630   1.954   4.109   3.559 -1.9947 -1.7632 -1.5250
 1966SOL    HW3 7631   2.026   4.083   3.428  2.0088  1.1502 -0.0907
 1966SOL    MW4 7632   1.972   4.131   3.477  0.0618 -0.4239  0.0936
 1967SOL     OW 7633   5.978   2.554   0.858  0.4892  0.4558 -0.1070
 1967SOL    HW2 7634   6.071   2.575   0.873  0.7079 -1.6052  2.2012
 1967SOL    HW3 7635   5.979   2.463   0.828 -0.7201  1.2892 -2.9674
 1967SOL    MW4 7636   5.991   2.545   0.856  0.2606 -0.4556  0.4287
 1968SOL     OW 7637   4.783   0.292   0.789  0.3124 -1.1913  0.8139
 1968SOL    HW2 7638   4.803   0.255   0.703 -2.0281 -1.1121  0.1608
 1968SOL    HW3 7639   4.687   0.300   0.790  0.3410 -0.3657  3.0977
 1968SOL    MW4 7640   4.773   0.288   0.777  0.3714  0.2075  0.2831
 1969SOL     OW 7641   0.031   4.271   5.149 -0.2564 -0.1773  0.0341
 1969SOL    HW2 7642   0.102   4.233   5.098  1.8210  2.2088  0.9240
 1969SOL    HW3 7643   0.034   4.225   5.233 -0.7978 -1.1063 -0.4402
 1969SOL    MW4 7644   0.040   4.260   5.153 -0.3512 -0.3315 -0.4504
 1970SOL     OW 7645   2.735   2.304   4.602  0.3208 -0.3247  0.2144
 1970SOL    HW2 7646   2.674   2.231   4.614  0.6613 -0.5266  0.7703
 1970SOL    HW3 7647   2.780   2.285   4.520 -0.2589 -0.2441 -0.1338
 1970SOL    MW4 7648   2.733   2.292   4.593 -0.2417  0.1947 -0.1908
 1971SOL     OW 7649   3.240   3.518   1.720 -0.1716 -0.2777  0.2314
 1971SOL    HW2 7650   3.247   3.432   1.680  0.9322  0.3371 -0.9778
 1971SOL    HW3 7651   3.185   3.568   1.661 -1.0621 -0.2233  1.0889
 1971SOL    MW4 7652   3.234   3.513   1.707 -0.2874  0.2378 -0.0218
 1972SOL     OW 7653   3.758   0.576   2.477  0.2745 -0.3998  0.0116
 1972SOL    HW2 7654   3.700   0.530   2.416 -0.1076  0.5232 -0.3408
 1972SOL    HW3 7655   3.835   0.598   2.424 -0.9266  2.2576 -0.8012
 1972SOL    MW4 7656   3.761   0.573   2.462 -0.2669  0.0191 -0.3011
 1973SOL     OW 7657   4.424   5.847   5.556 -0.3474 -0.1511 -0.1974
 1973SOL    HW2 7658   4.480   5.898   5.498  0.3526  2.0712  2.2685
 1973SOL    HW3 7659   4.459   5.757   5.549  0.0905  0.1338 -2.6402
 1973SOL    MW4 7660   4.436   5.842   5.547  0.1170 -0.5263 -0.2088
 1974SOL     OW 7661   6.183   3.484   4.853 -0.6259  0.1808 -0.0238
 1974SOL    HW2 7662   6.207   3.402   4.810 -0.2517 -0.1400  0.7806
 1974SOL    HW3 7663   6.089   3.476   4.869 -0.3766 -0.6371  1.1644
 1974SOL    MW4 7664   6.174   3.472   4.849 -0.0002  0.1315  0.3984
 1975SOL     OW 7665   6.211   6.265   4.330  0.5014 -1.0051  0.3728
 1975SOL    HW2 7666   6.137   6.324   4.339  1.2908 -0.0724  0.9741
 1975SOL    HW3 7667   6.282   6.320   4.296  0.6972 -2.0594 -1.0155
 1975SOL    MW4 7668   6.211   6.280   4.327 -0.0837 -0.2398 -0.5103
 1976SOL     OW 7669   3.506   2.978   4.767  0.4991  0.5669  0.4455
 1976SOL    HW2 7670   3.592   3.020   4.764  0.6262  0.2973  0.3117
 1976SOL    HW3 7671   3.525   2.885   4.774  0.2332  0.2767 -1.9516
 1976SOL    MW4 7672   3.520   2.971   4.768  0.2213  0.3485 -0.7565
 1977SOL     OW 7673   4.513   2.200   1.803 -0.1728  0.3108 -0.1048
 1977SOL    HW2 7674   4.434   2.157   1.769 -0.1756  0.0634  0.2108
 1977SOL    HW3 7675   4.560   2.130   1.849  0.7128  0.2135 -1.0972
 1977SOL    MW4 7676   4.509   2.185   1.804 -0.2826 -0.4322  0.3914
 1978SOL     OW 7677   3.069   2.233   1.008  0.1949 -0.1261 -0.2003
 1978SOL    HW2 7678   3.038   2.185   1.084 -1.9016  2.6551  0.8841
 1978SOL    HW3 7679   2.995   2.231   0.947  0.5039  0.6891 -0.6166
 1978SOL    MW4 7680   3.055   2.226   1.010  0.0498 -0.3764  0.0067
 1979SOL     OW 7681   2.737   3.523   2.115  0.1651  0.0292  0.6325
 1979SOL    HW2 7682   2.673   3.573   2.063  1.1219  0.9723  0.3353
 1979SOL    HW3 7683   2.780   3.466   2.051  2.4904  2.3432 -0.0248
 1979SOL    MW4 7684   2.734   3.522   2.099  0.0819  0.0721 -0.3943
 1980SOL     OW 7685   1.308   2.889   1.588 -0.0788 -0.1581 -0.4419
 1980SOL    HW2 7686   1.394   2.896   1.545  0.5436  2.2987  1.0201
 1980SOL    HW3 7687   1.256   2.836   1.527  2.6889 -2.6250 -0.9257
 1980SOL    MW4 7688   1.313   2.883   1.574  0.4380  0.1428 -0.1020
 1981SOL     OW 7689   2.411   2.444   6.086 -0.1006 -0.4336  0.2003
 1981SOL    HW2 7690   2.424   2.470   5.995  0.3089  2.2236  0.9443
 1981SOL    HW3 7691   2.321   2.411   6.089 -0.7207  1.0714 -0.8557
 1981SOL    MW4 7692   2.401   2.443   6.075  0.1101 -0.0528 -0.1342
 1982SOL     OW 7693   4.056   3.073   5.571 -0.0616  0.2961  0.3191
 1982SOL    HW2 7694   4.067   2.986   5.611  1.6774 -0.0358 -0.7606
 1982SOL    HW3 7695   4.145   3.100   5.549 -0.8610  0.6702 -2.8712
 1982SOL    MW4 7696   4.069   3.065   5.573 -0.2929 -0.0954 -0.1332
 1983SOL     OW 7697   2.552   6.175   1.507  0.8306  0.0791 -0.3340
 1983SOL    HW2 7698   2.629   6.132   1.544 -0.0921 -0.4694  1.0045
 1983SOL    HW3 7699   2.480   6.113   1.521 -0.0445  0.9625 -0.7272
 1983SOL    MW4 7700   2.552   6.161   1.514  0.5079  0.2767  0.0737
 1984SOL     OW 7701   4.149   6.004   2.958 -0.1277  0.0352  0.3807
 1984SOL    HW2 7702   4.144   5.911   2.978  0.7071 -0.4881 -1.6206
 1984SOL    HW3 7703   4.160   6.046   3.044  2.0184 -1.9029  1.1590
 1984SOL    MW4 7704   4.150   5.998   2.972 -0.2021  0.3572 -0.7270
 1985SOL     OW 7705   4.218   4.194   1.684  0.3961 -0.0031  0.0573
 1985SOL    HW2 7706   4.176   4.156   1.607  0.2025  1.3203 -0.5166
 1985SOL    HW3 7707   4.297   4.237   1.650  1.4130 -1.1273  0.9032
 1985SOL    MW4 7708   4.223   4.195   1.669  0.3707  0.2742 -0.3727
 1986SOL     OW 7709   5.785   6.330   2.726  0.0611  0.2878  0.8527
 1986SOL    HW2 7710   5.778   6.425   2.733 -0.6400  0.3346 -0.1316
 1986SOL    HW3 7711   5.870   6.315   2.685 -0.7745  0.6717 -1.1871
 1986SOL    MW4 7712   5.795   6.341   2.721 -0.3085  0.0712  0.8471
 1987SOL     OW 7713   1.308   1.509   3.689 -0.4986 -0.5521  0.3213
 1987SOL    HW2 7714   1.264   1.530   3.606  0.0445 -2.4981 -0.5050
 1987SOL    HW3 7715   1.336   1.419   3.679  0.4435 -0.5198  2.2835
 1987SOL    MW4 7716   1.306   1.500   3.677  0.2788  1.0350  0.2629
 1988SOL     OW 7717   4.809   0.917   4.829 -0.0854 -0.4966 -0.1090
 1988SOL    HW2 7718   4.845   0.962   4.906  0.9816 -3.9168  1.6038
 1988SOL    HW3 7719   4.874   0.929   4.761  0.5741 -0.1316  0.5723
 1988SOL    MW4 7720   4.822   0.924   4.830  0.2889 -0.2097  0.0007
 1989SOL     OW 7721   0.114   5.344   1.221  0.0438  0.1398 -0.0411
 1989SOL    HW2 7722   0.115   5.304   1.308 -0.9202  0.1881  0.0014
 1989SOL    HW3 7723   0.065   5.282   1.167 -1.3360  1.1705 -0.0106
 1989SOL    MW4 7724   0.108   5.330   1.225 -0.2087 -0.2041  0.3251
 1990SOL     OW 7725   1.593   2.090   3.952  0.6742 -0.7871  1.0365
 1990SOL    HW2 7726   1.604   2.035   3.875 -0.5485  0.2801  0.0477
 1990SOL    HW3 7727   1.666   2.152   3.948 -0.2336  0.2749 -0.2075
 1990SOL    MW4 7728   1.604   2.091   3.941 -0.5649  0.4567  0.8826
 1991SOL     OW 7729   5.348   1.156   2.128  0.9388 -0.3338  0.1377
 1991SOL    HW2 7730   5.395   1.157   2.211  0.0268  0.4973  0.6792
 1991SOL    HW3 7731   5.412   1.187   2.064  1.7700 -1.3654  0.4439
 1991SOL    MW4 7732   5.363   1.161   2.131 -0.3117  0.8470 -0.1141
 1992SOL     OW 7733   4.971   2.799   4.092 -0.2911 -0.2174  0.2424
 1992SOL    HW2 7734   5.067   2.794   4.097 -0.1918  0.6071 -0.5285
 1992SOL    HW3 7735   4.946   2.723   4.039 -0.0901 -0.5703  0.6470
 1992SOL    MW4 7736   4.981   2.788   4.085 -0.4231  0.3667  0.0650
 1993SOL     OW 7737   2.926   4.858   1.815  0.1621 -0.5850  0.3328
 1993SOL    HW2 7738   2.975   4.805   1.753  0.5960 -0.9507  0.9799
 1993SOL    HW3 7739   2.896   4.934   1.764 -0.4760 -1.4422 -0.6062
 1993SOL    MW4 7740   2.928   4.861   1.800 -0.0265 -0.0246 -0.2016
 1994SOL     OW 7741   5.266   4.060   4.425  0.4069  0.3357 -0.0714
 1994SOL    HW2 7742   5.268   4.155   4.413 -0.1286  0.4188  0.4658
 1994SOL    HW3 7743   5.350   4.039   4.465 -0.1886  0.8370  1.5358
 1994SOL    MW4 7744   5.277   4.070   4.428 -0.1863 -0.3793  0.0993
 1995SOL     OW 7745   3.295   4.495   0.148 -0.0359  0.3526  1.3862
 1995SOL    HW2 7746   3.326   4.584   0.129 -0.8528  0.4581  0.4997
 1995SOL    HW3 7747   3.319   4.444   0.071 -0.5430  0.0493  1.4277
 1995SOL    MW4 7748   3.302   4.500   0.135 -0.5777 -0.0120 -0.2416
 1996SOL     OW 7749   2.310   3.264   3.710  0.4311  0.4940 -0.2722
 1996SOL    HW2 7750   2.239   3.231   3.655  0.5500  2.0060 -1.4040
 1996SOL    HW3 7751   2.363   3.186   3.729 -1.0584 -0.5243 -0.0645
 1996SOL    MW4 7752   2.308   3.249   3.705  0.2628  0.1920 -0.7214
 1997SOL     OW 7753   5.058   6.297   5.641 -0.4915 -0.6706  0.3883
 1997SOL    HW2 7754   4.987   6.347   5.601  0.4002  0.1308 -0.2286
 1997SOL    HW3 7755   5.048   6.313   5.735 -1.4484 -1.0242  0.3660
 1997SOL    MW4 7756   5.047   6.306   5.648 -0.1042  0.1073  0.2971
 1998SOL     OW 7757   0.622   5.379   3.448  0.1250  0.9806 -0.0957
 1998SOL    HW2 7758   0.562   5.304   3.451  0.2398  0.8405 -0.9998
 1998SOL    HW3 7759   0.620   5.415   3.537 -0.3575  0.2399  0.2033
 1998SOL    MW4 7760   0.614   5.374   3.460 -0.4533  0.3964 -0.6943
 1999SOL     OW 7761   5.904   1.120   4.621 -0.7213 -0.5282  0.2090
 1999SOL    HW2 7762   5.825   1.114   4.675 -0.1330 -0.5407  1.0855
 1999SOL    HW3 7763   5.974   1.135   4.683 -0.1389  0.3801 -0.6380
 1999SOL    MW4 7764   5.903   1.121   4.636  0.0532  0.8510 -0.0248
 2000SOL     OW 7765   3.848   5.335   4.710  0.0895  0.8821  0.5926
 2000SOL    HW2 7766   3.926   5.378   4.675  0.4851 -0.0767  0.2703
 2000SOL    HW3 7767   3.882   5.266   4.768 -0.5158  0.5217  0.5285
 2000SOL    MW4 7768   3.863   5.332   4.713 -0.1133 -0.0860  0.0886
 2001SOL     OW 7769   3.555   0.298   0.452  0.2266 -0.2561  0.6480
 2001SOL    HW2 7770   3.465   0.312   0.425  0.8038 -0.6666 -1.6910
 2001SOL    HW3 7771   3.564   0.203   0.461  0.9047 -0.4149 -1.2024
 2001SOL    MW4 7772   3.545   0.287   0.450  0.4436  0.2421  0.1970
 2002SOL     OW 7773   3.110   4.269   2.083  0.3156 -0.0940 -0.7958
 2002SOL    HW2 7774   3.193   4.273   2.036  0.4343 -0.2943 -0.6019
 2002SOL    HW3 7775   3.122   4.199   2.148  0.6137  1.0189  0.4056
 2002SOL    MW4 7776   3.123   4.261   2.086  0.3647 -0.1913  0.2314
 2003SOL     OW 7777   3.021   5.413   4.411 -0.3933 -0.5909  0.3615
 2003SOL    HW2 7778   3.020   5.392   4.318 -0.2587 -0.2333  0.2801
 2003SOL    HW3 7779   3.067   5.340   4.452  0.0476 -0.4734  0.0813
 2003SOL    MW4 7780   3.027   5.401   4.404  0.1314 -0.1840  0.3715
 2004SOL     OW 7781   3.360   5.578   2.655 -0.6191 -0.2115 -0.0615
 2004SOL    HW2 7782   3.342   5.670   2.676 -0.8638 -0.5173  1.1234
 2004SOL    HW3 7783   3.275   5.535   2.660 -0.2786 -0.8035  1.0883
 2004SOL    MW4 7784   3.347   5.584   2.659  0.3193 -0.3824 -0.0900
 2005SOL     OW 7785   5.099   4.844   1.198  0.0425 -0.3710  0.1455
 2005SOL    HW2 7786   5.083   4.875   1.109  1.3504  0.0119  0.0211
 2005SOL    HW3 7787   5.113   4.750   1.189  2.1040 -0.0541 -0.3623
 2005SOL    MW4 7788   5.099   4.836   1.185  0.5365 -0.1266  0.3322
 2006SOL     OW 7789   3.004   2.641   3.785 -0.4583 -0.4802 -0.4079
 2006SOL    HW2 7790   2.952   2.582   3.840 -0.0793 -1.7995 -1.4042
 2006SOL    HW3 7791   3.095   2.626   3.813 -0.4375  0.4720  0.0843
 2006SOL    MW4 7792   3.009   2.631   3.796  0.4533 -0.5242 -0.0870
 2007SOL     OW 7793   5.061   2.285   1.661 -0.1057 -0.5556  0.0865
 2007SOL    HW2 7794   5.069   2.347   1.733  0.1060 -0.6738  0.1641
 2007SOL    HW3 7795   4.967   2.262   1.660  0.1798 -1.9816  1.5401
 2007SOL    MW4 7796   5.049   2.290   1.671 -0.3992 -0.1022  0.1422
 2008SOL     OW 7797   0.177   0.328   5.129  0.1466 -0.4327 -0.4792
 2008SOL    HW2 7798   0.143   0.394   5.189  1.1826  1.4622 -1.8784
 2008SOL    HW3 7799   0.242   0.281   5.181  0.3121  0.5132  0.2011
 2008SOL    MW4 7800   0.181   0.331   5.144  0.0237  0.3105 -0.4678
 2009SOL     OW 7801   4.485   3.047   0.685 -0.0058 -0.1418  0.0298
 2009SOL    HW2 7802   4.565   3.069   0.733 -0.7356  1.9898  0.3629
 2009SOL    HW3 7803   4.415   3.056   0.749 -0.7246  0.0704 -0.7660
 2009SOL    MW4 7804   4.486   3.051   0.700 -0.3496  0.5461 -0.2591
 2010SOL     OW 7805   0.798   2.344   5.856  0.0190 -0.2820 -0.1290
 2010SOL    HW2 7806   0.732   2.355   5.789  1.1720 -1.7953 -1.6013
 2010SOL    HW3 7807   0.776   2.409   5.923 -2.8396 -0.6419 -0.5957
 2010SOL    MW4 7808   0.787   2.354   5.856  0.4179  0.1895 -0.0899
 2011SOL     OW 7809   3.669   1.795   3.886  0.7175 -0.1380 -0.2365
 2011SOL    HW2 7810   3.754   1.822   3.850 -0.6604  3.5843 -1.0510
 2011SOL    HW3 7811   3.626   1.750   3.813  1.0565  0.0726 -0.5680
 2011SOL    MW4 7812   3.675   1.792   3.872  0.0728  0.6591 -0.2527
 2012SOL     OW 7813   4.508   0.761   1.902 -0.4115  0.0946  0.6652
 2012SOL    HW2 7814   4.561   0.760   1.822 -0.6977  0.3813  0.4746
 2012SOL    HW3 7815   4.558   0.707   1.964  0.4269  0.8797  0.6900
 2012SOL    MW4 7816   4.522   0.754   1.900  0.2437 -0.4291 -0.0767
 2013SOL     OW 7817   5.106   2.273   2.325  0.3167 -0.5158 -0.0048
 2013SOL    HW2 7818   5.141   2.339   2.265  1.6576  1.2777  2.5373
 2013SOL    HW3 7819   5.147   2.191   2.299  3.1984  0.7529  0.2380
 2013SOL    MW4 7820   5.116   2.271   2.314 -0.0671  0.9590  0.0591
 2014SOL     OW 7821   2.367   2.279   1.336  0.5535 -0.6868  0.4787
 2014SOL    HW2 7822   2.308   2.210   1.305 -1.5863  1.1296  0.2249
 2014SOL    HW3 7823   2.340   2.357   1.286  0.7081  1.0532  2.9401
 2014SOL    MW4 7824   2.355   2.280   1.325 -0.1299 -1.0483  0.0439
 2015SOL     OW 7825   1.078   3.640   2.770 -0.1997 -0.3214  0.1330
 2015SOL    HW2 7826   1.048   3.620   2.859  1.0617  0.4281  0.7597
 2015SOL    HW3 7827   1.094   3.734   2.770  1.1128 -0.5127 -0.4622
 2015SOL    MW4 7828   1.077   3.649   2.782 -0.0174  0.0370  0.0424
 2016SOL     OW 7829   2.570   4.494   1.138  0.0083  1.0079  0.2444
 2016SOL    HW2 7830   2.595   4.416   1.188  1.6806  1.2512 -0.1581
 2016SOL    HW3 7831   2.650   4.547   1.135 -1.1218  2.8144  0.6169
 2016SOL    MW4 7832   2.584   4.491   1.145 -0.3291 -0.1805  0.0937
 2017SOL     OW 7833   5.399   4.182   0.535  0.1351  0.6385 -0.0370
 2017SOL    HW2 7834   5.316   4.134   0.529  0.8543 -0.8407  1.1394
 2017SOL    HW3 7835   5.410   4.222   0.449 -0.3991 -1.5288 -1.1814
 2017SOL    MW4 7836   5.390   4.181   0.523  0.3726 -0.2282 -0.3070
 2018SOL     OW 7837   1.790   5.520   2.799  0.0977  0.6510  0.3171
 2018SOL    HW2 7838   1.744   5.507   2.882 -0.9351 -0.0851 -0.3382
 2018SOL    HW3 7839   1.784   5.435   2.756 -0.0043  1.2216 -0.8152
 2018SOL    MW4 7840   1.783   5.507   2.804  0.0222 -0.7026 -0.0246
 2019SOL     OW 7841   4.936   1.045   6.369  0.5878  0.2063 -0.2789
 2019SOL    HW2 7842   4.922   1.029   6.276  1.6386  3.9339 -1.2489
 2019SOL    HW3 7843   4.852   1.076   6.402 -0.2134 -2.5392  0.5068
 2019SOL    MW4 7844   4.923   1.047   6.361  0.2945 -0.1879 -0.2099
 2020SOL     OW 7845   3.398   1.769   1.200 -0.8583 -0.6666 -0.0848
 2020SOL    HW2 7846   3.356   1.684   1.194 -1.9510 -0.0791 -1.1657
 2020SOL    HW3 7847   3.333   1.831   1.167 -0.1519  0.6152  0.8198
 2020SOL    MW4 7848   3.384   1.766   1.195  0.3611  0.3040  0.1884
 2021SOL     OW 7849   2.410   5.595   0.112 -0.1040 -0.0402  0.0973
 2021SOL    HW2 7850   2.436   5.674   0.064  0.6301 -0.0547  0.4624
 2021SOL    HW3 7851   2.438   5.523   0.056 -1.7046 -0.0701 -0.7366
 2021SOL    MW4 7852   2.417   5.596   0.098 -0.0387  0.2068 -0.4524
 2022SOL     OW 7853   5.562   1.724   3.704 -0.5047 -0.0724 -0.0604
 2022SOL    HW2 7854   5.523   1.756   3.623  0.1077 -1.6482 -1.0110
 2022SOL    HW3 7855   5.645   1.772   3.712  0.6181 -1.6184 -1.6985
 2022SOL    MW4 7856   5.568   1.734   3.695 -0.9018 -0.1967 -0.4975
 2023SOL     OW 7857   0.761   1.193   1.311  0.1696  0.1636 -0.7465
 2023SOL    HW2 7858   0.783   1.143   1.390 -0.9642  0.0182 -0.4961
 2023SOL    HW3 7859   0.823   1.266   1.310 -0.2664  0.5932  0.7117
 2023SOL    MW4 7860   0.772   1.196   1.322 -0.0078 -0.4096  0.3875
 2024SOL     OW 7861   5.318   5.100   5.769 -0.3804  0.4928  0.3750
 2024SOL    HW2 7862   5.237   5.062   5.735  0.0489 -0.7455  0.6585
 2024SOL    HW3 7863   5.387   5.068   5.710  0.1582 -0.3354  1.3903
 2024SOL    MW4 7864   5.317   5.090   5.757  0.2145  0.1295  0.3624
 2025SOL     OW 7865   2.987   2.091   1.226  0.2009  0.3511  0.1504
 2025SOL    HW2 7866   3.032   2.007   1.216 -0.7735 -0.0909 -0.6874
 2025SOL    HW3 7867   2.894   2.069   1.221 -0.0634  1.6200 -1.6103
 2025SOL    MW4 7868   2.981   2.077   1.224  0.2953 -0.6355  0.9323
 2026SOL     OW 7869   4.301   2.510   3.906  0.1268 -0.1822 -0.2664
 2026SOL    HW2 7870   4.227   2.565   3.930  2.1606  1.5865  2.4158
 2026SOL    HW3 7871   4.314   2.527   3.812 -1.8340  0.6540 -0.4367
 2026SOL    MW4 7872   4.293   2.519   3.897  0.0155 -0.2798  0.2748
 2027SOL     OW 7873   3.898   4.695   6.387 -0.3112  0.1238 -0.6311
 2027SOL    HW2 7874   3.893   4.607   6.350  2.3625  0.2665 -1.6115
 2027SOL    HW3 7875   3.905   4.752   6.311 -1.1434  1.1202  0.0193
 2027SOL    MW4 7876   3.899   4.691   6.372 -0.0485  0.0024 -0.4883
 2028SOL     OW 7877   5.464   0.898   3.457 -0.5151 -0.2606  0.3620
 2028SOL    HW2 7878   5.492   0.895   3.548 -0.2155 -0.6093  0.2593
 2028SOL    HW3 7879   5.530   0.953   3.413 -1.9773  1.9869  0.8123
 2028SOL    MW4 7880   5.476   0.905   3.463 -0.3296  0.3851  0.2846
 2029SOL     OW 7881   1.375   5.022   1.271  0.1583 -0.3990 -0.1497
 2029SOL    HW2 7882   1.459   5.007   1.315 -0.5629 -0.5901  1.2393
 2029SOL    HW3 7883   1.343   5.104   1.309 -1.5245 -1.7101  1.4667
 2029SOL    MW4 7884   1.382   5.031   1.282 -0.4349  0.2379  0.5123
 2030SOL     OW 7885   3.703   4.420   5.276 -0.2835 -0.0340  0.9827
 2030SOL    HW2 7886   3.640   4.384   5.213  0.2404  0.2148  0.3037
 2030SOL    HW3 7887   3.740   4.343   5.319  1.8360 -0.4953 -1.4204
 2030SOL    MW4 7888   3.700   4.405   5.273 -0.4151 -0.0210 -0.5644
 2031SOL     OW 7889   1.637   6.329   5.481  0.0981  0.3206  0.0390
 2031SOL    HW2 7890   1.576   6.308   5.410  0.0696 -2.4927  0.7705
 2031SOL    HW3 7891   1.694   6.252   5.487 -0.2067  0.2081  3.3627
 2031SOL    MW4 7892   1.637   6.316   5.472 -0.4381  0.1472  0.0913
 2032SOL     OW 7893   2.466   4.787   1.448 -0.5614  0.0995  0.0837
 2032SOL    HW2 7894   2.403   4.778   1.519 -0.2821  2.6460  0.7574
 2032SOL    HW3 7895   2.528   4.715   1.461 -0.8693  0.1512  2.0774
 2032SOL    MW4 7896   2.466   4.776   1.459 -0.1202  0.2475  0.0659
 2033SOL     OW 7897   1.181   2.970   0.233 -0.5864 -0.5007 -0.4043
 2033SOL    HW2 7898   1.202   3.056   0.197  2.2758 -0.5761  0.8090
 2033SOL    HW3 7899   1.178   2.983   0.328 -3.3502 -1.1759 -0.3293
 2033SOL    MW4 7900   1.184   2.983   0.241 -0.7875  0.2071 -0.0950
 2034SOL     OW 7901   1.339   4.855   5.615  0.1117 -0.2994  0.1327
 2034SOL    HW2 7902   1.316   4.912   5.688 -0.1165 -0.1212 -0.0773
 2034SOL    HW3 7903   1.285   4.886   5.542  1.8406  0.9187 -0.7112
 2034SOL    MW4 7904   1.329   4.867   5.615 -0.1527 -0.2629 -0.8983
 2035SOL     OW 7905   0.744   2.694   1.483 -0.5824  0.0636 -1.0557
 2035SOL    HW2 7906   0.754   2.656   1.396  2.2557  1.4022 -1.4212
 2035SOL    HW3 7907   0.759   2.788   1.470 -1.8070  0.5393  0.6448
 2035SOL    MW4 7908   0.747   2.701   1.470 -0.1833  0.3600  0.1988
 2036SOL     OW 7909   1.415   1.601   5.706  0.4171  0.8699 -0.4418
 2036SOL    HW2 7910   1.452   1.600   5.618 -0.8413  0.7934 -0.9845
 2036SOL    HW3 7911   1.369   1.684   5.712 -0.2556  0.4869 -0.1881
 2036SOL    MW4 7912   1.414   1.612   5.695 -0.6073 -0.6798 -0.1226
 2037SOL     OW 7913   0.291   4.053   1.780  0.1159 -0.6741 -0.0206
 2037SOL    HW2 7914   0.317   4.049   1.688  0.5905 -1.4925  0.1467
 2037SOL    HW3 7915   0.297   4.146   1.802 -0.8008 -0.3484 -1.0389
 2037SOL    MW4 7916   0.295   4.065   1.771  0.7293  0.1629  0.2502
 2038SOL     OW 7917   4.878   1.583   1.080  0.0442  0.5212  0.7451
 2038SOL    HW2 7918   4.953   1.547   1.128 -0.0084 -0.1483  0.3398
 2038SOL    HW3 7919   4.871   1.673   1.111  0.6814  0.4271  1.1894
 2038SOL    MW4 7920   4.887   1.590   1.091  0.2124 -0.2357  0.0978
 2039SOL     OW 7921   4.571   1.442   1.931 -0.6051  0.2082 -0.2549
 2039SOL    HW2 7922   4.536   1.530   1.946 -0.3442  0.6983 -2.2689
 2039SOL    HW3 7923   4.617   1.448   1.847 -1.2923 -2.0528 -0.8734
 2039SOL    MW4 7924   4.572   1.454   1.922 -0.1133 -0.0222  0.4435
 2040SOL     OW 7925   5.812   6.284   0.969 -0.0404  0.3919 -0.3819
 2040SOL    HW2 7926   5.737   6.310   1.023  0.9410  0.8168  0.8191
 2040SOL    HW3 7927   5.817   6.189   0.979 -0.6861  0.3111 -0.8238
 2040SOL    MW4 7928   5.803   6.275   0.978  0.5169 -0.0526  0.3236
 2041SOL     OW 7929   3.285   4.575   2.808 -0.0168  0.3911  0.1166
 2041SOL    HW2 7930   3.268   4.614   2.894 -1.2851 -0.4505  0.2777
 2041SOL    HW3 7931   3.353   4.510   2.825  0.1708  0.6503  0.3724
 2041SOL    MW4 7932   3.292   4.571   2.822 -0.2739  0.0567 -0.2174
 2042SOL     OW 7933   5.531   2.954   3.023  0.0541 -0.5385  0.3571
 2042SOL    HW2 7934   5.555   2.977   2.932  2.0148  0.1313  0.9797
 2042SOL    HW3 7935   5.531   2.858   3.024  0.0694 -0.5545 -0.3456
 2042SOL    MW4 7936   5.534   2.944   3.011  0.1603  0.0875  0.2314
 2043SOL     OW 7937   5.960   1.369   3.440 -0.2493 -0.3837  0.1216
 2043SOL    HW2 7938   5.977   1.456   3.476 -0.5062 -0.7418  1.1418
 2043SOL    HW3 7939   5.871   1.348   3.470 -0.9288 -0.2480 -1.6491
 2043SOL    MW4 7940   5.950   1.378   3.449 -0.1839  0.0661  0.2344
 2044SOL     OW 7941   4.398   2.767   2.315 -0.1977 -0.2321 -0.2423
 2044SOL    HW2 7942   4.371   2.818   2.238  0.7387 -0.4781 -0.7479
 2044SOL    HW3 7943   4.316   2.737   2.354 -0.6709 -0.9952 -1.7585
 2044SOL    MW4 7944   4.384   2.770   2.310 -0.1869 -0.0033  0.1786
 2045SOL     OW 7945   6.343   3.537   1.058  0.0505  0.0128  0.1341
 2045SOL    HW2 7946   6.353   3.446   1.029 -1.1623  0.2675 -1.2022
 2045SOL    HW3 7947   6.282   3.532   1.131  1.2821 -0.3906  1.1770
 2045SOL    MW4 7948   6.337   3.524   1.064 -0.0761  0.6466 -0.3297
 2046SOL     OW 7949   2.106   4.105   0.166 -0.3210  0.1185  0.0042
 2046SOL    HW2 7950   2.181   4.161   0.186 -1.5703  1.5637  0.9371
 2046SOL    HW3 7951   2.035   4.140   0.220 -2.1290 -0.0984 -2.0587
 2046SOL    MW4 7952   2.106   4.117   0.176 -0.5987 -0.4748 -0.0226
 2047SOL     OW 7953   4.626   2.537   3.598 -0.1465  0.0332 -0.2339
 2047SOL    HW2 7954   4.684   2.603   3.560 -0.5103  0.3801 -0.1987
 2047SOL    HW3 7955   4.587   2.492   3.523 -0.5151  0.4100 -0.2763
 2047SOL    MW4 7956   4.628   2.540   3.583 -0.5956 -0.0942  0.0158
 2048SOL     OW 7957   4.605   2.980   5.085 -0.0254 -0.2926 -0.0579
 2048SOL    HW2 7958   4.635   2.998   4.996  1.4585 -0.7083  0.3290
 2048SOL    HW3 7959   4.650   2.900   5.110  1.1066  0.8227  1.7316
 2048SOL    MW4 7960   4.615   2.972   5.076 -0.3118  0.6074 -0.2116
 2049SOL     OW 7961   1.973   3.887   3.125  0.5784  0.3329  0.4006
 2049SOL    HW2 7962   2.022   3.914   3.047 -0.8076  0.6175 -0.3952
 2049SOL    HW3 7963   1.881   3.889   3.098  0.2013 -2.2004  1.2160
 2049SOL    MW4 7964   1.968   3.891   3.111  0.3573 -0.3215  0.2080
 2050SOL     OW 7965   5.772   4.410   0.937 -0.0573  0.2372  0.1898
 2050SOL    HW2 7966   5.799   4.332   0.986  0.7939  0.3546 -0.0709
 2050SOL    HW3 7967   5.693   4.441   0.981  0.0925 -0.2758  0.8247
 2050SOL    MW4 7968   5.765   4.404   0.949 -0.5174  0.2562  0.4297
 2051SOL     OW 7969   4.769   2.499   3.165 -0.0134 -0.4284  0.1050
 2051SOL    HW2 7970   4.849   2.546   3.142 -0.4895 -0.0493 -0.8519
 2051SOL    HW3 7971   4.797   2.429   3.223  0.8848  0.2730  0.5404
 2051SOL    MW4 7972   4.783   2.496   3.170 -0.2622  0.3648  0.2822
 2052SOL     OW 7973   1.888   4.128   5.726 -0.3629 -0.3963  0.1057
 2052SOL    HW2 7974   1.843   4.171   5.653  1.1643  1.8764  0.3761
 2052SOL    HW3 7975   1.833   4.053   5.748 -3.0999  1.2698 -0.6160
 2052SOL    MW4 7976   1.875   4.124   5.719 -0.0495  0.1953 -0.1940
 2053SOL     OW 7977   3.226   6.155   5.356 -0.0590  0.6499 -0.0045
 2053SOL    HW2 7978   3.271   6.140   5.439 -0.2520  0.4186  0.0606
 2053SOL    HW3 7979   3.268   6.232   5.319 -0.3783  1.1191  0.5954
 2053SOL    MW4 7980   3.237   6.163   5.362  0.5357 -0.4668 -0.0881
 2054SOL     OW 7981   0.929   0.359   0.749 -0.2312  0.0919  0.2649
 2054SOL    HW2 7982   0.926   0.289   0.814  0.2305  0.2245  0.4341
 2054SOL    HW3 7983   0.903   0.317   0.667 -0.2623 -0.2035  0.4265
 2054SOL    MW4 7984   0.925   0.344   0.747 -0.1992 -0.5022  0.4628
 2055SOL     OW 7985   0.288   0.902   4.794 -0.1925  0.4590  0.2484
 2055SOL    HW2 7986   0.279   0.829   4.732  1.3593 -0.1252  0.6561
 2055SOL    HW3 7987   0.270   0.864   4.879 -1.1623  0.9918  0.2948
 2055SOL    MW4 7988   0.285   0.888   4.797  0.1628 -0.3187  0.1673
 2056SOL     OW 7989   2.200   3.197   3.229 -0.2695 -0.2316 -0.1003
 2056SOL    HW2 7990   2.167   3.184   3.318 -0.0089 -1.1278 -0.1313
 2056SOL    HW3 7991   2.223   3.290   3.226  2.1364 -0.6774  1.6115
 2056SOL    MW4 7992   2.198   3.208   3.240 -0.9659  0.5115 -0.2966
 2057SOL     OW 7993   0.999   2.227   0.819  0.3425  0.4062 -0.2994
 2057SOL    HW2 7994   0.932   2.158   0.814  0.2451  0.5929 -2.1449
 2057SOL    HW3 7995   1.082   2.179   0.816  0.2748  0.3488 -1.5882
 2057SOL    MW4 7996   1.001   2.211   0.818  0.1677 -0.3897  0.2646
 2058SOL     OW 7997   6.416   3.651   3.493  0.3567  0.0669  0.0627
 2058SOL    HW2 7998   6.413   3.614   3.405 -1.1678  0.3305 -0.0123
 2058SOL    HW3 7999   6.327   3.642   3.527  0.6207  1.0971  1.1083
 2058SOL    MW4 8000   6.404   3.645   3.486  0.0985  0.2452 -0.9869
 2059SOL     OW 8001   3.647   5.930   1.259 -0.0086 -0.6029 -0.0878
 2059SOL    HW2 8002   3.724   5.884   1.226  1.3764  0.5179  1.4297
 2059SOL    HW3 8003   3.682   5.997   1.318 -1.9948  1.6275 -1.2572
 2059SOL    MW4 8004   3.662   5.933   1.262 -0.1873 -0.2785 -0.2143
 2060SOL     OW 8005   1.400   4.941   2.945 -0.4210 -0.0570 -0.5085
 2060SOL    HW2 8006   1.492   4.966   2.937 -0.7147  1.4620  0.3650
 2060SOL    HW3 8007   1.377   4.903   2.861  0.5841  1.0314 -1.2965
 2060SOL    MW4 8008   1.409   4.940   2.933  0.3474 -0.1037 -0.1329
 2061SOL     OW 8009   2.911   5.773   6.099  0.1230  0.0484 -0.3284
 2061SOL    HW2 8010   2.826   5.795   6.062 -0.8999 -1.6669  0.8713
 2061SOL    HW3 8011   2.897   5.689   6.143  1.6764  1.0814  2.3831
 2061SOL    MW4 8012   2.898   5.765   6.100 -0.1737 -0.4046 -0.7895
 2062SOL     OW 8013   1.711   0.199   4.659  0.1131  0.2019  0.4442
 2062SOL    HW2 8014   1.783   0.164   4.711  1.2991 -0.7173 -1.6866
 2062SOL    HW3 8015   1.715   0.294   4.673  0.7569  0.0220  1.5350
 2062SOL    MW4 8016   1.721   0.207   4.667 -0.3974  0.0556  0.1677
 2063SOL     OW 8017   3.566   0.460   2.344  0.1443 -0.4753 -0.1096
 2063SOL    HW2 8018   3.520   0.428   2.421  0.2383 -0.6945 -0.1421
 2063SOL    HW3 8019   3.518   0.538   2.317  1.2481  0.7558  1.3349
 2063SOL    MW4 8020   3.554   0.466   2.350 -0.4765  0.1235 -0.3434
 2064SOL     OW 8021   3.906   3.184   5.776 -0.2668  0.1407 -0.8460
 2064SOL    HW2 8022   3.962   3.153   5.705 -0.0355 -1.8730  0.1596
 2064SOL    HW3 8023   3.818   3.163   5.747 -0.1880 -0.5005 -0.6235
 2064SOL    MW4 8024   3.902   3.177   5.762  0.1337 -0.2653 -0.0665
 2065SOL     OW 8025   2.241   4.385   0.908  0.3054 -0.0028 -0.3378
 2065SOL    HW2 8026   2.235   4.420   0.819  2.0123 -0.4655 -0.6632
 2065SOL    HW3 8027   2.151   4.387   0.940 -0.7046 -1.6294 -2.7482
 2065SOL    MW4 8028   2.228   4.390   0.900  0.1787  0.0466 -0.0046
 2066SOL     OW 8029   4.735   3.313   2.391 -0.0629  0.2776 -0.0031
 2066SOL    HW2 8030   4.701   3.388   2.441 -1.2152  0.4437 -0.9899
 2066SOL    HW3 8031   4.686   3.315   2.309  0.5449 -1.0354 -0.4214
 2066SOL    MW4 8032   4.724   3.323   2.387  0.7713  0.0872 -0.6231
 2067SOL     OW 8033   1.378   3.998   3.822 -0.3494  0.1251  0.2985
 2067SOL    HW2 8034   1.370   3.969   3.912  1.7258  1.5313  1.0129
 2067SOL    HW3 8035   1.409   4.088   3.828 -0.2355  0.2933 -1.8130
 2067SOL    MW4 8036   1.381   4.006   3.834  0.3611 -0.2613 -0.1704
 2068SOL     OW 8037   0.166   5.682   2.764 -0.2300 -0.2154 -0.3976
 2068SOL    HW2 8038   0.160   5.613   2.829  1.1583  1.5029  1.6808
 2068SOL    HW3 8039   0.184   5.761   2.814 -0.7430  1.5090 -2.7605
 2068SOL    MW4 8040   0.168   5.683   2.779  0.1869  0.0429  0.1925
 2069SOL     OW 8041   1.720   2.086   4.748 -0.3795  0.3300  0.4425
 2069SOL    HW2 8042   1.811   2.108   4.730 -0.2723  1.5200  2.2148
 2069SOL    HW3 8043   1.719   1.991   4.754  0.6640  0.2807  0.0734
 2069SOL    MW4 8044   1.732   2.076   4.746  0.0913 -0.3794  0.4690
 2070SOL     OW 8045   6.189   0.013   5.346 -0.0572  0.1695 -0.4956
 2070SOL    HW2 8046   6.138   0.093   5.332  0.0902  0.3748  0.1322
 2070SOL    HW3 8047   6.156  -0.047   5.279  0.8929  1.2333 -1.9789
 2070SOL    MW4 8048   6.178   0.016   5.335 -0.2179 -0.0619  0.8617
 2071SOL     OW 8049   0.684   3.472   3.886  0.5917  0.3221 -0.1783
 2071SOL    HW2 8050   0.772   3.488   3.920  0.4238  1.3602 -0.2065
 2071SOL    HW3 8051   0.629   3.535   3.932 -0.0999 -0.1451 -0.3570
 2071SOL    MW4 8052   0.689   3.483   3.897  0.8436  0.8448 -0.1242
 2072SOL     OW 8053   3.380   6.112   0.093  0.0700  0.2844 -0.4049
 2072SOL    HW2 8054   3.378   6.135  -0.000  1.6100 -0.5248 -0.6675
 2072SOL    HW3 8055   3.417   6.024   0.095 -0.7551 -0.0539  0.9304
 2072SOL    MW4 8056   3.385   6.104   0.081  0.0500  0.2918  0.1006
 2073SOL     OW 8057   3.928   3.685   4.920  0.8752 -0.1392  0.2504
 2073SOL    HW2 8058   3.928   3.620   4.849  1.7553 -0.7979  0.8383
 2073SOL    HW3 8059   3.982   3.756   4.887  1.2389 -0.4211  0.2267
 2073SOL    MW4 8060   3.935   3.686   4.906  0.4283 -0.2728  0.4160
 2074SOL     OW 8061   1.077   5.889   3.206  0.0898 -0.4135  0.2516
 2074SOL    HW2 8062   1.052   5.867   3.296  0.9075 -0.3267  0.4998
 2074SOL    HW3 8063   1.105   5.980   3.210 -0.4455 -0.2221 -0.2124
 2074SOL    MW4 8064   1.077   5.898   3.219  0.0359 -0.3419 -0.0382
 2075SOL     OW 8065   5.944   5.043   2.051  0.2957  0.0728  0.0788
 2075SOL    HW2 8066   5.849   5.059   2.055  0.4859  1.2427  0.3780
 2075SOL    HW3 8067   5.956   4.988   1.974 -0.5621  0.5089 -0.3857
 2075SOL    MW4 8068   5.933   5.038   2.041 -0.2695 -0.3083 -0.1707
 2076SOL     OW 8069   4.218   2.450   2.995  0.1452 -0.2113 -0.5316
 2076SOL    HW2 8070   4.260   2.390   2.933  1.1119 -0.3131  0.2008
 2076SOL    HW3 8071   4.238   2.414   3.081  0.0074  0.6912 -0.1042
 2076SOL    MW4 8072   4.226   2.437   2.998 -0.0067 -0.3029 -0.6910
 2077SOL     OW 8073   5.616   0.930   5.234 -0.0765  0.0582 -0.4663
 2077SOL    HW2 8074   5.620   1.016   5.192  0.0356  0.0782 -0.4163
 2077SOL    HW3 8075   5.706   0.914   5.264 -0.2119  0.1532 -0.0116
 2077SOL    MW4 8076   5.628   0.939   5.232  0.4057  0.3284 -0.8805
 2078SOL     OW 8077   2.954   3.691   2.786 -0.0601 -0.4348  0.5133
 2078SOL    HW2 8078   2.875   3.725   2.742  0.4407 -1.0457 -0.9319
 2078SOL    HW3 8079   2.970   3.753   2.857  0.2784  1.8402 -1.4238
 2078SOL    MW4 8080   2.945   3.704   2.789 -0.3051  1.0694  0.4163
 2079SOL     OW 8081   4.272   0.007   2.612  0.0240  0.0253  0.2455
 2079SOL    HW2 8082   4.207  -0.005   2.681  0.2986  1.0357  0.6961
 2079SOL    HW3 8083   4.332   0.073   2.646 -0.3473  1.2203 -1.3083
 2079SOL    MW4 8084   4.271   0.014   2.626 -0.7413  0.2492 -0.0195
 2080SOL     OW 8085   1.043   3.008   4.536 -0.0026 -0.1532  0.2476
 2080SOL    HW2 8086   0.981   2.969   4.475 -0.0006  0.8505 -0.4247
 2080SOL    HW3 8087   1.102   2.937   4.560 -1.0005 -0.9579  0.3750
 2080SOL    MW4 8088   1.043   2.994   4.531 -0.0773  0.5227 -0.7928
 2081SOL     OW 8089   5.352   4.403   1.838 -0.2852 -0.1955 -0.3324
 2081SOL    HW2 8090   5.318   4.353   1.913 -0.1505 -1.4478 -1.0724
 2081SOL    HW3 8091   5.326   4.493   1.855 -2.2082 -0.7938  0.1404
 2081SOL    MW4 8092   5.344   4.408   1.850 -0.2314 -0.5312 -0.3440
 2082SOL     OW 8093   6.265   3.720   1.425  0.0730  0.1910  0.0948
 2082SOL    HW2 8094   6.245   3.741   1.516  1.3430  0.2306  0.3755
 2082SOL    HW3 8095   6.327   3.647   1.429  0.3828  0.3916 -0.7291
 2082SOL    MW4 8096   6.270   3.713   1.437 -0.3830  0.0078  0.1004
 2083SOL     OW 8097   2.471   4.181   4.000  0.1382 -0.2889 -0.0965
 2083SOL    HW2 8098   2.521   4.262   4.005 -2.7203  1.5116  1.8603
 2083SOL    HW3 8099   2.467   4.161   3.906  1.1410  1.6446 -0.5924
 2083SOL    MW4 8100   2.477   4.189   3.988 -0.1015  0.2753  0.0249
 2084SOL     OW 8101   3.205   2.733   3.206  0.0001 -0.3995 -0.3024
 2084SOL    HW2 8102   3.243   2.762   3.289  0.7361  1.1377 -1.1399
 2084SOL    HW3 8103   3.273   2.751   3.141 -0.8389 -0.9071 -1.3568
 2084SOL    MW4 8104   3.219   2.739   3.208 -0.4092  0.2203  0.2401
 2085SOL     OW 8105   3.917   5.523   5.702  0.2732 -0.0786 -0.0176
 2085SOL    HW2 8106   4.001   5.565   5.722 -0.4620  2.0703 -1.1079
 2085SOL    HW3 8107   3.938   5.430   5.696  2.1665  0.1402  1.7617
 2085SOL    MW4 8108   3.931   5.517   5.704 -0.3267  0.1011  0.2284
 2086SOL     OW 8109   4.638   0.378   6.224 -0.2781 -0.3767  0.0019
 2086SOL    HW2 8110   4.546   0.355   6.239 -0.2446  0.6407  2.1325
 2086SOL    HW3 8111   4.687   0.309   6.268 -0.0869  0.2077  0.7341
 2086SOL    MW4 8112   4.632   0.366   6.232 -0.2559 -0.0951  0.4413
 2087SOL     OW 8113   5.961   1.595   1.838 -0.3679 -0.3494 -0.2826
 2087SOL    HW2 8114   6.011   1.600   1.919  0.2418 -0.8069 -0.6281
 2087SOL    HW3 8115   5.917   1.680   1.832 -1.0104 -0.5769  0.8964
 2087SOL    MW4 8116   5.962   1.607   1.848 -0.0288  0.1109  0.1670
 2088SOL     OW 8117   1.929   2.461   0.470  0.0551 -0.9059 -0.6617
 2088SOL    HW2 8118   1.969   2.382   0.434 -0.1708 -1.5945  0.5139
 2088SOL    HW3 8119   1.902   2.435   0.558 -0.9493  0.1925 -0.6251
 2088SOL    MW4 8120   1.931   2.447   0.477 -0.7083 -0.5076 -0.8815
 2089SOL     OW 8121   2.778   5.204   5.903 -0.5541 -0.2820 -0.0943
 2089SOL    HW2 8122   2.711   5.229   5.839 -1.2679  0.1116  0.7925
 2089SOL    HW3 8123   2.760   5.259   5.979 -0.8928 -2.0573  1.1573
 2089SOL    MW4 8124   2.767   5.215   5.904  0.4973  0.1689  0.0916
 2090SOL     OW 8125   2.181   3.558   3.932  0.1154 -0.1995  0.3932
 2090SOL    HW2 8126   2.187   3.637   3.987  0.2829  0.2007 -0.1938
 2090SOL    HW3 8127   2.266   3.552   3.889 -0.1541 -0.2806 -0.1341
 2090SOL    MW4 8128   2.193   3.568   3.934  0.6622  0.4481 -0.0220
 2091SOL     OW 8129   1.359   6.343   1.553  0.1577  0.1328 -0.2708
 2091SOL    HW2 8130   1.295   6.412   1.532  1.2682  0.3568 -3.2609
 2091SOL    HW3 8131   1.439   6.370   1.509  0.6934 -2.9822 -1.4117
 2091SOL    MW4 8132   1.361   6.356   1.545  0.0432 -0.2789  0.8514
 2092SOL     OW 8133   3.642   5.726   5.603  0.1134 -0.1039  0.1381
 2092SOL    HW2 8134   3.630   5.643   5.650  0.6320 -0.0813  0.3178
 2092SOL    HW3 8135   3.703   5.776   5.658 -0.6918  0.6547  0.3517
 2092SOL    MW4 8136   3.649   5.721   5.617 -0.3592 -0.6176  0.0057
 2093SOL     OW 8137   1.472   5.734   1.427 -0.2025  0.0072  0.2294
 2093SOL    HW2 8138   1.512   5.648   1.439  0.5862  0.3984  0.4634
 2093SOL    HW3 8139   1.413   5.744   1.502  0.9180  0.3375  1.0817
 2093SOL    MW4 8140   1.469   5.724   1.439 -0.8396  0.8472 -0.6930
 2094SOL     OW 8141   2.313   0.632   1.191 -0.0652 -0.3419 -0.2691
 2094SOL    HW2 8142   2.323   0.716   1.146 -4.8831  1.1719  0.8599
 2094SOL    HW3 8143   2.310   0.655   1.284 -0.3674 -1.8979  0.1287
 2094SOL    MW4 8144   2.314   0.646   1.197  0.1690 -0.1206  0.3047
 2095SOL     OW 8145   3.333   2.827   0.080 -0.1770 -0.1448  0.1879
 2095SOL    HW2 8146   3.340   2.822  -0.016 -1.0714  0.7689  0.0624
 2095SOL    HW3 8147   3.423   2.821   0.111  0.1888  0.3329 -0.7589
 2095SOL    MW4 8148   3.346   2.825   0.071  0.4295  0.2038  0.0552
 2096SOL     OW 8149   4.615   1.888   0.544  0.2233 -0.5386 -0.8978
 2096SOL    HW2 8150   4.672   1.848   0.610  0.9431  0.8159 -0.6492
 2096SOL    HW3 8151   4.673   1.904   0.469 -0.0482 -0.0303 -1.0059
 2096SOL    MW4 8152   4.630   1.885   0.543 -0.5861 -0.5200  0.1560
 2097SOL     OW 8153   1.237   5.181   3.044  0.2450 -0.6816  0.2043
 2097SOL    HW2 8154   1.196   5.107   2.997 -1.0958 -0.6629  1.2777
 2097SOL    HW3 8155   1.325   5.187   3.007  1.2331 -4.2147  1.5198
 2097SOL    MW4 8156   1.243   5.172   3.033 -0.2347  0.1859  0.3590
 2098SOL     OW 8157   0.513   5.352   5.597  0.3917  0.1269  0.0761
 2098SOL    HW2 8158   0.436   5.347   5.654  0.0269  0.9370 -0.3310
 2098SOL    HW3 8159   0.584   5.316   5.649 -0.4487 -1.5819  0.1072
 2098SOL    MW4 8160   0.512   5.347   5.611  0.6122  0.2162  0.0089
 2099SOL     OW 8161   4.777   3.343   3.571  0.0769 -0.2360  0.3901
 2099SOL    HW2 8162   4.746   3.433   3.564  0.5661 -0.1560 -1.0326
 2099SOL    HW3 8163   4.703   3.290   3.541  0.4112 -0.1859 -0.5607
 2099SOL    MW4 8164   4.763   3.348   3.566  0.2804 -0.8623  0.4267
 2100SOL     OW 8165   0.745   3.182   0.971 -0.6736  0.0449 -0.2002
 2100SOL    HW2 8166   0.737   3.096   0.929  2.5499 -0.4660 -0.0740
 2100SOL    HW3 8167   0.830   3.215   0.941  0.6179  0.8369  3.7134
 2100SOL    MW4 8168   0.755   3.175   0.962 -0.2820  0.5364  0.3957
 2101SOL     OW 8169   4.961   2.253   3.527 -0.7640 -0.2750  0.5009
 2101SOL    HW2 8170   4.915   2.290   3.603  0.6495 -1.2906  1.9171
 2101SOL    HW3 8171   4.979   2.162   3.551 -0.0331 -0.5430 -0.9425
 2101SOL    MW4 8172   4.957   2.246   3.540  0.2914 -0.3130  0.2622
 2102SOL     OW 8173   5.620   3.943   0.562 -0.2377  0.4285  0.0625
 2102SOL    HW2 8174   5.702   3.913   0.602 -0.6590 -0.2618  0.4228
 2102SOL    HW3 8175   5.556   3.875   0.584 -1.1221  1.3964  0.5575
 2102SOL    MW4 8176   5.622   3.930   0.570  0.4014  0.4311 -0.6318
 2103SOL     OW 8177   6.256   4.115   0.406 -0.4528  0.1295  0.2722
 2103SOL    HW2 8178   6.270   4.021   0.403 -0.3394  0.1530  0.0694
 2103SOL    HW3 8179   6.341   4.154   0.386 -0.6397  0.2695 -0.2710
 2103SOL    MW4 8180   6.269   4.108   0.403 -0.1362  0.1474  0.2497
 2104SOL     OW 8181   2.596   0.705   2.865  0.5617 -0.5644  0.2477
 2104SOL    HW2 8182   2.537   0.705   2.789  1.0028  0.6508 -0.1050
 2104SOL    HW3 8183   2.543   0.667   2.935 -0.8265  0.9316  0.0628
 2104SOL    MW4 8184   2.581   0.700   2.864  0.1485  0.9629 -0.4280
 2105SOL     OW 8185   4.631   3.757   2.323 -0.5259  0.3693 -0.1627
 2105SOL    HW2 8186   4.711   3.786   2.279 -0.8196  0.6029 -0.5491
 2105SOL    HW3 8187   4.584   3.707   2.256 -0.7670  0.3508  0.0211
 2105SOL    MW4 8188   4.636   3.754   2.308  0.7869 -0.1071  0.2514
 2106SOL     OW 8189   5.383   3.751   3.424  0.0276  0.1079  0.3390
 2106SOL    HW2 8190   5.333   3.675   3.453 -0.9255  0.2316 -0.8926
 2106SOL    HW3 8191   5.467   3.715   3.396 -0.8246 -0.7075 -1.3273
 2106SOL    MW4 8192   5.388   3.736   3.424 -0.5158 -0.1621 -0.1083
 2107SOL     OW 8193   1.530   0.278   1.700  0.1869 -0.0156 -0.2789
 2107SOL    HW2 8194   1.523   0.372   1.685  0.8885  0.0940  0.0807
 2107SOL    HW3 8195   1.601   0.249   1.643  0.5500 -0.1851  0.2590
 2107SOL    MW4 8196   1.538   0.286   1.690 -0.0969 -0.2534 -0.3365
 2108SOL     OW 8197   4.761   2.998   1.946 -0.1185 -0.3721  0.1116
 2108SOL    HW2 8198   4.805   3.014   1.863 -1.8198 -2.5107 -1.3293
 2108SOL    HW3 8199   4.729   2.908   1.939 -2.2473  0.1263  2.1643
 2108SOL    MW4 8200   4.762   2.989   1.935  0.5282  0.0948  0.7148
 2109SOL     OW 8201   2.241   6.037   4.144 -0.1096  0.1234 -0.3648
 2109SOL    HW2 8202   2.269   6.129   4.139 -0.7309  0.5036  1.8672
 2109SOL    HW3 8203   2.147   6.041   4.131 -0.0933 -0.2313 -0.5735
 2109SOL    MW4 8204   2.233   6.050   4.142 -0.1996  0.2279 -0.1398
 2110SOL     OW 8205   4.028   0.302   2.633  0.1381  0.1721 -0.2150
 2110SOL    HW2 8206   3.997   0.216   2.603 -1.0624  1.2849 -2.4936
 2110SOL    HW3 8207   4.102   0.283   2.690  0.7908 -2.3269 -1.7563
 2110SOL    MW4 8208   4.034   0.288   2.636 -0.0080  0.2276  0.0710
 2111SOL     OW 8209   1.455   4.245   1.581 -0.7349 -0.4302  0.1295
 2111SOL    HW2 8210   1.374   4.255   1.531 -0.2071 -0.3712 -0.7262
 2111SOL    HW3 8211   1.435   4.286   1.666 -1.3072  0.4084 -0.3921
 2111SOL    MW4 8212   1.441   4.252   1.586  0.4417  0.1481  0.2933
 2112SOL     OW 8213   4.470   5.037   4.284  0.9015  0.1861  0.0139
 2112SOL    HW2 8214   4.558   5.002   4.273  0.4825 -1.1316  0.6416
 2112SOL    HW3 8215   4.429   4.980   4.350  0.8363  3.0804  2.7237
 2112SOL    MW4 8216   4.476   5.025   4.291 -0.4981  0.2372  0.4764
 2113SOL     OW 8217   3.851   3.879   0.316 -0.8238 -0.1330 -0.0070
 2113SOL    HW2 8218   3.779   3.845   0.370 -2.4140 -0.2640 -2.0769
 2113SOL    HW3 8219   3.849   3.825   0.238  3.4214 -2.0200  0.9262
 2113SOL    MW4 8220   3.841   3.868   0.313  0.2761 -0.4279  0.5934
 2114SOL     OW 8221   4.155   0.910   1.108  0.3795 -0.2041 -0.5791
 2114SOL    HW2 8222   4.144   0.836   1.167  3.5955 -0.6597 -0.3671
 2114SOL    HW3 8223   4.200   0.873   1.031  2.1256  1.4471 -0.4435
 2114SOL    MW4 8224   4.160   0.895   1.105 -0.3247  0.0882 -0.1816
 2115SOL     OW 8225   0.406   2.512   1.969  0.0244 -0.4837  0.2374
 2115SOL    HW2 8226   0.448   2.568   1.904  0.3529 -0.2967  0.6087
 2115SOL    HW3 8227   0.318   2.497   1.934  0.5977 -1.4205 -0.8738
 2115SOL    MW4 8228   0.400   2.517   1.956  0.0317  0.1795 -0.8250
 2116SOL     OW 8229   1.436   3.218   5.046 -0.1928  0.4113 -0.2097
 2116SOL    HW2 8230   1.457   3.166   5.123 -2.9391 -0.5568  0.0104
 2116SOL    HW3 8231   1.480   3.301   5.060  1.4181 -0.6182  1.1548
 2116SOL    MW4 8232   1.445   3.222   5.058  0.0779  0.3808 -0.3365
 2117SOL     OW 8233   0.863   0.685   5.115 -0.1874 -0.3919  0.0813
 2117SOL    HW2 8234   0.848   0.742   5.191 -1.0178  0.5718 -0.7746
 2117SOL    HW3 8235   0.783   0.692   5.063  0.4082 -0.9410 -0.9471
 2117SOL    MW4 8236   0.851   0.693   5.118 -0.5079 -0.5209  0.7427
 2118SOL     OW 8237   1.991   5.663   2.919 -0.2148  0.1694 -0.0184
 2118SOL    HW2 8238   1.937   5.604   2.867 -0.3723 -0.6357  1.0203
 2118SOL    HW3 8239   2.044   5.711   2.855 -1.7576  0.5956 -1.0221
 2118SOL    MW4 8240   1.991   5.661   2.904  0.1118  0.3281 -0.2852
 2119SOL     OW 8241   0.897   3.179   0.524  0.1767  0.3107 -0.2204
 2119SOL    HW2 8242   0.964   3.158   0.589  0.0101 -0.0700 -0.1630
 2119SOL    HW3 8243   0.946   3.194   0.443  0.6681  3.7656  0.5875
 2119SOL    MW4 8244   0.912   3.178   0.522  0.1877  0.2432  0.2640
 2120SOL     OW 8245   5.652   3.106   1.108  0.2247 -0.1416  0.0196
 2120SOL    HW2 8246   5.710   3.040   1.146  0.5012  0.3992  0.5718
 2120SOL    HW3 8247   5.703   3.187   1.113 -0.8139  0.4660  1.1025
 2120SOL    MW4 8248   5.666   3.108   1.114 -0.0358 -0.4868 -0.3126
 2121SOL     OW 8249   6.392   1.315   0.052 -0.9334  0.0250  0.2276
 2121SOL    HW2 8250   6.378   1.315   0.146 -3.7903  0.0322 -0.1216
 2121SOL    HW3 8251   6.386   1.407   0.027  0.0981  0.0551  0.0472
 2121SOL    MW4 8252   6.390   1.327   0.061  0.0193  0.5668 -0.7676
 2122SOL     OW 8253   1.976   4.929   6.127  0.3631  0.1995 -0.2509
 2122SOL    HW2 8254   2.019   5.007   6.092  0.0284  0.3579 -0.3167
 2122SOL    HW3 8255   2.014   4.857   6.078  1.6787  0.1717  0.7481
 2122SOL    MW4 8256   1.986   4.930   6.116  0.0347 -0.2344  0.2185
 2123SOL     OW 8257   2.173   3.284   5.903 -0.0494 -0.0617 -0.0375
 2123SOL    HW2 8258   2.266   3.299   5.919 -0.1911 -0.2016  1.0038
 2123SOL    HW3 8259   2.128   3.345   5.962 -0.6148  0.0396 -0.5667
 2123SOL    MW4 8260   2.179   3.294   5.913  0.0053 -0.3405 -0.0828
 2124SOL     OW 8261   3.087   0.007   0.086  0.1660  0.4337  0.2849
 2124SOL    HW2 8262   3.172   0.008   0.043  0.7503  2.0263  1.3877
 2124SOL    HW3 8263   3.040   0.082   0.049 -0.9665 -0.6856 -0.6406
 2124SOL    MW4 8264   3.092   0.017   0.076 -0.5681  0.0200 -0.3332
 2125SOL     OW 8265   4.431   1.430   4.540 -0.3058  0.0767  0.5672
 2125SOL    HW2 8266   4.388   1.426   4.455  0.7812 -0.1000  0.0049
 2125SOL    HW3 8267   4.377   1.376   4.597  0.1646 -1.6670 -0.5723
 2125SOL    MW4 8268   4.418   1.422   4.536 -0.0485 -0.3649  0.0503
 2126SOL     OW 8269   5.147   0.517   4.148 -0.0218  0.3864 -0.4499
 2126SOL    HW2 8270   5.211   0.446   4.139  1.0558  0.7166  3.0669
 2126SOL    HW3 8271   5.063   0.472   4.160  0.6663 -0.4518  1.8952
 2126SOL    MW4 8272   5.144   0.502   4.149 -0.3966 -0.7746 -0.7509
 2127SOL     OW 8273   0.745   2.072   3.286 -0.1496 -0.3027 -0.7542
 2127SOL    HW2 8274   0.697   1.993   3.309  1.9950 -1.9240 -1.4917
 2127SOL    HW3 8275   0.836   2.052   3.306  0.4976  1.9609 -1.0691
 2127SOL    MW4 8276   0.751   2.059   3.292  0.4775  0.3230  0.3631
 2128SOL     OW 8277   2.551   2.504   5.528  0.0172  0.1164  0.3157
 2128SOL    HW2 8278   2.543   2.440   5.457  1.6494  0.5854 -0.3415
 2128SOL    HW3 8279   2.530   2.455   5.607  0.4615 -1.0353 -0.2567
 2128SOL    MW4 8280   2.547   2.489   5.529 -0.0013  0.1584  0.2088
 2129SOL     OW 8281   2.409   1.229   0.287  0.2700 -0.0738  0.4708
 2129SOL    HW2 8282   2.468   1.218   0.361  1.1529 -1.2787 -0.3702
 2129SOL    HW3 8283   2.426   1.318   0.256  1.3672 -0.2642  0.4915
 2129SOL    MW4 8284   2.419   1.240   0.293 -0.7217  0.4224 -0.2189
 2130SOL     OW 8285   4.244   6.115   5.679  0.3176 -0.6892  0.2034
 2130SOL    HW2 8286   4.249   6.186   5.616 -0.3395  0.8885  1.8353
 2130SOL    HW3 8287   4.244   6.035   5.626  1.7472  0.4637 -1.6675
 2130SOL    MW4 8288   4.245   6.114   5.664 -0.0992  0.1525 -0.1189
 2131SOL     OW 8289   4.011   2.217   4.243 -0.4097 -0.6840  0.0863
 2131SOL    HW2 8290   4.066   2.250   4.172  1.1695 -1.2456  1.0048
 2131SOL    HW3 8291   3.934   2.274   4.242 -0.0079 -0.1298 -1.4920
 2131SOL    MW4 8292   4.008   2.229   4.234  0.1115 -0.5532 -0.2438
 2132SOL     OW 8293   0.357   4.739   5.974 -0.1034 -0.3997  0.2049
 2132SOL    HW2 8294   0.357   4.825   6.017  0.1703 -0.2827 -0.0231
 2132SOL    HW3 8295   0.404   4.683   6.036  0.1310 -0.2740  0.1425
 2132SOL    MW4 8296   0.364   4.743   5.988  0.0179  0.3274 -0.2471
 2133SOL     OW 8297   5.377   2.517   5.279 -0.0931  0.6798  0.9585
 2133SOL    HW2 8298   5.427   2.471   5.211 -1.7527  0.0845  0.0635
 2133SOL    HW3 8299   5.426   2.597   5.295  2.1812 -0.7397  1.5852
 2133SOL    MW4 8300   5.390   2.522   5.272 -0.9752  0.2203 -0.1700
 2134SOL     OW 8301   5.263   2.905   1.600  0.0345  0.0010  0.2734
 2134SOL    HW2 8302   5.349   2.925   1.637  0.5030 -1.8754  0.3043
 2134SOL    HW3 8303   5.282   2.858   1.519 -0.8997 -2.1141  1.2156
 2134SOL    MW4 8304   5.277   2.902   1.594 -0.4709 -0.0246 -0.2926
 2135SOL     OW 8305   1.575   0.507   1.427 -0.2099  0.6663 -0.3178
 2135SOL    HW2 8306   1.631   0.439   1.389 -1.6883 -1.1969  0.6643
 2135SOL    HW3 8307   1.631   0.584   1.433  1.5754 -0.4811 -1.3762
 2135SOL    MW4 8308   1.589   0.508   1.422  0.1987  0.0550 -0.3767
 2136SOL     OW 8309   5.242   3.158   3.561 -0.3764 -0.1884 -0.0469
 2136SOL    HW2 8310   5.168   3.213   3.586 -1.0889 -1.7266  1.4856
 2136SOL    HW3 8311   5.234   3.080   3.617  1.8744 -0.8245 -0.4887
 2136SOL    MW4 8312   5.231   3.155   3.572  0.3428  0.1313 -0.3365
 2137SOL     OW 8313   0.170   4.558   3.047  0.0917 -0.1742 -0.1275
 2137SOL    HW2 8314   0.085   4.525   3.075  0.2443  0.3038  0.9303
 2137SOL    HW3 8315   0.208   4.486   2.997 -0.6856 -0.6012 -0.1241
 2137SOL    MW4 8316   0.164   4.544   3.044  0.7302 -0.6158  0.0390
 2138SOL     OW 8317   3.871   6.301   3.810 -0.1789  0.1462  0.2293
 2138SOL    HW2 8318   3.778   6.323   3.803 -0.3281 -0.1399  1.2128
 2138SOL    HW3 8319   3.872   6.207   3.829  0.4064 -0.4980 -2.5300
 2138SOL    MW4 8320   3.859   6.291   3.812  0.1885 -0.1052 -0.1625
 2139SOL     OW 8321   4.249   3.782   2.744  0.1050  0.9275 -0.1663
 2139SOL    HW2 8322   4.157   3.772   2.770  0.1491 -0.8101 -0.5330
 2139SOL    HW3 8323   4.281   3.692   2.736  1.5353  1.4893 -1.1096
 2139SOL    MW4 8324   4.241   3.769   2.746 -0.3440  0.3002  0.3898
 2140SOL     OW 8325   2.092   2.011   3.354 -0.2070  0.4229 -0.6533
 2140SOL    HW2 8326   2.039   2.067   3.410 -1.0113 -0.3502 -0.6105
 2140SOL    HW3 8327   2.068   1.922   3.380 -0.2999  0.0543 -1.9448
 2140SOL    MW4 8328   2.082   2.007   3.365 -0.1259 -0.7599  0.1390
 2141SOL     OW 8329   6.263   1.412   1.796  0.2456  0.3277 -0.3210
 2141SOL    HW2 8330   6.193   1.381   1.739  0.6244 -1.8230  0.2855
 2141SOL    HW3 8331   6.218   1.468   1.859 -1.0492 -1.2538  0.2510
 2141SOL    MW4 8332   6.248   1.415   1.797  0.0376 -0.3190 -0.1217
 2142SOL     OW 8333   3.737   3.235   4.108 -0.3187 -0.1517 -0.3337
 2142SOL    HW2 8334   3.726   3.276   4.022 -3.8259 -0.0188  0.0403
 2142SOL    HW3 8335   3.654   3.251   4.153  1.6274  0.4007  3.4151
 2142SOL    MW4 8336   3.724   3.243   4.102  0.2417 -0.0544 -0.8236
 2143SOL     OW 8337   3.741   3.707   1.711 -0.0367 -0.3006  0.5448
 2143SOL    HW2 8338   3.830   3.716   1.677 -0.7727  0.4065 -1.3324
 2143SOL    HW3 8339   3.748   3.642   1.781  1.7925 -0.8982 -0.1495
 2143SOL    MW4 8340   3.754   3.700   1.716 -0.3574  0.1730 -0.3048
 2144SOL     OW 8341   3.883   2.652   1.585 -0.2414 -0.4684  0.4728
 2144SOL    HW2 8342   3.955   2.688   1.532 -1.1431  0.7996  0.0599
 2144SOL    HW3 8343   3.867   2.720   1.651 -1.7557 -0.2552 -0.0943
 2144SOL    MW4 8344   3.891   2.666   1.587 -0.0043  0.3267 -0.4627
 2145SOL     OW 8345   4.854   5.233   0.243  0.0539 -0.5948 -0.0118
 2145SOL    HW2 8346   4.770   5.228   0.197 -0.1135 -0.8601  0.3261
 2145SOL    HW3 8347   4.849   5.166   0.310  0.4904 -0.5265  0.0900
 2145SOL    MW4 8348   4.842   5.224   0.246  0.2038 -0.3858  0.9012
 2146SOL     OW 8349   5.725   4.554   1.563 -0.0907 -0.5161  0.2886
 2146SOL    HW2 8350   5.714   4.549   1.468 -0.8213  0.3684  0.3138
 2146SOL    HW3 8351   5.668   4.486   1.598 -1.7041  0.7089  0.1750
 2146SOL    MW4 8352   5.716   4.545   1.555  0.0021 -0.5383 -1.0558
 2147SOL     OW 8353   3.205   1.946   1.133  0.0553 -0.1986  0.2908
 2147SOL    HW2 8354   3.178   1.936   1.042 -0.6354 -0.4232  0.5067
 2147SOL    HW3 8355   3.251   2.030   1.137  0.2694 -0.2889 -0.3003
 2147SOL    MW4 8356   3.207   1.955   1.122  0.3784 -0.1094  0.3720
 2148SOL     OW 8357   3.269   0.995   0.016 -0.0651 -0.2441  0.1906
 2148SOL    HW2 8358   3.261   0.904   0.045 -0.0835  0.0483  1.1170
 2148SOL    HW3 8359   3.191   1.038   0.049  0.4693  0.3558  0.6912
 2148SOL    MW4 8360   3.258   0.988   0.024 -0.3022  0.2063  0.1676
 2149SOL     OW 8361   2.000   6.394   4.571 -0.3940 -0.0165  0.0984
 2149SOL    HW2 8362   2.094   6.380   4.559 -0.5525 -0.2767 -1.0111
 2149SOL    HW3 8363   1.971   6.430   4.487 -1.6455 -1.9387 -0.3535
 2149SOL    MW4 8364   2.009   6.397   4.558 -0.0925 -0.1384  0.3821
 2150SOL     OW 8365   1.236   0.372   1.018 -0.1465  0.2725  0.1291
 2150SOL    HW2 8366   1.213   0.290   0.974  2.0187 -0.3646  0.0594
 2150SOL    HW3 8367   1.276   0.344   1.100 -0.1833  1.3098  0.5128
 2150SOL    MW4 8368   1.238   0.357   1.023  0.3528 -0.4671  0.6423
 2151SOL     OW 8369   1.147   3.338   4.152 -0.5302 -0.1670 -0.8345
 2151SOL    HW2 8370   1.108   3.341   4.065  0.3035 -0.1673 -1.2082
 2151SOL    HW3 8371   1.183   3.426   4.165 -1.7594  0.2532  0.0424
 2151SOL    MW4 8372   1.146   3.350   4.143  0.6535  0.4604 -0.2346
 2152SOL     OW 8373   1.446   1.873   3.016  0.0461  0.0813 -0.0892
 2152SOL    HW2 8374   1.492   1.841   2.939  0.4879 -1.8031  0.8754
 2152SOL    HW3 8375   1.363   1.825   3.016 -0.0561  0.2481  0.4504
 2152SOL    MW4 8376   1.441   1.862   3.006  0.0160  0.2351  0.6359
 2153SOL     OW 8377   1.842   3.421   6.176 -0.5726 -0.1672  0.0947
 2153SOL    HW2 8378   1.758   3.424   6.221 -0.3298  0.1669  0.5433
 2153SOL    HW3 8379   1.878   3.509   6.186 -0.6357  0.0011 -1.0148
 2153SOL    MW4 8380   1.836   3.433   6.183 -0.0608 -0.7197  0.1450
 2154SOL     OW 8381   0.843   4.201   5.797 -0.0364 -0.0972  0.2229
 2154SOL    HW2 8382   0.848   4.291   5.766  1.3093 -0.3375 -0.3561
 2154SOL    HW3 8383   0.934   4.172   5.800 -0.5060 -1.9468 -1.2230
 2154SOL    MW4 8384   0.856   4.209   5.793 -0.4895 -0.4167  0.2477
 2155SOL     OW 8385   3.669   3.820   0.549 -0.1292  0.4393 -0.0684
 2155SOL    HW2 8386   3.612   3.873   0.494  0.6276  0.9566 -0.3653
 2155SOL    HW3 8387   3.640   3.730   0.535 -0.3124  0.6215 -0.8728
 2155SOL    MW4 8388   3.658   3.815   0.540 -0.1755 -0.1112  0.5740
 2156SOL     OW 8389   3.379   0.849   4.150  0.4361 -0.2473 -0.4895
 2156SOL    HW2 8390   3.472   0.867   4.135  0.6660 -1.7330 -1.0102
 2156SOL    HW3 8391   3.377   0.757   4.177 -0.4828  0.7715  3.5186
 2156SOL    MW4 8392   3.391   0.839   4.152 -0.0071  0.1620  0.7866
 2157SOL     OW 8393   3.926   2.544   5.415 -0.4066 -0.5604 -0.1006
 2157SOL    HW2 8394   3.971   2.507   5.339  1.0266  1.0145 -0.0971
 2157SOL    HW3 8395   3.853   2.484   5.432 -0.0176 -1.6377 -1.9248
 2157SOL    MW4 8396   3.922   2.531   5.407  0.2241 -0.5481  0.1294
 2158SOL     OW 8397   2.884   2.223   4.392  0.0611  0.2475  0.9644
 2158SOL    HW2 8398   2.970   2.234   4.435  0.4496  0.5634  0.1225
 2158SOL    HW3 8399   2.884   2.131   4.364 -0.3137 -0.0435  1.8672
 2158SOL    MW4 8400   2.896   2.212   4.394 -0.4318 -0.3939  0.1325
 2159SOL     OW 8401   1.798   2.979   4.107  0.3510 -0.8643  0.1445
 2159SOL    HW2 8402   1.725   3.011   4.055  0.1804  0.0612  0.9293
 2159SOL    HW3 8403   1.842   2.915   4.050 -0.2719 -0.4491 -0.8286
 2159SOL    MW4 8404   1.794   2.975   4.093  0.1812  0.9729 -0.1012
 2160SOL     OW 8405   2.721   0.258   6.260  0.0831 -0.8958 -0.2156
 2160SOL    HW2 8406   2.657   0.194   6.290  0.0687 -0.0650  1.6471
 2160SOL    HW3 8407   2.673   0.341   6.258  0.1182 -0.8670 -2.5250
 2160SOL    MW4 8408   2.707   0.261   6.264  0.4430 -0.4446  0.7344
 2161SOL     OW 8409   2.278   2.233   2.489  0.2920 -0.1010 -0.1904
 2161SOL    HW2 8410   2.226   2.164   2.447 -0.2073  1.0798 -1.5831
 2161SOL    HW3 8411   2.276   2.211   2.582 -0.4324 -1.5662 -0.5195
 2161SOL    MW4 8412   2.271   2.221   2.496  0.9156 -0.4152 -0.3721
 2162SOL     OW 8413   5.195   5.506   5.215  0.0047  0.3170 -0.4532
 2162SOL    HW2 8414   5.131   5.474   5.152  0.2848 -2.5071  0.5465
 2162SOL    HW3 8415   5.154   5.583   5.255 -1.2290  0.6366 -2.2150
 2162SOL    MW4 8416   5.181   5.512   5.212  0.2720 -0.2245 -0.6825
 2163SOL     OW 8417   2.416   2.115   4.100  0.2171  0.5137  0.0612
 2163SOL    HW2 8418   2.484   2.063   4.143 -1.3863  0.9472  3.4612
 2163SOL    HW3 8419   2.351   2.051   4.071  1.0544  0.2578 -1.3288
 2163SOL    MW4 8420   2.416   2.100   4.102 -0.0961 -0.0881 -0.1797
 2164SOL     OW 8421   2.904   0.725   2.333 -0.0612 -0.2035  0.4188
 2164SOL    HW2 8422   2.837   0.675   2.379 -0.0744 -1.8215 -1.2517
 2164SOL    HW3 8423   2.979   0.725   2.393 -0.5627 -0.9394  1.0665
 2164SOL    MW4 8424   2.905   0.718   2.347  0.1586 -0.1173  0.2605
 2165SOL     OW 8425   5.507   5.552   0.601 -0.2215 -0.3393  0.2407
 2165SOL    HW2 8426   5.464   5.492   0.663 -1.9553  0.0950 -0.4772
 2165SOL    HW3 8427   5.442   5.566   0.533  1.4960 -0.5034 -1.5111
 2165SOL    MW4 8428   5.492   5.546   0.600 -0.0230 -0.1403 -0.3550
 2166SOL     OW 8429   2.078   1.713   1.397 -0.1447 -0.2793  0.5182
 2166SOL    HW2 8430   2.034   1.685   1.477  0.7794 -0.7620  0.8768
 2166SOL    HW3 8431   2.170   1.720   1.421  0.0716  0.0911 -0.3668
 2166SOL    MW4 8432   2.084   1.710   1.411  0.0421 -0.3601 -0.1603
 2167SOL     OW 8433   2.445   1.492   0.170  0.0277 -0.0966  0.4335
 2167SOL    HW2 8434   2.493   1.548   0.232  3.1357 -1.0955 -0.8437
 2167SOL    HW3 8435   2.508   1.475   0.100 -2.4218 -1.2577 -1.6555
 2167SOL    MW4 8436   2.460   1.497   0.169 -0.0642  0.4869  0.1588
 2168SOL     OW 8437   4.510   2.956   2.510 -0.0122 -0.5179  0.1098
 2168SOL    HW2 8438   4.463   3.039   2.516  0.7660 -0.1856  2.4080
 2168SOL    HW3 8439   4.451   2.899   2.460 -0.6572  1.3147 -1.3312
 2168SOL    MW4 8440   4.496   2.959   2.504  0.6557 -0.1548  0.3352
 2169SOL     OW 8441   4.792   4.913   6.236  0.4070  0.4732 -0.5321
 2169SOL    HW2 8442   4.705   4.875   6.245 -0.3566  2.0979 -0.7196
 2169SOL    HW3 8443   4.836   4.895   6.319 -0.6557  0.9183  0.1392
 2169SOL    MW4 8444   4.787   4.906   6.248  0.2218  0.7397  0.4917
 2170SOL     OW 8445   4.260   3.726   3.345 -0.5464  0.6442  0.2630
 2170SOL    HW2 8446   4.342   3.771   3.365 -1.9261  3.9825 -0.9118
 2170SOL    HW3 8447   4.256   3.723   3.249 -0.5936 -2.0800  0.2628
 2170SOL    MW4 8448   4.270   3.732   3.335  0.3326  0.9346 -0.6023
 2171SOL     OW 8449   5.968   0.890   4.170 -0.1695 -0.0855 -0.3309
 2171SOL    HW2 8450   5.944   0.914   4.260 -1.5125  0.0658 -0.7119
 2171SOL    HW3 8451   6.036   0.824   4.181  1.4225  1.6469  0.7756
 2171SOL    MW4 8452   5.974   0.885   4.184  0.1488  0.0009 -0.2012
 2172SOL     OW 8453   3.683   1.354   0.165 -0.0946  0.4127 -0.4333
 2172SOL    HW2 8454   3.683   1.281   0.227 -0.2356  0.3455 -0.5118
 2172SOL    HW3 8455   3.605   1.404   0.188 -0.3808  0.1531 -0.8338
 2172SOL    MW4 8456   3.673   1.351   0.177  0.4751  0.2574  0.3925
 2173SOL     OW 8457   5.998   5.415   3.410  0.6447  0.2246 -0.0297
 2173SOL    HW2 8458   6.037   5.332   3.439  1.5831  0.1984 -1.2708
 2173SOL    HW3 8459   5.949   5.446   3.486  1.1175 -0.9601  0.7987
 2173SOL    MW4 8460   5.997   5.408   3.424  0.0286 -0.0135 -0.4094
 2174SOL     OW 8461   3.807   3.236   1.986  0.2679  0.3984  0.2380
 2174SOL    HW2 8462   3.799   3.214   1.894  1.3254  0.2767  0.1666
 2174SOL    HW3 8463   3.717   3.253   2.015 -0.1177 -0.0303 -0.6896
 2174SOL    MW4 8464   3.794   3.235   1.978 -0.1875 -0.1625  0.2049
 2175SOL     OW 8465   2.536   1.844   6.144 -0.0779 -0.3209 -0.6388
 2175SOL    HW2 8466   2.484   1.800   6.077 -0.2209 -0.3918 -0.4811
 2175SOL    HW3 8467   2.626   1.820   6.123 -0.2041 -1.2996 -0.1236
 2175SOL    MW4 8468   2.541   1.835   6.132 -0.1137  0.2222  0.3227
 2176SOL     OW 8469   1.488   2.379   1.099  0.2817  0.3754 -0.7015
 2176SOL    HW2 8470   1.514   2.355   1.188  0.8378  0.5606 -0.8099
 2176SOL    HW3 8471   1.526   2.466   1.086  0.2486  0.3255 -1.1428
 2176SOL    MW4 8472   1.496   2.387   1.109 -0.0067 -0.5013 -0.1338
 2177SOL     OW 8473   2.307   2.801   1.991  0.0154  0.3258 -0.4796
 2177SOL    HW2 8474   2.248   2.831   2.061  1.3433  0.1653  0.7517
 2177SOL    HW3 8475   2.380   2.863   1.994  1.5964 -1.4978  0.4154
 2177SOL    MW4 8476   2.309   2.813   2.000 -0.3973 -0.3435 -0.7506
 2178SOL     OW 8477   3.433   3.629   3.253  0.2980 -0.2389 -0.0465
 2178SOL    HW2 8478   3.483   3.694   3.303 -1.5635  0.2074  1.3284
 2178SOL    HW3 8479   3.386   3.681   3.187 -0.2546 -0.3431  0.2644
 2178SOL    MW4 8480   3.434   3.645   3.251  0.5885  0.0204  0.4761
 2179SOL     OW 8481   0.654   0.338   0.410  0.1005 -0.3852 -0.0789
 2179SOL    HW2 8482   0.590   0.270   0.392  0.0660 -0.9555  1.9820
 2179SOL    HW3 8483   0.662   0.386   0.327 -0.3198 -2.4929 -1.4176
 2179SOL    MW4 8484   0.647   0.335   0.396 -0.1910  0.3342  0.5839
 2180SOL     OW 8485   1.976   4.584   1.801 -0.4913 -0.0381 -0.2787
 2180SOL    HW2 8486   2.023   4.653   1.848  0.0685 -2.0797  2.3479
 2180SOL    HW3 8487   2.044   4.524   1.772 -1.1538 -0.8879 -0.1180
 2180SOL    MW4 8488   1.991   4.585   1.803  0.4707 -0.1799  0.1965
 2181SOL     OW 8489   4.959   5.458   1.780  0.4209 -0.3865  0.0457
 2181SOL    HW2 8490   4.905   5.530   1.813  0.9710 -0.3049  0.7981
 2181SOL    HW3 8491   4.988   5.488   1.694  1.0097  0.4943  0.5331
 2181SOL    MW4 8492   4.956   5.471   1.773  0.1845 -0.4850  0.1490
 2182SOL     OW 8493   0.699   5.236   0.472 -0.2549 -0.0429 -0.7885
 2182SOL    HW2 8494   0.673   5.159   0.523  1.9341 -0.7530 -0.6399
 2182SOL    HW3 8495   0.719   5.202   0.385  2.0597  0.0299 -0.3645
 2182SOL    MW4 8496   0.699   5.221   0.467  0.5481 -0.5885 -0.2549
 2183SOL     OW 8497   6.417   2.460   5.302 -0.2625  0.1329  0.3525
 2183SOL    HW2 8498   6.422   2.524   5.373  0.0819  0.2984  0.1777
 2183SOL    HW3 8499   6.328   2.469   5.268 -0.0454  0.8907 -0.0182
 2183SOL    MW4 8500   6.406   2.469   5.307 -0.3465  0.1454  0.0279
 2184SOL     OW 8501   2.122   4.728   6.020 -0.4294 -0.1972 -0.1265
 2184SOL    HW2 8502   2.173   4.707   5.942  0.0625  0.2384  0.0732
 2184SOL    HW3 8503   2.106   4.643   6.061 -0.5594 -0.4135 -0.6173
 2184SOL    MW4 8504   2.127   4.714   6.015  0.1403 -0.4966  0.8226
 2185SOL     OW 8505   5.010   4.777   1.721  0.1072  0.5273 -0.2437
 2185SOL    HW2 8506   4.977   4.727   1.646  0.7107 -1.7573  0.8904
 2185SOL    HW3 8507   4.943   4.766   1.789  1.4340 -1.1627  0.9062
 2185SOL    MW4 8508   4.997   4.769   1.720 -0.3340  0.2723 -0.7388
 2186SOL     OW 8509   2.897   2.390   6.232 -0.3607  0.5762  0.1581
 2186SOL    HW2 8510   2.835   2.333   6.187 -1.5866 -1.4465  3.9139
 2186SOL    HW3 8511   2.978   2.382   6.182 -1.4911 -1.6590 -1.5064
 2186SOL    MW4 8512   2.900   2.381   6.219  0.2192  0.4491 -0.5622
 2187SOL     OW 8513   1.980   4.125   1.296 -0.0437  0.3968 -0.0127
 2187SOL    HW2 8514   1.942   4.213   1.301  0.6044  0.6673  0.2324
 2187SOL    HW3 8515   1.974   4.092   1.385 -0.8879 -0.0736 -0.2325
 2187SOL    MW4 8516   1.974   4.132   1.309  0.0322  0.8474 -0.3678
 2188SOL     OW 8517   3.352   1.033   3.645 -0.2399 -0.0388  0.5416
 2188SOL    HW2 8518   3.276   1.075   3.685 -0.8510 -0.5005 -0.0945
 2188SOL    HW3 8519   3.380   1.094   3.577  0.1508  0.2660  0.9684
 2188SOL    MW4 8520   3.345   1.046   3.641  0.3283  0.4936 -0.4127
 2189SOL     OW 8521   3.055   3.567   5.138 -0.6121  0.2867 -0.2439
 2189SOL    HW2 8522   3.054   3.633   5.207  0.6355  0.5941 -0.4970
 2189SOL    HW3 8523   3.137   3.519   5.152 -0.8992 -0.3882 -0.8251
 2189SOL    MW4 8524   3.066   3.569   5.149  0.3357 -0.7074  0.0095
 2190SOL     OW 8525   6.410   4.010   5.928 -0.2581 -0.4615 -0.0488
 2190SOL    HW2 8526   6.482   3.950   5.947 -1.3372 -2.4066 -1.6708
 2190SOL    HW3 8527   6.337   3.978   5.981 -0.3900  0.5213  0.3852
 2190SOL    MW4 8528   6.409   3.998   5.937  0.7289  0.9525  0.1248
 2191SOL     OW 8529   1.265   5.071   3.477  0.2146 -0.3489 -0.7144
 2191SOL    HW2 8530   1.328   5.008   3.442  0.5305  0.1110 -0.9858
 2191SOL    HW3 8531   1.262   5.141   3.411  0.6297  0.4089  0.0608
 2191SOL    MW4 8532   1.273   5.072   3.463 -0.8187 -0.1159 -0.3545
 2192SOL     OW 8533   0.126   2.280   2.342 -0.2364 -0.1524  0.2614
 2192SOL    HW2 8534   0.094   2.199   2.380  0.4173 -0.3518  0.3931
 2192SOL    HW3 8535   0.221   2.273   2.345 -0.1553  0.9170  0.9289
 2192SOL    MW4 8536   0.134   2.269   2.347  0.1920 -0.3635 -0.2107
 2193SOL     OW 8537   1.970   4.388   0.969  0.0375 -0.5100 -0.0921
 2193SOL    HW2 8538   1.925   4.440   1.036 -0.9561 -0.0942 -1.0634
 2193SOL    HW3 8539   1.946   4.428   0.886  0.4139 -1.6497 -0.7787
 2193SOL    MW4 8540   1.961   4.400   0.967 -0.8279 -0.0998  0.3111
 2194SOL     OW 8541   1.766   3.894   4.303  0.1335 -0.2159 -0.1375
 2194SOL    HW2 8542   1.679   3.859   4.284 -0.3985  0.7522  0.4741
 2194SOL    HW3 8543   1.757   3.988   4.294  1.1222 -0.1046 -0.0466
 2194SOL    MW4 8544   1.753   3.902   4.299  0.0338 -0.6261 -0.4272
 2195SOL     OW 8545   0.844   4.542   3.605  0.3230  0.0753 -0.2866
 2195SOL    HW2 8546   0.814   4.515   3.519  0.0189 -0.6226  0.0225
 2195SOL    HW3 8547   0.913   4.606   3.588  0.2827 -0.0727 -1.0452
 2195SOL    MW4 8548   0.849   4.547   3.592 -0.7185 -0.0372 -0.1513
 2196SOL     OW 8549   4.822   5.188   4.137  0.3716 -0.6238 -0.0268
 2196SOL    HW2 8550   4.878   5.122   4.096 -0.0513 -0.8657 -0.2202
 2196SOL    HW3 8551   4.741   5.185   4.086  0.6357  0.5987 -0.5436
 2196SOL    MW4 8552   4.819   5.179   4.125  0.7832  0.0557  0.0152
 2197SOL     OW 8553   0.729   1.952   4.484 -0.4495 -0.1434 -0.4733
 2197SOL    HW2 8554   0.647   1.918   4.447 -2.1645  2.2124  0.8725
 2197SOL    HW3 8555   0.736   2.041   4.448  1.8938 -0.4806 -1.0139
 2197SOL    MW4 8556   0.719   1.960   4.474  0.0667 -0.7941  0.1198
 2198SOL     OW 8557   3.408   4.742   0.078 -0.3295 -0.0050  0.6759
 2198SOL    HW2 8558   3.358   4.803   0.132  0.4839  0.2228  1.1857
 2198SOL    HW3 8559   3.382   4.763  -0.012 -0.6898  0.5200  0.8967
 2198SOL    MW4 8560   3.398   4.753   0.074 -0.0899  0.5323 -0.3597
 2199SOL     OW 8561   1.757   0.050   2.160 -0.3265 -0.5042  0.3626
 2199SOL    HW2 8562   1.688   0.015   2.217  1.8319 -1.2398  2.7038
 2199SOL    HW3 8563   1.750   0.145   2.171 -0.7116 -0.5911  0.9446
 2199SOL    MW4 8564   1.747   0.058   2.169  0.1519 -0.2982 -0.1118
 2200SOL     OW 8565   2.941   0.968   5.518  0.2456 -0.5150  0.1051
 2200SOL    HW2 8566   2.906   1.039   5.464 -0.6856 -0.0980  1.2140
 2200SOL    HW3 8567   3.019   1.005   5.559  0.2395 -0.4036  0.0152
 2200SOL    MW4 8568   2.947   0.982   5.517 -0.3434 -0.8407  0.3505
 2201SOL     OW 8569   4.160   0.527   1.556 -0.2139  0.0612  0.1974
 2201SOL    HW2 8570   4.161   0.621   1.575 -1.3264  0.8676 -3.1113
 2201SOL    HW3 8571   4.226   0.490   1.615 -0.0123  2.8098  1.8719
 2201SOL    MW4 8572   4.169   0.534   1.566 -0.0217 -0.4467  0.1101
 2202SOL     OW 8573   5.199   2.822   4.638  0.0219  0.0060  0.2894
 2202SOL    HW2 8574   5.114   2.851   4.674  1.4591  0.0953  4.1067
 2202SOL    HW3 8575   5.261   2.888   4.670  1.9400 -1.7244  0.2662
 2202SOL    MW4 8576   5.196   2.835   4.647  0.0580 -0.5607 -0.6758
 2203SOL     OW 8577   3.383   4.073   0.005  0.3144  0.0942 -0.4739
 2203SOL    HW2 8578   3.315   4.033   0.060 -1.4872  1.7754 -1.3627
 2203SOL    HW3 8579   3.386   4.018  -0.073  0.5419 -0.4187 -0.1125
 2203SOL    MW4 8580   3.374   4.061   0.002 -0.1799 -0.1854  0.3294
 2204SOL     OW 8581   1.434   1.310   6.029 -0.1128  0.2226  0.2553
 2204SOL    HW2 8582   1.341   1.326   6.012  0.0172  0.2549 -0.4493
 2204SOL    HW3 8583   1.444   1.324   6.123 -1.0809 -1.0352  0.5844
 2204SOL    MW4 8584   1.423   1.314   6.039  1.0141  0.2503 -0.2137
 2205SOL     OW 8585   3.943   5.619   0.878  0.7579 -0.3496  0.4126
 2205SOL    HW2 8586   3.923   5.530   0.906  3.4011 -0.6775  1.6065
 2205SOL    HW3 8587   3.927   5.619   0.783  0.1520 -1.9119  0.4876
 2205SOL    MW4 8588   3.938   5.607   0.869 -0.3019 -0.3341 -0.4280
 2206SOL     OW 8589   0.952   5.394   5.480 -0.4037 -0.1419 -0.1621
 2206SOL    HW2 8590   0.981   5.307   5.508  0.1085  0.2955  0.6937
 2206SOL    HW3 8591   1.012   5.454   5.523 -0.1266  0.6048 -1.5365
 2206SOL    MW4 8592   0.964   5.390   5.489  0.7418  0.3243 -0.6840
 2207SOL     OW 8593   1.126   0.126   2.282  0.2048 -0.7985  0.2192
 2207SOL    HW2 8594   1.205   0.143   2.231  1.9290 -1.1946  2.5776
 2207SOL    HW3 8595   1.098   0.039   2.252 -0.0046 -0.2108 -1.3935
 2207SOL    MW4 8596   1.133   0.116   2.271 -0.0864 -0.0860  0.1857
 2208SOL     OW 8597   0.228   4.694   1.191  0.4230 -0.6064  0.6817
 2208SOL    HW2 8598   0.201   4.759   1.127  1.7395 -1.7623 -1.1386
 2208SOL    HW3 8599   0.152   4.636   1.200  0.7537 -1.4402 -1.2461
 2208SOL    MW4 8600   0.215   4.695   1.184  0.2838 -0.2601 -0.4478
 2209SOL     OW 8601   4.677   1.274   5.253 -0.2291  0.0901 -0.9394
 2209SOL    HW2 8602   4.642   1.292   5.340 -0.3586  0.3051 -1.0377
 2209SOL    HW3 8603   4.757   1.325   5.248  0.1299 -0.4370 -0.6973
 2209SOL    MW4 8604   4.683   1.283   5.264 -1.3251 -0.7685  0.7011
 2210SOL     OW 8605   6.376   1.573   1.047  0.1371 -0.1105  0.2471
 2210SOL    HW2 8606   6.285   1.565   1.076 -0.0449  0.8103 -0.0112
 2210SOL    HW3 8607   6.370   1.612   0.960  0.7883  0.4922  0.4604
 2210SOL    MW4 8608   6.363   1.577   1.039  0.0133  0.0889 -0.3935
 2211SOL     OW 8609   5.589   6.025   1.911  0.5450 -0.3289 -0.2119
 2211SOL    HW2 8610   5.555   6.107   1.875 -0.8040 -1.1893 -0.9572
 2211SOL    HW3 8611   5.579   6.035   2.006 -0.0301  0.1977 -0.3179
 2211SOL    MW4 8612   5.583   6.037   1.919  0.3699 -0.0066 -0.4959
 2212SOL     OW 8613   4.859   0.413   0.346  0.0166  0.2273  0.2328
 2212SOL    HW2 8614   4.818   0.489   0.387 -0.5453  0.5849 -0.9480
 2212SOL    HW3 8615   4.799   0.389   0.275  1.4841  0.3313 -1.1098
 2212SOL    MW4 8616   4.846   0.420   0.342 -0.5002 -0.5038 -0.3057
 2213SOL     OW 8617   5.331   1.209   1.783 -0.1863 -0.4242 -0.2811
 2213SOL    HW2 8618   5.376   1.132   1.749  1.2568  0.3185 -0.1620
 2213SOL    HW3 8619   5.395   1.249   1.842 -1.2563  0.3532  0.3861
 2213SOL    MW4 8620   5.346   1.204   1.787  0.4497  0.0562  0.2315
 2214SOL     OW 8621   6.199   3.391  -0.011 -0.4300  0.0807  0.3960
 2214SOL    HW2 8622   6.200   3.400   0.084  0.2283 -0.8627  0.4855
 2214SOL    HW3 8623   6.114   3.351  -0.031  0.8166 -3.0904  0.9457
 2214SOL    MW4 8624   6.188   3.387  -0.001 -0.2374 -0.3696 -0.0029
 2215SOL     OW 8625   2.062   5.933   6.301  0.1051 -0.6822  0.3642
 2215SOL    HW2 8626   2.113   5.967   6.227 -0.7160 -2.1293 -0.9152
 2215SOL    HW3 8627   2.102   5.848   6.320  0.0104 -0.5235  1.2931
 2215SOL    MW4 8628   2.074   5.926   6.293 -0.5485 -0.1194  0.5814
 2216SOL     OW 8629   0.670   0.519   1.966  0.3888 -0.2489 -0.4754
 2216SOL    HW2 8630   0.681   0.428   1.938 -0.4663 -0.9670  1.3967
 2216SOL    HW3 8631   0.581   0.543   1.940 -1.0585 -1.4759  2.7931
 2216SOL    MW4 8632   0.660   0.510   1.959 -0.2279 -0.1476  0.4274
 2217SOL     OW 8633   0.641   4.517   2.527  0.0750 -0.1041  0.8674
 2217SOL    HW2 8634   0.677   4.499   2.440  0.2559  1.0889  0.6767
 2217SOL    HW3 8635   0.717   4.516   2.585 -0.0658 -1.0590  1.0572
 2217SOL    MW4 8636   0.656   4.515   2.524  0.3836 -0.0649 -0.3282
 2218SOL     OW 8637   2.670   5.478   2.206  0.1761 -0.8551  0.1234
 2218SOL    HW2 8638   2.638   5.563   2.177  2.0331 -0.6621 -1.5233
 2218SOL    HW3 8639   2.602   5.416   2.179 -0.0576 -0.1740 -0.8988
 2218SOL    MW4 8640   2.657   5.481   2.199 -0.4702  0.2815 -0.6430
 2219SOL     OW 8641   0.503   6.363   3.259  0.1202 -0.4217 -0.1545
 2219SOL    HW2 8642   0.465   6.345   3.173 -1.3218  1.2283  0.0723
 2219SOL    HW3 8643   0.433   6.342   3.321  0.2461  0.7745  0.4298
 2219SOL    MW4 8644   0.489   6.358   3.256  0.6017  0.5453  0.2112
 2220SOL     OW 8645   0.338   4.080   0.241  0.4392  0.2211 -0.0179
 2220SOL    HW2 8646   0.332   3.996   0.287  0.0837 -0.9128 -1.9949
 2220SOL    HW3 8647   0.423   4.078   0.198  0.4887  0.9445  0.0357
 2220SOL    MW4 8648   0.348   4.068   0.241 -0.0262 -0.4121  0.0835
 2221SOL     OW 8649   1.997   1.205   5.055  0.0583  0.0209  0.0761
 2221SOL    HW2 8650   2.031   1.219   5.144  1.2049  0.6035 -0.4319
 2221SOL    HW3 8651   2.003   1.291   5.013 -0.7825 -0.1739 -0.4820
 2221SOL    MW4 8652   2.002   1.218   5.061 -0.6345  0.0979 -0.0658
 2222SOL     OW 8653   0.047   1.090   3.910 -0.2875  0.2506  0.1584
 2222SOL    HW2 8654   0.066   0.997   3.928  0.7262  0.0149 -1.8092
 2222SOL    HW3 8655   0.074   1.135   3.989 -0.6019 -1.1091  1.0868
 2222SOL    MW4 8656   0.053   1.083   3.923  0.1102 -0.2338  0.0776
 2223SOL     OW 8657   2.894   1.775   4.599  0.3313 -0.1209 -0.1331
 2223SOL    HW2 8658   2.963   1.736   4.546  0.4940 -0.0542  0.0285
 2223SOL    HW3 8659   2.894   1.724   4.680  1.4595  1.0362  0.6518
 2223SOL    MW4 8660   2.903   1.763   4.603 -0.2580  0.0587 -0.5829
 2224SOL     OW 8661   1.692   3.272   0.432 -0.4792  0.1631 -0.0507
 2224SOL    HW2 8662   1.752   3.198   0.440 -0.0921  0.4470 -0.3140
 2224SOL    HW3 8663   1.747   3.344   0.401 -0.6414  0.8516  1.2440
 2224SOL    MW4 8664   1.707   3.272   0.429  0.3703 -0.4374  0.1805
 2225SOL     OW 8665   3.182   0.907   3.950 -0.0115 -0.2173 -0.4775
 2225SOL    HW2 8666   3.246   0.880   4.016 -0.6371 -0.5421  0.0008
 2225SOL    HW3 8667   3.170   0.828   3.896  0.9396  0.2148 -1.3591
 2225SOL    MW4 8668   3.189   0.893   3.951 -0.5024 -0.0334  0.6264
 2226SOL     OW 8669   3.385   4.743   2.590 -0.5979 -0.1390  0.0144
 2226SOL    HW2 8670   3.395   4.825   2.638 -1.9355  0.0155  0.0486
 2226SOL    HW3 8671   3.370   4.677   2.658  2.0079 -0.7281  0.1189
 2226SOL    MW4 8672   3.385   4.745   2.605 -0.2674  0.3102  0.0889
 2227SOL     OW 8673   6.128   5.118   0.034 -0.4510 -0.0163 -0.3231
 2227SOL    HW2 8674   6.101   5.183   0.099  0.5060  0.0381  0.0236
 2227SOL    HW3 8675   6.163   5.170  -0.038 -0.3796 -0.1218 -0.3641
 2227SOL    MW4 8676   6.129   5.133   0.033 -0.1634 -0.0890  0.0304
 2228SOL     OW 8677   6.349   0.655   1.472  0.5246  0.2644 -0.2738
 2228SOL    HW2 8678   6.374   0.694   1.388  0.7798  0.1532 -0.2509
 2228SOL    HW3 8679   6.255   0.637   1.463  0.5475  0.2665 -0.5298
 2228SOL    MW4 8680   6.340   0.657   1.459 -0.1842 -0.3297  0.8053
 2229SOL     OW 8681   0.047   0.470   5.304  0.0997 -0.5315 -0.3595
 2229SOL    HW2 8682   0.121   0.487   5.363 -0.5849  0.9517  0.1234
 2229SOL    HW3 8683  -0.005   0.404   5.349 -0.7294  1.0047  1.0480
 2229SOL    MW4 8684   0.050   0.464   5.318 -0.8395  0.9945 -0.1908
 2230SOL     OW 8685   4.716   3.005   4.834  1.0721 -0.3764 -0.2653
 2230SOL    HW2 8686   4.643   2.973   4.780  0.1543  0.5319  0.3948
 2230SOL    HW3 8687   4.741   3.087   4.792  1.2812 -0.3624 -0.1096
 2230SOL    MW4 8688   4.710   3.011   4.821  0.1919 -0.2061  0.0999
 2231SOL     OW 8689   5.482   3.464   3.610  0.7054  0.1546 -0.4759
 2231SOL    HW2 8690   5.488   3.370   3.596 -1.0145  0.1669 -1.5096
 2231SOL    HW3 8691   5.393   3.487   3.585  1.0243  2.0367 -0.0585
 2231SOL    MW4 8692   5.471   3.455   3.605 -0.7292  0.5093  0.6562
 2232SOL     OW 8693   4.974   4.009   1.155 -0.4120  0.2081  0.2929
 2232SOL    HW2 8694   4.996   4.101   1.166  0.5964 -0.0793  0.8318
 2232SOL    HW3 8695   5.046   3.973   1.102  0.7562 -0.8467  2.4580
 2232SOL    MW4 8696   4.986   4.016   1.149  0.1318  0.4937 -0.2455
 2233SOL     OW 8697   5.349   6.201   4.237  0.4616  0.5938  0.5444
 2233SOL    HW2 8698   5.333   6.147   4.159  3.0395 -0.9121  0.9455
 2233SOL    HW3 8699   5.262   6.234   4.261 -0.4928  1.0379 -2.8373
 2233SOL    MW4 8700   5.335   6.199   4.230 -0.9422  0.4152  0.2142
 2234SOL     OW 8701   2.074   2.979   5.560  0.4736  0.3284 -0.4668
 2234SOL    HW2 8702   2.077   3.044   5.490 -0.1758 -0.5817 -1.3692
 2234SOL    HW3 8703   2.044   2.899   5.517  0.0625 -0.2525  0.8562
 2234SOL    MW4 8704   2.070   2.977   5.545 -0.7844 -0.2953 -0.6504
 2235SOL     OW 8705   0.483   0.493   4.429  0.0965  0.0170 -0.0329
 2235SOL    HW2 8706   0.504   0.543   4.350 -0.5330 -0.7794 -0.7233
 2235SOL    HW3 8707   0.539   0.415   4.423  1.3665  0.7614  1.2312
 2235SOL    MW4 8708   0.493   0.489   4.418 -0.3959  0.4591 -0.2189
 2236SOL     OW 8709   0.916   5.372   0.597  0.2417 -0.2266 -0.3809
 2236SOL    HW2 8710   0.848   5.313   0.566 -0.3321 -0.3254  1.0097
 2236SOL    HW3 8711   0.948   5.332   0.678  2.4321 -0.5366 -1.3151
 2236SOL    MW4 8712   0.911   5.359   0.603  0.3226  0.3204 -0.0948
 2237SOL     OW 8713   3.145   2.538   5.661 -0.2171 -0.2507 -0.7186
 2237SOL    HW2 8714   3.118   2.520   5.571  0.3185 -0.4757 -0.8346
 2237SOL    HW3 8715   3.224   2.486   5.674 -0.7906 -0.9448  0.1809
 2237SOL    MW4 8716   3.152   2.529   5.651 -0.5953  0.7496  0.3245
 2238SOL     OW 8717   3.455   4.659   3.446 -0.3362  0.1698  0.5004
 2238SOL    HW2 8718   3.425   4.744   3.414 -0.5003  0.2339  0.8258
 2238SOL    HW3 8719   3.549   4.659   3.430  0.1203  1.4249  2.7825
 2238SOL    MW4 8720   3.463   4.670   3.440 -0.4880 -0.6936  0.4048
 2239SOL     OW 8721   2.397   1.260   3.147 -0.3628  0.2354 -0.0056
 2239SOL    HW2 8722   2.488   1.261   3.116 -0.0810 -0.8954  0.7132
 2239SOL    HW3 8723   2.396   1.321   3.221 -0.3728  0.7947 -0.4574
 2239SOL    MW4 8724   2.409   1.268   3.153  0.4496 -0.1835  0.5985
 2240SOL     OW 8725   3.846   4.608   5.060 -0.0892  0.4798 -0.0193
 2240SOL    HW2 8726   3.930   4.654   5.060  0.3414 -0.0399  3.1302
 2240SOL    HW3 8727   3.837   4.573   4.972  3.0872  0.4434 -0.4351
 2240SOL    MW4 8728   3.856   4.609   5.048  0.4938  0.1816  0.1126
 2241SOL     OW 8729   1.141   0.670   4.553  0.4689 -0.3849  0.8127
 2241SOL    HW2 8730   1.126   0.613   4.478  0.3159 -2.4385  2.3022
 2241SOL    HW3 8731   1.234   0.690   4.549  0.1491  1.0225 -0.8557
 2241SOL    MW4 8732   1.151   0.665   4.543 -0.0597 -0.1000  0.0567
 2242SOL     OW 8733   6.256   4.314   4.063 -0.0017 -0.1994 -0.2266
 2242SOL    HW2 8734   6.196   4.244   4.090  1.2726 -1.6873 -1.0836
 2242SOL    HW3 8735   6.227   4.338   3.975  0.6352 -0.9212 -0.6422
 2242SOL    MW4 8736   6.244   4.308   4.055 -0.8174  0.1198 -0.4606
 2243SOL     OW 8737   3.340   1.813   5.042  0.4756  0.5520  0.2868
 2243SOL    HW2 8738   3.336   1.773   5.129 -0.1005  1.0757  0.5132
 2243SOL    HW3 8739   3.344   1.739   4.981 -1.1052  0.1017  0.6713
 2243SOL    MW4 8740   3.340   1.798   5.045 -0.0717 -0.7840  0.0309
 2244SOL     OW 8741   6.056   6.176   1.184 -0.3056 -0.1550 -0.0836
 2244SOL    HW2 8742   6.119   6.183   1.112  0.8092 -1.0358  0.7824
 2244SOL    HW3 8743   6.098   6.218   1.258 -0.5759 -1.0613  0.6062
 2244SOL    MW4 8744   6.070   6.182   1.184  0.0471  0.5022 -0.2214
 2245SOL     OW 8745   6.412   4.413   2.166 -0.4222 -0.1567  0.0591
 2245SOL    HW2 8746   6.444   4.425   2.256  0.4542 -0.7092 -0.1580
 2245SOL    HW3 8747   6.361   4.492   2.147 -0.4372  0.0603  0.9668
 2245SOL    MW4 8748   6.410   4.425   2.175 -0.0434 -0.2550 -0.6711
 2246SOL     OW 8749   1.421   1.679   2.145 -0.0838 -0.5851 -0.2700
 2246SOL    HW2 8750   1.336   1.636   2.142 -0.6895  0.5768 -0.4924
 2246SOL    HW3 8751   1.449   1.669   2.236 -0.4682 -0.9592 -0.1882
 2246SOL    MW4 8752   1.413   1.672   2.157  0.6462 -0.2243  0.6685
 2247SOL     OW 8753   5.541   0.598   1.020 -0.1726 -0.2358  0.6348
 2247SOL    HW2 8754   5.501   0.606   1.106 -0.0562 -0.5472  0.7196
 2247SOL    HW3 8755   5.471   0.563   0.964  0.1226 -1.2840  0.9019
 2247SOL    MW4 8756   5.526   0.595   1.024 -0.7097 -0.2047 -0.1734
 2248SOL     OW 8757   0.956   2.759   3.138 -0.0960 -0.1213  0.5357
 2248SOL    HW2 8758   0.914   2.683   3.178  0.5190 -0.2688  0.9208
 2248SOL    HW3 8759   0.950   2.827   3.205  0.6017 -0.2578  0.7520
 2248SOL    MW4 8760   0.950   2.758   3.152 -0.0737 -0.0344  0.0020
 2249SOL     OW 8761   3.522   4.736   1.098 -0.1684  0.4224 -0.3633
 2249SOL    HW2 8762   3.505   4.712   1.007 -0.2235 -0.3960 -0.1460
 2249SOL    HW3 8763   3.615   4.716   1.111 -0.2392  0.2286 -0.1499
 2249SOL    MW4 8764   3.532   4.730   1.088  0.2796  0.1371 -0.4246
 2250SOL     OW 8765   4.220   5.295   4.526  0.3416  0.3343 -0.1185
 2250SOL    HW2 8766   4.259   5.225   4.578  0.7013  1.0139  0.5564
 2250SOL    HW3 8767   4.234   5.269   4.435  2.4351  0.5518  0.0952
 2250SOL    MW4 8768   4.227   5.283   4.521 -0.1777  0.0862  0.5437
 2251SOL     OW 8769   4.573   5.322   2.024 -0.2684 -0.0445 -0.1154
 2251SOL    HW2 8770   4.478   5.309   2.014 -0.0211 -3.4333  0.5671
 2251SOL    HW3 8771   4.605   5.337   1.935 -1.4612  1.6411 -0.3015
 2251SOL    MW4 8772   4.564   5.322   2.011  0.0676  0.3914 -0.5071
 2252SOL     OW 8773   4.040   1.325   4.982  0.4385  0.3725 -0.2953
 2252SOL    HW2 8774   4.134   1.340   4.971  0.7153  0.1151  1.4941
 2252SOL    HW3 8775   3.999   1.381   4.916  1.8552  0.0613 -1.4845
 2252SOL    MW4 8776   4.047   1.334   4.972 -0.0474  0.0227 -0.4401
 2253SOL     OW 8777   0.603   5.609   5.501  0.0867  0.0700  0.8703
 2253SOL    HW2 8778   0.580   5.523   5.537 -0.5337  0.2346  0.8901
 2253SOL    HW3 8779   0.664   5.590   5.431  0.0472 -0.3818  0.9534
 2253SOL    MW4 8780   0.608   5.595   5.497  0.3880  0.1267 -0.5038
 2254SOL     OW 8781   5.477   6.144   1.539 -0.2290  0.4675  0.1656
 2254SOL    HW2 8782   5.545   6.177   1.598 -0.1708 -0.6739  0.7701
 2254SOL    HW3 8783   5.520   6.075   1.488 -1.1008 -0.8892  1.1689
 2254SOL    MW4 8784   5.492   6.139   1.540 -0.0071 -0.1833  0.3285
 2255SOL     OW 8785   2.450   6.222   3.907 -0.3485  0.1077 -0.4077
 2255SOL    HW2 8786   2.370   6.248   3.953 -0.3324  0.6293 -0.6720
 2255SOL    HW3 8787   2.511   6.200   3.977 -0.9611 -1.0412 -0.2124
 2255SOL    MW4 8788   2.447   6.223   3.923  0.3328  0.1427  0.5950
 2256SOL     OW 8789   4.817   2.441   6.069 -0.4333  0.2824  0.7631
 2256SOL    HW2 8790   4.868   2.391   6.133  1.0441  1.2771  0.4102
 2256SOL    HW3 8791   4.795   2.377   6.001  1.9173  0.1447  0.0259
 2256SOL    MW4 8792   4.821   2.426   6.069 -0.2372  0.0431 -0.3986
 2257SOL     OW 8793   2.698   1.411   1.163 -0.2925  0.2321 -0.2552
 2257SOL    HW2 8794   2.689   1.317   1.150  3.1678 -0.2100 -0.2256
 2257SOL    HW3 8795   2.692   1.423   1.257 -0.8604  0.0710 -0.2690
 2257SOL    MW4 8796   2.696   1.400   1.173 -0.2419  0.3360 -1.0230
 2258SOL     OW 8797   5.898   5.140   4.815  0.4099  0.2689  0.5646
 2258SOL    HW2 8798   5.833   5.196   4.858  0.5251 -0.4173  1.6811
 2258SOL    HW3 8799   5.975   5.144   4.872  0.4525 -0.9177  0.6254
 2258SOL    MW4 8800   5.900   5.148   4.828 -0.0654  0.0700 -0.3141
 2259SOL     OW 8801   3.458   3.021   0.650 -0.1641  0.6510 -0.2955
 2259SOL    HW2 8802   3.417   3.060   0.573  0.4256  1.0214 -0.4258
 2259SOL    HW3 8803   3.535   2.976   0.616 -1.0465 -0.9890 -0.2022
 2259SOL    MW4 8804   3.463   3.020   0.635  0.3463  0.2197  0.3776
 2260SOL     OW 8805   5.613   3.355   0.156 -0.6848  0.1321  0.2995
 2260SOL    HW2 8806   5.678   3.332   0.223 -0.7369  2.6172  1.3248
 2260SOL    HW3 8807   5.664   3.389   0.083 -0.7308 -0.0037  0.2055
 2260SOL    MW4 8808   5.628   3.357   0.155  0.6219 -0.3625  0.0007
 2261SOL     OW 8809   1.912   4.664   2.803 -0.2598 -0.4318  0.2712
 2261SOL    HW2 8810   1.897   4.747   2.758 -1.9656 -0.3974  0.8316
 2261SOL    HW3 8811   1.968   4.687   2.877  0.3891 -0.0417 -0.3192
 2261SOL    MW4 8812   1.918   4.678   2.807 -0.3404  0.1978 -0.2137
 2262SOL     OW 8813   1.843   1.648   5.397 -0.3038  0.4254 -0.1593
 2262SOL    HW2 8814   1.863   1.672   5.488 -1.2482 -0.3411  0.2642
 2262SOL    HW3 8815   1.760   1.602   5.402 -0.4076  0.4395 -1.4375
 2262SOL    MW4 8816   1.835   1.645   5.410 -0.1979 -0.7887 -0.5543
 2263SOL     OW 8817   3.997   4.644   5.713  0.3487 -0.3635 -0.2038
 2263SOL    HW2 8818   3.923   4.594   5.746  0.9373 -1.1781 -0.1021
 2263SOL    HW3 8819   4.026   4.696   5.788 -1.2048  1.3495 -0.6956
 2263SOL    MW4 8820   3.991   4.644   5.727  0.5324 -0.5023 -0.2285
 2264SOL     OW 8821   6.133   3.137   5.636  0.2640 -0.1832  0.1592
 2264SOL    HW2 8822   6.055   3.184   5.606  0.5324 -0.3457 -0.8259
 2264SOL    HW3 8823   6.197   3.151   5.566  1.0656 -0.1864  0.8832
 2264SOL    MW4 8824   6.131   3.145   5.623  0.0861 -0.4456 -0.4048
 2265SOL     OW 8825   4.758   3.646   4.909  0.0157 -0.1564  0.9168
 2265SOL    HW2 8826   4.813   3.643   4.831  0.2334 -0.9533  1.0881
 2265SOL    HW3 8827   4.764   3.737   4.940  0.7996 -0.1045  0.6233
 2265SOL    MW4 8828   4.766   3.658   4.903  0.2248 -0.3573 -0.3012
 2266SOL     OW 8829   4.183   5.383   3.314  0.0083 -0.4470 -0.3290
 2266SOL    HW2 8830   4.238   5.450   3.355 -0.1588 -0.4429 -0.1096
 2266SOL    HW3 8831   4.195   5.305   3.368 -1.2998 -0.0545  0.5830
 2266SOL    MW4 8832   4.192   5.382   3.327 -0.3640 -0.1897  0.0825
 2267SOL     OW 8833   0.861   5.676   2.570 -0.7355  0.0698 -0.2393
 2267SOL    HW2 8834   0.881   5.642   2.657 -0.9194 -0.6191 -0.4608
 2267SOL    HW3 8835   0.766   5.665   2.561 -0.6568 -0.2728 -0.6922
 2267SOL    MW4 8836   0.851   5.670   2.580 -0.5522 -0.7019 -0.3695
 2268SOL     OW 8837   5.534   5.592   4.539 -0.4205  0.0964  0.0901
 2268SOL    HW2 8838   5.554   5.675   4.497 -1.9878  0.2094 -0.4915
 2268SOL    HW3 8839   5.588   5.592   4.619  0.9181  0.8596 -0.7717
 2268SOL    MW4 8840   5.544   5.603   4.544 -0.3757 -0.3666 -0.1962
 2269SOL     OW 8841   3.448   4.014   5.016 -0.2888  0.5198  0.4080
 2269SOL    HW2 8842   3.358   4.002   5.049 -0.2934  0.5805  0.4173
 2269SOL    HW3 8843   3.496   3.940   5.052 -0.1488  0.9181  1.0624
 2269SOL    MW4 8844   3.442   4.003   5.025 -0.2579 -0.0339 -0.2097
 2270SOL     OW 8845   6.176   1.171   5.395  0.1428 -0.0745 -0.7400
 2270SOL    HW2 8846   6.180   1.075   5.393  0.3283 -0.2887  2.8302
 2270SOL    HW3 8847   6.095   1.190   5.442 -0.5952  1.6497 -2.5778
 2270SOL    MW4 8848   6.166   1.161   5.401 -0.5135 -0.7435  0.4268
 2271SOL     OW 8849   1.240   1.383   5.669 -0.5217  0.2657  0.2189
 2271SOL    HW2 8850   1.297   1.313   5.637 -1.7111 -0.3508 -0.6482
 2271SOL    HW3 8851   1.298   1.458   5.682  1.2802 -1.4399  3.4149
 2271SOL    MW4 8852   1.255   1.384   5.667 -0.2952  0.2079 -0.3124
 2272SOL     OW 8853   0.417   4.890   5.012  0.6810 -0.1967  0.3621
 2272SOL    HW2 8854   0.452   4.823   5.071  1.9415  1.2381  1.3177
 2272SOL    HW3 8855   0.492   4.946   4.992 -0.0838  0.2729 -1.3665
 2272SOL    MW4 8856   0.431   4.888   5.017 -0.2308 -0.5405  0.1462
 2273SOL     OW 8857   4.471   3.886   2.905 -0.3927 -0.0662  0.2966
 2273SOL    HW2 8858   4.466   3.807   2.958  1.2707  0.4415  1.2926
 2273SOL    HW3 8859   4.391   3.886   2.853  0.7491 -3.8468 -1.7903
 2273SOL    MW4 8860   4.460   3.876   2.905  0.0374  0.0324  0.4862
 2274SOL     OW 8861   3.563   0.419   1.448 -0.0848 -0.4177  0.2913
 2274SOL    HW2 8862   3.636   0.365   1.476 -1.4960 -1.3111  2.5399
 2274SOL    HW3 8863   3.577   0.503   1.491 -1.0968 -1.0787  2.0117
 2274SOL    MW4 8864   3.575   0.423   1.457 -0.2200 -0.0430  0.2897
 2275SOL     OW 8865   2.663   1.483   5.102  0.2453 -0.1873  0.4604
 2275SOL    HW2 8866   2.599   1.416   5.125  1.7890 -1.5506  0.9843
 2275SOL    HW3 8867   2.738   1.465   5.159  0.3567  2.6424  1.3759
 2275SOL    MW4 8868   2.665   1.472   5.113 -0.3842  0.0617 -0.1681
 2276SOL     OW 8869   1.552   4.747   0.563 -0.4597  0.2621  0.8491
 2276SOL    HW2 8870   1.544   4.835   0.598  2.1638  1.5764 -1.3895
 2276SOL    HW3 8871   1.614   4.703   0.622 -0.3671  0.5530  0.9699
 2276SOL    MW4 8872   1.559   4.753   0.575  0.2641 -0.1644  0.5467
 2277SOL     OW 8873   1.890   0.380   0.148 -0.1390  0.5694  0.2820
 2277SOL    HW2 8874   1.921   0.394   0.237 -1.9835  1.2348  0.8866
 2277SOL    HW3 8875   1.816   0.320   0.157  0.8041 -0.8633 -1.0496
 2277SOL    MW4 8876   1.884   0.374   0.161 -0.1762 -0.2315  0.5197
 2278SOL     OW 8877   4.101   0.960   6.093 -0.6943  0.5539 -0.5560
 2278SOL    HW2 8878   4.089   1.055   6.104 -1.1196  0.5359 -0.8590
 2278SOL    HW3 8879   4.140   0.932   6.176 -2.3887  0.6890  0.3295
 2278SOL    MW4 8880   4.105   0.969   6.106  1.4033  0.3013 -0.0075
 2279SOL     OW 8881   5.599   0.136   1.609  0.1576  0.5717 -0.5569
 2279SOL    HW2 8882   5.571   0.201   1.674 -0.9149  0.8110 -1.2305
 2279SOL    HW3 8883   5.690   0.157   1.592  0.3414  0.7619  0.5621
 2279SOL    MW4 8884   5.607   0.148   1.615  0.2280  0.3537 -0.2754
 2280SOL     OW 8885   6.040   3.133   2.792  0.4696  0.6885 -0.0188
 2280SOL    HW2 8886   6.055   3.144   2.885 -1.9537  2.1448  0.2981
 2280SOL    HW3 8887   6.027   3.039   2.780 -4.9471  0.7548  2.3252
 2280SOL    MW4 8888   6.040   3.122   2.802  0.0795  0.4425  0.1808
 2281SOL     OW 8889   5.927   1.176   3.779 -0.7451  0.2050 -0.0854
 2281SOL    HW2 8890   5.923   1.098   3.723 -0.1847  1.2205 -1.6075
 2281SOL    HW3 8891   6.017   1.175   3.813 -0.6675  0.3120 -0.2879
 2281SOL    MW4 8892   5.939   1.165   3.776  0.3489 -0.0529  0.0054
 2282SOL     OW 8893   5.393   0.061   2.428 -1.0125  0.0987 -0.5349
 2282SOL    HW2 8894   5.423   0.138   2.475  0.6765 -1.3957  0.9901
 2282SOL    HW3 8895   5.461   0.045   2.362 -2.0763  0.6940 -1.8249
 2282SOL    MW4 8896   5.406   0.069   2.425  0.6453 -0.5186 -0.3057
 2283SOL     OW 8897   3.811   0.079   3.177  0.1900  0.0583  0.0684
 2283SOL    HW2 8898   3.859  -0.001   3.200 -0.7013 -0.7193 -0.6856
 2283SOL    HW3 8899   3.729   0.047   3.140  0.8062  1.2595 -2.5220
 2283SOL    MW4 8900   3.807   0.064   3.175 -0.1560  0.0534  0.6928
 2284SOL     OW 8901   0.064   1.773   1.622  0.2848 -0.1859 -0.8445
 2284SOL    HW2 8902   0.159   1.759   1.632  0.5787  1.6761 -0.7040
 2284SOL    HW3 8903   0.029   1.758   1.710  0.9088  2.0673 -0.1460
 2284SOL    MW4 8904   0.072   1.769   1.635  0.1392 -0.3948  0.4215
 2285SOL     OW 8905   1.110   3.251   1.432  0.2832  0.2366 -0.5074
 2285SOL    HW2 8906   1.168   3.252   1.508 -0.3873  1.4206  0.0138
 2285SOL    HW3 8907   1.022   3.261   1.469 -0.0012  1.4643 -1.4660
 2285SOL    MW4 8908   1.106   3.252   1.447  0.5022 -0.0257 -0.5286
 2286SOL     OW 8909   1.346   5.907   5.299 -0.2027 -1.0337 -0.0315
 2286SOL    HW2 8910   1.292   5.959   5.239  0.3743  0.5434  0.7674
 2286SOL    HW3 8911   1.413   5.867   5.243 -1.1293 -1.5986 -0.7727
 2286SOL    MW4 8912   1.348   5.908   5.283 -0.0687  0.3070  0.2226
 2287SOL     OW 8913   5.149   2.194   3.932  0.0849 -0.4945 -0.4622
 2287SOL    HW2 8914   5.208   2.203   3.858 -0.1658 -1.9957 -0.8697
 2287SOL    HW3 8915   5.170   2.109   3.970 -2.3197 -1.4849 -1.1235
 2287SOL    MW4 8916   5.159   2.184   3.927 -0.0390  0.2054  0.0057
 2288SOL     OW 8917   3.932   5.666   4.160 -0.2041 -0.3086 -1.2809
 2288SOL    HW2 8918   3.883   5.618   4.226  0.4271  1.6582  0.7576
 2288SOL    HW3 8919   3.934   5.756   4.192  0.3089  0.7284 -3.9243
 2288SOL    MW4 8920   3.926   5.671   4.173  0.1041  0.5146 -0.4330
 2289SOL     OW 8921   5.627   4.904   5.325 -0.4963 -0.1495 -0.5743
 2289SOL    HW2 8922   5.657   4.816   5.350  0.8418  0.0278 -1.4547
 2289SOL    HW3 8923   5.707   4.953   5.310 -1.2301  1.2281 -0.1569
 2289SOL    MW4 8924   5.641   4.899   5.327 -0.4038 -0.8765 -0.3067
 2290SOL     OW 8925   4.696   4.768   4.924 -0.1131  0.1780 -0.3735
 2290SOL    HW2 8926   4.681   4.787   4.831  1.3157  0.4176 -0.5856
 2290SOL    HW3 8927   4.699   4.673   4.929  1.0515  0.1690 -0.8273
 2290SOL    MW4 8928   4.694   4.758   4.912 -0.1234  0.0981  0.6568
 2291SOL     OW 8929   6.142   2.916   3.610 -0.4505 -0.3070 -0.3548
 2291SOL    HW2 8930   6.196   2.958   3.678 -0.4187 -0.8008 -0.0692
 2291SOL    HW3 8931   6.204   2.894   3.541 -0.3561 -0.4813 -0.2159
 2291SOL    MW4 8932   6.158   2.919   3.610 -0.9063 -0.4261  0.1910
 2292SOL     OW 8933   0.957   5.532   4.854 -0.6840  0.0705  0.2827
 2292SOL    HW2 8934   1.036   5.564   4.811 -1.6355  0.4542 -1.2210
 2292SOL    HW3 8935   0.934   5.452   4.806 -0.1357 -1.1606  1.9617
 2292SOL    MW4 8936   0.964   5.525   4.842 -0.0440 -0.1844  0.1990
 2293SOL     OW 8937   3.100   5.434   4.768 -0.3424 -0.1875  0.3274
 2293SOL    HW2 8938   3.192   5.458   4.763 -0.3713  0.0553  0.8547
 2293SOL    HW3 8939   3.068   5.478   4.847 -1.2419  0.8738 -0.5910
 2293SOL    MW4 8940   3.108   5.443   4.778  0.2565  0.6599 -0.1457
 2294SOL     OW 8941   0.252   4.088   5.749 -0.1565 -0.1420  0.1882
 2294SOL    HW2 8942   0.221   4.046   5.829  2.5548 -1.3361  0.7324
 2294SOL    HW3 8943   0.250   4.018   5.684  2.7767 -0.8000  0.6687
 2294SOL    MW4 8944   0.247   4.073   5.751  0.4531 -0.3684 -0.0612
 2295SOL     OW 8945   3.181   1.579   2.702  0.5165  0.4668  0.7246
 2295SOL    HW2 8946   3.138   1.587   2.617  2.0750 -0.7066 -0.2423
 2295SOL    HW3 8947   3.271   1.609   2.686  0.6283  0.9361  2.1496
 2295SOL    MW4 8948   3.187   1.584   2.689 -0.1402 -0.2215  0.0228
 2296SOL     OW 8949   2.154   2.281   0.203 -0.1850 -0.1203 -0.5288
 2296SOL    HW2 8950   2.077   2.238   0.165  0.4876 -0.5001 -1.5049
 2296SOL    HW3 8951   2.163   2.362   0.154 -0.3644  0.2655  0.0640
 2296SOL    MW4 8952   2.145   2.286   0.191  0.4368  0.1424  0.0846
 2297SOL     OW 8953   5.176   1.323   0.470 -0.2724  0.0472  0.0474
 2297SOL    HW2 8954   5.145   1.374   0.546 -1.6534  1.4056 -1.3559
 2297SOL    HW3 8955   5.134   1.365   0.395 -0.3011 -2.3198 -1.3348
 2297SOL    MW4 8956   5.166   1.336   0.470  0.1003  0.0700  0.8026
 2298SOL     OW 8957   1.461   4.646   1.207  0.2141 -0.3032  0.0707
 2298SOL    HW2 8958   1.398   4.621   1.275  0.5659  1.7821  1.2429
 2298SOL    HW3 8959   1.521   4.706   1.251  2.3857 -1.3593 -1.3163
 2298SOL    MW4 8960   1.461   4.650   1.222 -0.0065 -0.3584  0.7603
 2299SOL     OW 8961   5.672   6.022   6.276 -0.3671  0.6219  0.3793
 2299SOL    HW2 8962   5.687   6.062   6.190 -0.3645 -0.4175 -0.1180
 2299SOL    HW3 8963   5.636   6.092   6.329 -0.0121  1.3838 -0.3631
 2299SOL    MW4 8964   5.669   6.036   6.272  0.5680  0.6824 -0.4505
 2300SOL     OW 8965   1.421   4.811   4.363  0.3052  0.2970  0.6979
 2300SOL    HW2 8966   1.379   4.725   4.363  1.4442 -0.2751  1.6289
 2300SOL    HW3 8967   1.513   4.793   4.380  0.9224  1.5532 -0.9892
 2300SOL    MW4 8968   1.427   4.798   4.365  0.5358  0.4070 -0.4198
 2301SOL     OW 8969   5.144   0.987   1.669 -0.5666 -0.4827  0.2893
 2301SOL    HW2 8970   5.141   1.081   1.688 -2.3434 -0.8248  1.8870
 2301SOL    HW3 8971   5.189   0.948   1.744  1.3897 -0.8335 -0.9764
 2301SOL    MW4 8972   5.150   0.994   1.681 -0.3399  0.2270 -0.0462
 2302SOL     OW 8973   3.345   1.246   3.217 -0.0921 -0.0742 -0.1109
 2302SOL    HW2 8974   3.328   1.323   3.161 -0.9763 -0.9046 -1.0292
 2302SOL    HW3 8975   3.441   1.240   3.219  0.1016  2.2003  1.6316
 2302SOL    MW4 8976   3.356   1.256   3.210 -0.5498  0.2133  0.5608
 2303SOL     OW 8977   5.690   0.443   2.536  0.6143  0.3460 -0.2664
 2303SOL    HW2 8978   5.737   0.368   2.501 -1.5915 -1.0026 -0.5397
 2303SOL    HW3 8979   5.640   0.409   2.609  0.7588  1.9179  0.6129
 2303SOL    MW4 8980   5.690   0.429   2.541  0.2731 -0.3085 -0.1290
 2304SOL     OW 8981   5.771   1.768   0.075 -0.3913  0.3968 -0.1200
 2304SOL    HW2 8982   5.755   1.691   0.130 -1.2807  1.7700  1.6614
 2304SOL    HW3 8983   5.731   1.747  -0.009 -0.1931 -1.2564  0.1690
 2304SOL    MW4 8984   5.764   1.755   0.071 -0.4398 -1.3562 -0.4303
 2305SOL     OW 8985   1.264   4.403   5.608  0.8866 -0.3339 -0.6086
 2305SOL    HW2 8986   1.246   4.481   5.660  3.5158  0.6806 -1.0641
 2305SOL    HW3 8987   1.268   4.332   5.673 -1.3103 -0.1453 -0.1679
 2305SOL    MW4 8988   1.262   4.404   5.624  0.0210 -0.2372  0.2604
 2306SOL     OW 8989   4.248   4.629   4.652  0.5465  0.1328  1.0705
 2306SOL    HW2 8990   4.221   4.554   4.599 -1.0385 -0.3256  2.4430
 2306SOL    HW3 8991   4.344   4.625   4.653  0.4990 -2.0131  1.2523
 2306SOL    MW4 8992   4.257   4.618   4.645 -0.2291 -0.3037  0.1211
 2307SOL     OW 8993   1.550   2.698   1.464 -0.0462  0.2869 -0.0794
 2307SOL    HW2 8994   1.489   2.625   1.454  0.3326 -0.7193  3.5718
 2307SOL    HW3 8995   1.636   2.659   1.454  0.1258  0.5791  0.2402
 2307SOL    MW4 8996   1.553   2.683   1.461 -0.0828 -0.0904 -0.6486
 2308SOL     OW 8997   1.350   4.929   4.113 -0.2325  0.0950  0.5285
 2308SOL    HW2 8998   1.369   4.908   4.204 -2.8401  0.2764  1.1838
 2308SOL    HW3 8999   1.288   4.862   4.085  0.1164  0.3565 -0.9546
 2308SOL    MW4 9000   1.344   4.917   4.121 -0.3399 -0.3413 -0.1482
 2309SOL     OW 9001   6.092   0.883   2.519  0.6671 -0.7322  0.9716
 2309SOL    HW2 9002   6.006   0.923   2.523  0.9788  0.1000 -0.1941
 2309SOL    HW3 9003   6.100   0.851   2.429  2.4231  1.2399  0.3499
 2309SOL    MW4 9004   6.082   0.884   2.508  0.0221  0.0266 -0.2384
 2310SOL     OW 9005   3.426   3.529   3.513  0.2188 -1.0255  0.0575
 2310SOL    HW2 9006   3.402   3.531   3.420  0.5310 -1.4708 -0.0352
 2310SOL    HW3 9007   3.484   3.605   3.524  0.9929 -1.5462 -0.3406
 2310SOL    MW4 9008   3.431   3.540   3.502 -0.0679  0.1604  0.0918
 2311SOL     OW 9009   2.969   5.351   2.528 -0.2699 -0.2553 -0.7275
 2311SOL    HW2 9010   2.925   5.273   2.495 -2.0788  0.8049 -0.9800
 2311SOL    HW3 9011   2.907   5.388   2.591  1.8534 -0.6406  1.7640
 2311SOL    MW4 9012   2.955   5.346   2.532 -0.5770  0.2765 -0.1652
 2312SOL     OW 9013   6.172   5.220   2.109  0.3620 -0.1471 -0.5243
 2312SOL    HW2 9014   6.168   5.211   2.204  1.1090  0.2695 -0.4503
 2312SOL    HW3 9015   6.081   5.209   2.081 -0.0560  0.8568  0.3471
 2312SOL    MW4 9016   6.159   5.217   2.118  0.1459  0.0452 -0.4288
 2313SOL     OW 9017   0.011   0.788   0.869  0.0590 -0.0025 -0.4671
 2313SOL    HW2 9018   0.013   0.880   0.845 -0.5971  0.5193  1.3764
 2313SOL    HW3 9019  -0.078   0.774   0.903  0.7203 -0.8559  0.9825
 2313SOL    MW4 9020  -0.001   0.798   0.870  0.8452 -0.5608 -0.5614
 2314SOL     OW 9021   3.904   0.070   2.534 -0.0718 -0.0095 -0.6818
 2314SOL    HW2 9022   3.949  -0.011   2.510 -0.3021 -0.2522 -0.3043
 2314SOL    HW3 9023   3.919   0.129   2.460  0.3647 -0.2901 -0.8166
 2314SOL    MW4 9024   3.912   0.067   2.521  0.2035  0.1409 -0.5446
 2315SOL     OW 9025   1.904   1.466   0.322  0.1633  0.3021 -0.3260
 2315SOL    HW2 9026   1.964   1.392   0.338  1.4751  1.0922 -1.3955
 2315SOL    HW3 9027   1.916   1.523   0.397 -0.9141 -0.5718  0.5469
 2315SOL    MW4 9028   1.914   1.463   0.334  0.5445 -0.1105 -0.4440
 2316SOL     OW 9029   1.699   1.768   4.785  0.4107 -0.1099 -0.2125
 2316SOL    HW2 9030   1.625   1.741   4.730  1.3048 -0.0268 -1.5062
 2316SOL    HW3 9031   1.777   1.741   4.736  1.2561  0.2577  0.8776
 2316SOL    MW4 9032   1.699   1.761   4.771 -0.0394  0.5922 -0.5744
 2317SOL     OW 9033   5.526   2.607   4.535  0.3729 -0.6268  0.5085
 2317SOL    HW2 9034   5.566   2.553   4.467 -0.9194 -1.7761  0.6285
 2317SOL    HW3 9035   5.491   2.545   4.599 -1.6133  0.2850  0.3866
 2317SOL    MW4 9036   5.527   2.592   4.534  0.0345  0.2439 -0.1718
 2318SOL     OW 9037   5.126   2.462   0.814 -0.8333  0.6276 -0.0610
 2318SOL    HW2 9038   5.041   2.451   0.856  0.0741  1.7304  2.2196
 2318SOL    HW3 9039   5.143   2.556   0.817  0.8054  0.3569  0.2958
 2318SOL    MW4 9040   5.117   2.473   0.820 -0.2919  0.1971  0.3867
 2319SOL     OW 9041   5.576   4.666   1.014 -0.1148 -0.2057  0.3025
 2319SOL    HW2 9042   5.490   4.663   1.057 -1.1505 -1.1821 -1.6983
 2319SOL    HW3 9043   5.597   4.759   1.008 -1.1849  0.0686  0.5515
 2319SOL    MW4 9044   5.568   4.678   1.019 -0.2367  0.3080 -0.4102
 2320SOL     OW 9045   1.826   1.025   2.454  0.0658  0.2655 -0.4808
 2320SOL    HW2 9046   1.834   0.976   2.536  4.1888  1.6940  0.1767
 2320SOL    HW3 9047   1.798   1.112   2.481  1.3859  0.7256 -0.5683
 2320SOL    MW4 9048   1.823   1.030   2.469 -0.4731 -0.1335 -0.4290
 2321SOL     OW 9049   2.187   5.215   0.043 -0.5120 -0.0288 -0.3566
 2321SOL    HW2 9050   2.237   5.160  -0.017  0.8763 -1.3618  1.8953
 2321SOL    HW3 9051   2.109   5.164   0.065 -0.0193 -0.4443  0.4854
 2321SOL    MW4 9052   2.184   5.201   0.038  0.4017 -0.2538 -0.0395
 2322SOL     OW 9053   2.290   3.458   3.248  0.4271  0.6075 -0.2290
 2322SOL    HW2 9054   2.330   3.507   3.320  0.9356 -0.3547  0.1656
 2322SOL    HW3 9055   2.230   3.520   3.207 -0.4826  0.9539  1.5267
 2322SOL    MW4 9056   2.287   3.473   3.252  0.8665 -0.1852  1.0117
 2323SOL     OW 9057   4.501   6.367   4.859  0.3139 -0.0230  0.2814
 2323SOL    HW2 9058   4.461   6.402   4.780 -1.9903 -0.6648  1.0903
 2323SOL    HW3 9059   4.508   6.443   4.918  0.1009  0.0601  0.2010
 2323SOL    MW4 9060   4.497   6.382   4.857 -0.1022 -0.0222 -0.2706
 2324SOL     OW 9061   0.131   3.156   4.536  0.1432  0.0005 -0.1556
 2324SOL    HW2 9062   0.175   3.236   4.567  3.6562 -1.6096 -0.5404
 2324SOL    HW3 9063   0.162   3.145   4.446 -0.4775 -1.6823 -0.1958
 2324SOL    MW4 9064   0.141   3.165   4.528 -0.0318 -0.4391 -0.1948
 2325SOL     OW 9065   2.573   3.205   1.396 -0.2132  0.1319  0.3986
 2325SOL    HW2 9066   2.532   3.118   1.400 -0.3728  0.2211  0.8162
 2325SOL    HW3 9067   2.667   3.187   1.390 -0.1127 -0.0887  2.0263
 2325SOL    MW4 9068   2.580   3.191   1.396  0.0666 -0.0954  0.4810
 2326SOL     OW 9069   0.469   6.116   1.798  0.3501 -0.1607 -0.3021
 2326SOL    HW2 9070   0.548   6.073   1.832  0.3545  0.8109  1.0173
 2326SOL    HW3 9071   0.488   6.210   1.807 -1.0204  0.0906  0.2249
 2326SOL    MW4 9072   0.482   6.123   1.804 -0.0336 -0.3014  0.2558
 2327SOL     OW 9073   2.553   5.615   2.626 -0.6599 -0.3701  0.1333
 2327SOL    HW2 9074   2.633   5.583   2.667 -1.0424 -1.4097  0.0893
 2327SOL    HW3 9075   2.482   5.579   2.679 -1.1260  2.1470  1.3764
 2327SOL    MW4 9076   2.554   5.606   2.638  0.2872 -0.0450  0.3627
 2328SOL     OW 9077   1.839   5.168   2.900 -0.5767  0.5089 -0.3347
 2328SOL    HW2 9078   1.827   5.230   2.972 -0.9721  0.6558 -0.5233
 2328SOL    HW3 9079   1.769   5.104   2.911 -0.8768  0.7463 -0.8012
 2328SOL    MW4 9080   1.828   5.168   2.911  0.9675  0.5039  0.6926
 2329SOL     OW 9081   2.957   2.168   5.007  0.0188  0.0164  0.4040
 2329SOL    HW2 9082   3.010   2.101   4.964  0.0879 -0.0473  0.5850
 2329SOL    HW3 9083   2.951   2.239   4.943  1.3629  0.5465  0.8161
 2329SOL    MW4 9084   2.963   2.169   4.993  0.3348  0.4554  0.4366
 2330SOL     OW 9085   3.757   4.919   4.850 -0.8039 -0.2377 -0.4935
 2330SOL    HW2 9086   3.713   4.969   4.781 -1.2899 -1.9819 -1.5349
 2330SOL    HW3 9087   3.798   4.846   4.803  1.8323  0.3920  0.6528
 2330SOL    MW4 9088   3.757   4.916   4.834 -0.5938  0.1022 -0.2560
 2331SOL     OW 9089   5.752   4.830   1.603  0.0880 -0.7115 -0.2544
 2331SOL    HW2 9090   5.713   4.742   1.606  0.6576 -1.0136 -1.2566
 2331SOL    HW3 9091   5.701   4.881   1.666 -2.0495 -1.0656 -1.5718
 2331SOL    MW4 9092   5.740   4.825   1.612  0.0847 -0.4098  0.6221
 2332SOL     OW 9093   3.705   3.389   1.595 -0.0659  0.1708  0.6130
 2332SOL    HW2 9094   3.754   3.443   1.533 -1.6604 -0.7265 -1.5661
 2332SOL    HW3 9095   3.755   3.308   1.600  0.2375  0.3650  0.7529
 2332SOL    MW4 9096   3.718   3.386   1.587  0.2529  0.2015  0.2939
 2333SOL     OW 9097   3.121   1.764   1.727 -0.0699  0.5815  0.5515
 2333SOL    HW2 9098   3.117   1.856   1.751  0.8690  0.9512 -0.6169
 2333SOL    HW3 9099   3.089   1.761   1.636 -0.1111 -0.2454  0.5853
 2333SOL    MW4 9100   3.116   1.776   1.718  0.7331 -0.4519  0.0934
 2334SOL     OW 9101   3.200   3.681  -0.012  0.5451  0.5023  0.1326
 2334SOL    HW2 9102   3.106   3.696  -0.026  0.5085 -1.2042 -1.8369
 2334SOL    HW3 9103   3.242   3.755  -0.056  0.1554 -0.0086 -1.1449
 2334SOL    MW4 9104   3.193   3.693  -0.020 -0.0675  0.3436 -0.2994
 2335SOL     OW 9105   3.316   2.196   2.888  0.2955 -0.3393 -0.4708
 2335SOL    HW2 9106   3.386   2.135   2.863  0.4564 -1.4668  2.3595
 2335SOL    HW3 9107   3.361   2.273   2.920  0.2923 -1.0004  1.1972
 2335SOL    MW4 9108   3.331   2.198   2.889  0.7355  0.3156 -0.2210
 2336SOL     OW 9109   5.883   0.153   6.346  0.1247 -0.0828 -1.1716
 2336SOL    HW2 9110   5.922   0.238   6.367 -0.1898 -0.0376 -0.7496
 2336SOL    HW3 9111   5.955   0.091   6.354 -0.6585 -0.7847  4.4465
 2336SOL    MW4 9112   5.898   0.156   6.349  0.3974  0.0555  0.5445
 2337SOL     OW 9113   0.217   4.136   0.994 -0.1323 -0.0829 -0.0384
 2337SOL    HW2 9114   0.123   4.134   0.976 -0.3997 -0.2530  1.2713
 2337SOL    HW3 9115   0.256   4.174   0.915 -1.4498  1.5184  0.0288
 2337SOL    MW4 9116   0.210   4.141   0.981 -0.2195  0.0774 -0.6688
 2338SOL     OW 9117   3.682   2.655   3.835 -0.1238 -0.5767  0.7538
 2338SOL    HW2 9118   3.700   2.641   3.928 -3.2676 -0.7615  1.4501
 2338SOL    HW3 9119   3.632   2.578   3.809  0.3154 -0.3030 -0.9956
 2338SOL    MW4 9120   3.678   2.643   3.844  0.3451 -0.6921  0.5102
 2339SOL     OW 9121   5.510   4.190   6.307  0.5847  0.1635  0.0817
 2339SOL    HW2 9122   5.455   4.250   6.358  0.6841 -0.1866  0.6087
 2339SOL    HW3 9123   5.504   4.223   6.217 -0.5675  0.0732  0.1028
 2339SOL    MW4 9124   5.502   4.202   6.302 -0.2322  0.3435 -0.2983
 2340SOL     OW 9125   3.335   3.876   4.082 -0.3737 -0.1880 -0.6175
 2340SOL    HW2 9126   3.344   3.846   3.992  1.2963  1.8954 -1.2281
 2340SOL    HW3 9127   3.426   3.889   4.112 -0.8953 -0.8513  1.3752
 2340SOL    MW4 9128   3.349   3.874   4.074  0.4476  0.2918  0.0975
 2341SOL     OW 9129   4.811   2.233   0.416  0.1798 -0.2168 -0.0312
 2341SOL    HW2 9130   4.881   2.248   0.352 -0.7940  0.7605 -0.9257
 2341SOL    HW3 9131   4.772   2.149   0.390 -1.6023  1.1550 -2.1766
 2341SOL    MW4 9132   4.815   2.224   0.404  0.2388 -0.2312  0.2922
 2342SOL     OW 9133   3.586   2.052   5.086 -0.1497  0.1862 -0.3530
 2342SOL    HW2 9134   3.545   2.093   5.162  0.8606  0.4195  0.0812
 2342SOL    HW3 9135   3.657   2.000   5.123  0.0668 -0.0683 -1.1118
 2342SOL    MW4 9136   3.590   2.050   5.101 -0.2630 -0.0808 -0.3334
 2343SOL     OW 9137   2.573   0.614   1.241 -0.0628  0.0543 -0.2117
 2343SOL    HW2 9138   2.546   0.622   1.332  1.4461  0.0436  0.2685
 2343SOL    HW3 9139   2.492   0.601   1.193 -0.7777 -1.4161  1.2949
 2343SOL    MW4 9140   2.559   0.614   1.247 -0.1910  0.0196  0.3564
 2344SOL     OW 9141   0.172   4.476   0.063  0.6924 -0.5918 -0.1265
 2344SOL    HW2 9142   0.228   4.457   0.139 -0.2348 -1.6199  0.3267
 2344SOL    HW3 9143   0.216   4.431  -0.010  0.4631 -1.4347  0.2356
 2344SOL    MW4 9144   0.186   4.467   0.064  0.6097 -0.0686  0.0896
 2345SOL     OW 9145   1.743   3.805   0.795  0.4970 -0.1858  0.0548
 2345SOL    HW2 9146   1.780   3.841   0.714  1.4857  0.3843  0.7471
 2345SOL    HW3 9147   1.713   3.717   0.770 -0.2290  0.3925 -1.1950
 2345SOL    MW4 9148   1.744   3.798   0.781 -0.5818  0.0769  0.0500
 2346SOL     OW 9149   3.158   4.062   6.138  0.2519  0.3616 -0.6618
 2346SOL    HW2 9150   3.093   4.048   6.069 -0.4924  0.5805 -0.0209
 2346SOL    HW3 9151   3.219   3.989   6.128 -0.3636 -0.1216 -0.9661
 2346SOL    MW4 9152   3.158   4.050   6.127 -0.1894  0.0114  0.0167
 2347SOL     OW 9153   2.308   1.472   5.004 -0.5102  0.1031  0.8334
 2347SOL    HW2 9154   2.330   1.562   5.028  2.6478 -0.5160  0.6573
 2347SOL    HW3 9155   2.334   1.420   5.079 -0.5635 -0.8395  0.2140
 2347SOL    MW4 9156   2.314   1.477   5.017  0.0527 -0.3082 -0.3607
 2348SOL     OW 9157   4.825   0.983   3.683 -0.0537 -0.8041  0.0478
 2348SOL    HW2 9158   4.751   0.937   3.724 -0.3802 -0.9437 -0.6776
 2348SOL    HW3 9159   4.873   0.914   3.636 -0.5747 -0.4104 -1.0847
 2348SOL    MW4 9160   4.821   0.967   3.682 -0.6250  0.0988  0.7329
 2349SOL     OW 9161   2.510   0.176   0.237  0.2850  0.3542 -0.2148
 2349SOL    HW2 9162   2.602   0.189   0.262  0.3453  1.2154 -0.8231
 2349SOL    HW3 9163   2.512   0.105   0.174  0.4688  0.0160  0.1693
 2349SOL    MW4 9164   2.523   0.169   0.232  0.3126  0.1936 -0.3671
 2350SOL     OW 9165   1.251   4.394  -0.013  0.4014  0.2864  0.0115
 2350SOL    HW2 9166   1.214   4.327   0.045  1.3484  0.8057  1.2901
 2350SOL    HW3 9167   1.345   4.392   0.006  0.4128  2.2605  0.4407
 2350SOL    MW4 9168   1.259   4.385  -0.003 -0.1488  0.6574 -0.5998
 2351SOL     OW 9169   6.219   5.413   4.700  0.0134 -0.0548 -0.1098
 2351SOL    HW2 9170   6.159   5.424   4.774  1.5720  0.2421  1.1746
 2351SOL    HW3 9171   6.249   5.323   4.706  0.7779  0.2054  0.1498
 2351SOL    MW4 9172   6.215   5.403   4.711 -0.2506 -0.3149 -0.4439
 2352SOL     OW 9173   1.155   2.451   5.052 -0.1575 -0.0317  0.3143
 2352SOL    HW2 9174   1.167   2.396   5.130 -0.4954  1.2399  1.3115
 2352SOL    HW3 9175   1.216   2.524   5.065 -0.6067  0.4721 -0.3459
 2352SOL    MW4 9176   1.164   2.454   5.064  0.0808 -0.6345 -0.2646
 2353SOL     OW 9177   6.352   1.515   5.245  0.0592 -0.3620  0.2829
 2353SOL    HW2 9178   6.282   1.576   5.269 -0.9389 -1.2435 -0.2900
 2353SOL    HW3 9179   6.433   1.561   5.266 -0.5823  2.0349 -2.0679
 2353SOL    MW4 9180   6.353   1.529   5.251 -0.4036 -0.4744  0.2481
 2354SOL     OW 9181   1.390   2.761   0.201  0.2525  0.0313 -0.2658
 2354SOL    HW2 9182   1.347   2.744   0.284  1.6719  1.5638  0.8573
 2354SOL    HW3 9183   1.375   2.855   0.185 -0.5031 -0.3399 -2.0820
 2354SOL    MW4 9184   1.382   2.771   0.210 -0.0083 -0.2669 -0.0690
 2355SOL     OW 9185   6.105   1.549   3.948 -0.3342 -0.4628  0.1452
 2355SOL    HW2 9186   6.083   1.472   4.001 -1.6473 -0.0876  0.1877
 2355SOL    HW3 9187   6.041   1.548   3.877 -0.6353  0.8066  0.3707
 2355SOL    MW4 9188   6.094   1.539   3.945  0.0185 -0.1939 -0.1710
 2356SOL     OW 9189   5.524   2.068   4.017  0.4020 -0.1169  0.2328
 2356SOL    HW2 9190   5.471   2.001   3.975  0.5575  0.3326 -0.7070
 2356SOL    HW3 9191   5.577   2.020   4.081 -1.3612 -0.5251  1.4532
 2356SOL    MW4 9192   5.524   2.053   4.020 -0.4907 -0.1544  0.0687
 2357SOL     OW 9193   2.323   4.534   4.298 -0.2662  0.2685 -0.2748
 2357SOL    HW2 9194   2.307   4.446   4.266 -2.3151  0.7747 -0.8060
 2357SOL    HW3 9195   2.305   4.590   4.222 -0.5339  1.2211  0.4761
 2357SOL    MW4 9196   2.318   4.530   4.284 -0.3401 -0.1380 -0.1068
 2358SOL     OW 9197   5.657   1.357   1.014  0.0319  0.1315 -0.5915
 2358SOL    HW2 9198   5.592   1.409   1.061 -0.0834  0.1656 -0.7905
 2358SOL    HW3 9199   5.609   1.280   0.983  0.4380 -0.6450  0.6378
 2358SOL    MW4 9200   5.642   1.354   1.016  0.6559  0.4271 -0.0632
 2359SOL     OW 9201   2.703   1.017   4.915  0.1641  0.1851 -0.3373
 2359SOL    HW2 9202   2.790   0.980   4.925 -0.1640 -0.6350 -0.4290
 2359SOL    HW3 9203   2.652   0.980   4.987 -0.0384  0.8940 -0.1011
 2359SOL    MW4 9204   2.708   1.007   4.926 -0.3709 -0.2172  0.2486
 2360SOL     OW 9205   1.036   3.435   0.043 -0.4134  0.1141  0.5015
 2360SOL    HW2 9206   0.957   3.391   0.011  0.0607 -0.0874 -0.4382
 2360SOL    HW3 9207   1.022   3.527   0.022 -0.0476 -0.0348 -0.4431
 2360SOL    MW4 9208   1.023   3.441   0.036  0.4323  0.2893 -0.4560
 2361SOL     OW 9209   1.209   2.768   4.550 -0.1208  0.4082 -0.1274
 2361SOL    HW2 9210   1.180   2.739   4.637  2.1702 -0.1553  0.5211
 2361SOL    HW3 9211   1.304   2.762   4.554  0.0622  0.9659 -2.5058
 2361SOL    MW4 9212   1.218   2.763   4.562 -0.2990 -0.0241  0.2166
 2362SOL     OW 9213   1.200   6.098   1.309  0.0778  0.3439 -0.2907
 2362SOL    HW2 9214   1.145   6.160   1.357 -0.2107 -0.0517 -0.1035
 2362SOL    HW3 9215   1.158   6.013   1.322  0.2094  0.1716 -0.9286
 2362SOL    MW4 9216   1.188   6.095   1.317 -0.6002 -0.0693 -0.2637
 2363SOL     OW 9217   5.320   0.649   1.500  0.2433 -0.3963  0.0662
 2363SOL    HW2 9218   5.263   0.579   1.534 -0.6016  0.1836 -0.1089
 2363SOL    HW3 9219   5.350   0.616   1.415 -0.5906 -0.3280 -0.2651
 2363SOL    MW4 9220   5.316   0.635   1.493 -0.3749  0.2441  0.2926
 2364SOL     OW 9221   0.315   2.117   4.647  0.2400 -0.2789  0.0337
 2364SOL    HW2 9222   0.336   2.202   4.684 -1.1039 -0.5046  1.4376
 2364SOL    HW3 9223   0.360   2.115   4.563 -0.2513  2.1036 -0.3613
 2364SOL    MW4 9224   0.323   2.128   4.641 -0.2155 -0.6973 -0.0464
 2365SOL     OW 9225   0.227   0.894   3.255  0.3683 -0.6275 -0.0923
 2365SOL    HW2 9226   0.246   0.807   3.221  2.0053 -0.7238  0.9834
 2365SOL    HW3 9227   0.169   0.933   3.189 -0.5701 -2.5682 -0.5053
 2365SOL    MW4 9228   0.222   0.888   3.242  0.2826  0.0209 -0.1551
 2366SOL     OW 9229   2.632   3.343   3.522 -0.0120  0.0609  0.2623
 2366SOL    HW2 9230   2.687   3.339   3.444  0.2800 -0.6064  0.4951
 2366SOL    HW3 9231   2.573   3.269   3.513  0.3614 -0.3254  0.9173
 2366SOL    MW4 9232   2.632   3.333   3.510 -0.9963 -0.0940 -0.6243
 2367SOL     OW 9233   3.416   6.388   2.301  0.1227  0.2056  0.6660
 2367SOL    HW2 9234   3.359   6.317   2.330 -1.1418  0.0171 -2.0454
 2367SOL    HW3 9235   3.503   6.348   2.297 -0.6460 -1.4610 -1.3442
 2367SOL    MW4 9236   3.420   6.374   2.304 -0.5043  0.1477 -0.0603
 2368SOL     OW 9237   0.165   6.110   0.228  0.1587 -0.0303 -0.0248
 2368SOL    HW2 9238   0.178   6.023   0.267  0.8427  0.0233 -0.1178
 2368SOL    HW3 9239   0.162   6.169   0.303  1.6076  0.0892 -0.0214
 2368SOL    MW4 9240   0.166   6.106   0.243 -0.3567  0.2257 -0.3868
 2369SOL     OW 9241   0.889   0.118   2.933 -0.2656  0.1251  0.0446
 2369SOL    HW2 9242   0.853   0.029   2.939 -1.0640  0.4523  0.2217
 2369SOL    HW3 9243   0.817   0.171   2.899 -0.9642  1.3878  3.2083
 2369SOL    MW4 9244   0.875   0.113   2.929 -0.5775 -0.2410  0.1485
 2370SOL     OW 9245   2.271   0.910   5.173  0.1076 -0.2132  0.3086
 2370SOL    HW2 9246   2.296   0.995   5.138 -0.8812 -0.1834 -0.3786
 2370SOL    HW3 9247   2.291   0.915   5.267  0.4581  0.6124  0.1941
 2370SOL    MW4 9248   2.277   0.922   5.181 -0.6389 -0.4033  0.3063
 2371SOL     OW 9249   3.720   1.526   5.523  0.1364 -0.7682 -0.1297
 2371SOL    HW2 9250   3.747   1.464   5.591  0.5758 -0.2632  0.1655
 2371SOL    HW3 9251   3.798   1.579   5.507 -0.6415  0.6707  0.6948
 2371SOL    MW4 9252   3.734   1.525   5.530  0.2337 -0.3940  0.4870
 2372SOL     OW 9253   5.927   1.645   5.510  0.4818 -0.0448 -0.1153
 2372SOL    HW2 9254   5.969   1.730   5.527  0.4336 -0.4407  2.4194
 2372SOL    HW3 9255   6.001   1.586   5.494  0.4948  0.5094 -2.4775
 2372SOL    MW4 9256   5.943   1.649   5.510 -0.0633  0.0932 -0.5763
 2373SOL     OW 9257   2.571   5.041   2.538  0.2394  0.4430 -0.4810
 2373SOL    HW2 9258   2.521   5.110   2.580 -0.6456  0.2813 -1.2444
 2373SOL    HW3 9259   2.599   4.984   2.610  1.2281  1.7269  0.1886
 2373SOL    MW4 9260   2.568   5.043   2.553 -0.4142 -0.4209 -0.0276
 2374SOL     OW 9261   2.881   0.480   4.401 -0.4357  0.3481  0.0673
 2374SOL    HW2 9262   2.913   0.464   4.490 -1.5860 -2.2815  0.1027
 2374SOL    HW3 9263   2.836   0.564   4.405 -2.0698 -0.5535  2.4826
 2374SOL    MW4 9264   2.880   0.489   4.413  0.1967 -0.1102 -0.8222
 2375SOL     OW 9265   1.401   4.517   3.037 -0.2379 -0.0464  0.3924
 2375SOL    HW2 9266   1.408   4.422   3.036  1.1161  0.0321  0.5380
 2375SOL    HW3 9267   1.465   4.545   3.102 -0.1059  0.9960 -0.1605
 2375SOL    MW4 9268   1.410   4.508   3.045  0.0915 -0.8180 -0.1591
 2376SOL     OW 9269   0.531   4.085   5.704  0.8458  0.2040  0.6376
 2376SOL    HW2 9270   0.441   4.096   5.734 -0.0906  0.9213 -2.1599
 2376SOL    HW3 9271   0.567   4.174   5.704  1.2774  0.0349  0.8746
 2376SOL    MW4 9272   0.524   4.098   5.708 -0.3763 -0.3036 -0.3973
 2377SOL     OW 9273   0.689   1.596   4.878  0.3242  0.7102  0.0917
 2377SOL    HW2 9274   0.626   1.580   4.807 -0.4823  0.4357  0.8497
 2377SOL    HW3 9275   0.761   1.643   4.836 -0.7899  1.8360 -0.6264
 2377SOL    MW4 9276   0.690   1.600   4.863  0.2101 -0.3828  0.0908
 2378SOL     OW 9277   2.250   5.202   2.095  0.2312 -0.3446 -0.5222
 2378SOL    HW2 9278   2.193   5.131   2.065 -0.5798  0.2246 -0.3456
 2378SOL    HW3 9279   2.191   5.265   2.136  1.0976 -0.1731  0.4988
 2378SOL    MW4 9280   2.235   5.201   2.096 -0.3047 -0.1906  0.2034
 2379SOL     OW 9281   1.468   3.780   2.964 -0.3884 -0.6072 -0.7711
 2379SOL    HW2 9282   1.390   3.736   2.997 -0.1055 -0.9146 -0.5081
 2379SOL    HW3 9283   1.539   3.717   2.977 -0.4341 -1.2512 -3.0774
 2379SOL    MW4 9284   1.467   3.766   2.970  0.4581  0.2163 -0.2175
 2380SOL     OW 9285   1.552   5.475   1.518  0.5591 -0.0129  0.2117
 2380SOL    HW2 9286   1.612   5.501   1.588 -0.8662  2.0829  0.7389
 2380SOL    HW3 9287   1.479   5.432   1.564 -0.0288  0.6951 -0.0436
 2380SOL    MW4 9288   1.550   5.473   1.533  0.7185 -0.2528 -0.6499
 2381SOL     OW 9289   3.068   1.336   5.002 -0.1395 -0.6540 -0.2060
 2381SOL    HW2 9290   2.987   1.337   4.951 -0.5134 -1.7218  0.3214
 2381SOL    HW3 9291   3.045   1.379   5.085  0.2801  0.4571 -0.6399
 2381SOL    MW4 9292   3.054   1.342   5.007  0.1113 -0.6991  0.2430
 2382SOL     OW 9293   4.048   1.702   4.916  0.1950  0.3059 -0.4743
 2382SOL    HW2 9294   3.993   1.637   4.873 -0.9307  0.8135  0.1462
 2382SOL    HW3 9295   3.986   1.763   4.957  1.2115  1.3631 -0.4340
 2382SOL    MW4 9296   4.033   1.702   4.915  0.0694  0.4713  0.2166
 2383SOL     OW 9297   2.764   3.968   4.611  0.2794  0.1782 -0.4553
 2383SOL    HW2 9298   2.697   4.036   4.622  0.5807  0.8378 -2.2972
 2383SOL    HW3 9299   2.729   3.893   4.659 -1.2604  0.8496 -0.4478
 2383SOL    MW4 9300   2.751   3.967   4.619  0.1908 -0.5649 -0.2902
 2384SOL     OW 9301   3.568   1.415   6.139 -0.6302 -0.0028 -0.2683
 2384SOL    HW2 9302   3.537   1.476   6.206  0.2588 -1.4707  1.6025
 2384SOL    HW3 9303   3.610   1.470   6.073  0.8619  1.3980  1.7378
 2384SOL    MW4 9304   3.569   1.430   6.139  0.0167 -0.1592  0.0697
 2385SOL     OW 9305   5.991   2.255   1.610 -0.0498 -0.1042 -0.2105
 2385SOL    HW2 9306   6.065   2.238   1.669  0.5363  0.8923 -0.6484
 2385SOL    HW3 9307   5.934   2.313   1.660 -0.8568 -1.3482  0.3575
 2385SOL    MW4 9308   5.993   2.260   1.625  0.0018  0.2225 -0.2804
 2386SOL     OW 9309   1.218   4.482   1.669 -0.0418 -0.3963 -0.1183
 2386SOL    HW2 9310   1.128   4.486   1.703  0.1814 -0.2684  0.4632
 2386SOL    HW3 9311   1.214   4.416   1.600 -0.2456 -1.5872  0.9865
 2386SOL    MW4 9312   1.206   4.474   1.664  0.0317 -0.4872  0.4491
 2387SOL     OW 9313   2.080   2.446   0.864 -0.0706 -0.4973  0.2532
 2387SOL    HW2 9314   2.077   2.365   0.916 -0.5044  0.4748  1.7889
 2387SOL    HW3 9315   1.998   2.445   0.814 -0.4713 -0.5893  0.9056
 2387SOL    MW4 9316   2.069   2.435   0.864 -0.4505  0.2879 -0.2596
 2388SOL     OW 9317   5.750   2.685   5.530  0.2296  0.2261 -0.1859
 2388SOL    HW2 9318   5.668   2.698   5.482 -0.2078  0.8928  0.7197
 2388SOL    HW3 9319   5.737   2.730   5.613  1.5985  0.5443 -0.1104
 2388SOL    MW4 9320   5.738   2.693   5.534  0.3708 -0.1453 -0.3306
 2389SOL     OW 9321   5.489   1.020   1.667 -0.2132 -0.4384 -0.6551
 2389SOL    HW2 9322   5.482   0.933   1.629 -0.0263 -1.0716  0.7171
 2389SOL    HW3 9323   5.582   1.031   1.686 -0.1097  0.4058 -1.5818
 2389SOL    MW4 9324   5.500   1.010   1.665 -0.4337 -0.1112  0.3634
 2390SOL     OW 9325   2.167   6.237   0.628 -0.5387  0.3447  0.1921
 2390SOL    HW2 9326   2.186   6.321   0.586  2.2773  0.1544  0.8477
 2390SOL    HW3 9327   2.129   6.260   0.712 -1.0378  0.9046 -0.1745
 2390SOL    MW4 9328   2.165   6.251   0.633 -0.3146 -0.2327 -0.0244
 2391SOL     OW 9329   0.779   5.765   0.435  0.5199  0.1489  0.1212
 2391SOL    HW2 9330   0.725   5.843   0.446  1.3870  0.8864 -0.7084
 2391SOL    HW3 9331   0.812   5.771   0.346  2.4897  0.0582  0.8113
 2391SOL    MW4 9332   0.776   5.776   0.425  0.0206  0.0685 -0.7240
 2392SOL     OW 9333   4.120   3.896   3.128  0.1948  0.4752 -0.3270
 2392SOL    HW2 9334   4.128   3.990   3.110  0.9106  0.5131  0.1660
 2392SOL    HW3 9335   4.101   3.857   3.043 -0.5191  1.1087 -0.4737
 2392SOL    MW4 9336   4.118   3.903   3.115 -0.5821  0.2313  0.6105
 2393SOL     OW 9337   4.406   6.231   2.998 -0.0679 -0.1976  0.3864
 2393SOL    HW2 9338   4.496   6.223   2.964  0.6775 -1.7208  2.5127
 2393SOL    HW3 9339   4.397   6.324   3.020  0.9819 -0.0127  0.0955
 2393SOL    MW4 9340   4.417   6.242   2.996  0.6243  0.1704 -0.2169
 2394SOL     OW 9341   4.577   3.912   0.047  0.1175 -0.1326 -0.3392
 2394SOL    HW2 9342   4.535   3.936  -0.036  1.0697  0.6023 -0.6219
 2394SOL    HW3 9343   4.587   3.817   0.041 -0.1517 -0.1342 -0.9129
 2394SOL    MW4 9344   4.573   3.902   0.035  0.1497 -0.0374 -0.5121
 2395SOL     OW 9345   6.335   4.929   5.392  0.4556  0.3043  0.9386
 2395SOL    HW2 9346   6.411   4.971   5.432  1.1141 -0.1330  0.1929
 2395SOL    HW3 9347   6.288   4.999   5.348  0.5863  0.5297  1.1582
 2395SOL    MW4 9348   6.339   4.943   5.391  0.0207  0.4250 -0.3508
 2396SOL     OW 9349   2.394   4.135   3.103  0.4178 -0.2303  0.0482
 2396SOL    HW2 9350   2.418   4.162   3.014 -0.3134  0.0043 -0.0803
 2396SOL    HW3 9351   2.299   4.134   3.103  0.3103  2.4241  1.5919
 2396SOL    MW4 9352   2.385   4.138   3.091 -0.0443  0.5771 -0.1224
 2397SOL     OW 9353   1.798   0.627   0.349 -0.5779 -0.3886  0.2748
 2397SOL    HW2 9354   1.706   0.641   0.325 -0.7835  0.0900  1.2775
 2397SOL    HW3 9355   1.794   0.601   0.441  0.4575  2.5101  1.2417
 2397SOL    MW4 9356   1.785   0.625   0.358 -0.2535  0.1199 -0.6214
 2398SOL     OW 9357   5.013   0.004   3.374  0.2036  0.2821  0.0660
 2398SOL    HW2 9358   4.995  -0.090   3.369  0.9178  0.1838 -1.0425
 2398SOL    HW3 9359   4.933   0.042   3.408 -1.7738 -0.2373 -3.5567
 2398SOL    MW4 9360   5.000  -0.004   3.378 -0.1536 -0.2226 -0.0808
 2399SOL     OW 9361   5.149   0.828   6.216 -0.1614  0.2233 -0.0452
 2399SOL    HW2 9362   5.170   0.922   6.221 -0.8154  0.4690 -1.3290
 2399SOL    HW3 9363   5.172   0.793   6.302 -1.7701  1.9610  1.1746
 2399SOL    MW4 9364   5.155   0.836   6.228  0.4763  0.5543 -0.5209
 2400SOL     OW 9365   4.508   0.891   3.269 -0.2750 -0.7869  0.2176
 2400SOL    HW2 9366   4.561   0.814   3.250 -1.8963 -1.9241  0.1367
 2400SOL    HW3 9367   4.477   0.921   3.184 -1.4098 -1.3603  0.4187
 2400SOL    MW4 9368   4.511   0.885   3.255  0.2876  0.5112 -0.0202
 2401SOL     OW 9369   5.594   2.461   6.017  0.1361 -0.1898  0.0566
 2401SOL    HW2 9370   5.605   2.397   6.087 -0.2014 -0.2381  0.0691
 2401SOL    HW3 9371   5.503   2.489   6.024  0.4281  0.7137  0.4054
 2401SOL    MW4 9372   5.583   2.456   6.027 -0.4193 -0.1925 -0.1910
 2402SOL     OW 9373   1.918   5.861   0.955 -0.1000 -0.0814 -0.3398
 2402SOL    HW2 9374   1.866   5.781   0.965 -2.0087  0.9737 -1.3181
 2402SOL    HW3 9375   1.915   5.903   1.041  0.2546 -0.6516 -0.0394
 2402SOL    MW4 9376   1.911   5.856   0.967 -0.3000  0.3247 -0.0492
 2403SOL     OW 9377   0.481   3.390   4.260 -0.1047  0.3559  0.0824
 2403SOL    HW2 9378   0.506   3.468   4.209  1.3289 -0.9473 -1.3078
 2403SOL    HW3 9379   0.386   3.383   4.246 -1.0964  3.8369  3.2198
 2403SOL    MW4 9380   0.471   3.400   4.251 -0.0840 -0.5125  0.2474
 2404SOL     OW 9381   4.856   1.565   4.099 -0.6429 -0.9826 -0.3143
 2404SOL    HW2 9382   4.904   1.573   4.182 -1.2988  1.8742 -0.1054
 2404SOL    HW3 9383   4.765   1.585   4.123 -0.7243  0.6465 -1.7959
 2404SOL    MW4 9384   4.850   1.569   4.113 -0.0262 -0.0663 -0.6206
 2405SOL     OW 9385   3.038   3.319   2.664  0.0608 -0.0153  0.2651
 2405SOL    HW2 9386   3.079   3.246   2.616 -2.2342 -1.1970 -0.0675
 2405SOL    HW3 9387   3.084   3.397   2.633  0.7662 -1.0639 -1.5131
 2405SOL    MW4 9388   3.049   3.320   2.653  0.0375  0.0627  0.3995
 2406SOL     OW 9389   2.424   1.727   5.019  0.1595  0.5258  0.0302
 2406SOL    HW2 9390   2.516   1.753   5.009 -0.1743  1.2781 -1.2744
 2406SOL    HW3 9391   2.402   1.751   5.109  1.4589 -0.4291  0.6351
 2406SOL    MW4 9392   2.433   1.734   5.029 -0.0145  0.2346  0.0807
 2407SOL     OW 9393   0.461   5.666   3.407 -0.0300  0.2430 -0.3726
 2407SOL    HW2 9394   0.458   5.737   3.471 -0.8428 -1.2668  1.3588
 2407SOL    HW3 9395   0.375   5.625   3.413  0.3324 -0.7422 -1.5227
 2407SOL    MW4 9396   0.449   5.670   3.417  0.4210  0.2870 -0.7205
 2408SOL     OW 9397   4.770   2.737   0.130 -0.1643 -0.0002 -0.4387
 2408SOL    HW2 9398   4.757   2.692   0.046 -0.2768 -0.4351 -0.1872
 2408SOL    HW3 9399   4.716   2.815   0.124 -1.1799 -0.6780 -0.2649
 2408SOL    MW4 9400   4.761   2.742   0.118  0.2670 -0.0500  0.1343
 2409SOL     OW 9401   5.681   6.279   3.675  0.4088 -0.3416  0.1975
 2409SOL    HW2 9402   5.699   6.287   3.581 -0.2360  0.1769  0.1065
 2409SOL    HW3 9403   5.591   6.246   3.678 -0.7003  2.4901  0.6211
 2409SOL    MW4 9404   5.671   6.275   3.663  0.7117  0.4177  0.1101
 2410SOL     OW 9405   3.476   2.004   4.399 -0.4774 -0.0798  0.3263
 2410SOL    HW2 9406   3.568   2.002   4.374 -0.3807  0.6063  0.6101
 2410SOL    HW3 9407   3.475   2.046   4.484 -1.2057  1.5408 -0.4388
 2410SOL    MW4 9408   3.488   2.009   4.407 -0.2552 -0.3079 -0.0379
 2411SOL     OW 9409   1.389   6.120   2.189  0.7658 -0.1036  0.3309
 2411SOL    HW2 9410   1.305   6.115   2.234  0.4547  0.1292 -0.2115
 2411SOL    HW3 9411   1.446   6.169   2.249  0.2538  0.5235  0.3157
 2411SOL    MW4 9412   1.385   6.126   2.203 -0.3570  0.2953  0.2234
 2412SOL     OW 9413   2.401   0.281   4.613 -0.5665  0.2328  0.0998
 2412SOL    HW2 9414   2.447   0.265   4.695  0.3734  1.2036 -0.2224
 2412SOL    HW3 9415   2.455   0.345   4.566 -0.9748 -0.4484 -1.3691
 2412SOL    MW4 9416   2.414   0.287   4.617  0.8529  0.3615 -0.6872
 2413SOL     OW 9417   5.252   1.831   2.909 -0.7900 -0.1990  0.0865
 2413SOL    HW2 9418   5.160   1.804   2.914 -0.4281 -1.3243  1.4530
 2413SOL    HW3 9419   5.279   1.806   2.821 -1.7202 -0.0711 -0.2517
 2413SOL    MW4 9420   5.243   1.824   2.898  0.2344  0.2938  0.2010
 2414SOL     OW 9421   1.304   2.417   2.130 -0.4216 -0.0589  0.4100
 2414SOL    HW2 9422   1.332   2.441   2.218  0.3729 -1.8713  0.6926
 2414SOL    HW3 9423   1.298   2.322   2.131  2.8070 -0.4834 -2.3516
 2414SOL    MW4 9424   1.307   2.408   2.142 -0.2978  0.2266  0.0965
 2415SOL     OW 9425   2.796   2.026   3.377 -0.3602  0.0003 -0.2382
 2415SOL    HW2 9426   2.763   1.944   3.341  0.7121 -0.9588  0.8578
 2415SOL    HW3 9427   2.888   2.029   3.350  0.2556 -0.3680  1.6607
 2415SOL    MW4 9428   2.804   2.016   3.369 -0.4009 -0.5581 -0.0193
 2416SOL     OW 9429   2.261   2.405   0.449 -0.5055  0.3442 -0.8273
 2416SOL    HW2 9430   2.289   2.368   0.533  1.4817  2.3644 -0.5094
 2416SOL    HW3 9431   2.205   2.338   0.411 -2.8005 -0.0447  2.7785
 2416SOL    MW4 9432   2.257   2.391   0.455  0.1261 -0.0853  0.4485
 2417SOL     OW 9433   2.913   1.419   5.243 -0.3371 -0.0714 -0.1614
 2417SOL    HW2 9434   2.905   1.324   5.249 -1.5504  0.0404  0.3802
 2417SOL    HW3 9435   2.883   1.451   5.328 -1.5098  0.8502 -0.8819
 2417SOL    MW4 9436   2.908   1.411   5.255 -0.1660 -0.2639 -0.0012
 2418SOL     OW 9437   5.784   3.891   1.762  0.3285  0.1151  0.1865
 2418SOL    HW2 9438   5.729   3.962   1.730 -1.7241 -1.7030 -0.5413
 2418SOL    HW3 9439   5.827   3.856   1.684 -0.1765 -0.6404  0.2352
 2418SOL    MW4 9440   5.783   3.896   1.748  0.5413 -0.0537  0.1821
 2419SOL     OW 9441   0.128   1.671   0.517  0.1411  0.0272  0.0204
 2419SOL    HW2 9442   0.192   1.633   0.457  0.5053  0.5697  0.0548
 2419SOL    HW3 9443   0.135   1.616   0.596 -0.1328 -0.5084 -0.3223
 2419SOL    MW4 9444   0.138   1.659   0.520 -0.0264  0.0580  0.4005
 2420SOL     OW 9445   5.592   6.398   1.128  0.1720  0.4271  0.1875
 2420SOL    HW2 9446   5.529   6.467   1.106  0.4457  0.4989 -0.4017
 2420SOL    HW3 9447   5.582   6.386   1.222 -0.3512  0.8058  0.1895
 2420SOL    MW4 9448   5.583   6.406   1.137 -0.0751 -0.0556 -0.2462
 2421SOL     OW 9449   5.768   0.148   5.540 -0.1594  0.3521 -0.3999
 2421SOL    HW2 9450   5.778   0.181   5.451  1.6049  2.0800  0.3763
 2421SOL    HW3 9451   5.848   0.098   5.557 -1.0944 -1.1316 -0.2331
 2421SOL    MW4 9452   5.780   0.146   5.531  0.7645 -0.0891 -0.0730
 2422SOL     OW 9453   5.604   3.069   3.281  0.3392 -0.1503 -0.0638
 2422SOL    HW2 9454   5.546   3.022   3.341  0.7126 -0.0285  0.3947
 2422SOL    HW3 9455   5.576   3.040   3.194 -0.1704 -0.3676  0.1678
 2422SOL    MW4 9456   5.593   3.059   3.277  0.3675 -0.1549  0.3336
 2423SOL     OW 9457   0.849   5.756   0.854 -0.6087  0.7045 -0.1665
 2423SOL    HW2 9458   0.787   5.828   0.842 -0.8403  0.7147  0.9470
 2423SOL    HW3 9459   0.827   5.694   0.784 -1.6217  0.8881 -0.0312
 2423SOL    MW4 9460   0.838   5.757   0.843 -0.4915 -0.4819  0.0965
 2424SOL     OW 9461   3.935   3.288   0.466  0.1576  0.6248 -0.3139
 2424SOL    HW2 9462   3.901   3.377   0.458 -0.8280  0.2482 -0.4743
 2424SOL    HW3 9463   3.884   3.237   0.402  0.4178 -0.1261  0.0666
 2424SOL    MW4 9464   3.924   3.293   0.456 -0.6911  0.0362 -0.0482
 2425SOL     OW 9465   4.796   4.437   2.743  0.3192  0.4456 -0.0942
 2425SOL    HW2 9466   4.848   4.500   2.792  0.3054  0.4481 -0.0829
 2425SOL    HW3 9467   4.829   4.444   2.653  1.9317 -1.1885  0.3171
 2425SOL    MW4 9468   4.807   4.446   2.737 -0.0792 -0.3771  1.0180
 2426SOL     OW 9469   5.482   5.193   2.984  0.4187  0.1065 -0.0678
 2426SOL    HW2 9470   5.419   5.209   3.054  0.2375 -1.0049  0.0424
 2426SOL    HW3 9471   5.567   5.217   3.022  0.2340  0.1855  0.2916
 2426SOL    MW4 9472   5.485   5.198   2.998  0.2784  0.4991  0.3054
 2427SOL     OW 9473   0.453   1.398   2.072 -0.7752 -0.8433  0.0002
 2427SOL    HW2 9474   0.403   1.454   2.131  0.0136  0.3025 -0.3759
 2427SOL    HW3 9475   0.402   1.317   2.067 -3.0421  0.5550 -1.0328
 2427SOL    MW4 9476   0.440   1.395   2.079  0.1720  0.4622 -0.1389
 2428SOL     OW 9477   2.704   1.757   0.671 -0.2787  0.1653  0.1045
 2428SOL    HW2 9478   2.662   1.809   0.602 -0.2533 -0.2053 -0.1928
 2428SOL    HW3 9479   2.760   1.696   0.625 -0.4345 -0.2413  0.4421
 2428SOL    MW4 9480   2.706   1.756   0.656 -0.4261  0.1812 -0.0077
 2429SOL     OW 9481   4.986   6.356   0.315 -0.5366 -0.0751 -0.1924
 2429SOL    HW2 9482   5.058   6.374   0.375 -0.2576  1.7956 -1.0153
 2429SOL    HW3 9483   4.995   6.263   0.293  1.7700  0.1567 -0.4412
 2429SOL    MW4 9484   4.997   6.346   0.320 -0.5180 -0.4605  0.2470
 2430SOL     OW 9485   5.922   3.388   2.774  0.1807  0.0360 -0.1648
 2430SOL    HW2 9486   5.970   3.305   2.772  1.3346  0.6695  0.1741
 2430SOL    HW3 9487   5.864   3.385   2.698 -2.5388 -2.6277  1.7520
 2430SOL    MW4 9488   5.921   3.376   2.764 -0.1940  0.2464  0.4248
 2431SOL     OW 9489   6.178   2.549   1.763  0.1020  0.3570  0.2706
 2431SOL    HW2 9490   6.145   2.508   1.843  0.3166  2.2753  1.4065
 2431SOL    HW3 9491   6.262   2.587   1.789  1.1906 -0.7301 -1.4392
 2431SOL    MW4 9492   6.185   2.549   1.777  0.4895  0.0002 -0.3273
 2432SOL     OW 9493   2.221   4.632   0.319 -0.4196 -0.3000 -0.6428
 2432SOL    HW2 9494   2.229   4.713   0.269  1.5013  0.0132  0.0703
 2432SOL    HW3 9495   2.146   4.647   0.377  0.4399  1.3865  0.1260
 2432SOL    MW4 9496   2.212   4.645   0.320 -0.5363  0.1541 -0.2418
 2433SOL     OW 9497   5.011   3.413   0.415  0.8224  1.2040 -0.5894
 2433SOL    HW2 9498   5.017   3.333   0.363  2.2576  0.0273  1.2158
 2433SOL    HW3 9499   5.098   3.452   0.408  0.5596  1.8451 -0.3281
 2433SOL    MW4 9500   5.023   3.408   0.407 -0.4517  0.7967  0.6736
 2434SOL     OW 9501   5.273   1.769   2.640 -0.2406  0.0238  0.4705
 2434SOL    HW2 9502   5.226   1.690   2.666 -0.0245 -0.8013 -1.4433
 2434SOL    HW3 9503   5.217   1.810   2.575  1.0907 -0.3674 -1.0054
 2434SOL    MW4 9504   5.260   1.764   2.635 -0.1688 -0.3162 -0.1610
 2435SOL     OW 9505   6.401   2.899   4.826 -0.3426 -0.1078  0.0379
 2435SOL    HW2 9506   6.360   2.929   4.907 -3.3810  0.9663 -1.7416
 2435SOL    HW3 9507   6.379   2.805   4.822 -2.2216  0.3040 -0.5423
 2435SOL    MW4 9508   6.393   2.890   4.836 -0.6122  0.9220  0.1416
 2436SOL     OW 9509   0.816   0.234   5.862 -0.3743  0.0801  0.0460
 2436SOL    HW2 9510   0.903   0.247   5.900 -0.2941 -0.4330  0.0460
 2436SOL    HW3 9511   0.799   0.313   5.811 -0.2145  0.4959  0.6377
 2436SOL    MW4 9512   0.825   0.246   5.860  0.1503 -0.6391  0.3336
 2437SOL     OW 9513   6.012   2.751   1.680 -0.0464 -0.3902 -0.2024
 2437SOL    HW2 9514   5.936   2.733   1.735  0.8227  0.9555  1.5264
 2437SOL    HW3 9515   6.083   2.703   1.720  0.5169  0.2667 -0.3984
 2437SOL    MW4 9516   6.011   2.742   1.692  0.3885 -0.3701  0.7694
 2438SOL     OW 9517   0.339   0.861   1.993  0.4413 -0.1060  0.0674
 2438SOL    HW2 9518   0.318   0.920   1.920 -0.1311 -0.5259 -0.1206
 2438SOL    HW3 9519   0.254   0.840   2.032  0.6067 -0.9867 -0.0150
 2438SOL    MW4 9520   0.325   0.866   1.988  0.3503  0.1456  0.2558
 2439SOL     OW 9521   3.154   2.246   1.420  0.2399 -0.1366 -0.3011
 2439SOL    HW2 9522   3.089   2.185   1.386  0.7318 -1.4534  1.0377
 2439SOL    HW3 9523   3.238   2.205   1.400  0.5856  0.1742  0.4847
 2439SOL    MW4 9524   3.156   2.233   1.413  0.2853  0.1831  0.6022
 2440SOL     OW 9525   0.820   1.602   5.535  0.4053  0.5027 -0.1693
 2440SOL    HW2 9526   0.779   1.519   5.515 -0.7133  0.9571  0.1891
 2440SOL    HW3 9527   0.793   1.622   5.624 -0.3926  1.8393 -0.6707
 2440SOL    MW4 9528   0.811   1.594   5.544  0.5395  0.4614  0.0200
 2441SOL     OW 9529   3.232   0.314   4.314 -0.5789  0.2285 -0.6051
 2441SOL    HW2 9530   3.147   0.280   4.342 -0.1135  1.8873  3.5516
 2441SOL    HW3 9531   3.215   0.358   4.232 -3.1118 -1.7341 -1.2657
 2441SOL    MW4 9532   3.218   0.315   4.307  0.1841 -0.5931 -0.5556
 2442SOL     OW 9533   0.501   5.742   1.914  0.0097  0.0805 -0.6393
 2442SOL    HW2 9534   0.446   5.765   1.839  0.6993 -0.3032 -1.2775
 2442SOL    HW3 9535   0.440   5.708   1.979 -0.4438 -1.1046 -1.6394
 2442SOL    MW4 9536   0.486   5.741   1.913  0.1676  0.3702  0.4816
 2443SOL     OW 9537   3.804   5.634   3.909 -0.5257 -0.1505  0.2563
 2443SOL    HW2 9538   3.749   5.564   3.944 -0.1401 -1.1803 -1.1240
 2443SOL    HW3 9539   3.851   5.668   3.985 -2.7679  0.5372  1.4316
 2443SOL    MW4 9540   3.803   5.630   3.924  0.1712  0.2431 -0.4180
 2444SOL     OW 9541   1.835   6.252   4.205 -0.5514  0.2159  0.5589
 2444SOL    HW2 9542   1.884   6.196   4.264 -0.0437  0.8302  0.7366
 2444SOL    HW3 9543   1.893   6.264   4.130 -0.6711  0.4655  0.5052
 2444SOL    MW4 9544   1.849   6.246   4.203 -0.4183  0.1603 -0.3941
 2445SOL     OW 9545   4.155   2.298   0.285 -0.0672  0.3320 -0.0044
 2445SOL    HW2 9546   4.100   2.219   0.284  0.0920  0.2194 -0.0170
 2445SOL    HW3 9547   4.145   2.333   0.373  1.5925 -0.9400  0.7362
 2445SOL    MW4 9548   4.146   2.292   0.296  0.0933 -0.1427 -0.3087
 2446SOL     OW 9549   1.164   2.968   4.176 -0.4855  0.0031 -0.4723
 2446SOL    HW2 9550   1.223   2.967   4.101 -0.5908 -2.3136 -0.5843
 2446SOL    HW3 9551   1.214   3.011   4.246  0.8576 -0.7962 -0.9207
 2446SOL    MW4 9552   1.178   2.974   4.175 -0.0701  0.0181  0.4443
 2447SOL     OW 9553   3.272   2.554   3.877  0.0480  0.2164  0.2950
 2447SOL    HW2 9554   3.221   2.486   3.921  1.0495 -0.2890  0.7093
 2447SOL    HW3 9555   3.336   2.506   3.824  0.3433  0.8360  0.0827
 2447SOL    MW4 9556   3.274   2.539   3.876 -0.0116  0.1064 -0.2204
 2448SOL     OW 9557   6.143   2.878   4.644 -0.4420 -0.1409 -0.5275
 2448SOL    HW2 9558   6.212   2.855   4.581  0.0978  1.0791 -0.4141
 2448SOL    HW3 9559   6.190   2.918   4.717 -1.2251  0.1056 -0.1480
 2448SOL    MW4 9560   6.158   2.880   4.646 -0.4179  0.1515 -0.1585
 2449SOL     OW 9561   4.105   2.128   1.569 -0.1496  0.5040 -0.1690
 2449SOL    HW2 9562   4.166   2.122   1.642  0.2403 -1.0821 -0.5998
 2449SOL    HW3 9563   4.044   2.197   1.595 -0.3299 -0.3589  1.8976
 2449SOL    MW4 9564   4.105   2.137   1.582  0.1917  0.5683  0.5683
 2450SOL     OW 9565   4.393   4.264   4.956  0.1192  0.5395 -0.4898
 2450SOL    HW2 9566   4.455   4.241   5.026 -0.2009 -0.6933 -0.5764
 2450SOL    HW3 9567   4.345   4.339   4.990 -2.5234 -2.1369  2.2744
 2450SOL    MW4 9568   4.395   4.271   4.970 -0.0404 -0.7939  0.1392
 2451SOL     OW 9569   3.208   3.297   5.407  0.2701 -0.3989  0.5597
 2451SOL    HW2 9570   3.158   3.232   5.358  0.8442 -1.1826  0.9797
 2451SOL    HW3 9571   3.258   3.344   5.341 -2.3640  1.7052 -0.1024
 2451SOL    MW4 9572   3.208   3.294   5.392  0.0551 -0.0885  0.1328
 2452SOL     OW 9573   5.645   5.005   5.045  0.4941  0.1961 -0.3331
 2452SOL    HW2 9574   5.740   5.000   5.038  0.4636 -0.1937 -0.5052
 2452SOL    HW3 9575   5.627   4.990   5.138  0.5295 -1.0960 -0.5083
 2452SOL    MW4 9576   5.655   5.002   5.056 -0.3676 -0.4163  0.0702
 2453SOL     OW 9577   6.043   4.320   6.046 -0.0529  0.3732  0.2846
 2453SOL    HW2 9578   6.047   4.308   6.141 -0.9678 -0.1018  0.2800
 2453SOL    HW3 9579   6.040   4.415   6.034 -1.4645  0.4326  0.8375
 2453SOL    MW4 9580   6.043   4.331   6.057 -0.4075 -0.2867 -0.3394
 2454SOL     OW 9581   2.803   2.142   3.632 -0.3287 -0.1854 -0.3349
 2454SOL    HW2 9582   2.797   2.236   3.621  1.5796 -0.0788 -0.7614
 2454SOL    HW3 9583   2.790   2.106   3.544 -0.0922 -0.2611 -0.3397
 2454SOL    MW4 9584   2.800   2.149   3.619 -0.3833  0.7381  0.5312
 2455SOL     OW 9585   1.456   5.649   3.723 -0.0797 -0.1480  0.3648
 2455SOL    HW2 9586   1.455   5.743   3.707  1.4632  0.1603  1.7416
 2455SOL    HW3 9587   1.502   5.639   3.807  0.7607 -2.1868 -0.2577
 2455SOL    MW4 9588   1.462   5.660   3.732 -0.3918  0.2246  0.4359
 2456SOL     OW 9589   2.690   0.650   5.312 -0.1917 -0.9046  0.1122
 2456SOL    HW2 9590   2.626   0.580   5.329  0.0812 -1.4399 -0.9371
 2456SOL    HW3 9591   2.770   0.603   5.289  0.3465 -0.2339  0.6189
 2456SOL    MW4 9592   2.692   0.634   5.311 -0.0581  0.4673 -0.3198
 2457SOL     OW 9593   4.778   2.232   1.627  0.1341 -0.4450 -0.5247
 2457SOL    HW2 9594   4.713   2.275   1.683 -0.9748 -0.2480 -1.8888
 2457SOL    HW3 9595   4.760   2.139   1.636  0.7005 -0.4781  0.2997
 2457SOL    MW4 9596   4.767   2.226   1.635 -0.0530  0.1733 -0.3503
 2458SOL     OW 9597   5.158   5.079   4.207 -0.1394  0.1680  0.4950
 2458SOL    HW2 9598   5.229   5.109   4.264 -1.0643  0.6759  1.4168
 2458SOL    HW3 9599   5.184   4.991   4.181 -0.1773 -0.5484  2.6361
 2458SOL    MW4 9600   5.170   5.071   4.211 -0.2525  0.3485  0.5801
 2459SOL     OW 9601   0.354   3.815   4.617 -0.9428  0.0523 -0.0935
 2459SOL    HW2 9602   0.375   3.827   4.525  0.2461  0.9867  0.2804
 2459SOL    HW3 9603   0.290   3.744   4.617 -0.2203 -0.6557 -1.5620
 2459SOL    MW4 9604   0.348   3.807   4.605 -0.2889 -0.1061  0.0250
 2460SOL     OW 9605   2.511   4.349   2.544  0.1540  0.1282 -0.4606
 2460SOL    HW2 9606   2.477   4.398   2.620  1.2631  0.8583 -0.4214
 2460SOL    HW3 9607   2.576   4.290   2.581 -0.1970 -0.4134 -0.6971
 2460SOL    MW4 9608   2.515   4.348   2.559 -0.1563 -0.6854 -0.4844
 2461SOL     OW 9609   4.268   4.301   1.006 -0.2845 -0.6501  0.5544
 2461SOL    HW2 9610   4.173   4.306   1.014 -0.2678 -0.3263  0.5500
 2461SOL    HW3 9611   4.300   4.384   1.040 -0.2235  0.8699 -2.8216
 2461SOL    MW4 9612   4.260   4.312   1.012 -0.3179 -0.6760  0.0763
 2462SOL     OW 9613   3.319   4.137   3.472  0.5123  0.5403 -0.5165
 2462SOL    HW2 9614   3.379   4.211   3.460 -0.1605  1.0484 -0.8620
 2462SOL    HW3 9615   3.357   4.067   3.419  0.8361  0.8363 -0.6834
 2462SOL    MW4 9616   3.332   4.138   3.463 -0.3630 -0.4958 -0.0709
 2463SOL     OW 9617   0.097   3.742   0.302 -0.2267  0.2412 -0.7882
 2463SOL    HW2 9618   0.027   3.804   0.320 -1.3285 -0.9175 -0.9225
 2463SOL    HW3 9619   0.066   3.693   0.225  0.9302  0.0092 -1.1189
 2463SOL    MW4 9620   0.083   3.743   0.294  0.0994 -0.3480 -0.5591
 2464SOL     OW 9621   5.767   6.273   3.366 -0.3533 -0.3082 -0.5432
 2464SOL    HW2 9622   5.860   6.265   3.346  0.6460  0.0595  3.2213
 2464SOL    HW3 9623   5.758   6.361   3.403 -2.3011 -0.2197 -1.1037
 2464SOL    MW4 9624   5.778   6.284   3.368 -0.3582  0.1767 -0.0265
 2465SOL     OW 9625   5.397   1.702   5.701  0.2378  0.4815  0.4649
 2465SOL    HW2 9626   5.419   1.611   5.682 -2.3234  0.2407 -1.9435
 2465SOL    HW3 9627   5.479   1.750   5.687  1.3086 -1.2502  0.4782
 2465SOL    MW4 9628   5.411   1.696   5.697 -0.1364  0.6102 -0.1471
 2466SOL     OW 9629   2.568   3.751   3.311  0.0280 -0.0500 -0.5112
 2466SOL    HW2 9630   2.597   3.744   3.220  0.0507  0.6163 -0.5621
 2466SOL    HW3 9631   2.553   3.845   3.324 -3.5882 -0.4250 -0.9508
 2466SOL    MW4 9632   2.570   3.762   3.301 -0.1885  0.0742  0.6956
 2467SOL     OW 9633   0.108   2.678   4.143  0.2829  0.0955  0.3006
 2467SOL    HW2 9634   0.170   2.650   4.075 -1.1865 -2.2496 -0.1748
 2467SOL    HW3 9635   0.154   2.662   4.225  0.7254 -0.5734 -0.0685
 2467SOL    MW4 9636   0.123   2.672   4.145  0.5594  0.4273 -0.0225
 2468SOL     OW 9637   5.916   3.603   4.916 -0.6153 -0.3414  0.0320
 2468SOL    HW2 9638   5.830   3.589   4.878 -0.5086 -1.3767  0.1383
 2468SOL    HW3 9639   5.947   3.686   4.877 -1.7690  0.2018  0.2368
 2468SOL    MW4 9640   5.909   3.612   4.906  0.6588 -0.4161  0.0580
 2469SOL     OW 9641   0.022   1.075   1.307  0.5425 -0.2232 -0.6459
 2469SOL    HW2 9642   0.112   1.109   1.312  0.1623  1.3978 -3.1912
 2469SOL    HW3 9643   0.033   0.984   1.278  1.3787  0.2123 -1.7877
 2469SOL    MW4 9644   0.035   1.067   1.304 -0.4444 -0.1537  0.2877
 2470SOL     OW 9645   2.712   2.460   3.199 -0.3430  0.3920 -0.3519
 2470SOL    HW2 9646   2.806   2.464   3.185 -0.4232  2.0314 -0.6547
 2470SOL    HW3 9647   2.699   2.383   3.254  1.2793  0.6295  0.4349
 2470SOL    MW4 9648   2.723   2.451   3.205  0.2285 -0.1376 -0.0300
 2471SOL     OW 9649   4.053   3.257   3.579 -0.2342 -0.1825 -0.7733
 2471SOL    HW2 9650   4.102   3.322   3.528  1.6288  1.0539  2.3072
 2471SOL    HW3 9651   4.120   3.195   3.608 -1.5913 -2.0946 -1.4991
 2471SOL    MW4 9652   4.068   3.258   3.576  0.3943 -0.1026  0.2682
 2472SOL     OW 9653   3.181   5.315   5.876  0.2501 -0.2946 -0.5212
 2472SOL    HW2 9654   3.275   5.325   5.862  0.3870  0.1274  0.5998
 2472SOL    HW3 9655   3.150   5.403   5.897 -0.5336 -0.3047 -1.5295
 2472SOL    MW4 9656   3.190   5.328   5.877 -0.5215  0.4481 -0.6784
 2473SOL     OW 9657   3.706   6.354   0.766 -0.0002 -0.3868 -0.3637
 2473SOL    HW2 9658   3.711   6.450   0.772  0.8224 -0.4360 -0.1789
 2473SOL    HW3 9659   3.796   6.325   0.778 -0.0362 -1.1148 -1.7287
 2473SOL    MW4 9660   3.718   6.363   0.768  0.1441 -0.0605 -0.5108
 2474SOL     OW 9661   2.655   3.781   3.058 -0.5787  0.0956 -0.0556
 2474SOL    HW2 9662   2.578   3.740   3.020 -1.2735  1.2817  0.0046
 2474SOL    HW3 9663   2.724   3.715   3.052 -1.5858 -0.9647 -0.1508
 2474SOL    MW4 9664   2.654   3.767   3.052  0.6324  0.1564 -0.4834
 2475SOL     OW 9665   1.180   3.704   5.516  0.2652 -0.1319  0.0056
 2475SOL    HW2 9666   1.129   3.756   5.453  0.2247  1.4243  1.2552
 2475SOL    HW3 9667   1.115   3.651   5.562  0.3684 -1.8108 -1.6744
 2475SOL    MW4 9668   1.165   3.704   5.514  0.5507 -0.6965 -0.3325
 2476SOL     OW 9669   4.911   1.122   1.104  0.0951 -0.1501 -0.2347
 2476SOL    HW2 9670   4.836   1.070   1.075  0.1160 -1.7763  2.3331
 2476SOL    HW3 9671   4.897   1.208   1.064 -2.8317 -0.5631 -0.3472
 2476SOL    MW4 9672   4.899   1.127   1.095 -0.0111 -0.2638  0.6842
 2477SOL     OW 9673   5.476   1.307   4.027 -0.6672 -0.6070 -0.5263
 2477SOL    HW2 9674   5.559   1.268   3.998 -1.0102 -0.8932 -1.1419
 2477SOL    HW3 9675   5.417   1.295   3.952 -1.6538 -1.5872  0.3782
 2477SOL    MW4 9676   5.479   1.300   4.013 -0.7965 -0.0854  0.1822
 2478SOL     OW 9677   1.471   3.496   3.239 -0.3032  0.7246 -0.4404
 2478SOL    HW2 9678   1.390   3.539   3.214 -0.3118  1.2097  0.3799
 2478SOL    HW3 9679   1.526   3.567   3.273  0.1115  0.2577 -0.1288
 2478SOL    MW4 9680   1.468   3.511   3.240  0.1189 -0.1517 -0.0609
 2479SOL     OW 9681   3.158   4.280   0.714  0.5930 -0.4281 -0.0979
 2479SOL    HW2 9682   3.134   4.220   0.644 -0.4308 -0.2386  0.0712
 2479SOL    HW3 9683   3.100   4.355   0.703  0.8042 -0.1430  0.6151
 2479SOL    MW4 9684   3.147   4.282   0.704 -0.3123  0.0888 -0.4704
 2480SOL     OW 9685   3.246   4.737   4.386  0.1109  0.5995 -0.1588
 2480SOL    HW2 9686   3.290   4.670   4.334 -2.7929  0.0566 -2.1767
 2480SOL    HW3 9687   3.249   4.816   4.332 -0.0272  0.9869  0.3873
 2480SOL    MW4 9688   3.252   4.739   4.372  0.3709 -0.5553  0.1524
 2481SOL     OW 9689   3.957   1.895   1.311  0.2822 -0.2352  0.1185
 2481SOL    HW2 9690   3.956   1.872   1.404 -0.4763 -1.0421 -0.0731
 2481SOL    HW3 9691   3.924   1.817   1.266  0.0525  0.3533 -0.7805
 2481SOL    MW4 9692   3.952   1.882   1.317  0.0121  0.3492 -0.1442
 2482SOL     OW 9693   4.328   5.315   5.654  0.1441  0.0831  0.1522
 2482SOL    HW2 9694   4.277   5.395   5.641  0.4766  0.1697 -0.6902
 2482SOL    HW3 9695   4.416   5.338   5.626  0.3525 -0.4430  0.3674
 2482SOL    MW4 9696   4.333   5.328   5.649  0.1073  0.3344 -0.8480
 2483SOL     OW 9697   5.831   5.039   5.632  0.0403  0.1375  0.3501
 2483SOL    HW2 9698   5.846   5.003   5.545  0.0761  1.2776 -0.1285
 2483SOL    HW3 9699   5.802   4.964   5.684  0.6938 -0.7011 -0.4575
 2483SOL    MW4 9700   5.830   5.024   5.628 -0.4768 -0.2195 -0.1748
 2484SOL     OW 9701   0.789   4.360   5.466 -0.0801  0.4806 -0.1631
 2484SOL    HW2 9702   0.752   4.383   5.381 -0.8858 -1.6968 -0.4452
 2484SOL    HW3 9703   0.796   4.265   5.465  3.0348  0.5736  0.9343
 2484SOL    MW4 9704   0.785   4.351   5.455  0.0563  0.1842  0.2128
 2485SOL     OW 9705   4.301   0.281   2.178 -0.3506  0.3478 -0.2182
 2485SOL    HW2 9706   4.222   0.239   2.145 -1.0265 -0.9216  2.6957
 2485SOL    HW3 9707   4.363   0.209   2.192  0.6068  1.0759 -0.5462
 2485SOL    MW4 9708   4.299   0.266   2.176  0.0757  0.2813 -0.1679
 2486SOL     OW 9709   4.685   4.065   4.201 -0.4182  0.3662  0.3696
 2486SOL    HW2 9710   4.612   4.116   4.235 -1.5583 -0.4062 -0.8530
 2486SOL    HW3 9711   4.760   4.125   4.204 -1.6767  2.0761 -0.8212
 2486SOL    MW4 9712   4.685   4.080   4.206  0.1826 -0.1186 -0.2497
 2487SOL     OW 9713   1.549   4.000   0.861 -0.2459  0.1463 -0.1306
 2487SOL    HW2 9714   1.472   3.963   0.818 -0.0002 -1.5076  0.7715
 2487SOL    HW3 9715   1.618   3.935   0.847  0.7014  1.0952  0.0097
 2487SOL    MW4 9716   1.548   3.986   0.854 -0.0891 -0.0849 -0.4667
 2488SOL     OW 9717   0.380   2.652   5.341  0.3148 -0.1604  0.0006
 2488SOL    HW2 9718   0.368   2.706   5.263 -1.2260 -1.9651 -1.1168
 2488SOL    HW3 9719   0.333   2.571   5.321 -0.9561 -0.3479  3.1688
 2488SOL    MW4 9720   0.372   2.648   5.328 -0.0837 -0.2769  0.0928
 2489SOL     OW 9721   1.803   1.452   3.543  0.0606 -0.4353  0.1648
 2489SOL    HW2 9722   1.733   1.399   3.581  0.2331 -0.6156  0.2334
 2489SOL    HW3 9723   1.801   1.534   3.594 -1.0926  0.1880 -0.8200
 2489SOL    MW4 9724   1.794   1.456   3.555  0.4823  1.0940  0.1326
 2490SOL     OW 9725   6.280   3.847   0.379  0.0490 -0.0650  0.8451
 2490SOL    HW2 9726   6.187   3.825   0.371  0.6188 -2.0904 -1.2862
 2490SOL    HW3 9727   6.307   3.805   0.461 -0.7960  0.0363  1.1832
 2490SOL    MW4 9728   6.271   3.838   0.389  0.0242 -0.5339 -0.0371
 2491SOL     OW 9729   0.616   5.094   3.696  0.2390 -0.2540  0.2667
 2491SOL    HW2 9730   0.711   5.108   3.692  0.5486 -1.1404  2.8526
 2491SOL    HW3 9731   0.600   5.020   3.637  0.7742  1.1774 -1.7996
 2491SOL    MW4 9732   0.626   5.086   3.688  0.4887  0.0091  0.7134
 2492SOL     OW 9733   0.618   4.898   5.613 -0.2238 -0.0305  0.1408
 2492SOL    HW2 9734   0.707   4.896   5.577  0.0665 -0.0768  0.8455
 2492SOL    HW3 9735   0.578   4.974   5.571  0.0777 -0.1301 -0.3420
 2492SOL    MW4 9736   0.625   4.908   5.602 -0.3952 -0.1272  0.6101
 2493SOL     OW 9737   2.314   4.289   4.223 -0.1464  0.0907  0.0997
 2493SOL    HW2 9738   2.279   4.206   4.256  1.6910 -0.8868 -0.2804
 2493SOL    HW3 9739   2.352   4.267   4.138  0.9880  1.1725  0.3011
 2493SOL    MW4 9740   2.314   4.275   4.216  0.1331  0.2409 -0.3160
 2494SOL     OW 9741   0.232   1.630   4.391  0.4991  0.5265 -0.0833
 2494SOL    HW2 9742   0.187   1.612   4.308  1.6153  2.4214 -1.1736
 2494SOL    HW3 9743   0.184   1.703   4.429 -1.3158 -1.6180  2.1112
 2494SOL    MW4 9744   0.220   1.637   4.385  0.4244 -0.6024  0.4035
 2495SOL     OW 9745   1.379   1.056   5.851 -0.5875  0.5090 -0.0714
 2495SOL    HW2 9746   1.372   1.123   5.918 -2.2372  1.5098 -1.1660
 2495SOL    HW3 9747   1.302   1.001   5.864 -1.0423  0.8306 -1.2151
 2495SOL    MW4 9748   1.368   1.057   5.861 -0.1514 -0.5254  0.5888
 2496SOL     OW 9749   0.314   1.686   2.692 -0.3109 -0.0234 -1.0540
 2496SOL    HW2 9750   0.381   1.645   2.637 -0.1414 -0.6008 -0.4377
 2496SOL    HW3 9751   0.307   1.627   2.768 -0.1682  1.0107 -0.2166
 2496SOL    MW4 9752   0.322   1.672   2.695 -0.2663  0.2849  0.2146
 2497SOL     OW 9753   6.148   0.465   4.460  0.1220  0.1820  0.7495
 2497SOL    HW2 9754   6.134   0.405   4.386  3.2780 -0.1851  0.3085
 2497SOL    HW3 9755   6.060   0.483   4.493 -1.1014 -3.4881 -0.0246
 2497SOL    MW4 9756   6.135   0.460   4.454  0.4788  0.1317 -0.3535
 2498SOL     OW 9757   6.389   3.819   4.618  0.3828 -0.4888 -0.2623
 2498SOL    HW2 9758   6.313   3.827   4.560  0.0627 -1.8206 -0.0606
 2498SOL    HW3 9759   6.353   3.814   4.706  0.7438 -0.4945 -0.1117
 2498SOL    MW4 9760   6.374   3.820   4.622  0.0515  0.0482  0.0925
 2499SOL     OW 9761   1.618   5.535   5.459 -0.4639  0.2006  0.1861
 2499SOL    HW2 9762   1.652   5.571   5.541  0.8877  0.2297 -0.3582
 2499SOL    HW3 9763   1.600   5.612   5.405  1.9389  0.1757 -0.7864
 2499SOL    MW4 9764   1.620   5.550   5.462  0.3804  0.1046 -0.4104
 2500SOL     OW 9765   5.107   4.983   5.576  0.4667  0.7051  0.4197
 2500SOL    HW2 9766   5.179   4.985   5.513  1.6582 -0.0091  1.6994
 2500SOL    HW3 9767   5.073   4.893   5.571  0.5047  0.6717  0.7133
 2500SOL    MW4 9768   5.112   4.971   5.567  0.2651  0.1234 -0.1990
 2501SOL     OW 9769   0.446   0.710   0.719 -0.0348 -0.3990 -0.3740
 2501SOL    HW2 9770   0.468   0.802   0.709 -1.6879  0.1099  0.2719
 2501SOL    HW3 9771   0.350   0.708   0.711 -0.0232 -2.0628 -0.4140
 2501SOL    MW4 9772   0.436   0.722   0.716 -0.6261  0.1531  0.0251
 2502SOL     OW 9773   2.106   2.628   0.342  1.0739 -0.2815  0.4041
 2502SOL    HW2 9774   2.043   2.579   0.395  0.9250 -0.3373  0.1773
 2502SOL    HW3 9775   2.191   2.604   0.377  1.0384 -1.1537 -0.0726
 2502SOL    MW4 9776   2.109   2.618   0.353 -0.1222 -0.2158  0.3423
 2503SOL     OW 9777   2.685   4.837   6.329  0.3647 -0.3740  0.1091
 2503SOL    HW2 9778   2.740   4.785   6.387  2.0845 -0.0968 -1.2108
 2503SOL    HW3 9779   2.615   4.777   6.302  0.4662 -0.9833  1.1535
 2503SOL    MW4 9780   2.683   4.822   6.333  0.3819  0.3540  0.7925
 2504SOL     OW 9781   5.680   2.294   3.590  0.6338  0.9728  0.3131
 2504SOL    HW2 9782   5.710   2.227   3.651  0.2744  0.5631  0.0536
 2504SOL    HW3 9783   5.715   2.267   3.505  0.6743  1.2361  0.2460
 2504SOL    MW4 9784   5.688   2.282   3.587 -0.7410  0.0283 -0.5874
 2505SOL     OW 9785   2.131   5.511   0.047  0.2727 -0.7219 -0.7279
 2505SOL    HW2 9786   2.145   5.424   0.012 -0.7014 -1.9534  1.7219
 2505SOL    HW3 9787   2.213   5.533   0.092 -0.2488 -1.3974  0.6010
 2505SOL    MW4 9788   2.144   5.503   0.048  0.2688  0.2243  0.3324
 2506SOL     OW 9789   0.344   0.404   6.330  0.1960 -0.1931  0.6085
 2506SOL    HW2 9790   0.396   0.324   6.325 -0.0252 -0.4541  2.0009
 2506SOL    HW3 9791   0.257   0.374   6.358  0.0693  0.5016  0.9960
 2506SOL    MW4 9792   0.339   0.389   6.333  0.9438 -0.4420  0.3595
 2507SOL     OW 9793   5.548   0.221   3.723  0.6415  0.2330 -0.1350
 2507SOL    HW2 9794   5.507   0.306   3.737 -0.0096  0.3489 -2.3841
 2507SOL    HW3 9795   5.615   0.216   3.791 -0.2091  1.9328  0.9022
 2507SOL    MW4 9796   5.552   0.232   3.734  0.2417  0.0739  0.1153
 2508SOL     OW 9797   4.320   1.631   4.277  0.6591  0.0638 -0.7901
 2508SOL    HW2 9798   4.364   1.667   4.354  1.5708 -1.4325 -0.5583
 2508SOL    HW3 9799   4.389   1.623   4.212 -0.3730  2.6896 -2.3672
 2508SOL    MW4 9800   4.335   1.634   4.279  0.0327  1.0428  0.0126
 2509SOL     OW 9801   0.588   4.904   1.487 -0.0653 -0.4255 -0.0880
 2509SOL    HW2 9802   0.625   4.988   1.512 -0.6544 -0.0445 -0.4658
 2509SOL    HW3 9803   0.548   4.870   1.567 -0.3538 -0.0615 -0.0738
 2509SOL    MW4 9804   0.588   4.911   1.501 -0.1648  0.2361  0.4367
 2510SOL     OW 9805   4.908   0.452   1.270  0.1584  0.2212 -0.2126
 2510SOL    HW2 9806   4.990   0.418   1.235  0.3183 -0.9945  1.2885
 2510SOL    HW3 9807   4.841   0.391   1.240  0.2297 -0.5416  1.1201
 2510SOL    MW4 9808   4.910   0.440   1.261 -0.4408 -0.1437 -0.1958
 2511SOL     OW 9809   5.897   3.626   2.177  0.1089 -0.0558  0.4126
 2511SOL    HW2 9810   5.808   3.644   2.207  0.0130 -0.5090  0.4111
 2511SOL    HW3 9811   5.886   3.567   2.102  0.3571  0.8619 -0.3683
 2511SOL    MW4 9812   5.884   3.621   2.171 -0.2196  0.3176  0.2431
 2512SOL     OW 9813   6.324   2.889   3.402  0.2682 -0.2236 -0.1339
 2512SOL    HW2 9814   6.371   2.973   3.400  1.2650 -0.6992  1.5258
 2512SOL    HW3 9815   6.392   2.824   3.421 -0.4485 -1.4802 -1.6588
 2512SOL    MW4 9816   6.339   2.892   3.404 -0.2448 -0.1515  0.1380
 2513SOL     OW 9817   1.076   3.913   4.732 -0.8308  0.2805  0.2883
 2513SOL    HW2 9818   1.016   3.844   4.704  1.4110 -1.2910 -0.9587
 2513SOL    HW3 9819   1.127   3.873   4.802 -0.7182  1.3508  0.8431
 2513SOL    MW4 9820   1.075   3.899   4.737 -0.1186  0.2970  0.5946
 2514SOL     OW 9821   5.099   1.646   4.973 -0.3843 -0.1478  0.4113
 2514SOL    HW2 9822   5.121   1.624   5.063  2.0845  0.8396  0.1167
 2514SOL    HW3 9823   5.099   1.562   4.927 -2.4836 -0.7612  1.4274
 2514SOL    MW4 9824   5.102   1.632   4.979 -0.1227 -0.4882  0.4696
 2515SOL     OW 9825   1.894   0.890   1.717 -0.2953  0.2110 -0.0484
 2515SOL    HW2 9826   1.863   0.852   1.800 -1.0742  0.3876 -0.2505
 2515SOL    HW3 9827   1.956   0.958   1.743 -0.3157  0.0687  0.3762
 2515SOL    MW4 9828   1.898   0.894   1.731 -0.2136 -0.0667  1.1384
 2516SOL     OW 9829   4.411   1.471   5.885 -0.0388 -0.1713  0.2207
 2516SOL    HW2 9830   4.384   1.498   5.797  3.1049  1.0495 -0.5263
 2516SOL    HW3 9831   4.418   1.376   5.880 -0.9444 -0.2078 -0.5079
 2516SOL    MW4 9832   4.409   1.462   5.872  0.0526  0.1357  0.4084
 2517SOL     OW 9833   4.349   2.984   2.138  0.7298  0.1324  0.1104
 2517SOL    HW2 9834   4.341   3.042   2.214  1.7038  1.7332 -0.9397
 2517SOL    HW3 9835   4.393   3.038   2.073 -0.3524 -1.0921 -1.7074
 2517SOL    MW4 9836   4.353   2.999   2.140  0.4076  0.3700 -1.0420
 2518SOL     OW 9837   5.823   2.725   2.934  0.0910 -0.2341  0.6956
 2518SOL    HW2 9838   5.740   2.713   2.981 -0.4284 -2.0986 -0.5865
 2518SOL    HW3 9839   5.796   2.746   2.844  1.0313 -0.2009  0.4150
 2518SOL    MW4 9840   5.808   2.726   2.929  0.4570  0.5029  0.1111
 2519SOL     OW 9841   2.606   2.870   5.228  0.7872  0.0903  0.2701
 2519SOL    HW2 9842   2.539   2.874   5.296 -0.0272 -0.4048 -0.4867
 2519SOL    HW3 9843   2.616   2.777   5.210  0.2154  0.2700 -1.0416
 2519SOL    MW4 9844   2.598   2.858   5.235  0.2775  0.4160  0.1363
 2520SOL     OW 9845   1.964   6.267   2.854  0.3095 -0.8280  0.0126
 2520SOL    HW2 9846   1.987   6.174   2.863 -1.3451 -1.3448 -0.7859
 2520SOL    HW3 9847   1.870   6.270   2.873  0.1863  0.5592 -0.7412
 2520SOL    MW4 9848   1.955   6.255   2.858 -0.2861  0.0893 -0.1610
 2521SOL     OW 9849   5.283   0.270   2.055 -0.2758 -0.0916 -0.1599
 2521SOL    HW2 9850   5.221   0.287   1.985 -1.5395 -2.4412  0.2834
 2521SOL    HW3 9851   5.235   0.288   2.136 -0.1398 -1.0793  0.1617
 2521SOL    MW4 9852   5.269   0.274   2.057 -0.2716 -0.3664 -0.2406
 2522SOL     OW 9853   1.626   2.562   3.117  0.9627 -0.2528 -0.4778
 2522SOL    HW2 9854   1.537   2.567   3.152  1.1792 -0.2707  0.0823
 2522SOL    HW3 9855   1.614   2.568   3.022  0.3862  0.0259 -0.3960
 2522SOL    MW4 9856   1.612   2.563   3.109  0.4353  0.4840 -0.4807
 2523SOL     OW 9857   4.144   2.490   0.646 -0.1150 -0.2368  0.3478
 2523SOL    HW2 9858   4.064   2.483   0.594 -0.0394  0.6683  0.0776
 2523SOL    HW3 9859   4.207   2.531   0.586  0.9778 -2.1703  0.1049
 2523SOL    MW4 9860   4.142   2.495   0.631 -0.4526  0.0778 -0.2016
 2524SOL     OW 9861   4.152   1.600   5.356  0.1021 -0.1994  0.0542
 2524SOL    HW2 9862   4.089   1.540   5.315 -0.4360 -1.3854  2.4356
 2524SOL    HW3 9863   4.230   1.593   5.301 -1.1572 -0.1934 -1.8554
 2524SOL    MW4 9864   4.154   1.591   5.343 -0.4412  0.4434  0.1366
 2525SOL     OW 9865   2.235   2.179   6.347 -0.4526 -0.2354 -0.3374
 2525SOL    HW2 9866   2.226   2.134   6.431  1.9979  1.9809  1.2816
 2525SOL    HW3 9867   2.155   2.231   6.339 -0.8440 -0.6971  0.4444
 2525SOL    MW4 9868   2.223   2.180   6.357 -0.1346 -0.5806  0.0569
 2526SOL     OW 9869   4.026   1.694   0.122  0.0094  0.3805  0.6754
 2526SOL    HW2 9870   4.092   1.660   0.181  0.0343  0.4595  0.6926
 2526SOL    HW3 9871   4.055   1.668   0.035  0.7811  1.5959  0.5500
 2526SOL    MW4 9872   4.038   1.686   0.118 -0.0251 -0.3035 -0.3014
 2527SOL     OW 9873   3.178   0.090   3.290  0.5844  0.1879 -0.1601
 2527SOL    HW2 9874   3.204   0.043   3.211  0.2481 -0.7030  0.2394
 2527SOL    HW3 9875   3.109   0.036   3.328 -0.2204  1.3090  0.0197
 2527SOL    MW4 9876   3.172   0.076   3.285 -0.0061  0.1321  0.8140
 2528SOL     OW 9877   6.311   2.128   3.662 -0.3252  0.0123  0.2180
 2528SOL    HW2 9878   6.305   2.072   3.585 -0.3983  1.3970 -0.8258
 2528SOL    HW3 9879   6.342   2.071   3.732  2.2478 -0.7354 -1.4351
 2528SOL    MW4 9880   6.314   2.113   3.661  0.1581  0.6090 -0.1965
 2529SOL     OW 9881   4.676   4.682   2.281 -0.1576  0.0593  0.4602
 2529SOL    HW2 9882   4.679   4.770   2.244 -2.1245  0.7676  1.8120
 2529SOL    HW3 9883   4.657   4.696   2.373 -1.4225 -1.7898  0.5271
 2529SOL    MW4 9884   4.674   4.695   2.288 -0.1873 -0.2535  0.1051
 2530SOL     OW 9885   0.844   4.248   0.544  0.5397  0.1366 -0.2167
 2530SOL    HW2 9886   0.849   4.211   0.633  4.0853 -0.3814 -0.4643
 2530SOL    HW3 9887   0.872   4.339   0.554  3.7662 -0.6328 -0.9733
 2530SOL    MW4 9888   0.849   4.255   0.557 -0.1281  0.4335 -0.5949
 2531SOL     OW 9889   4.062   5.494   1.744 -0.1279  0.4067  0.0168
 2531SOL    HW2 9890   4.046   5.584   1.774 -1.5050  0.6488 -1.3324
 2531SOL    HW3 9891   4.088   5.447   1.823 -1.0720  1.5888  1.0828
 2531SOL    MW4 9892   4.064   5.500   1.758  0.6315  0.3008  0.2514
 2532SOL     OW 9893   5.900   4.078   5.926 -0.2847 -0.2704  0.0735
 2532SOL    HW2 9894   5.853   3.998   5.903 -0.2951  0.1191 -1.3931
 2532SOL    HW3 9895   5.832   4.139   5.956 -0.5239 -0.2015 -0.6027
 2532SOL    MW4 9896   5.885   4.076   5.927  0.2137  0.2663 -0.3185
 2533SOL     OW 9897   5.232   0.798   5.604 -0.4021  0.4052 -0.3363
 2533SOL    HW2 9898   5.303   0.830   5.549 -0.9643  2.6261  0.1392
 2533SOL    HW3 9899   5.154   0.803   5.548 -0.3900 -1.0392 -0.5269
 2533SOL    MW4 9900   5.231   0.803   5.590 -0.5160  0.5736 -0.4994
 2534SOL     OW 9901   2.766   2.671   2.593  0.0039 -0.8065  0.1109
 2534SOL    HW2 9902   2.838   2.623   2.633  0.4279 -0.4300 -0.1921
 2534SOL    HW3 9903   2.792   2.763   2.598 -0.1066 -0.7218 -0.6773
 2534SOL    MW4 9904   2.779   2.676   2.599 -0.4658  0.0650  0.0543
 2535SOL     OW 9905   0.609   1.385   0.695 -0.0356 -0.0492  0.2203
 2535SOL    HW2 9906   0.628   1.344   0.779  1.3685  0.5320  0.2128
 2535SOL    HW3 9907   0.647   1.326   0.630 -0.0476  0.1092  0.0685
 2535SOL    MW4 9908   0.617   1.372   0.698 -1.0259 -0.1970  0.0603
 2536SOL     OW 9909   2.339   1.378   6.271 -0.0043  0.0815 -0.1803
 2536SOL    HW2 9910   2.335   1.361   6.177  1.1327  0.9342 -0.4055
 2536SOL    HW3 9911   2.263   1.432   6.289  0.5165  1.0787 -0.8896
 2536SOL    MW4 9912   2.329   1.383   6.261  0.4442 -0.2686 -0.1234
 2537SOL     OW 9913   2.595   1.223   5.534  0.5762  0.3070  0.6134
 2537SOL    HW2 9914   2.637   1.152   5.583 -0.5566 -1.1411 -0.4028
 2537SOL    HW3 9915   2.536   1.264   5.597  0.1153 -0.6702  0.8349
 2537SOL    MW4 9916   2.593   1.219   5.549  0.0072  0.2197 -0.2732
 2538SOL     OW 9917   5.167   1.536   2.711  0.1790 -0.2348  0.1962
 2538SOL    HW2 9918   5.144   1.522   2.619 -2.8383  1.4708  0.5698
 2538SOL    HW3 9919   5.222   1.461   2.733  2.0044 -0.1259 -3.2437
 2538SOL    MW4 9920   5.172   1.524   2.701  0.4171  0.1808  0.2962
 2539SOL     OW 9921   3.505   4.168   3.982 -0.0966 -0.0558 -0.3795
 2539SOL    HW2 9922   3.465   4.082   3.970 -1.0938  0.1413  1.2351
 2539SOL    HW3 9923   3.443   4.229   3.942 -0.2902  0.0599  0.0932
 2539SOL    MW4 9924   3.492   4.165   3.975 -0.5212  0.2930 -0.1322
 2540SOL     OW 9925   1.580   1.995   1.388  0.1204 -0.5341 -0.0243
 2540SOL    HW2 9926   1.614   1.934   1.454  0.2797 -1.1675 -0.6678
 2540SOL    HW3 9927   1.629   1.972   1.308  0.1385  0.4115 -0.2916
 2540SOL    MW4 9928   1.591   1.984   1.386 -0.1432  0.0898 -0.1805
 2541SOL     OW 9929   0.992   0.779   0.004 -0.1364 -0.1502 -0.4993
 2541SOL    HW2 9930   1.070   0.831   0.027 -0.5957  0.8165 -1.0604
 2541SOL    HW3 9931   0.919   0.839   0.016 -0.7499 -0.8697 -0.5663
 2541SOL    MW4 9932   0.993   0.794   0.009  0.0748  0.2870  0.5653
 2542SOL     OW 9933   3.670   2.878   0.881 -0.3198  0.1810 -0.0864
 2542SOL    HW2 9934   3.696   2.907   0.793 -0.1736 -2.1428 -0.8677
 2542SOL    HW3 9935   3.648   2.786   0.871 -0.8104 -0.0226  2.2404
 2542SOL    MW4 9936   3.671   2.870   0.868 -1.1187 -0.0246  0.2839
 2543SOL     OW 9937   0.137   2.756   3.066 -0.0157  0.0859  0.0988
 2543SOL    HW2 9938   0.161   2.697   3.138 -1.1672  1.4292  1.6347
 2543SOL    HW3 9939   0.042   2.747   3.057  0.0354  0.3698 -0.8799
 2543SOL    MW4 9940   0.128   2.747   3.074  0.3289 -0.3499 -0.2788
 2544SOL     OW 9941   2.266   4.790   6.237  0.3354 -0.4605 -0.5093
 2544SOL    HW2 9942   2.216   4.777   6.156 -1.6176  0.2643  0.5041
 2544SOL    HW3 9943   2.276   4.885   6.244  2.8759 -0.6168 -1.2147
 2544SOL    MW4 9944   2.261   4.801   6.227  0.4584 -0.1883  0.4482
 2545SOL     OW 9945   1.708   0.777   0.107  0.8570 -0.2460 -0.5977
 2545SOL    HW2 9946   1.796   0.739   0.107  1.3175  0.7872 -0.3275
 2545SOL    HW3 9947   1.722   0.871   0.094 -0.2599 -0.1607 -1.3563
 2545SOL    MW4 9948   1.722   0.784   0.106 -0.3202 -0.3513 -0.2896
 2546SOL     OW 9949   3.926   0.764   0.221  0.2345 -0.2609  0.4281
 2546SOL    HW2 9950   4.021   0.768   0.220  0.2309  1.9396  1.9849
 2546SOL    HW3 9951   3.904   0.744   0.312 -0.8011 -0.8058  0.0753
 2546SOL    MW4 9952   3.936   0.762   0.233  0.1404 -0.0290  0.2252
 2547SOL     OW 9953   5.442   2.802   1.253 -0.2821 -0.1551  0.3003
 2547SOL    HW2 9954   5.519   2.748   1.238  0.0580  0.2651  0.5223
 2547SOL    HW3 9955   5.396   2.802   1.169  0.3665  0.2336 -0.0590
 2547SOL    MW4 9956   5.446   2.795   1.240 -0.0917  0.3064  0.3766
 2548SOL     OW 9957   2.120   5.514   4.572 -0.5960 -0.4648 -0.7419
 2548SOL    HW2 9958   2.172   5.554   4.642 -1.2004 -3.9384  1.9113
 2548SOL    HW3 9959   2.055   5.581   4.550  1.0911  1.6422  0.2266
 2548SOL    MW4 9960   2.118   5.528   4.578  0.2287 -0.4052 -0.0533
 2549SOL     OW 9961   5.065   2.042   3.143  0.3357  0.2146  0.1287
 2549SOL    HW2 9962   5.047   2.101   3.070  0.5197  0.7909  0.5446
 2549SOL    HW3 9963   5.160   2.044   3.153  0.6700 -2.2821 -1.6169
 2549SOL    MW4 9964   5.075   2.050   3.135 -0.6252 -0.1236 -0.3563
 2550SOL     OW 9965   3.259   0.212   2.122 -0.0504 -0.2571  0.0170
 2550SOL    HW2 9966   3.200   0.144   2.154  1.0505 -0.2877  2.1611
 2550SOL    HW3 9967   3.346   0.183   2.147  0.5570  1.3977 -0.0283
 2550SOL    MW4 9968   3.262   0.199   2.130 -0.0877  0.3528  0.9583
 2551SOL     OW 9969   2.528   2.631   1.466  0.3575  0.4295  0.4133
 2551SOL    HW2 9970   2.572   2.705   1.426 -0.0984  0.1955 -0.5359
 2551SOL    HW3 9971   2.576   2.554   1.436 -0.4301  0.2028 -0.2863
 2551SOL    MW4 9972   2.540   2.630   1.457  0.9068  0.3735  0.2238
 2552SOL     OW 9973   5.295   1.136   3.438  0.0699  0.1273 -0.1372
 2552SOL    HW2 9974   5.326   1.046   3.451 -0.6914 -0.2218 -0.6949
 2552SOL    HW3 9975   5.238   1.153   3.513  1.1730  0.5963  0.6263
 2552SOL    MW4 9976   5.292   1.127   3.449 -0.2087  0.1836 -0.1665
 2553SOL     OW 9977   0.295   1.477   3.557  0.2754 -0.0416 -0.0483
 2553SOL    HW2 9978   0.245   1.422   3.496 -0.3105  2.0284 -1.5498
 2553SOL    HW3 9979   0.276   1.440   3.643 -1.4314 -1.1427 -0.8303
 2553SOL    MW4 9980   0.286   1.465   3.560 -0.5036  0.3623 -0.5163
 2554SOL     OW 9981   5.023   2.458   1.895  0.1417 -0.0349  0.1783
 2554SOL    HW2 9982   5.086   2.447   1.967  0.2336 -0.3183  0.0574
 2554SOL    HW3 9983   5.040   2.546   1.862  1.5131 -0.6372 -0.8204
 2554SOL    MW4 9984   5.034   2.468   1.900  1.0535  0.0568 -0.1051
 2555SOL     OW 9985   3.761   3.793   6.055 -0.0269 -0.0970 -0.0393
 2555SOL    HW2 9986   3.817   3.715   6.062  0.5834  0.4333  1.4359
 2555SOL    HW3 9987   3.813   3.855   6.004 -0.1082 -0.3045 -0.3787
 2555SOL    MW4 9988   3.776   3.791   6.049  0.0344 -0.3977  0.3333
 2556SOL     OW 9989   3.089   5.361   2.053 -0.6188  0.6120 -0.0647
 2556SOL    HW2 9990   3.040   5.359   2.136  1.8294  1.1514  1.4871
 2556SOL    HW3 9991   3.148   5.285   2.059  2.1167  2.6275  0.4348
 2556SOL    MW4 9992   3.090   5.350   2.065 -0.0591  0.0873 -0.0072
 2557SOL     OW 9993   1.082   1.163   4.980 -0.3359 -0.4248  0.5251
 2557SOL    HW2 9994   1.125   1.120   5.053  0.9773 -1.1884 -0.6386
 2557SOL    HW3 9995   1.146   1.229   4.950 -1.2361  0.5184  0.6260
 2557SOL    MW4 9996   1.096   1.166   4.985  0.1516  0.7988 -0.0223
 2558SOL     OW 9997   5.744   3.983   3.302 -0.6896  0.2058  0.2685
 2558SOL    HW2 9998   5.757   3.941   3.387 -0.4691 -1.4127 -0.5205
 2558SOL    HW3 9999   5.833   4.000   3.270 -0.4084 -3.8766 -1.7841
 2558SOL    MW410000   5.758   3.979   3.309  0.2810 -0.6611 -0.2609
 2559SOL     OW10001   0.901   1.274   2.302  0.0949 -0.0642  0.5878
 2559SOL    HW210002   0.880   1.314   2.217  1.0634  0.2602  0.4899
 2559SOL    HW310003   0.889   1.180   2.287  1.8611 -0.1782 -0.4335
 2559SOL    MW410004   0.897   1.267   2.289 -0.5181 -0.1531  0.5846
 2560SOL     OW10005   0.949   3.002   3.265  0.2198 -0.4571  0.7005
 2560SOL    HW210006   0.854   2.989   3.273  0.3757 -0.4676  3.4303
 2560SOL    HW310007   0.981   3.001   3.355  2.7987 -0.1183 -0.1337
 2560SOL    MW410008   0.940   3.000   3.278 -0.0040  0.2318  0.6389
 2561SOL     OW10009   5.384   3.559   0.060  0.4898 -0.0723 -0.4075
 2561SOL    HW210010   5.391   3.471   0.095  2.4156 -0.3185 -1.2667
 2561SOL    HW310011   5.458   3.606   0.098  0.5367  0.6433 -1.3417
 2561SOL    MW410012   5.395   3.554   0.069 -0.9204 -0.4166 -0.0866
 2562SOL     OW10013   1.056   1.017   2.139  0.1024  0.2681 -0.3554
 2562SOL    HW210014   1.116   0.943   2.137 -1.5421 -1.2470  1.5934
 2562SOL    HW310015   1.001   1.005   2.062  0.1346 -0.2968 -0.2954
 2562SOL    MW410016   1.057   1.005   2.129  0.4977  0.9629  0.5831
 2563SOL     OW10017   2.066   2.553   3.984  0.3218  0.0082  0.2864
 2563SOL    HW210018   2.119   2.485   4.025  0.9953  0.9264  0.9596
 2563SOL    HW310019   2.044   2.517   3.898  0.7231 -1.0271  0.5993
 2563SOL    MW410020   2.070   2.539   3.978  0.3458 -0.3902  0.1183
 2564SOL     OW10021   0.647   1.139   3.474  0.2729 -0.1770  0.2719
 2564SOL    HW210022   0.584   1.086   3.524  0.9620  0.7118  2.1635
 2564SOL    HW310023   0.606   1.225   3.467 -0.2860 -0.5629 -1.6972
 2564SOL    MW410024   0.634   1.143   3.480 -0.4693 -0.2995 -0.8974
 2565SOL     OW10025   1.221   1.731   2.940 -0.4217 -0.6669  0.4234
 2565SOL    HW210026   1.247   1.644   2.972 -2.1970 -1.1874  0.5459
 2565SOL    HW310027   1.190   1.777   3.018 -0.5628 -0.3326  0.1727
 2565SOL    MW410028   1.221   1.725   2.955  0.4912  0.3370 -1.2853
 2566SOL     OW10029   1.436   2.863   6.017  0.1619 -0.3924  0.2710
 2566SOL    HW210030   1.442   2.771   5.994  0.1625 -0.1377 -0.8123
 2566SOL    HW310031   1.421   2.864   6.111  0.2895 -1.4907  0.3080
 2566SOL    MW410032   1.435   2.851   6.026  0.3702  0.1677  0.2647
 2567SOL     OW10033   2.166   2.157   1.768 -0.1008  0.0165 -0.0330
 2567SOL    HW210034   2.106   2.188   1.700  0.0442  0.0866 -0.1277
 2567SOL    HW310035   2.185   2.066   1.743  0.4782  0.2514 -0.4508
 2567SOL    MW410036   2.160   2.149   1.756  0.0325  0.3174 -0.0765
 2568SOL     OW10037   2.012   4.215   2.636 -0.1592  0.2790 -0.1008
 2568SOL    HW210038   2.050   4.296   2.670 -0.5764 -0.3529  1.9847
 2568SOL    HW310039   2.080   4.180   2.578  0.2944  1.7738 -0.5244
 2568SOL    MW410040   2.026   4.221   2.633 -0.0148 -0.1195 -0.2008
 2569SOL     OW10041   0.199   1.132   4.530  0.0752 -0.2597  0.2404
 2569SOL    HW210042   0.291   1.111   4.548  0.2660  0.5653  0.2775
 2569SOL    HW310043   0.197   1.228   4.525 -0.9841 -0.1973  1.3525
 2569SOL    MW410044   0.211   1.142   4.532 -0.4382  0.4813  0.4861
 2570SOL     OW10045   3.952   2.763   2.770 -0.2707  0.9075  0.9219
 2570SOL    HW210046   3.984   2.673   2.759 -1.4819  0.4935  0.6467
 2570SOL    HW310047   4.023   2.808   2.815 -0.4515 -0.7462  3.0285
 2570SOL    MW410048   3.966   2.757   2.775 -0.5055  0.1942 -0.3362
 2571SOL     OW10049   2.088   2.697   2.433  0.2052  0.3228 -0.2039
 2571SOL    HW210050   2.010   2.744   2.403 -1.7339 -0.7397  2.7948
 2571SOL    HW310051   2.097   2.722   2.525  1.6107 -1.9067  0.3307
 2571SOL    MW410052   2.079   2.707   2.441 -0.2525  0.5336 -0.2655
 2572SOL     OW10053   5.812   2.179   0.674  0.1555  0.1237  0.7741
 2572SOL    HW210054   5.895   2.207   0.636 -0.7330  0.6065 -0.9086
 2572SOL    HW310055   5.831   2.093   0.712  0.8848 -0.9388 -1.7725
 2572SOL    MW410056   5.825   2.172   0.674  0.0707 -0.5575  0.3337
 2573SOL     OW10057   5.764   6.168   6.033  0.5177 -0.0468 -0.6292
 2573SOL    HW210058   5.730   6.097   5.978 -0.1611  0.0897 -0.3921
 2573SOL    HW310059   5.719   6.246   6.001  1.8447  0.4215 -1.4101
 2573SOL    MW410060   5.753   6.169   6.021 -0.3360 -0.6576  0.2184
 2574SOL     OW10061   3.197   5.067   5.528  0.2521  0.3512  0.4310
 2574SOL    HW210062   3.112   5.107   5.514  0.3353  0.3951  0.0578
 2574SOL    HW310063   3.257   5.141   5.539  0.1607  0.3205  1.2024
 2574SOL    MW410064   3.194   5.082   5.528 -0.0044  0.3637 -0.7319
 2575SOL     OW10065   4.413   0.023   4.609 -0.0291  0.0170 -1.2220
 2575SOL    HW210066   4.394   0.100   4.555 -0.6413  1.3371  0.7835
 2575SOL    HW310067   4.327  -0.016   4.626 -0.1501  1.0463  0.7736
 2575SOL    MW410068   4.399   0.028   4.604  0.5758  0.0160  0.0846
 2576SOL     OW10069   2.844   0.019   2.346  0.3777  0.2113  0.2857
 2576SOL    HW210070   2.843  -0.071   2.378  0.9104 -0.3064 -1.1082
 2576SOL    HW310071   2.903   0.065   2.406  2.8395 -1.1558 -0.9528
 2576SOL    MW410072   2.851   0.013   2.358  0.7587 -0.1147  0.1099
 2577SOL     OW10073   4.069   1.919   6.158 -0.0062 -0.3877  0.8726
 2577SOL    HW210074   4.031   2.000   6.123 -0.3300 -1.0858 -0.4608
 2577SOL    HW310075   3.997   1.857   6.158  0.6711 -1.2041  0.0818
 2577SOL    MW410076   4.055   1.922   6.153  0.6235  0.6530  0.7702
 2578SOL     OW10077   0.480   4.210   4.840 -0.2590 -0.6746  0.1541
 2578SOL    HW210078   0.411   4.229   4.776 -0.9697 -0.2812  1.0141
 2578SOL    HW310079   0.442   4.144   4.898  0.5427 -1.3606 -0.0949
 2578SOL    MW410080   0.466   4.204   4.839 -0.1126 -0.3111 -0.2480
 2579SOL     OW10081   4.961   3.678   0.834 -0.5245  0.7028  0.2630
 2579SOL    HW210082   4.908   3.600   0.817 -1.8390  1.4830  0.6510
 2579SOL    HW310083   5.005   3.660   0.917 -1.1851  0.5610  0.5841
 2579SOL    MW410084   4.960   3.665   0.843 -0.0598  0.5718  0.1807
 2580SOL     OW10085   3.964   4.322   4.950 -0.2576  0.1623  0.4505
 2580SOL    HW210086   3.892   4.370   4.910 -1.5664 -0.6200  1.7963
 2580SOL    HW310087   3.968   4.356   5.040  1.0046  0.1386  0.4231
 2580SOL    MW410088   3.955   4.333   4.957  0.0144  0.2754 -0.0827
 2581SOL     OW10089   3.816   2.957   1.091 -0.4513 -0.2454 -0.4645
 2581SOL    HW210090   3.783   2.932   1.005  0.4590  0.4123 -1.0148
 2581SOL    HW310091   3.868   2.882   1.119  1.3276  0.4923 -1.6146
 2581SOL    MW410092   3.818   2.944   1.084 -0.3569 -0.2961  0.5460
 2582SOL     OW10093   2.239   3.711   1.411  0.1494  0.2248  0.0982
 2582SOL    HW210094   2.235   3.706   1.315 -0.0466  0.5794  0.0863
 2582SOL    HW310095   2.283   3.795   1.428  3.0429 -1.2036  0.2825
 2582SOL    MW410096   2.244   3.722   1.401  0.2486  0.4297  0.8726
 2583SOL     OW10097   4.516   3.591   2.087  0.0855  0.3572 -0.2784
 2583SOL    HW210098   4.425   3.619   2.084 -1.0238 -2.6542  1.0002
 2583SOL    HW310099   4.532   3.553   2.000 -0.9496 -1.7845  0.3965
 2583SOL    MW410100   4.506   3.589   2.075 -0.1436  0.4017 -0.0744
 2584SOL     OW10101   4.134   6.081   4.541 -0.7045 -0.0792 -0.0199
 2584SOL    HW210102   4.147   6.165   4.584 -3.5408  0.2644  0.3606
 2584SOL    HW310103   4.160   6.016   4.607 -2.8265  0.4793  1.4510
 2584SOL    MW410104   4.139   6.083   4.556 -0.3299 -0.4721  0.0251
 2585SOL     OW10105   3.849   0.774   6.195  1.0835  0.0439 -0.2359
 2585SOL    HW210106   3.790   0.787   6.269 -2.0467 -1.6943 -2.2117
 2585SOL    HW310107   3.926   0.732   6.234  0.7827  1.6605  2.3707
 2585SOL    MW410108   3.851   0.770   6.210  0.3414  0.3143 -0.8818
 2586SOL     OW10109   1.466   5.767   4.198  0.2006 -0.2442  0.0352
 2586SOL    HW210110   1.542   5.747   4.252 -0.1637 -2.4422 -0.1553
 2586SOL    HW310111   1.392   5.765   4.259  0.1527  0.7237  0.0223
 2586SOL    MW410112   1.466   5.764   4.213  0.0692 -0.4740  0.0211
 2587SOL     OW10113   3.632   3.454   3.168  0.2091  0.2035 -0.4629
 2587SOL    HW210114   3.576   3.530   3.179  0.6008  0.3301  0.7236
 2587SOL    HW310115   3.574   3.386   3.135 -0.1717  0.9537 -1.3955
 2587SOL    MW410116   3.617   3.455   3.165  0.4255 -0.3483 -0.1655
 2588SOL     OW10117   3.312   2.029   5.602 -0.2737  0.0152 -0.3664
 2588SOL    HW210118   3.291   1.986   5.684 -0.1805 -2.5088 -1.5744
 2588SOL    HW310119   3.272   1.974   5.535  0.4127  1.4985 -2.0889
 2588SOL    MW410120   3.304   2.016   5.604  0.2246 -0.0335  0.6269
 2589SOL     OW10121   0.600   3.456   6.274 -0.1737 -0.0513 -0.0812
 2589SOL    HW210122   0.509   3.455   6.244 -0.3565  1.4311  0.3306
 2589SOL    HW310123   0.651   3.447   6.194 -0.6764  2.5659 -0.7959
 2589SOL    MW410124   0.595   3.455   6.259  0.3896 -0.3856 -0.3771
 2590SOL     OW10125   1.152   1.039   4.753  0.2156  0.0160  0.1688
 2590SOL    HW210126   1.121   1.059   4.841  0.0216  1.0490 -0.1161
 2590SOL    HW310127   1.204   1.116   4.728  0.6152 -0.4443 -0.4587
 2590SOL    MW410128   1.155   1.052   4.761 -0.0027  0.7983 -0.5128
 2591SOL     OW10129   1.647   4.804   4.874 -0.3411  0.3935  0.5709
 2591SOL    HW210130   1.667   4.723   4.920  0.0033  1.4603  2.3906
 2591SOL    HW310131   1.639   4.778   4.782  1.7588 -1.3477  0.8085
 2591SOL    MW410132   1.648   4.790   4.868  0.3398  0.5186  0.2194
 2592SOL     OW10133   5.795   3.712   3.024 -0.6765  0.4747  0.3574
 2592SOL    HW210134   5.808   3.710   3.119 -1.9153 -1.9580  0.5491
 2592SOL    HW310135   5.883   3.724   2.988  0.2530 -1.4620  1.7913
 2592SOL    MW410136   5.808   3.713   3.032 -0.5679 -0.1990 -0.2933
 2593SOL     OW10137   1.739   1.126   1.700  0.3071  0.5290  0.1131
 2593SOL    HW210138   1.716   1.120   1.608 -1.4423  1.2490  0.4662
 2593SOL    HW310139   1.806   1.058   1.713 -1.4602 -1.5491 -1.0658
 2593SOL    MW410140   1.745   1.116   1.690 -0.1505  0.0457  0.7431
 2594SOL     OW10141   4.974   3.945   3.685  0.4408  0.5318 -0.7183
 2594SOL    HW210142   4.977   3.958   3.591  1.2024  0.2417 -0.7475
 2594SOL    HW310143   5.007   4.027   3.722  0.4625  0.5222 -0.7170
 2594SOL    MW410144   4.979   3.957   3.678 -0.2062  0.3481 -0.1804
 2595SOL     OW10145   4.969   1.777   2.699  0.7322  0.1360  0.1350
 2595SOL    HW210146   4.935   1.707   2.644 -0.4985  0.8195 -0.0022
 2595SOL    HW310147   4.984   1.736   2.784  2.5716 -0.9090 -0.6262
 2595SOL    MW410148   4.966   1.762   2.703  0.6831 -0.1434 -0.2388
 2596SOL     OW10149   2.499   4.864   5.875 -0.0227  0.2028 -0.0493
 2596SOL    HW210150   2.458   4.950   5.861  0.1149  0.2302 -0.2704
 2596SOL    HW310151   2.426   4.802   5.870 -0.3567  0.4243  1.4762
 2596SOL    MW410152   2.484   4.867   5.873  0.3537  0.3326 -0.3787
 2597SOL     OW10153   1.522   3.217   1.511  0.1624 -0.2567  0.0221
 2597SOL    HW210154   1.513   3.146   1.448 -0.6028 -0.1830  0.0428
 2597SOL    HW310155   1.564   3.288   1.461 -0.3495 -0.2323 -0.3787
 2597SOL    MW410156   1.526   3.217   1.496  0.2823 -0.1707 -0.5504
 2598SOL     OW10157   1.995   3.725   0.313  0.7483 -0.6105 -1.0801
 2598SOL    HW210158   1.966   3.638   0.340  1.3192 -0.3437  0.5408
 2598SOL    HW310159   1.927   3.784   0.345  0.7525 -0.3930 -1.4672
 2598SOL    MW410160   1.982   3.721   0.321 -0.4799  0.2047  0.1491
 2599SOL     OW10161   1.318   3.461   5.473  0.4245 -0.0761 -0.0758
 2599SOL    HW210162   1.274   3.536   5.512  1.4762  0.9258 -0.7268
 2599SOL    HW310163   1.259   3.388   5.487 -0.7707  0.9301  0.3272
 2599SOL    MW410164   1.305   3.462   5.480  0.1202  0.2855 -0.2724
 2600SOL     OW10165   3.861   4.211   3.290  0.3682  0.0834 -0.5136
 2600SOL    HW210166   3.847   4.186   3.198 -0.0770  0.3198 -0.5112
 2600SOL    HW310167   3.837   4.133   3.340  0.0023  0.1603 -0.5657
 2600SOL    MW410168   3.856   4.197   3.284 -0.5109 -0.8836  0.4680
 2601SOL     OW10169   2.377   3.845   0.662  0.0863 -0.5076  0.5770
 2601SOL    HW210170   2.309   3.778   0.675  2.0117 -2.3903  1.4915
 2601SOL    HW310171   2.375   3.898   0.741  0.2581 -1.0973  0.9772
 2601SOL    MW410172   2.368   3.843   0.674 -0.2509  0.1536 -0.3144
 2602SOL     OW10173   3.585   5.083   5.919 -0.1034  0.3501 -0.1026
 2602SOL    HW210174   3.638   5.132   5.982  0.7732  1.9876 -1.9747
 2602SOL    HW310175   3.540   5.151   5.868 -1.0758 -0.9128 -0.9794
 2602SOL    MW410176   3.586   5.098   5.920 -0.2693 -0.1805 -0.0375
 2603SOL     OW10177   2.419   1.985   3.594  0.4317  0.8222 -0.1421
 2603SOL    HW210178   2.352   1.922   3.620 -1.4232  2.8151  0.2181
 2603SOL    HW310179   2.415   1.987   3.499 -0.1443  1.0107 -0.1190
 2603SOL    MW410180   2.410   1.977   3.585 -0.0065  0.2293  0.5550
 2604SOL     OW10181   1.017   2.509   3.853  0.1349  0.6329  0.0343
 2604SOL    HW210182   0.990   2.523   3.943 -2.3323  1.0859 -0.6928
 2604SOL    HW310183   0.965   2.434   3.824 -1.3363  2.2270 -1.7873
 2604SOL    MW410184   1.006   2.501   3.861 -0.1206 -0.4842  0.2756
 2605SOL     OW10185   4.419   4.492   0.182  0.1495  0.1270  0.3233
 2605SOL    HW210186   4.457   4.578   0.162 -2.2889  1.1350 -0.4979
 2605SOL    HW310187   4.325   4.509   0.187 -0.2020 -1.9405  3.3751
 2605SOL    MW410188   4.411   4.506   0.180 -0.2391  0.1728  0.0679
 2606SOL     OW10189   2.952   0.530   4.670 -0.1772  0.7614 -0.1529
 2606SOL    HW210190   2.892   0.601   4.695  0.1466  0.4762  1.5465
 2606SOL    HW310191   3.039   0.569   4.680  0.0455 -0.1448  1.8435
 2606SOL    MW410192   2.956   0.545   4.675  0.0498 -0.4989 -0.0879
 2607SOL     OW10193   0.425   1.112   5.830 -0.0938 -0.2246  0.1798
 2607SOL    HW210194   0.414   1.023   5.864  1.5984 -0.1330  1.0971
 2607SOL    HW310195   0.358   1.164   5.873 -2.7593 -1.4317 -2.1877
 2607SOL    MW410196   0.415   1.107   5.840 -0.3397 -1.1188  0.6463
 2608SOL     OW10197   6.334   5.833   4.542  0.6162 -0.2212  0.2331
 2608SOL    HW210198   6.281   5.912   4.551 -0.2832 -0.5883 -1.4281
 2608SOL    HW310199   6.332   5.792   4.629  1.6509  1.8618  1.3169
 2608SOL    MW410200   6.327   5.838   4.555  0.1339 -0.0972 -0.0244
 2609SOL     OW10201   3.077   0.283   2.792  0.1385 -0.4294 -0.4598
 2609SOL    HW210202   3.116   0.276   2.879 -0.7439  0.3590  0.0205
 2609SOL    HW310203   3.028   0.202   2.781 -0.9599  0.0877  0.4171
 2609SOL    MW410204   3.076   0.271   2.802  0.4028  0.0452 -0.6183
 2610SOL     OW10205   6.255   0.927   3.160  0.3479  0.0846 -0.6748
 2610SOL    HW210206   6.339   0.925   3.115  2.5993  0.5968  3.0654
 2610SOL    HW310207   6.234   1.020   3.168  1.6199  0.2364  1.8285
 2610SOL    MW410208   6.263   0.939   3.155  0.0879 -0.1193 -0.1048
 2611SOL     OW10209   0.296   3.114   2.027  0.0307  0.0596 -1.0856
 2611SOL    HW210210   0.206   3.131   2.053  0.2528  0.4338 -0.5652
 2611SOL    HW310211   0.294   3.023   1.995 -0.8414  0.5512 -2.5211
 2611SOL    MW410212   0.284   3.104   2.026 -0.1669  0.4610  0.1774
 2612SOL     OW10213   3.806   3.060   4.420  0.3727 -0.0564  0.3759
 2612SOL    HW210214   3.842   3.113   4.349  0.4499 -1.8679 -1.0102
 2612SOL    HW310215   3.875   3.058   4.486  1.1450 -0.0524 -0.4160
 2612SOL    MW410216   3.820   3.067   4.420  0.0009 -0.3984  0.3047
 2613SOL     OW10217   4.089   0.045   3.849 -0.5326 -0.1433 -0.5554
 2613SOL    HW210218   4.042   0.106   3.907  0.3692  0.1045 -0.0569
 2613SOL    HW310219   4.032  -0.031   3.842 -0.3395 -0.5198  1.3315
 2613SOL    MW410220   4.076   0.043   3.856  0.3728 -0.1592  0.2464
 2614SOL     OW10221   2.523   5.252   1.299 -0.2170  0.0572 -0.0330
 2614SOL    HW210222   2.616   5.273   1.298  0.2655 -1.7268  0.9622
 2614SOL    HW310223   2.493   5.279   1.386 -0.4585  0.0075 -0.0987
 2614SOL    MW410224   2.531   5.258   1.311 -0.2192  0.7949 -0.1445
 2615SOL     OW10225   1.563   6.006   0.436  0.1542  0.1781  0.2920
 2615SOL    HW210226   1.638   6.066   0.431  0.1967  0.3417  2.1507
 2615SOL    HW310227   1.495   6.057   0.480 -0.2489 -0.7153  0.7188
 2615SOL    MW410228   1.564   6.021   0.441  0.9252  0.8775 -1.0860
 2616SOL     OW10229   3.385   1.018   4.617  0.2053 -0.0397 -0.1833
 2616SOL    HW210230   3.325   1.038   4.689 -0.0301 -1.6313  0.0928
 2616SOL    HW310231   3.330   1.020   4.539 -0.1921 -1.2414  0.0397
 2616SOL    MW410232   3.370   1.021   4.617  0.3916 -0.0179  0.1219
 2617SOL     OW10233   4.965   5.630   0.188  0.5845  0.2763 -0.1904
 2617SOL    HW210234   4.940   5.721   0.174  1.8877  0.5950 -0.5836
 2617SOL    HW310235   5.030   5.612   0.120  0.3080 -0.9683 -0.1535
 2617SOL    MW410236   4.970   5.639   0.177  0.2344 -0.2549 -0.6473
 2618SOL     OW10237   0.915   5.943   1.555 -0.2459 -0.1025 -0.0679
 2618SOL    HW210238   0.858   5.882   1.603  1.6250 -0.9974  1.1193
 2618SOL    HW310239   0.954   5.998   1.623  0.9001 -0.0353 -0.7571
 2618SOL    MW410240   0.912   5.942   1.570  0.3556  0.3660  0.2772
 2619SOL     OW10241   1.287   2.026   1.224 -0.7959 -0.2407  0.6942
 2619SOL    HW210242   1.320   2.102   1.270  0.2816 -1.2098  1.5962
 2619SOL    HW310243   1.279   1.958   1.291  0.3953 -1.5596 -0.4294
 2619SOL    MW410244   1.290   2.027   1.239 -0.5387 -0.0564 -0.2401
 2620SOL     OW10245   3.017   5.578   1.475 -0.1239  0.0550 -0.2940
 2620SOL    HW210246   3.017   5.665   1.514 -0.5566 -0.1198  0.0994
 2620SOL    HW310247   3.072   5.526   1.532  0.8666  0.2795 -1.0204
 2620SOL    MW410248   3.024   5.583   1.488 -0.1248  0.3288  0.0288
 2621SOL     OW10249   1.569   5.608   5.920 -0.3984 -0.1399  0.3546
 2621SOL    HW210250   1.615   5.565   5.849  0.6721  1.3925  0.0632
 2621SOL    HW310251   1.554   5.697   5.889 -0.7135  0.3080  1.6989
 2621SOL    MW410252   1.573   5.614   5.907 -0.1082  0.2283  0.2413
 2622SOL     OW10253   6.192   0.170   3.224  0.0146 -0.3282 -0.2484
 2622SOL    HW210254   6.120   0.199   3.168 -0.4801 -2.3731 -0.7606
 2622SOL    HW310255   6.168   0.081   3.250  0.0661  0.5740  3.4955
 2622SOL    MW410256   6.179   0.162   3.220 -0.3316 -0.4227 -0.4823
 2623SOL     OW10257   4.295   0.769   3.461  0.3377  0.6364  0.0637
 2623SOL    HW210258   4.251   0.846   3.497 -0.9484  0.5602 -1.2851
 2623SOL    HW310259   4.364   0.806   3.405 -0.9977  0.8856 -1.4898
 2623SOL    MW410260   4.299   0.784   3.459  0.2944 -0.4378  0.5240
 2624SOL     OW10261   3.112   5.464   2.809  0.0379  0.1474  0.2454
 2624SOL    HW210262   3.094   5.554   2.836  0.8751  0.0919  1.0327
 2624SOL    HW310263   3.186   5.437   2.862 -0.9078 -1.4126  0.8574
 2624SOL    MW410264   3.119   5.472   2.820  0.0947  0.0091  0.4514
 2625SOL     OW10265   3.585   4.118   0.842  0.5802 -0.2800 -0.5124
 2625SOL    HW210266   3.620   4.129   0.930  0.4320  1.2795 -0.6140
 2625SOL    HW310267   3.575   4.207   0.809  0.1397 -0.8183 -1.9174
 2625SOL    MW410268   3.588   4.131   0.849  0.0754 -0.1566 -0.0735
 2626SOL     OW10269   1.681   1.782   1.603 -0.6527 -0.5497 -0.2722
 2626SOL    HW210270   1.768   1.753   1.632 -0.6139  0.6642  0.9083
 2626SOL    HW310271   1.628   1.702   1.604 -0.2469 -0.8584  1.7668
 2626SOL    MW410272   1.686   1.767   1.607  0.2954  0.2229 -0.3733
 2627SOL     OW10273   1.073   4.484   0.735  0.1480  0.0852 -0.2658
 2627SOL    HW210274   1.138   4.515   0.799 -0.4243 -0.2671  0.5097
 2627SOL    HW310275   1.120   4.483   0.652  0.7820  1.0126  0.0550
 2627SOL    MW410276   1.088   4.488   0.733 -0.1299  0.0345 -0.3879
 2628SOL     OW10277   3.044   4.388   5.947 -0.1143  0.5182 -0.7936
 2628SOL    HW210278   3.062   4.479   5.970  0.1971 -0.0820  1.6260
 2628SOL    HW310279   3.094   4.337   6.010 -0.9716 -1.3310 -1.5277
 2628SOL    MW410280   3.053   4.393   5.959  0.1590  0.0026 -0.6213
 2629SOL     OW10281   0.860   0.634   1.171  0.3373 -0.5428  0.3497
 2629SOL    HW210282   0.952   0.638   1.143  0.5465 -1.4170  0.8930
 2629SOL    HW310283   0.824   0.559   1.124 -0.0236 -0.3874  0.3765
 2629SOL    MW410284   0.868   0.625   1.161  0.1595 -0.9190 -0.0364
 2630SOL     OW10285   1.760   0.730   3.464  0.1595  0.4724 -0.0614
 2630SOL    HW210286   1.705   0.798   3.426 -0.9943  0.1705  1.0091
 2630SOL    HW310287   1.841   0.735   3.414 -1.4391 -0.2860 -2.9461
 2630SOL    MW410288   1.763   0.740   3.452 -0.1422 -0.3944 -0.5227
 2631SOL     OW10289   5.539   1.965   4.695  0.3140  0.0740  0.4656
 2631SOL    HW210290   5.601   1.898   4.724 -1.3512 -0.5483  2.8648
 2631SOL    HW310291   5.577   2.048   4.725 -0.2643 -0.3623  2.5329
 2631SOL    MW410292   5.553   1.967   4.703 -0.0673 -0.2392 -0.2135
 2632SOL     OW10293   1.307   2.207   3.413  0.0701  0.9853  0.3768
 2632SOL    HW210294   1.282   2.230   3.502  0.2860  0.4214  0.5853
 2632SOL    HW310295   1.329   2.291   3.372  1.4013  1.1190  1.2925
 2632SOL    MW410296   1.307   2.221   3.419  0.3110  0.6560 -0.5446
 2633SOL     OW10297   3.449   5.659   3.448 -0.1954  0.0607  0.1001
 2633SOL    HW210298   3.475   5.751   3.455  0.7102 -0.2259  0.7530
 2633SOL    HW310299   3.429   5.646   3.356 -0.5110  0.9571  0.0374
 2633SOL    MW410300   3.450   5.669   3.437  0.0029 -0.2507  0.0814
 2634SOL     OW10301   3.705   4.223   6.386 -0.4367 -0.4057  0.1437
 2634SOL    HW210302   3.695   4.178   6.469  2.2980 -1.0200  0.2287
 2634SOL    HW310303   3.714   4.153   6.321 -0.6424  0.0582 -0.4008
 2634SOL    MW410304   3.705   4.208   6.388  0.0946 -0.4595 -0.1653
 2635SOL     OW10305   1.242   0.865   3.432 -0.6709  0.0889  0.1227
 2635SOL    HW210306   1.321   0.811   3.428 -0.5572  0.2871 -0.4075
 2635SOL    HW310307   1.184   0.829   3.365 -0.5451  0.6895 -0.3199
 2635SOL    MW410308   1.245   0.853   3.423 -0.4283  0.5029 -0.0004
 2636SOL     OW10309   5.925   0.376   3.294  0.0872  0.0235 -0.2213
 2636SOL    HW210310   5.890   0.464   3.309 -0.0373 -0.2581  1.3519
 2636SOL    HW310311   5.935   0.369   3.199 -2.1272  0.8869 -0.5620
 2636SOL    MW410312   5.922   0.387   3.283  0.3298 -0.0646  0.2302
 2637SOL     OW10313   5.260   0.838   1.876 -0.1284  0.4352  0.2861
 2637SOL    HW210314   5.325   0.852   1.945  0.4033  0.4124 -0.1971
 2637SOL    HW310315   5.177   0.864   1.915  0.3799  1.9624  0.4474
 2637SOL    MW410316   5.258   0.844   1.890 -0.5306 -0.4137 -0.2856
 2638SOL     OW10317   1.132   4.650   6.008  0.1977 -0.8260  0.1054
 2638SOL    HW210318   1.192   4.673   5.937 -1.1905 -0.1832 -0.8989
 2638SOL    HW310319   1.148   4.557   6.023  1.1988 -0.7491 -0.3614
 2638SOL    MW410320   1.142   4.641   6.001 -0.3452  0.3245 -0.2838
 2639SOL     OW10321   0.986   4.217   0.796 -0.2779  0.2992 -0.2334
 2639SOL    HW210322   1.054   4.163   0.836  0.1346  2.1242  1.7833
 2639SOL    HW310323   1.033   4.291   0.758 -0.9668  0.5006 -0.7188
 2639SOL    MW410324   1.001   4.220   0.797  0.9448 -0.4227  0.4401
 2640SOL     OW10325   3.291   2.506   5.264 -0.0957 -0.3565  0.0567
 2640SOL    HW210326   3.295   2.591   5.307 -1.5025  0.6714 -1.7045
 2640SOL    HW310327   3.382   2.483   5.245  0.2733  0.9603  0.1872
 2640SOL    MW410328   3.304   2.514   5.267 -0.3991 -0.5111 -0.0020
 2641SOL     OW10329   5.108   2.089   1.973  0.2965  0.3376 -0.2553
 2641SOL    HW210330   5.055   2.009   1.973  1.8701 -0.7852 -1.7412
 2641SOL    HW310331   5.052   2.155   1.932 -0.6754 -0.2542  0.0935
 2641SOL    MW410332   5.094   2.087   1.967  0.9934  0.1583  0.3380
 2642SOL     OW10333   1.551   5.005   2.223 -0.0723  0.1128 -0.1461
 2642SOL    HW210334   1.584   5.068   2.287 -0.1006  1.2339 -1.2084
 2642SOL    HW310335   1.536   4.925   2.274  0.2899  0.8481  1.1589
 2642SOL    MW410336   1.554   5.003   2.238  0.7087 -0.5976 -0.4904
 2643SOL     OW10337   5.065   1.566   5.707 -0.0145 -0.4625 -0.1028
 2643SOL    HW210338   5.117   1.611   5.774  0.1264  0.5605 -0.8666
 2643SOL    HW310339   5.022   1.637   5.658 -4.7021 -1.2274  2.3617
 2643SOL    MW410340   5.067   1.582   5.709  0.7603  0.7009 -0.3905
 2644SOL     OW10341   4.655   0.036   6.229 -0.0126 -0.0238  0.3988
 2644SOL    HW210342   4.646   0.031   6.324  0.9031  1.2938  0.5687
 2644SOL    HW310343   4.733  -0.015   6.209 -0.9317 -1.4152  0.1785
 2644SOL    MW410344   4.664   0.028   6.239 -1.0929 -0.1640 -0.0376
 2645SOL     OW10345   0.086   5.397   6.075  0.2350 -0.1266 -0.1875
 2645SOL    HW210346   0.070   5.420   6.166 -0.6690  0.8438 -0.5834
 2645SOL    HW310347   0.121   5.477   6.035 -2.2731  0.4397 -1.4012
 2645SOL    MW410348   0.089   5.410   6.081  0.3339  0.2519  0.7595
 2646SOL     OW10349   4.897   4.453   4.327  0.4223 -0.3059 -0.0770
 2646SOL    HW210350   4.943   4.529   4.292  0.8301 -0.5945 -0.1777
 2646SOL    HW310351   4.808   4.484   4.342  0.4719  0.0756 -0.5246
 2646SOL    MW410352   4.891   4.467   4.324 -0.2221 -0.6730 -0.1340
 2647SOL     OW10353   3.329   1.724   5.314 -0.2902  0.2848  0.3837
 2647SOL    HW210354   3.358   1.636   5.340 -0.3534  0.6859  1.9054
 2647SOL    HW310355   3.408   1.777   5.317 -0.2126  0.2576 -0.7383
 2647SOL    MW410356   3.343   1.719   5.318 -0.0605  0.3135  0.1350
 2648SOL     OW10357   1.469   5.824   2.287 -0.0182 -0.4710 -0.1524
 2648SOL    HW210358   1.478   5.744   2.235  0.2251 -0.8785  0.5064
 2648SOL    HW310359   1.493   5.895   2.227 -0.6195 -0.8514 -0.8559
 2648SOL    MW410360   1.473   5.823   2.272 -0.0142  0.1681 -0.1136
 2649SOL     OW10361   6.111   2.265   4.882  0.3124 -0.5121  0.1033
 2649SOL    HW210362   6.205   2.258   4.899  0.2346 -2.4142 -0.0854
 2649SOL    HW310363   6.102   2.240   4.790 -0.2829  0.7850 -0.2159
 2649SOL    MW410364   6.122   2.261   4.872  0.4940 -0.1621  0.2494
 2650SOL     OW10365   1.389   3.469   0.495 -0.2517  0.1936  0.3057
 2650SOL    HW210366   1.472   3.517   0.500  1.2043 -2.0634 -0.5612
 2650SOL    HW310367   1.367   3.470   0.402 -0.3893 -0.4946  0.3276
 2650SOL    MW410368   1.397   3.475   0.483  0.2618 -0.2956  0.6382
 2651SOL     OW10369   3.408   5.803   0.846  0.4076  0.0745  0.6943
 2651SOL    HW210370   3.432   5.762   0.763  1.5335  0.1046  0.9896
 2651SOL    HW310371   3.363   5.734   0.895 -2.2657  0.6652 -0.7534
 2651SOL    MW410372   3.406   5.789   0.842  0.5183 -0.3018  0.0446
 2652SOL     OW10373   2.460   6.102   0.649  0.0782 -0.5889 -0.1298
 2652SOL    HW210374   2.455   6.124   0.555  0.3594 -1.0695 -0.2583
 2652SOL    HW310375   2.368   6.097   0.677 -0.0024  0.3726 -0.1833
 2652SOL    MW410376   2.447   6.105   0.640 -0.0059 -0.4139  0.1787
 2653SOL     OW10377   1.580   3.726   5.466  0.4583 -0.2298  0.7419
 2653SOL    HW210378   1.515   3.758   5.527  0.3503 -0.5212  0.7784
 2653SOL    HW310379   1.663   3.764   5.497  0.1615  1.0627  0.0500
 2653SOL    MW410380   1.583   3.735   5.478  0.7149  0.1944  0.1016
 2654SOL     OW10381   3.013   2.892   3.536 -0.3569 -0.4678  0.1126
 2654SOL    HW210382   2.933   2.885   3.589 -0.8725  0.4683 -0.5084
 2654SOL    HW310383   2.988   2.856   3.451 -0.5956  1.1564 -0.5489
 2654SOL    MW410384   2.999   2.887   3.532  0.0120 -0.0146 -0.1631
 2655SOL     OW10385   0.332   3.963   2.086  0.8282  0.2929 -0.0179
 2655SOL    HW210386   0.327   3.967   1.990  1.8421  0.1428 -0.0934
 2655SOL    HW310387   0.241   3.957   2.115  0.5558 -0.8677 -1.0292
 2655SOL    MW410388   0.320   3.963   2.077 -0.0466 -0.3232 -0.0151
 2656SOL     OW10389   3.880   4.662   3.109 -0.6824 -0.7267 -0.2553
 2656SOL    HW210390   3.827   4.642   3.187  1.1439 -0.9901  0.9711
 2656SOL    HW310391   3.963   4.694   3.144  0.0009 -0.3530 -2.1210
 2656SOL    MW410392   3.884   4.663   3.124  0.0370  0.1719 -0.3863
 2657SOL     OW10393   2.903   2.121   0.421 -0.1732  0.0145 -0.0194
 2657SOL    HW210394   2.945   2.198   0.459 -0.4454  0.4451 -0.5763
 2657SOL    HW310395   2.931   2.121   0.329 -0.1712 -0.5537 -0.0227
 2657SOL    MW410396   2.913   2.131   0.414 -0.4124  0.3172  0.2226
 2658SOL     OW10397   0.898   2.247   5.227 -0.1012  0.0322 -0.9515
 2658SOL    HW210398   0.878   2.187   5.156 -1.2382  1.7687 -2.1878
 2658SOL    HW310399   0.873   2.200   5.306 -1.0859 -1.0748 -1.8786
 2658SOL    MW410400   0.892   2.233   5.228 -0.4010 -0.2510 -0.9402
 2659SOL     OW10401   3.932   5.485   5.400 -0.0435  0.7563  0.3686
 2659SOL    HW210402   4.023   5.510   5.385 -0.2317  1.5168  0.4080
 2659SOL    HW310403   3.925   5.472   5.494  0.6333 -1.9055  0.1084
 2659SOL    MW410404   3.943   5.487   5.410 -0.9309 -0.2045 -0.1470
 2660SOL     OW10405   3.510   2.414   3.831 -0.2365  0.5994  0.4089
 2660SOL    HW210406   3.549   2.356   3.897  0.6464  1.7279  0.9159
 2660SOL    HW310407   3.519   2.366   3.749  0.3373 -0.0578  0.8377
 2660SOL    MW410408   3.516   2.400   3.829 -0.0690 -0.5165  0.4563
 2661SOL     OW10409   4.031   4.538   1.978 -0.4772  0.5014 -0.2477
 2661SOL    HW210410   4.077   4.527   2.062  1.2093  1.5727 -0.9718
 2661SOL    HW310411   3.939   4.544   2.002 -0.2018 -0.8373  1.3701
 2661SOL    MW410412   4.025   4.537   1.992 -0.4234 -0.4132 -0.1714
 2662SOL     OW10413   5.224   5.585   4.272  0.0929 -0.2718 -0.1170
 2662SOL    HW210414   5.172   5.627   4.340  0.1319  0.1964 -0.3710
 2662SOL    HW310415   5.296   5.647   4.255 -0.9177  0.4962 -1.8691
 2662SOL    MW410416   5.227   5.599   4.279 -0.0933 -0.5148  0.0862
 2663SOL     OW10417   1.458   3.359   4.687 -0.2890  0.9851  0.0383
 2663SOL    HW210418   1.372   3.387   4.719  0.2653  1.3602  1.2723
 2663SOL    HW310419   1.519   3.421   4.726  0.7398 -0.4721  0.8549
 2663SOL    MW410420   1.455   3.371   4.697 -0.0107 -0.0758 -0.4505
 2664SOL     OW10421   1.712   3.498   2.907 -0.0155 -0.3517 -0.5618
 2664SOL    HW210422   1.774   3.478   2.837  2.4684 -0.6095  1.5630
 2664SOL    HW310423   1.675   3.414   2.932  1.8432 -0.8277  0.7743
 2664SOL    MW410424   1.715   3.485   2.901  0.6364  0.3479 -1.1097
 2665SOL     OW10425   4.394   2.579   6.271 -0.3174 -0.5978  0.7640
 2665SOL    HW210426   4.360   2.662   6.239  1.4928  0.5353  1.6101
 2665SOL    HW310427   4.452   2.548   6.202 -0.7144 -1.0027  0.6041
 2665SOL    MW410428   4.397   2.586   6.258 -0.0422  0.0083  0.1474
 2666SOL     OW10429   5.559   0.363  -0.000 -0.0576  0.9216  0.3450
 2666SOL    HW210430   5.538   0.450   0.035 -1.5295  0.6749  0.1357
 2666SOL    HW310431   5.607   0.320   0.070  2.4339  2.5220 -0.2125
 2666SOL    MW410432   5.563   0.369   0.014 -0.4691 -0.5579  0.3249
 2667SOL     OW10433   0.320   4.355   2.915  0.4311 -0.0151  0.4439
 2667SOL    HW210434   0.278   4.278   2.954 -2.0424  0.5050 -0.9928
 2667SOL    HW310435   0.319   4.337   2.821  2.5868  0.5045  0.2733
 2667SOL    MW410436   0.314   4.342   2.908  0.4778 -0.0501 -0.1394
 2668SOL     OW10437   4.182   5.078   2.345  0.2235 -0.0829 -1.0379
 2668SOL    HW210438   4.197   4.995   2.390  2.4901  1.6109  1.6084
 2668SOL    HW310439   4.096   5.106   2.375  0.2660 -0.5680 -0.4436
 2668SOL    MW410440   4.172   5.071   2.355 -0.0956 -0.4682 -0.6540
 2669SOL     OW10441   5.259   3.819   5.627 -0.2147  0.1820 -0.3877
 2669SOL    HW210442   5.324   3.888   5.614  0.4820 -0.5950 -1.2521
 2669SOL    HW310443   5.311   3.741   5.648 -0.7935 -0.6109 -1.7677
 2669SOL    MW410444   5.275   3.818   5.628  0.6519 -0.3933 -0.0542
 2670SOL     OW10445   2.495   1.556   1.467  0.7747 -1.0880 -0.0813
 2670SOL    HW210446   2.452   1.470   1.462 -0.3071 -0.6045  0.3687
 2670SOL    HW310447   2.588   1.537   1.471  0.7037 -2.1394 -2.4137
 2670SOL    MW410448   2.501   1.542   1.467 -0.4044 -0.0199 -0.4000
 2671SOL     OW10449   0.750   3.141   3.581 -0.2256 -0.0158  0.4975
 2671SOL    HW210450   0.690   3.071   3.607 -1.3101  0.7026 -0.0070
 2671SOL    HW310451   0.816   3.143   3.651 -2.6406  1.3948  2.9260
 2671SOL    MW410452   0.751   3.132   3.594 -0.0710  0.2843  0.4536
 2672SOL     OW10453   6.095   3.781   3.329 -0.2004 -0.0811 -0.2142
 2672SOL    HW210454   6.010   3.739   3.318  0.0639 -0.5585 -0.5253
 2672SOL    HW310455   6.127   3.748   3.413 -0.0980 -0.3223 -0.3451
 2672SOL    MW410456   6.088   3.771   3.339  0.1673 -0.0118  0.0373
 2673SOL     OW10457   0.789   0.876   4.718  0.1708  0.0166  0.5463
 2673SOL    HW210458   0.729   0.872   4.644 -1.0011 -2.6699  1.5379
 2673SOL    HW310459   0.866   0.922   4.684 -1.0323  0.4357 -1.7842
 2673SOL    MW410460   0.791   0.882   4.704 -0.2299  0.3455 -0.6477
 2674SOL     OW10461   0.446   1.922   3.001 -0.2739 -0.4105  0.2671
 2674SOL    HW210462   0.434   1.984   3.074 -1.7635 -0.3264 -0.0109
 2674SOL    HW310463   0.384   1.952   2.934 -0.0636 -1.4250 -0.4054
 2674SOL    MW410464   0.436   1.934   3.002 -0.2713 -0.4544  0.3153
 2675SOL     OW10465   5.149   3.754   4.730 -0.4503 -0.1962  0.4512
 2675SOL    HW210466   5.150   3.754   4.826 -0.5036  0.6274  0.4592
 2675SOL    HW310467   5.056   3.763   4.707 -0.3882  0.1442  0.3292
 2675SOL    MW410468   5.137   3.755   4.740  0.8709 -0.4553  0.3696
 2676SOL     OW10469   4.486   0.033   1.209  0.5210 -0.1087 -0.7563
 2676SOL    HW210470   4.532   0.058   1.289  0.6067 -0.8141 -0.5759
 2676SOL    HW310471   4.478   0.115   1.159 -1.5754  0.8367  0.9721
 2676SOL    MW410472   4.491   0.047   1.213 -0.5185 -1.2062 -0.2763
 2677SOL     OW10473   0.578   1.701   5.385 -0.2703 -0.0317  0.5468
 2677SOL    HW210474   0.660   1.692   5.433  0.1159 -0.5678 -0.2044
 2677SOL    HW310475   0.598   1.672   5.296 -1.1912  0.1412  0.2693
 2677SOL    MW410476   0.592   1.696   5.379  0.2729  0.2187 -0.3170
 2678SOL     OW10477   4.946   5.396   2.190 -0.0288  0.5448  0.0027
 2678SOL    HW210478   4.884   5.468   2.201 -0.4740  0.1236  0.2760
 2678SOL    HW310479   4.944   5.376   2.096  1.6169  2.2266 -0.4483
 2678SOL    MW410480   4.938   5.403   2.179 -0.1443  0.0760 -0.5662
 2679SOL     OW10481   1.724   5.796   6.063  0.0197 -0.2183  0.0754
 2679SOL    HW210482   1.645   5.846   6.083  0.5682  0.9996 -0.6623
 2679SOL    HW310483   1.742   5.745   6.142 -2.2509 -1.6040 -0.2155
 2679SOL    MW410484   1.716   5.796   6.076  0.4390  0.6004  0.3569
 2680SOL     OW10485   2.589   6.293   1.244  0.3085  0.4796 -0.0490
 2680SOL    HW210486   2.670   6.344   1.250  1.4952 -1.1975 -0.9722
 2680SOL    HW310487   2.588   6.241   1.324  0.9976 -0.6251 -0.7226
 2680SOL    MW410488   2.600   6.293   1.255 -0.0442 -0.1014  0.2463
 2681SOL     OW10489   3.957   4.221   6.161 -0.2005  0.0521  0.2554
 2681SOL    HW210490   3.896   4.289   6.190  1.0086  1.0768  0.4730
 2681SOL    HW310491   3.991   4.183   6.242 -0.2959 -0.2995  0.1348
 2681SOL    MW410492   3.953   4.225   6.176  0.6051  0.9368 -0.0847
 2682SOL     OW10493   4.471   0.025   2.184 -0.4191  0.1500  0.0798
 2682SOL    HW210494   4.501   0.049   2.096  0.4494 -0.1292  0.2913
 2682SOL    HW310495   4.543   0.052   2.241 -1.3130  1.0857  0.8105
 2682SOL    MW410496   4.485   0.032   2.180 -0.3064  0.0161  0.2924
 2683SOL     OW10497   2.035   3.516   2.884 -0.3702 -0.2854  0.1227
 2683SOL    HW210498   2.101   3.556   2.828 -0.8297  1.2045  0.5894
 2683SOL    HW310499   2.053   3.422   2.879  2.2503  0.1018  0.8458
 2683SOL    MW410500   2.046   3.509   2.876  0.1212  0.3160 -0.0554
 2684SOL     OW10501   1.115   1.856   3.155 -0.3661  0.6810 -0.2696
 2684SOL    HW210502   1.122   1.797   3.229 -1.9104 -0.5336 -1.0375
 2684SOL    HW310503   1.022   1.874   3.147 -0.0371  2.3589 -0.7425
 2684SOL    MW410504   1.104   1.851   3.164  0.3376 -0.1875  0.1090
 2685SOL     OW10505   4.209   3.997   2.079 -0.2945 -0.1990 -0.7543
 2685SOL    HW210506   4.294   4.040   2.073  0.2478 -1.2232 -0.4800
 2685SOL    HW310507   4.160   4.049   2.143  1.0081 -1.0371  0.9823
 2685SOL    MW410508   4.213   4.010   2.086  0.3057  0.4879 -0.0348
 2686SOL     OW10509   5.343   1.781   1.735  0.0963  0.2741 -0.4501
 2686SOL    HW210510   5.262   1.733   1.717 -1.5011  1.9496  1.6777
 2686SOL    HW310511   5.410   1.713   1.744 -0.8981 -1.1357 -2.8479
 2686SOL    MW410512   5.341   1.766   1.734 -0.3745 -0.1012  0.1563
 2687SOL     OW10513   1.986   5.464   5.781 -0.5057 -0.1228  0.5805
 2687SOL    HW210514   1.991   5.377   5.740 -1.7570 -0.0460  0.2329
 2687SOL    HW310515   2.035   5.521   5.722  1.4413 -0.7911  1.4645
 2687SOL    MW410516   1.993   5.460   5.768  0.7825  0.0370 -0.0160
 2688SOL     OW10517   6.320   0.251   1.296  0.0887  0.1938  0.6153
 2688SOL    HW210518   6.305   0.209   1.381 -0.5487  0.3302  0.5724
 2688SOL    HW310519   6.280   0.192   1.233  1.5335 -0.4798  0.2806
 2688SOL    MW410520   6.313   0.238   1.299  0.3107  0.4916  0.0305
 2689SOL     OW10521   5.984   5.572   2.850 -0.1137  1.3188 -0.4074
 2689SOL    HW210522   6.075   5.543   2.853 -0.7800 -0.8422  0.8696
 2689SOL    HW310523   5.949   5.531   2.770 -0.1794  1.4909 -0.4676
 2689SOL    MW410524   5.991   5.563   2.840  0.0791 -0.2857 -0.4967
 2690SOL     OW10525   1.132   5.625   2.898 -0.5687  0.8564  0.6009
 2690SOL    HW210526   1.038   5.634   2.913 -0.9240  1.9674 -1.8933
 2690SOL    HW310527   1.139   5.579   2.814  1.0690  2.2452 -0.0722
 2690SOL    MW410528   1.120   5.620   2.889  0.0583 -0.3223  0.4204
 2691SOL     OW10529   0.110   1.994   6.299  0.3257  0.9233 -0.2393
 2691SOL    HW210530   0.105   1.948   6.383  1.3437 -0.4257 -0.8778
 2691SOL    HW310531   0.191   2.045   6.304 -0.3996  2.0871  0.1599
 2691SOL    MW410532   0.120   1.995   6.310 -0.8289  0.1622  0.3115
 2692SOL     OW10533   4.491   3.117   0.382  0.1626 -0.0446 -0.6349
 2692SOL    HW210534   4.479   3.100   0.476  3.2691  0.2698 -0.0427
 2692SOL    HW310535   4.514   3.210   0.378  2.0752 -0.4995 -1.3877
 2692SOL    MW410536   4.493   3.127   0.394  0.0763  0.0728  0.6338
 2693SOL     OW10537   2.895   0.243   2.146  0.5947 -0.2611 -0.4880
 2693SOL    HW210538   2.879   0.184   2.220  0.1406  1.1756  0.5838
 2693SOL    HW310539   2.975   0.290   2.169  0.6584 -0.0655 -1.0986
 2693SOL    MW410540   2.903   0.241   2.159  0.0548  0.3611 -0.3492
 2694SOL     OW10541   6.041   2.712   3.398 -0.5620 -0.3873  0.2117
 2694SOL    HW210542   6.050   2.666   3.481  0.8430  1.2732  1.0573
 2694SOL    HW310543   6.053   2.804   3.421  0.6386  0.0498 -1.9098
 2694SOL    MW410544   6.044   2.718   3.412 -0.1945  0.1138 -0.0365
 2695SOL     OW10545   4.187   0.917   6.379  0.0452  1.1593  0.5457
 2695SOL    HW210546   4.211   0.873   6.460 -2.7699 -2.5045 -0.3396
 2695SOL    HW310547   4.104   0.960   6.400 -1.0775 -0.4188 -0.4406
 2695SOL    MW410548   4.179   0.917   6.393 -0.6056 -0.0841 -0.3349
 2696SOL     OW10549   2.303   6.288   3.680 -0.0120  0.2054  0.3641
 2696SOL    HW210550   2.350   6.279   3.763  1.0351 -0.3390 -0.2762
 2696SOL    HW310551   2.328   6.375   3.647 -1.5545  1.0474  1.2748
 2696SOL    MW410552   2.312   6.298   3.687 -0.0996  0.3344 -0.0773
 2697SOL     OW10553   5.032   5.435   0.370  0.0540  0.0284 -0.9422
 2697SOL    HW210554   4.945   5.393   0.370  0.7694 -1.5409 -0.6376
 2697SOL    HW310555   5.025   5.504   0.304 -2.2000  1.6616  0.8683
 2697SOL    MW410556   5.019   5.438   0.361 -0.7858 -0.6455 -0.8662
 2698SOL     OW10557   1.387   3.603   1.919 -0.4745 -0.5774 -0.4649
 2698SOL    HW210558   1.451   3.607   1.848 -1.1200  2.2664 -0.9967
 2698SOL    HW310559   1.305   3.578   1.876 -0.5911 -0.1282 -0.5064
 2698SOL    MW410560   1.384   3.600   1.904  0.2576  0.2120  0.2973
 2699SOL     OW10561   5.218   1.403   2.179 -0.1292 -0.3950  0.1269
 2699SOL    HW210562   5.255   1.315   2.171 -0.4714 -0.3432 -2.8601
 2699SOL    HW310563   5.258   1.438   2.259  0.2426 -3.1129  1.2392
 2699SOL    MW410564   5.228   1.396   2.189 -0.3272 -0.3933 -0.0278
 2700SOL     OW10565   0.928   6.161   4.296 -0.0627  0.0769 -0.6667
 2700SOL    HW210566   0.951   6.084   4.348  1.2261  2.4333  2.5502
 2700SOL    HW310567   1.004   6.176   4.240  1.1505  0.8501  1.1200
 2700SOL    MW410568   0.941   6.153   4.296  0.0703  0.0567  0.2302
 2701SOL     OW10569   4.284   3.240   5.159 -0.0740 -0.0279 -0.2888
 2701SOL    HW210570   4.231   3.167   5.190 -0.5278  0.1234 -0.6848
 2701SOL    HW310571   4.252   3.257   5.071  1.4902 -0.7333 -1.0331
 2701SOL    MW410572   4.273   3.233   5.152  0.5583 -0.0929 -0.3857
 2702SOL     OW10573   0.577   1.902   5.997  0.5870 -0.2358  0.5806
 2702SOL    HW210574   0.572   1.821   6.046 -0.9596 -0.6380 -0.1874
 2702SOL    HW310575   0.643   1.954   6.043  0.4968 -1.3042  1.9827
 2702SOL    MW410576   0.585   1.898   6.009  0.2027 -0.1821  0.2861
 2703SOL     OW10577   2.610   2.818   2.399 -0.2809  0.6084  0.1847
 2703SOL    HW210578   2.520   2.802   2.373  0.5236  0.3965 -2.8790
 2703SOL    HW310579   2.635   2.741   2.450 -0.5810 -1.5942 -2.7458
 2703SOL    MW410580   2.602   2.806   2.402  0.1137  0.1026 -0.2490
 2704SOL     OW10581   1.808   4.394   5.188 -0.3044  0.0811 -0.3278
 2704SOL    HW210582   1.760   4.327   5.139  0.2344 -0.8996  0.4457
 2704SOL    HW310583   1.894   4.355   5.203  0.0910  1.0405 -0.0317
 2704SOL    MW410584   1.813   4.380   5.183 -0.0621  0.2714 -0.0417
 2705SOL     OW10585   2.143   2.687   0.966 -0.2465 -0.3518  0.4281
 2705SOL    HW210586   2.106   2.607   0.928  2.3053 -0.5298 -2.0370
 2705SOL    HW310587   2.073   2.751   0.960 -0.9885 -1.2826 -1.7685
 2705SOL    MW410588   2.129   2.685   0.960 -0.6456  0.2113 -0.2707
 2706SOL     OW10589   3.869   2.823   1.851 -0.2446  0.0102 -0.3162
 2706SOL    HW210590   3.779   2.804   1.879  0.0170 -0.4657  0.2284
 2706SOL    HW310591   3.877   2.918   1.858 -0.4389 -0.0244  0.4931
 2706SOL    MW410592   3.858   2.833   1.856  0.0231  0.4194  0.2597
 2707SOL     OW10593   3.242   5.760   1.988 -0.9645 -0.0503  0.8655
 2707SOL    HW210594   3.259   5.673   1.951 -0.1909  0.0097  1.0715
 2707SOL    HW310595   3.201   5.809   1.917 -0.0567 -0.1328  0.2740
 2707SOL    MW410596   3.238   5.755   1.974 -0.3815 -0.9852 -0.2203
 2708SOL     OW10597   3.840   3.560   4.089  0.0517 -0.2822  0.0985
 2708SOL    HW210598   3.844   3.654   4.068 -0.5675 -0.0529  0.9283
 2708SOL    HW310599   3.863   3.556   4.182  3.2457 -1.3170 -0.6203
 2708SOL    MW410600   3.843   3.572   4.098  0.6424  0.1976 -0.2150
 2709SOL     OW10601   1.091   1.882   3.718 -0.4548 -0.2750 -0.2431
 2709SOL    HW210602   1.166   1.828   3.742  0.3270  0.6808 -0.5004
 2709SOL    HW310603   1.044   1.896   3.801  0.4468  0.3121  0.1774
 2709SOL    MW410604   1.095   1.877   3.732  0.0469  0.2102  1.4832
 2710SOL     OW10605   4.129   4.910   3.672  0.8478  0.2625  0.4720
 2710SOL    HW210606   4.154   4.913   3.580 -1.9229  0.2010 -0.3756
 2710SOL    HW310607   4.070   4.985   3.684 -0.4838 -0.8902  1.6118
 2710SOL    MW410608   4.125   4.920   3.662 -0.0370 -0.9184 -0.3613
 2711SOL     OW10609   0.449   0.246   5.941 -0.5533  0.4839 -0.1988
 2711SOL    HW210610   0.463   0.221   5.849 -1.2917 -0.7476 -0.0003
 2711SOL    HW310611   0.482   0.171   5.991 -1.2518  0.6313  0.4944
 2711SOL    MW410612   0.456   0.233   5.935  0.0729 -0.3223  0.9085
 2712SOL     OW10613   2.494   2.082   5.912 -0.4556  0.0499  0.4537
 2712SOL    HW210614   2.539   2.019   5.854 -0.5627 -0.1073  0.5412
 2712SOL    HW310615   2.555   2.096   5.984 -0.5408 -0.1557  0.5669
 2712SOL    MW410616   2.508   2.075   5.914 -0.1272 -0.2547 -0.2581
 2713SOL     OW10617   5.445   5.400   6.369  0.3637  0.2115 -0.0409
 2713SOL    HW210618   5.375   5.368   6.425  2.5078  0.0537  2.7638
 2713SOL    HW310619   5.505   5.326   6.360  0.6632  0.6003 -1.6423
 2713SOL    MW410620   5.444   5.386   6.375 -0.3727 -0.1176  0.0543
 2714SOL     OW10621   6.390   2.124   5.182 -0.6484 -0.2440  0.1966
 2714SOL    HW210622   6.375   2.031   5.162 -0.6499 -0.2420  0.1885
 2714SOL    HW310623   6.396   2.166   5.096  1.8395 -0.6335  0.0900
 2714SOL    MW410624   6.389   2.117   5.168  0.0038 -0.0795 -0.2214
 2715SOL     OW10625   6.318   6.017   1.862  0.9231  0.1162  0.4866
 2715SOL    HW210626   6.334   6.037   1.954  1.4196 -0.8377  0.6241
 2715SOL    HW310627   6.393   6.054   1.815  0.2705  1.3095  0.3590
 2715SOL    MW410628   6.330   6.024   1.868 -0.2125  0.0762 -0.0632
 2716SOL     OW10629   2.021   4.714   3.038  0.7548  0.1438  0.0003
 2716SOL    HW210630   1.938   4.686   3.075  2.3112 -1.0486  2.8835
 2716SOL    HW310631   2.010   4.808   3.024 -0.4296  0.4423  2.3793
 2716SOL    MW410632   2.008   4.723   3.041  0.3391 -0.1322  0.0393
 2717SOL     OW10633   6.406   5.419   3.472 -0.5276  0.1481 -0.0723
 2717SOL    HW210634   6.406   5.356   3.543 -0.3961 -1.2218 -1.2564
 2717SOL    HW310635   6.341   5.485   3.499 -0.0401  0.0024  1.5650
 2717SOL    MW410636   6.397   5.420   3.485  0.8499 -0.0275  0.6082
 2718SOL     OW10637   5.852   3.544   1.480  0.2869 -0.0810 -0.1711
 2718SOL    HW210638   5.854   3.552   1.385 -0.9971  0.9790 -0.1473
 2718SOL    HW310639   5.767   3.503   1.499  0.6426 -0.5144  0.5007
 2718SOL    MW410640   5.841   3.540   1.470 -0.2611 -0.5270 -0.8177
 2719SOL     OW10641   0.946   4.517   4.192 -0.1092  0.0676 -0.3470
 2719SOL    HW210642   0.869   4.528   4.137  0.4581  0.1356 -1.1452
 2719SOL    HW310643   0.938   4.585   4.259 -1.4540 -0.8249  0.4437
 2719SOL    MW410644   0.935   4.527   4.193 -0.1894  0.5988  0.1422
 2720SOL     OW10645   1.161   5.727   5.359 -0.0314 -0.1368 -0.5514
 2720SOL    HW210646   1.195   5.638   5.354  0.3410 -0.0055 -0.3369
 2720SOL    HW310647   1.235   5.783   5.338  0.0378  0.1740  0.4597
 2720SOL    MW410648   1.175   5.723   5.355  0.2200  0.0883  0.3247
 2721SOL     OW10649   1.824   3.569   1.420 -0.3657  0.6202  0.1268
 2721SOL    HW210650   1.880   3.632   1.465  0.5819 -0.4173  0.4481
 2721SOL    HW310651   1.845   3.485   1.460 -1.8652  0.1368 -0.0471
 2721SOL    MW410652   1.834   3.566   1.431 -0.1100  0.0961 -0.0864
 2722SOL     OW10653   4.545   5.733   4.431 -0.3563  0.2314  0.5647
 2722SOL    HW210654   4.519   5.693   4.348 -2.2984  2.4223  0.0257
 2722SOL    HW310655   4.628   5.691   4.452 -1.2392 -2.5461 -0.9391
 2722SOL    MW410656   4.552   5.722   4.423  0.4348 -0.5738 -0.2465
 2723SOL     OW10657   4.994   3.198   4.994  0.6006 -0.1159 -0.1414
 2723SOL    HW210658   5.022   3.251   5.068  0.5664 -0.6778  0.2785
 2723SOL    HW310659   4.901   3.218   4.984  0.4021 -0.6718  0.5095
 2723SOL    MW410660   4.986   3.207   5.002 -0.5745  0.7231  0.3231
 2724SOL     OW10661   3.593   5.158   1.872  0.3547 -0.2783  0.4588
 2724SOL    HW210662   3.617   5.240   1.916 -0.8903 -0.4827  1.5617
 2724SOL    HW310663   3.520   5.183   1.815  2.2128  0.0779 -1.9222
 2724SOL    MW410664   3.587   5.172   1.870  0.7760 -0.0034  0.0337
 2725SOL     OW10665   3.141   5.608   3.075 -0.4665  0.4309 -0.6182
 2725SOL    HW210666   3.148   5.679   3.012 -2.0604  0.7116 -0.5053
 2725SOL    HW310667   3.106   5.648   3.154  0.6550 -0.0905  0.1699
 2725SOL    MW410668   3.138   5.622   3.077 -0.1246 -0.0522 -0.2472
 2726SOL     OW10669   0.708   5.980   1.881  0.5260  0.6737  0.1816
 2726SOL    HW210670   0.797   5.947   1.887  0.1438 -0.8887 -1.7087
 2726SOL    HW310671   0.653   5.906   1.906 -0.2982  1.7615  1.8180
 2726SOL    MW410672   0.712   5.966   1.885  0.2976 -0.2969  0.0971
 2727SOL     OW10673   0.165   2.287   0.707  0.0558  0.2791 -0.1210
 2727SOL    HW210674   0.161   2.270   0.613 -1.7542 -1.2442  0.1583
 2727SOL    HW310675   0.081   2.328   0.727 -0.9920 -2.3062  1.2615
 2727SOL    MW410676   0.153   2.291   0.697  0.0754 -0.0699  0.1354
 2728SOL     OW10677   4.252   1.256   4.674 -0.5010  0.7784 -0.1386
 2728SOL    HW210678   4.250   1.288   4.764  1.3972 -0.8909  0.5803
 2728SOL    HW310679   4.239   1.162   4.681  1.3906  0.3637 -1.4125
 2728SOL    MW410680   4.250   1.248   4.686  0.1902 -0.2777  0.3791
 2729SOL     OW10681   3.306   2.665   4.628  0.9767 -0.6307  0.0204
 2729SOL    HW210682   3.282   2.688   4.718 -1.3845 -0.5607 -0.5484
 2729SOL    HW310683   3.375   2.727   4.605  0.7447  0.1772  1.3821
 2729SOL    MW410684   3.312   2.676   4.637  0.0285 -0.5437  0.0577
 2730SOL     OW10685   4.249   3.360   3.381  0.2437  0.1667  0.1236
 2730SOL    HW210686   4.182   3.382   3.316  1.7312  3.8058 -0.4052
 2730SOL    HW310687   4.323   3.328   3.329  0.2195 -0.3184  0.3811
 2730SOL    MW410688   4.250   3.358   3.366 -0.2356  0.6114 -0.7812
 2731SOL     OW10689   4.248   5.903   5.194 -0.8461  0.1667 -0.1475
 2731SOL    HW210690   4.168   5.931   5.150 -0.3021  0.1002 -1.1903
 2731SOL    HW310691   4.303   5.982   5.196  0.4173 -0.5750 -2.4931
 2731SOL    MW410692   4.245   5.918   5.189  0.4263  0.2462  0.5719
 2732SOL     OW10693   4.437   0.029   1.501 -0.1480  0.8050  0.9499
 2732SOL    HW210694   4.353  -0.006   1.472  0.4391  0.9442 -1.1406
 2732SOL    HW310695   4.443   0.114   1.458  2.4445 -0.5944 -1.8224
 2732SOL    MW410696   4.427   0.036   1.491 -0.6727 -0.5964  0.0714
 2733SOL     OW10697   5.600   1.144   0.444 -0.1715 -0.2659 -0.3627
 2733SOL    HW210698   5.548   1.195   0.383 -2.1086 -3.1370 -1.3493
 2733SOL    HW310699   5.549   1.142   0.525  0.3439  0.0942 -0.0195
 2733SOL    MW410700   5.587   1.150   0.447  0.2210  0.0570 -0.1990
 2734SOL     OW10701   5.386   3.285   0.303  0.0193 -0.5346 -0.1218
 2734SOL    HW210702   5.366   3.354   0.367 -0.1093 -0.3032 -0.4054
 2734SOL    HW310703   5.474   3.306   0.272  0.1268 -0.7125  0.0617
 2734SOL    MW410704   5.395   3.297   0.308 -0.4274 -0.3536 -0.0086
 2735SOL     OW10705   4.256   1.483   1.023 -0.3129 -0.1834 -0.1004
 2735SOL    HW210706   4.274   1.540   1.098  0.2645  0.2565 -0.5554
 2735SOL    HW310707   4.342   1.470   0.983 -0.9078  1.7566 -2.2192
 2735SOL    MW410708   4.270   1.489   1.028 -0.0918 -0.1241  0.5096
 2736SOL     OW10709   5.301   0.585   2.706 -0.2566 -0.0130  0.4683
 2736SOL    HW210710   5.243   0.551   2.638  2.3087 -0.4407 -1.6705
 2736SOL    HW310711   5.381   0.533   2.697  1.0485  1.5574  2.2185
 2736SOL    MW410712   5.304   0.574   2.696  0.3621  0.3938 -0.5354
 2737SOL     OW10713   1.334   2.398   2.743  0.4700 -0.2316  0.7592
 2737SOL    HW210714   1.259   2.457   2.739 -1.0449 -1.8114  3.2426
 2737SOL    HW310715   1.312   2.335   2.812  2.2494 -3.3013 -1.2145
 2737SOL    MW410716   1.321   2.397   2.751  0.2147 -0.4418  0.1655
 2738SOL     OW10717   6.090   6.117   2.917  0.0512  0.6214  0.5012
 2738SOL    HW210718   6.004   6.098   2.955 -0.2268 -0.6530 -0.6867
 2738SOL    HW310719   6.134   6.032   2.913  0.5047  0.9021 -0.9271
 2738SOL    MW410720   6.085   6.103   2.921  0.2626 -1.0729  0.5626
 2739SOL     OW10721   2.389   4.598   2.457 -0.3067  0.0125 -0.1863
 2739SOL    HW210722   2.448   4.525   2.474 -1.2396 -0.3236  1.9831
 2739SOL    HW310723   2.447   4.670   2.433  0.9694 -0.4474  1.3395
 2739SOL    MW410724   2.404   4.598   2.456 -0.1621 -0.2588 -0.1150
 2740SOL     OW10725   5.754   1.806   1.033 -0.1555  0.3474 -0.0098
 2740SOL    HW210726   5.808   1.727   1.025  1.7957  1.7597 -1.6792
 2740SOL    HW310727   5.664   1.773   1.032  0.5974 -1.9327  0.7916
 2740SOL    MW410728   5.749   1.791   1.032 -0.7424  0.1059 -0.4037
 2741SOL     OW10729   4.821   3.543   6.151 -0.1486  0.8662 -0.5614
 2741SOL    HW210730   4.830   3.448   6.153 -0.2874  0.8481 -0.7064
 2741SOL    HW310731   4.778   3.565   6.234 -1.5406  0.6325 -1.1815
 2741SOL    MW410732   4.816   3.534   6.162  0.1390 -0.2738  0.4246
 2742SOL     OW10733   0.621   3.883   1.808  0.1297 -0.5336  0.0864
 2742SOL    HW210734   0.526   3.868   1.812  0.4200 -2.2997  1.2594
 2742SOL    HW310735   0.647   3.850   1.722 -0.1007 -1.4898  0.3802
 2742SOL    MW410736   0.612   3.877   1.797 -0.5602  0.2121 -0.1541
 2743SOL     OW10737   4.782   6.194   5.084  0.0629 -1.1770  0.5961
 2743SOL    HW210738   4.763   6.251   5.159 -1.1608 -1.2961  0.3952
 2743SOL    HW310739   4.876   6.205   5.069 -0.2474  1.4020  0.0932
 2743SOL    MW410740   4.792   6.203   5.092  0.4588  0.3333  0.1178
 2744SOL     OW10741   5.342   3.733   1.890  0.4890 -0.3795 -0.4677
 2744SOL    HW210742   5.249   3.740   1.910  0.8536  0.0143  1.2552
 2744SOL    HW310743   5.355   3.641   1.867 -0.1357 -0.7022  0.4232
 2744SOL    MW410744   5.331   3.721   1.890  0.1266  0.2125  0.0006
 2745SOL     OW10745   1.155   5.849   4.868  0.0764  0.0064  0.6368
 2745SOL    HW210746   1.210   5.919   4.831 -0.1518 -0.7184 -1.1398
 2745SOL    HW310747   1.066   5.879   4.855 -0.0240 -0.6360 -0.1770
 2745SOL    MW410748   1.151   5.862   4.862 -0.3807  0.6620 -0.2990
 2746SOL     OW10749   5.442   3.010   0.248  0.2612 -0.1660  0.0804
 2746SOL    HW210750   5.497   2.966   0.313  0.0032  0.5521  0.8013
 2746SOL    HW310751   5.438   3.101   0.277  0.2558  0.2009 -1.0299
 2746SOL    MW410752   5.448   3.016   0.260  0.4500 -0.6496  0.3268
 2747SOL     OW10753   2.244   5.814   1.983  0.2149  0.7755 -0.0916
 2747SOL    HW210754   2.200   5.893   2.014  1.1225  1.9980 -1.7637
 2747SOL    HW310755   2.325   5.810   2.034 -0.4212  0.1637  0.9067
 2747SOL    MW410756   2.249   5.824   1.994  0.1254  0.4077  0.5331
 2748SOL     OW10757   4.142   1.968   1.984  0.0236  0.4638 -0.3568
 2748SOL    HW210758   4.103   1.895   2.032 -0.3475  1.8593  1.5764
 2748SOL    HW310759   4.214   1.998   2.038 -0.1248  1.8220 -0.8577
 2748SOL    MW410760   4.146   1.963   1.997 -0.2092 -0.1923  0.6951
 2749SOL     OW10761   1.455   3.141   5.389  0.0738  0.0210 -0.2155
 2749SOL    HW210762   1.438   3.104   5.475 -0.8774  0.8212 -0.0433
 2749SOL    HW310763   1.384   3.107   5.334 -1.0724  1.8547  0.0451
 2749SOL    MW410764   1.443   3.132   5.393 -0.7787  0.5414 -0.4699
 2750SOL     OW10765   4.997   0.880   3.247 -0.2029  0.1562  0.4102
 2750SOL    HW210766   4.996   0.870   3.342 -1.7859  0.3162  0.4355
 2750SOL    HW310767   5.051   0.957   3.232  0.7385 -0.3509  1.1173
 2750SOL    MW410768   5.004   0.889   3.257  0.3800  0.3481  0.0262
 2751SOL     OW10769   0.288   0.460   2.148  0.0025 -0.7916  0.0610
 2751SOL    HW210770   0.348   0.498   2.212 -0.8163  0.7933 -0.0595
 2751SOL    HW310771   0.338   0.461   2.066  0.5534 -1.4904  0.3850
 2751SOL    MW410772   0.303   0.465   2.145 -0.1647  0.7105 -0.5466
 2752SOL     OW10773   5.215   5.219   1.090 -0.4622 -0.4731 -0.2484
 2752SOL    HW210774   5.236   5.154   1.158  2.7630  0.9360  0.3229
 2752SOL    HW310775   5.143   5.270   1.127  0.5336 -0.4009  1.7154
 2752SOL    MW410776   5.208   5.217   1.104 -0.1656 -0.4808  0.1443
 2753SOL     OW10777   4.406   0.314   6.353  0.0988  0.5190  0.2949
 2753SOL    HW210778   4.338   0.283   6.293  0.9461  1.5768 -1.2882
 2753SOL    HW310779   4.373   0.292   6.440 -0.9331 -1.5618 -0.5597
 2753SOL    MW410780   4.392   0.307   6.356 -0.2219  0.0280 -0.2772
 2754SOL     OW10781   5.409   5.054   4.893  0.0238 -0.1396  0.0256
 2754SOL    HW210782   5.456   5.087   4.817 -0.2635  0.1841 -0.0147
 2754SOL    HW310783   5.462   4.981   4.925  1.1306  0.9075  0.6385
 2754SOL    MW410784   5.422   5.049   4.887  0.0481  0.2478 -0.2342
 2755SOL     OW10785   2.760   0.681   4.790  0.0300 -0.0548  0.3749
 2755SOL    HW210786   2.690   0.652   4.849  0.7832  0.5378  1.5963
 2755SOL    HW310787   2.723   0.757   4.744  0.2431  0.9649  1.8478
 2755SOL    MW410788   2.746   0.687   4.791 -0.1935 -0.2056 -0.9445
 2756SOL     OW10789   5.580   5.167   4.698 -0.2461  0.4388 -0.5630
 2756SOL    HW210790   5.533   5.244   4.729  2.4157  3.4145 -3.2299
 2756SOL    HW310791   5.560   5.163   4.604  1.1936 -0.9594 -0.8520
 2756SOL    MW410792   5.571   5.177   4.689  0.0683  0.1333  0.7354
 2757SOL     OW10793   4.028   4.666   2.829  0.2835  0.4004 -0.2087
 2757SOL    HW210794   4.082   4.745   2.831  0.0344  0.5941 -0.8126
 2757SOL    HW310795   3.940   4.698   2.806  0.1963 -0.0579 -0.5189
 2757SOL    MW410796   4.023   4.681   2.826  0.3943  0.3749 -0.4801
 2758SOL     OW10797   5.484   0.178   4.543 -0.4107  0.4256 -0.4571
 2758SOL    HW210798   5.569   0.136   4.554 -0.3693  0.5988 -0.1186
 2758SOL    HW310799   5.422   0.105   4.545 -0.5151  0.5000  2.0671
 2758SOL    MW410800   5.487   0.163   4.545  0.3079  0.5050  0.6536
 2759SOL     OW10801   3.136   2.911   5.481  0.0009  0.2097 -0.0543
 2759SOL    HW210802   3.158   2.975   5.549 -0.4147 -1.5624  1.8442
 2759SOL    HW310803   3.081   2.960   5.419 -3.6233  0.9282  3.3352
 2759SOL    MW410804   3.131   2.926   5.482 -0.5639  0.7517  0.5201
 2760SOL     OW10805   3.018   5.113   4.258  0.1054  0.3966 -0.2260
 2760SOL    HW210806   2.989   5.135   4.169 -0.6222  0.0079 -0.0915
 2760SOL    HW310807   3.080   5.042   4.246 -1.7734 -1.3252 -0.2949
 2760SOL    MW410808   3.022   5.107   4.245  0.1302  0.2144  0.3838
 2761SOL     OW10809   2.427   1.260   4.554 -0.0391 -0.0038  0.2840
 2761SOL    HW210810   2.366   1.331   4.535  0.2139 -0.5088 -3.0944
 2761SOL    HW310811   2.502   1.277   4.497  1.5494 -1.1776  1.9066
 2761SOL    MW410812   2.429   1.272   4.544 -0.5984 -0.5053 -0.0217
 2762SOL     OW10813   0.753   3.564   0.861  0.0577  0.8671 -0.5047
 2762SOL    HW210814   0.679   3.624   0.866 -0.2810  0.5100 -1.0902
 2762SOL    HW310815   0.809   3.588   0.935 -0.0410  1.9451 -0.7671
 2762SOL    MW410816   0.751   3.575   0.871 -0.5208 -0.4916 -0.1946
 2763SOL     OW10817   1.113   5.767   4.602  0.1132  0.1072  0.1842
 2763SOL    HW210818   1.071   5.850   4.581 -0.7544 -0.0320  1.2496
 2763SOL    HW310819   1.142   5.777   4.693  0.5297 -0.5378  0.1284
 2763SOL    MW410820   1.111   5.779   4.611 -0.4011 -0.3635 -0.3094
 2764SOL     OW10821   5.667   4.441   0.416  0.8783 -0.0576 -0.0162
 2764SOL    HW210822   5.759   4.465   0.422  0.7845  0.2496  0.2414
 2764SOL    HW310823   5.644   4.413   0.505  0.4798  0.7761  0.1542
 2764SOL    MW410824   5.676   4.440   0.429  0.1333  0.1925 -0.4423
 2765SOL     OW10825   3.719   2.714   6.102 -0.6547  0.0542 -0.3228
 2765SOL    HW210826   3.706   2.781   6.169  1.3816 -0.0467  0.2375
 2765SOL    HW310827   3.745   2.636   6.150  0.5663 -0.0963 -1.1612
 2765SOL    MW410828   3.721   2.713   6.117  0.4384 -0.0414  0.2902
 2766SOL     OW10829   3.382   6.243   6.017  0.2985 -0.1507 -0.0391
 2766SOL    HW210830   3.414   6.322   6.061  1.3627 -1.1624  1.0924
 2766SOL    HW310831   3.337   6.276   5.939  1.2751  1.5295  0.0431
 2766SOL    MW410832   3.380   6.258   6.013 -0.0134 -0.2125 -0.3829
 2767SOL     OW10833   0.629   0.971   2.994 -0.1894  0.0680  0.2749
 2767SOL    HW210834   0.603   1.001   3.081  0.4700  2.8136 -0.3793
 2767SOL    HW310835   0.649   1.051   2.945  1.4757 -1.4577 -1.7822
 2767SOL    MW410836   0.628   0.985   2.999 -0.2213 -0.2180  0.3518
 2768SOL     OW10837   6.334   4.784   2.442  0.2470 -0.0347  0.1786
 2768SOL    HW210838   6.381   4.751   2.519 -0.4442 -1.2534  0.1054
 2768SOL    HW310839   6.374   4.870   2.425  0.4096  0.2752  1.8951
 2768SOL    MW410840   6.346   4.791   2.450  0.2741  0.9606  0.3770
 2769SOL     OW10841   0.709   5.770   5.821  0.0458  0.4478  0.3411
 2769SOL    HW210842   0.704   5.702   5.888 -1.7905 -1.4051 -1.5222
 2769SOL    HW310843   0.802   5.791   5.814  0.6899 -1.8611  1.0564
 2769SOL    MW410844   0.721   5.764   5.829 -0.1725  0.3599 -0.0026
 2770SOL     OW10845   1.933   1.663   1.677  0.0280  0.2732  0.4954
 2770SOL    HW210846   1.896   1.577   1.660 -0.2239  0.3375  0.7028
 2770SOL    HW310847   2.003   1.648   1.741 -1.0237  0.3995  1.7267
 2770SOL    MW410848   1.937   1.650   1.683 -0.1246  0.3014  0.5325
 2771SOL     OW10849   4.572   2.594   2.152 -0.3227 -0.8546  0.1931
 2771SOL    HW210850   4.662   2.577   2.180 -0.5636 -0.4026  1.2879
 2771SOL    HW310851   4.536   2.650   2.220 -0.6629  1.0778 -1.4915
 2771SOL    MW410852   4.579   2.599   2.164 -0.2589 -0.1705 -0.7487
 2772SOL     OW10853   2.826   4.336   4.829 -0.4316  0.2186 -0.2259
 2772SOL    HW210854   2.825   4.324   4.924 -1.6000 -0.3167 -0.2832
 2772SOL    HW310855   2.794   4.253   4.794  0.6242  0.1683 -1.1279
 2772SOL    MW410856   2.822   4.323   4.837  0.3395 -0.1855 -0.3412
 2773SOL     OW10857   3.274   1.273   2.692 -0.3486  0.0458 -0.1773
 2773SOL    HW210858   3.242   1.363   2.691  2.4733  1.1334  0.0306
 2773SOL    HW310859   3.360   1.278   2.734 -0.7999 -3.0261  1.4215
 2773SOL    MW410860   3.281   1.285   2.697  0.1914 -0.2782 -0.1971
 2774SOL     OW10861   4.113   4.737   5.045 -0.1051 -0.0167  0.0993
 2774SOL    HW210862   4.155   4.812   5.002 -1.6731  0.7894 -0.0810
 2774SOL    HW310863   4.160   4.728   5.128  2.6159 -1.2507 -1.4139
 2774SOL    MW410864   4.125   4.746   5.050 -0.0616 -0.3594 -0.1550
 2775SOL     OW10865   5.053   2.634   5.949  0.1251 -0.1705 -0.3574
 2775SOL    HW210866   5.023   2.679   5.869  0.3484  0.7019  0.0338
 2775SOL    HW310867   4.984   2.571   5.968 -0.2966  0.1381 -0.8269
 2775SOL    MW410868   5.040   2.632   5.941 -0.2562 -0.5249  0.0474
 2776SOL     OW10869   2.906   2.440   2.248  0.1906  0.3157 -0.1881
 2776SOL    HW210870   2.882   2.380   2.178 -0.1871  0.0967  0.1219
 2776SOL    HW310871   2.940   2.384   2.317 -1.4264  0.2836  0.6481
 2776SOL    MW410872   2.907   2.425   2.248  0.0601 -0.1286  0.0445
 2777SOL     OW10873   1.902   5.366   3.710  0.1617  0.2835  0.7336
 2777SOL    HW210874   1.867   5.356   3.799  1.6418 -1.2441  1.1900
 2777SOL    HW310875   1.997   5.359   3.720  0.3611  0.1082 -0.9704
 2777SOL    MW410876   1.910   5.364   3.723 -0.2500 -0.0867 -0.2587
 2778SOL     OW10877   3.628   5.669   4.198 -0.3245 -0.0759  0.6764
 2778SOL    HW210878   3.643   5.757   4.164  0.4246 -0.9394 -1.3708
 2778SOL    HW310879   3.540   5.646   4.168  0.0242 -0.5343 -0.0292
 2778SOL    MW410880   3.618   5.677   4.189  0.2462  0.0111  0.7471
 2779SOL     OW10881   0.108   2.205   0.448 -0.3130 -0.2132  0.4931
 2779SOL    HW210882   0.108   2.112   0.470 -0.0767 -0.5012 -0.6926
 2779SOL    HW310883   0.148   2.210   0.361 -0.3871  0.9892  0.5083
 2779SOL    MW410884   0.113   2.194   0.440  0.2872  0.0310  0.3259
 2780SOL     OW10885   3.656   1.597   2.757  0.1169  0.0369  0.0180
 2780SOL    HW210886   3.669   1.554   2.842 -1.1766 -1.8927 -0.6789
 2780SOL    HW310887   3.741   1.590   2.714  0.5887  0.3843  0.8766
 2780SOL    MW410888   3.669   1.590   2.763 -0.3070  0.1490 -0.3949
 2781SOL     OW10889   2.561   1.585   1.733  0.0083 -0.0089  0.8474
 2781SOL    HW210890   2.604   1.670   1.726 -2.2667  1.0928 -0.5600
 2781SOL    HW310891   2.527   1.567   1.646 -1.3012 -1.4036  1.5910
 2781SOL    MW410892   2.562   1.594   1.721  0.0121 -0.2545 -0.1374
 2782SOL     OW10893   5.271   1.266   3.853  0.2714 -0.1137 -0.0238
 2782SOL    HW210894   5.205   1.290   3.918  0.1937  1.1337 -0.5398
 2782SOL    HW310895   5.293   1.175   3.874 -1.0049 -0.2923  0.6640
 2782SOL    MW410896   5.265   1.257   3.864  0.3720  0.3863  0.4483
 2783SOL     OW10897   1.796   2.244   6.210  0.3717  0.3129 -0.2913
 2783SOL    HW210898   1.778   2.235   6.117 -0.7658  1.6171 -0.2257
 2783SOL    HW310899   1.726   2.195   6.253  1.7212 -1.5669 -0.0830
 2783SOL    MW410900   1.785   2.236   6.204 -0.0418  0.3751  0.5175
 2784SOL     OW10901   2.014   5.006   5.821  0.0302 -1.0286  0.2794
 2784SOL    HW210902   1.934   4.995   5.873 -1.0543  2.5467 -0.3270
 2784SOL    HW310903   2.068   5.065   5.873  1.0475 -1.2049 -0.5564
 2784SOL    MW410904   2.010   5.013   5.834  0.3612 -0.3695  0.0738
 2785SOL     OW10905   2.756   5.224   3.805 -0.0907 -0.2287 -0.7625
 2785SOL    HW210906   2.710   5.180   3.734  1.6683 -2.7688 -0.4730
 2785SOL    HW310907   2.780   5.309   3.769 -1.9838 -0.1765 -2.0528
 2785SOL    MW410908   2.753   5.229   3.791  0.1307 -0.4541  0.7979
 2786SOL     OW10909   0.291   1.390   4.485 -0.2516 -0.2363  0.0569
 2786SOL    HW210910   0.366   1.351   4.441  0.8186 -1.6277  2.8840
 2786SOL    HW310911   0.292   1.482   4.457  1.5907 -0.5620 -1.1329
 2786SOL    MW410912   0.301   1.397   4.476  0.4768 -0.3456  0.2963
 2787SOL     OW10913   1.355   5.884   3.034 -0.1828  0.8114  0.5663
 2787SOL    HW210914   1.260   5.885   3.046 -0.2103  2.1923  0.3503
 2787SOL    HW310915   1.381   5.976   3.034  1.1262  0.4691  0.3242
 2787SOL    MW410916   1.346   5.896   3.036  0.4976  0.3325  0.1592
 2788SOL     OW10917   1.988   0.652   6.092  0.3071  0.1366  0.5292
 2788SOL    HW210918   2.004   0.559   6.073  0.3272  0.0295  1.0537
 2788SOL    HW310919   1.894   0.658   6.107  0.1621  0.3722 -0.4001
 2788SOL    MW410920   1.978   0.640   6.092  0.3457 -0.5467  0.1092
 2789SOL     OW10921   4.215   4.523   2.966 -0.5108 -0.0067  0.1845
 2789SOL    HW210922   4.138   4.554   2.920 -0.9127  0.7155  1.3177
 2789SOL    HW310923   4.259   4.602   2.996 -0.5026 -0.4625  1.4168
 2789SOL    MW410924   4.211   4.537   2.964  0.1338  0.2156 -0.0445
 2790SOL     OW10925   4.298   3.251   4.365  0.2160 -0.2651 -0.2051
 2790SOL    HW210926   4.334   3.314   4.302  0.4414  1.9352  1.9885
 2790SOL    HW310927   4.217   3.220   4.325 -0.0193  1.6076 -1.2896
 2790SOL    MW410928   4.292   3.255   4.351 -0.1956  0.3812  0.0130
 2791SOL     OW10929   6.194   2.435   1.497  0.0358 -0.5714 -0.6092
 2791SOL    HW210930   6.118   2.380   1.515 -0.6984  0.2147 -1.2277
 2791SOL    HW310931   6.212   2.478   1.581 -0.5251 -0.3715 -0.5880
 2791SOL    MW410932   6.186   2.434   1.511 -0.5654  0.6734 -0.1345
 2792SOL     OW10933   4.735   3.002   3.365 -0.4210 -0.2036 -0.6406
 2792SOL    HW210934   4.726   3.010   3.270  0.9790  0.3424 -0.7520
 2792SOL    HW310935   4.710   3.088   3.399 -0.7917 -0.3566 -0.5293
 2792SOL    MW410936   4.730   3.014   3.357 -0.5820 -0.0467  0.8496
 2793SOL     OW10937   4.191   2.662   1.179 -0.1376  0.8234 -0.0873
 2793SOL    HW210938   4.235   2.578   1.173  1.7698  1.7310  0.5052
 2793SOL    HW310939   4.106   2.648   1.136  0.4063 -1.1902 -0.5934
 2793SOL    MW410940   4.185   2.649   1.172  0.2358  0.7119  0.4209
 2794SOL     OW10941   1.915   1.824   3.046  0.3872  0.3105  0.1399
 2794SOL    HW210942   1.892   1.847   2.956 -0.2490  0.6115  0.3691
 2794SOL    HW310943   1.844   1.861   3.098  1.3848  1.2050  0.8826
 2794SOL    MW410944   1.902   1.832   3.041 -0.6335 -0.3087  0.2372
 2795SOL     OW10945   6.059   2.926   5.849  0.1759 -0.2639  0.1140
 2795SOL    HW210946   6.123   2.954   5.784 -2.6886 -0.2516 -2.9434
 2795SOL    HW310947   6.065   2.831   5.849 -0.9759 -0.3805 -1.5978
 2795SOL    MW410948   6.068   2.918   5.841 -0.3804 -0.0002 -0.4087
 2796SOL     OW10949   1.481   4.380   5.329 -0.6127 -0.2889 -0.5988
 2796SOL    HW210950   1.390   4.382   5.301 -0.9169  2.8247  0.2104
 2796SOL    HW310951   1.512   4.470   5.317  1.0724 -0.2075  2.9597
 2796SOL    MW410952   1.473   4.393   5.324 -0.0577 -0.3296 -0.2648
 2797SOL     OW10953   4.820   4.031   5.954  0.1305 -0.3555  0.0504
 2797SOL    HW210954   4.910   4.021   5.983  0.2306 -0.2910 -0.2334
 2797SOL    HW310955   4.769   3.972   6.011  0.4013 -0.6841 -0.0459
 2797SOL    MW410956   4.825   4.022   5.965 -0.1451  0.1246  0.3336
 2798SOL     OW10957   1.971   5.015   0.064  0.4525  0.2931 -0.0940
 2798SOL    HW210958   2.000   4.945   0.005  1.4228 -0.1163  0.8394
 2798SOL    HW310959   1.933   4.970   0.139  2.2968  0.6629  1.1434
 2798SOL    MW410960   1.970   5.000   0.066 -0.2448  0.1490  0.1439
 2799SOL     OW10961   5.636   4.163   4.984  0.1846 -0.1804  0.4442
 2799SOL    HW210962   5.664   4.072   4.977 -0.3011 -0.2552 -0.7711
 2799SOL    HW310963   5.563   4.171   4.923 -0.7654  0.6578  1.6495
 2799SOL    MW410964   5.630   4.152   4.975 -0.1830  0.5973 -0.1827
 2800SOL     OW10965   4.664   3.836   0.471  0.0589 -0.1229  0.8175
 2800SOL    HW210966   4.601   3.892   0.427  0.7815  0.0290 -0.0419
 2800SOL    HW310967   4.749   3.876   0.452  0.5523 -1.2961  0.4968
 2800SOL    MW410968   4.667   3.849   0.463 -0.4582 -0.1886 -0.6080
 2801SOL     OW10969   4.495   3.107   1.902 -0.0632  0.3199  0.0384
 2801SOL    HW210970   4.589   3.087   1.901 -0.2047 -0.3638 -0.1709
 2801SOL    HW310971   4.491   3.202   1.911  0.6530  0.3982 -0.3946
 2801SOL    MW410972   4.507   3.117   1.903  0.4695  0.3604 -0.0681
 2802SOL     OW10973   6.237   3.709   1.960 -0.0169 -0.4299  0.1997
 2802SOL    HW210974   6.258   3.769   2.031 -0.4493 -1.6275  1.3770
 2802SOL    HW310975   6.320   3.697   1.913  0.2789  0.3609  0.5074
 2802SOL    MW410976   6.251   3.715   1.963  0.0269 -0.7163 -0.3417
 2803SOL     OW10977   5.151   4.402   5.610  0.2337 -0.5876  0.1998
 2803SOL    HW210978   5.189   4.330   5.561 -1.2278 -1.4041  0.1950
 2803SOL    HW310979   5.062   4.411   5.575  1.2493  3.2433 -1.9566
 2803SOL    MW410980   5.144   4.394   5.599  0.3597 -0.0222  0.0670
 2804SOL     OW10981   3.485   3.419   6.103 -0.4343 -0.6566 -0.4420
 2804SOL    HW210982   3.512   3.423   6.195 -1.1833 -0.2278 -0.2375
 2804SOL    HW310983   3.419   3.487   6.094  1.0528  0.7045 -1.7851
 2804SOL    MW410984   3.480   3.429   6.114  0.4823 -0.6007  0.2012
 2805SOL     OW10985   6.137   5.209   3.541 -0.1821  0.0243  0.3665
 2805SOL    HW210986   6.105   5.124   3.510  1.8639 -0.3661 -0.9169
 2805SOL    HW310987   6.184   5.188   3.622  1.2185 -0.3199 -0.4846
 2805SOL    MW410988   6.139   5.195   3.548 -0.6182 -0.0821  0.2834
 2806SOL     OW10989   0.335   1.673   5.078  0.2967  0.3771  0.4441
 2806SOL    HW210990   0.331   1.662   4.983 -1.4758 -1.0365  0.6062
 2806SOL    HW310991   0.308   1.763   5.093  1.7674  0.9987 -0.4146
 2806SOL    MW410992   0.331   1.683   5.067  0.1056  0.2124  0.1750
 2807SOL     OW10993   4.534   2.405   6.098 -0.2058  0.3756 -0.3495
 2807SOL    HW210994   4.623   2.387   6.128 -1.0257 -0.2533  1.8847
 2807SOL    HW310995   4.487   2.322   6.108 -1.4669  1.1221  0.2025
 2807SOL    MW410996   4.540   2.392   6.103  0.3657 -0.4460 -0.0574
 2808SOL     OW10997   3.751   3.989   5.161 -0.1033  0.1965  0.1508
 2808SOL    HW210998   3.730   4.048   5.233  2.0732 -0.4126  1.3645
 2808SOL    HW310999   3.765   4.046   5.085  0.6685  1.1248  0.9800
 2808SOL    MW411000   3.750   4.004   5.160  0.1021  0.4963  0.3114
 2809SOL     OW11001   3.307   1.190   0.268  0.1791 -0.0656  0.5529
 2809SOL    HW211002   3.354   1.191   0.351 -0.4191 -0.7279  0.9025
 2809SOL    HW311003   3.355   1.128   0.213 -1.1627 -1.9773  1.4478
 2809SOL    MW411004   3.320   1.182   0.271 -0.2934 -0.5619  0.1077
 2810SOL     OW11005   2.625   0.961   3.064 -0.0853  0.2723 -0.2567
 2810SOL    HW211006   2.716   0.986   3.049 -0.1578  0.3769 -0.5251
 2810SOL    HW311007   2.606   0.898   2.994  0.8483 -2.4748  1.7540
 2810SOL    MW411008   2.635   0.956   3.053 -0.1694 -0.3729 -0.0844
 2811SOL     OW11009   3.007   1.415   0.588  0.4238 -0.3668  0.3895
 2811SOL    HW211010   2.922   1.457   0.573  1.2796  0.9442 -1.1561
 2811SOL    HW311011   3.065   1.457   0.525  1.4654 -3.6004 -1.0128
 2811SOL    MW411012   3.003   1.426   0.577 -0.0715  0.2832  0.5219
 2812SOL     OW11013   6.019   6.086   0.764  0.4606  0.6912  0.2336
 2812SOL    HW211014   6.103   6.132   0.763  1.5412 -1.1650 -0.9500
 2812SOL    HW311015   6.035   6.006   0.714 -2.4451  0.9790 -1.3708
 2812SOL    MW411016   6.032   6.081   0.757 -0.3887 -1.2294 -0.1934
 2813SOL     OW11017   5.363   4.759   1.554 -0.6310 -0.3635 -0.5200
 2813SOL    HW211018   5.399   4.843   1.525  1.4085 -0.0110  2.4922
 2813SOL    HW311019   5.335   4.716   1.474 -1.0724  2.8499 -2.2697
 2813SOL    MW411020   5.364   4.764   1.540 -0.0589 -0.2207  0.4862
 2814SOL     OW11021   2.517   5.472   0.535 -0.1210 -0.0790 -0.1225
 2814SOL    HW211022   2.568   5.519   0.470 -1.4355  2.3305  0.4514
 2814SOL    HW311023   2.506   5.384   0.498  0.4053  0.7520 -2.4475
 2814SOL    MW411024   2.522   5.466   0.522  0.1584 -0.0023  0.2131
 2815SOL     OW11025   0.592   1.212   2.266 -0.4094 -0.1100 -1.0270
 2815SOL    HW211026   0.615   1.181   2.178  0.4032 -1.6661 -0.3033
 2815SOL    HW311027   0.676   1.225   2.310 -0.8123  0.4453 -0.4128
 2815SOL    MW411028   0.606   1.209   2.260  0.4718  0.4422  0.3708
 2816SOL     OW11029   5.984   1.785   2.127 -0.0855  0.1152  0.6037
 2816SOL    HW211030   5.889   1.791   2.125 -0.1892 -1.1319  0.8114
 2816SOL    HW311031   6.015   1.871   2.098 -1.2597  0.8064  1.3357
 2816SOL    MW411032   5.976   1.797   2.123  0.2484 -0.2251  0.5651
 2817SOL     OW11033   3.820   2.595   0.178  0.2108  0.4999  0.2434
 2817SOL    HW211034   3.784   2.509   0.202 -0.0925  0.8830  1.2323
 2817SOL    HW311035   3.908   2.576   0.147  1.2563  0.0808  3.2122
 2817SOL    MW411036   3.827   2.581   0.177  1.0644  0.3841  0.7519
 2818SOL     OW11037   2.991   4.018   4.944 -0.4735  0.4133 -0.1506
 2818SOL    HW211038   3.047   4.085   4.905 -0.3818  0.7607  0.5661
 2818SOL    HW311039   3.026   3.935   4.910  0.5099  0.6196  0.3067
 2818SOL    MW411040   3.003   4.016   4.934  0.2958 -0.1288  0.0902
 2819SOL     OW11041   2.040   6.115   0.086 -0.3977  1.1877 -0.1626
 2819SOL    HW211042   2.052   6.050   0.016  2.2520 -0.3915  1.5987
 2819SOL    HW311043   1.956   6.091   0.126 -0.9050  0.7655 -1.3956
 2819SOL    MW411044   2.030   6.103   0.082 -0.6762  0.2153  0.2354
 2820SOL     OW11045   2.682   0.354   3.486 -0.2619 -0.2668  0.5889
 2820SOL    HW211046   2.712   0.424   3.543  0.4645  0.3810 -0.5478
 2820SOL    HW311047   2.711   0.380   3.398 -0.6326 -1.6196  0.0339
 2820SOL    MW411048   2.690   0.367   3.482  0.0141 -0.4187  0.0306
 2821SOL     OW11049   3.513   5.691   3.895  0.1670  0.1498 -0.1691
 2821SOL    HW211050   3.484   5.766   3.844  0.2498  0.1057 -0.2815
 2821SOL    HW311051   3.607   5.705   3.908  0.2600 -0.1267 -0.5227
 2821SOL    MW411052   3.522   5.703   3.890 -0.1697  0.4870 -0.2308
 2822SOL     OW11053   1.028   0.541   3.476  0.1700  0.8236 -0.4275
 2822SOL    HW211054   1.039   0.490   3.556  1.2944  0.2978 -0.8919
 2822SOL    HW311055   0.949   0.506   3.435  2.1562 -2.3172 -1.9406
 2822SOL    MW411056   1.019   0.530   3.481  0.0110  0.3667  0.3428
 2823SOL     OW11057   2.147   2.926   6.255 -0.7463 -0.3054 -0.3943
 2823SOL    HW211058   2.194   2.953   6.176  0.5196  0.3483  0.5405
 2823SOL    HW311059   2.066   2.978   6.254  0.5049  1.7989  0.0906
 2823SOL    MW411060   2.142   2.937   6.245  0.5963 -0.2550 -0.4275
 2824SOL     OW11061   2.183   1.071   3.168 -0.0672 -0.2575 -0.3404
 2824SOL    HW211062   2.246   1.143   3.158  0.1702 -0.6173 -1.7766
 2824SOL    HW311063   2.099   1.108   3.142 -0.5881  0.3400  1.9850
 2824SOL    MW411064   2.181   1.086   3.163 -0.2861  0.1666 -0.9307
 2825SOL     OW11065   2.313   0.408   0.949  0.0251 -0.0160  0.1593
 2825SOL    HW211066   2.302   0.342   0.880  0.1916 -0.8324  0.9107
 2825SOL    HW311067   2.224   0.421   0.983  0.2560 -1.3179  1.3402
 2825SOL    MW411068   2.300   0.401   0.944  0.4622 -0.0760  0.0154
 2826SOL     OW11069   3.049   2.203   2.968 -0.3061  0.0947  0.2680
 2826SOL    HW211070   3.142   2.189   2.952 -0.1535  0.6342  0.6598
 2826SOL    HW311071   3.005   2.152   2.900  0.2713 -0.2234  0.1252
 2826SOL    MW411072   3.056   2.194   2.957 -0.3421  0.0745 -0.1296
 2827SOL     OW11073   3.284   5.111   0.888 -0.3491  0.1758 -0.1170
 2827SOL    HW211074   3.285   5.064   0.971  0.6394  0.6992  0.1793
 2827SOL    HW311075   3.325   5.196   0.907  1.4225 -0.3174 -1.4836
 2827SOL    MW411076   3.290   5.116   0.901 -0.4744  0.0581 -0.3126
 2828SOL     OW11077   2.419   3.790   4.965  0.5552  0.3037  0.1997
 2828SOL    HW211078   2.436   3.697   4.950  4.0687  0.7918  0.3390
 2828SOL    HW311079   2.348   3.791   5.029 -0.2489 -2.2305 -0.5203
 2828SOL    MW411080   2.412   3.778   4.972 -0.4318  0.2342  0.0159
 2829SOL     OW11081   3.822   1.398   4.158 -0.6644 -0.4447  0.7601
 2829SOL    HW211082   3.733   1.400   4.123 -1.2332 -0.3207  2.1307
 2829SOL    HW311083   3.811   1.372   4.249  0.8148 -1.5212  0.6670
 2829SOL    MW411084   3.809   1.395   4.166 -0.1129 -0.1277  0.3242
 2830SOL     OW11085   2.721   1.131   1.196  0.1946  0.2464  0.2230
 2830SOL    HW211086   2.675   1.081   1.263  1.0432 -1.3919 -0.3774
 2830SOL    HW311087   2.685   1.101   1.113  1.4114 -0.1377 -0.1923
 2830SOL    MW411088   2.710   1.121   1.194  0.6992  0.3406  0.0142
 2831SOL     OW11089   1.493   5.060   5.294  0.1031 -0.7020  0.0979
 2831SOL    HW211090   1.489   5.121   5.368  0.1501 -1.3340  0.6316
 2831SOL    HW311091   1.582   5.025   5.298 -0.1082 -1.2369  0.1509
 2831SOL    MW411092   1.505   5.064   5.304  0.4639  0.0135  0.0802
 2832SOL     OW11093   2.596   3.756   3.896 -0.3781 -0.7684  0.3530
 2832SOL    HW211094   2.510   3.778   3.861 -1.0675 -2.7386  0.6843
 2832SOL    HW311095   2.615   3.825   3.960 -1.8471 -0.4737  0.4888
 2832SOL    MW411096   2.587   3.768   3.900 -0.6313  0.3165 -0.1173
 2833SOL     OW11097   3.383   5.721   5.412  0.3598 -0.3977  0.1901
 2833SOL    HW211098   3.414   5.811   5.401  0.6320 -0.5483 -0.3005
 2833SOL    HW311099   3.294   5.721   5.378  0.3211 -0.2874  0.2930
 2833SOL    MW411100   3.376   5.733   5.406 -0.0589  0.1321 -0.5102
 2834SOL     OW11101   4.794   4.074   3.034  0.1680  0.1211 -0.0499
 2834SOL    HW211102   4.747   4.134   2.976  0.5576  0.4446 -0.0328
 2834SOL    HW311103   4.881   4.112   3.042  0.9695 -1.3110 -1.3953
 2834SOL    MW411104   4.799   4.087   3.027 -0.4436  1.0587  0.1639
 2835SOL     OW11105   1.255   0.439   5.709  0.2057 -0.3205 -0.5938
 2835SOL    HW211106   1.303   0.365   5.747 -0.1423  0.3219  1.2173
 2835SOL    HW311107   1.315   0.513   5.719 -1.2460  0.6296  2.2879
 2835SOL    MW411108   1.269   0.439   5.715  0.5389 -0.9790 -0.0758
 2836SOL     OW11109   5.330   3.859   1.620  0.1709 -0.1893 -0.3512
 2836SOL    HW211110   5.397   3.824   1.562  1.1105  0.6184  0.2189
 2836SOL    HW311111   5.353   3.825   1.707 -0.0277  0.2788 -0.1122
 2836SOL    MW411112   5.342   3.850   1.624 -0.1482 -0.4062 -0.8716
 2837SOL     OW11113   2.334   3.671   0.006  0.4611  0.3302 -0.0941
 2837SOL    HW211114   2.292   3.586   0.009  1.1861 -0.2277 -2.9515
 2837SOL    HW311115   2.415   3.660   0.055  0.7022 -0.7306 -0.7151
 2837SOL    MW411116   2.339   3.659   0.013  0.0319  0.4276 -0.2687
 2838SOL     OW11117   2.276   0.340   1.281 -0.4615 -0.5112  0.3338
 2838SOL    HW211118   2.360   0.321   1.239 -0.8801 -0.4115 -0.5699
 2838SOL    HW311119   2.240   0.414   1.231 -1.3063 -0.8662  0.4047
 2838SOL    MW411120   2.282   0.347   1.269 -0.6335  0.0448 -0.1357
 2839SOL     OW11121   3.933   1.518   2.129 -0.8850 -0.4175  0.1833
 2839SOL    HW211122   3.949   1.438   2.178  2.3181 -0.4823 -0.7408
 2839SOL    HW311123   3.988   1.510   2.051 -1.7715  1.9621 -0.7842
 2839SOL    MW411124   3.942   1.507   2.125  0.4602  0.0678 -0.1022
 2840SOL     OW11125   2.599   6.028   4.203  0.1371 -0.4785 -0.1830
 2840SOL    HW211126   2.568   5.969   4.134  0.2196  0.9871 -1.5085
 2840SOL    HW311127   2.613   5.970   4.278  0.0168 -2.1220 -1.3592
 2840SOL    MW411128   2.597   6.012   4.204  0.6619 -0.1161  0.1601
 2841SOL     OW11129   4.973   3.024   1.770 -0.1088  0.3576 -0.1568
 2841SOL    HW211130   4.989   2.931   1.760 -1.6125 -0.0312  0.8020
 2841SOL    HW311131   4.956   3.055   1.681  1.3414 -0.0599 -0.6064
 2841SOL    MW411132   4.973   3.016   1.757  0.6918 -0.5886 -0.0383
 2842SOL     OW11133   4.036   4.971   5.668 -0.1472 -0.5039  0.1629
 2842SOL    HW211134   4.057   4.925   5.749 -1.5253 -1.7657 -0.1582
 2842SOL    HW311135   3.942   4.988   5.674 -0.0371  0.4321 -0.6556
 2842SOL    MW411136   4.026   4.967   5.679  0.9621  0.2374 -0.0374
 2843SOL     OW11137   6.112   0.303   6.164 -0.2761  0.1656 -0.2506
 2843SOL    HW211138   6.083   0.329   6.251  2.0790 -1.4036  1.1033
 2843SOL    HW311139   6.061   0.358   6.104 -0.0802  3.2080  2.1640
 2843SOL    MW411140   6.102   0.314   6.167 -0.0160  0.2735 -0.2239
 2844SOL     OW11141   4.669   5.769   6.354  0.0112 -0.4578 -0.2723
 2844SOL    HW211142   4.713   5.753   6.271 -0.8937 -0.8143 -0.6865
 2844SOL    HW311143   4.577   5.779   6.332 -0.2310 -0.4568  0.6775
 2844SOL    MW411144   4.663   5.768   6.340 -0.0110 -0.0036 -0.6910
 2845SOL     OW11145   4.669   1.810   3.921 -0.7602  0.6975 -0.1131
 2845SOL    HW211146   4.603   1.811   3.990 -0.0981  1.8354  0.5400
 2845SOL    HW311147   4.752   1.818   3.967 -0.1982 -0.0517 -0.9590
 2845SOL    MW411148   4.671   1.811   3.936 -0.0943 -0.0334 -0.1221
 2846SOL     OW11149   0.580   5.992   3.088  0.5905 -0.2401  0.0476
 2846SOL    HW211150   0.545   6.019   3.003  0.5630  0.4874  0.2786
 2846SOL    HW311151   0.657   5.940   3.068 -0.3902 -1.5397 -0.4673
 2846SOL    MW411152   0.585   5.989   3.074 -0.1716 -0.3424 -0.2541
 2847SOL     OW11153   1.228   2.321   2.999  0.1721  0.1220 -0.1693
 2847SOL    HW211154   1.300   2.258   3.006 -0.6647 -0.7965  0.3964
 2847SOL    HW311155   1.256   2.394   3.056  0.3745 -0.5136  0.5672
 2847SOL    MW411156   1.241   2.322   3.008  0.1982 -0.4488  0.2474
 2848SOL     OW11157   1.565   4.647   1.966 -0.0376  0.0603 -0.1347
 2848SOL    HW211158   1.563   4.595   1.885 -0.2357 -0.5898  0.2848
 2848SOL    HW311159   1.639   4.611   2.015  0.0710  0.4443 -0.0122
 2848SOL    MW411160   1.575   4.635   1.962  0.6637  0.5036  0.2188
 2849SOL     OW11161   5.551   3.118   2.780  0.0207  0.6620 -0.1863
 2849SOL    HW211162   5.521   3.106   2.689  0.8365  0.9340 -0.5035
 2849SOL    HW311163   5.504   3.196   2.810 -0.4820  0.3961 -0.2654
 2849SOL    MW411164   5.541   3.127   2.772 -0.6613 -0.4263 -0.0192
 2850SOL     OW11165   0.286   0.848   5.783 -0.7655  0.3114 -0.2112
 2850SOL    HW211166   0.356   0.785   5.795 -0.3694  0.8819  0.5911
 2850SOL    HW311167   0.206   0.801   5.808 -0.3440  0.4418  1.5269
 2850SOL    MW411168   0.285   0.834   5.788  0.0222  0.5444  0.5225
 2851SOL     OW11169   5.130   2.842   2.994  0.1461  0.4595  0.4730
 2851SOL    HW211170   5.075   2.768   3.020 -1.2813  0.4989 -2.1065
 2851SOL    HW311171   5.097   2.916   3.046 -0.0335 -0.1951  1.3108
 2851SOL    MW411172   5.118   2.842   3.004 -0.1088 -0.6375 -0.2339
 2852SOL     OW11173   2.236   4.180   1.336 -0.5666  0.3971 -0.3984
 2852SOL    HW211174   2.149   4.151   1.309 -0.3977 -0.9624  0.4207
 2852SOL    HW311175   2.290   4.171   1.257 -0.4573 -1.9014 -0.1249
 2852SOL    MW411176   2.232   4.175   1.322 -0.0493  0.3411 -0.6080
 2853SOL     OW11177   3.376   0.906   3.235  0.4073  0.1761  0.3858
 2853SOL    HW211178   3.282   0.924   3.227  0.8688  2.1976 -1.2576
 2853SOL    HW311179   3.382   0.810   3.238 -1.5684 -0.0900 -1.9395
 2853SOL    MW411180   3.364   0.895   3.235 -0.1503 -0.5404  0.0432
 2854SOL     OW11181   0.522   6.128   2.854 -0.1588  0.3791  0.1187
 2854SOL    HW211182   0.509   6.082   2.772 -0.6743  1.3790 -0.3724
 2854SOL    HW311183   0.587   6.196   2.834 -1.9490  2.1229 -0.0952
 2854SOL    MW411184   0.529   6.131   2.841  0.1978 -0.1344 -0.1352
 2855SOL     OW11185   1.106   1.883   2.717  1.0305 -0.1389  0.4543
 2855SOL    HW211186   1.161   1.841   2.782  1.0896 -0.6412  0.0852
 2855SOL    HW311187   1.017   1.851   2.734  1.1404 -0.7467 -0.0887
 2855SOL    MW411188   1.101   1.873   2.728 -0.3608 -0.2383 -0.5288
 2856SOL     OW11189   3.142   3.550   2.946 -0.4043 -0.6641 -0.4838
 2856SOL    HW211190   3.066   3.592   2.905 -0.7142  0.0746  0.7846
 2856SOL    HW311191   3.106   3.476   2.994 -0.4914  0.2793  0.9522
 2856SOL    MW411192   3.128   3.546   2.947  0.4029  0.4228  0.4729
 2857SOL     OW11193   4.466   2.924   5.829  0.5418 -0.5032 -0.1161
 2857SOL    HW211194   4.416   2.875   5.764  1.4774  0.6500 -1.7580
 2857SOL    HW311195   4.537   2.864   5.854  0.0269 -1.0507  0.0547
 2857SOL    MW411196   4.469   2.909   5.824  0.0297 -0.0265 -0.8938
 2858SOL     OW11197   2.636   2.004   5.664 -0.0519 -0.0177  0.0940
 2858SOL    HW211198   2.731   1.996   5.669  0.0551 -1.7810 -2.5048
 2858SOL    HW311199   2.621   2.076   5.602 -0.4621  0.6401  0.9304
 2858SOL    MW411200   2.647   2.013   5.656  0.3473 -0.4445 -1.4630
 2859SOL     OW11201   5.263   6.380   2.897 -0.1352  0.1554 -0.5391
 2859SOL    HW211202   5.354   6.387   2.927  0.7430  1.8709 -3.2378
 2859SOL    HW311203   5.259   6.295   2.852  0.0121 -0.1175 -0.0376
 2859SOL    MW411204   5.274   6.369   2.895  0.1863 -0.6556 -0.7025
 2860SOL     OW11205   4.476   5.344   2.807  0.4001  0.5012 -0.2687
 2860SOL    HW211206   4.416   5.314   2.875  0.6429 -0.5971 -0.5035
 2860SOL    HW311207   4.544   5.392   2.853 -0.1944  0.9926  0.0978
 2860SOL    MW411208   4.477   5.346   2.822 -0.6947 -0.6001  0.2595
 2861SOL     OW11209   5.619   2.612   3.361 -0.0307 -0.3955 -0.3705
 2861SOL    HW211210   5.668   2.666   3.423 -2.1910 -0.7921  1.8599
 2861SOL    HW311211   5.683   2.549   3.327  1.5559  0.7992  0.2927
 2861SOL    MW411212   5.634   2.611   3.365  0.1692  0.1485 -0.5124
 2862SOL     OW11213   4.504   1.922   6.347  0.3549  0.0979 -0.0935
 2862SOL    HW211214   4.526   1.944   6.437 -2.9022 -0.0256  0.8578
 2862SOL    HW311215   4.547   1.838   6.332 -0.0893 -0.5171  1.8175
 2862SOL    MW411216   4.513   1.914   6.357 -0.5929  0.1203 -0.6794
 2863SOL     OW11217   0.873   3.981   2.447 -0.0746  0.5285  0.0386
 2863SOL    HW211218   0.793   3.998   2.398  0.7062  2.4611 -0.6566
 2863SOL    HW311219   0.885   3.886   2.440 -1.1923  0.4560 -1.5867
 2863SOL    MW411220   0.864   3.971   2.440  1.2179 -0.0785 -0.0817
 2864SOL     OW11221   2.828   0.562   3.633 -0.4567 -0.2556  0.0379
 2864SOL    HW211222   2.764   0.610   3.580 -0.5638 -0.4713 -0.0333
 2864SOL    HW311223   2.817   0.595   3.721 -1.8519 -1.4727  0.3627
 2864SOL    MW411224   2.818   0.573   3.637  0.6105  0.6284 -0.0609
 2865SOL     OW11225   0.117   3.798   3.010  0.0754  0.1146  0.1954
 2865SOL    HW211226   0.108   3.798   2.915  0.3891  1.4231  0.1512
 2865SOL    HW311227   0.034   3.833   3.043  0.5421  1.1554  0.3132
 2865SOL    MW411228   0.105   3.803   3.002  0.4450  0.2836  0.2828
 2866SOL     OW11229   4.966   5.534   1.051 -0.4270 -0.0266  0.0251
 2866SOL    HW211230   5.017   5.498   1.123  0.8106 -1.8205 -1.6488
 2866SOL    HW311231   5.008   5.617   1.030 -0.5028  0.2730  1.0466
 2866SOL    MW411232   4.978   5.540   1.058  0.3880  0.4082 -0.1000
 2867SOL     OW11233   0.468   2.939   2.701  0.1357 -0.6134  0.0348
 2867SOL    HW211234   0.528   3.013   2.706  0.4445 -0.8849  0.3304
 2867SOL    HW311235   0.510   2.877   2.641 -0.0926 -0.5841 -0.1616
 2867SOL    MW411236   0.481   2.940   2.693  0.5521  0.0089 -0.2472
 2868SOL     OW11237   3.202   5.023   5.073 -1.1325 -0.0111  0.1890
 2868SOL    HW211238   3.233   4.987   5.156  1.5802  0.0486 -0.6970
 2868SOL    HW311239   3.224   4.957   5.008 -0.8222  1.0340 -0.8027
 2868SOL    MW411240   3.209   5.010   5.075  0.4409 -0.4283  0.0972
 2869SOL     OW11241   4.299   3.505   4.506 -0.0635 -0.0484 -0.1475
 2869SOL    HW211242   4.382   3.484   4.549  0.3785  0.6088 -0.6570
 2869SOL    HW311243   4.281   3.429   4.450  0.3552 -0.0708 -0.2588
 2869SOL    MW411244   4.307   3.492   4.504 -0.2091 -0.4698 -0.4748
 2870SOL     OW11245   2.770   0.735   1.546  0.0794  0.3186 -0.3468
 2870SOL    HW211246   2.833   0.719   1.476  0.2920 -0.5336  0.0210
 2870SOL    HW311247   2.797   0.818   1.585  0.4146  0.4186 -0.7890
 2870SOL    MW411248   2.782   0.744   1.542 -0.0092 -1.1626  0.0322
 2871SOL     OW11249   5.421   1.407   1.947 -0.3571 -0.0699  0.0969
 2871SOL    HW211250   5.331   1.429   1.971 -0.0642 -0.3972  1.6331
 2871SOL    HW311251   5.462   1.491   1.925 -0.6491  0.2682  0.8247
 2871SOL    MW411252   5.415   1.421   1.947 -0.2799 -0.2782  0.2809
 2872SOL     OW11253   1.594   0.917   3.329 -0.4043  0.0158 -0.3937
 2872SOL    HW211254   1.539   0.990   3.359 -1.4263 -1.2872  1.0261
 2872SOL    HW311255   1.650   0.956   3.262 -1.4840  1.9200 -0.2666
 2872SOL    MW411256   1.594   0.932   3.324 -0.1036 -0.0173 -0.3669
 2873SOL     OW11257   2.409   2.646   0.524  0.1125 -0.0754  0.2516
 2873SOL    HW211258   2.404   2.699   0.444 -0.4149 -0.1535  0.2262
 2873SOL    HW311259   2.390   2.557   0.495  2.9958 -0.6868 -0.0584
 2873SOL    MW411260   2.406   2.641   0.509 -0.2064  0.2440 -0.1780
 2874SOL     OW11261   6.286   5.412   4.075 -0.6599  0.9674 -0.1664
 2874SOL    HW211262   6.374   5.381   4.093 -1.2635 -1.2922 -0.6973
 2874SOL    HW311263   6.296   5.506   4.057  1.6157  0.7633 -0.2484
 2874SOL    MW411264   6.299   5.420   4.075 -0.6614  0.5426 -0.2902
 2875SOL     OW11265   6.025   0.258   4.264 -0.3623 -0.1101  0.0685
 2875SOL    HW211266   6.066   0.212   4.191 -2.1278 -1.9780  0.1551
 2875SOL    HW311267   5.996   0.341   4.226 -2.0213 -1.3892 -1.6879
 2875SOL    MW411268   6.026   0.263   4.249 -0.3774  0.1748 -0.3984
 2876SOL     OW11269   4.985   0.214   1.009 -0.0148 -0.2535  0.0085
 2876SOL    HW211270   5.024   0.141   0.962  1.2575  0.7538 -0.5739
 2876SOL    HW311271   4.942   0.266   0.941  1.5123  1.0064 -0.0647
 2876SOL    MW411272   4.985   0.212   0.994  0.7183 -0.1779 -0.1866
 2877SOL     OW11273   0.780   0.909   0.663  0.8510 -0.3531  0.1857
 2877SOL    HW211274   0.691   0.946   0.661  2.0186  2.6884 -0.2887
 2877SOL    HW311275   0.782   0.849   0.588 -0.2256  1.1031 -1.0740
 2877SOL    MW411276   0.768   0.906   0.653 -0.6904 -0.1825  0.0051
 2878SOL     OW11277   4.929   0.524   0.016  0.1544 -0.2450 -0.2890
 2878SOL    HW211278   4.960   0.546  -0.071 -1.5636  2.0651 -0.4174
 2878SOL    HW311279   4.912   0.609   0.058  0.7150 -1.2767  2.2279
 2878SOL    MW411280   4.931   0.538   0.010  0.6254  0.3040  0.4908
 2879SOL     OW11281   0.727   5.642   4.061 -0.4017 -0.0023 -0.3602
 2879SOL    HW211282   0.749   5.549   4.071  2.4422  0.6535  0.1370
 2879SOL    HW311283   0.764   5.685   4.138  0.0379  1.7913 -1.5128
 2879SOL    MW411284   0.734   5.635   4.072  0.5898 -0.4735 -0.3875
 2880SOL     OW11285   4.352   3.734   1.598 -0.6015 -0.1537 -0.1692
 2880SOL    HW211286   4.326   3.642   1.603 -0.3342 -0.3141 -1.4984
 2880SOL    HW311287   4.417   3.744   1.668 -0.9058 -0.8707  0.2264
 2880SOL    MW411288   4.357   3.723   1.608  0.3014  0.0383 -0.5003
 2881SOL     OW11289   2.182   5.032   5.194 -0.3591 -0.0545 -0.0349
 2881SOL    HW211290   2.258   5.033   5.135 -1.4337  0.0243 -1.4576
 2881SOL    HW311291   2.172   4.940   5.219  0.5683  0.0228  0.6811
 2881SOL    MW411292   2.191   5.020   5.190 -0.3487 -0.3234  0.4773
 2882SOL     OW11293   2.688   2.288   2.682  0.2988  0.4228 -0.2340
 2882SOL    HW211294   2.670   2.312   2.773 -0.2074 -1.6743  0.2827
 2882SOL    HW311295   2.615   2.232   2.657  0.7312  0.4951 -1.7458
 2882SOL    MW411296   2.676   2.284   2.691 -0.0763 -0.8070  0.0766
 2883SOL     OW11297   1.413   5.195   2.062 -0.0555 -0.0414 -0.6784
 2883SOL    HW211298   1.373   5.242   2.134 -1.6594 -1.7566 -0.3789
 2883SOL    HW311299   1.475   5.135   2.103 -0.6911 -0.7524 -0.7487
 2883SOL    MW411300   1.416   5.193   2.077 -0.7663  0.3721  0.6849
 2884SOL     OW11301   0.093   1.922   5.799  1.0798 -0.0276  0.2564
 2884SOL    HW211302   0.008   1.907   5.758  0.8641  0.2718  0.5956
 2884SOL    HW311303   0.089   1.876   5.882  1.3950 -0.3434  0.1020
 2884SOL    MW411304   0.082   1.914   5.804  0.0993  0.5271  0.0548
 2885SOL     OW11305   4.346   3.510   2.735  0.9058  0.6587 -0.0639
 2885SOL    HW211306   4.385   3.464   2.661 -0.4363  0.6580 -0.7948
 2885SOL    HW311307   4.268   3.459   2.757 -0.9274  2.8074 -1.2289
 2885SOL    MW411308   4.341   3.497   2.728  0.4320  0.0224  0.1129
 2886SOL     OW11309   3.983   3.906   2.616  0.0130  0.2885 -0.1298
 2886SOL    HW211310   3.969   3.877   2.526  0.2446 -2.2528  0.5890
 2886SOL    HW311311   4.056   3.967   2.610  1.1054 -1.0928 -1.4743
 2886SOL    MW411312   3.990   3.911   2.603 -0.0737 -0.5965  0.3257
 2887SOL     OW11313   5.378   1.589   0.392  0.2837  0.4903  0.0659
 2887SOL    HW211314   5.394   1.527   0.463 -3.1457  0.0077  0.5880
 2887SOL    HW311315   5.403   1.674   0.428 -0.4959  0.1268  1.5846
 2887SOL    MW411316   5.383   1.592   0.406  0.1049 -0.3809  0.3507
 2888SOL     OW11317   3.095   2.037   2.276  0.0906 -0.2922  0.3064
 2888SOL    HW211318   3.101   2.053   2.182 -1.2514  1.8020  0.5024
 2888SOL    HW311319   3.085   1.942   2.284  1.1187 -0.6042 -1.5796
 2888SOL    MW411320   3.094   2.027   2.264 -0.1490 -0.0012 -0.2207
 2889SOL     OW11321   6.254   5.810   3.841 -0.4974 -0.3407  0.1763
 2889SOL    HW211322   6.266   5.752   3.766  0.0119 -0.8747  0.6584
 2889SOL    HW311323   6.178   5.864   3.818  0.3521  0.3365 -1.2329
 2889SOL    MW411324   6.246   5.810   3.828  0.1179 -0.1666  0.1278
 2890SOL     OW11325   4.112   4.133   2.495 -0.0315 -0.0660 -0.0667
 2890SOL    HW211326   4.122   4.209   2.552 -0.3801 -0.9594  1.2209
 2890SOL    HW311327   4.200   4.096   2.488 -0.0847 -0.2732  0.3517
 2890SOL    MW411328   4.125   4.138   2.501 -0.7767  0.6983  0.0235
 2891SOL     OW11329   4.972   4.267   1.556 -0.1818 -0.3324 -0.1997
 2891SOL    HW211330   5.029   4.190   1.556  1.0422  0.5211 -1.1227
 2891SOL    HW311331   4.991   4.311   1.638  1.3399  0.4942 -0.9477
 2891SOL    MW411332   4.982   4.263   1.566 -0.0987  0.4738 -0.3717
 2892SOL     OW11333   3.127   1.978   1.918 -0.3999  0.1052 -0.8166
 2892SOL    HW211334   3.189   1.937   1.978 -0.4438  0.7886 -0.2902
 2892SOL    HW311335   3.183   2.026   1.856 -0.3574 -0.5272 -1.2715
 2892SOL    MW411336   3.143   1.979   1.918 -0.4432 -0.2401 -0.4611
 2893SOL     OW11337   2.675   0.189   5.173  0.4979  0.7554 -0.1030
 2893SOL    HW211338   2.658   0.113   5.116 -3.1176  1.0833  0.3344
 2893SOL    HW311339   2.723   0.153   5.247  0.5154 -0.7252 -0.7948
 2893SOL    MW411340   2.679   0.174   5.175 -0.2444  0.1281  0.6005
 2894SOL     OW11341   5.118   5.759   3.131 -0.4735  0.0317 -0.0231
 2894SOL    HW211342   5.025   5.739   3.122 -0.4661  0.2674 -0.6333
 2894SOL    HW311343   5.163   5.680   3.101 -0.4776 -0.5422  1.4150
 2894SOL    MW411344   5.112   5.746   3.126  0.0410 -0.0649 -0.2811
 2895SOL     OW11345   3.400   3.483   4.950 -0.1800 -0.4946  0.4529
 2895SOL    HW211346   3.488   3.516   4.970 -0.5159  0.5174  0.3152
 2895SOL    HW311347   3.415   3.394   4.919  0.4082 -2.1744  4.8506
 2895SOL    MW411348   3.414   3.476   4.948  0.1522  0.8202  0.5881
 2896SOL     OW11349   2.081   1.252   0.610 -0.6541  0.1003  0.1537
 2896SOL    HW211350   2.054   1.206   0.690  1.7663  1.0393  1.5963
 2896SOL    HW311351   2.062   1.344   0.627  1.5479  0.5483  0.4769
 2896SOL    MW411352   2.075   1.258   0.623 -0.5364 -0.5761  0.0895
 2897SOL     OW11353   3.497   3.685   1.610 -0.3824 -0.5786 -0.1561
 2897SOL    HW211354   3.584   3.692   1.649 -0.2902 -0.9657 -0.2879
 2897SOL    HW311355   3.442   3.649   1.679 -0.9290  1.5979  0.6279
 2897SOL    MW411356   3.501   3.681   1.624  0.1057 -0.4464  0.6739
 2898SOL     OW11357   6.145   5.905   1.522 -0.5018 -0.0882  0.2729
 2898SOL    HW211358   6.115   5.877   1.608 -3.4966  1.5106 -0.1174
 2898SOL    HW311359   6.236   5.931   1.535 -0.6877 -0.4765  2.8022
 2898SOL    MW411360   6.153   5.905   1.535 -0.3583 -0.4874  0.3157
 2899SOL     OW11361   2.360   0.318   5.783  0.3630 -0.2069  0.2052
 2899SOL    HW211362   2.358   0.223   5.771  0.1753 -0.1539 -0.2107
 2899SOL    HW311363   2.361   0.331   5.877  1.4889 -0.6516  0.2754
 2899SOL    MW411364   2.360   0.307   5.794 -0.0336 -0.1921  0.3448
 2900SOL     OW11365   3.499   5.517   1.728 -0.2687 -0.7074  0.3556
 2900SOL    HW211366   3.558   5.573   1.777 -1.0159  1.0644 -0.6726
 2900SOL    HW311367   3.428   5.497   1.789 -0.1552 -0.2692  0.6292
 2900SOL    MW411368   3.497   5.522   1.742 -0.6904  0.1576 -0.4552
 2901SOL     OW11369   3.335   4.343   1.917 -0.0913  0.1690 -0.2714
 2901SOL    HW211370   3.370   4.340   1.828  1.8528  0.0701  0.4606
 2901SOL    HW311371   3.316   4.436   1.932 -0.5008  0.1785 -0.7846
 2901SOL    MW411372   3.337   4.355   1.907 -0.0526 -0.4267  0.4879
 2902SOL     OW11373   2.821   4.971   3.225  0.2740 -0.0076  0.3456
 2902SOL    HW211374   2.910   4.958   3.190 -0.1348  0.8420 -1.1358
 2902SOL    HW311375   2.819   4.921   3.306  2.5479  1.0606  1.1445
 2902SOL    MW411376   2.833   4.963   3.231 -0.3063  0.2198  0.1554
 2903SOL     OW11377   3.305   3.677   1.430  0.3488  0.7335  0.1728
 2903SOL    HW211378   3.319   3.764   1.392  0.8115  1.4742  1.9147
 2903SOL    HW311379   3.381   3.664   1.487 -0.0419 -0.5433  0.4295
 2903SOL    MW411380   3.317   3.687   1.433  0.4574 -0.2252  0.2079
 2904SOL     OW11381   4.282   1.514   2.521 -0.0156 -0.1010  1.0192
 2904SOL    HW211382   4.360   1.487   2.568  1.3503  0.0091 -1.0715
 2904SOL    HW311383   4.299   1.604   2.494 -0.1972 -0.5313 -0.6901
 2904SOL    MW411384   4.294   1.522   2.523  0.1687 -0.4000  0.2850
 2905SOL     OW11385   3.838   4.088   4.878 -0.3366 -0.2050 -0.3143
 2905SOL    HW211386   3.897   4.163   4.886 -0.2808 -0.1726 -1.0021
 2905SOL    HW311387   3.776   4.114   4.810  0.0352 -1.0146 -0.9755
 2905SOL    MW411388   3.837   4.101   4.870  0.7815  0.1166  0.0950
 2906SOL     OW11389   5.808   5.146   3.647  0.6858  0.3492 -0.1582
 2906SOL    HW211390   5.762   5.078   3.695  1.1827 -1.0283 -1.5429
 2906SOL    HW311391   5.858   5.099   3.581 -0.5606  2.1167 -2.5480
 2906SOL    MW411392   5.808   5.131   3.644  0.0347  0.0849 -0.1530
 2907SOL     OW11393   4.922   1.656   4.704  0.2265 -0.3071  0.7524
 2907SOL    HW211394   4.873   1.605   4.639  0.9684  0.1400 -0.1792
 2907SOL    HW311395   5.014   1.635   4.687  0.5336  1.1231  0.5140
 2907SOL    MW411396   4.928   1.647   4.693 -0.7421  0.4400 -0.2492
 2908SOL     OW11397   6.223   1.675   4.182 -0.4030  0.1810  1.0276
 2908SOL    HW211398   6.193   1.641   4.098 -0.5658  0.5298  0.9389
 2908SOL    HW311399   6.293   1.616   4.209 -1.5971 -1.0224  1.5503
 2908SOL    MW411400   6.229   1.663   4.174 -0.1298  0.0194 -0.1332
 2909SOL     OW11401   3.241   3.345   2.137 -0.4387  0.1227  0.2047
 2909SOL    HW211402   3.197   3.378   2.059  0.7564 -0.4330 -0.7382
 2909SOL    HW311403   3.210   3.401   2.208 -1.6654  0.5447 -0.6242
 2909SOL    MW411404   3.231   3.357   2.136 -0.6950 -0.9462  0.1397
 2910SOL     OW11405   1.787   3.061   5.569 -0.4130  0.5526 -0.3842
 2910SOL    HW211406   1.879   3.039   5.580 -0.5241 -0.7972 -1.8795
 2910SOL    HW311407   1.787   3.152   5.538  0.3672  0.7605  0.2110
 2910SOL    MW411408   1.799   3.070   5.566  0.1005  0.0113 -0.1885
 2911SOL     OW11409   2.577   4.618   2.081 -0.0248 -0.0794  0.1577
 2911SOL    HW211410   2.611   4.529   2.082  0.8814  0.2411  1.6944
 2911SOL    HW311411   2.654   4.673   2.061  0.0065  0.5179  1.7726
 2911SOL    MW411412   2.592   4.614   2.078  0.1563  0.5301 -0.0379
 2912SOL     OW11413   3.022   3.377   6.303  0.6611 -0.0701  0.5001
 2912SOL    HW211414   3.040   3.285   6.285 -0.2556  0.1618 -1.9714
 2912SOL    HW311415   2.953   3.401   6.240 -0.1474  1.9406  2.0346
 2912SOL    MW411416   3.015   3.368   6.292 -0.3245 -0.0789  0.5019
 2913SOL     OW11417   1.819   3.791   4.585 -0.1486  0.0671  0.4547
 2913SOL    HW211418   1.839   3.819   4.496  0.7482 -1.9239 -0.0093
 2913SOL    HW311419   1.813   3.696   4.580 -3.6289  0.0505  1.8224
 2913SOL    MW411420   1.821   3.782   4.573 -0.4557 -0.0511  0.2682
 2914SOL     OW11421   4.814   2.550   5.768  0.4110 -0.0354  0.0264
 2914SOL    HW211422   4.785   2.459   5.776  0.2612 -0.1541 -1.5355
 2914SOL    HW311423   4.903   2.545   5.734  0.4058  0.3935 -0.0618
 2914SOL    MW411424   4.822   2.538   5.765 -0.1690  0.3019  0.2697
 2915SOL     OW11425   3.179   3.976   5.146  0.1695  0.5064 -0.3646
 2915SOL    HW211426   3.128   3.910   5.193 -0.1397  0.0371 -1.3274
 2915SOL    HW311427   3.123   4.000   5.071  0.8698  0.8464 -0.7860
 2915SOL    MW411428   3.165   3.971   5.142  0.0060 -0.1959 -0.0459
 2916SOL     OW11429   3.790   4.863   4.238 -0.0026 -0.1660  0.0045
 2916SOL    HW211430   3.803   4.921   4.313  0.2027  0.8667 -0.8040
 2916SOL    HW311431   3.699   4.835   4.245 -0.4623  1.1954 -0.2095
 2916SOL    MW411432   3.780   4.867   4.249  0.3282  0.4439  0.0814
 2917SOL     OW11433   1.309   1.251   4.149 -0.0669  0.0691 -0.4670
 2917SOL    HW211434   1.258   1.207   4.080  0.5044  0.6605 -1.2840
 2917SOL    HW311435   1.296   1.344   4.131 -0.8401  0.2543  0.9335
 2917SOL    MW411436   1.300   1.258   4.137  0.0708 -0.1495  0.2083
 2918SOL     OW11437   0.239   4.355   4.774 -0.3089 -0.0370 -0.6280
 2918SOL    HW211438   0.211   4.419   4.840  2.1035  1.4401 -0.8962
 2918SOL    HW311439   0.281   4.408   4.707  0.4005 -1.8158 -1.6319
 2918SOL    MW411440   0.241   4.371   4.774  0.0664  0.7835  0.2809
 2919SOL     OW11441   0.296   4.338   0.568  0.6589 -0.1567 -0.3116
 2919SOL    HW211442   0.354   4.318   0.495 -0.6261 -0.0161 -1.4031
 2919SOL    HW311443   0.266   4.427   0.552  0.0988 -0.2424  0.1969
 2919SOL    MW411444   0.299   4.347   0.556 -0.1078 -1.2395  1.4563
 2920SOL     OW11445   6.066   2.293   4.554  0.1197 -0.4528  0.2005
 2920SOL    HW211446   6.112   2.374   4.573 -0.6018  0.8708 -3.0340
 2920SOL    HW311447   5.977   2.307   4.588  0.4575 -0.6322  1.1856
 2920SOL    MW411448   6.060   2.305   4.561 -0.0801  0.1781 -0.0776
 2921SOL     OW11449   5.731   2.719   0.599  0.2824 -0.3606  0.5031
 2921SOL    HW211450   5.784   2.676   0.532  1.8588  0.6054  1.1006
 2921SOL    HW311451   5.794   2.750   0.664 -1.1252 -0.3743  1.9409
 2921SOL    MW411452   5.746   2.717   0.599  0.2272  0.3274 -0.3952
 2922SOL     OW11453   1.137   0.636   1.005  0.0163  0.6317  0.6111
 2922SOL    HW211454   1.211   0.676   1.051  0.2513 -0.4586  1.2135
 2922SOL    HW311455   1.163   0.545   0.993 -0.5958  0.5941 -0.5521
 2922SOL    MW411456   1.150   0.629   1.010 -0.0461 -0.9785 -0.1468
 2923SOL     OW11457   0.597   0.800   2.072 -0.0965  0.2534 -0.1673
 2923SOL    HW211458   0.626   0.785   1.981 -2.0866 -2.0183 -0.5131
 2923SOL    HW311459   0.502   0.813   2.065 -0.0931  1.4975  1.4998
 2923SOL    MW411460   0.588   0.800   2.059  0.7531  0.1163 -0.2073
 2924SOL     OW11461   5.332   0.319   4.020  0.0371  0.0230 -0.4189
 2924SOL    HW211462   5.316   0.227   4.042  0.3285 -0.1331 -0.8550
 2924SOL    HW311463   5.397   0.347   4.085  1.0423 -0.4929 -1.1714
 2924SOL    MW411464   5.338   0.310   4.032  0.0841 -0.4819  0.2664
 2925SOL     OW11465   2.289   5.239   3.836 -0.3372 -0.7495 -0.0698
 2925SOL    HW211466   2.217   5.270   3.891  1.3885  1.1227  1.2814
 2925SOL    HW311467   2.263   5.259   3.747 -0.5056  2.2048  0.5601
 2925SOL    MW411468   2.276   5.246   3.832 -0.0091 -0.2718  0.4000
 2926SOL     OW11469   1.451   6.289   0.320  0.6945 -0.1015  0.2726
 2926SOL    HW211470   1.473   6.354   0.387  2.5895 -1.2222  0.8139
 2926SOL    HW311471   1.400   6.223   0.367  2.0151 -0.8825  0.6644
 2926SOL    MW411472   1.447   6.289   0.335  0.0638 -0.3018 -0.6409
 2927SOL     OW11473   5.709   2.986   1.887 -0.2563 -0.7200  0.1630
 2927SOL    HW211474   5.627   2.974   1.838 -0.3646 -1.1949  0.4557
 2927SOL    HW311475   5.711   2.914   1.949  0.3699 -0.6883  0.1888
 2927SOL    MW411476   5.698   2.975   1.889  0.1669  0.1254 -0.2453
 2928SOL     OW11477   1.352   1.065   0.332 -0.3969  0.0831  0.1931
 2928SOL    HW211478   1.373   1.049   0.423  0.4302 -1.5856 -0.2655
 2928SOL    HW311479   1.279   1.006   0.313  0.2653 -0.5206 -0.5455
 2928SOL    MW411480   1.345   1.055   0.341  0.2352 -0.1818  0.2194
 2929SOL     OW11481   3.355   5.115   3.600 -0.1709 -0.2188 -0.5037
 2929SOL    HW211482   3.357   5.047   3.667  0.9450  0.3147  0.0254
 2929SOL    HW311483   3.414   5.183   3.632 -0.7125  0.6867 -1.3588
 2929SOL    MW411484   3.363   5.115   3.613  0.5843  0.1915 -0.3471
 2930SOL     OW11485   5.747   1.918   2.319 -0.7574  0.2828 -0.5151
 2930SOL    HW211486   5.672   1.955   2.365 -1.2012 -1.7746  0.5229
 2930SOL    HW311487   5.712   1.887   2.236 -1.2023 -1.1812  0.2034
 2930SOL    MW411488   5.733   1.919   2.314  0.9067 -0.3275 -0.3796
 2931SOL     OW11489   1.014   5.201   0.182 -0.1725  0.1515 -0.1631
 2931SOL    HW211490   1.094   5.178   0.135  0.6158  0.6168  0.9088
 2931SOL    HW311491   1.005   5.295   0.169 -0.2219  0.1973  0.1971
 2931SOL    MW411492   1.024   5.210   0.174  0.4821  0.8985 -0.3185
 2932SOL     OW11493   5.243   4.090   0.306  0.1879  0.7385  0.5309
 2932SOL    HW211494   5.232   4.078   0.211  1.4190  0.4865  0.4026
 2932SOL    HW311495   5.164   4.137   0.333 -0.9421 -0.5696 -0.3470
 2932SOL    MW411496   5.231   4.094   0.297  0.2163 -0.4496 -0.4386
 2933SOL     OW11497   4.684   4.455   5.803 -0.4277 -0.1837 -0.1043
 2933SOL    HW211498   4.713   4.543   5.824  0.9776 -0.6891  0.1624
 2933SOL    HW311499   4.751   4.420   5.744 -0.8991 -1.1079 -0.1209
 2933SOL    MW411500   4.697   4.462   5.798  0.3713  0.3266 -0.5132
 2934SOL     OW11501   1.760   5.635   6.279  0.0046  0.4498  0.1961
 2934SOL    HW211502   1.668   5.628   6.306 -0.9014  2.0909 -2.0931
 2934SOL    HW311503   1.787   5.545   6.261 -0.9653 -0.1148  1.4020
 2934SOL    MW411504   1.751   5.622   6.281  0.0432  0.7549  0.2399
 2935SOL     OW11505   3.894   3.404   3.855 -0.2216 -0.0168 -0.2407
 2935SOL    HW211506   3.935   3.446   3.780  0.6051 -0.9998 -0.3582
 2935SOL    HW311507   3.885   3.474   3.920  0.9882  0.3891 -0.4856
 2935SOL    MW411508   3.898   3.419   3.854 -0.3426 -0.2459 -0.1640
 2936SOL     OW11509   2.742   2.221   5.497 -0.2267 -0.2019  0.3344
 2936SOL    HW211510   2.835   2.200   5.488 -0.3099 -0.4560  0.0531
 2936SOL    HW311511   2.716   2.251   5.410 -0.0568  1.3082  0.7749
 2936SOL    MW411512   2.751   2.222   5.484 -0.1023  0.0342 -0.1162
 2937SOL     OW11513   5.123   1.137   1.298 -0.1594 -0.1179  0.1694
 2937SOL    HW211514   5.127   1.050   1.337 -3.6220  0.5201  2.3808
 2937SOL    HW311515   5.055   1.129   1.230 -1.1244  1.0057  0.9744
 2937SOL    MW411516   5.114   1.125   1.294 -0.2793  0.3671  0.5527
 2938SOL     OW11517   2.259   1.059   2.751  0.4321  0.8624 -1.0247
 2938SOL    HW211518   2.198   1.091   2.818  0.3355  1.1218 -1.2341
 2938SOL    HW311519   2.229   1.100   2.670  0.2212  0.1220 -1.3247
 2938SOL    MW411520   2.247   1.069   2.749 -0.3461  0.3752 -0.2711
 2939SOL     OW11521   2.836   1.664   4.088 -0.0387  0.3597 -0.3361
 2939SOL    HW211522   2.897   1.683   4.160 -0.1760 -0.9440  0.1486
 2939SOL    HW311523   2.758   1.714   4.110 -0.9068 -1.7137  1.6598
 2939SOL    MW411524   2.834   1.673   4.101 -0.1083  0.0924 -0.6840
 2940SOL     OW11525   3.883   1.945   5.015  0.2672  0.3579  0.1623
 2940SOL    HW211526   3.879   2.000   4.937  0.2260 -0.6603 -0.5893
 2940SOL    HW311527   3.960   1.976   5.062 -0.5592  1.9750  0.5148
 2940SOL    MW411528   3.893   1.956   5.011  0.1025  0.0052  0.6146
 2941SOL     OW11529   5.958   0.117   1.869 -0.3055  0.4523  0.1453
 2941SOL    HW211530   5.974   0.105   1.962  2.0360  3.8622  0.3656
 2941SOL    HW311531   5.892   0.187   1.864  0.2758  0.9694 -0.6913
 2941SOL    MW411532   5.952   0.125   1.880  0.2623  0.3421  0.0212
 2942SOL     OW11533   4.261   0.212   6.107 -0.2000  0.5433  0.0527
 2942SOL    HW211534   4.191   0.163   6.063 -0.7303  0.0613  1.3686
 2942SOL    HW311535   4.229   0.302   6.112 -0.3345  0.5053 -0.1330
 2942SOL    MW411536   4.247   0.217   6.102 -0.4440  0.3297 -0.0921
 2943SOL     OW11537   3.661   4.620   1.386 -0.2641 -0.1484 -0.1472
 2943SOL    HW211538   3.578   4.634   1.341 -1.4287 -0.6518  1.7539
 2943SOL    HW311539   3.637   4.607   1.477  1.3461 -5.5438 -0.1420
 2943SOL    MW411540   3.647   4.620   1.392  0.1420 -0.5078  0.1073
 2944SOL     OW11541   4.961   5.944   1.924 -0.0785  0.1824 -0.1818
 2944SOL    HW211542   5.024   5.916   1.991 -1.0138 -0.3209  0.5138
 2944SOL    HW311543   4.910   6.012   1.966 -0.0418  0.5550 -0.7312
 2944SOL    MW411544   4.963   5.949   1.938  0.1541 -0.0666 -0.1620
 2945SOL     OW11545   1.126   5.531   3.487  0.3412 -0.1962  0.2639
 2945SOL    HW211546   1.204   5.484   3.517  0.2563 -1.4869 -1.3671
 2945SOL    HW311547   1.147   5.623   3.501  1.7925 -0.5634  0.7080
 2945SOL    MW411548   1.139   5.537   3.493  0.3352 -0.7775  0.1708
 2946SOL     OW11549   1.149   5.555   1.341 -0.1863  0.3846 -0.0663
 2946SOL    HW211550   1.159   5.646   1.314  0.9034 -0.5128 -3.2593
 2946SOL    HW311551   1.057   5.535   1.324 -0.2772  0.7383  0.0105
 2946SOL    MW411552   1.138   5.564   1.335 -0.0122  0.0761  0.4371
 2947SOL     OW11553   1.024   4.455   4.899 -0.0199  0.3051  0.5295
 2947SOL    HW211554   0.993   4.366   4.880  1.9122 -0.2724 -0.2012
 2947SOL    HW311555   1.024   4.498   4.814 -0.9882  1.0347  0.8919
 2947SOL    MW411556   1.020   4.449   4.885 -0.6073 -0.0878  0.0315
 2948SOL     OW11557   3.738   6.228   2.876  0.5024 -0.1056 -0.2386
 2948SOL    HW211558   3.833   6.225   2.872  0.5793  1.4237 -0.3007
 2948SOL    HW311559   3.712   6.278   2.799 -0.4425 -1.4018 -0.8033
 2948SOL    MW411560   3.747   6.234   2.865  0.0265  0.3674 -0.0314
 2949SOL     OW11561   3.540   4.277   6.013 -0.0896 -0.2698 -0.0191
 2949SOL    HW211562   3.588   4.215   6.068 -0.0837  0.4038  0.7508
 2949SOL    HW311563   3.455   4.234   5.998  0.2677 -0.8885 -0.3065
 2949SOL    MW411564   3.535   4.263   6.018  0.4463 -0.2641 -0.5196
 2950SOL     OW11565   4.207   6.107   3.223  0.1697 -0.5644  0.5915
 2950SOL    HW211566   4.211   6.073   3.313 -1.0753  0.0561  0.9050
 2950SOL    HW311567   4.290   6.080   3.184 -0.1505 -2.7154  1.2494
 2950SOL    MW411568   4.218   6.099   3.230  0.1568 -0.3717 -0.3230
 2951SOL     OW11569   5.727   0.364   4.885 -0.7137  0.4670 -0.2101
 2951SOL    HW211570   5.710   0.282   4.931 -0.8186  0.3639 -0.4318
 2951SOL    HW311571   5.653   0.375   4.826  0.0657 -0.0921 -1.3305
 2951SOL    MW411572   5.715   0.355   4.883  0.0333 -0.1481 -0.2453
 2952SOL     OW11573   4.708   3.908   1.128 -0.0728 -0.4833 -0.2690
 2952SOL    HW211574   4.789   3.950   1.157 -0.7045  0.7061 -0.1426
 2952SOL    HW311575   4.726   3.814   1.133  1.5364 -0.2486 -0.9540
 2952SOL    MW411576   4.721   3.901   1.132 -0.3942  0.3906 -0.2994
 2953SOL     OW11577   4.261   5.935   4.342  0.0751  0.0520 -0.3750
 2953SOL    HW211578   4.356   5.938   4.339  0.0432  0.4649 -1.3345
 2953SOL    HW311579   4.236   6.004   4.403  0.3795  0.1060 -0.3145
 2953SOL    MW411580   4.270   5.944   4.349 -0.2404 -0.0409 -0.0243
 2954SOL     OW11581   0.921   5.770   1.983 -0.1005 -0.1771  0.4798
 2954SOL    HW211582   0.983   5.839   2.007  0.7456 -1.3320  1.7640
 2954SOL    HW311583   0.962   5.726   1.908  0.1836 -0.3239  0.7163
 2954SOL    MW411584   0.935   5.773   1.976 -0.9386  0.0570  0.5290
 2955SOL     OW11585   4.769   3.372   4.058  0.1980 -0.4740  0.2309
 2955SOL    HW211586   4.833   3.443   4.062  0.6681 -0.7834 -1.0962
 2955SOL    HW311587   4.757   3.356   3.964 -2.2580 -0.0708  0.4123
 2955SOL    MW411588   4.776   3.379   4.046 -0.8696 -0.2482 -0.1078
 2956SOL     OW11589   1.014   2.862   0.699  0.1209  0.4162  0.0229
 2956SOL    HW211590   1.060   2.925   0.753  0.5274  0.8328 -0.7939
 2956SOL    HW311591   0.930   2.904   0.679 -0.6437 -0.3215  1.4695
 2956SOL    MW411592   1.009   2.876   0.703 -0.5686  0.0772 -0.4163
 2957SOL     OW11593   3.571   2.607   0.879  0.1251  0.2711 -0.0920
 2957SOL    HW211594   3.541   2.551   0.951 -0.1372 -0.3274 -0.6512
 2957SOL    HW311595   3.581   2.547   0.805  0.3418  0.8835 -0.5684
 2957SOL    MW411596   3.568   2.591   0.879 -0.1996 -0.4169  0.2807
 2958SOL     OW11597   1.367   6.259   1.113 -0.1027 -0.4125  0.2198
 2958SOL    HW211598   1.309   6.236   1.185 -1.6967  0.3863 -0.7608
 2958SOL    HW311599   1.355   6.189   1.049  1.8439 -1.5030  0.9525
 2958SOL    MW411600   1.358   6.247   1.114  0.1661 -0.6832  0.1143
 2959SOL     OW11601   3.239   3.439   0.101  0.9419  0.1621 -0.6452
 2959SOL    HW211602   3.232   3.534   0.089 -0.4493  0.1655 -0.0630
 2959SOL    HW311603   3.166   3.404   0.049 -0.3533 -0.3542  1.4393
 2959SOL    MW411604   3.228   3.447   0.092 -0.0938  0.1590  0.2452
 2960SOL     OW11605   3.467   3.893   3.805 -0.0609 -0.0297 -0.1480
 2960SOL    HW211606   3.377   3.869   3.783 -0.1681 -0.8408  1.0357
 2960SOL    HW311607   3.520   3.820   3.772  0.0275 -0.1042  0.1537
 2960SOL    MW411608   3.462   3.880   3.798 -0.4144 -0.3671 -0.1101
 2961SOL     OW11609   0.366   0.697   6.191 -0.2148 -0.1102 -0.0938
 2961SOL    HW211610   0.454   0.720   6.222 -0.6330  0.7384  0.4933
 2961SOL    HW311611   0.359   0.603   6.209  0.4882 -0.1362  0.0715
 2961SOL    MW411612   0.377   0.687   6.198 -0.0605 -0.1773 -0.7401
 2962SOL     OW11613   0.861   4.934   2.029 -0.4789  0.5394 -0.2510
 2962SOL    HW211614   0.842   4.900   2.116  1.8206 -0.0825  0.0646
 2962SOL    HW311615   0.781   4.917   1.979 -1.3633 -0.3141  1.3639
 2962SOL    MW411616   0.848   4.927   2.034 -0.3534 -0.8322 -0.0710
 2963SOL     OW11617   4.373   3.986   5.909 -0.4134  0.3634 -0.0919
 2963SOL    HW211618   4.390   4.047   5.837  3.1445 -1.1840 -0.7670
 2963SOL    HW311619   4.327   3.913   5.868 -1.5958  1.0356  0.0037
 2963SOL    MW411620   4.369   3.985   5.894  0.6062  0.4614 -0.4145
 2964SOL     OW11621   4.857   5.966   4.757 -0.1208 -0.3309  0.1985
 2964SOL    HW211622   4.825   5.957   4.847 -0.8247 -0.7780 -0.0892
 2964SOL    HW311623   4.828   6.053   4.730  1.8042  0.6238  1.0607
 2964SOL    MW411624   4.849   5.976   4.765 -0.3730  1.2937 -0.5785
 2965SOL     OW11625   0.753   2.465   1.646  0.6997 -0.0906  0.4292
 2965SOL    HW211626   0.752   2.559   1.630 -1.0517 -0.2374 -0.5567
 2965SOL    HW311627   0.834   2.434   1.605  0.2872  0.7187 -1.0731
 2965SOL    MW411628   0.764   2.473   1.638 -0.3958  0.6817 -0.5558
 2966SOL     OW11629   2.621   0.878   4.668 -0.0428 -0.4921  0.1927
 2966SOL    HW211630   2.680   0.926   4.610 -0.2030 -0.7698 -0.2101
 2966SOL    HW311631   2.619   0.929   4.749 -2.6987  1.9941 -1.2673
 2966SOL    MW411632   2.628   0.891   4.671 -0.0165  0.2357  0.0881
 2967SOL     OW11633   0.428   5.755   0.929 -0.1181  0.1682  0.4130
 2967SOL    HW211634   0.407   5.698   0.855  0.8424  0.6056 -0.2087
 2967SOL    HW311635   0.504   5.715   0.971  0.9590  1.2765 -0.3991
 2967SOL    MW411636   0.435   5.742   0.925 -0.5866  0.2089 -0.8235
 2968SOL     OW11637   0.098   5.460   2.938  0.1745 -0.6443  0.0622
 2968SOL    HW211638   0.165   5.392   2.940  0.1998 -0.6051  0.6962
 2968SOL    HW311639   0.103   5.501   3.024 -0.5662 -0.5496  0.0643
 2968SOL    MW411640   0.107   5.457   2.949 -0.4549 -0.1622 -0.4292
 2969SOL     OW11641   0.789   1.464   0.204  0.1782  0.4396  0.0749
 2969SOL    HW211642   0.727   1.394   0.185  0.6909  0.5115 -2.1614
 2969SOL    HW311643   0.749   1.514   0.275 -2.0004  0.1025 -0.8498
 2969SOL    MW411644   0.776   1.461   0.211  0.1694 -0.3514 -0.0100
 2970SOL     OW11645   4.858   1.841   4.405 -0.0499 -0.3080 -0.0743
 2970SOL    HW211646   4.802   1.779   4.451 -0.8282  0.2311 -0.2815
 2970SOL    HW311647   4.944   1.828   4.444 -0.9119  1.0404  2.5080
 2970SOL    MW411648   4.862   1.831   4.417 -0.0550 -0.1974 -0.3654
 2971SOL     OW11649   4.859   1.191   5.957  0.1262 -0.1732  0.2607
 2971SOL    HW211650   4.828   1.181   5.867  1.1485  0.5965 -0.1972
 2971SOL    HW311651   4.914   1.269   5.956  0.6295 -0.4773  1.4257
 2971SOL    MW411652   4.862   1.200   5.945  0.2020  0.4259  0.5816
 2972SOL     OW11653   0.340   4.282   3.996  0.0445 -0.2312  0.6298
 2972SOL    HW211654   0.258   4.232   4.000  0.0273 -0.1457  1.4488
 2972SOL    HW311655   0.335   4.341   4.071  0.5983  0.1780  0.3441
 2972SOL    MW411656   0.328   4.283   4.006  0.1238  0.4974 -0.6271
 2973SOL     OW11657   2.607   2.835   2.823  0.0970  0.2054 -0.0146
 2973SOL    HW211658   2.551   2.765   2.790 -0.2972  0.2503  0.5451
 2973SOL    HW311659   2.644   2.875   2.744 -0.7297  0.2368 -0.4005
 2973SOL    MW411660   2.605   2.831   2.808 -0.3473  0.3653  0.1071
 2974SOL     OW11661   1.852   5.531   1.344  0.1156  0.5801 -0.1767
 2974SOL    HW211662   1.796   5.568   1.277  0.4270  3.3462  0.9506
 2974SOL    HW311663   1.833   5.583   1.423  3.7025  1.2376  0.4296
 2974SOL    MW411664   1.842   5.542   1.346 -0.4291  0.0966 -0.0641
 2975SOL     OW11665   3.811   3.189   3.676 -0.2338  0.3930  0.0970
 2975SOL    HW211666   3.895   3.219   3.643  1.1877 -0.6587  2.4869
 2975SOL    HW311667   3.771   3.143   3.602  1.0745  1.2611 -1.2069
 2975SOL    MW411668   3.817   3.187   3.662  0.1941 -0.4605  0.7858
 2976SOL     OW11669   2.948   1.288   4.051 -0.0268 -0.2445  0.0810
 2976SOL    HW211670   2.917   1.344   3.980 -1.5968 -0.1039  0.8364
 2976SOL    HW311671   2.993   1.348   4.110  0.3149 -0.1809 -0.2364
 2976SOL    MW411672   2.950   1.304   4.049  0.2436  0.1913 -0.1709
 2977SOL     OW11673   1.781   4.514   5.938 -0.1391  0.5789 -0.1357
 2977SOL    HW211674   1.771   4.602   5.974 -0.7887  0.3307  0.3142
 2977SOL    HW311675   1.695   4.492   5.902 -0.5416 -0.5618  1.3978
 2977SOL    MW411676   1.768   4.522   5.938 -0.3161  0.0560 -0.4399
 2978SOL     OW11677   0.434   0.382   2.425 -0.2572 -0.4482 -0.2199
 2978SOL    HW211678   0.492   0.344   2.491 -0.6169  0.6418  0.7472
 2978SOL    HW311679   0.494   0.420   2.360  0.1499  0.6226  0.7451
 2978SOL    MW411680   0.450   0.382   2.425 -1.0129 -0.3093 -0.4625
 2979SOL     OW11681   2.546   5.358   3.925  0.0415 -0.3004 -0.6315
 2979SOL    HW211682   2.612   5.310   3.874 -0.0351  0.1496 -1.1721
 2979SOL    HW311683   2.463   5.337   3.881 -0.3435 -1.7510  0.7068
 2979SOL    MW411684   2.544   5.348   3.912  0.4358 -0.3527 -1.1336
 2980SOL     OW11685   4.947   2.877   2.508  0.1056 -0.0699  0.3071
 2980SOL    HW211686   4.911   2.952   2.460  1.4271  0.7659  0.5592
 2980SOL    HW311687   4.877   2.852   2.569  0.4190  2.5424  1.9268
 2980SOL    MW411688   4.933   2.884   2.510  0.1343 -0.0990 -0.2914
 2981SOL     OW11689   4.815   5.638   0.446 -0.4245  0.5571  0.7011
 2981SOL    HW211690   4.880   5.622   0.378 -0.7173  1.0331  0.3074
 2981SOL    HW311691   4.755   5.702   0.408 -1.9389 -0.8959  0.5254
 2981SOL    MW411692   4.815   5.644   0.432 -0.0126  0.6399 -0.3934
 2982SOL     OW11693   5.591   2.685   3.081 -0.5837  0.3441  0.3440
 2982SOL    HW211694   5.600   2.643   3.166  1.8412 -1.6434 -0.7537
 2982SOL    HW311695   5.539   2.623   3.029 -0.5325  0.6871 -0.1216
 2982SOL    MW411696   5.585   2.671   3.085  0.3922  0.3830 -0.7199
 2983SOL     OW11697   4.741   2.309   6.395  1.0377  0.3934 -0.4720
 2983SOL    HW211698   4.818   2.348   6.437 -0.2927  1.1654  1.3898
 2983SOL    HW311699   4.667   2.358   6.430 -0.2297  1.5192 -4.2340
 2983SOL    MW411700   4.742   2.320   6.405  0.0091  0.0790  0.4036
 2984SOL     OW11701   5.238   2.642   0.082 -0.6505 -0.2052 -0.0991
 2984SOL    HW211702   5.285   2.695   0.018 -0.8142 -0.7682 -0.6965
 2984SOL    HW311703   5.302   2.624   0.151  0.0143 -0.9121 -0.8721
 2984SOL    MW411704   5.253   2.646   0.083  0.5222  0.0631 -0.4110
 2985SOL     OW11705   0.735   2.550   6.035 -0.0811 -0.4632  0.6327
 2985SOL    HW211706   0.710   2.478   6.093  1.9622 -0.7277  1.2752
 2985SOL    HW311707   0.698   2.628   6.076 -1.7965 -1.0400  0.2582
 2985SOL    MW411708   0.727   2.551   6.048  0.0296  0.0399 -0.1360
 2986SOL     OW11709   5.775   1.081   6.085  0.0696  0.4440 -0.2939
 2986SOL    HW211710   5.763   1.076   5.990  2.4350 -1.1174 -0.6038
 2986SOL    HW311711   5.845   1.145   6.097  1.3845 -1.0054  0.1467
 2986SOL    MW411712   5.783   1.089   6.074  0.3775 -0.7302  0.1963
 2987SOL     OW11713   4.413   4.117   0.484  0.3924 -0.3066 -0.4448
 2987SOL    HW211714   4.404   4.048   0.419 -1.2122 -0.1786 -0.4052
 2987SOL    HW311715   4.378   4.195   0.442  2.3685  0.5814 -0.5610
 2987SOL    MW411716   4.407   4.118   0.470 -0.2226 -0.4286  0.2198
 2988SOL     OW11717   4.902   1.764   6.296  0.0342 -0.3537  0.0944
 2988SOL    HW211718   4.957   1.756   6.374 -0.1725 -1.2453  0.1618
 2988SOL    HW311719   4.922   1.851   6.261  0.9676 -0.3892  0.5081
 2988SOL    MW411720   4.912   1.774   6.301 -0.4193 -0.5742 -0.0725
 2989SOL     OW11721   3.996   5.382   0.352 -0.7635  0.1415 -0.1491
 2989SOL    HW211722   3.932   5.447   0.322 -1.4526 -0.2292  0.4991
 2989SOL    HW311723   4.006   5.400   0.446 -1.7428 -1.3400  0.2568
 2989SOL    MW411724   3.989   5.393   0.360 -0.0778 -0.1402 -0.7012
 2990SOL     OW11725   0.001   4.783   5.836  0.1409 -0.0229  0.7045
 2990SOL    HW211726  -0.042   4.701   5.813 -0.7765  0.3429  1.0510
 2990SOL    HW311727  -0.067   4.850   5.824  0.9839  0.7518 -0.0033
 2990SOL    MW411728  -0.014   4.781   5.831 -0.2306  0.1289  0.0712
 2991SOL     OW11729   5.187   2.847   5.477  0.1785  0.7797  0.2547
 2991SOL    HW211730   5.126   2.889   5.417 -1.6945  0.0427  1.5547
 2991SOL    HW311731   5.263   2.905   5.478 -0.8894  2.2718 -0.6445
 2991SOL    MW411732   5.189   2.860   5.469 -0.0403  0.2168 -0.6277
 2992SOL     OW11733   5.675   3.754   5.183 -0.1596  0.1632  0.4383
 2992SOL    HW211734   5.691   3.663   5.156 -0.0635  0.2169  0.3091
 2992SOL    HW311735   5.580   3.761   5.192 -0.2218  0.2274 -0.1999
 2992SOL    MW411736   5.665   3.743   5.180  0.1717 -0.4758  0.3218
 2993SOL     OW11737   0.165   6.275   3.816 -0.3877 -0.1818 -0.4251
 2993SOL    HW211738   0.123   6.196   3.783  2.1389 -2.9125  2.2599
 2993SOL    HW311739   0.256   6.267   3.786  0.0280  1.4859  0.3184
 2993SOL    MW411740   0.172   6.263   3.807  0.3935  0.1655 -0.2756
 2994SOL     OW11741   5.933   4.556   0.375  0.3530 -0.4597 -0.5086
 2994SOL    HW211742   5.893   4.600   0.299  0.4079 -1.7629 -1.3182
 2994SOL    HW311743   6.011   4.514   0.340  0.0208 -1.6319  0.1203
 2994SOL    MW411744   5.938   4.556   0.360  0.1111  0.5013  0.3477
 2995SOL     OW11745   6.182   2.537   3.211 -0.0410  0.1461 -0.6026
 2995SOL    HW211746   6.140   2.614   3.250 -0.7967  0.8147 -2.6019
 2995SOL    HW311747   6.116   2.502   3.151  1.0000 -0.9161 -1.1574
 2995SOL    MW411748   6.167   2.543   3.209  0.3393 -0.5139 -0.7133
 2996SOL     OW11749   0.781   5.437   1.786 -0.5827 -0.5545  0.2298
 2996SOL    HW211750   0.701   5.454   1.836 -0.4122 -0.1320  0.3661
 2996SOL    HW311751   0.751   5.430   1.695 -1.0290 -2.2920  0.4787
 2996SOL    MW411752   0.766   5.438   1.781  0.2642  0.4783 -0.2070
 2997SOL     OW11753   4.997   4.459   0.195  0.1740  0.5242 -0.2452
 2997SOL    HW211754   5.052   4.537   0.196  0.2574  0.4835 -1.0169
 2997SOL    HW311755   5.022   4.413   0.115  0.5557 -0.6140  0.5217
 2997SOL    MW411756   5.007   4.463   0.184  0.2728 -0.5758 -0.7237
 2998SOL     OW11757   2.555   3.314   4.719 -0.4368 -0.0125  0.2737
 2998SOL    HW211758   2.634   3.269   4.750 -0.9791 -0.0203  1.6921
 2998SOL    HW311759   2.555   3.298   4.624  1.1009 -0.2551  0.2856
 2998SOL    MW411760   2.566   3.306   4.710 -0.0459  0.0693 -0.1388
 2999SOL     OW11761   3.596   0.653   4.436  0.1037 -0.5448 -0.2035
 2999SOL    HW211762   3.646   0.712   4.379 -0.4723  1.9440  1.6919
 2999SOL    HW311763   3.631   0.566   4.417  1.9215  0.5119 -2.2171
 2999SOL    MW411764   3.607   0.649   4.426 -0.5557 -0.7167 -0.2702
 3000SOL     OW11765   6.230   2.635   0.860  0.0396 -0.4766 -0.0979
 3000SOL    HW211766   6.278   2.595   0.933  0.6942 -0.4633 -0.5183
 3000SOL    HW311767   6.289   2.702   0.827 -0.3431 -0.3444 -0.5161
 3000SOL    MW411768   6.244   2.639   0.865 -0.0274  0.3283 -0.2019
 3001SOL     OW11769   5.188   2.682   1.338  0.2358  0.0058  0.7677
 3001SOL    HW211770   5.261   2.726   1.296 -0.1821  2.4021  2.3877
 3001SOL    HW311771   5.181   2.598   1.292  0.4134  1.9731 -3.2579
 3001SOL    MW411772   5.197   2.677   1.326  0.1643  0.1777  0.0578
 3002SOL     OW11773   1.989   2.923   4.951 -0.3518  0.2401  0.0404
 3002SOL    HW211774   2.058   2.954   5.010 -0.8127  2.0700 -0.3018
 3002SOL    HW311775   1.920   2.892   5.009  0.3173 -0.5929  0.4009
 3002SOL    MW411776   1.989   2.923   4.966  0.1649 -0.2797 -0.3267
 3003SOL     OW11777   0.985   1.257   5.754  0.2379  0.1983  0.2721
 3003SOL    HW211778   1.051   1.292   5.694 -0.9500 -0.8571 -1.7692
 3003SOL    HW311779   1.004   1.163   5.758 -1.4462 -0.2287 -0.8500
 3003SOL    MW411780   0.996   1.249   5.746  0.3745 -0.2895 -0.5142
 3004SOL     OW11781   2.384   0.445   3.800 -0.1743  0.7425 -0.4030
 3004SOL    HW211782   2.388   0.425   3.707  0.0493  3.1971 -0.9879
 3004SOL    HW311783   2.475   0.443   3.829 -0.3332 -1.2791  0.1280
 3004SOL    MW411784   2.397   0.442   3.792  0.4046  0.3020  0.0683
 3005SOL     OW11785   3.769   0.024   2.196 -0.5162 -0.0164 -0.2315
 3005SOL    HW211786   3.800  -0.060   2.230 -0.7224  0.0724  0.1890
 3005SOL    HW311787   3.828   0.088   2.235 -1.6200  0.2255  1.1614
 3005SOL    MW411788   3.781   0.021   2.206 -0.1895  0.6600  0.0820
 3006SOL     OW11789   1.354   1.541   4.713 -0.4065 -0.9172  0.6808
 3006SOL    HW211790   1.355   1.608   4.782 -0.0936  0.9246 -1.0297
 3006SOL    HW311791   1.444   1.538   4.681 -0.4252 -2.1657  0.6830
 3006SOL    MW411792   1.366   1.549   4.718 -0.1057  0.4128  0.0718
 3007SOL     OW11793   3.983   4.769   4.705  0.0216  0.2721 -0.3477
 3007SOL    HW211794   3.941   4.757   4.620 -0.8206  1.9829 -0.2109
 3007SOL    HW311795   4.061   4.713   4.701 -0.7597 -0.7887 -1.6760
 3007SOL    MW411796   3.988   4.760   4.693 -0.4360 -0.4317 -0.3109
 3008SOL     OW11797   3.709   4.062   6.132  0.0024  0.1787  0.3453
 3008SOL    HW211798   3.733   3.969   6.133 -0.2196  0.0023 -2.4466
 3008SOL    HW311799   3.793   4.108   6.133  0.1101  0.0548  2.4915
 3008SOL    MW411800   3.724   4.056   6.133  0.4800  0.2481  0.1291
 3009SOL     OW11801   3.368   2.816   6.223  0.0265 -0.1175 -0.4564
 3009SOL    HW211802   3.413   2.900   6.211  0.0781 -0.2860 -1.5720
 3009SOL    HW311803   3.287   2.825   6.173 -0.2136 -0.5403 -0.1433
 3009SOL    MW411804   3.363   2.829   6.215 -0.1671 -0.0121  1.0108
 3010SOL     OW11805   5.122   3.419   2.615  0.2446 -0.1206  0.6778
 3010SOL    HW211806   5.095   3.413   2.706  1.4387  0.8776  1.1215
 3010SOL    HW311807   5.069   3.490   2.578  0.5569  0.2290  0.8998
 3010SOL    MW411808   5.111   3.428   2.622 -0.0590 -0.3744  0.0495
 3011SOL     OW11809   4.013   1.591   5.589 -0.2334  1.1125 -0.7413
 3011SOL    HW211810   4.024   1.673   5.637  1.4807 -0.1877  1.2499
 3011SOL    HW311811   4.076   1.597   5.516  2.8543  0.1405  1.6125
 3011SOL    MW411812   4.023   1.603   5.585  0.0269  0.0385  0.2967
 3012SOL     OW11813   4.884   2.246   4.952  0.1366 -0.0358  0.3719
 3012SOL    HW211814   4.905   2.158   4.981 -1.2600 -0.3795  0.4003
 3012SOL    HW311815   4.839   2.286   5.026  0.5874  0.6436  0.2933
 3012SOL    MW411816   4.881   2.240   4.965 -0.1971  0.2682  0.0581
 3013SOL     OW11817   5.290   6.143   3.976 -0.5031 -1.0899 -0.3238
 3013SOL    HW211818   5.336   6.059   3.971 -1.5020 -1.6749  0.0837
 3013SOL    HW311819   5.200   6.122   3.954 -0.5303  0.1076 -1.4806
 3013SOL    MW411820   5.285   6.129   3.972  0.7193  0.0504 -0.1855
 3014SOL     OW11821   5.400   2.208   4.230 -0.2129  0.2878 -0.9584
 3014SOL    HW211822   5.444   2.174   4.152  0.9637  1.0275 -0.6361
 3014SOL    HW311823   5.380   2.299   4.208 -0.3240  0.3566 -0.5715
 3014SOL    MW411824   5.403   2.216   4.217  0.0599 -0.5054 -0.4898
 3015SOL     OW11825   1.130   0.048   1.717  0.2398  0.0449  0.0471
 3015SOL    HW211826   1.179   0.128   1.736  0.0653  0.1078  0.2366
 3015SOL    HW311827   1.039   0.072   1.732  0.3464 -0.8899  2.6391
 3015SOL    MW411828   1.124   0.062   1.721 -0.5345 -0.2777 -0.0191
 3016SOL     OW11829   5.463   4.606   6.381  0.5851  0.1200 -0.3032
 3016SOL    HW211830   5.554   4.577   6.378  0.9078  0.9144  0.9247
 3016SOL    HW311831   5.415   4.532   6.418  1.0093  0.2613  0.5535
 3016SOL    MW411832   5.468   4.593   6.385 -0.0822 -0.5836 -0.1229
 3017SOL     OW11833   4.175   4.155   3.021  0.0233 -0.2757  0.2944
 3017SOL    HW211834   4.222   4.188   2.944 -0.0059 -0.1907  0.3122
 3017SOL    HW311835   4.103   4.217   3.033 -1.6441 -1.8135 -1.2750
 3017SOL    MW411836   4.172   4.168   3.013 -0.0777  0.1321 -0.2997
 3018SOL     OW11837   4.520   4.951   0.420  0.7362 -0.1426  0.1020
 3018SOL    HW211838   4.451   4.967   0.485  2.1618  0.2010  1.6123
 3018SOL    HW311839   4.556   4.865   0.444  1.0597 -0.1668 -0.4537
 3018SOL    MW411840   4.515   4.942   0.432  0.2109  0.7008  0.5145
 3019SOL     OW11841   1.422   5.060   6.208  0.1569  0.2608 -0.1962
 3019SOL    HW211842   1.362   5.089   6.276  0.2433 -0.7249  0.3093
 3019SOL    HW311843   1.430   5.136   6.150 -1.7784  0.3416 -0.4255
 3019SOL    MW411844   1.415   5.074   6.209  0.7587  0.5509 -0.6048
 3020SOL     OW11845   3.611   1.302   3.748  0.4607  0.1794  0.2332
 3020SOL    HW211846   3.681   1.250   3.788  0.0921 -0.7273 -0.2517
 3020SOL    HW311847   3.573   1.352   3.820  1.3918  0.4469  0.5600
 3020SOL    MW411848   3.615   1.302   3.763 -0.3995 -0.1928  0.3738
 3021SOL     OW11849   1.726   6.052   1.180 -0.7633  0.5497  0.4111
 3021SOL    HW211850   1.705   6.142   1.203 -1.5629  0.3029  0.6643
 3021SOL    HW311851   1.647   6.003   1.199 -0.4678 -0.1465 -0.0998
 3021SOL    MW411852   1.713   6.058   1.185  0.2111 -0.0192  0.1000
 3022SOL     OW11853   4.892   2.581   2.527 -0.1607 -0.4028  0.1772
 3022SOL    HW211854   4.875   2.622   2.611 -0.6868  1.3151 -0.7400
 3022SOL    HW311855   4.988   2.586   2.517 -0.0309 -1.1777  0.9258
 3022SOL    MW411856   4.903   2.587   2.537  0.6457  0.3312 -0.3632
 3023SOL     OW11857   4.391   3.787   1.323  0.0035  0.4097  0.1232
 3023SOL    HW211858   4.309   3.742   1.305  1.0218 -0.8074 -1.8764
 3023SOL    HW311859   4.397   3.790   1.419 -2.2059  0.2848  0.3008
 3023SOL    MW411860   4.381   3.781   1.334 -0.1336  0.3597 -0.2673
 3024SOL     OW11861   3.983   5.712   5.087 -0.4425  0.4767 -0.0033
 3024SOL    HW211862   3.907   5.695   5.032 -0.8806  2.5275 -0.1098
 3024SOL    HW311863   3.997   5.806   5.080  2.3122  0.1453 -0.2336
 3024SOL    MW411864   3.975   5.722   5.078  0.1378 -0.2624  0.2921
 3025SOL     OW11865   1.331   1.572   2.676 -0.4846 -0.1671 -0.4426
 3025SOL    HW211866   1.365   1.583   2.765  0.8264 -0.1730 -0.9242
 3025SOL    HW311867   1.363   1.649   2.629  0.1515 -0.9385 -1.2949
 3025SOL    MW411868   1.340   1.584   2.682  0.0734  0.0320 -0.0900
 3026SOL     OW11869   5.624   5.443   2.631 -0.7246  0.3864  0.0798
 3026SOL    HW211870   5.530   5.422   2.633 -0.5313 -0.4721  0.6950
 3026SOL    HW311871   5.656   5.416   2.717  0.5823 -1.8131 -0.9926
 3026SOL    MW411872   5.616   5.436   2.642  0.0219  0.2656 -0.3103
 3027SOL     OW11873   4.433   4.517   1.152  0.0796  0.5391  0.1804
 3027SOL    HW211874   4.520   4.479   1.151 -0.0365  0.2731  0.0204
 3027SOL    HW311875   4.448   4.612   1.143  0.2830  0.3296 -2.8008
 3027SOL    MW411876   4.446   4.525   1.150  1.2005 -0.9406 -0.4422
 3028SOL     OW11877   0.627   1.851   1.497  0.2186  0.0329  0.5413
 3028SOL    HW211878   0.673   1.779   1.541  0.5653  0.1655  0.3962
 3028SOL    HW311879   0.690   1.923   1.497  0.0866  0.1465  0.1458
 3028SOL    MW411880   0.641   1.851   1.503 -0.2436  0.9316 -0.1369
 3029SOL     OW11881   2.222   4.788   4.899  0.2029 -0.0786 -0.2907
 3029SOL    HW211882   2.138   4.790   4.852  0.0168 -1.0326 -0.0170
 3029SOL    HW311883   2.251   4.879   4.899 -0.9662  0.3147 -0.1608
 3029SOL    MW411884   2.214   4.800   4.893  0.1018 -0.0243  0.2434
 3030SOL     OW11885   4.579   0.602   3.224 -0.3627 -0.2596 -0.6444
 3030SOL    HW211886   4.532   0.564   3.298  0.1370  1.3186  0.5167
 3030SOL    HW311887   4.671   0.582   3.240 -0.1450  0.9726 -0.2698
 3030SOL    MW411888   4.585   0.594   3.236 -0.5771  0.5321  0.5352
 3031SOL     OW11889   4.801   0.587   4.491  0.7607  0.1653 -0.1055
 3031SOL    HW211890   4.824   0.680   4.497  0.4013  0.1865  1.0139
 3031SOL    HW311891   4.752   0.569   4.570  0.4427 -0.8854 -0.5285
 3031SOL    MW411892   4.798   0.597   4.502 -0.6306  0.1141 -0.2497
 3032SOL     OW11893   1.315   0.252   1.248 -0.0900 -0.0252  0.3609
 3032SOL    HW211894   1.290   0.329   1.299 -1.3267  0.3108 -0.7051
 3032SOL    HW311895   1.255   0.183   1.277 -1.6613  0.4961 -1.4392
 3032SOL    MW411896   1.304   0.253   1.258  0.3210  0.3292  0.9210
 3033SOL     OW11897   5.923   1.635   2.733  0.5676 -0.0170 -0.2616
 3033SOL    HW211898   5.852   1.662   2.791  0.3195  0.9027 -0.9670
 3033SOL    HW311899   5.879   1.608   2.652  1.0157  0.9142 -0.8407
 3033SOL    MW411900   5.908   1.635   2.730  0.1943 -0.7062 -0.6873
 3034SOL     OW11901   3.098   3.491   1.948  0.3392  0.4273 -0.1596
 3034SOL    HW211902   3.155   3.493   1.871  0.5600  0.5859  0.0047
 3034SOL    HW311903   3.087   3.583   1.973  0.9727  0.3373  0.5034
 3034SOL    MW411904   3.104   3.503   1.941 -0.1911  0.2430  0.3360
 3035SOL     OW11905   0.132   1.123   0.312  0.8021 -0.0154 -0.0122
 3035SOL    HW211906   0.211   1.099   0.359 -0.1836 -1.7605  0.8428
 3035SOL    HW311907   0.070   1.052   0.331 -0.0129 -0.2605 -3.0565
 3035SOL    MW411908   0.134   1.110   0.320 -0.1239 -0.6417 -0.2189
 3036SOL     OW11909   1.376   1.766   1.720  0.1140  0.4656 -0.5084
 3036SOL    HW211910   1.319   1.689   1.715 -0.1500  0.5927  0.3289
 3036SOL    HW311911   1.361   1.813   1.638 -1.3011  0.7084 -0.1360
 3036SOL    MW411912   1.366   1.762   1.709 -0.4219 -0.1409  0.0082
 3037SOL     OW11913   2.302   4.653   1.637 -0.3763  0.4164 -0.2534
 3037SOL    HW211914   2.291   4.571   1.588 -0.5348  0.3856 -0.1653
 3037SOL    HW311915   2.340   4.626   1.720 -0.8132  0.3843 -0.0589
 3037SOL    MW411916   2.306   4.638   1.641  0.0489 -0.0341  0.2032
 3038SOL     OW11917   0.160   3.798   1.299 -0.2120  0.0842  0.0220
 3038SOL    HW211918   0.080   3.851   1.300 -0.7829 -0.7219 -0.9836
 3038SOL    HW311919   0.198   3.813   1.212 -0.0791 -0.7013 -0.0671
 3038SOL    MW411920   0.154   3.807   1.287 -0.0843  0.1732 -0.1660
 3039SOL     OW11921   6.383   2.811   6.233  0.6463 -0.4573  0.6628
 3039SOL    HW211922   6.432   2.794   6.314  1.4177  2.1473  0.8117
 3039SOL    HW311923   6.311   2.868   6.260  0.9343  0.4774 -0.4644
 3039SOL    MW411924   6.380   2.816   6.247  0.2856  0.7366  0.2068
 3040SOL     OW11925   2.150   4.750   1.075 -0.7037  0.0565 -0.2080
 3040SOL    HW211926   2.184   4.696   1.147  0.1546  1.0999  0.2032
 3040SOL    HW311927   2.153   4.839   1.109  0.2653  0.6482 -1.7270
 3040SOL    MW411928   2.155   4.754   1.089  0.2053  0.3273 -0.2776
 3041SOL     OW11929   1.868   5.025   1.055  0.3850 -0.0113  0.4341
 3041SOL    HW211930   1.948   5.014   1.002 -0.0387 -0.2563 -0.1608
 3041SOL    HW311931   1.878   5.111   1.095  1.1445 -0.2118  0.6953
 3041SOL    MW411932   1.880   5.035   1.053 -0.0426  0.3229  0.4338
 3042SOL     OW11933   2.739   3.895   0.672  0.2716 -0.0830  0.0205
 3042SOL    HW211934   2.833   3.892   0.692  0.0827  1.4400  1.3269
 3042SOL    HW311935   2.729   3.971   0.615 -0.2646  0.1726  0.4535
 3042SOL    MW411936   2.750   3.905   0.667  1.1322 -0.0431 -0.1656
 3043SOL     OW11937   0.157   3.774   4.019 -0.2304 -0.7341 -0.0114
 3043SOL    HW211938   0.066   3.801   4.003 -0.3156 -1.4650 -0.8541
 3043SOL    HW311939   0.210   3.838   3.971 -0.4095 -1.6000 -1.4532
 3043SOL    MW411940   0.152   3.786   4.010  0.3213  0.2968 -0.5653
 3044SOL     OW11941   1.886   6.106   6.076 -0.3528 -0.0653  0.8418
 3044SOL    HW211942   1.837   6.085   5.997  0.9296 -0.0577  0.0216
 3044SOL    HW311943   1.940   6.029   6.092  0.4587  0.4986  0.8720
 3044SOL    MW411944   1.886   6.093   6.068 -0.1063 -0.0014 -0.1710
 3045SOL     OW11945   0.375   0.131   3.991  0.1093 -0.3305  0.1886
 3045SOL    HW211946   0.345   0.055   4.041 -2.6465  0.9327  0.6463
 3045SOL    HW311947   0.403   0.095   3.907  0.3258 -1.9850  0.9275
 3045SOL    MW411948   0.375   0.116   3.987 -0.2145 -0.0932 -0.3260
 3046SOL     OW11949   2.803   2.500   3.910 -0.2046  0.5651 -0.5414
 3046SOL    HW211950   2.793   2.406   3.923  1.2828  0.3235 -0.9819
 3046SOL    HW311951   2.715   2.531   3.889 -1.0197 -0.4562  1.1552
 3046SOL    MW411952   2.790   2.492   3.909  0.6331  0.1916 -0.5538
 3047SOL     OW11953   4.483   3.723   5.609 -0.0988  0.0522  0.4677
 3047SOL    HW211954   4.560   3.739   5.662 -0.6045 -1.1279  1.6148
 3047SOL    HW311955   4.489   3.630   5.585  0.3139  0.6112 -1.9152
 3047SOL    MW411956   4.494   3.713   5.613  0.7517 -0.3843 -0.1499
 3048SOL     OW11957   0.610   1.218   0.445  0.0854 -0.1821 -0.4237
 3048SOL    HW211958   0.604   1.185   0.356  1.4911 -1.3121 -0.1443
 3048SOL    HW311959   0.704   1.236   0.457  0.0397 -0.7918  1.0571
 3048SOL    MW411960   0.622   1.216   0.435 -0.0375  0.2848 -0.5082
 3049SOL     OW11961   1.115   4.916   2.706 -0.7103 -0.3914  0.1976
 3049SOL    HW211962   1.081   4.975   2.773  0.2683  0.0982  0.2873
 3049SOL    HW311963   1.078   4.831   2.728 -2.1456  0.1703  0.0713
 3049SOL    MW411964   1.106   4.913   2.718  0.1665 -0.4429 -0.3046
 3050SOL     OW11965   2.496   5.214   0.402 -0.1985  0.2103 -0.0201
 3050SOL    HW211966   2.413   5.167   0.399 -0.6009  0.9412 -0.5880
 3050SOL    HW311967   2.560   5.147   0.425 -1.0215 -0.2514  1.0474
 3050SOL    MW411968   2.493   5.199   0.405 -0.8066 -0.0821 -0.7053
 3051SOL     OW11969   4.536   2.918   1.358 -0.8778  0.1803  0.2977
 3051SOL    HW211970   4.492   2.929   1.274 -0.4480 -0.3315 -0.0040
 3051SOL    HW311971   4.465   2.906   1.422 -1.1841 -0.3566 -0.1349
 3051SOL    MW411972   4.521   2.918   1.356 -0.3592 -0.1831  0.5040
 3052SOL     OW11973   4.043   4.083   5.484  0.6887  0.1508  0.1280
 3052SOL    HW211974   4.054   4.046   5.397  1.9006 -1.2126  0.8182
 3052SOL    HW311975   4.112   4.149   5.491 -0.8770  1.9827 -0.7519
 3052SOL    MW411976   4.053   4.086   5.474 -0.2782  0.6906  0.4980
 3053SOL     OW11977   4.332   3.640   0.931 -0.2071  0.8787  0.1687
 3053SOL    HW211978   4.310   3.665   0.841  0.7028 -1.3499 -0.7429
 3053SOL    HW311979   4.401   3.575   0.921 -0.7875 -0.1698  2.4500
 3053SOL    MW411980   4.338   3.635   0.917  0.3739  0.0125  0.3995
 3054SOL     OW11981   1.679   5.787   4.917 -0.0800 -0.7255 -0.1915
 3054SOL    HW211982   1.641   5.728   4.851  1.3963  0.1462 -1.9236
 3054SOL    HW311983   1.746   5.835   4.869  0.2122  0.8497  1.6931
 3054SOL    MW411984   1.683   5.786   4.902 -0.3165 -0.5635  0.2338
 3055SOL     OW11985   5.575   1.123   0.892 -0.0821  0.0972  0.2533
 3055SOL    HW211986   5.657   1.097   0.850 -0.7266 -2.8933  0.6498
 3055SOL    HW311987   5.563   1.060   0.963 -1.9560  1.4532  1.2208
 3055SOL    MW411988   5.584   1.111   0.896  0.4458 -0.2640  0.2482
 3056SOL     OW11989   3.373   2.200   1.097  0.1830 -0.9802  0.4794
 3056SOL    HW211990   3.438   2.202   1.027  0.1691 -0.7646  0.4735
 3056SOL    HW311991   3.292   2.230   1.055  0.4102  0.1687  0.8389
 3056SOL    MW411992   3.371   2.204   1.082 -0.2657  0.4593 -0.5326
 3057SOL     OW11993   5.777   3.515   4.070  0.3028  0.3860  0.2316
 3057SOL    HW211994   5.738   3.518   3.983  2.3205 -1.2247 -0.8211
 3057SOL    HW311995   5.747   3.433   4.108 -0.8429  1.2420  1.2389
 3057SOL    MW411996   5.768   3.505   4.063  0.2842 -0.2805 -0.4979
 3058SOL     OW11997   3.560   6.306   0.091  0.4175 -0.2611 -0.0218
 3058SOL    HW211998   3.515   6.221   0.101 -1.4386  0.8067  1.4140
 3058SOL    HW311999   3.583   6.331   0.180  1.1591  0.6467 -0.4557
 3058SOL    MW412000   3.557   6.298   0.104 -0.3712 -0.2959  0.7660
 3059SOL     OW12001   1.350   0.262   2.861  0.1628 -0.1020 -0.2912
 3059SOL    HW212002   1.282   0.205   2.896  0.0877 -0.7107 -1.3783
 3059SOL    HW312003   1.357   0.237   2.769 -0.1971  1.9659 -0.9301
 3059SOL    MW412004   1.342   0.251   2.854  0.0792  0.0903  0.0038
 3060SOL     OW12005   5.506   3.456   4.606  0.0305 -0.1779  0.4550
 3060SOL    HW212006   5.510   3.455   4.511 -1.0293  0.5590  0.3884
 3060SOL    HW312007   5.471   3.370   4.629 -0.3580 -0.1055  0.1392
 3060SOL    MW412008   5.502   3.444   4.597 -0.0490 -0.0258  0.0958
 3061SOL     OW12009   3.002   3.901   2.961  0.2682  0.3469  0.3782
 3061SOL    HW212010   3.007   3.929   2.869 -0.2628 -2.2080 -0.5284
 3061SOL    HW312011   2.935   3.957   2.999  0.7360  1.6982 -0.6703
 3061SOL    MW412012   2.994   3.912   2.954  0.5891 -0.0630 -0.5939
 3062SOL     OW12013   1.394   1.300   1.713  0.2434  0.2815  0.2110
 3062SOL    HW212014   1.460   1.347   1.763  0.9731  0.2246 -0.6693
 3062SOL    HW312015   1.387   1.348   1.631  0.0857 -0.4234 -0.1946
 3062SOL    MW412016   1.402   1.312   1.709  0.5247  0.2558 -0.1629
 3063SOL     OW12017   3.078   4.703   1.590  0.3022  0.0119 -0.1004
 3063SOL    HW212018   2.993   4.689   1.548 -0.1336  1.1772  0.3519
 3063SOL    HW312019   3.120   4.617   1.587 -1.2430 -0.8154  0.4606
 3063SOL    MW412020   3.072   4.690   1.584  0.0383 -0.0210 -0.0745
 3064SOL     OW12021   1.191   6.151   3.128  0.0288  1.5342 -0.0153
 3064SOL    HW212022   1.262   6.153   3.192  0.3716  1.7797 -0.3974
 3064SOL    HW312023   1.116   6.187   3.175 -0.4954 -0.8210  1.1453
 3064SOL    MW412024   1.191   6.156   3.143  0.0243  0.6267  0.3073
 3065SOL     OW12025   1.079   3.022   2.261  0.5559  0.1771 -0.8708
 3065SOL    HW212026   1.145   3.048   2.326  0.8845  0.8329 -1.4484
 3065SOL    HW312027   1.018   2.966   2.309  1.5407 -0.4578 -0.3219
 3065SOL    MW412028   1.080   3.018   2.276  0.2208  0.5410  0.3522
 3066SOL     OW12029   1.593   2.347   2.428  0.3295  0.0485  0.1316
 3066SOL    HW212030   1.673   2.343   2.375 -0.6513 -0.6795 -1.3442
 3066SOL    HW312031   1.602   2.274   2.489  1.2863  0.6544  0.7558
 3066SOL    MW412032   1.605   2.337   2.429 -0.1888  0.1195 -0.0611
 3067SOL     OW12033   3.100   0.370   0.627 -0.0853 -0.3744 -0.2729
 3067SOL    HW212034   3.021   0.315   0.624 -0.4915  0.2252 -1.1561
 3067SOL    HW312035   3.074   0.450   0.581  0.9045  0.0185 -0.1581
 3067SOL    MW412036   3.086   0.374   0.621 -0.2676 -0.3593  0.1691
 3068SOL     OW12037   3.720   6.136   4.705 -0.3123 -0.1202  0.1837
 3068SOL    HW212038   3.748   6.166   4.791 -1.4371  0.0625  0.5042
 3068SOL    HW312039   3.640   6.086   4.721 -1.0692  0.7054 -0.8339
 3068SOL    MW412040   3.713   6.134   4.718 -0.4767 -0.6388 -0.1030
 3069SOL     OW12041   4.062   2.254   3.630 -0.4084  0.7671  0.4945
 3069SOL    HW212042   4.019   2.336   3.603  0.3755  1.0554  0.0992
 3069SOL    HW312043   4.013   2.227   3.708 -0.6456  1.6439  0.6710
 3069SOL    MW412044   4.050   2.261   3.637 -0.1868 -0.0527 -0.0075
 3070SOL     OW12045   2.678   5.752   1.500  0.5696 -0.4650 -0.1789
 3070SOL    HW212046   2.687   5.786   1.589 -1.6331 -0.6438  0.1612
 3070SOL    HW312047   2.685   5.657   1.510  0.4925 -0.4746 -0.2197
 3070SOL    MW412048   2.680   5.744   1.513 -0.2192  0.0445  0.5346
 3071SOL     OW12049   5.791   4.590   1.299  0.3278 -0.3265 -0.1281
 3071SOL    HW212050   5.877   4.562   1.331 -0.1162 -2.4407 -0.5789
 3071SOL    HW312051   5.749   4.508   1.271 -2.2624  0.4922  1.0700
 3071SOL    MW412052   5.797   4.575   1.299 -0.1975  0.0864 -0.0570
 3072SOL     OW12053   1.634   1.979   0.324  0.2715  0.0297  0.0542
 3072SOL    HW212054   1.661   2.055   0.376  2.4037 -0.8132  0.3083
 3072SOL    HW312055   1.680   1.905   0.365 -2.5517 -1.6199  0.4773
 3072SOL    MW412056   1.644   1.979   0.336  0.5653  0.3337 -0.6175
 3073SOL     OW12057   1.484   1.785   4.520  0.5363  0.2364 -0.0639
 3073SOL    HW212058   1.531   1.708   4.487 -1.2257 -1.2313  0.7060
 3073SOL    HW312059   1.541   1.859   4.498  1.8680 -1.1834 -1.6389
 3073SOL    MW412060   1.498   1.784   4.513 -0.5340  0.3047  0.3772
 3074SOL     OW12061   2.687   3.710   4.701  0.2319 -0.6514 -0.1230
 3074SOL    HW212062   2.670   3.658   4.622  0.9711 -0.2288 -0.5778
 3074SOL    HW312063   2.767   3.673   4.737  1.1711  0.5962 -0.8522
 3074SOL    MW412064   2.695   3.699   4.695  0.4158 -0.0849 -0.1527
 3075SOL     OW12065   5.937   4.179   4.640  0.0022  0.4454 -0.2384
 3075SOL    HW212066   5.962   4.100   4.687 -0.1796 -0.9756 -2.4217
 3075SOL    HW312067   5.895   4.234   4.707 -0.4005 -1.5311  1.2156
 3075SOL    MW412068   5.935   4.176   4.655 -0.3532  0.2640 -0.2095
 3076SOL     OW12069   1.613   1.338   3.241 -0.0165 -0.6486  0.2181
 3076SOL    HW212070   1.617   1.337   3.337  0.0717 -4.7318  0.3851
 3076SOL    HW312071   1.520   1.327   3.220 -0.1578  1.1586 -0.2774
 3076SOL    MW412072   1.601   1.336   3.251  0.2758  0.2959 -0.0695
 3077SOL     OW12073   6.416   3.240   5.541  0.1763 -0.0926 -0.3980
 3077SOL    HW212074   6.505   3.244   5.575 -0.2014 -1.0429  0.8046
 3077SOL    HW312075   6.362   3.277   5.611 -0.4032  0.3382 -1.0507
 3077SOL    MW412076   6.420   3.245   5.555 -0.0639 -0.1485  0.5505
 3078SOL     OW12077   5.145   1.475   0.055 -0.0891 -0.0640  0.7366
 3078SOL    HW212078   5.120   1.467  -0.037 -0.7897  0.6186  0.8581
 3078SOL    HW312079   5.238   1.495   0.053  0.0495 -0.7333  0.2029
 3078SOL    MW412080   5.154   1.477   0.043  0.2187 -0.1694  0.7622
 3079SOL     OW12081   4.330   4.972   1.055 -0.3707  0.4630 -0.3358
 3079SOL    HW212082   4.270   4.916   1.006  0.3006 -0.8206  0.2699
 3079SOL    HW312083   4.279   5.001   1.131 -0.0761 -1.1564  0.5275
 3079SOL    MW412084   4.316   4.969   1.059 -0.1551  0.0977  0.0594
 3080SOL     OW12085   0.456   0.622   0.380  0.2682 -0.4121 -0.4021
 3080SOL    HW212086   0.401   0.562   0.430  0.2110  0.8923  1.1904
 3080SOL    HW312087   0.477   0.575   0.299 -1.2273 -1.8443  0.0087
 3080SOL    MW412088   0.452   0.608   0.376 -0.3277 -0.4982 -0.2343
 3081SOL     OW12089   3.753   1.025   6.092  0.1675  0.0839  0.3878
 3081SOL    HW212090   3.808   0.963   6.139  0.3730 -0.4365 -0.5158
 3081SOL    HW312091   3.669   0.979   6.083 -0.4926  0.9237  1.8772
 3081SOL    MW412092   3.749   1.011   6.097  0.3731 -0.1294 -0.1114
 3082SOL     OW12093   4.355   2.853   1.547  0.8874  0.1909 -0.3930
 3082SOL    HW212094   4.268   2.814   1.540  1.2844 -0.5407 -1.6021
 3082SOL    HW312095   4.375   2.853   1.640  0.2675 -1.1376 -0.2507
 3082SOL    MW412096   4.346   2.848   1.558  0.4804  0.4724  0.3603
 3083SOL     OW12097   6.264   5.432   4.374 -0.2783  0.8165  0.0458
 3083SOL    HW212098   6.169   5.438   4.368 -0.2554  0.5152 -0.6368
 3083SOL    HW312099   6.292   5.402   4.288  0.2987 -0.8480  0.7772
 3083SOL    MW412100   6.255   5.429   4.362 -0.3592 -0.2016 -0.2126
 3084SOL     OW12101   1.991   5.957   1.215  0.9338  0.0456  0.0834
 3084SOL    HW212102   2.022   5.867   1.224  0.5462  0.0311  1.5392
 3084SOL    HW312103   1.907   5.958   1.261  0.6607  1.0148 -0.4244
 3084SOL    MW412104   1.984   5.945   1.222  0.5964 -0.3490  0.0165
 3085SOL     OW12105   1.575   0.371   4.263  0.0126  0.2885  0.4519
 3085SOL    HW212106   1.637   0.411   4.323 -0.9200  2.6112 -0.0258
 3085SOL    HW312107   1.513   0.441   4.242 -0.0254 -0.5535 -2.7733
 3085SOL    MW412108   1.575   0.385   4.268  0.0795 -0.6014  0.3233
 3086SOL     OW12109   2.147   3.115   3.505 -0.2320  0.5608 -0.5909
 3086SOL    HW212110   2.175   3.027   3.530 -0.0493  1.4162  2.7660
 3086SOL    HW312111   2.060   3.124   3.546  0.4468  2.4296  0.5653
 3086SOL    MW412112   2.139   3.105   3.514  0.4434 -0.4053 -0.4571
 3087SOL     OW12113   6.131   6.213   1.663  0.5366 -0.4093 -0.2370
 3087SOL    HW212114   6.058   6.159   1.630  1.6858 -1.7568 -0.6651
 3087SOL    HW312115   6.176   6.155   1.725  0.5701  0.8246  0.9424
 3087SOL    MW412116   6.127   6.198   1.667 -0.4640 -0.2153  0.0932
 3088SOL     OW12117   5.768   2.005   2.934 -0.0828  0.5086 -0.7735
 3088SOL    HW212118   5.787   2.086   2.981  2.3223  0.5117 -1.6484
 3088SOL    HW312119   5.824   2.007   2.857 -0.2136 -1.8103 -1.0128
 3088SOL    MW412120   5.778   2.016   2.930  0.0149 -0.3347  0.2153
 3089SOL     OW12121   3.669   3.963   1.475  0.7667 -0.3968  0.3797
 3089SOL    HW212122   3.680   3.985   1.567  1.6283  0.6295  0.0436
 3089SOL    HW312123   3.750   3.991   1.433 -0.0579  0.2141 -0.8865
 3089SOL    MW412124   3.681   3.969   1.482 -0.3966  0.0746 -0.2305
 3090SOL     OW12125   4.755   4.288   6.047  0.7416 -0.5162  0.0834
 3090SOL    HW212126   4.743   4.340   5.968  0.1409  0.2448  0.6632
 3090SOL    HW312127   4.773   4.199   6.015  1.0164 -0.1187 -0.9042
 3090SOL    MW412128   4.756   4.283   6.033  0.2837  0.5288  1.2207
 3091SOL     OW12129   3.636   2.391   1.917  0.3549  0.1403  0.2325
 3091SOL    HW212130   3.652   2.372   2.009  0.0580 -1.1698  0.0330
 3091SOL    HW312131   3.649   2.486   1.909  0.9291  0.1825  1.4971
 3091SOL    MW412132   3.640   2.401   1.928 -0.3059 -0.2190  0.1637
 3092SOL     OW12133   2.824   1.016   2.331 -0.1238 -0.0301  0.1117
 3092SOL    HW212134   2.768   1.015   2.253  1.3091 -1.0281 -0.9602
 3092SOL    HW312135   2.820   0.927   2.365  1.8504 -0.5209 -0.8101
 3092SOL    MW412136   2.816   1.004   2.325  0.1952  0.4197 -0.1725
 3093SOL     OW12137   5.304   2.641   4.375 -0.1313 -0.8221  0.4315
 3093SOL    HW212138   5.216   2.619   4.407 -0.5205  0.3164  0.1638
 3093SOL    HW312139   5.350   2.674   4.452 -1.5672  3.4715 -0.3116
 3093SOL    MW412140   5.298   2.642   4.389 -0.9510  0.7040 -0.2081
 3094SOL     OW12141   4.396   4.692   0.567 -0.0085 -0.0508 -0.0243
 3094SOL    HW212142   4.361   4.671   0.653 -1.6344 -1.5417 -0.9744
 3094SOL    HW312143   4.322   4.728   0.518  1.1882  1.9825 -0.4568
 3094SOL    MW412144   4.382   4.694   0.572  0.1939  0.3099 -0.1561
 3095SOL     OW12145   0.171   1.986   4.167 -0.4909  0.1566  0.3079
 3095SOL    HW212146   0.218   1.906   4.191 -1.2369 -0.9830 -1.7780
 3095SOL    HW312147   0.203   2.007   4.080 -0.4014  2.1221  0.7690
 3095SOL    MW412148   0.181   1.978   4.159 -0.0278 -0.7301 -0.1569
 3096SOL     OW12149   4.812   2.690   4.319  0.0530 -0.5651  0.0650
 3096SOL    HW212150   4.860   2.719   4.241  0.9717 -2.1637 -0.0248
 3096SOL    HW312151   4.821   2.761   4.381 -2.0062  1.4439 -1.7632
 3096SOL    MW412152   4.820   2.703   4.317  0.1760 -0.0432  0.3768
 3097SOL     OW12153   2.262   2.004   4.826 -0.1742  0.5978 -0.4280
 3097SOL    HW212154   2.249   2.049   4.909 -2.5814  1.8953 -1.4257
 3097SOL    HW312155   2.308   2.068   4.772  1.6982 -0.3659 -0.0656
 3097SOL    MW412156   2.267   2.019   4.830 -0.0529 -0.2826 -0.2737
 3098SOL     OW12157   3.871   6.033   3.881 -0.4226 -0.0842 -0.5363
 3098SOL    HW212158   3.899   5.959   3.828 -0.0876  0.3660 -1.0018
 3098SOL    HW312159   3.798   5.999   3.933 -2.6857  0.1617 -3.2972
 3098SOL    MW412160   3.865   6.019   3.881  0.1084  0.5035 -0.6473
 3099SOL     OW12161   5.858   1.439   3.199 -0.1208  0.5097 -0.2987
 3099SOL    HW212162   5.905   1.401   3.273 -0.7845  0.3896  0.0586
 3099SOL    HW312163   5.811   1.514   3.235 -1.0192  0.0297 -0.4399
 3099SOL    MW412164   5.858   1.444   3.213  0.5637 -0.0088  0.6262
 3100SOL     OW12165   4.517   4.740   5.561  0.0225 -0.3122  0.4372
 3100SOL    HW212166   4.545   4.808   5.621  1.9879 -1.2415  0.6489
 3100SOL    HW312167   4.433   4.710   5.596  0.1128  0.6094  1.4885
 3100SOL    MW412168   4.510   4.745   5.573 -0.0002  0.8510 -0.0294
 3101SOL     OW12169   6.306   6.053   2.478 -0.2682  0.4422  0.8715
 3101SOL    HW212170   6.356   6.003   2.413  0.0162  1.5053  0.2439
 3101SOL    HW312171   6.345   6.029   2.562 -0.7218 -1.0550  0.6915
 3101SOL    MW412172   6.318   6.043   2.481 -0.1778  0.2419  0.0418
 3102SOL     OW12173   1.644   0.340   6.238  0.4542 -0.5365 -0.1149
 3102SOL    HW212174   1.717   0.287   6.270  1.1581  0.1735 -0.4943
 3102SOL    HW312175   1.645   0.417   6.295  0.3056 -0.2979 -0.4353
 3102SOL    MW412176   1.654   0.343   6.250  0.2481  0.0583  0.3786
 3103SOL     OW12177   0.652   4.548   4.364  0.6285 -0.2174  0.0513
 3103SOL    HW212178   0.619   4.627   4.407  0.0362 -1.3582  1.8051
 3103SOL    HW312179   0.676   4.577   4.276  0.0835  1.8258  0.5181
 3103SOL    MW412180   0.651   4.562   4.358  0.5800 -0.2645 -0.5407
 3104SOL     OW12181   0.918   0.455   2.710  0.2956 -1.0089  0.2354
 3104SOL    HW212182   0.931   0.549   2.726 -0.5413 -1.0140  1.0488
 3104SOL    HW312183   0.999   0.426   2.669  0.2556  0.2324 -0.7942
 3104SOL    MW412184   0.930   0.464   2.707  0.4000 -0.2160 -0.4712
 3105SOL     OW12185   6.319   6.018   0.484 -0.0970 -0.0137 -0.1997
 3105SOL    HW212186   6.227   6.001   0.507 -0.3824  2.4016  0.6546
 3105SOL    HW312187   6.362   6.035   0.568  0.6770  0.8539 -0.7529
 3105SOL    MW412188   6.312   6.018   0.498 -1.0429 -0.4774  0.2413
 3106SOL     OW12189   3.726   5.634   0.549  0.5280 -0.2067 -0.3823
 3106SOL    HW212190   3.822   5.640   0.545  0.5471 -1.0617 -2.1578
 3106SOL    HW312191   3.696   5.693   0.480 -0.2669  0.5531  0.5951
 3106SOL    MW412192   3.735   5.642   0.539 -0.6371  0.0888 -0.6302
 3107SOL     OW12193   3.574   5.270   3.697 -0.0423  0.1597  0.0183
 3107SOL    HW212194   3.595   5.363   3.688 -0.4431  0.3690  1.1195
 3107SOL    HW312195   3.606   5.247   3.785 -0.5029 -0.5874 -0.0051
 3107SOL    MW412196   3.581   5.279   3.707  0.6875 -0.2226  0.0145
 3108SOL     OW12197   4.149   2.731   5.859  0.2981  0.2058  0.0267
 3108SOL    HW212198   4.066   2.777   5.873  1.1903  1.5517  1.0813
 3108SOL    HW312199   4.186   2.772   5.780  0.6426  0.6393  0.4101
 3108SOL    MW412200   4.143   2.742   5.850 -0.2632 -0.5800 -0.0094
 3109SOL     OW12201   4.345   4.177   5.452 -0.0543 -0.3287 -0.2880
 3109SOL    HW212202   4.377   4.091   5.425  3.7139  0.6548  0.4688
 3109SOL    HW312203   4.373   4.236   5.382 -1.5466  0.5106 -0.2249
 3109SOL    MW412204   4.353   4.173   5.439  0.5375 -0.2686 -0.2310
 3110SOL     OW12205   4.857   4.734   1.944  0.0691 -0.2065 -0.1169
 3110SOL    HW212206   4.892   4.653   1.981  0.0900 -0.5040 -0.7752
 3110SOL    HW312207   4.839   4.789   2.020  1.8562 -0.0892  0.2503
 3110SOL    MW412208   4.859   4.730   1.959  0.0203 -0.0940 -0.0188
 3111SOL     OW12209   5.810   5.272   5.249 -0.6601 -0.3443  0.7019
 3111SOL    HW212210   5.763   5.279   5.166 -0.4040  0.0640  0.5898
 3111SOL    HW312211   5.744   5.296   5.315 -0.2086  1.9156  0.4341
 3111SOL    MW412212   5.795   5.276   5.247 -0.0917  0.0238 -0.0752
 3112SOL     OW12213   1.104   1.603   5.503 -0.1375 -0.2853 -0.1628
 3112SOL    HW212214   1.008   1.610   5.505 -0.2297 -1.2143 -0.7935
 3112SOL    HW312215   1.124   1.528   5.560  0.2434  0.0932  0.2090
 3112SOL    MW412216   1.094   1.594   5.511  0.4587 -0.1411 -0.2672
 3113SOL     OW12217   6.400   5.779   0.395 -0.0451 -0.1563 -0.0901
 3113SOL    HW212218   6.401   5.871   0.422 -0.3451 -0.2185  0.1458
 3113SOL    HW312219   6.394   5.731   0.478 -0.0882 -0.3804 -0.2249
 3113SOL    MW412220   6.399   5.785   0.410 -0.1886  0.2010  0.1910
 3114SOL     OW12221   6.045   2.517   2.613 -0.0292 -0.3381 -0.4013
 3114SOL    HW212222   6.103   2.477   2.548  0.5341  1.0369 -0.7788
 3114SOL    HW312223   5.974   2.555   2.561 -0.2905 -0.4008 -0.0949
 3114SOL    MW412224   6.043   2.517   2.598  0.8626 -0.2803  0.0260
 3115SOL     OW12225   6.028   5.524   1.794  0.1916 -0.3263  0.6103
 3115SOL    HW212226   6.028   5.455   1.860  1.1014  1.7947  3.0342
 3115SOL    HW312227   6.096   5.499   1.733 -0.2144 -2.0537  0.8021
 3115SOL    MW412228   6.037   5.512   1.795  0.0411  0.4522  0.4279
 3116SOL     OW12229   1.012   4.982   5.806  0.2584 -0.0462  0.0851
 3116SOL    HW212230   0.954   5.010   5.877 -0.2124 -0.1021 -0.2681
 3116SOL    HW312231   0.975   4.899   5.776 -0.2185  0.5290 -0.9679
 3116SOL    MW412232   0.999   4.975   5.811  0.2691  0.7330  0.3153
 3117SOL     OW12233   5.651   5.137   4.380  0.2973  0.3508 -0.4723
 3117SOL    HW212234   5.619   5.225   4.360 -0.6880 -0.1672 -1.2909
 3117SOL    HW312235   5.728   5.151   4.434  0.3908  1.7309 -0.9229
 3117SOL    MW412236   5.657   5.150   4.384 -0.1476 -0.2535  0.6097
 3118SOL     OW12237   3.782   6.167   1.377  0.8462  0.4477 -0.0539
 3118SOL    HW212238   3.818   6.138   1.461 -3.0350 -1.4689  1.1842
 3118SOL    HW312239   3.717   6.234   1.401 -0.1534  0.0507 -1.5279
 3118SOL    MW412240   3.778   6.172   1.392  0.0785  0.3982  0.1022
 3119SOL     OW12241   3.402   1.124   4.900 -0.7459 -0.6014 -0.2510
 3119SOL    HW212242   3.463   1.186   4.939  0.6890  0.0256 -3.2102
 3119SOL    HW312243   3.427   1.039   4.938 -0.5841  0.1282  1.3777
 3119SOL    MW412244   3.413   1.121   4.911  0.5125 -0.3798  0.4135
 3120SOL     OW12245   1.376   3.437   3.726 -0.0712 -0.6153 -0.1453
 3120SOL    HW212246   1.338   3.412   3.641  1.8907  0.4061 -1.4124
 3120SOL    HW312247   1.402   3.528   3.714  3.1809 -1.3376  0.3528
 3120SOL    MW412248   1.375   3.445   3.713  0.4676  0.3845 -0.1112
 3121SOL     OW12249   1.058   3.945   0.606  0.0455 -0.0326 -0.5396
 3121SOL    HW212250   0.970   3.922   0.637 -0.6926  1.0305 -1.7638
 3121SOL    HW312251   1.080   3.875   0.544 -1.1985  1.1584 -2.4377
 3121SOL    MW412252   1.049   3.933   0.602  0.1455 -0.1415  0.4781
 3122SOL     OW12253   5.694   1.318   3.521  0.1776 -0.1464 -0.1627
 3122SOL    HW212254   5.610   1.342   3.482 -0.0069  0.8245  0.7792
 3122SOL    HW312255   5.690   1.354   3.610  1.9289  0.6447 -0.3737
 3122SOL    MW412256   5.683   1.326   3.528 -0.0640 -0.1063  0.2390
 3123SOL     OW12257   2.603   3.530   2.369  0.5087  0.6158  0.1660
 3123SOL    HW212258   2.520   3.491   2.342  1.9976 -4.0214  1.4061
 3123SOL    HW312259   2.657   3.528   2.290  0.2238  1.3932 -0.0589
 3123SOL    MW412260   2.599   3.525   2.355 -0.0439  0.7282  0.0181
 3124SOL     OW12261   5.494   4.349   2.726  0.1296 -0.0045  0.8642
 3124SOL    HW212262   5.462   4.412   2.661 -1.1989 -0.7638  0.7330
 3124SOL    HW312263   5.568   4.392   2.768  0.5578  0.8022 -0.6530
 3124SOL    MW412264   5.500   4.363   2.723  0.3889  0.5153  0.2601
 3125SOL     OW12265   5.383   5.977   5.692 -0.2126 -0.1472 -0.3006
 3125SOL    HW212266   5.441   5.903   5.711 -0.3847 -0.2937 -0.3471
 3125SOL    HW312267   5.438   6.037   5.641 -0.2111 -0.4671 -0.6868
 3125SOL    MW412268   5.398   5.975   5.688  0.7235 -0.6395  0.2483
 3126SOL     OW12269   0.540   4.281   2.257 -0.0764 -0.2651 -0.0177
 3126SOL    HW212270   0.580   4.195   2.246  0.6787 -0.2010  1.9893
 3126SOL    HW312271   0.613   4.340   2.274 -0.7581  0.4357  0.5387
 3126SOL    MW412272   0.555   4.278   2.258 -0.1789 -0.1145 -0.1059
 3127SOL     OW12273   2.588   1.960   0.129 -0.3260  0.2418 -0.0796
 3127SOL    HW212274   2.532   1.894   0.088 -0.7883  1.6983 -1.9222
 3127SOL    HW312275   2.675   1.944   0.092 -0.8664  1.9629 -2.3329
 3127SOL    MW412276   2.592   1.949   0.119 -0.3321 -0.3065 -0.2220
 3128SOL     OW12277   2.076   2.801   0.572 -0.5030 -0.2347  0.2342
 3128SOL    HW212278   2.079   2.756   0.488 -0.4026 -0.2555  0.2491
 3128SOL    HW312279   2.159   2.779   0.614 -0.8583 -0.8035  0.6404
 3128SOL    MW412280   2.087   2.792   0.566  0.0914 -0.1355 -0.2510
 3129SOL     OW12281   4.898   0.673   1.846  0.1454 -0.1557 -0.9490
 3129SOL    HW212282   4.906   0.758   1.890  2.5484  0.2377 -1.9812
 3129SOL    HW312283   4.813   0.639   1.874 -0.4428  2.1369  0.2734
 3129SOL    MW412284   4.888   0.680   1.855  0.0256  0.4718 -0.4088
 3130SOL     OW12285   1.161   1.766   2.468  0.1224  0.1097 -0.2310
 3130SOL    HW212286   1.138   1.814   2.547 -1.4159  1.2002 -1.2903
 3130SOL    HW312287   1.085   1.710   2.451  0.3952 -0.0478 -0.9825
 3130SOL    MW412288   1.148   1.765   2.476 -0.0014 -0.1133 -0.1596
 3131SOL     OW12289   4.478   0.010   5.568 -0.4304 -0.4488 -0.2276
 3131SOL    HW212290   4.547  -0.003   5.634  1.3394  0.8726 -1.7195
 3131SOL    HW312291   4.503   0.091   5.523 -1.7808 -1.0954 -2.2717
 3131SOL    MW412292   4.490   0.019   5.571  0.2088 -0.4382  0.1986
 3132SOL     OW12293   1.505   0.500   2.952 -0.2269 -0.4897  0.0252
 3132SOL    HW212294   1.469   0.419   2.915  0.2800 -0.4427 -0.6000
 3132SOL    HW312295   1.591   0.510   2.909  0.1784 -0.1794  0.8869
 3132SOL    MW412296   1.512   0.491   2.941  0.0143 -0.0913 -0.4965
 3133SOL     OW12297   5.126   4.220   2.769  0.2789  0.2855  0.2481
 3133SOL    HW212298   5.111   4.244   2.861 -0.6608 -0.8833  0.4220
 3133SOL    HW312299   5.040   4.195   2.736  0.5447  1.0500 -1.0785
 3133SOL    MW412300   5.113   4.220   2.777 -0.6130  0.2520 -0.6837
 3134SOL     OW12301   5.520   0.813   0.645  0.2518 -0.2916  0.8647
 3134SOL    HW212302   5.450   0.757   0.678 -0.3805  0.7147  1.2766
 3134SOL    HW312303   5.496   0.901   0.673  0.6389  0.3571 -0.7411
 3134SOL    MW412304   5.508   0.817   0.653 -0.3084 -0.6181  0.7927
 3135SOL     OW12305   5.694   5.466   0.414 -0.1524 -0.1793  0.1980
 3135SOL    HW212306   5.649   5.487   0.496  0.7648 -0.1503  0.7048
 3135SOL    HW312307   5.753   5.540   0.399 -0.9563  0.2459 -0.9746
 3135SOL    MW412308   5.696   5.478   0.423  0.1725 -0.2789 -0.0395
 3136SOL     OW12309   6.283   3.918   5.320 -0.7567  0.0892 -0.5294
 3136SOL    HW212310   6.369   3.878   5.311  1.5452  3.9671  1.3858
 3136SOL    HW312311   6.243   3.874   5.395 -0.3611 -1.5283 -1.2251
 3136SOL    MW412312   6.289   3.907   5.328  0.8020  0.5528  0.0769
 3137SOL     OW12313   4.740   1.104   5.704  0.0146 -0.5025  0.1776
 3137SOL    HW212314   4.727   1.011   5.724 -0.5283 -1.2415 -3.1165
 3137SOL    HW312315   4.825   1.107   5.660  1.7015  1.2033  3.1816
 3137SOL    MW412316   4.749   1.092   5.701 -0.3656  0.3607  0.1938
 3138SOL     OW12317   2.215   0.429   0.575  0.0556  0.0774  0.2603
 3138SOL    HW212318   2.301   0.391   0.558  0.1945  0.0172  1.0625
 3138SOL    HW312319   2.234   0.510   0.621 -0.3339 -0.2891  1.0836
 3138SOL    MW412320   2.229   0.435   0.579  0.2504 -0.0444 -0.6232
 3139SOL     OW12321   5.766   4.387   5.650  0.5631 -0.2514 -0.3027
 3139SOL    HW212322   5.717   4.469   5.658  1.3356  0.2736 -0.8142
 3139SOL    HW312323   5.726   4.343   5.575 -1.0263 -1.2004  1.0247
 3139SOL    MW412324   5.754   4.392   5.641 -0.5783  0.0465 -0.4149
 3140SOL     OW12325   1.976   2.346   1.326 -0.0105  0.6282 -0.2021
 3140SOL    HW212326   2.029   2.326   1.249 -0.6530  0.3838 -0.5871
 3140SOL    HW312327   1.932   2.428   1.304  0.0445  0.7204  0.0302
 3140SOL    MW412328   1.977   2.354   1.313  1.0046  0.0610 -0.4032
 3141SOL     OW12329   2.459   3.179   5.333 -0.1309 -0.3698  0.1429
 3141SOL    HW212330   2.479   3.171   5.240 -0.7660 -0.5018  0.0107
 3141SOL    HW312331   2.426   3.093   5.358 -0.8480 -0.0727  0.2565
 3141SOL    MW412332   2.457   3.167   5.324  0.1263  0.4561  0.0144
 3142SOL     OW12333   4.736   5.693   5.618  0.0269  0.5066 -0.0995
 3142SOL    HW212334   4.762   5.631   5.549 -0.5070 -1.1473  1.1112
 3142SOL    HW312335   4.818   5.730   5.649  0.2308  1.9446 -2.1564
 3142SOL    MW412336   4.750   5.689   5.613  0.1610 -0.1749 -0.4728
 3143SOL     OW12337   5.965   4.793   4.195 -0.1211  0.0409  0.0712
 3143SOL    HW212338   5.956   4.698   4.189 -0.9378  0.2097 -3.2305
 3143SOL    HW312339   6.045   4.813   4.146 -0.4457  1.1116 -0.0591
 3143SOL    MW412340   5.975   4.783   4.188 -0.4626  0.3960  0.3831
 3144SOL     OW12341   0.547   3.863   4.380 -0.1580 -0.2893 -0.7914
 3144SOL    HW212342   0.579   3.774   4.393 -0.6340 -0.1603  1.5523
 3144SOL    HW312343   0.574   3.911   4.458  2.4623  2.4110 -3.0834
 3144SOL    MW412344   0.555   3.858   4.392 -0.2195 -0.0176  0.0551
 3145SOL     OW12345   4.849   0.949   6.084 -0.3576 -0.5348 -0.1624
 3145SOL    HW212346   4.848   1.032   6.038  1.2339  0.0531  0.7961
 3145SOL    HW312347   4.904   0.892   6.030 -1.1120 -0.8474 -0.6090
 3145SOL    MW412348   4.856   0.952   6.071 -0.2936  0.5755 -0.2941
 3146SOL     OW12349   4.468   0.817   5.934 -0.2358 -0.1568  0.0097
 3146SOL    HW212350   4.414   0.738   5.936  0.1619 -0.4050  1.4820
 3146SOL    HW312351   4.462   0.854   6.022  1.1577  0.3825 -0.0943
 3146SOL    MW412352   4.460   0.812   5.946 -0.3796 -0.1179 -0.5154
 3147SOL     OW12353   4.716   5.447   0.625 -0.6266 -0.0019 -0.2840
 3147SOL    HW212354   4.749   5.489   0.545 -0.4690  1.5378  0.5408
 3147SOL    HW312355   4.645   5.390   0.595 -0.2901  0.2116 -1.5588
 3147SOL    MW412356   4.711   5.445   0.611  0.3201 -0.3963  1.1196
 3148SOL     OW12357   5.360   5.847   1.316 -0.1979 -0.0927 -0.6543
 3148SOL    HW212358   5.321   5.916   1.262 -1.2474 -0.2562 -0.1193
 3148SOL    HW312359   5.445   5.883   1.342  0.4825 -0.1330 -2.6523
 3148SOL    MW412360   5.366   5.861   1.312  1.2873  0.3271 -0.3054
 3149SOL     OW12361   2.584   4.138   0.251 -0.1657 -0.7820  0.3865
 3149SOL    HW212362   2.638   4.061   0.234 -1.6517 -1.8249  0.2879
 3149SOL    HW312363   2.556   4.167   0.164 -0.4517 -0.7500  0.4890
 3149SOL    MW412364   2.588   4.132   0.237 -0.1879  0.1933 -0.5637
 3150SOL     OW12365   0.498   5.125   4.055  0.1779 -0.3703 -0.4491
 3150SOL    HW212366   0.555   5.071   4.000 -2.1684 -0.9507 -2.4486
 3150SOL    HW312367   0.445   5.175   3.994 -1.6192  0.0155  1.3203
 3150SOL    MW412368   0.499   5.125   4.040 -0.6528 -0.3867  0.6545
 3151SOL     OW12369   1.947   0.144   4.789  0.2059  0.0319  0.1026
 3151SOL    HW212370   1.967   0.090   4.713 -2.6495  1.8818 -2.2187
 3151SOL    HW312371   1.997   0.224   4.776 -0.4370  0.4320  0.0054
 3151SOL    MW412372   1.956   0.147   4.778  0.1567  0.2743 -0.0920
 3152SOL     OW12373   2.790   2.793   3.687 -0.1894 -0.1055 -0.5123
 3152SOL    HW212374   2.712   2.738   3.680  0.6337 -1.2147 -1.3364
 3152SOL    HW312375   2.859   2.732   3.713  0.6432  0.6251 -0.9753
 3152SOL    MW412376   2.789   2.777   3.689 -0.0934 -0.3739  0.4087
 3153SOL     OW12377   0.833   3.333   3.310  0.5707  0.1230 -0.1455
 3153SOL    HW212378   0.755   3.302   3.356 -0.2034  1.0096 -0.8062
 3153SOL    HW312379   0.860   3.259   3.255  0.6185 -0.4243  0.6027
 3153SOL    MW412380   0.826   3.319   3.309  0.5141  0.1860  0.1242
 3154SOL     OW12381   6.110   1.192   6.078 -0.0997 -0.1497 -0.3295
 3154SOL    HW212382   6.201   1.222   6.084  0.2273 -1.2214  0.3497
 3154SOL    HW312383   6.114   1.099   6.100 -1.3556 -0.2282 -0.3727
 3154SOL    MW412384   6.123   1.184   6.082 -0.1406  0.2985  0.2835
 3155SOL     OW12385   2.082   1.128   4.610 -0.3464  0.1781  0.0574
 3155SOL    HW212386   2.141   1.053   4.610 -0.2854  0.1916  1.8440
 3155SOL    HW312387   2.020   1.111   4.539  0.2615 -1.0712 -0.1842
 3155SOL    MW412388   2.082   1.116   4.601 -0.3856 -0.6497  1.0233
 3156SOL     OW12389   0.423   2.518   5.765  0.1564  0.2065  0.1121
 3156SOL    HW212390   0.435   2.593   5.707 -5.1599  0.3744 -1.2961
 3156SOL    HW312391   0.429   2.555   5.853  0.1118  1.7550 -0.5055
 3156SOL    MW412392   0.425   2.533   5.769 -0.0351 -0.0978  0.1752
 3157SOL     OW12393   6.365   6.401   0.541  0.2651  0.2814 -0.0884
 3157SOL    HW212394   6.314   6.468   0.496 -0.0337 -1.3442 -2.3165
 3157SOL    HW312395   6.306   6.367   0.609 -0.4629  0.5805 -0.5613
 3157SOL    MW412396   6.350   6.405   0.544  0.1653  0.7645 -0.4133
 3158SOL     OW12397   4.862   5.179   5.318  0.3770  0.5481  0.6310
 3158SOL    HW212398   4.881   5.164   5.226  0.9637 -0.7169  0.9414
 3158SOL    HW312399   4.766   5.173   5.323  0.4535 -1.9800  0.4848
 3158SOL    MW412400   4.852   5.176   5.307  0.3765 -0.0078  0.1649
 3159SOL     OW12401   0.147   6.017   3.286  0.0346 -0.6166  0.9033
 3159SOL    HW212402   0.102   5.972   3.358  0.8391 -2.0353  0.5778
 3159SOL    HW312403   0.212   5.953   3.256 -0.2613 -0.0432 -1.0671
 3159SOL    MW412404   0.150   6.002   3.292  0.0710 -0.2073  0.6881
 3160SOL     OW12405   1.125   3.253   4.790 -0.1871  0.3141  0.5975
 3160SOL    HW212406   1.146   3.315   4.860  1.4714  0.8676 -0.3210
 3160SOL    HW312407   1.184   3.180   4.804 -0.0620  0.2911 -0.0325
 3160SOL    MW412408   1.136   3.252   4.801 -0.1718  0.3641  0.0239
 3161SOL     OW12409   3.972   1.532   3.952 -0.0024 -0.3194 -0.5902
 3161SOL    HW212410   4.000   1.475   3.880 -1.1878  0.3560 -1.6216
 3161SOL    HW312411   3.920   1.474   4.009 -0.1912 -0.5523 -0.9950
 3161SOL    MW412412   3.969   1.517   3.950  0.2632 -0.0248  0.1672
 3162SOL     OW12413   4.332   2.726   3.373  0.3811 -0.4771  0.2113
 3162SOL    HW212414   4.348   2.817   3.396 -1.2956 -0.0471 -0.1482
 3162SOL    HW312415   4.236   2.719   3.368  0.4558 -2.3808  0.7045
 3162SOL    MW412416   4.321   2.737   3.375  0.4585  0.1211  0.3003
 3163SOL     OW12417   0.427   6.248   3.703 -0.4999 -0.2981 -0.4149
 3163SOL    HW212418   0.512   6.291   3.691 -0.1404 -0.8738  0.0526
 3163SOL    HW312419   0.384   6.257   3.618 -0.5312  1.1796 -0.2741
 3163SOL    MW412420   0.433   6.255   3.690 -0.1016  0.6369  0.0566
 3164SOL     OW12421   6.412   0.925   6.101 -0.0416  0.0062 -0.1135
 3164SOL    HW212422   6.478   0.964   6.158  0.5574 -0.2880 -0.5908
 3164SOL    HW312423   6.333   0.922   6.154  0.5022 -0.2590  0.6926
 3164SOL    MW412424   6.411   0.930   6.115 -0.3477  0.2335 -0.4778
 3165SOL     OW12425   2.914   3.241   1.571  0.2569  0.2556 -0.3458
 3165SOL    HW212426   3.005   3.259   1.593  0.2548 -0.6875  0.4987
 3165SOL    HW312427   2.918   3.168   1.510  0.0590 -0.0697  0.0234
 3165SOL    MW412428   2.926   3.234   1.566 -0.2756 -0.0413  0.6608
 3166SOL     OW12429   3.116   0.380   4.051  0.3805  0.0332 -0.1438
 3166SOL    HW212430   3.161   0.396   3.968  0.4481 -2.1136 -0.5614
 3166SOL    HW312431   3.143   0.292   4.077 -0.8125  0.0834  1.4099
 3166SOL    MW412432   3.126   0.371   4.043 -0.3557 -0.1817 -0.3279
 3167SOL     OW12433   0.623   2.934   0.171 -0.2700 -0.1545 -0.1065
 3167SOL    HW212434   0.691   3.000   0.186  0.1462 -0.7697  0.7581
 3167SOL    HW312435   0.655   2.884   0.096 -1.6940  2.0423 -2.3568
 3167SOL    MW412436   0.636   2.936   0.163  0.4546 -0.8149 -0.5970
 3168SOL     OW12437   3.801   5.848   2.575  0.1191  0.5751  0.6999
 3168SOL    HW212438   3.893   5.868   2.556 -0.2546  2.5152  0.7209
 3168SOL    HW312439   3.805   5.770   2.630  1.6366 -0.4270 -0.7336
 3168SOL    MW412440   3.814   5.840   2.580 -0.5178  0.3746 -0.4162
 3169SOL     OW12441   6.265   3.403   0.265 -0.2296  0.7098 -0.0574
 3169SOL    HW212442   6.180   3.428   0.302 -0.8455  1.6118 -1.9098
 3169SOL    HW312443   6.268   3.308   0.273 -1.9325  0.5452 -0.8875
 3169SOL    MW412444   6.254   3.394   0.271  0.2356 -0.2053  0.6154
 3170SOL     OW12445   0.709   5.135   1.578 -0.2211  0.3552  0.3547
 3170SOL    HW212446   0.740   5.213   1.531  0.0332 -0.5001 -0.9449
 3170SOL    HW312447   0.789   5.088   1.602 -0.4088 -0.9674 -1.4499
 3170SOL    MW412448   0.724   5.139   1.575  0.4864 -0.0160 -0.2861
 3171SOL     OW12449   3.573   5.108   2.368 -0.0174  0.9108  0.3092
 3171SOL    HW212450   3.484   5.082   2.390 -0.1713  2.0068  1.0657
 3171SOL    HW312451   3.593   5.178   2.430  0.6845  1.9885 -1.1015
 3171SOL    MW412452   3.564   5.114   2.379  0.1867  0.0788 -0.1284
 3172SOL     OW12453   5.451   3.381   5.017  0.1234 -0.2114 -0.0338
 3172SOL    HW212454   5.427   3.472   5.029  0.8683 -0.1190  0.8418
 3172SOL    HW312455   5.476   3.351   5.104  0.8124 -0.9773 -0.4818
 3172SOL    MW412456   5.451   3.389   5.030  0.0374 -0.1415 -0.2004
 3173SOL     OW12457   3.796   1.239   2.975 -0.0823 -0.1111 -0.5790
 3173SOL    HW212458   3.818   1.147   2.966  0.5930 -0.0152  0.0006
 3173SOL    HW312459   3.796   1.273   2.885  0.2409 -0.5491 -0.7448
 3173SOL    MW412460   3.799   1.232   2.962 -0.0172  0.6160  0.7214
 3174SOL     OW12461   0.469   5.345   5.142  0.1366  0.5449 -0.6820
 3174SOL    HW212462   0.518   5.274   5.183 -0.8468 -0.6245 -1.4817
 3174SOL    HW312463   0.537   5.402   5.105  1.0243  1.2746  1.8512
 3174SOL    MW412464   0.485   5.343   5.142  0.4646  0.4778  0.1677
 3175SOL     OW12465   2.584   3.620   1.479  0.0026 -0.0810 -0.5226
 3175SOL    HW212466   2.538   3.555   1.532 -1.6367  1.8865  0.6115
 3175SOL    HW312467   2.660   3.644   1.531  0.6270 -1.0240 -0.9538
 3175SOL    MW412468   2.588   3.614   1.493 -0.2627  0.2293  0.3061
 3176SOL     OW12469   2.725   2.434   1.369 -0.4556  0.2457 -0.0510
 3176SOL    HW212470   2.702   2.372   1.299 -0.7012 -0.2264  0.4447
 3176SOL    HW312471   2.809   2.472   1.341 -0.7080  0.2980 -0.7580
 3176SOL    MW412472   2.733   2.431   1.356 -0.3486 -0.0508 -0.4171
 3177SOL     OW12473   0.425   3.230   5.430  0.2636  0.1708  0.0676
 3177SOL    HW212474   0.483   3.234   5.507  1.1271 -2.6799 -0.2952
 3177SOL    HW312475   0.442   3.144   5.392 -4.3871 -1.0105  0.0357
 3177SOL    MW412476   0.435   3.219   5.435  0.0272 -0.1122 -0.0481
 3178SOL     OW12477   5.840   5.207   2.433 -0.0521 -0.2575 -0.1499
 3178SOL    HW212478   5.768   5.253   2.391  0.3886 -0.3558 -1.0390
 3178SOL    HW312479   5.804   5.121   2.454 -0.0822 -0.4541 -0.9674
 3178SOL    MW412480   5.826   5.202   2.430  0.5525 -0.3733  0.4436
 3179SOL     OW12481   1.314   3.900   1.628 -0.2501 -0.1299  0.4750
 3179SOL    HW212482   1.316   3.806   1.644 -0.6728 -0.0430  1.0640
 3179SOL    HW312483   1.324   3.908   1.533 -1.5259 -0.8421  0.2477
 3179SOL    MW412484   1.315   3.889   1.618 -0.1927 -0.6478  0.4867
 3180SOL     OW12485   4.471   4.164   5.695  0.1079 -0.8492  0.4498
 3180SOL    HW212486   4.445   4.252   5.722  1.7549 -0.2333  0.1314
 3180SOL    HW312487   4.437   4.156   5.606 -1.7745 -1.3332  1.1628
 3180SOL    MW412488   4.463   4.174   5.687 -0.0066 -0.2321  0.2010
 3181SOL     OW12489   3.848   4.072   2.760 -0.1810  0.7990 -0.2418
 3181SOL    HW212490   3.892   4.001   2.714 -0.2040  0.1133  0.7698
 3181SOL    HW312491   3.758   4.069   2.728 -0.0049  0.8657 -0.7583
 3181SOL    MW412492   3.842   4.062   2.749 -0.8658 -0.1360 -0.1561
 3182SOL     OW12493   2.148   2.130   5.853 -0.0786  0.8375  0.5377
 3182SOL    HW212494   2.220   2.152   5.795 -1.2722  0.7550 -1.0588
 3182SOL    HW312495   2.189   2.087   5.928  1.4347 -0.0427 -0.7454
 3182SOL    MW412496   2.163   2.128   5.855  0.1371  0.1875  0.5530
 3183SOL     OW12497   0.965   1.879   1.057  0.5982  0.0213  0.3879
 3183SOL    HW212498   0.972   1.799   1.110 -2.8080  0.5224  1.8652
 3183SOL    HW312499   0.968   1.950   1.120 -0.2111  0.8383 -0.4658
 3183SOL    MW412500   0.966   1.878   1.072 -0.1994 -0.1621  0.0491
 3184SOL     OW12501   1.020   6.073   2.818 -0.0224  0.5376  0.4695
 3184SOL    HW212502   1.096   6.126   2.841  0.2307  0.3980 -0.0375
 3184SOL    HW312503   1.056   5.997   2.773 -0.6179  2.1167 -3.0110
 3184SOL    MW412504   1.034   6.070   2.815 -0.3598  1.0534 -0.3366
 3185SOL     OW12505   5.207   2.357   2.567  0.4487  0.2341 -0.2880
 3185SOL    HW212506   5.289   2.383   2.525  0.3212  0.7810 -0.2152
 3185SOL    HW312507   5.143   2.355   2.496  0.3835  0.4678 -0.2366
 3185SOL    MW412508   5.209   2.360   2.552  0.4261  0.2129  0.1138
 3186SOL     OW12509   0.124   0.922   5.555  0.4620 -0.4992  0.3569
 3186SOL    HW212510   0.056   0.977   5.593 -1.2487 -1.0664 -1.7119
 3186SOL    HW312511   0.178   0.896   5.630 -0.2195  1.7975  1.7545
 3186SOL    MW412512   0.122   0.926   5.570 -0.2060  0.7335  0.5005
 3187SOL     OW12513   0.873   1.178   5.490 -0.1126 -0.6379  0.4238
 3187SOL    HW212514   0.887   1.127   5.569 -0.1682 -0.9704  0.2208
 3187SOL    HW312515   0.837   1.116   5.427  0.7500 -0.5752 -0.1428
 3187SOL    MW412516   0.870   1.163   5.492  0.2826  0.7428 -0.3751
 3188SOL     OW12517   2.465   3.268   5.980 -0.4445 -0.3556  0.1469
 3188SOL    HW212518   2.496   3.271   6.070 -1.1322 -0.9763  0.4113
 3188SOL    HW312519   2.475   3.177   5.954 -0.5961 -0.2534 -0.2794
 3188SOL    MW412520   2.470   3.257   5.988 -0.1381 -0.1697  0.6304
 3189SOL     OW12521   3.136   4.630   5.556 -0.1394 -0.0704  0.4346
 3189SOL    HW212522   3.081   4.702   5.587 -1.1841 -0.7707  0.2659
 3189SOL    HW312523   3.151   4.576   5.634  1.9182  1.0746  0.9161
 3189SOL    MW412524   3.131   4.632   5.570  0.3940  0.1784 -0.0233
 3190SOL     OW12525   0.168   0.002   1.824  0.3476  0.0175  0.1008
 3190SOL    HW212526   0.187  -0.067   1.888 -1.5700 -0.4530  0.2209
 3190SOL    HW312527   0.105  -0.038   1.764 -1.4187  1.8447  0.6153
 3190SOL    MW412528   0.162  -0.012   1.825  0.1814 -0.0216  0.3516
 3191SOL     OW12529   2.774   3.093   3.445  0.6030  0.4869  0.6493
 3191SOL    HW212530   2.680   3.110   3.454  0.4631 -0.3975  1.0295
 3191SOL    HW312531   2.806   3.089   3.535  0.9361  0.4538  0.5301
 3191SOL    MW412532   2.766   3.095   3.458 -0.0575 -0.6524 -0.1706
 3192SOL     OW12533   2.461   3.828   0.406  0.1316 -0.1793 -0.5996
 3192SOL    HW212534   2.384   3.861   0.360  0.5920  0.6250 -0.8208
 3192SOL    HW312535   2.437   3.831   0.499  0.0927  0.6184 -0.6279
 3192SOL    MW412536   2.448   3.833   0.412 -0.1629  0.0379  0.1513
 3193SOL     OW12537   0.334   5.016   3.492 -0.0835  0.4609  0.5248
 3193SOL    HW212538   0.350   5.109   3.507 -1.9980  0.7876  0.7329
 3193SOL    HW312539   0.418   4.982   3.461  0.2651  2.5610 -1.0173
 3193SOL    MW412540   0.347   5.024   3.490 -0.2201 -0.2927  0.5726
 3194SOL     OW12541   0.935   1.617   2.493 -0.6058  0.3917  0.3031
 3194SOL    HW212542   0.921   1.535   2.540 -0.4703  0.5974  0.7040
 3194SOL    HW312543   0.908   1.685   2.555 -2.3899  0.5985 -0.6262
 3194SOL    MW412544   0.930   1.615   2.507 -0.3018 -0.4351  0.0158
 3195SOL     OW12545   3.930   5.245   4.332 -0.2147 -0.7047 -0.9437
 3195SOL    HW212546   4.021   5.252   4.303  0.2953 -2.2891  0.1627
 3195SOL    HW312547   3.896   5.334   4.325  2.0279  0.3466  0.5337
 3195SOL    MW412548   3.938   5.258   4.327 -0.1904 -0.3439 -0.1688
 3196SOL     OW12549   4.596   1.634   3.135 -0.6082  0.6266 -0.4905
 3196SOL    HW212550   4.660   1.566   3.114 -1.1924  0.1164 -0.6633
 3196SOL    HW312551   4.582   1.627   3.229  1.1279  2.1279 -0.0661
 3196SOL    MW412552   4.603   1.624   3.144  0.4802  0.2043 -1.1871
 3197SOL     OW12553   4.977   6.259   3.697 -0.0116  0.1098 -0.4812
 3197SOL    HW212554   4.967   6.209   3.616  0.2970  0.8084 -0.9573
 3197SOL    HW312555   4.892   6.301   3.709  0.3194  0.9761 -1.1052
 3197SOL    MW412556   4.964   6.258   3.688 -0.0497  0.3959 -0.3257
 3198SOL     OW12557   1.609   4.036   4.876 -0.1719 -0.2823 -0.5888
 3198SOL    HW212558   1.573   3.990   4.800  1.4226 -0.8680 -1.0257
 3198SOL    HW312559   1.704   4.022   4.871  0.3175  2.2544 -0.2118
 3198SOL    MW412560   1.617   4.028   4.865  0.2661 -0.1153 -0.1216
 3199SOL     OW12561   5.961   2.252   3.918  0.1979 -0.0393  0.4991
 3199SOL    HW212562   5.996   2.270   3.831  1.1216  0.0336  0.8770
 3199SOL    HW312563   6.038   2.242   3.974 -0.3693 -0.5610  1.2190
 3199SOL    MW412564   5.975   2.253   3.914  0.0406 -0.2459 -0.1947
 3200SOL     OW12565   0.961   4.985   3.175  0.5800  0.0686  0.0585
 3200SOL    HW212566   0.917   5.070   3.182  1.6285  0.5397  1.8427
 3200SOL    HW312567   0.891   4.921   3.179 -0.1511  0.8424 -0.0211
 3200SOL    MW412568   0.946   4.988   3.177 -0.2168 -0.5824  0.2834
 3201SOL     OW12569   5.188   1.872   3.668  0.0544 -1.0247 -0.0430
 3201SOL    HW212570   5.234   1.933   3.611 -0.2836 -0.2857  0.4599
 3201SOL    HW312571   5.095   1.894   3.657 -0.0027 -0.6326  1.0324
 3201SOL    MW412572   5.182   1.883   3.659  0.3168 -0.3118  0.0971
 3202SOL     OW12573   2.216   3.736   3.516 -0.4177  0.6589  0.4891
 3202SOL    HW212574   2.281   3.674   3.483  0.4008  0.8510  1.6986
 3202SOL    HW312575   2.132   3.700   3.487  0.2023  0.4842 -1.2343
 3202SOL    MW412576   2.213   3.723   3.508  0.1221 -0.1618  0.0346
 3203SOL     OW12577   4.627   5.518   1.157  0.2867 -0.4510  0.4566
 3203SOL    HW212578   4.549   5.522   1.101  0.2352 -1.5280  0.4221
 3203SOL    HW312579   4.700   5.509   1.095  0.3533 -0.3480  0.5202
 3203SOL    MW412580   4.626   5.517   1.141 -0.4954 -0.1840 -0.4278
 3204SOL     OW12581   4.243   3.801   4.568  0.2181 -0.5123  0.2261
 3204SOL    HW212582   4.277   3.889   4.587  1.0835 -0.8978  0.5119
 3204SOL    HW312583   4.320   3.750   4.545 -0.2758 -1.2181  0.1088
 3204SOL    MW412584   4.257   3.806   4.568 -0.0391 -0.7059  0.3569
 3205SOL     OW12585   2.156   1.682   1.863 -0.1344  0.1340  0.0670
 3205SOL    HW212586   2.110   1.721   1.937  0.4139 -0.8111  0.9193
 3205SOL    HW312587   2.160   1.589   1.882  2.7683  0.2312  0.4434
 3205SOL    MW412588   2.151   1.675   1.875 -0.2712  0.4566 -0.1746
 3206SOL     OW12589   5.203   1.154   5.441  0.1765  0.2949 -0.3463
 3206SOL    HW212590   5.216   1.096   5.366  0.0001 -1.7673  1.1551
 3206SOL    HW312591   5.286   1.151   5.489 -0.2093  0.4097  0.3364
 3206SOL    MW412592   5.216   1.146   5.437  0.2694 -0.0683 -0.4405
 3207SOL     OW12593   0.501   4.482   4.904  0.2258  0.3439  0.3224
 3207SOL    HW212594   0.433   4.482   4.972 -0.7232  1.2392 -0.5996
 3207SOL    HW312595   0.510   4.390   4.880  0.5705  0.0107  1.6405
 3207SOL    MW412596   0.493   4.470   4.910  0.2016  0.5110 -0.2021
 3208SOL     OW12597   3.378   0.595   4.266  0.6639  0.2257  0.6453
 3208SOL    HW212598   3.320   0.537   4.315  0.2786  2.2330  2.6791
 3208SOL    HW312599   3.451   0.613   4.325  0.3700  2.4258  0.4165
 3208SOL    MW412600   3.380   0.589   4.280  0.4689 -0.2891  0.3030
 3209SOL     OW12601   5.433   5.951   0.742  0.3252 -0.4197  0.2930
 3209SOL    HW212602   5.479   6.035   0.750 -1.8214  0.9363 -0.6338
 3209SOL    HW312603   5.366   5.954   0.810 -0.4714 -0.8967 -0.4532
 3209SOL    MW412604   5.430   5.963   0.752  0.1512 -0.0341  0.1938
 3210SOL     OW12605   3.491   6.080   2.148  0.1607 -0.1663  0.2863
 3210SOL    HW212606   3.564   6.106   2.091 -0.1990  0.7525  0.2342
 3210SOL    HW312607   3.533   6.053   2.230  0.5704  0.2077  0.2031
 3210SOL    MW412608   3.506   6.080   2.151  0.3664 -0.5163 -0.0002
 3211SOL     OW12609   6.209   4.440   0.010  0.5391  0.8842  0.3541
 3211SOL    HW212610   6.292   4.464  -0.031  0.1962  1.5134  0.0165
 3211SOL    HW312611   6.146   4.504  -0.022 -0.3798 -0.3686 -0.4417
 3211SOL    MW412612   6.211   4.451   0.001 -0.5087  0.1331 -0.4074
 3212SOL     OW12613   2.787   6.050   4.499 -0.2900  0.2721 -0.4625
 3212SOL    HW212614   2.834   6.027   4.419 -0.8149  0.2476 -0.7660
 3212SOL    HW312615   2.714   5.989   4.503 -0.9461  1.0219 -0.5929
 3212SOL    MW412616   2.784   6.039   4.489 -0.4590 -0.1431 -0.2638
 3213SOL     OW12617   1.207   4.404   1.190 -0.4640  0.2150 -0.7274
 3213SOL    HW212618   1.113   4.425   1.187 -0.3927  0.4641 -1.3925
 3213SOL    HW312619   1.248   4.468   1.132  0.3640  1.3421  0.9994
 3213SOL    MW412620   1.200   4.415   1.182  0.0555  0.5292 -0.2991
 3214SOL     OW12621   0.674   5.297   6.377 -0.0969 -0.5634  0.5550
 3214SOL    HW212622   0.626   5.337   6.305  0.6004 -1.2479 -0.3176
 3214SOL    HW312623   0.699   5.370   6.433  1.3511  0.2816 -1.1141
 3214SOL    MW412624   0.671   5.312   6.375 -0.1953 -0.1091 -0.1142
 3215SOL     OW12625   1.573   0.584   1.106 -0.2293  0.5149 -0.3797
 3215SOL    HW212626   1.492   0.613   1.148  0.4444  0.6192  0.9187
 3215SOL    HW312627   1.623   0.543   1.177  1.5667  1.9173 -0.7591
 3215SOL    MW412628   1.569   0.582   1.121  0.2032 -0.5388  0.2473
 3216SOL     OW12629   1.691   6.113   0.874  1.0077  0.2148  0.1432
 3216SOL    HW212630   1.758   6.094   0.809  0.7849 -1.6264  0.4091
 3216SOL    HW312631   1.725   6.076   0.955 -0.4452 -1.1172  0.2029
 3216SOL    MW412632   1.704   6.106   0.876  0.7613 -0.6878  0.1293
 3217SOL     OW12633   1.752   3.853   0.299 -0.5294 -0.4354  0.5104
 3217SOL    HW212634   1.698   3.781   0.267  0.2384 -1.4257  1.3620
 3217SOL    HW312635   1.729   3.927   0.243 -1.2272 -1.3778 -0.4962
 3217SOL    MW412636   1.742   3.853   0.287 -0.2503 -0.5225 -0.5321
 3218SOL     OW12637   3.226   6.186   2.428  0.2848  0.4630  0.3560
 3218SOL    HW212638   3.270   6.192   2.512  1.9498 -0.4929 -0.3953
 3218SOL    HW312639   3.132   6.185   2.449  0.6728 -0.2762  2.2062
 3218SOL    MW412640   3.219   6.187   2.442  0.8723 -0.1065 -0.0724
 3219SOL     OW12641   1.906   3.329   1.573 -0.7818 -0.2220 -0.5551
 3219SOL    HW212642   1.852   3.283   1.638  0.7284 -2.1288 -0.5294
 3219SOL    HW312643   1.955   3.393   1.624 -1.0050 -0.3844 -0.1291
 3219SOL    MW412644   1.905   3.331   1.588 -0.0475 -0.0314 -0.2858
 3220SOL     OW12645   3.958   0.408   1.704 -0.0458  0.0050  0.1136
 3220SOL    HW212646   3.897   0.369   1.641 -0.4546  0.5377  0.1797
 3220SOL    HW312647   4.038   0.424   1.653  0.2126 -1.1060  0.1320
 3220SOL    MW412648   3.961   0.405   1.689  0.7925 -0.2784  0.2636
 3221SOL     OW12649   2.249   3.666   1.831 -0.2192 -0.2223 -0.4769
 3221SOL    HW212650   2.184   3.601   1.804  0.5747 -1.3338  0.2121
 3221SOL    HW312651   2.199   3.745   1.848 -1.3539 -0.9919 -0.1898
 3221SOL    MW412652   2.234   3.668   1.829 -0.0854  0.3226 -0.1363
 3222SOL     OW12653   4.471   2.465   5.817 -0.4497  0.1979 -0.4429
 3222SOL    HW212654   4.541   2.442   5.878 -0.4104 -1.3549 -1.0089
 3222SOL    HW312655   4.408   2.393   5.825 -0.4841  0.0028 -2.1371
 3222SOL    MW412656   4.472   2.452   5.826  0.3760  0.5226 -0.4534
 3223SOL     OW12657   5.077   1.908   2.472 -0.7041  0.2918 -0.1198
 3223SOL    HW212658   5.029   1.881   2.550 -2.3709  3.2362  0.0385
 3223SOL    HW312659   5.063   1.837   2.409  0.4835 -2.0520  2.0799
 3223SOL    MW412660   5.069   1.895   2.474  0.0662  0.2429 -0.2259
 3224SOL     OW12661   4.999   2.014   5.031 -0.3248 -0.0032 -0.7797
 3224SOL    HW212662   4.954   1.970   4.958 -0.2203 -0.1335 -0.7661
 3224SOL    HW312663   4.961   1.975   5.110  0.5487 -0.8827 -0.7672
 3224SOL    MW412664   4.988   2.003   5.032  0.3147 -0.0774 -0.2246
 3225SOL     OW12665   4.971   6.072   0.247 -0.1912 -0.5358  0.0935
 3225SOL    HW212666   4.972   5.985   0.206  1.6602 -0.2825 -0.5185
 3225SOL    HW312667   4.954   6.055   0.340 -1.7606 -1.3522 -0.3036
 3225SOL    MW412668   4.969   6.058   0.254  0.3944  0.6662 -0.1007
 3226SOL     OW12669   6.000   3.943   3.879 -0.4265 -0.1625 -0.2325
 3226SOL    HW212670   5.938   3.874   3.855  0.9219 -1.5041 -0.0101
 3226SOL    HW312671   6.020   3.987   3.796 -0.6940 -0.5672 -0.5161
 3226SOL    MW412672   5.995   3.940   3.865  0.2587  0.4940 -0.5836
 3227SOL     OW12673   5.448   1.482   0.673 -0.1102 -0.1783 -0.4691
 3227SOL    HW212674   5.403   1.541   0.733  0.0858  1.1488 -1.5733
 3227SOL    HW312675   5.389   1.407   0.664 -0.6214  0.0876  0.5334
 3227SOL    MW412676   5.434   1.480   0.680 -0.0923  0.0411 -0.1006
 3228SOL     OW12677   2.389   0.685   0.205 -0.1588 -0.4796  0.1049
 3228SOL    HW212678   2.364   0.775   0.228 -0.2590 -0.6841  0.8180
 3228SOL    HW312679   2.316   0.632   0.236 -0.4166 -0.7468 -0.9338
 3228SOL    MW412680   2.376   0.690   0.212 -0.0747  0.0510 -0.0035
 3229SOL     OW12681   5.075   0.798   4.247 -0.6313 -0.3635  0.0724
 3229SOL    HW212682   4.984   0.796   4.275 -1.8465  0.8263 -3.2254
 3229SOL    HW312683   5.083   0.724   4.186  0.9365 -1.0414  1.0387
 3229SOL    MW412684   5.064   0.788   4.242  0.4225 -0.1255 -0.2090
 3230SOL     OW12685   1.236   5.265   5.836  0.5436  0.2743 -0.1319
 3230SOL    HW212686   1.254   5.173   5.852 -2.7594 -0.5566 -0.4595
 3230SOL    HW312687   1.264   5.281   5.746  0.7723 -0.5372 -0.2049
 3230SOL    MW412688   1.242   5.255   5.826  0.1091  0.2294  0.1948
 3231SOL     OW12689   3.306   5.489   6.144  0.4656  0.1163  0.7155
 3231SOL    HW212690   3.215   5.463   6.159  0.8598 -1.0872  1.1060
 3231SOL    HW312691   3.301   5.583   6.126 -0.8539  0.0657  0.7101
 3231SOL    MW412692   3.293   5.498   6.144  0.6373 -0.9526  0.5042
 3232SOL     OW12693   5.671   1.620   6.017 -0.1699  0.2276 -0.3003
 3232SOL    HW212694   5.674   1.646   6.109  0.3087  2.2558 -0.8268
 3232SOL    HW312695   5.596   1.668   5.982  0.0874  0.0381 -1.1156
 3232SOL    MW412696   5.661   1.630   6.025  0.5597  0.0935  0.3993
 3233SOL     OW12697   0.316   0.688   5.469  0.5885 -0.3621  0.5102
 3233SOL    HW212698   0.254   0.743   5.518  0.9034 -0.6933  1.3012
 3233SOL    HW312699   0.402   0.714   5.502  0.7437 -1.3066  0.8744
 3233SOL    MW412700   0.319   0.699   5.480 -0.7449 -0.3906 -0.3655
 3234SOL     OW12701   1.337   4.011   5.290 -0.4881  0.6099 -0.0325
 3234SOL    HW212702   1.419   4.046   5.325 -0.5983  1.8103 -0.9191
 3234SOL    HW312703   1.365   3.949   5.222 -0.3045  0.2389  0.3814
 3234SOL    MW412704   1.351   4.007   5.285  0.0308 -0.3897 -0.6771
 3235SOL     OW12705   0.350   5.730   1.678 -0.5887 -0.2150 -0.5456
 3235SOL    HW212706   0.430   5.761   1.636 -1.0547 -0.4624 -1.6514
 3235SOL    HW312707   0.306   5.811   1.707  0.1931 -0.0953  0.3620
 3235SOL    MW412708   0.355   5.745   1.676  0.1320  0.3315 -0.4317
 3236SOL     OW12709   0.741   0.917   0.008  0.2679  0.3892 -0.2279
 3236SOL    HW212710   0.761   0.995  -0.043 -0.0521 -0.0681 -1.0744
 3236SOL    HW312711   0.724   0.950   0.096 -0.3216  1.3368 -0.6751
 3236SOL    MW412712   0.741   0.932   0.013 -0.0947 -0.1991 -0.4231
 3237SOL     OW12713   5.359   0.113   3.134  0.0513 -0.6298  0.1727
 3237SOL    HW212714   5.356   0.190   3.191 -1.4704  0.0108 -0.7169
 3237SOL    HW312715   5.268   0.089   3.120  0.3614 -0.8370 -1.8720
 3237SOL    MW412716   5.347   0.120   3.139  0.1382 -0.3100 -0.0218
 3238SOL     OW12717   4.177   0.624   3.270 -0.6525 -0.6126 -0.2349
 3238SOL    HW212718   4.217   0.663   3.348  0.6757 -1.8216 -0.2615
 3238SOL    HW312719   4.249   0.618   3.207 -0.5670 -3.6512  0.0012
 3238SOL    MW412720   4.192   0.628   3.272 -0.8241  0.6190  0.7673
 3239SOL     OW12721   1.319   6.009   1.942 -0.0980 -0.2382 -0.3122
 3239SOL    HW212722   1.341   5.915   1.942 -0.1834 -0.2723  0.8088
 3239SOL    HW312723   1.340   6.038   2.031 -1.5567  0.4566 -0.1718
 3239SOL    MW412724   1.325   6.000   1.954 -0.7592  0.3541 -0.3540
 3240SOL     OW12725   5.999   4.010   0.027 -0.1462  0.2624 -0.4816
 3240SOL    HW212726   5.961   3.944  -0.031 -0.6970  1.1837 -1.2008
 3240SOL    HW312727   5.994   4.092  -0.023 -1.6732  1.3164  1.2570
 3240SOL    MW412728   5.993   4.012   0.013  0.2023  0.1556  0.0546
 3241SOL     OW12729   3.702   3.590   1.373 -0.0115 -0.3594  0.1947
 3241SOL    HW212730   3.661   3.514   1.333 -1.5085  0.5756 -0.1142
 3241SOL    HW312731   3.644   3.615   1.444 -1.4352  2.4425 -1.7512
 3241SOL    MW412732   3.689   3.583   1.377 -0.2370 -0.1473 -0.5266
 3242SOL     OW12733   0.079   1.237   4.161 -0.7549 -0.1889 -0.3817
 3242SOL    HW212734  -0.001   1.204   4.202 -0.0834  0.0412  1.1927
 3242SOL    HW312735   0.149   1.182   4.196 -0.0093  0.7966 -0.2568
 3242SOL    MW412736   0.078   1.226   4.171  0.6059  0.1158  0.0971
 3243SOL     OW12737   2.536   4.830   1.037 -0.1723 -0.3059 -0.3973
 3243SOL    HW212738   2.484   4.903   1.070  1.1292  0.9445 -0.9886
 3243SOL    HW312739   2.471   4.761   1.018 -1.2095 -0.1535  2.2115
 3243SOL    MW412740   2.520   4.831   1.039  0.4073 -0.4731 -0.1159
 3244SOL     OW12741   0.521   3.323   0.895 -0.3396  0.4163 -0.4703
 3244SOL    HW212742   0.587   3.263   0.928 -2.2985 -1.3387  0.5379
 3244SOL    HW312743   0.490   3.370   0.972 -1.7509 -0.3968 -0.4996
 3244SOL    MW412744   0.525   3.321   0.909 -0.2009 -0.8770 -0.6897
 3245SOL     OW12745   0.394   0.132   2.906  0.1158  0.2791 -0.4489
 3245SOL    HW212746   0.323   0.167   2.960  1.1075  2.9658 -0.6953
 3245SOL    HW312747   0.355   0.118   2.820 -0.4812  0.1329 -0.1569
 3245SOL    MW412748   0.380   0.135   2.902 -0.0171 -0.1561 -0.3772
 3246SOL     OW12749   2.663   4.259   2.145  0.1853  0.4168 -0.7592
 3246SOL    HW212750   2.584   4.266   2.092  0.4108  0.3574 -1.1068
 3246SOL    HW312751   2.731   4.232   2.083 -0.1270 -2.6268  0.0650
 3246SOL    MW412752   2.662   4.256   2.130  0.7696 -0.5819 -0.1079
 3247SOL     OW12753   3.363   5.294   5.535  0.4764 -0.3431  0.8751
 3247SOL    HW212754   3.335   5.381   5.561  0.6765  0.6544 -1.9173
 3247SOL    HW312755   3.446   5.308   5.489  1.2645 -2.1976  1.6121
 3247SOL    MW412756   3.371   5.307   5.532 -0.3998 -0.3861 -0.2609
 3248SOL     OW12757   1.480   1.921   5.114  0.2649  0.1449 -0.1151
 3248SOL    HW212758   1.501   1.999   5.062  0.2194  0.7912  0.8166
 3248SOL    HW312759   1.559   1.869   5.111  0.4465  0.4281 -0.3897
 3248SOL    MW412760   1.493   1.925   5.107 -0.3743  0.0225  0.1128
 3249SOL     OW12761   5.083   1.596   4.282  0.1681  0.4684 -0.2044
 3249SOL    HW212762   5.168   1.626   4.250  0.7160 -0.1173  0.6621
 3249SOL    HW312763   5.092   1.595   4.377 -0.3935 -0.7887 -0.1467
 3249SOL    MW412764   5.096   1.600   4.290  0.2772  0.5827  0.7435
 3250SOL     OW12765   5.237   3.686   4.468 -0.4446  0.0317 -0.4952
 3250SOL    HW212766   5.330   3.704   4.454 -0.4511 -0.4013 -1.1753
 3250SOL    HW312767   5.222   3.707   4.560 -0.2618  2.5961 -0.9799
 3250SOL    MW412768   5.248   3.691   4.478 -0.0453 -0.2251  0.3004
 3251SOL     OW12769   5.331   2.748   2.638 -0.2951 -0.0995 -0.0458
 3251SOL    HW212770   5.331   2.707   2.725  0.0982  0.9765  0.4747
 3251SOL    HW312771   5.287   2.832   2.651 -0.0852  0.1441 -0.8625
 3251SOL    MW412772   5.325   2.753   2.651 -0.2234 -0.6554  0.1362
 3252SOL     OW12773   1.751   5.658   1.099  0.2352  0.5626 -0.4418
 3252SOL    HW212774   1.780   5.594   1.034 -0.7368  0.8304 -1.1551
 3252SOL    HW312775   1.656   5.646   1.105 -0.1202  2.5616 -1.2988
 3252SOL    MW412776   1.742   5.648   1.091  0.7962  1.0375  0.1745
 3253SOL     OW12777   1.358   2.492   2.390  0.3088  0.2665 -0.1264
 3253SOL    HW212778   1.429   2.430   2.406 -0.0090 -0.0338  0.1700
 3253SOL    HW312779   1.345   2.535   2.474  1.7761  2.1089 -0.7897
 3253SOL    MW412780   1.365   2.489   2.403 -0.0144 -0.1297  0.0605
 3254SOL     OW12781   0.044   5.038   2.404 -0.1597 -0.2501 -0.6719
 3254SOL    HW212782   0.055   5.124   2.365  0.0804 -0.5295 -1.2251
 3254SOL    HW312783   0.129   5.018   2.443 -0.0389 -0.4767 -1.0419
 3254SOL    MW412784   0.057   5.047   2.404  0.1514  0.0789  0.2980
 3255SOL     OW12785   5.367   4.963   3.238 -0.8444  0.1973  0.0242
 3255SOL    HW212786   5.361   5.058   3.245  0.7718  0.3188  0.2252
 3255SOL    HW312787   5.411   4.935   3.319  0.7087 -0.4501 -0.9891
 3255SOL    MW412788   5.372   4.972   3.250 -0.8190  0.1438 -0.5907
 3256SOL     OW12789   6.139   5.176   4.099  0.1477  0.2096  0.2176
 3256SOL    HW212790   6.063   5.175   4.041  0.1212  0.2565  0.2521
 3256SOL    HW312791   6.187   5.255   4.074  0.4730 -0.1085 -0.1784
 3256SOL    MW412792   6.135   5.186   4.088 -0.1122 -0.6075  0.2862
 3257SOL     OW12793   1.666   3.756   2.526  0.1493  0.0587  0.1079
 3257SOL    HW212794   1.641   3.793   2.442 -0.5133 -2.6772 -0.9962
 3257SOL    HW312795   1.729   3.688   2.505 -1.1703 -1.7314  1.6376
 3257SOL    MW412796   1.671   3.752   2.512 -0.2837  0.2286  0.0097
 3258SOL     OW12797   0.984   0.865   3.591  0.0696  0.2606 -0.0774
 3258SOL    HW212798   0.914   0.823   3.640  1.0094 -0.6636  0.5261
 3258SOL    HW312799   1.032   0.792   3.551  0.1750  0.9166 -1.2060
 3258SOL    MW412800   0.981   0.850   3.592 -0.7866  0.0963  0.4833
 3259SOL     OW12801   4.202   0.757   0.208  0.0032 -0.0946  0.1684
 3259SOL    HW212802   4.277   0.810   0.235 -1.5098  0.9806  2.5599
 3259SOL    HW312803   4.220   0.670   0.244  0.5675 -0.1408 -0.2028
 3259SOL    MW412804   4.214   0.753   0.216 -0.1865  0.0707  0.3801
 3260SOL     OW12805   6.297   1.743   1.834 -0.3178  0.1439  0.0025
 3260SOL    HW212806   6.318   1.674   1.897  1.4824 -0.0652 -0.7550
 3260SOL    HW312807   6.264   1.695   1.758 -1.9027  0.3558  0.5235
 3260SOL    MW412808   6.296   1.727   1.832 -0.3441  0.0626  0.2718
 3261SOL     OW12809   1.630   2.018   1.716  0.2576 -0.2760 -0.3372
 3261SOL    HW212810   1.684   2.033   1.793  2.4188  0.1703 -1.8538
 3261SOL    HW312811   1.666   1.939   1.676 -1.0869 -0.7356 -0.7049
 3261SOL    MW412812   1.642   2.009   1.721 -0.1628 -0.2347  0.7706
 3262SOL     OW12813   2.554   2.516   1.825 -0.1787 -0.5757  0.3994
 3262SOL    HW212814   2.570   2.423   1.844  0.4753 -0.4611  0.4359
 3262SOL    HW312815   2.541   2.556   1.911 -0.6274 -0.6582  0.3735
 3262SOL    MW412816   2.555   2.509   1.839  0.0658  0.3135  0.1989
 3263SOL     OW12817   6.053   1.198   2.885 -1.1362  0.0142 -0.2711
 3263SOL    HW212818   6.128   1.202   2.825 -0.6750  0.3595  0.3057
 3263SOL    HW312819   6.044   1.106   2.906 -0.6657 -0.0002 -0.1061
 3263SOL    MW412820   6.062   1.187   2.880  0.4070  0.1859  0.0071
 3264SOL     OW12821   4.665   4.378   1.144  0.2145  0.0131  0.0684
 3264SOL    HW212822   4.720   4.383   1.222  0.0421 -2.2961  0.4285
 3264SOL    HW312823   4.644   4.285   1.136 -0.7367  0.3455 -2.0806
 3264SOL    MW412824   4.670   4.366   1.153 -0.0383 -0.5120 -0.0641
 3265SOL     OW12825   2.561   0.397   1.565  0.2082  0.3005 -0.4325
 3265SOL    HW212826   2.468   0.382   1.546  0.0604  0.3830  0.1978
 3265SOL    HW312827   2.608   0.345   1.499 -0.2662 -2.2147  1.0901
 3265SOL    MW412828   2.555   0.388   1.554  0.2302 -0.8359  0.2061
 3266SOL     OW12829   0.442   3.211  -0.008  0.0567 -0.0072  0.4091
 3266SOL    HW212830   0.412   3.129   0.030  0.5369 -2.1387 -3.2522
 3266SOL    HW312831   0.373   3.235  -0.071  0.1880  2.1504  1.0129
 3266SOL    MW412832   0.429   3.203  -0.011 -0.1784 -0.0707 -0.4494
 3267SOL     OW12833   2.553   3.182   4.186  0.6610 -0.1133  0.1437
 3267SOL    HW212834   2.625   3.195   4.125  1.8376 -0.8300  1.3376
 3267SOL    HW312835   2.577   3.232   4.264 -0.7890  0.7358  0.1035
 3267SOL    MW412836   2.565   3.190   4.188  0.4548 -0.3059  0.3356
 3268SOL     OW12837   5.049   1.029   0.559 -0.6311 -0.0848  0.1674
 3268SOL    HW212838   5.105   1.100   0.528 -2.0477  0.9390 -0.1387
 3268SOL    HW312839   5.049   1.038   0.654  1.5913 -1.5925  0.3960
 3268SOL    MW412840   5.057   1.039   0.567 -0.2097 -0.6034  0.0631
 3269SOL     OW12841   6.335   4.236   1.752 -0.2483 -0.1460 -0.8662
 3269SOL    HW212842   6.246   4.236   1.788  0.0919 -1.8940  0.0899
 3269SOL    HW312843   6.376   4.158   1.790  1.6205  0.4841 -1.4866
 3269SOL    MW412844   6.329   4.225   1.762  0.7983  0.0321 -0.6931
 3270SOL     OW12845   5.811   3.459   6.400  0.7496 -0.9222  0.0798
 3270SOL    HW212846   5.765   3.463   6.316  3.3983 -0.4690 -1.4799
 3270SOL    HW312847   5.854   3.544   6.407  1.1157 -1.2119  1.6012
 3270SOL    MW412848   5.811   3.470   6.390  0.4915 -0.3122  0.1422
 3271SOL     OW12849   6.373   4.667   3.565  0.7535 -0.0290 -0.1674
 3271SOL    HW212850   6.456   4.668   3.613  1.5654 -1.8795 -1.4014
 3271SOL    HW312851   6.398   4.688   3.475 -0.1583 -0.3270 -0.5011
 3271SOL    MW412852   6.387   4.670   3.559  0.2171 -1.0422 -0.6072
 3272SOL     OW12853   2.845   5.291   0.652 -0.0740 -0.1858  0.0250
 3272SOL    HW212854   2.846   5.368   0.595  0.5342  0.1176  0.4466
 3272SOL    HW312855   2.856   5.326   0.740  1.6629 -0.8542  0.1041
 3272SOL    MW412856   2.846   5.306   0.656 -0.4203  0.1189  0.6944
 3273SOL     OW12857   2.586   1.013   1.379 -0.4106  0.4012  0.1256
 3273SOL    HW212858   2.613   0.948   1.444 -1.3535 -0.0022  0.1384
 3273SOL    HW312859   2.491   1.002   1.373 -0.3276  0.3225 -1.4380
 3273SOL    MW412860   2.577   1.003   1.387  0.1330 -0.0391 -0.1986
 3274SOL     OW12861   2.501   0.184   6.012  0.7733 -0.3073 -0.2125
 3274SOL    HW212862   2.587   0.224   6.024 -0.0365  0.9566  1.9427
 3274SOL    HW312863   2.465   0.178   6.100 -1.8667  0.4179 -1.1617
 3274SOL    MW412864   2.508   0.188   6.025  0.4016 -0.0854 -0.1588
 3275SOL     OW12865   2.468   5.851   0.001  0.0812  0.7841 -0.1334
 3275SOL    HW212866   2.417   5.928   0.024 -1.1933  0.1696 -0.7815
 3275SOL    HW312867   2.474   5.854  -0.095 -0.1855 -0.0322 -0.1835
 3275SOL    MW412868   2.462   5.862  -0.009 -0.2002  0.6744  0.2559
 3276SOL     OW12869   4.508   2.713   4.624  0.0071 -0.1934 -0.2915
 3276SOL    HW212870   4.523   2.619   4.614 -1.3412 -0.3038 -1.7505
 3276SOL    HW312871   4.590   2.754   4.598  0.0514 -0.9244 -1.3369
 3276SOL    MW412872   4.521   2.706   4.620 -0.9690  0.0659 -0.0340
 3277SOL     OW12873   2.632   3.291   4.449  0.5048 -0.1654 -0.3001
 3277SOL    HW212874   2.717   3.259   4.478  0.2727  0.5980  1.3114
 3277SOL    HW312875   2.641   3.386   4.447  0.2554 -0.1343 -2.0596
 3277SOL    MW412876   2.645   3.299   4.452  0.5274  0.0831 -0.1376
 3278SOL     OW12877   3.678   2.071   6.228  0.0569 -0.0461  0.2569
 3278SOL    HW212878   3.661   2.149   6.281  0.3811  0.0549  0.2111
 3278SOL    HW312879   3.749   2.095   6.170 -0.9526  0.1659 -0.9356
 3278SOL    MW412880   3.685   2.084   6.227 -0.3736  0.2059  0.2617
 3279SOL     OW12881   5.867   1.729   5.842 -0.6391  0.1698 -0.4335
 3279SOL    HW212882   5.802   1.695   5.903 -1.3368 -1.3670 -1.9574
 3279SOL    HW312883   5.876   1.821   5.865 -3.1700  0.3706 -0.0200
 3279SOL    MW412884   5.860   1.736   5.853 -0.5105 -0.4440  0.4196
 3280SOL     OW12885   5.772   1.814   4.762  0.4010 -0.4514 -0.2988
 3280SOL    HW212886   5.822   1.829   4.842 -0.6538 -0.5726  0.3981
 3280SOL    HW312887   5.763   1.719   4.756 -1.1914 -0.3829  0.5190
 3280SOL    MW412888   5.777   1.803   4.772  0.4652 -0.5490  0.1164
 3281SOL     OW12889   0.506   2.611   4.950 -0.4479 -0.3847 -0.3813
 3281SOL    HW212890   0.527   2.589   4.860 -3.3576  0.0028 -1.2599
 3281SOL    HW312891   0.464   2.533   4.985  1.1302 -0.7283  0.8963
 3281SOL    MW412892   0.504   2.598   4.943 -0.3811 -0.1813  0.1021
 3282SOL     OW12893   3.316   6.079   1.463 -0.1400  0.1231 -0.0739
 3282SOL    HW212894   3.244   6.139   1.446  0.5392  1.0263  0.1418
 3282SOL    HW312895   3.357   6.065   1.378  1.7827  2.7297  0.2871
 3282SOL    MW412896   3.312   6.085   1.450 -0.1379 -0.6747  0.4349
 3283SOL     OW12897   5.529   2.180   5.621 -0.1828  0.4672 -0.2703
 3283SOL    HW212898   5.615   2.202   5.659  0.4685 -3.3053  0.7992
 3283SOL    HW312899   5.549   2.156   5.530  0.4065 -2.4879  0.5366
 3283SOL    MW412900   5.543   2.180   5.614 -0.5001  0.4381 -0.1947
 3284SOL     OW12901   3.313   6.087   4.186 -0.0481 -0.0371  0.5800
 3284SOL    HW212902   3.273   6.159   4.235 -2.0122 -0.7004  0.0611
 3284SOL    HW312903   3.300   6.010   4.241  0.3647 -0.2983  0.3142
 3284SOL    MW412904   3.306   6.086   4.200  1.2710 -0.2418 -0.0482
 3285SOL     OW12905   5.485   5.621   0.104  0.0723 -0.8713  0.1753
 3285SOL    HW212906   5.476   5.699   0.049  2.9106 -0.5171  0.0783
 3285SOL    HW312907   5.467   5.548   0.045 -0.0843 -0.3963 -0.3758
 3285SOL    MW412908   5.481   5.621   0.089  0.6834 -0.3509  0.2092
 3286SOL     OW12909   4.403   4.377   1.602  0.0575  0.0839  0.5826
 3286SOL    HW212910   4.477   4.436   1.616  0.8395 -0.4303 -1.0747
 3286SOL    HW312911   4.366   4.407   1.519 -0.4360 -0.8440  0.4677
 3286SOL    MW412912   4.408   4.389   1.593 -0.3712 -0.3600  0.0217
 3287SOL     OW12913   4.918   1.875   2.008  0.2308 -0.2564  0.6502
 3287SOL    HW212914   4.828   1.893   1.980 -0.2716 -0.0188  2.3377
 3287SOL    HW312915   4.910   1.838   2.095  1.7133 -1.6802  0.2266
 3287SOL    MW412916   4.905   1.873   2.016 -0.2617 -0.2454  0.0891
 3288SOL     OW12917   2.537   5.256   4.189 -0.2125  0.1217  0.1907
 3288SOL    HW212918   2.455   5.227   4.230  0.3939 -1.9369  0.0183
 3288SOL    HW312919   2.512   5.276   4.099 -0.3813 -1.3321 -0.0985
 3288SOL    MW412920   2.523   5.255   4.183  0.1701 -0.0106  0.4539
 3289SOL     OW12921   5.702   0.269   0.225  1.0142 -0.0362 -0.5858
 3289SOL    HW212922   5.746   0.354   0.214  0.1272  0.9159  2.2601
 3289SOL    HW312923   5.740   0.233   0.305  0.1123 -1.4979 -0.7909
 3289SOL    MW412924   5.713   0.276   0.234 -0.0088  0.5750  0.2148
 3290SOL     OW12925   0.243   2.214   3.677  0.2367 -0.1545 -0.5416
 3290SOL    HW212926   0.259   2.158   3.601  0.7752  0.2924 -0.7599
 3290SOL    HW312927   0.189   2.285   3.644  1.2049  0.5172 -0.7167
 3290SOL    MW412928   0.238   2.216   3.662 -0.1025 -0.5335  0.0946
 3291SOL     OW12929   6.087   4.204   5.766 -0.3083 -0.1445  0.6379
 3291SOL    HW212930   6.009   4.173   5.813 -0.9458 -1.3130 -1.0886
 3291SOL    HW312931   6.084   4.299   5.776 -0.4434 -0.3303  2.8575
 3291SOL    MW412932   6.076   4.212   5.774 -0.2435 -0.4117  0.3600
 3292SOL     OW12933   0.516   2.413   0.661  0.6682 -0.1479 -0.0826
 3292SOL    HW212934   0.478   2.444   0.579 -0.6888  2.0947  1.2830
 3292SOL    HW312935   0.571   2.486   0.691  2.5023 -1.5813  0.2351
 3292SOL    MW412936   0.518   2.427   0.655 -0.4456  0.2900 -0.2055
 3293SOL     OW12937   0.807   4.540   0.491 -0.0361  0.1213 -0.2606
 3293SOL    HW212938   0.867   4.538   0.416  0.8950 -1.0527  0.4695
 3293SOL    HW312939   0.855   4.589   0.558 -0.2703 -0.0561  0.0364
 3293SOL    MW412940   0.821   4.546   0.489  0.2431  0.2473 -0.3947
 3294SOL     OW12941   3.339   0.749   0.147  0.1688  0.2514 -0.4263
 3294SOL    HW212942   3.413   0.737   0.207 -1.1056  1.4838  1.4792
 3294SOL    HW312943   3.301   0.661   0.137  1.2530 -0.2142 -0.6369
 3294SOL    MW412944   3.344   0.736   0.154  0.3664 -0.2090  0.7789
 3295SOL     OW12945   2.393   0.397   3.532 -0.4341 -0.3729  0.1926
 3295SOL    HW212946   2.479   0.398   3.490 -0.0782  0.3584  0.9196
 3295SOL    HW312947   2.332   0.412   3.460 -0.0520 -1.8909 -0.4973
 3295SOL    MW412948   2.396   0.399   3.517 -0.0467  0.1923  0.0375
 3296SOL     OW12949   1.391   4.922   2.613  0.0618 -0.4989 -0.9877
 3296SOL    HW212950   1.302   4.953   2.630  0.2609  0.3910 -1.4872
 3296SOL    HW312951   1.393   4.834   2.651 -0.8759 -0.3444 -0.5309
 3296SOL    MW412952   1.379   4.915   2.620 -0.3734  0.0873 -0.1055
 3297SOL     OW12953   3.547   3.293   0.705  0.2297 -0.2180  0.7760
 3297SOL    HW212954   3.517   3.217   0.654  1.0710 -1.8798  2.6202
 3297SOL    HW312955   3.512   3.278   0.793 -2.3570  3.2600  0.5384
 3297SOL    MW412956   3.538   3.281   0.710  0.3063 -0.1784  0.1687
 3298SOL     OW12957   1.042   2.342   4.234 -0.7143  0.3899  0.0459
 3298SOL    HW212958   1.111   2.313   4.174 -0.4393  0.0984  0.4994
 3298SOL    HW312959   0.981   2.390   4.178  1.2551  3.1521  0.0651
 3298SOL    MW412960   1.043   2.344   4.219 -0.3027 -0.0245  0.6489
 3299SOL     OW12961   0.219   1.999   1.945 -0.2364  0.1630  0.0327
 3299SOL    HW212962   0.262   1.935   2.002  0.1777  1.0033  0.6959
 3299SOL    HW312963   0.243   1.972   1.857  1.1679  0.2371  0.3594
 3299SOL    MW412964   0.228   1.987   1.941  0.1210  0.0430 -0.1010
 3300SOL     OW12965   0.470   6.018   1.076  0.0467 -0.3536  0.0987
 3300SOL    HW212966   0.452   6.104   1.040 -0.4034  0.2101  1.5870
 3300SOL    HW312967   0.387   5.971   1.072 -0.4816  0.3403  1.9688
 3300SOL    MW412968   0.457   6.023   1.071 -0.3700 -0.0357 -0.0862
 3301SOL     OW12969   5.927   4.103   0.720 -0.0465 -0.0859  0.4488
 3301SOL    HW212970   5.968   4.187   0.740  1.4021 -0.7155  0.2353
 3301SOL    HW312971   5.834   4.118   0.736  0.2928  1.2765  1.3678
 3301SOL    MW412972   5.920   4.116   0.725  0.6223 -0.0755 -0.2929
 3302SOL     OW12973   3.912   3.500   6.045  0.8034  0.1160  0.1095
 3302SOL    HW212974   3.987   3.449   6.015  1.1717  0.7964 -0.1467
 3302SOL    HW312975   3.938   3.535   6.130  0.1848 -0.8947  0.7307
 3302SOL    MW412976   3.925   3.498   6.052 -0.2962  1.1430 -0.8665
 3303SOL     OW12977   0.708   1.085   6.099 -0.0922 -0.2213 -0.3353
 3303SOL    HW212978   0.778   1.094   6.164  0.3319 -1.8087 -0.5376
 3303SOL    HW312979   0.743   1.128   6.020 -0.2187  0.8416  0.1626
 3303SOL    MW412980   0.722   1.092   6.097  0.1307  0.1869  0.3793
 3304SOL     OW12981   3.165   0.810   3.057  0.0237 -0.3982 -0.0560
 3304SOL    HW212982   3.150   0.901   3.029  1.1737  1.1693  3.7907
 3304SOL    HW312983   3.253   0.790   3.026  1.1774  1.1873  2.0064
 3304SOL    MW412984   3.174   0.819   3.049 -0.1829  0.7657 -0.1383
 3305SOL     OW12985   4.172   2.887   2.898  0.1501  0.0359  0.1980
 3305SOL    HW212986   4.217   2.964   2.934  1.6925 -1.0614  0.6969
 3305SOL    HW312987   4.229   2.814   2.919  0.3143 -0.8885 -3.0565
 3305SOL    MW412988   4.185   2.888   2.906  0.2489 -0.1998  0.2727
 3306SOL     OW12989   4.791   4.750   5.772  0.0622  0.6434  0.6936
 3306SOL    HW212990   4.846   4.776   5.846 -0.6882 -0.4246  1.6628
 3306SOL    HW312991   4.715   4.808   5.777 -0.0001  0.5544  0.7663
 3306SOL    MW412992   4.789   4.761   5.782  0.0421 -0.0062  0.0307
 3307SOL     OW12993   2.418   0.099   3.565  0.3977 -0.1701 -0.0515
 3307SOL    HW212994   2.386   0.189   3.566 -1.4259 -0.6934  2.7507
 3307SOL    HW312995   2.496   0.101   3.621  1.1165 -0.1317 -1.0410
 3307SOL    MW412996   2.424   0.111   3.573 -0.1140 -0.1283 -0.0563
 3308SOL     OW12997   2.477   1.356   4.826  0.0804  0.2266  0.5016
 3308SOL    HW212998   2.401   1.392   4.872  0.9073  1.6164  0.8533
 3308SOL    HW312999   2.442   1.324   4.743 -0.8453  1.0846  0.5400
 3308SOL    MW413000   2.462   1.356   4.821  0.0354  0.3198 -0.0793
 3309SOL     OW13001   3.340   3.157   2.761  0.5590  0.6313 -0.0941
 3309SOL    HW213002   3.284   3.127   2.688 -0.1721 -0.4176  0.8601
 3309SOL    HW313003   3.425   3.119   2.742  0.2741  0.0373 -0.2257
 3309SOL    MW413004   3.344   3.148   2.749 -0.6009  0.4055  0.1642
 3310SOL     OW13005   4.666   1.681   6.374  0.3947 -0.4581  0.3236
 3310SOL    HW213006   4.737   1.721   6.324  1.3994 -0.5437  1.6463
 3310SOL    HW313007   4.691   1.693   6.465 -0.0002 -2.8143  0.7985
 3310SOL    MW413008   4.678   1.688   6.379 -0.4938  0.2081  0.5602
 3311SOL     OW13009   2.080   1.744   2.330  0.1918  0.3790  0.3330
 3311SOL    HW213010   2.123   1.830   2.332  0.9188  0.1850 -2.6161
 3311SOL    HW313011   2.141   1.688   2.283 -0.9162 -1.4025  0.9331
 3311SOL    MW413012   2.094   1.748   2.324  0.7455 -0.3988 -0.1039
 3312SOL     OW13013   5.665   1.790   5.227  0.1333 -0.4429  0.0652
 3312SOL    HW213014   5.609   1.731   5.277 -0.7396 -0.7173 -1.1745
 3312SOL    HW313015   5.607   1.829   5.162  1.3774 -0.8480 -1.3675
 3312SOL    MW413016   5.650   1.787   5.225  0.2644  0.1041  0.0463
 3313SOL     OW13017   3.187   1.735   3.825 -0.3997  0.2870  0.0832
 3313SOL    HW213018   3.119   1.709   3.888 -0.0226 -0.0195  0.3670
 3313SOL    HW313019   3.235   1.805   3.868 -0.4704  0.4354 -0.0775
 3313SOL    MW413020   3.184   1.740   3.839 -0.0565  0.2972 -0.2804
 3314SOL     OW13021   0.272   4.839   4.356 -0.3427  0.2981  0.4004
 3314SOL    HW213022   0.189   4.850   4.403  0.2002  1.8182  1.0646
 3314SOL    HW313023   0.250   4.783   4.282 -1.0342 -3.1988  2.9763
 3314SOL    MW413024   0.258   4.833   4.353 -0.0479 -0.4027  0.6771
 3315SOL     OW13025   5.560   1.555   1.205  0.5377  0.0342  0.3247
 3315SOL    HW213026   5.505   1.540   1.282  1.1619 -1.5651  0.5060
 3315SOL    HW313027   5.647   1.571   1.242  0.4761  1.1724 -0.0009
 3315SOL    MW413028   5.564   1.555   1.220 -0.7876  0.1720  0.2967
 3316SOL     OW13029   4.906   1.933   5.277 -0.0077  0.0124 -0.1995
 3316SOL    HW213030   4.837   1.866   5.268  0.3997 -0.2730 -1.3517
 3316SOL    HW313031   4.915   1.945   5.372 -2.1241  0.5725 -0.0063
 3316SOL    MW413032   4.898   1.925   5.288  0.7434 -0.1561  0.4927
 3317SOL     OW13033   4.001   3.668   3.373 -0.1614 -0.4814 -0.0915
 3317SOL    HW213034   4.095   3.687   3.380 -0.2562 -0.5770  3.2979
 3317SOL    HW313035   3.972   3.719   3.298  2.1294  1.7649  0.3925
 3317SOL    MW413036   4.010   3.677   3.364 -0.5602  0.1066  0.4972
 3318SOL     OW13037   1.885   5.677   4.549  0.1349 -0.0317  0.1195
 3318SOL    HW213038   1.830   5.610   4.588 -0.1995 -0.5763 -1.2486
 3318SOL    HW313039   1.870   5.755   4.603 -2.4378  0.0054 -0.5238
 3318SOL    MW413040   1.876   5.679   4.561  0.5826  0.6403  0.2602
 3319SOL     OW13041   4.815   3.272   6.137 -0.3149  0.8837  0.0223
 3319SOL    HW213042   4.884   3.227   6.088  0.4905 -0.0477  1.8919
 3319SOL    HW313043   4.734   3.249   6.091  0.2666 -1.0278 -0.1505
 3319SOL    MW413044   4.813   3.263   6.124 -0.1839 -1.0135  0.6293
 3320SOL     OW13045   2.424   5.293   4.735  0.3679  0.0662 -0.4978
 3320SOL    HW213046   2.438   5.376   4.689 -0.6098 -0.0419 -1.0309
 3320SOL    HW313047   2.502   5.281   4.788  0.6531  1.1840 -0.6402
 3320SOL    MW413048   2.436   5.302   4.736  0.2744  0.3168 -0.2929
 3321SOL     OW13049   3.547   3.124   2.355  0.4890 -0.2787 -0.4948
 3321SOL    HW213050   3.612   3.074   2.405 -1.8283 -0.0988  3.0306
 3321SOL    HW313051   3.492   3.057   2.314 -0.2940 -0.6402  1.0546
 3321SOL    MW413052   3.548   3.108   2.356 -0.3881  0.9027  0.5178
 3322SOL     OW13053   2.592   1.583   5.399  0.1444 -0.0214  0.8700
 3322SOL    HW213054   2.654   1.639   5.352 -0.9825  1.0686  0.6564
 3322SOL    HW313055   2.556   1.639   5.468  0.9480 -1.2740  2.3713
 3322SOL    MW413056   2.596   1.598   5.402  0.1782 -0.0641  0.2052
 3323SOL     OW13057   1.194   5.281   1.369  0.3905  0.2567  0.3031
 3323SOL    HW213058   1.175   5.247   1.457  0.6170 -0.3777  0.1175
 3323SOL    HW313059   1.203   5.375   1.381 -0.3544  0.2723  0.8270
 3323SOL    MW413060   1.193   5.289   1.382 -0.0998  0.0784  0.2605
 3324SOL     OW13061   2.981   3.359   0.211  0.3066 -0.4954 -0.4803
 3324SOL    HW213062   2.958   3.338   0.302 -1.2351 -1.6227 -1.0867
 3324SOL    HW313063   3.068   3.399   0.217 -0.7572  1.8075  1.7335
 3324SOL    MW413064   2.989   3.362   0.224 -0.2214 -0.4176 -0.0372
 3325SOL     OW13065   1.069   6.055   4.534  0.7658  0.0154  0.1502
 3325SOL    HW213066   1.118   6.126   4.493  0.3729  0.2648  0.1126
 3325SOL    HW313067   0.999   6.098   4.582  1.3997 -0.2494  1.3589
 3325SOL    MW413068   1.066   6.070   4.535  0.0506  0.1534  0.1748
 3326SOL     OW13069   1.073   2.664   1.671 -0.6744 -0.3996  0.0986
 3326SOL    HW213070   1.008   2.665   1.741 -0.1327 -2.3549  0.7023
 3326SOL    HW313071   1.041   2.599   1.609 -1.3964  1.6664 -1.7782
 3326SOL    MW413072   1.060   2.655   1.672  0.5280  0.1058  0.0209
 3327SOL     OW13073   0.182   2.755   0.962 -0.5796  0.4098 -0.2328
 3327SOL    HW213074   0.227   2.692   0.906 -0.1118  0.7836 -0.2901
 3327SOL    HW313075   0.166   2.708   1.044  2.2502  0.9869  0.7793
 3327SOL    MW413076   0.186   2.741   0.966  0.5137  0.0743  0.0999
 3328SOL     OW13077   3.538   0.961   0.140  0.6470  0.1439 -0.1721
 3328SOL    HW213078   3.458   0.913   0.120  1.0929 -0.6939 -0.0128
 3328SOL    HW313079   3.540   1.031   0.075  0.6649 -0.8787 -1.3371
 3328SOL    MW413080   3.528   0.964   0.128  0.4426 -0.4235 -0.4112
 3329SOL     OW13081   2.254   1.351   5.955  0.3606  0.2936  0.1133
 3329SOL    HW213082   2.308   1.361   5.876 -1.9756  0.2173 -1.5828
 3329SOL    HW313083   2.212   1.436   5.966  1.0655  0.4861  1.6751
 3329SOL    MW413084   2.256   1.364   5.946 -0.6530 -0.0850  0.0585
 3330SOL     OW13085   1.992   6.076   4.379 -0.4039 -0.2056 -0.1088
 3330SOL    HW213086   2.039   6.109   4.455 -1.8636  0.2798  0.6190
 3330SOL    HW313087   1.908   6.047   4.413 -1.5284  1.0037 -1.6769
 3330SOL    MW413088   1.987   6.077   4.393  0.7966 -0.2585 -0.5609
 3331SOL     OW13089   6.208   1.656   0.793 -0.2133 -0.1784 -0.1236
 3331SOL    HW213090   6.116   1.665   0.767  0.2866  0.1041 -1.8672
 3331SOL    HW313091   6.251   1.734   0.757  1.0585 -1.2408 -0.9692
 3331SOL    MW413092   6.201   1.668   0.785 -0.7546 -0.4309 -0.2812
 3332SOL     OW13093   0.091   3.178   0.629  0.1974 -0.8543 -0.3231
 3332SOL    HW213094   0.025   3.247   0.629 -0.5583 -1.5598 -0.6239
 3332SOL    HW313095   0.144   3.195   0.552  3.1338  2.2319  2.0648
 3332SOL    MW413096   0.089   3.189   0.619 -0.0250  0.5467  0.0981
 3333SOL     OW13097   0.225   0.970   2.300  0.0645 -0.2716 -0.9580
 3333SOL    HW213098   0.228   0.879   2.331 -1.4205  0.0040  0.1525
 3333SOL    HW313099   0.131   0.988   2.291  0.3855  0.5182 -3.2091
 3333SOL    MW413100   0.213   0.960   2.303 -0.5544 -0.2899 -0.1383
 3334SOL     OW13101   4.537   5.653   1.894 -0.2545 -0.1926 -0.0588
 3334SOL    HW213102   4.556   5.569   1.935 -0.3906 -1.0038 -1.5704
 3334SOL    HW313103   4.624   5.688   1.871 -0.2046  0.0397  0.4633
 3334SOL    MW413104   4.551   5.646   1.896  0.0634  0.0140  0.0368
 3335SOL     OW13105   4.428   3.328   1.013 -0.7530  0.0930 -0.2315
 3335SOL    HW213106   4.377   3.359   0.938  0.8143 -0.0183 -1.3797
 3335SOL    HW313107   4.518   3.356   0.995  0.0839 -1.9768  0.4491
 3335SOL    MW413108   4.433   3.336   1.001 -0.1060  0.3778 -0.1952
 3336SOL     OW13109   4.919   3.872   1.397  0.3265  0.2080 -0.1397
 3336SOL    HW213110   4.942   3.903   1.309  1.8009  0.9134  0.4716
 3336SOL    HW313111   4.919   3.776   1.389  1.7752  0.2261 -0.6167
 3336SOL    MW413112   4.922   3.863   1.384  0.3034  0.5138  0.0774
 3337SOL     OW13113   4.208   5.189   4.886  0.0274  0.2094  0.2774
 3337SOL    HW213114   4.122   5.168   4.851  0.4307  0.5804 -1.0304
 3337SOL    HW313115   4.230   5.116   4.944 -0.4011 -0.8255 -0.8169
 3337SOL    MW413116   4.200   5.177   4.889  0.2122 -0.6200 -0.1296
 3338SOL     OW13117   1.394   3.501   6.015  0.5229  0.0963  0.2149
 3338SOL    HW213118   1.357   3.419   5.982 -1.5904  0.7743  0.8065
 3338SOL    HW313119   1.434   3.542   5.938  0.1433 -0.7062 -0.4181
 3338SOL    MW413120   1.395   3.495   6.000  0.2824  0.2995 -0.1589
 3339SOL     OW13121   2.443   0.258   2.722 -0.1581  0.4184  0.3700
 3339SOL    HW213122   2.420   0.182   2.668  0.4303  1.4608 -1.4293
 3339SOL    HW313123   2.533   0.241   2.750  0.4254  0.9790 -1.0709
 3339SOL    MW413124   2.452   0.246   2.719  0.0064  0.0341  0.2020
 3340SOL     OW13125   5.596   5.737   0.784 -0.5338 -0.3128 -0.2624
 3340SOL    HW213126   5.533   5.809   0.781 -2.7353 -2.0949  0.7989
 3340SOL    HW313127   5.561   5.672   0.724 -0.8981 -2.2010  1.8785
 3340SOL    MW413128   5.583   5.738   0.775 -0.1175  0.1834  0.4013
 3341SOL     OW13129   0.785   2.807   3.878 -0.0113 -0.3369 -0.7445
 3341SOL    HW213130   0.781   2.898   3.905 -1.6226  0.0826 -2.1948
 3341SOL    HW313131   0.873   2.796   3.842  0.7804  0.1394  0.9534
 3341SOL    MW413132   0.796   2.817   3.876  0.1868  0.2045 -0.3563
 3342SOL     OW13133   5.377   3.008   5.999 -0.2242 -0.1010 -0.1160
 3342SOL    HW213134   5.309   2.966   6.051  0.5864 -0.8101  0.4015
 3342SOL    HW313135   5.376   3.100   6.028  0.8791 -0.6593  1.9773
 3342SOL    MW413136   5.368   3.015   6.010 -0.1242  0.5410 -0.2639
 3343SOL     OW13137   1.709   0.322   2.494 -0.4551 -0.4265 -0.2559
 3343SOL    HW213138   1.667   0.251   2.445 -0.1493 -0.6749 -0.1697
 3343SOL    HW313139   1.798   0.324   2.460 -0.9303  1.0638 -1.4715
 3343SOL    MW413140   1.715   0.313   2.483  0.4175 -0.3188  0.0544
 3344SOL     OW13141   1.650   4.896   6.353 -0.2659 -0.1516 -0.5481
 3344SOL    HW213142   1.578   4.926   6.298  0.4056  0.4821 -1.1068
 3344SOL    HW313143   1.615   4.902   6.442 -1.3949 -1.2962 -0.8917
 3344SOL    MW413144   1.636   4.901   6.358 -0.0146  0.5248 -0.4330
 3345SOL     OW13145   0.488   3.795   6.013 -0.2078  0.2852 -0.3133
 3345SOL    HW213146   0.570   3.844   6.004  0.4349 -0.6322  0.3522
 3345SOL    HW313147   0.500   3.718   5.958  0.1899 -0.8430  1.2712
 3345SOL    MW413148   0.500   3.791   6.005  0.2555 -0.0818  0.1135
 3346SOL     OW13149   0.020   1.067   0.801  0.2494  0.2065  0.5539
 3346SOL    HW213150   0.093   1.118   0.766 -0.6455  2.5456  1.8377
 3346SOL    HW313151  -0.056   1.097   0.752 -0.0237 -1.5494 -0.1532
 3346SOL    MW413152   0.020   1.078   0.790  0.3602 -0.2465 -0.0534
 3347SOL     OW13153   0.965   4.489   0.272  0.1663 -0.3347 -0.0026
 3347SOL    HW213154   0.914   4.420   0.230  0.0107  0.4690 -1.1854
 3347SOL    HW313155   0.984   4.551   0.202 -0.7709  1.4838  1.2814
 3347SOL    MW413156   0.961   4.488   0.257  0.4276  0.6695  0.0071
 3348SOL     OW13157   0.068   2.751   2.604 -0.3046 -0.0205  0.3006
 3348SOL    HW213158   0.036   2.679   2.550  0.0879 -0.4644  0.6473
 3348SOL    HW313159   0.129   2.710   2.665  1.8063  0.9245 -1.0397
 3348SOL    MW413160   0.072   2.736   2.605 -0.6653  0.1751 -0.0019
 3349SOL     OW13161   4.064   3.307   4.650 -0.1063  0.1253  0.2891
 3349SOL    HW213162   4.099   3.393   4.627 -0.5229  0.5758  1.3241
 3349SOL    HW313163   3.969   3.316   4.639 -0.0208 -1.1214 -2.6215
 3349SOL    MW413164   4.056   3.320   4.645  0.3755  0.0009 -0.5340
 3350SOL     OW13165   1.328   3.081   4.400  0.0289 -0.1002  0.0828
 3350SOL    HW213166   1.315   3.174   4.419 -2.1758 -0.0428 -1.3370
 3350SOL    HW313167   1.260   3.037   4.451  1.1271 -0.9912  0.8312
 3350SOL    MW413168   1.318   3.088   4.409 -0.5145 -0.5338  0.0796
 3351SOL     OW13169   0.650   0.163   4.087  0.1332  0.4005  0.4566
 3351SOL    HW213170   0.565   0.144   4.047  0.3923  0.9531 -0.3714
 3351SOL    HW313171   0.631   0.172   4.181 -0.4527 -1.1136  0.5196
 3351SOL    MW413172   0.637   0.162   4.094 -0.8082  0.4020 -0.7090
 3352SOL     OW13173   5.012   4.727   5.614 -0.3436  0.1775 -0.3670
 3352SOL    HW213174   4.949   4.705   5.682 -0.2973 -1.4069 -0.7885
 3352SOL    HW313175   4.963   4.719   5.532  0.2536 -0.5715 -0.6684
 3352SOL    MW413176   4.997   4.723   5.612 -0.3476 -0.2951 -0.1304
 3353SOL     OW13177   4.683   1.835   2.790  0.1050 -0.3453  0.0010
 3353SOL    HW213178   4.717   1.828   2.879  1.7927  2.7465 -0.2705
 3353SOL    HW313179   4.760   1.848   2.736 -1.0611 -0.0882 -1.6548
 3353SOL    MW413180   4.698   1.836   2.795 -0.0158  0.1680 -0.4114
 3354SOL     OW13181   0.175   2.494   3.876 -0.0563 -0.2597  0.4930
 3354SOL    HW213182   0.105   2.440   3.840  0.5907 -0.7958 -0.0024
 3354SOL    HW313183   0.250   2.435   3.882  1.5165  1.1776 -2.6568
 3354SOL    MW413184   0.176   2.479   3.872 -0.0411 -0.4008  0.2524
 3355SOL     OW13185   2.698   3.122   0.762 -0.1310  0.2665 -0.7680
 3355SOL    HW213186   2.756   3.173   0.818  3.3176 -0.4382 -3.3732
 3355SOL    HW313187   2.693   3.036   0.804  1.8857 -0.0644 -1.1267
 3355SOL    MW413188   2.705   3.118   0.775  0.0944 -0.5960  0.0442
 3356SOL     OW13189   2.064   0.423   4.341  0.0603 -0.2410  0.0473
 3356SOL    HW213190   2.093   0.348   4.289  2.4476 -1.0606  2.3436
 3356SOL    HW313191   2.141   0.447   4.393 -1.8336  1.2236  2.3633
 3356SOL    MW413192   2.078   0.417   4.341  0.2500 -0.1988 -0.2230
 3357SOL     OW13193   5.708   4.204   2.600 -0.0215  0.4346 -0.3852
 3357SOL    HW213194   5.672   4.191   2.513  0.5633  2.4791 -0.9756
 3357SOL    HW313195   5.645   4.261   2.645 -0.0376 -0.1423  0.3515
 3357SOL    MW413196   5.695   4.210   2.595  0.4838 -0.3397 -0.3009
 3358SOL     OW13197   5.426   2.604   3.774 -0.4067 -0.8283 -0.6730
 3358SOL    HW213198   5.336   2.608   3.808 -0.8063 -1.3493 -1.6149
 3358SOL    HW313199   5.450   2.512   3.784 -0.2222 -0.8168 -1.0217
 3358SOL    MW413200   5.417   2.592   3.780  0.2762 -0.1347 -0.0151
 3359SOL     OW13201   1.681   0.373   4.002 -0.3290 -0.0962 -0.2719
 3359SOL    HW213202   1.775   0.387   4.001 -0.2011 -0.8778 -0.9066
 3359SOL    HW313203   1.656   0.376   4.094  0.4788 -0.8808 -0.0209
 3359SOL    MW413204   1.690   0.375   4.014 -0.2379  0.5230  0.2663
 3360SOL     OW13205   3.096   4.488   2.242  0.5020  0.0964  0.1172
 3360SOL    HW213206   3.102   4.405   2.196  1.1835 -0.8982  1.9218
 3360SOL    HW313207   3.084   4.465   2.334 -1.2293  2.0114  0.4590
 3360SOL    MW413208   3.096   4.474   2.248 -0.0464  0.2253 -0.3307
 3361SOL     OW13209   0.768   0.573   4.378 -0.2483  0.4347 -0.2088
 3361SOL    HW213210   0.724   0.585   4.462  0.7571  1.2158  0.2235
 3361SOL    HW313211   0.815   0.655   4.363 -0.5696  0.3776 -1.6359
 3361SOL    MW413212   0.769   0.585   4.387 -0.1952 -0.4481 -0.4918
 3362SOL     OW13213   5.986   4.666   3.061 -0.0902  0.0694  0.4333
 3362SOL    HW213214   5.989   4.757   3.030  0.5849 -0.2581 -0.5176
 3362SOL    HW313215   5.895   4.653   3.088 -0.5670  0.6007 -0.8050
 3362SOL    MW413216   5.975   4.677   3.060 -0.6151 -0.2287 -0.4273
 3363SOL     OW13217   2.133   4.247   5.789  0.9240  0.2474 -0.4823
 3363SOL    HW213218   2.052   4.202   5.769  1.9209 -2.9482  1.8202
 3363SOL    HW313219   2.110   4.340   5.788 -2.9350 -0.5150  0.7240
 3363SOL    MW413220   2.120   4.253   5.786 -0.2551 -0.2735 -0.2200
 3364SOL     OW13221   4.368   3.071   2.979 -0.0042 -0.4156  0.3833
 3364SOL    HW213222   4.417   3.122   2.914 -1.7020  0.4605 -0.2657
 3364SOL    HW313223   4.435   3.016   3.021  1.0442 -1.7975 -2.7840
 3364SOL    MW413224   4.384   3.070   2.976 -0.1868  0.2877  0.1954
 3365SOL     OW13225   4.933   3.988   5.334 -0.1884 -0.3509 -0.5177
 3365SOL    HW213226   4.870   3.918   5.316 -1.3211  0.3064  0.6822
 3365SOL    HW313227   5.018   3.949   5.314 -0.8856 -1.6304 -1.1397
 3365SOL    MW413228   4.936   3.973   5.329  0.0454  0.4114  0.1292
 3366SOL     OW13229   4.034   4.170   2.231 -0.1982  0.1181  0.2433
 3366SOL    HW213230   3.947   4.130   2.227 -1.7187  3.1119  0.1549
 3366SOL    HW313231   4.059   4.166   2.323 -1.4541  1.0934  0.6499
 3366SOL    MW413232   4.026   4.164   2.243  0.8783 -0.4092 -0.1902
 3367SOL     OW13233   3.354   5.342   2.930 -0.2788  0.0611 -0.1005
 3367SOL    HW213234   3.421   5.409   2.940 -1.2970  1.2847 -1.0497
 3367SOL    HW313235   3.334   5.313   3.019 -0.9932  2.2590  0.5094
 3367SOL    MW413236   3.360   5.347   2.943 -0.0676 -0.1350  0.1430
 3368SOL     OW13237   2.839   4.947   3.540 -0.0170 -0.6104  0.4087
 3368SOL    HW213238   2.917   4.998   3.516 -0.8173  0.2816 -0.3767
 3368SOL    HW313239   2.873   4.877   3.596  1.3515 -0.2539  0.0726
 3368SOL    MW413240   2.854   4.944   3.544  0.2794  0.4340 -0.1786
 3369SOL     OW13241   3.010   0.730   3.470 -0.0929 -0.2705 -0.1844
 3369SOL    HW213242   2.968   0.670   3.532 -1.4995  0.8489  0.0198
 3369SOL    HW313243   2.989   0.694   3.384  0.4194 -0.9199 -0.0396
 3369SOL    MW413244   3.002   0.717   3.467 -0.0750 -0.0783  0.1958
 3370SOL     OW13245   4.316   5.011   1.664 -0.1407  0.0439  0.3374
 3370SOL    HW213246   4.266   4.945   1.713 -0.9066 -1.4969 -2.3232
 3370SOL    HW313247   4.250   5.059   1.614  0.7556  0.0624 -0.8784
 3370SOL    MW413248   4.301   5.009   1.664 -0.2495  0.4590 -0.0302
 3371SOL     OW13249   3.871   0.588   1.372  0.1436 -0.3430 -0.2002
 3371SOL    HW213250   3.954   0.633   1.358 -0.1951  0.8873  1.4161
 3371SOL    HW313251   3.874   0.513   1.312  2.3490 -0.2803 -0.2587
 3371SOL    MW413252   3.882   0.584   1.362 -0.1850  0.2851 -0.3136
 3372SOL     OW13253   6.150   1.867   4.876  0.3271  0.2621  0.2863
 3372SOL    HW213254   6.159   1.929   4.803  0.8277 -0.5506 -0.3496
 3372SOL    HW313255   6.127   1.784   4.835  1.9224 -0.5307  0.9210
 3372SOL    MW413256   6.148   1.865   4.861  0.0460 -0.1429  0.5640
 3373SOL     OW13257   5.223   3.134   3.932 -0.5063 -0.3741  0.2543
 3373SOL    HW213258   5.185   3.081   3.863 -0.0933 -0.5535  0.1668
 3373SOL    HW313259   5.155   3.137   4.000 -0.7058 -0.6272  0.0659
 3373SOL    MW413260   5.209   3.128   3.932  0.0212 -0.0688 -0.3017
 3374SOL     OW13261   4.601   1.745   1.776 -0.4490  0.3852  0.3264
 3374SOL    HW213262   4.650   1.785   1.704 -1.4059  0.5584 -0.2441
 3374SOL    HW313263   4.530   1.697   1.733  0.9336 -2.4005  0.9547
 3374SOL    MW413264   4.598   1.744   1.761 -0.4037 -0.0806  0.0157
 3375SOL     OW13265   3.074   4.717   1.107 -0.8157  0.1463  0.1054
 3375SOL    HW213266   3.139   4.655   1.140 -0.4723  1.3794  1.8867
 3375SOL    HW313267   2.992   4.667   1.107 -0.6794 -0.1512  2.1884
 3375SOL    MW413268   3.072   4.702   1.111 -0.5080  0.0482 -0.5573
 3376SOL     OW13269   2.180   5.277   0.638  0.0587  0.1239  0.3178
 3376SOL    HW213270   2.112   5.258   0.573 -0.7037  0.4566  0.9972
 3376SOL    HW313271   2.214   5.191   0.662  0.0997 -0.0244 -0.2657
 3376SOL    MW413272   2.175   5.263   0.632 -0.0389 -0.4716 -0.8618
 3377SOL     OW13273   0.511   3.521   0.528  0.1804 -0.2662  0.2445
 3377SOL    HW213274   0.490   3.581   0.600  2.0507  1.2903 -0.4061
 3377SOL    HW313275   0.603   3.499   0.541  0.4862 -0.1627 -1.4809
 3377SOL    MW413276   0.521   3.526   0.539  0.1542  0.4546  0.1773
 3378SOL     OW13277   1.041   2.852   5.932  0.2859  0.6534 -0.3798
 3378SOL    HW213278   0.954   2.885   5.952  0.6459  1.4333 -0.0690
 3378SOL    HW313279   1.101   2.912   5.977  0.9811  0.0592 -0.4857
 3378SOL    MW413280   1.037   2.864   5.941 -0.0991  0.2885 -0.6102
 3379SOL     OW13281   1.336   2.669   4.992 -0.0361 -0.4327  0.2038
 3379SOL    HW213282   1.393   2.745   4.978  0.2862 -0.7363 -0.1696
 3379SOL    HW313283   1.369   2.603   4.931  0.4416 -1.2807  1.3405
 3379SOL    MW413284   1.348   2.671   4.982 -0.4294  0.2965 -0.1149
 3380SOL     OW13285   2.576   4.880   3.877 -0.0312  0.1511  0.1724
 3380SOL    HW213286   2.572   4.950   3.813  0.3176  0.1280  0.1219
 3380SOL    HW313287   2.668   4.853   3.877 -0.2351 -0.5625 -0.0832
 3380SOL    MW413288   2.587   4.885   3.869 -0.2296 -0.1537 -0.0530
 3381SOL     OW13289   2.740   0.252   1.786 -0.1202 -0.6394 -0.1858
 3381SOL    HW213290   2.759   0.169   1.830  0.2654 -0.4616 -0.0085
 3381SOL    HW313291   2.765   0.319   1.850 -0.4654 -0.3864 -0.3122
 3381SOL    MW413292   2.746   0.250   1.800 -0.5194  0.4640  0.3534
 3382SOL     OW13293   6.139   5.279   3.009 -0.5810 -0.3592  0.6077
 3382SOL    HW213294   6.214   5.321   2.968 -1.2035  0.2341  0.0481
 3382SOL    HW313295   6.137   5.314   3.098 -1.3153  1.1293  0.0347
 3382SOL    MW413296   6.149   5.289   3.015  0.3538 -0.2873  0.1804
 3383SOL     OW13297   5.811   2.958   3.790 -0.3643 -0.4794 -0.1018
 3383SOL    HW213298   5.877   2.932   3.855 -0.3568 -2.7695 -0.9211
 3383SOL    HW313299   5.727   2.941   3.833 -0.5191  2.3563  0.9094
 3383SOL    MW413300   5.809   2.952   3.805 -0.4900  0.6838 -0.2872
 3384SOL     OW13301   2.750   0.181   4.149  0.2026  0.1889  0.3639
 3384SOL    HW213302   2.679   0.169   4.086  0.2113  0.0786  0.3745
 3384SOL    HW313303   2.710   0.226   4.223 -0.1708 -1.0280  0.9321
 3384SOL    MW413304   2.736   0.185   4.151 -0.6869  0.3609  0.3000
 3385SOL     OW13305   0.302   5.632   2.496 -0.2232  0.6464 -0.1541
 3385SOL    HW213306   0.236   5.635   2.426 -0.8413  0.7717  0.4293
 3385SOL    HW313307   0.262   5.680   2.568  0.1014 -0.1217  0.5478
 3385SOL    MW413308   0.288   5.638   2.496  0.2244 -0.7212 -0.1589
 3386SOL     OW13309   0.302   1.100   1.394  0.3961  0.6486 -0.1489
 3386SOL    HW213310   0.346   1.166   1.342 -1.3459  1.1582 -1.0401
 3386SOL    HW313311   0.336   1.016   1.361  0.0881  0.9997 -1.3971
 3386SOL    MW413312   0.312   1.097   1.383  0.0677  0.2168  0.7386
 3387SOL     OW13313   1.318   1.207   3.682 -0.0729 -0.4221  0.1229
 3387SOL    HW213314   1.319   1.124   3.729 -2.3787 -1.2624 -1.1837
 3387SOL    HW313315   1.232   1.211   3.640  1.3269  0.8990 -2.9337
 3387SOL    MW413316   1.307   1.197   3.683  0.3576  0.8643  0.5691
 3388SOL     OW13317   5.050   0.123   1.727 -0.3545 -0.2807  0.0846
 3388SOL    HW213318   5.015   0.055   1.670 -2.0270  0.3774  0.2723
 3388SOL    HW313319   5.093   0.184   1.668  0.9290 -1.3399 -0.1098
 3388SOL    MW413320   5.051   0.122   1.712  0.0374 -0.0662 -0.0684
 3389SOL     OW13321   1.316   3.485   0.232  0.5489  0.3112 -0.2842
 3389SOL    HW213322   1.317   3.534   0.150 -0.2134 -0.5582 -0.8412
 3389SOL    HW313323   1.310   3.393   0.204 -0.6992  0.0490  0.7373
 3389SOL    MW413324   1.315   3.479   0.217 -0.2960  0.3197  0.5665
 3390SOL     OW13325   2.162   0.460   5.423  0.3262 -0.2273  0.1632
 3390SOL    HW213326   2.223   0.534   5.426  2.3280 -1.8132  1.5808
 3390SOL    HW313327   2.130   0.451   5.513 -0.0097 -0.9955 -0.0250
 3390SOL    MW413328   2.166   0.469   5.435 -0.0513 -0.3885  0.0727
 3391SOL     OW13329   6.205   4.333   3.575 -0.2101  0.4799 -0.0786
 3391SOL    HW213330   6.206   4.395   3.502 -1.8570 -0.4099 -0.9120
 3391SOL    HW313331   6.297   4.307   3.585 -0.1477 -1.1936 -3.5077
 3391SOL    MW413332   6.217   4.338   3.567 -0.6028 -0.4358 -0.1763
 3392SOL     OW13333   3.576   0.277   1.885  0.1067  0.3103  0.2469
 3392SOL    HW213334   3.557   0.253   1.976  0.6313  0.4049  0.3818
 3392SOL    HW313335   3.525   0.356   1.870  1.1831  1.1539  0.9349
 3392SOL    MW413336   3.566   0.284   1.895  0.3051 -0.1486 -0.3695
 3393SOL     OW13337   1.097   4.943   0.400  0.0205  0.4106  0.1012
 3393SOL    HW213338   1.146   4.875   0.448  0.1636  0.2522 -0.2621
 3393SOL    HW313339   1.127   4.934   0.310 -2.6887 -1.5472 -0.7197
 3393SOL    MW413340   1.108   4.933   0.395  1.0518  0.1374  0.6360
 3394SOL     OW13341   2.492   5.046   5.312  0.1371  0.2268  0.3207
 3394SOL    HW213342   2.496   4.954   5.284  0.1651  0.2568  0.2260
 3394SOL    HW313343   2.584   5.075   5.314  0.2474 -0.1337  1.6420
 3394SOL    MW413344   2.505   5.038   5.309 -0.4047  0.3518  0.6208
 3395SOL     OW13345   2.659   0.018   1.939 -0.5311 -0.7757  0.1754
 3395SOL    HW213346   2.604   0.060   2.005  0.9115  1.6357 -0.0167
 3395SOL    HW313347   2.604   0.011   1.862 -1.0103  0.2401  0.4143
 3395SOL    MW413348   2.645   0.022   1.938  0.4630  0.2254 -0.4512
 3396SOL     OW13349   5.679   4.380   5.355  0.2724  0.0122  0.2723
 3396SOL    HW213350   5.628   4.299   5.355 -0.7332  0.6179 -0.6251
 3396SOL    HW313351   5.753   4.362   5.297 -1.4431  0.5836 -2.2428
 3396SOL    MW413352   5.682   4.367   5.347  0.5027 -0.1874 -0.2616
 3397SOL     OW13353   4.194   5.978   3.476 -0.0857 -0.0303  0.1847
 3397SOL    HW213354   4.285   5.971   3.505 -0.1692  2.5418  1.3306
 3397SOL    HW313355   4.145   5.923   3.536  0.7420 -2.4153 -1.1638
 3397SOL    MW413356   4.200   5.970   3.488  0.3895  0.5493  0.0229
 3398SOL     OW13357   3.335   4.505   4.271  0.4528  0.1196  0.3191
 3398SOL    HW213358   3.423   4.496   4.305  0.9582 -0.1141 -1.0042
 3398SOL    HW313359   3.299   4.416   4.272  1.0264 -0.1617 -1.1482
 3398SOL    MW413360   3.342   4.492   4.275  0.6246  0.4800  0.4995
 3399SOL     OW13361   5.195   1.124   0.016  0.0408  0.3851  0.2424
 3399SOL    HW213362   5.175   1.141   0.108  1.1593 -1.0485  0.7920
 3399SOL    HW313363   5.111   1.101  -0.023 -0.3217  0.2034  1.1072
 3399SOL    MW413364   5.181   1.123   0.023 -0.3175 -0.0584 -0.5912
 3400SOL     OW13365   1.286   2.719   2.541  0.0779 -0.6600  0.4886
 3400SOL    HW213366   1.310   2.809   2.565  0.3969 -0.2461 -1.2253
 3400SOL    HW313367   1.245   2.683   2.619  1.0173  0.5852  1.5950
 3400SOL    MW413368   1.284   2.726   2.554 -0.1147  0.0889  0.2586
 3401SOL     OW13369   3.379   4.967   4.792 -0.1612 -0.4999 -0.0754
 3401SOL    HW213370   3.418   5.053   4.779  0.5845 -0.3938  2.3318
 3401SOL    HW313371   3.421   4.933   4.871 -3.1125 -1.4602  1.2584
 3401SOL    MW413372   3.389   4.973   4.801  0.3170  0.4751  0.0385
 3402SOL     OW13373   2.821   1.511   3.570 -0.5436 -0.3488 -0.3249
 3402SOL    HW213374   2.884   1.565   3.523 -0.6754  0.5815  0.5306
 3402SOL    HW313375   2.866   1.427   3.582 -0.4804 -0.5844 -1.9976
 3402SOL    MW413376   2.835   1.507   3.566  0.6026  0.0005  0.1121
 3403SOL     OW13377   5.473   3.883   2.072 -0.1297  0.2431 -0.0368
 3403SOL    HW213378   5.426   3.837   2.003  0.4190 -0.7065  0.2015
 3403SOL    HW313379   5.426   3.860   2.153  0.9954 -1.1483  0.2734
 3403SOL    MW413380   5.460   3.874   2.074  0.4501  0.0675  0.5676
 3404SOL     OW13381   1.180   4.660   5.684 -0.3476 -0.4910 -0.4536
 3404SOL    HW213382   1.124   4.680   5.609  0.7514  1.7662 -0.7545
 3404SOL    HW313383   1.259   4.713   5.670  0.9008 -1.8351  1.1065
 3404SOL    MW413384   1.183   4.670   5.672 -0.0889  0.0343  0.3427
 3405SOL     OW13385   6.143   5.718   4.246  0.1519  0.0318 -0.2259
 3405SOL    HW213386   6.229   5.679   4.263  0.2602 -0.4504 -1.7315
 3405SOL    HW313387   6.162   5.810   4.228  0.5622 -0.3348 -1.8902
 3405SOL    MW413388   6.157   5.725   4.246  0.0607 -0.1279  0.2391
 3406SOL     OW13389   4.640   4.609   4.366 -0.0476 -0.4104 -0.4253
 3406SOL    HW213390   4.563   4.625   4.311  1.5778 -0.5751 -2.8766
 3406SOL    HW313391   4.689   4.691   4.364  0.0500 -0.4184  0.8443
 3406SOL    MW413392   4.636   4.622   4.359  0.5602 -0.4450  0.5937
 3407SOL     OW13393   2.981   0.423   5.125 -0.0168  0.5300 -0.1439
 3407SOL    HW213394   2.989   0.378   5.209  0.8219  0.7944 -0.0711
 3407SOL    HW313395   3.000   0.355   5.060 -1.2562  0.1785 -0.1620
 3407SOL    MW413396   2.985   0.408   5.128 -0.1458  0.1151  0.5525
 3408SOL     OW13397   1.363   2.945   2.675 -0.0977 -0.2529  0.3229
 3408SOL    HW213398   1.410   2.899   2.745 -1.2493 -0.8776  0.7253
 3408SOL    HW313399   1.298   2.998   2.721 -0.1968  0.1209 -0.2364
 3408SOL    MW413400   1.360   2.946   2.690  0.6461 -0.2589  0.4851
 3409SOL     OW13401   3.549   1.646   3.687 -0.1416 -0.1404 -0.2456
 3409SOL    HW213402   3.515   1.675   3.602 -0.9234 -0.3763 -0.0204
 3409SOL    HW313403   3.627   1.594   3.666 -0.5258 -0.4841 -0.8370
 3409SOL    MW413404   3.555   1.643   3.673  0.6318 -0.7454  0.3110
 3410SOL     OW13405   1.039   6.360   6.316  0.7850 -0.0527  0.1154
 3410SOL    HW213406   1.075   6.295   6.256  0.0739  0.1632 -0.5712
 3410SOL    HW313407   1.029   6.439   6.262 -0.6039 -0.0885  0.2909
 3410SOL    MW413408   1.042   6.362   6.301  0.5383  0.1190  0.2192
 3411SOL     OW13409   3.856   2.344   0.917  0.3741  0.0588  0.1987
 3411SOL    HW213410   3.950   2.333   0.925  0.3538  0.1130  0.5065
 3411SOL    HW313411   3.839   2.341   0.823  0.5266 -1.2785  0.1970
 3411SOL    MW413412   3.866   2.342   0.906  0.3580 -0.4377  0.2965
 3412SOL     OW13413   3.030   4.102   0.559 -0.2215  0.0987 -0.3539
 3412SOL    HW213414   2.936   4.115   0.549 -0.3745 -1.9473 -2.6561
 3412SOL    HW313415   3.038   4.015   0.596  0.7629  0.0154 -0.7375
 3412SOL    MW413416   3.019   4.092   0.563  0.0789  0.1894  0.7855
 3413SOL     OW13417   1.229   3.237   0.638  0.2814 -0.2452  0.1328
 3413SOL    HW213418   1.247   3.329   0.619 -1.1567  0.0237 -0.0914
 3413SOL    HW313419   1.173   3.239   0.716  0.0862 -0.9090  0.0184
 3413SOL    MW413420   1.224   3.249   0.646 -0.3130 -0.4235 -0.2943
 3414SOL     OW13421   6.277   0.525   3.083  0.8548 -0.8717 -0.7265
 3414SOL    HW213422   6.196   0.568   3.111  2.1604  0.7772  0.7895
 3414SOL    HW313423   6.273   0.439   3.123  0.2092 -0.5074  0.0347
 3414SOL    MW413424   6.266   0.520   3.092  0.4732  0.3366 -0.2555
 3415SOL     OW13425   1.740   4.671   3.051  0.1627  0.4541  0.2079
 3415SOL    HW213426   1.727   4.578   3.030  1.3765 -0.0507  1.5340
 3415SOL    HW313427   1.687   4.685   3.130  0.4390  0.7435  0.3418
 3415SOL    MW413428   1.731   4.660   3.059  0.2494  0.3164  0.2973
 3416SOL     OW13429   1.378   0.218   3.786  0.6047  0.0217 -0.4783
 3416SOL    HW213430   1.324   0.141   3.766 -0.4195  0.5292  0.2146
 3416SOL    HW313431   1.460   0.182   3.819  0.4392 -0.7724 -0.9019
 3416SOL    MW413432   1.382   0.203   3.788 -0.8615  0.4424  0.6557
 3417SOL     OW13433   1.052   3.566   5.720 -0.9321  0.1910 -0.3661
 3417SOL    HW213434   1.108   3.568   5.798  0.3762 -1.7381 -1.1733
 3417SOL    HW313435   1.010   3.480   5.723 -2.5896  0.9579 -0.6826
 3417SOL    MW413436   1.054   3.555   5.731 -0.3107  0.0519  0.1287
 3418SOL     OW13437   5.967   3.946   4.865 -0.1541  0.0370 -0.2912
 3418SOL    HW213438   5.874   3.930   4.883  0.0775 -0.4011  0.5522
 3418SOL    HW313439   6.013   3.911   4.941  0.6587  0.9980 -0.3202
 3418SOL    MW413440   5.961   3.939   4.877  0.1056 -0.5328  0.2121
 3419SOL     OW13441   4.174   5.769   0.386  0.2987  0.3449 -0.2889
 3419SOL    HW213442   4.119   5.848   0.390 -0.0106  0.0922  0.5356
 3419SOL    HW313443   4.231   5.776   0.462 -1.4391 -1.4571  1.2861
 3419SOL    MW413444   4.174   5.780   0.396  0.0530 -0.0136 -0.1264
 3420SOL     OW13445   3.495   2.467   4.530  0.3473  0.4473  0.5612
 3420SOL    HW213446   3.499   2.437   4.439 -0.0096 -0.1509  0.7353
 3420SOL    HW313447   3.409   2.509   4.537  0.8433  1.5218  0.3201
 3420SOL    MW413448   3.484   2.469   4.519  0.3954  0.2016  0.4396
 3421SOL     OW13449   0.230   6.033   1.355  0.2850 -0.0727  0.1942
 3421SOL    HW213450   0.261   5.956   1.308  2.0664 -0.0495  1.2442
 3421SOL    HW313451   0.305   6.062   1.406 -1.6285 -0.3945  3.4597
 3421SOL    MW413452   0.244   6.027   1.355 -0.2309  0.0201 -0.2040
 3422SOL     OW13453   5.133   5.849   2.834  0.5848 -0.3489 -0.3118
 3422SOL    HW213454   5.106   5.922   2.889  0.9959 -0.9051  0.6460
 3422SOL    HW313455   5.217   5.877   2.797  1.2542 -0.7467  0.8787
 3422SOL    MW413456   5.140   5.863   2.836  0.2161 -0.6410 -0.2693
 3423SOL     OW13457   4.481   0.932   5.338  0.0483 -0.0920  0.4536
 3423SOL    HW213458   4.492   0.862   5.402  0.3838 -0.0526  0.4422
 3423SOL    HW313459   4.434   1.001   5.385 -1.1090 -0.6832  0.2003
 3423SOL    MW413460   4.476   0.932   5.352 -0.2534  0.0025 -0.0714
 3424SOL     OW13461   5.505   5.151   4.095  0.0680 -0.0270 -0.0373
 3424SOL    HW213462   5.551   5.073   4.124  0.9338 -0.0626 -1.4197
 3424SOL    HW313463   5.415   5.122   4.080  0.0520 -0.4179  0.7609
 3424SOL    MW413464   5.499   5.137   4.097 -0.2547 -0.0441 -0.8375
 3425SOL     OW13465   3.534   2.918   0.364 -0.1401  0.4728 -0.4703
 3425SOL    HW213466   3.469   2.987   0.353 -1.2644 -0.5871 -0.6576
 3425SOL    HW313467   3.483   2.840   0.383  1.1853  0.0558  1.7676
 3425SOL    MW413468   3.519   2.917   0.365  0.3266 -0.1937  0.0041
 3426SOL     OW13469   6.245   5.094   5.845 -0.6490  0.3074 -0.1998
 3426SOL    HW213470   6.264   5.169   5.789  2.3255 -0.8255 -0.9428
 3426SOL    HW313471   6.305   5.104   5.920  0.0995 -1.4459 -0.5077
 3426SOL    MW413472   6.256   5.105   5.848  0.0468  0.0534  0.0950
 3427SOL     OW13473   1.400   1.785   4.121  0.0963 -0.2450 -0.0598
 3427SOL    HW213474   1.490   1.762   4.145 -0.3497 -0.6472  1.3215
 3427SOL    HW313475   1.364   1.825   4.201 -0.5783  1.0334 -0.9784
 3427SOL    MW413476   1.407   1.787   4.135 -0.3755 -0.2876 -0.1564
 3428SOL     OW13477   2.864   3.625   0.260  0.1321  0.3210 -0.0348
 3428SOL    HW213478   2.788   3.601   0.312 -0.4543 -1.1431 -1.4692
 3428SOL    HW313479   2.894   3.542   0.222  1.3811  1.1243 -0.8782
 3428SOL    MW413480   2.858   3.610   0.262  0.4658 -0.5067 -0.1253
 3429SOL     OW13481   0.537   1.304   2.647  0.0441 -0.7461  0.2433
 3429SOL    HW213482   0.469   1.245   2.679 -0.8880 -0.9959 -2.0201
 3429SOL    HW313483   0.607   1.296   2.711 -1.5445 -1.4304  1.9898
 3429SOL    MW413484   0.537   1.295   2.659  0.7499  0.6828 -0.1003
 3430SOL     OW13485   5.829   3.839   5.596 -0.5019 -0.0359  0.6453
 3430SOL    HW213486   5.909   3.891   5.587  1.0505 -2.3785 -0.0047
 3430SOL    HW313487   5.815   3.834   5.691 -0.8644  1.7144  0.7234
 3430SOL    MW413488   5.838   3.845   5.607  0.1879 -0.0247  0.5121
 3431SOL     OW13489   4.641   1.299   3.866  0.5821 -0.2967  0.1731
 3431SOL    HW213490   4.628   1.387   3.830  0.2035 -0.5082 -0.2244
 3431SOL    HW313491   4.661   1.314   3.958  2.0157  0.2798 -0.2039
 3431SOL    MW413492   4.642   1.313   3.873  0.1784 -0.4872 -0.3190
 3432SOL     OW13493   5.742   3.184   5.060 -0.0480  0.4842 -0.1729
 3432SOL    HW213494   5.816   3.158   5.115  0.8850  3.2493  0.0158
 3432SOL    HW313495   5.780   3.241   4.994 -1.8567  1.1275 -0.7082
 3432SOL    MW413496   5.757   3.188   5.059 -0.2841  0.2838 -0.0398
 3433SOL     OW13497   5.326   4.782   2.031 -0.0594 -0.3357  0.0003
 3433SOL    HW213498   5.324   4.722   1.957 -0.9070 -0.3993  0.0713
 3433SOL    HW313499   5.382   4.854   2.001 -1.5014  0.3172 -1.2390
 3433SOL    MW413500   5.333   4.784   2.017 -0.0705 -0.6470 -0.2264
 3434SOL     OW13501   6.364   2.355   3.809  0.0954  0.3769  0.3687
 3434SOL    HW213502   6.324   2.316   3.887 -0.2119  1.8781  1.0022
 3434SOL    HW313503   6.377   2.282   3.750 -1.4912 -0.5223  1.0534
 3434SOL    MW413504   6.360   2.340   3.812  0.2354 -0.7556 -0.4790
 3435SOL     OW13505   4.244   1.398   3.303  0.0604 -0.1663 -0.2321
 3435SOL    HW213506   4.150   1.413   3.294  0.1929  0.2025 -1.0828
 3435SOL    HW313507   4.251   1.330   3.371 -0.7392  0.7152  0.7598
 3435SOL    MW413508   4.233   1.391   3.311 -0.1901 -0.9868  0.2242
 3436SOL     OW13509   0.425   6.214   4.465  0.2066  0.2862 -0.0337
 3436SOL    HW213510   0.402   6.143   4.525  0.9203  0.1367  0.0776
 3436SOL    HW313511   0.437   6.170   4.380  1.6840  0.0705  0.2430
 3436SOL    MW413512   0.424   6.199   4.461  0.0918 -0.2866  0.6631
 3437SOL     OW13513   6.200   3.364   3.651 -0.1102 -0.0092  0.1780
 3437SOL    HW213514   6.196   3.320   3.566 -1.9685  2.6085 -1.2468
 3437SOL    HW313515   6.110   3.360   3.683  0.3423  0.0730  1.5137
 3437SOL    MW413516   6.187   3.357   3.644 -0.3835  0.1964  0.1751
 3438SOL     OW13517   1.325   1.298   2.117 -0.3693  0.2699  0.0935
 3438SOL    HW213518   1.280   1.263   2.040  1.8705 -0.9324 -0.7554
 3438SOL    HW313519   1.401   1.344   2.082  0.9345 -0.6674  1.5485
 3438SOL    MW413520   1.329   1.300   2.102 -0.4965  0.2224  0.2746
 3439SOL     OW13521   0.423   2.643   2.320  0.3632  0.4998 -0.0721
 3439SOL    HW213522   0.433   2.567   2.377  1.3306 -0.2590 -1.1901
 3439SOL    HW313523   0.499   2.638   2.261 -0.6620  1.1675 -1.4916
 3439SOL    MW413524   0.435   2.632   2.319 -0.8999  0.3306 -0.2069
 3440SOL     OW13525   5.815   4.831   5.803 -0.4724  0.0427  0.1821
 3440SOL    HW213526   5.776   4.868   5.883  1.2290  1.9357  0.2250
 3440SOL    HW313527   5.909   4.845   5.814 -0.0604 -1.1623 -1.4589
 3440SOL    MW413528   5.822   4.838   5.815 -0.0843 -0.0706  0.5180
 3441SOL     OW13529   4.812   1.453   3.126  0.3622  0.3732  0.2785
 3441SOL    HW213530   4.847   1.429   3.212 -1.9908 -1.4534  0.8532
 3441SOL    HW313531   4.867   1.406   3.063  1.7340  1.2499  0.7711
 3441SOL    MW413532   4.824   1.444   3.129  0.6366  0.2633  0.9890
 3442SOL     OW13533   1.040   6.038   0.856 -0.2982 -0.2223 -0.0062
 3442SOL    HW213534   1.135   6.026   0.856 -0.2226  0.1456 -1.4526
 3442SOL    HW313535   1.027   6.132   0.869 -0.2190  0.4906 -3.7893
 3442SOL    MW413536   1.050   6.049   0.858  0.4891 -0.2279  0.0518
 3443SOL     OW13537   4.425   6.075   4.827 -0.1326 -0.8785  0.2163
 3443SOL    HW213538   4.466   6.161   4.831 -0.8827 -0.5479  1.2708
 3443SOL    HW313539   4.478   6.026   4.764  0.9106  0.0251  0.3536
 3443SOL    MW413540   4.437   6.080   4.819  0.4717 -0.1685 -0.2936
 3444SOL     OW13541   5.377   0.622   5.835 -0.6220  0.1753  0.0702
 3444SOL    HW213542   5.296   0.595   5.791  0.9822 -1.6194 -2.0391
 3444SOL    HW313543   5.430   0.542   5.839  1.9643  1.7134 -0.7805
 3444SOL    MW413544   5.374   0.608   5.830  0.5119 -0.0501  0.2660
 3445SOL     OW13545   1.718   1.836   5.741 -0.1217  0.3118 -0.2136
 3445SOL    HW213546   1.770   1.757   5.725 -1.7396 -0.3791 -2.5897
 3445SOL    HW313547   1.781   1.908   5.737  1.1998 -0.7294  0.8543
 3445SOL    MW413548   1.733   1.835   5.738  0.0575 -0.3715  0.0493
 3446SOL     OW13549   4.129   0.081   4.877  0.5352 -0.0025 -0.0561
 3446SOL    HW213550   4.135   0.176   4.879  0.4424  0.1565  4.6485
 3446SOL    HW313551   4.049   0.061   4.927  0.6922 -2.5571 -0.6722
 3446SOL    MW413552   4.119   0.091   4.884  0.0714  0.3594 -0.0610
 3447SOL     OW13553   5.669   2.598   4.098  0.2389 -0.2092 -0.1737
 3447SOL    HW213554   5.586   2.551   4.097 -0.1652  0.4868 -0.9873
 3447SOL    HW313555   5.722   2.554   4.031  0.6071 -0.7704  0.4733
 3447SOL    MW413556   5.665   2.586   4.089 -0.2506 -0.3802 -0.0862
 3448SOL     OW13557   0.824   3.886   2.894 -0.0610  0.3276  0.0810
 3448SOL    HW213558   0.729   3.896   2.883 -0.3261 -0.5300  1.4000
 3448SOL    HW313559   0.861   3.955   2.839 -1.4201  0.2967 -0.9372
 3448SOL    MW413560   0.816   3.897   2.885 -0.3653  0.4828  0.7520
 3449SOL     OW13561   2.491   2.589   5.181 -0.3660  0.6405 -0.2582
 3449SOL    HW213562   2.396   2.589   5.172 -0.4533  1.2163  0.5368
 3449SOL    HW313563   2.524   2.585   5.091 -1.1096 -2.2752 -0.4869
 3449SOL    MW413564   2.483   2.589   5.168 -0.8683 -0.3199 -0.6264
 3450SOL     OW13565   2.590   5.158   2.222 -0.2351 -0.0772  0.0173
 3450SOL    HW213566   2.525   5.204   2.275  0.4913  0.7225  0.2173
 3450SOL    HW313567   2.668   5.152   2.277 -0.2043 -1.2979 -0.1137
 3450SOL    MW413568   2.591   5.163   2.236 -0.1833 -0.1154  0.2250
 3451SOL     OW13569   2.887   5.394   3.399  0.4156 -0.8252 -0.6206
 3451SOL    HW213570   2.981   5.376   3.402  0.3346 -1.1155  0.8528
 3451SOL    HW313571   2.876   5.452   3.324  1.8934 -0.1412 -0.3373
 3451SOL    MW413572   2.898   5.400   3.390  0.2134 -0.1413 -0.1715
 3452SOL     OW13573   1.685   4.525   2.728  0.3201  0.6615  0.5316
 3452SOL    HW213574   1.766   4.570   2.754  0.4752 -0.0749  1.3738
 3452SOL    HW313575   1.715   4.444   2.687  0.0139 -0.2100  1.9655
 3452SOL    MW413576   1.700   4.521   2.726  0.3369 -0.2945  0.2832
 3453SOL     OW13577   4.185   4.375   2.629 -0.5541  0.8116 -0.3356
 3453SOL    HW213578   4.099   4.381   2.671  0.5911 -0.6618  2.4293
 3453SOL    HW313579   4.246   4.361   2.700  1.7654 -0.2598 -2.3811
 3453SOL    MW413580   4.181   4.374   2.644 -0.1590 -0.1840 -0.2108
 3454SOL     OW13581   2.222   4.938   3.245 -0.3101 -0.0821  0.1948
 3454SOL    HW213582   2.138   4.953   3.200 -0.1465  0.2232 -0.0085
 3454SOL    HW313583   2.226   4.843   3.255  0.0816 -0.2383 -1.2778
 3454SOL    MW413584   2.211   4.927   3.241  0.0141  0.6645  0.3474
 3455SOL     OW13585   2.748   0.679   0.608  0.3818 -0.0213 -1.1917
 3455SOL    HW213586   2.705   0.658   0.691  1.8948 -2.3101 -0.9058
 3455SOL    HW313587   2.681   0.659   0.542 -0.0587 -0.4639 -0.6280
 3455SOL    MW413588   2.733   0.674   0.610 -0.4401 -0.1798  0.8056
 3456SOL     OW13589   2.269   3.407   5.656 -0.3326  0.5553 -0.0461
 3456SOL    HW213590   2.219   3.380   5.733 -1.9301  0.8425 -0.9313
 3456SOL    HW313591   2.341   3.344   5.651 -2.3063 -1.8297 -0.4099
 3456SOL    MW413592   2.272   3.395   5.666  0.4156 -0.0564 -0.2594
 3457SOL     OW13593   4.742   5.549   3.440 -0.7160  0.6395 -0.2229
 3457SOL    HW213594   4.700   5.492   3.504  1.5859  0.1126  0.9236
 3457SOL    HW313595   4.798   5.491   3.389 -0.3398  1.4784 -0.7857
 3457SOL    MW413596   4.744   5.534   3.442  0.3948  0.5782 -0.0532
 3458SOL     OW13597   1.745   0.167   3.641  0.2297 -0.7475 -0.1592
 3458SOL    HW213598   1.679   0.184   3.708 -0.7821 -0.3716 -1.2128
 3458SOL    HW313599   1.789   0.251   3.628  0.8401 -0.9660  0.4485
 3458SOL    MW413600   1.742   0.180   3.648  0.3710  0.1852  0.0285
 3459SOL     OW13601   5.042   4.254   2.434 -0.1166  0.0564  0.5640
 3459SOL    HW213602   5.007   4.202   2.506  1.0908 -0.2400  0.9547
 3459SOL    HW313603   5.042   4.194   2.359 -0.3292  0.0276  0.5857
 3459SOL    MW413604   5.037   4.239   2.433 -0.0243  0.3743  0.0501
 3460SOL     OW13605   6.215   2.300   2.517 -0.3147  0.3006 -0.2015
 3460SOL    HW213606   6.294   2.354   2.512  1.3642 -2.0622 -0.5459
 3460SOL    HW313607   6.199   2.272   2.427 -0.2757 -0.9323  0.1580
 3460SOL    MW413608   6.223   2.304   2.505 -0.7650  0.5441  0.1676
 3461SOL     OW13609   0.563   4.789   0.471 -0.1556  0.3481 -0.0826
 3461SOL    HW213610   0.524   4.855   0.413  0.8920  2.4971  1.4759
 3461SOL    HW313611   0.649   4.773   0.434 -0.0320  0.6368  0.0731
 3461SOL    MW413612   0.569   4.796   0.458 -0.0215 -0.1411 -0.1800
 3462SOL     OW13613   3.331   4.578   5.824 -0.2083  0.2358 -0.1454
 3462SOL    HW213614   3.311   4.573   5.918 -1.9630  1.0955 -0.4287
 3462SOL    HW313615   3.299   4.495   5.788 -2.3266  1.1135 -0.4060
 3462SOL    MW413616   3.324   4.566   5.832 -0.0471  0.3175  0.3813
 3463SOL     OW13617   6.083   5.904   0.564 -0.2648  0.2856  0.3418
 3463SOL    HW213618   6.143   5.834   0.588  0.1563  0.8344  0.9344
 3463SOL    HW313619   5.996   5.871   0.588 -0.0063  0.2088  1.2117
 3463SOL    MW413620   6.079   5.891   0.571  0.3027 -0.4455  0.2002
 3464SOL     OW13621   3.062   5.724   3.309 -0.0846 -0.3302 -0.4962
 3464SOL    HW213622   3.051   5.819   3.314  0.1534 -0.3047 -0.4644
 3464SOL    HW313623   3.105   5.700   3.391  0.1801 -0.4203 -0.6609
 3464SOL    MW413624   3.066   5.733   3.320 -0.1281 -0.1050 -0.2377
 3465SOL     OW13625   5.158   2.258   5.508 -0.1658 -0.0616 -0.1775
 3465SOL    HW213626   5.133   2.249   5.416  1.4565  0.9908 -0.7584
 3465SOL    HW313627   5.247   2.292   5.505  0.3920 -1.2042  1.7962
 3465SOL    MW413628   5.167   2.261   5.495  0.0649 -0.3881 -0.1339
 3466SOL     OW13629   2.872   2.366   5.200  0.3813  0.0623  0.6655
 3466SOL    HW213630   2.857   2.436   5.137 -0.7253  0.8821  1.8061
 3466SOL    HW313631   2.913   2.296   5.149 -0.9031  0.5173 -1.0688
 3466SOL    MW413632   2.876   2.366   5.185 -0.5237  0.0642  0.0288
 3467SOL     OW13633   2.303   1.150   0.006 -0.1352  0.0144  0.5424
 3467SOL    HW213634   2.322   1.229  -0.044 -0.6050 -1.1092 -1.5487
 3467SOL    HW313635   2.207   1.142   0.004 -0.0359 -1.2033 -0.3072
 3467SOL    MW413636   2.293   1.159  -0.001 -0.2226  0.4695 -0.2930
 3468SOL     OW13637   2.902   0.446   1.527  0.5596 -0.5987 -0.7335
 3468SOL    HW213638   2.965   0.513   1.554  0.7267  0.2648 -2.9817
 3468SOL    HW313639   2.824   0.465   1.579  0.7493  1.1275 -1.0002
 3468SOL    MW413640   2.900   0.458   1.537 -0.4154  0.0323  0.2285
 3469SOL     OW13641   5.780   4.524   4.679 -0.0240 -0.0096 -0.2744
 3469SOL    HW213642   5.700   4.571   4.702  0.4578  0.7096 -0.0289
 3469SOL    HW313643   5.850   4.574   4.722  0.4820 -1.0846  0.1701
 3469SOL    MW413644   5.778   4.537   4.688  0.1161 -0.2837 -0.1514
 3470SOL     OW13645   5.206   5.762   3.756 -0.2795 -0.5162 -0.5327
 3470SOL    HW213646   5.172   5.753   3.845 -0.5538 -3.9472 -0.8527
 3470SOL    HW313647   5.295   5.795   3.768 -0.1157 -1.4180  1.0849
 3470SOL    MW413648   5.213   5.765   3.769  0.0138  0.3930 -0.0110
 3471SOL     OW13649   6.262   0.355   2.022  0.0831 -0.3469  0.1464
 3471SOL    HW213650   6.341   0.303   2.005 -1.3464 -2.4154 -0.4888
 3471SOL    HW313651   6.229   0.322   2.105 -0.7017 -0.2945 -0.1341
 3471SOL    MW413652   6.268   0.344   2.031  0.6945 -0.1945  0.8552
 3472SOL     OW13653   1.777   2.287   3.922 -0.6234 -0.1038 -0.1787
 3472SOL    HW213654   1.803   2.370   3.884 -0.6222  0.7993  1.6629
 3472SOL    HW313655   1.858   2.250   3.956 -0.9524  0.3180  1.1250
 3472SOL    MW413656   1.791   2.293   3.922 -0.4140 -0.0637  0.3660
 3473SOL     OW13657   3.419   0.307   5.998 -0.4261  0.3500 -0.4023
 3473SOL    HW213658   3.420   0.341   6.087  2.5403 -2.2524  0.7505
 3473SOL    HW313659   3.497   0.345   5.957 -0.5454 -0.1722 -1.1383
 3473SOL    MW413660   3.429   0.317   6.004  0.2572 -0.1395  0.4447
 3474SOL     OW13661   5.247   5.538   2.995  0.2772 -0.0539  0.7759
 3474SOL    HW213662   5.233   5.443   2.991  0.3689 -0.0529  0.2898
 3474SOL    HW313663   5.236   5.567   2.904  3.6258 -0.0943  0.2388
 3474SOL    MW413664   5.244   5.529   2.982 -0.2551  0.0406  0.4825
 3475SOL     OW13665   3.384   5.338   0.270 -0.6980  0.7200 -0.2003
 3475SOL    HW213666   3.318   5.378   0.327  0.5880 -0.6838  2.4444
 3475SOL    HW313667   3.467   5.358   0.311  0.3629  0.1201 -1.9437
 3475SOL    MW413668   3.386   5.346   0.283  0.3726  0.0193  0.1107
 3476SOL     OW13669   4.651   3.974   3.778  0.5210 -0.2660 -0.0214
 3476SOL    HW213670   4.643   3.922   3.858  0.7903  0.4304  0.4610
 3476SOL    HW313671   4.670   3.909   3.710 -1.0027 -1.0295  0.2248
 3476SOL    MW413672   4.652   3.959   3.780 -0.2420  0.2246 -0.2773
 3477SOL     OW13673   3.296   5.444   5.207 -0.3429  0.2458  0.0248
 3477SOL    HW213674   3.323   5.536   5.202  1.5442 -0.2916 -0.5418
 3477SOL    HW313675   3.280   5.419   5.116  1.0831 -0.4786 -0.0568
 3477SOL    MW413676   3.298   5.453   5.194  0.3140 -0.2953 -0.4787
 3478SOL     OW13677   5.670   4.089   5.253  0.3213  0.0498 -0.3596
 3478SOL    HW213678   5.757   4.047   5.252  0.1925 -0.2387  0.2236
 3478SOL    HW313679   5.660   4.124   5.164  0.3918 -1.2365 -0.8993
 3478SOL    MW413680   5.680   4.088   5.241  0.7656 -0.2579  0.2081
 3479SOL     OW13681   3.159   0.693   2.477 -0.2145  0.1196  0.1695
 3479SOL    HW213682   3.155   0.725   2.567 -0.1758 -0.2372  0.2977
 3479SOL    HW313683   3.200   0.607   2.483 -2.4643 -1.0445  0.1193
 3479SOL    MW413684   3.164   0.686   2.490 -0.2180 -0.3129  0.5571
 3480SOL     OW13685   2.359   0.583   4.079 -0.0658 -0.0302  0.3075
 3480SOL    HW213686   2.405   0.528   4.143  0.6971 -1.0087 -1.0360
 3480SOL    HW313687   2.346   0.526   4.003 -0.8312  1.1417 -0.4762
 3480SOL    MW413688   2.363   0.568   4.078 -0.3331 -0.0301  0.0166
 3481SOL     OW13689   2.431   4.731   3.700 -0.1537 -0.3841  0.6702
 3481SOL    HW213690   2.498   4.697   3.642 -0.4527 -2.7995  1.6368
 3481SOL    HW313691   2.476   4.796   3.754  0.0530  2.1646 -2.3398
 3481SOL    MW413692   2.446   4.735   3.700  0.5687 -0.2607 -0.3492
 3482SOL     OW13693   3.287   0.033   4.700  0.2760  0.5297  0.2376
 3482SOL    HW213694   3.203   0.062   4.664  0.8257  1.0362 -0.6592
 3482SOL    HW313695   3.352   0.059   4.635  1.2193  0.7608  1.2415
 3482SOL    MW413696   3.284   0.040   4.687  0.1893  0.0182  0.8997
 3483SOL     OW13697   3.297   1.668   2.134  0.0623  0.7014 -0.4604
 3483SOL    HW213698   3.284   1.596   2.195  1.5438  1.1801  0.4777
 3483SOL    HW313699   3.305   1.626   2.048  1.0291 -0.2783  0.0832
 3483SOL    MW413700   3.297   1.653   2.130  0.6879 -0.4665 -0.0104
 3484SOL     OW13701   3.219   4.777   4.021 -0.4190  0.5142  0.0095
 3484SOL    HW213702   3.164   4.715   4.069 -0.9062 -0.3826 -1.6332
 3484SOL    HW313703   3.297   4.726   3.997  0.4564  1.3435  1.0121
 3484SOL    MW413704   3.222   4.762   4.024 -0.1660 -0.3549 -0.2933
 3485SOL     OW13705   0.887   5.753   4.298  0.5413 -0.7937 -0.0969
 3485SOL    HW213706   0.809   5.782   4.345  0.7882 -0.7963  0.3172
 3485SOL    HW313707   0.924   5.683   4.352  0.5392 -1.1581 -0.5554
 3485SOL    MW413708   0.882   5.748   4.311  0.5340  0.2370 -0.1201
 3486SOL     OW13709   3.864   1.731   4.203  0.4903  0.2272  0.2675
 3486SOL    HW213710   3.807   1.690   4.268  0.8929  1.9971  1.8227
 3486SOL    HW313711   3.881   1.662   4.139 -2.0514 -0.8273  0.6077
 3486SOL    MW413712   3.859   1.716   4.203  0.0994  0.1374  0.0454
 3487SOL     OW13713   3.588   3.952   1.192 -0.1210 -0.0342 -0.2074
 3487SOL    HW213714   3.649   3.883   1.168 -0.4815 -0.5773  0.4006
 3487SOL    HW313715   3.570   3.937   1.285  0.2958  1.2634  0.1067
 3487SOL    MW413716   3.594   3.941   1.201 -0.3270 -0.0506 -0.5653
 3488SOL     OW13717   3.208   0.991   4.347 -0.4863  0.3838 -0.4036
 3488SOL    HW213718   3.142   0.923   4.360  0.4126 -0.3081  0.7243
 3488SOL    HW313719   3.260   0.958   4.273 -0.0116 -0.2066  0.1823
 3488SOL    MW413720   3.206   0.978   4.339 -0.4030 -0.1419 -0.2755
 3489SOL     OW13721   4.183   6.334   0.240  0.3205  0.0779 -0.0832
 3489SOL    HW213722   4.196   6.364   0.150  0.6043  0.2548  0.0131
 3489SOL    HW313723   4.231   6.251   0.245  0.8161  0.3684  0.0696
 3489SOL    MW413724   4.191   6.327   0.229 -0.3347  0.0460  0.5211
 3490SOL     OW13725   3.113   1.944   4.919  0.2551 -0.0553  0.2349
 3490SOL    HW213726   3.188   1.921   4.973  0.5926  1.0484  0.2670
 3490SOL    HW313727   3.040   1.894   4.956  1.0047 -1.2933  0.0678
 3490SOL    MW413728   3.113   1.935   4.931 -0.2067 -0.2479 -0.2185
 3491SOL     OW13729   4.803   1.814   5.879 -0.3540  0.0502  0.2602
 3491SOL    HW213730   4.890   1.854   5.877 -0.7113  0.8391 -0.2817
 3491SOL    HW313731   4.797   1.766   5.797 -0.9619  1.2353 -0.4327
 3491SOL    MW413732   4.814   1.813   5.868  0.3785  0.2952  0.0658
 3492SOL     OW13733   2.064   1.329   2.603 -0.3970  0.6862 -0.0262
 3492SOL    HW213734   2.061   1.404   2.544  1.2982  0.3118 -0.6453
 3492SOL    HW313735   2.126   1.269   2.563 -2.9431 -1.8891 -0.4820
 3492SOL    MW413736   2.071   1.331   2.590  0.1003 -0.0916 -0.5697
 3493SOL     OW13737   4.322   4.562   1.807 -0.1252 -0.0297 -0.0297
 3493SOL    HW213738   4.348   4.499   1.739  0.2936 -0.6980  0.7395
 3493SOL    HW313739   4.319   4.511   1.888  1.8155  1.2270  0.9186
 3493SOL    MW413740   4.325   4.547   1.808  0.5711 -0.6370  0.2343
 3494SOL     OW13741   0.441   4.342   5.485  0.4122 -0.6398 -0.1431
 3494SOL    HW213742   0.358   4.383   5.508  0.5884  0.9564 -2.1166
 3494SOL    HW313743   0.495   4.351   5.564 -0.6328  0.0226  0.5176
 3494SOL    MW413744   0.437   4.348   5.499  0.6637 -0.1324  0.1307
 3495SOL     OW13745   2.541   4.045   5.023 -0.5992  0.4969  0.3771
 3495SOL    HW213746   2.511   3.962   4.988 -1.2660  0.9771 -0.2248
 3495SOL    HW313747   2.627   4.026   5.061  0.1979 -0.0322 -1.5909
 3495SOL    MW413748   2.548   4.032   5.023  0.6546  0.2401  0.4553
 3496SOL     OW13749   2.370   5.038   4.973 -0.2834  0.5787 -0.6017
 3496SOL    HW213750   2.458   5.052   4.940 -1.0622  1.9600 -2.2590
 3496SOL    HW313751   2.326   5.123   4.962 -1.7719 -0.0156  0.3508
 3496SOL    MW413752   2.376   5.051   4.968 -0.0625 -0.5810 -0.1988
 3497SOL     OW13753   4.012   3.419   3.222 -0.1036  0.4858 -0.2059
 3497SOL    HW213754   3.931   3.387   3.263  0.7470  0.5803  1.6173
 3497SOL    HW313755   4.019   3.510   3.251  0.6762  0.4615 -0.3199
 3497SOL    MW413756   4.002   3.427   3.231 -0.1577 -0.4168 -0.7139
 3498SOL     OW13757   5.988   1.370   4.468 -0.0320  0.7225  0.0600
 3498SOL    HW213758   5.923   1.309   4.503 -1.3342  2.2731  0.5172
 3498SOL    HW313759   6.071   1.323   4.472 -0.8683 -0.7439  1.0298
 3498SOL    MW413760   5.990   1.356   4.473  0.3058 -0.2611 -0.2602
 3499SOL     OW13761   6.100   4.868   5.784  0.4402  0.9992  0.1410
 3499SOL    HW213762   6.120   4.816   5.706 -2.4206  1.1489 -0.7981
 3499SOL    HW313763   6.103   4.959   5.754 -2.0657  1.0113 -0.2555
 3499SOL    MW413764   6.103   4.873   5.770  0.3647 -0.5148  0.4620
 3500SOL     OW13765   5.958   5.430   1.517  0.2665  0.1698 -0.3241
 3500SOL    HW213766   6.014   5.476   1.455  1.2516  0.3930  0.7145
 3500SOL    HW313767   5.899   5.378   1.462  1.9350 -0.6247 -1.4312
 3500SOL    MW413768   5.957   5.429   1.502 -0.4017 -0.4533 -0.0288
 3501SOL     OW13769   5.975   0.725   1.615  0.3072 -0.3426 -0.2296
 3501SOL    HW213770   6.054   0.713   1.668  0.3376 -0.7180 -0.3520
 3501SOL    HW313771   5.930   0.799   1.655 -0.0904 -1.1295  0.8386
 3501SOL    MW413772   5.980   0.733   1.627 -0.1216 -0.0956 -0.6125
 3502SOL     OW13773   6.316   4.528   5.801  0.6234 -0.1900  0.1074
 3502SOL    HW213774   6.221   4.522   5.793  0.1334  3.7319  1.2708
 3502SOL    HW313775   6.338   4.476   5.878 -0.6796 -0.4415  0.3220
 3502SOL    MW413776   6.307   4.520   5.810 -0.0645 -0.2696  0.1769
 3503SOL     OW13777   6.282   6.344   3.691 -0.0715 -0.2874 -0.2444
 3503SOL    HW213778   6.188   6.361   3.701  0.1013  1.1830 -0.7322
 3503SOL    HW313779   6.324   6.419   3.733  0.7794  1.0429 -3.1956
 3503SOL    MW413780   6.275   6.356   3.698  0.2024 -0.3259  0.1439
 3504SOL     OW13781   2.796   2.658   0.847 -0.0542  0.0178  0.3258
 3504SOL    HW213782   2.827   2.727   0.787  1.5018 -1.3490 -0.5432
 3504SOL    HW313783   2.716   2.625   0.807 -0.1227  0.4688  0.0841
 3504SOL    MW413784   2.790   2.663   0.834  0.2547  0.1467  0.4660
 3505SOL     OW13785   3.090   5.065   3.485 -0.2021 -0.2245  0.2576
 3505SOL    HW213786   3.092   5.009   3.407 -1.0084 -0.7788  0.6222
 3505SOL    HW313787   3.182   5.073   3.510  0.2232  1.1872 -1.5845
 3505SOL    MW413788   3.103   5.058   3.478  0.5942  0.1745  0.4110
 3506SOL     OW13789   3.528   3.111   5.173  0.5136 -0.2621  0.4635
 3506SOL    HW213790   3.465   3.043   5.197  0.4253  0.7378  3.5158
 3506SOL    HW313791   3.546   3.157   5.255  1.2632  2.8370 -1.2825
 3506SOL    MW413792   3.522   3.108   5.187  0.5093  0.2997  0.1203
 3507SOL     OW13793   4.076   3.399   0.135 -0.1191 -0.6490  0.4294
 3507SOL    HW213794   4.128   3.449   0.198 -1.0961 -1.8008  2.2208
 3507SOL    HW313795   4.061   3.315   0.177  0.4523 -2.0524 -2.0010
 3507SOL    MW413796   4.081   3.395   0.149  0.2109 -0.4940  0.4733
 3508SOL     OW13797   2.744   4.137   0.528  0.7065  0.0962  0.1296
 3508SOL    HW213798   2.674   4.165   0.587  0.0699 -2.7018  0.8555
 3508SOL    HW313799   2.704   4.139   0.441  0.3712  0.4039  0.2867
 3508SOL    MW413800   2.729   4.141   0.525  0.1107  0.3051  0.2978
 3509SOL     OW13801   3.864   4.921   2.949  0.2404  0.0597  0.2590
 3509SOL    HW213802   3.877   4.848   3.009 -1.8291 -0.5772  0.0094
 3509SOL    HW313803   3.832   4.881   2.869 -0.1476  1.1759 -0.1607
 3509SOL    MW413804   3.862   4.906   2.946  0.4212  0.2358 -0.1865
 3510SOL     OW13805   3.881   0.234   5.804  0.2917 -0.2697  0.0267
 3510SOL    HW213806   3.804   0.277   5.840  1.0626  0.3069  1.0359
 3510SOL    HW313807   3.862   0.224   5.711 -0.5854  0.7574  0.0879
 3510SOL    MW413808   3.868   0.238   5.797 -0.1288  0.1883 -1.0880
 3511SOL     OW13809   0.174   5.663   6.032  0.1686 -0.2682 -0.2950
 3511SOL    HW213810   0.232   5.634   6.103  0.4522  0.7595 -0.0956
 3511SOL    HW313811   0.144   5.749   6.059 -1.3470 -0.7163 -0.4868
 3511SOL    MW413812   0.178   5.670   6.045  0.4362 -0.0282 -0.1307
 3512SOL     OW13813   5.314   2.097   2.829 -0.4511 -0.5065  0.2537
 3512SOL    HW213814   5.306   2.009   2.866 -0.1856 -0.9086 -0.6150
 3512SOL    HW313815   5.315   2.083   2.734  2.3011  0.1612  0.0857
 3512SOL    MW413816   5.313   2.084   2.821 -0.3338 -0.8032  0.1548
 3513SOL     OW13817   3.410   5.647   3.149 -0.3630  0.1706 -0.0809
 3513SOL    HW213818   3.462   5.623   3.072  0.2855 -3.9724  1.4203
 3513SOL    HW313819   3.319   5.635   3.122 -0.3769  2.2982 -1.1613
 3513SOL    MW413820   3.405   5.642   3.135  0.2094  0.1040 -0.6663
 3514SOL     OW13821   1.685   2.276   1.939 -0.6246 -0.1718  0.1106
 3514SOL    HW213822   1.763   2.305   1.892  0.2266 -1.8030  0.4486
 3514SOL    HW313823   1.627   2.352   1.937  0.1361  0.4442 -1.9049
 3514SOL    MW413824   1.687   2.290   1.932 -0.0945 -0.1480 -0.3754
 3515SOL     OW13825   3.632   6.035   2.450 -0.2015 -0.4855 -0.1305
 3515SOL    HW213826   3.582   5.957   2.423  1.0021 -1.4680  0.3451
 3515SOL    HW313827   3.693   6.002   2.516  0.3057  0.8933  0.1204
 3515SOL    MW413828   3.634   6.020   2.455 -0.5174  0.6023  0.3445
 3516SOL     OW13829   5.090   6.236   2.456 -0.4218  0.0177  0.5642
 3516SOL    HW213830   5.101   6.280   2.372 -0.7673 -0.6745  0.1560
 3516SOL    HW313831   5.042   6.300   2.509 -1.7295 -0.2003 -0.3217
 3516SOL    MW413832   5.085   6.251   2.452 -0.0002  0.4123  0.7944
 3517SOL     OW13833   2.648   4.416   3.943 -0.4402  0.2453 -0.1202
 3517SOL    HW213834   2.695   4.433   3.861  1.0492 -3.3813 -0.2168
 3517SOL    HW313835   2.704   4.454   4.011  1.4690 -1.7433 -0.4502
 3517SOL    MW413836   2.662   4.423   3.941 -0.0625 -0.0470  1.0954
 3518SOL     OW13837   5.984   0.649   1.995  0.8648 -0.4311 -0.4171
 3518SOL    HW213838   6.029   0.731   1.975  0.1837 -0.6153 -3.2369
 3518SOL    HW313839   6.023   0.619   2.077  1.3764  2.4933  0.5315
 3518SOL    MW413840   5.995   0.656   2.003 -0.0954 -0.1487 -0.0002
 3519SOL     OW13841   1.657   3.007   0.899  0.1554  0.8374 -0.0964
 3519SOL    HW213842   1.683   3.005   0.992 -0.0700 -0.3082 -0.0387
 3519SOL    HW313843   1.727   3.056   0.856 -0.3572  2.4816  0.8445
 3519SOL    MW413844   1.670   3.013   0.906 -0.0844  0.0151  1.3247
 3520SOL     OW13845   5.721   4.638   3.149 -0.3291 -0.3263 -0.0235
 3520SOL    HW213846   5.720   4.549   3.114 -2.1539  0.2645 -1.6390
 3520SOL    HW313847   5.630   4.666   3.146  0.3990  2.1862 -1.2102
 3520SOL    MW413848   5.709   4.630   3.144  0.3003 -0.5398  0.1875
 3521SOL     OW13849   6.370   4.213   4.727 -0.4308  0.3484 -0.1834
 3521SOL    HW213850   6.313   4.245   4.797  1.4143 -1.0444  2.0850
 3521SOL    HW313851   6.437   4.280   4.716  0.5787 -0.4112  1.0598
 3521SOL    MW413852   6.371   4.226   4.735  0.2696  0.3594  0.3168
 3522SOL     OW13853   0.253   3.524   3.972 -0.7099  0.1849  1.0722
 3522SOL    HW213854   0.208   3.605   3.993 -0.1467  0.7577  0.1355
 3522SOL    HW313855   0.238   3.467   4.048 -1.7903  0.8616  1.3796
 3522SOL    MW413856   0.245   3.527   3.985 -0.0091 -0.2678  0.8700
 3523SOL     OW13857   5.290   1.119   4.533  0.8903 -0.1268  0.4797
 3523SOL    HW213858   5.385   1.115   4.534  0.9743 -0.5569 -2.0612
 3523SOL    HW313859   5.268   1.168   4.453 -1.0210  0.6690  1.4139
 3523SOL    MW413860   5.299   1.125   4.522  0.2788 -0.1269  0.0003
 3524SOL     OW13861   0.296   5.357   5.763 -0.1667  0.3103  0.0727
 3524SOL    HW213862   0.332   5.430   5.814  0.3874  0.0349  0.0890
 3524SOL    HW313863   0.295   5.284   5.824  1.4127 -0.2789 -0.5380
 3524SOL    MW413864   0.301   5.357   5.778  0.1768  0.5553  0.2266
 3525SOL     OW13865   5.361   4.381   1.546  0.0765 -0.6460  0.1396
 3525SOL    HW213866   5.419   4.310   1.518  0.0666 -0.3803 -0.5842
 3525SOL    HW313867   5.349   4.366   1.639  0.0696 -1.6021  0.0017
 3525SOL    MW413868   5.367   4.370   1.554  0.5597 -0.2583  0.1642
 3526SOL     OW13869   4.715   3.441   5.746  0.5522  0.1181  0.2323
 3526SOL    HW213870   4.716   3.523   5.795 -0.2391  0.2829 -0.0227
 3526SOL    HW313871   4.650   3.454   5.678 -0.4252 -1.1380  0.8897
 3526SOL    MW413872   4.707   3.453   5.743  0.1526  0.1752  0.3773
 3527SOL     OW13873   3.601   5.209   3.274  0.2145 -0.0315  0.7084
 3527SOL    HW213874   3.622   5.302   3.264  0.0176 -0.0713 -0.0859
 3527SOL    HW313875   3.628   5.169   3.192 -0.5915 -0.5129  0.6701
 3527SOL    MW413876   3.608   5.216   3.262  0.3234 -0.4956 -0.5469
 3528SOL     OW13877   1.647   2.132   0.005  0.0580 -0.5872  0.1869
 3528SOL    HW213878   1.657   2.192   0.079 -1.7623  0.3743 -0.2822
 3528SOL    HW313879   1.590   2.063   0.039 -0.6884 -0.2036 -0.2622
 3528SOL    MW413880   1.641   2.131   0.019  0.3283  0.5006 -0.6822
 3529SOL     OW13881   0.739   3.743   1.082 -0.0601 -0.2939 -0.4802
 3529SOL    HW213882   0.780   3.815   1.034 -0.5159  0.9339  0.9050
 3529SOL    HW313883   0.788   3.736   1.164 -2.3938  1.1388  1.1773
 3529SOL    MW413884   0.751   3.751   1.086 -0.5281 -0.3414  0.0915
 3530SOL     OW13885   4.701   2.307   5.491 -0.0629 -0.0811  0.8225
 3530SOL    HW213886   4.670   2.397   5.505 -0.7055 -0.2987  0.8139
 3530SOL    HW313887   4.629   2.252   5.521  0.4075 -0.5999  1.0151
 3530SOL    MW413888   4.688   2.312   5.497  0.2059 -0.7266 -0.3846
 3531SOL     OW13889   0.486   3.299   3.686 -0.7289 -0.4783 -0.1004
 3531SOL    HW213890   0.548   3.247   3.738 -1.2941 -1.7530 -0.6549
 3531SOL    HW313891   0.406   3.301   3.738 -0.1257  1.6400  0.8760
 3531SOL    MW413892   0.484   3.293   3.700  0.2911 -0.2624 -0.1628
 3532SOL     OW13893   0.415   3.603   1.856 -0.2397 -0.3469  0.3176
 3532SOL    HW213894   0.362   3.624   1.933  0.0414  1.1717  0.1217
 3532SOL    HW313895   0.364   3.637   1.782  0.4965  0.1472  0.0306
 3532SOL    MW413896   0.401   3.610   1.856  0.3300 -0.0191  0.1064
 3533SOL     OW13897   0.438   2.107   3.207  0.3880 -0.0118 -0.1745
 3533SOL    HW213898   0.393   2.103   3.292  0.6807 -0.1586 -0.0237
 3533SOL    HW313899   0.499   2.180   3.216 -0.4898  0.8092 -0.7150
 3533SOL    MW413900   0.440   2.116   3.220 -0.1572 -0.0661  0.6647
 3534SOL     OW13901   0.350   0.496   5.838  0.1251 -0.4619  0.0995
 3534SOL    HW213902   0.414   0.565   5.860 -0.0418 -0.2616 -0.0394
 3534SOL    HW313903   0.378   0.420   5.889 -0.0042 -0.1281  0.6700
 3534SOL    MW413904   0.362   0.495   5.847 -0.0539  0.2648 -0.4716
 3535SOL     OW13905   0.283   3.001   3.450 -0.0662 -0.0784  0.7932
 3535SOL    HW213906   0.248   2.989   3.362 -0.3234  0.0771  0.8729
 3535SOL    HW313907   0.364   3.051   3.438  0.1137 -0.4084  0.6113
 3535SOL    MW413908   0.289   3.006   3.437 -0.3186  0.2281 -0.9973
 3536SOL     OW13909   1.259   2.695   0.422 -0.2982  0.2938  0.0762
 3536SOL    HW213910   1.313   2.752   0.478 -0.3458 -1.9177  2.5697
 3536SOL    HW313911   1.301   2.609   0.428 -0.9023 -0.2572 -2.6131
 3536SOL    MW413912   1.272   2.692   0.430 -0.0306  0.1237 -0.0597
 3537SOL     OW13913   1.109   4.890   0.127 -0.3078  0.1106  0.0570
 3537SOL    HW213914   1.133   4.798   0.122 -0.8376 -0.0381  0.2202
 3537SOL    HW313915   1.030   4.898   0.075  0.0575  0.5948 -0.4448
 3537SOL    MW413916   1.102   4.879   0.120 -0.9476 -0.3147 -0.6131
 3538SOL     OW13917   4.923   6.155   1.012  0.4189 -0.0903  0.2689
 3538SOL    HW213918   4.864   6.096   0.966  0.3055 -0.8593  1.3632
 3538SOL    HW313919   4.866   6.220   1.053  0.3781 -0.4502  0.7868
 3538SOL    MW413920   4.908   6.156   1.011 -0.7031  0.2664  0.1742
 3539SOL     OW13921   5.588   3.949   0.275  0.0619  0.0421  0.4158
 3539SOL    HW213922   5.652   4.013   0.244 -0.1341  0.1226  0.1703
 3539SOL    HW313923   5.601   3.946   0.370  1.1094 -0.6829  0.2647
 3539SOL    MW413924   5.598   3.957   0.283  0.4308  0.1379 -0.0016
 3540SOL     OW13925   5.942   1.129   1.474 -0.3759  0.1663 -0.1918
 3540SOL    HW213926   5.867   1.170   1.433 -0.5916 -0.4769 -0.4498
 3540SOL    HW313927   5.981   1.198   1.528 -0.7138  0.7084 -0.6364
 3540SOL    MW413928   5.938   1.144   1.476  0.4222  0.1446  0.4623
 3541SOL     OW13929   2.253   0.818   3.005 -0.0400  0.1402 -0.8469
 3541SOL    HW213930   2.296   0.902   3.019 -0.7893  0.5016 -0.6385
 3541SOL    HW313931   2.165   0.830   3.043  0.0225 -0.9018 -0.3493
 3541SOL    MW413932   2.247   0.831   3.012 -0.3505 -0.5354  0.1512
 3542SOL     OW13933   1.285   0.805   4.845 -0.6800  0.3416  0.1980
 3542SOL    HW213934   1.248   0.886   4.811 -0.8607 -1.2667 -4.0559
 3542SOL    HW313935   1.210   0.751   4.868 -0.6897  0.1790 -0.2086
 3542SOL    MW413936   1.270   0.808   4.844  0.1630 -0.1668  0.3729
 3543SOL     OW13937   1.374   3.596   2.776  0.1302 -0.1316 -0.1361
 3543SOL    HW213938   1.397   3.655   2.848  0.0585  0.3871 -0.5323
 3543SOL    HW313939   1.282   3.614   2.758  0.6166  1.1775 -1.6417
 3543SOL    MW413940   1.365   3.606   2.783 -0.2485  0.2802  0.0184
 3544SOL     OW13941   6.029   0.454   5.475  0.0260 -0.3759  0.0109
 3544SOL    HW213942   6.083   0.378   5.457 -1.6684 -1.6803  0.1721
 3544SOL    HW313943   5.996   0.481   5.390  0.2054 -0.1570  0.0112
 3544SOL    MW413944   6.032   0.448   5.462 -0.0103  0.2691 -0.2604
 3545SOL     OW13945   0.222   2.987   2.495 -0.5356 -0.1481  0.3913
 3545SOL    HW213946   0.286   2.983   2.566  1.1290 -1.2208 -1.1071
 3545SOL    HW313947   0.164   2.913   2.510  1.1005 -1.6733 -0.4822
 3545SOL    MW413948   0.223   2.977   2.506  0.0853 -0.1472  0.2649
 3546SOL     OW13949   3.471   0.673   6.290 -0.1153  0.2599  0.8374
 3546SOL    HW213950   3.379   0.660   6.267  0.3495 -0.9067 -0.5210
 3546SOL    HW313951   3.475   0.650   6.383 -1.0411 -0.6355  0.6837
 3546SOL    MW413952   3.459   0.668   6.299  0.1214  0.0411  0.4458
 3547SOL     OW13953   4.745   4.009   3.302 -0.2028 -0.1965  0.3636
 3547SOL    HW213954   4.730   4.045   3.215  1.5326 -1.2858 -0.4286
 3547SOL    HW313955   4.725   4.082   3.361  0.7813  1.2921 -1.0526
 3547SOL    MW413956   4.741   4.023   3.299  0.3041 -0.3171  0.5688
 3548SOL     OW13957   2.218   6.116   6.154 -0.0267  0.1528 -0.4136
 3548SOL    HW213958   2.281   6.109   6.083  0.4117  0.5460 -0.0739
 3548SOL    HW313959   2.271   6.112   6.234 -0.5299 -0.4637 -0.1022
 3548SOL    MW413960   2.233   6.115   6.155 -0.1831  0.0044 -0.1447
 3549SOL     OW13961   4.458   1.265   1.619  0.1476 -0.1046  0.3641
 3549SOL    HW213962   4.384   1.310   1.658 -0.0263 -1.1151  1.2345
 3549SOL    HW313963   4.450   1.284   1.525 -0.1117  1.3531  0.6506
 3549SOL    MW413964   4.447   1.274   1.612  0.3060 -0.2214  0.4840
 3550SOL     OW13965   0.614   1.265   0.141  0.1519  0.0744 -0.2969
 3550SOL    HW213966   0.637   1.222   0.058  1.8918 -0.8278  0.5848
 3550SOL    HW313967   0.522   1.287   0.132  0.0179 -0.9886 -2.0497
 3550SOL    MW413968   0.605   1.262   0.129 -0.3761 -0.3442 -0.0041
 3551SOL     OW13969   0.320   5.445   1.698 -0.1093 -0.3101  0.0644
 3551SOL    HW213970   0.232   5.407   1.700 -0.2156 -0.1543 -0.8836
 3551SOL    HW313971   0.305   5.539   1.705 -0.0042 -0.3030  0.1804
 3551SOL    MW413972   0.306   5.452   1.699 -0.0362  0.1373 -0.1557
 3552SOL     OW13973   3.279   3.205   6.036  0.7804 -0.1992 -0.0132
 3552SOL    HW213974   3.188   3.230   6.023  0.2970 -0.0068  2.9418
 3552SOL    HW313975   3.323   3.287   6.058  1.1608 -0.6038  0.7724
 3552SOL    MW413976   3.273   3.220   6.037  0.3253  0.3923  0.2919
 3553SOL     OW13977   2.692   1.704   2.662  0.4475  0.2125 -0.0918
 3553SOL    HW213978   2.784   1.728   2.670  0.2209  1.6461 -1.2946
 3553SOL    HW313979   2.687   1.615   2.696  2.2979  0.0408 -0.1826
 3553SOL    MW413980   2.703   1.695   2.668 -0.1953  0.0025  0.3157
 3554SOL     OW13981   3.666   1.091   0.709 -0.2396  0.1914  0.0479
 3554SOL    HW213982   3.624   1.106   0.793  0.9597  1.3516  0.4743
 3554SOL    HW313983   3.752   1.134   0.716  1.1457 -2.2490 -0.7120
 3554SOL    MW413984   3.672   1.099   0.721  0.1208 -0.4654  0.4536
 3555SOL     OW13985   5.338   5.594   0.374 -0.4518 -0.9032  0.7244
 3555SOL    HW213986   5.278   5.522   0.358 -1.3138  0.0616 -0.6677
 3555SOL    HW313987   5.380   5.610   0.289  1.4459 -1.2454  1.5545
 3555SOL    MW413988   5.336   5.587   0.361  0.0593 -0.0556  0.2215
 3556SOL     OW13989   2.586   0.405   3.193  0.3234  0.3612 -0.4116
 3556SOL    HW213990   2.532   0.477   3.159  0.5285  0.5153 -0.4153
 3556SOL    HW313991   2.523   0.337   3.217  0.2096 -0.0067 -1.6858
 3556SOL    MW413992   2.571   0.406   3.192 -0.1740 -0.9294  0.2050
 3557SOL     OW13993   5.826   4.729   4.862  0.5222 -0.0924 -0.8001
 3557SOL    HW213994   5.758   4.694   4.920 -0.2441  2.8921  0.3441
 3557SOL    HW313995   5.905   4.678   4.884 -0.7259 -1.8883 -0.2581
 3557SOL    MW413996   5.828   4.718   4.873  0.1106  0.7128  0.0068
 3558SOL     OW13997   0.372   5.905   4.044 -0.0816 -0.4766  0.0355
 3558SOL    HW213998   0.404   5.816   4.057  1.4378  0.0049 -0.2645
 3558SOL    HW313999   0.412   5.934   3.962 -0.3855  0.5670  0.2358
 3558SOL    MW414000   0.381   5.897   4.035 -0.2152 -0.2423 -0.0717
 3559SOL     OW14001   1.048   3.716   6.379 -0.2445  0.0008 -0.0892
 3559SOL    HW214002   1.009   3.778   6.441  0.8441  0.4300  0.2073
 3559SOL    HW314003   1.138   3.749   6.367 -0.6451  0.4178 -2.5264
 3559SOL    MW414004   1.055   3.729   6.386 -0.4587 -0.5445  0.4578
 3560SOL     OW14005   4.692   3.887   2.022 -0.1159 -0.4408 -0.2199
 3560SOL    HW214006   4.623   3.838   1.977 -0.1798 -0.6139  0.0676
 3560SOL    HW314007   4.717   3.955   1.960 -3.0449  1.9475  0.9559
 3560SOL    MW414008   4.686   3.890   2.008 -0.0278  0.0490  0.0359
 3561SOL     OW14009   3.350   0.636   3.332  0.5018 -0.3785 -0.5885
 3561SOL    HW214010   3.360   0.681   3.416 -0.7957 -0.9388 -0.1177
 3561SOL    HW314011   3.402   0.557   3.340  1.9397  0.4723 -1.0413
 3561SOL    MW414012   3.358   0.632   3.344 -0.3641  0.0962 -0.4479
 3562SOL     OW14013   0.538   0.718   2.816 -0.1066  0.4947 -0.1281
 3562SOL    HW214014   0.572   0.793   2.865 -0.6765  0.5345  0.2217
 3562SOL    HW314015   0.594   0.713   2.739  0.5812  0.6532  0.3456
 3562SOL    MW414016   0.550   0.728   2.813  0.2597  0.5596 -0.2221
 3563SOL     OW14017   5.599   5.902   1.434  0.1478 -0.1496  0.0441
 3563SOL    HW214018   5.618   5.892   1.527  0.6334  1.2154  0.1119
 3563SOL    HW314019   5.685   5.914   1.393 -0.2021  1.5025 -0.2664
 3563SOL    MW414020   5.613   5.902   1.441  0.6131 -0.6060  0.6824
 3564SOL     OW14021   3.314   1.693   0.776  0.1194 -0.0967  0.1688
 3564SOL    HW214022   3.359   1.683   0.692 -1.6403  1.4182 -1.0505
 3564SOL    HW314023   3.383   1.709   0.839  1.4849 -1.0288 -1.0242
 3564SOL    MW414024   3.329   1.694   0.773  0.2035 -0.4050 -0.1812
 3565SOL     OW14025   5.794   2.287   0.941  0.1888 -0.6185 -0.8250
 3565SOL    HW214026   5.821   2.259   0.854  0.4841 -0.5740 -0.7489
 3565SOL    HW314027   5.784   2.206   0.991  3.2417 -0.5679  0.0552
 3565SOL    MW414028   5.796   2.273   0.936  0.3100 -0.8020 -0.2653
 3566SOL     OW14029   3.402   3.662   2.223 -0.1209 -0.2544 -0.3566
 3566SOL    HW214030   3.477   3.639   2.278 -0.2590 -1.2457 -0.5616
 3566SOL    HW314031   3.333   3.600   2.249 -0.9400  0.7711 -0.0342
 3566SOL    MW414032   3.403   3.650   2.234  0.7823 -0.0270  0.1212
 3567SOL     OW14033   3.993   3.942   1.866 -0.1522 -0.3680  0.2123
 3567SOL    HW214034   4.056   3.907   1.929  1.2881 -0.3578 -1.1785
 3567SOL    HW314035   3.996   4.037   1.878 -1.8612 -0.4603  1.9126
 3567SOL    MW414036   4.002   3.950   1.876 -0.0866 -0.8234 -0.0343
 3568SOL     OW14037   1.479   4.364   0.349  0.2812  0.6512 -0.2860
 3568SOL    HW214038   1.385   4.365   0.331  0.0556 -0.2148  0.8044
 3568SOL    HW314039   1.504   4.456   0.347 -0.9496  1.0487  1.2166
 3568SOL    MW414040   1.470   4.376   0.346  0.1026 -0.0548  0.0870
 3569SOL     OW14041   0.507   2.292   3.482 -0.4493 -0.1809 -0.0789
 3569SOL    HW214042   0.448   2.217   3.481 -1.0001  0.2461 -0.0085
 3569SOL    HW314043   0.510   2.320   3.574 -0.7904  0.2963 -0.2049
 3569SOL    MW414044   0.500   2.286   3.494  0.0571  0.2869  0.2695
 3570SOL     OW14045   4.120   1.646   4.480 -0.3585 -0.9572 -0.2690
 3570SOL    HW214046   4.178   1.671   4.409 -0.7831 -1.5994 -0.8627
 3570SOL    HW314047   4.063   1.722   4.494 -0.8850 -1.1560 -1.2645
 3570SOL    MW414048   4.120   1.659   4.473  0.2133  0.2262  0.4098
 3571SOL     OW14049   3.270   5.785   6.115 -0.3750  0.0283 -0.1275
 3571SOL    HW214050   3.352   5.817   6.077  0.1077  0.0888  0.9346
 3571SOL    HW314051   3.206   5.854   6.095  0.4465  1.2709  1.3243
 3571SOL    MW414052   3.272   5.799   6.107  0.0655 -0.3997  0.3201
 3572SOL     OW14053   3.593   4.719   3.014  0.1822 -0.2835  0.0582
 3572SOL    HW214054   3.676   4.731   3.059  0.8250  1.7800 -1.5344
 3572SOL    HW314055   3.540   4.668   3.075  2.0825 -0.3720  1.7390
 3572SOL    MW414056   3.597   4.714   3.028 -0.0882 -0.1791 -0.5590
 3573SOL     OW14057   2.967   2.159   5.787 -0.1334  0.0110  0.1835
 3573SOL    HW214058   2.955   2.254   5.793 -0.2790 -0.0430  0.8569
 3573SOL    HW314059   2.957   2.139   5.694  1.8398  0.9057 -0.2757
 3573SOL    MW414060   2.964   2.169   5.776  0.0301  0.4818 -0.4150
 3574SOL     OW14061   6.111   4.680   0.867  0.2828  0.3279 -0.1771
 3574SOL    HW214062   6.046   4.729   0.917  1.0197  1.0959  0.0317
 3574SOL    HW314063   6.068   4.664   0.782 -0.2163  0.7211 -0.0016
 3574SOL    MW414064   6.097   4.684   0.862 -0.5932  0.3142  0.0357
 3575SOL     OW14065   5.796   5.998   0.914 -0.0241  0.4007  0.1565
 3575SOL    HW214066   5.864   6.005   0.847  0.2317 -0.2137  0.3506
 3575SOL    HW314067   5.842   5.965   0.991 -0.1822  1.7206  0.8459
 3575SOL    MW414068   5.811   5.995   0.915 -0.1395  0.1880  0.7897
 3576SOL     OW14069   0.736   4.073   1.977  0.3186  0.7924  0.1034
 3576SOL    HW214070   0.667   4.140   1.978 -0.2593  0.2093  0.1741
 3576SOL    HW314071   0.704   4.006   1.917 -0.5427 -0.8546  2.2380
 3576SOL    MW414072   0.722   4.073   1.970  0.0756 -0.9618  0.2477
 3577SOL     OW14073   1.850   0.026   3.390 -0.0113 -0.0394 -0.2329
 3577SOL    HW214074   1.939  -0.006   3.403 -0.3906 -1.2419 -0.4540
 3577SOL    HW314075   1.824   0.058   3.477  0.3336 -0.4741  0.0375
 3577SOL    MW414076   1.858   0.026   3.403 -0.1178 -0.7197 -0.9485
 3578SOL     OW14077   4.718   1.863   3.052 -0.5528  0.9473  0.2921
 3578SOL    HW214078   4.681   1.781   3.085 -0.3254  0.4710 -0.6081
 3578SOL    HW314079   4.812   1.853   3.062 -0.4675  0.7221 -0.6347
 3578SOL    MW414080   4.725   1.851   3.058 -0.7333 -1.1120 -0.4426
 3579SOL     OW14081   3.024   1.392   1.629  0.1798 -0.1197 -0.0564
 3579SOL    HW214082   3.038   1.301   1.654  1.7624  0.6868  2.2868
 3579SOL    HW314083   2.957   1.424   1.689  0.5293  0.5903 -0.0310
 3579SOL    MW414084   3.017   1.385   1.640 -0.0253 -0.0163 -0.1307
 3580SOL     OW14085   4.711   2.720   5.581 -0.0157 -0.6420 -0.0326
 3580SOL    HW214086   4.728   2.663   5.657  0.4908 -1.0287 -0.4276
 3580SOL    HW314087   4.748   2.672   5.507 -1.6551 -0.8890 -0.7329
 3580SOL    MW414088   4.718   2.706   5.582  0.4820  0.5948 -0.1724
 3581SOL     OW14089   1.741   6.000   4.463 -0.1577  0.3364 -0.0655
 3581SOL    HW214090   1.724   5.917   4.418 -0.8485  0.0114  0.7791
 3581SOL    HW314091   1.658   6.048   4.455 -0.0486  0.5752  0.2336
 3581SOL    MW414092   1.728   5.996   4.456  0.2958  0.2508 -0.3029
 3582SOL     OW14093   0.716   2.726   1.193 -0.2959  0.2487 -0.8959
 3582SOL    HW214094   0.746   2.816   1.209 -1.0408  0.3092  0.2355
 3582SOL    HW314095   0.627   2.724   1.226  0.5606 -1.6099  1.6486
 3582SOL    MW414096   0.709   2.738   1.199 -0.2428 -0.6544  0.4472
 3583SOL     OW14097   2.337   5.488   2.758  0.1907  0.3093 -0.3286
 3583SOL    HW214098   2.261   5.503   2.703  0.5980  0.3349 -0.8887
 3583SOL    HW314099   2.304   5.498   2.847 -0.9429 -1.7422 -0.4488
 3583SOL    MW414100   2.323   5.491   2.763  0.6483  0.1782  0.4597
 3584SOL     OW14101   6.060   2.299   3.670 -0.3825  0.2083 -0.6010
 3584SOL    HW214102   6.144   2.253   3.672  0.8281  2.2200  2.3325
 3584SOL    HW314103   6.080   2.386   3.635 -0.7847  1.2791  1.6488
 3584SOL    MW414104   6.074   2.304   3.666  0.3127 -0.2109 -0.1346
 3585SOL     OW14105   0.892   5.779   5.356 -0.6029 -0.6413 -0.4206
 3585SOL    HW214106   0.986   5.769   5.368 -0.4428 -0.9570 -1.7646
 3585SOL    HW314107   0.859   5.802   5.443  1.1585  2.9029 -0.4881
 3585SOL    MW414108   0.900   5.781   5.369 -0.4296 -0.6667 -0.5891
 3586SOL     OW14109   5.842   6.383   3.870  0.9513  0.2101  0.0538
 3586SOL    HW214110   5.821   6.330   3.947  1.8207  0.7649  0.6978
 3586SOL    HW314111   5.788   6.347   3.800 -1.4287  0.9924  1.3703
 3586SOL    MW414112   5.832   6.371   3.871 -0.4542 -0.3010 -0.5311
 3587SOL     OW14113   3.225   0.478   2.253  0.0718  0.5395  0.1984
 3587SOL    HW214114   3.196   0.520   2.172 -0.3917 -0.8561 -0.3863
 3587SOL    HW314115   3.283   0.408   2.223 -0.6446 -0.4242  1.0268
 3587SOL    MW414116   3.229   0.474   2.238  0.5921 -0.0762 -0.2153
 3588SOL     OW14117   2.908   4.408   1.940 -0.1853 -0.5452 -0.5554
 3588SOL    HW214118   2.986   4.369   1.981  0.6381 -0.0896 -1.6312
 3588SOL    HW314119   2.916   4.502   1.957 -0.6434 -0.5238 -0.4462
 3588SOL    MW414120   2.919   4.415   1.948  0.1594 -0.6733  0.0029
 3589SOL     OW14121   0.445   3.756   2.604 -0.3465 -0.1979 -0.0443
 3589SOL    HW214122   0.436   3.844   2.566  0.7507 -0.3891 -0.7927
 3589SOL    HW314123   0.482   3.703   2.534  1.0451 -0.7411  1.0406
 3589SOL    MW414124   0.449   3.761   2.590  0.0759 -0.2594 -0.8204
 3590SOL     OW14125   5.105   2.259   4.607  0.0273 -0.1927  0.4333
 3590SOL    HW214126   5.199   2.279   4.611 -0.2145  1.3499 -0.6328
 3590SOL    HW314127   5.063   2.332   4.652 -0.6992 -0.5452  0.3341
 3590SOL    MW414128   5.112   2.272   4.613 -0.3181  0.1323  0.1259
 3591SOL     OW14129   4.432   3.048   4.760  0.3446 -0.9486 -0.0957
 3591SOL    HW214130   4.339   3.045   4.785 -0.3799  1.2851 -2.1377
 3591SOL    HW314131   4.463   3.132   4.794  1.3499 -1.2323 -0.2892
 3591SOL    MW414132   4.424   3.059   4.768  0.1703 -0.0566  0.1234
 3592SOL     OW14133   6.275   3.308   4.535 -0.4166 -0.8402 -0.6042
 3592SOL    HW214134   6.226   3.263   4.604 -1.4077 -0.6071 -1.1214
 3592SOL    HW314135   6.364   3.276   4.543 -0.3039 -0.1311  1.3557
 3592SOL    MW414136   6.280   3.298   4.545  0.0208 -0.1261  0.4406
 3593SOL     OW14137   1.365   1.125   3.409  0.6464 -0.1988  0.5733
 3593SOL    HW214138   1.317   1.043   3.403 -1.5247  0.9799  0.6934
 3593SOL    HW314139   1.337   1.163   3.492 -2.2513  2.7809 -1.4822
 3593SOL    MW414140   1.355   1.119   3.419 -0.1941 -0.3087  0.0835
 3594SOL     OW14141   1.539   5.602   3.981  0.4993 -0.3957  0.1945
 3594SOL    HW214142   1.500   5.652   4.053  1.4439  0.9220 -0.1837
 3594SOL    HW314143   1.623   5.572   4.015  0.5187 -0.6102 -0.0395
 3594SOL    MW414144   1.545   5.605   3.995 -0.1723  0.0416  0.6969
 3595SOL     OW14145   5.760   5.697   0.081  0.2686 -0.1809 -0.2657
 3595SOL    HW214146   5.791   5.686   0.171 -1.1590  0.6104  0.3520
 3595SOL    HW314147   5.667   5.677   0.086  0.3114 -0.8083 -1.7193
 3595SOL    MW414148   5.752   5.693   0.094 -0.5223  0.1224  0.2296
 3596SOL     OW14149   3.025   2.896   2.896 -0.0668  0.4834 -0.1086
 3596SOL    HW214150   2.986   2.814   2.926  0.5370  0.2166 -0.0416
 3596SOL    HW314151   3.105   2.905   2.948  0.5929  0.4035 -1.0963
 3596SOL    MW414152   3.031   2.887   2.907  0.3437  0.4455 -0.0679
 3597SOL     OW14153   1.149   2.573   1.038 -0.1977  0.0144 -0.2184
 3597SOL    HW214154   1.137   2.600   0.946  1.1027 -2.4807 -1.2203
 3597SOL    HW314155   1.229   2.618   1.065  0.6927 -0.9714 -1.1141
 3597SOL    MW414156   1.158   2.583   1.029 -0.5380  0.0009 -0.0196
 3598SOL     OW14157   5.137   1.582   3.645 -0.1701 -0.4750  0.0707
 3598SOL    HW214158   5.144   1.667   3.688 -1.0442 -0.6299  0.5488
 3598SOL    HW314159   5.111   1.522   3.715 -1.2567 -0.7991 -0.5923
 3598SOL    MW414160   5.135   1.585   3.660  0.4089  0.1866  0.4680
 3599SOL     OW14161   2.076   4.116   1.740 -0.4123  0.3774 -0.3216
 3599SOL    HW214162   2.027   4.094   1.819  1.6281 -2.4771  0.3020
 3599SOL    HW314163   2.167   4.099   1.762  0.4791  1.5708 -2.6743
 3599SOL    MW414164   2.081   4.111   1.753 -0.1213 -0.2430 -0.0151
 3600SOL     OW14165   5.615   1.474   2.159 -0.4904  0.7993  0.3129
 3600SOL    HW214166   5.672   1.437   2.092 -0.4348  1.4716 -0.0084
 3600SOL    HW314167   5.531   1.431   2.145 -0.6669  1.4407 -0.6222
 3600SOL    MW414168   5.612   1.463   2.149  0.2959 -0.2997  0.0209
 3601SOL     OW14169   5.471   1.786   1.073  0.0396 -0.1480  0.2629
 3601SOL    HW214170   5.505   1.717   1.130  0.7969 -0.4971 -0.6024
 3601SOL    HW314171   5.444   1.855   1.134  0.1239 -0.8214  1.0852
 3601SOL    MW414172   5.472   1.786   1.089 -0.0040  0.3343 -0.7709
 3602SOL     OW14173   1.935   5.579   3.525 -0.3435  0.4121 -0.4756
 3602SOL    HW214174   1.912   5.506   3.582  1.9743  0.1207  0.1976
 3602SOL    HW314175   1.880   5.651   3.554 -2.0662 -0.7955 -0.5886
 3602SOL    MW414176   1.925   5.579   3.536  0.6454  0.3728  0.4183
 3603SOL     OW14177   3.266   4.817   6.245 -0.2636  0.4069 -0.1562
 3603SOL    HW214178   3.254   4.745   6.184 -0.9305 -0.2200  0.6919
 3603SOL    HW314179   3.294   4.891   6.191 -2.3737  0.3262 -1.4346
 3603SOL    MW414180   3.268   4.817   6.230 -0.0353 -0.3206  0.3765
 3604SOL     OW14181   3.844   3.754   0.022 -0.5273 -0.0554 -0.0526
 3604SOL    HW214182   3.901   3.693  -0.025  0.8803  0.6993  0.6343
 3604SOL    HW314183   3.865   3.840  -0.014  0.1756  0.4745  1.5199
 3604SOL    MW414184   3.854   3.758   0.011 -0.6851 -0.5206 -0.0435
 3605SOL     OW14185   2.246   4.438   1.441  0.3791  1.1925 -0.2229
 3605SOL    HW214186   2.246   4.360   1.386  1.3684  0.0424  1.3134
 3605SOL    HW314187   2.275   4.508   1.383  0.9022  0.1263 -1.2902
 3605SOL    MW414188   2.250   4.437   1.426  0.2421 -0.3000 -0.3855
 3606SOL     OW14189   4.412   0.888   6.195  0.2124 -0.5338  0.0952
 3606SOL    HW214190   4.483   0.953   6.197  0.2983 -0.5976 -0.6982
 3606SOL    HW314191   4.345   0.924   6.253  0.5738 -0.1017  0.2519
 3606SOL    MW414192   4.413   0.902   6.203 -0.1701 -0.1866  0.3520
 3607SOL     OW14193   4.776   3.516   4.518  0.4358  0.6816 -0.3101
 3607SOL    HW214194   4.722   3.482   4.445 -0.5053  0.0523  0.6448
 3607SOL    HW314195   4.863   3.478   4.502  0.1882  0.3583 -0.9784
 3607SOL    MW414196   4.780   3.506   4.506 -0.1056 -0.3370 -1.1125
 3608SOL     OW14197   2.238   0.946   0.251  0.3336  0.5574  0.2240
 3608SOL    HW214198   2.218   0.983   0.337  0.9723 -0.7174  0.9507
 3608SOL    HW314199   2.290   1.013   0.208  2.2509  0.2199  1.8619
 3608SOL    MW414200   2.242   0.960   0.257 -0.1155  0.0039  0.1265
 3609SOL     OW14201   2.061   0.337   3.750 -0.5317 -0.0849  0.0163
 3609SOL    HW214202   2.126   0.321   3.681 -0.7191  0.3821 -0.2763
 3609SOL    HW314203   2.037   0.250   3.780  0.8787 -0.2512  0.7521
 3609SOL    MW414204   2.067   0.323   3.745 -0.0930  0.0761 -0.4757
 3610SOL     OW14205   4.052   0.774   0.757  0.3738  0.1985 -0.4956
 3610SOL    HW214206   3.982   0.813   0.809  0.6708 -0.0625  0.1209
 3610SOL    HW314207   4.010   0.703   0.708  0.0287  0.6506 -0.8550
 3610SOL    MW414208   4.037   0.770   0.758  0.0442 -0.0057 -0.4706
 3611SOL     OW14209   4.676   3.078   4.269  0.1546 -0.5580  0.5743
 3611SOL    HW214210   4.625   3.119   4.199  1.2536  2.3436  1.3500
 3611SOL    HW314211   4.615   3.070   4.342 -0.3035 -1.2385  0.1386
 3611SOL    MW414212   4.661   3.082   4.269  0.0244  0.2693 -0.0097
 3612SOL     OW14213   0.351   0.405   4.748 -0.0306  0.6350  0.3261
 3612SOL    HW214214   0.443   0.385   4.730 -0.1105  1.5775 -1.2833
 3612SOL    HW314215   0.352   0.452   4.832  1.0064  1.1160  0.0527
 3612SOL    MW414216   0.363   0.409   4.757  0.5373 -0.0325  0.3131
 3613SOL     OW14217   4.280   0.054   5.778  0.2588  0.2775  0.0065
 3613SOL    HW214218   4.327   0.129   5.814 -0.4772  0.9266 -0.3866
 3613SOL    HW314219   4.345   0.011   5.721  0.9653  0.0807  0.9393
 3613SOL    MW414220   4.295   0.058   5.775  0.2627  0.0080 -0.2597
 3614SOL     OW14221   1.608   4.684   3.519  0.5262  0.1096 -0.3556
 3614SOL    HW214222   1.553   4.689   3.597  1.3137 -0.4090  0.2584
 3614SOL    HW314223   1.675   4.751   3.533  2.5670 -2.0320  1.0006
 3614SOL    MW414224   1.610   4.693   3.531  0.2129 -0.1905  0.2396
 3615SOL     OW14225   4.481   5.612   5.340  0.3417 -0.7128  0.7698
 3615SOL    HW214226   4.568   5.580   5.363  0.1542 -1.4279  0.5267
 3615SOL    HW314227   4.496   5.667   5.263  0.6135 -0.5851  0.9118
 3615SOL    MW414228   4.495   5.615   5.333 -0.5987 -0.4491 -0.0706
 3616SOL     OW14229   0.969   3.769   4.427  0.7181  0.0516 -0.8230
 3616SOL    HW214230   0.934   3.790   4.340  0.4235 -0.7516 -0.9060
 3616SOL    HW314231   0.902   3.800   4.488  0.5192 -0.1823 -0.9218
 3616SOL    MW414232   0.956   3.776   4.423 -0.3798  0.0929 -0.1994
 3617SOL     OW14233   6.039   6.105   2.135  0.0446  0.2826  0.3485
 3617SOL    HW214234   6.054   6.020   2.176  2.6971 -0.1365 -1.2845
 3617SOL    HW314235   6.017   6.084   2.044 -0.4094  1.3426  0.1991
 3617SOL    MW414236   6.038   6.091   2.129  0.0035  0.4500 -0.7201
 3618SOL     OW14237   3.622   2.264   0.022  0.3769  0.1000 -0.6077
 3618SOL    HW214238   3.688   2.282   0.089 -0.7958  1.2061  0.2940
 3618SOL    HW314239   3.562   2.202   0.063  0.1771  0.0530 -0.9651
 3618SOL    MW414240   3.623   2.258   0.037  0.3957  0.6879 -0.3955
 3619SOL     OW14241   6.211   3.072   4.981  0.3335 -0.5777  0.1319
 3619SOL    HW214242   6.156   2.995   4.992 -1.8987  1.1271  1.9544
 3619SOL    HW314243   6.230   3.101   5.070 -0.0086  1.6766 -0.4602
 3619SOL    MW414244   6.206   3.066   4.994  0.1321 -0.1545  0.3294
 3620SOL     OW14245   3.488   2.447   1.132 -0.5661 -0.6927  0.1211
 3620SOL    HW214246   3.411   2.391   1.124 -1.6450  0.4699  1.7190
 3620SOL    HW314247   3.457   2.524   1.180  1.8258 -0.6642  1.8227
 3620SOL    MW414248   3.474   2.450   1.137  0.4985  0.2577 -0.4677
 3621SOL     OW14249   4.586   4.594   6.062 -1.0927 -0.0137  0.0773
 3621SOL    HW214250   4.546   4.513   6.030 -1.0097  0.2995 -0.8425
 3621SOL    HW314251   4.649   4.565   6.127 -1.3954 -0.6570  0.0944
 3621SOL    MW414252   4.589   4.579   6.066  0.2897  0.0373  0.1923
 3622SOL     OW14253   0.532   3.065   1.854 -0.0794  0.5843 -0.4411
 3622SOL    HW214254   0.495   2.998   1.910 -0.2236  0.7219 -0.3717
 3622SOL    HW314255   0.626   3.061   1.870 -0.1928  1.1937  0.4436
 3622SOL    MW414256   0.539   3.056   1.863  0.7651  0.2563  0.6762
 3623SOL     OW14257   0.224   0.174   6.110 -0.2801  0.4389  0.2854
 3623SOL    HW214258   0.201   0.099   6.056 -0.7713  1.1285 -0.4823
 3623SOL    HW314259   0.289   0.222   6.059  0.7163  0.0747  1.1656
 3623SOL    MW414260   0.229   0.171   6.096  0.6904 -0.2369  0.3479
 3624SOL     OW14261   0.895   2.108   1.739 -0.4438 -0.7957 -0.1930
 3624SOL    HW214262   0.850   2.077   1.817  0.9015 -0.3263  0.8057
 3624SOL    HW314263   0.968   2.047   1.727 -0.5474 -0.7716 -0.9891
 3624SOL    MW414264   0.899   2.096   1.748  0.5735 -0.2716 -0.4642
 3625SOL     OW14265   0.375   3.491   1.476 -0.1676  0.6212 -0.7411
 3625SOL    HW214266   0.373   3.406   1.518 -0.9538  0.8572 -0.2664
 3625SOL    HW314267   0.320   3.481   1.399 -0.5854  0.7983 -0.4706
 3625SOL    MW414268   0.367   3.479   1.471  0.5485  0.5278 -0.0579
 3626SOL     OW14269   0.028   1.590   2.072  0.2445 -0.4083 -0.6293
 3626SOL    HW214270   0.081   1.568   1.995  0.1265 -1.8438 -0.3399
 3626SOL    HW314271   0.026   1.509   2.123 -1.9666 -0.3319 -0.4845
 3626SOL    MW414272   0.035   1.576   2.068 -0.7756 -0.1034  0.0211
 3627SOL     OW14273   2.354   0.036   1.543 -0.4521  0.1002  0.1875
 3627SOL    HW214274   2.444   0.066   1.533  0.2259 -1.6077  0.7053
 3627SOL    HW314275   2.334  -0.008   1.460 -0.6214  0.0346  0.2615
 3627SOL    MW414276   2.363   0.034   1.530 -0.5664  0.8402 -0.5593
 3628SOL     OW14277   6.183   2.275   1.025 -0.0960 -0.1859 -0.3543
 3628SOL    HW214278   6.117   2.269   1.095 -0.0382 -1.1377 -0.3721
 3628SOL    HW314279   6.239   2.348   1.052 -0.5093 -0.0696  0.2166
 3628SOL    MW414280   6.182   2.284   1.038  0.1441  0.4801 -0.2541
 3629SOL     OW14281   3.596   6.410   3.881 -0.1137 -0.1611  0.5726
 3629SOL    HW214282   3.542   6.425   3.803  1.6413 -0.6821 -0.7915
 3629SOL    HW314283   3.563   6.327   3.916  0.7110 -1.2676 -1.1163
 3629SOL    MW414284   3.584   6.401   3.875  0.2792  0.4572 -0.3890
 3630SOL     OW14285   0.816   5.230   3.199 -0.5698  0.5278  0.5561
 3630SOL    HW214286   0.847   5.270   3.281  1.3374 -2.1893  1.2984
 3630SOL    HW314287   0.742   5.174   3.226  0.3772 -0.7575  0.5630
 3630SOL    MW414288   0.810   5.228   3.214  0.0423  0.0580 -0.6680
 3631SOL     OW14289   2.578   4.368   4.489 -0.4975  0.0855 -0.2017
 3631SOL    HW214290   2.486   4.358   4.466 -0.9565  1.5570  0.8735
 3631SOL    HW314291   2.622   4.298   4.441 -2.2304 -0.9684 -0.3452
 3631SOL    MW414292   2.572   4.357   4.480 -0.0896  0.3497 -0.0413
 3632SOL     OW14293   5.544   5.501   4.088 -0.2170 -0.4099 -0.0815
 3632SOL    HW214294   5.577   5.584   4.052 -2.5229  0.3189 -0.7149
 3632SOL    HW314295   5.588   5.433   4.037  0.9583  0.4398 -0.2425
 3632SOL    MW414296   5.554   5.503   4.076  0.3883 -0.1705  0.6275
 3633SOL     OW14297   4.255   1.775   1.712 -0.4889  0.0711 -0.6380
 3633SOL    HW214298   4.298   1.725   1.643  0.7377 -2.5217  1.7683
 3633SOL    HW314299   4.273   1.725   1.792 -3.3873  1.8519  1.3311
 3633SOL    MW414300   4.263   1.762   1.714  0.2519 -0.2257  0.3985
 3634SOL     OW14301   5.673   3.469   4.864  0.5135 -0.0097 -0.2080
 3634SOL    HW214302   5.619   3.471   4.785  1.1261 -1.6076 -0.7057
 3634SOL    HW314303   5.620   3.421   4.928  0.7667 -0.3327 -0.2405
 3634SOL    MW414304   5.659   3.463   4.862  0.0310 -0.2401 -0.1883
 3635SOL     OW14305   5.282   5.874   1.894 -0.0785  0.2294  0.2454
 3635SOL    HW214306   5.367   5.860   1.937  0.3518 -1.4290 -1.0468
 3635SOL    HW314307   5.237   5.790   1.901 -1.2984  0.8530  0.1874
 3635SOL    MW414308   5.287   5.861   1.901 -0.8801 -0.2868 -0.0782
 3636SOL     OW14309   0.207   4.003   4.746 -0.2831 -0.2089  0.1856
 3636SOL    HW214310   0.261   3.946   4.691  0.9925  1.8463 -0.7787
 3636SOL    HW314311   0.119   3.992   4.711  0.4399  0.8008 -2.1589
 3636SOL    MW414312   0.203   3.994   4.734  0.6215 -0.0710 -0.2167
 3637SOL     OW14313   5.974   2.689   5.275  0.2866 -0.1234  0.1362
 3637SOL    HW214314   5.964   2.760   5.338  1.6117  0.9340 -0.8158
 3637SOL    HW314315   5.897   2.697   5.219  0.5997  0.7808 -0.1763
 3637SOL    MW414316   5.962   2.699   5.276  0.4599  0.4733 -0.3101
 3638SOL     OW14317   3.890   1.513   4.804 -0.1421  0.1812 -0.0960
 3638SOL    HW214318   3.797   1.515   4.780  0.0272 -2.8832 -1.3658
 3638SOL    HW314319   3.936   1.492   4.723  1.7019  1.4737  0.5448
 3638SOL    MW414320   3.883   1.511   4.790 -0.5191  0.0043 -0.3570
 3639SOL     OW14321   0.699   2.018   1.917  0.7326 -0.4718 -0.5744
 3639SOL    HW214322   0.697   2.052   2.006  3.1146 -2.2546  0.2755
 3639SOL    HW314323   0.630   1.952   1.914 -0.2050  0.4795 -0.4998
 3639SOL    MW414324   0.690   2.014   1.928 -0.0600 -0.5648  0.2671
 3640SOL     OW14325   1.294   3.351   2.460 -0.0852 -0.0521 -0.2451
 3640SOL    HW214326   1.224   3.393   2.409 -0.2780 -0.0855 -0.0064
 3640SOL    HW314327   1.358   3.421   2.473 -0.2951  0.1100 -0.0535
 3640SOL    MW414328   1.293   3.366   2.455  0.5401 -0.2292 -0.0499
 3641SOL     OW14329   2.694   6.279   3.495 -0.3364 -0.8036  0.3447
 3641SOL    HW214330   2.739   6.230   3.426 -0.9074 -2.4561  1.0821
 3641SOL    HW314331   2.695   6.220   3.571 -2.3277 -0.2781  0.8480
 3641SOL    MW414332   2.700   6.264   3.496 -0.4771 -0.2587 -0.0501
 3642SOL     OW14333   0.732   2.680   5.763 -0.5736  0.2966  0.7669
 3642SOL    HW214334   0.742   2.618   5.835  0.6080  0.6171  0.9051
 3642SOL    HW314335   0.792   2.649   5.696 -2.2649 -0.4756 -0.4658
 3642SOL    MW414336   0.741   2.668   5.764  0.6781  0.2510  0.4177
 3643SOL     OW14337   0.686   5.556   4.617 -0.4259 -0.3877 -0.0525
 3643SOL    HW214338   0.731   5.607   4.684 -1.0734 -0.6336  0.5795
 3643SOL    HW314339   0.598   5.594   4.612 -0.7256 -1.0591  0.0024
 3643SOL    MW414340   0.681   5.568   4.625 -0.2001  0.2598 -0.4173
 3644SOL     OW14341   0.380   2.923   4.401  0.1387 -0.4181  0.0835
 3644SOL    HW214342   0.412   2.968   4.480 -0.5573  0.0413  0.1104
 3644SOL    HW314343   0.339   2.992   4.350  0.4303 -0.7515 -0.6059
 3644SOL    MW414344   0.379   2.938   4.405  0.4148  0.6395 -0.3623
 3645SOL     OW14345   4.029   1.946   4.485  0.1335  0.4103  0.0025
 3645SOL    HW214346   4.081   1.932   4.405  2.0886 -0.4403  1.3592
 3645SOL    HW314347   4.081   2.008   4.536  0.5910 -1.5322  2.0144
 3645SOL    MW414348   4.043   1.953   4.481 -0.0934  0.5188 -0.0626
 3646SOL     OW14349   3.231   0.867   1.088  0.0028 -0.1164 -0.3623
 3646SOL    HW214350   3.246   0.860   0.994 -2.3690  0.5140 -0.8523
 3646SOL    HW314351   3.145   0.910   1.096  0.5193  0.6254  2.0998
 3646SOL    MW414352   3.221   0.871   1.077 -0.2129  0.3952  0.0857
 3647SOL     OW14353   1.711   2.649   4.135  0.3097  0.8024  0.2207
 3647SOL    HW214354   1.796   2.662   4.178  0.4561  0.3823  0.0663
 3647SOL    HW314355   1.661   2.727   4.156  1.1246  1.5721 -0.5968
 3647SOL    MW414356   1.716   2.661   4.143 -0.5018 -0.0958  0.1385
 3648SOL     OW14357   0.971   5.855   5.795 -0.1294  0.0811  0.0697
 3648SOL    HW214358   0.994   5.904   5.874  1.6762  0.8878 -0.9004
 3648SOL    HW314359   0.982   5.918   5.724 -1.0058 -0.8350 -0.9224
 3648SOL    MW414360   0.975   5.870   5.796 -0.2033 -0.3685 -0.0084
 3649SOL     OW14361   4.739   1.109   1.396  0.0282 -0.1335 -0.2407
 3649SOL    HW214362   4.789   1.133   1.318 -0.5468 -0.7843 -0.8256
 3649SOL    HW314363   4.772   1.023   1.419 -0.6732 -0.4792 -0.5128
 3649SOL    MW414364   4.750   1.101   1.388 -0.0291  0.3174  0.7517
 3650SOL     OW14365   1.475   4.146   0.574 -0.2013 -0.2457  0.1677
 3650SOL    HW214366   1.518   4.171   0.656 -2.4010  0.4373  1.1677
 3650SOL    HW314367   1.490   4.220   0.515  0.3830 -0.2381  0.3153
 3650SOL    MW414368   1.483   4.159   0.577  0.0015  0.3321 -0.2455
 3651SOL     OW14369   1.757   4.104   2.332  0.2400 -0.3459  0.1135
 3651SOL    HW214370   1.667   4.115   2.302  0.1909  0.5709  0.5621
 3651SOL    HW314371   1.810   4.151   2.268  0.2373  0.5834  0.7701
 3651SOL    MW414372   1.752   4.111   2.320  0.3020  0.3507  0.1846
 3652SOL     OW14373   3.213   5.975   2.239  0.7920  0.3965  0.3228
 3652SOL    HW214374   3.206   6.034   2.315  1.0387  1.3744 -0.3949
 3652SOL    HW314375   3.295   6.000   2.197 -0.5018  1.5678 -1.6535
 3652SOL    MW414376   3.223   5.986   2.244 -0.1546  0.5818  0.6394
 3653SOL     OW14377   4.776   4.910   1.042 -0.0466 -0.0007 -0.2108
 3653SOL    HW214378   4.744   5.000   1.045  0.0166  0.0013  0.4597
 3653SOL    HW314379   4.869   4.919   1.024 -0.3189  0.0084 -1.7141
 3653SOL    MW414380   4.784   4.923   1.040 -0.2278 -0.1769 -0.7779
 3654SOL     OW14381   3.120   3.355   0.650 -0.2256 -0.2938  0.0438
 3654SOL    HW214382   3.116   3.434   0.704 -0.1613 -0.6143  0.5174
 3654SOL    HW314383   3.191   3.373   0.588  0.1481 -0.1959  0.4961
 3654SOL    MW414384   3.129   3.368   0.649 -0.3245 -0.4026  0.4876
 3655SOL     OW14385   1.469   3.703   3.714  0.1362  0.3136 -0.0261
 3655SOL    HW214386   1.560   3.713   3.684  0.0646  0.6760 -0.1290
 3655SOL    HW314387   1.419   3.765   3.660 -0.2773 -0.3809 -0.4540
 3655SOL    MW414388   1.474   3.713   3.703  0.3392 -0.9334 -0.1865
 3656SOL     OW14389   0.886   1.998   1.466  0.1203  0.4942 -0.9924
 3656SOL    HW214390   0.938   1.921   1.485  0.0599  0.8857  1.0103
 3656SOL    HW314391   0.888   2.049   1.547 -3.3310  0.5507 -0.7824
 3656SOL    MW414392   0.893   1.995   1.479  0.1113 -0.2651  0.6509
 3657SOL     OW14393   0.490   0.009   6.079  0.2269 -0.5713  0.4069
 3657SOL    HW214394   0.477   0.002   6.173  0.4631 -0.8913  0.4161
 3657SOL    HW314395   0.444  -0.066   6.042 -3.3000  1.5902 -0.0904
 3657SOL    MW414396   0.482  -0.002   6.086 -0.0413 -0.2677 -0.2081
 3658SOL     OW14397   1.973   5.224   1.540  0.3484  0.1119  0.0578
 3658SOL    HW214398   1.884   5.191   1.528  0.1801  0.2449  0.8491
 3658SOL    HW314399   1.969   5.273   1.622  1.2285 -0.1567  0.2726
 3658SOL    MW414400   1.961   5.226   1.550  0.5483 -0.3040 -0.1479
 3659SOL     OW14401   5.963   5.881   4.889 -0.0543  0.0667 -0.6663
 3659SOL    HW214402   5.923   5.959   4.926 -1.3859 -0.3801 -1.0859
 3659SOL    HW314403   6.049   5.875   4.930 -0.9962  0.2417  1.4284
 3659SOL    MW414404   5.969   5.890   4.899 -0.3490  0.0212  0.6169
 3660SOL     OW14405   3.612   5.551   3.677  0.3162  0.2650 -0.0740
 3660SOL    HW214406   3.554   5.550   3.600  0.7270  0.8733 -0.3968
 3660SOL    HW314407   3.576   5.619   3.733  0.8525  0.8214 -0.3899
 3660SOL    MW414408   3.599   5.560   3.674  0.4139 -0.3288 -0.2208
 3661SOL     OW14409   3.073   3.769   1.949  0.3386  0.1333 -0.0463
 3661SOL    HW214410   3.161   3.752   1.915  1.1126  1.2245  1.2813
 3661SOL    HW314411   3.041   3.843   1.898  0.6581  0.4539  0.2115
 3661SOL    MW414412   3.081   3.776   1.938  0.3697 -0.5137  0.0968
 3662SOL     OW14413   4.645   5.368   1.756  0.2400 -0.3399 -0.0046
 3662SOL    HW214414   4.660   5.434   1.689  2.4523 -0.0869  0.6775
 3662SOL    HW314415   4.579   5.310   1.718  1.0117  0.1101 -2.1721
 3662SOL    MW414416   4.638   5.369   1.743 -0.5544 -0.7860  0.3463
 3663SOL     OW14417   6.015   5.332   4.311  0.0690 -0.1914 -0.1894
 3663SOL    HW214418   5.945   5.384   4.272 -0.4090 -0.7906 -0.1529
 3663SOL    HW314419   6.037   5.267   4.244  0.0410 -0.5009  0.0982
 3663SOL    MW414420   6.009   5.330   4.297  0.0962 -0.6616  0.3024
 3664SOL     OW14421   0.628   3.568   4.434  0.3321 -0.2055  0.0352
 3664SOL    HW214422   0.567   3.502   4.399  2.6441 -2.0466 -0.7938
 3664SOL    HW314423   0.600   3.581   4.525 -0.0154 -2.6432  0.3381
 3664SOL    MW414424   0.616   3.561   4.441  0.5873  0.3560 -1.0548
 3665SOL     OW14425   3.722   1.230   2.443  0.1009  0.1607 -0.5846
 3665SOL    HW214426   3.676   1.146   2.446  0.5729 -0.0780  0.8652
 3665SOL    HW314427   3.658   1.292   2.409 -0.7110 -0.5122 -0.2974
 3665SOL    MW414428   3.708   1.227   2.439  0.1112  0.9133  0.0661
 3666SOL     OW14429   0.522   4.313   4.302  0.5168  0.1516 -0.4499
 3666SOL    HW214430   0.549   4.247   4.366 -0.2469  0.9409  0.7214
 3666SOL    HW314431   0.579   4.388   4.320  0.3620  0.3468 -0.7761
 3666SOL    MW414432   0.533   4.314   4.313  0.5081 -0.1734  0.1400
 3667SOL     OW14433   2.317   4.449   0.662  0.3421 -0.0792  0.0101
 3667SOL    HW214434   2.342   4.474   0.573 -0.2055 -0.6075 -0.2983
 3667SOL    HW314435   2.400   4.432   0.706  0.7509  2.1070  0.2073
 3667SOL    MW414436   2.331   4.450   0.656  0.2314  0.0074  0.1979
 3668SOL     OW14437   3.876   1.850   2.774 -0.5237  0.1322  0.2498
 3668SOL    HW214438   3.872   1.798   2.693  1.0759  0.9879 -0.4245
 3668SOL    HW314439   3.841   1.936   2.749  0.9514  0.7355  0.1366
 3668SOL    MW414440   3.871   1.855   2.760 -0.1459 -0.5978  0.3614
 3669SOL     OW14441   3.228   6.308   4.344 -0.3926 -0.5080  0.5771
 3669SOL    HW214442   3.150   6.348   4.306  0.8244  2.4724  0.9558
 3669SOL    HW314443   3.213   6.311   4.438 -0.0459 -0.4412  0.6308
 3669SOL    MW414444   3.216   6.314   4.351 -0.3368  0.1914 -0.3699
 3670SOL     OW14445   0.306   0.558   3.540  0.1354  0.5063 -0.2935
 3670SOL    HW214446   0.269   0.646   3.529 -0.6198  0.2272 -0.0730
 3670SOL    HW314447   0.367   0.567   3.614 -0.5516  0.6673  0.2646
 3670SOL    MW414448   0.309   0.571   3.548  0.0964  0.0099 -0.0931
 3671SOL     OW14449   0.086   4.854   0.996  0.1925 -0.2872  0.0760
 3671SOL    HW214450  -0.002   4.871   1.031  0.8483  1.8564  0.8358
 3671SOL    HW314451   0.079   4.768   0.956 -2.4204  0.0428 -0.3922
 3671SOL    MW414452   0.073   4.845   0.996  0.1341  0.2176  0.3412
 3672SOL     OW14453   4.539   5.662   3.274 -0.0329  0.0403 -0.0868
 3672SOL    HW214454   4.587   5.741   3.300  0.2504 -0.3156  0.4804
 3672SOL    HW314455   4.585   5.590   3.317 -0.3197 -0.4338 -0.5607
 3672SOL    MW414456   4.551   5.663   3.283  0.2703  0.7675  0.5510
 3673SOL     OW14457   5.516   2.696   1.833  0.4639 -0.3302 -0.5514
 3673SOL    HW214458   5.429   2.723   1.865  0.0159 -2.5780  0.3156
 3673SOL    HW314459   5.499   2.655   1.748  0.8784  0.4022 -0.9970
 3673SOL    MW414460   5.502   2.694   1.826 -0.0756  0.0636  0.2358
 3674SOL     OW14461   4.722   1.278   4.899 -0.2259  0.0798  0.6130
 3674SOL    HW214462   4.729   1.334   4.822 -2.3408  0.4228  0.6098
 3674SOL    HW314463   4.648   1.220   4.881 -0.3258 -0.3013  2.0831
 3674SOL    MW414464   4.713   1.278   4.887 -0.3574 -0.2168  0.0859
 3675SOL     OW14465   1.940   3.083   0.099 -0.1058 -0.5861 -0.0298
 3675SOL    HW214466   2.034   3.097   0.107 -0.4643  0.9155  2.1560
 3675SOL    HW314467   1.930   2.988   0.107  1.0974 -0.6208  1.7014
 3675SOL    MW414468   1.951   3.072   0.101 -0.5152 -0.0402  0.6067
 3676SOL     OW14469   0.068   5.200   5.154 -0.0553  0.6049 -0.2231
 3676SOL    HW214470   0.062   5.282   5.203  2.0170  1.2022 -0.8340
 3676SOL    HW314471   0.112   5.140   5.214  2.0361  1.1927 -1.0492
 3676SOL    MW414472   0.073   5.203   5.168 -0.1487  0.2847 -0.2677
 3677SOL     OW14473   5.534   0.800   4.269  0.0635  0.4309  0.1549
 3677SOL    HW214474   5.472   0.770   4.202 -0.7286  0.8374  0.6905
 3677SOL    HW314475   5.479   0.839   4.337  0.8265 -0.2734  1.2094
 3677SOL    MW414476   5.518   0.801   4.269  0.1162 -0.0597  0.1663
 3678SOL     OW14477   3.622   5.007   6.317 -0.3413  0.3070  0.2250
 3678SOL    HW214478   3.598   4.925   6.274  0.1331  0.2892 -0.0123
 3678SOL    HW314479   3.540   5.054   6.327 -0.4937  0.1953 -0.4567
 3678SOL    MW414480   3.608   5.002   6.313  0.2892  0.4386  0.0862
 3679SOL     OW14481   1.990   4.495   3.749  0.6224  0.3334 -0.3434
 3679SOL    HW214482   1.966   4.497   3.842 -0.8252 -2.0493 -0.5887
 3679SOL    HW314483   1.912   4.462   3.704  2.0132 -0.7435 -2.1099
 3679SOL    MW414484   1.977   4.491   3.756  0.5104  0.1347  0.0864
 3680SOL     OW14485   0.277   5.490   5.348  0.4879 -0.1568  0.5712
 3680SOL    HW214486   0.350   5.431   5.328 -0.0717 -0.6287 -0.1659
 3680SOL    HW314487   0.245   5.461   5.433 -1.5340 -2.8334 -0.9290
 3680SOL    MW414488   0.282   5.478   5.356  0.0755 -0.2775 -0.9492
 3681SOL     OW14489   3.385   2.286   1.848 -0.3814 -0.1565 -0.0245
 3681SOL    HW214490   3.381   2.291   1.753 -0.5668  0.2019  0.0013
 3681SOL    HW314491   3.472   2.321   1.870 -0.3808 -0.1381 -0.0568
 3681SOL    MW414492   3.396   2.291   1.838 -0.5311  0.3433  0.5240
 3682SOL     OW14493   5.064   4.729   3.835 -0.2623 -0.4535  0.2938
 3682SOL    HW214494   5.087   4.662   3.899  1.4288  0.0807  0.3005
 3682SOL    HW314495   5.093   4.812   3.874 -1.1208  0.1341 -0.2664
 3682SOL    MW414496   5.071   4.731   3.848  0.2351 -0.6968 -0.0132
 3683SOL     OW14497   0.740   4.442   3.344 -0.2050 -0.6487  0.0557
 3683SOL    HW214498   0.752   4.349   3.328  2.4011 -0.1588 -1.3377
 3683SOL    HW314499   0.785   4.485   3.272  1.1115  1.6854  2.1076
 3683SOL    MW414500   0.747   4.435   3.333 -0.0732  0.1354  0.4982
 3684SOL     OW14501   4.079   0.659   6.316  0.5604 -0.1211  0.3818
 3684SOL    HW214502   4.047   0.607   6.390 -0.8629 -0.2118 -0.2789
 3684SOL    HW314503   4.135   0.726   6.357  2.2451 -1.9618  1.2589
 3684SOL    MW414504   4.082   0.661   6.331 -0.8808 -0.6820 -0.1648
 3685SOL     OW14505   6.154   5.082   4.571 -0.0430  0.3212  0.6994
 3685SOL    HW214506   6.182   5.037   4.491  2.2558  3.8583 -0.7030
 3685SOL    HW314507   6.070   5.121   4.548  0.6362  1.3798 -0.1126
 3685SOL    MW414508   6.147   5.081   4.557  0.8531  0.0064  0.5973
 3686SOL     OW14509   0.283   4.424   3.644 -0.1343 -0.1814 -0.3176
 3686SOL    HW214510   0.374   4.397   3.655  0.8970  3.3582  1.5036
 3686SOL    HW314511   0.280   4.467   3.559  0.9074  2.5502  0.8945
 3686SOL    MW414512   0.295   4.426   3.634  0.1180  0.0245 -0.1741
 3687SOL     OW14513   0.134   2.338   2.835  0.3684 -0.0432  0.2608
 3687SOL    HW214514   0.163   2.428   2.826  0.0839 -0.0256 -0.5048
 3687SOL    HW314515   0.183   2.289   2.769 -0.9616 -0.0868 -0.7404
 3687SOL    MW414516   0.144   2.343   2.825  0.6765  0.6259  0.0892
 3688SOL     OW14517   0.645   1.968   2.835 -0.3498  0.2243 -0.3882
 3688SOL    HW214518   0.654   2.062   2.818 -3.3653  0.8908  1.0726
 3688SOL    HW314519   0.577   1.962   2.902  1.4202 -2.9097  1.3747
 3688SOL    MW414520   0.637   1.980   2.841 -0.6838 -0.3528 -0.1053
 3689SOL     OW14521   3.906   0.248   5.273 -0.1121  0.6452 -0.4206
 3689SOL    HW214522   3.949   0.333   5.269  1.1322  0.1538  1.1692
 3689SOL    HW314523   3.813   0.267   5.261  0.2375  2.1035 -0.9912
 3689SOL    MW414524   3.899   0.262   5.271 -0.2422 -0.0713 -0.1835
 3690SOL     OW14525   3.160   4.687   3.053  0.3543  0.1704 -0.5654
 3690SOL    HW214526   3.239   4.669   3.104  1.4693 -0.9453 -2.5757
 3690SOL    HW314527   3.103   4.613   3.071  1.8195 -1.6486 -2.8441
 3690SOL    MW414528   3.163   4.675   3.062 -0.3848  0.2747 -0.1164
 3691SOL     OW14529   2.153   4.492   6.187 -0.8599 -0.0875 -0.0328
 3691SOL    HW214530   2.163   4.485   6.282  1.5562 -1.6580 -0.3117
 3691SOL    HW314531   2.091   4.423   6.165  2.5102 -3.4462  0.0187
 3691SOL    MW414532   2.146   4.482   6.197 -0.3226  0.0013 -0.0832
 3692SOL     OW14533   0.525   3.613   4.127 -0.4615  0.2523  0.5261
 3692SOL    HW214534   0.575   3.688   4.159 -0.5047  0.2696  0.5528
 3692SOL    HW314535   0.496   3.639   4.040 -2.3099  1.1376  1.3494
 3692SOL    MW414536   0.527   3.626   4.120  0.2408  0.5752  0.5152
 3693SOL     OW14537   3.259   4.981   4.222 -0.3361 -0.1303  0.5190
 3693SOL    HW214538   3.249   4.917   4.150 -3.4344  1.4027 -0.6006
 3693SOL    HW314539   3.292   5.060   4.179 -1.0366  0.4204  0.9695
 3693SOL    MW414540   3.262   4.983   4.207 -0.2010  0.1461  0.0427
 3694SOL     OW14541   5.349   4.489   5.406 -0.5395  0.0396  0.2053
 3694SOL    HW214542   5.285   4.519   5.340 -0.0203 -1.2168 -0.9287
 3694SOL    HW314543   5.301   4.494   5.489 -1.8257 -0.0321 -0.4968
 3694SOL    MW414544   5.334   4.494   5.408 -0.7314 -0.3397  0.0763
 3695SOL     OW14545   5.573   4.639   1.813  0.8802  0.1411 -0.2204
 3695SOL    HW214546   5.550   4.547   1.826 -1.1538  0.7972  1.4353
 3695SOL    HW314547   5.551   4.656   1.722 -0.0628 -0.6988 -0.1805
 3695SOL    MW414548   5.567   4.629   1.803 -0.0484 -0.1766  0.0390
 3696SOL     OW14549   1.686   1.990   2.505 -0.3043  0.2137  0.4099
 3696SOL    HW214550   1.608   1.996   2.561 -1.3878  0.0329 -1.0230
 3696SOL    HW314551   1.651   1.990   2.416  1.3063 -0.7054 -0.2504
 3696SOL    MW414552   1.671   1.991   2.501 -0.3980 -0.1611 -0.4630
 3697SOL     OW14553   0.431   3.733   0.691 -0.5749  0.3686  0.1336
 3697SOL    HW214554   0.477   3.812   0.662 -0.2034  0.3761  0.7252
 3697SOL    HW314555   0.457   3.723   0.782 -1.1509 -0.0623  0.2538
 3697SOL    MW414556   0.440   3.742   0.699 -0.4284 -0.1504  0.7240
 3698SOL     OW14557   0.853   1.918   3.074 -0.0519  0.3839  0.6547
 3698SOL    HW214558   0.810   1.938   2.991 -0.0814 -2.4481 -0.1224
 3698SOL    HW314559   0.811   1.976   3.138 -0.5194  2.1336 -1.1492
 3698SOL    MW414560   0.841   1.928   3.072  0.0486  0.4010  0.0157
 3699SOL     OW14561   3.024   4.085   4.633 -0.2155 -0.8271 -0.1979
 3699SOL    HW214562   3.043   4.164   4.683  2.0133 -0.1740 -1.8860
 3699SOL    HW314563   2.934   4.063   4.656 -1.0968  2.4454  0.0391
 3699SOL    MW414564   3.015   4.092   4.642  0.1137  0.2987 -0.1662
 3700SOL     OW14565   1.359   3.555   1.553 -0.0156  0.1860  0.1204
 3700SOL    HW214566   1.272   3.571   1.516 -1.6186 -3.6995  1.6770
 3700SOL    HW314567   1.412   3.527   1.479 -0.5005  1.1528 -0.6109
 3700SOL    MW414568   1.354   3.554   1.539 -0.3354 -0.7633  0.2511
 3701SOL     OW14569   3.798   5.772   3.351 -0.5094  0.0069  0.0035
 3701SOL    HW214570   3.779   5.766   3.445  0.4103 -0.4851  0.1717
 3701SOL    HW314571   3.892   5.752   3.345  0.1221  2.7200 -0.7219
 3701SOL    MW414572   3.808   5.769   3.363 -0.1574 -0.1467 -0.1086
 3702SOL     OW14573   1.736   6.010   3.353  0.0863 -0.0862 -0.3771
 3702SOL    HW214574   1.695   6.061   3.422  0.0177 -1.4535  0.6308
 3702SOL    HW314575   1.663   5.974   3.303  0.0362 -1.4819  0.6464
 3702SOL    MW414576   1.721   6.012   3.355 -0.4491 -0.3544  0.4954
 3703SOL     OW14577   0.367   2.158   1.602 -0.4736  0.3002 -0.0594
 3703SOL    HW214578   0.359   2.205   1.519 -0.3895 -0.1488 -0.3234
 3703SOL    HW314579   0.450   2.189   1.639  0.4208 -0.8358 -1.0095
 3703SOL    MW414580   0.377   2.168   1.596 -0.2346  0.2472 -0.1595
 3704SOL     OW14581   3.829   0.152   0.163  0.0404 -0.1141  0.0927
 3704SOL    HW214582   3.831   0.222   0.228 -2.6600  0.2123 -0.0347
 3704SOL    HW314583   3.789   0.077   0.208  0.7170 -0.8057 -0.4261
 3704SOL    MW414584   3.824   0.151   0.177  0.0767 -0.1158 -0.2122
 3705SOL     OW14585   2.312   5.790   4.000  0.5733  0.3269  0.0517
 3705SOL    HW214586   2.406   5.783   4.013  1.0697  1.8512 -2.1070
 3705SOL    HW314587   2.287   5.868   4.051 -0.1930 -1.7878  3.1672
 3705SOL    MW414588   2.321   5.800   4.009 -0.5310 -0.1902  0.1634
 3706SOL     OW14589   2.461   5.884   3.088  0.5869  0.0519  0.3831
 3706SOL    HW214590   2.441   5.966   3.043 -0.2942 -1.0471 -1.3526
 3706SOL    HW314591   2.554   5.889   3.108  0.1115  2.4407  2.4999
 3706SOL    MW414592   2.470   5.895   3.085  0.4766 -0.3729  0.2176
 3707SOL     OW14593   4.122   2.748   1.460 -0.1974  0.3615  0.5408
 3707SOL    HW214594   4.147   2.719   1.372  2.4524  2.3922  0.5034
 3707SOL    HW314595   4.071   2.828   1.445 -0.4894  0.2362  0.8487
 3707SOL    MW414596   4.119   2.755   1.446 -0.2573  0.1026  0.1842
 3708SOL     OW14597   2.829   1.837  -0.008 -0.3355 -0.3268 -0.5472
 3708SOL    HW214598   2.897   1.897  -0.037 -1.5385  0.9958 -0.7460
 3708SOL    HW314599   2.814   1.779  -0.083  1.6850 -1.7356  0.0669
 3708SOL    MW414600   2.836   1.837  -0.022 -0.0510  0.2131 -0.0600
 3709SOL     OW14601   4.846   0.970   2.669  0.2158 -0.2934  0.9068
 3709SOL    HW214602   4.824   0.940   2.581  1.6718  0.9461  0.0569
 3709SOL    HW314603   4.941   0.956   2.676  0.2495  0.3635  1.9768
 3709SOL    MW414604   4.856   0.964   2.658 -0.1148 -0.1984  0.3321
 3710SOL     OW14605   3.563   0.598   3.801  0.1984 -0.1042 -0.0654
 3710SOL    HW214606   3.519   0.559   3.876 -2.0410  1.2965 -0.5571
 3710SOL    HW314607   3.629   0.656   3.840 -1.0541  0.7482  0.8686
 3710SOL    MW414608   3.566   0.601   3.816  0.6194 -0.1707  0.3946
 3711SOL     OW14609   3.018   1.166   0.082 -0.0942  0.0089 -0.1448
 3711SOL    HW214610   2.960   1.103   0.040  0.3386 -0.6322  0.2007
 3711SOL    HW314611   3.036   1.129   0.169  1.6933 -0.3823 -0.6305
 3711SOL    MW414612   3.013   1.153   0.088  0.1616 -0.5739 -0.5027
 3712SOL     OW14613   5.406   1.241   6.309  0.1109 -0.1357  0.9271
 3712SOL    HW214614   5.428   1.187   6.233 -1.4002  1.3296 -0.6507
 3712SOL    HW314615   5.334   1.194   6.351  0.6093 -0.6888  1.1903
 3712SOL    MW414616   5.400   1.228   6.304  0.8431 -0.3682 -0.9778
 3713SOL     OW14617   4.181   5.543   4.175  0.1212  0.0146 -0.0281
 3713SOL    HW214618   4.216   5.602   4.241  0.6738  0.5470 -0.7848
 3713SOL    HW314619   4.099   5.584   4.147  1.1257  1.1511 -1.4806
 3713SOL    MW414620   4.175   5.556   4.180  0.6023  0.6956 -0.3815
 3714SOL     OW14621   0.907   0.940   1.907 -0.3456  0.1097 -0.4869
 3714SOL    HW214622   0.987   0.941   1.854  1.0676  2.1220  1.4845
 3714SOL    HW314623   0.902   0.851   1.940  1.0039 -0.1111 -0.7967
 3714SOL    MW414624   0.917   0.929   1.904  0.1969 -0.4864 -0.6012
 3715SOL     OW14625   5.531   4.575   5.930 -0.4530 -0.0574 -0.3860
 3715SOL    HW214626   5.556   4.601   5.842 -1.7652  1.9854 -0.2275
 3715SOL    HW314627   5.601   4.611   5.986 -1.2832  1.5897 -0.3466
 3715SOL    MW414628   5.544   4.583   5.926  0.0251 -0.2818  0.2811
 3716SOL     OW14629   0.370   1.805   4.668  0.2921  0.1336 -0.3627
 3716SOL    HW214630   0.373   1.900   4.658 -1.1664  0.1848 -0.5768
 3716SOL    HW314631   0.430   1.772   4.601  0.7984  0.8953 -0.3007
 3716SOL    MW414632   0.378   1.813   4.658 -0.4531 -0.2899  0.0650
 3717SOL     OW14633   5.509   0.606   4.558  0.4660  0.4574  0.2944
 3717SOL    HW214634   5.427   0.622   4.512  0.4714 -0.7863 -0.1907
 3717SOL    HW314635   5.577   0.613   4.491  0.8194  1.9282  0.7804
 3717SOL    MW414636   5.507   0.609   4.543  0.8463  0.4373  0.3171
 3718SOL     OW14637   0.389   2.320   3.976  0.1828  0.0872 -0.2639
 3718SOL    HW214638   0.348   2.235   3.959  2.0615 -0.9471  0.0497
 3718SOL    HW314639   0.454   2.329   3.907 -0.7173  1.8411 -0.9446
 3718SOL    MW414640   0.392   2.310   3.965 -0.5814 -0.3737 -0.0256
 3719SOL     OW14641   4.972   3.573   1.389 -0.0571  0.4124 -0.2790
 3719SOL    HW214642   4.945   3.533   1.472  1.7577  1.3933  0.8561
 3719SOL    HW314643   5.004   3.499   1.337 -0.5273 -0.1281  0.1818
 3719SOL    MW414644   4.972   3.558   1.393  0.2043 -0.0749  0.4698
 3720SOL     OW14645   1.356   5.332   4.077  0.1589 -0.4213 -0.1242
 3720SOL    HW214646   1.390   5.258   4.027 -1.6914 -1.0124 -0.5968
 3720SOL    HW314647   1.304   5.292   4.147  0.5109  0.4266  0.6420
 3720SOL    MW414648   1.353   5.317   4.080 -0.2300  0.2302  0.4461
 3721SOL     OW14649   5.746   0.894   0.317 -0.2927 -0.0374  0.1156
 3721SOL    HW214650   5.687   0.968   0.300 -1.7288 -1.3490 -0.8683
 3721SOL    HW314651   5.798   0.887   0.237 -0.4577 -0.3471  0.0337
 3721SOL    MW414652   5.745   0.903   0.304 -0.1748 -0.3406 -0.0202
 3722SOL     OW14653   3.514   2.272   3.588  0.3597  0.3254 -0.1534
 3722SOL    HW214654   3.557   2.322   3.519 -0.6964 -1.5913 -2.3568
 3722SOL    HW314655   3.556   2.186   3.585 -0.8275 -0.3022  0.4212
 3722SOL    MW414656   3.525   2.267   3.578 -0.5385  0.6164 -0.3198
 3723SOL     OW14657   5.482   0.860   5.496  0.3880  0.3174 -0.4886
 3723SOL    HW214658   5.541   0.811   5.554  0.9252 -0.9448 -2.0370
 3723SOL    HW314659   5.532   0.873   5.416 -1.1211 -0.0130 -1.5321
 3723SOL    MW414660   5.496   0.855   5.493 -0.4373  0.8193 -0.3264
 3724SOL     OW14661   3.329   4.994   2.753  0.8160 -0.0099 -0.3311
 3724SOL    HW214662   3.402   5.055   2.755 -1.1597  2.5908 -0.9193
 3724SOL    HW314663   3.252   5.050   2.741 -1.3178 -2.5429  0.5494
 3724SOL    MW414664   3.328   5.009   2.752 -0.2967 -0.0482 -0.8071
 3725SOL     OW14665   5.483   5.005   1.471  0.0296 -0.4556  0.0468
 3725SOL    HW214666   5.538   4.947   1.418  0.3223  0.4853 -0.7228
 3725SOL    HW314667   5.424   5.047   1.408  0.9317  1.3066  0.2885
 3725SOL    MW414668   5.483   5.003   1.455  0.3033 -0.1522 -0.2133
 3726SOL     OW14669   0.057   1.682   3.131  0.6120 -0.0018  0.0201
 3726SOL    HW214670   0.044   1.590   3.154  0.7599 -0.5776 -2.0035
 3726SOL    HW314671   0.049   1.684   3.036 -0.6804  2.3164  0.1086
 3726SOL    MW414672   0.054   1.670   3.122 -0.1501  0.5084  0.3641
 3727SOL     OW14673   1.086   2.918   1.131  0.2422  0.0501 -0.1260
 3727SOL    HW214674   1.035   2.851   1.087  0.4449 -0.2226  0.0520
 3727SOL    HW314675   1.027   2.955   1.196  0.5632 -0.9352  0.7491
 3727SOL    MW414676   1.072   2.914   1.134 -0.1963 -0.1210 -0.2656
 3728SOL     OW14677   3.624   0.682   2.704 -0.3893  0.3936  0.6322
 3728SOL    HW214678   3.586   0.609   2.753 -0.8090  0.1763 -0.0067
 3728SOL    HW314679   3.674   0.641   2.634 -2.3140  0.6761 -1.0222
 3728SOL    MW414680   3.625   0.667   2.702 -0.1262 -0.5611 -0.3466
 3729SOL     OW14681   5.644   3.477   6.163  0.4776  0.1188 -0.3034
 3729SOL    HW214682   5.591   3.554   6.182 -0.2793 -0.6232  0.7163
 3729SOL    HW314683   5.715   3.510   6.107  0.4611  1.6507  0.5120
 3729SOL    MW414684   5.647   3.492   6.158  0.0080 -0.4999  0.0923
 3730SOL     OW14685   1.478   5.638   1.135 -0.3104  0.0917 -0.2560
 3730SOL    HW214686   1.437   5.556   1.106  2.1151 -1.7520  1.0696
 3730SOL    HW314687   1.453   5.646   1.227  1.3912 -0.5480  0.3029
 3730SOL    MW414688   1.470   5.628   1.143  0.8404  0.3340 -0.3507
 3731SOL     OW14689   3.824   2.609   0.610 -0.0826  0.0984  0.3645
 3731SOL    HW214690   3.851   2.647   0.694  0.2188  2.3747 -0.6917
 3731SOL    HW314691   3.887   2.643   0.547  1.0137 -3.2567 -0.5677
 3731SOL    MW414692   3.836   2.618   0.613 -0.5054  0.6182  0.2864
 3732SOL     OW14693   0.136   2.039   4.886  0.2811 -0.6455  0.2317
 3732SOL    HW214694   0.105   1.954   4.856  0.4323 -1.4785  2.2722
 3732SOL    HW314695   0.216   2.055   4.836  0.4603 -1.8958  0.1021
 3732SOL    MW414696   0.142   2.030   4.876 -0.1356  0.0971 -0.1877
 3733SOL     OW14697   0.242   6.240   5.681  0.4561 -0.9299  0.5946
 3733SOL    HW214698   0.200   6.184   5.616 -2.0851  1.4515 -0.0181
 3733SOL    HW314699   0.310   6.287   5.633  0.0807 -0.7970  0.1893
 3733SOL    MW414700   0.245   6.239   5.666  0.2234  0.0890  0.1007
 3734SOL     OW14701   0.836   3.787   4.181  0.0981 -0.4099 -0.3848
 3734SOL    HW214702   0.907   3.807   4.120 -1.2485 -0.1013 -1.9345
 3734SOL    HW314703   0.759   3.831   4.144 -1.1264 -1.5299  0.6868
 3734SOL    MW414704   0.835   3.795   4.168 -0.3906 -0.4158  0.3121
 3735SOL     OW14705   2.270   5.676   4.788 -0.3958  0.0861 -0.2297
 3735SOL    HW214706   2.344   5.737   4.785 -0.0864 -0.3030 -0.7399
 3735SOL    HW314707   2.271   5.643   4.878 -0.5196  0.7634  0.0283
 3735SOL    MW414708   2.280   5.680   4.800 -0.0484  0.2799 -0.4766
 3736SOL     OW14709   3.394   5.716   1.563 -0.0608  0.1692 -0.3807
 3736SOL    HW214710   3.438   5.643   1.607  0.7837  0.8351 -0.0859
 3736SOL    HW314711   3.407   5.699   1.470  0.4898  0.1546 -0.3030
 3736SOL    MW414712   3.402   5.704   1.557 -0.2641 -0.4732 -0.2193
 3737SOL     OW14713   6.048   5.590   5.280 -0.4692 -0.5499 -0.3250
 3737SOL    HW214714   6.021   5.543   5.359 -2.4275  1.3255  0.2141
 3737SOL    HW314715   6.077   5.521   5.220  3.4721 -1.9450  2.7361
 3737SOL    MW414716   6.048   5.575   5.282  0.0463  0.4365  0.5295
 3738SOL     OW14717   1.945   5.564   0.684 -0.2651  0.3452 -0.1796
 3738SOL    HW214718   1.920   5.475   0.657 -1.6870  0.5826  0.2304
 3738SOL    HW314719   1.861   5.606   0.704  0.4180  1.6802 -0.0530
 3738SOL    MW414720   1.930   5.558   0.683  0.7737  0.3347 -0.9407
 3739SOL     OW14721   5.351   3.110   4.375  0.7084  0.0088  0.0203
 3739SOL    HW214722   5.382   3.087   4.287 -1.1789 -0.9194 -0.4518
 3739SOL    HW314723   5.323   3.201   4.368 -2.0338 -0.8164 -1.2037
 3739SOL    MW414724   5.352   3.119   4.362 -0.3687 -0.0433  0.6769
 3740SOL     OW14725   4.695   3.202   6.394  0.0027 -0.1079 -0.5809
 3740SOL    HW214726   4.773   3.223   6.445  0.4256 -1.0217 -0.8288
 3740SOL    HW314727   4.720   3.219   6.303 -0.5285  0.8573 -0.5673
 3740SOL    MW414728   4.708   3.207   6.389 -0.4185  0.3089  0.2665
 3741SOL     OW14729   6.192   4.182   2.127 -0.0281  0.5883  0.0572
 3741SOL    HW214730   6.267   4.237   2.150 -0.6299  0.9564  1.2577
 3741SOL    HW314731   6.162   4.215   2.043 -0.1689  1.9081  0.6001
 3741SOL    MW414732   6.198   4.194   2.119 -0.9949 -0.7866 -0.2208
 3742SOL     OW14733   2.013   2.401   2.999 -0.1331 -0.3443  0.0395
 3742SOL    HW214734   1.955   2.366   3.066  1.2025 -1.0953  0.8670
 3742SOL    HW314735   1.995   2.348   2.921 -1.0127 -0.1205  0.0891
 3742SOL    MW414736   2.003   2.389   2.997  0.2669 -0.0747 -0.1389
 3743SOL     OW14737   5.328   5.398   1.650  0.7362  0.3840  0.1253
 3743SOL    HW214738   5.404   5.379   1.594  0.2765  1.5572 -0.9564
 3743SOL    HW314739   5.366   5.436   1.729  1.3269  0.2539 -0.0847
 3743SOL    MW414740   5.343   5.401   1.653 -0.2169 -0.9484  0.0873
 3744SOL     OW14741   3.204   3.528   6.146  0.2730  0.1763 -0.0380
 3744SOL    HW214742   3.138   3.462   6.163 -0.8154  1.2376 -0.0018
 3744SOL    HW314743   3.218   3.571   6.230 -1.8588  2.4821 -0.7426
 3744SOL    MW414744   3.197   3.525   6.159  0.0835  0.2213 -0.3736
 3745SOL     OW14745   4.742   6.326   1.107  0.0396  0.2429 -0.0744
 3745SOL    HW214746   4.714   6.353   1.019 -0.5666 -2.7485 -0.9040
 3745SOL    HW314747   4.673   6.359   1.165 -0.9796 -0.0532 -1.0755
 3745SOL    MW414748   4.729   6.334   1.103  0.1858  0.8414 -0.3924
 3746SOL     OW14749   2.160   5.558   2.562 -0.0953 -0.4742  0.2311
 3746SOL    HW214750   2.157   5.647   2.597 -1.0889 -1.0017  1.5666
 3746SOL    HW314751   2.204   5.568   2.477 -0.1626  1.2749  0.3490
 3746SOL    MW414752   2.166   5.571   2.555 -0.3291 -0.1068 -0.1913
 3747SOL     OW14753   2.669   3.623   2.663  0.1531 -0.0789 -0.0476
 3747SOL    HW214754   2.707   3.547   2.707  1.5624  0.3001 -0.5176
 3747SOL    HW314755   2.709   3.621   2.575 -1.1034  0.2485 -0.6426
 3747SOL    MW414756   2.680   3.613   2.657  0.3785 -0.3711 -0.0174
 3748SOL     OW14757   6.254   4.100   1.466 -0.8208  0.1007 -0.8189
 3748SOL    HW214758   6.335   4.149   1.482 -0.1028 -1.1274 -0.5197
 3748SOL    HW314759   6.233   4.062   1.551  0.2030 -2.3477 -1.5579
 3748SOL    MW414760   6.262   4.101   1.479 -0.3518  0.3780 -0.5885
 3749SOL     OW14761   4.131   4.698   0.475 -0.3855 -0.4465  0.0995
 3749SOL    HW214762   4.117   4.645   0.397 -2.3830  1.4595 -0.9667
 3749SOL    HW314763   4.097   4.645   0.547  1.5859 -2.2769 -0.2245
 3749SOL    MW414764   4.125   4.684   0.474  0.1264 -0.6259  0.5349
 3750SOL     OW14765   0.852   2.294   2.670  0.0741  0.2474  0.2119
 3750SOL    HW214766   0.900   2.226   2.717 -0.4416  0.2609  0.7689
 3750SOL    HW314767   0.759   2.273   2.686 -0.1396 -0.1367 -1.3388
 3750SOL    MW414768   0.846   2.282   2.678  0.3576 -0.2618  0.3883
 3751SOL     OW14769   6.049   1.263   2.324  0.3601 -0.5331 -0.5836
 3751SOL    HW214770   5.992   1.214   2.265 -0.0187  0.7373 -1.3247
 3751SOL    HW314771   6.093   1.197   2.377 -1.3975 -1.5555 -0.3659
 3751SOL    MW414772   6.048   1.248   2.323  0.0925 -0.2697  0.1804
 3752SOL     OW14773   1.293   2.029   3.986  0.2084 -0.3012  0.2741
 3752SOL    HW214774   1.326   2.100   4.041  0.2999 -0.4522  0.4133
 3752SOL    HW314775   1.345   1.953   4.011 -2.9083 -1.6126  3.4264
 3752SOL    MW414776   1.305   2.028   3.996  1.0253  0.3392  0.1338
 3753SOL     OW14777   5.786   3.964   0.967 -0.0576  0.1135  0.1883
 3753SOL    HW214778   5.692   3.954   0.952  0.1068 -0.8950 -0.1733
 3753SOL    HW314779   5.809   3.892   1.025  0.8516 -0.7718 -1.2339
 3753SOL    MW414780   5.777   3.953   0.973  0.2197 -0.5337 -0.5949
 3754SOL     OW14781   2.824   4.609   1.179 -0.6407  0.1664 -0.3643
 3754SOL    HW214782   2.863   4.572   1.258 -1.6446  1.0998  0.5976
 3754SOL    HW314783   2.828   4.704   1.192  2.4084  0.5647 -3.0301
 3754SOL    MW414784   2.829   4.616   1.191 -0.1226 -0.1466 -0.2277
 3755SOL     OW14785   5.171   1.592   5.220 -0.3106  0.3553 -0.2784
 3755SOL    HW214786   5.182   1.663   5.283 -0.9087  1.0143 -0.8998
 3755SOL    HW314787   5.096   1.543   5.253 -0.8933  0.9486 -0.6765
 3755SOL    MW414788   5.162   1.595   5.232 -0.2114 -0.1366  0.4208
 3756SOL     OW14789   2.455   5.201   0.137 -0.2029 -0.2945  0.3443
 3756SOL    HW214790   2.480   5.242   0.219 -1.0497  1.9272 -0.4073
 3756SOL    HW314791   2.359   5.192   0.143 -0.3796  0.6328 -0.6395
 3756SOL    MW414792   2.445   5.205   0.148 -0.3389  0.1931  0.6194
 3757SOL     OW14793   4.795   4.072   0.125 -0.3244  0.1246  0.0590
 3757SOL    HW214794   4.826   4.008   0.189 -0.2112 -0.2298 -0.3526
 3757SOL    HW314795   4.713   4.035   0.092 -0.8757  0.7539  0.6764
 3757SOL    MW414796   4.788   4.059   0.129 -0.1260 -0.5485 -0.6499
 3758SOL     OW14797   1.835   5.958   0.706  0.1267  0.1529 -0.0105
 3758SOL    HW214798   1.906   5.944   0.768  0.2394  2.8168  0.5692
 3758SOL    HW314799   1.878   5.995   0.628 -0.4210  0.0917 -0.3474
 3758SOL    MW414800   1.850   5.961   0.704  0.2411 -0.0040  0.0120
 3759SOL     OW14801   3.791   1.358   3.409  0.2324 -0.4939  0.0385
 3759SOL    HW214802   3.856   1.360   3.339  0.2894 -0.0503  0.0984
 3759SOL    HW314803   3.806   1.275   3.454  1.7093  0.2112  0.9327
 3759SOL    MW414804   3.802   1.348   3.405  0.1807 -0.0919  0.6408
 3760SOL     OW14805   0.175   5.293   2.259 -0.1019 -0.3338  0.0386
 3760SOL    HW214806   0.270   5.303   2.270 -0.1372 -0.6639  0.7250
 3760SOL    HW314807   0.165   5.250   2.174  0.3142  0.4799 -0.4388
 3760SOL    MW414808   0.186   5.289   2.249 -0.5059  0.5146  0.2482
 3761SOL     OW14809   4.251   2.207   4.893  0.7438  0.2665 -0.4630
 3761SOL    HW214810   4.343   2.227   4.908  1.1308  0.0230 -2.2908
 3761SOL    HW314811   4.211   2.293   4.874  0.3349  0.5186  1.3001
 3761SOL    MW414812   4.258   2.221   4.893  0.2557  0.5128 -0.6263
 3762SOL     OW14813   6.209   0.235   3.821 -0.2237  0.3648  0.4611
 3762SOL    HW214814   6.301   0.208   3.817 -0.6529 -1.1467 -0.3578
 3762SOL    HW314815   6.178   0.203   3.905 -0.1435  0.3437  0.4825
 3762SOL    MW414816   6.217   0.227   3.831  0.3379  0.0061  0.2975
 3763SOL     OW14817   6.037   2.321   2.817 -0.1273 -0.0213 -0.8409
 3763SOL    HW214818   6.020   2.386   2.749  0.9736 -1.8638 -3.0241
 3763SOL    HW314819   6.130   2.330   2.836 -0.1171 -0.4995 -0.6458
 3763SOL    MW414820   6.047   2.331   2.811 -0.3836  0.5801 -0.0821
 3764SOL     OW14821   2.817   0.438   2.580 -0.3611  0.2461  0.2447
 3764SOL    HW214822   2.790   0.352   2.610 -1.2983  0.4067 -0.1073
 3764SOL    HW314823   2.838   0.486   2.660  0.2670 -0.3309  0.4352
 3764SOL    MW414824   2.816   0.433   2.595  0.5894  0.7433 -0.8433
 3765SOL     OW14825   0.659   5.962   0.855  0.6597 -0.1123  0.0363
 3765SOL    HW214826   0.676   6.052   0.825  0.4167 -0.0914 -0.0373
 3765SOL    HW314827   0.599   5.972   0.929  0.2429 -0.2436 -0.2812
 3765SOL    MW414828   0.653   5.975   0.861  0.6444  0.1533  0.2109
 3766SOL     OW14829   4.940   4.999   3.112 -0.2993  0.4110 -0.1216
 3766SOL    HW214830   4.900   4.915   3.133 -0.2869  0.3997 -0.1432
 3766SOL    HW314831   5.032   4.978   3.095 -0.3071  0.4219 -0.1767
 3766SOL    MW414832   4.947   4.985   3.113  0.0600  0.6036  0.6191
 3767SOL     OW14833   6.218   4.738   5.550 -0.1007  0.4575  0.3342
 3767SOL    HW214834   6.294   4.680   5.549 -0.2012  0.3294  0.1022
 3767SOL    HW314835   6.245   4.814   5.499 -1.2896 -1.0748 -2.8282
 3767SOL    MW414836   6.231   4.740   5.543 -0.5813 -0.1814 -0.6999
 3768SOL     OW14837   5.749   2.674   0.982 -0.0957 -0.6339  0.5876
 3768SOL    HW214838   5.812   2.606   0.957 -2.8389 -2.7198 -1.3500
 3768SOL    HW314839   5.741   2.667   1.077  0.4312 -2.3748  0.5349
 3768SOL    MW414840   5.756   2.664   0.991 -0.3370  0.3461 -0.4857
 3769SOL     OW14841   1.038   3.656   0.944 -0.3326 -0.0982  0.0406
 3769SOL    HW214842   0.992   3.739   0.950  0.6922  0.6831 -2.0574
 3769SOL    HW314843   1.092   3.652   1.023 -2.5962 -0.2575  1.6915
 3769SOL    MW414844   1.039   3.666   0.955 -0.4697  1.0157  0.0225
 3770SOL     OW14845   3.962   5.431   2.384 -0.1993  0.5329 -0.1963
 3770SOL    HW214846   3.913   5.478   2.451  1.5965  1.7826  0.3294
 3770SOL    HW314847   4.049   5.471   2.386  0.3273 -0.3710 -2.2961
 3770SOL    MW414848   3.967   5.443   2.393  0.2466  0.0616 -0.1571
 3771SOL     OW14849   2.926   5.033   5.082  0.0741 -0.5050  0.2312
 3771SOL    HW214850   3.022   5.034   5.089 -0.0202  0.4852  2.0539
 3771SOL    HW314851   2.897   5.007   5.170 -1.3368 -0.8889 -0.3304
 3771SOL    MW414852   2.935   5.029   5.095  0.0349 -0.6533  1.0413
 3772SOL     OW14853   5.789   0.614   5.018  0.5168  0.2187  0.1950
 3772SOL    HW214854   5.707   0.663   5.025  0.3610 -0.1776  1.4670
 3772SOL    HW314855   5.768   0.538   4.965 -0.7041 -1.3262  2.7303
 3772SOL    MW414856   5.775   0.611   5.012 -0.2907 -0.1048  0.2585
 3773SOL     OW14857   5.227   3.429   6.115  0.3940  0.3390  0.6437
 3773SOL    HW214858   5.309   3.406   6.073  0.2748  1.1857 -0.0747
 3773SOL    HW314859   5.236   3.396   6.205  1.2371 -0.1716  0.3802
 3773SOL    MW414860   5.239   3.421   6.122  0.0066 -0.3148  0.3002
 3774SOL     OW14861   5.524   0.041   3.492 -0.1299 -0.3309 -0.6168
 3774SOL    HW214862   5.548   0.101   3.564 -1.3326  0.2399 -0.6675
 3774SOL    HW314863   5.429   0.048   3.486 -0.0779 -0.6154 -2.0681
 3774SOL    MW414864   5.515   0.050   3.501  0.4909 -0.1034 -0.0767
 3775SOL     OW14865   1.449   5.701   0.751 -0.2398  0.7251 -0.6921
 3775SOL    HW214866   1.413   5.764   0.687  1.9604  1.6308 -1.1162
 3775SOL    HW314867   1.419   5.734   0.836 -0.4048  1.4499 -1.0238
 3775SOL    MW414868   1.440   5.714   0.754  0.3845 -0.0571  0.0102
 3776SOL     OW14869   4.371   2.888   0.273 -0.1927 -0.1613 -0.6848
 3776SOL    HW214870   4.419   2.971   0.278 -0.0990 -0.2927  1.4447
 3776SOL    HW314871   4.333   2.888   0.185  1.8978  0.9448 -1.6784
 3776SOL    MW414872   4.373   2.899   0.262  0.1071  0.2203  0.2130
 3777SOL     OW14873   1.896   3.603   4.270  0.1962 -0.6917 -0.0571
 3777SOL    HW214874   1.901   3.508   4.282 -2.0429 -0.7991  0.4649
 3777SOL    HW314875   1.956   3.639   4.336  0.4109 -1.7130  0.3250
 3777SOL    MW414876   1.905   3.595   4.280 -1.4086 -0.1461 -0.3267
 3778SOL     OW14877   5.497   5.834   6.340 -0.4606  0.2660 -0.6417
 3778SOL    HW214878   5.429   5.859   6.276  1.0514 -0.5386 -2.6801
 3778SOL    HW314879   5.576   5.878   6.308  0.5430 -0.8952  0.1798
 3778SOL    MW414880   5.498   5.843   6.327  0.4580 -0.2501  0.1497
 3779SOL     OW14881   2.933   4.031   5.945 -0.8797  0.2521  0.5270
 3779SOL    HW214882   2.976   4.032   5.860 -1.5628  0.3167  0.1737
 3779SOL    HW314883   2.900   3.941   5.954 -0.7265  0.2199  0.7608
 3779SOL    MW414884   2.934   4.019   5.935  0.2471  0.2134 -0.3319
 3780SOL     OW14885   3.423   3.944   3.288  0.4236  0.0703 -0.0122
 3780SOL    HW214886   3.486   3.965   3.218  0.9772 -1.6954 -0.1069
 3780SOL    HW314887   3.342   3.924   3.241 -0.4273  2.7505  0.1306
 3780SOL    MW414888   3.421   3.944   3.272  0.1097  1.1061  0.5200
 3781SOL     OW14889   3.143   1.900   5.398  0.1098 -0.0578  0.3420
 3781SOL    HW214890   3.198   1.828   5.368  0.5845 -0.0929  1.2512
 3781SOL    HW314891   3.154   1.968   5.332  1.5561  0.0753  0.6879
 3781SOL    MW414892   3.151   1.900   5.386 -0.6796  0.1934 -0.7217
 3782SOL     OW14893   2.992   2.879   1.539 -0.4651 -0.6844  0.3816
 3782SOL    HW214894   2.981   2.898   1.632 -0.4015  0.2619  0.2055
 3782SOL    HW314895   3.067   2.932   1.512 -1.2089 -0.0248 -0.4613
 3782SOL    MW414896   3.001   2.888   1.548  0.6878 -0.1905  0.3295
 3783SOL     OW14897   1.457   0.102   3.301  0.4134 -0.4080 -0.2664
 3783SOL    HW214898   1.362   0.104   3.311  0.2252 -0.1507 -1.8765
 3783SOL    HW314899   1.486   0.187   3.334 -0.1650  0.3968 -1.7467
 3783SOL    MW414900   1.448   0.114   3.307 -0.5069 -0.1852  0.4965
 3784SOL     OW14901   5.141   4.753   0.457  0.5554 -0.0885 -0.2178
 3784SOL    HW214902   5.155   4.830   0.511  0.6273 -1.2892  1.5480
 3784SOL    HW314903   5.058   4.769   0.412  0.5112  0.9496  0.2182
 3784SOL    MW414904   5.132   4.765   0.458  0.4694  0.7625  0.4067
 3785SOL     OW14905   2.807   4.057   3.081  0.0575  0.5110 -0.3698
 3785SOL    HW214906   2.739   3.992   3.065  1.3761 -0.7505 -1.1838
 3785SOL    HW314907   2.819   4.056   3.176 -0.2946 -0.0957 -0.3280
 3785SOL    MW414908   2.800   4.048   3.092  0.7667 -0.0921  0.4647
 3786SOL     OW14909   3.296   3.585   0.472 -0.0587  0.0280  0.4266
 3786SOL    HW214910   3.211   3.615   0.440 -0.0047  0.8617  1.0516
 3786SOL    HW314911   3.328   3.526   0.403 -0.6621  0.5404 -0.3019
 3786SOL    MW414912   3.289   3.581   0.458 -0.0594  0.2225 -0.6278
 3787SOL     OW14913   3.104   1.865   3.595 -0.2043 -0.3552 -0.4740
 3787SOL    HW214914   3.170   1.934   3.583 -0.5586 -0.0491 -0.7057
 3787SOL    HW314915   3.136   1.814   3.668 -0.5810  0.8467  0.5675
 3787SOL    MW414916   3.117   1.867   3.603  0.3114  0.5094 -0.3466
 3788SOL     OW14917   5.501   4.077   1.728  0.5213 -0.4928  0.2631
 3788SOL    HW214918   5.453   3.997   1.749  0.5054 -0.6773 -0.4590
 3788SOL    HW314919   5.499   4.082   1.632  1.8284 -0.4248  0.2210
 3788SOL    MW414920   5.494   4.068   1.718  0.6199  0.1034  0.3385
 3789SOL     OW14921   1.549   4.690   1.632 -0.3779 -0.1369 -0.0077
 3789SOL    HW214922   1.463   4.708   1.672 -1.3549 -1.4849 -1.3849
 3789SOL    HW314923   1.538   4.605   1.590  1.9437 -0.7759  0.5547
 3789SOL    MW414924   1.536   4.681   1.632 -0.1524  0.7336 -0.3065
 3790SOL     OW14925   2.195   0.034   6.359  0.1460 -0.5829  0.3891
 3790SOL    HW214926   2.210   0.012   6.451 -1.3646  1.8395  1.3025
 3790SOL    HW314927   2.112  -0.008   6.338 -0.3085  0.1423  0.6667
 3790SOL    MW414928   2.186   0.026   6.369  0.4047 -0.1638  0.0045
 3791SOL     OW14929   4.732   5.526   0.059 -0.2512  0.2322 -0.2582
 3791SOL    HW214930   4.717   5.615   0.028 -0.0502  0.1273 -0.6698
 3791SOL    HW314931   4.807   5.533   0.118 -0.4991  0.3988  0.0411
 3791SOL    MW414932   4.740   5.539   0.063 -0.0906 -0.3832  0.1626
 3792SOL     OW14933   0.583   6.175   5.503 -0.1200  0.2862  0.3556
 3792SOL    HW214934   0.578   6.123   5.423  0.9938  1.3357 -0.4333
 3792SOL    HW314935   0.531   6.253   5.484 -0.8250  0.0008  1.0963
 3792SOL    MW414936   0.576   6.179   5.490  0.0937  0.4482  0.1376
 3793SOL     OW14937   3.392   6.400   3.674  0.1484 -0.2407  0.0605
 3793SOL    HW214938   3.358   6.342   3.605  0.3674 -0.2005 -0.0803
 3793SOL    HW314939   3.398   6.486   3.632  0.3981 -0.2417  0.0982
 3793SOL    MW414940   3.388   6.404   3.659  0.1873  0.0589 -0.3746
 3794SOL     OW14941   0.730   5.396   2.517  0.0213 -0.3774  0.2023
 3794SOL    HW214942   0.758   5.379   2.608  1.0308 -1.3483 -0.2520
 3794SOL    HW314943   0.646   5.440   2.525 -0.4420 -1.4390  1.6060
 3794SOL    MW414944   0.723   5.399   2.530  0.6264  0.0130  0.0140
 3795SOL     OW14945   4.338   2.074   4.118 -0.1031  0.3270  0.0700
 3795SOL    HW214946   4.401   2.096   4.187  0.6358  0.7915 -0.7263
 3795SOL    HW314947   4.277   2.014   4.159  0.4450  0.4379  1.0728
 3795SOL    MW414948   4.339   2.069   4.132 -0.1785  0.4582  0.2795
 3796SOL     OW14949   0.897   4.880   2.316 -0.2433  0.4402 -0.5873
 3796SOL    HW214950   0.959   4.821   2.360 -0.9246 -0.4277 -0.7658
 3796SOL    HW314951   0.895   4.958   2.370 -1.1133 -0.6190  0.9721
 3796SOL    MW414952   0.905   4.882   2.329  0.4183  0.1879 -0.2025
 3797SOL     OW14953   5.744   1.459   1.622  0.0911  0.0557  0.2430
 3797SOL    HW214954   5.826   1.425   1.586  0.4503  1.3641 -0.2013
 3797SOL    HW314955   5.680   1.388   1.607  0.6710 -0.1859 -1.2298
 3797SOL    MW414956   5.746   1.445   1.615  0.4296  0.0435 -0.1772
 3798SOL     OW14957   4.200   3.374   2.065  0.1473  0.0778  0.1679
 3798SOL    HW214958   4.146   3.357   1.987  1.7887 -0.6989 -0.8462
 3798SOL    HW314959   4.173   3.461   2.094 -0.7336  0.2484 -1.0821
 3798SOL    MW414960   4.189   3.384   2.058 -0.2964 -0.3208  0.0202
 3799SOL     OW14961   1.074   4.361   5.401  0.1878 -0.0505  0.2783
 3799SOL    HW214962   0.983   4.367   5.431 -0.1198 -2.1348 -0.0849
 3799SOL    HW314963   1.126   4.376   5.479 -0.4558  0.9361  0.5374
 3799SOL    MW414964   1.069   4.363   5.415  0.6926 -0.8193 -0.3451
 3800SOL     OW14965   2.079   3.199   2.978 -0.7297  0.0365 -0.1818
 3800SOL    HW214966   2.157   3.226   2.930 -0.9310  0.5138 -0.2467
 3800SOL    HW314967   2.110   3.187   3.068 -0.2133 -1.5052 -0.5406
 3800SOL    MW414968   2.093   3.201   2.984  0.2700  0.2635 -0.4231
 3801SOL     OW14969   2.459   4.474   5.733  0.1937 -0.1370 -0.1055
 3801SOL    HW214970   2.421   4.425   5.660  0.6711  0.1199 -0.5326
 3801SOL    HW314971   2.500   4.408   5.788  0.2978 -0.2803 -0.3532
 3801SOL    MW414972   2.459   4.459   5.730  0.9301  0.6806  0.1998
 3802SOL     OW14973   0.007   5.145   2.656 -0.1164  0.3953  0.0210
 3802SOL    HW214974   0.075   5.208   2.635 -1.1149  0.9963 -1.5900
 3802SOL    HW314975  -0.002   5.091   2.577 -0.3350 -0.7896  0.8199
 3802SOL    MW414976   0.015   5.146   2.643  0.0497  0.1877  0.0178
 3803SOL     OW14977   4.487   3.472   6.294  0.1734 -0.3714 -0.3903
 3803SOL    HW214978   4.531   3.421   6.362  0.8893 -0.2977 -0.7897
 3803SOL    HW314979   4.404   3.427   6.280  0.7323 -1.3545 -0.6399
 3803SOL    MW414980   4.482   3.460   6.301  0.1326  0.0055  0.1436
 3804SOL     OW14981   3.748   3.753   1.081  0.2080 -0.4776 -0.3246
 3804SOL    HW214982   3.704   3.668   1.076 -1.4168  0.1626  1.7503
 3804SOL    HW314983   3.787   3.755   1.168  0.0633  0.9447 -0.2669
 3804SOL    MW414984   3.747   3.742   1.092  0.4118  0.1252 -0.1064
 3805SOL     OW14985   2.766   3.776   1.644 -0.1073 -0.1373 -0.2575
 3805SOL    HW214986   2.768   3.863   1.683 -0.2177 -0.5276  0.6271
 3805SOL    HW314987   2.851   3.767   1.600  0.4092 -0.0585  0.7048
 3805SOL    MW414988   2.778   3.786   1.643 -0.1266 -0.3340  0.1684
 3806SOL     OW14989   0.985   1.006   1.290 -0.0039 -0.2552 -0.1882
 3806SOL    HW214990   0.920   1.042   1.231 -0.7022 -0.8155  0.2141
 3806SOL    HW314991   0.980   1.061   1.368  0.3808  0.0244 -0.3605
 3806SOL    MW414992   0.976   1.018   1.293  0.3394  0.8530  0.1086
 3807SOL     OW14993   4.022   1.511   0.461 -0.0746  0.5800  0.0792
 3807SOL    HW214994   4.110   1.528   0.427  0.2156  1.9491  1.4318
 3807SOL    HW314995   3.972   1.590   0.442 -0.6633  0.3093  0.4472
 3807SOL    MW414996   4.027   1.523   0.454  0.8280 -0.1911 -0.4691
 3808SOL     OW14997   3.902   6.315   1.011 -0.2183  0.0705 -0.4189
 3808SOL    HW214998   3.925   6.256   1.083 -0.4327 -0.7321 -0.9827
 3808SOL    HW314999   3.879   6.397   1.053  0.4279 -0.1431  0.3723
 3808SOL    MW415000   3.902   6.318   1.026  0.3302 -0.1633 -0.3008
 3809SOL     OW15001   1.327   2.528   3.152 -0.2277  0.7123 -0.1022
 3809SOL    HW215002   1.298   2.606   3.105 -0.3359  1.0029  0.4328
 3809SOL    HW315003   1.307   2.547   3.244 -0.9383 -0.2391 -0.0386
 3809SOL    MW415004   1.320   2.540   3.158 -0.0394 -0.1253 -0.0844
 3810SOL     OW15005   5.097   1.760   0.090  0.1340  0.3634 -0.6147
 3810SOL    HW215006   5.142   1.792   0.168 -4.0409  0.8032  1.8735
 3810SOL    HW315007   5.123   1.667   0.085  0.9920  0.4839  0.8772
 3810SOL    MW415008   5.107   1.752   0.100 -0.7197  0.2184  0.2434
 3811SOL     OW15009   5.806   4.526   2.359 -0.2808  0.0325  0.6964
 3811SOL    HW215010   5.842   4.610   2.331 -1.3751  0.1575 -0.4484
 3811SOL    HW315011   5.882   4.468   2.363  0.3521  0.8269  0.5451
 3811SOL    MW415012   5.821   4.529   2.356  0.9802  0.3654  0.5715
 3812SOL     OW15013   2.791   5.627   1.043  0.5776 -0.0204 -0.1201
 3812SOL    HW215014   2.846   5.684   0.989  0.3300  0.4090  0.0739
 3812SOL    HW315015   2.749   5.686   1.106 -3.1523  0.3667 -2.6192
 3812SOL    MW415016   2.793   5.642   1.044  0.4174  0.9559  0.0521
 3813SOL     OW15017   1.782   1.952   4.129  0.4846 -0.5703 -0.2614
 3813SOL    HW215018   1.717   1.999   4.077  0.2732  1.3410  1.6073
 3813SOL    HW315019   1.740   1.867   4.147 -1.2325  0.3402  0.3091
 3813SOL    MW415020   1.768   1.947   4.124 -0.7700  0.3944 -0.0551
 3814SOL     OW15021   1.947   2.120   4.280  0.7846  0.4330 -0.1332
 3814SOL    HW215022   2.008   2.144   4.210 -0.1962  2.0363 -0.4731
 3814SOL    HW315023   1.895   2.049   4.243  1.7723 -0.3011 -0.1749
 3814SOL    MW415024   1.948   2.114   4.266  0.0066  0.2789  0.0214
 3815SOL     OW15025   3.398   2.601   1.688 -0.2889 -0.1729 -0.2309
 3815SOL    HW215026   3.303   2.598   1.699  0.0754 -1.2221  5.2013
 3815SOL    HW315027   3.424   2.510   1.676  0.1657 -0.3702  1.9249
 3815SOL    MW415028   3.389   2.589   1.688 -0.1176  0.1002  0.6866
 3816SOL     OW15029   4.954   6.366   1.491 -0.2675 -0.2141 -0.0706
 3816SOL    HW215030   4.940   6.272   1.479 -1.7822  0.2511 -2.8105
 3816SOL    HW315031   5.039   6.382   1.450 -0.9242 -0.1420 -1.4654
 3816SOL    MW415032   4.964   6.355   1.484 -0.3937  0.2526  0.1827
 3817SOL     OW15033   5.080   1.441   5.424  0.1457  0.2383  0.8312
 3817SOL    HW215034   5.123   1.356   5.420  0.6797  0.5059  0.7965
 3817SOL    HW315035   5.087   1.468   5.516 -0.4526  0.0310  0.9428
 3817SOL    MW415036   5.086   1.434   5.436  0.1339  0.0651  0.0857
 3818SOL     OW15037   6.202   5.727   0.900  0.0044  0.2307  0.3284
 3818SOL    HW215038   6.274   5.766   0.949 -2.2809  1.5294  2.9451
 3818SOL    HW315039   6.135   5.709   0.966 -2.8112  0.8270 -2.1371
 3818SOL    MW415040   6.202   5.730   0.915  0.3119 -0.2268 -0.1515
 3819SOL     OW15041   6.032   0.402   0.510  0.7304  0.0709 -0.4318
 3819SOL    HW215042   6.069   0.385   0.423  1.6648 -1.4319  0.2267
 3819SOL    HW315043   6.039   0.318   0.556 -0.5604  0.6062  0.8147
 3819SOL    MW415044   6.038   0.389   0.504  0.5844 -0.2451  0.1435
 3820SOL     OW15045   3.409   0.462   3.977 -0.0495 -0.3205  0.2117
 3820SOL    HW215046   3.385   0.497   4.063 -2.2751 -1.0040 -0.0758
 3820SOL    HW315047   3.419   0.368   3.991  1.1394 -0.2402  0.0078
 3820SOL    MW415048   3.407   0.455   3.990 -0.1395 -0.0911 -0.1259
 3821SOL     OW15049   2.288   2.473   4.459 -0.2714  0.1184 -0.2656
 3821SOL    HW215050   2.336   2.390   4.453 -0.4910  0.0740 -1.8611
 3821SOL    HW315051   2.200   2.453   4.429 -1.1645  0.3541  2.0106
 3821SOL    MW415052   2.283   2.460   4.454  0.0099  0.2119 -0.1642
 3822SOL     OW15053   3.297   4.197   5.935 -0.3916 -0.1187 -0.8352
 3822SOL    HW215054   3.290   4.158   5.849  1.3463  0.0515 -1.0874
 3822SOL    HW315055   3.263   4.130   5.995  1.7304 -1.7563 -1.3289
 3822SOL    MW415056   3.292   4.183   5.932 -0.3939 -0.6369 -0.5756
 3823SOL     OW15057   1.730   1.358   0.089 -0.0857 -0.2867  0.0180
 3823SOL    HW215058   1.798   1.366   0.156 -0.4254  0.1234  0.3205
 3823SOL    HW315059   1.775   1.374   0.006  0.6422 -2.1973 -0.0154
 3823SOL    MW415060   1.745   1.361   0.087 -0.5625 -0.3528 -0.0987
 3824SOL     OW15061   5.301   2.384  -0.011 -0.2608  0.3362 -0.4264
 3824SOL    HW215062   5.281   2.473   0.019 -1.1189  0.1251 -0.3317
 3824SOL    HW315063   5.371   2.395  -0.075  0.9812  0.8808  0.9831
 3824SOL    MW415064   5.308   2.397  -0.016  0.5795  0.0030 -0.0909
 3825SOL     OW15065   0.595   4.157   4.511 -0.2912 -0.3098  0.5103
 3825SOL    HW215066   0.689   4.157   4.494 -0.4390 -0.1043 -0.3233
 3825SOL    HW315067   0.586   4.211   4.590  0.2885 -0.3951  0.6451
 3825SOL    MW415068   0.606   4.164   4.519  0.6040  0.0621  0.0216
 3826SOL     OW15069   2.820   6.283   4.653  0.3494 -0.1702 -0.0514
 3826SOL    HW215070   2.909   6.316   4.642 -0.4509  1.8536 -0.9224
 3826SOL    HW315071   2.821   6.197   4.612  2.7905 -1.9557  3.2106
 3826SOL    MW415072   2.832   6.276   4.646  0.9684 -0.6107 -0.1680
 3827SOL     OW15073   5.937   3.095   4.192  0.3762 -0.0100 -0.2586
 3827SOL    HW215074   5.983   3.124   4.113  0.4861 -0.3252 -0.3102
 3827SOL    HW315075   5.991   3.025   4.227  0.7479  0.6610  0.5478
 3827SOL    MW415076   5.950   3.090   4.186 -0.0174 -0.2163 -0.2889
 3828SOL     OW15077   1.304   1.530   4.089  0.1813 -0.0904 -0.0392
 3828SOL    HW215078   1.247   1.530   4.166  0.5473 -0.4626  0.2388
 3828SOL    HW315079   1.351   1.614   4.094  1.9159 -1.0822  1.4595
 3828SOL    MW415080   1.303   1.541   4.100  0.4591  0.1145  0.4750
 3829SOL     OW15081   4.176   3.399   6.280 -0.0860 -0.4289  0.6381
 3829SOL    HW215082   4.145   3.317   6.242  0.0666 -0.1490 -0.1024
 3829SOL    HW315083   4.154   3.393   6.373 -0.0319 -1.3266  0.5938
 3829SOL    MW415084   4.169   3.388   6.287 -0.3891  0.2930 -0.5087
 3830SOL     OW15085   1.982   3.582   5.338 -0.1179 -0.1347  0.2549
 3830SOL    HW215086   2.046   3.517   5.368 -0.2861 -1.2952 -1.7642
 3830SOL    HW315087   1.934   3.607   5.417  2.3664  0.3163  1.7257
 3830SOL    MW415088   1.984   3.577   5.353  0.0554  0.6042 -0.2887
 3831SOL     OW15089   1.724   3.747   3.587 -0.2136  0.0127 -0.1229
 3831SOL    HW215090   1.807   3.715   3.552 -0.4986  0.7223 -1.5437
 3831SOL    HW315091   1.661   3.732   3.516 -1.4486 -1.0462  1.1388
 3831SOL    MW415092   1.727   3.741   3.573 -0.2755 -0.3625 -0.0427
 3832SOL     OW15093   3.948   6.089   1.162 -0.4861 -0.1498  0.5820
 3832SOL    HW215094   3.933   5.995   1.154  2.3582 -0.7023  0.8263
 3832SOL    HW315095   3.895   6.116   1.238 -0.4879 -1.7654  1.1823
 3832SOL    MW415096   3.939   6.080   1.171  0.4342 -0.6252 -0.4294
 3833SOL     OW15097   1.141   5.514   2.620  0.3160 -0.2062  0.2392
 3833SOL    HW215098   1.094   5.518   2.536  0.1547 -0.2974  0.3248
 3833SOL    HW315099   1.223   5.471   2.599  0.1303 -0.5414  0.1913
 3833SOL    MW415100   1.145   5.509   2.606  0.0090 -0.2365 -0.0501
 3834SOL     OW15101   0.775   1.172   2.791 -0.1809 -0.1904  0.4263
 3834SOL    HW215102   0.843   1.108   2.812 -0.9869 -0.9649  0.7511
 3834SOL    HW315103   0.816   1.230   2.728  0.9237 -0.3782  0.9353
 3834SOL    MW415104   0.790   1.171   2.786  0.4517 -0.6165  0.3000
 3835SOL     OW15105   4.089   3.335   5.903 -0.2928  0.1292  0.2544
 3835SOL    HW215106   4.031   3.275   5.857  0.9373 -1.5085  0.7537
 3835SOL    HW315107   4.156   3.279   5.942  0.0683  1.6798  2.0119
 3835SOL    MW415108   4.090   3.320   5.902 -0.7936  0.7007  0.2772
 3836SOL     OW15109   5.662   1.848   5.671 -0.6367  0.2515 -0.0520
 3836SOL    HW215110   5.727   1.801   5.724  0.1799  1.9559  0.5671
 3836SOL    HW315111   5.601   1.885   5.735 -0.5606  1.0140 -0.4038
 3836SOL    MW415112   5.663   1.847   5.687 -0.5114 -0.3888  0.0962
 3837SOL     OW15113   5.994   0.055   2.120  0.1819 -0.5453  0.4113
 3837SOL    HW215114   5.993   0.141   2.162 -0.2333 -1.0996  1.5594
 3837SOL    HW315115   5.996  -0.007   2.192  3.5622 -1.5237 -0.3311
 3837SOL    MW415116   5.994   0.058   2.135  0.2925  0.0177  0.2183
 3838SOL     OW15117   1.172   2.477   6.098  0.5654 -0.2005 -0.8326
 3838SOL    HW215118   1.263   2.504   6.091  0.5606 -0.2233 -0.9903
 3838SOL    HW315119   1.129   2.517   6.022  0.8189 -1.6979 -1.8071
 3838SOL    MW415120   1.178   2.486   6.087 -0.3804  0.3758 -0.1931
 3839SOL     OW15121   1.236   2.191   1.861 -0.0076  0.6206  0.2973
 3839SOL    HW215122   1.221   2.157   1.949 -1.2214 -2.1081 -0.8539
 3839SOL    HW315123   1.160   2.247   1.844 -0.7928 -0.4045  0.3159
 3839SOL    MW415124   1.224   2.194   1.870  0.6758  0.4313  0.4372
 3840SOL     OW15125   5.097   4.427   4.904  0.2679 -0.1008 -0.3642
 3840SOL    HW215126   5.177   4.450   4.857  0.4434 -0.8603 -0.4446
 3840SOL    HW315127   5.073   4.506   4.952  0.2758  0.5780 -1.4612
 3840SOL    MW415128   5.104   4.440   4.904  0.0502  0.0722  0.5978
 3841SOL     OW15129   1.932   2.131   2.132  0.4372 -0.0455  0.0794
 3841SOL    HW215130   1.878   2.202   2.167 -0.0399 -0.9147  1.1306
 3841SOL    HW315131   1.870   2.062   2.108  1.0745 -1.5471  2.4144
 3841SOL    MW415132   1.917   2.131   2.133  0.4192  0.1341  0.4399
 3842SOL     OW15133   1.312   3.889   0.759 -0.4218  0.1721  0.1448
 3842SOL    HW215134   1.346   3.799   0.756 -1.6730 -0.3151 -2.3122
 3842SOL    HW315135   1.232   3.886   0.706 -2.0868  2.1452  2.3241
 3842SOL    MW415136   1.306   3.877   0.752 -0.0229 -0.0781  0.0054
 3843SOL     OW15137   1.462   3.304   2.814 -0.2568  0.4216  0.3105
 3843SOL    HW215138   1.430   3.394   2.804  3.6064  2.0918  1.1526
 3843SOL    HW315139   1.518   3.290   2.738 -0.6871 -1.3050  0.2721
 3843SOL    MW415140   1.465   3.314   2.803 -0.5581 -0.4769  0.1487
 3844SOL     OW15141   1.107   3.505   0.685 -0.4127 -0.4016 -0.0661
 3844SOL    HW215142   1.060   3.568   0.741  0.2818  0.1653 -0.1078
 3844SOL    HW315143   1.107   3.546   0.598 -0.5171 -0.7609 -0.2347
 3844SOL    MW415144   1.101   3.519   0.681  0.2624  0.2245 -0.0489
 3845SOL     OW15145   4.395   3.154   1.632  0.2481 -0.1201 -0.7459
 3845SOL    HW215146   4.429   3.131   1.719 -1.0412  0.4235 -0.0635
 3845SOL    HW315147   4.315   3.102   1.624  0.1322  0.1643 -1.4260
 3845SOL    MW415148   4.389   3.144   1.643  0.1971 -0.2827 -0.0771
 3846SOL     OW15149   5.553   1.220   2.929 -0.1349 -0.0494  0.6027
 3846SOL    HW215150   5.502   1.259   2.999 -0.0887 -2.3162  1.9868
 3846SOL    HW315151   5.642   1.213   2.964  0.3660  0.6797 -0.4758
 3846SOL    MW415152   5.558   1.224   2.943 -0.0990 -0.1813 -0.1090
 3847SOL     OW15153   1.080   3.830   3.184  0.6897 -0.3063  0.6226
 3847SOL    HW215154   1.102   3.910   3.136  1.5850 -1.1638 -0.4187
 3847SOL    HW315155   0.990   3.810   3.157  1.3506 -1.0623 -1.1355
 3847SOL    MW415156   1.071   3.838   3.174 -0.4792  0.2444 -0.3903
 3848SOL     OW15157   3.104   1.236   1.380 -0.2355  0.1524 -0.1543
 3848SOL    HW215158   3.098   1.197   1.468  1.2965  0.3568  0.0797
 3848SOL    HW315159   3.153   1.317   1.394  1.1108 -0.4231 -1.3650
 3848SOL    MW415160   3.110   1.241   1.394  0.2409  0.4010 -0.1739
 3849SOL     OW15161   0.645   3.160   5.974  0.3969 -0.0752 -0.1070
 3849SOL    HW215162   0.697   3.081   5.959 -0.8132 -0.7294 -1.0738
 3849SOL    HW315163   0.661   3.183   6.065  1.9220 -0.5769 -0.2280
 3849SOL    MW415164   0.654   3.153   5.984 -0.3302  0.5569 -0.1535
 3850SOL     OW15165   1.553   3.443   1.068 -0.7504 -0.6911  0.5058
 3850SOL    HW215166   1.497   3.379   1.023 -0.7261 -0.5148  0.2217
 3850SOL    HW315167   1.503   3.524   1.067 -0.9330 -0.7889  1.1851
 3850SOL    MW415168   1.539   3.445   1.062 -0.1019 -0.0094  0.2545
 3851SOL     OW15169   1.066   5.072   0.863 -0.2439  0.1112  0.8141
 3851SOL    HW215170   1.115   4.991   0.851 -1.0824 -0.6712  2.4145
 3851SOL    HW315171   1.019   5.083   0.780  2.2762  0.7194 -0.6452
 3851SOL    MW415172   1.066   5.063   0.850  0.5482  0.8120  0.0232
 3852SOL     OW15173   5.801   5.864   0.619  0.0564 -0.2848 -0.0218
 3852SOL    HW215174   5.743   5.854   0.695  0.8175  3.2226  1.2234
 3852SOL    HW315175   5.746   5.905   0.552  0.2916  0.0871  0.0085
 3852SOL    MW415176   5.786   5.868   0.620  0.1895 -0.3939 -0.1468
 3853SOL     OW15177   1.295   3.292   1.642  0.4885  0.1954 -0.1470
 3853SOL    HW215178   1.381   3.278   1.602  0.6219 -0.6968  0.4322
 3853SOL    HW315179   1.286   3.387   1.646  2.0286  0.3333  0.9866
 3853SOL    MW415180   1.305   3.303   1.637  0.2965  0.2854  0.3210
 3854SOL     OW15181   4.390   4.715   4.268  0.0862 -0.4571  0.2261
 3854SOL    HW215182   4.351   4.649   4.211 -1.0926  1.2035 -1.0026
 3854SOL    HW315183   4.322   4.736   4.331  1.1422 -1.7753  1.8655
 3854SOL    MW415184   4.376   4.709   4.269 -0.0201 -0.5279 -0.0548
 3855SOL     OW15185   5.287   3.870   2.302 -0.2618  0.4720 -0.5560
 3855SOL    HW215186   5.259   3.779   2.299 -0.5011  0.4767  0.8535
 3855SOL    HW315187   5.338   3.877   2.383 -1.4589  1.9009  0.1189
 3855SOL    MW415188   5.290   3.859   2.313 -0.4908 -0.7111 -0.0375
 3856SOL     OW15189   0.876   1.139   6.302  0.1687 -0.3714 -0.1221
 3856SOL    HW215190   0.943   1.098   6.357 -0.3258 -0.6762  0.2658
 3856SOL    HW315191   0.890   1.233   6.313  0.6328 -0.4308 -0.1713
 3856SOL    MW415192   0.887   1.146   6.311  0.0454 -0.0558 -0.5711
 3857SOL     OW15193   1.635   6.065   5.201 -0.1410 -0.2324 -0.5741
 3857SOL    HW215194   1.635   6.019   5.117  1.0888 -2.1075  0.3833
 3857SOL    HW315195   1.719   6.110   5.204  0.1416 -0.7787 -0.0650
 3857SOL    MW415196   1.646   6.065   5.190  0.3577 -0.3233 -0.1420
 3858SOL     OW15197   4.911   5.890   5.743 -0.1042  0.5191  0.1750
 3858SOL    HW215198   4.957   5.847   5.815 -2.5022  0.0189  1.5525
 3858SOL    HW315199   4.980   5.922   5.685  1.9676  1.0517  2.7400
 3858SOL    MW415200   4.926   5.888   5.745  0.1407 -0.6314 -0.0246
 3859SOL     OW15201   5.714   0.726   2.024 -0.4284  0.0433 -0.2562
 3859SOL    HW215202   5.794   0.675   2.034 -0.7188 -0.7309 -1.6235
 3859SOL    HW315203   5.664   0.680   1.957 -2.1021  0.4229  0.6569
 3859SOL    MW415204   5.718   0.714   2.017  0.8382  0.0198 -0.2875
 3860SOL     OW15205   6.034   3.624   0.764 -0.1710  0.2162 -0.6096
 3860SOL    HW215206   5.962   3.671   0.721  1.6728  2.8807 -1.0050
 3860SOL    HW315207   6.037   3.660   0.853 -1.2840 -2.2320  0.5132
 3860SOL    MW415208   6.025   3.635   0.770 -0.2750  0.2655  0.8719
 3861SOL     OW15209   4.936   5.260   3.707 -0.2240 -0.2371 -0.0653
 3861SOL    HW215210   4.991   5.298   3.639 -0.1560  0.3181  0.2905
 3861SOL    HW315211   4.896   5.336   3.750  1.0396 -0.4622  1.6159
 3861SOL    MW415212   4.938   5.275   3.704 -0.0444 -0.0383  0.2928
 3862SOL     OW15213   5.360   0.771   5.134 -0.1420  0.1461 -0.2216
 3862SOL    HW215214   5.427   0.795   5.070  2.3554 -0.7611  1.8570
 3862SOL    HW315215   5.339   0.854   5.178  1.6448  0.1108  0.8208
 3862SOL    MW415216   5.366   0.785   5.132  0.0762 -0.1326 -0.0844
 3863SOL     OW15217   5.701   0.337   0.901  0.0829 -0.2260  0.4878
 3863SOL    HW215218   5.736   0.288   0.975  0.8654 -0.4238  0.0024
 3863SOL    HW315219   5.644   0.403   0.940 -0.8513 -1.3886  1.1757
 3863SOL    MW415220   5.698   0.339   0.916  0.5720 -0.5845 -0.0386
 3864SOL     OW15221   4.861   2.268   2.212 -0.3093  0.1596  0.0182
 3864SOL    HW215222   4.950   2.247   2.241 -0.1772  0.8718  0.1528
 3864SOL    HW315223   4.860   2.245   2.119 -0.1507 -0.3544  0.1400
 3864SOL    MW415224   4.873   2.262   2.204  0.3878  0.4456 -0.2765
 3865SOL     OW15225   2.498   4.629   6.267  0.2663 -0.0696  0.0333
 3865SOL    HW215226   2.482   4.588   6.352  1.1521 -0.0009  0.2368
 3865SOL    HW315227   2.419   4.680   6.250 -0.2146 -0.6466  0.4799
 3865SOL    MW415228   2.485   4.630   6.276  0.8070 -0.1025 -0.0981
 3866SOL     OW15229   5.068   5.706   4.501 -0.2129 -0.2824 -0.2125
 3866SOL    HW215230   5.132   5.678   4.566 -0.1630  0.7009  0.1805
 3866SOL    HW315231   5.006   5.634   4.495  1.0568 -1.3673 -0.7879
 3866SOL    MW415232   5.068   5.693   4.509 -0.2643 -0.1155 -0.1958
 3867SOL     OW15233   3.488   1.060   3.027 -0.1696 -0.0998  0.7090
 3867SOL    HW215234   3.532   1.134   3.068  1.4508 -2.2570  3.1501
 3867SOL    HW315235   3.457   1.006   3.100 -0.3180 -2.3734 -0.9040
 3867SOL    MW415236   3.490   1.062   3.042 -0.3983 -0.5224  0.1600
 3868SOL     OW15237   5.285   4.620   0.242 -0.2594  0.1010 -0.3924
 3868SOL    HW215238   5.234   4.654   0.316  0.5882 -0.4350  0.4702
 3868SOL    HW315239   5.370   4.662   0.251 -0.1197 -0.0522 -1.0065
 3868SOL    MW415240   5.289   4.630   0.253  0.4787 -0.2134 -0.1467
 3869SOL     OW15241   5.494   3.660   1.454 -0.3713  0.3798 -0.3250
 3869SOL    HW215242   5.454   3.574   1.443  0.3961 -0.1280  0.6919
 3869SOL    HW315243   5.529   3.682   1.368  3.0016 -2.1876  0.1765
 3869SOL    MW415244   5.493   3.652   1.442 -0.5777 -0.4652 -0.7380
 3870SOL     OW15245   1.548   1.569   5.457  0.0249  0.0484  0.4043
 3870SOL    HW215246   1.470   1.539   5.410 -0.5825 -0.1343  1.4938
 3870SOL    HW315247   1.581   1.491   5.502  1.0312  0.0526 -0.2796
 3870SOL    MW415248   1.542   1.555   5.457  0.2669  0.3215  0.1862
 3871SOL     OW15249   0.391   6.316   3.030  0.2319  0.3754  0.1664
 3871SOL    HW215250   0.428   6.254   2.968 -0.6941  0.7394 -0.7893
 3871SOL    HW315251   0.384   6.398   2.980 -1.5458  0.3898  0.3825
 3871SOL    MW415252   0.395   6.319   3.015 -0.0017 -0.2657 -0.5572
 3872SOL     OW15253   3.144   4.596   6.076 -0.6116 -0.2324  0.4681
 3872SOL    HW215254   3.154   4.525   6.140 -1.4504 -0.0276  0.8410
 3872SOL    HW315255   3.075   4.651   6.112  0.5910  1.2465  0.6095
 3872SOL    MW415256   3.136   4.594   6.089  0.4453 -0.2692  0.0758
 3873SOL     OW15257   4.168   2.348   2.053  0.3435 -0.1316 -0.9172
 3873SOL    HW215258   4.094   2.338   1.993  1.2201 -0.9268 -1.8863
 3873SOL    HW315259   4.243   2.366   1.996  1.0530 -0.1610 -0.0079
 3873SOL    MW415260   4.168   2.349   2.037 -0.6569 -0.0036  0.2625
 3874SOL     OW15261   5.426   3.939   5.270  0.7901 -0.5306  0.4105
 3874SOL    HW215262   5.356   3.999   5.246  1.2521  0.0902  0.5822
 3874SOL    HW315263   5.506   3.984   5.243  1.1858 -0.7487  1.1780
 3874SOL    MW415264   5.428   3.953   5.264  0.1585  0.5384  0.0800
 3875SOL     OW15265   4.099   5.766   3.286 -0.1534  0.0810 -0.5313
 3875SOL    HW215266   4.132   5.852   3.310  0.1751  0.3389 -1.8648
 3875SOL    HW315267   4.164   5.705   3.322 -0.8724  0.2845  1.2607
 3875SOL    MW415268   4.112   5.769   3.294 -0.4645 -0.3414  0.6548
 3876SOL     OW15269   1.573   2.156   4.978 -0.1780  0.6636 -0.2436
 3876SOL    HW215270   1.479   2.154   4.960 -0.0541  0.9816 -0.9519
 3876SOL    HW315271   1.614   2.143   4.892  0.4273  0.6133  0.0470
 3876SOL    MW415272   1.566   2.154   4.964  0.3244 -0.2422 -0.4142
 3877SOL     OW15273   3.666   4.793   3.651  0.2812  0.0396 -0.0362
 3877SOL    HW215274   3.748   4.750   3.628 -0.9513 -1.6991 -1.4984
 3877SOL    HW315275   3.664   4.872   3.596  1.7358  1.0833  1.3333
 3877SOL    MW415276   3.676   4.798   3.640  0.4967 -0.7889 -0.3531
 3878SOL     OW15277   2.105   1.240   0.245 -0.4352 -0.0256 -0.2967
 3878SOL    HW215278   2.077   1.281   0.164 -1.4459 -0.7103 -0.3138
 3878SOL    HW315279   2.200   1.233   0.237 -0.5533 -0.3627 -1.5564
 3878SOL    MW415280   2.114   1.244   0.234 -0.2601 -0.1485 -0.4063
 3879SOL     OW15281   3.366   3.957   5.420 -0.0266  0.0742 -0.2392
 3879SOL    HW215282   3.353   4.029   5.359  1.6397  0.3424 -0.3379
 3879SOL    HW315283   3.457   3.931   5.406  0.1681 -0.3525  1.6043
 3879SOL    MW415284   3.377   3.963   5.410 -0.4614 -0.0266 -0.2634
 3880SOL     OW15285   2.567   4.292   3.230 -0.1092 -0.5640 -0.1227
 3880SOL    HW215286   2.521   4.312   3.312 -0.1223 -1.8079  0.2013
 3880SOL    HW315287   2.511   4.228   3.186  0.8230 -1.3650 -0.1795
 3880SOL    MW415288   2.553   4.286   3.235 -0.1641  0.0594 -0.5223
 3881SOL     OW15289   0.903   0.827   4.315 -0.1238  0.1463 -0.6716
 3881SOL    HW215290   0.953   0.873   4.384 -0.6060 -0.9219  0.4312
 3881SOL    HW315291   0.952   0.844   4.235 -0.2986  2.5862 -0.3332
 3881SOL    MW415292   0.916   0.836   4.314  0.2854  0.0807  0.0363
 3882SOL     OW15293   1.407   2.973   3.156  0.1347  0.1737 -0.1378
 3882SOL    HW215294   1.438   2.936   3.073  1.3754 -0.5795  0.6242
 3882SOL    HW315295   1.369   3.057   3.132 -0.0486 -0.2718 -1.5407
 3882SOL    MW415296   1.406   2.979   3.142  0.1063 -0.5741  0.0455
 3883SOL     OW15297   0.536   5.441   0.371 -0.5292 -0.0193  0.0257
 3883SOL    HW215298   0.517   5.511   0.433  2.3778  1.8439 -0.9999
 3883SOL    HW315299   0.589   5.379   0.421 -0.6837 -0.0436  0.1632
 3883SOL    MW415300   0.540   5.442   0.386  0.0945  0.8962  0.5331
 3884SOL     OW15301   1.444   4.974   0.698 -0.2262  0.2394 -0.2567
 3884SOL    HW215302   1.492   4.985   0.781 -0.6557 -0.8958  0.1683
 3884SOL    HW315303   1.395   5.055   0.688 -0.3224  0.3181  0.7209
 3884SOL    MW415304   1.444   4.986   0.708 -0.1386  0.3277  0.3542
 3885SOL     OW15305   3.645   5.059   4.647  0.2664  0.2465  0.2354
 3885SOL    HW215306   3.638   5.153   4.663  1.2882  0.2052  1.1135
 3885SOL    HW315307   3.593   5.043   4.569 -1.8820  1.1487  1.3955
 3885SOL    MW415308   3.637   5.070   4.639 -0.2141  0.6700  0.1722
 3886SOL     OW15309   0.266   3.660   2.094 -0.3691  0.1218 -0.1796
 3886SOL    HW215310   0.262   3.630   2.185  1.7526 -1.6490 -0.5815
 3886SOL    HW315311   0.315   3.742   2.100  1.9245 -1.1767  0.1404
 3886SOL    MW415312   0.272   3.667   2.107  0.1770 -0.2524 -0.4235
 3887SOL     OW15313   2.682   3.173   1.725 -0.0566 -0.0999 -0.3008
 3887SOL    HW215314   2.755   3.192   1.665  0.3171  1.3553  0.5564
 3887SOL    HW315315   2.637   3.099   1.685  1.0054 -0.0691 -1.6451
 3887SOL    MW415316   2.686   3.166   1.712  0.3013 -0.3074  0.4167
 3888SOL     OW15317   3.842   3.817   3.189  0.0028 -0.6448  0.0141
 3888SOL    HW215318   3.837   3.743   3.128 -0.0708 -2.2775  1.8793
 3888SOL    HW315319   3.891   3.884   3.141 -0.1381 -1.7948 -1.8558
 3888SOL    MW415320   3.848   3.816   3.175 -0.0719 -0.0962  0.8003
 3889SOL     OW15321   5.653   0.807   6.032 -0.1434  0.7058  0.0995
 3889SOL    HW215322   5.558   0.813   6.030 -0.1321  1.1214 -2.1195
 3889SOL    HW315323   5.679   0.800   5.940  1.9396 -0.1102  0.6840
 3889SOL    MW415324   5.644   0.807   6.020  0.5223 -0.2455  0.2060
 3890SOL     OW15325   4.872   4.366   0.662 -0.4074 -0.0452  0.3582
 3890SOL    HW215326   4.956   4.364   0.617 -1.0236  2.5325 -1.1308
 3890SOL    HW315327   4.809   4.336   0.596 -1.0171  1.3274  0.2722
 3890SOL    MW415328   4.875   4.362   0.648 -0.2379  0.2648  0.1738
 3891SOL     OW15329   3.548   2.832   1.338  0.8516  0.0671 -0.5532
 3891SOL    HW215330   3.501   2.860   1.417 -2.6489 -0.6065 -2.1906
 3891SOL    HW315331   3.587   2.748   1.362 -0.7573 -0.4848  0.3354
 3891SOL    MW415332   3.547   2.825   1.352  0.2328 -0.4383 -0.5189
 3892SOL     OW15333   4.920   3.577   0.070  0.6472  0.0943 -0.3049
 3892SOL    HW215334   4.842   3.608   0.117  0.9587  0.9793 -0.3552
 3892SOL    HW315335   4.917   3.481   0.079  0.1683  0.1872  0.6691
 3892SOL    MW415336   4.909   3.568   0.077 -0.3536 -0.4002  0.4322
 3893SOL     OW15337   4.675   3.641   5.925  0.4044 -0.0084  0.9259
 3893SOL    HW215338   4.724   3.626   6.005  0.1499 -0.1418  1.0554
 3893SOL    HW315339   4.643   3.731   5.933  1.3681  0.3881  0.4455
 3893SOL    MW415340   4.677   3.651   5.936  0.1294  0.7437 -0.4951
 3894SOL     OW15341   5.152   0.090   5.084  0.3025  0.3298 -0.4871
 3894SOL    HW215342   5.101   0.140   5.021  1.5452  0.5082 -1.3949
 3894SOL    HW315343   5.135   0.132   5.168 -3.3692 -1.4205 -0.1478
 3894SOL    MW415344   5.143   0.102   5.087 -0.5071  0.0495  0.0546
 3895SOL     OW15345   0.814   1.918   5.801  0.1510 -0.5800  0.3941
 3895SOL    HW215346   0.730   1.963   5.795  0.5592  0.2363  0.6178
 3895SOL    HW315347   0.863   1.949   5.725  0.0861 -1.4359 -0.0157
 3895SOL    MW415348   0.809   1.928   5.790  0.0608 -0.0592 -0.1867
 3896SOL     OW15349   3.187   1.684   6.198  0.6977 -0.3740 -0.0274
 3896SOL    HW215350   3.261   1.648   6.247  0.8663  1.1365  0.8793
 3896SOL    HW315351   3.113   1.676   6.258  0.6352  0.3252 -0.0109
 3896SOL    MW415352   3.187   1.678   6.213  0.0796  0.0680  0.2699
 3897SOL     OW15353   4.190   5.919   4.758 -0.2955 -0.0841 -0.1325
 3897SOL    HW215354   4.226   5.830   4.752  0.4434  0.1067  1.2822
 3897SOL    HW315355   4.262   5.972   4.790 -1.2522  0.7046  0.7597
 3897SOL    MW415356   4.204   5.914   4.761 -0.2306 -0.0438  0.3457
 3898SOL     OW15357   0.603   3.376   0.131  0.0988 -0.3702 -0.1559
 3898SOL    HW215358   0.616   3.406   0.041 -1.8118  0.5269 -0.1859
 3898SOL    HW315359   0.554   3.294   0.121  0.5517 -0.6649  0.0491
 3898SOL    MW415360   0.598   3.369   0.118  0.5020  0.0642  0.5686
 3899SOL     OW15361   3.900   4.055   1.328 -0.0300 -0.0021 -0.5390
 3899SOL    HW215362   3.971   4.100   1.375 -1.8944  1.1322  1.3814
 3899SOL    HW315363   3.874   4.117   1.260 -2.2178  1.8034  1.7487
 3899SOL    MW415364   3.906   4.069   1.325 -0.0120 -0.5842 -0.5025
 3900SOL     OW15365   3.654   0.573   0.080  0.2136 -0.2461 -0.2771
 3900SOL    HW215366   3.689   0.658   0.056  0.9864 -0.4286  0.1647
 3900SOL    HW315367   3.635   0.580   0.174  3.1240 -1.4420  0.5275
 3900SOL    MW415368   3.656   0.585   0.089  0.1332 -0.1564 -0.0246
 3901SOL     OW15369   2.775   5.167   5.374  0.8242 -0.0964 -0.2819
 3901SOL    HW215370   2.860   5.209   5.361 -0.1364  2.3552  0.7993
 3901SOL    HW315371   2.793   5.093   5.433  2.3200 -0.2534 -0.8933
 3901SOL    MW415372   2.788   5.162   5.380  0.6928 -0.0478  0.2724
 3902SOL     OW15373   3.792   4.516   2.258 -0.5254  0.0074 -0.1387
 3902SOL    HW215374   3.766   4.524   2.166  1.9144  1.9218 -0.7850
 3902SOL    HW315375   3.825   4.603   2.281 -1.4036 -0.3151  2.6967
 3902SOL    MW415376   3.793   4.529   2.249  0.0959 -0.2099  0.1777
 3903SOL     OW15377   1.721   2.620   3.858  0.3579  0.0825 -0.3432
 3903SOL    HW215378   1.735   2.644   3.950 -0.4406 -0.2759 -0.1194
 3903SOL    HW315379   1.734   2.703   3.811  0.1635  0.4072  0.1551
 3903SOL    MW415380   1.724   2.634   3.864  0.8704 -0.0250  0.1185
 3904SOL     OW15381   4.445   0.630   0.487  0.4022 -0.5890  0.0491
 3904SOL    HW215382   4.387   0.706   0.492 -0.7685 -1.4253 -0.2965
 3904SOL    HW315383   4.402   0.564   0.542  0.7050 -1.4362 -0.7175
 3904SOL    MW415384   4.432   0.631   0.495  0.2040 -0.1508  0.6438
 3905SOL     OW15385   0.854   0.079   0.744  0.0209  0.5775  0.4560
 3905SOL    HW215386   0.896   0.020   0.807  0.7443  2.2555  1.6413
 3905SOL    HW315387   0.860   0.034   0.660 -0.3352 -1.4221  1.4611
 3905SOL    MW415388   0.860   0.065   0.741  0.5332  0.7955 -0.0732
 3906SOL     OW15389   2.408   0.764   1.704 -0.3101 -0.2151 -0.0534
 3906SOL    HW215390   2.378   0.754   1.614  0.2357  0.0622 -0.2743
 3906SOL    HW315391   2.427   0.857   1.713 -0.0699 -0.2886  0.2486
 3906SOL    MW415392   2.407   0.775   1.693 -0.9021 -0.0107 -0.1382
 3907SOL     OW15393   5.126   2.392   1.316 -0.0038 -0.4749 -0.1278
 3907SOL    HW215394   5.144   2.362   1.406  0.4600 -1.3963 -0.5128
 3907SOL    HW315395   5.037   2.428   1.321  0.3567  0.3235  0.8912
 3907SOL    MW415396   5.117   2.393   1.329  0.0054  0.1925 -0.1155
 3908SOL     OW15397   4.405   3.957   3.653 -0.0080 -0.4984  0.0100
 3908SOL    HW215398   4.486   3.978   3.699 -0.0507  1.7822 -0.8515
 3908SOL    HW315399   4.373   3.877   3.696  1.0048  0.3502  2.5032
 3908SOL    MW415400   4.411   3.949   3.665  0.1751 -0.6908 -0.3479
 3909SOL     OW15401   1.185   2.463   4.461  0.1620 -0.4749  0.0968
 3909SOL    HW215402   1.118   2.450   4.394  0.9192 -4.1871 -0.1720
 3909SOL    HW315403   1.145   2.431   4.542  0.6347  0.0556  0.5501
 3909SOL    MW415404   1.171   2.457   4.463  0.3828  0.5667 -0.3246
 3910SOL     OW15405   6.157   1.817   1.075 -0.1164 -0.0186  0.2425
 3910SOL    HW215406   6.252   1.826   1.082 -0.1311 -0.2220  0.7524
 3910SOL    HW315407   6.142   1.798   0.982  0.0775  2.9598 -0.4902
 3910SOL    MW415408   6.168   1.816   1.064 -0.5403 -0.2633  0.4669
 3911SOL     OW15409   0.882   0.176   1.761  0.5589  0.2892 -0.5048
 3911SOL    HW215410   0.935   0.232   1.817 -1.1326  1.0538  0.4140
 3911SOL    HW315411   0.906   0.202   1.672  2.3912 -0.0823 -0.1563
 3911SOL    MW415412   0.892   0.187   1.756 -0.3043 -0.3975  0.0629
 3912SOL     OW15413   6.204   0.764   1.042 -0.3226 -0.1785 -0.3904
 3912SOL    HW215414   6.161   0.847   1.023  1.3767  0.6053 -0.9766
 3912SOL    HW315415   6.143   0.718   1.099 -1.1434  1.6109  0.2377
 3912SOL    MW415416   6.190   0.768   1.047 -0.0093  0.5103 -0.1439
 3913SOL     OW15417   1.560   3.889   4.638  0.4754  0.2460  0.1818
 3913SOL    HW215418   1.645   3.847   4.628 -0.0653 -1.0252  0.6431
 3913SOL    HW315419   1.564   3.967   4.583  1.1445 -0.9871 -1.5760
 3913SOL    MW415420   1.572   3.894   4.630  0.0755 -0.2536  1.2866
 3914SOL     OW15421   5.413   3.451   2.295 -0.2026 -0.1723  0.1309
 3914SOL    HW215422   5.440   3.418   2.209 -1.3500  0.1247 -0.3604
 3914SOL    HW315423   5.381   3.375   2.342 -0.0126 -0.2549  0.1284
 3914SOL    MW415424   5.413   3.437   2.290  0.4975 -0.2266 -0.4911
 3915SOL     OW15425   4.252   3.700   5.240  0.8191 -0.2105  0.5471
 3915SOL    HW215426   4.254   3.608   5.265 -1.0127 -1.2720 -2.6155
 3915SOL    HW315427   4.306   3.705   5.161  0.7048  1.3705  0.5361
 3915SOL    MW415428   4.259   3.689   5.233 -0.5493  0.6140 -0.2327
 3916SOL     OW15429   0.286   5.262   4.545 -0.0589  0.8244  0.3393
 3916SOL    HW215430   0.194   5.236   4.556  0.4447 -0.4784  1.8324
 3916SOL    HW315431   0.312   5.220   4.463  0.1243 -1.8196  1.6461
 3916SOL    MW415432   0.277   5.253   4.535  0.1833 -0.4436 -0.1726
 3917SOL     OW15433   2.903   1.836   5.051 -0.0684 -0.1147  0.0960
 3917SOL    HW215434   2.815   1.823   5.017 -0.6004 -0.2102  1.4275
 3917SOL    HW315435   2.894   1.824   5.146  1.3672 -0.0769  0.2642
 3917SOL    MW415436   2.890   1.833   5.059  0.1058  0.4165 -0.1656
 3918SOL     OW15437   5.954   2.819   0.754  0.0120  0.0037  0.0913
 3918SOL    HW215438   5.957   2.726   0.777  2.5031 -0.3155 -1.1974
 3918SOL    HW315439   5.968   2.864   0.837  0.7550 -0.8559  0.4525
 3918SOL    MW415440   5.956   2.812   0.768 -0.5509  0.5102 -0.6441
 3919SOL     OW15441   1.775   3.329   5.885  0.3339  0.9181  0.1876
 3919SOL    HW215442   1.810   3.362   5.968 -1.2173 -0.7473  1.5989
 3919SOL    HW315443   1.822   3.247   5.871  0.9634  1.4456 -0.8979
 3919SOL    MW415444   1.786   3.322   5.894 -0.0271 -0.1056  0.0404
 3920SOL     OW15445   3.274   5.545   5.608  0.0530 -0.0389 -0.0758
 3920SOL    HW215446   3.339   5.599   5.562  0.0463 -0.0859 -0.1416
 3920SOL    HW315447   3.195   5.552   5.554 -0.0091  0.0532  0.0288
 3920SOL    MW415448   3.272   5.553   5.595 -0.1973 -0.1183  0.2675
 3921SOL     OW15449   2.583   6.345   2.930 -0.3974 -0.2137  0.3067
 3921SOL    HW215450   2.496   6.386   2.931 -0.3711 -0.0692 -1.1295
 3921SOL    HW315451   2.644   6.418   2.935 -0.3585 -0.2907  0.9498
 3921SOL    MW415452   2.580   6.360   2.930 -0.3190  0.1279  0.0974
 3922SOL     OW15453   6.323   3.003   4.271 -0.5016  0.2167  0.4483
 3922SOL    HW215454   6.281   2.960   4.196  0.5249  1.3455 -0.8475
 3922SOL    HW315455   6.275   3.086   4.281 -0.4151  0.2225  0.8217
 3922SOL    MW415456   6.311   3.008   4.262  0.1983  0.0889 -0.7296
 3923SOL     OW15457   5.470   4.195   4.768 -0.2328 -0.4147  0.0609
 3923SOL    HW215458   5.391   4.141   4.773 -1.4401  1.1076 -1.3900
 3923SOL    HW315459   5.514   4.164   4.689  0.4999 -1.0593  0.7068
 3923SOL    MW415460   5.465   4.184   4.758 -0.4552  0.1094  0.5945
 3924SOL     OW15461   0.415   4.612   6.396  0.1722  0.0527  0.6157
 3924SOL    HW215462   0.323   4.601   6.418  0.0659 -2.1345 -0.6243
 3924SOL    HW315463   0.461   4.548   6.450  0.8525  0.3981  0.4673
 3924SOL    MW415464   0.409   4.602   6.406  0.3344 -0.4747 -0.5907
 3925SOL     OW15465   2.554   0.939   5.937  0.3743  0.1583  0.2798
 3925SOL    HW215466   2.480   0.996   5.960 -0.9068 -0.7692 -1.3639
 3925SOL    HW315467   2.514   0.857   5.910  2.1622 -1.5169  2.3279
 3925SOL    MW415468   2.539   0.936   5.937 -0.1143 -0.1198  0.3364
 3926SOL     OW15469   5.414   2.948   4.808 -0.1679 -0.5429  0.6199
 3926SOL    HW215470   5.480   2.953   4.876  0.1974  1.3882  0.1682
 3926SOL    HW315471   5.460   2.969   4.727 -0.7206 -2.2018 -0.1824
 3926SOL    MW415472   5.429   2.951   4.806 -0.1939  0.8716 -0.0297
 3927SOL     OW15473   0.790   6.084   4.609  0.4154  0.3929 -0.5728
 3927SOL    HW215474   0.731   6.017   4.573  0.0270  0.4433 -0.0428
 3927SOL    HW315475   0.748   6.167   4.587 -0.2984  0.4058  0.7739
 3927SOL    MW415476   0.776   6.086   4.601 -0.3668 -0.1828 -0.1695
 3928SOL     OW15477   0.241   0.838   0.586 -0.3504 -0.1928 -0.4077
 3928SOL    HW215478   0.278   0.874   0.506  0.3636 -0.0534 -0.0200
 3928SOL    HW315479   0.188   0.909   0.622  1.1229  0.5281  0.4003
 3928SOL    MW415480   0.239   0.852   0.580  0.5225  0.1099 -0.7918
 3929SOL     OW15481   5.578   6.136   5.567  0.2274 -0.3319  0.5038
 3929SOL    HW215482   5.573   6.227   5.596 -1.9999 -0.5948  1.1658
 3929SOL    HW315483   5.518   6.131   5.493  0.6819 -1.1611  0.1814
 3929SOL    MW415484   5.570   6.147   5.561 -0.6197 -0.0329 -0.0669
 3930SOL     OW15485   1.886   2.612   5.650  0.2050 -0.3812  0.0888
 3930SOL    HW215486   1.875   2.519   5.673  0.2100 -0.3796  0.0976
 3930SOL    HW315487   1.944   2.647   5.717  0.0245 -0.3190  0.2137
 3930SOL    MW415488   1.892   2.604   5.662  0.2808  0.2047  0.3315
 3931SOL     OW15489   3.310   2.124   0.698  0.6571  0.3059 -0.3016
 3931SOL    HW215490   3.372   2.148   0.766  1.3551 -1.5118 -0.2446
 3931SOL    HW315491   3.236   2.086   0.746  0.3324  0.7028 -0.4778
 3931SOL    MW415492   3.308   2.122   0.713  0.0775  0.1984  0.2818
 3932SOL     OW15493   6.149   0.891   5.333 -0.4257 -0.4384  0.0467
 3932SOL    HW215494   6.188   0.807   5.354 -1.2868 -0.1995  3.2019
 3932SOL    HW315495   6.058   0.871   5.312 -0.1499 -0.4406 -1.2108
 3932SOL    MW415496   6.142   0.877   5.333 -0.3682  0.1311 -0.1591
 3933SOL     OW15497   5.895   0.919   4.448  0.3219  0.1609  0.3264
 3933SOL    HW215498   5.903   1.001   4.496 -1.6548  1.4103 -1.2969
 3933SOL    HW315499   5.804   0.892   4.460  0.1011 -0.1260 -1.6190
 3933SOL    MW415500   5.884   0.926   4.456  0.1640  0.6933  0.5831
 3934SOL     OW15501   1.843   2.350   2.278  0.0941  0.1287  0.4748
 3934SOL    HW215502   1.895   2.346   2.359  0.1829 -0.3406  0.3951
 3934SOL    HW315503   1.853   2.440   2.248 -1.1393  0.7429  1.7795
 3934SOL    MW415504   1.851   2.361   2.285 -0.5708 -0.4811  0.1894
 3935SOL     OW15505   0.892   0.287   4.387 -0.0040 -0.3699  0.2073
 3935SOL    HW215506   0.918   0.283   4.479  0.4398  1.3684  0.1871
 3935SOL    HW315507   0.872   0.379   4.372  1.1278 -0.3922 -1.7469
 3935SOL    MW415508   0.893   0.298   4.397  0.4283 -0.3353  0.1374
 3936SOL     OW15509   3.359   2.596   6.047 -0.1838  0.1951 -0.2835
 3936SOL    HW215510   3.361   2.659   6.119 -2.1295 -1.2299  1.1131
 3936SOL    HW315511   3.386   2.647   5.970  1.6647  1.8412  1.3421
 3936SOL    MW415512   3.363   2.611   6.046  0.1795 -0.2089 -0.0907
 3937SOL     OW15513   5.497   4.173   1.457  0.3515  0.0579 -0.3726
 3937SOL    HW215514   5.445   4.162   1.377 -0.2816  1.7951 -0.2399
 3937SOL    HW315515   5.587   4.186   1.425  0.3014 -0.4323 -0.7283
 3937SOL    MW415516   5.502   4.174   1.442  0.8576 -0.2710  0.1558
 3938SOL     OW15517   0.046   4.732   3.316  0.1419  0.3085  0.0460
 3938SOL    HW215518  -0.031   4.733   3.260 -0.4007  2.4538  0.7114
 3938SOL    HW315519   0.087   4.818   3.300  1.3718 -0.0660  1.0420
 3938SOL    MW415520   0.042   4.744   3.306  0.2965 -0.2020  0.1011
 3939SOL     OW15521   4.841   4.315   5.579 -1.0118  0.4573  0.1669
 3939SOL    HW215522   4.844   4.283   5.489  0.0933  0.8127  0.0659
 3939SOL    HW315523   4.818   4.239   5.631  0.2756 -0.2177 -0.2140
 3939SOL    MW415524   4.838   4.301   5.574 -0.3073  0.0369  0.4992
 3940SOL     OW15525   3.430   3.202   4.950 -0.1024 -0.0438  0.6862
 3940SOL    HW215526   3.449   3.134   4.886  1.1379  1.6989 -0.8932
 3940SOL    HW315527   3.471   3.171   5.031  1.3340 -0.7222 -0.2625
 3940SOL    MW415528   3.438   3.189   4.952 -0.2197  0.0032  0.0026
 3941SOL     OW15529   5.911   4.355   5.151 -0.0717  0.0996 -0.0665
 3941SOL    HW215530   5.890   4.318   5.065  0.0555  1.4835 -0.7313
 3941SOL    HW315531   6.007   4.352   5.155  0.3169  3.8116 -1.8814
 3941SOL    MW415532   5.921   4.350   5.140  0.2282 -0.4077 -0.0764
 3942SOL     OW15533   0.007   3.241   1.226 -0.0747  0.2255 -0.1674
 3942SOL    HW215534  -0.074   3.218   1.272 -0.7047 -0.3103 -1.5024
 3942SOL    HW315535   0.033   3.325   1.263 -0.8652  0.0820  0.7483
 3942SOL    MW415536   0.000   3.249   1.237 -0.6142  0.2871 -0.3592
 3943SOL     OW15537   2.215   2.548   0.061  0.3693 -0.1501 -0.2451
 3943SOL    HW215538   2.304   2.516   0.075 -0.2857 -1.6369  0.7903
 3943SOL    HW315539   2.206   2.550  -0.034  0.7850 -2.2390 -0.3929
 3943SOL    MW415540   2.226   2.544   0.050 -0.0896 -0.1608 -0.2625
 3944SOL     OW15541   6.233   0.758   3.389 -0.5046 -0.5991  0.3052
 3944SOL    HW215542   6.276   0.822   3.445 -1.9326  0.6725  0.0209
 3944SOL    HW315543   6.216   0.805   3.307 -1.7643 -1.2603  0.1575
 3944SOL    MW415544   6.236   0.772   3.386 -0.0407 -0.0638  0.0870
 3945SOL     OW15545   0.578   0.526   2.242  0.3316  0.3257  0.1760
 3945SOL    HW215546   0.602   0.555   2.154 -1.3843  1.2718 -0.0014
 3945SOL    HW315547   0.597   0.601   2.298  1.3614 -0.2528  0.6400
 3945SOL    MW415548   0.584   0.539   2.238 -0.1882 -0.4490  0.2352
 3946SOL     OW15549   5.675   4.966   3.803 -0.7154 -0.4314 -0.2172
 3946SOL    HW215550   5.743   4.910   3.841  0.2148  0.2086 -0.8759
 3946SOL    HW315551   5.596   4.946   3.853  0.2786 -0.1719  1.5600
 3946SOL    MW415552   5.674   4.956   3.815  0.6418  0.2324  0.3791
 3947SOL     OW15553   1.336   1.277   3.174  0.0448 -0.0990 -0.0682
 3947SOL    HW215554   1.345   1.227   3.093 -0.4933 -0.1278 -0.1164
 3947SOL    HW315555   1.328   1.210   3.242  0.2212 -0.0748 -0.0230
 3947SOL    MW415556   1.336   1.261   3.172  0.4534  0.5928 -0.0448
 3948SOL     OW15557   2.288   3.156   4.051  0.1979 -0.7548  0.0341
 3948SOL    HW215558   2.239   3.238   4.044  1.0478 -0.1410  0.8386
 3948SOL    HW315559   2.380   3.184   4.052  0.4684 -1.5240  2.2461
 3948SOL    MW415560   2.294   3.171   4.050 -0.1305 -0.3634  0.3507
 3949SOL     OW15561   0.360   2.127   6.346  0.3278 -0.2124  0.3392
 3949SOL    HW215562   0.437   2.093   6.393  0.7734  0.5107  0.1516
 3949SOL    HW315563   0.397   2.181   6.276 -0.3536  0.1689  0.2674
 3949SOL    MW415564   0.375   2.130   6.343  0.0878 -0.3456 -0.8715
 3950SOL     OW15565   0.640   5.205   2.741  0.1344 -0.2847  0.3051
 3950SOL    HW215566   0.621   5.146   2.667 -2.8837 -0.8712  1.3894
 3950SOL    HW315567   0.573   5.273   2.735  3.2519  3.0014 -0.6508
 3950SOL    MW415568   0.629   5.206   2.730  0.3328 -0.2759  0.1930
 3951SOL     OW15569   6.222   1.215   4.543  0.0506  0.3019 -0.4665
 3951SOL    HW215570   6.253   1.202   4.453  0.7437  0.1581 -0.2147
 3951SOL    HW315571   6.300   1.200   4.597 -0.4962 -0.2015  0.1979
 3951SOL    MW415572   6.237   1.211   4.538 -0.1096  0.1989  0.4267
 3952SOL     OW15573   3.958   3.789   1.281 -0.3257  0.0082  0.0817
 3952SOL    HW215574   3.932   3.874   1.316  1.7662  0.1673  1.4237
 3952SOL    HW315575   4.025   3.810   1.216 -0.9430 -0.5578 -0.7600
 3952SOL    MW415576   3.964   3.803   1.277  0.1406  0.7576 -0.1038
 3953SOL     OW15577   6.196   0.866   5.065 -0.0542 -0.1243 -0.2002
 3953SOL    HW215578   6.197   0.772   5.044 -3.2515 -0.6108  1.3216
 3953SOL    HW315579   6.200   0.870   5.160 -1.9766  1.1413 -0.1235
 3953SOL    MW415580   6.197   0.854   5.075  0.8546  0.1934  0.0562
 3954SOL     OW15581   5.288   2.252   1.530 -0.3752 -0.8208  0.3248
 3954SOL    HW215582   5.267   2.187   1.463 -0.3175 -0.1249 -0.3891
 3954SOL    HW315583   5.210   2.258   1.584 -0.9218 -0.4284 -0.4967
 3954SOL    MW415584   5.275   2.244   1.528 -0.1131 -0.1114 -0.1567
 3955SOL     OW15585   3.360   4.540   5.198 -0.0993  0.5511  0.0510
 3955SOL    HW215586   3.353   4.538   5.102  0.8172  0.3384 -0.0169
 3955SOL    HW315587   3.448   4.571   5.215  0.0109 -0.1653  0.8251
 3955SOL    MW415588   3.370   4.544   5.188 -0.3806  0.5399 -0.2141
 3956SOL     OW15589   1.166   3.024   0.876  0.5403  0.1201  0.2268
 3956SOL    HW215590   1.130   2.995   0.960  1.3782 -0.3140  0.4454
 3956SOL    HW315591   1.252   2.982   0.871  1.0840  1.2577 -0.2119
 3956SOL    MW415592   1.173   3.014   0.887  0.4202  0.1278  0.1699
 3957SOL     OW15593   3.801   5.509   2.585 -0.7546 -0.0731  0.1475
 3957SOL    HW215594   3.716   5.530   2.546 -0.6394  0.1352  0.0077
 3957SOL    HW315595   3.793   5.541   2.676 -1.3322 -1.3478  0.5626
 3957SOL    MW415596   3.789   5.516   2.592  0.5703  0.0628 -0.0029
 3958SOL     OW15597   2.412   3.664   4.257 -0.7447 -0.0790 -0.4706
 3958SOL    HW215598   2.466   3.616   4.195 -0.4459 -0.2334 -0.0897
 3958SOL    HW315599   2.350   3.713   4.202 -0.3083 -0.0054 -0.8974
 3958SOL    MW415600   2.411   3.664   4.241 -0.4968 -0.2765  0.1964
 3959SOL     OW15601   2.893   4.229   3.994 -0.6445  0.0023 -0.2281
 3959SOL    HW215602   2.957   4.297   3.973 -1.0490  0.6087  0.4492
 3959SOL    HW315603   2.945   4.150   4.008 -0.2974 -0.3413 -2.9384
 3959SOL    MW415604   2.908   4.228   3.993  0.0374 -0.3506  0.0391
 3960SOL     OW15605   0.220   3.859   5.940  0.2627  0.4760  1.0007
 3960SOL    HW215606   0.310   3.852   5.970  0.4625 -2.3136  0.0798
 3960SOL    HW315607   0.192   3.768   5.925 -2.3000  1.3020  0.0938
 3960SOL    MW415608   0.228   3.846   5.942  0.0282  0.6402  0.3706
 3961SOL     OW15609   1.860   5.432   0.977  0.1711  0.3994  0.6382
 3961SOL    HW215610   1.929   5.424   0.911  0.1784 -1.3842  0.8028
 3961SOL    HW315611   1.885   5.370   1.045 -2.5845 -1.9425 -0.2716
 3961SOL    MW415612   1.873   5.423   0.977  0.5370  0.0595 -0.2915
 3962SOL     OW15613   3.371   2.846   3.718  0.1131  0.3192  0.2298
 3962SOL    HW215614   3.441   2.906   3.744 -0.5388  0.9321  0.5952
 3962SOL    HW315615   3.316   2.838   3.796 -0.3311 -0.0017 -0.1129
 3962SOL    MW415616   3.373   2.853   3.731  0.5608 -0.4329 -0.1580
 3963SOL     OW15617   1.808   3.023   0.450 -0.0238  0.5039 -0.2292
 3963SOL    HW215618   1.750   2.958   0.410 -1.3201  1.8776 -0.6896
 3963SOL    HW315619   1.880   3.034   0.388 -0.2235  0.1080 -0.5294
 3963SOL    MW415620   1.810   3.016   0.437  0.1222  0.0163 -0.2771
 3964SOL     OW15621   6.159   1.293   5.132 -0.0069 -0.0706  0.1791
 3964SOL    HW215622   6.132   1.251   5.214  1.7077  1.7323  1.7739
 3964SOL    HW315623   6.251   1.269   5.122 -0.3546 -0.7853 -1.6082
 3964SOL    MW415624   6.168   1.284   5.142 -0.0783  0.7009  0.4328
 3965SOL     OW15625   0.434   2.498   1.065  0.2383  0.2153 -0.3057
 3965SOL    HW215626   0.494   2.423   1.076 -1.2125 -0.9389  0.0408
 3965SOL    HW315627   0.347   2.459   1.068 -0.5774  2.0141  0.4686
 3965SOL    MW415628   0.430   2.483   1.067 -0.0091  0.0865 -0.8637
 3966SOL     OW15629   4.559   3.188   3.483 -0.2754 -0.9713  0.4186
 3966SOL    HW215630   4.534   3.207   3.393  1.5938 -1.7823 -0.3152
 3966SOL    HW315631   4.510   3.108   3.505 -0.3904 -1.0281 -0.0431
 3966SOL    MW415632   4.549   3.180   3.474  0.1854  0.3791  0.1849
 3967SOL     OW15633   1.735   0.479   3.618 -0.0742  0.4651  0.6382
 3967SOL    HW215634   1.813   0.451   3.571  0.5239  0.4282  1.6099
 3967SOL    HW315635   1.721   0.569   3.591  0.8200  0.7517  1.0946
 3967SOL    MW415636   1.743   0.487   3.609 -1.0511  0.7047 -0.3625
 3968SOL     OW15637   3.995   2.708   6.257  0.0725 -0.0241 -0.3146
 3968SOL    HW215638   3.923   2.770   6.251  0.1266 -0.0678 -2.3902
 3968SOL    HW315639   3.958   2.624   6.228  1.0507  0.0922 -2.0300
 3968SOL    MW415640   3.981   2.705   6.252  0.4391 -0.3201  0.3377
 3969SOL     OW15641   0.780   2.895   5.922  0.3366  0.1753 -0.1999
 3969SOL    HW215642   0.739   2.855   5.998 -0.9315 -0.4515 -1.1771
 3969SOL    HW315643   0.753   2.841   5.848  1.4923  0.7921 -1.1218
 3969SOL    MW415644   0.771   2.883   5.922  0.1581  0.4347 -0.4953
 3970SOL     OW15645   0.971   2.892   2.662 -0.1379 -0.2588 -0.0099
 3970SOL    HW215646   1.028   2.818   2.681 -0.0173  0.0118  0.7107
 3970SOL    HW315647   0.965   2.894   2.567  1.0228 -0.3252 -0.0959
 3970SOL    MW415648   0.978   2.883   2.652 -0.0498 -0.1372  0.1273
 3971SOL     OW15649   0.022   2.163   1.135  0.2530 -0.3761 -0.1524
 3971SOL    HW215650  -0.058   2.186   1.088  1.6316  1.2847 -1.8240
 3971SOL    HW315651   0.037   2.071   1.113 -0.5462 -0.3649 -0.7988
 3971SOL    MW415652   0.013   2.154   1.126 -0.1847 -0.0744 -0.0311
 3972SOL     OW15653   1.722   6.291   2.986  0.3201 -0.0227 -0.2271
 3972SOL    HW215654   1.691   6.380   3.003 -0.8327 -0.6445  1.1616
 3972SOL    HW315655   1.652   6.251   2.934  0.3911 -0.3916 -0.0446
 3972SOL    MW415656   1.709   6.297   2.982 -0.0738  0.3098 -0.2395
 3973SOL     OW15657   1.455   6.096   4.497  0.2548 -0.1467  0.1316
 3973SOL    HW215658   1.480   6.189   4.502  0.2406 -0.0562 -1.1117
 3973SOL    HW315659   1.393   6.092   4.425  1.9955 -1.4764 -1.3788
 3973SOL    MW415660   1.450   6.108   4.488 -0.2218 -0.0657 -1.1263
 3974SOL     OW15661   4.723   3.803   5.693  0.1791  0.3824 -0.0667
 3974SOL    HW215662   4.804   3.787   5.743  0.4110 -0.2007 -0.6141
 3974SOL    HW315663   4.724   3.897   5.676  0.8681  0.3432 -0.2727
 3974SOL    MW415664   4.734   3.813   5.698 -0.6619  0.3182  0.1304
 3975SOL     OW15665   3.539   1.693   0.942 -0.5743  0.1190 -0.2563
 3975SOL    HW215666   3.492   1.702   1.025 -0.3223  0.3590 -0.1348
 3975SOL    HW315667   3.539   1.599   0.923 -0.6978  0.0729 -0.0233
 3975SOL    MW415668   3.533   1.682   0.950  1.1010 -0.4269  0.1608
 3976SOL     OW15669   0.667   2.496   4.268  0.6946 -0.7175 -0.1626
 3976SOL    HW215670   0.581   2.537   4.262  1.5012  1.0812 -0.1094
 3976SOL    HW315671   0.649   2.402   4.268 -1.1387 -0.4503 -2.1402
 3976SOL    MW415672   0.653   2.489   4.267 -0.6829  0.6785  0.5575
 3977SOL     OW15673   2.508   3.796   1.029  0.2453 -0.1130  0.3769
 3977SOL    HW215674   2.518   3.702   1.016 -0.4553 -0.0318 -1.0711
 3977SOL    HW315675   2.485   3.806   1.121  1.6042 -1.2328  0.8587
 3977SOL    MW415676   2.506   3.785   1.039 -0.3832  0.4060 -0.3675
 3978SOL     OW15677   2.184   5.318   3.604  0.1341 -0.2673 -0.3508
 3978SOL    HW215678   2.194   5.405   3.566  3.4436 -0.6362 -0.6838
 3978SOL    HW315679   2.202   5.258   3.531 -0.2881 -1.1694  0.2712
 3978SOL    MW415680   2.188   5.321   3.589  0.4519  0.2583 -0.1663
 3979SOL     OW15681   3.744   2.197   1.625  0.2822  0.3432 -0.3688
 3979SOL    HW215682   3.770   2.244   1.546  2.8682 -1.6623 -0.8581
 3979SOL    HW315683   3.715   2.111   1.593  0.8545 -0.3058  0.8022
 3979SOL    MW415684   3.743   2.192   1.610  0.6105 -0.1528 -0.1640
 3980SOL     OW15685   3.990   0.476   5.898  0.9829  1.1876 -0.0536
 3980SOL    HW215686   3.942   0.553   5.865  1.0569  1.7100  0.9922
 3980SOL    HW315687   3.950   0.402   5.852  1.3238  1.8885 -1.5440
 3980SOL    MW415688   3.978   0.476   5.888  0.0709  0.1232 -0.6571
 3981SOL     OW15689   1.127   3.074   6.218  0.3289 -0.3590 -0.2597
 3981SOL    HW215690   1.107   2.981   6.229 -0.9132  0.0516  1.2347
 3981SOL    HW315691   1.065   3.120   6.275  0.2416  1.4578 -1.7047
 3981SOL    MW415692   1.116   3.068   6.227  0.0005  0.3667 -0.3801
 3982SOL     OW15693   2.973   5.870   3.012 -0.1537 -0.7012 -0.1769
 3982SOL    HW215694   2.922   5.939   2.971 -0.9799 -1.5735 -0.6465
 3982SOL    HW315695   3.040   5.848   2.948  1.4327  1.0449  0.7799
 3982SOL    MW415696   2.975   5.876   2.998  0.1282 -0.0817 -0.2257
 3983SOL     OW15697   5.221   4.873   0.105 -0.0730  0.1983  0.6337
 3983SOL    HW215698   5.129   4.872   0.080  0.5540 -0.8873 -1.9567
 3983SOL    HW315699   5.241   4.781   0.125  0.9371 -0.0005 -1.0918
 3983SOL    MW415700   5.212   4.861   0.105 -0.6798  0.2395  0.2649
 3984SOL     OW15701   5.987   1.644   4.403  0.0346 -0.4017 -0.5213
 3984SOL    HW215702   5.984   1.555   4.438  2.5420 -0.7313 -1.0018
 3984SOL    HW315703   6.035   1.636   4.320 -1.4515  1.1277 -1.6187
 3984SOL    MW415704   5.993   1.631   4.396 -0.2877 -0.5187  0.0490
 3985SOL     OW15705   0.921   0.641   6.122 -0.0204 -0.3736  0.6518
 3985SOL    HW215706   0.977   0.591   6.181  0.5637 -0.2203  0.2356
 3985SOL    HW315707   0.959   0.627   6.035  0.1704  0.8168  0.5347
 3985SOL    MW415708   0.933   0.633   6.118  0.3702  1.1249  0.4211
 3986SOL     OW15709   3.207   5.952   1.711 -0.1262  0.2150 -0.0220
 3986SOL    HW215710   3.183   6.040   1.739  1.5638  0.6447  0.1896
 3986SOL    HW315711   3.252   5.965   1.628 -2.0650 -0.7294 -1.3006
 3986SOL    MW415712   3.210   5.965   1.704 -0.1677  0.0117  0.0633
 3987SOL     OW15713   3.489   2.960   1.096  0.3294  0.1731 -0.0506
 3987SOL    HW215714   3.560   2.929   1.039 -1.1372 -1.2599 -1.1847
 3987SOL    HW315715   3.496   2.905   1.174 -2.1148 -3.2481 -1.9566
 3987SOL    MW415716   3.500   2.949   1.099  0.6652  0.0938 -0.3449
 3988SOL     OW15717   0.191   4.308   3.206  0.4897 -0.2394  0.2510
 3988SOL    HW215718   0.194   4.395   3.247  1.8671 -0.2343  0.1806
 3988SOL    HW315719   0.241   4.252   3.265  1.3932 -0.5170 -0.7461
 3988SOL    MW415720   0.198   4.312   3.219  0.0073 -0.1364  0.5334
 3989SOL     OW15721   0.834   2.283   1.063 -0.2251 -0.4148  0.1489
 3989SOL    HW215722   0.888   2.242   1.130 -1.4082 -0.9999  0.7886
 3989SOL    HW315723   0.895   2.332   1.009  1.4555 -3.8074 -1.2979
 3989SOL    MW415724   0.849   2.284   1.065  0.2076 -0.6511 -0.1726
 3990SOL     OW15725   4.686   0.346   1.999 -0.0353  0.3495  0.1344
 3990SOL    HW215726   4.658   0.376   1.913 -1.1044  1.0433  0.7092
 3990SOL    HW315727   4.776   0.316   1.985 -1.0246 -2.1020 -1.8072
 3990SOL    MW415728   4.694   0.346   1.986  0.1746  0.1231  0.6057
 3991SOL     OW15729   4.618   2.268   1.096  0.2208  0.0449  0.4327
 3991SOL    HW215730   4.677   2.268   1.171 -0.0179  0.2173  0.6208
 3991SOL    HW315731   4.540   2.221   1.126  0.5987 -0.9371 -0.0837
 3991SOL    MW415732   4.615   2.262   1.110 -0.1923  0.4198 -0.2777
 3992SOL     OW15733   1.659   2.478   6.224  0.3979 -0.2412  0.3790
 3992SOL    HW215734   1.707   2.396   6.220  0.4987 -0.1942  0.5803
 3992SOL    HW315735   1.626   2.482   6.314 -0.0914 -0.3334  0.2089
 3992SOL    MW415736   1.661   2.468   6.236  0.3600 -0.4596 -0.2192
 3993SOL     OW15737   0.189   5.104   2.046 -0.1370 -0.0816  0.6458
 3993SOL    HW215738   0.221   5.108   1.956  0.3364  0.7409  0.8378
 3993SOL    HW315739   0.110   5.050   2.041 -0.5737  0.6227 -0.4018
 3993SOL    MW415740   0.183   5.097   2.034 -0.7138 -0.4239  0.4686
 3994SOL     OW15741   4.436   0.301   1.447  0.3771  0.1762  0.2003
 3994SOL    HW215742   4.517   0.333   1.486 -0.1890  0.9384  0.7959
 3994SOL    HW315743   4.405   0.373   1.392 -0.4026  0.3018  0.7742
 3994SOL    MW415744   4.442   0.315   1.445  0.3581  0.0620  0.2738
 3995SOL     OW15745   4.505   1.534   3.380  0.1981 -0.0271 -0.1867
 3995SOL    HW215746   4.561   1.461   3.407 -1.7506 -1.2444  0.7963
 3995SOL    HW315747   4.421   1.493   3.359 -1.0044  1.9557  0.5046
 3995SOL    MW415748   4.502   1.519   3.381  0.0774  0.2589  0.5364
 3996SOL     OW15749   2.836   6.337   3.786 -0.4685  0.1526  0.1839
 3996SOL    HW215750   2.797   6.309   3.869 -0.0104 -0.4780  0.1893
 3996SOL    HW315751   2.926   6.361   3.809  0.1446 -1.5045 -0.3909
 3996SOL    MW415752   2.843   6.337   3.800 -0.3221 -0.1020 -0.0098
 3997SOL     OW15753   2.720   5.302   6.162 -0.2075  0.4641 -0.2628
 3997SOL    HW215754   2.800   5.261   6.194  0.0146  1.6554  0.7607
 3997SOL    HW315755   2.658   5.229   6.152  1.0328 -0.5072 -1.2797
 3997SOL    MW415756   2.722   5.287   6.165  0.8896  0.2629  0.0305
 3998SOL     OW15757   6.300   3.100   1.886 -0.2263  0.4043 -0.2383
 3998SOL    HW215758   6.250   3.047   1.825  1.1220  0.1801 -1.1994
 3998SOL    HW315759   6.250   3.181   1.895 -1.5180 -0.3994  0.0460
 3998SOL    MW415760   6.287   3.103   1.879 -0.5169  0.0086  0.4783
 3999SOL     OW15761   0.606   5.654   2.790 -0.2791 -0.1832 -0.3734
 3999SOL    HW215762   0.679   5.657   2.852  1.5448  2.0042 -2.3869
 3999SOL    HW315763   0.531   5.687   2.839  0.5660 -0.5161  1.2159
 3999SOL    MW415764   0.606   5.659   2.804 -0.1930  0.5901 -0.0457
 4000SOL     OW15765   2.062   0.705   1.595  0.3461 -0.0818 -0.2974
 4000SOL    HW215766   2.035   0.614   1.578  1.5402 -0.2015 -1.7641
 4000SOL    HW315767   1.980   0.752   1.609 -0.2391 -1.7334  2.6713
 4000SOL    MW415768   2.048   0.699   1.595  0.2274  0.6169 -0.3661
 4001SOL     OW15769   4.211   1.441   1.564 -0.2482 -0.4539  0.2375
 4001SOL    HW215770   4.169   1.470   1.483  0.7052  1.4753  0.3815
 4001SOL    HW315771   4.145   1.386   1.606 -1.7200  0.5291 -0.6670
 4001SOL    MW415772   4.197   1.437   1.559  0.0028  0.1982  0.5436
 4002SOL     OW15773   1.478   2.455   3.512  0.3431 -0.3449  0.1541
 4002SOL    HW215774   1.430   2.504   3.578 -0.8068 -0.2023 -0.7558
 4002SOL    HW315775   1.523   2.386   3.561 -1.8730 -1.3299  0.9356
 4002SOL    MW415776   1.478   2.452   3.527  0.2960 -0.3609  0.0713
 4003SOL     OW15777   6.208   5.316   2.633  0.0134  0.4250  0.4620
 4003SOL    HW215778   6.293   5.278   2.655 -0.3594 -1.2777 -0.7947
 4003SOL    HW315779   6.230   5.400   2.591  1.0502  0.2509  0.6186
 4003SOL    MW415780   6.222   5.323   2.630 -0.0735  0.2624  0.2742
 4004SOL     OW15781   4.795   6.412   4.329 -0.3086  0.5455 -0.6704
 4004SOL    HW215782   4.821   6.401   4.238 -1.9832  0.4519 -1.1839
 4004SOL    HW315783   4.862   6.366   4.380  0.6276  0.5731 -1.8538
 4004SOL    MW415784   4.807   6.404   4.324 -0.1148 -0.3507 -0.3549
 4005SOL     OW15785   2.986   6.393   4.965  0.0539 -0.1198 -0.1015
 4005SOL    HW215786   3.026   6.478   4.981  1.0515 -0.6202  0.1325
 4005SOL    HW315787   3.005   6.342   5.044  1.6650 -1.3588 -1.2032
 4005SOL    MW415788   2.994   6.397   4.977 -0.0792 -0.3932  0.2708
 4006SOL     OW15789   4.581   4.129   1.363  0.3812 -0.4884 -0.1292
 4006SOL    HW215790   4.597   4.223   1.368  2.1255 -0.5897 -2.2426
 4006SOL    HW315791   4.641   4.091   1.427  0.6703 -0.2290 -0.2427
 4006SOL    MW415792   4.591   4.136   1.372  0.1574  0.1504 -0.2178
 4007SOL     OW15793   5.116   1.512   1.232  0.1232 -0.1384 -0.2256
 4007SOL    HW215794   5.199   1.543   1.268  0.1405  1.0314 -1.1956
 4007SOL    HW315795   5.058   1.505   1.307  0.8145 -0.0054  0.3330
 4007SOL    MW415796   5.120   1.515   1.247  0.2583 -0.4078 -0.2161
 4008SOL     OW15797   0.218   1.819   5.560 -0.2292  0.0259 -0.0470
 4008SOL    HW215798   0.177   1.854   5.640  1.8503  0.5924  0.8345
 4008SOL    HW315799   0.172   1.863   5.489 -1.3655  0.3857  0.8653
 4008SOL    MW415800   0.206   1.829   5.561  0.1930 -0.3107 -0.1754
 4009SOL     OW15801   1.457   0.893   3.010 -0.4708  0.1666  0.2627
 4009SOL    HW215802   1.423   0.835   3.078  1.1537 -2.1895 -0.8227
 4009SOL    HW315803   1.520   0.948   3.055 -0.0997 -0.7265  0.8595
 4009SOL    MW415804   1.460   0.893   3.025 -0.0700  0.1156  0.2392
 4010SOL     OW15805   5.131   5.910   4.172  0.3077 -0.1023 -0.1829
 4010SOL    HW215806   5.218   5.883   4.201  0.6054  0.8319 -0.1840
 4010SOL    HW315807   5.106   5.980   4.233 -0.2561 -0.0491 -0.4634
 4010SOL    MW415808   5.139   5.916   4.184 -0.0867  0.2548  0.6835
 4011SOL     OW15809   2.588   4.797   2.379  0.6159  0.0598  0.0003
 4011SOL    HW215810   2.569   4.884   2.415 -0.0908  0.4570 -1.2639
 4011SOL    HW315811   2.558   4.802   2.288  2.1338 -0.9782 -0.5863
 4011SOL    MW415812   2.581   4.810   2.372  0.2496 -0.1019  0.8093
 4012SOL     OW15813   5.153   5.158   2.128 -0.4837  0.8073 -0.0533
 4012SOL    HW215814   5.239   5.174   2.089 -0.4638 -0.2917 -0.5111
 4012SOL    HW315815   5.091   5.192   2.063 -0.4115  3.4938  1.1790
 4012SOL    MW415816   5.156   5.165   2.114 -0.6344  0.0293 -0.1294
 4013SOL     OW15817   1.112   4.630   0.076  0.0297  0.4038  0.0448
 4013SOL    HW215818   1.051   4.630   0.002 -1.2081 -0.2330  1.0193
 4013SOL    HW315819   1.156   4.546   0.070  2.2197  1.5677 -1.7023
 4013SOL    MW415820   1.110   4.619   0.065  0.1569  0.0476  0.2287
 4014SOL     OW15821   0.605   0.570   4.166  0.2362  0.5192  0.3467
 4014SOL    HW215822   0.679   0.567   4.226  0.7544 -0.3419 -0.3267
 4014SOL    HW315823   0.638   0.535   4.083 -1.4793 -2.0394  0.6284
 4014SOL    MW415824   0.619   0.565   4.163 -0.6293 -0.5969  0.0912
 4015SOL     OW15825   1.898   6.213   1.461 -0.6601  0.0496  0.1042
 4015SOL    HW215826   1.987   6.193   1.430 -0.1995 -0.4656  1.6701
 4015SOL    HW315827   1.904   6.304   1.491  0.4334 -1.0137  3.6069
 4015SOL    MW415828   1.911   6.223   1.461 -0.4398  0.2564  0.6548
 4016SOL     OW15829   5.898   3.193   2.220 -0.1188 -0.1948  0.1014
 4016SOL    HW215830   5.844   3.152   2.287 -1.5209 -0.0727 -0.9267
 4016SOL    HW315831   5.934   3.271   2.263  0.5223 -1.0938  1.2609
 4016SOL    MW415832   5.896   3.198   2.234 -0.3170 -0.2543 -0.4787
 4017SOL     OW15833   3.147   3.591   2.594  0.0231  0.2465  0.5759
 4017SOL    HW215834   3.068   3.626   2.635 -0.0934 -0.3852  0.9045
 4017SOL    HW315835   3.207   3.576   2.667 -0.1633 -0.8262  0.5130
 4017SOL    MW415836   3.145   3.594   2.609 -0.2031 -0.4874  0.1698
 4018SOL     OW15837   3.535   5.340   4.115  0.3912 -0.4575 -0.2556
 4018SOL    HW215838   3.478   5.372   4.185 -0.1838  1.2253 -1.4374
 4018SOL    HW315839   3.475   5.302   4.050  0.4933  1.6537 -1.6791
 4018SOL    MW415840   3.520   5.339   4.116 -0.1579 -0.2515 -0.2997
 4019SOL     OW15841   0.662   5.860   4.455 -0.5474  0.0640 -0.0265
 4019SOL    HW215842   0.598   5.832   4.520 -0.8366  0.7775 -0.0080
 4019SOL    HW315843   0.610   5.899   4.385 -0.1947 -0.1772 -0.4308
 4019SOL    MW415844   0.647   5.861   4.454 -0.2732 -0.4386  0.1523
 4020SOL     OW15845   5.439   1.685   3.057  0.1371  0.5761 -0.0401
 4020SOL    HW215846   5.367   1.724   3.008 -1.3255 -0.0209  1.5411
 4020SOL    HW315847   5.474   1.757   3.110  0.7099  0.8600 -0.7900
 4020SOL    MW415848   5.434   1.699   3.058  0.6499  0.0307 -0.3901
 4021SOL     OW15849   3.774   1.879   2.086 -0.1338  0.3590  0.0961
 4021SOL    HW215850   3.785   1.941   2.014 -1.0086 -0.6093 -0.9029
 4021SOL    HW315851   3.864   1.856   2.111  0.2159 -0.2206 -1.5346
 4021SOL    MW415852   3.788   1.884   2.080  0.0626 -0.3550  0.0345
 4022SOL     OW15853   2.834   0.563   2.938 -0.0829  0.0446 -0.1169
 4022SOL    HW215854   2.868   0.566   3.028  1.2014  1.6019 -0.6129
 4022SOL    HW315855   2.760   0.624   2.938 -0.4850 -0.4287  0.0058
 4022SOL    MW415856   2.828   0.571   2.950  0.4214 -0.4011  0.1346
 4023SOL     OW15857   4.811   5.908   2.279 -0.2936  0.5042  0.1875
 4023SOL    HW215858   4.843   5.959   2.354 -1.5403 -0.9617  1.7872
 4023SOL    HW315859   4.735   5.956   2.248  0.3596  1.2393 -0.3135
 4023SOL    MW415860   4.805   5.921   2.285  0.4542  0.0369 -0.0568
 4024SOL     OW15861   4.314   1.579   5.642 -0.0936  0.4650  0.0519
 4024SOL    HW215862   4.286   1.670   5.629  3.1495  2.0566  2.5332
 4024SOL    HW315863   4.374   1.562   5.569 -1.1035  0.0759 -0.7064
 4024SOL    MW415864   4.318   1.589   5.631  0.0254 -0.3480 -0.1722
 4025SOL     OW15865   0.596   2.737   4.053 -0.0099  0.4914  0.5831
 4025SOL    HW215866   0.679   2.746   4.006  0.5894  0.3889  1.5953
 4025SOL    HW315867   0.599   2.803   4.121 -1.3170  1.3275 -0.1153
 4025SOL    MW415868   0.607   2.747   4.055 -0.5755  0.4494 -0.3665
 4026SOL     OW15869   5.012   6.231   1.882  0.5560  0.0062  0.2581
 4026SOL    HW215870   5.093   6.254   1.836  0.9892 -1.2431  0.3723
 4026SOL    HW315871   5.018   6.137   1.896 -0.0775  0.1802  1.9196
 4026SOL    MW415872   5.024   6.222   1.877 -0.0708 -0.3779  0.0416
 4027SOL     OW15873   3.352   2.760   0.696  0.0557 -0.1795  0.0458
 4027SOL    HW215874   3.405   2.710   0.758 -0.8717 -1.2391  0.0226
 4027SOL    HW315875   3.403   2.839   0.678 -0.2448  0.8622  3.2010
 4027SOL    MW415876   3.365   2.764   0.702 -0.3383 -0.5473 -0.6924
 4028SOL     OW15877   1.256   0.287   1.685 -1.2365  0.4064  0.0098
 4028SOL    HW215878   1.272   0.380   1.699 -1.6413  0.8649 -2.1584
 4028SOL    HW315879   1.343   0.247   1.688 -0.9748  0.9773  0.1859
 4028SOL    MW415880   1.269   0.294   1.687  0.1197 -0.1409  0.0185
 4029SOL     OW15881   4.378   2.421   1.891 -0.2115  0.4358  0.3347
 4029SOL    HW215882   4.433   2.347   1.866  0.2745  0.1679  2.0611
 4029SOL    HW315883   4.438   2.495   1.893  0.1929  0.1006  2.4421
 4029SOL    MW415884   4.393   2.421   1.888  0.8321  0.0773 -1.2436
 4030SOL     OW15885   0.600   1.617   3.249 -0.3204 -0.4206 -0.2132
 4030SOL    HW215886   0.513   1.622   3.208 -0.4034 -0.4190 -0.0348
 4030SOL    HW315887   0.661   1.633   3.176 -0.4937  0.5109 -0.1704
 4030SOL    MW415888   0.597   1.620   3.234 -0.2319 -0.8306 -0.1120
 4031SOL     OW15889   2.772   5.374   0.931  0.2488  0.2825 -0.4073
 4031SOL    HW215890   2.767   5.294   0.984 -1.0338  0.8703  0.4035
 4031SOL    HW315891   2.776   5.445   0.995  2.3066  0.8755 -1.1017
 4031SOL    MW415892   2.772   5.373   0.947  0.2070  0.2376 -0.0362
 4032SOL     OW15893   4.564   4.409   4.092  0.0374  0.1453 -0.0536
 4032SOL    HW215894   4.574   4.350   4.017 -0.3660 -2.7016  1.9381
 4032SOL    HW315895   4.482   4.456   4.076  0.0433 -0.2652 -1.4417
 4032SOL    MW415896   4.555   4.407   4.080  0.4527  0.1643  0.0414
 4033SOL     OW15897   4.358   0.109   3.873  0.2937  0.1664  0.0419
 4033SOL    HW215898   4.280   0.054   3.886  1.3611 -1.5444 -0.4039
 4033SOL    HW315899   4.327   0.198   3.888 -1.9284 -0.3771 -0.8660
 4033SOL    MW415900   4.343   0.113   3.877 -0.5373 -0.9394  0.0677
 4034SOL     OW15901   0.240   4.740   0.303 -0.1054  0.0876 -0.4375
 4034SOL    HW215902   0.158   4.770   0.262  0.5630  1.3677 -0.9178
 4034SOL    HW315903   0.305   4.804   0.274  1.0399 -0.8231  0.0623
 4034SOL    MW415904   0.238   4.753   0.294 -0.1519 -0.3719  0.0363
 4035SOL     OW15905   6.383   1.398   3.132 -0.9523 -0.1280 -0.2664
 4035SOL    HW215906   6.312   1.461   3.117 -0.7596 -0.2758 -1.9033
 4035SOL    HW315907   6.402   1.362   3.046  2.2393  1.1026 -0.2172
 4035SOL    MW415908   6.376   1.402   3.119  0.6790  0.3048 -0.2023
 4036SOL     OW15909   6.231   2.959   1.440 -0.1897  0.2358  0.0210
 4036SOL    HW215910   6.226   3.053   1.423 -0.0948  0.6920  2.2755
 4036SOL    HW315911   6.142   2.933   1.463 -0.3949 -0.4402 -1.4197
 4036SOL    MW415912   6.219   2.968   1.441  0.1652  0.3919 -0.2103
 4037SOL     OW15913   1.973   2.245   2.728  0.3694 -0.5634 -0.1195
 4037SOL    HW215914   2.067   2.226   2.729  1.0703  2.3169  3.0557
 4037SOL    HW315915   1.960   2.294   2.647  1.9074  0.1819  0.0461
 4037SOL    MW415916   1.984   2.249   2.717  0.0935 -0.2899 -0.2697
 4038SOL     OW15917   2.315   4.638   2.191  0.2152  0.2042 -0.3346
 4038SOL    HW215918   2.400   4.655   2.150  0.9692  2.9983  2.0935
 4038SOL    HW315919   2.337   4.603   2.278 -1.2292 -1.1401 -0.4586
 4038SOL    MW415920   2.329   4.635   2.197 -0.3410 -0.5566 -0.0298
 4039SOL     OW15921   4.411   5.546   0.982 -0.0324 -0.8178  0.6582
 4039SOL    HW215922   4.344   5.609   1.008  0.5206 -0.0864  0.3667
 4039SOL    HW315923   4.376   5.505   0.903 -0.2535 -0.6213  0.6512
 4039SOL    MW415924   4.398   5.549   0.975  0.1498 -0.7608 -0.0774
 4040SOL     OW15925   3.788   2.525   2.924 -0.1532  0.1307 -0.2911
 4040SOL    HW215926   3.813   2.476   3.002  1.4064  2.2799  0.6730
 4040SOL    HW315927   3.869   2.538   2.876 -0.3232  2.2827 -0.1273
 4040SOL    MW415928   3.802   2.521   2.928  0.3350  0.6842 -0.8999
 4041SOL     OW15929   4.960   6.317   2.929  0.4487  0.2504  0.2139
 4041SOL    HW215930   4.971   6.244   2.868  0.4337 -0.7286  1.3503
 4041SOL    HW315931   4.886   6.292   2.983  1.6923  0.1454  1.9415
 4041SOL    MW415932   4.952   6.304   2.928 -0.4306  0.5768  0.4037
 4042SOL     OW15933   3.960   1.090   4.096  0.1617  0.5296 -0.2895
 4042SOL    HW215934   3.884   1.107   4.152  0.0052 -0.1270 -0.2999
 4042SOL    HW315935   4.035   1.121   4.147  0.0178 -0.0478  0.2780
 4042SOL    MW415936   3.960   1.096   4.110 -0.3566  0.0489 -0.4646
 4043SOL     OW15937   2.405   5.599   5.666 -0.3402  0.2999  0.3635
 4043SOL    HW215938   2.424   5.539   5.593  0.8655  0.6987  0.3255
 4043SOL    HW315939   2.466   5.672   5.654 -2.1127  1.7924  0.1447
 4043SOL    MW415940   2.416   5.600   5.655 -0.2268 -0.5585 -0.6208
 4044SOL     OW15941   3.110   0.622   1.106  0.1686  0.3625  0.0472
 4044SOL    HW215942   3.181   0.559   1.121  0.2087  0.5091  0.5130
 4044SOL    HW315943   3.153   0.708   1.113 -0.1167  0.4606  0.7159
 4044SOL    MW415944   3.125   0.625   1.109  0.2997 -0.9687 -0.6706
 4045SOL     OW15945   5.233   2.181   4.976 -0.2607  0.6787 -0.0441
 4045SOL    HW215946   5.160   2.129   5.009  0.6931 -0.0591  0.9931
 4045SOL    HW315947   5.195   2.266   4.955 -1.2541  0.5989  1.3313
 4045SOL    MW415948   5.219   2.185   4.977  0.1973  0.2122  0.6672
 4046SOL     OW15949   2.651   5.782   1.784 -0.0644 -1.1435  0.6396
 4046SOL    HW215950   2.741   5.762   1.810  0.6305 -0.4571 -1.0798
 4046SOL    HW315951   2.605   5.699   1.795  0.7414 -1.4800  1.6603
 4046SOL    MW415952   2.657   5.768   1.789  0.2177 -0.4761 -0.1696
 4047SOL     OW15953   3.157   6.325   2.725  0.2031 -0.2623  0.9589
 4047SOL    HW215954   3.207   6.385   2.780  0.6769 -0.5489  0.8496
 4047SOL    HW315955   3.082   6.300   2.778  0.8438 -0.8223  1.6356
 4047SOL    MW415956   3.154   6.329   2.739 -0.0986  0.1520  0.0013
 4048SOL     OW15957   6.284   2.674   2.984 -0.3821 -0.3256  0.4883
 4048SOL    HW215958   6.309   2.602   2.926  0.1328  0.2391 -0.0054
 4048SOL    HW315959   6.236   2.632   3.055 -0.3105 -1.1256  0.0749
 4048SOL    MW415960   6.281   2.659   2.986  0.3644 -0.1816 -0.6960
 4049SOL     OW15961   2.744   4.162   5.690 -0.0578  0.4721 -0.8341
 4049SOL    HW215962   2.834   4.132   5.700 -0.4523  0.0133  2.5257
 4049SOL    HW315963   2.744   4.250   5.726 -1.0982  0.1043  0.1313
 4049SOL    MW415964   2.756   4.169   5.696 -0.4269  0.3595 -0.5242
 4050SOL     OW15965   0.390   4.667   2.018  0.0784 -0.0022  0.3922
 4050SOL    HW215966   0.384   4.760   2.037 -0.5740 -0.1862  1.1578
 4050SOL    HW315967   0.300   4.639   2.003  0.2952 -0.4553 -0.1199
 4050SOL    MW415968   0.378   4.675   2.019  0.0646  0.1257  0.5170
 4051SOL     OW15969   3.358   2.399   4.262  0.4740  0.0710  0.2475
 4051SOL    HW215970   3.372   2.319   4.211 -0.7144 -0.4345  0.6852
 4051SOL    HW315971   3.404   2.467   4.212  0.7832 -0.7207 -0.5803
 4051SOL    MW415972   3.366   2.397   4.249 -0.9048  0.3404  0.2583
 4052SOL     OW15973   3.670   6.393   5.521 -0.4473 -0.1163  0.3228
 4052SOL    HW215974   3.747   6.389   5.577  0.5078 -0.2669 -0.9674
 4052SOL    HW315975   3.626   6.474   5.546  1.7574  1.5772 -0.9494
 4052SOL    MW415976   3.674   6.403   5.532 -0.5763  0.4093 -0.4506
 4053SOL     OW15977   3.058   2.013   4.634  0.3968  0.5216  0.4105
 4053SOL    HW215978   3.085   2.004   4.726 -2.0127 -1.0584  1.0686
 4053SOL    HW315979   3.020   1.928   4.613 -1.5532  1.7169 -1.1843
 4053SOL    MW415980   3.057   2.000   4.644 -0.4526  0.1422  0.1635
 4054SOL     OW15981   6.258   3.518   2.160 -0.3469  0.9060  0.2716
 4054SOL    HW215982   6.256   3.548   2.250  1.4430 -0.4311  0.8172
 4054SOL    HW315983   6.260   3.598   2.108  0.6868  1.7186  1.5082
 4054SOL    MW415984   6.258   3.533   2.165  0.1228 -0.2776  0.3715
 4055SOL     OW15985   0.921   4.756   0.714  0.2003  0.0823 -0.0827
 4055SOL    HW215986   0.959   4.671   0.736  0.7575  0.6064  1.0833
 4055SOL    HW315987   0.842   4.762   0.768 -0.6338 -0.2926 -1.2435
 4055SOL    MW415988   0.916   4.746   0.724 -0.4930  0.1080  0.1804
 4056SOL     OW15989   6.033   4.498   5.734  0.0735 -0.2157  0.0604
 4056SOL    HW215990   5.982   4.548   5.798 -1.1552 -0.4555 -0.6983
 4056SOL    HW315991   5.974   4.487   5.660  0.9748 -1.1900 -0.5423
 4056SOL    MW415992   6.018   4.503   5.733 -0.1514  0.1300 -0.4922
 4057SOL     OW15993   0.504   3.258   1.569 -0.3720  0.1662 -0.2572
 4057SOL    HW215994   0.589   3.269   1.612 -0.5153 -0.7216  0.2576
 4057SOL    HW315995   0.456   3.198   1.625 -1.5745  1.1094 -0.2371
 4057SOL    MW415996   0.509   3.252   1.582  0.6973 -0.3659  0.1138
 4058SOL     OW15997   3.164   0.280   3.085  0.1359  0.0170 -0.1988
 4058SOL    HW215998   3.134   0.236   3.164 -1.6606  2.8742  0.8830
 4058SOL    HW315999   3.260   0.282   3.093  0.0462 -0.7393  1.3239
 4058SOL    MW416000   3.173   0.275   3.097  0.6766  0.0293 -0.0920
 4059SOL     OW16001   2.694   1.357   2.153  0.4200 -0.4026  0.3353
 4059SOL    HW216002   2.638   1.416   2.103 -1.0905 -1.7079  0.4142
 4059SOL    HW316003   2.706   1.402   2.237  0.3151  0.3431 -0.0353
 4059SOL    MW416004   2.688   1.371   2.157  0.3578  0.2432 -0.0072
 4060SOL     OW16005   5.127   2.889   6.074 -0.0926  0.1584  0.1957
 4060SOL    HW216006   5.093   2.811   6.031 -1.1037  0.7999 -0.2035
 4060SOL    HW316007   5.094   2.883   6.164  1.3720 -0.7856  0.7092
 4060SOL    MW416008   5.118   2.878   6.080 -1.2944 -0.4955 -0.7933
 4061SOL     OW16009   2.748   4.898   1.215  0.3201  0.2767 -0.2664
 4061SOL    HW216010   2.668   4.870   1.169  0.8569 -0.4120 -0.8131
 4061SOL    HW316011   2.717   4.935   1.297 -0.4725 -1.5434  0.2944
 4061SOL    MW416012   2.733   4.899   1.220  0.3301 -0.5761  0.1526
 4062SOL     OW16013   5.662   2.146   5.056 -0.0841 -0.2308  0.3472
 4062SOL    HW216014   5.741   2.137   5.110  1.1721 -0.3961 -1.4021
 4062SOL    HW316015   5.607   2.072   5.080  2.0921 -2.5019 -1.1204
 4062SOL    MW416016   5.666   2.135   5.066  0.0198 -0.0266 -0.1305
 4063SOL     OW16017   1.213   0.033   3.587 -0.2134  0.2640 -0.1345
 4063SOL    HW216018   1.209  -0.054   3.547  2.3149  1.6932 -4.0556
 4063SOL    HW316019   1.144   0.083   3.544 -1.8128  0.2956  2.2639
 4063SOL    MW416020   1.203   0.028   3.576  0.4020  0.7526  0.6890
 4064SOL     OW16021   4.179   5.910   1.407 -0.5859 -0.0703 -0.1946
 4064SOL    HW216022   4.097   5.931   1.452 -0.2376  1.0747 -0.0661
 4064SOL    HW316023   4.246   5.917   1.475 -0.1621  0.8067 -0.6902
 4064SOL    MW416024   4.177   5.913   1.422 -0.6079 -0.2865  0.0529
 4065SOL     OW16025   3.055   0.040   0.376 -0.0604  0.2116  0.0628
 4065SOL    HW216026   3.112  -0.019   0.426  0.4805  0.4443 -0.2652
 4065SOL    HW316027   3.080   0.025   0.285 -0.9302 -0.0985 -0.1287
 4065SOL    MW416028   3.066   0.030   0.370 -0.3813  0.2817 -0.3293
 4066SOL     OW16029   5.108   5.744   5.935 -0.2974 -0.5192  0.2446
 4066SOL    HW216030   5.068   5.725   6.020 -2.7805  1.3863 -0.3731
 4066SOL    HW316031   5.162   5.821   5.952 -1.6943  0.5723 -0.0488
 4066SOL    MW416032   5.110   5.752   5.948 -0.2066  0.0967  0.1450
 4067SOL     OW16033   4.976   0.712   0.677 -0.2106 -0.3301 -0.0398
 4067SOL    HW216034   4.926   0.667   0.746 -1.7183  0.7660 -0.3579
 4067SOL    HW316035   4.945   0.803   0.681  1.8400  0.4269 -0.2435
 4067SOL    MW416036   4.965   0.718   0.687 -0.2454 -0.3938  0.1141
 4068SOL     OW16037   1.954   3.579   2.551 -0.2072  0.3799  0.0829
 4068SOL    HW216038   1.932   3.609   2.463  0.2043  0.9709  0.1746
 4068SOL    HW316039   1.965   3.660   2.602 -2.4735  0.0722  1.2133
 4068SOL    MW416040   1.952   3.594   2.546 -0.2629 -0.0613  0.7509
 4069SOL     OW16041   4.778   5.514   3.762  0.0923 -0.4124  0.3205
 4069SOL    HW216042   4.809   5.469   3.840 -1.3562 -2.8582 -0.4074
 4069SOL    HW316043   4.857   5.547   3.720  0.9698  0.1339  2.2659
 4069SOL    MW416044   4.792   5.513   3.767 -0.2448 -0.4325 -0.1427
 4070SOL     OW16045   2.896   6.173   2.407 -0.5129  0.4224  0.3167
 4070SOL    HW216046   2.863   6.128   2.484  0.0609 -0.6511 -0.0447
 4070SOL    HW316047   2.882   6.111   2.335  1.5691  0.2180  0.0320
 4070SOL    MW416048   2.889   6.159   2.407 -0.5363 -0.6870  0.4876
 4071SOL     OW16049   4.898   3.707   1.807 -0.5409  0.3984 -0.5421
 4071SOL    HW216050   4.965   3.673   1.748 -0.7518 -2.6985  0.7723
 4071SOL    HW316051   4.823   3.723   1.751 -0.1291 -0.5799 -1.4192
 4071SOL    MW416052   4.897   3.705   1.792  0.0862  0.0694 -0.1262
 4072SOL     OW16053   5.013   1.453   0.665 -0.9931 -0.2272 -0.0914
 4072SOL    HW216054   4.920   1.435   0.651 -1.0541  1.0088 -1.5126
 4072SOL    HW316055   5.016   1.542   0.700 -0.3562 -0.4241  0.3791
 4072SOL    MW416056   5.002   1.462   0.668  0.3530  0.6321  0.6224
 4073SOL     OW16057   0.756   5.532   6.039 -0.4507  0.5611  0.5828
 4073SOL    HW216058   0.824   5.497   5.982  0.2664 -0.6716  2.1333
 4073SOL    HW316059   0.800   5.597   6.094 -0.9211  1.0356  0.4142
 4073SOL    MW416060   0.771   5.536   6.039  0.2336 -0.1007  0.1141
 4074SOL     OW16061   1.257   3.602   4.159  0.6009  0.2705 -0.4830
 4074SOL    HW216062   1.263   3.653   4.239  0.7998 -1.5819  0.7461
 4074SOL    HW316063   1.341   3.618   4.114  0.7181  0.8828 -0.0624
 4074SOL    MW416064   1.269   3.611   4.164 -0.3035 -0.1064 -0.1327
 4075SOL     OW16065   1.006   4.982   1.374 -0.4168 -0.5886 -0.5514
 4075SOL    HW216066   1.093   5.011   1.399 -0.2736 -1.1212 -0.4084
 4075SOL    HW316067   0.973   5.051   1.317 -0.3333  0.1314  0.2599
 4075SOL    MW416068   1.013   4.995   1.370 -0.3383  0.0965  0.2246
 4076SOL     OW16069   5.128   5.164   0.837  0.1942  0.2202 -1.0112
 4076SOL    HW216070   5.159   5.185   0.925  0.5149  0.7570 -1.2490
 4076SOL    HW316071   5.062   5.230   0.819  0.0737  0.0628 -1.1432
 4076SOL    MW416072   5.124   5.176   0.847 -0.4606  0.0327 -0.0982
 4077SOL     OW16073   0.129   3.318   4.977  0.4193 -0.0167  0.5805
 4077SOL    HW216074   0.047   3.319   5.027  0.3218  0.4658  0.4146
 4077SOL    HW316075   0.172   3.237   5.004  0.1790  0.0356  1.1349
 4077SOL    MW416076   0.124   3.307   4.987  0.2359  0.5744  0.4642
 4078SOL     OW16077   1.143   3.494   1.805 -0.3902 -0.1294  0.0066
 4078SOL    HW216078   1.055   3.480   1.770 -0.9519  0.3368  1.1694
 4078SOL    HW316079   1.146   3.438   1.883  0.9075 -1.3239 -0.8492
 4078SOL    MW416080   1.132   3.485   1.811  0.1345  0.7027 -0.1873
 4079SOL     OW16081   2.388   2.712   4.459 -0.0147 -0.3991  0.1811
 4079SOL    HW216082   2.474   2.701   4.420 -0.5323  0.1912 -1.2020
 4079SOL    HW316083   2.348   2.625   4.456  0.9584 -0.9564  1.9850
 4079SOL    MW416084   2.394   2.699   4.453  0.1681  0.1805 -0.1481
 4080SOL     OW16085   4.600   1.907   1.369  0.0479 -0.3826  0.0501
 4080SOL    HW216086   4.670   1.889   1.306 -1.3052 -1.6540 -1.1753
 4080SOL    HW316087   4.535   1.955   1.318  0.7485  2.5434  1.6391
 4080SOL    MW416088   4.601   1.911   1.354  0.0640 -0.3441 -0.7304
 4081SOL     OW16089   5.391   1.189   1.152 -0.1058 -0.5194 -0.2528
 4081SOL    HW216090   5.413   1.097   1.140 -0.4808 -0.7841  0.9011
 4081SOL    HW316091   5.316   1.188   1.212  1.2577  0.5799  1.6063
 4081SOL    MW416092   5.384   1.177   1.158  0.0566 -0.6436  0.3103
 4082SOL     OW16093   5.051   4.661   3.574 -0.3384  0.3074  0.8675
 4082SOL    HW216094   5.068   4.684   3.665  1.2308 -1.2735  1.0252
 4082SOL    HW316095   5.093   4.576   3.562  1.0317  1.2251 -1.7834
 4082SOL    MW416096   5.059   4.653   3.584 -0.0987 -0.5833  0.3927
 4083SOL     OW16097   1.806   0.494   4.415 -0.4922 -0.1050  0.0881
 4083SOL    HW216098   1.898   0.472   4.396 -0.6659  0.3177 -1.3174
 4083SOL    HW316099   1.799   0.485   4.510  1.0823  0.1422  0.2551
 4083SOL    MW416100   1.817   0.490   4.425 -0.5117 -0.0491 -0.1023
 4084SOL     OW16101   2.486   1.510   1.996  0.0403 -0.1549  0.4528
 4084SOL    HW216102   2.529   1.528   1.912 -1.0723  1.8608  0.2522
 4084SOL    HW316103   2.402   1.470   1.972 -0.8071  1.4904  0.4519
 4084SOL    MW416104   2.480   1.507   1.981 -0.5927  0.0391  0.2017
 4085SOL     OW16105   5.756   3.632   5.442  0.4134  0.3454 -0.5322
 4085SOL    HW216106   5.709   3.684   5.377  0.1969  1.9509  0.8600
 4085SOL    HW316107   5.791   3.696   5.504  0.9356 -1.1121  0.7431
 4085SOL    MW416108   5.754   3.647   5.442 -0.6695  0.3253  0.6215
 4086SOL     OW16109   1.011   3.314   0.303 -0.1523  0.2370 -0.1319
 4086SOL    HW216110   1.016   3.404   0.270  0.1361  1.3270  2.6068
 4086SOL    HW316111   1.095   3.275   0.278 -1.0999 -0.0509 -3.1945
 4086SOL    MW416112   1.023   3.321   0.296  0.1985  0.3306  0.3777
 4087SOL     OW16113   2.522   2.082   6.272  0.2120  0.6771  0.0452
 4087SOL    HW216114   2.510   1.994   6.236  0.4645  1.1878 -1.3855
 4087SOL    HW316115   2.539   2.069   6.365 -1.5445 -0.6588  0.2108
 4087SOL    MW416116   2.523   2.069   6.279  0.0835  0.4746  0.0925
 4088SOL     OW16117   2.223   3.136   0.162  0.1142 -0.6533 -0.4227
 4088SOL    HW216118   2.214   3.208   0.225 -0.5577  0.6573 -1.9565
 4088SOL    HW316119   2.206   3.057   0.214  0.5518  0.3038  1.2404
 4088SOL    MW416120   2.219   3.135   0.177  0.3218  0.7701  0.6128
 4089SOL     OW16121   1.759   0.325   1.273  0.6653 -0.6632 -0.0330
 4089SOL    HW216122   1.721   0.266   1.207  1.3658 -0.0645 -1.0119
 4089SOL    HW316123   1.781   0.268   1.347 -1.4501 -1.1355  0.2847
 4089SOL    MW416124   1.757   0.310   1.274  0.1584 -0.0554 -0.0251
 4090SOL     OW16125   1.666   2.548   0.432 -0.3596  0.3375 -0.4365
 4090SOL    HW216126   1.746   2.496   0.433 -1.0093 -0.8164  2.7566
 4090SOL    HW316127   1.602   2.494   0.386 -0.1327 -0.1923 -0.1307
 4090SOL    MW416128   1.668   2.534   0.426 -0.0980 -0.1040 -0.3277
 4091SOL     OW16129   0.449   3.222   0.484 -0.2393 -0.0221  0.1119
 4091SOL    HW216130   0.429   3.199   0.575 -0.9469  0.0233 -0.0282
 4091SOL    HW316131   0.449   3.317   0.483  3.2684  0.1394  0.8219
 4091SOL    MW416132   0.446   3.231   0.496  0.6429  0.5963  0.6751
 4092SOL     OW16133   6.415   1.721   2.860  0.1075 -0.0189 -0.3792
 4092SOL    HW216134   6.431   1.712   2.766 -0.1768  0.7988 -0.5171
 4092SOL    HW316135   6.323   1.697   2.872  0.3274 -0.7948 -0.1992
 4092SOL    MW416136   6.405   1.717   2.849 -0.2218 -0.2928  0.6904
 4093SOL     OW16137   0.912   0.614   0.282  0.2412  0.5925  0.0755
 4093SOL    HW216138   0.977   0.548   0.304 -1.7022 -1.0114  1.3025
 4093SOL    HW316139   0.963   0.693   0.263  2.4879 -0.4366  1.5010
 4093SOL    MW416140   0.927   0.616   0.282 -0.1395 -0.8007 -0.2122
 4094SOL     OW16141   1.071   5.906   4.148  0.3039  0.3883  0.1170
 4094SOL    HW216142   1.011   5.858   4.205 -0.9831  1.0104 -0.6530
 4094SOL    HW316143   1.116   5.839   4.098 -0.7205 -0.0782 -0.2148
 4094SOL    MW416144   1.069   5.891   4.149  0.3088  0.0758 -0.4688
 4095SOL     OW16145   4.846   2.558   5.371  0.2535 -0.4614 -0.2035
 4095SOL    HW216146   4.940   2.549   5.388  0.0801 -1.0694  0.4763
 4095SOL    HW316147   4.822   2.479   5.322 -0.6701 -2.4778  3.1498
 4095SOL    MW416148   4.855   2.547   5.367  0.2209  0.1053 -0.6699
 4096SOL     OW16149   0.814   3.176   2.435  0.1385  0.4057  0.4366
 4096SOL    HW216150   0.771   3.134   2.360  2.1917 -0.3879 -0.3699
 4096SOL    HW316151   0.772   3.137   2.511  0.9878 -2.1867 -0.2887
 4096SOL    MW416152   0.803   3.165   2.435  0.0439  0.2716  0.7443
 4097SOL     OW16153   4.980   4.307   1.137  0.1256 -0.1294 -0.0405
 4097SOL    HW216154   4.923   4.302   1.060 -1.1697  1.0846  0.8046
 4097SOL    HW316155   4.927   4.349   1.204  1.6697  0.0553  1.1233
 4097SOL    MW416156   4.965   4.312   1.136  0.4214  0.3064  0.1232
 4098SOL     OW16157   5.176   0.937   5.839 -0.1090 -0.2925  0.3493
 4098SOL    HW216158   5.256   0.989   5.850 -1.0577  1.2338  0.4003
 4098SOL    HW316159   5.185   0.895   5.754 -0.5651  2.4146 -1.1549
 4098SOL    MW416160   5.187   0.938   5.829 -0.2017  0.6183 -0.0812
 4099SOL     OW16161   1.623   2.412   5.702  0.2400 -0.4654  0.7371
 4099SOL    HW216162   1.600   2.352   5.632  1.0164 -2.6538  2.2648
 4099SOL    HW316163   1.544   2.419   5.755 -0.0515  0.4433  0.2147
 4099SOL    MW416164   1.610   2.405   5.700 -0.2022  0.0664  0.4906
 4100SOL     OW16165   2.576   5.277   5.714  0.4840 -0.1305 -0.6419
 4100SOL    HW216166   2.526   5.289   5.633  0.8569  2.0423 -0.6066
 4100SOL    HW316167   2.559   5.356   5.765  0.9648 -1.0546  1.0431
 4100SOL    MW416168   2.567   5.289   5.710 -0.4656 -0.2173 -0.4017
 4101SOL     OW16169   3.656   3.822   4.524 -0.3913 -0.2173 -0.1278
 4101SOL    HW216170   3.586   3.793   4.466 -0.4343  0.1570 -0.2633
 4101SOL    HW316171   3.611   3.861   4.598 -0.3867 -2.0819  0.9299
 4101SOL    MW416172   3.641   3.823   4.526  0.1708  0.3700  0.0636
 4102SOL     OW16173   3.821   4.707   1.068  0.8918 -0.1635 -0.0048
 4102SOL    HW216174   3.805   4.759   0.989  1.5190  0.3705  0.2104
 4102SOL    HW316175   3.917   4.698   1.071  0.8503 -0.4361  0.5345
 4102SOL    MW416176   3.832   4.712   1.058  0.5972 -0.2405  0.1156
 4103SOL     OW16177   5.882   2.950   4.844 -0.4504 -0.5030 -0.3152
 4103SOL    HW216178   5.805   2.893   4.849  0.1396 -1.3359 -0.5306
 4103SOL    HW316179   5.901   2.957   4.750  2.0490 -3.5593 -0.2162
 4103SOL    MW416180   5.874   2.943   4.832  1.1347 -0.3327 -0.3977
 4104SOL     OW16181   3.304   6.371   3.053 -0.6412  0.7141 -0.1728
 4104SOL    HW216182   3.393   6.353   3.081 -1.1762 -0.9485  0.6227
 4104SOL    HW316183   3.313   6.435   2.983  1.0506  1.7325  0.9068
 4104SOL    MW416184   3.317   6.377   3.047  0.3387 -0.1996 -0.1255
 4105SOL     OW16185   4.977   5.435   2.581  0.2065 -0.1863 -0.1301
 4105SOL    HW216186   5.027   5.364   2.541  1.5678 -0.3091  1.6736
 4105SOL    HW316187   4.961   5.405   2.671 -0.7354  1.0418  0.1298
 4105SOL    MW416188   4.982   5.422   2.588  0.1082  0.3161 -0.2649
 4106SOL     OW16189   0.862   4.898   5.434 -0.3469 -0.2370  0.5293
 4106SOL    HW216190   0.954   4.912   5.413 -0.4287  2.5036  1.5847
 4106SOL    HW316191   0.820   4.886   5.349  0.5073  2.2621 -0.3556
 4106SOL    MW416192   0.868   4.898   5.420 -0.6105 -0.1011  0.2682
 4107SOL     OW16193   4.774   6.197   4.563  0.3075 -0.2414  0.0580
 4107SOL    HW216194   4.754   6.265   4.627  1.4372  0.3098 -0.1578
 4107SOL    HW316195   4.705   6.206   4.497 -0.4534 -0.3472  0.8224
 4107SOL    MW416196   4.762   6.207   4.563 -0.3846 -0.2747  0.1812
 4108SOL     OW16197   1.824   2.386   3.237  0.1909 -0.3942 -0.8664
 4108SOL    HW216198   1.742   2.423   3.205  0.8450  0.7393 -1.3007
 4108SOL    HW316199   1.855   2.449   3.302  0.7544 -0.7624 -0.7747
 4108SOL    MW416200   1.817   2.399   3.241  0.6190 -0.0573  0.8561
 4109SOL     OW16201   4.144   4.164   3.797 -0.0921  0.0527 -0.1579
 4109SOL    HW216202   4.136   4.259   3.791  1.2954  0.2704  0.8404
 4109SOL    HW316203   4.081   4.130   3.733 -1.4762  1.6081  0.3026
 4109SOL    MW416204   4.135   4.172   3.788  0.0001 -0.0959  0.4769
 4110SOL     OW16205   5.406   4.404   0.344  0.8335 -0.1052 -0.2729
 4110SOL    HW216206   5.365   4.482   0.306 -1.0042  0.2370  2.1690
 4110SOL    HW316207   5.499   4.426   0.348  0.4677  1.5964 -0.4605
 4110SOL    MW416208   5.413   4.417   0.339 -0.5696  0.2033  0.0202
 4111SOL     OW16209   3.313   4.721   1.392  0.1301  0.3755 -0.0572
 4111SOL    HW216210   3.260   4.719   1.472  0.5635 -0.9434  0.2225
 4111SOL    HW316211   3.275   4.652   1.336 -0.6617  1.7886 -1.3457
 4111SOL    MW416212   3.301   4.711   1.395 -0.0539 -0.6650 -0.1961
 4112SOL     OW16213   1.143   1.649   1.154 -0.0469  0.3478 -0.6469
 4112SOL    HW216214   1.194   1.608   1.224 -1.2499  0.5780  0.3866
 4112SOL    HW316215   1.207   1.703   1.107  0.6481  0.7761  0.7238
 4112SOL    MW416216   1.158   1.651   1.157 -0.5867 -0.5590  0.5258
 4113SOL     OW16217   2.410   3.507   2.157  0.9964 -0.1483 -0.4919
 4113SOL    HW216218   2.331   3.459   2.131 -0.1207  1.5225 -0.3455
 4113SOL    HW316219   2.420   3.574   2.089  0.6755  1.3792  0.8994
 4113SOL    MW416220   2.401   3.510   2.145 -0.5789 -0.4705 -0.0484
 4114SOL     OW16221   4.042   5.962   5.000  0.4347 -0.1960 -0.1525
 4114SOL    HW216222   4.002   6.047   4.979  0.4501 -0.1746 -0.0939
 4114SOL    HW316223   4.109   5.950   4.932  0.4555 -0.1457 -0.1413
 4114SOL    MW416224   4.046   5.972   4.988  0.2807  0.3253  0.4068
 4115SOL     OW16225   6.155   2.360   5.921  0.4926 -0.0263 -0.2071
 4115SOL    HW216226   6.116   2.447   5.913 -0.5087 -0.3251  1.0110
 4115SOL    HW316227   6.249   2.374   5.910  0.2001  0.9351 -1.7606
 4115SOL    MW416228   6.162   2.373   5.919  0.3135  0.5793  0.2313
 4116SOL     OW16229   3.998   4.413   4.354 -0.3243 -0.2793  0.3809
 4116SOL    HW216230   3.986   4.508   4.352  2.2334  0.1347  1.1285
 4116SOL    HW316231   4.082   4.401   4.398 -0.1407 -2.8554 -0.5418
 4116SOL    MW416232   4.008   4.424   4.359 -0.2725 -0.6520  0.0279
 4117SOL     OW16233   0.861   3.784   5.698 -0.0336  0.2757  0.3213
 4117SOL    HW216234   0.927   3.718   5.719  0.7636  1.0004  0.1412
 4117SOL    HW316235   0.823   3.808   5.783  0.2630  0.1921  0.4789
 4117SOL    MW416236   0.865   3.779   5.712 -0.6743 -0.2551  0.1010
 4118SOL     OW16237   0.829   3.867   0.356 -0.0631  0.3257 -0.0846
 4118SOL    HW216238   0.790   3.852   0.270  0.0145  2.0037 -0.4453
 4118SOL    HW316239   0.755   3.889   0.413  0.0187  0.4248 -0.0158
 4118SOL    MW416240   0.814   3.868   0.352  0.4226  0.0382 -0.1208
 4119SOL     OW16241   1.028   2.563   0.257  0.1944  0.0729 -0.4802
 4119SOL    HW216242   1.008   2.614   0.179  0.6142  1.5452  0.3434
 4119SOL    HW316243   1.096   2.613   0.302  1.6237 -1.8923 -0.3103
 4119SOL    MW416244   1.034   2.576   0.252  0.3383 -0.0449 -0.1593
 4120SOL     OW16245   5.655   6.139   2.563 -0.2066 -0.1774  0.3423
 4120SOL    HW216246   5.698   6.200   2.624  1.2424  0.0715 -0.8674
 4120SOL    HW316247   5.566   6.172   2.555  0.5447  1.8699 -0.3151
 4120SOL    MW416248   5.649   6.152   2.570 -0.3520 -0.5978 -0.2675
 4121SOL     OW16249   2.216   3.011   5.130 -0.4922  0.0441 -0.3107
 4121SOL    HW216250   2.262   3.083   5.088  0.8946  0.3569  1.6413
 4121SOL    HW316251   2.197   3.042   5.218 -1.5859 -1.2835 -0.0414
 4121SOL    MW416252   2.219   3.024   5.136 -0.2530  0.0094 -0.7573
 4122SOL     OW16253   0.907   4.298   1.977  0.1376  0.2559 -0.0596
 4122SOL    HW216254   0.833   4.238   1.980 -1.1918  1.8660  2.3157
 4122SOL    HW316255   0.905   4.333   1.888 -1.7913  0.0101 -0.1605
 4122SOL    MW416256   0.897   4.295   1.966 -0.3338  0.9755 -0.2187
 4123SOL     OW16257   3.924   1.650   2.955  0.8955 -0.2727  0.2107
 4123SOL    HW216258   3.837   1.617   2.976  1.1343  0.1822  2.1591
 4123SOL    HW316259   3.910   1.721   2.893  0.1553 -2.1117 -1.8338
 4123SOL    MW416260   3.911   1.655   2.950  0.2639 -0.2648 -0.3764
 4124SOL     OW16261   4.407   2.964   3.531  0.1912 -1.0276  0.2720
 4124SOL    HW216262   4.329   2.990   3.581  1.1629  0.8564  0.9296
 4124SOL    HW316263   4.467   2.931   3.597  1.8190  2.2784  0.6536
 4124SOL    MW416264   4.404   2.963   3.546  0.1821 -0.3444 -0.1456
 4125SOL     OW16265   0.558   3.819   2.873 -0.0013  0.1796  0.8018
 4125SOL    HW216266   0.533   3.774   2.792 -0.8359 -1.0913  1.7191
 4125SOL    HW316267   0.530   3.909   2.860  1.9014  0.5634 -1.1835
 4125SOL    MW416268   0.551   3.825   2.861 -0.0854  0.4156 -0.7950
 4126SOL     OW16269   2.165   2.759   4.649 -0.4580 -0.2652  0.0483
 4126SOL    HW216270   2.144   2.850   4.629 -1.8385 -0.7570 -0.9509
 4126SOL    HW316271   2.231   2.735   4.583 -1.5333 -0.5269 -0.9588
 4126SOL    MW416272   2.171   2.768   4.637 -0.2023 -0.4233  0.0541
 4127SOL     OW16273   2.583   3.478   4.116  0.1302 -0.0659  0.1347
 4127SOL    HW216274   2.657   3.538   4.128 -0.6235  0.7804  0.5638
 4127SOL    HW316275   2.583   3.459   4.022 -1.1362  2.6044 -0.4875
 4127SOL    MW416276   2.593   3.483   4.105 -0.1208  0.4242 -0.2547
 4128SOL     OW16277   0.075   0.966   3.037 -0.4034  0.1957 -0.3097
 4128SOL    HW216278   0.088   0.900   2.969  1.7978 -0.1091  0.3271
 4128SOL    HW316279   0.057   1.047   2.989  2.5269  0.2957 -1.4037
 4128SOL    MW416280   0.074   0.968   3.022 -0.4356 -0.4073 -0.0475
 4129SOL     OW16281   2.036   3.513   1.751  0.4559  0.3366  0.4661
 4129SOL    HW216282   1.963   3.511   1.813  1.0199  0.7652  1.1663
 4129SOL    HW316283   2.015   3.586   1.692  0.0320  0.0761  0.2893
 4129SOL    MW416284   2.024   3.523   1.751 -0.2057  0.5380  0.3750
 4130SOL     OW16285   0.099   0.161   5.508  0.4145  0.2605 -0.4523
 4130SOL    HW216286   0.169   0.226   5.519 -0.3176  0.8451  1.0683
 4130SOL    HW316287   0.138   0.079   5.538  0.9488  0.2321 -1.1889
 4130SOL    MW416288   0.114   0.159   5.513  0.3078 -0.5244 -0.4122
 4131SOL     OW16289   1.211   1.680   4.531  0.7006 -0.3020  0.1460
 4131SOL    HW216290   1.248   1.635   4.607  0.7482  1.4191  1.1694
 4131SOL    HW316291   1.273   1.749   4.510 -0.5514  0.8697  0.1493
 4131SOL    MW416292   1.224   1.683   4.538  0.3261 -0.4319  0.3530
 4132SOL     OW16293   1.309   3.047   3.521  0.2584 -0.1103 -0.3969
 4132SOL    HW216294   1.325   2.972   3.464  0.6819 -0.3809  0.0832
 4132SOL    HW316295   1.334   3.018   3.608 -0.0051  0.4409 -0.1323
 4132SOL    MW416296   1.314   3.033   3.525  0.2012 -0.0296  0.6607
 4133SOL     OW16297   2.952   3.185   4.017 -0.5069  0.2337  0.8199
 4133SOL    HW216298   3.008   3.178   3.940 -1.2044 -1.1447  0.4120
 4133SOL    HW316299   2.971   3.272   4.052  1.2085  0.1563  0.1882
 4133SOL    MW416300   2.962   3.196   4.012  0.0227  0.2460  0.6185
 4134SOL     OW16301   6.235   0.353   5.755 -0.1774  0.0600  0.2493
 4134SOL    HW216302   6.317   0.372   5.801 -1.3061  0.6191  2.1045
 4134SOL    HW316303   6.224   0.258   5.765  0.0981  0.0218  0.2169
 4134SOL    MW416304   6.245   0.343   5.762 -0.4934 -0.3755  0.7277
 4135SOL     OW16305   6.333   2.810   5.155 -0.0663 -0.1550  0.1407
 4135SOL    HW216306   6.242   2.831   5.134 -0.1248 -0.8857 -0.3861
 4135SOL    HW316307   6.349   2.853   5.239 -0.9554 -0.1654  0.3232
 4135SOL    MW416308   6.323   2.818   5.164  0.3347  0.3072 -0.1651
 4136SOL     OW16309   2.343   3.607   5.239 -0.0838  0.5964  0.7124
 4136SOL    HW216310   2.264   3.624   5.188 -0.5081  1.5547  1.6678
 4136SOL    HW316311   2.358   3.687   5.288  1.8945  0.6889  0.0345
 4136SOL    MW416312   2.335   3.620   5.239 -0.1329 -0.0737 -0.1471
 4137SOL     OW16313   4.208   5.691   4.446  0.4169 -0.4193 -0.1146
 4137SOL    HW216314   4.297   5.667   4.471  1.1112  0.2191 -1.8012
 4137SOL    HW316315   4.212   5.786   4.431 -1.0183 -0.0463  1.5539
 4137SOL    MW416316   4.220   5.700   4.447  0.2807  0.3069  0.2987
 4138SOL     OW16317   4.080   0.160   2.090  0.6323  0.0787  0.4887
 4138SOL    HW216318   4.068   0.066   2.079  1.1147 -0.2664  2.4920
 4138SOL    HW316319   4.017   0.200   2.031  0.2139 -1.4960 -0.1717
 4138SOL    MW416320   4.070   0.153   2.081 -0.1888 -0.0682  0.4525
 4139SOL     OW16321   3.877   3.877   0.836  0.5156 -0.6714 -0.0712
 4139SOL    HW216322   3.804   3.853   0.894  1.4967  1.0788  2.0260
 4139SOL    HW316323   3.837   3.937   0.773  0.1900  0.8693  1.5107
 4139SOL    MW416324   3.862   3.882   0.835  0.8770 -0.0575 -0.3764
 4140SOL     OW16325   0.794   0.141   2.393  0.2337 -0.1280 -0.8404
 4140SOL    HW216326   0.836   0.179   2.316  0.2788  0.1069 -0.7004
 4140SOL    HW316327   0.865   0.133   2.458  0.0050  0.5502 -0.4993
 4140SOL    MW416328   0.809   0.145   2.392  0.2428 -0.1794 -0.4606
 4141SOL     OW16329   3.057   0.401   6.195  0.0488  0.1637 -0.1053
 4141SOL    HW216330   3.103   0.318   6.201 -1.4539 -0.6256  1.4981
 4141SOL    HW316331   3.031   0.421   6.285 -0.8759  1.6488 -0.6535
 4141SOL    MW416332   3.060   0.393   6.208 -0.8903  0.1997 -0.5149
 4142SOL     OW16333   3.057   1.758   2.228 -0.3437  0.5022 -0.3150
 4142SOL    HW216334   2.994   1.749   2.156 -1.1802 -1.5550  0.6021
 4142SOL    HW316335   3.142   1.738   2.188 -0.5878  0.8420 -1.0308
 4142SOL    MW416336   3.060   1.754   2.213 -0.4895  0.2356 -0.2308
 4143SOL     OW16337   5.937   4.855   1.857  0.6587  0.3844 -0.5212
 4143SOL    HW216338   5.911   4.782   1.913  1.7892  1.1215  1.0262
 4143SOL    HW316339   5.930   4.820   1.768 -1.2731 -0.7938  0.0295
 4143SOL    MW416340   5.933   4.840   1.853 -0.5235 -1.2090  0.3313
 4144SOL     OW16341   1.177   6.119   2.412  0.3500 -0.8101  0.6237
 4144SOL    HW216342   1.093   6.100   2.371  0.6771 -3.2425  0.9455
 4144SOL    HW316343   1.214   6.033   2.432  2.1074  0.2285  2.1539
 4144SOL    MW416344   1.171   6.105   2.409  0.5439 -0.0201 -0.1609
 4145SOL     OW16345   2.447   5.209   1.577  0.2809  0.1154 -0.1332
 4145SOL    HW216346   2.450   5.187   1.669 -2.3116 -1.0892 -0.2402
 4145SOL    HW316347   2.354   5.201   1.553  1.0196 -1.0427 -3.1615
 4145SOL    MW416348   2.435   5.205   1.586  0.2401  0.0195  0.3944
 4146SOL     OW16349   2.944   4.802   5.717  0.3439 -0.2263 -0.2421
 4146SOL    HW216350   2.866   4.756   5.747  0.6695 -0.2206  0.6300
 4146SOL    HW316351   2.977   4.847   5.794  1.5342 -0.6996 -0.4534
 4146SOL    MW416352   2.938   4.802   5.731 -0.0744  0.5620  0.0322
 4147SOL     OW16353   0.954   4.625   5.225  0.0267  0.0444 -0.4375
 4147SOL    HW216354   0.960   4.598   5.316 -2.4009 -0.6542 -0.4161
 4147SOL    HW316355   1.036   4.593   5.186  0.0583 -1.8351  0.9835
 4147SOL    MW416356   0.966   4.617   5.232 -0.2451 -0.0103  0.7412
 4148SOL     OW16357   1.682   3.928   3.172 -0.7248  0.2727  0.1430
 4148SOL    HW216358   1.726   4.007   3.203  0.2887 -0.1413 -0.2141
 4148SOL    HW316359   1.623   3.958   3.103 -2.0588  1.0225  1.5427
 4148SOL    MW416360   1.680   3.942   3.167 -0.3593 -0.5478 -0.4287
 4149SOL     OW16361   0.956   5.287   2.667 -0.2527 -0.3511 -0.1631
 4149SOL    HW216362   1.028   5.351   2.664  0.8311 -1.5106  0.4076
 4149SOL    HW316363   0.953   5.259   2.759 -2.6911  1.0237  0.2559
 4149SOL    MW416364   0.965   5.292   2.679 -0.2757  0.3482  0.3114
 4150SOL     OW16365   5.368   1.575   4.717 -0.3512 -0.0932 -0.6561
 4150SOL    HW216366   5.364   1.490   4.760 -3.6111  0.0622 -0.3998
 4150SOL    HW316367   5.373   1.638   4.789 -0.6285  0.0128 -0.7297
 4150SOL    MW416368   5.368   1.572   4.732  0.2267 -0.3071  0.3816
 4151SOL     OW16369   0.160   2.457   5.644  0.5913 -0.1588 -0.1320
 4151SOL    HW216370   0.239   2.481   5.690 -0.4552  0.4836  1.3979
 4151SOL    HW316371   0.131   2.537   5.600 -0.5204  0.3005  1.3624
 4151SOL    MW416372   0.166   2.471   5.644 -0.2793 -0.0517  0.1623
 4152SOL     OW16373   0.684   0.793   1.341 -0.3375 -0.2931  0.0811
 4152SOL    HW216374   0.766   0.758   1.307 -0.3478 -1.2857  1.0334
 4152SOL    HW316375   0.702   0.816   1.432 -1.3602 -1.5148  0.6311
 4152SOL    MW416376   0.697   0.791   1.348  0.0326 -0.0496 -0.7122
 4153SOL     OW16377   2.263   5.909   1.720  0.0830  0.2398  0.2045
 4153SOL    HW216378   2.194   5.973   1.707 -0.9074 -0.7304  0.5545
 4153SOL    HW316379   2.252   5.880   1.811  1.6022  0.8032  0.6175
 4153SOL    MW416380   2.253   5.914   1.731  0.5208  0.2094 -0.3611
 4154SOL     OW16381   6.250   1.760   6.097  0.0650 -0.3124 -0.4839
 4154SOL    HW216382   6.195   1.705   6.154  2.7536 -0.7089  1.9469
 4154SOL    HW316383   6.217   1.849   6.112  0.5581 -0.4239  1.6626
 4154SOL    MW416384   6.238   1.765   6.107 -0.0659 -0.4232 -0.2011
 4155SOL     OW16385   2.148   5.789   2.722 -0.3844  0.4951  0.2808
 4155SOL    HW216386   2.133   5.863   2.663 -0.5904 -0.1684 -0.5105
 4155SOL    HW316387   2.240   5.795   2.746  0.1422 -0.2117 -1.4835
 4155SOL    MW416388   2.158   5.800   2.718 -0.2179  0.1232 -0.4462
 4156SOL     OW16389   2.920   2.003   4.025 -0.0857 -0.0761  0.2366
 4156SOL    HW216390   2.985   2.058   3.981  0.2274 -0.8266 -0.2707
 4156SOL    HW316391   2.904   1.932   3.963 -1.2075 -0.0344  0.4652
 4156SOL    MW416392   2.927   2.000   4.011 -0.0065 -0.0009  0.1338
 4157SOL     OW16393   0.093   0.702   2.961  0.2091  0.0288  0.3853
 4157SOL    HW216394   0.012   0.669   2.999  0.7979 -1.8891  0.0957
 4157SOL    HW316395   0.147   0.725   3.037  0.3031 -1.0505  0.6617
 4157SOL    MW416396   0.090   0.701   2.976 -0.6368 -0.0323 -0.3728
 4158SOL     OW16397   0.077   0.914   1.693  0.0078  0.5597 -0.3054
 4158SOL    HW216398   0.017   0.953   1.630  0.1374  1.1394 -0.0819
 4158SOL    HW316399   0.128   0.851   1.643 -0.2029  0.6830 -0.6768
 4158SOL    MW416400   0.075   0.911   1.678  0.1577  0.2130  0.1158
 4159SOL     OW16401   5.771   4.271   0.018 -0.0540  0.0103 -0.3141
 4159SOL    HW216402   5.771   4.222   0.100 -0.2820  0.8303  0.1912
 4159SOL    HW316403   5.688   4.246  -0.024 -1.3965  1.7783  1.0982
 4159SOL    MW416404   5.760   4.261   0.023  0.6655 -0.3663 -0.2830
 4160SOL     OW16405   3.051   3.786   5.312 -0.6289  0.5608 -0.0155
 4160SOL    HW216406   2.968   3.760   5.352  0.7204 -1.6310  1.6587
 4160SOL    HW316407   3.116   3.769   5.380  1.3336  0.9548 -1.6891
 4160SOL    MW416408   3.049   3.780   5.326 -0.2554  0.1778 -0.3856
 4161SOL     OW16409   2.428   1.113   4.983  0.1284 -0.0377 -0.5762
 4161SOL    HW216410   2.455   1.187   4.929 -1.4514  0.6070 -0.5450
 4161SOL    HW316411   2.354   1.075   4.936 -0.6004 -0.1091  0.5956
 4161SOL    MW416412   2.422   1.118   4.970 -0.4378 -0.1831 -0.6462
 4162SOL     OW16413   5.694   2.806   2.104  0.1388  0.0497 -0.0890
 4162SOL    HW216414   5.713   2.722   2.062  0.2819 -0.0448  0.1677
 4162SOL    HW316415   5.762   2.817   2.170  0.3144  0.5230 -0.3434
 4162SOL    MW416416   5.705   2.797   2.107  0.2459 -0.4805 -0.4258
 4163SOL     OW16417   3.273   5.075   2.406 -0.0724  0.5690 -0.2940
 4163SOL    HW216418   3.286   5.062   2.500 -0.5062  1.2857 -0.1306
 4163SOL    HW316419   3.265   5.170   2.396  0.3636  0.5301 -1.1065
 4163SOL    MW416420   3.274   5.086   2.417  1.1748  0.6498 -0.0453
 4164SOL     OW16421   0.824   2.981   1.267 -0.0449  0.1000  0.2528
 4164SOL    HW216422   0.843   2.979   1.360 -0.1270 -0.2470  0.2662
 4164SOL    HW316423   0.753   3.045   1.258  0.3131  0.5143  0.3576
 4164SOL    MW416424   0.817   2.989   1.278 -0.3220 -0.1025 -0.4486
 4165SOL     OW16425   1.681   1.369   0.463  0.2519 -0.6685 -0.1001
 4165SOL    HW216426   1.703   1.402   0.550 -2.0980  2.3693 -0.4795
 4165SOL    HW316427   1.756   1.393   0.409 -0.0435  1.4462  0.3122
 4165SOL    MW416428   1.694   1.377   0.467  0.1492 -0.3927  0.6841
 4166SOL     OW16429   1.824   3.518   4.610  0.4586  0.1240 -0.1359
 4166SOL    HW216430   1.756   3.533   4.676  0.1421  2.9803 -0.9781
 4166SOL    HW316431   1.783   3.457   4.548 -0.6180  0.2830  0.3887
 4166SOL    MW416432   1.809   3.512   4.610  0.2854  0.2460  0.4864
 4167SOL     OW16433   5.541   3.182   3.600 -0.0809 -0.1069  0.5135
 4167SOL    HW216434   5.557   3.178   3.694 -1.0224  0.4645  0.7080
 4167SOL    HW316435   5.454   3.143   3.589 -1.1871  2.3078  0.2289
 4167SOL    MW416436   5.532   3.176   3.611 -0.8333  0.4711  0.3348
 4168SOL     OW16437   4.620   4.533   1.629 -0.2842  0.3885  0.3589
 4168SOL    HW216438   4.711   4.532   1.657 -0.0428  2.2989 -0.2342
 4168SOL    HW316439   4.588   4.619   1.655 -1.7472 -0.0126 -0.0180
 4168SOL    MW416440   4.627   4.544   1.636 -0.2147  0.3859 -0.1273
 4169SOL     OW16441   3.196   2.562   1.113 -0.5703 -0.3186 -0.4905
 4169SOL    HW216442   3.163   2.650   1.095  1.1237  0.5502  0.4546
 4169SOL    HW316443   3.219   2.563   1.206 -1.8455 -2.2310 -0.0907
 4169SOL    MW416444   3.195   2.573   1.123  0.0651 -0.1456 -0.2934
 4170SOL     OW16445   5.675   5.544   4.778  0.0551 -0.1916  0.1282
 4170SOL    HW216446   5.750   5.499   4.740  1.4760  0.2006  2.2712
 4170SOL    HW316447   5.710   5.589   4.855 -1.7828  2.4634 -0.4061
 4170SOL    MW416448   5.689   5.544   4.783  0.7083  0.0988  0.0001
 4171SOL     OW16449   2.402   2.474   2.319 -0.0623 -0.3743 -0.2284
 4171SOL    HW216450   2.491   2.466   2.351  0.3764 -1.7583 -1.6488
 4171SOL    HW316451   2.348   2.432   2.385  0.3129  0.5003  0.6526
 4171SOL    MW416452   2.407   2.468   2.332  0.4638  0.3657 -0.0606
 4172SOL     OW16453   0.633   0.281   1.389  0.0315  0.0793 -0.2276
 4172SOL    HW216454   0.602   0.341   1.457  1.4245  0.9131 -0.2822
 4172SOL    HW316455   0.644   0.198   1.434 -1.9894 -0.2078 -0.1612
 4172SOL    MW416456   0.630   0.278   1.404  0.0690 -0.4437  0.2148
 4173SOL     OW16457   1.310   3.804  -0.011 -0.6537 -0.3718 -0.2099
 4173SOL    HW216458   1.387   3.748  -0.004  0.9641  1.5974 -1.0410
 4173SOL    HW316459   1.324   3.853  -0.093 -1.6214  1.6470  0.7670
 4173SOL    MW416460   1.322   3.803  -0.021 -1.0308  0.0756  0.1391
 4174SOL     OW16461   0.579   6.072   3.338  0.2130 -0.4611  0.4693
 4174SOL    HW216462   0.572   6.046   3.247  1.2957 -1.1252  0.5577
 4174SOL    HW316463   0.573   6.168   3.336  1.5999 -0.3676 -0.4556
 4174SOL    MW416464   0.577   6.081   3.326  0.7822  0.0009 -0.4702
 4175SOL     OW16465   2.471   2.438   5.793  0.0672 -0.2546  0.1672
 4175SOL    HW216466   2.414   2.361   5.800  1.1222 -1.0309  0.5655
 4175SOL    HW316467   2.543   2.420   5.853  1.5231 -0.0253 -1.4397
 4175SOL    MW416468   2.473   2.425   5.802  0.1612  0.3550 -0.3021
 4176SOL     OW16469   3.852   5.523   6.112 -0.2478 -0.1142 -0.3207
 4176SOL    HW216470   3.887   5.446   6.067  0.5244  0.1439 -0.1775
 4176SOL    HW316471   3.928   5.580   6.126 -0.5075 -0.0630  1.0591
 4176SOL    MW416472   3.867   5.520   6.108  0.2045 -0.1923  0.5308
 4177SOL     OW16473   2.307   2.996   1.169 -0.4004 -0.1145  0.2902
 4177SOL    HW216474   2.329   3.089   1.163 -1.6758  0.1620 -0.6378
 4177SOL    HW316475   2.211   2.994   1.169 -0.4572 -1.5124 -2.1737
 4177SOL    MW416476   2.297   3.008   1.168  0.2770 -0.1183 -0.3004
 4178SOL     OW16477   1.715   4.036   6.378 -0.4612 -0.3008  0.0447
 4178SOL    HW216478   1.810   4.045   6.365 -0.4848  0.0548  0.1161
 4178SOL    HW316479   1.689   3.966   6.317 -0.5110  1.0441 -1.5295
 4178SOL    MW416480   1.724   4.028   6.369 -0.2361 -0.1283  0.0215
 4179SOL     OW16481   0.353   5.590   6.252  0.4226  0.2777  0.7591
 4179SOL    HW216482   0.313   5.596   6.339 -0.6661  1.3613  0.1964
 4179SOL    HW316483   0.421   5.657   6.252  1.1123 -0.3999  1.1040
 4179SOL    MW416484   0.357   5.599   6.264 -0.4166  0.0831 -0.0449
 4180SOL     OW16485   2.894   4.932   2.360  0.3997 -0.2630 -0.2601
 4180SOL    HW216486   2.881   4.888   2.444  2.0564 -2.9123 -1.2919
 4180SOL    HW316487   2.980   4.904   2.330  2.0144  4.3405 -0.7639
 4180SOL    MW416488   2.904   4.923   2.367 -0.2459  0.2813  0.1159
 4181SOL     OW16489   4.360   0.452   0.694 -0.0656 -0.0866  0.7025
 4181SOL    HW216490   4.268   0.449   0.718 -0.3815 -0.4956 -0.4581
 4181SOL    HW316491   4.392   0.363   0.710 -0.0180 -0.0880  0.6056
 4181SOL    MW416492   4.352   0.440   0.699 -0.3257  0.5588 -0.0536
 4182SOL     OW16493   5.916   0.555   4.550  0.1519 -0.7545  0.0063
 4182SOL    HW216494   5.883   0.468   4.571 -0.8549 -0.0767  1.2991
 4182SOL    HW316495   5.851   0.591   4.490 -0.7916  0.0511  1.4676
 4182SOL    MW416496   5.903   0.548   4.545 -0.1843 -0.4605 -0.4939
 4183SOL     OW16497   5.982   5.640   1.046  0.3051 -0.0842  0.7277
 4183SOL    HW216498   5.942   5.628   0.960  1.1140 -2.4213  0.6161
 4183SOL    HW316499   5.986   5.735   1.057  1.7921  0.3924 -2.6222
 4183SOL    MW416500   5.978   5.651   1.036  0.1586  0.2623 -0.1678
 4184SOL     OW16501   1.925   2.657   4.574 -0.1984 -0.0326 -0.1393
 4184SOL    HW216502   2.004   2.687   4.618 -1.2639  0.5958  1.4275
 4184SOL    HW316503   1.909   2.723   4.506 -1.0842  1.6390  1.5947
 4184SOL    MW416504   1.933   2.670   4.571 -0.0981  0.5125  0.0611
 4185SOL     OW16505   5.433   0.936   0.025  0.3848 -0.1234 -0.0113
 4185SOL    HW216506   5.404   1.027   0.025 -0.2911 -0.3276 -1.1378
 4185SOL    HW316507   5.364   0.888   0.070  1.4936  0.1073  2.0751
 4185SOL    MW416508   5.420   0.942   0.031  0.1323 -0.0326 -0.0898
 4186SOL     OW16509   6.131   3.636   3.571  0.0371 -0.0281 -0.5374
 4186SOL    HW216510   6.138   3.617   3.665 -1.0005  0.3013 -0.3794
 4186SOL    HW316511   6.095   3.556   3.533 -2.0137  0.7122 -0.2423
 4186SOL    MW416512   6.127   3.623   3.579  0.0276  0.2846 -0.2637
 4187SOL     OW16513   6.385   3.157   2.573  0.2807 -0.1310 -0.1832
 4187SOL    HW216514   6.477   3.131   2.585  0.6416  1.0766 -0.1491
 4187SOL    HW316515   6.336   3.076   2.584  1.2078 -0.5262  1.4685
 4187SOL    MW416516   6.391   3.143   2.576  0.3991 -0.2921 -0.1339
 4188SOL     OW16517   0.549   0.716   5.074 -0.1212 -0.0308  0.0984
 4188SOL    HW216518   0.482   0.648   5.064  0.9502 -0.7949 -3.2051
 4188SOL    HW316519   0.499   0.797   5.084 -1.5328 -0.7224 -0.9057
 4188SOL    MW416520   0.533   0.718   5.074  0.2342  0.8848 -0.3115
 4189SOL     OW16521   3.798   1.574   1.778 -0.7937 -0.1350  0.7405
 4189SOL    HW216522   3.742   1.561   1.854 -0.0314 -2.0850  1.0281
 4189SOL    HW316523   3.881   1.532   1.802 -1.3498 -3.2358 -2.1103
 4189SOL    MW416524   3.802   1.567   1.791 -0.6231 -0.2749 -0.0426
 4190SOL     OW16525   3.737   3.823   2.020  0.3908  0.2342  0.5360
 4190SOL    HW216526   3.700   3.735   2.008 -1.2752  1.1309 -1.3751
 4190SOL    HW316527   3.824   3.818   1.980  1.6880 -1.3470  3.2814
 4190SOL    MW416528   3.743   3.811   2.013 -0.0223  0.1312 -0.4639
 4191SOL     OW16529   1.975   0.055   1.513  0.5315  0.4939 -0.2927
 4191SOL    HW216530   2.022   0.048   1.430  0.5689  0.2611 -0.2522
 4191SOL    HW316531   2.036   0.023   1.579 -0.0266 -0.8169 -0.3619
 4191SOL    MW416532   1.989   0.050   1.511 -0.1285 -0.3696 -0.9004
 4192SOL     OW16533   3.034   2.496   5.394 -0.4237  0.1306  0.4542
 4192SOL    HW216534   2.971   2.486   5.322 -0.9841  3.0862  0.3842
 4192SOL    HW316535   3.119   2.497   5.351 -0.7329  1.4931 -0.1869
 4192SOL    MW416536   3.037   2.495   5.379 -0.3887  0.3315  0.1841
 4193SOL     OW16537   1.720   1.369   0.953 -0.0950  0.0240 -0.0290
 4193SOL    HW216538   1.651   1.432   0.973  0.1821  0.4355 -0.3508
 4193SOL    HW316539   1.767   1.358   1.035 -1.0645 -0.9267  0.4313
 4193SOL    MW416540   1.717   1.375   0.967  0.0655  0.1386  0.0344
 4194SOL     OW16541   4.719   1.136   3.231  0.2385  0.0103  0.1479
 4194SOL    HW216542   4.686   1.178   3.151  0.3307 -1.0851 -0.4953
 4194SOL    HW316543   4.800   1.182   3.251 -1.4111  2.5004  1.5400
 4194SOL    MW416544   4.725   1.147   3.223  0.0377 -1.0658 -1.1807
 4195SOL     OW16545   0.055   1.873   4.441 -0.2868  0.0508 -0.6732
 4195SOL    HW216546   0.045   1.967   4.458  2.4851  0.0185  1.8842
 4195SOL    HW316547  -0.011   1.831   4.497  1.9745  0.3900  2.4568
 4195SOL    MW416548   0.045   1.880   4.450  0.2209  0.3597 -0.1579
 4196SOL     OW16549   2.678   1.012   5.687 -0.0709  0.0246 -0.1216
 4196SOL    HW216550   2.635   0.982   5.767 -0.0266  0.5748  0.1143
 4196SOL    HW316551   2.704   0.931   5.642 -1.6287 -0.3219 -0.4370
 4196SOL    MW416552   2.676   0.997   5.692  0.1204  0.2468  0.1803
 4197SOL     OW16553   4.946   4.857   0.055 -0.2174  0.1954 -0.0634
 4197SOL    HW216554   4.974   4.771   0.024  0.2731  1.0230 -2.0377
 4197SOL    HW316555   4.897   4.838   0.135 -0.6841 -1.9718 -0.7924
 4197SOL    MW416556   4.943   4.843   0.061  0.6177  0.0143 -0.0898
 4198SOL     OW16557   4.708   3.732   1.612  0.3462 -0.3091  0.1407
 4198SOL    HW216558   4.721   3.813   1.561  1.9454 -1.0385 -0.6967
 4198SOL    HW316559   4.654   3.677   1.555  1.3477 -0.7625 -0.3983
 4198SOL    MW416560   4.703   3.735   1.598  0.4114  0.3647  0.7844
 4199SOL     OW16561   3.508   4.325   5.553  0.3421 -0.1756 -0.2456
 4199SOL    HW216562   3.521   4.416   5.580 -0.0269  0.7974 -3.0040
 4199SOL    HW316563   3.426   4.326   5.504  0.5522 -1.9095 -0.7005
 4199SOL    MW416564   3.499   4.337   5.550  0.4146 -0.2274 -0.0675
 4200SOL     OW16565   2.550   1.609   4.687 -0.2115  0.0286  0.2377
 4200SOL    HW216566   2.545   1.519   4.719 -1.3726 -0.3075 -0.8096
 4200SOL    HW316567   2.586   1.602   4.599  3.0218  0.9547  1.3573
 4200SOL    MW416568   2.554   1.596   4.680 -0.1542  0.1674  0.3990
 4201SOL     OW16569   6.108   5.054   4.974 -0.3550 -0.4799  0.2943
 4201SOL    HW216570   6.187   5.005   4.952  0.5881  1.0618  0.0724
 4201SOL    HW316571   6.044   4.987   5.001  0.9931 -1.7582  0.4245
 4201SOL    MW416572   6.110   5.039   4.974  0.7447  0.1290  0.5420
 4202SOL     OW16573   3.425   1.948   2.661  0.4115 -0.5136  0.0215
 4202SOL    HW216574   3.374   1.982   2.587  0.3293 -2.2270 -0.7652
 4202SOL    HW316575   3.490   2.016   2.678 -1.3690  1.1995  0.2859
 4202SOL    MW416576   3.427   1.962   2.653  0.2699 -0.7119  0.1770
 4203SOL     OW16577   6.009   1.389   0.371 -0.3018  0.5047  0.1783
 4203SOL    HW216578   6.088   1.382   0.424  0.7189  1.5526 -1.1172
 4203SOL    HW316579   5.937   1.367   0.430  0.9920 -1.1133  1.2302
 4203SOL    MW416580   6.010   1.385   0.386 -0.0331  0.5628  0.3555
 4204SOL     OW16581   4.388   3.884   0.350  0.3657  0.0806  0.3586
 4204SOL    HW216582   4.379   3.802   0.302  1.3239  0.6623 -0.8911
 4204SOL    HW316583   4.304   3.896   0.394 -0.2733 -0.8891 -0.5615
 4204SOL    MW416584   4.375   3.875   0.349 -0.0805  0.5450 -0.6395
 4205SOL     OW16585   4.359   3.973   2.556  0.2044  0.4525 -0.0520
 4205SOL    HW216586   4.359   3.941   2.466  0.1822  1.0628 -0.2749
 4205SOL    HW316587   4.329   3.899   2.609  0.9481 -0.1451 -0.4602
 4205SOL    MW416588   4.355   3.959   2.551 -0.0360 -0.5983 -1.0494
 4206SOL     OW16589   3.655   3.108   5.671  0.5618 -0.1443  0.2739
 4206SOL    HW216590   3.678   3.027   5.626 -1.6215 -0.8115  0.2608
 4206SOL    HW316591   3.602   3.081   5.746  0.8255  1.1999  0.9902
 4206SOL    MW416592   3.651   3.094   5.675 -0.2244 -0.0396 -0.5634
 4207SOL     OW16593   0.558   4.348   3.589  0.1870  0.0885 -0.0059
 4207SOL    HW216594   0.614   4.319   3.660 -1.2845 -0.6446  0.9235
 4207SOL    HW316595   0.616   4.355   3.513  2.3076  3.1918  1.6795
 4207SOL    MW416596   0.573   4.345   3.588  0.0249 -0.3444 -0.3831
 4208SOL     OW16597   5.034   4.048   5.604 -0.1389  0.5565 -0.2341
 4208SOL    HW216598   4.972   4.021   5.536 -2.6966  0.6182  1.9151
 4208SOL    HW316599   5.040   3.972   5.662  0.1719  1.2976  0.7174
 4208SOL    MW416600   5.026   4.034   5.603 -0.0824  0.2575 -0.2738
 4209SOL     OW16601   2.623   4.860   3.053  0.8664 -0.3939 -0.4850
 4209SOL    HW216602   2.688   4.876   3.122  1.8677 -0.0165 -1.4869
 4209SOL    HW316603   2.560   4.801   3.093  1.6193 -0.4585  0.6498
 4209SOL    MW416604   2.623   4.855   3.067  0.5044 -0.0020 -0.2095
 4210SOL     OW16605   5.878   2.094   1.379 -0.1158 -0.4119  0.2790
 4210SOL    HW216606   5.935   2.170   1.375 -1.9963  1.0348 -3.1565
 4210SOL    HW316607   5.936   2.019   1.364  1.1805  0.7968 -1.0064
 4210SOL    MW416608   5.893   2.094   1.376 -0.1442 -0.2172  0.4734
 4211SOL     OW16609   0.653   4.932   6.194 -0.3994 -0.3971  0.2251
 4211SOL    HW216610   0.606   4.908   6.274 -0.4576 -0.2433  0.2369
 4211SOL    HW316611   0.744   4.946   6.223 -0.1000 -1.7794  0.0155
 4211SOL    MW416612   0.659   4.931   6.208 -0.2999  0.2858 -0.6522
 4212SOL     OW16613   4.566   1.394   2.225 -0.4157  0.2683  0.0929
 4212SOL    HW216614   4.560   1.299   2.228 -0.0328  0.2675  1.0115
 4212SOL    HW316615   4.584   1.414   2.133  0.7320 -0.6181  0.1062
 4212SOL    MW416616   4.568   1.384   2.213 -0.5945  0.4476  0.2851
 4213SOL     OW16617   5.013   1.113   5.659 -0.1001  0.0511 -0.5079
 4213SOL    HW216618   5.080   1.137   5.596  0.5047  1.4386  0.6137
 4213SOL    HW316619   5.058   1.111   5.743 -0.8214 -2.0319 -0.0969
 4213SOL    MW416620   5.028   1.116   5.662 -0.0097 -0.8261 -0.2020
 4214SOL     OW16621   2.364   4.212   2.324  0.2877 -0.2544 -0.0891
 4214SOL    HW216622   2.294   4.170   2.375 -0.5864  1.1024 -0.1294
 4214SOL    HW316623   2.407   4.270   2.386  0.5759 -0.1605 -0.3767
 4214SOL    MW416624   2.360   4.214   2.339  0.8968 -0.0584  0.1329
 4215SOL     OW16625   0.757   5.731   4.802  0.3002 -0.3824 -0.0509
 4215SOL    HW216626   0.818   5.665   4.836 -0.6813 -1.5062 -0.4155
 4215SOL    HW316627   0.812   5.808   4.786  1.2907 -0.7640  1.3445
 4215SOL    MW416628   0.773   5.733   4.804 -0.2646 -0.4836 -0.1329
 4216SOL     OW16629   1.382   1.715   0.281 -0.1052 -0.6309  0.2814
 4216SOL    HW216630   1.423   1.629   0.294 -1.6812 -2.0660 -3.0209
 4216SOL    HW316631   1.430   1.754   0.208  0.7460  1.5098  1.8985
 4216SOL    MW416632   1.394   1.709   0.273 -0.4737  0.2536 -0.2075
 4217SOL     OW16633   4.094   0.228   0.056  0.6993  0.6304 -0.1018
 4217SOL    HW216634   4.141   0.153   0.019  1.5683  0.8327  0.5576
 4217SOL    HW316635   4.013   0.191   0.092  0.8430  0.1041 -0.3135
 4217SOL    MW416636   4.090   0.213   0.056  0.0998  0.8171  0.1267
 4218SOL     OW16637   6.401   6.133   2.738  0.3089  0.0271  0.4604
 4218SOL    HW216638   6.424   6.212   2.690  0.9965 -0.3338  0.1855
 4218SOL    HW316639   6.459   6.134   2.814 -0.7800  0.6026  1.3150
 4218SOL    MW416640   6.412   6.144   2.742 -0.0590 -0.3154  0.5816
 4219SOL     OW16641   2.585   5.631   2.916 -0.6367 -0.5056  0.5827
 4219SOL    HW216642   2.677   5.650   2.899 -0.7946 -0.8491 -0.7751
 4219SOL    HW316643   2.581   5.535   2.921 -0.9499 -0.5054  0.3897
 4219SOL    MW416644   2.597   5.621   2.914  0.3934 -0.0605  0.1567
 4220SOL     OW16645   4.052   5.078   2.756  0.4950 -0.1643 -0.1789
 4220SOL    HW216646   3.969   5.059   2.800  0.8112 -3.1479 -0.6928
 4220SOL    HW316647   4.028   5.099   2.666  0.2700 -0.4230 -0.1776
 4220SOL    MW416648   4.038   5.078   2.750  0.3513 -0.0551  0.4944
 4221SOL     OW16649   2.874   5.046   4.815 -0.2446  0.3157 -0.1929
 4221SOL    HW216650   2.889   5.029   4.908  0.5107  0.9379 -0.1903
 4221SOL    HW316651   2.961   5.046   4.776 -0.3775  1.8577 -0.5762
 4221SOL    MW416652   2.887   5.044   4.822  0.2235  0.5532 -1.0853
 4222SOL     OW16653   3.667   6.240   5.781 -0.1797  0.3514 -0.1689
 4222SOL    HW216654   3.720   6.205   5.853  1.2652  0.0877 -1.3150
 4222SOL    HW316655   3.605   6.171   5.760  0.2608 -0.0845 -0.0391
 4222SOL    MW416656   3.666   6.226   5.788  0.2254  0.9554  0.0057
 4223SOL     OW16657   2.978   4.326   5.548 -0.1592  0.1382 -0.0883
 4223SOL    HW216658   3.061   4.314   5.593  0.5971 -1.4406 -1.7875
 4223SOL    HW316659   2.926   4.379   5.608  1.9899  1.0296  1.0986
 4223SOL    MW416660   2.982   4.331   5.561 -0.4641 -0.0457 -0.1713
 4224SOL     OW16661   3.695   0.622   6.044 -0.2044 -0.0804  0.2640
 4224SOL    HW216662   3.627   0.687   6.025  0.7181  0.5969 -0.9062
 4224SOL    HW316663   3.762   0.671   6.092  0.3699 -0.2256 -0.3736
 4224SOL    MW416664   3.695   0.637   6.048 -0.2874 -0.1839  0.7670
 4225SOL     OW16665   4.753   0.238   1.185  0.0099  0.0827  0.4304
 4225SOL    HW216666   4.746   0.212   1.277 -1.9483 -0.0275  0.2957
 4225SOL    HW316667   4.817   0.178   1.148 -0.8655 -1.4024  1.2281
 4225SOL    MW416668   4.760   0.227   1.192  0.9778  0.0121 -0.3635
 4226SOL     OW16669   1.745   3.339   4.417 -0.1672  0.3203 -1.0193
 4226SOL    HW216670   1.826   3.296   4.390 -0.2181 -0.2767 -0.2472
 4226SOL    HW316671   1.695   3.271   4.461  0.0862  1.3168  0.9537
 4226SOL    MW416672   1.749   3.325   4.419  0.4569 -0.1970 -0.0490
 4227SOL     OW16673   3.529   0.162   1.037 -0.2228 -0.4909 -0.2750
 4227SOL    HW216674   3.574   0.095   1.089  1.2362  2.2759  2.3287
 4227SOL    HW316675   3.445   0.173   1.080  0.0044  0.1066  0.0277
 4227SOL    MW416676   3.524   0.155   1.049  0.3030  0.8263  0.4268
 4228SOL     OW16677   2.617   5.761   2.105  0.5901 -0.3441 -0.4136
 4228SOL    HW216678   2.574   5.739   2.022  0.8975  0.4746 -0.8060
 4228SOL    HW316679   2.653   5.849   2.090  0.0520  0.1046  0.8124
 4228SOL    MW416680   2.616   5.770   2.092  0.4220 -0.3462 -0.0017
 4229SOL     OW16681   5.193   0.080   1.353  0.0994 -0.2819  0.5021
 4229SOL    HW216682   5.274   0.071   1.403  0.4096 -1.0208 -0.1038
 4229SOL    HW316683   5.210   0.032   1.272 -0.9716 -0.5075  0.3966
 4229SOL    MW416684   5.206   0.072   1.349 -0.3869 -0.2264 -0.5961
 4230SOL     OW16685   2.686   6.184   0.808  0.3869  0.4127 -0.0923
 4230SOL    HW216686   2.679   6.279   0.800  1.1726  0.3995 -1.1635
 4230SOL    HW316687   2.632   6.149   0.737  0.9869  0.1013 -0.4117
 4230SOL    MW416688   2.678   6.192   0.797  0.2771  0.0667 -0.6831
 4231SOL     OW16689   5.237   2.798   4.124 -0.6307 -0.4434  0.5567
 4231SOL    HW216690   5.302   2.867   4.112  1.6308 -2.5213  0.0079
 4231SOL    HW316691   5.223   2.794   4.219 -1.7653  1.5003  0.5315
 4231SOL    MW416692   5.244   2.807   4.135  0.5415  0.5384  0.2479
 4232SOL     OW16693   3.168   5.132   6.075  0.0653  0.1195  0.5412
 4232SOL    HW216694   3.176   5.210   6.019  1.3609  0.3763  1.0497
 4232SOL    HW316695   3.102   5.078   6.031 -0.0525  1.0040 -0.4148
 4232SOL    MW416696   3.160   5.135   6.062 -0.1969 -0.5518  0.2123
 4233SOL     OW16697   5.215   4.442   3.477 -0.2371 -0.1141 -0.0910
 4233SOL    HW216698   5.238   4.480   3.393 -0.8416  0.3436 -0.0570
 4233SOL    HW316699   5.277   4.370   3.489  1.2961  1.1721  0.0909
 4233SOL    MW416700   5.226   4.438   3.468  0.0939  0.3209  0.5941
 4234SOL     OW16701   4.302   0.909   2.644 -0.5366  0.5499  0.3520
 4234SOL    HW216702   4.321   1.000   2.666  0.8220  1.1774 -2.8836
 4234SOL    HW316703   4.248   0.914   2.565 -2.1533 -1.4844  1.2221
 4234SOL    MW416704   4.297   0.921   2.636 -0.4221  0.5261  0.1440
 4235SOL     OW16705   4.002   5.457   3.733  0.0661  0.3148 -0.2530
 4235SOL    HW216706   3.939   5.461   3.805 -1.2379 -1.2766 -1.2415
 4235SOL    HW316707   3.976   5.527   3.674  0.9990  1.4762  0.6445
 4235SOL    MW416708   3.990   5.467   3.735  0.1554 -0.5228  0.2960
 4236SOL     OW16709   0.650   6.201  -0.003 -0.6982 -1.0452  0.1918
 4236SOL    HW216710   0.733   6.175   0.038 -0.4994  1.0178  1.2378
 4236SOL    HW316711   0.589   6.131   0.020  0.2233 -1.5283  1.3047
 4236SOL    MW416712   0.653   6.189   0.006 -0.4672  0.0090  0.0174
 4237SOL     OW16713   0.910   0.234   0.494 -0.4194 -0.0687  0.4538
 4237SOL    HW216714   0.961   0.293   0.438  1.1575 -0.6427  1.2405
 4237SOL    HW316715   0.819   0.259   0.477  0.1524  2.8535  0.9903
 4237SOL    MW416716   0.904   0.245   0.484  0.1112 -0.7850  0.0550
 4238SOL     OW16717   3.485   0.396   3.337  0.4655 -0.0204 -0.5550
 4238SOL    HW216718   3.576   0.403   3.308  1.2830  0.7932  1.9689
 4238SOL    HW316719   3.445   0.335   3.275  3.6354 -3.3239  0.2892
 4238SOL    MW416720   3.492   0.389   3.325  0.2110 -0.8409 -1.1588
 4239SOL     OW16721   5.900   5.136   3.977  0.2319  0.1755 -0.0567
 4239SOL    HW216722   5.850   5.106   4.053  0.9129 -1.6764 -0.2995
 4239SOL    HW316723   5.844   5.203   3.937 -1.6698 -1.1930  0.1892
 4239SOL    MW416724   5.886   5.141   3.982  0.6456 -0.3553  0.1549
 4240SOL     OW16725   1.995   1.696   2.743 -0.4775  0.6791  0.1849
 4240SOL    HW216726   2.053   1.630   2.706 -1.4257 -0.5561  0.8331
 4240SOL    HW316727   1.999   1.769   2.682 -0.1484 -0.3557 -1.0620
 4240SOL    MW416728   2.003   1.697   2.730 -0.1982  0.6711 -0.2604
 4241SOL     OW16729   2.858   0.061   3.148 -0.2261  0.1268 -0.3117
 4241SOL    HW216730   2.850   0.149   3.111  0.9297  1.9792  3.3611
 4241SOL    HW316731   2.841   0.073   3.241 -1.8903 -3.9706  0.1073
 4241SOL    MW416732   2.855   0.075   3.155 -0.2631  0.4518 -0.2469
 4242SOL     OW16733   4.031   5.088   3.163 -0.5761  0.3954 -0.0439
 4242SOL    HW216734   4.034   5.184   3.162  0.7682  0.3613 -0.1707
 4242SOL    HW316735   4.042   5.063   3.072 -1.9195  0.1124 -0.1598
 4242SOL    MW416736   4.033   5.098   3.151  0.3695  0.0447  0.3708
 4243SOL     OW16737   4.244   5.607   5.078  0.3125 -0.6567 -0.3232
 4243SOL    HW216738   4.202   5.522   5.065  0.3012 -0.4476 -1.8400
 4243SOL    HW316739   4.172   5.668   5.093  0.2253 -0.6783 -0.6523
 4243SOL    MW416740   4.229   5.604   5.078 -0.6495  0.2185  0.2545
 4244SOL     OW16741   5.365   4.958   4.558 -0.0784  0.2913  0.2230
 4244SOL    HW216742   5.291   4.908   4.525 -1.1362  0.8593  1.6134
 4244SOL    HW316743   5.376   5.029   4.494  1.4142 -1.5491 -1.7408
 4244SOL    MW416744   5.357   4.961   4.545 -0.0850  0.3210 -0.8415
 4245SOL     OW16745   0.313   0.188   2.167 -0.0374  0.6097  0.4183
 4245SOL    HW216746   0.299   0.279   2.194 -2.3032  0.7765 -1.1010
 4245SOL    HW316747   0.245   0.138   2.212  1.4491 -0.4739  1.5822
 4245SOL    MW416748   0.302   0.193   2.176 -0.2238  0.6476  0.2590
 4246SOL     OW16749   2.667   5.473   1.567  0.2151  0.3900  0.1524
 4246SOL    HW216750   2.640   5.439   1.652 -0.2023 -0.8802 -0.4568
 4246SOL    HW316751   2.747   5.424   1.545 -0.1152  0.1315 -0.5200
 4246SOL    MW416752   2.674   5.462   1.575  0.1539  0.5117 -0.2924
 4247SOL     OW16753   1.004   4.652   1.142 -0.0368  0.2589  0.1925
 4247SOL    HW216754   1.075   4.705   1.109 -0.5999  0.2010 -1.1614
 4247SOL    HW316755   0.947   4.714   1.187  1.2885  0.1740  2.1111
 4247SOL    MW416756   1.006   4.667   1.144  0.3474 -0.1650 -0.1711
 4248SOL     OW16757   1.938   4.027   5.421  0.2766  0.1550  0.8508
 4248SOL    HW216758   1.854   4.009   5.378  0.0651  0.5202  1.1048
 4248SOL    HW316759   1.997   3.959   5.389  0.2228  0.6392 -0.2919
 4248SOL    MW416760   1.934   4.016   5.411 -0.1194  0.3720  0.1450
 4249SOL     OW16761   4.490   1.646   1.351 -1.2853 -0.2835 -0.3290
 4249SOL    HW216762   4.534   1.730   1.353 -1.8766  0.0200  0.8734
 4249SOL    HW316763   4.551   1.587   1.305 -1.1604  0.9363 -1.7962
 4249SOL    MW416764   4.504   1.649   1.345 -0.8290 -0.2478 -0.4192
 4250SOL     OW16765   5.143   3.200   2.133 -0.3093 -0.1343 -0.1341
 4250SOL    HW216766   5.098   3.283   2.122 -0.2166 -0.2422 -1.4685
 4250SOL    HW316767   5.073   3.136   2.146 -0.6280 -0.3449 -2.4788
 4250SOL    MW416768   5.128   3.202   2.133 -0.2618  0.1007  0.5901
 4251SOL     OW16769   0.469   2.228   0.901  0.4444 -0.5523  0.2458
 4251SOL    HW216770   0.485   2.274   0.819 -0.5262 -0.1451  0.2699
 4251SOL    HW316771   0.448   2.139   0.875 -0.4409 -0.2819 -0.0038
 4251SOL    MW416772   0.469   2.223   0.887  0.0531  0.1807  0.6777
 4252SOL     OW16773   4.946   4.055   6.288  0.0167  0.1121  0.1146
 4252SOL    HW216774   4.907   4.067   6.375  1.1147  0.2957  0.6013
 4252SOL    HW316775   4.961   3.961   6.281 -0.6466  0.0176 -0.1480
 4252SOL    MW416776   4.943   4.044   6.299  0.3233 -0.5611  0.6418
 4253SOL     OW16777   0.743   0.437   0.999  0.0842 -0.2258 -0.4765
 4253SOL    HW216778   0.783   0.428   0.912  1.8459  2.4596 -0.0662
 4253SOL    HW316779   0.675   0.503   0.987  0.1781 -0.0154  0.1292
 4253SOL    MW416780   0.740   0.444   0.986  0.0476  0.6511 -0.4754
 4254SOL     OW16781   0.655   2.934   0.862 -0.6442 -0.2190 -0.3767
 4254SOL    HW216782   0.562   2.952   0.874 -0.2135  2.1396 -0.0888
 4254SOL    HW316783   0.676   2.971   0.776  0.5482  1.8520  0.7319
 4254SOL    MW416784   0.646   2.941   0.852  0.5666 -0.3950  0.0217
 4255SOL     OW16785   1.400   0.602   4.262  0.0405 -0.2103 -0.2869
 4255SOL    HW216786   1.402   0.686   4.217 -2.1599 -0.2947 -0.6789
 4255SOL    HW316787   1.398   0.624   4.355 -2.1880  0.3179 -0.4031
 4255SOL    MW416788   1.400   0.616   4.269  0.6112  0.2195 -0.2741
 4256SOL     OW16789   1.167   5.598   5.993 -0.0559  0.1083 -0.4275
 4256SOL    HW216790   1.097   5.541   5.962 -0.2097  0.0320  0.0582
 4256SOL    HW316791   1.223   5.542   6.046 -0.3468  0.4541  0.2635
 4256SOL    MW416792   1.166   5.583   5.996 -0.1186 -0.5166  0.2844
 4257SOL     OW16793   2.182   5.898   5.523  0.2893 -0.0327  0.1480
 4257SOL    HW216794   2.237   5.952   5.579 -0.4533  0.7861  0.1042
 4257SOL    HW316795   2.105   5.952   5.506 -0.6457 -1.2526  0.4144
 4257SOL    MW416796   2.179   5.912   5.528  0.5653  0.3542  0.5288
 4258SOL     OW16797   0.687   0.349   2.571  0.4597 -0.1957 -0.3852
 4258SOL    HW216798   0.759   0.398   2.609  0.3721 -0.1012 -0.3412
 4258SOL    HW316799   0.724   0.307   2.493  0.1992  0.9990 -1.1698
 4258SOL    MW416800   0.701   0.350   2.566  0.4447  0.5405  0.6372
 4259SOL     OW16801   2.048   6.101   1.713 -0.0676  0.0427 -0.4020
 4259SOL    HW216802   1.996   6.151   1.650 -0.4399  0.6761  0.3834
 4259SOL    HW316803   2.054   6.159   1.789  0.6844 -0.5590  0.0020
 4259SOL    MW416804   2.042   6.116   1.715  0.2156 -0.2592 -0.4079
 4260SOL     OW16805   5.528   3.712   6.245 -0.2762  0.0343  0.9256
 4260SOL    HW216806   5.547   3.792   6.294 -0.1471 -1.3200  3.2632
 4260SOL    HW316807   5.467   3.663   6.302 -0.9412 -1.2105 -0.7543
 4260SOL    MW416808   5.522   3.716   6.259 -0.0099 -0.0121  0.5288
 4261SOL     OW16809   1.164   2.629   0.744  0.1848 -0.0929 -0.2837
 4261SOL    HW216810   1.124   2.713   0.720 -0.9832 -0.2630  0.9557
 4261SOL    HW316811   1.101   2.563   0.716  0.2746 -0.4496  0.3333
 4261SOL    MW416812   1.150   2.631   0.737  0.2824 -0.7973 -0.5958
 4262SOL     OW16813   4.026   1.179   1.281 -0.3380  0.1109 -0.0829
 4262SOL    HW216814   3.946   1.133   1.308 -0.7992  0.4772 -0.7830
 4262SOL    HW316815   4.010   1.270   1.303 -0.0201  0.1557 -0.0293
 4262SOL    MW416816   4.013   1.185   1.287 -0.0028 -0.1201  0.1184
 4263SOL     OW16817   2.248   5.047   0.384  0.0197  0.2138  0.3964
 4263SOL    HW216818   2.212   4.988   0.450 -0.4672 -0.3966 -0.3875
 4263SOL    HW316819   2.179   5.111   0.368  0.0608  0.2480  0.3566
 4263SOL    MW416820   2.234   5.047   0.390  0.3124  0.2938 -0.2266
 4264SOL     OW16821   3.670   4.673   2.531 -0.0865 -0.0558  0.1917
 4264SOL    HW216822   3.574   4.673   2.538 -0.0854  0.7162  0.3032
 4264SOL    HW316823   3.694   4.581   2.539 -0.7357 -0.1463  1.4551
 4264SOL    MW416824   3.660   4.661   2.533 -0.5997  0.5805 -0.3095
 4265SOL     OW16825   5.678   3.481   2.907  0.1136 -0.5856 -0.1889
 4265SOL    HW216826   5.756   3.434   2.876 -0.0814 -1.6278  0.8422
 4265SOL    HW316827   5.713   3.556   2.954  0.4466 -0.0426 -1.2691
 4265SOL    MW416828   5.693   3.484   2.909 -0.2288  0.8819 -0.6396
 4266SOL     OW16829   0.258   3.032   1.596 -0.3693  0.3081  0.0877
 4266SOL    HW216830   0.343   2.996   1.570  0.9818  1.6779  2.3143
 4266SOL    HW316831   0.208   3.036   1.514  2.1580  0.6001 -1.5566
 4266SOL    MW416832   0.263   3.028   1.582  0.0497 -0.4848  0.2779
 4267SOL     OW16833   5.215   0.382   0.438  0.2740 -0.5685  0.1436
 4267SOL    HW216834   5.309   0.395   0.427 -0.1046  1.4911 -0.9912
 4267SOL    HW316835   5.183   0.359   0.351 -0.5384  0.7001  0.0835
 4267SOL    MW416836   5.223   0.381   0.425 -0.6359  0.2451  0.0175
 4268SOL     OW16837   2.291   4.702   5.794 -0.1218  0.5296 -0.9753
 4268SOL    HW216838   2.354   4.629   5.794 -0.6424  0.0772 -0.8959
 4268SOL    HW316839   2.259   4.706   5.704  1.1035  1.7258 -1.4063
 4268SOL    MW416840   2.295   4.693   5.782  0.6247  1.0717  0.5505
 4269SOL     OW16841   1.382   6.363   5.059  0.7270 -0.3207  0.1289
 4269SOL    HW216842   1.389   6.316   5.142 -0.6364  0.5379  0.7534
 4269SOL    HW316843   1.339   6.445   5.080  0.0652 -0.2067 -1.4825
 4269SOL    MW416844   1.377   6.368   5.072 -0.6413 -0.1850  0.2422
 4270SOL     OW16845   5.730   4.549   6.382  0.3588  0.3570  0.2328
 4270SOL    HW216846   5.749   4.599   6.462 -0.8575 -0.5462  1.1249
 4270SOL    HW316847   5.748   4.458   6.405 -0.8864 -0.0252 -0.2031
 4270SOL    MW416848   5.735   4.544   6.396 -0.7706  0.6664 -0.3848
 4271SOL     OW16849   0.730   5.604   3.333  0.2488 -0.0121 -0.4557
 4271SOL    HW216850   0.733   5.666   3.406  1.5761  0.9602 -1.2928
 4271SOL    HW316851   0.710   5.520   3.374  0.7562  0.5521  1.0102
 4271SOL    MW416852   0.728   5.601   3.348  0.3631  0.0441 -0.0108
 4272SOL     OW16853   5.246   5.554   2.705 -0.1529 -0.2844 -0.2941
 4272SOL    HW216854   5.158   5.517   2.709 -0.0386 -0.4468  1.2195
 4272SOL    HW316855   5.234   5.642   2.670 -0.9233 -0.2638  0.0223
 4272SOL    MW416856   5.233   5.560   2.701 -0.2785  0.2629 -0.4385
 4273SOL     OW16857   1.336   0.710   1.189  0.4786 -0.5596 -0.7389
 4273SOL    HW216858   1.380   0.779   1.238  2.0187 -1.6147 -0.5589
 4273SOL    HW316859   1.311   0.646   1.255  0.1227 -0.7336 -1.0399
 4273SOL    MW416860   1.338   0.711   1.204 -0.3987  0.3547 -0.0214
 4274SOL     OW16861   2.277   0.757   1.427  0.4648 -0.2735  0.1470
 4274SOL    HW216862   2.197   0.730   1.473  0.5485  0.8236  0.9656
 4274SOL    HW316863   2.263   0.849   1.405  1.3084 -0.2006 -0.1400
 4274SOL    MW416864   2.265   0.765   1.430 -0.0927  0.2642  0.2566
 4275SOL     OW16865   1.015   0.687   2.504 -0.2348  0.3108 -0.0766
 4275SOL    HW216866   1.043   0.771   2.468  2.0464  0.1206  1.0665
 4275SOL    HW316867   1.078   0.669   2.574 -2.0529 -1.2604  1.2706
 4275SOL    MW416868   1.027   0.696   2.509 -0.7280  0.6281 -0.4599
 4276SOL     OW16869   5.982   2.485   3.015  0.0384  0.7264  0.4924
 4276SOL    HW216870   5.914   2.542   2.979 -0.7390  0.5677  1.6513
 4276SOL    HW316871   5.993   2.416   2.950  0.5243  1.8214 -0.6310
 4276SOL    MW416872   5.975   2.484   3.002  0.3119  0.4767 -0.6448
 4277SOL     OW16873   4.004   0.477   0.115 -0.4311 -0.2066 -0.3331
 4277SOL    HW216874   3.915   0.472   0.148 -0.1363 -0.0223  0.5116
 4277SOL    HW316875   4.028   0.386   0.096  0.9153 -1.0269  4.1872
 4277SOL    MW416876   3.996   0.464   0.117  0.3013  0.0917  0.0414
 4278SOL     OW16877   1.006   4.096   6.402  0.2540 -0.2656 -0.0823
 4278SOL    HW216878   0.954   4.154   6.346 -1.0122 -0.7735  0.5324
 4278SOL    HW316879   0.980   4.119   6.491  0.7208 -0.8763  0.2195
 4278SOL    MW416880   0.996   4.106   6.407 -0.0911  0.0941 -0.1190
 4279SOL     OW16881   4.904   0.221   0.536 -0.8128  0.0167  0.0004
 4279SOL    HW216882   4.889   0.275   0.458 -0.3096 -0.3217 -0.3417
 4279SOL    HW316883   4.992   0.245   0.565 -0.1809 -1.2874 -0.7249
 4279SOL    MW416884   4.914   0.231   0.529 -0.5305 -0.1605  0.3991
 4280SOL     OW16885   3.657   0.387   3.645 -0.1874  0.3598  0.0385
 4280SOL    HW216886   3.636   0.425   3.559 -0.3025 -0.0601 -0.1203
 4280SOL    HW316887   3.634   0.456   3.707 -0.8626  0.3717 -0.2179
 4280SOL    MW416888   3.651   0.401   3.642  0.8562  0.3402 -0.6585
 4281SOL     OW16889   6.287   2.447   2.828  0.1507  0.0341 -0.2511
 4281SOL    HW216890   6.372   2.403   2.826  0.2702  0.2527 -0.0732
 4281SOL    HW316891   6.263   2.456   2.735 -0.0601 -0.7478 -0.2784
 4281SOL    MW416892   6.295   2.443   2.815 -0.2201 -0.1361  0.5914
 4282SOL     OW16893   6.292   4.646   1.347  0.0894  0.5354 -0.2003
 4282SOL    HW216894   6.364   4.583   1.344  0.1544  0.6329 -0.7124
 4282SOL    HW316895   6.323   4.715   1.406 -0.0974 -0.0396  0.5974
 4282SOL    MW416896   6.305   4.647   1.354  0.3373  0.0070  0.1158
 4283SOL     OW16897   1.699   5.102   4.237  0.0531 -0.0776  0.8396
 4283SOL    HW216898   1.675   5.056   4.157  0.7454 -0.4990  0.8685
 4283SOL    HW316899   1.794   5.106   4.235  0.0012  1.6801  0.6671
 4283SOL    MW416900   1.708   5.096   4.226 -0.3842 -0.6708  0.0380
 4284SOL     OW16901   2.393   6.184   5.949  0.0023  0.1862 -0.0332
 4284SOL    HW216902   2.368   6.266   5.992 -0.4464  0.3077 -0.5113
 4284SOL    HW316903   2.488   6.181   5.957  0.1491  1.3281 -1.0027
 4284SOL    MW416904   2.402   6.195   5.955  0.0236  0.4530  0.1660
 4285SOL     OW16905   1.061   4.035   4.213  0.2989  0.4441  0.3845
 4285SOL    HW216906   1.088   3.963   4.157  0.5061 -1.2678  2.5788
 4285SOL    HW316907   1.141   4.086   4.227  0.6914 -0.2395  0.6736
 4285SOL    MW416908   1.075   4.033   4.207  0.1813  0.1832  0.0488
 4286SOL     OW16909   1.659   1.167   5.850  0.2133  0.5663 -0.0491
 4286SOL    HW216910   1.657   1.180   5.945  0.5447 -0.2986  0.0804
 4286SOL    HW316911   1.577   1.122   5.830  0.3442  0.3526 -0.1102
 4286SOL    MW416912   1.648   1.163   5.860 -0.2954 -0.3244 -0.2321
 4287SOL     OW16913   2.093   0.113   1.234 -0.2523  0.2377 -0.3745
 4287SOL    HW216914   2.179   0.070   1.237  0.2923  1.3570  0.5839
 4287SOL    HW316915   2.112   0.206   1.245 -1.6288  0.4550  0.3527
 4287SOL    MW416916   2.107   0.119   1.236  0.1126 -0.1119  0.1263
 4288SOL     OW16917   1.267   4.027   4.569 -0.0382 -0.4005  0.4210
 4288SOL    HW216918   1.198   3.994   4.626 -0.2622 -1.1567 -0.2687
 4288SOL    HW316919   1.293   3.952   4.516  1.2510 -0.1039  0.5931
 4288SOL    MW416920   1.262   4.013   4.570  0.1859  0.2094  0.0952
 4289SOL     OW16921   4.175   5.258   1.628 -0.3140  0.2275  0.0353
 4289SOL    HW216922   4.079   5.264   1.628 -0.3342  0.1730 -0.9897
 4289SOL    HW316923   4.204   5.349   1.628 -0.2680  0.3490  3.7880
 4289SOL    MW416924   4.166   5.271   1.628  0.1007 -0.1664 -0.5383
 4290SOL     OW16925   3.504   1.685   4.108 -0.0816 -0.1573 -0.4368
 4290SOL    HW216926   3.557   1.729   4.041 -0.1567 -0.4871 -0.7159
 4290SOL    HW316927   3.553   1.698   4.190 -0.5961  1.3018 -0.3288
 4290SOL    MW416928   3.517   1.692   4.110 -0.2034 -0.4906 -0.0652
 4291SOL     OW16929   1.025   2.354   1.793  0.3298  0.1752  0.0484
 4291SOL    HW216930   1.036   2.399   1.709  0.4662  0.3536  0.1625
 4291SOL    HW316931   0.973   2.277   1.771 -0.2931  0.6248 -0.0697
 4291SOL    MW416932   1.020   2.349   1.779  0.0061  0.4775  0.7303
 4292SOL     OW16933   5.631   5.888   4.800  0.3115  0.1319  0.7578
 4292SOL    HW216934   5.683   5.863   4.724 -1.3531 -0.8185 -0.1234
 4292SOL    HW316935   5.678   5.963   4.837  0.2249  1.8882 -2.3282
 4292SOL    MW416936   5.644   5.895   4.795  0.5501 -0.2270  0.4788
 4293SOL     OW16937   3.605   3.906   4.107  0.2471 -0.4245  0.2567
 4293SOL    HW216938   3.614   4.001   4.097 -0.8912 -0.2711  0.5095
 4293SOL    HW316939   3.673   3.882   4.170  0.8733  0.1400 -0.1895
 4293SOL    MW416940   3.615   3.915   4.114  0.1998  0.2457  0.0444
 4294SOL     OW16941   1.173   5.624   1.921 -0.5021  0.5815 -0.1758
 4294SOL    HW216942   1.128   5.558   1.869  0.8978 -0.5028 -0.0821
 4294SOL    HW316943   1.143   5.607   2.011 -0.2580  0.1549 -0.1711
 4294SOL    MW416944   1.163   5.613   1.926  0.1116  0.6578 -0.1121
 4295SOL     OW16945   4.591   2.544   5.038 -0.3334 -0.6463  0.2993
 4295SOL    HW216946   4.551   2.469   4.994 -0.0504 -1.0339  0.7079
 4295SOL    HW316947   4.577   2.617   4.976  0.7490 -1.3437 -0.8065
 4295SOL    MW416948   4.584   2.544   5.024  0.3835 -0.1233  0.1999
 4296SOL     OW16949   3.592   1.765   5.563 -0.2499  0.1409 -0.1976
 4296SOL    HW216950   3.625   1.675   5.559 -0.5150  0.0642 -0.8653
 4296SOL    HW316951   3.538   1.767   5.642 -1.0499 -0.5809 -0.7025
 4296SOL    MW416952   3.589   1.753   5.573  0.3845 -0.5400 -0.0053
 4297SOL     OW16953   4.093   1.363   5.746 -0.2609  0.9862 -0.1675
 4297SOL    HW216954   4.115   1.379   5.838  0.7073 -0.8182 -0.0464
 4297SOL    HW316955   4.093   1.450   5.706 -1.3403  1.8864  1.6433
 4297SOL    MW416956   4.096   1.377   5.753 -0.4905 -0.1945  0.1869
 4298SOL     OW16957   0.601   2.830   2.445 -0.7901 -0.3024  0.4356
 4298SOL    HW216958   0.529   2.781   2.404 -2.1304  0.4399  1.7797
 4298SOL    HW316959   0.594   2.918   2.408  1.1381 -0.8337 -1.4011
 4298SOL    MW416960   0.590   2.835   2.435  0.3482 -0.3931 -0.2109
 4299SOL     OW16961   0.812   3.031   2.943 -0.2408 -0.1897 -0.0503
 4299SOL    HW216962   0.857   3.111   2.971 -0.7784  0.0578  0.1259
 4299SOL    HW316963   0.737   3.024   3.003  0.4932 -1.5078  0.7458
 4299SOL    MW416964   0.808   3.041   2.954 -0.6945 -0.1444  0.0879
 4300SOL     OW16965   3.824   6.177   2.304 -0.3344  0.0557  0.6334
 4300SOL    HW216966   3.849   6.120   2.231  0.9678  1.1710  0.1558
 4300SOL    HW316967   3.761   6.126   2.355  1.6637 -2.2700  0.9157
 4300SOL    MW416968   3.819   6.163   2.301  0.0669  0.2020  0.1128
 4301SOL     OW16969   5.558   6.401   5.645  0.1513 -0.0090  0.3378
 4301SOL    HW216970   5.607   6.473   5.604  0.0504  0.1385  0.4721
 4301SOL    HW316971   5.469   6.409   5.610  0.0666  0.1138  0.5769
 4301SOL    MW416972   5.553   6.412   5.635  0.4364 -0.2328  0.3564
 4302SOL     OW16973   3.594   1.732   1.448  0.0560  0.2568  0.2358
 4302SOL    HW216974   3.650   1.655   1.438 -0.2040  0.2814 -1.7263
 4302SOL    HW316975   3.637   1.784   1.515  0.9626 -0.9511  0.6350
 4302SOL    MW416976   3.607   1.728   1.456  0.4674 -0.0372  0.0966
 4303SOL     OW16977   0.213   1.921   5.115  0.0193 -0.2910 -0.3572
 4303SOL    HW216978   0.185   1.973   5.040  1.5064 -1.1990 -1.6133
 4303SOL    HW316979   0.223   1.984   5.186  0.9894  1.0116 -1.6034
 4303SOL    MW416980   0.210   1.936   5.115  0.0970  0.0918  0.0221
 4304SOL     OW16981   5.893   1.870   5.015  0.3932 -0.6959 -0.5903
 4304SOL    HW216982   5.860   1.951   5.053 -1.7719 -1.6163 -0.3655
 4304SOL    HW316983   5.983   1.891   4.989 -0.0471  1.7189 -0.4388
 4304SOL    MW416984   5.901   1.884   5.017  0.0962 -0.0389 -0.7390
 4305SOL     OW16985   3.298   0.268   5.239  0.0704  0.1210  0.0765
 4305SOL    HW216986   3.342   0.192   5.278  0.2128 -2.3489 -4.1967
 4305SOL    HW316987   3.205   0.243   5.238 -0.1386  0.8662  0.2775
 4305SOL    MW416988   3.291   0.254   5.244 -0.0001 -0.3002  0.4694
 4306SOL     OW16989   0.492   0.512   1.275  0.4695  0.0937  0.5321
 4306SOL    HW216990   0.555   0.440   1.275 -0.1948 -0.5083 -0.4426
 4306SOL    HW316991   0.510   0.561   1.194 -1.8637 -1.5432 -1.1292
 4306SOL    MW416992   0.502   0.509   1.264 -0.8294 -0.3501 -0.2783
 4307SOL     OW16993   5.670   5.240   6.353 -0.3615  0.6464  0.3363
 4307SOL    HW216994   5.707   5.277   6.273 -0.6064 -1.0236 -0.5940
 4307SOL    HW316995   5.705   5.296   6.423 -0.6707  2.5495 -0.9417
 4307SOL    MW416996   5.680   5.252   6.352  0.2077 -0.0921  0.7389
 4308SOL     OW16997   0.077   4.147   4.014  0.4300 -0.3502 -0.0650
 4308SOL    HW216998   0.008   4.213   4.015  0.4404 -0.3440  0.2339
 4308SOL    HW316999   0.063   4.096   4.093 -0.1625 -1.3195 -0.7774
 4308SOL    MW417000   0.066   4.149   4.024 -0.1936 -0.2610  0.0238
 4309SOL     OW17001   2.777   5.957   5.700 -0.5515  0.3573 -0.2954
 4309SOL    HW217002   2.864   5.954   5.660  0.6704  0.9194  2.1313
 4309SOL    HW317003   2.766   6.048   5.728 -1.0646 -0.1028  1.1137
 4309SOL    MW417004   2.787   5.969   5.699  0.1464 -0.3689 -0.4055
 4310SOL     OW17005   3.346   4.537   0.533  0.2133 -0.5236 -0.0889
 4310SOL    HW217006   3.361   4.449   0.500 -0.6408  0.2138 -2.6824
 4310SOL    HW317007   3.424   4.586   0.507  1.3841 -0.7483  2.6547
 4310SOL    MW417008   3.358   4.532   0.525  0.2007  0.3833  0.6555
 4311SOL     OW17009   1.571   2.387   4.545  0.2985 -0.3872 -0.1080
 4311SOL    HW217010   1.666   2.385   4.557  0.2464  0.9561  0.8220
 4311SOL    HW317011   1.553   2.321   4.478  1.8973 -0.5431 -0.4115
 4311SOL    MW417012   1.581   2.378   4.538  0.5129  0.4346 -0.3456
 4312SOL     OW17013   6.290   5.622   5.403  0.0032 -0.1811  0.1195
 4312SOL    HW217014   6.204   5.623   5.362 -0.3620 -1.3789  0.8080
 4312SOL    HW317015   6.339   5.554   5.356 -0.2336 -1.1693  1.2414
 4312SOL    MW417016   6.285   5.613   5.391  0.0799 -0.3351  0.1174
 4313SOL     OW17017   0.049   3.407   1.785 -0.0976  0.0819 -0.3628
 4313SOL    HW217018   0.135   3.365   1.787 -0.2750 -0.2739  1.1317
 4313SOL    HW317019  -0.010   3.342   1.825 -0.9108  0.6415 -0.6232
 4313SOL    MW417020   0.053   3.393   1.790  0.1574 -0.1977 -0.3144
 4314SOL     OW17021   3.806   4.528   3.981 -0.3230  0.7518 -0.1713
 4314SOL    HW217022   3.837   4.619   3.985 -0.6243  0.8090  1.1213
 4314SOL    HW317023   3.885   4.475   3.982 -0.1789  0.9155  2.4976
 4314SOL    MW417024   3.820   4.533   3.981 -0.2630 -0.2745  0.4207
 4315SOL     OW17025   6.123   4.259   1.052 -0.3394 -0.0345 -0.0259
 4315SOL    HW217026   6.209   4.218   1.039 -0.9635 -1.1311 -0.8289
 4315SOL    HW317027   6.086   4.267   0.964 -0.4487  1.8833  0.1364
 4315SOL    MW417028   6.130   4.255   1.039 -0.2165  0.4824 -0.4435
 4316SOL     OW17029   4.228   5.221   0.786  0.2093 -0.7611  0.6361
 4316SOL    HW217030   4.286   5.146   0.770  0.7700 -0.3189  0.5386
 4316SOL    HW317031   4.225   5.229   0.881  0.9991 -0.2750  0.6304
 4316SOL    MW417032   4.235   5.213   0.796 -0.6425  0.4363  0.8802
 4317SOL     OW17033   0.396   3.908   1.361  0.3075 -0.2802 -0.5022
 4317SOL    HW217034   0.433   3.927   1.275 -0.1179  1.8449 -0.2580
 4317SOL    HW317035   0.310   3.871   1.342 -0.5076  1.7666 -1.0268
 4317SOL    MW417036   0.390   3.906   1.347 -0.7457 -0.2622  0.4353
 4318SOL     OW17037   2.682   2.082   1.449 -0.1176 -0.3417  0.5926
 4318SOL    HW217038   2.755   2.125   1.493 -0.8606  1.9247 -0.2783
 4318SOL    HW317039   2.619   2.064   1.520  0.5120 -0.6954  1.0743
 4318SOL    MW417040   2.683   2.085   1.464  0.6289 -0.0549  0.5290
 4319SOL     OW17041   6.007   3.688   5.298  0.1149  0.1648  0.3727
 4319SOL    HW217042   6.036   3.597   5.294 -1.4219 -0.3277 -0.3203
 4319SOL    HW317043   5.923   3.685   5.343 -0.3030  1.1314 -0.2900
 4319SOL    MW417044   6.000   3.676   5.303  0.4302 -0.5770 -0.3460
 4320SOL     OW17045   4.691   0.608   2.071 -0.1553 -0.2090 -0.5392
 4320SOL    HW217046   4.765   0.612   2.131  0.7875  0.1162 -1.6846
 4320SOL    HW317047   4.681   0.515   2.050  0.3043 -0.1982 -0.8189
 4320SOL    MW417048   4.699   0.596   2.076 -0.3752  0.3588  0.0326
 4321SOL     OW17049   2.655   1.578   0.938 -0.0540 -0.5787  0.1148
 4321SOL    HW217050   2.622   1.543   0.856 -0.4565  0.5346 -0.2193
 4321SOL    HW317051   2.685   1.502   0.987  0.1534 -1.2601 -1.0414
 4321SOL    MW417052   2.655   1.564   0.934  0.2372 -0.2145  0.0313
 4322SOL     OW17053   4.796   0.414   4.878 -0.2076  0.1328 -0.2530
 4322SOL    HW217054   4.853   0.490   4.863  1.1183 -1.2071 -2.6336
 4322SOL    HW317055   4.856   0.342   4.897 -1.1570 -1.0138 -1.4020
 4322SOL    MW417056   4.811   0.415   4.879  0.0889 -0.3358  0.2173
 4323SOL     OW17057   2.760   2.815   2.140 -0.7263 -1.0729  0.3625
 4323SOL    HW217058   2.729   2.826   2.230  0.2158  1.0788  0.4856
 4323SOL    HW317059   2.848   2.779   2.149 -0.1302  0.3147  0.4164
 4323SOL    MW417060   2.768   2.812   2.153  0.2864  0.3952 -0.1093
 4324SOL     OW17061   0.229   6.284   5.074  0.2591  0.0231 -0.4152
 4324SOL    HW217062   0.171   6.341   5.124  0.4258 -0.5749  0.4954
 4324SOL    HW317063   0.308   6.336   5.061  0.4476 -0.0138  0.4921
 4324SOL    MW417064   0.232   6.298   5.079 -0.5626 -0.4048  0.0803
 4325SOL     OW17065   5.792   4.177   1.505 -0.4893  0.1897 -0.3852
 4325SOL    HW217066   5.820   4.100   1.455 -1.0100 -0.7429  0.7191
 4325SOL    HW317067   5.858   4.243   1.484 -0.9892  0.0558 -2.7370
 4325SOL    MW417068   5.805   4.175   1.495 -0.8601  0.7893  0.1148
 4326SOL     OW17069   2.984   0.046   1.882 -0.0067 -0.1669  0.0597
 4326SOL    HW217070   2.937   0.010   1.807 -0.2415 -1.0431  0.6082
 4326SOL    HW317071   3.075   0.051   1.853 -0.1851  0.0372 -0.4751
 4326SOL    MW417072   2.990   0.042   1.868 -0.2684  0.5241  0.0585
 4327SOL     OW17073   6.238   1.141   1.984 -0.4004 -0.2133  0.0892
 4327SOL    HW217074   6.269   1.052   2.000 -1.6492 -0.1325  4.1198
 4327SOL    HW317075   6.307   1.198   2.019 -1.5463  0.1597  1.9003
 4327SOL    MW417076   6.251   1.137   1.991  0.1200 -0.7411 -0.4140
 4328SOL     OW17077   4.509   5.739   5.093 -0.1807  0.2858 -0.3286
 4328SOL    HW217078   4.415   5.719   5.093  0.2286 -2.1542  1.4166
 4328SOL    HW317079   4.544   5.690   5.019 -0.0126 -0.6841  0.3707
 4328SOL    MW417080   4.501   5.730   5.084  0.0233  0.3452  0.0544
 4329SOL     OW17081   2.224   3.906   2.044  0.0233  0.3908  0.0386
 4329SOL    HW217082   2.295   3.947   2.093  0.5188 -0.0512 -0.2957
 4329SOL    HW317083   2.211   3.822   2.089 -1.5212  1.2088  1.2143
 4329SOL    MW417084   2.232   3.900   2.056  0.4363  0.0026  0.1437
 4330SOL     OW17085   2.230   0.553   3.321 -0.0156 -0.0341 -0.4574
 4330SOL    HW217086   2.156   0.606   3.350  0.5645  0.9882 -0.8355
 4330SOL    HW317087   2.293   0.615   3.285 -0.0828 -1.1160 -2.6127
 4330SOL    MW417088   2.229   0.568   3.320 -0.2246 -0.8697 -0.3085
 4331SOL     OW17089   3.178   0.712   5.644  0.2598 -0.0477  0.0608
 4331SOL    HW217090   3.203   0.718   5.737  1.1130 -2.0745  0.0262
 4331SOL    HW317091   3.219   0.788   5.604 -1.1800  1.5851  1.5225
 4331SOL    MW417092   3.187   0.722   5.651  0.0287 -0.2319  0.4684
 4332SOL     OW17093   4.529   4.747   0.136 -0.2327 -0.1810 -0.0928
 4332SOL    HW217094   4.553   4.839   0.146 -1.3048  0.0488  0.5400
 4332SOL    HW317095   4.609   4.699   0.157  0.4603  0.6030 -0.8717
 4332SOL    MW417096   4.543   4.753   0.140 -0.2595 -0.5166 -0.0227
 4333SOL     OW17097   3.750   0.406   2.696  0.0967  0.0796  0.4972
 4333SOL    HW217098   3.733   0.438   2.608 -1.3250 -0.7629  0.4380
 4333SOL    HW317099   3.819   0.341   2.685 -1.2572 -1.2759 -0.2770
 4333SOL    MW417100   3.757   0.402   2.683  0.8492 -0.0439  0.5087
 4334SOL     OW17101   1.807   2.002   2.816 -0.0470  0.8065 -0.1575
 4334SOL    HW217102   1.797   2.073   2.879  1.8319 -1.2738  2.7886
 4334SOL    HW317103   1.887   2.024   2.768  1.1756  0.2697  1.5258
 4334SOL    MW417104   1.816   2.014   2.818  0.5363  0.5350  0.1875
 4335SOL     OW17105   6.334   6.024   0.037 -0.3256 -0.1142  0.4152
 4335SOL    HW217106   6.290   6.058  -0.042 -1.3534 -2.3314 -0.0358
 4335SOL    HW317107   6.303   6.081   0.107 -3.1918 -0.9605 -0.0597
 4335SOL    MW417108   6.324   6.036   0.036  0.2937  0.0856 -0.3815
 4336SOL     OW17109   4.601   3.613   3.520  0.3137 -0.7250 -0.1688
 4336SOL    HW217110   4.674   3.633   3.579 -0.4475  0.4866  0.4028
 4336SOL    HW317111   4.573   3.698   3.488 -1.4225 -1.0794  0.3147
 4336SOL    MW417112   4.607   3.627   3.524 -0.3959 -0.3543 -0.0822
 4337SOL     OW17113   3.653   3.796   2.650 -0.0473  0.1419  0.3771
 4337SOL    HW217114   3.721   3.732   2.672 -0.9955 -0.9694  0.1413
 4337SOL    HW317115   3.579   3.743   2.620 -0.9917  1.3343  0.5422
 4337SOL    MW417116   3.652   3.780   2.649 -0.2400 -0.4825 -0.7501
 4338SOL     OW17117   0.610   2.543   0.109 -0.6343 -0.6609 -0.2962
 4338SOL    HW217118   0.530   2.510   0.150 -1.8892 -0.2167 -2.2312
 4338SOL    HW317119   0.634   2.476   0.045 -1.2731  0.5612 -1.8830
 4338SOL    MW417120   0.602   2.530   0.106  0.2253 -0.1219  0.1593
 4339SOL     OW17121   3.177   4.376   6.254  0.0835 -0.7173 -0.3862
 4339SOL    HW217122   3.105   4.386   6.316  0.7871  1.5805  0.1472
 4339SOL    HW317123   3.235   4.312   6.296 -0.0293 -0.0844  0.7818
 4339SOL    MW417124   3.175   4.369   6.268  0.2106 -0.1780 -0.1075
 4340SOL     OW17125   2.562   5.764   4.086  0.1827  0.4623  0.0113
 4340SOL    HW217126   2.616   5.729   4.015  0.2283  1.8234 -0.6551
 4340SOL    HW317127   2.612   5.744   4.166  0.2161 -0.9293 -0.3198
 4340SOL    MW417128   2.576   5.756   4.087  0.2587 -0.1234  0.4985
 4341SOL     OW17129   4.769   2.665   6.260 -0.0110 -0.2797 -0.2966
 4341SOL    HW217130   4.714   2.625   6.193  0.4818  0.2344 -1.0175
 4341SOL    HW317131   4.776   2.757   6.234  0.2864 -0.0984  0.3963
 4341SOL    MW417132   4.762   2.672   6.248 -0.0897 -0.0122 -0.1210
 4342SOL     OW17133   3.390   6.017   1.206 -0.0575 -0.0991  0.6044
 4342SOL    HW217134   3.478   6.003   1.241 -0.7938 -0.9655  2.1958
 4342SOL    HW317135   3.391   6.107   1.173  1.0927  0.2756  1.6149
 4342SOL    MW417136   3.402   6.027   1.206 -0.0657  0.1663  0.4407
 4343SOL     OW17137   6.231   4.399   3.267 -0.2004 -0.2188 -0.2034
 4343SOL    HW217138   6.286   4.325   3.290  0.7237  0.7233  0.7049
 4343SOL    HW317139   6.267   4.430   3.184 -0.6091 -0.7876 -0.6021
 4343SOL    MW417140   6.243   4.393   3.259  0.5254  0.5110  0.3814
 4344SOL     OW17141   0.450   2.703   1.256  0.2484 -0.0195  0.1587
 4344SOL    HW217142   0.459   2.639   1.185  0.4974  0.3627 -0.1606
 4344SOL    HW317143   0.464   2.653   1.336 -0.0530 -0.4621 -0.0596
 4344SOL    MW417144   0.453   2.688   1.257 -0.0358 -0.4789  0.2080
 4345SOL     OW17145   3.552   3.636   1.987 -0.1342  0.1677  0.5038
 4345SOL    HW217146   3.542   3.555   1.938 -1.9794  1.0284 -0.6427
 4345SOL    HW317147   3.487   3.630   2.057 -2.3839  1.7674 -1.2857
 4345SOL    MW417148   3.542   3.625   1.990 -0.0379  0.0313 -0.3881
 4346SOL     OW17149   4.232   0.855   1.892  0.2329 -0.0648 -0.0489
 4346SOL    HW217150   4.326   0.843   1.879  0.6105  3.4949 -1.9407
 4346SOL    HW317151   4.219   0.846   1.986  1.9780 -2.8080  0.0532
 4346SOL    MW417152   4.243   0.852   1.902  0.4677 -0.4706  0.2569
 4347SOL     OW17153   5.971   1.984   2.731 -0.0555 -0.4737  0.1502
 4347SOL    HW217154   6.003   1.908   2.684  0.6004  0.2405 -0.5837
 4347SOL    HW317155   5.962   2.052   2.665 -0.2779  0.2029  0.8507
 4347SOL    MW417156   5.974   1.983   2.716 -0.3060  0.5514 -0.1810
 4348SOL     OW17157   1.486   4.943   0.980  0.3427 -0.0988 -0.1011
 4348SOL    HW217158   1.563   4.891   1.003  0.1045  0.4961  2.2935
 4348SOL    HW317159   1.414   4.900   1.025 -0.5269  0.1152 -1.2423
 4348SOL    MW417160   1.487   4.931   0.989  0.1903  0.1814  0.3624
 4349SOL     OW17161   0.899   3.194   6.363  0.1144  0.2003  0.1070
 4349SOL    HW217162   0.822   3.152   6.324  0.2618 -0.6331  0.6795
 4349SOL    HW317163   0.901   3.160   6.453 -0.7919  2.7992  1.2041
 4349SOL    MW417164   0.889   3.184   6.370  0.3190 -0.0534  0.2609
 4350SOL     OW17165   5.817   3.310   1.009 -0.1268 -0.0631  0.6188
 4350SOL    HW217166   5.765   3.370   0.956 -1.3757 -0.2878  1.5555
 4350SOL    HW317167   5.855   3.248   0.947  1.0189  1.5269 -0.3518
 4350SOL    MW417168   5.815   3.310   0.994  0.0132 -0.5476  0.1458
 4351SOL     OW17169   1.986   4.122   0.915 -0.2875 -0.4171  0.6191
 4351SOL    HW217170   1.908   4.093   0.961 -0.6703 -0.3527  0.0228
 4351SOL    HW317171   1.993   4.215   0.934 -0.7364 -0.2810  0.1418
 4351SOL    MW417172   1.977   4.130   0.923  0.1783 -0.6341  0.7328
 4352SOL     OW17173   6.051   2.848   5.074 -0.1009 -0.2429 -0.5336
 4352SOL    HW217174   5.981   2.855   5.009 -1.7759 -2.0197  0.9488
 4352SOL    HW317175   6.039   2.762   5.113  2.0090  0.0205  0.8537
 4352SOL    MW417176   6.040   2.838   5.071  0.0372  0.6276  0.3148
 4353SOL     OW17177   3.863   1.186   3.823 -0.4160  0.3544  0.5866
 4353SOL    HW217178   3.942   1.239   3.825  1.2352 -1.7462 -2.1407
 4353SOL    HW317179   3.872   1.125   3.896  0.9949 -0.4717 -0.2474
 4353SOL    MW417180   3.874   1.185   3.833  0.5960 -0.6319 -0.2037
 4354SOL     OW17181   1.246   4.489   3.675 -0.3513  0.5015 -0.9657
 4354SOL    HW217182   1.257   4.399   3.645 -2.1001  0.2328 -0.9384
 4354SOL    HW317183   1.209   4.480   3.763  0.0898  1.2562 -0.6940
 4354SOL    MW417184   1.242   4.476   3.683  0.4098 -0.2517 -0.0470
 4355SOL     OW17185   2.737   5.884   3.179 -0.0647  0.4722 -0.1353
 4355SOL    HW217186   2.703   5.971   3.198 -0.3711  0.1789  0.7182
 4355SOL    HW317187   2.808   5.898   3.117 -0.8634  1.2211 -0.8993
 4355SOL    MW417188   2.742   5.897   3.174 -0.4810  0.2811 -0.1574
 4356SOL     OW17189   2.424   3.564   3.473  0.0675  0.5278  0.1670
 4356SOL    HW217190   2.474   3.615   3.409 -1.2587 -0.9344 -2.1868
 4356SOL    HW317191   2.486   3.497   3.503  0.1568 -0.0043 -1.1435
 4356SOL    MW417192   2.439   3.562   3.468  0.2878  0.9932  0.2372
 4357SOL     OW17193   3.877   0.312   3.823  0.2894  0.0698  0.1058
 4357SOL    HW217194   3.869   0.321   3.918  1.5796  0.7159  0.1768
 4357SOL    HW317195   3.790   0.333   3.790 -0.4505 -1.1522  1.1932
 4357SOL    MW417196   3.864   0.316   3.831  0.7301  0.5322  0.4566
 4358SOL     OW17197   2.399   1.715   5.912  0.0311  0.3742  0.2055
 4358SOL    HW217198   2.444   1.638   5.876  0.3202 -0.0874  1.5134
 4358SOL    HW317199   2.330   1.733   5.849 -0.8466 -1.7394  0.4656
 4358SOL    MW417200   2.396   1.707   5.899  0.1219  0.4984 -0.4089
 4359SOL     OW17201   0.022   2.485   2.188  0.0438 -0.4040  0.1477
 4359SOL    HW217202   0.054   2.405   2.229 -0.5515 -1.2441 -1.0006
 4359SOL    HW317203   0.076   2.496   2.110  0.7109  0.8164  0.7472
 4359SOL    MW417204   0.033   2.476   2.183 -0.0502  0.4712  0.6287
 4360SOL     OW17205   1.572   0.574   3.210  0.2201  0.0713  0.1204
 4360SOL    HW217206   1.572   0.548   3.118 -0.6613 -1.0457  0.4229
 4360SOL    HW317207   1.647   0.633   3.217  2.1317 -2.0956 -0.6791
 4360SOL    MW417208   1.582   0.579   3.199 -0.0631 -0.4356  0.3213
 4361SOL     OW17209   6.012   3.012   2.040  0.3338 -0.0074  0.0383
 4361SOL    HW217210   5.932   2.963   2.026  1.3044 -1.7257  0.2173
 4361SOL    HW317211   5.984   3.103   2.048 -1.6354 -0.6317  0.6785
 4361SOL    MW417212   5.998   3.018   2.039 -0.4495  0.1948  0.9804
 4362SOL     OW17213   5.753   4.649   6.100  0.6921 -0.0725  0.2933
 4362SOL    HW217214   5.772   4.741   6.116  0.2964  0.1724 -0.5865
 4362SOL    HW317215   5.747   4.610   6.187 -1.3951  1.1827  0.7693
 4362SOL    MW417216   5.755   4.656   6.113  0.6020 -0.1217 -0.2429
 4363SOL     OW17217   2.518   5.428   3.181  0.2073  0.4459 -0.5868
 4363SOL    HW217218   2.510   5.401   3.089 -2.2547 -0.1907 -0.2535
 4363SOL    HW317219   2.587   5.373   3.217 -0.7624 -1.3531 -1.3726
 4363SOL    MW417220   2.526   5.418   3.173 -0.3450  0.2111  0.4190
 4364SOL     OW17221   5.920   6.248   0.075 -0.1714  0.1687  0.0458
 4364SOL    HW217222   5.843   6.301   0.052  0.6384  1.5311  0.3714
 4364SOL    HW317223   5.952   6.214  -0.008 -0.4785  0.5072 -0.2126
 4364SOL    MW417224   5.914   6.251   0.061 -0.2604 -0.0479  0.1581
 4365SOL     OW17225   6.237   4.668   4.563  0.1448 -0.3649 -0.0299
 4365SOL    HW217226   6.158   4.711   4.531 -1.5629 -2.8832  0.5785
 4365SOL    HW317227   6.251   4.596   4.501  1.2682 -0.6812  0.5762
 4365SOL    MW417228   6.229   4.664   4.550  0.1725  0.1154 -0.1410
 4366SOL     OW17229   1.296   3.333   3.469  0.0490  0.1457 -0.6550
 4366SOL    HW217230   1.359   3.349   3.399  0.1475 -1.5390 -1.0020
 4366SOL    HW317231   1.306   3.240   3.489 -1.4848  0.1175  0.1191
 4366SOL    MW417232   1.305   3.323   3.463 -0.0378  0.0581  0.2607
 4367SOL     OW17233   2.372   4.007   1.507 -0.1657  0.6860  0.5950
 4367SOL    HW217234   2.438   3.971   1.448 -1.8374 -1.4280 -0.1134
 4367SOL    HW317235   2.313   4.058   1.450 -0.9163 -0.0901  0.6529
 4367SOL    MW417236   2.373   4.009   1.491 -0.2505  0.7381  0.4703
 4368SOL     OW17237   0.208   0.429   5.545  0.0170  0.6425 -0.7039
 4368SOL    HW217238   0.267   0.497   5.513  0.3141  0.8624  0.2794
 4368SOL    HW317239   0.197   0.448   5.638 -0.0017 -0.5835 -0.4392
 4368SOL    MW417240   0.214   0.440   5.553  0.2258 -0.3238 -0.1828
 4369SOL     OW17241   1.482   0.808   0.256  0.3574 -0.2856  0.1495
 4369SOL    HW217242   1.494   0.871   0.327 -0.4664  1.5060 -1.2095
 4369SOL    HW317243   1.570   0.797   0.220  0.2651  1.7864 -0.8910
 4369SOL    MW417244   1.496   0.815   0.261 -0.4629 -0.0520 -0.0395
 4370SOL     OW17245   5.475   0.318   1.760  1.1149 -0.2601  0.2215
 4370SOL    HW217246   5.380   0.316   1.746  1.1407 -2.0692  0.0553
 4370SOL    HW317247   5.499   0.410   1.751 -0.6518  0.2494  0.4508
 4370SOL    MW417248   5.466   0.330   1.757  0.1626 -0.2210 -0.1962
 4371SOL     OW17249   0.588   0.212   4.362  0.1380 -0.1784 -0.1449
 4371SOL    HW217250   0.668   0.207   4.414  1.4822  0.3494 -2.0219
 4371SOL    HW317251   0.544   0.129   4.377  1.8204 -1.1298 -0.2328
 4371SOL    MW417252   0.593   0.201   4.371  0.0708 -0.0478 -0.1015
 4372SOL     OW17253   5.543   2.160   5.347  0.3322 -0.4189 -0.4711
 4372SOL    HW217254   5.596   2.237   5.327  0.9538 -0.8309 -0.4313
 4372SOL    HW317255   5.607   2.090   5.364 -0.1628 -0.4156  1.6793
 4372SOL    MW417256   5.558   2.161   5.346  0.4251  0.4954 -0.2979
 4373SOL     OW17257   3.336   4.526   1.155 -0.8171  0.7477 -0.3500
 4373SOL    HW217258   3.332   4.481   1.070 -0.1589  0.4609 -0.2340
 4373SOL    HW317259   3.394   4.600   1.141 -0.0442  0.2319  0.0531
 4373SOL    MW417260   3.343   4.530   1.142 -0.4786 -0.2082  0.0017
 4374SOL     OW17261   4.271   5.895   0.058 -0.5296  0.0961  0.3848
 4374SOL    HW217262   4.248   5.939   0.140  1.1462  0.3366  0.7530
 4374SOL    HW317263   4.288   5.966  -0.003 -0.7935 -0.0789  0.1058
 4374SOL    MW417264   4.270   5.910   0.061 -0.2972 -0.2193  0.2999
 4375SOL     OW17265   1.467   3.889   4.204 -0.0867  0.2955  0.3944
 4375SOL    HW217266   1.424   3.829   4.265  1.6259  0.2664  1.6593
 4375SOL    HW317267   1.492   3.834   4.130 -1.1570  0.0851  0.1766
 4375SOL    MW417268   1.465   3.874   4.202  0.0016  0.3579 -0.5181
 4376SOL     OW17269   1.216   0.101   0.571 -0.2992  0.2579 -0.5399
 4376SOL    HW217270   1.148   0.109   0.503 -0.8024  1.6226  0.0777
 4376SOL    HW317271   1.234   0.192   0.596  0.1370 -0.2052  0.8910
 4376SOL    MW417272   1.209   0.114   0.565 -0.0607 -0.4781  0.7112
 4377SOL     OW17273   2.390   2.190   5.408  0.2894  0.1760 -0.0162
 4377SOL    HW217274   2.319   2.250   5.385  0.2108  0.8510  1.8212
 4377SOL    HW317275   2.459   2.210   5.344  0.1060  1.9679  0.2759
 4377SOL    MW417276   2.390   2.201   5.397 -0.1398  0.0704  0.3782
 4378SOL     OW17277   4.766   0.291   5.215  0.2288 -0.3153  0.2674
 4378SOL    HW217278   4.735   0.374   5.178  0.8017 -0.7630 -1.3302
 4378SOL    HW317279   4.716   0.280   5.296  0.2650  1.6594  0.6104
 4378SOL    MW417280   4.755   0.301   5.221  0.1300  0.1179  0.1212
 4379SOL     OW17281   2.600   0.979   0.989 -0.5805  0.1176  0.0262
 4379SOL    HW217282   2.510   0.944   0.991 -0.3867 -0.3717  0.4244
 4379SOL    HW317283   2.655   0.903   1.008  0.0008  0.1546 -1.4253
 4379SOL    MW417284   2.595   0.964   0.992 -0.5900 -0.1810 -0.3342
 4380SOL     OW17285   2.852   3.629   0.915  0.6363  0.2057 -0.0654
 4380SOL    HW217286   2.805   3.619   0.832  0.2094  2.4333 -0.1757
 4380SOL    HW317287   2.788   3.606   0.982  1.0961 -1.9750 -0.3091
 4380SOL    MW417288   2.837   3.625   0.913 -0.2130 -0.4646  0.3147
 4381SOL     OW17289   4.482   3.049   4.473 -0.1680  0.5384  0.1679
 4381SOL    HW217290   4.411   3.096   4.430  1.0187  0.7718 -1.5960
 4381SOL    HW317291   4.459   3.052   4.566 -2.7610  0.0855 -0.3761
 4381SOL    MW417292   4.469   3.055   4.480  0.0241  0.5293  0.4194
 4382SOL     OW17293   0.407   1.021   1.007  0.1536 -0.1202 -0.5802
 4382SOL    HW217294   0.353   1.086   1.052  0.5254  0.6665 -1.2441
 4382SOL    HW317295   0.487   1.016   1.059 -1.2146 -2.7225  1.5486
 4382SOL    MW417296   0.410   1.029   1.020  0.5877 -0.0843 -0.3185
 4383SOL     OW17297   3.033   3.865   0.714 -0.1314  0.3031  0.6891
 4383SOL    HW217298   3.124   3.848   0.687 -0.1902 -2.7534  1.9763
 4383SOL    HW317299   3.041   3.904   0.801 -0.0379 -0.6374  1.1086
 4383SOL    MW417300   3.046   3.868   0.722  0.0033 -0.3709 -0.2753
 4384SOL     OW17301   2.026   1.782   3.890  0.6342  0.1605  0.7936
 4384SOL    HW217302   2.090   1.781   3.818  2.2256  0.3839  2.1416
 4384SOL    HW317303   1.960   1.717   3.864  1.2129  0.1674 -0.8077
 4384SOL    MW417304   2.026   1.773   3.877  0.5874 -0.1728  0.2777
 4385SOL     OW17305   2.107   6.382   3.416 -0.0869  0.3693  0.4833
 4385SOL    HW217306   2.120   6.343   3.329  0.4836  0.6783  0.4279
 4385SOL    HW317307   2.180   6.349   3.468  0.2917  1.1896  0.4915
 4385SOL    MW417308   2.118   6.372   3.411 -0.2354 -0.6566  0.3743
 4386SOL     OW17309   4.121   2.294   0.908 -0.4653 -0.7436  0.7599
 4386SOL    HW217310   4.184   2.307   0.837 -1.2080  1.7693  0.4735
 4386SOL    HW317311   4.170   2.312   0.988 -0.4367 -0.3741  0.6572
 4386SOL    MW417312   4.136   2.298   0.909 -0.4322  0.1861 -0.4056
 4387SOL     OW17313   3.002   6.032   4.300  0.3551 -0.0047  0.2936
 4387SOL    HW217314   3.010   5.938   4.316  1.7799 -0.8135 -3.9437
 4387SOL    HW317315   3.057   6.072   4.367 -0.7620 -2.0355  2.5960
 4387SOL    MW417316   3.010   6.025   4.311  0.7023 -0.0886  0.0737
 4388SOL     OW17317   3.739   0.408   1.193 -0.3044 -0.2261  0.2254
 4388SOL    HW217318   3.681   0.431   1.265  0.2553 -1.9967  1.3075
 4388SOL    HW317319   3.687   0.424   1.114 -0.5141  2.9260  0.8734
 4388SOL    MW417320   3.725   0.413   1.192  0.4522  0.1046 -0.0263
 4389SOL     OW17321   2.141   3.517   6.035  0.4448  0.6588  0.2100
 4389SOL    HW217322   2.155   3.564   5.953 -1.2859 -0.8179 -0.9913
 4389SOL    HW317323   2.078   3.571   6.083  0.8254  1.0940  0.2395
 4389SOL    MW417324   2.135   3.531   6.031 -0.8001  0.1906  0.5168
 4390SOL     OW17325   2.539   2.640   2.074  0.2443 -0.0348 -0.1218
 4390SOL    HW217326   2.460   2.694   2.069  0.7241  0.6475 -0.6765
 4390SOL    HW317327   2.602   2.695   2.121  0.8012 -0.0197 -0.8678
 4390SOL    MW417328   2.537   2.655   2.080 -0.3254 -0.4225  0.2948
 4391SOL     OW17329   0.226   5.579   0.078  0.0919 -0.2207  0.2751
 4391SOL    HW217330   0.217   5.545   0.167 -0.8698  1.2233  0.7610
 4391SOL    HW317331   0.246   5.671   0.089 -3.3219  0.8322 -0.9167
 4391SOL    MW417332   0.227   5.586   0.091  0.7884 -0.2210  0.4935
 4392SOL     OW17333   6.196   0.790   3.785  0.0589  0.4976  0.0967
 4392SOL    HW217334   6.154   0.736   3.718  0.0077 -0.0403  0.5504
 4392SOL    HW317335   6.212   0.729   3.857  1.1057  0.8119  0.1498
 4392SOL    MW417336   6.193   0.775   3.785 -0.5431  0.4598 -0.1574
 4393SOL     OW17337   3.642   0.208   0.796  0.3471  0.0368 -0.0769
 4393SOL    HW217338   3.607   0.290   0.761  1.9380  0.9975  0.4930
 4393SOL    HW317339   3.598   0.197   0.880  0.4397  0.5298  0.0370
 4393SOL    MW417340   3.632   0.217   0.802  0.2122  0.0156  0.7221
 4394SOL     OW17341   3.298   1.366   4.789  0.8218  0.3321 -0.3954
 4394SOL    HW217342   3.222   1.378   4.846  0.8580  0.8183 -0.4465
 4394SOL    HW317343   3.331   1.279   4.811  1.0935  0.6802  0.6448
 4394SOL    MW417344   3.293   1.356   4.800 -0.4374 -0.0060 -0.0772
 4395SOL     OW17345   2.463   3.546   4.821  0.0860 -0.1323  0.2269
 4395SOL    HW217346   2.532   3.605   4.792  1.2529 -2.2436 -1.5670
 4395SOL    HW317347   2.482   3.463   4.779 -3.3189 -0.9814  0.0211
 4395SOL    MW417348   2.474   3.543   4.812 -0.1044 -0.2127 -0.0326
 4396SOL     OW17349   3.822   2.186   2.174  0.1936  0.0990  0.5014
 4396SOL    HW217350   3.853   2.136   2.099 -1.2763  1.3398 -0.9895
 4396SOL    HW317351   3.775   2.122   2.227 -0.8865 -0.3295 -0.9165
 4396SOL    MW417352   3.820   2.171   2.171 -0.2014 -0.6547  0.2467
 4397SOL     OW17353   5.589   5.605   5.354  0.1465  0.6645 -0.2840
 4397SOL    HW217354   5.536   5.620   5.276 -0.8810 -0.3882  0.1744
 4397SOL    HW317355   5.580   5.686   5.405 -0.1379  0.9077 -0.7152
 4397SOL    MW417356   5.581   5.618   5.351 -0.8283 -0.1131 -0.6828
 4398SOL     OW17357   4.555   4.150   6.220 -0.3010  0.0701  0.4753
 4398SOL    HW217358   4.550   4.065   6.175 -2.1311  0.6917 -0.5863
 4398SOL    HW317359   4.602   4.207   6.159 -0.5170  0.2464  0.4724
 4398SOL    MW417360   4.561   4.146   6.206  0.1830 -0.1099 -0.1675
 4399SOL     OW17361   1.863   6.198   4.690  0.2052  0.1962 -0.4383
 4399SOL    HW217362   1.785   6.248   4.667 -0.4607 -0.1347  1.0237
 4399SOL    HW317363   1.936   6.253   4.659 -0.5633  1.0676 -0.7461
 4399SOL    MW417364   1.863   6.212   4.683  0.5651  0.3283 -0.3378
 4400SOL     OW17365   2.254   1.568   2.642  0.5822  0.1897 -0.4753
 4400SOL    HW217366   2.316   1.541   2.710  2.3760  1.8256 -1.3507
 4400SOL    HW317367   2.279   1.659   2.622 -0.9186  0.2735 -2.1818
 4400SOL    MW417368   2.266   1.577   2.649  0.5104 -0.4939  0.1208
 4401SOL     OW17369   4.337   2.937   4.122  0.0146 -0.3470 -0.1331
 4401SOL    HW217370   4.333   2.896   4.036 -0.6710 -1.0980  0.2416
 4401SOL    HW317371   4.363   3.027   4.105 -1.5779 -0.0678 -1.2768
 4401SOL    MW417372   4.340   2.943   4.109  0.3126 -0.0435  0.0899
 4402SOL     OW17373   2.241   4.185   6.030 -0.3230  0.5228  0.0403
 4402SOL    HW217374   2.180   4.199   5.958 -0.5439 -1.1706 -0.1456
 4402SOL    HW317375   2.218   4.099   6.064  1.3367  0.2663  0.5977
 4402SOL    MW417376   2.230   4.175   6.025  0.1263 -0.4607 -0.7017
 4403SOL     OW17377   0.102   5.092   5.521  0.5045 -0.4161  0.1220
 4403SOL    HW217378   0.164   5.103   5.450  0.8296 -1.6636  0.1864
 4403SOL    HW317379   0.153   5.056   5.593 -0.0565 -0.3069  0.5884
 4403SOL    MW417380   0.117   5.088   5.521 -0.6310 -0.1114  0.0132
 4404SOL     OW17381   3.812   4.440   6.255  0.2238 -0.5138  0.7493
 4404SOL    HW217382   3.773   4.369   6.305 -0.4553  0.1704  1.2087
 4404SOL    HW317383   3.738   4.492   6.225  0.7029 -0.1070  0.2623
 4404SOL    MW417384   3.797   4.437   6.258  0.0911 -0.1770  0.1004
 4405SOL     OW17385   6.324   1.953   3.895  0.1307  0.0246 -0.3920
 4405SOL    HW217386   6.358   1.864   3.903 -0.8584 -0.3101  0.4732
 4405SOL    HW317387   6.293   1.974   3.983  0.9323  1.4893 -0.4274
 4405SOL    MW417388   6.324   1.944   3.908 -0.0721 -0.1963  0.6102
 4406SOL     OW17389   6.110   5.060   2.673 -0.6871 -0.0664  0.2747
 4406SOL    HW217390   6.169   5.045   2.746 -0.6248  0.4404  0.3268
 4406SOL    HW317391   6.136   5.144   2.637  2.2256 -2.1273 -3.0806
 4406SOL    MW417392   6.121   5.069   2.678  0.2013 -0.2993 -0.2348
 4407SOL     OW17393   2.296   1.955   0.480  0.0437  0.6263  0.0851
 4407SOL    HW217394   2.312   2.018   0.410 -0.7774  2.5976  1.5776
 4407SOL    HW317395   2.299   2.007   0.560 -1.8660 -1.0034  1.3045
 4407SOL    MW417396   2.298   1.970   0.481 -0.6662  0.5507 -0.0144
 4408SOL     OW17397   4.164   2.746   4.933  0.4164 -0.1342 -0.3543
 4408SOL    HW217398   4.079   2.723   4.894 -0.3980  2.4407 -0.2805
 4408SOL    HW317399   4.154   2.724   5.026 -0.8975  1.7640  0.0107
 4408SOL    MW417400   4.151   2.740   4.940 -0.6366  0.0848 -0.3986
 4409SOL     OW17401   3.000   2.570   3.496 -0.1658  0.7529 -0.0230
 4409SOL    HW217402   2.931   2.504   3.502  2.1107 -1.7506  0.5280
 4409SOL    HW317403   3.018   2.594   3.587  1.8542 -1.1118  0.1259
 4409SOL    MW417404   2.993   2.565   3.509  0.2825 -0.0196 -0.3548
 4410SOL     OW17405   0.952   5.000   0.619 -0.3422 -0.4883 -0.5578
 4410SOL    HW217406   0.995   4.992   0.534 -2.4005 -0.3459 -1.6806
 4410SOL    HW317407   0.956   4.912   0.657  1.6674 -0.2941 -0.1768
 4410SOL    MW417408   0.958   4.987   0.613 -0.1885 -0.0118  0.1075
 4411SOL     OW17409   3.807   5.225   3.544 -0.2076  0.3557 -0.8029
 4411SOL    HW217410   3.715   5.215   3.568  0.2345  1.5699  1.7214
 4411SOL    HW317411   3.854   5.228   3.627  2.1501 -0.1888 -2.0026
 4411SOL    MW417412   3.801   5.224   3.558 -0.0454  0.0267  0.4847
 4412SOL     OW17413   0.167   2.738   2.234 -0.8651 -0.0114 -0.3122
 4412SOL    HW217414   0.246   2.710   2.280 -0.6329  0.8451 -0.1639
 4412SOL    HW317415   0.123   2.657   2.209 -0.7497 -0.4849  0.9908
 4412SOL    MW417416   0.172   2.724   2.236 -0.2231  0.4071  0.4773
 4413SOL     OW17417   6.207   1.849   1.473  0.2998  0.1574  0.5934
 4413SOL    HW217418   6.292   1.889   1.455  0.3762  0.7285  2.0264
 4413SOL    HW317419   6.172   1.902   1.545 -1.6401  0.4320 -0.5053
 4413SOL    MW417420   6.214   1.861   1.480 -0.3039  0.5483 -1.0182
 4414SOL     OW17421   3.899   0.683   1.762 -0.2806  0.3488 -0.5228
 4414SOL    HW217422   3.989   0.703   1.790 -0.3879  0.9732 -0.6050
 4414SOL    HW317423   3.905   0.595   1.725  0.1126  0.0201  0.3067
 4414SOL    MW417424   3.912   0.674   1.761 -0.1869  0.1428  0.4791
 4415SOL     OW17425   5.273   4.727   5.689 -0.5610 -0.3835 -0.1020
 4415SOL    HW217426   5.184   4.730   5.654 -1.0015 -3.5186  0.4218
 4415SOL    HW317427   5.270   4.783   5.767 -2.1388 -0.5688  0.0099
 4415SOL    MW417428   5.261   4.735   5.695 -0.6170  0.6366  0.2596
 4416SOL     OW17429   5.490   3.069   2.501  0.1409 -0.6607 -0.3590
 4416SOL    HW217430   5.424   3.138   2.499  1.4302  0.6001 -1.7753
 4416SOL    HW317431   5.479   3.022   2.419  1.0140 -0.4249 -0.6159
 4416SOL    MW417432   5.480   3.072   2.490  0.0760  0.1351  0.8165
 4417SOL     OW17433   2.013   2.157   3.995  0.1641  0.4261 -0.4416
 4417SOL    HW217434   2.038   2.067   3.975 -0.8407  0.1479 -0.5058
 4417SOL    HW317435   2.095   2.202   4.014  0.6938 -0.4413 -0.6688
 4417SOL    MW417436   2.027   2.151   3.995 -0.0235 -0.2429 -0.2212
 4418SOL     OW17437   0.424   4.914   2.139  0.2588  0.4117  0.2626
 4418SOL    HW217438   0.364   4.980   2.173  0.2228 -0.6572  2.4287
 4418SOL    HW317439   0.496   4.912   2.203  1.0103 -0.5712 -0.5806
 4418SOL    MW417440   0.426   4.922   2.152 -0.1558  0.0326  0.3935
 4419SOL     OW17441   4.390   5.964   1.582 -0.1291 -0.2858 -0.2799
 4419SOL    HW217442   4.384   6.052   1.619  0.6045  0.4509 -1.8155
 4419SOL    HW317443   4.484   5.944   1.583 -0.4946 -2.7807  3.7382
 4419SOL    MW417444   4.402   5.973   1.587 -0.1359 -0.4157 -0.1404
 4420SOL     OW17445   0.883   1.713   4.513  0.3009 -0.1679  0.2112
 4420SOL    HW217446   0.831   1.782   4.472  0.0893  0.4278  1.4172
 4420SOL    HW317447   0.974   1.744   4.508  0.0474  1.2228  2.4750
 4420SOL    MW417448   0.888   1.727   4.507 -0.0473 -0.4829 -0.4968
 4421SOL     OW17449   3.030   5.012   2.027  0.3399  0.5702 -0.1468
 4421SOL    HW217450   2.971   5.087   2.031  1.2717  1.3153  2.8363
 4421SOL    HW317451   2.983   4.946   1.977 -2.6452  1.4668  1.2402
 4421SOL    MW417452   3.016   5.013   2.021 -0.0066  0.3865  0.4446
 4422SOL     OW17453   6.341   4.646   3.968 -0.4156 -0.3721 -0.1370
 4422SOL    HW217454   6.397   4.690   3.904 -1.6985  0.1345 -0.9531
 4422SOL    HW317455   6.348   4.553   3.947  0.8105 -0.4238  0.3732
 4422SOL    MW417456   6.350   4.640   3.957  0.7821 -0.0196  0.3894
 4423SOL     OW17457   0.796   2.520   2.445  0.8316 -0.0831  0.2541
 4423SOL    HW217458   0.792   2.467   2.366  1.7316 -0.8222  0.6900
 4423SOL    HW317459   0.889   2.542   2.455  0.5905  0.8973  0.5338
 4423SOL    MW417460   0.808   2.516   2.436 -0.3366  0.3148 -0.3843
 4424SOL     OW17461   1.788   5.182   6.365 -0.3441  0.3756 -0.0888
 4424SOL    HW217462   1.864   5.135   6.397 -0.4813  0.4004  0.2811
 4424SOL    HW317463   1.744   5.121   6.307  0.5407  0.7353 -1.1651
 4424SOL    MW417464   1.792   5.168   6.362  0.0518  0.3078  0.2911
 4425SOL     OW17465   3.714   4.151   0.249 -0.2636  0.2756  0.6411
 4425SOL    HW217466   3.800   4.117   0.276 -0.6915 -0.4790  1.1140
 4425SOL    HW317467   3.683   4.200   0.324  0.6688  2.4256 -0.3037
 4425SOL    MW417468   3.721   4.153   0.262 -0.3304  0.1051 -0.0737
 4426SOL     OW17469   0.165   1.615   5.323 -0.2329  0.7158 -0.2021
 4426SOL    HW217470   0.222   1.638   5.249 -0.7513  0.7143 -0.6075
 4426SOL    HW317471   0.173   1.688   5.384 -0.3738  1.0599 -0.5967
 4426SOL    MW417472   0.174   1.627   5.321 -0.2875 -0.5623  0.6367
 4427SOL     OW17473   5.079   1.690   1.644 -0.3936  0.0104  0.1067
 4427SOL    HW217474   5.071   1.632   1.569 -0.3349 -1.9568  1.5377
 4427SOL    HW317475   5.003   1.669   1.699  1.4376 -1.3336  2.3153
 4427SOL    MW417476   5.068   1.680   1.641 -0.2322  0.3137  0.3893
 4428SOL     OW17477   5.629   2.098   0.378 -0.0117 -0.4163 -0.0643
 4428SOL    HW217478   5.592   2.037   0.314 -0.1224 -0.3422 -0.0717
 4428SOL    HW317479   5.686   2.044   0.433  0.7896 -0.3271 -0.7854
 4428SOL    MW417480   5.631   2.083   0.377 -0.9213 -0.4050 -0.8442
 4429SOL     OW17481   0.021   5.846   5.360  0.6267 -0.4342 -0.4063
 4429SOL    HW217482  -0.003   5.850   5.267 -3.0506 -1.0090  0.3670
 4429SOL    HW317483  -0.040   5.782   5.397 -0.1851  2.0283  2.9603
 4429SOL    MW417484   0.010   5.838   5.352  0.0732 -0.0307 -0.0686
 4430SOL     OW17485   2.825   5.783   3.485  0.1386  0.5217  0.6166
 4430SOL    HW217486   2.737   5.797   3.451 -0.1199 -1.7942  0.1376
 4430SOL    HW317487   2.871   5.736   3.415  1.6421  1.3207  1.0192
 4430SOL    MW417488   2.820   5.778   3.472 -0.0788 -0.1871 -0.3291
 4431SOL     OW17489   4.032   5.182   3.753 -0.2547 -0.1805  0.5580
 4431SOL    HW217490   4.035   5.164   3.847 -0.2218  0.3917  0.6677
 4431SOL    HW317491   4.031   5.277   3.746  2.3080 -0.1318 -0.0969
 4431SOL    MW417492   4.032   5.192   3.764 -0.7819 -0.7958 -0.3057
 4432SOL     OW17493   3.269   0.047   1.424 -0.1419 -0.4455 -0.0471
 4432SOL    HW217494   3.327   0.098   1.481 -0.6273 -0.2011  0.2402
 4432SOL    HW317495   3.295   0.071   1.335  1.5006 -1.8116  0.0166
 4432SOL    MW417496   3.280   0.057   1.420  0.1916  0.1766 -0.7879
 4433SOL     OW17497   1.276   3.760   4.402  0.2509 -0.3280 -0.0817
 4433SOL    HW217498   1.181   3.756   4.415  0.3384 -1.0525  0.3952
 4433SOL    HW317499   1.312   3.707   4.474  1.1045  1.4602  0.8728
 4433SOL    MW417500   1.268   3.752   4.413  0.0699 -0.3648  0.6558
 4434SOL     OW17501   3.344   3.193   1.789 -0.0005 -0.5179 -0.3461
 4434SOL    HW217502   3.318   3.229   1.704 -1.0460  0.4340  0.3512
 4434SOL    HW317503   3.270   3.139   1.816 -1.0138  1.5214  1.2594
 4434SOL    MW417504   3.331   3.191   1.781  0.1739 -0.5289  0.1031
 4435SOL     OW17505   5.072   0.367   0.185 -0.0406  0.0302 -0.1845
 4435SOL    HW217506   5.001   0.391   0.245  0.8687  0.5077  0.7204
 4435SOL    HW317507   5.058   0.423   0.108  1.4228  2.8758  1.4571
 4435SOL    MW417508   5.060   0.378   0.183 -0.4623 -0.2339  0.0777
 4436SOL     OW17509   4.735   5.172   3.535 -0.7632  0.6180  0.1240
 4436SOL    HW217510   4.793   5.222   3.592 -0.6174  0.9472 -0.3066
 4436SOL    HW317511   4.744   5.081   3.565  1.5937  0.3186 -1.2175
 4436SOL    MW417512   4.744   5.166   3.546  0.9363 -0.5259 -0.7101
 4437SOL     OW17513   5.480   4.886   6.363  0.1752 -0.1691  0.4514
 4437SOL    HW217514   5.395   4.919   6.391 -0.9389 -1.4536 -1.2557
 4437SOL    HW317515   5.470   4.791   6.360  1.4882 -0.3113 -0.2979
 4437SOL    MW417516   5.468   4.878   6.366 -0.3325  0.0176 -0.0809
 4438SOL     OW17517   2.470   0.711   5.612  0.1406 -0.4897  0.4968
 4438SOL    HW217518   2.560   0.742   5.606  0.6302 -1.5151  1.8286
 4438SOL    HW317519   2.446   0.725   5.703 -1.0665 -0.2249  0.1545
 4438SOL    MW417520   2.479   0.717   5.623  0.0748  0.1924 -0.2541
 4439SOL     OW17521   4.402   1.501   6.378 -0.3878 -0.4784  0.1318
 4439SOL    HW217522   4.464   1.518   6.449 -0.6505  1.9493 -0.1536
 4439SOL    HW317523   4.444   1.539   6.300 -2.2789  1.4323 -0.0300
 4439SOL    MW417524   4.416   1.508   6.377  0.0398  0.2664 -0.1400
 4440SOL     OW17525   3.832   0.106   1.200 -0.2486 -0.0494 -0.3667
 4440SOL    HW217526   3.787   0.191   1.199  1.5552  0.9373 -1.1403
 4440SOL    HW317527   3.906   0.118   1.258  0.0633 -1.0997 -0.5163
 4440SOL    MW417528   3.836   0.119   1.207  0.5247  0.0112  0.0593
 4441SOL     OW17529   5.385   1.885   3.867 -0.4176 -0.1271 -0.3578
 4441SOL    HW217530   5.449   1.841   3.811  0.2426  0.1234  0.1802
 4441SOL    HW317531   5.308   1.897   3.812  0.8123  1.6697 -1.7768
 4441SOL    MW417532   5.383   1.881   3.853 -0.6580 -0.1331 -0.1272
 4442SOL     OW17533   1.532   4.661   6.178  0.3687 -0.1164 -0.1517
 4442SOL    HW217534   1.486   4.696   6.255  1.4716 -1.3869  1.1358
 4442SOL    HW317535   1.482   4.584   6.153 -0.7187  0.9946 -1.5448
 4442SOL    MW417536   1.520   4.656   6.185  0.3003 -0.9010  0.4688
 4443SOL     OW17537   3.713   0.696   3.101 -0.4144  0.0359 -0.0914
 4443SOL    HW217538   3.808   0.692   3.107 -0.2808  1.0300 -1.1424
 4443SOL    HW317539   3.681   0.660   3.183  0.8431 -1.6221 -0.2887
 4443SOL    MW417540   3.721   0.691   3.112  0.1412 -0.5980 -0.2407
 4444SOL     OW17541   0.739   4.917   2.827 -0.5279 -0.2223  0.6447
 4444SOL    HW217542   0.711   4.956   2.744 -0.2137 -0.1348  0.5761
 4444SOL    HW317543   0.813   4.972   2.854  1.8500 -2.4443 -0.9049
 4444SOL    MW417544   0.745   4.930   2.820 -0.4683  0.3911 -0.4651
 4445SOL     OW17545   1.118   3.513   2.306 -0.6099 -0.6444 -0.5155
 4445SOL    HW217546   1.141   3.477   2.220 -1.7572  0.6402 -1.4154
 4445SOL    HW317547   1.026   3.489   2.318 -0.1204 -1.9245  0.9870
 4445SOL    MW417548   1.109   3.505   2.296 -0.0540 -0.0708  0.2117
 4446SOL     OW17549   3.410   3.394   0.307  0.0146  0.4743 -0.3213
 4446SOL    HW217550   3.357   3.395   0.227  1.8662 -0.5161 -1.6399
 4446SOL    HW317551   3.492   3.437   0.282  0.3234  0.8935  1.3089
 4446SOL    MW417552   3.414   3.400   0.293  0.1475  0.1086 -0.1752
 4447SOL     OW17553   1.366   6.216   3.752 -0.5980 -0.6399 -0.1180
 4447SOL    HW217554   1.287   6.242   3.705 -0.2326  0.1495 -0.3213
 4447SOL    HW317555   1.429   6.196   3.683 -0.7876 -1.8307  0.0401
 4447SOL    MW417556   1.364   6.217   3.737  0.2262  0.2269  0.1254
 4448SOL     OW17557   6.126   4.280   4.867 -0.3228 -1.0356  0.1546
 4448SOL    HW217558   6.039   4.243   4.882 -0.4978 -0.2107  1.2527
 4448SOL    HW317559   6.110   4.374   4.855  0.1360 -1.2201 -2.3915
 4448SOL    MW417560   6.112   4.287   4.867  0.1222 -0.4683  0.3112
 4449SOL     OW17561   0.776   1.591   5.155 -0.0650  0.2893 -0.3962
 4449SOL    HW217562   0.868   1.565   5.157  0.6037  2.4460  1.5244
 4449SOL    HW317563   0.755   1.600   5.062  2.5097  2.3716 -0.8600
 4449SOL    MW417564   0.785   1.588   5.143 -0.0896  0.4654  0.2960
 4450SOL     OW17565   2.295   2.995   4.795 -0.1881  0.1565 -0.0991
 4450SOL    HW217566   2.222   2.940   4.820 -0.2393  0.2155 -0.1179
 4450SOL    HW317567   2.317   3.045   4.874 -0.7182  0.7593 -0.3252
 4450SOL    MW417568   2.289   2.995   4.808 -0.2404 -0.0336 -0.4581
 4451SOL     OW17569   4.327   5.763   0.603 -0.8500  0.3361 -0.1733
 4451SOL    HW217570   4.331   5.670   0.626  1.3633  0.9399  2.3475
 4451SOL    HW317571   4.264   5.800   0.666  0.2221  0.9396  0.5645
 4451SOL    MW417572   4.319   5.756   0.615  0.1525 -0.3344  0.3239
 4452SOL     OW17573   4.540   5.186   2.592  0.7385 -0.1003 -0.2634
 4452SOL    HW217574   4.525   5.258   2.654  1.3808  0.1941 -0.4409
 4452SOL    HW317575   4.460   5.181   2.540 -1.8034 -3.2439  3.3854
 4452SOL    MW417576   4.528   5.195   2.593  0.1237 -0.1607  0.0161
 4453SOL     OW17577   0.516   1.811   1.926 -0.4171  0.2205 -0.3769
 4453SOL    HW217578   0.452   1.779   1.989 -1.9048  1.6056 -1.1071
 4453SOL    HW317579   0.468   1.811   1.842  0.2311  2.1082 -0.7895
 4453SOL    MW417580   0.501   1.806   1.923  0.0338  0.3138 -0.2053
 4454SOL     OW17581   4.436   0.284   1.062  0.1741 -0.2418 -0.6414
 4454SOL    HW217582   4.345   0.305   1.080  0.2335 -0.7000  0.2289
 4454SOL    HW317583   4.483   0.366   1.074  0.1645 -0.4509  1.0443
 4454SOL    MW417584   4.430   0.297   1.066  0.5994 -0.0911  0.3347
 4455SOL     OW17585   4.532   6.008   2.330 -0.1309  0.5614 -0.3145
 4455SOL    HW217586   4.475   6.081   2.354 -1.5738 -0.6299  0.0677
 4455SOL    HW317587   4.577   5.985   2.411 -1.6004 -0.5534  0.2463
 4455SOL    MW417588   4.530   6.015   2.344 -0.2532 -0.5179  0.6532
 4456SOL     OW17589   3.935   3.924   5.884 -0.4235  0.2438  1.2087
 4456SOL    HW217590   3.953   3.869   5.807  1.5078 -1.2489  2.6195
 4456SOL    HW317591   3.943   4.014   5.852  4.4965 -0.2361  0.3425
 4456SOL    MW417592   3.938   3.929   5.869 -0.2672 -0.1521 -0.0400
 4457SOL     OW17593   3.454   6.306   0.525 -0.2109  0.7088  0.7214
 4457SOL    HW217594   3.445   6.365   0.599 -0.1599  1.5575  0.0720
 4457SOL    HW317595   3.364   6.289   0.496 -0.1657  2.1007 -0.3242
 4457SOL    MW417596   3.441   6.312   0.531 -0.6801  1.0899 -0.4600
 4458SOL     OW17597   0.949   1.415   6.248  0.1467  0.1555 -0.7630
 4458SOL    HW217598   0.967   1.463   6.168  0.6482  1.3072  0.0248
 4458SOL    HW317599   1.023   1.433   6.305 -0.6542  0.1289  0.3251
 4458SOL    MW417600   0.961   1.424   6.245 -0.0844 -0.0683  0.3184
 4459SOL     OW17601   0.432   6.404   5.492  0.3946  0.1506 -0.6631
 4459SOL    HW217602   0.482   6.421   5.412 -0.1159  1.0821 -0.8030
 4459SOL    HW317603   0.464   6.469   5.554 -0.8839  1.0296 -0.8798
 4459SOL    MW417604   0.442   6.415   5.489 -0.3083 -0.1745 -0.3531
 4460SOL     OW17605   6.393   5.727   1.731  0.4006  0.3942  0.0155
 4460SOL    HW217606   6.385   5.819   1.708 -0.0083  0.4108  0.2176
 4460SOL    HW317607   6.476   5.721   1.778  1.0705  0.4262 -1.1279
 4460SOL    MW417608   6.403   5.738   1.734  0.0468  0.0983  0.2821
 4461SOL     OW17609   0.455   2.218   0.303  0.0837  0.5545 -0.0023
 4461SOL    HW217610   0.434   2.309   0.322  0.3078  0.8723 -1.2102
 4461SOL    HW317611   0.543   2.220   0.266  1.5588 -0.5459  3.0794
 4461SOL    MW417612   0.464   2.230   0.300 -0.2849  0.0221 -0.0219
 4462SOL     OW17613   1.741   3.800   1.989 -0.2095  0.0146 -0.6927
 4462SOL    HW217614   1.671   3.845   1.942 -1.9201 -1.0195  0.6934
 4462SOL    HW317615   1.704   3.784   2.076  1.9376 -0.2129  0.2274
 4462SOL    MW417616   1.727   3.804   1.994  0.0373 -0.0334  0.2691
 4463SOL     OW17617   5.978   0.307   2.216  0.1226 -0.4783 -0.2141
 4463SOL    HW217618   5.933   0.302   2.301 -0.9723  1.8971 -0.5661
 4463SOL    HW317619   5.919   0.359   2.161  2.3729  1.0360 -1.3527
 4463SOL    MW417620   5.964   0.313   2.220 -0.1758 -0.0404 -0.4317
 4464SOL     OW17621   1.984   4.167   0.650 -0.2675 -0.0016 -0.1043
 4464SOL    HW217622   2.067   4.154   0.605 -0.6112  0.8578 -1.0331
 4464SOL    HW317623   2.001   4.143   0.741  1.1627  0.7389 -0.1527
 4464SOL    MW417624   1.997   4.162   0.656 -0.3287  0.2557  0.4657
 4465SOL     OW17625   0.122   6.182   1.159  0.7836 -0.4895  0.2005
 4465SOL    HW217626   0.197   6.179   1.100  0.6668 -2.0902  0.0824
 4465SOL    HW317627   0.144   6.121   1.229 -1.7480 -3.7820 -1.5839
 4465SOL    MW417628   0.135   6.173   1.160  0.5937 -0.2093 -0.1772
 4466SOL     OW17629   2.860   6.347   1.646  0.5946 -0.3329 -0.2502
 4466SOL    HW217630   2.926   6.374   1.582 -0.2050  0.3977 -0.7956
 4466SOL    HW317631   2.841   6.256   1.624  0.0544  0.0131 -1.3371
 4466SOL    MW417632   2.866   6.339   1.635  0.3415  0.5493  0.3076
 4467SOL     OW17633   0.851   2.828   4.412  0.4031 -0.0980 -0.1053
 4467SOL    HW217634   0.785   2.835   4.343  0.1942 -2.7222 -0.2691
 4467SOL    HW317635   0.922   2.778   4.372  0.7298 -0.7679  1.2563
 4467SOL    MW417636   0.852   2.823   4.398 -0.0709  0.0945  0.2656
 4468SOL     OW17637   1.952   1.101   4.361  0.2903 -0.4919 -0.0310
 4468SOL    HW217638   1.948   1.015   4.319 -0.1609 -0.7155  0.4670
 4468SOL    HW317639   2.030   1.142   4.323 -0.9163 -0.0972 -2.1937
 4468SOL    MW417640   1.962   1.095   4.351  0.2597  0.0537 -0.0635
 4469SOL     OW17641   0.559   5.167   1.163 -0.4778  0.5590 -0.7925
 4469SOL    HW217642   0.507   5.092   1.192  1.1939 -0.4861 -0.3888
 4469SOL    HW317643   0.520   5.241   1.208 -1.1408 -0.3056  0.1052
 4469SOL    MW417644   0.547   5.167   1.173 -0.0928 -0.0422 -0.1058
 4470SOL     OW17645   3.997   3.414   5.177  0.0645 -0.1643  0.1492
 4470SOL    HW217646   3.993   3.509   5.189 -1.3272 -0.3295  1.2507
 4470SOL    HW317647   4.058   3.401   5.105 -1.9913  1.7668 -2.0927
 4470SOL    MW417648   4.004   3.425   5.169  0.1909 -0.0174  0.1643
 4471SOL     OW17649   1.878   3.069   5.989  0.1229  0.2526  0.2984
 4471SOL    HW217650   1.885   2.974   5.985 -0.3980  0.2064  0.4731
 4471SOL    HW317651   1.939   3.095   6.059  1.1137  0.1513 -0.5113
 4471SOL    MW417652   1.887   3.060   5.998  0.2261 -0.8982 -0.5286
 4472SOL     OW17653   6.407   1.689   3.935 -0.1827  0.0357  0.1920
 4472SOL    HW217654   6.407   1.663   4.027 -0.5344 -0.7597 -0.0271
 4472SOL    HW317655   6.499   1.707   3.916  0.3910 -2.7077 -0.0859
 4472SOL    MW417656   6.419   1.688   3.945 -0.3285 -0.0504 -0.5131
 4473SOL     OW17657   0.349   1.310   0.475 -0.5913  0.2030 -0.5342
 4473SOL    HW217658   0.442   1.288   0.477 -0.4985  0.4176 -1.6581
 4473SOL    HW317659   0.344   1.387   0.419 -1.4787  0.0242 -0.7204
 4473SOL    MW417660   0.361   1.317   0.468  0.2773 -0.2526 -0.2081
 4474SOL     OW17661   0.431   3.544   5.857 -0.3474 -0.4209 -0.5779
 4474SOL    HW217662   0.344   3.545   5.817 -1.4779 -1.1371  1.7063
 4474SOL    HW317663   0.418   3.500   5.941  2.1463 -0.1184  0.0345
 4474SOL    MW417664   0.418   3.538   5.863  0.1397  0.3677  0.3282
 4475SOL     OW17665   3.608   5.321   4.508 -0.1479  0.1624  0.2688
 4475SOL    HW217666   3.683   5.357   4.460 -0.4987 -0.3283 -0.6808
 4475SOL    HW317667   3.609   5.367   4.592 -0.6878  2.5177 -0.9432
 4475SOL    MW417668   3.618   5.332   4.513  0.4094  0.3356 -0.2451
 4476SOL     OW17669   1.774   6.040   0.102 -0.1304 -0.1510 -0.2842
 4476SOL    HW217670   1.736   6.071   0.019  0.7930  0.2307 -0.5816
 4476SOL    HW317671   1.791   5.947   0.087  3.8623  0.6358 -2.1392
 4476SOL    MW417672   1.771   6.032   0.089 -0.4361  0.0053  0.1504
 4477SOL     OW17673   5.223   5.952   6.335 -0.3069  0.1476 -0.3560
 4477SOL    HW217674   5.161   5.923   6.269 -0.1909 -0.5640 -0.1644
 4477SOL    HW317675   5.194   6.040   6.359 -1.3474 -0.2491 -0.1270
 4477SOL    MW417676   5.211   5.960   6.329 -0.0670 -0.0050 -0.1526
 4478SOL     OW17677   2.244   2.498   3.118 -0.6727 -0.1847 -0.2795
 4478SOL    HW217678   2.257   2.447   3.198 -0.2873 -1.0591 -0.8772
 4478SOL    HW317679   2.189   2.442   3.063  0.0996 -0.1491 -1.1149
 4478SOL    MW417680   2.239   2.484   3.121 -0.1260 -0.2264  0.2760
 4479SOL     OW17681   4.525   1.092   5.105  0.3185 -0.3919 -0.0837
 4479SOL    HW217682   4.500   1.046   5.185  1.3462 -1.3875 -0.2992
 4479SOL    HW317683   4.572   1.169   5.135 -3.2989  1.8905  0.3571
 4479SOL    MW417684   4.528   1.096   5.119 -0.6820 -0.4557  0.1963
 4480SOL     OW17685   3.478   3.725   5.999  0.1383 -0.2312 -0.5915
 4480SOL    HW217686   3.479   3.705   5.905 -0.3872 -0.8984 -0.4628
 4480SOL    HW317687   3.571   3.726   6.024  0.2500 -0.9697 -0.9347
 4480SOL    MW417688   3.490   3.722   5.990  0.3922 -0.2196  0.2174
 4481SOL     OW17689   4.198   2.133   4.640 -0.2153  0.2098  0.4427
 4481SOL    HW217690   4.189   2.218   4.599 -0.3918  1.1973  2.4167
 4481SOL    HW317691   4.237   2.151   4.726 -0.7922 -1.6231  1.1473
 4481SOL    MW417692   4.202   2.146   4.646  0.0179 -0.1671 -0.1427
 4482SOL     OW17693   2.933   4.281   3.575 -0.2575  0.1901  0.3279
 4482SOL    HW217694   3.010   4.246   3.619 -0.3078  0.3426  0.5408
 4482SOL    HW317695   2.967   4.331   3.502 -0.2082 -0.8173 -0.3571
 4482SOL    MW417696   2.948   4.283   3.571  0.6155 -0.4516  0.2391
 4483SOL     OW17697   0.476   4.964   0.947 -0.1956 -0.0647  0.3504
 4483SOL    HW217698   0.435   4.955   1.034 -1.8610 -1.4463 -0.5143
 4483SOL    HW317699   0.458   4.881   0.903  2.3186 -0.1516 -0.6731
 4483SOL    MW417700   0.468   4.952   0.953 -0.2811  0.2033 -0.1266
 4484SOL     OW17701   2.676   3.517   1.784 -0.3360 -0.3109  0.0186
 4484SOL    HW217702   2.732   3.589   1.754 -0.8164  0.4242  0.8336
 4484SOL    HW317703   2.737   3.450   1.814  0.1216  0.3032  0.4823
 4484SOL    MW417704   2.691   3.518   1.784  0.6718  0.1097  0.2280
 4485SOL     OW17705   1.186   4.235   0.243 -0.2697 -0.2392 -1.0419
 4485SOL    HW217706   1.120   4.188   0.294 -0.1622  0.8716  0.1713
 4485SOL    HW317707   1.264   4.180   0.249 -0.3736 -0.3219 -0.3325
 4485SOL    MW417708   1.188   4.222   0.250 -0.3022 -0.6210  0.7778
 4486SOL     OW17709   0.056   1.550   1.466  0.1565  0.0731  0.1701
 4486SOL    HW217710   0.080   1.634   1.505  0.9192  0.0576 -0.2395
 4486SOL    HW317711   0.106   1.485   1.516 -1.0411 -0.2360  1.0182
 4486SOL    MW417712   0.066   1.552   1.478 -0.4326  0.1945  0.2795
 4487SOL     OW17713   0.645   1.486   6.317  0.3766  0.6446 -0.5706
 4487SOL    HW217714   0.620   1.396   6.338 -1.3675  0.8397 -1.6532
 4487SOL    HW317715   0.740   1.481   6.302  0.2706 -1.0713 -0.9211
 4487SOL    MW417716   0.654   1.473   6.318 -0.0359  0.8280  0.0166
 4488SOL     OW17717   5.454   2.605   0.270  0.0028  0.1133 -0.3116
 4488SOL    HW217718   5.514   2.677   0.251  0.3503  0.3354  1.4017
 4488SOL    HW317719   5.511   2.535   0.303 -0.6040  0.0822  0.6988
 4488SOL    MW417720   5.469   2.605   0.272  0.5544 -0.5295  0.0641
 4489SOL     OW17721   5.808   5.759   5.221 -0.4545 -0.0025  0.7224
 4489SOL    HW217722   5.752   5.702   5.273 -0.2509 -0.6306  0.2691
 4489SOL    HW317723   5.895   5.718   5.225 -0.2398  0.4350  0.6317
 4489SOL    MW417724   5.812   5.746   5.229  0.2578 -0.3053 -0.5120
 4490SOL     OW17725   5.646   0.758   3.045  0.7321 -0.3530  0.0161
 4490SOL    HW217726   5.698   0.834   3.071  0.5750  0.3855 -1.6930
 4490SOL    HW317727   5.711   0.693   3.016  0.8063 -0.4469  0.3809
 4490SOL    MW417728   5.662   0.759   3.045 -0.0636 -0.2847 -0.3442
 4491SOL     OW17729   4.154   2.297   4.017 -0.5164 -0.0228  0.2323
 4491SOL    HW217730   4.203   2.362   3.967 -0.2133  1.0311  1.8471
 4491SOL    HW317731   4.218   2.227   4.034 -0.7889 -0.7091 -1.3272
 4491SOL    MW417732   4.169   2.296   4.013  0.7517  0.7870  0.3897
 4492SOL     OW17733   2.408   3.571   0.367  0.3564  0.9452  0.3042
 4492SOL    HW217734   2.403   3.663   0.394  0.4686  0.7196  1.1179
 4492SOL    HW317735   2.497   3.544   0.389  0.5993  0.8706 -0.7216
 4492SOL    MW417736   2.419   3.580   0.374 -0.1075 -0.4058  0.1622
 4493SOL     OW17737   5.923   4.361   2.767 -0.1517 -0.1772  0.2247
 4493SOL    HW217738   5.994   4.426   2.771  1.0325 -1.3572 -0.5176
 4493SOL    HW317739   5.962   4.281   2.802 -1.0746 -0.8982 -0.3415
 4493SOL    MW417740   5.938   4.359   2.772 -0.1832 -0.2868 -0.4240
 4494SOL     OW17741   4.534   0.741   5.580  0.2931 -0.2363  0.0462
 4494SOL    HW217742   4.603   0.766   5.641  0.1724 -0.4140  0.2584
 4494SOL    HW317743   4.453   0.758   5.628  0.1840  0.1845 -0.2827
 4494SOL    MW417744   4.532   0.747   5.595 -0.2495  0.3606 -0.0564
 4495SOL     OW17745   0.402   1.994   4.398 -0.2108  0.6132  0.3193
 4495SOL    HW217746   0.306   1.995   4.392 -0.3076  2.5188  1.5080
 4495SOL    HW317747   0.431   2.049   4.325 -0.1425  1.8949  1.2993
 4495SOL    MW417748   0.393   2.001   4.387  0.0234 -0.3499  0.4428
 4496SOL     OW17749   1.224   3.768   4.927  0.0514 -0.6388  0.0424
 4496SOL    HW217750   1.187   3.683   4.904  0.2657 -0.8021  0.2956
 4496SOL    HW317751   1.178   3.794   5.007  0.9279 -1.1447  0.7304
 4496SOL    MW417752   1.213   3.760   4.934 -0.1175  0.1345 -0.4373
 4497SOL     OW17753   4.251   0.474   4.456 -0.1264 -0.1999 -0.1853
 4497SOL    HW217754   4.252   0.498   4.364  0.8327  1.0011  0.1134
 4497SOL    HW317755   4.159   0.471   4.480 -0.3365  0.7619 -0.8662
 4497SOL    MW417756   4.239   0.476   4.447  0.1130 -0.3854  0.0377
 4498SOL     OW17757   4.909   4.094   2.609 -0.0289 -0.1167 -0.6085
 4498SOL    HW217758   4.815   4.080   2.609 -0.0447 -0.0756  0.0484
 4498SOL    HW317759   4.946   4.006   2.613 -0.0634 -0.1090  0.0475
 4498SOL    MW417760   4.902   4.081   2.610  0.5049 -0.6062  0.1657
 4499SOL     OW17761   6.211   5.251   6.202  0.2809  0.0265 -0.5099
 4499SOL    HW217762   6.150   5.199   6.150  1.0584  1.0161 -2.4904
 4499SOL    HW317763   6.169   5.337   6.210  1.3426  0.7101 -1.8651
 4499SOL    MW417764   6.197   5.256   6.196 -0.1998 -0.0105  0.1443
 4500SOL     OW17765   3.536   3.316   4.275 -0.1534  0.6524  0.2796
 4500SOL    HW217766   3.530   3.391   4.217 -3.1747 -0.4519 -1.0261
 4500SOL    HW317767   3.454   3.268   4.262  0.5350 -1.5353  2.9191
 4500SOL    MW417768   3.524   3.319   4.266  0.4118  0.6623  0.7875
 4501SOL     OW17769   4.288   3.726   1.990  0.2699 -0.4629 -0.2613
 4501SOL    HW217770   4.367   3.755   1.944 -0.1117  1.1366  0.0285
 4501SOL    HW317771   4.254   3.806   2.032  0.2124 -1.7055  2.2297
 4501SOL    MW417772   4.294   3.741   1.989  0.0580  0.0060  0.2586
 4502SOL     OW17773   3.845   1.259   1.076  0.3498  0.1482 -0.3379
 4502SOL    HW217774   3.908   1.217   1.135  0.0530 -0.3591 -0.3781
 4502SOL    HW317775   3.895   1.328   1.032  0.8243 -0.1234 -0.2245
 4502SOL    MW417776   3.860   1.263   1.078 -0.0725  0.6907 -0.2311
 4503SOL     OW17777   2.977   5.854   1.566  0.4230  0.1463 -0.8809
 4503SOL    HW217778   2.932   5.802   1.632 -0.3007  0.1041 -1.3930
 4503SOL    HW317779   3.057   5.884   1.609  0.7611 -1.2100 -0.5071
 4503SOL    MW417780   2.982   5.851   1.580  0.2354 -0.7020  0.1403
 4504SOL     OW17781   1.287   5.447   0.757  0.3274 -0.3000 -0.2892
 4504SOL    HW217782   1.326   5.532   0.735  2.0921 -1.3155 -1.2245
 4504SOL    HW317783   1.290   5.443   0.852 -1.6986  1.5233 -0.0620
 4504SOL    MW417784   1.292   5.458   0.767 -0.0006 -0.0341  0.2487
 4505SOL     OW17785   3.433   5.936   5.941 -0.0722  0.3776  0.0088
 4505SOL    HW217786   3.523   5.963   5.962  0.2478 -1.6689  1.5282
 4505SOL    HW317787   3.380   6.013   5.961  1.0792  0.8292  1.5577
 4505SOL    MW417788   3.438   5.950   5.946 -0.2837 -0.1813 -0.2309
 4506SOL     OW17789   2.196   2.666   6.226  0.8873  0.5752  0.1190
 4506SOL    HW217790   2.169   2.757   6.231 -1.5491  0.0206 -1.0590
 4506SOL    HW317791   2.239   2.658   6.141 -1.3332  0.1707 -1.0569
 4506SOL    MW417792   2.198   2.677   6.215 -0.5334 -0.2455  0.3745
 4507SOL     OW17793   1.591   1.523   5.904  0.2165  0.3841 -0.2151
 4507SOL    HW217794   1.539   1.458   5.952  1.6528 -0.6332  0.0237
 4507SOL    HW317795   1.535   1.549   5.831 -0.3435 -1.2604 -0.4110
 4507SOL    MW417796   1.577   1.518   5.901 -0.0772 -0.0083 -0.0515
 4508SOL     OW17797   3.330   4.094   0.985 -0.1482  0.3958  0.3715
 4508SOL    HW217798   3.352   4.145   1.064  0.1832  0.5722  0.1687
 4508SOL    HW317799   3.408   4.101   0.930  0.3079 -1.1624  0.7601
 4508SOL    MW417800   3.344   4.102   0.988 -0.4415  0.0311 -0.4709
 4509SOL     OW17801   6.129   2.016   6.130 -0.0331  0.4278 -0.1513
 4509SOL    HW217802   6.104   2.063   6.210  1.3362  1.0412 -0.0587
 4509SOL    HW317803   6.210   2.059   6.101  0.9846 -1.5339 -0.3680
 4509SOL    MW417804   6.136   2.028   6.137  0.0773 -0.6848  0.0360
 4510SOL     OW17805   4.994   6.102   2.770  0.5694  0.0053 -0.1541
 4510SOL    HW217806   5.083   6.132   2.755  0.3730  0.5123 -0.3332
 4510SOL    HW317807   4.963   6.075   2.684  0.4196  0.1859 -0.1565
 4510SOL    MW417808   5.001   6.102   2.757  0.3383 -0.1584  0.4959
 4511SOL     OW17809   4.383   6.083   0.518 -0.2060  0.6552  0.5049
 4511SOL    HW217810   4.336   6.102   0.599 -1.7257 -0.1924 -0.1565
 4511SOL    HW317811   4.445   6.014   0.542 -0.9256  0.1222  0.8670
 4511SOL    MW417812   4.385   6.077   0.532  0.9568  0.1288  0.1562
 4512SOL     OW17813   3.047   3.685   3.364 -0.0265 -0.3805 -0.5530
 4512SOL    HW217814   2.955   3.705   3.379  0.1179  0.5791 -0.8394
 4512SOL    HW317815   3.049   3.593   3.339 -0.7263 -0.8728  1.0557
 4512SOL    MW417816   3.035   3.676   3.363 -0.1695 -0.3634  0.4362
 4513SOL     OW17817   6.363   5.624   5.725 -0.4260  0.0260  0.2865
 4513SOL    HW217818   6.412   5.589   5.650  0.0077  0.7097  0.2449
 4513SOL    HW317819   6.344   5.715   5.702  0.3224  0.4630  1.2810
 4513SOL    MW417820   6.367   5.631   5.712 -0.5418 -0.3110  0.4358
 4514SOL     OW17821   2.910   4.290   1.506  0.2085 -0.2446  0.6061
 4514SOL    HW217822   2.989   4.242   1.528 -0.0936 -0.9642  0.1527
 4514SOL    HW317823   2.872   4.315   1.590  1.1755  0.5436  0.8195
 4514SOL    MW417824   2.915   4.287   1.520 -0.0275 -0.2554  0.2720
 4515SOL     OW17825   4.540   2.176   5.206 -0.4606  0.4431 -0.7512
 4515SOL    HW217826   4.505   2.250   5.256 -1.0871  0.0287 -0.5634
 4515SOL    HW317827   4.534   2.102   5.267 -2.0781 -0.2660 -1.7089
 4515SOL    MW417828   4.535   2.176   5.221 -0.3289 -0.2300 -0.1816
 4516SOL     OW17829   3.942   2.733   0.398  0.2943 -0.4977 -0.0273
 4516SOL    HW217830   3.899   2.695   0.321 -0.7067  0.2371  0.1481
 4516SOL    HW317831   4.034   2.739   0.374  0.2409 -1.7010 -0.5871
 4516SOL    MW417832   3.948   2.729   0.385 -0.1948 -0.2906  0.3433
 4517SOL     OW17833   3.487   4.808   5.411 -0.4428  0.4263  0.1093
 4517SOL    HW217834   3.500   4.900   5.389  1.3546  0.2727  0.3757
 4517SOL    HW317835   3.550   4.761   5.357  0.4483 -0.3971  1.7829
 4517SOL    MW417836   3.497   4.814   5.401 -0.1805 -0.1053  0.2072
 4518SOL     OW17837   6.161   3.503   3.087  0.3693  0.3995  0.6161
 4518SOL    HW217838   6.172   3.416   3.047 -1.9375  0.2926  0.0604
 4518SOL    HW317839   6.101   3.488   3.160 -0.1355  1.5439  0.4477
 4518SOL    MW417840   6.155   3.490   3.091 -0.5590  0.0743 -0.2526
 4519SOL     OW17841   4.626   1.724   4.790  0.1592 -0.0214  0.1747
 4519SOL    HW217842   4.667   1.700   4.873  0.8178  2.3017  0.6009
 4519SOL    HW317843   4.676   1.800   4.760  1.0447 -1.7730 -3.2474
 4519SOL    MW417844   4.638   1.731   4.797 -0.0084  0.1149 -0.1725
 4520SOL     OW17845   0.540   0.486   3.224  0.1868 -0.4833  0.1221
 4520SOL    HW217846   0.525   0.394   3.245  1.7242 -0.6283  0.7196
 4520SOL    HW317847   0.528   0.491   3.130 -0.8340 -1.0899  0.2028
 4520SOL    MW417848   0.536   0.474   3.215 -0.3938 -0.3513  0.2116
 4521SOL     OW17849   0.638   3.756   3.533 -0.2498  0.5427  0.0421
 4521SOL    HW217850   0.675   3.804   3.607  1.2254 -1.5336  0.7522
 4521SOL    HW317851   0.680   3.670   3.537 -1.0590 -0.0560 -2.4999
 4521SOL    MW417852   0.648   3.751   3.543 -0.3746  0.0707  0.0391
 4522SOL     OW17853   6.365   3.954   2.536  0.0356  0.5554 -0.3882
 4522SOL    HW217854   6.295   3.912   2.485 -0.0163  0.0461  0.0941
 4522SOL    HW317855   6.411   3.882   2.578  0.8339  0.8928 -0.6639
 4522SOL    MW417856   6.362   3.939   2.535  0.1793  0.4117  0.0723
 4523SOL     OW17857   0.503   0.962   4.058  0.1434  0.0022 -0.2782
 4523SOL    HW217858   0.443   0.896   4.091  0.2567  0.6038  1.1828
 4523SOL    HW317859   0.565   0.977   4.129  0.1323  1.6657 -0.5722
 4523SOL    MW417860   0.503   0.955   4.072 -0.2519 -0.7699 -0.2999
 4524SOL     OW17861   2.376   6.382   0.948 -0.3487 -0.2748 -0.0040
 4524SOL    HW217862   2.362   6.399   1.041 -0.6010 -0.0995 -0.0745
 4524SOL    HW317863   2.398   6.289   0.944  0.2967 -0.1448  0.3022
 4524SOL    MW417864   2.377   6.372   0.960  0.4457  0.4285 -0.0625
 4525SOL     OW17865   3.960   3.637   2.160 -0.2201  0.0190 -0.6719
 4525SOL    HW217866   4.043   3.611   2.202 -0.4896  1.9433  1.1993
 4525SOL    HW317867   3.892   3.599   2.216 -0.5862  1.0911 -0.3741
 4525SOL    MW417868   3.962   3.629   2.173 -0.0682 -0.0903  0.5592
 4526SOL     OW17869   2.285   5.937   0.255  0.5889  0.5754  0.2103
 4526SOL    HW217870   2.234   6.011   0.288 -0.5023  0.6036 -1.3786
 4526SOL    HW317871   2.219   5.879   0.217  1.6282 -0.0619 -0.6665
 4526SOL    MW417872   2.270   5.939   0.254 -0.2997 -0.1402  0.0815
 4527SOL     OW17873   6.045   4.354   0.779  0.2136 -0.3683  0.1173
 4527SOL    HW217874   6.129   4.370   0.736 -0.2755 -0.3137 -0.8365
 4527SOL    HW317875   5.987   4.422   0.746 -0.2747 -0.5470  0.5869
 4527SOL    MW417876   6.049   4.365   0.769 -0.0340  0.6238 -0.4523
 4528SOL     OW17877   5.249   1.146   2.532 -0.2191  0.2275  0.1736
 4528SOL    HW217878   5.278   1.201   2.604  2.1379  0.1333 -0.6227
 4528SOL    HW317879   5.193   1.203   2.479 -1.1301  0.5921  1.4784
 4528SOL    MW417880   5.245   1.160   2.534  0.0939  0.1386 -0.2805
 4529SOL     OW17881   2.652   3.450   5.878  0.3116 -0.0265  0.2804
 4529SOL    HW217882   2.670   3.430   5.786  0.6996 -0.2566  0.4033
 4529SOL    HW317883   2.602   3.374   5.909 -0.8824  0.5951 -0.0512
 4529SOL    MW417884   2.648   3.437   5.870  0.1262 -1.0120 -0.2833
 4530SOL     OW17885   1.162   0.877   5.899 -0.5240 -0.9077 -0.2211
 4530SOL    HW217886   1.161   0.876   5.994  1.4337  0.9087 -0.1240
 4530SOL    HW317887   1.161   0.784   5.874  0.7232 -1.4640  1.6059
 4530SOL    MW417888   1.161   0.864   5.908  0.5874  0.0983 -0.4867
 4531SOL     OW17889   4.665   2.735   1.931  0.6216 -0.1872 -0.3272
 4531SOL    HW217890   4.638   2.687   2.010  1.1172  0.0313 -0.0125
 4531SOL    HW317891   4.584   2.766   1.892  0.2922 -1.2472 -0.5189
 4531SOL    MW417892   4.651   2.733   1.937 -0.7089  0.0085 -0.5020
 4532SOL     OW17893   0.344   1.665   4.075 -0.6976 -0.2820 -0.3160
 4532SOL    HW217894   0.335   1.703   3.988  0.3387 -1.4709 -0.9639
 4532SOL    HW317895   0.428   1.698   4.107 -1.8299  1.5097  0.9601
 4532SOL    MW417896   0.354   1.674   4.068  0.4127 -0.1874  0.7685
 4533SOL     OW17897   3.412   0.238   3.572  0.0043  0.1384  0.4497
 4533SOL    HW217898   3.421   0.272   3.482  1.5179 -2.2987 -0.4127
 4533SOL    HW317899   3.497   0.255   3.612 -0.3691  0.3892  1.1491
 4533SOL    MW417900   3.424   0.245   3.565 -0.0282 -0.3340  0.0685
 4534SOL     OW17901   0.398   5.085   4.343  0.4263  0.1288  0.2850
 4534SOL    HW217902   0.442   5.102   4.260  0.4487 -0.1183  0.2459
 4534SOL    HW317903   0.363   4.996   4.334 -0.5521  0.5105  0.0980
 4534SOL    MW417904   0.399   5.076   4.331 -0.0630  0.1679 -0.1118
 4535SOL     OW17905   5.351   0.909   0.391 -0.5230  0.2033  0.1985
 4535SOL    HW217906   5.371   0.907   0.485 -0.6726 -1.7490  0.2274
 4535SOL    HW317907   5.287   0.839   0.379 -1.6459  1.3913 -1.1368
 4535SOL    MW417908   5.345   0.900   0.402 -0.2152  0.1684  0.1220
 4536SOL     OW17909   4.336   4.758   3.042  0.6257 -0.4410 -0.4065
 4536SOL    HW217910   4.424   4.796   3.047 -0.3567  1.9965 -0.2705
 4536SOL    HW317911   4.294   4.803   2.969 -1.1590 -0.0179  0.8125
 4536SOL    MW417912   4.342   4.769   3.033 -0.3923  0.2091 -0.2604
 4537SOL     OW17913   4.567   5.523   2.372 -0.5070 -0.2374 -0.1370
 4537SOL    HW217914   4.566   5.428   2.388  1.3543 -0.4192 -0.7909
 4537SOL    HW317915   4.568   5.562   2.460 -1.7073 -0.7869  0.1404
 4537SOL    MW417916   4.567   5.515   2.386 -0.3759 -0.3955  0.1070
 4538SOL     OW17917   0.113   0.262   4.800  0.2593 -0.5148  0.0053
 4538SOL    HW217918   0.056   0.297   4.869  0.0947 -3.4785  1.5036
 4538SOL    HW317919   0.188   0.321   4.799 -1.2607  1.5456  0.3026
 4538SOL    MW417920   0.115   0.275   4.809  0.5172 -0.1821 -0.2976
 4539SOL     OW17921   1.229   5.413   4.381  0.4460  0.6619  0.3379
 4539SOL    HW217922   1.213   5.333   4.331  0.1761 -0.4389  2.0830
 4539SOL    HW317923   1.312   5.398   4.425 -0.0376  0.9387  1.3887
 4539SOL    MW417924   1.238   5.400   4.380  0.0796  0.0081 -0.4766
 4540SOL     OW17925   5.308   4.113   1.247  0.1294 -0.3311 -0.3790
 4540SOL    HW217926   5.242   4.086   1.311  0.6315 -0.6132  0.0285
 4540SOL    HW317927   5.293   4.056   1.171 -1.8252  1.3692 -1.3949
 4540SOL    MW417928   5.297   4.102   1.245  0.1993  0.6708 -0.0378
 4541SOL     OW17929   4.569   3.162   6.032 -0.2919  0.4470  0.3827
 4541SOL    HW217930   4.615   3.131   5.954 -0.2500  0.6270  0.3348
 4541SOL    HW317931   4.534   3.083   6.072 -2.5592  0.5416 -1.2183
 4541SOL    MW417932   4.570   3.148   6.027  1.0024 -0.0973  1.0784
 4542SOL     OW17933   2.767   6.308   4.322 -0.0395 -0.0149  0.0113
 4542SOL    HW217934   2.717   6.354   4.390  0.7696  1.3455 -0.2809
 4542SOL    HW317935   2.765   6.216   4.349 -0.7421  0.3375  1.2308
 4542SOL    MW417936   2.760   6.302   4.335  0.6312  0.4342 -0.2958
 4543SOL     OW17937   5.208   0.881   3.701 -0.3106 -0.0563  0.4269
 4543SOL    HW217938   5.212   0.794   3.740  0.6034  0.0670  0.6277
 4543SOL    HW317939   5.256   0.937   3.763 -3.6483  1.2859  2.0764
 4543SOL    MW417940   5.215   0.877   3.715 -0.0523 -0.5963 -0.4688
 4544SOL     OW17941   1.537   4.503   0.978  0.0787  0.2651  0.1411
 4544SOL    HW217942   1.580   4.422   1.004 -2.2806 -1.0471  0.1827
 4544SOL    HW317943   1.543   4.560   1.055  0.7303 -0.2796  0.5041
 4544SOL    MW417944   1.544   4.500   0.991  0.3285 -0.2104  0.0517
 4545SOL     OW17945   2.302   3.311   2.854 -0.2209  0.1333  0.3010
 4545SOL    HW217946   2.354   3.360   2.918  0.5469 -0.5057  0.1802
 4545SOL    HW317947   2.313   3.360   2.773  2.7616 -1.6158 -0.4837
 4545SOL    MW417948   2.310   3.324   2.852  0.6533 -0.4260  0.0565
 4546SOL     OW17949   5.296   3.464   0.525  0.1471 -0.3981 -0.5768
 4546SOL    HW217950   5.343   3.545   0.550  0.2513 -0.6060 -0.0786
 4546SOL    HW317951   5.254   3.436   0.606 -1.4898  0.1986 -1.1805
 4546SOL    MW417952   5.297   3.471   0.539 -0.2922 -0.4000  0.5929
 4547SOL     OW17953   2.079   0.174   4.191  0.6566 -0.2075 -0.0949
 4547SOL    HW217954   2.147   0.134   4.246  0.5335  0.3899  0.5051
 4547SOL    HW317955   1.998   0.132   4.219  0.7660 -0.9242 -0.8149
 4547SOL    MW417956   2.077   0.163   4.202  0.3266  0.3336  0.4194
 4548SOL     OW17957   5.402   6.250   3.740  0.4564  0.2101 -0.6370
 4548SOL    HW217958   5.359   6.212   3.664 -1.1728  2.3837 -0.8833
 4548SOL    HW317959   5.352   6.217   3.815  0.6786 -0.1623 -0.6482
 4548SOL    MW417960   5.390   6.241   3.740 -0.0798  0.3658  0.1121
 4549SOL     OW17961   0.727   2.245   4.443  0.4393  0.1656  0.1997
 4549SOL    HW217962   0.799   2.248   4.506  0.4651 -2.1131  0.3620
 4549SOL    HW317963   0.709   2.337   4.423  2.1350  0.8582  1.5676
 4549SOL    MW417964   0.734   2.258   4.448  0.3631 -0.1077 -0.1473
 4550SOL     OW17965   0.673   4.628   2.893  0.1313 -0.5765  0.4643
 4550SOL    HW217966   0.690   4.721   2.877  0.9159 -0.4578  1.8230
 4550SOL    HW317967   0.737   4.582   2.839  0.1413 -0.3110  0.2488
 4550SOL    MW417968   0.683   4.634   2.884 -0.0697 -0.5947  0.3833
 4551SOL     OW17969   3.289   2.204   5.961 -0.2972 -0.0935 -0.3640
 4551SOL    HW217970   3.373   2.159   5.962 -0.5424 -0.5639  1.0341
 4551SOL    HW317971   3.228   2.139   5.924 -0.5553 -0.8125  1.2058
 4551SOL    MW417972   3.292   2.189   5.956 -0.0672 -0.4073 -0.1588
 4552SOL     OW17973   4.424   4.378   6.048 -0.6055 -0.5466 -0.8405
 4552SOL    HW217974   4.354   4.443   6.052 -0.4523 -0.2496 -2.3648
 4552SOL    HW317975   4.403   4.315   6.117 -0.7622  1.0868  0.6727
 4552SOL    MW417976   4.412   4.378   6.058  0.1101  0.4543 -0.0675
 4553SOL     OW17977   2.344   0.486   2.845 -0.7168 -0.0882  0.0210
 4553SOL    HW217978   2.345   0.558   2.782  0.4574  0.2556  0.4136
 4553SOL    HW317979   2.370   0.409   2.794  1.1496  0.3531  0.2346
 4553SOL    MW417980   2.347   0.486   2.830  0.4724  0.8620  0.1320
 4554SOL     OW17981   1.417   2.045   5.566  0.2025 -0.5374 -0.8651
 4554SOL    HW217982   1.472   1.975   5.530  0.4429  0.2674 -2.1262
 4554SOL    HW317983   1.354   2.064   5.496  0.0591  0.4091 -0.4852
 4554SOL    MW417984   1.416   2.038   5.552 -0.5905  0.5609 -0.7001
 4555SOL     OW17985   5.882   4.818   3.895  0.1567 -0.0801 -0.1754
 4555SOL    HW217986   5.895   4.751   3.827 -1.6663 -1.1409  0.4396
 4555SOL    HW317987   5.968   4.829   3.934  1.1721  0.2228 -2.3197
 4555SOL    MW417988   5.895   4.811   3.891 -0.3684  0.0418 -0.2731
 4556SOL     OW17989   4.241   6.366   1.326  0.1227  0.1126 -0.6268
 4556SOL    HW217990   4.323   6.396   1.288  0.3277 -0.2027 -0.4358
 4556SOL    HW317991   4.223   6.283   1.282 -0.4139  0.4784 -1.1121
 4556SOL    MW417992   4.249   6.359   1.315  0.4751 -0.0349  0.4066
 4557SOL     OW17993   0.497   5.132   0.101 -0.1601  0.2522 -0.2453
 4557SOL    HW217994   0.501   5.050   0.053 -0.8675  1.0956 -1.8040
 4557SOL    HW317995   0.523   5.199   0.038 -0.7637  1.3657  0.6421
 4557SOL    MW417996   0.501   5.130   0.087  0.0865 -0.6134 -0.1654
 4558SOL     OW17997   4.776   6.121   2.034 -1.0353 -0.0868 -0.5493
 4558SOL    HW217998   4.761   6.181   1.961  0.9724 -0.4259 -1.2992
 4558SOL    HW317999   4.707   6.055   2.026 -1.2476  0.2601 -1.7248
 4558SOL    MW418000   4.765   6.120   2.023 -0.4517 -0.5830  0.4214
 4559SOL     OW18001   1.782   1.973   5.352 -0.4893  0.5058  0.1335
 4559SOL    HW218002   1.827   1.899   5.311 -0.8541 -0.9085  2.1189
 4559SOL    HW318003   1.701   1.935   5.387 -2.8352  2.7314 -2.3965
 4559SOL    MW418004   1.777   1.958   5.351  0.0898  0.2028 -0.1632
 4560SOL     OW18005   3.792   4.481   0.365 -0.3483  0.4312 -0.2391
 4560SOL    HW218006   3.746   4.556   0.328  4.7445  3.4081 -1.4714
 4560SOL    HW318007   3.826   4.433   0.289 -0.4342 -1.0098  0.5882
 4560SOL    MW418008   3.791   4.484   0.350 -0.0685 -0.6330 -0.2747
 4561SOL     OW18009   0.310   0.721   2.384 -0.2350 -0.6535  0.0976
 4561SOL    HW218010   0.403   0.698   2.389 -0.5263 -1.6708  1.8002
 4561SOL    HW318011   0.273   0.687   2.465 -1.8424  0.9927  0.1209
 4561SOL    MW418012   0.317   0.714   2.395  0.5354 -0.3507  0.4254
 4562SOL     OW18013   3.569   3.026   1.818  0.2880  0.2216 -0.2942
 4562SOL    HW218014   3.486   3.074   1.814  1.7399  3.1745  1.8505
 4562SOL    HW318015   3.569   2.984   1.904  1.6731  1.6628  0.4467
 4562SOL    MW418016   3.558   3.027   1.829 -0.3102  0.0188  0.2575
 4563SOL     OW18017   1.736   1.765   3.395  0.5494 -0.4805  0.6099
 4563SOL    HW218018   1.721   1.691   3.336  1.0564  0.6887 -1.0628
 4563SOL    HW318019   1.741   1.841   3.337 -0.6607  0.9965  2.3283
 4563SOL    MW418020   1.735   1.765   3.380 -0.5821  0.1731  0.4980
 4564SOL     OW18021   5.170   0.276   0.685 -0.8840 -0.7146  0.0458
 4564SOL    HW218022   5.202   0.306   0.600  1.6267 -3.0007  0.0708
 4564SOL    HW318023   5.213   0.192   0.699 -2.0575 -0.9268  3.1215
 4564SOL    MW418024   5.180   0.269   0.675  0.1688  0.1457 -0.2932
 4565SOL     OW18025   2.128   3.662   2.198  0.3543 -0.1870 -0.1977
 4565SOL    HW218026   2.165   3.643   2.284  1.6575  2.1401 -0.1753
 4565SOL    HW318027   2.134   3.578   2.151 -0.2029 -1.4478  1.8527
 4565SOL    MW418028   2.134   3.648   2.203  0.2571  0.2804  0.5190
 4566SOL     OW18029   4.377   0.369   5.197  0.0760  0.3055 -0.6687
 4566SOL    HW218030   4.394   0.423   5.274 -1.6584  0.7868 -0.5717
 4566SOL    HW318031   4.309   0.308   5.224 -0.0386 -0.0034 -1.6016
 4566SOL    MW418032   4.370   0.368   5.211 -0.0290 -0.6326  0.6480
 4567SOL     OW18033   5.809   1.859   1.802 -0.1457  0.0177  0.0839
 4567SOL    HW218034   5.799   1.914   1.881 -2.0537  1.4842 -1.0910
 4567SOL    HW318035   5.884   1.897   1.756  1.1230 -0.9847  1.2299
 4567SOL    MW418036   5.818   1.872   1.807  0.1903 -0.5304  0.0683
 4568SOL     OW18037   5.563   0.153   0.707 -0.0072  0.3305 -0.1783
 4568SOL    HW218038   5.647   0.108   0.720 -0.3732 -0.0532  0.9785
 4568SOL    HW318039   5.579   0.242   0.740  0.8516  1.2726 -2.8796
 4568SOL    MW418040   5.576   0.159   0.713 -0.2442  0.5561 -0.2860
 4569SOL     OW18041   1.035   6.061   5.630 -0.2674  0.0461  0.3096
 4569SOL    HW218042   1.087   6.098   5.701 -0.3521  2.4332 -0.7916
 4569SOL    HW318043   0.968   6.127   5.611  0.3042 -0.0598 -2.5468
 4569SOL    MW418044   1.033   6.074   5.637 -0.3165 -0.1240 -0.7458
 4570SOL     OW18045   1.167   0.375   5.463 -0.1226 -0.3907 -0.5090
 4570SOL    HW218046   1.199   0.412   5.545 -2.3047 -1.3649  0.8897
 4570SOL    HW318047   1.166   0.449   5.402 -1.2209  1.1064  1.2201
 4570SOL    MW418048   1.171   0.390   5.465  0.3361  0.4760 -0.4886
 4571SOL     OW18049   4.215   6.151   0.720  0.4620 -0.1464 -0.2094
 4571SOL    HW218050   4.275   6.186   0.786  1.3810 -1.8881 -0.0482
 4571SOL    HW318051   4.197   6.061   0.749 -0.3339 -0.4443 -1.5240
 4571SOL    MW418052   4.220   6.144   0.732 -0.3667  0.2341 -0.2394
 4572SOL     OW18053   5.552   1.785   2.591 -0.5293 -0.1059  0.2348
 4572SOL    HW218054   5.576   1.876   2.609 -0.1061 -0.2375  0.3484
 4572SOL    HW318055   5.461   1.778   2.621  0.2787 -0.4376  2.9474
 4572SOL    MW418056   5.543   1.796   2.598  0.0753  0.2543  0.2354
 4573SOL     OW18057   2.159   2.968   2.170  0.4183 -0.2174  0.4290
 4573SOL    HW218058   2.119   3.023   2.103 -0.9447  0.2815  1.5943
 4573SOL    HW318059   2.243   3.010   2.189 -0.2319  1.0073  0.7072
 4573SOL    MW418060   2.165   2.981   2.164  0.4365 -0.4486 -0.1476
 4574SOL     OW18061   0.185   0.236   2.453  0.8402 -0.3437  0.0104
 4574SOL    HW218062   0.268   0.264   2.413  0.0803  1.0053 -0.6775
 4574SOL    HW318063   0.138   0.191   2.383  0.7019 -0.5251  0.2159
 4574SOL    MW418064   0.190   0.234   2.438 -0.0060  0.1111 -0.6373
 4575SOL     OW18065   0.773   5.927   2.640  0.3994 -0.3959  0.3243
 4575SOL    HW218066   0.827   6.004   2.625 -1.0190  0.2575 -1.8464
 4575SOL    HW318067   0.831   5.853   2.619  1.9530 -0.0498  3.0087
 4575SOL    MW418068   0.788   5.927   2.635  0.4413  0.2891 -0.0163
 4576SOL     OW18069   3.718   4.090   3.728  0.2639  0.1002 -0.0980
 4576SOL    HW218070   3.772   4.084   3.807  0.4390  0.0549 -0.2206
 4576SOL    HW318071   3.630   4.069   3.758  0.2453  0.5784  0.1806
 4576SOL    MW418072   3.714   4.086   3.742  0.3985  0.0221 -0.3590
 4577SOL     OW18073   4.014   2.598   4.178  0.3745 -0.2603  0.2357
 4577SOL    HW218074   4.011   2.628   4.087 -3.3323 -0.4270  0.1358
 4577SOL    HW318075   4.004   2.678   4.230 -0.2457 -0.4140  0.3598
 4577SOL    MW418076   4.012   2.613   4.173 -0.4011 -0.1019  0.1171
 4578SOL     OW18077   3.460   3.276   3.556  0.1839 -0.1745  0.0931
 4578SOL    HW218078   3.379   3.247   3.514  0.2153  1.2783 -1.0398
 4578SOL    HW318079   3.462   3.371   3.542  0.4445  0.3366  3.0143
 4578SOL    MW418080   3.450   3.285   3.548  0.3211  0.2185  0.2726
 4579SOL     OW18081   5.126   1.403   4.838 -0.2519  0.3436  0.1623
 4579SOL    HW218082   5.198   1.361   4.791 -1.5045 -1.2376 -0.4839
 4579SOL    HW318083   5.108   1.344   4.912 -2.0985 -0.4112 -0.8006
 4579SOL    MW418084   5.133   1.390   4.842  0.0093 -0.5946  0.3048
 4580SOL     OW18085   0.621   0.009   0.155 -0.2984 -0.9220  0.0731
 4580SOL    HW218086   0.556  -0.029   0.214 -1.3781  0.3623 -0.2448
 4580SOL    HW318087   0.639  -0.060   0.091  0.2606 -2.0268  1.3782
 4580SOL    MW418088   0.615  -0.005   0.154  0.0490 -0.5277 -0.0480
 4581SOL     OW18089   0.525   4.884   3.020  0.2260 -0.0206 -0.0494
 4581SOL    HW218090   0.582   4.916   2.950  1.9425 -1.5061  0.5988
 4581SOL    HW318091   0.497   4.798   2.990 -2.3867  0.9555 -0.6897
 4581SOL    MW418092   0.529   4.877   3.006 -0.2501  0.3602  0.1455
 4582SOL     OW18093   3.901   0.340   3.467  0.5078 -0.1863 -0.2558
 4582SOL    HW218094   3.890   0.280   3.541 -0.6636 -0.7169 -0.8443
 4582SOL    HW318095   3.985   0.314   3.428  1.3543  0.3634  1.0910
 4582SOL    MW418096   3.911   0.329   3.472 -0.0946  0.1490  0.1694
 4583SOL     OW18097   1.085   3.594   5.163 -0.1332  0.3687 -0.3041
 4583SOL    HW218098   1.057   3.631   5.246 -0.8075 -1.3830  0.3060
 4583SOL    HW318099   1.014   3.534   5.138  1.0823 -0.8668 -0.9444
 4583SOL    MW418100   1.072   3.591   5.171 -0.5757  0.2898 -0.1079
 4584SOL     OW18101   5.412   2.410   5.534  0.2304 -0.3177  0.0479
 4584SOL    HW218102   5.455   2.328   5.561  1.9699  0.5239 -0.0406
 4584SOL    HW318103   5.429   2.417   5.441 -0.3013 -0.0614 -0.0347
 4584SOL    MW418104   5.420   2.400   5.526  0.4543 -0.3936 -0.9178
 4585SOL     OW18105   0.221   0.720   1.535  0.3474 -0.3992  0.0377
 4585SOL    HW218106   0.273   0.781   1.484 -0.3862  0.6323  0.4887
 4585SOL    HW318107   0.157   0.684   1.473 -1.2527  1.6651  0.3982
 4585SOL    MW418108   0.220   0.723   1.520 -0.0274  0.0737 -0.2135
 4586SOL     OW18109   5.253   6.377   1.796 -0.1156  0.0237 -0.2800
 4586SOL    HW218110   5.261   6.320   1.720 -0.5555 -0.9186  0.3584
 4586SOL    HW318111   5.183   6.439   1.772 -0.7938 -0.7566 -0.3556
 4586SOL    MW418112   5.245   6.378   1.783  0.0476 -0.0348 -0.7154
 4587SOL     OW18113   0.839   2.308   3.680  0.2784 -0.0238  0.2137
 4587SOL    HW218114   0.899   2.333   3.611  1.3668  1.1908  1.5336
 4587SOL    HW318115   0.813   2.218   3.659 -0.7975  0.8484 -2.6736
 4587SOL    MW418116   0.843   2.299   3.668 -0.2012 -0.3878 -0.5634
 4588SOL     OW18117   2.050   1.479   4.952  0.2039  0.3195  0.0223
 4588SOL    HW218118   2.054   1.571   4.926  0.3005 -0.0969 -1.5428
 4588SOL    HW318119   2.139   1.458   4.980  0.3421  0.5294 -0.2526
 4588SOL    MW418120   2.062   1.488   4.952 -0.2438  0.0345 -0.0714
 4589SOL     OW18121   4.925   4.777   0.706  0.3178 -0.1351  0.2127
 4589SOL    HW218122   5.000   4.717   0.713 -0.5063 -1.3142 -0.8024
 4589SOL    HW318123   4.946   4.847   0.769  1.5306 -1.2228  1.0934
 4589SOL    MW418124   4.938   4.779   0.715  0.4297 -0.4558  0.5672
 4590SOL     OW18125   0.041   3.534   0.479 -0.6717  0.2177 -0.4654
 4590SOL    HW218126   0.061   3.448   0.444 -0.2065 -0.2639  0.9077
 4590SOL    HW318127   0.070   3.595   0.411  1.9801 -0.5960 -0.1575
 4590SOL    MW418128   0.047   3.531   0.465 -0.7982 -0.5282 -0.3710
 4591SOL     OW18129   0.699   3.472   3.090  0.2269 -0.3777  0.0771
 4591SOL    HW218130   0.753   3.426   3.154  0.6203 -0.5583 -0.3842
 4591SOL    HW318131   0.721   3.564   3.102  2.0565 -0.5743 -1.3764
 4591SOL    MW418132   0.709   3.478   3.100 -0.0078 -0.1005  0.4328
 4592SOL     OW18133   4.273   4.953   2.109  0.0485 -0.6625 -0.0839
 4592SOL    HW218134   4.196   4.896   2.104 -0.9427  0.6920 -1.6700
 4592SOL    HW318135   4.257   5.009   2.186  0.3659 -1.5820  0.6662
 4592SOL    MW418136   4.260   4.953   2.118  0.0604 -0.2418  0.3388
 4593SOL     OW18137   5.632   1.653   4.028 -0.2615 -0.1156  0.0062
 4593SOL    HW218138   5.707   1.616   4.074  0.7283  1.6136 -0.1340
 4593SOL    HW318139   5.600   1.722   4.087 -1.5488 -0.6172 -0.0851
 4593SOL    MW418140   5.638   1.658   4.042 -0.3479 -0.0370  0.4480
 4594SOL     OW18141   5.374   2.368   4.670  0.4008  0.5881 -0.2859
 4594SOL    HW218142   5.430   2.325   4.735 -0.6612 -0.8200 -0.2539
 4594SOL    HW318143   5.337   2.443   4.717  1.2301  0.7838  0.0864
 4594SOL    MW418144   5.377   2.373   4.685  0.7299  0.0068 -0.2480
 4595SOL     OW18145   2.476   0.339   0.497 -0.3806 -0.0493  0.9979
 4595SOL    HW218146   2.515   0.352   0.584 -1.2207  0.0874  1.3589
 4595SOL    HW318147   2.503   0.251   0.472  1.1235  0.4598  0.7373
 4595SOL    MW418148   2.485   0.329   0.506 -0.4286  0.1137 -0.3879
 4596SOL     OW18149   2.420   5.743   0.398  0.0196 -0.3238 -0.2565
 4596SOL    HW218150   2.376   5.674   0.348 -0.1918 -0.4791  0.1420
 4596SOL    HW318151   2.389   5.824   0.357  0.6838 -0.4639 -1.0761
 4596SOL    MW418152   2.410   5.745   0.386 -0.2298  0.5148  0.3189
 4597SOL     OW18153   3.443   4.343   6.396  0.5327 -0.4604 -0.5424
 4597SOL    HW218154   3.532   4.360   6.427 -0.2615  0.5446  1.3742
 4597SOL    HW318155   3.429   4.251   6.414  0.2492  0.0015  1.8612
 4597SOL    MW418156   3.453   4.333   6.402  0.4211  0.2778 -0.1469
 4598SOL     OW18157   6.143   5.813   5.612  0.1750  0.1231  0.1218
 4598SOL    HW218158   6.111   5.759   5.685 -3.6808  0.4420 -1.1013
 4598SOL    HW318159   6.161   5.750   5.543  0.0113  0.0798  0.1175
 4598SOL    MW418160   6.141   5.797   5.613 -0.4691  0.9577 -0.0607
 4599SOL     OW18161   3.055   1.475   2.927 -0.2985  0.1980  0.3551
 4599SOL    HW218162   3.095   1.519   2.853 -0.4316  0.4319  0.4222
 4599SOL    HW318163   3.129   1.447   2.982 -0.2314  0.8136  0.5860
 4599SOL    MW418164   3.070   1.477   2.925 -0.1327  0.2572  0.5885
 4600SOL     OW18165   1.465   1.638   3.294  0.0490  0.5457 -0.6077
 4600SOL    HW218166   1.484   1.690   3.372  0.1551  0.7112 -0.7422
 4600SOL    HW318167   1.546   1.642   3.243  0.6456 -1.1228  0.1391
 4600SOL    MW418168   1.478   1.645   3.298  0.3616  0.3834 -0.1115
 4601SOL     OW18169   3.290   2.081   3.569 -0.5664  0.0486  0.5838
 4601SOL    HW218170   3.307   2.063   3.476 -0.7715 -2.6826  1.0034
 4601SOL    HW318171   3.369   2.126   3.599 -1.3020  2.8460 -1.2967
 4601SOL    MW418172   3.303   2.085   3.560  0.1714 -0.8831 -1.0291
 4602SOL     OW18173   5.829   3.478   1.952  0.1485 -0.0144  0.8065
 4602SOL    HW218174   5.763   3.542   1.977  0.0207 -0.1806  0.8998
 4602SOL    HW318175   5.791   3.394   1.977  0.7673 -0.0480  1.6892
 4602SOL    MW418176   5.815   3.475   1.959 -0.7394 -0.2685  0.0121
 4603SOL     OW18177   2.575   2.719   4.113  0.3343 -0.3075  0.0772
 4603SOL    HW218178   2.638   2.700   4.183  1.8433  0.1652 -1.0779
 4603SOL    HW318179   2.512   2.779   4.153  0.9513 -0.3350  1.1320
 4603SOL    MW418180   2.575   2.724   4.127 -0.2166  0.5250  0.6911
 4604SOL     OW18181   0.849   4.501   5.721  0.2385  0.3940  0.0008
 4604SOL    HW218182   0.853   4.587   5.763  0.6108  0.9511 -1.1434
 4604SOL    HW318183   0.766   4.503   5.673  0.9550  0.7245 -1.2680
 4604SOL    MW418184   0.838   4.513   5.720  0.0213 -0.3705  0.6070
 4605SOL     OW18185   0.161   1.516   0.749 -0.1334  0.1489 -0.1310
 4605SOL    HW218186   0.151   1.590   0.809 -4.0750 -0.9985  0.9232
 4605SOL    HW318187   0.193   1.445   0.805  0.0341  0.0844 -0.3096
 4605SOL    MW418188   0.164   1.516   0.765 -0.1432 -0.6597  0.1193
 4606SOL     OW18189   3.665   5.383   2.021 -0.2635  0.0048 -0.8100
 4606SOL    HW218190   3.741   5.354   2.072 -0.9343  0.6044  0.5873
 4606SOL    HW318191   3.687   5.472   1.995 -0.5142  0.2183 -0.3112
 4606SOL    MW418192   3.678   5.391   2.024 -0.4283 -0.6807  0.1195
 4607SOL     OW18193   2.777   2.814   5.761 -0.0686  0.8151  0.0836
 4607SOL    HW218194   2.751   2.779   5.846 -0.9564 -0.4449 -0.6707
 4607SOL    HW318195   2.706   2.789   5.702 -0.9757  4.2372 -0.4982
 4607SOL    MW418196   2.764   2.806   5.764  0.2637 -0.3036 -0.7062
 4608SOL     OW18197   0.909   5.151   3.697 -0.4890  0.4785 -0.2305
 4608SOL    HW218198   0.925   5.220   3.762 -0.7045  1.7655 -1.4976
 4608SOL    HW318199   0.930   5.191   3.613 -0.4410 -1.0743 -1.0071
 4608SOL    MW418200   0.914   5.165   3.695 -0.3945  0.4091  0.0468
 4609SOL     OW18201   2.830   1.928   2.470 -0.6530 -0.2344 -0.1159
 4609SOL    HW218202   2.795   1.985   2.539 -1.0359 -0.9244  0.2653
 4609SOL    HW318203   2.925   1.935   2.481 -0.6827  0.5875 -0.2880
 4609SOL    MW418204   2.838   1.936   2.481  0.0372 -0.2332  0.4917
 4610SOL     OW18205   2.734   2.221   3.951  0.1927  0.3242 -0.3679
 4610SOL    HW218206   2.685   2.234   4.032 -1.2918  1.0439 -1.3188
 4610SOL    HW318207   2.790   2.147   3.968 -2.0387 -1.2856  0.4846
 4610SOL    MW418208   2.735   2.213   3.964 -0.2543 -0.2103 -0.1020
 4611SOL     OW18209   0.281   5.957   2.791  0.1457  0.0451  0.1438
 4611SOL    HW218210   0.215   6.000   2.736  0.5940  1.3727  0.5956
 4611SOL    HW318211   0.346   5.924   2.730  0.3568  1.0199 -0.1826
 4611SOL    MW418212   0.281   5.958   2.776 -0.1026 -0.4370  0.2860
 4612SOL     OW18213   4.738   3.249   3.817  0.0291 -0.0717  0.3727
 4612SOL    HW218214   4.768   3.264   3.728 -0.9779  0.4064  0.1036
 4612SOL    HW318215   4.788   3.172   3.846  2.1190  1.1812  0.2725
 4612SOL    MW418216   4.749   3.241   3.809 -0.0642  0.1471 -0.2286
 4613SOL     OW18217   0.881   0.478   3.006  0.4879  0.2774  0.0858
 4613SOL    HW218218   0.892   0.439   2.920 -0.3014  1.9993 -0.8543
 4613SOL    HW318219   0.876   0.572   2.990 -2.8250  0.5231  1.5796
 4613SOL    MW418220   0.882   0.485   2.993  0.1630  0.0724 -0.5611
 4614SOL     OW18221   3.640   1.660   4.371 -0.6789  0.2164 -0.1628
 4614SOL    HW218222   3.634   1.707   4.455  0.1300  0.0109  0.0221
 4614SOL    HW318223   3.607   1.572   4.390 -0.7111  0.2391 -0.1148
 4614SOL    MW418224   3.635   1.655   4.385  0.3055  0.3228 -0.3489
 4615SOL     OW18225   3.187   5.413   1.637 -0.2551 -0.1775  0.5166
 4615SOL    HW218226   3.144   5.343   1.588 -0.7630 -1.3809  2.5792
 4615SOL    HW318227   3.272   5.377   1.662  0.7665  1.0784 -0.8961
 4615SOL    MW418228   3.192   5.399   1.634  0.0867  0.5222  0.0766
 4616SOL     OW18229   5.477   1.935   5.103 -0.5879 -0.3450 -0.1520
 4616SOL    HW218230   5.434   1.879   5.038 -1.2861  0.3090 -0.2745
 4616SOL    HW318231   5.406   1.962   5.161  0.1054 -1.3337  1.2150
 4616SOL    MW418232   5.462   1.931   5.102  0.3397 -0.0828 -0.1519
 4617SOL     OW18233   4.808   4.138   4.833  0.0957 -0.2178 -0.4635
 4617SOL    HW218234   4.780   4.102   4.748  1.0332  0.5180 -1.0995
 4617SOL    HW318235   4.768   4.224   4.837  1.2464  0.3478 -0.8340
 4617SOL    MW418236   4.799   4.144   4.822  0.0084  0.0183 -0.0348
 4618SOL     OW18237   3.615   2.421   0.661 -0.2498 -0.3544  0.3294
 4618SOL    HW218238   3.548   2.437   0.594 -0.9165  2.5388  1.5319
 4618SOL    HW318239   3.684   2.484   0.640 -0.5046  0.6505  2.3463
 4618SOL    MW418240   3.615   2.432   0.649  0.3307  0.2931 -0.0754
 4619SOL     OW18241   1.717   2.229   5.876 -0.2931  0.6758  0.1427
 4619SOL    HW218242   1.701   2.303   5.817 -0.3979  0.2197 -0.4104
 4619SOL    HW318243   1.635   2.180   5.876  0.2342 -0.2406 -0.6514
 4619SOL    MW418244   1.704   2.232   5.868  0.2096  0.8020  0.0644
 4620SOL     OW18245   3.639   1.583   3.367 -0.0570 -0.7658  0.1045
 4620SOL    HW218246   3.668   1.493   3.384 -0.7427 -0.6564  2.1363
 4620SOL    HW318247   3.720   1.630   3.346  0.4689 -1.5975  0.1987
 4620SOL    MW418248   3.654   1.577   3.366  0.6383  0.3236  0.7364
 4621SOL     OW18249   1.890   4.364   1.390  0.0988 -0.5917 -0.1005
 4621SOL    HW218250   1.798   4.355   1.415  0.4177 -0.1015  1.3283
 4621SOL    HW318251   1.937   4.374   1.473  1.2376  0.9799 -0.8811
 4621SOL    MW418252   1.884   4.364   1.404  1.0547  0.7106  0.0237
 4622SOL     OW18253   4.634   6.232   2.834 -0.2056 -0.4895 -0.4619
 4622SOL    HW218254   4.653   6.324   2.855  3.7180 -0.9450 -1.3106
 4622SOL    HW318255   4.624   6.231   2.739  1.1454 -1.0914 -0.6134
 4622SOL    MW418256   4.635   6.244   2.824 -0.6921 -0.1363 -0.8088
 4623SOL     OW18257   6.080   5.346   5.158 -0.3632  0.4382 -0.0545
 4623SOL    HW218258   6.141   5.272   5.158  0.9619  1.4839 -1.2102
 4623SOL    HW318259   5.998   5.309   5.193  0.8258 -1.0613  1.3098
 4623SOL    MW418260   6.077   5.331   5.162  0.3093  0.1713  0.0429
 4624SOL     OW18261   2.261   0.547   4.499 -0.2107 -0.1289 -0.0484
 4624SOL    HW218262   2.308   0.539   4.582  0.4213  0.9054 -0.2916
 4624SOL    HW318263   2.269   0.639   4.475  0.0292 -0.4911 -1.5004
 4624SOL    MW418264   2.268   0.558   4.507  0.3757  0.1206 -0.3079
 4625SOL     OW18265   4.071   5.255   1.933 -0.4179  0.3718  0.2248
 4625SOL    HW218266   3.997   5.216   1.886  0.4544 -1.0775 -0.0394
 4625SOL    HW318267   4.148   5.227   1.882  0.6302 -1.7064  2.7121
 4625SOL    MW418268   4.072   5.246   1.920  0.3798 -0.1005  0.7128
 4626SOL     OW18269   2.807   1.496   1.813  0.3639 -0.0599 -0.2289
 4626SOL    HW218270   2.723   1.510   1.768  1.7326  0.8874 -2.6530
 4626SOL    HW318271   2.817   1.574   1.868 -0.5420 -0.4157  0.4769
 4626SOL    MW418272   2.797   1.508   1.814 -0.3029  0.1789 -0.6799
 4627SOL     OW18273   1.915   2.570   1.156  0.4360 -0.2965 -0.1228
 4627SOL    HW218274   1.978   2.604   1.092 -0.8425  1.2738 -0.5985
 4627SOL    HW318275   1.870   2.499   1.109 -0.1543  0.5205 -0.8327
 4627SOL    MW418276   1.917   2.565   1.141  0.1610  0.1304 -0.2195
 4628SOL     OW18277   3.453   0.345   2.568  0.1244  0.3092 -0.1924
 4628SOL    HW218278   3.387   0.283   2.536  0.1450 -0.2693  0.8286
 4628SOL    HW318279   3.404   0.404   2.626  0.3140  0.5316 -0.2597
 4628SOL    MW418280   3.438   0.345   2.572 -0.4255 -0.1687  0.1123
 4629SOL     OW18281   6.108   0.390   1.769  0.3248 -0.9432  0.0930
 4629SOL    HW218282   6.163   0.347   1.704  0.8930 -1.1051  0.6657
 4629SOL    HW318283   6.157   0.382   1.851  0.3544  0.6043  0.2677
 4629SOL    MW418284   6.122   0.383   1.771  0.2055 -0.3022  0.7351
 4630SOL     OW18285   4.396   3.898   0.994  0.4103 -0.2932 -0.9944
 4630SOL    HW218286   4.377   3.806   0.977  1.1284 -0.5878 -0.3099
 4630SOL    HW318287   4.451   3.925   0.920  0.8695 -0.6521 -0.7908
 4630SOL    MW418288   4.401   3.890   0.982  0.4610  0.4253 -0.4136
 4631SOL     OW18289   4.247   6.070   0.268  0.3690  0.2219 -0.0063
 4631SOL    HW218290   4.316   6.059   0.333 -0.0119 -0.4037  0.3076
 4631SOL    HW318291   4.165   6.062   0.318  0.0684  1.1531 -0.3398
 4631SOL    MW418292   4.245   6.067   0.283  0.4426  0.2116 -0.5467
 4632SOL     OW18293   3.936   1.961   3.289 -0.1119 -0.1259  0.0157
 4632SOL    HW218294   3.976   1.876   3.269  1.0588  0.5946 -0.9105
 4632SOL    HW318295   3.966   1.982   3.377  0.8783  0.0082 -0.3421
 4632SOL    MW418296   3.945   1.953   3.298 -0.6625 -0.1097  0.4963
 4633SOL     OW18297   1.845   3.084   4.779 -0.4430  0.3410  0.5286
 4633SOL    HW218298   1.810   3.159   4.827 -0.0696  1.4149 -0.8263
 4633SOL    HW318299   1.896   3.036   4.844  0.8125  2.2473  1.0524
 4633SOL    MW418300   1.847   3.088   4.794 -0.2294  0.2340 -0.7209
 4634SOL     OW18301   4.028   3.073   2.120  0.0365 -0.0676  0.2102
 4634SOL    HW218302   3.977   3.144   2.081 -0.2595 -0.3693  0.0462
 4634SOL    HW318303   3.963   3.008   2.146  0.3012 -0.2454  0.4324
 4634SOL    MW418304   4.012   3.074   2.118 -0.0683  0.1265 -0.0424
 4635SOL     OW18305   4.199   0.002   0.508  0.0819  0.4609  0.3616
 4635SOL    HW218306   4.151  -0.020   0.428  0.5935 -0.4280  0.2951
 4635SOL    HW318307   4.290   0.009   0.480  0.2641  0.1294  0.8739
 4635SOL    MW418308   4.205  -0.000   0.493 -0.3962 -0.2441  0.1753
 4636SOL     OW18309   2.992   3.112   3.266  0.0907 -0.7538  0.3544
 4636SOL    HW218310   2.934   3.110   3.342 -0.3797 -0.4875  0.0096
 4636SOL    HW318311   3.076   3.080   3.299  0.3452  0.8545  1.3733
 4636SOL    MW418312   2.996   3.108   3.280 -0.0628 -0.2966 -0.8499
 4637SOL     OW18313   1.664   4.977   3.984 -0.1039 -0.2897 -0.1852
 4637SOL    HW218314   1.756   4.958   4.000 -0.3614 -0.3302  1.4685
 4637SOL    HW318315   1.623   4.891   3.974 -0.2951 -0.4133  1.3388
 4637SOL    MW418316   1.671   4.963   3.985 -0.7305 -0.0092 -0.4373
 4638SOL     OW18317   1.681   1.996   4.459 -0.3592 -0.3997  0.0780
 4638SOL    HW218318   1.673   2.036   4.545  1.6194  0.1101  0.0675
 4638SOL    HW318319   1.665   2.068   4.398 -0.1749 -0.4040  0.0256
 4638SOL    MW418320   1.678   2.011   4.462 -0.0598 -0.1658  0.5299
 4639SOL     OW18321   2.439   1.918   1.242  0.0789 -0.4030  0.1460
 4639SOL    HW218322   2.518   1.932   1.295  0.8497  1.4080 -1.3743
 4639SOL    HW318323   2.451   1.831   1.205  2.4957  0.5982 -1.7262
 4639SOL    MW418324   2.451   1.909   1.244 -0.7051 -0.0176 -0.2313
 4640SOL     OW18325   4.597   0.865   3.747 -0.0990 -0.3572  0.5394
 4640SOL    HW218326   4.567   0.899   3.663 -0.3597 -0.3000  0.6532
 4640SOL    HW318327   4.625   0.776   3.729  0.4094 -0.1474  0.2732
 4640SOL    MW418328   4.597   0.858   3.734 -0.4429 -0.3741  0.3028
 4641SOL     OW18329   0.439   6.180   1.524 -0.1245  0.2364 -0.3261
 4641SOL    HW218330   0.443   6.136   1.609 -0.7312  0.9508  0.0879
 4641SOL    HW318331   0.530   6.195   1.500  0.0473  0.4927  0.4542
 4641SOL    MW418332   0.452   6.176   1.532  0.4544  0.4272  0.4853
 4642SOL     OW18333   0.924   1.080   3.397 -0.2410  0.1020  0.0170
 4642SOL    HW218334   0.907   0.997   3.443  1.3323 -0.4768 -0.3578
 4642SOL    HW318335   0.841   1.127   3.400 -1.0450 -1.2889  0.6613
 4642SOL    MW418336   0.911   1.075   3.403 -0.5482 -0.1596  0.6270
 4643SOL     OW18337   2.455   5.936   1.182  0.2912 -0.5553 -0.4298
 4643SOL    HW218338   2.468   5.993   1.106  1.7134 -0.2302  0.0285
 4643SOL    HW318339   2.398   5.866   1.149 -2.6742  1.7493 -0.6600
 4643SOL    MW418340   2.449   5.934   1.168  0.2825 -0.1104  0.1952
 4644SOL     OW18341   4.691   0.618   3.695 -0.0885  0.2027  0.0080
 4644SOL    HW218342   4.695   0.577   3.609 -1.4031  1.0626 -0.5072
 4644SOL    HW318343   4.665   0.547   3.754 -0.0276 -0.2150 -0.4618
 4644SOL    MW418344   4.688   0.603   3.692 -0.6450 -0.0050 -0.4364
 4645SOL     OW18345   4.005   6.207   2.832  0.1880  0.4073 -0.0975
 4645SOL    HW218346   3.984   6.182   2.742 -2.0119 -0.9118  0.6949
 4645SOL    HW318347   4.038   6.126   2.872  0.4110  0.7784  0.4715
 4645SOL    MW418348   4.007   6.193   2.825  0.2539 -0.0544  0.6972
 4646SOL     OW18349   1.757   5.735   2.652  0.3667 -0.2462  0.2790
 4646SOL    HW218350   1.785   5.817   2.692 -0.0290 -0.5406  1.1888
 4646SOL    HW318351   1.766   5.670   2.721  0.5553 -0.9544 -0.3935
 4646SOL    MW418352   1.762   5.737   2.666 -0.0451 -0.1226 -0.3936
 4647SOL     OW18353   0.967   5.202   4.040 -0.4335  0.1537 -0.5482
 4647SOL    HW218354   1.053   5.208   4.082 -0.5047  0.5334 -0.4529
 4647SOL    HW318355   0.934   5.116   4.066  0.2278 -0.3033 -1.1909
 4647SOL    MW418356   0.974   5.191   4.049 -0.0982 -0.4786 -0.0883
 4648SOL     OW18357   1.409   0.446   2.375  0.3866  0.3379 -0.1082
 4648SOL    HW218358   1.436   0.528   2.416  1.4440  0.4191 -0.9326
 4648SOL    HW318359   1.313   0.452   2.369  0.5379  2.3003 -1.7383
 4648SOL    MW418360   1.400   0.457   2.379  0.1706 -0.1175  0.0783
 4649SOL     OW18361   1.336   4.126   1.122  0.9087 -0.0977  0.2648
 4649SOL    HW218362   1.301   4.203   1.166  1.1927 -0.1793  0.6429
 4649SOL    HW318363   1.425   4.151   1.095  1.2405 -0.4974  0.9563
 4649SOL    MW418364   1.343   4.139   1.124  0.8961 -0.2523 -0.0150
 4650SOL     OW18365   1.678   4.230   0.766  0.1570  0.0257  0.0528
 4650SOL    HW218366   1.638   4.149   0.795 -0.6606  0.5424  0.4177
 4650SOL    HW318367   1.760   4.204   0.725  0.2179 -0.9184  0.7552
 4650SOL    MW418368   1.683   4.216   0.765  0.3843  0.5687 -0.4649
 4651SOL     OW18369   6.164   2.566   2.328 -0.0809 -0.2510 -0.5581
 4651SOL    HW218370   6.128   2.649   2.359 -0.3467 -0.2618 -0.8274
 4651SOL    HW318371   6.134   2.560   2.237  2.4928  0.8709 -1.6050
 4651SOL    MW418372   6.156   2.576   2.320 -0.6042 -0.4786 -0.0671
 4652SOL     OW18373   1.044   6.123   1.720 -0.3567  0.3986 -0.4648
 4652SOL    HW218374   1.063   6.173   1.800  1.4877  2.7077 -2.1641
 4652SOL    HW318375   1.129   6.116   1.676 -1.1625 -1.5570 -1.8242
 4652SOL    MW418376   1.058   6.129   1.724 -0.0426  0.0135  0.1125
 4653SOL     OW18377   0.136   1.882   0.148 -0.5586 -0.5037  0.1709
 4653SOL    HW218378   0.180   1.963   0.174 -0.9680 -0.0902 -0.4031
 4653SOL    HW318379   0.203   1.834   0.099  0.7060 -1.9420  3.0279
 4653SOL    MW418380   0.151   1.887   0.145 -0.4755  0.0947 -0.2228
 4654SOL     OW18381   4.968   3.264   0.056 -0.0681  0.2152  0.0737
 4654SOL    HW218382   4.954   3.237   0.147  0.1114 -2.7571 -0.6692
 4654SOL    HW318383   5.063   3.265   0.046 -0.0921 -0.0880 -0.2095
 4654SOL    MW418384   4.979   3.260   0.067  0.1797 -0.5202 -0.3842
 4655SOL     OW18385   4.991   3.325   4.504 -0.5274  0.0937  0.1738
 4655SOL    HW218386   5.028   3.320   4.593  1.2252  1.8159 -0.3725
 4655SOL    HW318387   4.938   3.246   4.496 -2.0630  0.6156  3.3018
 4655SOL    MW418388   4.989   3.314   4.515 -0.2460 -0.0274  0.4726
 4656SOL     OW18389   1.958   1.914   2.547  0.3019  0.0244  0.3490
 4656SOL    HW218390   1.987   1.913   2.456  0.0057 -0.0277  0.2541
 4656SOL    HW318391   1.872   1.954   2.544  0.5466  0.5865  0.6839
 4656SOL    MW418392   1.951   1.919   2.534 -0.1920  0.0239 -0.2837
 4657SOL     OW18393   4.954   4.664   1.464 -0.0583  0.0452  0.3818
 4657SOL    HW218394   5.044   4.636   1.448  0.7365  1.4786  1.9993
 4657SOL    HW318395   4.938   4.731   1.396  0.5124  0.5788  0.7613
 4657SOL    MW418396   4.964   4.669   1.453  0.0120 -0.1748 -0.2356
 4658SOL     OW18397   6.210   6.304   0.767  0.0541  0.2736 -0.5262
 4658SOL    HW218398   6.137   6.361   0.791 -0.4464 -0.4355 -0.3493
 4658SOL    HW318399   6.265   6.302   0.845  0.1313  0.5965 -0.5694
 4658SOL    MW418400   6.208   6.311   0.780  0.5099  0.5283 -0.4242
 4659SOL     OW18401   6.179   4.283   5.135  0.6017  0.3973  0.1139
 4659SOL    HW218402   6.271   4.255   5.136  0.7287  0.7315 -1.0216
 4659SOL    HW318403   6.160   4.300   5.043 -1.3247 -1.9706 -0.0372
 4659SOL    MW418404   6.189   4.281   5.123  0.5549 -0.1641 -0.0946
 4660SOL     OW18405   0.389   0.593   1.884 -0.7078 -0.4199 -0.2969
 4660SOL    HW218406   0.312   0.557   1.840 -1.4481  0.5390  0.1813
 4660SOL    HW318407   0.364   0.682   1.908 -0.1883 -0.7460  1.6599
 4660SOL    MW418408   0.376   0.600   1.882 -0.4239 -0.7921  0.5863
 4661SOL     OW18409   2.260   0.183   3.947 -0.1344 -0.1972  0.0512
 4661SOL    HW218410   2.205   0.213   4.019 -0.3265  1.0916 -0.5933
 4661SOL    HW318411   2.277   0.262   3.895  2.2431 -0.5682  0.1468
 4661SOL    MW418412   2.255   0.197   3.949  0.4295 -0.5822  0.0818
 4662SOL     OW18413   3.463   4.977   4.464  0.1085 -0.6853  0.2397
 4662SOL    HW218414   3.456   4.899   4.410 -0.1560  0.1299 -0.9346
 4662SOL    HW318415   3.379   5.022   4.453 -0.0008 -0.5459  1.4235
 4662SOL    MW418416   3.451   4.973   4.456 -0.6896  0.4527 -0.3243
 4663SOL     OW18417   0.015   5.077   6.066  0.8405 -0.1518 -0.9081
 4663SOL    HW218418   0.092   5.123   6.032  1.2452 -0.4507 -0.4163
 4663SOL    HW318419  -0.013   5.129   6.141  1.6155 -0.9732 -0.0306
 4663SOL    MW418420   0.022   5.090   6.071 -0.1836  0.3547  0.4659
 4664SOL     OW18421   4.167   5.084   6.204  0.2643 -0.6320  0.0612
 4664SOL    HW218422   4.213   5.080   6.120  0.3024 -0.8700  0.0925
 4664SOL    HW318423   4.203   5.011   6.254 -0.5253 -1.1446 -0.0982
 4664SOL    MW418424   4.178   5.074   6.200  0.1093  0.5431 -0.4902
 4665SOL     OW18425   6.334   6.040   4.806  0.0428  0.2105 -0.0284
 4665SOL    HW218426   6.417   6.086   4.803 -1.2071  2.6585  0.1914
 4665SOL    HW318427   6.357   5.947   4.801  2.5510  0.8348 -3.8966
 4665SOL    MW418428   6.348   6.033   4.805 -0.1392 -0.3623 -0.5799
 4666SOL     OW18429   0.339   4.121   1.533  0.4254 -0.2237  0.3256
 4666SOL    HW218430   0.363   4.058   1.465  2.6223 -0.6370  1.4316
 4666SOL    HW318431   0.407   4.188   1.529 -0.7524  1.0444  0.5537
 4666SOL    MW418432   0.351   4.121   1.523 -0.4504 -0.1721  0.0660
 4667SOL     OW18433   3.393   1.714   3.447  0.3998  0.2525 -0.2994
 4667SOL    HW218434   3.464   1.678   3.394  0.9149  0.8234 -0.0102
 4667SOL    HW318435   3.417   1.806   3.459  0.3785  0.0975  1.0376
 4667SOL    MW418436   3.406   1.721   3.442 -0.8816 -0.5596 -0.2556
 4668SOL     OW18437   2.792   4.233   6.327  0.3446 -0.0144  0.0185
 4668SOL    HW218438   2.796   4.249   6.233  0.0873 -2.7168 -0.5218
 4668SOL    HW318439   2.855   4.163   6.343  0.9725  0.9193  2.0316
 4668SOL    MW418440   2.801   4.226   6.317  0.2673  0.1209 -0.5195
 4669SOL     OW18441   3.184   2.257   2.117 -0.2989 -0.3866  0.2171
 4669SOL    HW218442   3.189   2.281   2.210  1.1042  0.0458  0.0471
 4669SOL    HW318443   3.184   2.340   2.070 -2.9329 -0.5052 -0.1641
 4669SOL    MW418444   3.185   2.271   2.123  0.3315 -0.4148  0.1459
 4670SOL     OW18445   1.666   1.056   3.969  0.5404 -0.2952 -0.1724
 4670SOL    HW218446   1.633   0.986   4.026 -0.1567  1.5757  1.8467
 4670SOL    HW318447   1.761   1.041   3.966  0.3979 -1.3432  0.2078
 4670SOL    MW418448   1.674   1.045   3.976  0.0381 -0.1556  0.1074
 4671SOL     OW18449   3.262   2.398   3.556  0.6406  0.6074  0.1655
 4671SOL    HW218450   3.334   2.338   3.575  1.6691  2.1073  1.2729
 4671SOL    HW318451   3.189   2.364   3.608  1.9041  1.6025  2.7725
 4671SOL    MW418452   3.262   2.385   3.566  0.3679  0.7903  0.1684
 4672SOL     OW18453   0.159   3.087   5.257 -0.1082 -0.3859  0.5929
 4672SOL    HW218454   0.197   3.175   5.261  1.0199 -0.7271 -1.3489
 4672SOL    HW318455   0.207   3.037   5.323  0.4459  0.0495  0.5330
 4672SOL    MW418456   0.170   3.092   5.266 -0.0896 -0.4967  0.1380
 4673SOL     OW18457   6.191   5.439   3.224  0.3287  0.1068  0.1266
 4673SOL    HW218458   6.153   5.438   3.312 -1.5442  0.9344 -0.6122
 4673SOL    HW318459   6.189   5.531   3.199  1.3858 -0.0533 -0.5634
 4673SOL    MW418460   6.185   5.451   3.232  0.2435  0.4128  0.3476
 4674SOL     OW18461   3.611   2.785   0.135  0.3227  0.0687  0.2771
 4674SOL    HW218462   3.685   2.727   0.153  1.8711  1.2793 -1.7292
 4674SOL    HW318463   3.598   2.833   0.217  1.7542 -0.1809  0.6791
 4674SOL    MW418464   3.619   2.784   0.148  0.6050  0.1308  0.6370
 4675SOL     OW18465   2.213   5.482   5.328  0.5352 -0.1491  0.1031
 4675SOL    HW218466   2.232   5.392   5.353  2.3507  0.6918  2.1094
 4675SOL    HW318467   2.169   5.519   5.405 -0.0820  0.7069 -0.6442
 4675SOL    MW418468   2.210   5.475   5.342  0.6393  0.0656 -0.7818
 4676SOL     OW18469   2.772   4.453   3.150  0.2214 -1.0602 -0.5883
 4676SOL    HW218470   2.848   4.409   3.188 -0.1701 -1.6645 -0.4916
 4676SOL    HW318471   2.698   4.394   3.168 -1.1253  1.3918  3.1699
 4676SOL    MW418472   2.772   4.439   3.157 -0.6986 -0.0862 -0.0731
 4677SOL     OW18473   1.483   6.015   4.048  0.0757 -0.2231 -0.6647
 4677SOL    HW218474   1.465   5.936   4.100 -0.9229  0.0236 -0.6299
 4677SOL    HW318475   1.439   5.999   3.965  0.2101  0.1348 -0.8031
 4677SOL    MW418476   1.475   6.002   4.044  0.0618 -0.0276 -0.0443
 4678SOL     OW18477   1.751   3.743   1.058  0.0587 -0.1291 -0.0006
 4678SOL    HW218478   1.753   3.720   0.965  0.2860 -0.9986  0.2105
 4678SOL    HW318479   1.811   3.681   1.099 -2.0530 -1.5202  1.1243
 4678SOL    MW418480   1.759   3.732   1.051  0.1048  0.8170 -0.0632
 4679SOL     OW18481   3.571   3.791   0.051  0.6972 -0.1191  0.5383
 4679SOL    HW218482   3.551   3.848   0.125  2.0207  0.0691  0.7689
 4679SOL    HW318483   3.666   3.794   0.043  0.5467  1.1073 -2.1325
 4679SOL    MW418484   3.581   3.799   0.060 -0.0803  0.1039  0.4378
 4680SOL     OW18485   1.938   4.601   3.333  0.0625  0.2191  0.4189
 4680SOL    HW218486   1.911   4.567   3.418 -2.7107  0.0119 -0.4337
 4680SOL    HW318487   1.949   4.524   3.278 -1.2130  0.4396 -0.1803
 4680SOL    MW418488   1.936   4.587   3.337 -0.1949 -0.5535 -0.0720
 4681SOL     OW18489   2.910   5.991   4.955  0.1057  0.1831  0.3592
 4681SOL    HW218490   2.874   5.920   5.007 -0.2104  0.3037  0.3098
 4681SOL    HW318491   2.979   5.951   4.903  1.9334  0.4373  2.4039
 4681SOL    MW418492   2.914   5.977   4.955 -0.7929  0.2256  0.0759
 4682SOL     OW18493   0.153   5.873   5.790  0.1464  0.2260  0.0867
 4682SOL    HW218494   0.079   5.921   5.825 -0.6357 -1.0772  0.3038
 4682SOL    HW318495   0.146   5.786   5.831  1.3316 -0.1663 -0.4984
 4682SOL    MW418496   0.143   5.868   5.800 -0.9444  0.5746 -0.2716
 4683SOL     OW18497   4.951   1.081   3.936 -0.6318  0.2676  0.2858
 4683SOL    HW218498   4.924   1.059   3.847  2.4312 -3.1316 -0.0628
 4683SOL    HW318499   4.895   1.028   3.992 -0.1361 -0.4770  0.0916
 4683SOL    MW418500   4.940   1.071   3.931 -0.1013  0.1959 -0.7198
 4684SOL     OW18501   3.068   6.205   3.664  0.0570  0.5186 -0.4956
 4684SOL    HW218502   2.976   6.226   3.681 -0.6563 -1.0903 -2.0300
 4684SOL    HW318503   3.067   6.113   3.636  2.4250 -0.2565  1.5913
 4684SOL    MW418504   3.056   6.196   3.662 -0.3679 -0.0729  0.0500
 4685SOL     OW18505   1.589   6.326   4.901  0.3285 -0.0612  0.5397
 4685SOL    HW218506   1.618   6.235   4.905  1.1391  0.1062 -0.8663
 4685SOL    HW318507   1.511   6.329   4.957  0.2840 -1.6039  0.6010
 4685SOL    MW418508   1.583   6.314   4.909  0.1815 -0.0064 -0.2141
 4686SOL     OW18509   3.522   1.732   2.347  0.1724  0.0379  0.1776
 4686SOL    HW218510   3.440   1.745   2.298  0.0711  1.3469  0.6534
 4686SOL    HW318511   3.493   1.708   2.435  0.3477 -1.5945 -0.1812
 4686SOL    MW418512   3.507   1.730   2.352 -0.1729  0.0378 -0.3397
 4687SOL     OW18513   2.687   3.983   4.303  0.7456 -0.3707  0.5464
 4687SOL    HW218514   2.697   4.077   4.287  0.1480 -0.6900 -2.2143
 4687SOL    HW318515   2.764   3.959   4.353  1.8358  1.2862 -0.2522
 4687SOL    MW418516   2.698   3.992   4.307  0.1257  0.1610 -0.2803
 4688SOL     OW18517   3.293   1.482   4.077  0.5426 -0.1614 -0.0600
 4688SOL    HW218518   3.325   1.570   4.096  0.3657  0.6689 -3.0689
 4688SOL    HW318519   3.307   1.471   3.983 -1.0443 -2.6876 -0.1024
 4688SOL    MW418520   3.299   1.493   4.067 -0.0883  0.3117  0.0781
 4689SOL     OW18521   5.699   2.844   5.752 -0.5610 -0.0505  0.6875
 4689SOL    HW218522   5.609   2.860   5.726 -0.3359 -1.1850 -0.9368
 4689SOL    HW318523   5.738   2.932   5.761 -1.0756  0.4547 -1.4421
 4689SOL    MW418524   5.692   2.858   5.750  0.2364 -0.4999  0.3191
 4690SOL     OW18525   0.551   1.512   4.646  0.2537 -0.7349 -0.3236
 4690SOL    HW218526   0.572   1.419   4.644 -1.5214 -1.1697 -1.7969
 4690SOL    HW318527   0.470   1.518   4.696  0.7761  0.1542  0.4632
 4690SOL    MW418528   0.543   1.501   4.652  0.1716 -0.2122 -0.1329
 4691SOL     OW18529   0.714   5.434   1.511  0.6730  0.4455 -0.0136
 4691SOL    HW218530   0.765   5.475   1.441  0.7409 -1.8929 -1.4689
 4691SOL    HW318531   0.623   5.439   1.480  0.6616 -0.2393 -0.1180
 4691SOL    MW418532   0.709   5.440   1.497  0.4672  0.3818 -0.1667
 4692SOL     OW18533   4.865   5.449   4.012  0.0058  0.0103  0.4225
 4692SOL    HW218534   4.952   5.476   4.041  1.9338 -2.9050 -1.9640
 4692SOL    HW318535   4.853   5.362   4.050 -2.0122  0.4482  0.8834
 4692SOL    MW418536   4.875   5.441   4.021  0.4332  0.6219 -0.4009
 4693SOL     OW18537   3.142   5.774   3.794  0.3827  0.0358 -0.2837
 4693SOL    HW218538   3.093   5.828   3.732  0.7807  0.4432 -0.2448
 4693SOL    HW318539   3.080   5.757   3.865  0.3272  0.6314 -0.1888
 4693SOL    MW418540   3.127   5.779   3.795  0.1943  0.5614  0.2464
 4694SOL     OW18541   3.732   1.299   5.331 -0.0250 -0.0941 -0.4584
 4694SOL    HW218542   3.696   1.372   5.382  1.0493  0.3757 -0.3538
 4694SOL    HW318543   3.707   1.221   5.381  0.2287  0.3046  0.3126
 4694SOL    MW418544   3.724   1.298   5.345  0.4694  0.5057 -0.0877
 4695SOL     OW18545   0.201   2.975   3.188  1.0793 -0.3168  0.0056
 4695SOL    HW218546   0.296   2.975   3.174  1.1362 -2.9519 -0.2312
 4695SOL    HW318547   0.170   2.900   3.137 -1.2759  0.9774 -0.5942
 4695SOL    MW418548   0.210   2.965   3.179  0.1215 -0.6097  0.3665
 4696SOL     OW18549   2.083   4.313   5.123 -0.1410  0.4709  0.3311
 4696SOL    HW218550   2.104   4.374   5.053 -0.9154 -0.3158 -0.6205
 4696SOL    HW318551   2.072   4.229   5.079 -1.1370  0.0538  1.3257
 4696SOL    MW418552   2.084   4.310   5.108  0.0862 -0.5293 -0.0839
 4697SOL     OW18553   3.184   0.828   2.743 -0.0538  0.5048  0.1929
 4697SOL    HW218554   3.114   0.885   2.713  0.4626  1.9752  1.6518
 4697SOL    HW318555   3.139   0.750   2.775 -0.9911  1.2355  0.6866
 4697SOL    MW418556   3.169   0.825   2.743  0.3076 -0.4660  0.5487
 4698SOL     OW18557   2.775   3.985   1.287 -0.4132 -0.5290  0.6277
 4698SOL    HW218558   2.849   3.965   1.345 -0.4702  1.1363  1.3260
 4698SOL    HW318559   2.808   3.965   1.199  2.3347  3.5656  0.4353
 4698SOL    MW418560   2.789   3.980   1.283  0.4410  0.0673  0.3515
 4699SOL     OW18561   6.247   1.888   0.121  0.2208 -0.5527  0.1722
 4699SOL    HW218562   6.316   1.847   0.172  0.2129 -1.0982 -0.2540
 4699SOL    HW318563   6.183   1.818   0.105 -1.1730  0.2583  1.7934
 4699SOL    MW418564   6.247   1.874   0.126  0.1430  0.3054 -0.9320
 4700SOL     OW18565   1.150   1.168   0.891 -0.2199 -0.3834  0.4301
 4700SOL    HW218566   1.170   1.093   0.947  1.3993 -0.0103  0.3826
 4700SOL    HW318567   1.151   1.244   0.949  0.5583 -0.1066  0.0656
 4700SOL    MW418568   1.153   1.168   0.906  0.1500  0.1612 -0.2410
 4701SOL     OW18569   5.694   4.447   2.885 -0.3622 -0.7515 -0.1598
 4701SOL    HW218570   5.779   4.422   2.849  0.9910 -0.2480  2.4149
 4701SOL    HW318571   5.701   4.541   2.901 -0.4895 -1.0637  2.1255
 4701SOL    MW418572   5.706   4.456   2.882 -0.6303 -0.1979  0.6333
 4702SOL     OW18573   4.954   3.830   2.689  0.0529  0.2622 -0.1334
 4702SOL    HW218574   5.026   3.802   2.747  0.1395 -0.4064 -0.5561
 4702SOL    HW318575   4.949   3.761   2.623 -0.2483  0.8720 -0.7477
 4702SOL    MW418576   4.963   3.817   2.688  0.2108  0.2159 -0.0015
 4703SOL     OW18577   5.099   6.031   5.570  0.2712 -0.0476  0.5398
 4703SOL    HW218578   5.078   6.109   5.622  0.9869  1.1999 -0.9524
 4703SOL    HW318579   5.192   6.016   5.584  0.3126 -0.1259  0.2056
 4703SOL    MW418580   5.108   6.039   5.578 -0.9027 -0.5440  0.4723
 4704SOL     OW18581   1.590   4.462   4.289 -0.8802  0.4379 -0.2699
 4704SOL    HW218582   1.530   4.491   4.358 -1.9581  1.1703 -1.4761
 4704SOL    HW318583   1.675   4.458   4.332 -1.3112  2.0178  0.8389
 4704SOL    MW418584   1.593   4.466   4.304  0.8817  0.4260 -0.2866
 4705SOL     OW18585   4.544   6.001   4.274 -0.1931 -0.0140  0.2552
 4705SOL    HW218586   4.551   6.071   4.339  1.8943  1.9296 -1.8826
 4705SOL    HW318587   4.634   5.976   4.255 -0.8449 -3.0199  0.5400
 4705SOL    MW418588   4.556   6.007   4.280 -0.1121 -0.4319 -0.3737
 4706SOL     OW18589   1.161   4.094   1.778  0.0203 -0.0468 -0.2213
 4706SOL    HW218590   1.152   4.044   1.859 -0.1392  1.0902  0.4806
 4706SOL    HW318591   1.206   4.034   1.718  0.1145 -0.9151  0.6839
 4706SOL    MW418592   1.166   4.079   1.780 -0.1563 -0.0261 -0.2885
 4707SOL     OW18593   0.623   0.287   1.837  0.3028 -0.2773  0.6367
 4707SOL    HW218594   0.575   0.330   1.766 -0.1681  0.2986  1.2953
 4707SOL    HW318595   0.697   0.245   1.793 -0.6117 -0.9322 -0.3639
 4707SOL    MW418596   0.626   0.287   1.822  0.3702  0.1707 -0.0409
 4708SOL     OW18597   2.085   0.130   3.104  0.4683 -0.7048 -0.1035
 4708SOL    HW218598   2.002   0.134   3.151  1.1238  0.1693  1.0149
 4708SOL    HW318599   2.114   0.221   3.099  1.4536 -1.0196 -0.3118
 4708SOL    MW418600   2.078   0.143   3.109 -0.1044  0.1904 -0.2219
 4709SOL     OW18601   4.270   4.621   6.343 -0.3215 -0.1079  0.1318
 4709SOL    HW218602   4.228   4.595   6.262  2.1616 -0.4561 -1.1348
 4709SOL    HW318603   4.338   4.555   6.358  0.7473  1.1773  1.2551
 4709SOL    MW418604   4.273   4.609   6.334 -0.3079  0.2475 -0.1453
 4710SOL     OW18605   2.382   6.217   0.390  0.2829 -0.1709  0.0371
 4710SOL    HW218606   2.448   6.198   0.324  0.8090  0.7913  0.2586
 4710SOL    HW318607   2.411   6.299   0.429 -1.5059  0.7621 -0.4704
 4710SOL    MW418608   2.395   6.226   0.386  0.0681  0.0279 -0.0227
 4711SOL     OW18609   4.593   5.933   1.967 -0.2501 -0.3154 -0.3960
 4711SOL    HW218610   4.565   5.842   1.981 -0.0993 -0.1525  1.1670
 4711SOL    HW318611   4.524   5.985   2.009 -0.2749  0.2967 -1.1840
 4711SOL    MW418612   4.580   5.927   1.974 -0.1240 -0.0368 -0.0110
 4712SOL     OW18613   1.834   6.170   2.527 -0.5566 -0.1560 -0.6119
 4712SOL    HW218614   1.777   6.094   2.535  2.4587 -2.7886 -1.7784
 4712SOL    HW318615   1.845   6.202   2.617 -0.5880 -2.2366  0.1955
 4712SOL    MW418616   1.828   6.164   2.540 -0.0785 -0.6129 -0.1101
 4713SOL     OW18617   4.201   6.055   2.318 -0.1217 -0.5670  0.0351
 4713SOL    HW218618   4.263   6.087   2.384 -1.6000  3.1978 -0.1379
 4713SOL    HW318619   4.255   6.035   2.242  1.1365  0.2808  0.6682
 4713SOL    MW418620   4.217   6.057   2.317 -0.1677 -1.0753 -0.9896
 4714SOL     OW18621   2.803   6.082   1.609  0.4411 -0.4974 -0.4919
 4714SOL    HW218622   2.858   6.016   1.567  1.9785  0.8838 -0.7269
 4714SOL    HW318623   2.828   6.079   1.701  1.1001  0.2967 -0.6388
 4714SOL    MW418624   2.813   6.073   1.616  0.8722 -0.5348  0.2115
 4715SOL     OW18625   2.223   3.906   0.306 -0.2668 -0.1155  0.3077
 4715SOL    HW218626   2.182   3.978   0.258 -1.1828 -0.6930  0.1982
 4715SOL    HW318627   2.159   3.835   0.302  0.8581 -1.1454 -0.0950
 4715SOL    MW418628   2.209   3.906   0.299  0.5369 -0.3638  0.6268
 4716SOL     OW18629   3.767   3.031   2.569  0.0840 -0.0012  0.0776
 4716SOL    HW218630   3.700   3.017   2.636  0.9670 -2.6167  0.5256
 4716SOL    HW318631   3.850   3.025   2.617  0.7416 -2.3180 -1.2474
 4716SOL    MW418632   3.769   3.029   2.584  0.3347 -0.2192 -0.3436
 4717SOL     OW18633   5.654   4.139   0.751 -0.1656  0.1813  0.4467
 4717SOL    HW218634   5.607   4.099   0.825  1.4163  0.3690  1.6081
 4717SOL    HW318635   5.616   4.098   0.674 -1.5800 -0.3485  1.3748
 4717SOL    MW418636   5.643   4.128   0.751 -0.0843  0.2890  0.2114
 4718SOL     OW18637   0.640   2.358   5.630  0.1185  0.9882  0.2505
 4718SOL    HW218638   0.552   2.390   5.650 -0.5644 -1.1467  0.9092
 4718SOL    HW318639   0.661   2.397   5.546 -3.1693 -1.5665 -2.0085
 4718SOL    MW418640   0.631   2.367   5.622  0.3252 -0.4959 -1.1380
 4719SOL     OW18641   0.277   5.921   2.099 -0.3430 -0.2904 -0.1532
 4719SOL    HW218642   0.357   5.964   2.130  0.3640 -1.2176 -0.6259
 4719SOL    HW318643   0.289   5.829   2.123 -0.0232 -0.9439 -2.5581
 4719SOL    MW418644   0.289   5.914   2.106  0.4242  0.6797  0.3471
 4720SOL     OW18645   6.077   1.495   4.977 -0.3771  0.0908 -0.2728
 4720SOL    HW218646   6.011   1.550   5.019 -2.0077 -1.6993 -0.3193
 4720SOL    HW318647   6.102   1.432   5.045  1.0384  0.5005 -0.3852
 4720SOL    MW418648   6.072   1.494   4.992 -0.2605 -0.7867 -0.4068
 4721SOL     OW18649   3.087   4.932   3.837  0.0709  0.0914  0.0937
 4721SOL    HW218650   3.137   4.895   3.910 -0.6775  0.1288  0.6335
 4721SOL    HW318651   3.077   5.025   3.858  0.9920  0.3971 -0.7205
 4721SOL    MW418652   3.092   4.939   3.849  0.6863 -0.0556 -0.4874
 4722SOL     OW18653   5.268   6.063   1.157  0.2006 -0.6118  0.2920
 4722SOL    HW218654   5.180   6.033   1.181 -0.2453 -0.7775 -1.4669
 4722SOL    HW318655   5.262   6.159   1.165  0.3968 -0.6914  1.8154
 4722SOL    MW418656   5.256   6.072   1.161  0.0941 -0.0908 -0.2483
 4723SOL     OW18657   4.947   5.395   3.247 -0.1971 -0.0805  0.6072
 4723SOL    HW218658   4.985   5.312   3.276 -0.1723  0.3373  1.8036
 4723SOL    HW318659   4.881   5.369   3.182 -0.5670 -1.0919  1.3552
 4723SOL    MW418660   4.943   5.380   3.242  0.4182 -0.2315  0.3909
 4724SOL     OW18661   1.155   1.879   0.080 -0.2671 -0.2695  0.3055
 4724SOL    HW218662   1.159   1.787   0.104  0.9019 -0.1041  0.7974
 4724SOL    HW318663   1.181   1.881  -0.012  2.6213 -0.1944  1.0172
 4724SOL    MW418664   1.159   1.867   0.071 -0.0691  0.1741  0.2897
 4725SOL     OW18665   0.858   6.094   0.405 -0.4550 -0.3048  1.0090
 4725SOL    HW218666   0.766   6.105   0.431 -0.7630 -0.6432  0.1100
 4725SOL    HW318667   0.892   6.029   0.467 -1.0906 -0.8980  0.7499
 4725SOL    MW418668   0.850   6.087   0.417  0.1021 -0.2563 -0.0329
 4726SOL     OW18669   2.117   0.808   2.748 -0.1504  0.7068 -0.0139
 4726SOL    HW218670   2.179   0.878   2.769  1.0077 -0.5608  0.8977
 4726SOL    HW318671   2.099   0.766   2.831 -2.1720  0.9325 -0.2736
 4726SOL    MW418672   2.123   0.812   2.762 -0.8406 -0.3435  0.3781
 4727SOL     OW18673   3.284   0.980   1.563 -0.8644 -0.0037  0.1788
 4727SOL    HW218674   3.336   0.904   1.535  2.7569  2.4825 -0.6259
 4727SOL    HW318675   3.327   1.009   1.644 -0.4450  2.5543 -0.8691
 4727SOL    MW418676   3.297   0.974   1.570 -1.0969  0.5734  0.2168
 4728SOL     OW18677   4.225   5.249   3.546  0.5043  0.0101 -0.5491
 4728SOL    HW218678   4.248   5.338   3.572 -0.0772 -0.1360  0.5554
 4728SOL    HW318679   4.164   5.220   3.615 -1.0709 -0.4360 -2.0532
 4728SOL    MW418680   4.220   5.257   3.559  0.0082 -0.4254 -0.4227
 4729SOL     OW18681   0.628   6.049   5.826  0.3079  0.2359  0.0814
 4729SOL    HW218682   0.709   6.093   5.854  1.7932 -1.9325 -0.5384
 4729SOL    HW318683   0.646   5.956   5.839 -2.5906 -0.2732  1.0478
 4729SOL    MW418684   0.641   6.043   5.831  0.9223 -0.2782 -0.1350
 4730SOL     OW18685   1.227   3.221   0.113 -0.0479  0.6854  0.0650
 4730SOL    HW218686   1.170   3.283   0.069 -0.1226  0.7127  0.2009
 4730SOL    HW318687   1.293   3.199   0.048 -1.5740 -1.1993 -0.9507
 4730SOL    MW418688   1.228   3.226   0.099  0.0510 -0.0361  0.2306
 4731SOL     OW18689   2.800   4.639   4.378 -0.4122 -0.0619  0.0586
 4731SOL    HW218690   2.780   4.589   4.457 -0.6419 -0.3538 -0.1814
 4731SOL    HW318691   2.766   4.726   4.396 -2.3262 -0.6617 -0.5106
 4731SOL    MW418692   2.793   4.644   4.391  0.1296 -0.1010 -0.0519
 4732SOL     OW18693   5.444   5.492   5.080 -0.4457  0.1122 -0.4279
 4732SOL    HW218694   5.452   5.585   5.060  0.3365  0.1214 -0.1264
 4732SOL    HW318695   5.358   5.483   5.121 -0.1855  0.8402  0.2869
 4732SOL    MW418696   5.434   5.503   5.083 -0.1441  0.1002  0.3395
 4733SOL     OW18697   1.087   3.783   4.040  0.3936  0.3814 -0.6256
 4733SOL    HW218698   1.111   3.805   3.949  0.6491  1.2888 -0.3536
 4733SOL    HW318699   1.152   3.718   4.066 -0.5073 -0.9339 -1.5305
 4733SOL    MW418700   1.099   3.778   4.031  0.7793 -0.1665 -0.3686
 4734SOL     OW18701   1.725   1.615   2.105 -0.2703  0.0070  0.3571
 4734SOL    HW218702   1.720   1.540   2.164  0.4630  0.5595  1.1502
 4734SOL    HW318703   1.668   1.681   2.145 -1.6187 -0.4288 -0.8119
 4734SOL    MW418704   1.717   1.614   2.118 -0.2162  0.3634 -0.3314
 4735SOL     OW18705   1.264   5.859   2.461 -0.2412  0.5021  0.3585
 4735SOL    HW218706   1.195   5.802   2.427  0.3595  1.1331 -2.1471
 4735SOL    HW318707   1.336   5.848   2.399  0.5721  2.5509  0.8721
 4735SOL    MW418708   1.265   5.850   2.448 -0.2757  0.3839  0.0161
 4736SOL     OW18709   0.200   5.367   2.586  0.0074  1.0051 -0.1481
 4736SOL    HW218710   0.253   5.375   2.665  1.0114 -0.0495 -0.6690
 4736SOL    HW318711   0.214   5.448   2.538  1.4767  0.6121 -0.4357
 4736SOL    MW418712   0.209   5.379   2.590  0.3161 -0.3137 -0.2973
 4737SOL     OW18713   3.125   4.995   4.674 -0.1030 -0.3725 -0.1225
 4737SOL    HW218714   3.135   5.058   4.602  0.1476 -1.4376 -1.0591
 4737SOL    HW318715   3.214   4.979   4.705 -0.1699 -0.2246  0.1440
 4737SOL    MW418716   3.138   5.001   4.668  0.2634  0.4132 -0.0572
 4738SOL     OW18717   3.025   5.467   0.851 -0.2538  0.1549  0.2818
 4738SOL    HW218718   2.998   5.385   0.891 -0.5060 -0.1060 -0.4075
 4738SOL    HW318719   2.951   5.527   0.862 -0.1918  0.1890  0.5049
 4738SOL    MW418720   3.012   5.464   0.857  0.1941 -0.2244  0.3429
 4739SOL     OW18721   2.192   6.388   6.050 -0.5755  0.6169  0.4426
 4739SOL    HW218722   2.199   6.418   6.140 -1.9276 -0.6405  1.0158
 4739SOL    HW318723   2.184   6.293   6.056 -0.8886  0.5186 -0.9815
 4739SOL    MW418724   2.192   6.380   6.062  0.0723  0.1893  0.4462
 4740SOL     OW18725   5.899   5.484   3.116 -0.7242  0.1975  0.3003
 4740SOL    HW218726   5.957   5.519   3.049 -1.1234  1.5145  0.6148
 4740SOL    HW318727   5.958   5.456   3.186 -0.4395  1.2474  0.4927
 4740SOL    MW418728   5.914   5.485   3.117 -0.3228  0.9995  0.1268
 4741SOL     OW18729   1.814   3.535   1.925  0.1720  0.0060 -0.0268
 4741SOL    HW218730   1.803   3.629   1.938  3.4103  0.8479 -2.2063
 4741SOL    HW318731   1.745   3.512   1.863  1.1552  1.7184 -1.8917
 4741SOL    MW418732   1.803   3.545   1.918 -0.3889  0.2447 -0.1481
 4742SOL     OW18733   0.858   3.443   2.374  0.4372  0.0101  0.1842
 4742SOL    HW218734   0.845   3.353   2.403 -0.2187 -0.6065 -1.8619
 4742SOL    HW318735   0.802   3.452   2.297 -0.8677  2.7142  1.3191
 4742SOL    MW418736   0.849   3.432   2.367 -0.5154 -0.6203 -0.6717
 4743SOL     OW18737   0.217   3.332   2.812 -0.0675  0.3039  0.3148
 4743SOL    HW218738   0.220   3.406   2.751  0.9135 -1.3280 -1.7247
 4743SOL    HW318739   0.278   3.356   2.882 -1.5718  2.4233  1.0081
 4743SOL    MW418740   0.225   3.345   2.813  0.2847  0.0983 -0.3494
 4744SOL     OW18741   2.169   0.687   6.308 -0.0407  0.0141 -0.1122
 4744SOL    HW218742   2.241   0.625   6.318 -0.3142 -0.5064 -1.1541
 4744SOL    HW318743   2.114   0.648   6.239  0.7346  2.2682 -2.1244
 4744SOL    MW418744   2.171   0.673   6.300  0.6771  0.1921  0.4122
 4745SOL     OW18745   2.838   1.139   5.295 -0.2393 -0.3269 -0.1782
 4745SOL    HW218746   2.864   1.068   5.237  0.3056 -1.3771  1.2856
 4745SOL    HW318747   2.762   1.179   5.252 -0.1815 -1.3972 -1.3266
 4745SOL    MW418748   2.832   1.135   5.282  0.0100 -0.5585 -0.0693
 4746SOL     OW18749   2.942   5.454   1.829 -0.7178 -0.2468 -0.0468
 4746SOL    HW218750   2.994   5.420   1.757  0.2566  1.0058  0.0393
 4746SOL    HW318751   2.996   5.439   1.907  0.9446  3.5865 -0.2430
 4746SOL    MW418752   2.956   5.448   1.830 -0.1472  0.0178  0.2767
 4747SOL     OW18753   1.977   0.065   3.781  0.3161  0.0845  0.4296
 4747SOL    HW218754   1.897   0.093   3.736  0.8122  1.8975  0.6049
 4747SOL    HW318755   2.024   0.013   3.716 -0.0911  0.6693 -0.3490
 4747SOL    MW418756   1.973   0.062   3.766  0.2127  0.4202  0.1399
 4748SOL     OW18757   2.862   4.247   2.607  0.0911  0.1682 -0.8292
 4748SOL    HW218758   2.837   4.218   2.519  0.9429 -0.1354 -0.9774
 4748SOL    HW318759   2.873   4.342   2.599  0.5377  0.0912 -1.1421
 4748SOL    MW418760   2.860   4.256   2.594  0.4222 -0.9075 -0.3003
 4749SOL     OW18761   1.705   3.915   5.282  0.2347  0.4682 -0.6017
 4749SOL    HW218762   1.746   3.872   5.208  1.1916  0.0699  0.1332
 4749SOL    HW318763   1.667   3.844   5.334 -0.2446  0.7217 -0.5969
 4749SOL    MW418764   1.705   3.900   5.279  0.4020 -0.1361 -0.0596
 4750SOL     OW18765   2.595   1.290   3.499 -0.1756 -0.3039  0.0157
 4750SOL    HW218766   2.600   1.204   3.457 -0.3790 -1.7289  2.6690
 4750SOL    HW318767   2.684   1.324   3.493  0.2147 -1.2794 -0.0085
 4750SOL    MW418768   2.607   1.283   3.493 -0.0089  0.0201 -0.2219
 4751SOL     OW18769   2.883   0.323   3.839 -0.6349 -0.6246  0.2009
 4751SOL    HW218770   2.847   0.252   3.786  0.3782 -1.1592  0.1917
 4751SOL    HW318771   2.915   0.280   3.918 -1.3451  0.0427  0.8608
 4751SOL    MW418772   2.883   0.308   3.843 -0.4504  0.0674 -0.0134
 4752SOL     OW18773   2.038   5.347   2.180  0.2429  0.3004  0.0647
 4752SOL    HW218774   1.961   5.291   2.187  1.2530 -1.0892  0.7717
 4752SOL    HW318775   2.033   5.405   2.256  1.0812 -1.4293  1.5315
 4752SOL    MW418776   2.027   5.347   2.191  0.1687  0.5536 -0.5347
 4753SOL     OW18777   4.214   4.560   6.067 -0.0288  0.0475 -0.0600
 4753SOL    HW218778   4.236   4.614   5.991 -1.0924  0.8562  0.1831
 4753SOL    HW318779   4.135   4.513   6.041 -0.4543  0.4003  0.5732
 4753SOL    MW418780   4.206   4.561   6.053 -0.0353  0.3431 -0.0158
 4754SOL     OW18781   4.885   3.809   2.207 -0.1674 -0.2880 -0.1838
 4754SOL    HW218782   4.964   3.777   2.165 -1.1761 -1.6858 -1.1208
 4754SOL    HW318783   4.832   3.843   2.135  0.1529  2.0396  0.5949
 4754SOL    MW418784   4.888   3.809   2.192 -0.0553  0.1031 -0.2718
 4755SOL     OW18785   6.188   0.083   4.990  0.4854  0.0964 -0.0964
 4755SOL    HW218786   6.163   0.072   4.898 -0.7988 -1.3796  0.3681
 4755SOL    HW318787   6.231  -0.000   5.013  0.2623  0.2052  0.7654
 4755SOL    MW418788   6.190   0.070   4.981 -0.2441 -0.1726  0.0948
 4756SOL     OW18789   1.585   2.979   4.453 -0.1092  0.0170  0.1291
 4756SOL    HW218790   1.547   2.929   4.524 -0.5306  1.6221  1.0860
 4756SOL    HW318791   1.511   3.025   4.413  0.3438  0.4036 -0.2841
 4756SOL    MW418792   1.570   2.979   4.457  0.2067  0.0880 -0.5867
 4757SOL     OW18793   1.607   0.077   5.709  0.1975  0.1503  0.5286
 4757SOL    HW218794   1.613   0.018   5.633 -0.8188 -1.9348  1.9888
 4757SOL    HW318795   1.697   0.107   5.722  0.2229  1.6377 -2.2272
 4757SOL    MW418796   1.620   0.073   5.701  0.0906  0.0541 -0.5322
 4758SOL     OW18797   1.070   0.468   5.065  0.2335  0.1133  0.0744
 4758SOL    HW218798   1.164   0.475   5.049 -0.0362  1.2823 -1.1231
 4758SOL    HW318799   1.051   0.538   5.127 -0.0621  0.8378 -0.8047
 4758SOL    MW418800   1.080   0.478   5.071 -0.0466  0.3347 -0.0187
 4759SOL     OW18801   4.560   5.262   3.309  0.1504  0.0098  0.4498
 4759SOL    HW218802   4.612   5.194   3.352 -0.1427 -0.6469 -0.2222
 4759SOL    HW318803   4.477   5.219   3.288  0.1111  0.4584 -0.3504
 4759SOL    MW418804   4.556   5.247   3.312  0.5678 -0.1380  0.0998
 4760SOL     OW18805   3.393   0.092   0.710 -0.6403  0.2628  0.5618
 4760SOL    HW218806   3.329   0.162   0.722 -1.2088 -0.2234  0.4142
 4760SOL    HW318807   3.478   0.133   0.729 -1.1074  0.5945  1.9831
 4760SOL    MW418808   3.396   0.107   0.714 -0.2579 -0.1119  0.7407
 4761SOL     OW18809   2.233   2.897   5.787 -0.4359  0.0021  0.1677
 4761SOL    HW218810   2.271   2.822   5.741  2.6468  1.9897 -0.8502
 4761SOL    HW318811   2.166   2.930   5.728 -0.1559 -0.5442 -0.4679
 4761SOL    MW418812   2.229   2.891   5.773  0.0139 -0.0629  0.4674
 4762SOL     OW18813   5.881   4.611   2.007 -0.6604  0.9671 -0.2175
 4762SOL    HW218814   5.833   4.634   2.086  1.1605  1.5981  0.7795
 4762SOL    HW318815   5.864   4.518   1.994 -1.5895  1.0262  0.4840
 4762SOL    MW418816   5.873   4.602   2.016 -0.5301 -0.3836  0.7438
 4763SOL     OW18817   6.079   3.726   2.920  0.6404  0.6386  0.6600
 4763SOL    HW218818   6.110   3.663   2.855 -0.9130  0.0004  0.4762
 4763SOL    HW318819   6.105   3.689   3.004 -2.7337 -1.9503  0.7952
 4763SOL    MW418820   6.086   3.713   2.923 -0.1075  0.3992 -1.0087
 4764SOL     OW18821   0.423   4.964   0.311 -0.2535 -0.1063  0.1480
 4764SOL    HW218822   0.458   5.028   0.249  1.5403 -1.6958 -0.5930
 4764SOL    HW318823   0.369   5.015   0.371  1.1011  2.0803 -0.3941
 4764SOL    MW418824   0.420   4.979   0.311  0.1380 -0.2155  0.1541
 4765SOL     OW18825   0.755   3.043   5.308 -0.4997 -0.4975 -0.0340
 4765SOL    HW218826   0.833   3.055   5.254 -2.5038  1.3984 -2.7476
 4765SOL    HW318827   0.770   3.096   5.386  0.4738  0.7754 -1.0585
 4765SOL    MW418828   0.767   3.051   5.311  0.0806  0.1121  0.2541
 4766SOL     OW18829   2.656   5.590   0.312 -0.0795  0.1179  0.0717
 4766SOL    HW218830   2.637   5.680   0.287 -1.8751 -0.0227  0.7681
 4766SOL    HW318831   2.601   5.536   0.254 -0.7803 -0.3945  1.1710
 4766SOL    MW418832   2.646   5.595   0.301 -0.0629  0.1578 -0.4126
 4767SOL     OW18833   2.244   2.517   1.835 -0.4563  0.0699 -0.0711
 4767SOL    HW218834   2.225   2.450   1.900 -0.1063  0.5343  0.5279
 4767SOL    HW318835   2.240   2.600   1.884 -1.6713  0.5612 -0.9657
 4767SOL    MW418836   2.241   2.519   1.850  0.4696  0.0258 -0.4278
 4768SOL     OW18837   5.565   0.458   5.965 -0.5917 -0.2638 -0.2924
 4768SOL    HW218838   5.542   0.370   5.995 -1.1250  0.4295  1.4831
 4768SOL    HW318839   5.649   0.476   6.007 -1.0506  0.4982  0.3313
 4768SOL    MW418840   5.573   0.448   5.975 -0.1571 -0.1234 -0.0405
 4769SOL     OW18841   2.274   5.139   4.268 -0.2592  0.3056  0.6457
 4769SOL    HW218842   2.264   5.054   4.224  2.1339  0.8392 -1.0877
 4769SOL    HW318843   2.273   5.118   4.361 -1.8290 -1.3213  0.3265
 4769SOL    MW418844   2.272   5.125   4.274  0.2659  0.1052  0.2015
 4770SOL     OW18845   2.375   1.435   5.303  0.2003 -0.2221  0.3142
 4770SOL    HW218846   2.429   1.495   5.355 -0.3781 -0.8288  1.6511
 4770SOL    HW318847   2.286   1.467   5.315 -0.1334 -1.4263  1.1819
 4770SOL    MW418848   2.370   1.447   5.311 -0.2818  0.3397 -0.3329
 4771SOL     OW18849   4.842   1.688   0.198  0.4991  0.3321 -0.5728
 4771SOL    HW218850   4.919   1.727   0.157  0.5153  0.4570 -0.4231
 4771SOL    HW318851   4.877   1.639   0.273  0.7416 -1.7142 -1.9323
 4771SOL    MW418852   4.856   1.687   0.202  0.2643 -0.0569  0.0540
 4772SOL     OW18853   5.159   3.696   2.865  0.3782  0.5617  0.1940
 4772SOL    HW218854   5.150   3.600   2.868  0.3369  0.5821  1.8987
 4772SOL    HW318855   5.249   3.711   2.839  0.7750  0.0045  1.1807
 4772SOL    MW418856   5.170   3.685   2.862  0.4969 -0.0930  0.2300
 4773SOL     OW18857   2.992   4.782   0.240 -0.1079  0.6378  0.6570
 4773SOL    HW218858   3.005   4.743   0.326  0.6104  0.1885  0.3551
 4773SOL    HW318859   2.960   4.871   0.258  0.8744  0.8546  1.4003
 4773SOL    MW418860   2.989   4.789   0.253  0.1128 -0.2447 -0.0125
 4774SOL     OW18861   6.213   4.968   3.323 -0.7063  0.9191 -0.1001
 4774SOL    HW218862   6.238   4.877   3.314 -0.1057  1.0505  0.2054
 4774SOL    HW318863   6.118   4.969   3.307 -1.0955 -0.0473  1.8292
 4774SOL    MW418864   6.204   4.956   3.320  0.5484 -0.2249 -0.3507
 4775SOL     OW18865   2.368   0.226   6.255 -0.2167  0.3744  0.0090
 4775SOL    HW218866   2.366   0.303   6.313 -0.7946  0.4388 -0.0889
 4775SOL    HW318867   2.306   0.164   6.295 -1.9154  1.0647 -1.3900
 4775SOL    MW418868   2.359   0.228   6.268 -0.5467 -0.4468  0.5172
 4776SOL     OW18869   0.860   0.187   0.139  0.3157 -0.1039 -0.2743
 4776SOL    HW218870   0.797   0.123   0.172 -0.8778  1.4669  0.6178
 4776SOL    HW318871   0.853   0.179   0.044 -1.5628  0.2857 -0.2146
 4776SOL    MW418872   0.851   0.177   0.131 -0.1729  0.3237 -0.0520
 4777SOL     OW18873   2.010   2.171   4.776 -0.4492 -0.2731  0.0692
 4777SOL    HW218874   2.048   2.112   4.711  0.9708 -0.5948  1.1345
 4777SOL    HW318875   1.987   2.249   4.726  1.6856 -0.0461 -0.6920
 4777SOL    MW418876   2.012   2.174   4.761 -0.3801  0.4564  0.1735
 4778SOL     OW18877   0.568   4.381   5.728  0.1322 -0.1255  0.0537
 4778SOL    HW218878   0.515   4.457   5.750  2.0667  1.1940  0.4260
 4778SOL    HW318879   0.608   4.354   5.811  0.0606 -1.0995 -0.2105
 4778SOL    MW418880   0.566   4.387   5.742 -0.9474  0.4671  0.8155
 4779SOL     OW18881   3.521   4.245   1.444 -0.0849 -0.1144  0.4882
 4779SOL    HW218882   3.551   4.158   1.470  1.6596 -0.4614 -2.3169
 4779SOL    HW318883   3.445   4.229   1.387  0.2713  0.1698 -0.0776
 4779SOL    MW418884   3.515   4.231   1.440  0.5134  0.2256  0.1150
 4780SOL     OW18885   3.873   2.170   2.700  0.3004 -0.8130  0.2553
 4780SOL    HW218886   3.934   2.167   2.626  1.0196 -0.1002  0.7985
 4780SOL    HW318887   3.925   2.207   2.772 -1.5895  2.9960 -0.1142
 4780SOL    MW418888   3.888   2.174   2.700 -0.1966 -0.5228  0.0246
 4781SOL     OW18889   1.887   0.234   2.861  0.2797  0.0599 -0.1631
 4781SOL    HW218890   1.818   0.168   2.857  0.8524 -0.5361 -0.3967
 4781SOL    HW318891   1.841   0.318   2.859 -0.4484 -0.3305 -0.0034
 4781SOL    MW418892   1.872   0.237   2.860 -0.4846 -0.5033 -0.0870
 4782SOL     OW18893   6.266   0.466   2.761 -0.0970  0.1504  0.4549
 4782SOL    HW218894   6.278   0.482   2.855  1.8454 -0.6519  0.3976
 4782SOL    HW318895   6.264   0.554   2.722  0.0028  0.4766  1.1583
 4782SOL    MW418896   6.267   0.480   2.768  0.1044  0.2702 -0.4851
 4783SOL     OW18897   2.324   0.880   1.033 -0.1634 -0.0759  0.3335
 4783SOL    HW218898   2.249   0.876   0.974  0.5895 -1.6452 -0.5949
 4783SOL    HW318899   2.317   0.966   1.075 -2.8517 -0.4563  0.8382
 4783SOL    MW418900   2.313   0.891   1.031  0.2048  0.9429 -0.0194
 4784SOL     OW18901   2.999   5.488   1.206  0.2030  0.3107  0.1170
 4784SOL    HW218902   2.985   5.567   1.154 -2.5527 -0.3055 -0.2062
 4784SOL    HW318903   3.014   5.520   1.295 -0.2799  1.2072 -0.1204
 4784SOL    MW418904   2.999   5.503   1.211 -0.3187 -0.2930 -0.3467
 4785SOL     OW18905   5.040   6.390   5.904  0.9493 -0.4731 -0.0172
 4785SOL    HW218906   4.959   6.439   5.920 -1.0597 -3.3454 -0.5304
 4785SOL    HW318907   5.087   6.395   5.987 -0.1569  0.5491  0.5890
 4785SOL    MW418908   5.035   6.397   5.917 -0.5108  0.4382  0.2884
 4786SOL     OW18909   5.515   4.012   4.545 -0.0776 -0.0791 -0.3620
 4786SOL    HW218910   5.522   3.948   4.615  1.7151 -0.1781 -0.5947
 4786SOL    HW318911   5.602   4.017   4.507 -0.4356  1.6781 -1.0931
 4786SOL    MW418912   5.527   4.004   4.549 -0.3204  0.4700 -0.1636
 4787SOL     OW18913   5.049   4.000   4.584  0.2296  0.0117  0.2250
 4787SOL    HW218914   4.999   4.081   4.574  1.8123  1.0355  0.3321
 4787SOL    HW318915   5.134   4.018   4.543  1.2172 -1.0235  1.7005
 4787SOL    MW418916   5.054   4.013   4.577 -0.3276  0.1359 -0.0082
 4788SOL     OW18917   0.053   2.114   4.552 -0.2405  0.1378 -0.0852
 4788SOL    HW218918   0.041   2.204   4.523 -2.0820 -1.0406 -3.6365
 4788SOL    HW318919   0.143   2.110   4.584  0.0968  3.0710 -0.4424
 4788SOL    MW418920   0.063   2.125   4.552 -0.1841  0.0065  0.4000
 4789SOL     OW18921   3.238   1.170   4.016 -0.5227  0.0678 -0.3222
 4789SOL    HW218922   3.146   1.196   4.025 -1.2081 -2.7532  2.1605
 4789SOL    HW318923   3.236   1.095   3.956  0.2391  0.2562 -0.5936
 4789SOL    MW418924   3.225   1.164   4.009  0.2494  0.6808 -0.3394
 4790SOL     OW18925   6.053   5.986   5.396 -0.0496 -0.3337  0.2655
 4790SOL    HW218926   6.037   6.059   5.457  0.6894 -0.3978  0.5456
 4790SOL    HW318927   6.076   5.913   5.452  1.1229 -0.2661 -0.1032
 4790SOL    MW418928   6.054   5.986   5.411  0.3241 -0.4901 -0.1555
 4791SOL     OW18929   3.165   2.417   4.657  0.1008  0.8375 -0.2145
 4791SOL    HW218930   3.224   2.491   4.639 -0.0171  0.6533 -1.3793
 4791SOL    HW318931   3.175   2.359   4.582 -1.6913  0.8719 -0.5114
 4791SOL    MW418932   3.174   2.419   4.645 -0.6543  0.3345  0.3103
 4792SOL     OW18933   4.287   5.207   0.317 -1.0133  0.2681 -0.0193
 4792SOL    HW218934   4.342   5.159   0.255 -1.4486 -0.1234 -0.1095
 4792SOL    HW318935   4.212   5.236   0.266 -0.2381  2.0131 -0.2212
 4792SOL    MW418936   4.284   5.204   0.302 -1.0870 -0.1891  0.1800
 4793SOL     OW18937   2.478   6.112   5.450  0.2678  0.6429  0.4227
 4793SOL    HW218938   2.555   6.168   5.459 -1.0662  2.7280 -0.6252
 4793SOL    HW318939   2.502   6.050   5.381  1.2369  0.8060  0.5929
 4793SOL    MW418940   2.491   6.111   5.442  0.0173  0.0049  0.2302
 4794SOL     OW18941   0.569   3.784   5.665  0.3023 -0.0626 -0.9620
 4794SOL    HW218942   0.657   3.796   5.629 -0.7655  0.8935 -3.4979
 4794SOL    HW318943   0.545   3.869   5.701  0.4463 -0.3629 -0.1362
 4794SOL    MW418944   0.577   3.797   5.665 -0.6423  0.0485  0.3263
 4795SOL     OW18945   1.602   6.048   1.830 -0.0157  0.4041  0.7884
 4795SOL    HW218946   1.550   6.102   1.771 -0.3632 -0.2420  0.4824
 4795SOL    HW318947   1.539   5.989   1.871  0.6492 -1.6626 -0.9703
 4795SOL    MW418948   1.587   6.047   1.828  0.2768  0.7057  0.7796
 4796SOL     OW18949   2.492   0.260   1.125 -0.0418 -0.3453 -1.0174
 4796SOL    HW218950   2.582   0.286   1.109  0.8722 -2.7708 -0.2247
 4796SOL    HW318951   2.441   0.306   1.058  1.9155  0.2547 -2.1589
 4796SOL    MW418952   2.497   0.269   1.114 -0.9765  0.4715  0.6067
 4797SOL     OW18953   1.422   2.391   1.782 -0.4010  0.4936 -0.2868
 4797SOL    HW218954   1.389   2.480   1.789 -1.8036 -0.0976  1.4497
 4797SOL    HW318955   1.351   2.336   1.817  0.0587 -1.3938 -2.1141
 4797SOL    MW418956   1.408   2.395   1.788 -0.3037  0.2299 -0.6464
 4798SOL     OW18957   2.261   5.775   3.729  0.3264 -0.1886  0.1252
 4798SOL    HW218958   2.279   5.756   3.821  0.7996  2.3421  0.6182
 4798SOL    HW318959   2.327   5.839   3.704 -0.9550  0.5882 -1.4357
 4798SOL    MW418960   2.272   5.781   3.738 -0.5891 -0.0391  0.1390
 4799SOL     OW18961   4.643   1.021   6.265  0.1520  0.1654 -0.2525
 4799SOL    HW218962   4.622   0.961   6.336 -0.5920 -0.5952 -1.0856
 4799SOL    HW318963   4.708   0.975   6.212  0.6480  0.6960 -0.1175
 4799SOL    MW418964   4.648   1.007   6.267  0.2336  0.6299 -0.1970
 4800SOL     OW18965   1.735   4.145   4.216  0.6472  0.1317  0.3848
 4800SOL    HW218966   1.760   4.105   4.133 -0.1306  1.2854 -0.4289
 4800SOL    HW318967   1.815   4.186   4.248  1.2059 -1.1755  0.7361
 4800SOL    MW418968   1.749   4.145   4.209  0.0819  0.0959  0.6876
 4801SOL     OW18969   4.111   0.942   2.442  0.0124 -0.0488 -0.2016
 4801SOL    HW218970   4.117   1.038   2.437  0.6663 -0.0330  0.6453
 4801SOL    HW318971   4.020   0.922   2.421 -0.3827  0.8380  0.5791
 4801SOL    MW418972   4.100   0.952   2.439 -0.5295  0.2859  0.0610
 4802SOL     OW18973   0.690   4.173   4.139  0.0215 -0.2541  0.1936
 4802SOL    HW218974   0.694   4.209   4.050  2.1520  0.1430  0.3832
 4802SOL    HW318975   0.615   4.217   4.179 -0.5858  0.0498 -1.2035
 4802SOL    MW418976   0.681   4.184   4.133 -0.4505 -0.5291 -0.1309
 4803SOL     OW18977   5.578   5.869   4.465  0.1259  0.1346 -0.1835
 4803SOL    HW218978   5.509   5.935   4.469  0.4656  0.8313 -3.0421
 4803SOL    HW318979   5.658   5.915   4.492  0.5090  1.2788 -2.9200
 4803SOL    MW418980   5.580   5.884   4.469 -0.0700 -0.3479 -0.5693
 4804SOL     OW18981   4.146   0.049   3.553  0.2653 -0.6917 -0.3695
 4804SOL    HW218982   4.093  -0.029   3.533 -0.5624 -0.2996  0.2502
 4804SOL    HW318983   4.110   0.081   3.636  1.2652 -0.2221 -0.1095
 4804SOL    MW418984   4.134   0.043   3.561 -0.3939 -0.2163  0.1459
 4805SOL     OW18985   4.547   0.309   0.405 -0.3235  0.1108  0.4842
 4805SOL    HW218986   4.539   0.385   0.462 -0.0394 -0.6828  1.6074
 4805SOL    HW318987   4.510   0.237   0.455  0.3763 -0.7034 -0.1416
 4805SOL    MW418988   4.541   0.310   0.419  0.2833  0.4783 -0.1645
 4806SOL     OW18989   4.951   1.178   1.816  0.1912 -0.2445  0.9950
 4806SOL    HW218990   4.866   1.183   1.772 -0.5728  0.1603  2.4303
 4806SOL    HW318991   5.008   1.236   1.766 -0.3480 -0.6166 -0.0631
 4806SOL    MW418992   4.947   1.186   1.804  0.9654  0.4807  0.5800
 4807SOL     OW18993   5.744   0.621   5.380 -0.3072  0.7377  0.5603
 4807SOL    HW218994   5.653   0.608   5.354 -0.2439  0.2237  0.5777
 4807SOL    HW318995   5.760   0.554   5.446 -0.2810  1.6392  1.4939
 4807SOL    MW418996   5.734   0.611   5.385 -0.3809 -0.1246  0.7952
 4808SOL     OW18997   2.439   0.189   5.397 -0.0663 -0.4596  0.4066
 4808SOL    HW218998   2.518   0.171   5.345 -0.8355 -2.7175 -0.1090
 4808SOL    HW318999   2.369   0.145   5.349 -1.9938  2.6260  0.0931
 4808SOL    MW419000   2.440   0.181   5.384 -0.4878 -0.4434 -0.4846
 4809SOL     OW19001   5.502   2.348   3.799  0.2421 -0.3893  0.4384
 4809SOL    HW219002   5.528   2.305   3.880  0.5492  0.1444  0.6264
 4809SOL    HW319003   5.576   2.333   3.739  0.7981  0.7420  0.8292
 4809SOL    MW419004   5.515   2.340   3.802  0.2913 -0.2848 -0.4174
 4810SOL     OW19005   3.419   2.335   3.121 -0.1223 -0.0116  0.2241
 4810SOL    HW219006   3.350   2.380   3.168 -1.1436 -1.1533 -0.1044
 4810SOL    HW319007   3.454   2.400   3.061 -1.5951  0.3537 -0.2888
 4810SOL    MW419008   3.414   2.349   3.119 -0.1645  0.0489 -0.0282
 4811SOL     OW19009   4.566   4.626   4.647  0.2717 -0.3054  0.3052
 4811SOL    HW219010   4.604   4.628   4.559  0.1688 -0.0068  0.2659
 4811SOL    HW319011   4.570   4.534   4.673  1.5043 -0.2171  0.5018
 4811SOL    MW419012   4.572   4.614   4.639 -0.2870  0.2584 -0.2395
 4812SOL     OW19013   5.762   2.724   5.091 -0.1252  0.2842  0.2977
 4812SOL    HW219014   5.710   2.799   5.062 -0.8107 -0.6252 -0.9367
 4812SOL    HW319015   5.714   2.648   5.059  1.6747 -0.6281 -0.3733
 4812SOL    MW419016   5.749   2.724   5.083  0.5600  0.3450 -0.4239
 4813SOL     OW19017   1.674   3.494   4.842 -0.8357 -0.4240 -0.1273
 4813SOL    HW219018   1.713   3.422   4.892  1.3362  1.2573  0.8170
 4813SOL    HW319019   1.623   3.543   4.907 -0.1065  0.3347 -0.0989
 4813SOL    MW419020   1.672   3.491   4.858  0.0645  0.0866 -0.2116
 4814SOL     OW19021   1.665   5.938   3.017 -0.0500  0.1191  0.1385
 4814SOL    HW219022   1.603   5.949   3.089  0.3738 -0.4417  0.6009
 4814SOL    HW319023   1.751   5.956   3.056  0.1114  0.6534 -0.4374
 4814SOL    MW419024   1.668   5.942   3.032 -0.2775 -0.0109  0.4090
 4815SOL     OW19025   2.612   1.306   2.781 -0.5709 -0.1846 -0.3492
 4815SOL    HW219026   2.599   1.241   2.712  1.2809 -0.8883 -0.1089
 4815SOL    HW319027   2.704   1.294   2.808  0.1975  3.2666 -1.0239
 4815SOL    MW419028   2.622   1.296   2.776  0.2580 -0.3218  0.6566
 4816SOL     OW19029   5.049   4.743   4.975 -0.3064  0.1615  0.3301
 4816SOL    HW219030   4.975   4.757   4.915 -0.7655  1.9173  1.2705
 4816SOL    HW319031   5.126   4.762   4.922 -0.5729 -0.4788 -0.3104
 4816SOL    MW419032   5.049   4.747   4.960  0.1083  0.0572 -0.2897
 4817SOL     OW19033   3.176   6.231   4.808 -0.0226 -0.3236 -0.1484
 4817SOL    HW219034   3.106   6.263   4.864  1.1798 -1.7761  2.3248
 4817SOL    HW319035   3.217   6.310   4.772 -0.9684  0.6454  0.8565
 4817SOL    MW419036   3.172   6.246   4.810 -0.2022 -0.0141  0.4160
 4818SOL     OW19037   2.251   0.816   4.409  0.1697 -0.1827 -0.4042
 4818SOL    HW219038   2.163   0.842   4.381 -0.4473 -1.3445  0.3585
 4818SOL    HW319039   2.276   0.879   4.475 -1.3458 -1.4766  1.5134
 4818SOL    MW419040   2.243   0.827   4.414  0.3225 -0.0711  0.5290
 4819SOL     OW19041   0.134   5.739   0.740  0.1910  0.3219 -0.9867
 4819SOL    HW219042   0.147   5.664   0.682  1.3633  0.5220 -1.0139
 4819SOL    HW319043   0.157   5.707   0.827 -1.0200  0.1793 -0.7013
 4819SOL    MW419044   0.139   5.725   0.744 -0.8013 -0.2519 -0.0966
 4820SOL     OW19045   4.748   3.644   1.148 -0.0406  0.1319 -0.4175
 4820SOL    HW219046   4.705   3.636   1.233 -0.3418 -0.2604 -0.6044
 4820SOL    HW319047   4.841   3.629   1.166 -0.2686 -1.4147 -0.3705
 4820SOL    MW419048   4.754   3.641   1.162 -0.8030  0.3155  0.2970
 4821SOL     OW19049   3.241   5.296   4.966 -0.3086  0.0347 -0.3572
 4821SOL    HW219050   3.168   5.320   4.910 -0.3588 -1.1842 -0.8375
 4821SOL    HW319051   3.217   5.212   5.004  0.5240 -0.0357  0.0528
 4821SOL    MW419052   3.228   5.288   4.964 -0.7362  0.4919 -0.3250
 4822SOL     OW19053   2.720   5.894   0.530 -0.2186 -0.3190 -0.5138
 4822SOL    HW219054   2.651   5.898   0.596 -1.0554  2.4214 -1.4434
 4822SOL    HW319055   2.683   5.838   0.461  0.0315 -1.8854  0.5641
 4822SOL    MW419056   2.706   5.887   0.530 -0.0355  0.2777 -0.2942
 4823SOL     OW19057   1.914   1.468   4.036  0.2016 -0.1149 -0.7182
 4823SOL    HW219058   1.928   1.549   4.086 -3.6907  1.5146 -1.8544
 4823SOL    HW319059   1.889   1.403   4.101  0.9341  0.3135 -0.0021
 4823SOL    MW419060   1.912   1.470   4.051  0.1316 -0.0348 -0.3407
 4824SOL     OW19061   5.409   0.200   1.067  0.2745  0.0277 -0.1087
 4824SOL    HW219062   5.426   0.262   0.996 -0.0625 -0.7050 -0.8498
 4824SOL    HW319063   5.356   0.249   1.130  1.3421  0.9615  0.0848
 4824SOL    MW419064   5.404   0.215   1.066 -0.4087 -0.0961 -0.1521
 4825SOL     OW19065   2.426   2.118   3.048 -0.0202  0.2203 -0.1527
 4825SOL    HW219066   2.332   2.101   3.043  0.5820 -4.5024 -0.3024
 4825SOL    HW319067   2.441   2.145   3.139 -1.3322 -1.3414  0.5717
 4825SOL    MW419068   2.416   2.119   3.060 -0.4376 -0.4275 -0.3301
 4826SOL     OW19069   0.595   5.997   0.475  0.5109  0.0395 -0.4635
 4826SOL    HW219070   0.548   6.056   0.416 -0.7872 -0.5199 -0.0393
 4826SOL    HW319071   0.592   6.041   0.560 -1.4827 -1.0627  0.1235
 4826SOL    MW419072   0.588   6.011   0.479 -0.1803 -0.1414  0.0476
 4827SOL     OW19073   1.558   3.494   1.361  0.5327  0.3683 -0.1242
 4827SOL    HW219074   1.641   3.541   1.372  1.4315 -0.5930 -2.3061
 4827SOL    HW319075   1.555   3.472   1.268 -2.0337  0.0629 -0.0358
 4827SOL    MW419076   1.569   3.498   1.350 -0.0913  0.1125 -0.3478
 4828SOL     OW19077   0.884   3.493   1.348 -0.2074  0.5269 -0.1487
 4828SOL    HW219078   0.859   3.584   1.362  1.5065  0.9133  0.6087
 4828SOL    HW319079   0.820   3.460   1.285  0.1797  2.7740 -1.8488
 4828SOL    MW419080   0.873   3.500   1.342 -1.1456 -0.0969 -0.1153
 4829SOL     OW19081   3.636   2.048   0.366  0.2164  0.7890 -0.0902
 4829SOL    HW219082   3.629   1.969   0.313 -3.9805  1.2770 -0.5975
 4829SOL    HW319083   3.583   2.030   0.444 -0.8809  3.0055 -0.2307
 4829SOL    MW419084   3.628   2.035   0.369  0.3044 -0.3129 -0.3208
 4830SOL     OW19085   5.059   4.911   0.927 -0.0870  0.4571 -0.0617
 4830SOL    HW219086   5.067   5.003   0.900 -0.4142  0.0881 -1.4883
 4830SOL    HW319087   5.147   4.875   0.913 -0.1935  0.3276 -0.4031
 4830SOL    MW419088   5.072   4.918   0.921 -0.0449 -0.3562  0.3008
 4831SOL     OW19089   4.818   1.510   2.224  0.4360  0.1830 -0.2419
 4831SOL    HW219090   4.873   1.467   2.158  1.2973 -1.2778  1.3325
 4831SOL    HW319091   4.766   1.439   2.261 -1.0020  1.2089 -0.2506
 4831SOL    MW419092   4.819   1.495   2.220 -0.0190 -0.1454 -0.3342
 4832SOL     OW19093   0.988   2.096   1.217  0.2967 -0.3248 -0.0970
 4832SOL    HW219094   1.079   2.109   1.245  0.3624 -0.8164 -0.0784
 4832SOL    HW319095   0.947   2.049   1.290 -0.0291  0.0848 -0.0151
 4832SOL    MW419096   0.995   2.091   1.231 -0.2013  0.1827  0.0456
 4833SOL     OW19097   1.165   4.546   3.184 -0.2570  0.0011  0.0807
 4833SOL    HW219098   1.185   4.581   3.271  0.3639  0.7626 -0.3585
 4833SOL    HW319099   1.247   4.552   3.136 -0.1555 -1.9174 -0.0875
 4833SOL    MW419100   1.178   4.551   3.189 -0.5088  0.2355 -0.1824
 4834SOL     OW19101   3.115   4.268   4.855 -0.3443  0.4611  0.7721
 4834SOL    HW219102   3.195   4.317   4.838  0.2052 -0.9549 -0.9470
 4834SOL    HW319103   3.046   4.335   4.860  0.6677  1.5467  0.5872
 4834SOL    MW419104   3.117   4.283   4.854  0.7374  0.4124  0.5502
 4835SOL     OW19105   4.943   3.622   2.510 -0.2010  0.3498  0.0224
 4835SOL    HW219106   4.958   3.673   2.431  1.1332 -2.0258 -1.3953
 4835SOL    HW319107   4.859   3.579   2.496  0.1118 -0.2000 -0.2168
 4835SOL    MW419108   4.934   3.623   2.498  0.6732 -0.4673 -0.8637
 4836SOL     OW19109   5.233   2.542   0.455 -0.2625 -0.0727  0.0782
 4836SOL    HW219110   5.304   2.561   0.394 -0.7770 -0.2016 -0.5802
 4836SOL    HW319111   5.222   2.623   0.504  0.7144 -0.2384  0.5850
 4836SOL    MW419112   5.241   2.555   0.453  0.2965  0.0944 -0.3919
 4837SOL     OW19113   1.259   0.558   1.703 -0.0483 -0.3542 -0.0470
 4837SOL    HW219114   1.350   0.587   1.701  0.0029 -0.3542  1.3194
 4837SOL    HW319115   1.210   0.637   1.726  0.0831 -1.2004  3.6296
 4837SOL    MW419116   1.265   0.572   1.706 -0.1758  0.2868 -0.2227
 4838SOL     OW19117   4.846   2.566   2.252  0.1344  0.6765  0.0107
 4838SOL    HW219118   4.834   2.565   2.347  0.3180 -1.1266  0.0447
 4838SOL    HW319119   4.883   2.480   2.232  3.2251  2.1503 -1.3083
 4838SOL    MW419120   4.849   2.555   2.262  0.4604  0.0293  0.5707
 4839SOL     OW19121   5.897   1.439   6.031  0.0216 -0.7941  0.3541
 4839SOL    HW219122   5.942   1.442   6.116 -1.5339 -0.3806  1.2169
 4839SOL    HW319123   5.827   1.504   6.040 -0.5632 -1.2133 -1.0243
 4839SOL    MW419124   5.894   1.448   6.044 -0.3440 -0.4278 -0.1591
 4840SOL     OW19125   4.304   3.048   6.385 -0.5677  0.1356 -0.6733
 4840SOL    HW219126   4.254   2.967   6.390 -1.1718  0.3670 -2.3157
 4840SOL    HW319127   4.254   3.104   6.325 -0.3053  1.8406  0.6049
 4840SOL    MW419128   4.291   3.045   6.378  0.5605  0.2956  0.4450
 4841SOL     OW19129   4.661   6.231   6.014 -0.6139  0.0370  0.0146
 4841SOL    HW219130   4.589   6.191   5.965 -0.1067  0.4226 -1.0889
 4841SOL    HW319131   4.623   6.308   6.055 -0.8400  0.2337 -0.5573
 4841SOL    MW419132   4.647   6.236   6.013 -0.5363  0.7237  0.2211
 4842SOL     OW19133   1.697   3.464   2.217 -1.0096  0.0114  0.4026
 4842SOL    HW219134   1.710   3.464   2.122  0.3917  0.2295  0.5657
 4842SOL    HW319135   1.762   3.527   2.250 -0.1170 -1.4927  1.6541
 4842SOL    MW419136   1.707   3.473   2.209  0.1932  0.3878 -0.4319
 4843SOL     OW19137   3.722   0.026   6.333  0.1902 -0.3588  0.4814
 4843SOL    HW219138   3.687  -0.029   6.403  0.0527 -1.3475 -0.3427
 4843SOL    HW319139   3.721   0.114   6.370  1.3686 -1.0120  2.2035
 4843SOL    MW419140   3.717   0.030   6.347  0.0004  0.3230  0.6468
 4844SOL     OW19141   5.343   6.020   4.432  0.3587 -0.1181  0.2024
 4844SOL    HW219142   5.338   6.077   4.355  2.1829  2.4773  1.8548
 4844SOL    HW319143   5.259   6.032   4.476 -0.0505 -0.3114 -0.5090
 4844SOL    MW419144   5.331   6.029   4.428  0.1771  0.2277  0.4700
 4845SOL     OW19145   4.560   0.608   4.330  0.1878 -0.6887 -0.3353
 4845SOL    HW219146   4.649   0.606   4.367  0.0426 -0.9924  0.0012
 4845SOL    HW319147   4.532   0.516   4.330  0.1994 -0.6998 -1.2437
 4845SOL    MW419148   4.568   0.596   4.335 -0.3104 -0.2366 -0.3520
 4846SOL     OW19149   0.041   5.893   2.306 -0.1739  0.3528  0.3084
 4846SOL    HW219150   0.018   5.849   2.225 -1.8172  4.5361 -1.8144
 4846SOL    HW319151   0.117   5.947   2.282  0.3491  0.4625  2.0826
 4846SOL    MW419152   0.048   5.894   2.292 -0.0511 -0.1873 -0.1870
 4847SOL     OW19153   0.630   2.580   2.140  0.1702  0.0380 -0.2544
 4847SOL    HW219154   0.553   2.553   2.090 -0.1556  0.5518 -0.0465
 4847SOL    HW319155   0.692   2.508   2.131  1.5795  1.4628 -4.3258
 4847SOL    MW419156   0.628   2.567   2.132 -0.3521  0.9093 -0.2029
 4848SOL     OW19157   5.594   1.627   1.768  0.1672  0.0246 -0.1267
 4848SOL    HW219158   5.642   1.577   1.702 -2.2842  1.8517 -3.6652
 4848SOL    HW319159   5.651   1.702   1.787  1.4577 -1.1817  0.9302
 4848SOL    MW419160   5.608   1.630   1.762 -0.1204 -1.1902  0.3062
 4849SOL     OW19161   3.127   4.426   2.515  0.0447  0.0315  0.9102
 4849SOL    HW219162   3.180   4.470   2.582  1.7222 -0.5860  0.0559
 4849SOL    HW319163   3.171   4.342   2.502 -1.2027 -0.5361  0.1859
 4849SOL    MW419164   3.140   4.421   2.522  0.1749 -0.1895 -0.8500
 4850SOL     OW19165   6.143   5.919   6.154  0.0704  0.1606 -0.1852
 4850SOL    HW219166   6.065   5.913   6.210  0.1255  0.4051 -0.0831
 4850SOL    HW319167   6.201   5.850   6.186  0.6393  1.1062  0.8914
 4850SOL    MW419168   6.140   5.909   6.165  0.3264  0.1650 -0.2313
 4851SOL     OW19169   5.035   3.446   2.101 -0.3747  0.1519 -0.4253
 4851SOL    HW219170   4.945   3.439   2.069 -0.6990  2.3439 -0.1544
 4851SOL    HW319171   5.088   3.460   2.022 -0.5992  1.2454 -0.3877
 4851SOL    MW419172   5.030   3.447   2.086  0.6501  0.0096  0.2889
 4852SOL     OW19173   4.652   4.504   5.464 -0.6595 -0.9747  0.0311
 4852SOL    HW219174   4.702   4.448   5.524  1.2881 -1.3633 -1.8225
 4852SOL    HW319175   4.625   4.579   5.517  3.0568 -0.0740  0.9239
 4852SOL    MW419176   4.655   4.506   5.479  0.2381 -0.1754 -0.1542
 4853SOL     OW19177   5.325   0.014   0.733 -0.0638  0.0145 -0.1340
 4853SOL    HW219178   5.306  -0.028   0.649 -1.8444 -0.1877  0.3260
 4853SOL    HW319179   5.412   0.052   0.722  1.0171 -2.5270 -1.0685
 4853SOL    MW419180   5.334   0.014   0.720  0.3477 -0.8014 -0.3940
 4854SOL     OW19181   5.629   1.901   4.225 -0.2465  0.2400 -0.6211
 4854SOL    HW219182   5.717   1.934   4.247  0.1928 -0.5864 -1.1123
 4854SOL    HW319183   5.590   1.879   4.310  0.0609  0.5119 -0.4055
 4854SOL    MW419184   5.636   1.903   4.239 -0.0093  0.4760 -0.2271
 4855SOL     OW19185   4.530   5.611   2.649  0.1303 -0.8403  0.1151
 4855SOL    HW219186   4.583   5.591   2.726 -2.3008 -0.5029  2.0041
 4855SOL    HW319187   4.443   5.576   2.670 -0.8657  0.1525 -2.0480
 4855SOL    MW419188   4.526   5.604   2.662 -0.3153  0.2751 -0.0876
 4856SOL     OW19189   0.473   4.133   6.257 -0.5124 -0.1951 -0.4494
 4856SOL    HW219190   0.425   4.051   6.241  0.7957 -0.8672 -1.1290
 4856SOL    HW319191   0.406   4.201   6.255 -1.5766 -1.1999 -0.3055
 4856SOL    MW419192   0.457   4.131   6.254  0.5938  0.2990 -0.0012
 4857SOL     OW19193   3.818   1.504   3.712 -0.2408  0.4820 -0.0945
 4857SOL    HW219194   3.771   1.421   3.724  0.5671  0.0381  0.0495
 4857SOL    HW319195   3.860   1.520   3.796  0.2352  0.6400 -0.3623
 4857SOL    MW419196   3.817   1.495   3.725 -0.4658 -0.2924 -0.0305
 4858SOL     OW19197   5.540   3.472   2.565 -0.1532  0.0014  0.1554
 4858SOL    HW219198   5.500   3.456   2.480  1.5993  1.9514 -1.1349
 4858SOL    HW319199   5.633   3.456   2.552  0.1532  0.2809  1.7210
 4858SOL    MW419200   5.547   3.468   2.552  0.3358  0.2912  0.5757
 4859SOL     OW19201   2.950   3.666   2.201  0.3700  0.0977 -0.3553
 4859SOL    HW219202   2.873   3.641   2.150 -0.0901  0.9146 -0.0695
 4859SOL    HW319203   2.989   3.738   2.152  1.5333 -0.9572 -1.0277
 4859SOL    MW419204   2.945   3.672   2.188  0.0387  0.0366  1.2209
 4860SOL     OW19205   0.251   1.216   5.996  0.1387 -0.3594  0.3769
 4860SOL    HW219206   0.305   1.290   6.024 -0.3113  0.2344 -0.2925
 4860SOL    HW319207   0.256   1.154   6.069  1.6907 -0.3070  0.3476
 4860SOL    MW419208   0.259   1.218   6.010 -0.2174  0.2812  0.1455
 4861SOL     OW19209   4.295   0.538   4.204  0.6965  0.2075  0.2921
 4861SOL    HW219210   4.302   0.604   4.135  0.8803 -0.4203 -0.2969
 4861SOL    HW319211   4.380   0.494   4.204  0.2645 -0.6438  0.0565
 4861SOL    MW419212   4.307   0.541   4.195  0.5159 -0.6615 -0.1626
 4862SOL     OW19213   0.117   1.819   6.081 -0.0295  0.6256 -0.1263
 4862SOL    HW219214   0.131   1.866   6.164 -2.1379  3.5737 -1.2858
 4862SOL    HW319215   0.036   1.770   6.095  0.4002 -0.0645 -0.0056
 4862SOL    MW419216   0.108   1.818   6.094  0.1408  0.3950 -0.1985
 4863SOL     OW19217   5.180   3.714   0.176 -0.6464  0.2178 -0.5874
 4863SOL    HW219218   5.109   3.680   0.121  0.0692 -1.9507 -0.2863
 4863SOL    HW319219   5.258   3.671   0.142 -0.0254 -0.2718  1.3604
 4863SOL    MW419220   5.181   3.704   0.164  0.3817 -0.3338 -0.5344
 4864SOL     OW19221   2.973   6.246   3.177  0.3583 -0.0227 -0.3071
 4864SOL    HW219222   2.906   6.311   3.153 -0.3106 -0.4548  0.3690
 4864SOL    HW319223   2.990   6.261   3.269  1.3667  0.2228 -0.5227
 4864SOL    MW419224   2.967   6.256   3.186 -0.1185  0.9085  0.9798
 4865SOL     OW19225   4.329   3.751   0.679 -0.1092  0.4173 -0.4351
 4865SOL    HW219226   4.340   3.683   0.613 -0.5494  0.5657 -0.6637
 4865SOL    HW319227   4.414   3.796   0.680  0.0343  0.1580 -0.6057
 4865SOL    MW419228   4.342   3.748   0.670  0.1137 -0.1704 -0.6701
 4866SOL     OW19229   2.027   5.834   5.119 -0.3201  0.5318  0.2988
 4866SOL    HW219230   1.998   5.754   5.075 -1.2419  0.5309  0.8906
 4866SOL    HW319231   2.102   5.807   5.171  1.2644  0.6693 -1.7709
 4866SOL    MW419232   2.033   5.820   5.120 -0.1748 -0.2925 -0.0720
 4867SOL     OW19233   1.943   1.456   1.934  0.6421  0.6047  0.0960
 4867SOL    HW219234   1.892   1.524   1.978 -0.3185  0.9411 -1.4544
 4867SOL    HW319235   1.891   1.433   1.857  2.6195  0.6311 -1.3202
 4867SOL    MW419236   1.930   1.462   1.930  0.0974 -0.6125  0.3370
 4868SOL     OW19237   0.248   4.726   4.061  0.2176  0.0792 -0.0219
 4868SOL    HW219238   0.336   4.738   4.027  0.3108 -1.7800 -0.5457
 4868SOL    HW319239   0.254   4.650   4.119 -0.6369  1.1824  1.6046
 4868SOL    MW419240   0.260   4.717   4.064 -0.1158 -0.1148  0.5247
 4869SOL     OW19241   4.895   6.160   3.447  0.2254 -0.2655  0.3964
 4869SOL    HW219242   4.804   6.172   3.476 -0.1118 -1.5647 -0.0464
 4869SOL    HW319243   4.921   6.076   3.484  2.4254  1.4852  3.3079
 4869SOL    MW419244   4.886   6.150   3.456 -0.5134 -0.5488 -0.0504
 4870SOL     OW19245   6.312   5.754   2.021 -0.1268 -0.0126 -0.2416
 4870SOL    HW219246   6.300   5.787   1.932 -0.3199 -0.5338 -0.4151
 4870SOL    HW319247   6.314   5.659   2.010  0.1321 -0.0651  0.2792
 4870SOL    MW419248   6.311   5.746   2.007 -0.3407  0.1951 -0.2921
 4871SOL     OW19249   1.764   0.531   1.869 -0.2959 -0.6001  0.6093
 4871SOL    HW219250   1.797   0.617   1.895 -1.8122  0.3056 -0.2827
 4871SOL    HW319251   1.726   0.495   1.949 -1.1174  0.2991  0.6497
 4871SOL    MW419252   1.763   0.538   1.883 -0.6158 -0.0076 -0.1476
 4872SOL     OW19253   5.140   2.657   2.465 -0.6188 -0.3306 -0.0977
 4872SOL    HW219254   5.210   2.682   2.527 -1.4223  0.7508  0.4091
 4872SOL    HW319255   5.078   2.729   2.470 -2.3917 -1.8247  0.3639
 4872SOL    MW419256   5.141   2.670   2.474 -0.4281 -0.4130 -0.4793
 4873SOL     OW19257   6.021   4.594   6.025 -0.3412 -0.2116 -0.0504
 4873SOL    HW219258   5.931   4.594   6.057 -0.8214  0.9017 -1.3120
 4873SOL    HW319259   6.061   4.672   6.063  0.0462 -0.5840  0.3299
 4873SOL    MW419260   6.015   4.604   6.034 -0.2589 -0.1609 -0.1949
 4874SOL     OW19261   3.820   3.101   1.741 -0.3575 -0.5332 -0.3388
 4874SOL    HW219262   3.836   3.063   1.655 -0.5903 -2.2488  0.3307
 4874SOL    HW319263   3.726   3.089   1.755 -0.4989  0.6263 -0.2407
 4874SOL    MW419264   3.810   3.094   1.732  0.3018  0.0365  0.6607
 4875SOL     OW19265   0.042   0.041   5.230  0.4748  0.6525  0.1080
 4875SOL    HW219266  -0.031  -0.016   5.255 -0.2887  1.7224  0.3947
 4875SOL    HW319267   0.058   0.095   5.308  1.3178  0.7078 -0.0899
 4875SOL    MW419268   0.035   0.040   5.244  0.1556  0.2711  0.1699
 4876SOL     OW19269   0.682   5.377   4.399  0.3987 -0.2722 -0.1421
 4876SOL    HW219270   0.694   5.455   4.453  0.3494 -1.1719  1.1862
 4876SOL    HW319271   0.720   5.401   4.314 -0.1496  1.3959  0.0590
 4876SOL    MW419272   0.689   5.390   4.395  0.3198  0.3147  0.2612
 4877SOL     OW19273   6.229   2.095   2.750  0.7924  0.0173  0.2692
 4877SOL    HW219274   6.141   2.060   2.765  0.6034  0.5936  0.5588
 4877SOL    HW319275   6.215   2.169   2.690  1.0588  0.2020  0.4345
 4877SOL    MW419276   6.215   2.100   2.744  0.5860 -0.1291  0.4006
 4878SOL     OW19277   5.382   5.136   1.754 -0.2930 -0.3549 -0.0344
 4878SOL    HW219278   5.367   5.222   1.714 -0.8160 -1.3594 -2.1722
 4878SOL    HW319279   5.297   5.093   1.753  0.3908 -1.7971 -1.3765
 4878SOL    MW419280   5.369   5.142   1.748 -0.1630  0.2576  0.5940
 4879SOL     OW19281   2.746   1.649   6.208  0.1179  0.3779 -0.2245
 4879SOL    HW219282   2.686   1.596   6.261  0.4994 -2.3002 -2.2451
 4879SOL    HW319283   2.833   1.617   6.232  0.4641  1.0792 -0.5143
 4879SOL    MW419284   2.750   1.637   6.219  0.1006 -0.4033  0.0776
 4880SOL     OW19285   2.759   4.533   4.643  0.5812  0.2908 -0.1385
 4880SOL    HW219286   2.693   4.472   4.612 -1.3744  1.7298  0.9432
 4880SOL    HW319287   2.813   4.482   4.703  0.5617 -0.9511 -1.1560
 4880SOL    MW419288   2.758   4.519   4.647  0.5169 -0.0513  0.5696
 4881SOL     OW19289   3.789   5.009   2.220  0.4180 -0.1486  0.2057
 4881SOL    HW219290   3.842   5.085   2.195  1.1237 -0.2778  1.2655
 4881SOL    HW319291   3.740   5.039   2.296  0.8107 -0.8051  0.7202
 4881SOL    MW419292   3.790   5.023   2.226  0.1817  0.2904  0.2309
 4882SOL     OW19293   0.736   2.135   6.094 -0.2611  0.0306  0.0275
 4882SOL    HW219294   0.755   2.194   6.022 -1.3096  0.0141 -0.2777
 4882SOL    HW319295   0.804   2.154   6.159  1.5313 -0.8631 -1.4493
 4882SOL    MW419296   0.748   2.145   6.093 -0.6881 -0.1986 -0.6097
 4883SOL     OW19297   3.768   3.492   0.398  0.3744 -0.1983  0.0183
 4883SOL    HW219298   3.838   3.554   0.420 -0.3183  0.3823  0.6459
 4883SOL    HW319299   3.695   3.517   0.455 -0.4045 -0.6860 -0.7404
 4883SOL    MW419300   3.768   3.504   0.408 -0.6309  0.4140 -0.0590
 4884SOL     OW19301   3.930   5.129   4.874  0.3872 -0.2468 -0.7971
 4884SOL    HW219302   3.888   5.043   4.882 -1.9257  0.7562 -1.4649
 4884SOL    HW319303   3.930   5.163   4.964 -1.0033  0.0516 -0.8878
 4884SOL    MW419304   3.925   5.122   4.887  0.0579  0.3067  0.3006
 4885SOL     OW19305   5.338   1.175   0.298 -0.3504  0.2420 -0.1368
 4885SOL    HW219306   5.288   1.219   0.367 -1.3846  1.0047 -1.3361
 4885SOL    HW319307   5.337   1.083   0.323 -0.9657  0.4633  0.7083
 4885SOL    MW419308   5.332   1.169   0.310  0.3718  1.0068  0.3879
 4886SOL     OW19309   3.947   2.361   4.948 -0.2850  0.3669  0.1269
 4886SOL    HW219310   3.854   2.377   4.929 -0.8383  0.1306  2.3929
 4886SOL    HW319311   3.994   2.412   4.882 -2.0107  0.8597 -0.7851
 4886SOL    MW419312   3.941   2.370   4.937 -0.5727 -0.1954 -0.0463
 4887SOL     OW19313   2.462   5.170   1.885 -0.6997 -0.0648  0.4488
 4887SOL    HW219314   2.462   5.077   1.866 -0.1793 -0.0129  0.1873
 4887SOL    HW319315   2.411   5.178   1.966  0.1532 -0.7075  1.0746
 4887SOL    MW419316   2.456   5.159   1.893 -0.4157 -0.2553 -0.4938
 4888SOL     OW19317   5.244   0.109   3.533 -0.2624 -0.5964  0.0454
 4888SOL    HW219318   5.165   0.063   3.506 -0.6095 -0.7765  1.2763
 4888SOL    HW319319   5.229   0.129   3.626  0.1113  1.4890 -0.2842
 4888SOL    MW419320   5.231   0.106   3.542 -0.0786 -0.0092  0.2275
 4889SOL     OW19321   4.074   6.279   2.137  0.4364  0.4129 -0.1563
 4889SOL    HW219322   4.043   6.189   2.145 -1.9877  1.0088 -1.6027
 4889SOL    HW319323   4.123   6.295   2.217 -0.6100 -1.6432  0.9737
 4889SOL    MW419324   4.076   6.270   2.148  0.1376  0.3230 -0.0039
 4890SOL     OW19325   4.329   4.369   2.000  0.0219 -0.1913 -0.6940
 4890SOL    HW219326   4.353   4.356   2.092  0.8266  0.1834 -0.8517
 4890SOL    HW319327   4.333   4.282   1.962 -1.3309 -0.5290 -0.1516
 4890SOL    MW419328   4.332   4.356   2.007 -0.8263 -0.2203 -0.5908
 4891SOL     OW19329   5.370   3.995   5.945  0.4123  0.2447  0.7657
 4891SOL    HW219330   5.383   4.085   5.977  2.1203  1.0251 -1.8086
 4891SOL    HW319331   5.348   4.005   5.853 -0.8474 -1.9924  0.7571
 4891SOL    MW419332   5.369   4.009   5.937 -0.5603 -0.2007  0.6059
 4892SOL     OW19333   3.294   1.416   4.509  0.4550  0.5198  0.1127
 4892SOL    HW219334   3.300   1.395   4.602  0.5321 -3.0675 -0.5848
 4892SOL    HW319335   3.383   1.409   4.476  0.3391  1.1712 -0.3733
 4892SOL    MW419336   3.306   1.413   4.517  0.3907 -0.6674  0.3144
 4893SOL     OW19337   2.968   3.999   4.368  0.5964 -0.7337 -0.2912
 4893SOL    HW219338   2.979   3.952   4.285  0.3673 -0.6411 -0.3739
 4893SOL    HW319339   3.006   3.940   4.433  0.6140 -0.8873 -0.4369
 4893SOL    MW419340   2.974   3.985   4.365 -0.1996  0.0227  0.1426
 4894SOL     OW19341   3.450   3.075   5.859  0.4947 -0.1670 -0.2072
 4894SOL    HW219342   3.409   3.114   5.937  0.1178  0.0766 -0.5202
 4894SOL    HW319343   3.376   3.053   5.802  0.6150 -2.3247  0.3816
 4894SOL    MW419344   3.435   3.077   5.862 -0.0797  0.2734 -0.1481
 4895SOL     OW19345   3.616   0.006   5.247  0.0347 -0.2796  0.4288
 4895SOL    HW219346   3.629   0.090   5.204 -2.1362  0.2842  0.7349
 4895SOL    HW319347   3.637   0.022   5.339 -0.3721 -0.0404  0.4856
 4895SOL    MW419348   3.620   0.019   5.254 -0.7115 -0.0432 -0.7282
 4896SOL     OW19349   0.208   3.522   1.245 -0.1244  0.4593 -0.0349
 4896SOL    HW219350   0.194   3.617   1.244 -0.5840  0.4122  0.6524
 4896SOL    HW319351   0.290   3.509   1.199 -1.7241  0.8614 -3.3083
 4896SOL    MW419352   0.217   3.533   1.239  0.2884  0.0909 -0.4615
 4897SOL     OW19353   0.932   5.312   3.452  0.2845  0.3829  0.2942
 4897SOL    HW219354   0.983   5.390   3.473  0.7809 -0.4433  2.3457
 4897SOL    HW319355   0.846   5.328   3.491 -0.7009  1.2042 -2.0242
 4897SOL    MW419356   0.927   5.325   3.460  0.3123 -0.2361 -0.2651
 4898SOL     OW19357   1.938   1.360   4.725  0.0055  0.2283 -0.4152
 4898SOL    HW219358   1.997   1.291   4.696  1.4343  1.1797  0.0848
 4898SOL    HW319359   1.990   1.411   4.788 -1.8045  0.3190  1.0851
 4898SOL    MW419360   1.953   1.358   4.730 -0.1956  0.0407 -0.2779
 4899SOL     OW19361   3.134   2.162   3.937  0.1238 -0.2724 -0.0236
 4899SOL    HW219362   3.123   2.240   3.991 -2.3864 -0.7842  0.3273
 4899SOL    HW319363   3.110   2.191   3.849 -1.5140 -0.7620  0.2328
 4899SOL    MW419364   3.129   2.176   3.932 -0.1018 -0.3294  0.1976
 4900SOL     OW19365   1.453   1.542   2.949  0.4805  0.0630  0.1382
 4900SOL    HW219366   1.538   1.585   2.958  0.4675 -0.1314  1.4549
 4900SOL    HW319367   1.474   1.450   2.930  0.5396  0.2026 -0.4951
 4900SOL    MW419368   1.467   1.535   2.948 -0.0144 -0.0150  0.1409
 4901SOL     OW19369   0.080   1.428   4.805  0.6179 -0.1386 -0.2420
 4901SOL    HW219370   0.057   1.335   4.814  0.7482 -0.0412  1.2606
 4901SOL    HW319371   0.009   1.475   4.849  0.2883  0.5254 -1.4306
 4901SOL    MW419372   0.068   1.422   4.812  0.2605  0.0572  0.6054
 4902SOL     OW19373   0.761   2.023   3.625  0.1793 -0.3790 -0.0158
 4902SOL    HW219374   0.778   1.937   3.664  0.6439 -1.5558 -2.5381
 4902SOL    HW319375   0.698   2.005   3.555  0.2000  1.3581 -0.5220
 4902SOL    MW419376   0.755   2.009   3.621 -0.7112  0.9464  0.3256
 4903SOL     OW19377   2.068   4.759  -0.005  0.2759  0.2287  0.1147
 4903SOL    HW219378   2.130   4.803   0.053  1.6925 -1.1595 -0.2694
 4903SOL    HW319379   2.108   4.765  -0.092 -1.0181  0.8649 -0.4541
 4903SOL    MW419380   2.081   4.765  -0.009 -0.5592  0.7214  0.5488
 4904SOL     OW19381   0.487   4.283   3.290 -0.4376 -0.3986  0.2343
 4904SOL    HW219382   0.468   4.342   3.217  0.5276 -1.4965 -0.9448
 4904SOL    HW319383   0.425   4.309   3.358 -0.2644  1.7358 -0.3549
 4904SOL    MW419384   0.476   4.295   3.289 -0.3022 -0.1120  0.1303
 4905SOL     OW19385   4.638   6.040   5.416  0.0729 -0.2094  0.1161
 4905SOL    HW219386   4.572   6.044   5.348 -1.1303 -0.8112  1.1973
 4905SOL    HW319387   4.698   5.971   5.389 -0.9775 -1.1523  0.1467
 4905SOL    MW419388   4.637   6.032   5.404  0.0905  0.0930 -0.2772
 4906SOL     OW19389   3.370   5.251   1.757 -0.0780  0.3250 -0.8819
 4906SOL    HW219390   3.316   5.180   1.722 -0.9211  0.7682 -0.4860
 4906SOL    HW319391   3.347   5.256   1.849  1.4601 -0.2084 -0.4399
 4906SOL    MW419392   3.360   5.242   1.764  0.2343 -0.0720  0.4594
 4907SOL     OW19393   1.310   0.663   6.329  0.1842 -0.3732  0.1544
 4907SOL    HW219394   1.296   0.686   6.237  0.0409 -0.9176  0.0388
 4907SOL    HW319395   1.323   0.568   6.329  0.4660 -0.3391  0.6643
 4907SOL    MW419396   1.310   0.653   6.317  0.1853 -0.2110  0.1433
 4908SOL     OW19397   1.054   6.415   5.319 -0.0635  0.3245  0.8451
 4908SOL    HW219398   1.106   6.335   5.316 -0.0941  0.2920  1.2050
 4908SOL    HW319399   1.049   6.444   5.227  0.2776  0.1308  0.7660
 4908SOL    MW419400   1.060   6.408   5.306  0.1674 -0.4004  0.3913
 4909SOL     OW19401   5.353   5.924   2.997 -0.1561 -0.2023  0.1689
 4909SOL    HW219402   5.437   5.905   3.039  0.0131 -1.2504 -0.6100
 4909SOL    HW319403   5.298   5.849   3.020 -0.8226  0.3953  0.5286
 4909SOL    MW419404   5.357   5.912   3.006  0.1890 -0.1599  0.3026
 4910SOL     OW19405   1.087   0.963   2.473 -0.2105 -0.6037 -0.0770
 4910SOL    HW219406   1.158   0.928   2.418 -1.7996  0.7210 -3.2336
 4910SOL    HW319407   1.029   1.007   2.411 -2.9940 -0.2577  2.5789
 4910SOL    MW419408   1.089   0.964   2.458 -0.4779 -0.2278  0.7258
 4911SOL     OW19409   6.416   3.488   1.493  0.0114  0.1664  0.2624
 4911SOL    HW219410   6.491   3.544   1.475 -0.0580  0.5023  0.9825
 4911SOL    HW319411   6.421   3.472   1.588 -0.2002 -0.7100  0.1290
 4911SOL    MW419412   6.427   3.493   1.504  0.1202 -0.1288 -0.1113
 4912SOL     OW19413   6.307   3.043   3.783  0.3156 -0.3187  0.0690
 4912SOL    HW219414   6.306   3.137   3.796 -1.9179 -0.1534 -0.8431
 4912SOL    HW319415   6.393   3.025   3.742 -0.1100  1.6727 -1.9065
 4912SOL    MW419416   6.319   3.053   3.779 -0.2183 -0.8018  0.4088
 4913SOL     OW19417   3.032   4.749   2.557 -0.5689 -0.1933 -0.2847
 4913SOL    HW219418   3.121   4.766   2.525 -0.8141 -0.1598 -0.9788
 4913SOL    HW319419   3.016   4.657   2.534 -0.4971 -0.3728  0.3760
 4913SOL    MW419420   3.042   4.739   2.550 -0.1517 -0.1953  0.2195
 4914SOL     OW19421   2.111   0.481   2.633  0.0590  0.1624  0.2136
 4914SOL    HW219422   2.184   0.538   2.610 -0.4855  0.8826  0.2050
 4914SOL    HW319423   2.059   0.475   2.552 -0.3998  0.4532  0.4796
 4914SOL    MW419424   2.113   0.488   2.619 -0.4186 -0.0935 -0.0965
 4915SOL     OW19425   4.714   0.833   5.778  0.4093 -0.0798  0.0760
 4915SOL    HW219426   4.802   0.808   5.809  0.2042  0.1358  0.8395
 4915SOL    HW319427   4.659   0.827   5.856  0.6765  4.6413  0.9073
 4915SOL    MW419428   4.719   0.829   5.793 -0.6656  0.0115  0.0424
 4916SOL     OW19429   3.348   5.630   4.112 -0.3204 -0.3124 -0.0644
 4916SOL    HW219430   3.371   5.673   4.029  0.8860  2.5371  1.6261
 4916SOL    HW319431   3.252   5.629   4.112 -0.3632 -1.6075 -2.0358
 4916SOL    MW419432   3.339   5.635   4.101  0.3448  0.4650 -0.4168
 4917SOL     OW19433   3.624   5.936   0.942 -0.2201  0.5875  0.8801
 4917SOL    HW219434   3.605   6.029   0.956 -0.2330  0.6180  0.6530
 4917SOL    HW319435   3.543   5.900   0.906 -0.7568  0.1590  2.4392
 4917SOL    MW419436   3.611   5.944   0.939  0.2101 -0.0583  0.3263
 4918SOL     OW19437   5.458   3.267   5.769  0.0226  0.4154  0.4633
 4918SOL    HW219438   5.423   3.202   5.708 -1.1056 -0.6485  2.1599
 4918SOL    HW319439   5.524   3.315   5.718 -2.3948  1.1292 -2.2756
 4918SOL    MW419440   5.462   3.265   5.754 -0.6363 -0.0687  0.4622
 4919SOL     OW19441   3.099   5.937   5.625  0.2276 -0.1004  0.0217
 4919SOL    HW219442   3.140   5.872   5.681  0.7976  0.6405  0.4865
 4919SOL    HW319443   3.167   6.003   5.611 -0.9190  1.4241  1.2213
 4919SOL    MW419444   3.113   5.937   5.630 -0.7352  0.0380  0.0103
 4920SOL     OW19445   2.371   6.109   2.729 -0.4050 -0.5686 -0.5039
 4920SOL    HW219446   2.404   6.019   2.728  1.3481  0.0117  0.3988
 4920SOL    HW319447   2.441   6.161   2.690 -0.6900  0.6052  0.4797
 4920SOL    MW419448   2.385   6.104   2.724 -0.5182  0.7522  0.3727
 4921SOL     OW19449   1.356   1.808   1.040 -0.4863 -0.2066  0.8221
 4921SOL    HW219450   1.326   1.884   1.089 -1.1280  0.3361 -0.3518
 4921SOL    HW319451   1.448   1.827   1.020 -0.3618 -0.2105  1.3764
 4921SOL    MW419452   1.364   1.821   1.044 -0.0888  0.0839  0.3442
 4922SOL     OW19453   4.446   0.275   3.099  0.0675 -0.4779  0.2273
 4922SOL    HW219454   4.428   0.181   3.101  0.3615 -0.5867 -1.0950
 4922SOL    HW319455   4.364   0.314   3.068  0.1329 -0.3594  0.2038
 4922SOL    MW419456   4.433   0.268   3.095  0.1529 -0.2660  0.7431
 4923SOL     OW19457   5.569   0.445   3.482 -0.5247  0.0078  0.0160
 4923SOL    HW219458   5.552   0.520   3.425  1.6026  0.5433  0.0034
 4923SOL    HW319459   5.627   0.389   3.430  0.0193 -0.3565  0.9975
 4923SOL    MW419460   5.574   0.447   3.467  0.4758  0.0793 -0.2108
 4924SOL     OW19461   3.895   3.136   0.690  0.3986 -0.1996  0.2497
 4924SOL    HW219462   3.842   3.178   0.757 -0.0651  0.4167 -0.4856
 4924SOL    HW319463   3.891   3.196   0.616  1.4013 -0.5770 -0.1211
 4924SOL    MW419464   3.888   3.149   0.689  0.3170 -0.1052  0.0607
 4925SOL     OW19465   0.286   2.610   3.287  0.6977  0.5240  0.1584
 4925SOL    HW219466   0.375   2.641   3.299  0.9667 -0.9831  2.8513
 4925SOL    HW319467   0.296   2.527   3.239  0.7806  0.1571  0.8098
 4925SOL    MW419468   0.299   2.603   3.282  0.1344  0.0591  0.4598
 4926SOL     OW19469   0.823   6.271   3.043  0.2937 -0.2801 -0.4391
 4926SOL    HW219470   0.797   6.181   3.064  1.0047 -0.2896  0.4645
 4926SOL    HW319471   0.824   6.316   3.128  0.1127  0.5357 -0.8623
 4926SOL    MW419472   0.820   6.265   3.057  0.3013 -0.3454  0.3469
 4927SOL     OW19473   1.308   6.085   1.667  0.7011  0.2281  0.2489
 4927SOL    HW219474   1.326   6.172   1.632 -2.5420  0.4004 -1.3739
 4927SOL    HW319475   1.286   6.100   1.759  0.4115  1.1240  0.0422
 4927SOL    MW419476   1.307   6.098   1.675 -0.0849 -0.5713 -0.0011
 4928SOL     OW19477   1.175   0.486   3.050 -0.3842  0.3226 -0.1312
 4928SOL    HW219478   1.211   0.439   3.126  0.1419  1.2952  0.2419
 4928SOL    HW319479   1.081   0.482   3.063 -0.2941  0.6313  0.6810
 4928SOL    MW419480   1.168   0.479   3.062  0.5610 -0.4740  0.3463
 4929SOL     OW19481   0.924   1.894   0.310 -0.5104 -0.4795  0.3148
 4929SOL    HW219482   0.984   1.877   0.382  0.6743  3.6229  0.5511
 4929SOL    HW319483   0.963   1.851   0.235  1.3336 -0.0926  1.0140
 4929SOL    MW419484   0.937   1.886   0.310  0.0181 -0.5568  0.7669
 4930SOL     OW19485   0.743   0.438   0.152 -0.0324 -0.1801  0.3482
 4930SOL    HW219486   0.788   0.357   0.179 -0.3838 -0.2919  0.6124
 4930SOL    HW319487   0.800   0.508   0.181 -0.3516 -0.3020  1.3089
 4930SOL    MW419488   0.756   0.436   0.160 -0.2778  0.3812 -0.0527
 4931SOL     OW19489   1.624   0.145   3.892 -0.0696 -0.5577  0.1711
 4931SOL    HW219490   1.628   0.069   3.950 -1.1555  0.5005  1.6973
 4931SOL    HW319491   1.651   0.219   3.946  1.5253  0.1253 -1.4387
 4931SOL    MW419492   1.628   0.144   3.907 -0.2788 -0.1057 -0.1848
 4932SOL     OW19493   0.694   2.242   0.150 -0.0012  0.3154 -0.6510
 4932SOL    HW219494   0.664   2.162   0.106 -1.2555 -0.4204  1.4227
 4932SOL    HW319495   0.784   2.222   0.176 -0.7828 -1.1311  1.2359
 4932SOL    MW419496   0.702   2.228   0.147 -0.1682  0.6454  0.5464
 4933SOL     OW19497   2.113   2.395   6.014  0.2246  0.7999  0.2361
 4933SOL    HW219498   2.122   2.321   5.955 -0.6962  0.7462  0.1437
 4933SOL    HW319499   2.072   2.463   5.961 -1.2212  0.5346  0.9597
 4933SOL    MW419500   2.109   2.394   5.999 -0.0759 -0.2607 -0.7150
 4934SOL     OW19501   5.039   0.525   1.597 -0.3120  0.4473  0.6918
 4934SOL    HW219502   5.010   0.543   1.508 -2.2903  0.8349  1.3751
 4934SOL    HW319503   5.001   0.595   1.650 -1.1168 -1.0245  2.1745
 4934SOL    MW419504   5.030   0.537   1.593 -0.2600 -0.0028  0.1466
 4935SOL     OW19505   1.375   0.385   6.300  0.2049  0.3597 -0.5314
 4935SOL    HW219506   1.459   0.352   6.267 -0.3792  0.2188 -1.9602
 4935SOL    HW319507   1.315   0.310   6.291 -0.5395  1.0357 -1.4515
 4935SOL    MW419508   1.378   0.370   6.294 -0.1400 -0.5745 -0.7087
 4936SOL     OW19509   4.480   0.169   2.686  0.1799  0.2024  0.3886
 4936SOL    HW219510   4.523   0.112   2.750  0.8808  0.9164  0.5779
 4936SOL    HW319511   4.553   0.216   2.645 -0.4089  1.4313  0.7033
 4936SOL    MW419512   4.495   0.168   2.689  0.1925  0.4324  0.1054
 4937SOL     OW19513   3.829   3.831   4.282  0.1401  0.5832  0.3652
 4937SOL    HW219514   3.785   3.864   4.361 -1.6252  0.0687 -0.3612
 4937SOL    HW319515   3.901   3.893   4.268 -0.7078  1.8319  1.2734
 4937SOL    MW419516   3.833   3.844   4.291  0.1835 -0.2958  0.7961
 4938SOL     OW19517   2.394   0.201   3.222  0.2920 -0.4053 -0.6355
 4938SOL    HW219518   2.366   0.143   3.150  1.8693 -1.0031 -0.8097
 4938SOL    HW319519   2.410   0.142   3.295 -1.3762  0.2146  0.2710
 4938SOL    MW419520   2.393   0.186   3.222 -0.1515  0.0368  0.8791
 4939SOL     OW19521   0.630   0.739   1.792 -0.0139 -0.2872 -0.4855
 4939SOL    HW219522   0.710   0.691   1.814 -0.8063 -0.6306  1.9092
 4939SOL    HW319523   0.584   0.682   1.730  0.9826 -0.6384 -0.9430
 4939SOL    MW419524   0.635   0.725   1.786 -0.8823 -0.5440 -0.1301
 4940SOL     OW19525   0.027   4.141   5.396 -0.4475 -0.0322 -0.4617
 4940SOL    HW219526  -0.016   4.069   5.351  1.0404 -1.4940  0.3460
 4940SOL    HW319527  -0.010   4.140   5.484  0.2752 -0.5054 -0.1435
 4940SOL    MW419528   0.017   4.131   5.402 -0.8165 -0.7328  0.1256
 4941SOL     OW19529   3.805   4.459   2.945 -0.4674 -0.3784  0.2785
 4941SOL    HW219530   3.847   4.462   2.859  2.0750 -1.8673  1.3235
 4941SOL    HW319531   3.854   4.521   2.998 -0.6872 -0.9152  1.1348
 4941SOL    MW419532   3.817   4.467   2.941  0.2690 -0.7429 -0.5742
 4942SOL     OW19533   5.940   4.618   0.648 -0.0337  0.0273  0.0196
 4942SOL    HW219534   5.936   4.604   0.553  0.3825  0.8125 -0.1223
 4942SOL    HW319535   5.877   4.688   0.665  0.5285  0.5043  0.1868
 4942SOL    MW419536   5.931   4.625   0.637  0.0178  0.6976 -0.1156
 4943SOL     OW19537   4.993   5.920   6.198  0.1918 -0.2383 -0.0549
 4943SOL    HW219538   4.968   5.998   6.148  0.7212  0.6752  1.0421
 4943SOL    HW319539   4.930   5.853   6.172 -1.8869  1.2744  0.8199
 4943SOL    MW419540   4.982   5.922   6.188  0.4124 -0.3227 -0.4282
 4944SOL     OW19541   4.278   4.464   3.798 -0.2480 -0.0527 -0.2182
 4944SOL    HW219542   4.196   4.479   3.752 -0.0816 -0.0542 -0.5197
 4944SOL    HW319543   4.317   4.388   3.754 -0.4165 -0.4827  0.3777
 4944SOL    MW419544   4.273   4.456   3.786 -0.2399  0.5567 -0.4504
 4945SOL     OW19545   4.684   1.451   4.678  0.2274  0.0671  0.5215
 4945SOL    HW219546   4.602   1.422   4.638  0.5481 -1.5443  0.9700
 4945SOL    HW319547   4.662   1.533   4.720 -0.9612  0.0521 -0.0303
 4945SOL    MW419548   4.671   1.458   4.678 -0.5306 -0.4613 -0.2079
 4946SOL     OW19549   3.246   5.750   5.168  0.2742 -0.2174  0.1107
 4946SOL    HW219550   3.169   5.728   5.116  0.0060  1.4253 -0.2201
 4946SOL    HW319551   3.262   5.843   5.151  1.8849 -0.3413  0.7547
 4946SOL    MW419552   3.238   5.759   5.159 -0.4091 -0.2985  0.3609
 4947SOL     OW19553   5.133   2.559   5.406  0.1237  0.6768 -0.5078
 4947SOL    HW219554   5.150   2.644   5.445  0.2543  1.0687 -1.3846
 4947SOL    HW319555   5.217   2.532   5.370  0.1892 -0.0383  0.1591
 4947SOL    MW419556   5.146   2.567   5.406 -0.4930  0.1962 -0.6730
 4948SOL     OW19557   2.444   1.826   2.350 -0.3145 -0.0765 -0.1045
 4948SOL    HW219558   2.442   1.906   2.296 -0.8297  0.3591  0.5385
 4948SOL    HW319559   2.535   1.796   2.345  0.0287  0.8824  0.1182
 4948SOL    MW419560   2.456   1.833   2.342 -0.2993 -0.2887 -0.1221
 4949SOL     OW19561   4.714   0.111   1.431 -0.4522 -0.0830  0.4447
 4949SOL    HW219562   4.652   0.100   1.502 -0.0476 -0.7041  0.7134
 4949SOL    HW319563   4.789   0.057   1.456  0.5129  1.2044  0.4896
 4949SOL    MW419564   4.716   0.103   1.444 -0.1925 -0.0248  0.4207
 4950SOL     OW19565   5.754   1.656   3.366  0.3192 -0.0021 -0.1360
 4950SOL    HW219566   5.662   1.652   3.392 -0.1230 -0.2973 -1.6640
 4950SOL    HW319567   5.766   1.746   3.334 -0.0950 -0.5810 -2.0844
 4950SOL    MW419568   5.743   1.667   3.365  0.4071  0.0641 -0.1590
 4951SOL     OW19569   0.692   0.025   3.547 -0.0110 -0.4693  0.1204
 4951SOL    HW219570   0.715   0.026   3.454 -0.2351  5.3931 -0.2076
 4951SOL    HW319571   0.773  -0.000   3.591  1.4965  1.0857 -1.6047
 4951SOL    MW419572   0.706   0.022   3.541 -0.3570 -0.3477  0.4212
 4952SOL     OW19573   4.425   2.747   0.649  0.0115 -0.6526  0.4258
 4952SOL    HW219574   4.450   2.839   0.649  1.2183 -0.9383 -1.4140
 4952SOL    HW319575   4.446   2.716   0.738 -0.0784  0.7361  0.9458
 4952SOL    MW419576   4.431   2.755   0.661 -0.6609 -0.1723 -0.1077
 4953SOL     OW19577   4.516   0.804   1.150  0.1581 -0.5241  0.5643
 4953SOL    HW219578   4.576   0.869   1.112 -0.1061 -0.3056  0.5203
 4953SOL    HW319579   4.453   0.856   1.200 -0.4670 -0.6972 -0.0331
 4953SOL    MW419580   4.516   0.820   1.152 -0.2913  0.3570  0.3756
 4954SOL     OW19581   5.128   3.977   0.758  0.3554 -0.0641  0.1675
 4954SOL    HW219582   5.194   3.926   0.712  1.2453  0.9453  0.2934
 4954SOL    HW319583   5.052   3.976   0.700 -0.3030 -2.9269  0.8985
 4954SOL    MW419584   5.126   3.970   0.745  0.9961  0.1786  0.0965
 4955SOL     OW19585   3.142   1.081   4.925  0.6414 -0.2569 -0.1945
 4955SOL    HW219586   3.116   1.170   4.949  0.6237 -0.1475 -0.6202
 4955SOL    HW319587   3.237   1.080   4.937  0.5335 -0.4697  0.7444
 4955SOL    MW419588   3.151   1.093   4.930  0.0549 -0.4474 -0.7100
 4956SOL     OW19589   0.061   0.170   4.544 -0.3023  0.1565 -0.5395
 4956SOL    HW219590   0.057   0.081   4.577 -1.4762 -0.3794 -1.9983
 4956SOL    HW319591   0.083   0.223   4.620 -0.6537 -1.2474  0.5793
 4956SOL    MW419592   0.064   0.165   4.558  0.0701 -0.0177  0.0328
 4957SOL     OW19593   6.115   3.433   5.327  0.2682 -0.1210  0.0741
 4957SOL    HW219594   6.173   3.462   5.398 -0.5502 -2.3774  1.7956
 4957SOL    HW319595   6.165   3.365   5.282  0.1762  0.1981 -0.5200
 4957SOL    MW419596   6.129   3.428   5.330 -0.3106  0.0058  0.2115
 4958SOL     OW19597   3.673   1.526   5.895 -0.5258  0.2836  0.1340
 4958SOL    HW219598   3.757   1.557   5.929 -0.8566  0.1667  1.0842
 4958SOL    HW319599   3.695   1.447   5.845 -0.1983 -0.4940  1.4511
 4958SOL    MW419600   3.687   1.519   5.893  0.5053  0.1758 -0.5897
 4959SOL     OW19601   5.052   4.014   2.282  0.3453 -0.0943  0.1389
 4959SOL    HW219602   4.986   3.949   2.259 -1.2050  1.2210  0.7177
 4959SOL    HW319603   5.135   3.966   2.280 -0.7603 -2.1172  0.7720
 4959SOL    MW419604   5.055   3.999   2.278 -0.0369 -0.5016 -0.0268
 4960SOL     OW19605   6.283   0.265   2.288 -0.4743 -0.2881 -0.3670
 4960SOL    HW219606   6.334   0.307   2.357  0.2333  0.4759 -1.3343
 4960SOL    HW319607   6.192   0.273   2.318 -0.1714 -0.1081  0.5413
 4960SOL    MW419608   6.278   0.271   2.301  0.5042 -0.6265  0.0577
 4961SOL     OW19609   3.536   1.902   5.323  0.6370  0.4917 -0.1366
 4961SOL    HW219610   3.598   1.858   5.265  0.1828  0.2491 -0.4494
 4961SOL    HW319611   3.554   1.866   5.409  0.6117  0.0608 -0.3070
 4961SOL    MW419612   3.547   1.891   5.326 -0.0897  0.0174  0.5809
 4962SOL     OW19613   3.883   5.801   1.156 -0.0667 -0.0679 -0.7190
 4962SOL    HW219614   3.852   5.774   1.070 -0.2606  1.1306 -1.0481
 4962SOL    HW319615   3.864   5.727   1.213 -1.0105 -0.4224 -1.4737
 4962SOL    MW419616   3.876   5.788   1.152  0.2518 -0.1053 -0.1234
 4963SOL     OW19617   0.152   3.727   0.691  0.2244  0.2279  0.2089
 4963SOL    HW219618   0.122   3.644   0.653 -1.0767  0.9875 -0.5124
 4963SOL    HW319619   0.242   3.736   0.661 -0.0750 -0.2531 -0.8720
 4963SOL    MW419620   0.160   3.717   0.682 -0.7209 -0.3516  0.5148
 4964SOL     OW19621   4.590   4.226   3.864 -0.2668 -0.7188 -0.2617
 4964SOL    HW219622   4.548   4.239   3.779  0.5322 -2.3461 -0.9400
 4964SOL    HW319623   4.649   4.152   3.851  1.2792  0.1751  1.2097
 4964SOL    MW419624   4.592   4.218   3.851 -0.1134 -0.1634  0.2104
 4965SOL     OW19625   5.516   3.754   5.974 -0.0193 -0.0999 -0.5285
 4965SOL    HW219626   5.465   3.830   5.948  2.7638  2.3299  0.5593
 4965SOL    HW319627   5.505   3.750   6.069 -2.5480 -3.0766 -0.7900
 4965SOL    MW419628   5.507   3.763   5.983  0.4446  0.5179 -0.8801
 4966SOL     OW19629   2.202   3.381   0.318 -0.2866  0.8290  0.4366
 4966SOL    HW219630   2.253   3.455   0.350 -0.9475  1.2721  0.4900
 4966SOL    HW319631   2.201   3.319   0.392  0.9704  0.3839  0.0964
 4966SOL    MW419632   2.209   3.382   0.332 -0.6415 -0.7241 -0.3035
 4967SOL     OW19633   1.012   2.437   3.509 -0.3776 -0.0131 -0.3078
 4967SOL    HW219634   1.081   2.492   3.473 -0.8478 -0.2425 -1.6071
 4967SOL    HW319635   0.940   2.497   3.528 -0.9076 -0.1470 -1.7678
 4967SOL    MW419636   1.011   2.452   3.507  0.0326 -0.7839  0.0150
 4968SOL     OW19637   2.866   1.238   2.835  0.0542  0.0742  0.1577
 4968SOL    HW219638   2.906   1.168   2.783 -1.5552 -0.7602 -0.0113
 4968SOL    HW319639   2.940   1.289   2.867  1.3082 -1.8134  0.4236
 4968SOL    MW419640   2.881   1.235   2.832 -0.3248 -0.8603  0.0409
 4969SOL     OW19641   5.296   2.046   5.285 -0.1995  0.2666 -0.5515
 4969SOL    HW219642   5.376   2.094   5.304  1.3526  0.2934 -5.6132
 4969SOL    HW319643   5.238   2.111   5.246 -0.7480 -0.6572 -1.3213
 4969SOL    MW419644   5.299   2.061   5.283  0.3334  0.3716  0.9624
 4970SOL     OW19645   0.529   2.252   2.016 -0.0056  0.2449  0.0691
 4970SOL    HW219646   0.543   2.232   1.924  0.8277  1.2462 -0.0468
 4970SOL    HW319647   0.484   2.337   2.016 -0.4256  0.0313  0.5792
 4970SOL    MW419648   0.525   2.261   2.004  1.4709  0.1601  0.4000
 4971SOL     OW19649   5.207   5.211   6.109  0.6663  0.5815  0.6162
 4971SOL    HW219650   5.273   5.141   6.114  1.8486  1.6081  0.0270
 4971SOL    HW319651   5.138   5.175   6.054 -0.7293 -1.6153  3.5884
 4971SOL    MW419652   5.207   5.197   6.102 -0.9035 -0.2780 -0.2034
 4972SOL     OW19653   0.365   1.387   5.246  0.5031 -0.4662  0.3601
 4972SOL    HW219654   0.346   1.410   5.155  0.5169 -0.7500  0.2861
 4972SOL    HW319655   0.460   1.377   5.249  0.9296  2.6085  1.1027
 4972SOL    MW419656   0.375   1.389   5.234  0.0097  0.0408  0.6681
 4973SOL     OW19657   3.612   3.770   2.927 -0.0483  0.5755 -0.5207
 4973SOL    HW219658   3.620   3.783   2.833  2.1364 -0.5284 -0.5490
 4973SOL    HW319659   3.529   3.723   2.938  0.9331 -1.7124 -2.1951
 4973SOL    MW419660   3.602   3.766   2.916  0.5146 -0.2244  0.6395
 4974SOL     OW19661   0.475   3.682   0.977 -0.9160  0.4275 -0.3682
 4974SOL    HW219662   0.555   3.726   1.004 -0.6568 -1.2772  1.9412
 4974SOL    HW319663   0.406   3.745   0.992 -0.3491  0.7694  0.9555
 4974SOL    MW419664   0.477   3.696   0.982 -0.2493 -0.1530  0.4258
 4975SOL     OW19665   2.701   1.752   1.221 -0.0549 -0.0905 -0.3182
 4975SOL    HW219666   2.694   1.836   1.175 -0.4054  0.4145  0.6178
 4975SOL    HW319667   2.766   1.703   1.172 -1.0139  0.0941 -1.8274
 4975SOL    MW419668   2.709   1.757   1.209  0.4519  0.2402  0.1906
 4976SOL     OW19669   2.355   3.880   4.694  0.5146 -0.2767 -0.4084
 4976SOL    HW219670   2.392   3.878   4.606  0.7707 -0.6409 -0.2951
 4976SOL    HW319671   2.408   3.817   4.744  0.8983  0.5404  0.2233
 4976SOL    MW419672   2.367   3.871   4.689 -0.1947 -0.0138  0.1200
 4977SOL     OW19673   0.674   5.180   0.868 -0.3857 -0.1532 -0.3025
 4977SOL    HW219674   0.653   5.119   0.796 -0.9275 -0.2629 -0.0591
 4977SOL    HW319675   0.623   5.147   0.942 -0.3526  0.3514 -0.0526
 4977SOL    MW419676   0.664   5.167   0.868 -0.2540 -0.0367  0.0396
 4978SOL     OW19677   1.222   3.022   5.302  0.1192 -0.0829 -0.0830
 4978SOL    HW219678   1.230   2.930   5.279  2.0712 -0.3090  1.2770
 4978SOL    HW319679   1.165   3.023   5.379 -2.3092  0.2041 -1.7611
 4978SOL    MW419680   1.215   3.010   5.309  0.5102 -0.5080  0.9613
 4979SOL     OW19681   2.970   2.909   2.628 -0.1838  0.1283 -0.1326
 4979SOL    HW219682   2.999   2.893   2.718 -1.5479  1.2010  0.5191
 4979SOL    HW319683   2.890   2.961   2.637 -0.5810 -0.1144 -1.9596
 4979SOL    MW419684   2.964   2.914   2.641 -0.2631  0.9208 -0.1794
 4980SOL     OW19685   1.170   3.547   1.165 -0.1275 -0.2396 -0.1169
 4980SOL    HW219686   1.106   3.537   1.235 -3.3482  1.8417 -2.4254
 4980SOL    HW319687   1.173   3.462   1.122 -0.1873 -0.7958  0.9723
 4980SOL    MW419688   1.162   3.535   1.168 -0.2715 -0.4041 -0.1655
 4981SOL     OW19689   4.936   2.256   3.259  0.0294  1.1177 -0.2296
 4981SOL    HW219690   4.994   2.181   3.256  0.1003  1.1520  0.2365
 4981SOL    HW319691   4.930   2.279   3.352  0.1932  1.8293 -0.3891
 4981SOL    MW419692   4.943   2.249   3.271 -0.0330  0.3948 -0.2713
 4982SOL     OW19693   5.191   1.277   2.992 -0.6003 -0.1741  0.0116
 4982SOL    HW219694   5.254   1.335   3.035  1.7138 -0.3120 -2.8315
 4982SOL    HW319695   5.124   1.336   2.956  1.2602  0.8231 -2.0968
 4982SOL    MW419696   5.190   1.293   2.993 -0.3043  0.1086 -0.4164
 4983SOL     OW19697   5.736   4.069   3.898  0.2995  0.1588  0.0873
 4983SOL    HW219698   5.829   4.044   3.905  0.2930 -0.0084 -0.3568
 4983SOL    HW319699   5.689   3.996   3.938  0.2803 -0.5754 -1.2144
 4983SOL    MW419700   5.742   4.056   3.904 -0.6047 -0.0520  0.9228
 4984SOL     OW19701   2.957   5.907   2.062  0.4608  0.1388  0.1125
 4984SOL    HW219702   2.890   5.923   2.129  0.2912 -0.4650  0.0941
 4984SOL    HW319703   3.040   5.917   2.109  0.3815  1.5770 -0.0236
 4984SOL    MW419704   2.959   5.910   2.077  0.0070  0.2509  0.5589
 4985SOL     OW19705   5.619   4.175   2.333  0.0701  0.0073 -0.1678
 4985SOL    HW219706   5.641   4.240   2.266  2.3881 -0.0086  0.4813
 4985SOL    HW319707   5.665   4.096   2.305  1.0619 -0.0022  1.4009
 4985SOL    MW419708   5.628   4.174   2.320 -0.4032  0.2074  1.1850
 4986SOL     OW19709   2.862   4.494   2.797  0.1428 -0.2205 -0.1455
 4986SOL    HW219710   2.900   4.575   2.831 -1.3778  0.6743 -0.5077
 4986SOL    HW319711   2.861   4.435   2.873 -2.0419  1.3220  1.1301
 4986SOL    MW419712   2.867   4.496   2.812  0.9434  0.0182 -0.3443
 4987SOL     OW19713   3.314   5.486   1.947 -0.1503  0.2161  0.0870
 4987SOL    HW219714   3.377   5.473   2.018  0.2893  2.3710  0.1672
 4987SOL    HW319715   3.236   5.438   1.975  0.7023 -0.6910  1.0192
 4987SOL    MW419716   3.312   5.478   1.960  0.2541  0.3570  0.4257
 4988SOL     OW19717   3.915   2.344   1.878  0.1921 -0.8301 -0.2258
 4988SOL    HW219718   3.938   2.360   1.786 -0.5193 -0.7887 -0.4008
 4988SOL    HW319719   3.820   2.355   1.881  0.1214 -1.5636  0.3687
 4988SOL    MW419720   3.906   2.347   1.866  0.0651 -0.1509 -0.9118
 4989SOL     OW19721   0.103   0.574   4.607  1.0466  0.7348 -0.0917
 4989SOL    HW219722   0.086   0.632   4.533  2.6812 -0.4521 -1.4651
 4989SOL    HW319723   0.192   0.596   4.635  1.1880 -0.2226  0.2297
 4989SOL    MW419724   0.112   0.585   4.601  0.3498 -0.3228 -0.2602
 4990SOL     OW19725   2.931   2.688   6.243  0.2236  0.4851  0.4333
 4990SOL    HW219726   2.909   2.735   6.323  0.2828  3.3523 -1.1126
 4990SOL    HW319727   2.949   2.598   6.272 -1.4491  0.9789  3.3452
 4990SOL    MW419728   2.931   2.682   6.257 -0.3671  0.0283  0.1590
 4991SOL     OW19729   6.384   1.043   2.248 -0.6757  0.2487 -0.2210
 4991SOL    HW219730   6.333   1.054   2.328  0.4041  0.7919  0.4130
 4991SOL    HW319731   6.368   0.953   2.222  0.9837 -0.8038  2.0692
 4991SOL    MW419732   6.375   1.033   2.255  0.2276 -0.4648  0.0983
 4992SOL     OW19733   4.682   0.565   5.097  0.1190  0.0900  0.0589
 4992SOL    HW219734   4.603   0.612   5.072  0.1321  0.0342 -0.0832
 4992SOL    HW319735   4.721   0.537   5.015 -0.9752 -1.9986  0.1864
 4992SOL    MW419736   4.677   0.568   5.083 -0.3913 -0.1363  0.3463
 4993SOL     OW19737   5.028   0.113   0.090  0.2652 -0.2365  0.0503
 4993SOL    HW219738   5.012   0.050   0.160 -4.3451  0.7135  0.1296
 4993SOL    HW319739   5.044   0.196   0.135  0.1871 -0.1654 -0.0529
 4993SOL    MW419740   5.028   0.115   0.105 -0.7336  0.0630 -0.3577
 4994SOL     OW19741   1.318   2.873   3.770 -0.3732  0.2498 -0.3190
 4994SOL    HW219742   1.229   2.850   3.798  0.1887 -0.1258  1.2434
 4994SOL    HW319743   1.354   2.921   3.845  1.1711 -0.7100 -0.4158
 4994SOL    MW419744   1.311   2.877   3.784 -0.0154 -0.0619  0.2791
 4995SOL     OW19745   5.199   3.906   3.271 -0.4560 -0.3238 -0.1980
 4995SOL    HW219746   5.251   3.847   3.326  0.0515  0.5508  0.2735
 4995SOL    HW319747   5.263   3.953   3.218 -0.7737  0.6369  0.2576
 4995SOL    MW419748   5.214   3.904   3.271  0.0316 -0.1142  0.3797
 4996SOL     OW19749   0.750   5.801   1.200  0.2909 -0.1074  0.4477
 4996SOL    HW219750   0.827   5.849   1.170 -1.0852  1.9700  0.0336
 4996SOL    HW319751   0.710   5.766   1.120 -1.7690  2.9637 -0.0534
 4996SOL    MW419752   0.755   5.802   1.186 -0.4076  0.1239 -0.6049
 4997SOL     OW19753   3.033   3.112   5.300 -0.1011  0.0804 -0.5747
 4997SOL    HW219754   2.938   3.102   5.308 -0.1358 -1.2134 -2.1046
 4997SOL    HW319755   3.057   3.055   5.228  1.8974  0.1957 -0.0578
 4997SOL    MW419756   3.024   3.103   5.291  0.1647  0.0003 -0.4400
 4998SOL     OW19757   6.105   6.315   2.695 -0.5710 -0.1820  0.6562
 4998SOL    HW219758   6.127   6.249   2.760  0.6799 -0.4668 -0.0255
 4998SOL    HW319759   6.162   6.295   2.620 -2.4836 -0.3406 -0.8461
 4998SOL    MW419760   6.115   6.304   2.693 -0.7560 -0.5811  0.0806
 4999SOL     OW19761   2.569   2.022   4.998  0.2301  0.4830 -0.1591
 4999SOL    HW219762   2.620   2.102   4.996 -0.5150  1.0277  1.2705
 4999SOL    HW319763   2.564   1.994   4.907 -1.0607  3.0795 -0.9718
 4999SOL    MW419764   2.575   2.029   4.986  0.6809 -0.4290  0.1122
 5000SOL     OW19765   2.879   2.079   2.732  0.4210 -0.0414  0.1854
 5000SOL    HW219766   2.815   2.145   2.709  0.7133 -0.1682 -1.0678
 5000SOL    HW319767   2.828   2.008   2.770  0.1356  0.9977  1.8258
 5000SOL    MW419768   2.864   2.078   2.734 -0.0987  0.0156 -0.3023
 5001SOL     OW19769   3.524   0.245   2.149 -0.0579  0.0879  0.1497
 5001SOL    HW219770   3.599   0.190   2.171  1.3430  1.6986 -0.3772
 5001SOL    HW319771   3.521   0.310   2.218 -0.6946  0.3008 -0.0732
 5001SOL    MW419772   3.534   0.246   2.161  0.0243  0.7794  0.5285
 5002SOL     OW19773   5.122   3.534   5.648  0.4432 -0.1720 -0.0544
 5002SOL    HW219774   5.071   3.473   5.700 -0.5368  2.3358  2.1261
 5002SOL    HW319775   5.184   3.574   5.710  2.2693 -0.1694 -1.7646
 5002SOL    MW419776   5.123   3.532   5.663 -0.6099 -0.0287 -0.8583
 5003SOL     OW19777   5.324   4.910   5.285  0.2051  0.4678  0.0877
 5003SOL    HW219778   5.371   4.851   5.343 -0.5246  0.8148  1.0471
 5003SOL    HW319779   5.361   4.997   5.304  0.7767  0.4450 -0.8129
 5003SOL    MW419780   5.335   4.914   5.295  0.3105  0.3735 -0.4949
 5004SOL     OW19781   5.548   2.083   2.397  0.2437 -0.3933  0.2221
 5004SOL    HW219782   5.517   2.130   2.319  1.2388  0.0595  0.0945
 5004SOL    HW319783   5.468   2.064   2.446 -0.2204  1.0235  0.0482
 5004SOL    MW419784   5.533   2.087   2.393  0.3128  0.0098 -0.5759
 5005SOL     OW19785   0.704   5.593   0.650  0.1839 -0.2986  0.4988
 5005SOL    HW219786   0.734   5.651   0.580 -0.2050 -1.4632 -0.6627
 5005SOL    HW319787   0.745   5.509   0.631 -0.0407 -0.6764  1.6024
 5005SOL    MW419788   0.713   5.590   0.638  0.3839 -0.4120  0.5324
 5006SOL     OW19789   0.638   6.023   1.320  0.4769 -0.5167  0.1238
 5006SOL    HW219790   0.588   6.067   1.251 -1.7848 -0.8423  1.4623
 5006SOL    HW319791   0.655   5.935   1.286 -2.3930 -1.3703  0.6753
 5006SOL    MW419792   0.634   6.018   1.307 -0.4086 -0.4822  0.1750
 5007SOL     OW19793   0.449   2.212   4.232  0.4095  0.1920  0.0838
 5007SOL    HW219794   0.414   2.287   4.282 -2.2188 -0.2803 -0.8781
 5007SOL    HW319795   0.442   2.239   4.141 -0.5734 -1.1988 -0.2749
 5007SOL    MW419796   0.443   2.226   4.227  0.1167  0.2107  0.1681
 5008SOL     OW19797   6.057   2.574   1.304 -0.0632 -0.4059 -0.1127
 5008SOL    HW219798   6.117   2.530   1.363  1.6900 -0.0210 -1.5236
 5008SOL    HW319799   6.107   2.647   1.268 -1.7396  0.5896 -0.5436
 5008SOL    MW419800   6.071   2.578   1.307  0.0563 -0.1144 -0.3561
 5009SOL     OW19801   5.938   0.938   4.993  0.3905  0.7472 -0.2396
 5009SOL    HW219802   5.913   0.891   4.914  0.1762 -0.3268  0.4487
 5009SOL    HW319803   6.033   0.926   4.999  0.2059 -0.4170  0.4435
 5009SOL    MW419804   5.947   0.930   4.983  0.3301 -0.0244 -0.2617
 5010SOL     OW19805   5.047   2.224   0.645 -0.0901  0.2787  0.1901
 5010SOL    HW219806   5.106   2.289   0.683 -0.7713 -0.2399  2.2885
 5010SOL    HW319807   4.994   2.273   0.582  0.4491  1.4251  0.5971
 5010SOL    MW419808   5.048   2.239   0.642 -0.3436  0.1508 -0.0121
 5011SOL     OW19809   3.884   4.106   3.966 -0.1993 -0.1776 -0.1358
 5011SOL    HW219810   3.941   4.033   3.943  1.6200  0.7519  1.1411
 5011SOL    HW319811   3.865   4.094   4.059 -0.2723  0.7245 -0.0274
 5011SOL    MW419812   3.889   4.095   3.975  0.7068  0.7099  0.3148
 5012SOL     OW19813   4.743   2.992   0.365 -0.1441 -0.1457  0.0444
 5012SOL    HW219814   4.730   2.903   0.398 -2.3890 -0.6750 -1.9334
 5012SOL    HW319815   4.654   3.026   0.355  0.6424  1.9894 -0.1397
 5012SOL    MW419816   4.729   2.985   0.368 -0.4312  0.4011  0.2315
 5013SOL     OW19817   5.833   5.842   4.613 -0.7255  0.2472  0.4328
 5013SOL    HW219818   5.916   5.860   4.657 -0.8391  2.3168 -0.1058
 5013SOL    HW319819   5.853   5.772   4.551  0.6317  0.7306  0.2982
 5013SOL    MW419820   5.847   5.835   4.610  0.0327  0.2386  0.0368
 5014SOL     OW19821   6.321   0.626   6.211 -0.0342 -0.5467  0.2270
 5014SOL    HW219822   6.344   0.534   6.205 -0.1169 -0.5925  0.6184
 5014SOL    HW319823   6.257   0.640   6.141 -0.9187 -1.0602  0.9109
 5014SOL    MW419824   6.316   0.616   6.201 -0.7004 -0.5190  0.1251
 5015SOL     OW19825   2.986   1.659   4.849  0.5993  0.4217 -0.0133
 5015SOL    HW219826   2.924   1.675   4.921  2.1137 -2.3550  2.1521
 5015SOL    HW319827   3.059   1.717   4.867  0.9788 -0.2704  0.7988
 5015SOL    MW419828   2.988   1.669   4.861 -0.0449  0.5509 -0.4438
 5016SOL     OW19829   5.194   4.899   3.027 -0.2594  0.8097  0.5999
 5016SOL    HW219830   5.264   4.919   3.090 -0.3606 -1.8690  1.6953
 5016SOL    HW319831   5.241   4.863   2.951 -0.2983  1.5148  0.2405
 5016SOL    MW419832   5.210   4.897   3.025 -0.1421  0.7232 -0.4629
 5017SOL     OW19833   4.683   2.973   1.603 -0.1259  0.1687  0.6235
 5017SOL    HW219834   4.727   2.888   1.608 -0.1380  0.1851  1.0696
 5017SOL    HW319835   4.699   3.004   1.514  1.0807  0.3357  0.8823
 5017SOL    MW419836   4.691   2.966   1.592 -0.4646 -0.1119  0.3380
 5018SOL     OW19837   0.796   5.127   4.445  0.3832 -0.2910  0.3976
 5018SOL    HW219838   0.740   5.201   4.422 -0.5644 -1.6018 -1.9257
 5018SOL    HW319839   0.736   5.064   4.487  0.7377 -0.5612  0.5064
 5018SOL    MW419840   0.781   5.128   4.447 -0.1535 -0.0667  0.1508
 5019SOL     OW19841   2.767   3.042   6.196 -0.0626  0.4483 -0.1947
 5019SOL    HW219842   2.710   2.974   6.160  1.2470  0.6666 -2.9944
 5019SOL    HW319843   2.710   3.118   6.205 -1.0404 -0.3693  0.8447
 5019SOL    MW419844   2.752   3.043   6.192  0.3422 -0.2315  0.1550
 5020SOL     OW19845   3.676   0.105   3.419 -0.2626 -0.5159 -0.5562
 5020SOL    HW219846   3.729   0.127   3.343  0.3069  2.0312  0.4609
 5020SOL    HW319847   3.735   0.119   3.494 -1.7544  0.4534  0.5040
 5020SOL    MW419848   3.691   0.110   3.419  0.5346 -0.2398  0.1036
 5021SOL     OW19849   6.383   2.009   1.745 -0.7673  0.5445 -0.0915
 5021SOL    HW219850   6.340   1.942   1.798 -0.0118 -0.3885 -0.6373
 5021SOL    HW319851   6.418   1.962   1.669 -2.8401  1.9834 -2.1025
 5021SOL    MW419852   6.382   1.994   1.742  0.3332 -0.4864 -0.0531
 5022SOL     OW19853   2.559   6.413   6.406  0.2028  0.2219 -0.2339
 5022SOL    HW219854   2.632   6.350   6.408 -1.4239 -1.7850 -0.5453
 5022SOL    HW319855   2.523   6.404   6.317 -1.9959 -0.8018  0.6924
 5022SOL    MW419856   2.564   6.403   6.394 -0.2023 -0.7987  0.4886
 5023SOL     OW19857   0.705   5.506   0.140  0.2904  0.2365  0.5026
 5023SOL    HW219858   0.791   5.503   0.182  0.2868  3.8806  1.0671
 5023SOL    HW319859   0.644   5.493   0.212  0.2527 -2.3314  0.1045
 5023SOL    MW419860   0.708   5.504   0.155 -0.5622 -0.5598 -0.3442
 5024SOL     OW19861   5.578   6.165   0.832 -0.7008 -0.2231  0.8863
 5024SOL    HW219862   5.668   6.135   0.842 -0.7137 -0.4157  0.4442
 5024SOL    HW319863   5.584   6.260   0.830 -0.1736 -0.2262 -1.9463
 5024SOL    MW419864   5.590   6.173   0.833 -0.4788 -0.4210  0.3652
 5025SOL     OW19865   1.254   3.886   5.946  0.3066 -0.1006 -0.7568
 5025SOL    HW219866   1.278   3.942   6.020  2.4004 -1.6228 -0.2088
 5025SOL    HW319867   1.197   3.941   5.893  0.9400  1.9850  0.5934
 5025SOL    MW419868   1.250   3.901   5.949  0.0719 -0.0325  0.1798
 5026SOL     OW19869   3.445   5.660   0.602 -0.1154 -0.2050 -0.1632
 5026SOL    HW219870   3.532   5.629   0.624 -0.4334 -0.7892  0.3171
 5026SOL    HW319871   3.386   5.592   0.636 -0.7573  0.2156 -0.4091
 5026SOL    MW419872   3.448   5.647   0.610 -0.4624  0.7271 -0.5479
 5027SOL     OW19873   0.613   1.027   5.464 -0.1797  0.3809 -0.0061
 5027SOL    HW219874   0.522   1.055   5.457 -0.3379 -0.1895 -0.2798
 5027SOL    HW319875   0.642   1.060   5.550 -1.1662 -0.8784  0.8526
 5027SOL    MW419876   0.605   1.035   5.475  0.4317 -0.0883  0.2434
 5028SOL     OW19877   1.130   0.521   2.294  0.0075  0.0526 -0.3343
 5028SOL    HW219878   1.056   0.475   2.254  0.0005  0.6720 -1.0515
 5028SOL    HW319879   1.090   0.579   2.359 -0.0435 -0.3946  0.0383
 5028SOL    MW419880   1.115   0.523   2.297 -0.5454  0.0039 -0.0748
 5029SOL     OW19881   3.502   6.352   1.878 -0.1296 -0.5607 -0.0369
 5029SOL    HW219882   3.497   6.307   1.793  0.1820 -0.2831 -0.2042
 5029SOL    HW319883   3.434   6.311   1.931  0.4187 -1.5267 -0.0494
 5029SOL    MW419884   3.493   6.340   1.874 -0.1108  0.3341 -0.0894
 5030SOL     OW19885   3.048   3.090   6.261  0.1625 -0.0943  0.0975
 5030SOL    HW219886   2.956   3.085   6.236  0.3940 -2.0204 -0.5530
 5030SOL    HW319887   3.094   3.034   6.198  1.8119  0.9330  0.3191
 5030SOL    MW419888   3.042   3.082   6.250  0.2936 -0.4644  0.4527
 5031SOL     OW19889   2.330   0.408   6.061  0.4458  0.3268 -0.5722
 5031SOL    HW219890   2.343   0.347   6.133 -1.6098  1.2573  0.6820
 5031SOL    HW319891   2.399   0.474   6.072 -0.6250  1.1821  1.4106
 5031SOL    MW419892   2.341   0.409   6.072  0.2555  0.2051  0.2602
 5032SOL     OW19893   1.932   0.365   3.453  0.7089  0.3593  0.0698
 5032SOL    HW219894   2.027   0.365   3.438  0.5193 -0.8553 -1.2727
 5032SOL    HW319895   1.895   0.332   3.372 -0.9273  1.4059  0.3603
 5032SOL    MW419896   1.940   0.360   3.440 -0.3139 -0.1343  0.0457
 5033SOL     OW19897   1.562   3.307   0.690  0.6799 -0.0997 -0.6211
 5033SOL    HW219898   1.608   3.240   0.640 -1.1499 -0.6090 -1.6804
 5033SOL    HW319899   1.510   3.355   0.626  0.7419  1.3577  0.3466
 5033SOL    MW419900   1.561   3.305   0.675  0.1552 -0.0607  0.5627
 5034SOL     OW19901   4.428   4.176   0.156 -0.3910  0.6255 -0.3058
 5034SOL    HW219902   4.463   4.087   0.158  0.9376  0.9990 -3.0473
 5034SOL    HW319903   4.502   4.232   0.183 -0.4720  1.0510 -0.9443
 5034SOL    MW419904   4.442   4.172   0.160  0.4509 -0.1387 -0.5857
 5035SOL     OW19905   5.214   0.752   0.073  0.0099 -0.2459 -0.5993
 5035SOL    HW219906   5.129   0.792   0.090  0.8579  0.7277  1.8885
 5035SOL    HW319907   5.225   0.689   0.145  0.9817 -1.0798 -1.4518
 5035SOL    MW419908   5.204   0.749   0.085 -0.0827 -0.5522  0.0272
 5036SOL     OW19909   5.326   2.301   0.548  0.5294 -0.2317 -0.4090
 5036SOL    HW219910   5.416   2.310   0.580 -0.2029  0.4600  1.6464
 5036SOL    HW319911   5.301   2.390   0.522  0.7639 -0.6083 -1.9559
 5036SOL    MW419912   5.334   2.314   0.549  0.3210 -0.1306  0.4960
 5037SOL     OW19913   4.677   6.255   3.922 -0.0352 -0.1606  0.5213
 5037SOL    HW219914   4.666   6.181   3.864  1.1178 -0.6188  0.8572
 5037SOL    HW319915   4.686   6.331   3.864 -1.3025 -0.2483  0.1844
 5037SOL    MW419916   4.677   6.255   3.907 -0.1160 -0.3223 -0.0407
 5038SOL     OW19917   5.044   3.805   5.046 -0.3324 -0.3866 -0.0099
 5038SOL    HW219918   5.072   3.787   5.135  0.5894 -0.5685 -0.3215
 5038SOL    HW319919   5.050   3.720   5.001 -2.8665 -0.7694  0.2636
 5038SOL    MW419920   5.049   3.791   5.052 -0.8854 -0.0703 -0.2904
 5039SOL     OW19921   5.497   3.074   0.648  0.0115  0.6843 -0.3400
 5039SOL    HW219922   5.535   3.033   0.725  0.6457  0.7269 -0.6277
 5039SOL    HW319923   5.541   3.159   0.642  0.5587  0.3402 -1.2197
 5039SOL    MW419924   5.508   3.080   0.658 -0.0348 -0.1822 -0.1390
 5040SOL     OW19925   1.186   2.748   1.382  0.3691  0.3357  0.6328
 5040SOL    HW219926   1.109   2.706   1.342  1.7156 -1.2806 -0.4412
 5040SOL    HW319927   1.238   2.778   1.307  0.3529  2.2892  1.3645
 5040SOL    MW419928   1.183   2.746   1.367 -0.7999 -0.1112 -0.3809
 5041SOL     OW19929   0.960   3.262   0.840  0.2354  0.1165 -0.1455
 5041SOL    HW219930   0.945   3.351   0.809  1.7886 -0.0108 -1.4152
 5041SOL    HW319931   1.019   3.273   0.915  0.0097  0.1748  0.0255
 5041SOL    MW419932   0.966   3.275   0.846 -0.3401 -0.3653  0.4044
 5042SOL     OW19933   5.847   2.103   4.282 -0.5379  0.1442  0.6797
 5042SOL    HW219934   5.931   2.149   4.279  0.7640 -2.1460 -1.7433
 5042SOL    HW319935   5.862   2.030   4.342 -0.4470 -0.8162 -0.4784
 5042SOL    MW419936   5.860   2.100   4.290 -0.4370  0.1375 -0.3156
 5043SOL     OW19937   1.415   3.269   4.171  0.4423  0.2586  0.0482
 5043SOL    HW219938   1.323   3.298   4.173 -0.1851 -1.6400  1.7149
 5043SOL    HW319939   1.410   3.176   4.153  1.8516 -0.3557  2.4036
 5043SOL    MW419940   1.402   3.261   4.169  0.5829  0.1794  0.0065
 5044SOL     OW19941   0.899   2.468   0.704 -0.2755 -0.3077  0.0705
 5044SOL    HW219942   0.938   2.412   0.772  0.8181 -0.1123 -0.3787
 5044SOL    HW319943   0.862   2.406   0.641 -0.2768 -0.4988  0.2564
 5044SOL    MW419944   0.899   2.452   0.705  0.1811 -0.2749 -0.6968
 5045SOL     OW19945   4.846   1.259   3.668  0.1336  0.4356  0.9277
 5045SOL    HW219946   4.837   1.165   3.655  2.2985  0.0940  1.5067
 5045SOL    HW319947   4.788   1.279   3.742 -1.2921 -0.1740  0.0100
 5045SOL    MW419948   4.837   1.249   3.676  0.4097  0.1076  0.2717
 5046SOL     OW19949   5.696   3.524   0.844 -0.5827 -0.2630 -0.1326
 5046SOL    HW219950   5.602   3.508   0.858 -0.2230 -1.0866  1.6116
 5046SOL    HW319951   5.716   3.476   0.764 -1.8215  0.6691 -1.0445
 5046SOL    MW419952   5.686   3.515   0.835  0.1170  0.7682  0.3613
 5047SOL     OW19953   2.817   6.262   0.049 -0.6569  0.1609 -0.4377
 5047SOL    HW219954   2.827   6.167   0.052 -0.7087  0.1826  1.5117
 5047SOL    HW319955   2.890   6.296   0.101 -0.6142  1.2070 -1.1448
 5047SOL    MW419956   2.828   6.254   0.056 -0.1718 -0.3124 -0.0360
 5048SOL     OW19957   5.914   3.889   6.180  0.3295 -0.0885  0.4305
 5048SOL    HW219958   5.994   3.934   6.153 -0.9536  2.8237  1.1069
 5048SOL    HW319959   5.847   3.921   6.119 -0.8259 -0.3841  1.5110
 5048SOL    MW419960   5.915   3.899   6.168  0.0607  0.2629 -0.0534
 5049SOL     OW19961   3.603   5.040   1.575 -0.2912 -0.3918 -0.4041
 5049SOL    HW219962   3.689   5.017   1.539 -0.5716  1.3150 -2.3520
 5049SOL    HW319963   3.595   5.134   1.561 -1.5223 -0.0621  1.9758
 5049SOL    MW419964   3.613   5.049   1.568 -0.4351 -0.4162  1.0199
 5050SOL     OW19965   4.864   3.000   3.939  0.3590 -0.3441 -0.4324
 5050SOL    HW219966   4.942   2.957   3.972  0.9133  0.5158 -0.5845
 5050SOL    HW319967   4.791   2.954   3.980  0.9437 -1.1535 -0.2926
 5050SOL    MW419968   4.864   2.988   3.949  0.1463  0.1094  0.0933
 5051SOL     OW19969   0.980   4.838   4.596 -0.2602 -0.2809  0.4529
 5051SOL    HW219970   0.962   4.900   4.667  0.1070  0.1295  0.1873
 5051SOL    HW319971   1.001   4.756   4.642  1.2611  0.3081  0.8728
 5051SOL    MW419972   0.981   4.835   4.612  0.0653 -0.4672 -0.1493
 5052SOL     OW19973   2.876   0.951   1.694  0.3433  0.0187  0.4950
 5052SOL    HW219974   2.956   0.907   1.724  1.6445  2.7055  1.3154
 5052SOL    HW319975   2.815   0.942   1.767 -0.9721 -3.6823 -0.8346
 5052SOL    MW419976   2.879   0.944   1.708  0.2975 -0.4294  0.1414
 5053SOL     OW19977   4.186   5.258   4.232 -0.0809 -0.1793  0.2682
 5053SOL    HW219978   4.187   5.349   4.201 -0.3297 -0.3994 -0.4043
 5053SOL    HW319979   4.233   5.209   4.164  2.8889 -0.1166  2.0864
 5053SOL    MW419980   4.193   5.264   4.219 -0.2921 -0.7060  0.2216
 5054SOL     OW19981   5.999   5.507   5.534 -0.4998  0.4971  0.3308
 5054SOL    HW219982   6.067   5.530   5.597 -0.9555 -0.8701  1.3816
 5054SOL    HW319983   5.932   5.574   5.545  0.9008  2.2528 -1.1905
 5054SOL    MW419984   5.999   5.519   5.543 -0.0106  0.2389 -0.3645
 5055SOL     OW19985   2.811   5.945   2.293 -0.3084 -0.1329 -0.0248
 5055SOL    HW219986   2.875   5.874   2.299 -1.0273 -0.7185  1.2615
 5055SOL    HW319987   2.733   5.911   2.338 -0.4485  1.6771  1.2315
 5055SOL    MW419988   2.809   5.931   2.300  0.3646 -0.0801  0.3270
 5056SOL     OW19989   6.193   3.252   4.270  0.4314 -0.4614  0.0994
 5056SOL    HW219990   6.203   3.276   4.362 -1.0834 -0.7750  0.3642
 5056SOL    HW319991   6.101   3.267   4.251  0.9620  0.8335 -1.7350
 5056SOL    MW419992   6.182   3.257   4.280  0.1247 -0.6018  0.0789
 5057SOL     OW19993   3.544   5.174   2.814  0.5121  0.0911 -0.1252
 5057SOL    HW219994   3.463   5.209   2.852 -1.1911 -1.9900 -1.6189
 5057SOL    HW319995   3.597   5.150   2.890 -0.6897  0.5811  0.9024
 5057SOL    MW419996   3.541   5.176   2.829 -0.0860  0.1343 -0.3248
 5058SOL     OW19997   3.882   0.772   2.747 -1.1846 -0.2510 -0.6223
 5058SOL    HW219998   3.922   0.719   2.679 -0.0946 -1.0776  0.6039
 5058SOL    HW319999   3.788   0.759   2.737 -0.9724 -1.6717 -0.9461
 5058SOL    MW420000   3.875   0.763   2.737  0.7798  0.1239  0.2893
 5059SOL     OW20001   1.898   1.420   6.280  0.1809  0.0413  0.6489
 5059SOL    HW220002   1.837   1.472   6.227 -0.9027 -0.7705  1.0589
 5059SOL    HW320003   1.970   1.480   6.299 -1.1898  1.5211  1.4042
 5059SOL    MW420004   1.899   1.435   6.275 -0.2967  0.1499  0.6381
 5060SOL     OW20005   0.065   1.949   3.271  0.1702 -0.2422  0.5782
 5060SOL    HW220006   0.070   1.871   3.215  0.3345 -0.7672  1.3119
 5060SOL    HW320007   0.004   1.925   3.341  0.4592  0.1738  0.9783
 5060SOL    MW420008   0.058   1.935   3.273  0.1099  0.3991 -0.5012
 5061SOL     OW20009   3.069   5.699   5.485  0.4931  0.4655  0.1443
 5061SOL    HW220010   3.007   5.654   5.543  1.9002  1.1955  2.3374
 5061SOL    HW320011   3.062   5.791   5.509  2.1008  0.6169  0.1395
 5061SOL    MW420012   3.060   5.705   5.496  0.7367  0.3940  0.0123
 5062SOL     OW20013   2.878   0.209   0.590 -0.2598  0.1751 -0.3986
 5062SOL    HW220014   2.847   0.170   0.508 -3.2932 -1.5771  1.3976
 5062SOL    HW320015   2.918   0.136   0.638 -0.5891  0.6231  0.5950
 5062SOL    MW420016   2.879   0.194   0.586 -0.4886 -0.2081  0.3911
 5063SOL     OW20017   1.880   3.697   2.307 -0.2357 -0.1729 -0.3789
 5063SOL    HW220018   1.966   3.685   2.268 -0.8384 -0.0774 -1.8001
 5063SOL    HW320019   1.876   3.790   2.331 -0.0933 -0.0922 -0.6756
 5063SOL    MW420020   1.891   3.707   2.305 -0.5123 -0.4581  0.0573
 5064SOL     OW20021   5.110   0.665   3.123  0.3944 -0.1965 -0.5309
 5064SOL    HW220022   5.073   0.744   3.160 -1.6014 -1.2821 -0.0879
 5064SOL    HW320023   5.160   0.695   3.047  1.9228  1.7185  1.1191
 5064SOL    MW420024   5.112   0.679   3.117  0.4024  0.2547  0.8302
 5065SOL     OW20025   2.082   3.621   3.136 -0.0655 -0.5779  0.0802
 5065SOL    HW220026   2.029   3.699   3.122  3.4593  1.8908 -0.9494
 5065SOL    HW320027   2.087   3.579   3.049  1.2280  0.3551 -0.3211
 5065SOL    MW420028   2.075   3.625   3.122 -0.1640  0.0936  0.6818
 5066SOL     OW20029   5.847   1.945   3.341  0.5107  0.0718  0.3698
 5066SOL    HW220030   5.892   1.936   3.425  0.8367  0.5178  0.2486
 5066SOL    HW320031   5.835   2.039   3.331 -2.4339 -0.0887  1.4241
 5066SOL    MW420032   5.852   1.956   3.351  0.0886  0.8122  0.0616
 5067SOL     OW20033   2.749   2.807   1.377 -0.2414 -0.3757 -0.2959
 5067SOL    HW220034   2.835   2.814   1.417 -1.4140  2.1807  2.1392
 5067SOL    HW320035   2.763   2.757   1.297  3.2056 -1.2883  0.7221
 5067SOL    MW420036   2.762   2.801   1.372  0.0865 -1.1004  0.1535
 5068SOL     OW20037   0.497   1.562   2.518 -0.1114  0.3571 -0.0055
 5068SOL    HW220038   0.496   1.476   2.559 -0.9419  0.5614  0.4297
 5068SOL    HW320039   0.579   1.565   2.470 -1.0299 -1.5343 -1.8673
 5068SOL    MW420040   0.507   1.551   2.517 -0.2415 -0.1656 -0.1872
 5069SOL     OW20041   1.439   3.887   5.053  0.3177 -0.5827  0.4725
 5069SOL    HW220042   1.497   3.928   4.989  0.5178 -1.4082  0.1032
 5069SOL    HW320043   1.368   3.850   5.001  0.6275 -1.5042  0.6753
 5069SOL    MW420044   1.437   3.888   5.038  0.4081 -0.3663  0.2336
 5070SOL     OW20045   3.403   1.784   3.018 -0.3678 -0.2013  0.7731
 5070SOL    HW220046   3.486   1.827   2.998 -0.2008  0.2658  2.3477
 5070SOL    HW320047   3.345   1.809   2.946  1.2981 -1.9745 -1.3411
 5070SOL    MW420048   3.406   1.793   3.006  0.4493 -0.1717  0.1485
 5071SOL     OW20049   6.275   6.211   1.035 -1.0379 -0.1141  0.0492
 5071SOL    HW220050   6.346   6.160   1.075 -0.8683 -1.2311 -1.5958
 5071SOL    HW320051   6.310   6.301   1.032 -0.3331 -0.3522  0.7070
 5071SOL    MW420052   6.289   6.216   1.040  0.5880 -0.1550 -1.0113
 5072SOL     OW20053   6.187   0.151   1.047  0.7089  0.1293 -0.0593
 5072SOL    HW220054   6.206   0.245   1.050  1.8330 -0.1072  1.5545
 5072SOL    HW320055   6.094   0.145   1.069  0.3364  0.9098 -1.3212
 5072SOL    MW420056   6.177   0.163   1.050  0.2864 -0.2095 -0.5959
 5073SOL     OW20057   5.049   4.505   5.851  0.8390 -0.2048 -0.2294
 5073SOL    HW220058   5.047   4.411   5.833  0.3716 -0.0546 -0.9985
 5073SOL    HW320059   5.110   4.540   5.786  1.4447 -0.0331  0.4062
 5073SOL    MW420060   5.057   4.497   5.840  0.6998 -0.5032  0.8224
 5074SOL     OW20061   3.678   2.797   2.954  0.3302 -0.0205 -0.0055
 5074SOL    HW220062   3.592   2.770   2.988  0.3372  0.7277  0.6232
 5074SOL    HW320063   3.721   2.715   2.930 -0.8932 -0.3606 -1.1482
 5074SOL    MW420064   3.672   2.783   2.955 -0.0499  0.2000  0.4774
 5075SOL     OW20065   5.211   4.924   2.632  0.2428  0.1292 -0.0433
 5075SOL    HW220066   5.268   4.876   2.572  0.5041  0.2887  0.0733
 5075SOL    HW320067   5.240   4.897   2.719 -0.0446  0.0004  0.0135
 5075SOL    MW420068   5.223   4.914   2.636  0.0589  0.9637 -0.1632
 5076SOL     OW20069   2.492   3.374   1.596 -0.0786  0.5480  0.4366
 5076SOL    HW220070   2.536   3.332   1.522 -1.2691 -2.2137  1.1694
 5076SOL    HW320071   2.558   3.376   1.665 -0.2231 -1.0546  0.6658
 5076SOL    MW420072   2.507   3.369   1.595 -0.2413 -0.3761 -0.1939
 5077SOL     OW20073   3.484   3.916   4.753 -0.9652 -0.2099 -0.8600
 5077SOL    HW220074   3.438   3.833   4.745  1.2591 -1.5400 -0.6909
 5077SOL    HW320075   3.470   3.942   4.845 -0.3277 -1.2654 -0.4471
 5077SOL    MW420076   3.476   3.909   4.764 -0.2283  0.9056  0.9187
 5078SOL     OW20077   3.535   4.401   2.810  0.7307  0.3099 -0.3381
 5078SOL    HW220078   3.562   4.318   2.771  0.9099  0.0475  0.3418
 5078SOL    HW320079   3.598   4.417   2.879 -1.5901 -1.0490  2.2861
 5078SOL    MW420080   3.547   4.392   2.814 -0.4804  0.0306  0.5503
 5079SOL     OW20081   2.554   0.447   5.667 -0.0291  0.4245 -0.2339
 5079SOL    HW220082   2.527   0.537   5.648 -2.0570 -0.4582 -2.0485
 5079SOL    HW320083   2.479   0.409   5.713  0.2506 -0.7051 -0.6779
 5079SOL    MW420084   2.540   0.454   5.670 -0.0502 -0.6175 -0.1102
 5080SOL     OW20085   0.389   3.541   3.563  0.2340  0.5709  0.2464
 5080SOL    HW220086   0.440   3.468   3.596 -0.7008  0.2951  1.1015
 5080SOL    HW320087   0.395   3.608   3.631 -0.0035  0.7798  0.0652
 5080SOL    MW420088   0.396   3.540   3.576  0.3163  0.1466 -0.1808
 5081SOL     OW20089   4.818   5.646   2.468  0.3984  0.7312 -0.4612
 5081SOL    HW220090   4.850   5.566   2.510  0.1279  0.3117 -1.0351
 5081SOL    HW320091   4.895   5.685   2.428  0.4858  0.6124 -0.4103
 5081SOL    MW420092   4.832   5.640   2.468  0.3886  0.2697 -0.3864
 5082SOL     OW20093   5.704   3.124   5.440  0.1087  0.1709 -0.0140
 5082SOL    HW220094   5.785   3.147   5.485  0.3386 -1.2513  0.3647
 5082SOL    HW320095   5.667   3.208   5.412  0.2509  1.1050  2.3158
 5082SOL    MW420096   5.710   3.138   5.443 -0.2590  0.1910  0.1283
 5083SOL     OW20097   3.642   3.918   5.718 -0.3421  0.0020  0.0385
 5083SOL    HW220098   3.682   3.867   5.788 -2.7302  0.9991  2.3102
 5083SOL    HW320099   3.649   4.009   5.747 -1.1830  0.4601 -1.1163
 5083SOL    MW420100   3.648   3.923   5.731 -0.3469 -0.2690 -0.3020
 5084SOL     OW20101   5.268   4.540   6.026  0.2389  0.3633  0.3223
 5084SOL    HW220102   5.207   4.537   5.952  0.9867 -1.0245 -0.2671
 5084SOL    HW320103   5.355   4.543   5.986  0.6065  2.0353  1.1578
 5084SOL    MW420104   5.271   4.540   6.011 -0.1863 -0.4893  0.1890
 5085SOL     OW20105   0.248   3.852   1.018  0.6703  0.3352 -0.0124
 5085SOL    HW220106   0.240   3.947   1.005 -0.1189  0.3802  0.6702
 5085SOL    HW320107   0.164   3.817   0.989  0.8661 -0.1270 -0.0255
 5085SOL    MW420108   0.236   3.860   1.013  0.0648  0.2298  0.0751
 5086SOL     OW20109   5.837   2.031   0.126  0.0491 -0.3898 -0.1447
 5086SOL    HW220110   5.803   1.947   0.095 -0.4197  0.2025 -1.3261
 5086SOL    HW320111   5.892   2.009   0.201  0.4292 -1.8085 -0.8061
 5086SOL    MW420112   5.840   2.017   0.131  0.1106  0.0294  0.4030
 5087SOL     OW20113   6.088   2.174   3.428 -0.4265 -0.7977  0.1398
 5087SOL    HW220114   6.072   2.082   3.448  1.6903 -0.9459  1.5035
 5087SOL    HW320115   6.083   2.218   3.513  0.6626 -0.0276 -0.1721
 5087SOL    MW420116   6.085   2.168   3.442 -0.0906  0.1615 -0.1500
 5088SOL     OW20117   5.098   0.499   2.515  0.4633  0.0280  0.7661
 5088SOL    HW220118   5.134   0.456   2.438 -0.3713  0.3938  0.1523
 5088SOL    HW320119   5.068   0.426   2.571  1.4800 -0.2487  0.9624
 5088SOL    MW420120   5.099   0.483   2.512  0.4194  0.1201  0.2292
 5089SOL     OW20121   1.185   1.193   1.904  0.3868 -0.3530  0.0709
 5089SOL    HW220122   1.155   1.103   1.895 -0.1438 -0.1787  0.0868
 5089SOL    HW320123   1.262   1.198   1.847  1.0756 -1.1139  0.9051
 5089SOL    MW420124   1.191   1.182   1.895  0.2513  0.1684 -0.1911
 5090SOL     OW20125   3.445   0.264   3.093  0.3204 -0.0729  0.8141
 5090SOL    HW220126   3.502   0.332   3.057 -1.3184  0.2208 -1.5001
 5090SOL    HW320127   3.497   0.184   3.090  0.8706  0.3156 -0.6042
 5090SOL    MW420128   3.459   0.262   3.087 -0.1256 -0.2436 -0.3894
 5091SOL     OW20129   5.537   2.005   6.396  0.2665  0.8377  0.4395
 5091SOL    HW220130   5.450   2.028   6.364  0.0211 -2.2804 -1.6605
 5091SOL    HW320131   5.521   1.956   6.477  0.2301  1.7111  0.9689
 5091SOL    MW420132   5.523   2.002   6.402 -0.1459  0.0027  0.7033
 5092SOL     OW20133   5.923   5.410   3.696  0.0509  0.1742 -0.1153
 5092SOL    HW220134   5.896   5.319   3.690  0.5080  0.0272 -0.0450
 5092SOL    HW320135   6.017   5.405   3.714 -0.2228  0.6165  1.6995
 5092SOL    MW420136   5.932   5.398   3.698  0.0339  0.2537 -0.8270
 5093SOL     OW20137   3.280   2.498   1.380 -0.1618  0.4912 -0.0574
 5093SOL    HW220138   3.235   2.417   1.401  1.5610 -0.0021  2.1967
 5093SOL    HW320139   3.246   2.562   1.443 -1.7449  1.6823 -2.0177
 5093SOL    MW420140   3.270   2.496   1.391 -0.1785 -0.1209  0.5455
 5094SOL     OW20141   2.131   4.853   0.575 -0.6056  0.6103  0.2404
 5094SOL    HW220142   2.087   4.838   0.659 -2.3061  0.8222 -0.5762
 5094SOL    HW320143   2.073   4.813   0.510  0.1887  1.3065 -0.9298
 5094SOL    MW420144   2.118   4.845   0.578  1.0366  0.1951 -0.4438
 5095SOL     OW20145   4.331   5.473   1.571 -0.1103 -0.1699  0.1601
 5095SOL    HW220146   4.310   5.537   1.639 -1.1593  0.5141 -0.7777
 5095SOL    HW320147   4.387   5.521   1.510 -0.4745 -0.3026 -0.2781
 5095SOL    MW420148   4.336   5.488   1.572  0.2143  0.0626 -0.5144
 5096SOL     OW20149   5.873   2.595   6.208  0.4091 -0.2516  0.2287
 5096SOL    HW220150   5.943   2.530   6.201  1.0524  0.5187 -0.8644
 5096SOL    HW320151   5.853   2.617   6.117  0.9172  1.8025  0.5679
 5096SOL    MW420152   5.880   2.589   6.195  0.5268  0.0618 -0.3205
 5097SOL     OW20153   6.265   0.038   1.759 -0.6539  0.4331 -0.2053
 5097SOL    HW220154   6.276   0.023   1.853 -0.6294  0.6905 -0.1641
 5097SOL    HW320155   6.186  -0.010   1.736 -1.1320  1.0457  0.1207
 5097SOL    MW420156   6.256   0.030   1.769  0.6495  0.0857 -0.1838
 5098SOL     OW20157   4.461   3.230   3.210 -0.1917 -0.2631  0.3752
 5098SOL    HW220158   4.426   3.160   3.154  1.1378 -0.6673  0.0140
 5098SOL    HW320159   4.527   3.273   3.157 -1.2002  1.5151  0.4876
 5098SOL    MW420160   4.465   3.226   3.196  0.6945 -0.3552  0.1316
 5099SOL     OW20161   5.568   0.907   3.727 -0.4836  0.9548 -0.1971
 5099SOL    HW220162   5.576   0.831   3.785 -2.5951  0.8719  0.0489
 5099SOL    HW320163   5.556   0.981   3.787  2.4788  1.7358 -0.3831
 5099SOL    MW420164   5.568   0.907   3.743  0.0118 -0.1050  0.6457
 5100SOL     OW20165   4.293   5.483   3.662  0.5859  0.1977  0.3354
 5100SOL    HW220166   4.373   5.506   3.709  0.2300 -0.1818  1.1561
 5100SOL    HW320167   4.223   5.504   3.723 -0.1035  2.4751 -1.1228
 5100SOL    MW420168   4.294   5.489   3.676  0.0563 -0.4259  0.0302
 5101SOL     OW20169   0.580   4.430   5.256  0.3051  0.1843  0.1025
 5101SOL    HW220170   0.532   4.404   5.335  1.5838  0.8016  1.1300
 5101SOL    HW320171   0.514   4.436   5.188 -1.0229  0.7182  1.3989
 5101SOL    MW420172   0.565   4.427   5.258 -0.4482  0.0269 -0.4292
 5102SOL     OW20173   4.873   3.735   4.657  0.1245 -0.4058 -0.6549
 5102SOL    HW220174   4.877   3.813   4.601 -1.5766 -0.2165 -0.5674
 5102SOL    HW320175   4.838   3.667   4.599 -0.6455 -0.4796 -0.1138
 5102SOL    MW420176   4.868   3.736   4.642 -0.3014  0.6817  0.8483
 5103SOL     OW20177   1.314   6.412   5.551  0.5447  0.3913 -0.4300
 5103SOL    HW220178   1.406   6.387   5.548  0.4857  0.1931 -0.5519
 5103SOL    HW320179   1.276   6.374   5.472  0.5239  1.1171 -0.7868
 5103SOL    MW420180   1.321   6.404   5.540 -0.1423  0.0968  0.0595
 5104SOL     OW20181   0.315   1.479   2.914 -0.3385  0.1672 -0.8808
 5104SOL    HW220182   0.358   1.397   2.938 -0.3610  0.5011  0.4169
 5104SOL    HW320183   0.349   1.543   2.977 -2.1593  0.5986 -0.2610
 5104SOL    MW420184   0.325   1.476   2.926  0.1019  0.3874  0.6973
 5105SOL     OW20185   1.119   4.670   2.345  0.2259  0.1028 -0.2061
 5105SOL    HW220186   1.077   4.623   2.273  0.4024  0.0267 -0.2578
 5105SOL    HW320187   1.211   4.676   2.320  0.0953  1.0564 -0.5179
 5105SOL    MW420188   1.125   4.665   2.332 -0.1497 -0.0419 -0.3301
 5106SOL     OW20189   3.480   5.090   5.328  0.2911  0.5511 -0.0226
 5106SOL    HW220190   3.528   5.153   5.274 -1.2793  0.6720 -1.3468
 5106SOL    HW320191   3.412   5.142   5.371 -0.0810  0.0018  0.0579
 5106SOL    MW420192   3.478   5.105   5.327  0.3058 -0.0372  0.4242
 5107SOL     OW20193   3.446   1.536   1.576  0.4979  0.1572  0.1836
 5107SOL    HW220194   3.497   1.608   1.538  0.0510  0.2592 -0.2224
 5107SOL    HW320195   3.359   1.545   1.537  0.2765 -0.2519  0.5797
 5107SOL    MW420196   3.441   1.547   1.566 -0.0753  0.0102  0.1928
 5108SOL     OW20197   6.418   0.526   3.323  0.1972  0.4479 -0.1696
 5108SOL    HW220198   6.374   0.583   3.386 -1.4499 -1.4337  0.4912
 5108SOL    HW320199   6.385   0.555   3.238  1.4231  2.1495 -0.1063
 5108SOL    MW420200   6.408   0.537   3.320  0.0882  0.0629  0.4946
 5109SOL     OW20201   6.406   5.850   1.048 -0.3289 -0.7260 -0.1370
 5109SOL    HW220202   6.357   5.842   1.130 -0.5980 -0.0279 -0.2223
 5109SOL    HW320203   6.493   5.819   1.069 -0.1282  0.3160  0.6787
 5109SOL    MW420204   6.411   5.845   1.061  0.4749  0.3685 -0.4654
 5110SOL     OW20205   6.192   5.423   3.781  0.0032 -0.1310 -0.4518
 5110SOL    HW220206   6.251   5.348   3.777  0.3515  0.1562 -0.7596
 5110SOL    HW320207   6.187   5.445   3.874  1.8101  0.9477 -0.5497
 5110SOL    MW420208   6.199   5.416   3.793 -0.2407 -0.4862 -0.1185
 5111SOL     OW20209   3.665   0.898   5.697  1.2058  0.0746 -0.4123
 5111SOL    HW220210   3.719   0.960   5.747  0.8885  0.4899 -0.5740
 5111SOL    HW320211   3.661   0.936   5.609  0.7639 -0.0228 -0.4381
 5111SOL    MW420212   3.672   0.912   5.692  0.5009  0.0412 -0.2157
 5112SOL     OW20213   0.648   5.618   1.011 -0.2932 -0.5012 -0.2060
 5112SOL    HW220214   0.684   5.531   0.997  1.8623  0.3331 -0.2199
 5112SOL    HW320215   0.700   5.675   0.954 -1.7529  0.7806 -0.3248
 5112SOL    MW420216   0.660   5.614   1.002  0.7792 -0.3290 -0.0682
 5113SOL     OW20217   2.179   4.865   3.578  0.4308  0.0443 -0.1452
 5113SOL    HW220218   2.257   4.824   3.614 -0.1007  0.2432  1.3257
 5113SOL    HW320219   2.205   4.956   3.560  0.4424  0.2381  0.7784
 5113SOL    MW420220   2.193   4.872   3.581  0.0104  0.1306  0.7356
 5114SOL     OW20221   3.760   2.046   1.057 -0.1947  0.1767  0.2658
 5114SOL    HW220222   3.813   2.122   1.082 -1.8445  1.3841  0.2627
 5114SOL    HW320223   3.711   2.024   1.136  0.7637 -1.3667  0.4737
 5114SOL    MW420224   3.760   2.053   1.071  0.0172  0.6626 -0.1080
 5115SOL     OW20225   0.898   4.725   5.864 -0.2901  0.3335 -0.1477
 5115SOL    HW220226   0.971   4.675   5.900  0.4615  1.5077  0.0065
 5115SOL    HW320227   0.832   4.726   5.933  0.9369  2.1370  1.0891
 5115SOL    MW420228   0.899   4.719   5.878  0.8022 -0.1178  0.2663
 5116SOL     OW20229   0.378   1.947   1.392 -0.0841  0.0757 -0.3461
 5116SOL    HW220230   0.458   1.917   1.437  1.4979  0.2428 -2.8726
 5116SOL    HW320231   0.329   1.867   1.374 -0.4617 -0.0454  1.0573
 5116SOL    MW420232   0.382   1.933   1.396 -0.2251 -0.1749  0.0702
 5117SOL     OW20233   0.068   2.658   5.495  0.2667  0.7479 -0.5615
 5117SOL    HW220234   0.139   2.718   5.472  0.7681 -0.1382 -1.4577
 5117SOL    HW320235  -0.012   2.709   5.482  0.7181  1.7264  0.3419
 5117SOL    MW420236   0.067   2.673   5.490  0.0200 -0.7004 -0.4154
 5118SOL     OW20237   1.721   2.863   3.707 -0.0282  0.3293 -0.8324
 5118SOL    HW220238   1.815   2.878   3.697  0.0570  0.1110 -0.4159
 5118SOL    HW320239   1.693   2.828   3.622  0.3658 -0.0691 -0.8061
 5118SOL    MW420240   1.730   2.860   3.695  0.7658  0.2664  0.6985
 5119SOL     OW20241   3.678   5.488   3.239 -0.0976  0.0463  0.4520
 5119SOL    HW220242   3.756   5.518   3.286 -0.7073 -0.5238  1.8934
 5119SOL    HW320243   3.611   5.553   3.259 -0.4091 -0.2853  0.4983
 5119SOL    MW420244   3.680   5.500   3.248 -0.1261  0.2067 -0.4219
 5120SOL     OW20245   3.955   5.289   6.012 -0.5237  0.3189 -0.3149
 5120SOL    HW220246   3.888   5.231   6.048 -0.8917  0.3031 -0.9991
 5120SOL    HW320247   3.948   5.278   5.917 -0.8031  1.6822 -0.4807
 5120SOL    MW420248   3.945   5.280   6.004  0.6100  0.1659  0.6176
 5121SOL     OW20249   4.641   1.475   1.189  0.7076  0.1996 -0.2987
 5121SOL    HW220250   4.583   1.450   1.117  0.2471  0.9229 -0.1996
 5121SOL    HW320251   4.725   1.492   1.148  0.2407  1.4130 -0.8165
 5121SOL    MW420252   4.644   1.474   1.174  0.1966  0.7951 -0.2874
 5122SOL     OW20253   2.228   2.203   3.553  0.4236 -0.1615 -0.2590
 5122SOL    HW220254   2.270   2.128   3.598  0.5713  0.7954  1.2814
 5122SOL    HW320255   2.263   2.280   3.598 -0.4075  0.8022 -1.2228
 5122SOL    MW420256   2.238   2.203   3.565 -0.3740  0.1011  0.4088
 5123SOL     OW20257   4.324   5.123   4.031  0.7330  0.3840 -0.1126
 5123SOL    HW220258   4.320   5.209   3.990  1.6053  0.8196  0.6709
 5123SOL    HW320259   4.408   5.122   4.076  1.0071 -1.1207 -0.6159
 5123SOL    MW420260   4.334   5.134   4.031  0.0190 -0.9996 -0.0126
 5124SOL     OW20261   1.293   0.501   1.382 -0.1598 -0.4775  0.1613
 5124SOL    HW220262   1.386   0.506   1.404 -0.2698  1.1136  0.3209
 5124SOL    HW320263   1.248   0.501   1.466 -0.3531 -0.0897  0.0577
 5124SOL    MW420264   1.299   0.501   1.396 -0.3425  0.0083 -0.3322
 5125SOL     OW20265   4.110   3.926   1.052 -0.2935  0.3834  0.4379
 5125SOL    HW220266   4.192   3.930   1.003  0.3265  1.6722  1.4930
 5125SOL    HW320267   4.041   3.926   0.985  0.5532  0.6027 -0.4450
 5125SOL    MW420268   4.111   3.927   1.037 -0.3452  0.0223 -0.7421
 5126SOL     OW20269   5.633   1.705   6.273  0.0727 -0.2181  0.4501
 5126SOL    HW220270   5.617   1.615   6.301 -1.4066 -0.0008  0.3721
 5126SOL    HW320271   5.548   1.736   6.241  0.6902  1.0192 -0.0695
 5126SOL    MW420272   5.620   1.697   6.272 -0.0747  0.9627  0.5450
 5127SOL     OW20273   5.043   0.275   2.661 -0.2381 -0.1779  0.5127
 5127SOL    HW220274   4.954   0.247   2.639 -0.1853 -0.3179  0.4794
 5127SOL    HW320275   5.036   0.306   2.751 -0.6354  1.1860  0.0426
 5127SOL    MW420276   5.030   0.276   2.670  0.4731 -0.0985  0.3493
 5128SOL     OW20277   5.152   5.896   3.379 -0.3961 -0.4602 -0.2142
 5128SOL    HW220278   5.135   5.857   3.294 -1.2859 -0.2658 -0.1318
 5128SOL    HW320279   5.074   5.877   3.431 -0.7184  1.1289 -0.0732
 5128SOL    MW420280   5.139   5.888   3.375  0.5212  0.1042  0.4904
 5129SOL     OW20281   4.796   0.199   3.949  1.4383 -0.0630  0.4010
 5129SOL    HW220282   4.721   0.155   3.989  0.8475 -0.1233 -0.7217
 5129SOL    HW320283   4.865   0.195   4.015  0.5735 -0.3513  1.3072
 5129SOL    MW420284   4.795   0.193   3.963  0.5480  0.9108 -0.6893
 5130SOL     OW20285   0.795   6.389   4.769  0.1352 -0.5910  0.2113
 5130SOL    HW220286   0.711   6.416   4.733  1.4313  0.2219 -2.4778
 5130SOL    HW320287   0.856   6.393   4.694  2.8153 -0.0160  2.2531
 5130SOL    MW420288   0.792   6.393   4.754 -0.3470 -0.0553 -0.1814
 5131SOL     OW20289   3.793   1.916   2.484  0.6785  0.7695  0.0885
 5131SOL    HW220290   3.770   1.831   2.446  1.3995  0.1668  0.9497
 5131SOL    HW320291   3.723   1.974   2.457  0.1901 -0.0937 -0.5537
 5131SOL    MW420292   3.781   1.912   2.476 -0.0788  0.0022  0.3631
 5132SOL     OW20293   1.479   4.181   6.204  0.0926 -0.3527  0.1404
 5132SOL    HW220294   1.564   4.156   6.167 -0.4902  1.4949 -2.8347
 5132SOL    HW320295   1.501   4.232   6.282  1.7157 -0.2990 -0.3075
 5132SOL    MW420296   1.493   4.185   6.209  0.1242 -0.0254  0.0231
 5133SOL     OW20297   1.938   4.303   6.175 -0.0725 -0.5218 -0.1480
 5133SOL    HW220298   1.870   4.349   6.224 -2.3260 -1.4572 -2.2459
 5133SOL    HW320299   1.966   4.233   6.234 -1.2588 -0.4084  0.5891
 5133SOL    MW420300   1.933   4.300   6.189  0.1703  0.0262 -0.5932
 5134SOL     OW20301   4.080   1.672   3.512 -0.3114  0.0712 -0.1575
 5134SOL    HW220302   4.062   1.672   3.418 -0.5709  1.1951 -0.1279
 5134SOL    HW320303   4.089   1.580   3.535  0.9568 -0.1750 -1.4995
 5134SOL    MW420304   4.078   1.660   3.503 -0.1850 -0.2848 -0.1714
 5135SOL     OW20305   2.768   1.527   0.515  0.3894 -0.0008  0.1776
 5135SOL    HW220306   2.697   1.517   0.579 -1.3196 -2.7363 -1.8723
 5135SOL    HW320307   2.723   1.547   0.433  2.2056  0.2568 -0.7977
 5135SOL    MW420308   2.753   1.528   0.513  0.2925 -0.1657 -0.4719
 5136SOL     OW20309   0.563   2.181   4.992  0.4031 -0.1007 -0.5412
 5136SOL    HW220310   0.543   2.088   4.989 -0.3654  0.0438 -0.2417
 5136SOL    HW320311   0.596   2.196   5.081  2.8742 -0.5122 -1.3115
 5136SOL    MW420312   0.565   2.171   5.003 -0.0664 -0.1711 -0.0865
 5137SOL     OW20313   1.567   5.684   2.925  0.1824 -0.2967 -0.3623
 5137SOL    HW220314   1.503   5.685   2.996  1.2652 -2.4046  0.7362
 5137SOL    HW320315   1.597   5.775   2.918 -0.6547  0.1316  1.2153
 5137SOL    MW420316   1.563   5.696   2.933  0.1908 -0.1224  0.1398
 5138SOL     OW20317   0.010   1.011   2.747 -0.2615 -0.4921  0.4686
 5138SOL    HW220318   0.025   0.925   2.708  1.6897  0.9093 -2.1590
 5138SOL    HW320319   0.045   1.073   2.683 -1.9423  2.3166  2.0703
 5138SOL    MW420320   0.016   1.007   2.733 -0.3454 -0.0919 -0.2549
 5139SOL     OW20321   1.486   0.147   0.868 -0.0403 -0.3730 -0.1681
 5139SOL    HW220322   1.551   0.086   0.835  0.1793  0.1101 -0.6582
 5139SOL    HW320323   1.504   0.228   0.820 -2.9685 -1.0523 -2.7755
 5139SOL    MW420324   1.497   0.150   0.857 -0.1101 -0.1001  0.4407
 5140SOL     OW20325   1.492   2.014   2.277 -0.4353 -0.2060 -0.2684
 5140SOL    HW220326   1.424   2.056   2.329  0.8121 -1.3419  2.4611
 5140SOL    HW320327   1.533   2.086   2.229 -1.7976  0.8741  0.1144
 5140SOL    MW420328   1.488   2.029   2.278 -0.3089 -0.4255 -0.0593
 5141SOL     OW20329   2.957   1.672   1.965 -0.0554 -0.2192  0.3419
 5141SOL    HW220330   3.003   1.592   1.990  0.4710 -0.2303 -0.6355
 5141SOL    HW320331   2.998   1.700   1.883 -1.5608 -0.0446 -0.3905
 5141SOL    MW420332   2.968   1.665   1.958  0.1849  0.3747 -0.5113
 5142SOL     OW20333   3.776   0.760   1.157  0.0803 -0.0434  0.3389
 5142SOL    HW220334   3.757   0.838   1.209  2.7611 -0.2054  1.7098
 5142SOL    HW320335   3.822   0.701   1.217 -0.9496 -2.3095 -0.9391
 5142SOL    MW420336   3.780   0.762   1.172  0.4586 -0.4084 -0.1938
 5143SOL     OW20337   1.609   2.830   5.450 -0.3116  0.4299 -0.1937
 5143SOL    HW220338   1.663   2.896   5.493 -1.5332  1.3984 -0.0619
 5143SOL    HW320339   1.605   2.757   5.511  1.7449 -0.1561 -0.6940
 5143SOL    MW420340   1.616   2.829   5.464  0.1373 -0.0029 -0.3263
 5144SOL     OW20341   1.694   5.261   5.979 -0.0026 -0.5040  0.1879
 5144SOL    HW220342   1.601   5.276   5.996 -0.1667 -1.8279  0.5995
 5144SOL    HW320343   1.699   5.170   5.951  1.1475 -0.3853 -0.0409
 5144SOL    MW420344   1.682   5.251   5.978  0.5759 -0.5625  0.4539
 5145SOL     OW20345   1.554   0.172   1.145 -0.1305  0.0215  0.4723
 5145SOL    HW220346   1.519   0.155   1.057 -0.6601  0.3930  0.6113
 5145SOL    HW320347   1.479   0.200   1.196  0.4142  1.2026  0.6737
 5145SOL    MW420348   1.540   0.173   1.140 -0.1630  0.1991 -0.6697
 5146SOL     OW20349   4.165   3.912   0.486  0.1650 -0.0943  0.3077
 5146SOL    HW220350   4.148   4.000   0.518 -1.1272 -0.3425  0.3224
 5146SOL    HW320351   4.209   3.868   0.559 -1.2524 -0.1449  1.1576
 5146SOL    MW420352   4.169   3.918   0.500  0.3986 -0.7211 -0.0717
 5147SOL     OW20353   2.363   4.642   0.938 -0.0792  0.3293  0.1729
 5147SOL    HW220354   2.340   4.550   0.923 -1.0329  0.5129  0.4439
 5147SOL    HW320355   2.292   4.676   0.993  1.0738  0.8152  1.4063
 5147SOL    MW420356   2.350   4.634   0.943 -0.4204 -0.0011  0.2812
 5148SOL     OW20357   5.663   3.703   1.952 -0.0019  0.1557  0.3051
 5148SOL    HW220358   5.619   3.752   2.022 -0.6894 -0.6238  0.4289
 5148SOL    HW320359   5.684   3.770   1.886 -0.3861  0.7160  0.7381
 5148SOL    MW420360   5.660   3.719   1.952  0.2980 -0.5323 -0.7618
 5149SOL     OW20361   1.960   0.518   5.205  0.2575  0.1511 -0.5325
 5149SOL    HW220362   1.868   0.491   5.201  0.6582 -1.4806  0.2847
 5149SOL    HW320363   1.994   0.477   5.285  1.8493  0.2432 -1.1195
 5149SOL    MW420364   1.953   0.509   5.215 -0.4909 -0.0170  0.5033
 5150SOL     OW20365   4.431   4.771   5.118  0.0152  0.0073 -0.0901
 5150SOL    HW220366   4.508   4.778   5.061  0.3781  1.5177  0.5436
 5150SOL    HW320367   4.466   4.766   5.206 -0.5979  0.3313  0.1792
 5150SOL    MW420368   4.446   4.771   5.122  0.1889  0.2331 -0.4585
 5151SOL     OW20369   3.303   5.835   4.296 -0.5117  0.4513  0.0773
 5151SOL    HW220370   3.253   5.791   4.365 -0.0102 -0.1734  0.0515
 5151SOL    HW320371   3.313   5.768   4.228  1.2276  0.2344  0.5135
 5151SOL    MW420372   3.298   5.820   4.296  0.2978 -0.5463  0.1999
 5152SOL     OW20373   5.033   2.233   5.823  0.3684 -0.3853 -0.1659
 5152SOL    HW220374   5.078   2.250   5.906  1.0153  1.8875 -0.9131
 5152SOL    HW320375   5.039   2.315   5.775 -1.6805 -1.0513 -1.7088
 5152SOL    MW420376   5.040   2.246   5.827  0.2143 -0.6126  0.8812
 5153SOL     OW20377   4.347   3.470   1.655 -0.0292  0.3018 -0.2305
 5153SOL    HW220378   4.372   3.378   1.641 -0.1807  0.3519 -0.8545
 5153SOL    HW320379   4.263   3.465   1.700 -0.7616  0.1242 -1.5849
 5153SOL    MW420380   4.339   3.457   1.659 -0.1965  0.1741  0.1294
 5154SOL     OW20381   4.723   5.065   2.971 -0.4420 -0.2638  0.3683
 5154SOL    HW220382   4.805   5.041   3.013  0.1083  1.7526  0.5547
 5154SOL    HW320383   4.741   5.057   2.877  0.1245  0.5298  0.3948
 5154SOL    MW420384   4.736   5.061   2.964 -0.1987 -0.1875 -0.5726
 5155SOL     OW20385   0.020   6.378   0.182 -0.3898  0.1331 -0.2845
 5155SOL    HW220386  -0.028   6.296   0.192  1.1227 -0.7156  0.2971
 5155SOL    HW320387  -0.017   6.418   0.104 -0.1303 -1.8303 -1.4666
 5155SOL    MW420388   0.009   6.372   0.173  0.1286 -0.1027 -0.4830
 5156SOL     OW20389   2.605   1.965   3.808 -0.2212  0.0941  0.3283
 5156SOL    HW220390   2.671   2.030   3.783 -0.0798 -0.0294  0.3823
 5156SOL    HW320391   2.552   1.954   3.729 -0.2288  0.2573  0.3116
 5156SOL    MW420392   2.607   1.972   3.794  0.3766  0.0540 -0.4037
 5157SOL     OW20393   3.791   1.765   6.225  0.7199  0.0485  0.4037
 5157SOL    HW220394   3.824   1.716   6.150 -1.5077  0.3180 -0.8555
 5157SOL    HW320395   3.781   1.700   6.294  0.7621 -0.6533 -0.2356
 5157SOL    MW420396   3.794   1.750   6.224 -0.7119  0.4510  0.4565
 5158SOL     OW20397   2.680   5.860   0.214  0.7127  0.4155 -0.4326
 5158SOL    HW220398   2.619   5.863   0.140 -0.9378 -1.2764  0.7691
 5158SOL    HW320399   2.765   5.843   0.175  0.4423  2.5951 -2.1517
 5158SOL    MW420400   2.683   5.858   0.199 -0.1758  0.4099  0.2060
 5159SOL     OW20401   5.206   2.791   0.583  0.5084  0.3844  0.6194
 5159SOL    HW220402   5.221   2.863   0.522  1.1055 -1.6654 -1.8333
 5159SOL    HW320403   5.112   2.794   0.601  0.1945  0.6972 -0.9333
 5159SOL    MW420404   5.196   2.801   0.577 -0.4976  0.0699 -0.4339
 5160SOL     OW20405   4.589   5.612   4.867 -0.4562 -0.0438  0.0555
 5160SOL    HW220406   4.671   5.628   4.819 -0.6840  0.9308 -0.0362
 5160SOL    HW320407   4.534   5.563   4.806 -1.1794  2.1496 -1.1779
 5160SOL    MW420408   4.593   5.608   4.852 -0.0196 -0.1116  0.3235
 5161SOL     OW20409   4.171   6.338   4.664 -0.1274 -0.5523  0.7909
 5161SOL    HW220410   4.168   6.375   4.753  0.9754  1.7866 -0.0636
 5161SOL    HW320411   4.093   6.373   4.621  0.9464  0.9307 -0.0415
 5161SOL    MW420412   4.160   6.348   4.670  0.3087  0.0565 -0.4486
 5162SOL     OW20413   4.852   2.306   2.619 -0.3946  0.0984 -0.1434
 5162SOL    HW220414   4.890   2.387   2.586  3.4256 -1.9119 -1.4093
 5162SOL    HW320415   4.801   2.272   2.546  1.6569 -0.6112 -1.3450
 5162SOL    MW420416   4.851   2.312   2.605  1.0145 -0.2200 -0.2918
 5163SOL     OW20417   1.048   0.248   6.007  0.2655  0.3096 -0.1823
 5163SOL    HW220418   1.036   0.232   6.100  1.3423 -0.6938 -0.1913
 5163SOL    HW320419   1.098   0.330   6.002  0.3116  0.3000  0.1318
 5163SOL    MW420420   1.053   0.256   6.018  0.0038  0.1176  0.1220
 5164SOL     OW20421   0.866   1.693   0.074 -0.3707 -0.1170  0.1283
 5164SOL    HW220422   0.840   1.620   0.130 -1.4691  0.1548 -0.0184
 5164SOL    HW320423   0.958   1.675   0.054 -0.4030 -1.0418  0.7360
 5164SOL    MW420424   0.875   1.681   0.079 -0.1751  0.3195 -0.5065
 5165SOL     OW20425   4.262   0.561   2.786 -0.0051  0.5860  0.0867
 5165SOL    HW220426   4.356   0.552   2.770  0.0591  0.0050  0.7455
 5165SOL    HW320427   4.236   0.478   2.827 -1.2842 -0.2318 -2.2384
 5165SOL    MW420428   4.271   0.549   2.790 -0.3371  0.1441 -0.3899
 5166SOL     OW20429   3.929   4.187   5.797  0.0679  0.3965 -0.4422
 5166SOL    HW220430   3.850   4.201   5.745  0.5023 -0.6740 -1.4387
 5166SOL    HW320431   3.939   4.267   5.848 -1.1798  0.8895 -0.9396
 5166SOL    MW420432   3.920   4.200   5.797 -0.4690 -0.4993  0.1434
 5167SOL     OW20433   4.678   2.121   3.201 -0.0409  0.1267 -0.1066
 5167SOL    HW220434   4.694   2.051   3.138  0.0671 -1.0007  1.1285
 5167SOL    HW320435   4.764   2.159   3.218 -0.0336  0.2508 -0.4075
 5167SOL    MW420436   4.691   2.117   3.195  0.1734  0.1661  0.0118
 5168SOL     OW20437   5.374   4.078   2.757 -0.3533 -0.6129 -0.2201
 5168SOL    HW220438   5.284   4.109   2.749 -0.6136 -1.2277  0.2670
 5168SOL    HW320439   5.427   4.158   2.762 -0.8007 -0.2417 -1.1199
 5168SOL    MW420440   5.369   4.093   2.756  0.0996  0.1003  0.4404
 5169SOL     OW20441   4.940   4.822   6.003  0.3633  0.1383  0.1210
 5169SOL    HW220442   4.883   4.819   6.080 -0.9670 -1.0219 -0.8532
 5169SOL    HW320443   4.956   4.915   5.989 -1.1336  0.4975  0.5623
 5169SOL    MW420444   4.934   4.834   6.011 -0.6132 -0.2770  0.0716
 5170SOL     OW20445   4.617   1.107   2.935  0.1785  0.5415  0.8401
 5170SOL    HW220446   4.659   1.156   2.864  1.1268  0.0224  1.0386
 5170SOL    HW320447   4.666   1.025   2.941 -0.8854 -0.1049  1.0527
 5170SOL    MW420448   4.629   1.103   2.927  0.3948  0.2775  0.3345
 5171SOL     OW20449   2.590   3.223   1.083 -0.1993  0.1971 -0.2563
 5171SOL    HW220450   2.527   3.294   1.074  0.2297  0.4878 -1.0423
 5171SOL    HW320451   2.594   3.207   1.177 -0.4309  1.1002 -0.0796
 5171SOL    MW420452   2.582   3.231   1.094 -0.2801 -0.2432 -0.1619
 5172SOL     OW20453   3.325   3.789   1.884  0.0049  0.8190 -0.0706
 5172SOL    HW220454   3.358   3.827   1.803 -0.1296 -0.8744 -0.9718
 5172SOL    HW320455   3.380   3.711   1.898 -0.8026  0.3746  0.7504
 5172SOL    MW420456   3.336   3.784   1.875  0.0422 -0.1623 -0.7163
 5173SOL     OW20457   5.757   0.249   5.257  0.6069 -0.0806  0.4417
 5173SOL    HW220458   5.837   0.204   5.231  0.2059 -0.2929 -0.4851
 5173SOL    HW320459   5.775   0.341   5.239  1.1685  0.0581  1.6530
 5173SOL    MW420460   5.770   0.255   5.251 -0.2001  0.5024 -0.0775
 5174SOL     OW20461   3.870   5.033   4.471 -0.2944 -0.5342  0.6937
 5174SOL    HW220462   3.893   5.121   4.442 -0.2749 -0.7323  0.0909
 5174SOL    HW320463   3.800   5.047   4.535  0.5381 -0.0186  1.5225
 5174SOL    MW420464   3.864   5.046   4.476  0.6738  0.9156  0.1662
 5175SOL     OW20465   6.235   5.782   0.163  0.6811  0.2934 -0.5273
 5175SOL    HW220466   6.266   5.858   0.116  2.0334 -0.0924 -0.3068
 5175SOL    HW320467   6.294   5.773   0.238 -0.4415 -0.0292  0.3735
 5175SOL    MW420468   6.247   5.791   0.167 -0.0161  0.0296 -0.0538
 5176SOL     OW20469   5.428   3.913   2.537  0.0755 -0.0830 -0.2744
 5176SOL    HW220470   5.418   3.835   2.591 -3.5904  0.0320 -0.5049
 5176SOL    HW320471   5.412   3.986   2.597  1.6441  0.4225 -0.4334
 5176SOL    MW420472   5.424   3.912   2.552  0.0183  0.6271 -0.3382
 5177SOL     OW20473   4.200   5.642   1.298 -0.4931 -0.4855  0.2904
 5177SOL    HW220474   4.175   5.727   1.334  1.1696  0.5104 -0.7264
 5177SOL    HW320475   4.293   5.634   1.319 -0.4709 -1.7692 -0.1903
 5177SOL    MW420476   4.209   5.652   1.305 -0.3216  0.5205  0.2753
 5178SOL     OW20477   0.137   4.622   0.847  0.0245  0.0976  0.6562
 5178SOL    HW220478   0.054   4.575   0.838 -0.2965  0.6212  0.8475
 5178SOL    HW320479   0.170   4.629   0.758 -1.1087  1.6157  0.3102
 5178SOL    MW420480   0.130   4.617   0.834 -0.0135  0.2776  0.2135
 5179SOL     OW20481   4.900   0.617   2.239  0.9056  0.3736 -0.2602
 5179SOL    HW220482   4.876   0.536   2.284  0.0804  0.1210 -1.1290
 5179SOL    HW320483   4.864   0.687   2.294  0.4361  0.0948 -0.2074
 5179SOL    MW420484   4.892   0.615   2.252 -0.3227  0.0699  0.4725
 5180SOL     OW20485   3.771   3.119   0.339  0.5181 -0.3921 -0.3943
 5180SOL    HW220486   3.709   3.188   0.315  0.2418  0.3171  2.0983
 5180SOL    HW320487   3.718   3.040   0.344 -0.1940  0.1582  1.4400
 5180SOL    MW420488   3.756   3.118   0.336 -0.2035  0.0554  0.5238
 5181SOL     OW20489   4.974   2.026   6.211 -0.4139 -0.1097  0.1889
 5181SOL    HW220490   4.991   2.016   6.117 -0.6625  1.6279 -0.0683
 5181SOL    HW320491   4.880   2.044   6.216 -0.4584 -0.5086  0.8038
 5181SOL    MW420492   4.964   2.027   6.199  0.2651 -0.0383 -0.2915
 5182SOL     OW20493   0.976   0.272   4.660 -0.4611 -0.2115 -0.0500
 5182SOL    HW220494   1.009   0.355   4.692  0.5621  0.5335 -2.7433
 5182SOL    HW320495   1.050   0.212   4.665 -1.4948 -1.4104  2.9608
 5182SOL    MW420496   0.990   0.275   4.665  0.4563 -0.3251 -0.3063
 5183SOL     OW20497   5.524   5.394   4.338 -0.3704 -0.2954 -0.1197
 5183SOL    HW220498   5.524   5.471   4.395 -0.5250  0.0235 -0.5481
 5183SOL    HW320499   5.520   5.429   4.249 -2.5954 -0.8317 -0.2827
 5183SOL    MW420500   5.523   5.408   4.334  0.1677 -0.1817  0.2204
 5184SOL     OW20501   2.863   1.600   5.714 -0.3311  0.2491  0.3571
 5184SOL    HW220502   2.822   1.547   5.646  1.3315 -0.0865 -0.4499
 5184SOL    HW320503   2.913   1.538   5.766 -0.0389  0.7606  0.6904
 5184SOL    MW420504   2.864   1.585   5.712 -0.5903  0.4290 -0.4007
 5185SOL     OW20505   5.601   5.766   1.062  0.7603 -0.4256 -0.0833
 5185SOL    HW220506   5.623   5.783   0.970 -1.7819 -1.2680 -0.9120
 5185SOL    HW320507   5.569   5.850   1.094  0.3106 -0.4686 -0.4045
 5185SOL    MW420508   5.600   5.780   1.054 -0.1068 -0.0065  0.3188
 5186SOL     OW20509   1.760   3.279   0.140  0.3281  0.0095 -0.1952
 5186SOL    HW220510   1.825   3.214   0.112 -0.7558 -0.4390 -1.8574
 5186SOL    HW320511   1.797   3.363   0.113  1.2076 -0.0100  0.8975
 5186SOL    MW420512   1.773   3.281   0.133  0.6450 -0.0710 -0.5542
 5187SOL     OW20513   0.716   3.358   1.197 -0.4449 -0.5047  0.6154
 5187SOL    HW220514   0.727   3.310   1.115  0.7505 -0.7408  0.9095
 5187SOL    HW320515   0.700   3.290   1.262 -1.0323 -0.3385  0.6503
 5187SOL    MW420516   0.715   3.343   1.195  0.4038  0.7616 -0.2259
 5188SOL     OW20517   1.964   3.825   2.662  0.1052  0.2960  0.0711
 5188SOL    HW220518   1.910   3.873   2.724 -0.1609 -0.7844  0.7076
 5188SOL    HW320519   2.037   3.792   2.714 -0.2847 -0.8839 -0.0774
 5188SOL    MW420520   1.966   3.827   2.677 -0.5114 -0.2635 -0.6505
 5189SOL     OW20521   2.548   5.026   6.169 -0.1258 -0.3149 -0.7002
 5189SOL    HW220522   2.620   4.995   6.224  1.7106  1.6393 -1.8475
 5189SOL    HW320523   2.555   4.974   6.089 -1.6578 -1.8828  0.1137
 5189SOL    MW420524   2.559   5.015   6.166 -0.0660  0.2201 -0.3315
 5190SOL     OW20525   5.070   5.404   1.286 -0.1206 -0.1060 -0.0386
 5190SOL    HW220526   5.135   5.461   1.328 -0.3424  1.3188 -1.5378
 5190SOL    HW320527   4.987   5.426   1.328  0.1635 -1.1212  1.0946
 5190SOL    MW420528   5.068   5.414   1.297  0.7772 -0.6354 -0.2915
 5191SOL     OW20529   1.878   5.389   0.238  0.1840 -0.5367 -0.1790
 5191SOL    HW220530   1.949   5.363   0.179 -0.0455  0.5468 -0.9491
 5191SOL    HW320531   1.912   5.465   0.284 -0.7893  0.5829 -1.2374
 5191SOL    MW420532   1.892   5.395   0.236 -1.0753  0.4421 -0.0095
 5192SOL     OW20533   4.433   4.108   3.097 -0.3613  0.7721  0.0789
 5192SOL    HW220534   4.346   4.127   3.064 -1.0923 -1.3649  0.6252
 5192SOL    HW320535   4.465   4.036   3.043  0.9830  1.3272  0.0702
 5192SOL    MW420536   4.426   4.101   3.086 -0.0048 -0.0566 -0.6367
 5193SOL     OW20537   2.675   2.014   4.592  0.1242  0.0663 -0.0167
 5193SOL    HW220538   2.752   1.958   4.591 -0.3665 -0.6446 -1.5601
 5193SOL    HW320539   2.641   2.009   4.503 -0.7316  1.7357  0.1790
 5193SOL    MW420540   2.681   2.006   4.580 -0.8791 -0.2037 -0.3955
 5194SOL     OW20541   1.478   1.547   1.048  0.1838  0.7156 -0.3443
 5194SOL    HW220542   1.435   1.629   1.024 -0.4389  0.2928 -0.6966
 5194SOL    HW320543   1.435   1.520   1.129 -0.9441 -0.2053 -1.1997
 5194SOL    MW420544   1.467   1.554   1.055  0.4989 -0.1669  0.2881
 5195SOL     OW20545   0.780   2.071   5.424 -0.0260  0.8194 -0.2330
 5195SOL    HW220546   0.847   2.044   5.487 -0.5947  2.0488  0.9654
 5195SOL    HW320547   0.757   1.991   5.377  0.1388 -0.2351  1.3952
 5195SOL    MW420548   0.786   2.057   5.426 -0.1581 -0.1357 -0.3348
 5196SOL     OW20549   0.625   1.890   0.272  0.2754  0.2219  0.3528
 5196SOL    HW220550   0.576   1.923   0.348 -1.6139 -0.7776 -0.3599
 5196SOL    HW320551   0.715   1.916   0.289 -0.2815  1.0759  2.3566
 5196SOL    MW420552   0.630   1.898   0.284  0.2414 -0.3000  0.1079
 5197SOL     OW20553   0.267   1.739   0.930  0.2036  0.4340 -0.2355
 5197SOL    HW220554   0.342   1.703   0.977 -0.3288  1.4812  1.5556
 5197SOL    HW320555   0.304   1.807   0.874  0.8832 -1.0046 -1.6149
 5197SOL    MW420556   0.282   1.743   0.929 -0.4283  0.0617 -0.3653
 5198SOL     OW20557   0.805   1.860   5.236 -0.0522  0.4693  0.1290
 5198SOL    HW220558   0.898   1.863   5.257 -0.3341 -0.3744  1.6530
 5198SOL    HW320559   0.791   1.770   5.206 -0.7963 -0.2006  2.2922
 5198SOL    MW420560   0.815   1.848   5.235 -0.1535 -0.3430 -0.2125
 5199SOL     OW20561   2.927   4.235   2.901  0.3423  0.0701 -0.3096
 5199SOL    HW220562   2.880   4.178   2.962  4.5892 -1.4946  1.9287
 5199SOL    HW320563   2.890   4.215   2.815 -2.4809 -1.4617  1.1522
 5199SOL    MW420564   2.916   4.225   2.898 -0.0944  0.1002  0.6066
 5200SOL     OW20565   1.474   1.073   4.569 -0.4257 -0.3236  0.1674
 5200SOL    HW220566   1.412   1.053   4.499 -2.5154  1.2007  1.4694
 5200SOL    HW320567   1.519   1.152   4.540 -0.4083 -0.3903  0.0115
 5200SOL    MW420568   1.472   1.080   4.556  0.2485 -0.8706  0.1895
 5201SOL     OW20569   2.437   3.019   3.780  0.1229 -0.3390  0.6511
 5201SOL    HW220570   2.514   2.980   3.821  0.2531 -0.0006  0.7331
 5201SOL    HW320571   2.383   3.049   3.853  0.5027  0.5472  0.5866
 5201SOL    MW420572   2.440   3.018   3.795  0.1326 -0.2979  0.0675
 5202SOL     OW20573   4.366   0.983   0.264 -0.1823 -0.3601 -0.3363
 5202SOL    HW220574   4.450   1.012   0.300 -0.7105  0.4815  0.2589
 5202SOL    HW320575   4.313   0.964   0.342  0.1152 -2.9385 -0.6830
 5202SOL    MW420576   4.370   0.984   0.279 -0.2294 -0.4663  0.2468
 5203SOL     OW20577   5.516   6.290   4.828 -0.1361 -0.1693  0.4191
 5203SOL    HW220578   5.493   6.382   4.822  0.2625 -0.1319 -0.7081
 5203SOL    HW320579   5.432   6.244   4.838 -0.3106  0.3239  1.3526
 5203SOL    MW420580   5.502   6.296   4.829 -0.1479 -0.3075 -0.1492
 5204SOL     OW20581   0.972   4.184   4.819 -0.0779 -0.3109  0.7559
 5204SOL    HW220582   1.010   4.098   4.834 -0.9764 -0.7610  0.5064
 5204SOL    HW320583   0.937   4.180   4.730  0.5018  0.5565  0.4702
 5204SOL    MW420584   0.973   4.172   4.809  0.4112  0.0685 -0.0052
 5205SOL     OW20585   2.669   1.461   2.447  0.4668  1.0099 -0.1882
 5205SOL    HW220586   2.574   1.468   2.437  0.4427  1.4862  0.2759
 5205SOL    HW320587   2.682   1.387   2.506  0.2507  2.1368  1.3618
 5205SOL    MW420588   2.658   1.452   2.454  0.1478 -0.1002  0.6537
 5206SOL     OW20589   3.087   4.907   3.229  0.7271  0.2472 -0.3044
 5206SOL    HW220590   3.130   4.981   3.187  0.8577  0.8438  0.8289
 5206SOL    HW320591   3.115   4.830   3.179  2.6397  0.6810  0.0392
 5206SOL    MW420592   3.096   4.906   3.217  0.0143  0.4049  0.6039
 5207SOL     OW20593   2.937   3.076   0.175  0.3288  0.2924  0.0499
 5207SOL    HW220594   2.893   3.161   0.171 -1.0514 -0.4121 -0.4668
 5207SOL    HW320595   3.021   3.091   0.132  0.0074  1.3320 -0.2570
 5207SOL    MW420596   2.942   3.089   0.169  0.2733 -0.2638  0.2695
 5208SOL     OW20597   1.738   0.179   1.509 -0.0029  0.0200  0.1561
 5208SOL    HW220598   1.681   0.105   1.490  1.3690 -1.0131 -0.0512
 5208SOL    HW320599   1.825   0.141   1.519  0.4634  1.3717  1.8433
 5208SOL    MW420600   1.742   0.164   1.508  0.1995 -0.1627  0.4665
 5209SOL     OW20601   3.819   2.406   4.559 -0.1552 -0.4124  0.1249
 5209SOL    HW220602   3.874   2.330   4.578 -0.5364 -0.6750  0.1722
 5209SOL    HW320603   3.771   2.423   4.640  0.4586  0.3264  0.3497
 5209SOL    MW420604   3.820   2.398   4.572  0.6730 -0.0769  0.1665
 5210SOL     OW20605   6.384   2.263   4.938 -0.4580 -0.7524 -0.3418
 5210SOL    HW220606   6.432   2.345   4.935 -1.0087 -0.4395 -0.7298
 5210SOL    HW320607   6.446   2.198   4.904 -0.5855 -0.2057 -1.6922
 5210SOL    MW420608   6.399   2.265   4.933  0.0130  0.0881 -0.1369
 5211SOL     OW20609   1.211   4.635   3.442 -0.7909  0.4370  0.1915
 5211SOL    HW220610   1.177   4.724   3.447 -0.9886  0.5355 -2.1362
 5211SOL    HW320611   1.193   4.598   3.529  0.7506  3.1264  1.7845
 5211SOL    MW420612   1.204   4.641   3.454 -0.1483 -0.1416  0.0928
 5212SOL     OW20613   2.163   3.457   0.054 -0.3671 -0.7203  0.0003
 5212SOL    HW220614   2.176   3.422   0.143  0.0601  0.6602  0.5000
 5212SOL    HW320615   2.219   3.402  -0.001  0.2639 -0.8540  0.7568
 5212SOL    MW420616   2.172   3.445   0.058  0.2396  0.0810  0.3975
 5213SOL     OW20617   1.000   5.904   0.598  0.0641  0.3596 -0.0018
 5213SOL    HW220618   0.992   5.811   0.620  0.0801  0.3695  0.0464
 5213SOL    HW320619   0.990   5.949   0.682  0.1644  0.3953 -0.0090
 5213SOL    MW420620   0.998   5.897   0.612  0.6204 -0.1472  0.0753
 5214SOL     OW20621   0.265   5.405   0.310 -0.1262 -0.1242  0.2704
 5214SOL    HW220622   0.240   5.334   0.250 -0.2771 -0.7856  1.0960
 5214SOL    HW320623   0.359   5.394   0.323 -0.0110  0.2894 -0.1794
 5214SOL    MW420624   0.274   5.394   0.304 -0.4871 -0.0441  0.4218
 5215SOL     OW20625   5.791   3.377   5.827  0.1267 -0.2946  0.1176
 5215SOL    HW220626   5.786   3.281   5.830 -2.4492 -0.2166  2.9663
 5215SOL    HW320627   5.709   3.404   5.785 -0.0530  0.6663  1.0455
 5215SOL    MW420628   5.779   3.368   5.822 -0.0490 -0.3665 -0.2035
 5216SOL     OW20629   0.184   1.552   1.830  0.2102  0.4387 -0.2288
 5216SOL    HW220630   0.195   1.477   1.773  0.1773 -0.9109  1.4510
 5216SOL    HW320631   0.274   1.578   1.853  0.2145  0.7010 -0.5387
 5216SOL    MW420632   0.198   1.546   1.826 -0.5801 -0.6539 -0.2852
 5217SOL     OW20633   0.949   0.309   2.227  0.3964 -0.5527  0.3065
 5217SOL    HW220634   0.929   0.316   2.133 -1.1683 -0.7468  0.5959
 5217SOL    HW320635   1.020   0.245   2.231 -0.6296 -1.8228 -0.6551
 5217SOL    MW420636   0.956   0.302   2.215 -0.4303  0.0887  0.4337
 5218SOL     OW20637   0.293   1.702   2.084  0.5303 -0.3567  0.0359
 5218SOL    HW220638   0.328   1.709   2.173 -0.1067  0.7004  0.2168
 5218SOL    HW320639   0.198   1.706   2.095  0.4397 -0.3353 -0.6830
 5218SOL    MW420640   0.285   1.704   2.097 -0.0154  0.1834 -0.0390
 5219SOL     OW20641   1.230   0.237   0.149  0.1433 -0.5808  0.4172
 5219SOL    HW220642   1.309   0.254   0.199 -0.1296  0.5248  0.5007
 5219SOL    HW320643   1.183   0.171   0.200  0.5578 -0.5405  0.8612
 5219SOL    MW420644   1.234   0.230   0.162 -0.0965  0.3642  0.0288
 5220SOL     OW20645   6.041   4.882   2.917 -0.3384 -0.1138 -0.5515
 5220SOL    HW220646   6.127   4.896   2.878 -0.7506  0.7401 -1.2189
 5220SOL    HW320647   5.985   4.859   2.843 -0.7511 -0.3317 -0.1766
 5220SOL    MW420648   6.045   4.881   2.902  0.4891 -0.9167 -0.3945
 5221SOL     OW20649   0.575   2.196   5.280 -0.7890 -0.2227  0.4681
 5221SOL    HW220650   0.525   2.116   5.298 -1.1428  0.1900  1.3924
 5221SOL    HW320651   0.655   2.185   5.331 -0.3266 -0.4869 -0.3077
 5221SOL    MW420652   0.579   2.184   5.289  0.1483  0.5310 -0.2333
 5222SOL     OW20653   1.587   6.265   4.101  0.1361  0.0120 -0.1673
 5222SOL    HW220654   1.668   6.263   4.152  0.6821 -0.4659 -1.0257
 5222SOL    HW320655   1.565   6.173   4.087 -1.3020  0.1111  1.1831
 5222SOL    MW420656   1.594   6.253   4.106  0.0521  0.2878 -0.5611
 5223SOL     OW20657   5.622   5.862   2.596 -0.3348 -0.6622  0.2597
 5223SOL    HW220658   5.696   5.834   2.649 -2.0992 -0.5087  3.0189
 5223SOL    HW320659   5.644   5.952   2.570  0.3311 -0.4942  1.3288
 5223SOL    MW420660   5.635   5.870   2.599  0.8952 -0.3098  0.2344
 5224SOL     OW20661   1.133   0.889   0.346 -0.1707  0.1359  1.5732
 5224SOL    HW220662   1.142   0.822   0.414 -1.8680 -0.4751  1.2383
 5224SOL    HW320663   1.060   0.943   0.375 -0.4581  0.2972  0.5798
 5224SOL    MW420664   1.125   0.887   0.359  0.1505  0.1415  0.2555
 5225SOL     OW20665   4.153   6.211   4.060  0.1326 -0.0891 -0.1876
 5225SOL    HW220666   4.105   6.282   4.101 -0.8325  0.2252 -1.7620
 5225SOL    HW320667   4.245   6.230   4.077 -0.2134  0.2824  1.3417
 5225SOL    MW420668   4.159   6.223   4.067  0.3172 -0.2286  0.0442
 5226SOL     OW20669   0.389   2.983   1.244 -0.2887  0.1841 -0.0991
 5226SOL    HW220670   0.407   2.890   1.259  0.0627  0.2727  0.0324
 5226SOL    HW320671   0.394   2.993   1.149 -0.7354 -0.0108 -0.1489
 5226SOL    MW420672   0.392   2.972   1.233  0.5963 -0.0806 -0.8628
 5227SOL     OW20673   1.497   2.788   4.615 -0.2008  0.5344  0.3220
 5227SOL    HW220674   1.527   2.736   4.540  1.2382  1.9699 -0.1351
 5227SOL    HW320675   1.565   2.778   4.681 -1.3162 -0.4766  1.3910
 5227SOL    MW420676   1.510   2.779   4.614 -0.5886 -0.1018  0.6741
 5228SOL     OW20677   5.608   0.728   5.705 -1.1502  0.1813 -0.2410
 5228SOL    HW220678   5.523   0.695   5.734 -0.5338 -1.7718 -0.4563
 5228SOL    HW320679   5.661   0.649   5.693  0.2446  1.2482 -1.5344
 5228SOL    MW420680   5.604   0.713   5.707 -0.0945 -0.2866  0.0455
 5229SOL     OW20681   1.858   4.696   4.165  1.0050 -0.1666  0.8839
 5229SOL    HW220682   1.897   4.775   4.127  1.3564 -0.4947  0.5512
 5229SOL    HW320683   1.896   4.624   4.115  0.7082 -0.5504  1.2031
 5229SOL    MW420684   1.868   4.697   4.153  0.2181  0.2091  0.6603
 5230SOL     OW20685   3.540   4.508   6.173 -0.1744  0.0003  0.0622
 5230SOL    HW220686   3.543   4.440   6.106 -1.9011 -0.1001  0.0430
 5230SOL    HW320687   3.508   4.464   6.252 -0.6540  0.6472  0.2396
 5230SOL    MW420688   3.536   4.493   6.175 -0.7205  0.3832  0.0924
 5231SOL     OW20689   6.122   0.665   6.015  0.0976  0.5275  0.3108
 5231SOL    HW220690   6.065   0.709   6.077 -0.3090  2.0234 -1.0556
 5231SOL    HW320691   6.070   0.592   5.982  0.1400  0.0201  1.3398
 5231SOL    MW420692   6.108   0.661   6.019 -0.1951  0.0416 -0.7353
 5232SOL     OW20693   4.788   4.878   1.336  0.0126  0.0822  0.6955
 5232SOL    HW220694   4.806   4.901   1.244 -0.4519 -0.6223  0.4211
 5232SOL    HW320695   4.785   4.963   1.381 -0.7936  0.5161 -0.1317
 5232SOL    MW420696   4.790   4.893   1.329  0.4561 -0.5922 -0.1598
 5233SOL     OW20697   4.786   2.997   5.535 -0.6692  0.4475  0.4515
 5233SOL    HW220698   4.723   3.061   5.503 -0.4380 -0.6365 -2.4679
 5233SOL    HW320699   4.733   2.920   5.558 -0.7068  0.8039  1.6609
 5233SOL    MW420700   4.771   2.995   5.534  0.1493 -0.0515  0.2012
 5234SOL     OW20701   2.464   0.881   2.368  0.6406  0.6163 -0.0443
 5234SOL    HW220702   2.524   0.807   2.378  0.4481  0.4976  0.2343
 5234SOL    HW320703   2.486   0.918   2.283 -0.1019 -0.5174 -0.7573
 5234SOL    MW420704   2.475   0.876   2.358 -0.0826  0.1809  0.2954
 5235SOL     OW20705   5.498   2.551   1.593 -0.5786  0.1017 -0.1309
 5235SOL    HW220706   5.485   2.459   1.613 -1.7552  0.5284  1.1995
 5235SOL    HW320707   5.501   2.554   1.497 -2.3695 -1.1139 -0.2797
 5235SOL    MW420708   5.497   2.540   1.583  0.1569  0.1574  0.0662
 5236SOL     OW20709   3.604   2.358   5.664  0.0387  0.3099  0.0920
 5236SOL    HW220710   3.635   2.359   5.574 -1.5693 -0.6230 -0.5142
 5236SOL    HW320711   3.513   2.326   5.658 -0.2798  0.7448  1.9762
 5236SOL    MW420712   3.596   2.354   5.651 -0.1243 -0.6897  0.2102
 5237SOL     OW20713   2.492   1.680   3.340 -0.0378  0.4259 -0.3462
 5237SOL    HW220714   2.466   1.589   3.354  1.1115  0.0875 -0.2766
 5237SOL    HW320715   2.442   1.708   3.263 -0.8269 -0.0774 -0.0258
 5237SOL    MW420716   2.482   1.672   3.331 -0.3280 -0.1784 -0.6532
 5238SOL     OW20717   2.102   1.441   4.349 -0.0198 -0.3853  0.4194
 5238SOL    HW220718   2.102   1.504   4.277  0.3563 -0.2893  0.5019
 5238SOL    HW320719   2.019   1.455   4.393  0.7129  1.1765  1.4016
 5238SOL    MW420720   2.091   1.451   4.345 -0.2258  0.5648  0.2706
 5239SOL     OW20721   1.211   5.420   5.302 -0.3013  0.3413 -0.1815
 5239SOL    HW220722   1.206   5.397   5.395  0.9988  2.4169  0.4738
 5239SOL    HW320723   1.260   5.347   5.262  1.0360  0.4337  1.1964
 5239SOL    MW420724   1.217   5.407   5.309 -0.4797 -0.3155  0.0330
 5240SOL     OW20725   0.614   2.005   0.020  0.3334 -0.0902  0.0218
 5240SOL    HW220726   0.601   1.945   0.093  0.4306 -2.5643 -1.8777
 5240SOL    HW320727   0.656   1.953  -0.048 -1.6964  1.4462 -2.6371
 5240SOL    MW420728   0.618   1.991   0.020 -0.9820  0.1229  0.1562
 5241SOL     OW20729   3.452   0.194   4.053 -0.5828  0.0882 -0.0485
 5241SOL    HW220730   3.367   0.154   4.075  0.5288 -1.0830  2.4562
 5241SOL    HW320731   3.491   0.133   3.990 -0.6763 -0.6004  0.5395
 5241SOL    MW420732   3.446   0.181   4.047  0.0706 -0.3087 -0.3812
 5242SOL     OW20733   3.365   1.018   1.817 -0.0815 -0.4473  0.0749
 5242SOL    HW220734   3.309   0.988   1.889 -1.4451  1.1234 -0.2930
 5242SOL    HW320735   3.351   1.112   1.813  0.0071 -0.4883 -2.2267
 5242SOL    MW420736   3.356   1.026   1.826 -0.4066  0.9006  0.2086
 5243SOL     OW20737   6.299   5.473   0.957  0.0432  0.0517 -0.0568
 5243SOL    HW220738   6.258   5.416   1.023  1.6413  0.7311  1.6006
 5243SOL    HW320739   6.232   5.539   0.938 -0.9876 -1.0176 -0.2757
 5243SOL    MW420740   6.285   5.474   0.963 -0.0159 -0.0767  0.3935
 5244SOL     OW20741   4.632   1.295   3.463 -0.1152 -0.5754  0.0674
 5244SOL    HW220742   4.655   1.253   3.379 -0.7658 -3.2711  1.1318
 5244SOL    HW320743   4.716   1.312   3.505  0.3692  2.8450 -1.8968
 5244SOL    MW420744   4.646   1.292   3.457 -0.7576  0.0500 -0.3582
 5245SOL     OW20745   5.458   2.876   3.493 -0.4028  0.8188  0.7345
 5245SOL    HW220746   5.416   2.792   3.471 -0.3154  1.4801 -2.2754
 5245SOL    HW320747   5.548   2.853   3.514 -0.5206  0.1055  0.4816
 5245SOL    MW420748   5.464   2.862   3.493  0.2258  0.0064  0.6985
 5246SOL     OW20749   6.102   0.814   5.768 -0.7716  0.4311 -0.5756
 5246SOL    HW220750   6.130   0.742   5.712  0.4919  0.6633 -0.2799
 5246SOL    HW320751   6.108   0.779   5.857  1.3308  1.3109 -0.3106
 5246SOL    MW420752   6.107   0.800   5.772  0.0894  0.3690  0.2201
 5247SOL     OW20753   1.593   3.659   5.048 -0.0199 -0.3888 -0.2734
 5247SOL    HW220754   1.536   3.733   5.063 -0.3648 -0.4573 -1.2205
 5247SOL    HW320755   1.577   3.601   5.123  0.4380  0.5790  0.6053
 5247SOL    MW420756   1.584   3.661   5.060 -0.6868  0.1395  0.0013
 5248SOL     OW20757   4.049   5.515   4.591  0.2356  0.1348  0.0717
 5248SOL    HW220758   4.093   5.584   4.541  0.4364  0.7891  1.1195
 5248SOL    HW320759   4.099   5.436   4.572  0.7236  0.5083 -0.2201
 5248SOL    MW420760   4.062   5.513   4.582  0.5390  0.1982  0.5325
 5249SOL     OW20761   1.248   5.507   4.826 -0.0392  0.0400 -0.4682
 5249SOL    HW220762   1.331   5.541   4.792  0.2046  0.7999  0.8302
 5249SOL    HW320763   1.244   5.539   4.916 -2.1133  0.6849 -0.7429
 5249SOL    MW420764   1.258   5.516   4.833  0.2194 -0.5598 -0.7929
 5250SOL     OW20765   6.217   2.587   6.336  0.4513  0.2570  0.5035
 5250SOL    HW220766   6.277   2.645   6.290  0.7820 -0.2758  0.2532
 5250SOL    HW320767   6.161   2.646   6.386  0.9638  0.7775  0.4792
 5250SOL    MW420768   6.217   2.602   6.336 -0.0811 -0.4839  0.3807
 5251SOL     OW20769   1.420   4.927   3.285  0.5202 -0.2090 -0.2540
 5251SOL    HW220770   1.448   5.017   3.301  1.0874 -0.3847 -0.2168
 5251SOL    HW320771   1.399   4.924   3.192  1.6465 -0.3262 -0.5203
 5251SOL    MW420772   1.421   4.938   3.275 -0.2928 -0.3939 -0.8043
 5252SOL     OW20773   0.203   1.513   6.317  0.7261  0.1232  0.4092
 5252SOL    HW220774   0.266   1.495   6.248  0.3336  1.6441 -0.3851
 5252SOL    HW320775   0.122   1.533   6.272  1.1063  3.8054  1.0830
 5252SOL    MW420776   0.201   1.513   6.302 -0.0809  0.8272 -0.0494
 5253SOL     OW20777   2.786   5.793   5.149 -0.3646  0.6939  0.0621
 5253SOL    HW220778   2.698   5.767   5.176 -1.0037  0.8198 -1.7449
 5253SOL    HW320779   2.839   5.714   5.159 -0.5632  0.7284  1.5605
 5253SOL    MW420780   2.781   5.779   5.154  0.0506 -0.0637 -0.2630
 5254SOL     OW20781   0.791   4.841   5.182 -0.1838 -0.3763  0.0574
 5254SOL    HW220782   0.835   4.756   5.187 -0.4590 -0.4898  0.6452
 5254SOL    HW320783   0.815   4.876   5.096 -1.2987 -1.7207 -0.8430
 5254SOL    MW420784   0.800   4.835   5.171 -0.4108 -0.0296  0.4142
 5255SOL     OW20785   0.234   4.432   6.042  0.3389 -0.2306  0.3765
 5255SOL    HW220786   0.162   4.493   6.050  0.1584 -0.4261  0.2510
 5255SOL    HW320787   0.228   4.399   5.952  0.9704  0.2390  0.1514
 5255SOL    MW420788   0.224   4.436   6.031 -0.3120  0.0994 -0.1013
 5256SOL     OW20789   2.962   5.779   0.865 -0.2207  0.1687  0.0369
 5256SOL    HW220790   2.942   5.777   0.771  1.7348 -0.5151 -0.4131
 5256SOL    HW320791   2.991   5.869   0.881  0.6386 -0.0338 -0.3146
 5256SOL    MW420792   2.964   5.790   0.855 -0.1781  0.1845 -0.9168
 5257SOL     OW20793   4.861   2.478   1.302 -0.1575  0.4264  0.0192
 5257SOL    HW220794   4.794   2.542   1.277 -0.8144  0.1114  0.9034
 5257SOL    HW320795   4.812   2.403   1.336  0.6308 -0.0663  0.1048
 5257SOL    MW420796   4.846   2.477   1.303  0.5210 -0.3593  0.4831
 5258SOL     OW20797   2.035   1.129   0.849  0.0015  0.4673 -0.2324
 5258SOL    HW220798   2.039   1.201   0.912 -0.6492 -0.4123  0.8442
 5258SOL    HW320799   1.967   1.071   0.883  1.4308 -1.3534 -0.3306
 5258SOL    MW420800   2.026   1.131   0.862  0.2879 -0.3701  0.3036
 5259SOL     OW20801   1.750   2.166   0.851 -0.2466 -0.7296  0.2085
 5259SOL    HW220802   1.661   2.199   0.862 -0.9473 -2.0064 -1.2271
 5259SOL    HW320803   1.786   2.164   0.939 -1.5301  0.0950  0.7821
 5259SOL    MW420804   1.743   2.170   0.864  0.6243  0.3171  0.2684
 5260SOL     OW20805   4.713   4.496   3.594  0.5077 -0.5565  0.6030
 5260SOL    HW220806   4.672   4.529   3.674 -0.2413  0.9980 -0.3881
 5260SOL    HW320807   4.749   4.573   3.551 -0.0074 -1.2120 -1.0779
 5260SOL    MW420808   4.713   4.510   3.599  1.0083  0.2047  0.1567
 5261SOL     OW20809   0.896   1.333   3.163 -0.1691 -0.0679  0.3586
 5261SOL    HW220810   0.914   1.239   3.153 -1.4964 -0.3044 -0.1447
 5261SOL    HW320811   0.963   1.376   3.110  0.5296 -0.7278  0.6926
 5261SOL    MW420812   0.907   1.326   3.155 -0.0048 -0.1562  0.1653
 5262SOL     OW20813   1.202   1.557   1.673 -0.5372  0.4560  0.6011
 5262SOL    HW220814   1.184   1.497   1.744  0.1870  0.4213  0.7606
 5262SOL    HW320815   1.218   1.501   1.597 -0.3898  0.4607  0.6279
 5262SOL    MW420816   1.202   1.542   1.672  0.7920 -0.8107 -0.1443
 5263SOL     OW20817   5.627   4.390   2.154  0.2894 -0.0397  0.1427
 5263SOL    HW220818   5.546   4.429   2.119 -0.6026 -1.8487  0.1080
 5263SOL    HW320819   5.641   4.436   2.236 -1.6794 -0.7361  0.9288
 5263SOL    MW420820   5.618   4.401   2.160 -0.0973  0.3071 -0.0959
 5264SOL     OW20821   1.560   1.428   1.930 -0.0922 -0.0222 -0.2941
 5264SOL    HW220822   1.617   1.357   1.960 -0.8055  0.1288  1.5779
 5264SOL    HW320823   1.602   1.508   1.963 -0.3103  0.2579 -0.6907
 5264SOL    MW420824   1.573   1.429   1.939 -0.1647  0.4298  0.2334
 5265SOL     OW20825   0.250   0.623   3.198  0.0374  0.1675 -0.6108
 5265SOL    HW220826   0.186   0.578   3.254 -0.1843 -2.1316 -2.5610
 5265SOL    HW320827   0.334   0.590   3.228  0.0775  0.5018 -0.3432
 5265SOL    MW420828   0.252   0.613   3.210 -0.2009  0.1648 -0.3060
 5266SOL     OW20829   0.729   4.691   6.087  0.2964  0.1137  0.1488
 5266SOL    HW220830   0.669   4.619   6.105  1.8122 -0.7536  2.1144
 5266SOL    HW320831   0.687   4.768   6.124 -0.9571  0.1389 -1.2340
 5266SOL    MW420832   0.716   4.692   6.094 -0.0675 -0.6314  0.0371
 5267SOL     OW20833   6.377   5.219   3.707 -0.2357 -0.8621 -0.3954
 5267SOL    HW220834   6.413   5.166   3.636  1.7243  0.8360 -0.7570
 5267SOL    HW320835   6.423   5.190   3.785  2.4094  1.5201 -0.9056
 5267SOL    MW420836   6.388   5.208   3.708 -0.3123  0.2973 -0.0557
 5268SOL     OW20837   5.925   3.333   3.773 -0.2674  0.3407  0.1135
 5268SOL    HW220838   5.879   3.292   3.699  1.2759 -0.3764 -0.4981
 5268SOL    HW320839   5.956   3.259   3.825  0.5738  0.7969  0.2679
 5268SOL    MW420840   5.923   3.317   3.770 -0.4388 -0.3409 -0.3754
 5269SOL     OW20841   1.874   0.558   3.155  0.7747  0.2485  0.3394
 5269SOL    HW220842   1.907   0.591   3.072  1.4322 -0.6427  0.2372
 5269SOL    HW320843   1.867   0.464   3.143 -1.7333  0.3498  0.3914
 5269SOL    MW420844   1.878   0.550   3.143 -0.4927 -0.0569 -0.3068
 5270SOL     OW20845   3.240   6.009   3.391  0.0952  0.6149 -0.0780
 5270SOL    HW220846   3.286   5.973   3.315 -2.0932 -0.1998 -1.1096
 5270SOL    HW320847   3.241   6.104   3.377  0.7688  0.5484 -0.4967
 5270SOL    MW420848   3.246   6.017   3.379  0.5907 -0.1348 -0.2919
 5271SOL     OW20849   3.561   4.831   5.682  0.8366 -0.3534 -0.1211
 5271SOL    HW220850   3.539   4.818   5.590 -0.1950 -0.3193  0.0999
 5271SOL    HW320851   3.476   4.842   5.725  1.3608  2.4264  0.4247
 5271SOL    MW420852   3.547   4.831   5.676  0.1991  0.1668 -0.8502
 5272SOL     OW20853   6.394   2.508   0.457 -0.1049  0.6003  0.0497
 5272SOL    HW220854   6.366   2.476   0.371  0.3866 -1.8236  0.7138
 5272SOL    HW320855   6.375   2.436   0.517  1.5865  1.3607  1.5955
 5272SOL    MW420856   6.388   2.495   0.453 -0.3679  0.3252 -0.3047
 5273SOL     OW20857   6.093   1.026   0.997  0.6003  0.2955 -0.2540
 5273SOL    HW220858   6.015   0.988   1.037  1.3009 -1.0560 -0.1331
 5273SOL    HW320859   6.115   1.101   1.053  0.1139 -0.0691  0.4358
 5273SOL    MW420860   6.086   1.031   1.009 -0.1251  0.1820  0.3244
 5274SOL     OW20861   3.065   3.749   4.895 -0.6613  0.3693 -0.1608
 5274SOL    HW220862   3.025   3.692   4.829 -0.6030  0.4557 -0.2729
 5274SOL    HW320863   3.059   3.700   4.977  0.2456 -0.2140 -0.4162
 5274SOL    MW420864   3.059   3.735   4.897  0.2669  0.0478 -0.0604
 5275SOL     OW20865   0.965   4.638   6.254  0.3271  0.0840 -0.0076
 5275SOL    HW220866   1.032   4.617   6.189  0.7478  0.1267  0.4066
 5275SOL    HW320867   0.883   4.635   6.205  0.4728 -1.4348 -0.2063
 5275SOL    MW420868   0.963   4.635   6.239 -0.1031 -0.7682 -0.1934
 5276SOL     OW20869   3.805   1.333   5.725  0.5885  0.3053  0.9155
 5276SOL    HW220870   3.806   1.247   5.768  0.6379 -0.0798  0.1766
 5276SOL    HW320871   3.897   1.353   5.709  0.6077  0.7472  1.5567
 5276SOL    MW420872   3.817   1.324   5.729 -0.7559  0.3544  0.1427
 5277SOL     OW20873   6.090   4.855   2.503  0.0278 -0.5577 -0.8261
 5277SOL    HW220874   6.172   4.829   2.462 -0.0997 -0.1306 -1.3609
 5277SOL    HW320875   6.110   4.940   2.544  0.0537 -0.8047 -0.3228
 5277SOL    MW420876   6.103   4.863   2.503 -0.2070  0.4768 -0.5426
 5278SOL     OW20877   2.220   5.189   5.428  0.3706 -0.0430 -0.3978
 5278SOL    HW220878   2.187   5.131   5.360 -0.8604 -0.9774  0.9219
 5278SOL    HW320879   2.274   5.133   5.484  1.8308  0.8350 -0.8860
 5278SOL    MW420880   2.223   5.174   5.427 -0.2633 -0.1393 -0.1441
 5279SOL     OW20881   1.308   3.083   2.420  0.0609  0.0649  0.0738
 5279SOL    HW220882   1.300   3.177   2.438 -2.6214 -0.4705  2.4415
 5279SOL    HW320883   1.334   3.045   2.503  2.3082 -1.2782 -1.1458
 5279SOL    MW420884   1.310   3.090   2.433  0.1415 -0.6206  0.3901
 5280SOL     OW20885   4.111   3.019   5.137 -0.8736  0.2252 -0.6154
 5280SOL    HW220886   4.079   3.018   5.047 -1.9941  0.7548 -0.2395
 5280SOL    HW320887   4.032   3.008   5.190 -0.1646 -0.5692  0.2923
 5280SOL    MW420888   4.096   3.017   5.132 -0.4296 -0.4392 -0.0992
 5281SOL     OW20889   6.278   0.035   2.044  0.1086 -0.0539 -0.3167
 5281SOL    HW220890   6.201   0.056   2.097 -1.0626  0.6832 -2.2258
 5281SOL    HW320891   6.351   0.071   2.094 -0.9017  0.3895  0.9229
 5281SOL    MW420892   6.277   0.042   2.058 -0.7511 -0.5698  0.1743
 5282SOL     OW20893   2.977   0.579   0.023  0.5719  0.0298 -0.1725
 5282SOL    HW220894   2.884   0.583   0.044  0.4619 -0.7240 -0.5009
 5282SOL    HW320895   2.987   0.635  -0.054  0.3985  0.1315 -0.1216
 5282SOL    MW420896   2.966   0.587   0.016  0.5935 -0.6553  0.2885
 5283SOL     OW20897   5.110   5.785   2.457 -0.0492 -0.0995  0.0464
 5283SOL    HW220898   5.131   5.746   2.372 -1.3748  0.4091 -0.5407
 5283SOL    HW320899   5.193   5.822   2.488  0.7169 -1.3335 -0.4587
 5283SOL    MW420900   5.124   5.785   2.450  0.1641  0.0000  0.7092
 5284SOL     OW20901   4.643   1.988   1.920  0.1456  0.3822 -0.1864
 5284SOL    HW220902   4.583   1.983   1.995 -0.8399  1.7525 -0.8532
 5284SOL    HW320903   4.613   1.918   1.861 -0.9700  1.1798 -0.6047
 5284SOL    MW420904   4.631   1.978   1.922  0.7187  0.6900  0.4703
 5285SOL     OW20905   5.293   6.372   4.509  0.8752 -0.0769  0.1205
 5285SOL    HW220906   5.215   6.348   4.557 -0.1669  0.6625 -1.1375
 5285SOL    HW320907   5.353   6.298   4.522 -0.0421 -0.6851  1.0343
 5285SOL    MW420908   5.291   6.359   4.517 -0.3156 -0.4834 -0.2890
 5286SOL     OW20909   1.057   1.241   3.589  0.1144 -0.0720  0.1414
 5286SOL    HW220910   0.984   1.261   3.647  1.1918 -2.0186  2.3267
 5286SOL    HW320911   1.027   1.167   3.536  0.4729 -0.9011  1.0708
 5286SOL    MW420912   1.043   1.234   3.589 -0.2018 -0.0636  0.2841
 5287SOL     OW20913   5.255   2.593   4.776 -0.3507 -0.4467  0.2067
 5287SOL    HW220914   5.238   2.673   4.725  1.6077 -1.3825 -2.1468
 5287SOL    HW320915   5.268   2.624   4.866 -1.5647  1.6284 -0.2607
 5287SOL    MW420916   5.255   2.608   4.781  0.3645  0.4578 -0.1470
 5288SOL     OW20917   2.135   4.482   4.905 -0.2253  0.7181  0.0591
 5288SOL    HW220918   2.169   4.571   4.896 -0.3594  0.9808  1.7843
 5288SOL    HW320919   2.046   4.487   4.870  0.4849  0.7107 -1.8486
 5288SOL    MW420920   2.127   4.495   4.899  0.1757  0.4298 -0.2411
 5289SOL     OW20921   5.018   0.341   2.925  0.0884  0.0192 -0.2764
 5289SOL    HW220922   4.999   0.410   2.988  2.9413  0.9880 -0.3731
 5289SOL    HW320923   5.046   0.266   2.979 -0.0909 -0.0637 -0.2968
 5289SOL    MW420924   5.019   0.340   2.941  0.4518  0.6329 -0.0327
 5290SOL     OW20925   0.062   2.386   1.534  0.0492  0.2900 -0.3809
 5290SOL    HW220926  -0.032   2.376   1.525  0.0477 -1.2181  0.9131
 5290SOL    HW320927   0.087   2.324   1.603  2.4941 -2.1075 -3.1309
 5290SOL    MW420928   0.053   2.377   1.542  0.0049 -0.5757  0.0222
 5291SOL     OW20929   1.940   0.442   3.983  0.0964 -0.7560  0.8122
 5291SOL    HW220930   1.999   0.432   3.908  0.3483  0.7019  0.7964
 5291SOL    HW320931   1.976   0.515   4.032 -1.0242 -0.6198  1.4591
 5291SOL    MW420932   1.953   0.450   3.979 -0.0832  0.0503 -0.1280
 5292SOL     OW20933   3.588   4.679   5.178 -0.4099 -0.2339  0.5132
 5292SOL    HW220934   3.567   4.748   5.116 -1.2693 -1.2549 -0.3653
 5292SOL    HW320935   3.680   4.659   5.161 -0.1455  0.6728  0.7909
 5292SOL    MW420936   3.598   4.685   5.168  0.2828 -0.1661 -0.4649
 5293SOL     OW20937   1.684   1.593   3.122  0.2139 -0.5334  0.2359
 5293SOL    HW220938   1.665   1.504   3.152 -0.5719 -0.3867  0.1998
 5293SOL    HW320939   1.739   1.581   3.045 -0.2930 -1.0144 -0.0638
 5293SOL    MW420940   1.689   1.580   3.116  0.4485  0.7720 -0.1401
 5294SOL     OW20941   4.717   5.353   3.095  0.0684  0.5154  0.0581
 5294SOL    HW220942   4.633   5.357   3.141 -0.3423  1.2656 -0.7094
 5294SOL    HW320943   4.713   5.272   3.045  0.9012 -0.7807  1.9945
 5294SOL    MW420944   4.705   5.343   3.094 -0.5495 -0.3432  0.1273
 5295SOL     OW20945   3.408   4.996   1.115 -0.3788  0.1104 -0.1579
 5295SOL    HW220946   3.448   4.910   1.099  1.7187  1.1676 -0.9253
 5295SOL    HW320947   3.414   5.008   1.210 -1.1852 -0.7903  0.0275
 5295SOL    MW420948   3.414   4.986   1.125 -0.2781  0.4932 -0.4789
 5296SOL     OW20949   0.819   2.087   2.158 -0.0286 -0.0700 -0.3592
 5296SOL    HW220950   0.880   2.051   2.222 -1.1116 -0.5973  0.3995
 5296SOL    HW320951   0.735   2.091   2.204 -0.3382  1.7187 -1.0064
 5296SOL    MW420952   0.816   2.083   2.172 -0.5327 -0.3426  0.3633
 5297SOL     OW20953   2.931   6.288   2.892 -0.3697 -0.1225  0.1135
 5297SOL    HW220954   2.974   6.302   2.976 -0.4257  2.2370 -0.1717
 5297SOL    HW320955   2.878   6.210   2.904  0.5492 -0.5144  1.8815
 5297SOL    MW420956   2.930   6.280   2.904  0.0701  0.1271  0.6517
 5298SOL     OW20957   5.593   6.144   3.177  0.4633 -0.1228 -0.0487
 5298SOL    HW220958   5.641   6.186   3.248 -1.2523 -0.6073  1.4774
 5298SOL    HW320959   5.579   6.054   3.208  0.5745 -0.6522 -1.4730
 5298SOL    MW420960   5.598   6.138   3.191 -0.1157 -0.3628 -0.2621
 5299SOL     OW20961   3.421   4.979   3.877  0.5675  0.3782  0.4144
 5299SOL    HW220962   3.516   4.972   3.865  0.1364 -1.1075 -3.8493
 5299SOL    HW320963   3.387   4.895   3.847 -2.2129  1.7306 -0.5265
 5299SOL    MW420964   3.429   4.967   3.872 -0.4206 -0.1176  0.5230
 5300SOL     OW20965   2.086   4.083   4.967  0.1356 -0.3397 -0.7151
 5300SOL    HW220966   2.149   4.114   4.902  0.5032 -0.5439 -0.4661
 5300SOL    HW320967   2.141   4.055   5.041 -0.3095  0.5752 -0.0204
 5300SOL    MW420968   2.102   4.083   4.968 -0.6030 -0.3296 -0.3037
 5301SOL     OW20969   4.699   1.966   3.700 -0.1534  0.1027 -0.5599
 5301SOL    HW220970   4.681   1.911   3.776  2.6507 -0.6702 -0.3474
 5301SOL    HW320971   4.679   2.055   3.730 -1.0701 -0.3849  0.3620
 5301SOL    MW420972   4.694   1.971   3.714  0.5936  0.0399  0.1631
 5302SOL     OW20973   3.569   1.269   5.060 -0.3995  0.5722  0.2940
 5302SOL    HW220974   3.610   1.209   5.122 -0.5897 -0.3738 -0.4746
 5302SOL    HW320975   3.556   1.350   5.110  1.7782  0.6961  0.7386
 5302SOL    MW420976   3.572   1.272   5.075 -0.3969 -0.0231 -0.2897
 5303SOL     OW20977   4.990   0.281   4.611 -0.3983  0.1963 -0.2744
 5303SOL    HW220978   5.040   0.363   4.611 -0.7770  0.4264 -0.2436
 5303SOL    HW320979   5.033   0.228   4.543 -0.6112  0.7026 -0.8116
 5303SOL    MW420980   5.003   0.285   4.602  0.2454 -0.0143 -0.1821
 5304SOL     OW20981   4.671   3.860   4.022 -0.0453 -0.6525  0.0346
 5304SOL    HW220982   4.676   3.942   4.070 -1.7262 -1.0876  1.0313
 5304SOL    HW320983   4.757   3.820   4.033  0.2926  0.2576  0.8423
 5304SOL    MW420984   4.683   3.866   4.029  0.1756 -0.1663  0.8151
 5305SOL     OW20985   2.240   0.058   5.749 -0.1264  0.8078 -0.3774
 5305SOL    HW220986   2.324   0.038   5.707  0.1473 -1.4087  1.0681
 5305SOL    HW320987   2.240   0.006   5.829 -2.2798  1.9097  0.4237
 5305SOL    MW420988   2.251   0.049   5.754 -0.2288 -0.1371  0.4474
 5306SOL     OW20989   3.249   5.712   2.270 -0.8357  0.4874 -0.9590
 5306SOL    HW220990   3.221   5.804   2.268 -3.0755 -0.1615 -0.9819
 5306SOL    HW320991   3.256   5.688   2.177 -1.5428  0.2768 -0.9629
 5306SOL    MW420992   3.246   5.721   2.257  0.0599 -0.3919 -0.1962
 5307SOL     OW20993   3.052   5.711   4.077  0.2047 -0.0540 -0.0533
 5307SOL    HW220994   3.041   5.736   4.169  1.1040 -0.7577  0.2565
 5307SOL    HW320995   2.990   5.639   4.065  1.1734 -1.0028  0.4489
 5307SOL    MW420996   3.042   5.705   4.088 -0.0455 -0.3411  0.7283
 5308SOL     OW20997   3.003   4.653   2.028 -0.5267 -0.5127 -0.6625
 5308SOL    HW220998   2.932   4.714   2.050  0.9466  1.2112 -0.4459
 5308SOL    HW320999   3.037   4.625   2.113  2.3219  2.7427 -0.5063
 5308SOL    MW421000   2.998   4.657   2.042 -0.1730 -0.4114  0.0618
 5309SOL     OW21001   5.190   4.466   2.642  0.1740  0.2378  0.1040
 5309SOL    HW221002   5.113   4.487   2.588  1.2399 -1.4433 -2.2132
 5309SOL    HW321003   5.177   4.375   2.667  1.7104 -0.2970 -0.9238
 5309SOL    MW421004   5.178   4.457   2.639  0.1493 -0.3137 -0.4282
 5310SOL     OW21005   3.972   5.106   4.015 -0.0494 -0.6524 -0.1533
 5310SOL    HW221006   3.901   5.163   3.985  1.3271  1.1037 -0.2724
 5310SOL    HW321007   3.972   5.118   4.110 -0.0649 -0.8403 -0.1301
 5310SOL    MW421008   3.962   5.115   4.024  0.3458  0.2408 -0.4251
 5311SOL     OW21009   1.982   6.298   3.975  0.3598 -0.2035 -0.4038
 5311SOL    HW221010   1.966   6.380   3.928 -1.9025  0.3253  1.1395
 5311SOL    HW321011   2.077   6.298   3.990  0.7849  0.8395 -2.6367
 5311SOL    MW421012   1.993   6.309   3.971  0.0282  0.4017  0.0842
 5312SOL     OW21013   1.692   0.480   5.651 -0.1598 -0.2646  0.7572
 5312SOL    HW221014   1.759   0.543   5.678 -0.0784 -0.9708  2.3204
 5312SOL    HW321015   1.731   0.434   5.576  1.1003 -0.6120  1.5925
 5312SOL    MW421016   1.706   0.482   5.645  0.2918 -0.1076  0.0497
 5313SOL     OW21017   1.577   3.227   2.015  1.2095 -0.0549  0.2385
 5313SOL    HW221018   1.581   3.147   2.067  1.9608 -0.1645  0.0297
 5313SOL    HW321019   1.645   3.215   1.948  1.7402  1.0061  0.5660
 5313SOL    MW421020   1.587   3.215   2.013 -0.3332 -0.0587 -0.3937
 5314SOL     OW21021   4.301   4.498   5.044 -0.2951 -0.1928 -0.0421
 5314SOL    HW221022   4.302   4.589   5.013 -1.2125 -0.0867  0.2220
 5314SOL    HW321023   4.212   4.485   5.077 -1.1335 -2.1018 -2.7910
 5314SOL    MW421024   4.290   4.509   5.044  0.0917  0.4972 -0.5076
 5315SOL     OW21025   5.341   4.333   5.136  0.0944 -0.3153 -0.0067
 5315SOL    HW221026   5.368   4.377   5.217  1.2515  0.5641 -0.8498
 5315SOL    HW321027   5.288   4.398   5.090 -1.0924 -1.0255  0.2809
 5315SOL    MW421028   5.337   4.347   5.141 -0.0801 -0.2240 -0.1560
 5316SOL     OW21029   0.030   3.937   1.796 -0.4648  0.0454  0.1044
 5316SOL    HW221030   0.019   3.861   1.853  0.0471 -0.7912 -0.8702
 5316SOL    HW321031   0.122   3.961   1.804 -0.3547 -0.1676 -0.4697
 5316SOL    MW421032   0.040   3.930   1.805 -0.4241 -0.4929  0.0048
 5317SOL     OW21033   1.698   0.981   3.687 -0.2158 -0.1658  0.0888
 5317SOL    HW221034   1.679   1.013   3.775  0.9068 -0.5184  0.4761
 5317SOL    HW321035   1.653   0.896   3.682 -0.5219 -0.0128  0.2150
 5317SOL    MW421036   1.689   0.974   3.698 -0.0467 -0.2628 -0.6673
 5318SOL     OW21037   0.660   0.988   4.279 -0.2072 -0.2969 -0.2443
 5318SOL    HW221038   0.733   0.929   4.295  0.0950  0.1984  0.2931
 5318SOL    HW321039   0.701   1.074   4.268 -0.7275  0.0976  0.6983
 5318SOL    MW421040   0.675   0.992   4.280 -0.2560  0.0294  0.0816
 5319SOL     OW21041   0.073   2.438   3.564 -0.4145  0.4702 -0.1393
 5319SOL    HW221042   0.000   2.461   3.622 -0.6984 -1.3324  0.2989
 5319SOL    HW321043   0.032   2.402   3.486 -0.0603 -1.2531  0.4102
 5319SOL    MW421044   0.058   2.436   3.562 -0.6703 -0.2514 -0.1564
 5320SOL     OW21045   4.737   4.910   3.601 -0.2115 -0.0998  0.0014
 5320SOL    HW221046   4.652   4.869   3.589 -1.5826  2.3861  0.3807
 5320SOL    HW321047   4.758   4.894   3.693 -0.5296 -0.3267  0.0350
 5320SOL    MW421048   4.728   4.903   3.612  0.4634  0.1960  0.4547
 5321SOL     OW21049   6.324   2.965   0.514 -0.0711  0.5856  0.1567
 5321SOL    HW221050   6.389   2.895   0.510 -1.2421 -0.5769  0.6027
 5321SOL    HW321051   6.367   3.035   0.563  0.4242 -0.6637  1.5987
 5321SOL    MW421052   6.338   2.965   0.520 -0.2903  0.0597  0.5468
 5322SOL     OW21053   2.415   6.098   0.947  0.6757  0.8383 -0.1264
 5322SOL    HW221054   2.327   6.075   0.915  0.8032 -2.3925  1.4328
 5322SOL    HW321055   2.473   6.034   0.906  2.0453  1.7869  0.2688
 5322SOL    MW421056   2.411   6.087   0.938 -0.4960  0.2086  0.7281
 5323SOL     OW21057   2.939   2.917   4.819  0.1204 -0.4058 -0.6728
 5323SOL    HW221058   2.967   2.826   4.809 -0.0822 -0.6348  0.7608
 5323SOL    HW321059   2.852   2.912   4.858  0.7904  0.4159  1.0061
 5323SOL    MW421060   2.932   2.904   4.823  0.1969 -0.1922  0.9863
 5324SOL     OW21061   6.145   4.868   6.111 -0.5894  0.6321  0.2287
 5324SOL    HW221062   6.084   4.939   6.131 -1.3418 -0.0667  0.4687
 5324SOL    HW321063   6.169   4.882   6.020 -3.1791 -0.5558 -0.7396
 5324SOL    MW421064   6.140   4.880   6.102 -0.2922  0.2238  0.1083
 5325SOL     OW21065   3.609   2.115   2.779 -0.2678 -0.0454  0.0032
 5325SOL    HW221066   3.638   2.094   2.868  0.9623 -0.2867 -0.4292
 5325SOL    HW321067   3.682   2.164   2.741 -0.3198 -0.8827 -1.2243
 5325SOL    MW421068   3.622   2.119   2.785  0.6005 -0.0967  0.5273
 5326SOL     OW21069   4.684   2.683   1.237 -0.5755 -0.2065 -0.1781
 5326SOL    HW221070   4.644   2.741   1.302  0.6075  1.7703 -1.1093
 5326SOL    HW321071   4.611   2.640   1.194 -1.5556  1.2158  0.0102
 5326SOL    MW421072   4.669   2.685   1.240  0.2686  0.9977  0.0782
 5327SOL     OW21073   6.241   0.979   4.798  0.3807 -0.2977  0.0083
 5327SOL    HW221074   6.205   1.062   4.827  0.3762 -0.6548  1.0822
 5327SOL    HW321075   6.235   0.922   4.875 -0.4366 -1.5656 -0.9491
 5327SOL    MW421076   6.236   0.982   4.812 -0.5155  0.0676 -0.5489
 5328SOL     OW21077   0.429   4.782   0.735 -0.9419  0.4753  0.7641
 5328SOL    HW221078   0.343   4.820   0.752 -0.2313  1.8789  1.3338
 5328SOL    HW321079   0.442   4.794   0.641 -1.1410  0.7483  0.7703
 5328SOL    MW421080   0.419   4.788   0.725 -0.7718  0.3151 -0.0967
 5329SOL     OW21081   0.876   0.683   2.083 -0.2985 -0.4352  0.2257
 5329SOL    HW221082   0.851   0.596   2.051 -1.1760  0.0871 -0.5754
 5329SOL    HW321083   0.794   0.723   2.109  0.2143 -0.1900  1.5201
 5329SOL    MW421084   0.862   0.677   2.082  0.1249  0.5398  0.5659
 5330SOL     OW21085   4.384   0.666   4.613  0.1875 -0.7710 -0.2454
 5330SOL    HW221086   4.467   0.664   4.566  1.1804  0.8643  1.2881
 5330SOL    HW321087   4.338   0.588   4.584  1.7621 -1.1195 -2.0142
 5330SOL    MW421088   4.389   0.656   4.603  0.4423  0.0885  0.6639
 5331SOL     OW21089   6.021   4.033   5.529 -0.0409  0.3810  0.1428
 5331SOL    HW221090   5.995   4.097   5.596  0.0870  0.4168  0.1588
 5331SOL    HW321091   6.099   3.992   5.565 -0.6437 -0.4369  0.5504
 5331SOL    MW421092   6.028   4.036   5.543  0.0880  0.2471 -0.1888
 5332SOL     OW21093   5.809   2.353   4.649  1.1402  0.4741  0.4075
 5332SOL    HW221094   5.763   2.347   4.565  1.4780  0.0744  0.2471
 5332SOL    HW321095   5.834   2.445   4.656 -0.3181  0.8673  0.8399
 5332SOL    MW421096   5.806   2.364   4.638 -0.2267 -0.1039  0.4260
 5333SOL     OW21097   0.325   3.645   3.132 -0.3242 -0.0099 -0.4159
 5333SOL    HW221098   0.411   3.665   3.095 -0.6366 -0.5452 -1.4759
 5333SOL    HW321099   0.263   3.683   3.070 -0.8838 -1.8657 -1.0708
 5333SOL    MW421100   0.328   3.652   3.119 -0.2667  0.2648  0.0048
 5334SOL     OW21101   1.137   3.787   2.428  0.2775  0.3346  0.0272
 5334SOL    HW221102   1.201   3.728   2.467 -1.0151 -1.3826 -0.3544
 5334SOL    HW321103   1.052   3.747   2.447 -0.6992  2.3461  0.1881
 5334SOL    MW421104   1.134   3.774   2.436  0.8776 -0.1153  0.4003
 5335SOL     OW21105   0.355   5.844   3.201 -0.6140  0.2585 -0.0300
 5335SOL    HW221106   0.372   5.775   3.265 -0.1575  0.0759 -0.3418
 5335SOL    HW321107   0.441   5.875   3.175 -0.7879  0.2770 -0.6090
 5335SOL    MW421108   0.368   5.839   3.206  0.2124  0.0298  0.1874
 5336SOL     OW21109   1.224   5.641   3.210 -0.0256 -0.4570 -0.7783
 5336SOL    HW221110   1.181   5.727   3.210  1.5694  0.4970  2.1026
 5336SOL    HW321111   1.204   5.604   3.296  1.5737 -1.7348 -0.8991
 5336SOL    MW421112   1.216   5.648   3.221  0.2757 -0.3454  0.1180
 5337SOL     OW21113   4.995   0.577   6.136 -0.0618 -0.3043  0.6319
 5337SOL    HW221114   5.075   0.533   6.107  0.0073  0.3096 -0.1381
 5337SOL    HW321115   5.020   0.669   6.144 -0.9384  0.0642 -0.6242
 5337SOL    MW421116   5.009   0.584   6.133 -0.4430 -0.2040 -0.2588
 5338SOL     OW21117   5.791   4.185   1.144 -0.5816  0.2863 -0.0252
 5338SOL    HW221118   5.799   4.123   1.072  0.3394  1.4198 -0.9314
 5338SOL    HW321119   5.818   4.136   1.221  0.0452 -0.4579 -0.7071
 5338SOL    MW421120   5.795   4.171   1.145  0.3605  0.4404 -0.5341
 5339SOL     OW21121   1.586   1.654   0.717 -0.2059 -0.2867 -0.4385
 5339SOL    HW221122   1.625   1.704   0.789 -1.9885 -1.4825  1.4347
 5339SOL    HW321123   1.644   1.579   0.705  0.6694  0.4596 -1.0126
 5339SOL    MW421124   1.599   1.651   0.725 -0.0518  0.3763  0.5891
 5340SOL     OW21125   3.910   2.094   6.030 -0.2539 -0.7967 -0.2686
 5340SOL    HW221126   3.907   2.081   5.935 -2.0346 -0.7009 -0.2534
 5340SOL    HW321127   3.855   2.170   6.046  0.0464 -0.7975  0.8470
 5340SOL    MW421128   3.902   2.102   6.019 -0.0348  0.4321  0.1314
 5341SOL     OW21129   5.341   2.465   1.129 -0.0464 -0.1381  0.4528
 5341SOL    HW221130   5.358   2.460   1.035 -0.4471  1.0889  0.2998
 5341SOL    HW321131   5.253   2.430   1.139  0.5788 -1.7223  0.5858
 5341SOL    MW421132   5.331   2.460   1.118 -0.7310 -0.0551  0.6847
 5342SOL     OW21133   2.057   0.386   6.059  0.3247 -0.5447 -0.2863
 5342SOL    HW221134   2.150   0.408   6.053  0.1717  1.4139  2.6654
 5342SOL    HW321135   2.043   0.365   6.151 -1.4076 -5.0704 -1.3127
 5342SOL    MW421136   2.067   0.386   6.071  0.3553 -0.6495 -0.1355
 5343SOL     OW21137   2.185   1.221   4.224  0.0419  0.3204 -0.0188
 5343SOL    HW221138   2.212   1.260   4.141  0.0657  0.5850  0.1115
 5343SOL    HW321139   2.156   1.295   4.277 -0.1858  0.1287  0.1289
 5343SOL    MW421140   2.185   1.236   4.220 -0.0320 -0.5429  0.0239
 5344SOL     OW21141   3.938   2.654   4.494 -0.5436  0.3571 -0.1896
 5344SOL    HW221142   3.936   2.559   4.492  0.1955  0.3426 -0.6641
 5344SOL    HW321143   3.848   2.680   4.512 -0.6689 -0.4376  0.3823
 5344SOL    MW421144   3.926   2.645   4.496 -0.5720 -0.3956  0.2696
 5345SOL     OW21145   0.751   5.242   5.750 -0.7445 -0.5291  0.0125
 5345SOL    HW221146   0.806   5.202   5.683  0.7068 -1.2164  1.5524
 5345SOL    HW321147   0.805   5.311   5.788 -1.0639 -0.9469  1.2899
 5345SOL    MW421148   0.765   5.246   5.746  1.0063  0.3935 -0.1730
 5346SOL     OW21149   1.833   1.650   0.115  0.4146  0.0113 -0.0442
 5346SOL    HW221150   1.850   1.603   0.197 -0.0611 -0.6826 -0.3382
 5346SOL    HW321151   1.886   1.730   0.122 -0.9851  0.8655  1.7177
 5346SOL    MW421152   1.843   1.654   0.127 -0.1440  0.1843  0.4455
 5347SOL     OW21153   1.237   6.282   2.777  0.4016 -0.5713 -0.2263
 5347SOL    HW221154   1.256   6.317   2.690  0.7720  0.0044  0.0803
 5347SOL    HW321155   1.200   6.356   2.825  0.3587 -0.8377  0.1555
 5347SOL    MW421156   1.235   6.297   2.772 -0.5482  0.1084  0.4672
 5348SOL     OW21157   0.973   5.957   1.132  0.3258 -0.2748 -0.3401
 5348SOL    HW221158   1.022   5.960   1.050  0.7478 -1.0949 -0.1283
 5348SOL    HW321159   0.922   6.038   1.132  1.5189  0.4935 -0.6577
 5348SOL    MW421160   0.972   5.968   1.121 -0.1018 -0.2912  0.0420
 5349SOL     OW21161   5.151   2.973   2.668 -0.0259  0.5956  0.8962
 5349SOL    HW221162   5.078   2.939   2.618 -0.2664  1.2403  0.7976
 5349SOL    HW321163   5.116   2.986   2.756  0.4471 -0.7195  1.3031
 5349SOL    MW421164   5.137   2.970   2.673  0.2228 -0.2754 -0.0542
 5350SOL     OW21165   6.136   3.638   6.083  0.2654  0.1208  0.1051
 5350SOL    HW221166   6.114   3.643   6.176 -0.7483  0.3356 -0.1366
 5350SOL    HW321167   6.166   3.548   6.070 -1.0534 -0.3659  0.3346
 5350SOL    MW421168   6.137   3.627   6.094 -0.3304 -0.0535  0.7308
 5351SOL     OW21169   1.897   1.795   4.427 -0.1463 -0.3481  0.4116
 5351SOL    HW221170   1.977   1.835   4.461  0.1811 -0.0238 -0.7313
 5351SOL    HW321171   1.830   1.864   4.437 -0.1633 -0.4258  0.8486
 5351SOL    MW421172   1.899   1.810   4.433 -0.5118  0.4132 -0.2118
 5352SOL     OW21173   4.641   4.276   0.513  0.0111 -0.8770 -0.1247
 5352SOL    HW221174   4.555   4.234   0.520 -0.1523 -0.7151 -0.9745
 5352SOL    HW321175   4.657   4.281   0.418  0.9036 -0.7906  0.0226
 5352SOL    MW421176   4.631   4.271   0.501 -0.5389  0.2462  0.3321
 5353SOL     OW21177   2.447   5.112   3.097  0.4921 -0.3748 -0.0074
 5353SOL    HW221178   2.512   5.090   3.029 -1.9834  1.4165 -3.2131
 5353SOL    HW321179   2.409   5.028   3.121  0.9722 -1.0181 -1.3774
 5353SOL    MW421180   2.451   5.098   3.091  0.5519 -0.1748  0.0763
 5354SOL     OW21181   5.386   0.316   4.317  0.4181 -0.1844 -0.0808
 5354SOL    HW221182   5.445   0.389   4.295  0.0982 -0.0492 -0.5038
 5354SOL    HW321183   5.437   0.262   4.377  0.3724  0.8080  0.8861
 5354SOL    MW421184   5.401   0.318   4.322 -0.7362 -0.1337 -0.0431
 5355SOL     OW21185   1.107   3.785   3.462 -0.4063 -0.0551 -0.2592
 5355SOL    HW221186   1.116   3.690   3.456 -0.9708 -0.2150  1.0214
 5355SOL    HW321187   1.099   3.814   3.371  1.7248 -0.9962 -0.8302
 5355SOL    MW421188   1.107   3.776   3.449  0.2810  0.3122 -0.3944
 5356SOL     OW21189   1.093   3.626   1.483 -0.0373 -0.3288  0.4498
 5356SOL    HW221190   1.034   3.680   1.535  0.0742 -0.2784  0.5234
 5356SOL    HW321191   1.042   3.548   1.462  0.1449 -0.6566  1.1993
 5356SOL    MW421192   1.079   3.623   1.487 -0.2735 -0.0492 -0.4024
 5357SOL     OW21193   4.031   3.913   4.818 -0.6919  0.0487  0.0789
 5357SOL    HW221194   4.093   3.944   4.883  0.2595 -0.9479 -0.3257
 5357SOL    HW321195   3.952   3.965   4.833  0.2111  1.2848  0.6423
 5357SOL    MW421196   4.029   3.924   4.829  0.3697 -0.3667 -0.1420
 5358SOL     OW21197   5.610   5.235   3.436 -0.0379 -0.4726  0.5532
 5358SOL    HW221198   5.649   5.255   3.351 -0.5722  0.3876  0.4962
 5358SOL    HW321199   5.683   5.207   3.490  0.5408  0.3267  0.2123
 5358SOL    MW421200   5.625   5.234   3.432  0.1009 -0.4236 -0.0818
 5359SOL     OW21201   2.530   2.355   1.581 -0.2363 -0.0425  0.3052
 5359SOL    HW221202   2.487   2.315   1.506  0.1565 -1.3627  0.7533
 5359SOL    HW321203   2.623   2.351   1.560 -0.1075 -0.6462  0.9533
 5359SOL    MW421204   2.537   2.349   1.569 -0.0467 -0.1921  0.5616
 5360SOL     OW21205   3.176   2.485   5.004  0.0801  0.1734 -0.1160
 5360SOL    HW221206   3.190   2.397   4.969 -0.5441  0.4515 -1.1067
 5360SOL    HW321207   3.201   2.478   5.096 -0.4977 -1.1854 -0.0330
 5360SOL    MW421208   3.181   2.472   5.011  0.5148 -0.2605  0.3657
 5361SOL     OW21209   5.739   5.960   4.201  0.0073 -0.1454 -0.1648
 5361SOL    HW221210   5.702   6.033   4.250  0.3895  1.0197 -1.5300
 5361SOL    HW321211   5.773   5.901   4.268 -2.0940 -0.0896  1.0490
 5361SOL    MW421212   5.739   5.962   4.216 -0.5399  0.1988  0.1842
 5362SOL     OW21213   0.882   6.234   5.900 -0.1782 -0.4077 -0.3411
 5362SOL    HW221214   0.891   6.313   5.846  1.9327  0.9068  1.7102
 5362SOL    HW321215   0.843   6.266   5.982 -0.0957 -1.6398  0.1929
 5362SOL    MW421216   0.878   6.249   5.904  0.2205  0.2434 -0.0600
 5363SOL     OW21217   1.143   0.757   2.091  0.2069  0.7820  0.3895
 5363SOL    HW221218   1.064   0.710   2.115  0.8765 -0.5699  0.0774
 5363SOL    HW321219   1.187   0.774   2.174  0.7501 -0.6507  0.4303
 5363SOL    MW421220   1.139   0.753   2.105 -0.3614 -0.2996  0.1538
 5364SOL     OW21221   4.045   4.803   2.090  0.3811  0.4988 -0.3786
 5364SOL    HW221222   4.004   4.784   2.175  0.0555  0.5048 -0.5336
 5364SOL    HW321223   4.018   4.730   2.034 -0.3168  1.0667 -0.7879
 5364SOL    MW421224   4.036   4.791   2.094 -0.1575 -0.1332 -0.1947
 5365SOL     OW21225   2.660   1.262   3.089 -0.2524  0.7271  0.1232
 5365SOL    HW221226   2.688   1.239   3.001 -0.0970  2.0819 -0.2035
 5365SOL    HW321227   2.689   1.353   3.101 -1.2334  0.9331  1.1559
 5365SOL    MW421228   2.667   1.271   3.079 -0.0978 -0.0040  0.2447
 5366SOL     OW21229   0.919   0.359   5.276  0.4412 -0.3661 -0.1739
 5366SOL    HW221230   0.982   0.334   5.344  0.7131  0.7125 -0.0170
 5366SOL    HW321231   0.969   0.360   5.195 -0.2432 -3.3236 -0.7379
 5366SOL    MW421232   0.934   0.356   5.274  0.5863 -0.8185  0.3555
 5367SOL     OW21233   5.975   0.456   2.742  0.2410 -0.2113 -0.1402
 5367SOL    HW221234   6.058   0.411   2.758  0.1562  0.2475  1.7712
 5367SOL    HW321235   5.998   0.528   2.683  1.7893  1.5517  2.4472
 5367SOL    MW421236   5.989   0.460   2.736  0.0965  0.2635  0.1228
 5368SOL     OW21237   0.158   4.618   0.556 -0.6890 -0.7370 -0.2525
 5368SOL    HW221238   0.076   4.587   0.520  0.2525 -0.1009 -3.2134
 5368SOL    HW321239   0.201   4.663   0.483  1.2971  0.9282  1.7903
 5368SOL    MW421240   0.153   4.620   0.542 -0.2973 -0.1243 -0.3635
 5369SOL     OW21241   4.145   4.682   5.327 -0.2664  0.3926  0.0773
 5369SOL    HW221242   4.181   4.679   5.415  1.9705 -1.4101 -0.8037
 5369SOL    HW321243   4.060   4.725   5.337 -1.3685 -2.1216  3.5718
 5369SOL    MW421244   4.138   4.687   5.340 -0.1666 -0.0889  0.2013
 5370SOL     OW21245   4.551   6.044   0.232 -0.1735  0.1922  0.3346
 5370SOL    HW221246   4.476   6.067   0.178 -0.6946 -0.1637  0.8913
 5370SOL    HW321247   4.580   6.127   0.270 -0.0542  0.3830 -0.1661
 5370SOL    MW421248   4.545   6.058   0.230  0.0281 -0.2870  0.0368
 5371SOL     OW21249   0.609   0.831   4.494 -0.6250  0.7124  0.2552
 5371SOL    HW221250   0.529   0.778   4.504 -0.0324 -0.7731 -2.0023
 5371SOL    HW321251   0.594   0.883   4.416 -0.1543  1.9559  0.9742
 5371SOL    MW421252   0.597   0.831   4.485 -0.1687 -0.6229 -0.2904
 5372SOL     OW21253   5.254   0.691   0.685 -0.2359 -0.9515  0.5799
 5372SOL    HW221254   5.160   0.698   0.670  0.0188 -2.0431 -1.9997
 5372SOL    HW321255   5.267   0.602   0.719  0.0032 -1.4673 -0.8034
 5372SOL    MW421256   5.244   0.680   0.688 -0.4361 -1.0346  0.6395
 5373SOL     OW21257   4.171   3.164   2.722  0.1344  0.3192 -0.2038
 5373SOL    HW221258   4.130   3.199   2.801  0.9041 -0.3547  0.5256
 5373SOL    HW321259   4.106   3.103   2.686  0.6975 -1.2809  1.3324
 5373SOL    MW421260   4.157   3.160   2.728  0.5446  0.2944 -0.4527
 5374SOL     OW21261   5.100   5.425   4.964  0.2836  0.2966  0.4088
 5374SOL    HW221262   5.035   5.381   4.909  0.8751  1.6343 -1.4784
 5374SOL    HW321263   5.156   5.356   4.996 -0.8134 -0.6622  0.3233
 5374SOL    MW421264   5.099   5.410   4.961 -0.4571 -0.0620  0.0420
 5375SOL     OW21265   2.768   3.890   1.015 -0.2894  0.6809 -0.0549
 5375SOL    HW221266   2.679   3.856   1.020  0.4471 -1.2309  1.0979
 5375SOL    HW321267   2.808   3.843   0.941  0.3607 -0.0776  0.7556
 5375SOL    MW421268   2.762   3.879   1.006 -0.2325  0.5671 -0.3549
 5376SOL     OW21269   2.575   1.971   4.327  0.0352  0.3902 -0.8327
 5376SOL    HW221270   2.659   1.948   4.286  0.5899  0.0867  0.4271
 5376SOL    HW321271   2.525   1.890   4.327  1.1242 -0.3845  1.5605
 5376SOL    MW421272   2.579   1.957   4.322 -0.2375  0.1154  0.3416
 5377SOL     OW21273   1.428   2.624   3.719  0.3889 -0.5958  0.1897
 5377SOL    HW221274   1.507   2.616   3.773  0.6847  0.4033 -0.0787
 5377SOL    HW321275   1.393   2.710   3.740  0.2527 -0.3776 -0.8580
 5377SOL    MW421276   1.434   2.634   3.729 -0.7564 -0.1553 -0.2052
 5378SOL     OW21277   2.672   5.928   5.990 -0.2804  0.0651  0.3128
 5378SOL    HW221278   2.642   5.909   5.901 -0.3701 -0.4904  0.4580
 5378SOL    HW321279   2.598   5.905   6.045 -0.2964  0.6002  0.5210
 5378SOL    MW421280   2.658   5.922   5.985 -0.6028 -0.5733 -0.1738
 5379SOL     OW21281   2.518   4.268   6.383 -0.3716 -0.2630  0.5099
 5379SOL    HW221282   2.484   4.320   6.310 -1.0853 -0.9494  0.3454
 5379SOL    HW321283   2.607   4.245   6.357  0.2835  1.5726  0.9514
 5379SOL    MW421284   2.525   4.272   6.370  0.1510  0.2477  0.3473
 5380SOL     OW21285   3.177   1.835   2.842 -0.4423 -0.6189 -0.0509
 5380SOL    HW221286   3.102   1.825   2.900  1.0214 -1.4964  1.7724
 5380SOL    HW321287   3.185   1.751   2.798 -0.8151 -0.3474 -0.6614
 5380SOL    MW421288   3.168   1.823   2.843  0.4565  0.0604 -0.0113
 5381SOL     OW21289   3.244   0.727   5.900 -0.2969 -0.0545 -0.1524
 5381SOL    HW221290   3.337   0.722   5.878 -0.1970 -0.0771  0.2766
 5381SOL    HW321291   3.235   0.677   5.981 -0.6855 -0.0590 -0.1935
 5381SOL    MW421292   3.255   0.719   5.908 -0.3625 -0.2527 -0.5569
 5382SOL     OW21293   0.588   3.663   4.705 -0.3595  0.2779  0.6548
 5382SOL    HW221294   0.583   3.581   4.753  0.7399  0.3363  0.9070
 5382SOL    HW321295   0.499   3.698   4.707 -0.6269 -0.4169  1.4118
 5382SOL    MW421296   0.576   3.657   4.712 -0.0379 -1.0450 -0.0260
 5383SOL     OW21297   1.789   1.299   5.347  0.9349  0.2561  0.8761
 5383SOL    HW221298   1.770   1.367   5.282 -0.0166 -0.7265  0.1044
 5383SOL    HW321299   1.884   1.297   5.352  1.0655 -0.2332 -1.1439
 5383SOL    MW421300   1.799   1.308   5.339  0.3715  0.4959  0.3603
 5384SOL     OW21301   0.340   0.063   2.633 -0.0703 -0.1121  0.6031
 5384SOL    HW221302   0.431   0.044   2.611 -1.2346 -2.4755 -3.1661
 5384SOL    HW321303   0.318   0.141   2.581 -0.4313 -0.0430  0.8525
 5384SOL    MW421304   0.349   0.071   2.624 -0.5154 -0.1278  0.1600
 5385SOL     OW21305   2.975   0.761   2.059  0.2382  0.5374 -0.2062
 5385SOL    HW221306   2.885   0.769   2.028  0.0487  2.5315  0.6873
 5385SOL    HW321307   2.967   0.738   2.152  0.6841  0.0594 -0.2774
 5385SOL    MW421308   2.962   0.759   2.067  0.0200 -0.1194 -0.0430
 5386SOL     OW21309   0.012   0.004   3.454 -0.9079  0.4147  0.0028
 5386SOL    HW221310  -0.005  -0.039   3.538  1.5289  1.3875  1.0746
 5386SOL    HW321311  -0.049   0.077   3.451 -3.3867 -1.5642 -0.7156
 5386SOL    MW421312   0.002   0.008   3.465 -0.4617 -0.2266 -0.2072
 5387SOL     OW21313   6.266   3.522   5.525  0.5494 -0.1086  0.3998
 5387SOL    HW221314   6.258   3.476   5.609 -2.1175 -2.2507 -0.8770
 5387SOL    HW321315   6.352   3.496   5.492  1.4903  0.4831  2.2548
 5387SOL    MW421316   6.276   3.513   5.532  0.7292 -0.3730  0.4313
 5388SOL     OW21317   3.177   0.157   5.527  0.6254  0.5045 -0.1265
 5388SOL    HW221318   3.271   0.172   5.531  0.5883  0.4026  3.1157
 5388SOL    HW321319   3.142   0.238   5.488  1.7774  2.2087  2.1459
 5388SOL    MW421320   3.185   0.170   5.522  0.9899  0.5377  0.2832
 5389SOL     OW21321   5.011   3.102   1.159  0.2948 -0.4023  0.2819
 5389SOL    HW221322   4.957   3.023   1.169  0.8066 -0.5124  2.9855
 5389SOL    HW321323   5.076   3.078   1.092 -2.4448 -0.4818 -2.6139
 5389SOL    MW421324   5.012   3.088   1.151 -0.0081  0.1659 -0.1959
 5390SOL     OW21325   0.921   6.196   2.599  0.1400  0.7870 -0.0509
 5390SOL    HW221326   0.972   6.160   2.526 -0.5038 -2.3603  0.8667
 5390SOL    HW321327   0.971   6.171   2.677 -0.8279  1.1349  0.6991
 5390SOL    MW421328   0.934   6.188   2.599  0.1311  0.5010 -0.0972
 5391SOL     OW21329   2.425   4.009   6.371 -0.2250  0.3433  0.3919
 5391SOL    HW221330   2.401   3.972   6.456 -1.9076  0.6606  0.0894
 5391SOL    HW321331   2.435   4.103   6.388 -0.9538  0.4654  0.1778
 5391SOL    MW421332   2.423   4.016   6.384  0.0666 -0.0511  0.2829
 5392SOL     OW21333   4.687   0.638   4.037 -0.2707 -0.3240 -0.0884
 5392SOL    HW221334   4.593   0.654   4.033 -0.5423 -1.9729 -0.9345
 5392SOL    HW321335   4.698   0.575   4.109  0.1937 -0.1617 -0.0079
 5392SOL    MW421336   4.676   0.632   4.046  0.5471  0.2761  0.0652
 5393SOL     OW21337   0.768   3.462   0.595 -0.3907  0.1219 -0.2371
 5393SOL    HW221338   0.761   3.492   0.685 -2.2125  1.4902 -0.7703
 5393SOL    HW321339   0.788   3.369   0.602  2.7764  0.7984  1.5026
 5393SOL    MW421340   0.770   3.454   0.608  0.0060  0.4907 -0.0610
 5394SOL     OW21341   3.348   1.928   2.100 -0.4842  0.7311 -0.2634
 5394SOL    HW221342   3.359   1.833   2.104 -0.3438  0.7622  0.0800
 5394SOL    HW321343   3.401   1.955   2.024  0.2122  0.6405  0.1809
 5394SOL    MW421344   3.356   1.919   2.090 -0.6148  0.4004 -0.3643
 5395SOL     OW21345   6.239   3.769   0.642  0.4225 -0.2569 -1.0448
 5395SOL    HW221346   6.211   3.846   0.691  0.8665 -0.4608 -0.4577
 5395SOL    HW321347   6.173   3.702   0.660 -0.0457  0.0255 -1.6778
 5395SOL    MW421348   6.227   3.770   0.651 -0.1863  0.1196 -0.3145
 5396SOL     OW21349   6.061   5.844   2.253 -0.6772 -1.1006 -0.3034
 5396SOL    HW221350   6.122   5.791   2.203  0.5729 -0.4667  0.4933
 5396SOL    HW321351   6.048   5.795   2.334 -0.6831 -0.9014 -0.1843
 5396SOL    MW421352   6.067   5.831   2.257  0.3651 -0.9970 -0.1325
 5397SOL     OW21353   6.198   2.784   0.196 -0.1914  0.5063  0.2199
 5397SOL    HW221354   6.176   2.693   0.216  1.0993  0.2408  0.5355
 5397SOL    HW321355   6.191   2.829   0.280  1.7227  0.1304  0.6288
 5397SOL    MW421356   6.194   2.778   0.210  0.1879 -0.1716 -0.4708
 5398SOL     OW21357   3.023   1.167   1.950  0.2354 -0.2716 -0.0579
 5398SOL    HW221358   2.937   1.140   1.983  0.0588 -0.7149 -0.8679
 5398SOL    HW321359   3.016   1.158   1.855  1.2006 -0.3785 -0.1216
 5398SOL    MW421360   3.010   1.162   1.942 -0.2459 -0.1317  0.0729
 5399SOL     OW21361   0.760   6.195   1.567 -0.1483 -0.3281 -0.3753
 5399SOL    HW221362   0.769   6.104   1.541 -3.7370 -0.7044 -0.8516
 5399SOL    HW321363   0.768   6.194   1.663 -0.7446 -1.2551 -0.3305
 5399SOL    MW421364   0.762   6.183   1.576  0.6316  0.4069  0.1690
 5400SOL     OW21365   0.146   6.184   4.834  0.1420  0.0240 -0.0774
 5400SOL    HW221366   0.233   6.145   4.842  0.2896  0.0731 -1.2561
 5400SOL    HW321367   0.138   6.241   4.910  0.7497 -0.7162  0.5571
 5400SOL    MW421368   0.156   6.186   4.845  0.0411 -0.0560  0.1432
 5401SOL     OW21369   0.841   1.346   1.623  0.4058  0.1317 -0.8215
 5401SOL    HW221370   0.773   1.320   1.685 -0.7131 -0.2971 -2.2008
 5401SOL    HW321371   0.903   1.397   1.676 -1.5642  1.5562  0.2208
 5401SOL    MW421372   0.840   1.349   1.639  0.0195 -0.3210  0.4825
 5402SOL     OW21373   3.828   5.866   0.129 -0.2576 -0.0706 -0.2790
 5402SOL    HW221374   3.881   5.869   0.049  0.6029  0.8056  0.2970
 5402SOL    HW321375   3.826   5.773   0.152  0.5458 -0.1902 -0.6360
 5402SOL    MW421376   3.835   5.854   0.121 -0.2745  0.0975 -0.2253
 5403SOL     OW21377   5.562   0.471   4.138 -0.6256 -0.0793  0.2493
 5403SOL    HW221378   5.563   0.508   4.049 -1.0715 -0.6657 -0.0003
 5403SOL    HW321379   5.633   0.406   4.137 -1.2491 -0.7651  0.0268
 5403SOL    MW421380   5.572   0.467   4.126  1.0406 -0.1126  0.2679
 5404SOL     OW21381   6.273   4.391   0.573  0.7230 -0.8742 -0.2189
 5404SOL    HW221382   6.292   4.476   0.534  1.9275 -0.5059  1.1011
 5404SOL    HW321383   6.245   4.337   0.499  1.2677  0.2795 -1.3068
 5404SOL    MW421384   6.272   4.395   0.558 -0.0903  0.1815 -0.3559
 5405SOL     OW21385   0.755   2.770  -0.005  0.2340 -0.0838  0.0351
 5405SOL    HW221386   0.846   2.789   0.016  0.7686 -1.6282 -0.6909
 5405SOL    HW321387   0.740   2.682   0.028 -1.1300  0.2927  0.4939
 5405SOL    MW421388   0.765   2.761   0.002  0.1407  0.1679  0.2249
 5406SOL     OW21389   1.606   0.755   5.337  0.3476 -0.4296  0.0664
 5406SOL    HW221390   1.649   0.838   5.357 -0.5356 -0.4793  2.5000
 5406SOL    HW321391   1.519   0.762   5.377  0.0615 -2.3184 -0.1152
 5406SOL    MW421392   1.600   0.767   5.345  0.1313  0.2044  0.1233
 5407SOL     OW21393   3.941   4.994   3.420  0.0696 -0.1799 -0.3449
 5407SOL    HW221394   3.937   5.011   3.326  0.6270 -1.8754 -0.7170
 5407SOL    HW321395   3.883   5.060   3.458  1.5244  1.9823 -1.6296
 5407SOL    MW421396   3.933   5.005   3.412 -0.6487  0.2161  0.2111
 5408SOL     OW21397   4.519   6.232   4.437 -0.1957 -0.2297  0.0349
 5408SOL    HW221398   4.490   6.298   4.499  0.7638  0.3134 -0.0669
 5408SOL    HW321399   4.536   6.280   4.356 -0.6606 -0.8013 -0.4152
 5408SOL    MW421400   4.518   6.247   4.434 -0.2803  0.3860  0.2486
 5409SOL     OW21401   1.076   1.772   5.265  0.2229  0.0009 -0.2524
 5409SOL    HW221402   1.096   1.736   5.178  1.6219 -0.0204  0.0400
 5409SOL    HW321403   1.097   1.700   5.325  0.3425  0.3821  0.1668
 5409SOL    MW421404   1.082   1.758   5.261  0.0703  0.1233 -0.4034
 5410SOL     OW21405   4.020   1.301   1.717 -1.3070 -0.4796  0.6305
 5410SOL    HW221406   4.089   1.245   1.751 -1.6305 -0.4055  1.4581
 5410SOL    HW321407   3.943   1.244   1.713 -1.1307 -0.6508 -0.6034
 5410SOL    MW421408   4.019   1.286   1.721  0.4922  0.4572 -0.5976
 5411SOL     OW21409   4.886   5.840   3.941  0.3170 -0.3812 -0.1102
 5411SOL    HW221410   4.947   5.769   3.963  0.7223  0.0527  0.1902
 5411SOL    HW321411   4.863   5.878   4.026 -1.5285 -1.4663 -0.0734
 5411SOL    MW421412   4.891   5.836   3.955 -0.7401  0.1958  0.0172
 5412SOL     OW21413   1.700   5.037   5.000 -0.2273 -0.0173  0.1935
 5412SOL    HW221414   1.785   5.026   5.043 -1.4965  0.2612  3.0284
 5412SOL    HW321415   1.682   4.951   4.961  0.5860 -0.6229  1.0879
 5412SOL    MW421416   1.709   5.024   5.000  0.3158  0.0582  0.3577
 5413SOL     OW21417   3.308   3.416   1.329 -0.2315  0.2358  0.2758
 5413SOL    HW221418   3.317   3.511   1.336  2.1138  0.0706  0.2671
 5413SOL    HW321419   3.265   3.403   1.245  1.1444  1.2734 -0.6446
 5413SOL    MW421420   3.304   3.427   1.319 -0.5960  0.2718  0.0125
 5414SOL     OW21421   3.965   5.545   2.882 -0.2661  0.2044  0.3228
 5414SOL    HW221422   4.035   5.597   2.921  0.8753 -0.1769 -1.1070
 5414SOL    HW321423   4.011   5.476   2.834 -1.6453 -0.2765 -0.3569
 5414SOL    MW421424   3.980   5.542   2.881 -0.2777  0.2043 -0.4903
 5415SOL     OW21425   5.110   1.722   3.222  0.1363 -0.0951 -0.2107
 5415SOL    HW221426   5.159   1.804   3.223  0.1171 -0.0228 -1.9500
 5415SOL    HW321427   5.026   1.744   3.262 -0.2835  1.0514 -1.6222
 5415SOL    MW421428   5.106   1.736   3.227 -0.0729 -0.0735 -0.1178
 5416SOL     OW21429   3.616   1.452   0.597  0.4066 -0.6153 -0.4548
 5416SOL    HW221430   3.709   1.431   0.609  0.0391 -1.3236  1.3279
 5416SOL    HW321431   3.575   1.432   0.681 -1.3392 -0.0948 -1.1378
 5416SOL    MW421432   3.623   1.447   0.609  0.1548  0.2236 -0.2236
 5417SOL     OW21433   2.682   4.984   0.353 -0.4909 -0.7809 -0.2525
 5417SOL    HW221434   2.620   4.963   0.283  0.4128 -0.3837 -1.1891
 5417SOL    HW321435   2.678   4.909   0.412  0.6463 -2.3502 -2.0791
 5417SOL    MW421436   2.673   4.971   0.351 -0.1128 -0.1770 -0.0171
 5418SOL     OW21437   1.076   0.412   3.726  0.0058  0.2491  0.4138
 5418SOL    HW221438   1.063   0.432   3.818 -1.5846  1.2574  0.0154
 5418SOL    HW321439   1.002   0.355   3.703  0.5561 -0.2463 -0.1718
 5418SOL    MW421440   1.064   0.407   3.735 -0.4821  0.9552  0.1546
 5419SOL     OW21441   0.396   5.921   5.656 -0.5458 -0.2845  0.3950
 5419SOL    HW221442   0.417   6.013   5.668  0.9726 -0.2977 -1.6407
 5419SOL    HW321443   0.308   5.911   5.693  0.3465  1.3051  3.2090
 5419SOL    MW421444   0.387   5.932   5.662  0.6030  0.0530  0.4122
 5420SOL     OW21445   5.070   0.456   5.367  0.2729  0.1561 -0.6759
 5420SOL    HW221446   5.061   0.368   5.330 -3.3698  0.0543 -0.0098
 5420SOL    HW321447   5.052   0.515   5.293 -1.8849  0.1065 -0.2581
 5420SOL    MW421448   5.066   0.452   5.352 -0.5908  0.0294 -0.0342
 5421SOL     OW21449   4.533   2.116   4.314  0.7836 -0.0622 -0.1274
 5421SOL    HW221450   4.589   2.190   4.290  1.0783 -0.3918 -0.4754
 5421SOL    HW321451   4.520   2.125   4.408 -0.3210  1.2061 -0.3646
 5421SOL    MW421452   4.539   2.127   4.323  0.4060 -0.9010  0.1221
 5422SOL     OW21453   3.144   6.083   4.566 -0.1554 -0.6445  0.1874
 5422SOL    HW221454   3.237   6.079   4.544  0.0433  1.7746  0.3623
 5422SOL    HW321455   3.142   6.114   4.656 -1.1270 -1.1075  0.3352
 5422SOL    MW421456   3.156   6.086   4.575 -0.8015 -0.0471  0.0005
 5423SOL     OW21457   4.966   3.822   0.303  0.3363 -0.5745  0.1909
 5423SOL    HW221458   4.965   3.808   0.398  0.4935 -1.7497  0.0403
 5423SOL    HW321459   5.047   3.781   0.274 -0.6403 -1.9861 -0.6720
 5423SOL    MW421460   4.976   3.814   0.312  0.4006 -0.2381 -0.3561
 5424SOL     OW21461   0.019   0.455   0.206  0.2884 -0.2048  0.5261
 5424SOL    HW221462   0.021   0.547   0.231 -0.6340 -0.2965  0.9846
 5424SOL    HW321463   0.094   0.416   0.252 -0.4225 -0.0408  1.8759
 5424SOL    MW421464   0.030   0.462   0.216 -0.3087  0.3567  1.1342
 5425SOL     OW21465   3.799   3.320   4.602 -0.1981 -0.2191 -0.1228
 5425SOL    HW221466   3.820   3.316   4.508 -1.0446  0.3619 -0.3446
 5425SOL    HW321467   3.803   3.413   4.623 -1.6586 -0.1721  0.0260
 5425SOL    MW421468   3.802   3.332   4.592  0.2463  0.0758  0.3137
 5426SOL     OW21469   1.933   4.220   4.395  0.4154 -0.0867 -0.4569
 5426SOL    HW221470   1.893   4.193   4.478  2.0487  0.0238  0.3963
 5426SOL    HW321471   1.912   4.313   4.389 -1.9913 -0.6080 -1.5478
 5426SOL    MW421472   1.925   4.229   4.405  0.0348  0.3074  0.3253
 5427SOL     OW21473   4.545   1.478   5.003  0.7375  0.1593  0.6513
 5427SOL    HW221474   4.599   1.407   4.969  0.6801  0.8108 -0.8430
 5427SOL    HW321475   4.607   1.549   5.021  0.3007  1.5825 -2.7993
 5427SOL    MW421476   4.560   1.478   5.001  0.9215  0.2992 -0.3853
 5428SOL     OW21477   3.843   5.112   0.068 -0.1046 -0.0737  0.0954
 5428SOL    HW221478   3.845   5.207   0.059 -0.6370  0.0918  1.5098
 5428SOL    HW321479   3.760   5.087   0.027  0.8476 -0.1605 -1.8988
 5428SOL    MW421480   3.832   5.121   0.061  0.4675 -0.0457 -0.0162
 5429SOL     OW21481   3.124   2.947   5.084 -0.5221 -1.0107 -0.3014
 5429SOL    HW221482   3.083   3.001   5.017  0.9940  1.4966  0.6763
 5429SOL    HW321483   3.057   2.883   5.107 -1.7139 -0.8101 -2.8765
 5429SOL    MW421484   3.110   2.946   5.078  0.0190  0.1363  0.1242
 5430SOL     OW21485   4.311   1.788   2.436 -0.4155 -0.4732 -0.0113
 5430SOL    HW221486   4.218   1.811   2.440 -0.6800 -1.5472  0.5221
 5430SOL    HW321487   4.357   1.871   2.452 -1.2992 -0.1165  0.8072
 5430SOL    MW421488   4.305   1.802   2.439 -0.3378 -0.7270 -0.0903
 5431SOL     OW21489   0.436   6.105   4.871 -0.5348  0.1400 -0.5563
 5431SOL    HW221490   0.456   6.020   4.911  0.2782  0.4595 -0.2552
 5431SOL    HW321491   0.491   6.167   4.919 -0.5618  0.7282 -1.2712
 5431SOL    MW421492   0.446   6.102   4.883 -0.0554  0.3021 -0.7116
 5432SOL     OW21493   5.911   0.479   4.133 -0.5159 -0.8132 -0.8069
 5432SOL    HW221494   5.927   0.554   4.190 -1.4492 -1.2982  0.1123
 5432SOL    HW321495   5.929   0.512   4.045 -0.3542  0.3266 -0.3620
 5432SOL    MW421496   5.915   0.494   4.129 -0.3006 -0.6705  0.1914
 5433SOL     OW21497   0.690   1.193   4.586  0.0348 -0.3739  0.7441
 5433SOL    HW221498   0.602   1.158   4.595 -1.3625  2.9880  2.0329
 5433SOL    HW321499   0.711   1.226   4.674  1.1686  1.7561 -0.2511
 5433SOL    MW421500   0.681   1.193   4.599  0.1811  0.6243 -0.4620
 5434SOL     OW21501   4.672   6.212   1.613 -0.2221 -0.4324 -0.1618
 5434SOL    HW221502   4.688   6.125   1.650 -0.3761 -0.8946 -1.1609
 5434SOL    HW321503   4.673   6.199   1.519 -0.6873  0.5762 -0.3212
 5434SOL    MW421504   4.674   6.199   1.606 -0.2235  0.1536  0.1221
 5435SOL     OW21505   4.357   1.786   2.741 -0.4011  0.4599 -0.5727
 5435SOL    HW221506   4.427   1.725   2.764  0.7845  1.5040 -1.3418
 5435SOL    HW321507   4.320   1.750   2.660 -0.8807 -0.1724 -0.0864
 5435SOL    MW421508   4.361   1.773   2.734 -0.4963  0.3959 -0.7546
 5436SOL     OW21509   2.775   2.417   3.577  0.4863 -0.7312  0.7175
 5436SOL    HW221510   2.706   2.393   3.515  0.5729 -0.1045  0.3733
 5436SOL    HW321511   2.730   2.462   3.647  0.2698 -2.2189  1.5660
 5436SOL    MW421512   2.760   2.420   3.578  0.4475 -0.1375 -0.3833
 5437SOL     OW21513   1.700   1.262   4.504  0.3845  0.3810  0.8134
 5437SOL    HW221514   1.779   1.229   4.547  0.7754 -0.2259 -0.3458
 5437SOL    HW321515   1.728   1.288   4.416 -1.0131 -1.5863 -0.3009
 5437SOL    MW421516   1.714   1.261   4.498  0.0591 -0.0330  0.1577
 5438SOL     OW21517   0.940   0.915   3.869  0.4716 -0.1100  0.4845
 5438SOL    HW221518   0.894   0.831   3.864 -1.8385  1.1457 -1.3984
 5438SOL    HW321519   0.992   0.919   3.789  1.4394 -0.1611  1.0914
 5438SOL    MW421520   0.941   0.904   3.858  0.0618 -0.4800  1.0891
 5439SOL     OW21521   0.852   6.018   3.393  0.1255  0.0825 -0.3498
 5439SOL    HW221522   0.760   6.041   3.382 -0.6623 -0.2414  3.8526
 5439SOL    HW321523   0.850   5.927   3.423  2.0416 -0.5823 -2.0066
 5439SOL    MW421524   0.840   6.009   3.396  0.0477 -0.0756  0.1411
 5440SOL     OW21525   0.353   3.714   0.081  0.0785 -0.4121 -0.0181
 5440SOL    HW221526   0.408   3.654   0.130  0.1964 -0.4668 -0.2158
 5440SOL    HW321527   0.392   3.717  -0.007 -1.0815 -1.6035 -0.6050
 5440SOL    MW421528   0.365   3.707   0.076  0.5208 -0.2555 -0.5104
 5441SOL     OW21529   3.713   3.454   3.600 -0.1082  0.0608  0.1793
 5441SOL    HW221530   3.742   3.382   3.655 -1.9526 -1.2664 -0.4942
 5441SOL    HW321531   3.790   3.510   3.592  1.6507 -2.2233  0.0677
 5441SOL    MW421532   3.727   3.452   3.606  0.6513 -0.2104 -0.1688
 5442SOL     OW21533   1.438   0.263   5.843 -0.1607  0.4451  0.5713
 5442SOL    HW221534   1.485   0.207   5.781 -1.3965  0.3516 -0.3210
 5442SOL    HW321535   1.398   0.202   5.905 -1.5285  0.3182 -0.4160
 5442SOL    MW421536   1.439   0.247   5.843  0.2875  0.0832 -0.2575
 5443SOL     OW21537   1.439   1.489   5.063  0.0837 -0.0745 -0.0404
 5443SOL    HW221538   1.426   1.578   5.031  2.4769  0.7298  1.0000
 5443SOL    HW321539   1.367   1.475   5.125 -0.5794  0.9394 -0.5577
 5443SOL    MW421540   1.427   1.499   5.067 -0.2886 -0.0031 -0.6852
 5444SOL     OW21541   2.216   3.407   5.394  0.0934 -0.1495 -0.1860
 5444SOL    HW221542   2.289   3.455   5.355 -0.8078  0.5589 -1.0434
 5444SOL    HW321543   2.238   3.403   5.487  1.6784 -0.7953 -0.5587
 5444SOL    MW421544   2.228   3.413   5.401 -0.4984  0.5395 -0.0429
 5445SOL     OW21545   1.177   1.131   3.932  0.1281  0.2293 -0.7892
 5445SOL    HW221546   1.191   1.056   3.874 -0.1136 -0.1909 -0.3228
 5445SOL    HW321547   1.086   1.156   3.917 -0.5423 -1.1132  0.7826
 5445SOL    MW421548   1.167   1.124   3.922  0.0312 -0.2100  0.0921
 5446SOL     OW21549   4.700   2.705   0.549 -0.0037 -0.6828 -0.0413
 5446SOL    HW221550   4.612   2.697   0.513  0.1165 -0.9730 -0.2661
 5446SOL    HW321551   4.757   2.666   0.483  0.5189  1.3276 -0.8599
 5446SOL    MW421552   4.696   2.699   0.536 -0.1261 -0.1272  0.2057
 5447SOL     OW21553   6.043   5.193   5.492  0.0071  0.6142 -0.4985
 5447SOL    HW221554   6.017   5.281   5.462 -0.2460  0.4927 -0.6344
 5447SOL    HW321555   5.973   5.136   5.461 -0.0542  0.4291 -0.0198
 5447SOL    MW421556   6.030   5.197   5.484  0.2827  0.2766  0.1686
 5448SOL     OW21557   1.346   2.046   0.164  0.1726  0.8448  0.1149
 5448SOL    HW221558   1.280   1.984   0.134  0.8849  0.7477 -1.3262
 5448SOL    HW321559   1.332   2.053   0.259 -0.0265 -1.3661  0.2843
 5448SOL    MW421560   1.336   2.039   0.173  0.8526  0.1801 -0.3554
 5449SOL     OW21561   0.330   2.407   4.414  0.0814  0.3476 -0.5979
 5449SOL    HW221562   0.352   2.423   4.505  1.1288  0.2717 -0.8312
 5449SOL    HW321563   0.339   2.492   4.371 -1.2246  0.5644 -0.4869
 5449SOL    MW421564   0.334   2.420   4.420  0.5123 -0.2680  0.0728
 5450SOL     OW21565   3.197   4.939   0.666 -0.2990 -0.4623  0.2031
 5450SOL    HW221566   3.227   5.005   0.728 -0.4439 -0.7734  0.6102
 5450SOL    HW321567   3.269   4.929   0.604  0.1126 -0.6085  0.6965
 5450SOL    MW421568   3.210   4.946   0.666 -0.1457 -0.2293  0.0102
 5451SOL     OW21569   6.043   1.661   2.386 -0.3857  0.2565 -0.1332
 5451SOL    HW221570   6.014   1.708   2.308  0.0572  2.5462  0.9885
 5451SOL    HW321571   5.963   1.626   2.424 -0.8014  0.4851 -0.7751
 5451SOL    MW421572   6.029   1.663   2.380  0.1201 -0.4708  0.1110
 5452SOL     OW21573   4.371   2.263   1.405 -0.3945 -0.0733 -0.3377
 5452SOL    HW221574   4.334   2.301   1.485 -1.9523  0.3248 -1.2137
 5452SOL    HW321575   4.345   2.171   1.408 -2.7278  0.4629 -1.5736
 5452SOL    MW421576   4.363   2.256   1.416  0.0585 -0.8055 -1.0150
 5453SOL     OW21577   6.313   6.161   2.120 -0.4108  0.5695 -0.6274
 5453SOL    HW221578   6.223   6.139   2.142 -0.4677 -0.0246 -1.4127
 5453SOL    HW321579   6.310   6.255   2.099 -0.3080  1.2307  1.9884
 5453SOL    MW421580   6.301   6.171   2.120 -0.3600  0.1652 -0.2756
 5454SOL     OW21581   4.220   5.943   6.052  0.1655 -0.3932 -0.0444
 5454SOL    HW221582   4.285   5.908   6.112  0.3432  0.2196  0.1311
 5454SOL    HW321583   4.234   6.038   6.055  0.2991 -0.3625 -1.1820
 5454SOL    MW421584   4.231   5.951   6.060  0.1875 -0.1747 -0.1018
 5455SOL     OW21585   2.750   1.177   2.523  0.0381 -0.2072 -0.7248
 5455SOL    HW221586   2.667   1.145   2.559 -0.7187  0.7856 -1.5521
 5455SOL    HW321587   2.769   1.118   2.451 -0.0748 -0.2797 -0.6958
 5455SOL    MW421588   2.741   1.165   2.519 -0.2943 -1.1200 -0.8811
 5456SOL     OW21589   0.335   4.309   1.849 -0.5572 -0.0800  0.1214
 5456SOL    HW221590   0.275   4.378   1.874 -0.2658 -0.0912  0.8619
 5456SOL    HW321591   0.393   4.298   1.924  0.1918 -0.2680 -0.4651
 5456SOL    MW421592   0.335   4.316   1.862 -0.1909  0.2489 -0.0856
 5457SOL     OW21593   4.238   4.879   2.810 -0.5975 -0.1370  0.0369
 5457SOL    HW221594   4.190   4.962   2.808  0.5470  0.5522  0.4207
 5457SOL    HW321595   4.328   4.902   2.788  0.1467 -0.9645  1.9567
 5457SOL    MW421596   4.243   4.893   2.807 -0.2703  0.7264  0.5297
 5458SOL     OW21597   1.289   4.989   5.844  0.3794 -0.3803 -0.4325
 5458SOL    HW221598   1.317   4.908   5.886 -0.8711 -0.1377  0.9949
 5458SOL    HW321599   1.193   4.987   5.852  0.2656  0.6969 -1.3978
 5458SOL    MW421600   1.280   4.978   5.851  0.1355 -0.0055 -0.1275
 5459SOL     OW21601   4.560   2.690   0.311 -0.4359  0.7232  0.1756
 5459SOL    HW221602   4.623   2.708   0.240 -0.8537 -0.1829 -0.4403
 5459SOL    HW321603   4.491   2.754   0.296  0.2148  1.5805  0.7248
 5459SOL    MW421604   4.559   2.701   0.299  0.0139 -0.3046 -0.5473
 5460SOL     OW21605   1.720   6.209   3.774  0.1859 -0.2383  0.9373
 5460SOL    HW221606   1.710   6.264   3.852 -1.9218 -0.0451  0.5858
 5460SOL    HW321607   1.739   6.122   3.810  1.3023  0.2333  1.5659
 5460SOL    MW421608   1.721   6.205   3.789 -0.3337  0.5981  0.0053
 5461SOL     OW21609   6.250   0.660   1.731  0.0388 -0.1275 -0.1677
 5461SOL    HW221610   6.298   0.637   1.652 -0.3603  1.0781 -0.7960
 5461SOL    HW321611   6.205   0.580   1.757  0.4834 -0.6339 -0.9420
 5461SOL    MW421612   6.250   0.646   1.724  0.2793  0.3425 -0.3545
 5462SOL     OW21613   5.666   4.839   2.036 -0.3367  0.5620  0.5966
 5462SOL    HW221614   5.671   4.772   1.968  1.1068  0.8539  0.3686
 5462SOL    HW321615   5.730   4.811   2.102 -0.4679  1.1807  0.9965
 5462SOL    MW421616   5.675   4.827   2.036 -1.1292  0.1602  0.1644
 5463SOL     OW21617   3.962   1.082   0.233 -0.0274  0.4968 -0.2431
 5463SOL    HW221618   3.877   1.090   0.278 -0.1136 -0.8691 -0.1404
 5463SOL    HW321619   3.941   1.088   0.140 -0.3001 -0.2920 -0.2367
 5463SOL    MW421620   3.948   1.084   0.227  0.0303 -0.5302 -0.5738
 5464SOL     OW21621   4.021   4.371   5.598  0.0587 -0.2983 -0.3750
 5464SOL    HW221622   4.041   4.445   5.655 -3.1778  0.6328 -0.2653
 5464SOL    HW321623   4.000   4.299   5.658 -1.1432  0.0365 -0.3610
 5464SOL    MW421624   4.021   4.371   5.614  0.6024  0.0212 -0.5439
 5465SOL     OW21625   2.709   5.401   5.209 -0.1035  0.7638 -0.0271
 5465SOL    HW221626   2.618   5.372   5.199  1.0387 -3.6944  0.5863
 5465SOL    HW321627   2.719   5.415   5.303  0.4125 -1.4924  0.3183
 5465SOL    MW421628   2.698   5.399   5.220 -0.0326 -0.1411  0.4139
 5466SOL     OW21629   1.430   6.228   5.297  0.2327  0.0304  0.0051
 5466SOL    HW221630   1.491   6.163   5.265 -0.2597 -0.0171 -0.8653
 5466SOL    HW321631   1.358   6.178   5.336 -0.7563 -0.0292 -1.7714
 5466SOL    MW421632   1.428   6.213   5.298  0.2281 -0.0362 -0.4516
 5467SOL     OW21633   0.744   5.360   4.104  0.3837 -0.1212 -0.5125
 5467SOL    HW221634   0.669   5.316   4.065 -0.0576  0.2038 -0.0442
 5467SOL    HW321635   0.811   5.292   4.109 -0.1359 -0.6263 -0.2251
 5467SOL    MW421636   0.743   5.345   4.099 -0.2882 -0.5311  0.2680
 5468SOL     OW21637   0.970   4.150   1.578  0.0665 -0.3642  0.0842
 5468SOL    HW221638   0.884   4.123   1.610  0.2183  1.4855  2.3749
 5468SOL    HW321639   1.026   4.149   1.656  1.5698  0.5106 -0.9232
 5468SOL    MW421640   0.966   4.146   1.592  0.8117 -0.1107 -0.1307
 5469SOL     OW21641   0.623   4.300   6.068  0.0034  0.7626 -0.9261
 5469SOL    HW221642   0.571   4.377   6.094 -0.0710  0.3480  0.1829
 5469SOL    HW321643   0.590   4.229   6.123 -0.4765 -0.2735 -2.4831
 5469SOL    MW421644   0.612   4.301   6.078 -0.5459  0.0661 -0.4804
 5470SOL     OW21645   6.218   3.207   5.225  0.1249  0.0496  0.1093
 5470SOL    HW221646   6.130   3.170   5.229  0.4570 -0.9116 -0.9279
 5470SOL    HW321647   6.271   3.149   5.280  0.0845  0.7687  0.9344
 5470SOL    MW421648   6.214   3.195   5.233  0.2594  0.3169 -0.4540
 5471SOL     OW21649   2.939   0.004   0.775 -0.2037 -0.2030  0.0140
 5471SOL    HW221650   2.940  -0.012   0.869 -0.8109 -0.9254 -0.0882
 5471SOL    HW321651   2.960  -0.081   0.736  0.2090  0.1287 -0.4990
 5471SOL    MW421652   2.942  -0.009   0.782 -0.0450  0.6039  0.1231
 5472SOL     OW21653   3.037   4.731   3.673 -0.1116 -0.1872  0.4977
 5472SOL    HW221654   3.102   4.670   3.707  0.4858 -0.6216 -1.2881
 5472SOL    HW321655   3.062   4.816   3.711  1.3825 -0.3860  0.0444
 5472SOL    MW421656   3.049   4.734   3.682 -0.3868  0.7146 -0.0193
 5473SOL     OW21657   3.177   3.315   1.103 -0.1383  0.1831 -0.0912
 5473SOL    HW221658   3.225   3.237   1.132 -0.0067 -0.1613 -1.1894
 5473SOL    HW321659   3.160   3.299   1.010  2.7155  2.8990 -1.2067
 5473SOL    MW421660   3.181   3.302   1.094 -0.1480 -0.2571 -0.4343
 5474SOL     OW21661   2.088   4.965   1.266  0.0404  0.5233 -0.4622
 5474SOL    HW221662   2.134   5.041   1.301 -0.6574 -0.0379  1.7954
 5474SOL    HW321663   2.007   5.000   1.230  0.9316  1.1543 -1.9562
 5474SOL    MW421664   2.083   4.979   1.266  0.0965  0.2478 -0.6436
 5475SOL     OW21665   2.228   6.204   4.614 -0.1624  0.0682 -0.7196
 5475SOL    HW221666   2.275   6.279   4.652 -2.0334  1.4683 -1.0361
 5475SOL    HW321667   2.177   6.169   4.687  1.0485 -1.2611 -0.4550
 5475SOL    MW421668   2.228   6.209   4.629 -0.3885 -0.4453  0.0446
 5476SOL     OW21669   6.152   5.891   5.139 -0.1121 -0.2923 -0.1844
 5476SOL    HW221670   6.120   5.939   5.216  1.2573 -0.6796  0.6668
 5476SOL    HW321671   6.236   5.931   5.119 -0.8308  0.3874 -2.0795
 5476SOL    MW421672   6.159   5.903   5.147  0.4894 -0.2112 -0.2143
 5477SOL     OW21673   1.325   4.714   4.822 -0.1292  0.5413  0.4239
 5477SOL    HW221674   1.334   4.780   4.891  0.2685  0.5665  0.3512
 5477SOL    HW321675   1.354   4.632   4.862  0.8540  0.7034  0.0599
 5477SOL    MW421676   1.330   4.712   4.836  0.4792 -0.5610  0.0719
 5478SOL     OW21677   0.650   0.306   5.350 -0.0152  0.3949  0.0946
 5478SOL    HW221678   0.741   0.329   5.333  0.4568 -0.4320  1.3393
 5478SOL    HW321679   0.627   0.357   5.428 -0.2406 -0.2533  0.4616
 5478SOL    MW421680   0.659   0.316   5.358  0.2164 -0.2708  0.4845
 5479SOL     OW21681   1.469   4.423   6.057 -0.3953 -0.1845 -0.0238
 5479SOL    HW221682   1.458   4.338   6.099 -1.1256 -0.3905 -0.6044
 5479SOL    HW321683   1.415   4.418   5.978  1.5919 -0.1204 -1.4601
 5479SOL    MW421684   1.461   4.411   6.052 -0.4232  0.0507  0.2905
 5480SOL     OW21685   0.876   4.539   3.126  0.1518  0.5227 -0.0284
 5480SOL    HW221686   0.879   4.474   3.056  0.0011  0.8886 -0.3755
 5480SOL    HW321687   0.963   4.580   3.125 -0.6039  2.1964 -1.6002
 5480SOL    MW421688   0.888   4.536   3.117 -0.2534  0.3153 -0.2201
 5481SOL     OW21689   0.583   3.081   4.984 -0.0041  0.5928  0.0501
 5481SOL    HW221690   0.612   3.005   5.034 -1.9943 -0.4736 -0.3045
 5481SOL    HW321691   0.489   3.088   5.002 -0.3599  1.4890 -1.8112
 5481SOL    MW421692   0.574   3.072   4.993 -0.8009 -0.0984 -0.1660
 5482SOL     OW21693   1.409   5.141   4.860 -0.3456 -0.1495 -0.2528
 5482SOL    HW221694   1.330   5.166   4.812  0.0893  0.5266 -0.6309
 5482SOL    HW321695   1.478   5.197   4.824  0.8565 -2.4047 -1.6829
 5482SOL    MW421696   1.408   5.152   4.849 -0.4044  0.3183  0.2731
 5483SOL     OW21697   4.640   5.874   2.556 -0.5397 -0.2969 -0.1109
 5483SOL    HW221698   4.731   5.860   2.532 -0.9361 -1.3467 -1.1017
 5483SOL    HW321699   4.599   5.788   2.547 -1.6985  0.2315 -0.0496
 5483SOL    MW421700   4.646   5.861   2.551 -0.2168 -0.1335  0.7196
 5484SOL     OW21701   2.695   3.877   0.185 -0.3375  0.2704  0.3085
 5484SOL    HW221702   2.626   3.811   0.187 -0.7513  0.7083  0.7978
 5484SOL    HW321703   2.774   3.832   0.215 -0.6685  0.0562  0.8678
 5484SOL    MW421704   2.696   3.863   0.189  0.4042 -0.0036 -0.2613
 5485SOL     OW21705   3.086   1.932   2.603 -0.2144 -0.2722 -0.3844
 5485SOL    HW221706   3.140   1.891   2.672 -1.8121 -0.7778  0.6256
 5485SOL    HW321707   3.043   2.006   2.647 -0.4235  0.0721 -1.1467
 5485SOL    MW421708   3.088   1.937   2.618  1.0054  0.3733  0.2354
 5486SOL     OW21709   0.046   3.583   0.074  0.1138 -0.3241 -0.2757
 5486SOL    HW221710   0.113   3.515   0.085  0.1018 -0.3586 -0.4086
 5486SOL    HW321711  -0.033   3.535   0.050  0.2268 -0.2306 -0.8656
 5486SOL    MW421712   0.045   3.567   0.072  0.2095  0.1510  0.4107
 5487SOL     OW21713   1.888   4.762   1.343 -0.8408 -0.1561  0.6477
 5487SOL    HW221714   1.967   4.816   1.340 -1.2720  0.4620  0.0467
 5487SOL    HW321715   1.881   4.735   1.435  0.0920 -0.2604  0.6942
 5487SOL    MW421716   1.897   4.766   1.355 -0.2847 -0.2579  0.3560
 5488SOL     OW21717   5.935   5.003   3.434  0.1747 -0.2532  0.1568
 5488SOL    HW221718   5.922   5.034   3.344 -0.6340 -0.8660  0.0535
 5488SOL    HW321719   5.905   4.912   3.432 -1.7068  0.2995  1.5095
 5488SOL    MW421720   5.930   4.995   3.422  0.1900  0.2660  0.3999
 5489SOL     OW21721   2.303   3.141   1.906 -0.0473 -0.4437  0.4085
 5489SOL    HW221722   2.227   3.187   1.943 -0.3518 -0.8793  0.3336
 5489SOL    HW321723   2.374   3.159   1.967 -0.1695  0.1071  0.3914
 5489SOL    MW421724   2.302   3.149   1.919 -0.1567  0.2228  0.5274
 5490SOL     OW21725   5.521   5.883   5.362  0.6869  0.7880  0.5415
 5490SOL    HW221726   5.571   5.929   5.294  0.0002 -1.0904 -1.3784
 5490SOL    HW321727   5.429   5.900   5.339  0.4144 -1.4392 -0.2595
 5490SOL    MW421728   5.515   5.891   5.350 -0.1881 -0.0873 -0.3609
 5491SOL     OW21729   4.062   3.445   5.461 -0.8117  0.3286  0.0943
 5491SOL    HW221730   3.978   3.448   5.508 -1.0645  0.9959 -0.3821
 5491SOL    HW321731   4.039   3.436   5.369 -0.3388 -0.0499  0.0075
 5491SOL    MW421732   4.048   3.444   5.455  0.1211 -0.0432 -0.0154
 5492SOL     OW21733   3.915   2.110   0.300  0.4841 -0.3175  0.2930
 5492SOL    HW221734   3.830   2.101   0.342  0.6752 -2.5051  0.3184
 5492SOL    HW321735   3.897   2.105   0.206  0.5331 -0.3408  0.2845
 5492SOL    MW421736   3.901   2.108   0.293  0.4465 -0.3755  0.5239
 5493SOL     OW21737   2.246   5.793   5.284  0.2324  0.4077  0.6051
 5493SOL    HW221738   2.237   5.836   5.369  1.5822 -0.2772  1.1132
 5493SOL    HW321739   2.305   5.720   5.300  0.0695 -0.0603 -0.8153
 5493SOL    MW421740   2.252   5.789   5.297  0.6014 -0.0279 -0.2785
 5494SOL     OW21741   5.026   2.835   0.145  0.9895 -0.3967  0.0501
 5494SOL    HW221742   5.078   2.758   0.125  0.8567 -0.8456  1.3380
 5494SOL    HW321743   4.937   2.803   0.154  0.8973 -0.0560  0.3871
 5494SOL    MW421744   5.021   2.821   0.143  0.6496 -0.1791  0.0920
 5495SOL     OW21745   1.435   2.673   0.735 -0.1283  0.1153 -0.0067
 5495SOL    HW221746   1.446   2.736   0.664 -2.8301  1.2903  0.4883
 5495SOL    HW321747   1.341   2.653   0.734  0.2152 -1.8742  1.5792
 5495SOL    MW421748   1.424   2.679   0.725 -0.3504  0.1957 -0.1460
 5496SOL     OW21749   0.193   2.357   1.028  0.2994  0.1148 -0.5679
 5496SOL    HW221750   0.168   2.279   1.078  1.0091  0.2189 -0.0413
 5496SOL    HW321751   0.244   2.323   0.955 -0.7533 -0.0395 -1.2496
 5496SOL    MW421752   0.196   2.342   1.025 -0.0828 -0.3546 -0.2827
 5497SOL     OW21753   5.626   4.833   4.517 -0.2873 -0.0534 -0.3320
 5497SOL    HW221754   5.543   4.881   4.527  0.4879  1.8858 -2.4402
 5497SOL    HW321755   5.688   4.880   4.573 -0.2508 -0.6753  0.1704
 5497SOL    MW421756   5.623   4.845   4.526 -0.0542  0.0451  0.6173
 5498SOL     OW21757   5.675   2.029   1.583 -0.2793 -0.4657  0.6106
 5498SOL    HW221758   5.737   1.977   1.634 -0.8154 -2.1380 -0.3665
 5498SOL    HW321759   5.729   2.071   1.516 -0.0094 -0.7812  0.6284
 5498SOL    MW421760   5.690   2.028   1.581  0.1897  0.6317  0.6460
 5499SOL     OW21761   4.234   5.632   4.788  0.4291 -0.2148 -0.8614
 5499SOL    HW221762   4.202   5.648   4.877  0.0767  1.7253 -1.3002
 5499SOL    HW321763   4.155   5.607   4.739 -0.0455  2.0721 -1.3629
 5499SOL    MW421764   4.219   5.631   4.793  0.2142 -0.3304 -0.0588
 5500SOL     OW21765   2.180   0.770   4.895  0.0001  0.9502  0.0018
 5500SOL    HW221766   2.142   0.731   4.974 -2.0438  1.7098 -0.5546
 5500SOL    HW321767   2.156   0.863   4.900  1.6451  1.4378 -0.5029
 5500SOL    MW421768   2.172   0.777   4.906  0.5207 -0.0540 -0.2245
 5501SOL     OW21769   4.405   4.426   5.744 -0.2044  0.4518 -0.1328
 5501SOL    HW221770   4.408   4.400   5.836 -0.6394 -0.4075 -0.3590
 5501SOL    HW321771   4.496   4.447   5.722 -0.3502  2.5138  0.9988
 5501SOL    MW421772   4.418   4.426   5.753  0.7418 -0.2687  0.4198
 5502SOL     OW21773   5.804   3.763   0.735  0.0821  0.4400  0.2880
 5502SOL    HW221774   5.761   3.699   0.792  1.3427 -0.5732  0.1500
 5502SOL    HW321775   5.812   3.842   0.789 -3.3091  1.2646 -0.1762
 5502SOL    MW421776   5.799   3.765   0.750  0.0367 -0.6286  0.3992
 5503SOL     OW21777   0.412   5.648   5.818  0.1761  0.0659  0.4448
 5503SOL    HW221778   0.346   5.670   5.884  1.1867  1.0116  1.1810
 5503SOL    HW321779   0.441   5.732   5.784  0.0478 -0.3995 -0.8506
 5503SOL    MW421780   0.407   5.662   5.822 -0.1865 -0.5047 -0.8255
 5504SOL     OW21781   5.400   2.972   5.218 -0.5298 -0.1049 -0.0363
 5504SOL    HW221782   5.378   3.056   5.260  0.5980 -0.3350  1.0876
 5504SOL    HW321783   5.318   2.943   5.179 -1.0034  1.4097 -0.2504
 5504SOL    MW421784   5.386   2.979   5.219 -0.3920 -0.5651  0.7454
 5505SOL     OW21785   3.954   3.667   0.507 -0.2778  0.2591 -0.4374
 5505SOL    HW221786   3.959   3.761   0.493 -3.2196  0.5451 -0.1803
 5505SOL    HW321787   3.942   3.657   0.602  1.3407 -0.5150 -0.2707
 5505SOL    MW421788   3.953   3.678   0.518 -0.0527  0.1748  0.3430
 5506SOL     OW21789   3.569   5.570   2.457 -0.1600 -0.4955 -0.1169
 5506SOL    HW221790   3.574   5.664   2.439  0.4808 -0.7925 -1.6790
 5506SOL    HW321791   3.481   5.556   2.492 -0.2884  0.6695  0.0544
 5506SOL    MW421792   3.558   5.580   2.459  0.1231 -0.3583 -0.2386
 5507SOL     OW21793   5.363   3.411   3.108 -0.8098 -0.3752 -0.0598
 5507SOL    HW221794   5.366   3.418   3.012 -2.0444 -0.1825 -0.1008
 5507SOL    HW321795   5.452   3.384   3.132 -0.9115 -2.1267 -1.4036
 5507SOL    MW421796   5.375   3.408   3.098  0.2525  0.4457  0.3886
 5508SOL     OW21797   2.018   0.602   4.742  0.0295  0.2216 -0.5159
 5508SOL    HW221798   2.069   0.669   4.789 -1.8777  1.5303 -0.1577
 5508SOL    HW321799   2.049   0.607   4.652  0.8554  0.6562 -0.2195
 5508SOL    MW421800   2.029   0.612   4.737 -0.1538 -0.1967  0.1069
 5509SOL     OW21801   2.361   6.030   3.330  0.2585  0.1555 -0.3241
 5509SOL    HW221802   2.391   5.993   3.247  0.1587 -0.5785 -0.0321
 5509SOL    HW321803   2.281   5.982   3.351  1.0851 -0.6983  0.9493
 5509SOL    MW421804   2.354   6.019   3.322  0.5604  0.0920  0.4239
 5510SOL     OW21805   4.868   4.675   5.352 -0.4279 -0.5435  0.2883
 5510SOL    HW221806   4.788   4.633   5.383 -1.0073 -0.2449 -0.7750
 5510SOL    HW321807   4.838   4.747   5.297  0.5489  0.7550  1.3791
 5510SOL    MW421808   4.853   4.679   5.349  0.2710  0.2734  0.0357
 5511SOL     OW21809   3.457   4.376   3.496  0.0079 -0.0016 -0.4195
 5511SOL    HW221810   3.420   4.462   3.478  1.7948  1.1934  1.2778
 5511SOL    HW321811   3.546   4.380   3.461  0.4757 -0.7769  0.6436
 5511SOL    MW421812   3.464   4.388   3.489 -0.4452  0.3166  0.1813
 5512SOL     OW21813   3.209   0.621   6.208 -0.0406  0.3323  0.0040
 5512SOL    HW221814   3.159   0.541   6.193  0.6150  0.1143 -1.1326
 5512SOL    HW321815   3.142   0.689   6.218 -0.6001 -0.3189  0.8285
 5512SOL    MW421816   3.194   0.620   6.207  0.0135  0.4900  0.5269
 5513SOL     OW21817   3.681   6.039   6.026 -0.4725  0.6262 -0.1610
 5513SOL    HW221818   3.771   6.050   6.057 -0.1584 -1.6620 -0.1300
 5513SOL    HW321819   3.636   5.996   6.097 -1.3540  0.8413 -0.5743
 5513SOL    MW421820   3.687   6.035   6.039  0.4662 -0.3013  0.1447
 5514SOL     OW21821   2.769   6.227   2.097  0.2833 -0.1803 -0.0809
 5514SOL    HW221822   2.773   6.308   2.046  0.8649  0.2683  0.6656
 5514SOL    HW321823   2.790   6.254   2.186 -1.9399 -0.7370  0.6729
 5514SOL    MW421824   2.772   6.241   2.102 -0.2721  0.2425  0.3110
 5515SOL     OW21825   1.185   5.814   3.913  0.3298  0.0557  0.0583
 5515SOL    HW221826   1.206   5.723   3.889  0.8048  0.7950 -2.6707
 5515SOL    HW321827   1.112   5.837   3.855 -0.3130  1.1831  1.2811
 5515SOL    MW421828   1.178   5.805   3.902  0.3056  0.5640  0.1550
 5516SOL     OW21829   0.422   0.985   3.609  0.2248  0.4479  0.4097
 5516SOL    HW221830   0.363   0.918   3.574  3.2749 -1.8462 -0.7700
 5516SOL    HW321831   0.364   1.050   3.647 -2.9975 -2.4350  0.9136
 5516SOL    MW421832   0.407   0.985   3.609  0.3058 -0.7027  0.1394
 5517SOL     OW21833   4.797   3.907   5.005  0.6440 -0.5461 -0.3803
 5517SOL    HW221834   4.886   3.878   5.024  1.2164  1.1756 -0.2525
 5517SOL    HW321835   4.808   3.978   4.941 -0.7830 -1.5873 -1.8732
 5517SOL    MW421836   4.810   3.912   4.999  0.4776 -0.0255  0.2167
 5518SOL     OW21837   1.531   4.323   0.015  0.1192  0.2627  0.0293
 5518SOL    HW221838   1.601   4.370  -0.029 -0.2872  1.1512  0.3139
 5518SOL    HW321839   1.577   4.261   0.073  0.6821  1.0699  0.4705
 5518SOL    MW421840   1.546   4.321   0.017 -0.4708  0.0891 -0.8036
 5519SOL     OW21841   3.303   3.794   0.647 -0.5273  0.1053 -0.1434
 5519SOL    HW221842   3.302   3.717   0.590 -2.2470 -0.0629  0.0532
 5519SOL    HW321843   3.349   3.765   0.726 -0.1472 -0.3631 -0.5357
 5519SOL    MW421844   3.309   3.780   0.650 -0.3342 -0.2143 -0.8545
 5520SOL     OW21845   0.743   5.773   3.577  0.1646 -0.5109 -0.6688
 5520SOL    HW221846   0.768   5.698   3.630 -0.5851 -1.1297 -1.1687
 5520SOL    HW321847   0.665   5.808   3.620  0.5391  0.0230 -0.4079
 5520SOL    MW421848   0.736   5.768   3.590 -0.3463  0.1980  0.2813
 5521SOL     OW21849   0.284   2.550   0.773 -0.5816  0.1993 -0.3919
 5521SOL    HW221850   0.264   2.461   0.746  0.5292  0.0240 -0.6940
 5521SOL    HW321851   0.365   2.542   0.824 -0.2446  1.0787 -0.7641
 5521SOL    MW421852   0.292   2.537   0.776  0.6570  0.2267 -0.5843
 5522SOL     OW21853   5.662   2.703   4.778 -0.2813 -0.1305  0.2750
 5522SOL    HW221854   5.620   2.708   4.692  1.1354  1.6246 -0.3513
 5522SOL    HW321855   5.752   2.677   4.760 -0.3854 -1.3863  1.4000
 5522SOL    MW421856   5.668   2.700   4.764  0.2588  0.0114 -0.5065
 5523SOL     OW21857   0.356   2.395   4.682  0.4312 -0.0581  0.5211
 5523SOL    HW221858   0.439   2.442   4.678  0.8875 -0.6556  2.2329
 5523SOL    HW321859   0.303   2.445   4.744  0.0912 -0.5266  0.6138
 5523SOL    MW421860   0.360   2.408   4.690  0.4715 -0.6258  0.5147
 5524SOL     OW21861   1.965   5.402   1.781 -0.9610  0.2216  0.1948
 5524SOL    HW221862   1.900   5.462   1.742 -2.2504 -0.7254  0.8106
 5524SOL    HW321863   1.918   5.361   1.854  0.5673  0.0000  1.0879
 5524SOL    MW421864   1.950   5.405   1.785  0.0204 -0.2331  0.1933
 5525SOL     OW21865   1.541   0.946   0.534  0.3217 -0.4127  0.4111
 5525SOL    HW221866   1.514   0.872   0.588  0.3669  0.4915  1.7076
 5525SOL    HW321867   1.503   1.022   0.576  0.4029  0.3331 -0.8166
 5525SOL    MW421868   1.533   0.946   0.547 -0.6668  0.6391  0.3275
 5526SOL     OW21869   3.334   6.338   5.135 -0.0228  0.1731 -0.4391
 5526SOL    HW221870   3.373   6.261   5.094  1.8297  1.7517 -1.8233
 5526SOL    HW321871   3.408   6.386   5.172 -1.1568  1.1438  0.6617
 5526SOL    MW421872   3.349   6.334   5.134 -0.1397  0.0781  0.5632
 5527SOL     OW21873   4.274   1.187   3.492 -0.1960 -0.0848 -0.4024
 5527SOL    HW221874   4.359   1.145   3.500 -0.7549 -1.1522  0.1636
 5527SOL    HW321875   4.267   1.244   3.570  0.0139  0.0400 -0.4753
 5527SOL    MW421876   4.284   1.189   3.504 -0.4498  0.3298 -0.3961
 5528SOL     OW21877   4.342   4.401   0.439  0.5822 -0.1876  0.2212
 5528SOL    HW221878   4.374   4.474   0.492  0.1193  1.2035 -1.3538
 5528SOL    HW321879   4.378   4.416   0.352 -0.0636 -1.4775 -0.2929
 5528SOL    MW421880   4.351   4.413   0.435  0.5368  0.1595 -0.1655
 5529SOL     OW21881   4.090   1.993   0.903  0.0712  0.1951 -0.0803
 5529SOL    HW221882   4.101   2.088   0.900  1.2218  0.0827  0.2876
 5529SOL    HW321883   4.008   1.980   0.951 -0.7767  1.0189 -1.2459
 5529SOL    MW421884   4.080   2.003   0.909 -0.2593  0.0199  0.1178
 5530SOL     OW21885   6.217   3.885   1.666 -0.1756  0.6950  0.0284
 5530SOL    HW221886   6.307   3.890   1.699 -0.0029 -3.5461  0.7364
 5530SOL    HW321887   6.163   3.879   1.745 -0.7276 -0.1390 -0.4049
 5530SOL    MW421888   6.222   3.885   1.681 -0.3237 -0.2759  0.0274
 5531SOL     OW21889   2.978   5.238   5.694 -0.2972 -0.7618  0.2413
 5531SOL    HW221890   3.064   5.266   5.724 -0.8773  1.5145 -0.0651
 5531SOL    HW321891   2.921   5.248   5.771 -0.9834  1.3016 -0.4622
 5531SOL    MW421892   2.982   5.243   5.708 -0.2509 -0.1118  0.3247
 5532SOL     OW21893   4.347   2.900   5.208  0.1874 -0.4470 -0.5124
 5532SOL    HW221894   4.424   2.923   5.156  0.3731 -2.7485 -1.3698
 5532SOL    HW321895   4.275   2.947   5.166  0.9361  0.8515 -0.3851
 5532SOL    MW421896   4.347   2.909   5.195 -0.4310 -0.1089  0.1863
 5533SOL     OW21897   4.619   5.276   0.104  0.2477 -0.3169 -0.1969
 5533SOL    HW221898   4.654   5.364   0.086 -2.1050  1.2330  2.1253
 5533SOL    HW321899   4.574   5.252   0.023 -1.4945  1.9403  0.0093
 5533SOL    MW421900   4.618   5.285   0.091 -1.0022 -0.3008  0.0041
 5534SOL     OW21901   5.436   5.230   0.620 -0.5470  0.5717  0.5876
 5534SOL    HW221902   5.366   5.267   0.566 -1.1639 -1.4835 -0.0907
 5534SOL    HW321903   5.391   5.199   0.699 -0.0797  1.0222  1.0366
 5534SOL    MW421904   5.421   5.231   0.624  0.3608  0.1967 -0.0982
 5535SOL     OW21905   5.043   1.960   0.474 -0.4272  0.5497 -0.5475
 5535SOL    HW221906   5.116   1.905   0.501  1.0733  1.9341 -1.5849
 5535SOL    HW321907   5.045   2.034   0.535  0.8564  1.9877 -2.2214
 5535SOL    MW421908   5.053   1.962   0.486 -0.9264 -0.8340  0.1860
 5536SOL     OW21909   0.357   3.847   0.367  0.3056  0.1803 -0.6658
 5536SOL    HW221910   0.269   3.846   0.406 -0.7742 -0.9222 -2.9016
 5536SOL    HW321911   0.357   3.772   0.307  2.2022  1.1375 -1.9513
 5536SOL    MW421912   0.345   3.837   0.364 -0.1995  0.1432 -0.4342
 5537SOL     OW21913   4.646   0.413   3.864  0.4368  0.3042  0.2665
 5537SOL    HW221914   4.712   0.349   3.889 -0.9619 -2.1118 -1.8119
 5537SOL    HW321915   4.647   0.477   3.935  1.7847 -2.1050  2.5962
 5537SOL    MW421916   4.655   0.413   3.877 -0.3309  0.5352  0.9683
 5538SOL     OW21917   3.790   5.200   0.326 -0.0293  0.0312  0.1110
 5538SOL    HW221918   3.796   5.172   0.235  0.1257  1.2585 -0.2626
 5538SOL    HW321919   3.870   5.250   0.341  0.5457 -1.1679  1.2892
 5538SOL    MW421920   3.802   5.203   0.316 -0.6129  0.2085  0.2436
 5539SOL     OW21921   3.475   6.185   3.978 -0.5064  0.4764 -0.0844
 5539SOL    HW221922   3.390   6.169   3.937 -0.1169 -0.0971 -0.6928
 5539SOL    HW321923   3.461   6.165   4.070 -0.4753 -1.8579 -0.5391
 5539SOL    MW421924   3.462   6.180   3.985  0.0121 -0.0640  0.1897
 5540SOL     OW21925   1.035   1.426   1.873 -0.4615 -0.3346 -1.3392
 5540SOL    HW221926   1.074   1.487   1.935  1.2691 -0.5977 -2.1212
 5540SOL    HW321927   1.069   1.340   1.899 -1.5296 -0.7643 -1.2855
 5540SOL    MW421928   1.045   1.423   1.885  0.1067  0.2457  0.7467
 5541SOL     OW21929   6.350   0.328   4.996  0.1597  0.0810 -0.3635
 5541SOL    HW221930   6.436   0.315   5.036  0.6843  2.1035 -0.7220
 5541SOL    HW321931   6.317   0.239   4.981  2.2780 -0.7587 -0.4381
 5541SOL    MW421932   6.357   0.315   5.000 -0.7476 -0.1076 -0.2069
 5542SOL     OW21933   6.059   2.306   0.676  0.0785  0.4969 -0.2205
 5542SOL    HW221934   6.098   2.275   0.593 -0.5468 -2.5090  0.4768
 5542SOL    HW321935   6.079   2.236   0.738 -3.5086  0.3882  1.0012
 5542SOL    MW421936   6.067   2.292   0.673  0.5827 -0.0027 -0.5921
 5543SOL     OW21937   4.229   6.183   3.781  0.3423 -0.2395 -0.5715
 5543SOL    HW221938   4.160   6.224   3.729  2.8078  3.3101 -1.4663
 5543SOL    HW321939   4.192   6.176   3.869 -0.9380  2.4287 -0.7956
 5543SOL    MW421940   4.215   6.187   3.786 -0.3735  0.3825  0.3469
 5544SOL     OW21941   3.667   2.936   3.805 -0.0416 -0.0342  0.2640
 5544SOL    HW221942   3.637   2.981   3.884 -0.4876  0.8174 -0.3750
 5544SOL    HW321943   3.656   2.843   3.824  1.5170  0.0637  1.8593
 5544SOL    MW421944   3.662   2.930   3.818  0.0197 -0.5120 -0.2020
 5545SOL     OW21945   2.234   2.718   5.129  0.1278 -0.2044  0.3130
 5545SOL    HW221946   2.245   2.811   5.111 -0.8996 -0.1223  0.0323
 5545SOL    HW321947   2.185   2.685   5.053  1.7350 -1.2869 -0.3182
 5545SOL    MW421948   2.229   2.726   5.116 -0.2648 -0.3704 -0.7790
 5546SOL     OW21949   6.237   5.136   5.202 -0.3394  0.0710  0.5296
 5546SOL    HW221950   6.322   5.159   5.164  0.5677 -1.9930  1.1556
 5546SOL    HW321951   6.187   5.100   5.128 -0.7653  1.4227  0.1294
 5546SOL    MW421952   6.242   5.134   5.187 -0.0415  0.2127  0.0837
 5547SOL     OW21953   2.249   3.654   5.809 -0.4173 -0.4882 -0.5215
 5547SOL    HW221954   2.291   3.732   5.772 -0.0591 -0.4136  0.0226
 5547SOL    HW321955   2.276   3.583   5.751  1.3301 -0.6114  0.3632
 5547SOL    MW421956   2.258   3.655   5.797  0.0351  0.3173  0.0981
 5548SOL     OW21957   5.847   0.948   1.920 -0.2260  0.0430  0.4492
 5548SOL    HW221958   5.814   0.865   1.955 -0.2237  0.0615  0.4952
 5548SOL    HW321959   5.813   0.951   1.831 -1.2494  0.5570  0.8356
 5548SOL    MW421960   5.838   0.938   1.913 -0.0631 -0.4789 -0.0410
 5549SOL     OW21961   4.272   1.443   4.880 -0.3161 -0.0433  0.4808
 5549SOL    HW221962   4.361   1.448   4.915 -0.3577  0.2477  0.5477
 5549SOL    HW321963   4.262   1.523   4.828 -0.0512 -0.7322 -0.6732
 5549SOL    MW421964   4.283   1.454   4.878 -0.1336  0.4053  0.5284
 5550SOL     OW21965   2.054   6.187   3.657 -0.3820 -0.4149 -0.2687
 5550SOL    HW221966   2.140   6.229   3.662 -1.0815  1.3753 -1.8360
 5550SOL    HW321967   2.011   6.210   3.739  0.1024 -0.0057 -0.1229
 5550SOL    MW421968   2.059   6.196   3.668  0.1791  0.6538  0.5987
 5551SOL     OW21969   0.082   2.681   6.007  0.1614 -0.3368  0.4407
 5551SOL    HW221970   0.035   2.710   6.085 -0.9115  0.5658 -0.5060
 5551SOL    HW321971   0.033   2.604   5.977 -1.9660  1.6545 -1.5843
 5551SOL    MW421972   0.070   2.674   6.013 -0.1241 -0.0944  0.0534
 5552SOL     OW21973   0.098   0.283   0.006 -0.4412 -0.0298  0.3935
 5552SOL    HW221974   0.052   0.341   0.067 -1.9454 -0.0479 -0.6692
 5552SOL    HW321975   0.157   0.233   0.062 -0.1855  1.4588  1.5404
 5552SOL    MW421976   0.100   0.284   0.022  0.2657  0.4674 -0.0006
 5553SOL     OW21977   5.222   5.882   5.301 -0.5761 -0.1815  0.5894
 5553SOL    HW221978   5.199   5.888   5.209  0.1304 -2.6910  0.1720
 5553SOL    HW321979   5.160   5.819   5.338  1.2148 -1.8182  0.9868
 5553SOL    MW421980   5.211   5.874   5.294  0.1363 -0.3841 -0.2946
 5554SOL     OW21981   0.974   2.334   3.116  0.0473  0.1661 -0.1553
 5554SOL    HW221982   0.986   2.260   3.176  2.2957  2.2200  2.2102
 5554SOL    HW321983   1.037   2.318   3.046  0.5503 -0.1568  0.3543
 5554SOL    MW421984   0.984   2.322   3.115 -0.2422 -0.3872  0.4277
 5555SOL     OW21985   0.275   3.521   2.600 -0.2320 -0.4355 -0.2107
 5555SOL    HW221986   0.227   3.533   2.518 -0.5687  1.7644  0.2694
 5555SOL    HW321987   0.333   3.596   2.605 -0.6521 -0.1955  1.8675
 5555SOL    MW421988   0.276   3.532   2.590 -0.2324 -0.0730  0.9457
 5556SOL     OW21989   0.801   1.572   3.472  0.1514  0.0690 -0.0885
 5556SOL    HW221990   0.873   1.511   3.458 -1.9258 -2.3789 -1.0454
 5556SOL    HW321991   0.778   1.603   3.384 -0.7346 -0.1792  0.0397
 5556SOL    MW421992   0.807   1.568   3.458 -0.5963 -0.1855 -0.0294
 5557SOL     OW21993   3.319   2.293   5.684 -0.3483 -0.4209 -0.4545
 5557SOL    HW221994   3.304   2.212   5.636  3.2415 -0.9416 -1.0002
 5557SOL    HW321995   3.316   2.267   5.776 -2.5263 -0.3846 -0.4558
 5557SOL    MW421996   3.317   2.279   5.690 -0.4434  0.7881 -0.1014
 5558SOL     OW21997   5.125   5.487   0.702 -0.1639  0.5148 -0.2001
 5558SOL    HW221998   5.121   5.478   0.607  1.0593  1.4282 -0.3631
 5558SOL    HW321999   5.087   5.573   0.720  1.7224  1.4000 -0.1335
 5558SOL    MW422000   5.120   5.497   0.692 -0.2979  0.1002  0.1058
 5559SOL     OW22001   4.909   1.373   5.114  0.3145  0.0520 -0.9375
 5559SOL    HW222002   4.862   1.304   5.066 -1.7948  0.8182 -0.0905
 5559SOL    HW322003   4.873   1.454   5.079  1.2766  0.6974 -0.4667
 5559SOL    MW422004   4.898   1.374   5.103  0.0084  0.7970  0.1376
 5560SOL     OW22005   4.293   6.317   1.937 -0.2913  0.3890 -0.7029
 5560SOL    HW222006   4.219   6.318   1.999 -1.1289  0.2918 -1.6777
 5560SOL    HW322007   4.303   6.409   1.911 -0.6974  0.2739 -1.2870
 5560SOL    MW422008   4.284   6.329   1.942  0.2763  0.4144  0.1860
 5561SOL     OW22009   5.961   4.151   2.492 -0.3668 -0.2313  0.4059
 5561SOL    HW222010   5.957   4.166   2.397  1.8423  0.7390  0.3890
 5561SOL    HW322011   5.873   4.172   2.523 -0.7024  1.0579 -1.2307
 5561SOL    MW422012   5.949   4.156   2.483 -0.2244 -0.4857  0.1459
 5562SOL     OW22013   4.605   2.959   3.119  0.7328  0.0817  0.0769
 5562SOL    HW222014   4.600   2.878   3.168  1.1735  1.0487  1.8030
 5562SOL    HW322015   4.660   2.939   3.044  0.1902 -1.3973  0.0514
 5562SOL    MW422016   4.612   2.946   3.115 -0.4266  0.1415  0.3199
 5563SOL     OW22017   1.956   3.285   1.078 -0.4121 -0.4876  0.6020
 5563SOL    HW222018   1.948   3.375   1.108  0.6549 -0.8866  2.1874
 5563SOL    HW322019   1.880   3.240   1.116  0.7746 -0.9252  2.6179
 5563SOL    MW422020   1.945   3.291   1.087  0.9473  0.5803  0.3759
 5564SOL     OW22021   3.966   4.404   1.291 -0.0002 -0.8918 -0.4513
 5564SOL    HW222022   4.015   4.432   1.369 -0.9555 -2.3288  0.7282
 5564SOL    HW322023   3.875   4.429   1.310 -0.2799 -1.4832 -0.9883
 5564SOL    MW422024   3.960   4.411   1.304 -0.6437  0.2358  0.0904
 5565SOL     OW22025   3.764   4.854   6.006  0.6814 -0.0691  0.2981
 5565SOL    HW222026   3.745   4.908   5.929  0.3179 -0.6886 -0.0646
 5565SOL    HW322027   3.678   4.842   6.048  0.4291 -1.7272 -0.5665
 5565SOL    MW422028   3.750   4.859   6.001 -0.0077  0.1830  0.2769
 5566SOL     OW22029   5.269   1.997   4.724 -0.2190  0.4544 -0.4261
 5566SOL    HW222030   5.250   2.055   4.798 -1.5651 -1.2590  0.6452
 5566SOL    HW322031   5.363   2.004   4.712 -0.2363  2.2376  0.1807
 5566SOL    MW422032   5.279   2.005   4.733  0.7051 -0.4003  0.2028
 5567SOL     OW22033   5.333   4.764   2.820 -0.8688  0.3382  0.0912
 5567SOL    HW222034   5.425   4.789   2.812 -0.4842 -0.9730  0.2207
 5567SOL    HW322035   5.334   4.686   2.875 -2.1365  0.7248  0.7047
 5567SOL    MW422036   5.345   4.757   2.826 -0.4363  0.1164  0.4550
 5568SOL     OW22037   1.490   0.730   2.465 -0.1084  0.1008  0.4222
 5568SOL    HW222038   1.556   0.759   2.402 -1.3713 -0.0097 -1.0163
 5568SOL    HW322039   1.477   0.805   2.523  0.9036  0.2975  0.4086
 5568SOL    MW422040   1.497   0.744   2.464  0.3317  0.3857  0.6061
 5569SOL     OW22041   4.038   5.473   1.464  0.0197  0.4246  0.2075
 5569SOL    HW222042   4.098   5.530   1.415  0.5761 -0.6600 -0.4046
 5569SOL    HW322043   4.067   5.483   1.555  0.8137  0.3076 -0.0173
 5569SOL    MW422044   4.050   5.482   1.470  0.2506  0.1812  0.4148
 5570SOL     OW22045   5.033   2.303   6.223  0.3410 -0.3195 -0.4334
 5570SOL    HW222046   5.066   2.366   6.286 -0.6562  1.0081 -1.1763
 5570SOL    HW322047   5.028   2.220   6.271  1.1550  0.2867  0.7265
 5570SOL    MW422048   5.037   2.300   6.237 -0.2118  0.5379  0.6528
 5571SOL     OW22049   1.457   1.965   3.735  0.3757  0.2772  0.1168
 5571SOL    HW222050   1.498   1.890   3.776 -1.6291 -1.2655 -0.5183
 5571SOL    HW322051   1.386   1.989   3.794  0.4386  1.0911 -0.1276
 5571SOL    MW422052   1.453   1.958   3.748 -0.0454  0.0051  0.6158
 5572SOL     OW22053   1.791   3.025   1.165  0.1790  0.4164  0.2014
 5572SOL    HW222054   1.745   3.033   1.248  0.8657  1.0903  0.5326
 5572SOL    HW322055   1.884   3.028   1.188  0.3948 -0.0364 -0.5337
 5572SOL    MW422056   1.798   3.026   1.179  0.4784  0.6307  0.2431
 5573SOL     OW22057   5.334   0.565   1.216  0.3193 -0.2823 -0.7368
 5573SOL    HW222058   5.315   0.476   1.244  2.0785 -0.5862 -0.3805
 5573SOL    HW322059   5.255   0.594   1.171 -2.0574 -0.3343  3.0663
 5573SOL    MW422060   5.321   0.557   1.213 -0.2358  0.3495  0.0940
 5574SOL     OW22061   3.924   2.945   3.939  0.0357  0.2209 -0.1357
 5574SOL    HW222062   3.971   2.867   3.908 -1.2132 -1.0849  1.0907
 5574SOL    HW322063   3.860   2.964   3.870 -0.7925 -0.9034  0.2981
 5574SOL    MW422064   3.922   2.937   3.925 -0.3349 -0.0910  0.2608
 5575SOL     OW22065   0.314   5.067   1.791  0.5276  0.0762 -0.3109
 5575SOL    HW222066   0.387   5.129   1.785  2.0593 -1.5180  0.8580
 5575SOL    HW322067   0.317   5.019   1.709  0.3829  0.4226 -0.5233
 5575SOL    MW422068   0.324   5.069   1.779 -0.7603 -0.3240 -0.3716
 5576SOL     OW22069   5.594   2.217   4.773 -0.1150 -0.5243  0.5270
 5576SOL    HW222070   5.662   2.263   4.724 -0.2235 -0.9518 -0.0280
 5576SOL    HW322071   5.633   2.202   4.859 -0.2622  1.0588  0.9108
 5576SOL    MW422072   5.608   2.221   4.778 -0.0223 -0.4173 -0.0981
 5577SOL     OW22073   1.992   2.595   3.532  0.7259 -0.4523  0.4839
 5577SOL    HW222074   2.084   2.596   3.505  0.5454  0.2665 -0.1500
 5577SOL    HW322075   1.948   2.650   3.467 -0.3162 -1.6066  0.1883
 5577SOL    MW422076   1.999   2.603   3.520  0.2238  0.2593  0.0275
 5578SOL     OW22077   1.208   0.978   5.437 -0.1003 -0.0834  0.7726
 5578SOL    HW222078   1.278   1.036   5.469  1.4783 -1.4974  0.0672
 5578SOL    HW322079   1.144   0.976   5.508  2.7117 -2.2047  3.5326
 5578SOL    MW422080   1.209   0.986   5.451 -0.0446  0.3415  0.6396
 5579SOL     OW22081   6.337   4.138   5.676  0.1865 -0.0628 -0.3818
 5579SOL    HW222082   6.372   4.071   5.735  1.9839  0.5868 -0.6784
 5579SOL    HW322083   6.251   4.158   5.713  0.2499 -1.4153  0.5999
 5579SOL    MW422084   6.330   4.131   5.689  0.2807  0.3144  0.0383
 5580SOL     OW22085   1.613   4.663   4.615 -0.2923  0.0828  0.2995
 5580SOL    HW222086   1.575   4.575   4.612 -0.4999  0.1661  0.4534
 5580SOL    HW322087   1.680   4.663   4.547 -0.2083 -0.2337  0.3827
 5580SOL    MW422088   1.617   4.652   4.606  0.2679  0.9339 -0.4890
 5581SOL     OW22089   2.727   1.112   2.039 -0.6410 -0.1802 -0.5803
 5581SOL    HW222090   2.706   1.190   2.090  2.1444  0.3692 -0.1115
 5581SOL    HW322091   2.738   1.145   1.949 -0.5757 -0.2247 -0.5890
 5581SOL    MW422092   2.726   1.127   2.034 -0.0431  0.4080  0.3749
 5582SOL     OW22093   4.011   0.653   4.850  0.0620  0.4263 -0.4196
 5582SOL    HW222094   4.100   0.671   4.880 -0.7785 -0.1126  2.8637
 5582SOL    HW322095   3.969   0.739   4.845  0.1782  0.5378  0.3288
 5582SOL    MW422096   4.017   0.667   4.853  0.1067  0.7208  0.9598
 5583SOL     OW22097   2.391   5.110   5.841  0.0836  0.1094  0.4768
 5583SOL    HW222098   2.373   5.086   5.750 -0.3984  0.1131  0.5699
 5583SOL    HW322099   2.461   5.175   5.835  1.2431 -1.1209  0.2108
 5583SOL    MW422100   2.398   5.116   5.828 -0.0111  0.3286 -0.0537
 5584SOL     OW22101   0.428   1.495   5.586 -0.1262  0.3571 -0.3846
 5584SOL    HW222102   0.511   1.453   5.564  0.1846  0.3740  0.6846
 5584SOL    HW322103   0.442   1.588   5.570 -0.9586  0.0982 -3.2004
 5584SOL    MW422104   0.441   1.501   5.581 -0.0167 -0.0488  0.4743
 5585SOL     OW22105   3.700   6.416   4.550  0.4720 -0.1530 -0.3851
 5585SOL    HW222106   3.703   6.366   4.631 -0.8635  0.9575  0.4067
 5585SOL    HW322107   3.664   6.356   4.485 -1.5963 -0.1314  0.6600
 5585SOL    MW422108   3.696   6.402   4.552 -0.1836 -0.3143 -0.4949
 5586SOL     OW22109   3.311   0.547   0.412  0.2418 -0.2375 -0.7040
 5586SOL    HW222110   3.248   0.619   0.416 -1.7868 -1.9372  0.4630
 5586SOL    HW322111   3.282   0.494   0.337 -1.4213 -2.3813  1.3137
 5586SOL    MW422112   3.299   0.550   0.402 -0.6754  0.0390 -0.3006
 5587SOL     OW22113   2.104   4.711   2.016 -0.1396  0.1004  0.4016
 5587SOL    HW222114   2.042   4.705   2.088 -0.7956 -0.7134 -0.2003
 5587SOL    HW322115   2.187   4.682   2.053 -0.4501 -0.2358  0.8482
 5587SOL    MW422116   2.107   4.706   2.030 -0.3132 -0.5663  0.4793
 5588SOL     OW22117   4.535   0.607   6.360 -0.2127  0.0323 -0.6375
 5588SOL    HW222118   4.577   0.540   6.307  3.4053  1.9335 -0.4798
 5588SOL    HW322119   4.505   0.672   6.296 -0.8908 -0.2270 -0.5977
 5588SOL    MW422120   4.536   0.607   6.344  0.2532  0.2718 -0.7548
 5589SOL     OW22121   4.464   3.284   0.110  0.1049 -0.1472  0.1146
 5589SOL    HW222122   4.384   3.234   0.096 -1.8032  2.6521  0.1736
 5589SOL    HW322123   4.532   3.234   0.066 -1.9187 -1.9474 -1.1701
 5589SOL    MW422124   4.462   3.271   0.103  0.5424 -0.1871 -0.1521
 5590SOL     OW22125   6.376   4.903   4.973  0.0557  0.1609 -0.0582
 5590SOL    HW222126   6.441   4.959   4.930  1.1198 -0.0779  1.1768
 5590SOL    HW322127   6.423   4.861   5.045 -1.1567 -1.0118  0.1043
 5590SOL    MW422128   6.390   4.905   4.977  0.1860  0.2528 -0.0139
 5591SOL     OW22129   0.747   3.224   5.513 -0.1340 -0.2413  0.1836
 5591SOL    HW222130   0.715   3.305   5.474  0.7641 -0.0034 -0.0842
 5591SOL    HW322131   0.806   3.252   5.582  1.4115 -0.6327 -0.9252
 5591SOL    MW422132   0.750   3.238   5.517 -0.5765 -0.0693 -0.8553
 5592SOL     OW22133   4.775   1.846   1.152  0.3413  0.1484  0.0679
 5592SOL    HW222134   4.856   1.895   1.164 -0.1486  0.5739  1.9192
 5592SOL    HW322135   4.740   1.879   1.069  1.6339  0.5495 -0.3429
 5592SOL    MW422136   4.781   1.857   1.142 -0.7668 -0.3757 -0.0933
 5593SOL     OW22137   0.678   4.087   1.531 -0.2344 -0.6383 -0.1649
 5593SOL    HW222138   0.671   3.996   1.558  1.5228 -0.9968 -0.7833
 5593SOL    HW322139   0.685   4.083   1.435 -0.5885  0.1695 -0.2270
 5593SOL    MW422140   0.678   4.075   1.522  0.7275 -0.0976  0.3188
 5594SOL     OW22141   5.167   1.617   2.008 -0.3545 -0.0364  0.2381
 5594SOL    HW222142   5.079   1.629   1.972 -0.7638 -1.3309  0.7406
 5594SOL    HW322143   5.162   1.533   2.055  1.3743 -0.5200 -0.3866
 5594SOL    MW422144   5.154   1.608   2.010  0.5026 -0.1539  0.3469
 5595SOL     OW22145   5.279   2.346   3.425  0.1018  0.2223  0.2517
 5595SOL    HW222146   5.309   2.434   3.448  1.0334  0.4222 -1.5604
 5595SOL    HW322147   5.257   2.352   3.332  1.0826 -1.6800 -0.1421
 5595SOL    MW422148   5.280   2.359   3.416 -0.1149 -0.3435 -0.1125
 5596SOL     OW22149   0.949   2.751   1.905  0.4621  0.2408  0.0939
 5596SOL    HW222150   0.881   2.798   1.954  0.8156  1.9688 -0.9593
 5596SOL    HW322151   0.997   2.702   1.971  0.2707  1.6515  1.3352
 5596SOL    MW422152   0.946   2.751   1.920 -0.4118 -0.1710 -0.2750
 5597SOL     OW22153   0.941   0.719   2.808  0.3244 -0.0972  0.1125
 5597SOL    HW222154   0.880   0.755   2.872 -0.5822 -1.4146  0.0269
 5597SOL    HW322155   1.007   0.787   2.797 -1.6684  1.8466 -0.5634
 5597SOL    MW422156   0.942   0.733   2.815 -0.0912  0.0587 -0.1806
 5598SOL     OW22157   3.801   4.184   5.386 -0.2375 -0.1399  0.2946
 5598SOL    HW222158   3.887   4.172   5.425 -0.4044 -1.3481  0.3491
 5598SOL    HW322159   3.743   4.128   5.439 -0.7253 -0.7013 -0.7886
 5598SOL    MW422160   3.804   4.175   5.398 -0.4916  0.6613  0.3608
 5599SOL     OW22161   1.116   4.624   1.914  0.7810 -0.0344  0.0990
 5599SOL    HW222162   1.027   4.629   1.951  1.3882  1.6578  1.4442
 5599SOL    HW322163   1.142   4.533   1.928 -0.4329 -0.3592  0.4273
 5599SOL    MW422164   1.107   4.613   1.921  0.1759 -0.0398  0.6192
 5600SOL     OW22165   1.722   4.439   6.273 -0.3744  0.3907  0.2992
 5600SOL    HW222166   1.749   4.527   6.297  1.8060 -0.1920  0.2030
 5600SOL    HW322167   1.697   4.446   6.181  0.2332  0.8229  0.1624
 5600SOL    MW422168   1.723   4.451   6.264 -0.2607  0.1583  0.0376
 5601SOL     OW22169   4.605   4.681   0.828 -0.0617  0.3038  0.5118
 5601SOL    HW222170   4.548   4.695   0.904  0.2833  0.6400  0.7130
 5601SOL    HW322171   4.694   4.682   0.864  0.0839  0.0186  0.1644
 5601SOL    MW422172   4.609   4.683   0.843 -0.3652  0.2938  0.5135
 5602SOL     OW22173   4.474   2.952   6.172  0.4622 -0.1157 -0.7272
 5602SOL    HW222174   4.428   2.976   6.252  1.5750  0.2597 -0.1779
 5602SOL    HW322175   4.413   2.895   6.125 -0.3428 -0.0547  0.2193
 5602SOL    MW422176   4.460   2.948   6.176 -0.0905  0.3002 -0.5072
 5603SOL     OW22177   1.268   3.649   3.070  0.9981  0.2214 -0.7588
 5603SOL    HW222178   1.205   3.714   3.101  1.8815  0.2623  1.0732
 5603SOL    HW322179   1.215   3.580   3.032 -0.1378  0.5576  0.1629
 5603SOL    MW422180   1.253   3.649   3.069 -0.3517  0.1031  0.1328
 5604SOL     OW22181   5.735   1.479   5.652  0.1213  0.6475  0.1635
 5604SOL    HW222182   5.790   1.418   5.702  1.0130  0.3210 -1.1603
 5604SOL    HW322183   5.798   1.539   5.612 -0.6605  1.5903  0.3433
 5604SOL    MW422184   5.751   1.479   5.653  0.1625 -0.2592  0.0597
 5605SOL     OW22185   3.552   3.551   4.134  0.5519 -0.2422  0.9260
 5605SOL    HW222186   3.502   3.582   4.058  0.6104 -1.5632  0.3039
 5605SOL    HW322187   3.643   3.569   4.111  0.6898 -1.8624  0.0192
 5605SOL    MW422188   3.557   3.557   4.121 -0.3143  0.0088  0.1050
 5606SOL     OW22189   4.647   6.392   0.844  0.8835 -0.1820  0.0811
 5606SOL    HW222190   4.601   6.476   0.840  0.7288 -0.2960 -0.8883
 5606SOL    HW322191   4.714   6.399   0.776 -0.4783 -1.6159 -1.4866
 5606SOL    MW422192   4.650   6.404   0.834 -0.8140  0.8446 -0.8141
 5607SOL     OW22193   0.622   1.348   3.206 -0.0088  0.0110  0.1568
 5607SOL    HW222194   0.717   1.349   3.201 -0.0266 -0.3482 -0.4415
 5607SOL    HW322195   0.598   1.438   3.225  0.5135 -0.2032  1.9659
 5607SOL    MW422196   0.631   1.360   3.208  0.4567  0.3345  0.1493
 5608SOL     OW22197   1.325   4.777   1.770 -0.4694 -0.1190 -0.8740
 5608SOL    HW222198   1.300   4.826   1.849  0.2565  0.7500 -1.1671
 5608SOL    HW322199   1.271   4.698   1.773 -2.1168  0.9576 -0.6720
 5608SOL    MW422200   1.314   4.773   1.781 -0.4081 -0.3574  0.1272
 5609SOL     OW22201   2.311   2.382   0.716 -0.6794  0.3360 -0.0829
 5609SOL    HW222202   2.326   2.293   0.750  2.2296  0.5511 -0.5259
 5609SOL    HW322203   2.227   2.408   0.755 -1.0439 -2.1338  1.0326
 5609SOL    MW422204   2.302   2.374   0.726 -0.2242  0.4577 -0.0516
 5610SOL     OW22205   0.163   1.707   3.579 -0.1277 -0.4227 -0.0669
 5610SOL    HW222206   0.079   1.688   3.538  0.8559  0.8138 -2.9531
 5610SOL    HW322207   0.211   1.624   3.576 -0.3419 -0.5260 -0.8137
 5610SOL    MW422208   0.159   1.693   3.573  0.4068 -0.3280  0.8355
 5611SOL     OW22209   5.880   3.285   3.076 -0.1223 -0.1710 -0.1143
 5611SOL    HW222210   5.961   3.310   3.032 -0.1744 -0.3794 -0.3330
 5611SOL    HW322211   5.881   3.189   3.075  0.5526 -0.2108  1.5945
 5611SOL    MW422212   5.891   3.275   3.070 -0.2204 -0.2281  0.0432
 5612SOL     OW22213   0.382   1.009   0.001  0.5332 -0.0970 -0.0017
 5612SOL    HW222214   0.373   0.930   0.054  0.6336 -0.0786  0.0434
 5612SOL    HW322215   0.352   1.080   0.058 -0.4630 -0.2125 -0.3669
 5612SOL    MW422216   0.377   1.008   0.016  0.0899  0.2813 -0.3342
 5613SOL     OW22217   5.788   1.535   4.225 -0.3277  0.2250  0.0954
 5613SOL    HW222218   5.834   1.590   4.288  1.6750 -2.0516  0.7905
 5613SOL    HW322219   5.733   1.477   4.278  1.3506 -1.6893 -0.1326
 5613SOL    MW422220   5.787   1.534   4.240  0.3904  0.7377  0.2630
 5614SOL     OW22221   3.513   2.630   5.678  0.4230  0.0518  0.2449
 5614SOL    HW222222   3.534   2.673   5.761 -0.1749 -0.7118  0.8049
 5614SOL    HW322223   3.526   2.537   5.695 -0.4237 -0.1735 -0.2958
 5614SOL    MW422224   3.517   2.623   5.691 -0.7144  0.1648 -0.0598
 5615SOL     OW22225   0.560   0.764   5.552  0.4606  0.5666 -0.6090
 5615SOL    HW222226   0.563   0.859   5.543 -1.7401  1.0088  1.9510
 5615SOL    HW322227   0.591   0.731   5.468 -2.0102  3.5744 -2.9707
 5615SOL    MW422228   0.564   0.772   5.540 -0.1310 -0.3620  0.0292
 5616SOL     OW22229   3.559   5.967   1.633 -0.3023  0.0932 -0.2411
 5616SOL    HW222230   3.539   6.058   1.611 -3.0872 -0.8448 -2.0804
 5616SOL    HW322231   3.505   5.915   1.574  0.7906 -2.7971  1.0909
 5616SOL    MW422232   3.549   5.972   1.623  0.5496  0.1334  0.0802
 5617SOL     OW22233   3.568   5.757   5.123 -0.0540  0.1182  0.5327
 5617SOL    HW222234   3.480   5.792   5.140 -0.6177 -0.9360 -0.0885
 5617SOL    HW322235   3.596   5.721   5.207 -0.1075  0.6757  0.7958
 5617SOL    MW422236   3.560   5.757   5.136  0.7967 -0.2701 -0.6060
 5618SOL     OW22237   4.555   0.948   2.091  0.0968 -0.1141  0.0159
 5618SOL    HW222238   4.543   0.916   2.001 -0.7369  2.7197 -0.9582
 5618SOL    HW322239   4.514   0.881   2.145 -3.4211  0.1465 -2.0273
 5618SOL    MW422240   4.548   0.935   2.086 -0.0410  0.2964  0.1859
 5619SOL     OW22241   1.930   1.143   3.137  0.7338 -0.4469 -0.2149
 5619SOL    HW222242   1.950   1.202   3.064  1.5165 -1.2560 -0.6744
 5619SOL    HW322243   1.929   1.199   3.214  0.5582  0.3134 -0.7599
 5619SOL    MW422244   1.933   1.158   3.137 -0.2111 -0.4385 -0.1412
 5620SOL     OW22245   4.072   1.412   3.553 -0.2825 -0.4322  0.3183
 5620SOL    HW222246   3.979   1.392   3.565 -0.3096 -0.3491  0.2400
 5620SOL    HW322247   4.108   1.407   3.642 -0.1085 -1.7278  0.1944
 5620SOL    MW422248   4.065   1.409   3.567 -0.3239  0.4524 -0.4288
 5621SOL     OW22249   0.584   4.467   1.320 -0.1278  0.5358 -0.7387
 5621SOL    HW222250   0.528   4.525   1.372  0.4603  0.9189 -0.5281
 5621SOL    HW322251   0.667   4.463   1.367  0.7897  1.7366 -2.1460
 5621SOL    MW422252   0.587   4.474   1.333  0.6114  0.4600  0.6310
 5622SOL     OW22253   1.040   6.024   2.030  0.1695  0.2808 -0.5856
 5622SOL    HW222254   1.021   6.109   2.069 -0.5488 -0.7223  1.3542
 5622SOL    HW322255   1.130   6.032   2.000 -0.0103  1.8439 -0.8461
 5622SOL    MW422256   1.049   6.037   2.031  0.4757  0.0485  0.4379
 5623SOL     OW22257   2.986   0.201   4.317  0.2936  0.5128 -0.7232
 5623SOL    HW222258   2.928   0.153   4.258 -2.1975 -0.1414  2.0178
 5623SOL    HW322259   2.948   0.289   4.323  1.9742  1.3860 -1.8909
 5623SOL    MW422260   2.973   0.206   4.310  0.4684  0.2519  0.1631
 5624SOL     OW22261   1.246   6.050   0.043  0.4345 -0.1641  0.2340
 5624SOL    HW222262   1.336   6.028   0.067  1.4471  2.2655 -1.0160
 5624SOL    HW322263   1.255   6.107  -0.033 -2.2159 -0.3461 -0.2938
 5624SOL    MW422264   1.259   6.054   0.036 -0.6153  0.0039  0.2265
 5625SOL     OW22265   4.009   4.335   4.035  0.4986 -0.3843 -0.3334
 5625SOL    HW222266   3.969   4.332   4.122 -0.3036 -0.3766 -0.6951
 5625SOL    HW322267   3.963   4.268   3.985  2.3756 -1.8773 -0.1880
 5625SOL    MW422268   3.997   4.326   4.040  0.5217  0.2863 -0.2494
 5626SOL     OW22269   3.094   5.669   2.593  0.3136  0.6815 -0.4802
 5626SOL    HW222270   3.038   5.698   2.521 -0.4629  3.1250  0.9966
 5626SOL    HW322271   3.077   5.575   2.601 -0.7310  0.6666 -2.4623
 5626SOL    MW422272   3.084   5.661   2.585  0.0709  0.6026 -0.0676
 5627SOL     OW22273   2.543   2.549   0.750  0.1899  0.5749 -0.7478
 5627SOL    HW222274   2.535   2.604   0.672  0.6839  0.0301 -1.1832
 5627SOL    HW322275   2.490   2.472   0.731 -0.7309  1.0033 -0.0225
 5627SOL    MW422276   2.535   2.546   0.738  1.0465  0.1484  0.1085
 5628SOL     OW22277   6.404   2.996   2.932  0.1119 -0.4985 -0.2450
 5628SOL    HW222278   6.489   3.033   2.909 -0.9159  0.8868 -2.0278
 5628SOL    HW322279   6.373   2.953   2.852 -1.4177  0.1231 -0.0161
 5628SOL    MW422280   6.411   2.995   2.919 -0.8460 -0.0131 -0.0636
 5629SOL     OW22281   2.418   2.741   0.971  0.5604  0.1081 -0.0968
 5629SOL    HW222282   2.326   2.716   0.975 -0.0015  1.9547 -0.3081
 5629SOL    HW322283   2.465   2.659   0.955 -1.1745 -0.6562 -1.6718
 5629SOL    MW422284   2.412   2.727   0.970  0.0057  0.0633 -0.1291
 5630SOL     OW22285   1.521   5.267   5.495  0.3814 -0.1555 -0.2949
 5630SOL    HW222286   1.551   5.355   5.471  1.5769 -0.1412  1.0560
 5630SOL    HW322287   1.544   5.259   5.588 -1.2522 -1.2817  0.0489
 5630SOL    MW422288   1.528   5.278   5.504 -0.7095  0.8302  0.8978
 5631SOL     OW22289   5.913   3.771   0.388  0.2447 -0.5836 -0.4268
 5631SOL    HW222290   5.859   3.790   0.311 -0.3352 -1.5473 -0.2713
 5631SOL    HW322291   5.933   3.857   0.425  0.9529 -0.0702 -1.9264
 5631SOL    MW422292   5.909   3.785   0.383 -0.6568  0.4960 -0.6889
 5632SOL     OW22293   4.800   6.389   4.854 -0.2849 -0.0067  0.1432
 5632SOL    HW222294   4.784   6.321   4.919 -1.5535 -0.7410 -0.8717
 5632SOL    HW322295   4.714   6.430   4.841 -0.3070 -0.5574 -1.7763
 5632SOL    MW422296   4.786   6.385   4.861 -0.1935  0.3914 -0.2082
 5633SOL     OW22297   5.413   3.037   5.502 -0.3976 -0.1794  0.2658
 5633SOL    HW222298   5.347   3.100   5.472 -0.0352  0.9575  1.7607
 5633SOL    HW322299   5.496   3.084   5.496  0.0262 -0.9075  0.3111
 5633SOL    MW422300   5.415   3.052   5.497 -0.7899  0.0368  0.5264
 5634SOL     OW22301   6.039   1.987   1.670 -0.4045 -0.3545  0.6341
 5634SOL    HW222302   6.079   2.008   1.754  0.9604 -1.1502  0.2180
 5634SOL    HW322303   6.015   2.072   1.633  1.3039  0.2140  0.7424
 5634SOL    MW422304   6.042   2.001   1.676  0.2415 -0.2238  0.0313
 5635SOL     OW22305   1.508   5.850   3.252 -0.1173  0.3841 -0.1758
 5635SOL    HW222306   1.508   5.761   3.289  0.9837  0.0513 -0.9558
 5635SOL    HW322307   1.451   5.843   3.176  1.4523 -0.1572 -1.3504
 5635SOL    MW422308   1.500   5.837   3.247 -0.1007  0.2658  0.5650
 5636SOL     OW22309   3.481   2.444   0.433  0.0502 -0.0121 -0.0245
 5636SOL    HW222310   3.453   2.529   0.398  0.0122 -0.9633 -2.5385
 5636SOL    HW322311   3.402   2.390   0.429  0.0894 -0.2073  1.4966
 5636SOL    MW422312   3.467   2.448   0.428 -0.5219 -0.5026 -0.1882
 5637SOL     OW22313   2.145   0.719   1.875  0.1690  0.2301 -0.0800
 5637SOL    HW222314   2.211   0.652   1.891  1.1199  1.3590  0.8285
 5637SOL    HW322315   2.124   0.710   1.782  1.0767 -0.6043 -0.2201
 5637SOL    MW422316   2.151   0.709   1.865  0.2565 -0.1218 -0.0271
 5638SOL     OW22317   4.756   1.362   0.634 -0.2972  0.1543 -0.2825
 5638SOL    HW222318   4.713   1.408   0.562 -1.1032 -0.0081  0.0819
 5638SOL    HW322319   4.759   1.271   0.606 -2.1552 -0.2247  0.5504
 5638SOL    MW422320   4.751   1.356   0.621 -0.0431 -0.2538  0.1301
 5639SOL     OW22321   0.886   3.503   4.321 -0.2139 -0.2749  0.5423
 5639SOL    HW222322   0.804   3.484   4.367 -0.9507 -0.4444 -0.7758
 5639SOL    HW322323   0.897   3.597   4.331 -0.7526 -0.1961  0.4454
 5639SOL    MW422324   0.877   3.513   4.329  0.0328  0.3007 -0.1277
 5640SOL     OW22325   4.507   5.848   4.672  0.4076 -0.2006 -0.3395
 5640SOL    HW222326   4.522   5.791   4.747 -0.3205 -0.2787 -0.2455
 5640SOL    HW322327   4.500   5.788   4.598 -1.0390 -0.3077 -0.1413
 5640SOL    MW422328   4.508   5.833   4.672 -0.0923 -0.1105 -0.2436
 5641SOL     OW22329   1.319   0.106   4.466  0.7015  0.3032  0.4896
 5641SOL    HW222330   1.414   0.092   4.462  0.8524  1.3413  0.2525
 5641SOL    HW322331   1.294   0.130   4.377  0.3096  0.5854  0.6708
 5641SOL    MW422332   1.328   0.107   4.454  0.0359  0.1565  0.9359
 5642SOL     OW22333   2.252   5.640   2.310  0.1884 -0.0685  0.2180
 5642SOL    HW222334   2.210   5.718   2.274  0.5256 -0.3451 -0.8054
 5642SOL    HW322335   2.270   5.585   2.234 -2.4107 -2.3613  1.1171
 5642SOL    MW422336   2.249   5.643   2.295 -0.2343  0.0792 -0.2016
 5643SOL     OW22337   4.802   6.237   3.171  0.2612 -0.2363  0.0271
 5643SOL    HW222338   4.770   6.216   3.259  0.7458  1.3729  0.6229
 5643SOL    HW322339   4.855   6.162   3.146  1.1271 -0.1985  1.6303
 5643SOL    MW422340   4.804   6.225   3.180 -0.2251 -0.2525 -0.4559
 5644SOL     OW22341   3.916   3.484   1.197  0.0029  0.0005  0.1150
 5644SOL    HW222342   3.931   3.571   1.235 -1.4208  0.0559  0.6361
 5644SOL    HW322343   3.822   3.481   1.182 -0.1758 -1.8951  1.2686
 5644SOL    MW422344   3.906   3.495   1.200  0.4263  0.4628 -0.4312
 5645SOL     OW22345   0.599   4.145   2.781  0.4903  0.2220 -0.3059
 5645SOL    HW222346   0.680   4.135   2.731 -0.8596  1.7828 -3.0709
 5645SOL    HW322347   0.627   4.169   2.869  3.0174 -2.1052 -0.3269
 5645SOL    MW422348   0.613   4.147   2.786  0.2773  0.1722  0.2404
 5646SOL     OW22349   1.784   4.894   3.589  0.0819 -0.1371  0.3765
 5646SOL    HW222350   1.849   4.868   3.653  1.4804  1.3342 -0.3813
 5646SOL    HW322351   1.763   4.984   3.610 -0.0191  0.1250 -0.7535
 5646SOL    MW422352   1.790   4.902   3.600 -0.1690 -0.2594 -0.7299
 5647SOL     OW22353   3.801   2.897   4.911  0.2434  0.6759  0.0250
 5647SOL    HW222354   3.771   2.983   4.881 -0.4808  0.7721  0.9762
 5647SOL    HW322355   3.733   2.868   4.971  1.3442  0.2007  1.0699
 5647SOL    MW422356   3.788   2.904   4.915 -0.1589 -0.1849 -0.0533
 5648SOL     OW22357   4.227   2.639   4.575 -0.9631  0.6523  0.3467
 5648SOL    HW222358   4.322   2.644   4.576 -0.9604  0.6277  1.8829
 5648SOL    HW322359   4.205   2.626   4.483  0.4240  2.4374 -0.3015
 5648SOL    MW422360   4.236   2.638   4.563  0.6215 -0.4967  0.4142
 5649SOL     OW22361   4.259   4.424   1.362 -0.4740 -0.2504  0.0198
 5649SOL    HW222362   4.322   4.468   1.305  0.0928 -0.7575  0.2449
 5649SOL    HW322363   4.274   4.331   1.348 -0.2808 -0.3871  1.0275
 5649SOL    MW422364   4.269   4.417   1.353 -0.8138 -0.4487  0.2088
 5650SOL     OW22365   6.051   5.840   5.897 -0.0465  0.6612  0.7489
 5650SOL    HW222366   6.080   5.867   5.984 -0.0867  0.9270  0.6806
 5650SOL    HW322367   6.019   5.751   5.909 -0.1349  0.7287  1.0252
 5650SOL    MW422368   6.050   5.832   5.910  0.0228 -0.1426 -0.3019
 5651SOL     OW22369   4.908   6.383   2.629 -0.0953 -0.0840 -0.1497
 5651SOL    HW222370   4.900   6.410   2.720 -0.2609  0.3548 -0.2900
 5651SOL    HW322371   4.822   6.350   2.605 -1.0057  2.6408 -1.0276
 5651SOL    MW422372   4.896   6.382   2.638 -0.1288 -0.2017 -0.7787
 5652SOL     OW22373   3.640   4.207   5.757  0.2404 -0.1552  0.0951
 5652SOL    HW222374   3.579   4.238   5.690  0.0397 -1.2982 -0.2601
 5652SOL    HW322375   3.604   4.242   5.839 -0.4380 -0.1420 -0.2013
 5652SOL    MW422376   3.627   4.216   5.759  0.0375 -0.7274 -0.1897
 5653SOL     OW22377   5.527   1.443   2.617  0.3130 -0.0015  0.3228
 5653SOL    HW222378   5.590   1.479   2.679 -1.1646 -0.8695  2.4372
 5653SOL    HW322379   5.581   1.389   2.558  2.0091  2.3995 -0.4682
 5653SOL    MW422380   5.543   1.440   2.617  0.1047 -0.0068 -0.3966
 5654SOL     OW22381   2.542   2.482   1.013  0.0833  0.6138  0.0616
 5654SOL    HW222382   2.623   2.517   1.050  0.2818 -0.7646  1.0005
 5654SOL    HW322383   2.558   2.477   0.919  1.2353  0.0511  0.2723
 5654SOL    MW422384   2.555   2.486   1.005  0.1366 -0.0468 -0.4637
 5655SOL     OW22385   1.247   6.297   4.832  0.4250  0.3621 -0.1703
 5655SOL    HW222386   1.225   6.374   4.779  0.9642 -0.2993 -1.4031
 5655SOL    HW322387   1.305   6.330   4.900  1.6924  0.8629 -1.4569
 5655SOL    MW422388   1.251   6.311   4.834  0.0079 -0.4133 -0.8985
 5656SOL     OW22389   2.689   3.874   2.795  0.2775  0.4743  0.0001
 5656SOL    HW222390   2.670   3.848   2.885 -2.3821 -0.4885 -0.7368
 5656SOL    HW322391   2.670   3.796   2.743  0.7754  1.3104 -1.5003
 5656SOL    MW422392   2.684   3.860   2.800 -0.5502 -0.5315  0.2217
 5657SOL     OW22393   4.044   0.742   3.663  0.1799  0.2115 -0.2194
 5657SOL    HW222394   3.986   0.697   3.601 -1.0154 -0.0536  1.0379
 5657SOL    HW322395   4.044   0.686   3.741 -0.2112  1.6435  0.8552
 5657SOL    MW422396   4.036   0.729   3.665 -0.1147  0.3681  0.1526
 5658SOL     OW22397   5.651   2.566   6.374  0.3983  0.3416  0.7004
 5658SOL    HW222398   5.623   2.475   6.382 -2.7983  1.1153 -0.1233
 5658SOL    HW322399   5.724   2.563   6.312 -0.1426 -1.6083  0.0598
 5658SOL    MW422400   5.657   2.553   6.367  0.2331 -0.5233  0.6446
 5659SOL     OW22401   5.134   1.869   4.519 -0.4788 -0.1246  0.3559
 5659SOL    HW222402   5.174   1.910   4.442 -0.4562  2.2867  1.5350
 5659SOL    HW322403   5.181   1.908   4.593  0.6687 -3.6214  1.6485
 5659SOL    MW422404   5.146   1.880   4.519 -0.2500 -0.1951  0.4731
 5660SOL     OW22405   5.516   3.729   4.443 -0.4811  0.1433 -0.9185
 5660SOL    HW222406   5.495   3.820   4.462  3.1228  0.9727 -0.1504
 5660SOL    HW322407   5.611   3.729   4.428  0.2174 -3.8073  1.8196
 5660SOL    MW422408   5.526   3.741   4.444  0.0424 -0.1946  0.2157
 5661SOL     OW22409   5.059   5.683   5.376  0.0208  0.1141 -0.0240
 5661SOL    HW222410   4.969   5.700   5.349 -0.1458  0.6194  0.8008
 5661SOL    HW322411   5.053   5.667   5.470  0.6954 -0.6416 -0.1001
 5661SOL    MW422412   5.047   5.683   5.385  0.1487  0.0098  0.1836
 5662SOL     OW22413   2.185   2.440   1.478  0.2930  0.3315  0.6077
 5662SOL    HW222414   2.105   2.417   1.432 -1.1052  1.9284  2.1042
 5662SOL    HW322415   2.249   2.375   1.449 -1.3486 -0.5955 -1.1201
 5662SOL    MW422416   2.183   2.428   1.468  0.0008  0.2952 -0.1280
 5663SOL     OW22417   4.929   2.818   0.695  0.6681 -0.5313  0.0185
 5663SOL    HW222418   4.841   2.813   0.659  0.7659  0.2238 -0.3394
 5663SOL    HW322419   4.923   2.772   0.779  0.0876 -1.0242 -0.2927
 5663SOL    MW422420   4.917   2.812   0.702  0.1673  0.4260  0.1213
 5664SOL     OW22421   5.210   4.589   5.193  0.2455 -0.6209 -0.1821
 5664SOL    HW222422   5.245   4.661   5.141  0.9625 -1.0061 -0.2549
 5664SOL    HW322423   5.122   4.574   5.157 -0.2041  0.6787  0.3201
 5664SOL    MW422424   5.203   4.596   5.181 -0.2706 -0.1783  0.5965
 5665SOL     OW22425   0.325   4.996   2.592 -0.2568 -0.0845 -0.1946
 5665SOL    HW222426   0.403   4.943   2.606 -0.4835 -0.2786  0.3765
 5665SOL    HW322427   0.290   5.012   2.680 -0.8681 -0.0219 -0.4394
 5665SOL    MW422428   0.330   4.991   2.605 -0.1318 -0.6628 -0.2161
 5666SOL     OW22429   2.116   4.987   1.994 -0.3564  0.1906 -0.1772
 5666SOL    HW222430   2.028   5.019   2.014 -0.1109  0.7814 -0.0272
 5666SOL    HW322431   2.114   4.895   2.019 -1.0946  0.0561 -0.6717
 5666SOL    MW422432   2.104   4.979   2.000 -0.0117 -0.3331 -0.2107
 5667SOL     OW22433   3.948   6.280   0.387  0.6753 -0.6618  0.5813
 5667SOL    HW222434   3.901   6.200   0.361  0.6485 -0.4646  0.0154
 5667SOL    HW322435   3.993   6.308   0.308 -0.6287  0.8033  0.3092
 5667SOL    MW422436   3.947   6.273   0.373  0.2095  0.0963  0.3092
 5668SOL     OW22437   1.090   5.842   1.360 -0.0520 -0.4414  0.1180
 5668SOL    HW222438   1.031   5.844   1.285 -0.5078 -2.3399  0.3666
 5668SOL    HW322439   1.034   5.861   1.435  0.3734  1.3026  0.0234
 5668SOL    MW422440   1.075   5.844   1.360  0.3552  0.0908  1.0548
 5669SOL     OW22441   2.366   1.376   2.893 -0.7515 -1.1480 -0.1409
 5669SOL    HW222442   2.371   1.331   2.977  1.5410 -1.0685 -0.1811
 5669SOL    HW322443   2.448   1.354   2.849 -1.2847 -0.0416 -1.7693
 5669SOL    MW422444   2.377   1.368   2.898 -0.3580 -0.1921  0.1129
 5670SOL     OW22445   5.516   4.991   2.246 -0.4815  0.2740  0.1961
 5670SOL    HW222446   5.573   4.962   2.174 -1.7858 -1.2131 -0.2990
 5670SOL    HW322447   5.459   5.058   2.206  0.2233  1.0340  0.4353
 5670SOL    MW422448   5.516   4.996   2.231 -0.2889 -0.5940  0.4100
 5671SOL     OW22449   6.256   0.491   3.961  0.5797  0.3898 -1.2349
 5671SOL    HW222450   6.345   0.514   3.933  0.7000 -0.3809 -1.5243
 5671SOL    HW322451   6.242   0.404   3.923  1.1747 -1.2574  2.0108
 5671SOL    MW422452   6.266   0.482   3.952 -0.3289 -0.1635 -0.9468
 5672SOL     OW22453   3.140   3.079   2.110  0.0666  0.5243  0.1484
 5672SOL    HW222454   3.190   3.157   2.134  0.5338 -0.2846  1.9199
 5672SOL    HW322455   3.075   3.070   2.179  0.9800 -1.4749  0.8209
 5672SOL    MW422456   3.138   3.088   2.122 -0.3688 -0.6776  0.0683
 5673SOL     OW22457   5.093   2.242   5.237 -0.0618  0.0419 -0.0016
 5673SOL    HW222458   5.106   2.308   5.169  1.8406 -0.5171 -0.2285
 5673SOL    HW322459   5.003   2.212   5.224 -0.0238  0.5800 -1.6993
 5673SOL    MW422460   5.083   2.247   5.226 -0.1190  0.1886 -0.2292
 5674SOL     OW22461   4.736   1.638   6.078 -0.0747  0.2300 -0.1990
 5674SOL    HW222462   4.748   1.707   6.013 -0.9801  2.5354  1.9194
 5674SOL    HW322463   4.805   1.654   6.143 -0.9207 -0.2248  0.8374
 5674SOL    MW422464   4.747   1.649   6.078  0.0580 -0.0788  0.3195
 5675SOL     OW22465   3.299   5.164   2.017 -0.0959 -0.1631 -0.0921
 5675SOL    HW222466   3.374   5.119   2.055 -0.0905 -0.8023 -0.8565
 5675SOL    HW322467   3.238   5.095   1.995  0.3882  0.0640 -2.3485
 5675SOL    MW422468   3.301   5.149   2.019  0.2741 -0.4722  0.7307
 5676SOL     OW22469   6.104   1.215   4.849 -0.0469 -0.1194  0.0948
 5676SOL    HW222470   6.074   1.303   4.824  2.9068  1.0354  0.2546
 5676SOL    HW322471   6.100   1.214   4.945  0.0041 -0.1318  0.0969
 5676SOL    MW422472   6.099   1.226   4.858 -0.8777  0.5168 -0.5168
 5677SOL     OW22473   4.949   4.202   4.196  0.0642 -0.2667 -0.3266
 5677SOL    HW222474   5.037   4.207   4.158  0.4229  0.1551  0.5129
 5677SOL    HW322475   4.932   4.291   4.229 -0.1790 -0.6281  0.5700
 5677SOL    MW422476   4.958   4.215   4.196  0.3148  0.4191  0.1230
 5678SOL     OW22477   1.658   1.545   3.980  0.1151  0.6858  0.0871
 5678SOL    HW222478   1.593   1.482   4.010  0.0824  0.0658 -1.2216
 5678SOL    HW322479   1.742   1.510   4.010  0.0043  0.5704  0.2633
 5678SOL    MW422480   1.660   1.532   3.988 -0.7109 -0.1233 -0.2305
 5679SOL     OW22481   3.085   0.928   4.644 -0.0843  0.3945 -0.1416
 5679SOL    HW222482   3.097   0.841   4.680  0.2495  0.7480  0.6109
 5679SOL    HW322483   3.095   0.987   4.718 -1.4539  1.0182 -0.4201
 5679SOL    MW422484   3.088   0.924   4.658  0.0215  0.2495  1.2147
 5680SOL     OW22485   5.683   5.331   5.723  0.2510  0.3464 -0.3476
 5680SOL    HW222486   5.678   5.413   5.772  2.0900  1.9390 -2.6493
 5680SOL    HW322487   5.760   5.286   5.759 -0.8408 -0.5177  1.0137
 5680SOL    MW422488   5.692   5.336   5.734 -0.3834 -0.2525  0.2668
 5681SOL     OW22489   2.899   1.967   0.742 -0.0609  0.0942 -0.3320
 5681SOL    HW222490   2.855   2.039   0.787  0.7649  0.7087 -0.4882
 5681SOL    HW322491   2.850   1.889   0.769 -1.1125  0.7272 -0.3405
 5681SOL    MW422492   2.886   1.966   0.752  0.5034 -0.0123 -0.2279
 5682SOL     OW22493   2.500   4.314   1.534 -0.2043  0.2945  0.4119
 5682SOL    HW222494   2.413   4.338   1.501  0.0066 -0.3975 -0.6761
 5682SOL    HW322495   2.492   4.223   1.562  0.3230  0.0339 -0.2639
 5682SOL    MW422496   2.487   4.305   1.533  0.2103  0.3246 -0.0994
 5683SOL     OW22497   4.850   1.890   4.821  0.2858  0.2758 -0.4695
 5683SOL    HW222498   4.874   1.808   4.776  1.6414  0.3306  0.0983
 5683SOL    HW322499   4.865   1.958   4.756 -1.5672  0.0583 -1.1981
 5683SOL    MW422500   4.855   1.888   4.807  0.2146 -0.0448  0.2011
 5684SOL     OW22501   0.574   2.279   1.139  0.1734  0.0677 -0.1147
 5684SOL    HW222502   0.537   2.256   1.054  0.0274  3.2860 -1.0604
 5684SOL    HW322503   0.666   2.297   1.122 -0.4516  3.7604 -0.4329
 5684SOL    MW422504   0.581   2.279   1.126 -0.2578  0.9361 -0.3709
 5685SOL     OW22505   5.146   5.286   4.535 -0.1843  0.0840 -0.6451
 5685SOL    HW222506   5.187   5.371   4.552  1.4622 -0.7051 -0.5287
 5685SOL    HW322507   5.090   5.302   4.459  0.3005  1.1980 -0.7947
 5685SOL    MW422508   5.144   5.300   4.527 -0.0194 -0.0919 -0.0232
 5686SOL     OW22509   1.765   6.094   5.559 -0.1408  0.2826 -0.0963
 5686SOL    HW222510   1.755   5.999   5.561 -2.9099  0.3751 -2.3995
 5686SOL    HW322511   1.857   6.107   5.537  0.1212 -1.9081 -0.5960
 5686SOL    MW422512   1.776   6.083   5.556  0.4537 -0.0978 -0.3504
 5687SOL     OW22513   6.399   2.827   5.801  0.1441  0.1007  0.4406
 5687SOL    HW222514   6.480   2.871   5.774  0.8451 -0.6882  1.2411
 5687SOL    HW322515   6.423   2.774   5.877 -1.0905 -0.2690  0.6039
 5687SOL    MW422516   6.413   2.826   5.807  0.3280 -0.0471  0.5080
 5688SOL     OW22517   4.583   3.417   0.389 -0.1837 -0.1229  0.3493
 5688SOL    HW222518   4.499   3.462   0.399 -1.0689 -1.5541 -0.3607
 5688SOL    HW322519   4.625   3.462   0.316  0.2363  1.3774  1.4605
 5688SOL    MW422520   4.577   3.429   0.381 -0.7303 -0.2728  0.2994
 5689SOL     OW22521   5.966   2.154   5.098  0.9401 -0.0347 -0.4086
 5689SOL    HW222522   6.019   2.190   5.027  0.6698 -0.2263 -0.7123
 5689SOL    HW322523   6.023   2.156   5.174  0.8489  1.2406 -0.3670
 5689SOL    MW422524   5.980   2.159   5.098  0.3757 -0.1935 -0.3664
 5690SOL     OW22525   1.922   2.509   0.135 -0.7419  0.3983  0.2981
 5690SOL    HW222526   1.975   2.466   0.067 -0.5182 -0.6747  1.1344
 5690SOL    HW322527   1.986   2.539   0.199 -0.8982  1.9834 -0.2481
 5690SOL    MW422528   1.938   2.507   0.134 -0.1257 -0.6577  0.1252
 5691SOL     OW22529   3.523   5.573   2.891  0.1032 -0.2296  0.3286
 5691SOL    HW222530   3.484   5.565   2.804 -0.1570  1.6670  0.2308
 5691SOL    HW322531   3.608   5.614   2.876 -0.0343  0.3123  0.9757
 5691SOL    MW422532   3.529   5.577   2.878 -0.4813  0.1039  0.6990
 5692SOL     OW22533   1.034   2.976   3.538 -0.0954 -0.0797  0.0696
 5692SOL    HW222534   0.994   3.037   3.600 -0.8661  0.0952 -0.5776
 5692SOL    HW322535   1.127   2.996   3.541 -0.3376  1.1451 -0.1287
 5692SOL    MW422536   1.041   2.987   3.546 -0.2131  0.2718  0.5766
 5693SOL     OW22537   0.309   4.491   4.207  0.8578  0.2816 -0.5044
 5693SOL    HW222538   0.235   4.460   4.259  0.2662 -0.1938 -1.5904
 5693SOL    HW322539   0.387   4.458   4.253  0.4050  0.7094  0.5987
 5693SOL    MW422540   0.310   4.483   4.220  0.0593 -0.2082  0.0246
 5694SOL     OW22541   4.777   5.439   5.072  0.1447  0.1312  0.1477
 5694SOL    HW222542   4.848   5.375   5.064  0.5944  0.3924  1.6618
 5694SOL    HW322543   4.697   5.386   5.072  0.5107 -0.4738  1.3666
 5694SOL    MW422544   4.776   5.424   5.071 -0.7063 -0.0193 -0.5269
 5695SOL     OW22545   0.520   4.704   3.963 -0.3363 -0.4503  0.3054
 5695SOL    HW222546   0.530   4.662   3.877 -0.2648 -0.1393  0.1613
 5695SOL    HW322547   0.584   4.775   3.963  1.8560 -2.2632  1.7778
 5695SOL    MW422548   0.530   4.707   3.952  0.1640  0.3290 -0.0719
 5696SOL     OW22549   0.917   4.742   3.941  0.3025 -0.2095  0.1712
 5696SOL    HW222550   0.944   4.747   3.850  2.0562 -1.6043  0.5681
 5696SOL    HW322551   0.871   4.659   3.949 -0.6659  0.3257  0.3869
 5696SOL    MW422552   0.914   4.732   3.930 -0.0566 -0.5700 -0.4649
 5697SOL     OW22553   2.157   6.030   0.873 -0.2298  0.6477  0.4047
 5697SOL    HW222554   2.115   5.956   0.918  2.2889  0.1318  2.0884
 5697SOL    HW322555   2.110   6.107   0.905 -1.5824 -0.0591  0.1901
 5697SOL    MW422556   2.145   6.030   0.883  0.3760 -0.0006  0.4149
 5698SOL     OW22557   1.100   3.366   2.697 -0.0795 -0.0328 -0.1636
 5698SOL    HW222558   1.183   3.355   2.650 -0.4231  0.2920 -0.8722
 5698SOL    HW322559   1.086   3.460   2.699 -1.1885 -0.1308 -1.4671
 5698SOL    MW422560   1.109   3.377   2.691 -0.0130  0.1246 -0.1009
 5699SOL     OW22561   4.766   3.140   0.748  0.2862  0.1004 -0.0953
 5699SOL    HW222562   4.858   3.115   0.748  0.8391  1.9135  1.5912
 5699SOL    HW322563   4.761   3.215   0.689 -0.3621 -0.6555 -1.0413
 5699SOL    MW422564   4.777   3.147   0.740 -0.4672 -0.2478 -0.2529
 5700SOL     OW22565   4.852   2.587   2.825 -0.0242 -0.5233 -0.1510
 5700SOL    HW222566   4.830   2.675   2.854  0.7718 -0.4194  0.1843
 5700SOL    HW322567   4.786   2.531   2.864 -2.0772  0.1543 -2.4069
 5700SOL    MW422568   4.841   2.591   2.834 -0.2737 -0.6399  0.2793
 5701SOL     OW22569   4.115   4.945   4.369 -0.4206  0.3795 -0.0909
 5701SOL    HW222570   4.149   4.977   4.285 -1.7283 -1.4982 -1.4203
 5701SOL    HW322571   4.031   4.990   4.379 -0.8672 -0.3379 -0.4776
 5701SOL    MW422572   4.108   4.955   4.359 -0.2734 -0.4229  0.1683
 5702SOL     OW22573   5.747   5.624   1.669 -0.1642  0.3747 -0.5678
 5702SOL    HW222574   5.722   5.578   1.590 -0.1141 -1.2352  0.3212
 5702SOL    HW322575   5.840   5.605   1.680 -0.0365  1.0546 -0.4145
 5702SOL    MW422576   5.756   5.616   1.660 -0.1332  0.0183 -0.6840
 5703SOL     OW22577   2.357   3.889   2.580 -0.0644  0.4268 -0.2511
 5703SOL    HW222578   2.412   3.846   2.515 -0.5575  0.5948 -0.7867
 5703SOL    HW322579   2.417   3.949   2.626  0.4911 -0.3723  0.0924
 5703SOL    MW422580   2.372   3.891   2.577  0.2883  0.2534 -0.1972
 5704SOL     OW22581   1.087   2.087   4.851  0.2034  0.0766 -0.0082
 5704SOL    HW222582   1.022   2.089   4.922  0.0922  0.9218 -0.1258
 5704SOL    HW322583   1.054   2.020   4.791 -0.9844  1.0229 -0.4540
 5704SOL    MW422584   1.074   2.078   4.852 -0.6786  0.1205 -0.5393
 5705SOL     OW22585   0.616   2.771   0.434  0.1212  0.1002  0.6554
 5705SOL    HW222586   0.599   2.805   0.346 -0.5797 -1.3363  0.2091
 5705SOL    HW322587   0.697   2.722   0.427 -0.8157 -1.4820  0.3488
 5705SOL    MW422588   0.624   2.769   0.422 -0.1164 -0.4041 -0.3552
 5706SOL     OW22589   3.834   4.069   0.595  0.7733 -0.2920 -0.1203
 5706SOL    HW222590   3.775   4.144   0.595 -0.5426 -1.2561  1.4069
 5706SOL    HW322591   3.782   3.997   0.559  2.2079 -0.3955 -2.1361
 5706SOL    MW422592   3.819   4.069   0.591  0.4026 -0.2232  0.6297
 5707SOL     OW22593   3.522   4.987   2.082 -0.0116  0.0552 -0.1444
 5707SOL    HW222594   3.586   5.026   2.140  0.3729 -0.4559 -0.2153
 5707SOL    HW322595   3.530   5.035   2.000 -0.2944  0.5306  0.1039
 5707SOL    MW422596   3.531   4.998   2.079 -0.4207 -0.5795  0.2446
 5708SOL     OW22597   5.953   0.015   4.367  0.2046 -0.5047  0.0237
 5708SOL    HW222598   5.924  -0.030   4.287  2.9174 -1.3343 -0.5794
 5708SOL    HW322599   5.975   0.103   4.338  0.5582 -0.6065 -0.0220
 5708SOL    MW422600   5.952   0.021   4.352  0.0235  0.0790 -0.3664
 5709SOL     OW22601   1.344   3.360   4.436 -0.0061  0.4878 -0.7125
 5709SOL    HW222602   1.404   3.373   4.364 -0.0049 -4.8365 -2.1029
 5709SOL    HW322603   1.395   3.381   4.514  1.6801  1.5735 -2.0337
 5709SOL    MW422604   1.358   3.364   4.437 -0.0251 -0.2531 -0.1899
 5710SOL     OW22605   2.164   4.346   2.205 -0.5168 -0.4112 -0.0716
 5710SOL    HW222606   2.236   4.298   2.245  2.2100  2.2029 -1.4582
 5710SOL    HW322607   2.136   4.408   2.272 -0.2521 -0.2494 -0.1090
 5710SOL    MW422608   2.169   4.347   2.219 -0.1392  0.3024 -0.4459
 5711SOL     OW22609   5.255   3.898   0.502 -0.5342 -0.4042  0.0353
 5711SOL    HW222610   5.243   3.965   0.435  0.0380  0.3450  0.6629
 5711SOL    HW322611   5.173   3.849   0.503 -1.0909  0.5106 -0.1812
 5711SOL    MW422612   5.243   3.900   0.493 -0.3977  0.2168 -0.2381
 5712SOL     OW22613   2.840   0.117   5.795 -0.5675 -0.1450  0.3525
 5712SOL    HW222614   2.893   0.049   5.754  1.0571  0.5870  1.1388
 5712SOL    HW322615   2.895   0.195   5.792 -1.1389  0.3754  2.1934
 5712SOL    MW422616   2.854   0.118   5.790 -0.7417  0.2087  0.1266
 5713SOL     OW22617   6.097   4.079   4.122 -0.6976 -0.3446 -0.0405
 5713SOL    HW222618   6.047   4.015   4.071  0.0696 -0.1751 -1.0459
 5713SOL    HW322619   6.051   4.084   4.206 -0.7152 -2.2656  0.0989
 5713SOL    MW422620   6.084   4.071   4.126 -0.2834 -0.3452  0.2857
 5714SOL     OW22621   2.225   4.237   3.551  0.6195 -0.0117  0.2879
 5714SOL    HW222622   2.201   4.287   3.629  0.3230 -1.5275  1.2115
 5714SOL    HW322623   2.141   4.207   3.515  0.8726 -1.8859  1.1720
 5714SOL    MW422624   2.210   4.240   3.556  0.2194  0.3610 -0.7455
 5715SOL     OW22625   5.832   0.357   1.780  0.1249  0.6150 -0.0411
 5715SOL    HW222626   5.813   0.410   1.857  1.2663 -0.1097  0.7727
 5715SOL    HW322627   5.924   0.372   1.763  0.2703 -0.4808 -0.2805
 5715SOL    MW422628   5.841   0.366   1.788 -0.1067 -0.0716 -1.0017
 5716SOL     OW22629   2.450   2.732   6.354 -0.3478 -0.6581 -0.2124
 5716SOL    HW222630   2.456   2.779   6.271  2.8431 -1.5702 -0.6459
 5716SOL    HW322631   2.371   2.678   6.345 -0.7321  0.1408 -2.1549
 5716SOL    MW422632   2.441   2.731   6.342  0.2330 -0.3440  0.7967
 5717SOL     OW22633   1.920   1.071   5.596 -0.0932 -0.0737 -0.5147
 5717SOL    HW222634   1.988   1.020   5.639 -0.3574  1.1983  1.5567
 5717SOL    HW322635   1.948   1.162   5.605 -1.6697  0.4310 -0.3118
 5717SOL    MW422636   1.933   1.077   5.603  0.4559  0.2695  0.7155
 5718SOL     OW22637   1.810   1.313   4.233 -0.1853 -0.0345 -0.2513
 5718SOL    HW222638   1.724   1.297   4.196 -0.9641 -0.0547  1.4559
 5718SOL    HW322639   1.840   1.227   4.262  0.1999  0.0455 -0.4035
 5718SOL    MW422640   1.803   1.299   4.232  0.2472 -0.4770 -0.3737
 5719SOL     OW22641   0.853   4.475   2.703  0.0206  0.1266 -0.4149
 5719SOL    HW222642   0.929   4.511   2.658  0.9904  1.4416  2.0745
 5719SOL    HW322643   0.890   4.423   2.775 -1.4430 -2.2554 -1.2710
 5719SOL    MW422644   0.868   4.473   2.706 -0.1387 -0.5108 -0.1118
 5720SOL     OW22645   5.976   4.053   3.172 -0.1186 -0.5027  0.1408
 5720SOL    HW222646   6.063   4.025   3.199  0.1373  0.0577 -0.0786
 5720SOL    HW322647   5.987   4.078   3.080 -0.2782  0.5224  0.3924
 5720SOL    MW422648   5.989   4.052   3.163  0.0250  0.1453 -0.0991
 5721SOL     OW22649   0.382   1.624   1.599  0.3732  0.4805 -0.1892
 5721SOL    HW222650   0.438   1.593   1.528  1.4059 -1.5970  1.4177
 5721SOL    HW322651   0.413   1.577   1.676 -3.3255 -0.5081  0.9027
 5721SOL    MW422652   0.393   1.614   1.600 -0.3390  0.0130  0.6450
 5722SOL     OW22653   4.847   4.413   1.344  0.9700  0.5719 -0.4258
 5722SOL    HW222654   4.887   4.376   1.423  0.5201  1.0069  0.0213
 5722SOL    HW322655   4.865   4.507   1.351 -0.8381  0.9163  0.2464
 5722SOL    MW422656   4.855   4.421   1.356  0.1102 -0.3148 -0.8950
 5723SOL     OW22657   2.669   3.531   0.458  0.1904  0.2390  0.4246
 5723SOL    HW222658   2.655   3.568   0.545  0.8434  0.5966  0.3841
 5723SOL    HW322659   2.736   3.464   0.470 -1.4422 -1.4137  0.6089
 5723SOL    MW422660   2.676   3.527   0.471 -0.3817  0.6162  0.1263
 5724SOL     OW22661   0.279   4.753   5.306 -0.5228 -0.1036 -0.6058
 5724SOL    HW222662   0.306   4.758   5.398  1.4580 -1.0425 -1.0761
 5724SOL    HW322663   0.360   4.733   5.259 -1.8505 -1.8211 -2.3250
 5724SOL    MW422664   0.293   4.751   5.312 -0.7498  0.5354 -0.7111
 5725SOL     OW22665   5.268   2.051   5.687 -0.0468 -0.3614 -0.4382
 5725SOL    HW222666   5.348   2.094   5.658  1.0935 -0.0088  2.8433
 5725SOL    HW322667   5.199   2.114   5.668  0.9267  0.7565 -0.3733
 5725SOL    MW422668   5.269   2.065   5.681 -0.0989 -0.6688 -0.1888
 5726SOL     OW22669   3.312   0.345   4.866  0.3685  0.3210 -0.0060
 5726SOL    HW222670   3.334   0.259   4.901 -1.6236  0.5095  1.9017
 5726SOL    HW322671   3.325   0.405   4.939 -0.4771  1.2999 -0.6312
 5726SOL    MW422672   3.316   0.342   4.880  0.3519 -0.7632 -0.1433
 5727SOL     OW22673   2.235   4.735   5.206  0.1319  0.3049  0.4624
 5727SOL    HW222674   2.200   4.738   5.117  0.3191 -1.4524  0.2757
 5727SOL    HW322675   2.319   4.778   5.201  1.0874 -1.5699 -0.7503
 5727SOL    MW422676   2.241   4.741   5.194  0.0133 -0.1426 -0.2944
 5728SOL     OW22677   1.345   2.486   1.346  0.0757 -0.5251  0.0147
 5728SOL    HW222678   1.363   2.485   1.252 -0.2951 -1.9518 -0.0559
 5728SOL    HW322679   1.273   2.549   1.356  0.2121 -0.2613 -0.6274
 5728SOL    MW422680   1.338   2.494   1.335  0.1154  0.1493 -0.0249
 5729SOL     OW22681   2.911   0.985   3.067  0.4464 -0.0824  0.1766
 5729SOL    HW222682   2.976   1.006   3.134  0.7163 -0.9718  0.2066
 5729SOL    HW322683   2.945   1.026   2.987  0.7212 -0.0196  0.3239
 5729SOL    MW422684   2.924   0.993   3.065 -0.7265  0.1245  0.6804
 5730SOL     OW22685   3.080   0.768   1.752 -0.1715 -0.1777  0.1523
 5730SOL    HW222686   3.108   0.708   1.821  0.3622 -0.2984 -0.1669
 5730SOL    HW322687   3.120   0.734   1.672 -1.1587 -0.3006 -0.3079
 5730SOL    MW422688   3.089   0.756   1.751  0.0409 -0.2846 -0.2129
 5731SOL     OW22689   4.672   5.343   4.691  0.0411  0.2051  0.4282
 5731SOL    HW222690   4.599   5.399   4.665 -0.1233 -0.5774 -0.8841
 5731SOL    HW322691   4.678   5.354   4.786 -1.1983  0.9718  0.4405
 5731SOL    MW422692   4.663   5.352   4.700 -0.1620  0.1508 -0.3911
 5732SOL     OW22693   0.471   3.998   5.048 -0.4993  0.3449 -0.4319
 5732SOL    HW222694   0.498   4.039   5.131 -0.6756  0.7603 -0.5754
 5732SOL    HW322695   0.482   3.904   5.063 -1.6355  0.3386  0.4617
 5732SOL    MW422696   0.476   3.991   5.061  0.1329  0.4313 -0.0213
 5733SOL     OW22697   2.749   5.054   1.984 -0.2771  0.1734  0.4243
 5733SOL    HW222698   2.675   5.096   2.029 -0.8387  0.3550 -0.6386
 5733SOL    HW322699   2.727   5.060   1.891  2.2887  2.6121 -0.1472
 5733SOL    MW422700   2.736   5.060   1.978 -0.3745  0.0503 -0.0454
 5734SOL     OW22701   1.896   2.041   5.761 -0.4735  0.2487 -0.0969
 5734SOL    HW222702   1.829   2.090   5.809 -1.6645 -0.8329 -0.5902
 5734SOL    HW322703   1.979   2.069   5.801 -1.0818  2.4857 -0.2276
 5734SOL    MW422704   1.898   2.051   5.773 -0.4300  0.2237  0.5676
 5735SOL     OW22705   6.315   4.477   3.013 -0.0063  0.3032  0.3604
 5735SOL    HW222706   6.325   4.542   2.944 -1.5236 -0.5807 -0.7511
 5735SOL    HW322707   6.307   4.394   2.967 -1.8042 -0.2269  1.5292
 5735SOL    MW422708   6.315   4.475   2.998  0.2059  0.0340  0.4999
 5736SOL     OW22709   6.147   4.516   2.375  0.1708 -0.0842 -0.5254
 5736SOL    HW222710   6.128   4.555   2.289 -0.0676  0.0802 -0.4004
 5736SOL    HW322711   6.203   4.581   2.418  1.1943 -0.6512 -0.9645
 5736SOL    MW422712   6.152   4.530   2.369  0.5519  0.0109 -0.0674
 5737SOL     OW22713   4.795   3.421   1.915  0.9600 -0.1593  0.2499
 5737SOL    HW222714   4.848   3.485   1.867  1.8439  0.2917  1.7604
 5737SOL    HW322715   4.753   3.369   1.846  1.1743  1.2519 -1.0073
 5737SOL    MW422716   4.797   3.422   1.900  0.4983 -0.1557  0.3778
 5738SOL     OW22717   1.725   5.927   3.844  0.0060  0.3753  0.6386
 5738SOL    HW222718   1.632   5.947   3.857 -0.3565 -0.7372 -0.1173
 5738SOL    HW322719   1.728   5.876   3.763  1.1987 -0.1744  1.0005
 5738SOL    MW422720   1.713   5.923   3.835  0.1856  1.2544  0.0800
 5739SOL     OW22721   4.155   0.268   1.092  0.7435 -0.6430  0.2288
 5739SOL    HW222722   4.106   0.322   1.029 -0.5947 -0.4047  1.4085
 5739SOL    HW322723   4.154   0.180   1.054  0.0091 -0.4934 -0.1213
 5739SOL    MW422724   4.148   0.263   1.079  0.0601 -0.4171 -0.1269
 5740SOL     OW22725   3.589   3.339   1.276  0.1993 -0.2820 -0.0919
 5740SOL    HW222726   3.499   3.340   1.307  1.0778 -1.1074  2.7788
 5740SOL    HW322727   3.622   3.252   1.301  2.4111  0.8071  1.0867
 5740SOL    MW422728   3.581   3.327   1.283  0.2297  0.2563 -0.1711
 5741SOL     OW22729   0.296   6.279   3.434  0.1005  0.5151 -0.0141
 5741SOL    HW222730   0.239   6.208   3.406 -0.5321  0.7401  0.6624
 5741SOL    HW322731   0.238   6.355   3.443  0.4558  0.6943  0.9157
 5741SOL    MW422732   0.281   6.280   3.431 -0.0428  0.1373  0.1581
 5742SOL     OW22733   5.005   4.982   4.426 -0.4542  0.3320  0.6951
 5742SOL    HW222734   4.955   5.063   4.436 -2.6198 -0.6124 -1.4892
 5742SOL    HW322735   5.070   5.003   4.358  1.1202  1.0494  2.3238
 5742SOL    MW422736   5.007   4.996   4.418  0.2620  0.1600  0.3124
 5743SOL     OW22737   6.130   1.480   1.162  0.1360 -0.0389 -0.5535
 5743SOL    HW222738   6.170   1.398   1.191 -1.9823 -0.9797 -0.0728
 5743SOL    HW322739   6.126   1.533   1.241 -2.7744 -1.3917  0.3623
 5743SOL    MW422740   6.135   1.476   1.176  0.1223 -0.3994  0.1490
 5744SOL     OW22741   0.282   0.047   0.216 -0.5316  0.1637 -0.8993
 5744SOL    HW222742   0.312   0.043   0.125 -0.4825 -0.9690 -0.8477
 5744SOL    HW322743   0.193   0.012   0.213 -0.5151  0.0889 -0.5029
 5744SOL    MW422744   0.274   0.042   0.204 -0.7375  0.3770 -0.1871
 5745SOL     OW22745   3.363   2.945   2.247 -0.6056  0.3146  0.4011
 5745SOL    HW222746   3.278   2.961   2.207 -1.1374 -0.6441  1.1140
 5745SOL    HW322747   3.343   2.914   2.336  0.5076  0.9471  0.9043
 5745SOL    MW422748   3.349   2.943   2.254  0.3203 -0.0775  0.4581
 5746SOL     OW22749   3.849   0.599   3.503  0.0011  0.0045 -0.1916
 5746SOL    HW222750   3.874   0.629   3.416 -3.0579 -0.6948 -1.4059
 5746SOL    HW322751   3.869   0.505   3.503  1.0197  0.2058  0.3015
 5746SOL    MW422752   3.855   0.591   3.492  0.0764  0.1449  0.0656
 5747SOL     OW22753   2.566   1.217   5.205 -0.2498 -0.1817  1.0911
 5747SOL    HW222754   2.499   1.183   5.146 -0.3484  0.1203  1.0236
 5747SOL    HW322755   2.518   1.272   5.267 -0.2744 -1.2960  2.0777
 5747SOL    MW422756   2.551   1.220   5.206 -0.4737  0.3155 -0.4260
 5748SOL     OW22757   3.755   6.085   3.570  0.2385 -0.5196  0.1500
 5748SOL    HW222758   3.724   6.100   3.660 -0.2408  1.2678 -0.2650
 5748SOL    HW322759   3.846   6.115   3.571 -0.4747  1.8755 -0.4851
 5748SOL    MW422760   3.763   6.091   3.582  0.4382 -0.3589  0.3419
 5749SOL     OW22761   0.991   0.296   1.540  0.4228 -0.7936 -0.0856
 5749SOL    HW222762   1.081   0.299   1.573 -0.6918  0.7144  3.3133
 5749SOL    HW322763   0.997   0.246   1.459  4.5535  0.6176 -0.9175
 5749SOL    MW422764   1.004   0.290   1.534 -0.0339  0.0900  0.3630
 5750SOL     OW22765   1.699   5.425   4.636 -0.2715 -0.1001 -0.2123
 5750SOL    HW222766   1.627   5.396   4.580  0.2908 -1.1538 -0.4249
 5750SOL    HW322767   1.689   5.375   4.717  0.6176 -0.8140 -0.5173
 5750SOL    MW422768   1.688   5.414   4.639 -0.5052 -0.4132  0.4653
 5751SOL     OW22769   2.275   3.442   1.409 -0.0909  0.0681 -0.4222
 5751SOL    HW222770   2.268   3.537   1.424 -0.5344 -0.0118 -0.1013
 5751SOL    HW322771   2.339   3.412   1.474 -0.0417  0.1306 -0.4421
 5751SOL    MW422772   2.283   3.451   1.419 -0.5196  0.2818 -0.1385
 5752SOL     OW22773   2.728   0.414   5.032 -0.3880  0.4914 -0.0070
 5752SOL    HW222774   2.820   0.429   5.053 -0.3524  0.9478 -0.4619
 5752SOL    HW322775   2.701   0.343   5.090  0.4463 -0.1331 -0.3754
 5752SOL    MW422776   2.736   0.407   5.042 -0.0158 -0.1588 -0.8903
 5753SOL     OW22777   1.560   4.524   5.777 -0.1545  0.1039 -0.1030
 5753SOL    HW222778   1.519   4.462   5.717 -0.0745  0.4547 -0.5213
 5753SOL    HW322779   1.618   4.577   5.722  2.5548 -1.7383  0.7303
 5753SOL    MW422780   1.562   4.523   5.762 -0.1724 -0.8347  0.4636
 5754SOL     OW22781   0.037   1.324   5.438  0.4905  0.1983  0.1155
 5754SOL    HW222782  -0.029   1.366   5.383 -0.0523 -0.6876  0.0653
 5754SOL    HW322783  -0.011   1.257   5.486  0.6214  2.0019  2.9458
 5754SOL    MW422784   0.022   1.321   5.437  0.3522  0.2251  0.2449
 5755SOL     OW22785   1.884   2.658   6.232  0.1599  0.2291  0.0410
 5755SOL    HW222786   1.975   2.633   6.214  0.8809  0.2536  3.2009
 5755SOL    HW322787   1.842   2.577   6.261 -0.3939  0.5523  0.1507
 5755SOL    MW422788   1.890   2.644   6.233  0.3881 -0.7124  0.3800
 5756SOL     OW22789   4.187   4.865   3.951 -0.6524  0.2160  0.6923
 5756SOL    HW222790   4.154   4.863   3.861 -1.7227  0.1791  1.0639
 5756SOL    HW322791   4.214   4.955   3.965  1.4631 -0.2133 -0.3099
 5756SOL    MW422792   4.186   4.876   3.941 -0.5560  0.0196 -0.1117
 5757SOL     OW22793   5.394   2.717   6.243 -0.1558  0.5716  0.5771
 5757SOL    HW222794   5.487   2.702   6.254 -0.2077  0.5415  0.9945
 5757SOL    HW322795   5.380   2.806   6.276 -0.0838  1.0185 -0.5592
 5757SOL    MW422796   5.404   2.727   6.249  0.2944  0.0121 -0.2315
 5758SOL     OW22797   1.639   4.117   0.205  0.5649  0.1393 -0.0334
 5758SOL    HW222798   1.641   4.075   0.119  2.9991 -2.4923  1.1480
 5758SOL    HW322799   1.548   4.110   0.232  0.0197 -0.2764 -1.8140
 5758SOL    MW422800   1.627   4.110   0.197  0.5064  0.5385  0.6235
 5759SOL     OW22801   0.954   1.102   1.553  0.7040 -0.2232 -0.0319
 5759SOL    HW222802   0.915   1.186   1.577 -0.0272 -0.2786 -0.9924
 5759SOL    HW322803   1.017   1.084   1.623  1.5031  1.5425 -0.2516
 5759SOL    MW422804   0.957   1.110   1.565 -0.6639 -0.4415 -0.0380
 5760SOL     OW22805   0.130   3.308   0.939  0.2915  0.1181  1.0031
 5760SOL    HW222806   0.189   3.355   0.880  2.4079 -3.5972 -0.1960
 5760SOL    HW322807   0.175   3.308   1.023  0.7358 -0.4537  0.7724
 5760SOL    MW422808   0.144   3.314   0.942  0.7234 -0.1706 -0.2460
 5761SOL     OW22809   0.462   3.226   3.416  0.2614  0.6077 -0.4549
 5761SOL    HW222810   0.480   3.243   3.509  0.0215 -0.0485 -0.2798
 5761SOL    HW322811   0.398   3.292   3.391  1.0987  1.4517 -0.4411
 5761SOL    MW422812   0.456   3.237   3.425 -0.1114  0.3314 -0.8863
 5762SOL     OW22813   2.782   6.049   2.920 -0.0989  0.6545  0.6310
 5762SOL    HW222814   2.698   6.083   2.949 -1.4928 -1.2630 -0.9044
 5762SOL    HW322815   2.771   6.033   2.826  1.9489  0.2222  0.4000
 5762SOL    MW422816   2.770   6.051   2.912 -0.8558  0.1956 -0.1262
 5763SOL     OW22817   2.635   5.549   4.808  0.1681 -0.2309 -0.1394
 5763SOL    HW222818   2.692   5.587   4.740 -1.0373 -0.0476 -1.0714
 5763SOL    HW322819   2.655   5.455   4.806  1.5848  0.0264  0.6659
 5763SOL    MW422820   2.646   5.542   4.799  0.7369  0.2052  0.2559
 5764SOL     OW22821   5.322   0.079   3.817  0.1944  0.3672 -0.4028
 5764SOL    HW222822   5.347  -0.006   3.780  2.7556  0.3358  1.1749
 5764SOL    HW322823   5.387   0.140   3.785 -1.6231  1.8301 -1.5149
 5764SOL    MW422824   5.334   0.076   3.808  0.0740  1.0836  0.3522
 5765SOL     OW22825   5.352   0.261   6.276  0.4862  0.0924 -0.4458
 5765SOL    HW222826   5.310   0.337   6.237 -0.1246 -0.0562 -0.1027
 5765SOL    HW322827   5.415   0.297   6.338  1.2245  0.3250 -1.3104
 5765SOL    MW422828   5.355   0.275   6.279 -0.4815 -0.3894  0.1914
 5766SOL     OW22829   1.606   1.257   3.627 -0.0318 -0.0665  0.8459
 5766SOL    HW222830   1.639   1.168   3.618 -0.6636 -0.3272  1.0796
 5766SOL    HW322831   1.520   1.247   3.667 -0.5138  0.5892  0.0014
 5766SOL    MW422832   1.599   1.244   3.631  0.3189 -0.8563 -0.4574
 5767SOL     OW22833   4.307   1.060   0.712 -0.2625 -0.4338  0.3024
 5767SOL    HW222834   4.326   1.144   0.669 -0.2069 -1.1012 -1.0256
 5767SOL    HW322835   4.226   1.076   0.761  0.4912  0.7737  1.2273
 5767SOL    MW422836   4.299   1.073   0.713  0.2339  0.3135 -0.1052
 5768SOL     OW22837   4.873   1.747   0.536 -0.4552  0.0868 -0.3659
 5768SOL    HW222838   4.887   1.763   0.629  0.9536 -0.8009 -0.3951
 5768SOL    HW322839   4.927   1.813   0.492  0.8174 -0.9892 -0.5035
 5768SOL    MW422840   4.882   1.757   0.542  0.4101  0.3909  0.0260
 5769SOL     OW22841   5.146   5.755   1.062 -0.0191 -0.0908  0.1982
 5769SOL    HW222842   5.229   5.707   1.067  1.0054  1.5510 -0.2359
 5769SOL    HW322843   5.126   5.778   1.153  1.2103  1.3924  0.1413
 5769SOL    MW422844   5.154   5.752   1.075 -0.1164  0.3984 -0.5230
 5770SOL     OW22845   5.048   4.637   6.344 -0.0804 -0.0529 -0.1963
 5770SOL    HW222846   5.102   4.696   6.291 -0.6753  0.1479 -0.5905
 5770SOL    HW322847   5.009   4.577   6.281 -0.5155 -0.0367  0.0531
 5770SOL    MW422848   5.050   4.637   6.329  0.1174 -0.5726 -0.5886
 5771SOL     OW22849   1.956   0.309   0.598  0.0051  0.3807  0.0624
 5771SOL    HW222850   1.953   0.270   0.685 -0.2467  0.7826  0.2362
 5771SOL    HW322851   2.045   0.344   0.590 -0.0478  0.5617  0.2572
 5771SOL    MW422852   1.968   0.309   0.608  0.3687  0.0365 -0.1816
 5772SOL     OW22853   0.251   0.104   1.052  0.9410  0.0266 -0.5510
 5772SOL    HW222854   0.157   0.104   1.034  0.8662 -0.5039 -0.1943
 5772SOL    HW322855   0.288   0.163   0.987 -0.0235  2.9700  1.3801
 5772SOL    MW422856   0.243   0.112   1.041 -0.6670 -0.2029 -0.3906
 5773SOL     OW22857   5.942   5.441   2.615 -0.1689  0.1054  0.6489
 5773SOL    HW222858   6.030   5.405   2.604  0.0612  0.1969  2.0768
 5773SOL    HW322859   5.890   5.397   2.548  1.1673  0.8287 -0.9299
 5773SOL    MW422860   5.947   5.430   2.605  0.1104  0.0557 -0.0418
 5774SOL     OW22861   5.069   0.537   5.790  0.1186 -0.3100 -0.1771
 5774SOL    HW222862   5.016   0.543   5.710 -0.7650 -2.1454  0.2247
 5774SOL    HW322863   5.070   0.444   5.811  1.4461 -0.0077  1.2372
 5774SOL    MW422864   5.062   0.526   5.782 -0.7331  1.0974 -0.4488
 5775SOL     OW22865   3.726   0.124   1.723 -0.6339  0.1951  0.2508
 5775SOL    HW222866   3.733   0.062   1.796 -0.6386 -0.9254 -0.6562
 5775SOL    HW322867   3.673   0.196   1.757 -0.1791 -0.0320  1.5100
 5775SOL    MW422868   3.720   0.125   1.737  0.3051  0.1038 -0.1387
 5776SOL     OW22869   3.344   3.582   3.930 -0.0293 -0.2583  0.1623
 5776SOL    HW222870   3.322   3.494   3.962 -0.8421  0.9422  3.3553
 5776SOL    HW322871   3.263   3.613   3.888  0.0113 -0.7541 -0.2868
 5776SOL    MW422872   3.330   3.575   3.929 -0.0090  0.3184  0.2229
 5777SOL     OW22873   4.397   2.498   2.535 -0.3408  0.9248  0.2662
 5777SOL    HW222874   4.462   2.482   2.466  0.0503  1.5774  0.4690
 5777SOL    HW322875   4.442   2.557   2.596 -1.1870  1.5473  0.3079
 5777SOL    MW422876   4.411   2.504   2.534  0.4237 -0.1977 -0.0394
 5778SOL     OW22877   5.956   0.050   1.218  0.0518 -0.2072 -0.2770
 5778SOL    HW222878   6.023   0.028   1.283 -1.7488 -0.5648  1.5820
 5778SOL    HW322879   5.936  -0.033   1.174  0.9197 -0.0624 -0.9730
 5778SOL    MW422880   5.962   0.036   1.221 -0.0105 -0.3461 -0.1565
 5779SOL     OW22881   3.272   2.071   0.299  0.2205  0.3395 -0.0061
 5779SOL    HW222882   3.194   2.092   0.248  0.3538  1.0925  0.0930
 5779SOL    HW322883   3.344   2.076   0.235  0.4482  1.7555  0.3425
 5779SOL    MW422884   3.272   2.074   0.283 -0.4213  0.0321 -0.7735
 5780SOL     OW22885   1.950   3.696   6.169 -0.1048  0.4472  0.1573
 5780SOL    HW222886   1.958   3.759   6.097  0.0885  0.7216  0.4150
 5780SOL    HW322887   1.982   3.744   6.246 -1.2767  0.5168  0.6333
 5780SOL    MW422888   1.955   3.711   6.170 -1.0091 -0.5021  0.3281
 5781SOL     OW22889   4.247   4.763   1.317  0.1685 -0.3646  0.6666
 5781SOL    HW222890   4.211   4.704   1.383  1.0610 -1.9906 -0.2236
 5781SOL    HW322891   4.336   4.783   1.349 -0.0870  0.4423  0.9061
 5781SOL    MW422892   4.254   4.758   1.330  0.2457  0.0848 -0.6084
 5782SOL     OW22893   5.733   0.858   4.026  0.4504  0.1318  0.1470
 5782SOL    HW222894   5.688   0.865   4.110  1.5348 -2.3059  1.0045
 5782SOL    HW322895   5.824   0.883   4.045  0.7460 -0.6305 -0.2263
 5782SOL    MW422896   5.739   0.862   4.040 -0.1212 -0.7127 -0.3644
 5783SOL     OW22897   2.075   2.784   2.696 -0.2629 -0.2138 -0.1022
 5783SOL    HW222898   2.010   2.852   2.677  0.2320  0.6446  1.1283
 5783SOL    HW322899   2.149   2.831   2.734  0.5208 -1.3308 -0.1923
 5783SOL    MW422900   2.076   2.799   2.699  0.1091  0.0520  0.7200
 5784SOL     OW22901   3.566   5.975   4.865  0.1837  0.1636  0.3612
 5784SOL    HW222902   3.547   6.030   4.941  1.0915 -0.0835  0.7731
 5784SOL    HW322903   3.610   5.898   4.900  0.3879 -0.0724 -0.3830
 5784SOL    MW422904   3.569   5.972   4.880 -0.1904  0.6240 -0.6246
 5785SOL     OW22905   2.580   6.152   0.211 -0.3386  0.0521 -0.0137
 5785SOL    HW222906   2.662   6.191   0.180 -0.8850 -0.2990 -2.0616
 5785SOL    HW322907   2.600   6.059   0.221 -0.6035 -0.1347 -1.0799
 5785SOL    MW422908   2.593   6.145   0.208 -0.1893 -0.2525 -0.2532
 5786SOL     OW22909   1.967   3.654   3.499 -0.4737 -0.8423  0.2660
 5786SOL    HW222910   1.929   3.604   3.426 -0.8118 -1.9701  1.1915
 5786SOL    HW322911   1.966   3.593   3.573  2.5154 -0.7096  0.5365
 5786SOL    MW422912   1.962   3.639   3.499  0.1609  0.4331 -0.2551
 5787SOL     OW22913   1.732   3.134   1.698 -0.1658  0.5947  0.3727
 5787SOL    HW222914   1.742   3.039   1.686  2.0172  1.0695 -2.3296
 5787SOL    HW322915   1.643   3.152   1.666 -0.8568 -0.5661  1.5166
 5787SOL    MW422916   1.722   3.124   1.692  0.0663 -0.0035 -0.5792
 5788SOL     OW22917   3.120   5.019   1.182 -0.4944 -0.1264 -0.0979
 5788SOL    HW222918   3.212   4.992   1.185 -0.7777 -1.3211 -1.3155
 5788SOL    HW322919   3.071   4.937   1.190 -1.4454  0.3781 -0.6205
 5788SOL    MW422920   3.126   5.004   1.184 -0.6670 -0.4635  0.0566
 5789SOL     OW22921   0.459   2.029   1.150 -0.1917 -0.0516 -0.1338
 5789SOL    HW222922   0.422   2.000   1.233 -0.3327 -0.5994 -0.3853
 5789SOL    HW322923   0.499   2.114   1.170  0.5889 -0.6056  0.7060
 5789SOL    MW422924   0.460   2.037   1.163  0.4786 -0.0384  0.4510
 5790SOL     OW22925   1.134   5.326   6.239  0.3300  0.4212  0.3361
 5790SOL    HW222926   1.069   5.259   6.218 -1.6460  1.6567  2.1167
 5790SOL    HW322927   1.182   5.292   6.314  1.5441 -0.3172 -0.7331
 5790SOL    MW422928   1.132   5.313   6.246  0.3278 -0.4520  0.2162
 5791SOL     OW22929   4.544   2.079   5.630 -0.0999 -0.0893  0.4944
 5791SOL    HW222930   4.604   2.070   5.704 -0.7013 -1.4417  0.8476
 5791SOL    HW322931   4.469   2.125   5.666 -0.0891 -0.1136  0.5487
 5791SOL    MW422932   4.542   2.084   5.645 -0.6726  0.2359  0.8342
 5792SOL     OW22933   6.163   3.508   1.270 -0.1282  0.7552 -0.5552
 5792SOL    HW222934   6.177   3.421   1.308  0.2113  0.6085 -1.0158
 5792SOL    HW322935   6.178   3.568   1.342 -1.3018  0.3917  0.0191
 5792SOL    MW422936   6.167   3.504   1.284  0.5395 -0.1142  0.0745
 5793SOL     OW22937   1.932   4.005   1.545  0.2560  0.2735  0.2051
 5793SOL    HW222938   1.989   4.038   1.615 -0.2035 -1.6556  1.5713
 5793SOL    HW322939   1.844   4.028   1.574  0.1129  0.2393 -0.2014
 5793SOL    MW422940   1.928   4.013   1.558  0.0179 -0.1361 -0.3014
 5794SOL     OW22941   4.592   1.312   4.140 -0.0958 -0.0436  0.4053
 5794SOL    HW222942   4.589   1.406   4.157  0.7690  0.2427 -0.8300
 5794SOL    HW322943   4.679   1.285   4.171  2.0341  0.7139 -4.0249
 5794SOL    MW422944   4.603   1.320   4.146 -0.2626 -0.1491  0.0075
 5795SOL     OW22945   4.508   4.851   6.216 -0.1307 -0.4937  0.0588
 5795SOL    HW222946   4.500   4.759   6.190 -0.0989 -0.0962 -1.4858
 5795SOL    HW322947   4.439   4.864   6.281  1.2287 -2.1230  1.9531
 5795SOL    MW422948   4.498   4.841   6.221  0.1560  0.0789  0.0689
 5796SOL     OW22949   4.204   5.635   2.037  0.2401  0.2880 -0.1515
 5796SOL    HW222950   4.241   5.704   2.093  1.1230 -0.4406  0.1868
 5796SOL    HW322951   4.236   5.656   1.949 -1.1486  1.4365 -0.4285
 5796SOL    MW422952   4.213   5.647   2.033 -0.0096 -0.3869 -0.6275
 5797SOL     OW22953   3.453   5.299   5.807 -0.3403  0.1270  0.2364
 5797SOL    HW222954   3.433   5.308   5.714 -0.5572 -1.9688  0.0261
 5797SOL    HW322955   3.506   5.376   5.828 -0.9575  1.0452 -1.4109
 5797SOL    MW422956   3.457   5.310   5.797  0.1633  0.2410  0.4216
 5798SOL     OW22957   2.574   2.201   1.924  0.2219 -0.1361  0.5004
 5798SOL    HW222958   2.544   2.111   1.936  3.8158 -1.3900  1.4158
 5798SOL    HW322959   2.549   2.245   2.006 -0.5354 -0.5923  0.5316
 5798SOL    MW422960   2.566   2.195   1.937 -0.0355 -0.0993  0.8672
 5799SOL     OW22961   1.812   0.791   1.959 -0.4024  0.3280 -0.0452
 5799SOL    HW222962   1.871   0.781   2.033  0.5899 -1.5169 -1.0092
 5799SOL    HW322963   1.728   0.818   1.998  0.5078  0.9921  1.5474
 5799SOL    MW422964   1.808   0.793   1.974 -0.3389 -0.7359 -0.2625
 5800SOL     OW22965   1.417   5.226   2.728 -0.3380  0.1517 -0.2352
 5800SOL    HW222966   1.429   5.133   2.707 -0.5869  0.1959 -0.5678
 5800SOL    HW322967   1.455   5.235   2.816  0.5571 -0.0646 -0.5834
 5800SOL    MW422968   1.424   5.215   2.737  0.5024  0.0209 -0.1588
 5801SOL     OW22969   3.634   6.380   1.496  0.1663 -0.3691  0.0779
 5801SOL    HW222970   3.636   6.456   1.553  0.6928 -0.4718  0.1953
 5801SOL    HW322971   3.602   6.414   1.412  0.7886  0.0585  0.0119
 5801SOL    MW422972   3.630   6.394   1.492  0.1361  0.3983  0.0238
 5802SOL     OW22973   1.673   1.045   5.319 -0.8554 -0.3999 -0.4965
 5802SOL    HW222974   1.726   1.014   5.246 -0.7935 -1.0961 -0.1698
 5802SOL    HW322975   1.704   1.134   5.336  0.0736 -0.7283 -0.4393
 5802SOL    MW422976   1.684   1.053   5.312  0.1516 -0.2382  0.3242
 5803SOL     OW22977   5.804   2.537   3.678 -0.4028 -0.2330  0.7708
 5803SOL    HW222978   5.758   2.618   3.657 -0.5463  0.0531  2.0895
 5803SOL    HW322979   5.752   2.468   3.637 -0.4478  0.3122 -0.0996
 5803SOL    MW422980   5.791   2.539   3.670  0.1386  0.2741  0.5395
 5804SOL     OW22981   0.369   0.282   3.526  0.1435 -0.4271  0.1666
 5804SOL    HW222982   0.335   0.371   3.521  0.4387 -0.1421  2.1894
 5804SOL    HW322983   0.397   0.261   3.437 -2.6599  0.3619 -0.9806
 5804SOL    MW422984   0.368   0.291   3.514  0.3862  0.0692 -0.5653
 5805SOL     OW22985   5.113   6.165   0.705  0.3284  0.2034  0.5111
 5805SOL    HW222986   5.084   6.105   0.636  1.6881  0.3365 -0.2166
 5805SOL    HW322987   5.141   6.107   0.776  0.9126 -0.0208  0.1093
 5805SOL    MW422988   5.113   6.149   0.705 -0.3033  0.2253  0.2432
 5806SOL     OW22989   2.116   1.587   5.997 -0.1079 -0.6799  1.1417
 5806SOL    HW222990   2.022   1.567   5.995  0.0308 -1.2938  0.4099
 5806SOL    HW322991   2.122   1.664   6.054 -0.9361 -1.2284  2.0074
 5806SOL    MW422992   2.104   1.595   6.004 -0.0692  0.4936 -0.1798
 5807SOL     OW22993   1.671   4.097   1.646 -0.3328 -0.5422 -0.0259
 5807SOL    HW222994   1.585   4.131   1.623 -0.0277  0.2966  0.0159
 5807SOL    HW322995   1.717   4.173   1.683 -0.0907 -1.3405  1.3658
 5807SOL    MW422996   1.666   4.112   1.648 -0.0629 -0.4688 -0.6518
 5808SOL     OW22997   2.057   0.189   0.352 -0.0582  0.2151 -0.6473
 5808SOL    HW222998   2.009   0.201   0.434 -0.2378  1.2453 -0.8901
 5808SOL    HW322999   2.005   0.126   0.303  0.4386 -0.9899  0.3223
 5808SOL    MW423000   2.044   0.182   0.357  0.2138 -0.4424  0.5198
 5809SOL     OW23001   3.747   5.696   2.813  0.0249 -0.5200 -0.7514
 5809SOL    HW223002   3.732   5.772   2.869  0.0658 -1.0454 -0.0062
 5809SOL    HW323003   3.828   5.658   2.845 -1.6886 -2.8223  1.1877
 5809SOL    MW423004   3.755   5.701   2.824 -0.1160  0.4997 -0.1425
 5810SOL     OW23005   1.574   4.241   3.605  0.4361 -0.2234 -0.2781
 5810SOL    HW223006   1.554   4.251   3.698 -1.5418 -2.0799 -0.4171
 5810SOL    HW323007   1.615   4.155   3.598  2.0268  0.5623 -0.9610
 5810SOL    MW423008   1.576   4.231   3.617 -0.1514  0.5601 -0.0461
 5811SOL     OW23009   4.144   3.358   4.939  0.2396 -0.4547 -0.1446
 5811SOL    HW223010   4.165   3.436   4.887 -0.4864 -0.4070 -0.3792
 5811SOL    HW323011   4.112   3.295   4.874  1.3130 -1.1492 -0.0315
 5811SOL    MW423012   4.143   3.360   4.923  0.0199 -0.3324 -0.1372
 5812SOL     OW23013   2.701   5.294   4.814  0.1614  0.1924 -0.0029
 5812SOL    HW223014   2.727   5.313   4.724 -0.6455  2.1165  0.1343
 5812SOL    HW323015   2.783   5.270   4.858  0.8657  1.0559 -0.8005
 5812SOL    MW423016   2.715   5.293   4.808 -0.0688 -0.2060 -0.2969
 5813SOL     OW23017   5.712   3.231   2.015 -0.5643 -0.4327 -0.4064
 5813SOL    HW223018   5.783   3.224   2.080  0.1005  0.1735 -1.0502
 5813SOL    HW323019   5.709   3.144   1.975 -0.5222 -0.6118 -0.0286
 5813SOL    MW423020   5.721   3.218   2.019 -0.0599 -0.0622 -0.1670
 5814SOL     OW23021   4.239   1.212   1.101  0.9429  0.2616 -0.0241
 5814SOL    HW223022   4.233   1.307   1.090  1.3073  0.4499  1.2844
 5814SOL    HW323023   4.162   1.189   1.154  1.5005  0.0140  0.6945
 5814SOL    MW423024   4.228   1.221   1.107 -0.2266  0.3741 -0.1981
 5815SOL     OW23025   4.575   5.774   0.307  0.2259 -0.1768 -0.2947
 5815SOL    HW223026   4.534   5.726   0.235 -0.2579 -0.8128  0.3838
 5815SOL    HW323027   4.573   5.866   0.279  0.0525 -0.4172 -1.0893
 5815SOL    MW423028   4.569   5.780   0.294 -0.3110  0.1371 -0.0950
 5816SOL     OW23029   0.093   0.433   3.676 -0.0385  0.1406  0.4202
 5816SOL    HW223030   0.144   0.497   3.626 -2.5468  1.7470 -0.2825
 5816SOL    HW323031   0.111   0.349   3.634  1.3197  0.7704 -0.3136
 5816SOL    MW423032   0.102   0.430   3.664  0.5825  0.3808  0.5759
 5817SOL     OW23033   3.581   1.419   4.014  0.9777 -0.2803  0.4342
 5817SOL    HW223034   3.518   1.360   4.055  0.6247 -0.9533 -1.0263
 5817SOL    HW323035   3.540   1.505   4.020  0.7442 -0.4289  1.0850
 5817SOL    MW423036   3.567   1.423   4.020 -0.2292  0.2906 -0.4928
 5818SOL     OW23037   3.029   0.341   2.399  0.0966  0.0044 -0.0395
 5818SOL    HW223038   3.096   0.401   2.364  2.1246 -1.6129  0.8396
 5818SOL    HW323039   2.975   0.396   2.455  1.2155  1.2193 -0.1021
 5818SOL    MW423040   3.031   0.357   2.401 -0.3117 -0.4955 -0.1651
 5819SOL     OW23041   2.633   5.004   1.463 -0.9491  0.3310 -0.2062
 5819SOL    HW223042   2.577   5.069   1.420 -1.8196  0.1690  0.6434
 5819SOL    HW323043   2.578   4.926   1.470 -0.6485  0.1921  0.7060
 5819SOL    MW423044   2.618   5.002   1.458 -0.6109  0.5075 -0.2861
 5820SOL     OW23045   3.619   1.038   2.773  0.1103 -0.3681  1.0514
 5820SOL    HW223046   3.563   0.981   2.720 -0.2394 -0.7199  1.7754
 5820SOL    HW323047   3.576   1.039   2.859  0.5409  0.3685  1.2631
 5820SOL    MW423048   3.606   1.031   2.778  0.5884  0.3062 -0.5514
 5821SOL     OW23049   0.294   2.047   3.902 -0.2282 -1.5321 -0.3052
 5821SOL    HW223050   0.387   2.027   3.896 -0.2101 -1.5327 -0.0224
 5821SOL    HW323051   0.274   2.093   3.820  0.4988  0.3790  0.5268
 5821SOL    MW423052   0.304   2.050   3.890 -0.1748  0.3526  0.1366
 5822SOL     OW23053   4.930   4.294   4.566 -0.1696 -0.5589  0.3699
 5822SOL    HW223054   4.903   4.349   4.492 -0.3723 -0.6801  0.3528
 5822SOL    HW323055   4.895   4.339   4.643  0.6352 -0.0612  0.4575
 5822SOL    MW423056   4.922   4.307   4.567  0.3540 -0.4960  0.1835
 5823SOL     OW23057   3.341   1.505   3.806  0.3235  0.1658 -0.5376
 5823SOL    HW223058   3.273   1.572   3.814  0.9280  0.6948  0.3272
 5823SOL    HW323059   3.416   1.551   3.768  0.6575 -0.0872 -0.1881
 5823SOL    MW423060   3.342   1.520   3.802  0.2682  0.4366 -0.2604
 5824SOL     OW23061   0.767   2.941   0.604 -0.1983  0.1465  0.0865
 5824SOL    HW223062   0.779   3.033   0.579 -1.1353  0.4270  0.6145
 5824SOL    HW323063   0.697   2.910   0.547 -0.4778  0.0152  0.4942
 5824SOL    MW423064   0.759   2.949   0.593  0.1148 -0.0425 -0.6053
 5825SOL     OW23065   5.228   5.195   5.059 -0.0433 -0.1944  0.8157
 5825SOL    HW223066   5.275   5.151   4.988  0.9455  0.7001  0.8924
 5825SOL    HW323067   5.289   5.193   5.132 -0.6857 -0.2588  1.3509
 5825SOL    MW423068   5.243   5.189   5.059  0.0718  0.1214  0.0215
 5826SOL     OW23069   1.356   3.950   2.085 -0.0966  0.3348  0.5857
 5826SOL    HW223070   1.299   4.021   2.054  0.3479  0.7696  0.7500
 5826SOL    HW323071   1.295   3.882   2.113 -0.5273  0.5389  0.1686
 5826SOL    MW423072   1.340   3.950   2.084 -0.1822 -0.4392  0.7120
 5827SOL     OW23073   1.674   3.322   4.133 -0.5272 -0.2517  0.1992
 5827SOL    HW223074   1.579   3.309   4.140 -0.7922  1.6811  0.8009
 5827SOL    HW323075   1.701   3.350   4.221  0.7531 -1.4465  0.2304
 5827SOL    MW423076   1.665   3.324   4.146 -0.2950 -0.2342  0.1731
 5828SOL     OW23077   6.078   4.255   1.321 -0.0401  0.7147 -0.8163
 5828SOL    HW223078   6.096   4.240   1.229 -0.0734  0.0809 -0.7215
 5828SOL    HW323079   6.139   4.198   1.368 -0.2082  0.8251 -0.4528
 5828SOL    MW423080   6.088   4.245   1.315 -0.0012 -0.2608  0.9760
 5829SOL     OW23081   1.493   5.342   4.452 -1.1124 -0.7199 -0.3234
 5829SOL    HW223082   1.525   5.253   4.466  0.5739 -0.2209 -0.8145
 5829SOL    HW323083   1.524   5.365   4.365 -0.7214  0.6655  0.1523
 5829SOL    MW423084   1.501   5.333   4.443  0.0625  0.3359 -0.2844
 5830SOL     OW23085   1.154   2.361   5.528 -0.0195 -0.3779  0.3735
 5830SOL    HW223086   1.197   2.346   5.444  0.1025  1.1257  0.1430
 5830SOL    HW323087   1.198   2.438   5.565 -0.7347 -0.4153  1.3546
 5830SOL    MW423088   1.165   2.369   5.522  0.3557  0.4872 -0.4657
 5831SOL     OW23089   3.290   6.260   1.164  0.3484 -0.5054 -0.1796
 5831SOL    HW223090   3.304   6.277   1.071 -1.3948 -1.0528 -0.5847
 5831SOL    HW323091   3.198   6.235   1.170  0.8306 -2.0937  1.4569
 5831SOL    MW423092   3.280   6.259   1.153 -0.1133  0.0910 -0.1794
 5832SOL     OW23093   1.869   6.116   3.136  0.2177  0.2571 -0.2879
 5832SOL    HW223094   1.842   6.102   3.227  0.2144 -0.0652 -0.3391
 5832SOL    HW323095   1.803   6.176   3.101  0.4430  0.7049  0.0357
 5832SOL    MW423096   1.857   6.122   3.143  0.0564 -0.3489  0.5334
 5833SOL     OW23097   6.113   0.853   2.214  0.2460 -0.0963 -0.0179
 5833SOL    HW223098   6.127   0.859   2.119  1.1957 -0.5792  0.0798
 5833SOL    HW323099   6.019   0.861   2.224  0.0572 -0.6798 -1.0692
 5833SOL    MW423100   6.103   0.855   2.202  0.4854  0.1540 -0.0530
 5834SOL     OW23101   2.720   3.058   5.661 -0.2748  0.4718  0.1251
 5834SOL    HW223102   2.744   2.971   5.694  1.0849  0.9751  0.4952
 5834SOL    HW323103   2.734   3.052   5.567  1.6536  0.8401  0.3622
 5834SOL    MW423104   2.725   3.045   5.653  0.2617 -0.0487 -0.1040
 5835SOL     OW23105   0.001   0.368   6.152  0.1851  0.3306 -0.5088
 5835SOL    HW223106   0.068   0.313   6.194  0.6506  0.0873 -1.5359
 5835SOL    HW323107  -0.076   0.311   6.146  0.0659  0.4180  0.1414
 5835SOL    MW423108   0.000   0.353   6.157 -0.0091  0.5188  0.1944
 5836SOL     OW23109   1.463   0.676   3.503 -0.7257 -0.1921 -0.0186
 5836SOL    HW223110   1.538   0.648   3.450  0.0999  1.6955  0.0658
 5836SOL    HW323111   1.436   0.597   3.549  2.2761 -0.6365  1.2119
 5836SOL    MW423112   1.469   0.662   3.502 -0.8779 -0.0810 -0.1634
 5837SOL     OW23113   1.568   5.086   4.515 -0.4932 -0.2299  0.3404
 5837SOL    HW223114   1.510   5.022   4.556  0.2350 -0.2365  1.4132
 5837SOL    HW323115   1.608   5.040   4.442  0.6164 -1.2842  1.5667
 5837SOL    MW423116   1.566   5.072   4.511 -0.1485 -0.3296  0.4524
 5838SOL     OW23117   2.418   2.911   5.411  0.3741 -0.1015  0.4561
 5838SOL    HW223118   2.475   2.858   5.467 -0.5235 -2.4209 -0.6984
 5838SOL    HW323119   2.346   2.852   5.388 -0.6497  1.6247 -1.0096
 5838SOL    MW423120   2.416   2.896   5.416 -0.2579 -0.2375 -0.8019
 5839SOL     OW23121   5.766   4.987   4.166  0.3651  0.4036 -0.0299
 5839SOL    HW223122   5.837   4.923   4.172  0.3049  0.3307 -0.0859
 5839SOL    HW323123   5.726   4.987   4.253 -0.0134 -0.0763 -0.1960
 5839SOL    MW423124   5.770   4.979   4.178 -0.3601  0.5284 -0.4444
 5840SOL     OW23125   5.834   2.234   6.265  0.2259  0.1282  0.5866
 5840SOL    HW223126   5.845   2.222   6.359  2.0200 -0.0739  0.3894
 5840SOL    HW323127   5.917   2.272   6.236 -0.0465 -0.4220 -1.0138
 5840SOL    MW423128   5.846   2.237   6.273 -0.0492  0.0504  0.0233
 5841SOL     OW23129   5.329   2.644   2.884  0.2899  0.0682  0.3744
 5841SOL    HW223130   5.284   2.719   2.924  0.5670 -0.7611  2.3737
 5841SOL    HW323131   5.270   2.570   2.900  0.1287 -0.2183 -1.3648
 5841SOL    MW423132   5.315   2.644   2.891  0.0269  0.4663  0.1259
 5842SOL     OW23133   0.690   1.298   4.861  0.2094  0.2917 -0.1023
 5842SOL    HW223134   0.602   1.286   4.897 -0.2874  0.3999 -1.2263
 5842SOL    HW323135   0.698   1.393   4.850 -0.0019  0.2121 -1.0739
 5842SOL    MW423136   0.679   1.309   4.864 -0.4174 -0.1495  0.3673
 5843SOL     OW23137   3.013   6.043   0.941 -0.0914  0.3214 -0.0482
 5843SOL    HW223138   2.988   6.075   1.027 -0.8916  0.8986 -0.4715
 5843SOL    HW323139   2.957   6.092   0.880  1.0476  0.5400 -0.9530
 5843SOL    MW423140   3.002   6.054   0.944  0.5830 -0.0456 -0.5589
 5844SOL     OW23141   5.408   2.999   4.112 -0.1307  1.0779 -0.1765
 5844SOL    HW223142   5.382   3.069   4.053  1.2471  0.0955 -2.0489
 5844SOL    HW323143   5.504   3.004   4.115 -0.1593  1.3223  2.3319
 5844SOL    MW423144   5.417   3.009   4.105 -0.5576  0.1665  1.0497
 5845SOL     OW23145   5.933   4.870   5.095  0.2800 -0.2269  0.3266
 5845SOL    HW223146   6.001   4.815   5.134 -2.0807 -2.0977  2.1002
 5845SOL    HW323147   5.896   4.816   5.024  1.1599  1.1361 -1.2399
 5845SOL    MW423148   5.937   4.855   5.091 -0.5664  0.1513 -0.3043
 5846SOL     OW23149   1.815   2.769   0.639 -0.8199  0.0769  0.2510
 5846SOL    HW223150   1.907   2.769   0.612 -0.5330 -0.8124  1.1872
 5846SOL    HW323151   1.773   2.706   0.581 -1.2460  1.7578 -1.3779
 5846SOL    MW423152   1.822   2.761   0.628  0.0357  0.5213 -0.2896
 5847SOL     OW23153   1.736   1.783   0.512  0.0094 -0.5059 -0.1053
 5847SOL    HW223154   1.659   1.745   0.556 -1.6010 -0.7314 -2.9193
 5847SOL    HW323155   1.801   1.713   0.513 -0.1366 -0.6638  1.4221
 5847SOL    MW423156   1.734   1.769   0.518  0.0793  0.0800  0.4552
 5848SOL     OW23157   4.962   1.408   2.880 -0.2083 -0.0319 -0.2789
 5848SOL    HW223158   5.007   1.465   2.817 -0.4042  0.4054 -0.0222
 5848SOL    HW323159   4.900   1.359   2.827  0.1172 -0.1750 -0.5353
 5848SOL    MW423160   4.960   1.409   2.865  0.2971  0.2216 -0.6836
 5849SOL     OW23161   2.863   4.270   0.832  0.2489 -1.1316 -0.6950
 5849SOL    HW223162   2.779   4.249   0.873  0.8879 -2.6675 -0.0699
 5849SOL    HW323163   2.840   4.299   0.744 -1.0340  0.3226  0.0626
 5849SOL    MW423164   2.849   4.271   0.826 -0.0182 -0.4990 -0.0339
 5850SOL     OW23165   4.934   0.246   1.954  0.5698 -0.2092 -0.2477
 5850SOL    HW223166   4.947   0.199   1.872  0.0574  1.0332 -1.0671
 5850SOL    HW323167   4.981   0.328   1.943  0.3191  0.0678  0.6249
 5850SOL    MW423168   4.942   0.250   1.942 -0.2742 -0.3079 -0.3450
 5851SOL     OW23169   5.688   4.085   5.534  0.5696  0.1147 -0.2238
 5851SOL    HW223170   5.727   4.001   5.558 -1.8090 -1.0864 -0.3256
 5851SOL    HW323171   5.687   4.086   5.439 -1.5515 -0.8935 -0.2741
 5851SOL    MW423172   5.693   4.074   5.525  0.4108 -0.8160  0.0965
 5852SOL     OW23173   3.843   4.192   3.002 -0.2670  0.5400  0.0760
 5852SOL    HW223174   3.809   4.276   2.972 -0.7168  0.3096 -0.0733
 5852SOL    HW323175   3.853   4.140   2.922  0.8297  0.7370  0.0715
 5852SOL    MW423176   3.840   4.196   2.987  0.2026  0.0570  0.4807
 5853SOL     OW23177   4.044   5.489   0.015  0.1299 -0.0140 -0.0692
 5853SOL    HW223178   4.074   5.398   0.013  0.0337 -0.0541  0.2523
 5853SOL    HW323179   4.112   5.535   0.066 -0.3870 -0.1206  0.7343
 5853SOL    MW423180   4.057   5.483   0.022 -0.1549 -0.4492  0.0086
 5854SOL     OW23181   5.802   0.789   0.556  0.0117 -0.4638  0.4091
 5854SOL    HW223182   5.714   0.771   0.590 -0.0380  0.3548  0.7309
 5854SOL    HW323183   5.787   0.837   0.475  0.1541 -1.1036  0.0020
 5854SOL    MW423184   5.788   0.793   0.550 -0.4236  0.0562 -0.1094
 5855SOL     OW23185   4.464   5.502   6.269 -0.1100  0.5080 -0.1533
 5855SOL    HW223186   4.469   5.569   6.338  2.9167  0.7752 -0.5339
 5855SOL    HW323187   4.417   5.545   6.198  0.6028  1.7674  0.1128
 5855SOL    MW423188   4.458   5.516   6.269  0.3400  0.2949 -0.6620
 5856SOL     OW23189   6.025   0.394   0.017 -0.0618  0.2931  0.0157
 5856SOL    HW223190   6.026   0.357   0.106  0.4870  0.0333 -0.0934
 5856SOL    HW323191   5.964   0.468   0.023 -0.0736  0.2456  0.5958
 5856SOL    MW423192   6.017   0.399   0.030 -0.0202  0.0113 -0.1608
 5857SOL     OW23193   2.883   5.639   2.885 -0.3915 -0.3811  0.7724
 5857SOL    HW223194   2.916   5.716   2.931  3.2871 -1.7235  0.7075
 5857SOL    HW323195   2.902   5.566   2.945 -1.5033 -1.5046 -0.1826
 5857SOL    MW423196   2.890   5.639   2.899 -0.2991  0.0560  0.3559
 5858SOL     OW23197   5.223   0.926   4.832 -0.3879  0.3188  0.1723
 5858SOL    HW223198   5.172   0.992   4.785 -0.6846 -1.3453 -2.0087
 5858SOL    HW323199   5.313   0.958   4.828 -0.6347  0.9832 -0.1501
 5858SOL    MW423200   5.228   0.939   4.825 -0.1933  0.1400  0.1543
 5859SOL     OW23201   3.110   4.025   1.384 -0.3364 -0.0703  0.2788
 5859SOL    HW223202   3.102   4.080   1.462 -3.0712  1.2112 -0.8206
 5859SOL    HW323203   3.109   4.086   1.311 -2.3776 -1.4726 -0.9380
 5859SOL    MW423204   3.109   4.040   1.385  0.0879 -0.0572  0.3037
 5860SOL     OW23205   0.090   4.474   1.341 -0.4740  0.0971  0.5876
 5860SOL    HW223206   0.140   4.487   1.422  0.8577  2.0175 -0.4632
 5860SOL    HW323207   0.126   4.393   1.303  1.8192  1.3359 -0.0523
 5860SOL    MW423208   0.101   4.465   1.347  0.1350  0.0962 -0.0475
 5861SOL     OW23209   3.974   0.483   5.583  0.1784 -0.0415  0.4249
 5861SOL    HW223210   3.938   0.397   5.604 -1.7357  0.4125 -0.7674
 5861SOL    HW323211   3.914   0.544   5.625  1.3989  0.7457  1.0805
 5861SOL    MW423212   3.961   0.480   5.592 -0.8452  0.6570 -0.7740
 5862SOL     OW23213   6.045   0.666   3.140 -0.3350  0.3026  0.2527
 5862SOL    HW223214   6.008   0.666   3.229 -0.0932  0.6786  0.3549
 5862SOL    HW323215   6.025   0.753   3.106  0.8804  0.7012  0.4977
 5862SOL    MW423216   6.037   0.678   3.148  0.8082  0.3411  0.1531
 5863SOL     OW23217   4.958   0.536   3.881  0.2771  0.0861  0.7319
 5863SOL    HW223218   4.939   0.555   3.973  1.0054  1.1990  0.6674
 5863SOL    HW323219   4.877   0.558   3.835 -0.5266 -1.6400  1.2036
 5863SOL    MW423220   4.944   0.541   3.887 -0.3308 -0.1637  0.8609
 5864SOL     OW23221   6.044   3.068   0.129  0.0888 -0.8954 -0.0609
 5864SOL    HW223222   6.131   3.071   0.170 -0.5320 -0.8304  1.2982
 5864SOL    HW323223   5.986   3.036   0.198 -1.1931  0.2890 -0.5419
 5864SOL    MW423224   6.048   3.064   0.143 -0.0180 -0.0504  0.1297
 5865SOL     OW23225   0.055   4.250   3.626 -0.1447  0.0512  0.0173
 5865SOL    HW223226   0.061   4.182   3.694 -1.7302  1.0117  1.1889
 5865SOL    HW323227   0.119   4.316   3.653 -2.3845  1.5650  2.0360
 5865SOL    MW423228   0.064   4.249   3.639 -0.2074  0.1265  0.2367
 5866SOL     OW23229   5.810   0.654   0.916  0.1577 -0.5355 -0.5255
 5866SOL    HW223230   5.719   0.637   0.941  0.0809  0.4898 -0.0552
 5866SOL    HW323231   5.824   0.598   0.839  0.0272 -2.8435  1.0268
 5866SOL    MW423232   5.800   0.644   0.909 -0.1937  0.2492  0.4096
 5867SOL     OW23233   0.555   0.436   0.666  1.1151  0.3252 -0.1151
 5867SOL    HW223234   0.594   0.395   0.589  1.1484  0.2159 -0.0397
 5867SOL    HW323235   0.520   0.519   0.634  0.1239 -0.2250 -0.4991
 5867SOL    MW423236   0.555   0.442   0.652  0.3612  0.5581  0.3769
 5868SOL     OW23237   1.165   3.918   2.703 -0.2619 -0.0061 -0.0070
 5868SOL    HW223238   1.245   3.970   2.703 -0.7710  0.7928  0.4543
 5868SOL    HW323239   1.139   3.912   2.611  0.2433 -0.1523 -0.1414
 5868SOL    MW423240   1.172   3.924   2.691  0.0005  0.6388  0.2077
 5869SOL     OW23241   4.059   1.015   3.422  0.3176  0.5629  0.1596
 5869SOL    HW223242   3.973   1.036   3.458  0.2394 -2.5145  2.2010
 5869SOL    HW323243   4.119   1.073   3.469 -0.3706  0.3905  1.2999
 5869SOL    MW423244   4.056   1.025   3.433 -0.1577  0.0448  0.4738
 5870SOL     OW23245   0.980   2.248   4.574  0.5181  0.3578  0.1983
 5870SOL    HW223246   1.001   2.155   4.587  1.6565  0.5107 -0.3844
 5870SOL    HW323247   0.929   2.272   4.652 -0.4925 -0.9473 -0.0366
 5870SOL    MW423248   0.976   2.239   4.586 -0.0172 -0.0717  0.5240
 5871SOL     OW23249   4.441   3.388   1.918  0.1944 -0.5281 -0.1500
 5871SOL    HW223250   4.414   3.430   1.836 -0.1623 -0.9496 -0.2514
 5871SOL    HW323251   4.363   3.391   1.974  0.1565 -1.0734 -0.1661
 5871SOL    MW423252   4.427   3.394   1.915 -0.3201 -0.3481 -0.1121
 5872SOL     OW23253   5.474   4.033   3.349 -0.1332 -0.3063 -0.0193
 5872SOL    HW223254   5.453   3.942   3.368  0.4358 -0.5966 -0.7385
 5872SOL    HW323255   5.566   4.031   3.322  0.6225  0.7920  2.2036
 5872SOL    MW423256   5.483   4.021   3.348 -0.5704 -0.1336  0.2894
 5873SOL     OW23257   6.117   3.622   3.857 -0.1987  0.5232 -0.2589
 5873SOL    HW223258   6.106   3.605   3.950 -0.5055 -0.6995 -0.5012
 5873SOL    HW323259   6.028   3.641   3.825  0.0146  1.7604 -0.1655
 5873SOL    MW423260   6.104   3.622   3.865 -0.1399 -0.0223  0.3266
 5874SOL     OW23261   3.721   5.121   3.019  0.7085  0.2952  0.3653
 5874SOL    HW223262   3.781   5.192   3.042 -0.7425  0.9261  2.4196
 5874SOL    HW323263   3.779   5.050   2.991  2.4254  0.9819  1.9424
 5874SOL    MW423264   3.737   5.121   3.018 -0.2502 -0.4052  0.7663
 5875SOL     OW23265   6.340   4.359   6.033 -0.3768 -0.4521  0.5145
 5875SOL    HW223266   6.253   4.318   6.030 -0.0374 -1.1498 -0.9889
 5875SOL    HW323267   6.401   4.285   6.044 -0.0316  0.2133  4.8909
 5875SOL    MW423268   6.337   4.344   6.034 -0.6982 -0.0569  0.2135
 5876SOL     OW23269   1.087   2.107   3.283  0.1068  0.1638  0.5823
 5876SOL    HW223270   1.116   2.043   3.219  0.5203  2.0091 -1.1834
 5876SOL    HW323271   1.162   2.119   3.341  0.1780 -0.6106  0.6518
 5876SOL    MW423272   1.100   2.100   3.282 -0.2739 -0.0929  0.2792
 5877SOL     OW23273   2.243   5.486   1.746 -0.2887  0.4836  0.1807
 5877SOL    HW223274   2.162   5.466   1.793  0.1864 -0.7748  0.4901
 5877SOL    HW323275   2.248   5.420   1.677  0.5904  0.4038  0.3123
 5877SOL    MW423276   2.233   5.475   1.743  0.1984  0.2605  0.8254
 5878SOL     OW23277   3.024   5.764   4.361 -0.2944  0.3074  0.0535
 5878SOL    HW223278   2.932   5.738   4.359 -0.1699 -0.1213 -1.7076
 5878SOL    HW323279   3.068   5.691   4.406 -0.4520 -0.8615 -1.6045
 5878SOL    MW423280   3.018   5.751   4.367 -1.0970  0.2528 -0.3132
 5879SOL     OW23281   1.853   6.208   5.242  0.4882  0.0641  0.3018
 5879SOL    HW223282   1.871   6.203   5.148 -2.1236  0.2194 -0.2697
 5879SOL    HW323283   1.824   6.298   5.256  1.5996  0.2729  1.4395
 5879SOL    MW423284   1.852   6.219   5.231  0.1537 -0.2638  0.5272
 5880SOL     OW23285   4.903   3.095   2.784 -0.4275 -0.3617 -0.0722
 5880SOL    HW223286   4.919   3.143   2.702 -2.0042 -1.4966 -1.1095
 5880SOL    HW323287   4.959   3.139   2.848 -0.5596  1.8028 -1.3130
 5880SOL    MW423288   4.912   3.107   2.782 -0.1555 -0.2249 -0.4393
 5881SOL     OW23289   6.244   5.662   0.622 -0.0302 -0.4861 -0.1280
 5881SOL    HW223290   6.250   5.567   0.615  2.5824 -0.4701  0.8799
 5881SOL    HW323291   6.239   5.679   0.716  1.8249  0.3985 -0.1418
 5881SOL    MW423292   6.244   5.652   0.634 -0.3558  0.6231  0.2957
 5882SOL     OW23293   3.498   2.378   6.128 -0.1988 -0.1531 -0.4538
 5882SOL    HW223294   3.503   2.399   6.221  0.0785 -1.1142 -0.2332
 5882SOL    HW323295   3.448   2.450   6.089 -2.2677 -0.8219  0.8013
 5882SOL    MW423296   3.492   2.390   6.135 -0.4744  0.2160 -1.0997
 5883SOL     OW23297   1.480   6.284   1.968  0.2159  0.6763 -0.4878
 5883SOL    HW223298   1.468   6.231   2.047 -1.3487  0.0976 -1.0739
 5883SOL    HW323299   1.568   6.261   1.937  0.8197  0.8487  1.0090
 5883SOL    MW423300   1.490   6.274   1.974 -0.4086  0.7571  0.2863
 5884SOL     OW23301   5.457   2.362   5.045 -0.2935 -0.0760 -0.0038
 5884SOL    HW223302   5.376   2.317   5.021  0.1548 -0.6837 -0.4189
 5884SOL    HW323303   5.512   2.294   5.083  0.2988  0.1740 -0.4011
 5884SOL    MW423304   5.453   2.347   5.047  0.4178  0.0561 -0.1849
 5885SOL     OW23305   5.051   6.255   5.046 -0.0393 -0.4645  0.3527
 5885SOL    HW223306   5.081   6.337   5.085 -0.2652 -0.5761  0.7625
 5885SOL    HW323307   5.073   6.188   5.111  1.2138 -0.8961 -0.4629
 5885SOL    MW423308   5.058   6.257   5.060 -0.5856 -0.4454  0.5475
 5886SOL     OW23309   2.581   3.809   2.400 -0.1630  0.1603 -0.3370
 5886SOL    HW223310   2.566   3.722   2.363 -1.5626  0.6595 -1.0480
 5886SOL    HW323311   2.672   3.808   2.428  0.0391 -1.3113 -0.9392
 5886SOL    MW423312   2.591   3.797   2.399 -0.1769 -0.4276  0.0577
 5887SOL     OW23313   2.589   2.896   1.651 -0.0701 -0.0103  0.1867
 5887SOL    HW223314   2.649   2.826   1.679 -0.5937 -0.7831 -0.5875
 5887SOL    HW323315   2.580   2.884   1.556 -1.4140  0.1177  0.2789
 5887SOL    MW423316   2.596   2.885   1.642  0.5975 -0.2872  0.0653
 5888SOL     OW23317   1.092   1.711   4.953 -0.6294  0.0132  0.1951
 5888SOL    HW223318   1.127   1.623   4.945 -1.0709 -0.0269 -1.7814
 5888SOL    HW323319   1.023   1.715   4.887 -1.6811  1.3451  1.3134
 5888SOL    MW423320   1.087   1.700   4.943  0.4860  0.2273 -0.3147
 5889SOL     OW23321   4.469   2.285   3.118  0.4315  0.5986  0.2879
 5889SOL    HW223322   4.517   2.334   3.051  1.7041  0.9710  1.4488
 5889SOL    HW323323   4.531   2.220   3.150 -0.2105  0.3271  1.0162
 5889SOL    MW423324   4.484   2.283   3.113  0.4174  0.2001 -0.1027
 5890SOL     OW23325   5.481   6.400   1.390 -0.9015  0.3724  0.1912
 5890SOL    HW223326   5.524   6.447   1.462 -1.4926 -0.5182  1.1468
 5890SOL    HW323327   5.480   6.309   1.418  1.5226 -0.5609 -2.2292
 5890SOL    MW423328   5.487   6.394   1.403 -0.7444 -0.1653  0.4003
 5891SOL     OW23329   5.051   1.930   1.141 -0.3377 -0.1986 -0.1984
 5891SOL    HW223330   5.080   1.921   1.050  0.5316 -0.3731  0.0901
 5891SOL    HW323331   5.056   2.024   1.159 -0.1529 -0.2062 -0.2116
 5891SOL    MW423332   5.055   1.941   1.131 -0.3229  0.2815 -0.1719
 5892SOL     OW23333   1.432   5.760   1.901  0.2808 -0.0126 -0.3296
 5892SOL    HW223334   1.501   5.708   1.943 -0.2015 -0.7046 -0.3690
 5892SOL    HW323335   1.352   5.710   1.918  0.2177 -1.0600 -3.2619
 5892SOL    MW423336   1.430   5.746   1.909 -0.9598 -0.3198 -0.1847
 5893SOL     OW23337   1.564   3.358   6.226 -0.5037 -0.5757  0.3280
 5893SOL    HW223338   1.604   3.283   6.182 -1.2414 -1.2742  0.8099
 5893SOL    HW323339   1.504   3.395   6.161  1.4492  1.0040 -0.7100
 5893SOL    MW423340   1.561   3.353   6.211 -0.0188 -0.5333  0.2238
 5894SOL     OW23341   0.688   6.225   3.875  0.0190  0.0452  0.8133
 5894SOL    HW223342   0.773   6.247   3.837 -0.9376 -0.3132 -1.7112
 5894SOL    HW323343   0.649   6.310   3.898  0.8281  0.2345  1.5460
 5894SOL    MW423344   0.694   6.239   3.873 -0.0263 -0.1219 -0.1495
 5895SOL     OW23345   2.816   1.482   3.874 -0.5522  0.3059  0.5078
 5895SOL    HW223346   2.823   1.514   3.784 -2.3662  1.5972  0.7706
 5895SOL    HW323347   2.803   1.561   3.927 -0.3379 -0.5001  1.7964
 5895SOL    MW423348   2.815   1.497   3.869  0.3080 -0.6571 -0.3547
 5896SOL     OW23349   4.101   3.140   6.193  0.0032  0.1371 -0.5937
 5896SOL    HW223350   4.014   3.127   6.232  0.0985  0.8206 -0.1289
 5896SOL    HW323351   4.100   3.088   6.113 -0.1169 -1.5196  0.4476
 5896SOL    MW423352   4.089   3.132   6.188  0.2944 -0.1450  0.2638
 5897SOL     OW23353   4.782   4.888   5.195 -0.5159 -0.3840  0.0036
 5897SOL    HW223354   4.876   4.899   5.207 -0.2403 -0.6510 -1.7237
 5897SOL    HW323355   4.772   4.865   5.103 -2.2576 -0.6140  0.2226
 5897SOL    MW423356   4.793   4.887   5.185 -0.6176  0.1846 -0.1597
 5898SOL     OW23357   3.871   3.344   4.332  0.6324  0.3178  0.2780
 5898SOL    HW223358   3.814   3.323   4.258  0.2367  1.3214  0.2779
 5898SOL    HW323359   3.958   3.312   4.306  0.6065  1.0976 -0.8449
 5898SOL    MW423360   3.875   3.337   4.318 -0.0480  0.7614 -0.5342
 5899SOL     OW23361   4.405   0.386   4.915  0.1192 -0.0959  0.0769
 5899SOL    HW223362   4.423   0.370   5.008  0.8729 -0.9269 -0.1937
 5899SOL    HW323363   4.310   0.383   4.908 -0.0118  1.1627  1.0158
 5899SOL    MW423364   4.395   0.383   4.927  0.2791  0.3498 -0.0727
 5900SOL     OW23365   6.377   5.048   0.136 -0.1782  0.4724 -0.0461
 5900SOL    HW223366   6.374   4.954   0.121  0.3352  0.2050  1.3906
 5900SOL    HW323367   6.287   5.078   0.120 -0.6365 -0.4599  0.6816
 5900SOL    MW423368   6.365   5.040   0.132  0.1616  0.2526  0.2760
 5901SOL     OW23369   0.594   3.742   5.101  0.3960 -0.0818  0.5354
 5901SOL    HW223370   0.609   3.670   5.039 -1.9068 -0.2017  0.0105
 5901SOL    HW323371   0.658   3.727   5.170  1.3724 -1.4133 -0.5858
 5901SOL    MW423372   0.604   3.730   5.102 -0.3983 -0.4572 -0.3181
 5902SOL     OW23373   4.565   4.226   2.360  0.2536  0.0873 -0.2892
 5902SOL    HW223374   4.502   4.299   2.357  0.0389 -0.0725  0.2333
 5902SOL    HW323375   4.636   4.254   2.303 -1.5554 -0.9383 -3.2844
 5902SOL    MW423376   4.566   4.240   2.352  0.1404 -0.0335 -0.0827
 5903SOL     OW23377   3.257   4.618   1.922 -0.0173  0.0292  0.1694
 5903SOL    HW223378   3.324   4.658   1.977 -0.7914  0.0721  1.1070
 5903SOL    HW323379   3.175   4.661   1.948 -0.3568  0.2909 -1.2558
 5903SOL    MW423380   3.255   4.629   1.933 -0.2556 -0.5275 -0.6242
 5904SOL     OW23381   3.277   2.220   6.250  0.6458  0.1878  0.1969
 5904SOL    HW223382   3.338   2.246   6.182  0.5940 -1.5178 -0.5449
 5904SOL    HW323383   3.267   2.125   6.239 -1.5123  0.2870  0.7849
 5904SOL    MW423384   3.283   2.211   6.240 -0.2763  0.2982 -0.2933
 5905SOL     OW23385   1.014   2.317   2.417 -0.6770  0.1222  0.3307
 5905SOL    HW223386   0.947   2.327   2.484 -1.4108 -0.1620 -0.3538
 5905SOL    HW323387   0.966   2.313   2.335  0.0782 -1.2763 -0.0826
 5905SOL    MW423388   0.999   2.318   2.415 -0.6099 -0.2988 -0.0015
 5906SOL     OW23389   6.047   4.555   4.918 -0.4578  0.1143  0.0942
 5906SOL    HW223390   6.038   4.570   5.012  0.5236  1.5795 -0.0167
 5906SOL    HW323391   6.134   4.589   4.897 -0.8837  0.3173 -1.4369
 5906SOL    MW423392   6.057   4.561   4.928  0.1305  0.5718 -0.1679
 5907SOL     OW23393   1.286   1.980   5.323  0.1410  0.0892 -0.6913
 5907SOL    HW223394   1.221   1.912   5.307 -0.6660  1.1593 -2.1255
 5907SOL    HW323395   1.351   1.967   5.254 -0.8040  1.6628 -1.9508
 5907SOL    MW423396   1.286   1.970   5.311 -0.2727 -0.5805  0.3115
 5908SOL     OW23397   6.211   0.833   0.652  0.0158  0.5493 -0.3282
 5908SOL    HW223398   6.171   0.848   0.567 -0.5747  1.3066  0.0692
 5908SOL    HW323399   6.137   0.831   0.713  0.4452  0.1928  0.1974
 5908SOL    MW423400   6.196   0.834   0.649 -0.5030 -0.0905 -0.1817
 5909SOL     OW23401   2.950   5.045   0.289 -0.6729  0.2909 -0.2930
 5909SOL    HW223402   2.991   5.091   0.363 -1.7475  0.1192  0.4371
 5909SOL    HW323403   2.857   5.040   0.313 -0.6627 -1.9469 -0.5057
 5909SOL    MW423404   2.943   5.050   0.302  0.0128  0.2175 -0.1944
 5910SOL     OW23405   1.574   2.406   4.123  0.5250  0.2689 -0.6027
 5910SOL    HW223406   1.606   2.381   4.036  0.1973 -0.3573 -0.5440
 5910SOL    HW323407   1.609   2.494   4.136  1.9784 -0.2694 -0.6669
 5910SOL    MW423408   1.583   2.414   4.113  0.7100  0.5048 -0.4507
 5911SOL     OW23409   0.559   2.423   2.978 -0.5807  0.4153  0.2710
 5911SOL    HW223410   0.609   2.379   3.048 -0.1431 -0.4793 -0.5818
 5911SOL    HW323411   0.469   2.422   3.009 -0.5158 -0.7404  0.4418
 5911SOL    MW423412   0.554   2.417   2.991 -0.0734  0.1757  0.3333
 5912SOL     OW23413   0.069   0.265   0.829  0.0047  0.4938 -0.3764
 5912SOL    HW223414   0.008   0.315   0.775  0.4742  3.6855  1.7098
 5912SOL    HW323415   0.090   0.324   0.902  2.0753 -2.1811  1.4246
 5912SOL    MW423416   0.064   0.279   0.832 -0.6214 -0.4023  0.2887
 5913SOL     OW23417   4.093   2.720   3.923  0.6588 -0.0982  0.2377
 5913SOL    HW223418   4.165   2.777   3.896  0.9232 -0.0498  1.0058
 5913SOL    HW323419   4.049   2.696   3.842  1.0292  0.5577 -0.1649
 5913SOL    MW423420   4.097   2.725   3.909  0.3626 -0.4546  0.0862
 5914SOL     OW23421   2.245   5.316   4.935 -0.2408  0.5807  0.2806
 5914SOL    HW223422   2.154   5.324   4.907 -0.0814  2.1165  0.0934
 5914SOL    HW323423   2.295   5.314   4.853 -0.1112 -0.6673  0.3711
 5914SOL    MW423424   2.240   5.317   4.921  0.1979 -0.6033  0.5491
 5915SOL     OW23425   2.964   6.171   5.435 -0.3346 -0.0016 -0.1866
 5915SOL    HW223426   2.933   6.081   5.439 -1.2869  0.3100 -0.0307
 5915SOL    HW323427   3.051   6.166   5.397 -0.6078 -0.9361 -0.7182
 5915SOL    MW423428   2.971   6.159   5.431  0.4738 -0.1905 -0.6631
 5916SOL     OW23429   0.236   6.072   5.251  0.7770 -0.0233 -0.4339
 5916SOL    HW223430   0.212   6.102   5.339  2.6367 -0.4137  0.2503
 5916SOL    HW323431   0.229   6.150   5.196 -0.0247  0.3111  0.1310
 5916SOL    MW423432   0.232   6.086   5.255 -0.1600 -0.6707  0.0117
 5917SOL     OW23433   3.278   1.420   3.493  0.1262 -0.5345 -0.6383
 5917SOL    HW223434   3.335   1.494   3.515  0.4133 -0.2726 -2.2103
 5917SOL    HW323435   3.338   1.349   3.471 -0.1563 -0.6827 -0.9334
 5917SOL    MW423436   3.294   1.421   3.493 -0.5527 -0.5058 -0.5169
 5918SOL     OW23437   4.943   4.493   5.169 -0.3635 -0.6927  0.2908
 5918SOL    HW223438   4.938   4.405   5.205 -1.0850 -1.3055 -1.2242
 5918SOL    HW323439   4.908   4.550   5.238 -0.8502 -1.7157  0.9029
 5918SOL    MW423440   4.938   4.489   5.183 -0.3929 -0.2604 -0.0378
 5919SOL     OW23441   6.418   0.356   4.364  0.0582 -0.1262  0.5413
 5919SOL    HW223442   6.432   0.269   4.402 -1.6109 -1.7116 -2.0803
 5919SOL    HW323443   6.337   0.387   4.406  0.1484 -0.2666  0.8203
 5919SOL    MW423444   6.409   0.348   4.374  0.0826 -0.5273  0.3420
 5920SOL     OW23445   4.660   0.022   0.092  0.0578  0.0156 -0.0412
 5920SOL    HW223446   4.694   0.110   0.105 -0.6265  0.0229  2.0949
 5920SOL    HW323447   4.734  -0.035   0.112  0.1735  0.1028 -0.2252
 5920SOL    MW423448   4.674   0.026   0.097  0.0120 -0.0809  0.3449
 5921SOL     OW23449   3.137   4.184   3.243 -0.5794 -0.2040  0.1484
 5921SOL    HW223450   3.183   4.178   3.327  0.0268 -0.5632 -0.1989
 5921SOL    HW323451   3.151   4.099   3.202 -3.2379 -1.0729  0.8504
 5921SOL    MW423452   3.145   4.172   3.249  0.5410  0.8231  0.4891
 5922SOL     OW23453   2.081   5.433   6.045  0.9165 -0.3707  0.8789
 5922SOL    HW223454   2.006   5.393   6.090  0.1666  0.4891  0.4091
 5922SOL    HW323455   2.048   5.456   5.959  1.0813  1.9610  1.3732
 5922SOL    MW423456   2.066   5.430   6.040 -0.0420 -0.9858  0.3853
 5923SOL     OW23457   1.200   5.167   4.231  1.0398  0.2099  0.1302
 5923SOL    HW223458   1.257   5.119   4.172  0.5662  0.6915 -0.7397
 5923SOL    HW323459   1.177   5.104   4.299  0.6473 -0.7074 -0.8330
 5923SOL    MW423460   1.205   5.152   4.233 -0.7479 -0.4168 -0.6674
 5924SOL     OW23461   0.199   5.056   2.840 -0.5367  0.4460  0.0347
 5924SOL    HW223462   0.120   5.071   2.788 -1.1142 -0.3971  0.6286
 5924SOL    HW323463   0.182   4.972   2.883  0.9690 -0.0838 -0.3470
 5924SOL    MW423464   0.186   5.047   2.838  0.1939 -0.5112  0.1742
 5925SOL     OW23465   2.344   5.474   2.117  0.0046 -0.5883  0.1235
 5925SOL    HW223466   2.392   5.510   2.042 -0.1885  0.4022  0.4703
 5925SOL    HW323467   2.321   5.385   2.089  1.8766 -1.0321 -0.1153
 5925SOL    MW423468   2.347   5.467   2.103  0.4661 -0.0390 -0.2539
 5926SOL     OW23469   4.186   4.072   0.086  0.6327 -0.7285 -0.1639
 5926SOL    HW223470   4.147   4.063   0.173 -2.6171  0.2789 -1.3862
 5926SOL    HW323471   4.256   4.137   0.098  1.4162 -1.8825  1.9666
 5926SOL    MW423472   4.190   4.079   0.099 -0.2072 -0.3762  0.1574
 5927SOL     OW23473   5.585   3.442   4.346 -0.0234 -0.8760 -0.0014
 5927SOL    HW223474   5.527   3.476   4.278  1.6510 -0.6866 -1.4147
 5927SOL    HW323475   5.645   3.515   4.363  0.2347 -1.2961  0.9274
 5927SOL    MW423476   5.585   3.456   4.340  0.4405  0.3845 -0.2359
 5928SOL     OW23477   4.705   4.492   4.994  0.3813 -0.4673  0.2416
 5928SOL    HW223478   4.783   4.483   5.049 -1.5333  0.6056  3.4084
 5928SOL    HW323479   4.651   4.416   5.016 -0.0178 -0.5603 -0.9716
 5928SOL    MW423480   4.708   4.481   5.004 -0.2880 -0.8151  0.3672
 5929SOL     OW23481   0.430   2.350   6.168  0.3850 -0.0269  0.3297
 5929SOL    HW223482   0.522   2.361   6.193  0.5993 -0.6119 -0.1740
 5929SOL    HW323483   0.433   2.303   6.084 -0.3659  0.2454  0.1416
 5929SOL    MW423484   0.442   2.345   6.160 -0.2837 -0.3049  0.3344
 5930SOL     OW23485   2.216   6.315   0.192 -0.4814  0.1385 -0.3841
 5930SOL    HW223486   2.133   6.268   0.185 -1.4006  1.5469  0.5153
 5930SOL    HW323487   2.262   6.273   0.265 -1.2445  0.5612  0.3455
 5930SOL    MW423488   2.211   6.303   0.200 -0.9409  0.2253  0.6198
 5931SOL     OW23489   6.053   3.297   1.597 -0.5222  0.1967  0.2782
 5931SOL    HW223490   6.064   3.228   1.663 -0.6807 -0.2654 -0.1710
 5931SOL    HW323491   6.054   3.379   1.647  1.2256 -0.0253  0.6757
 5931SOL    MW423492   6.055   3.299   1.613  0.2952 -0.5780  0.2360
 5932SOL     OW23493   0.120   2.637   5.115 -0.0763 -0.0699  0.5371
 5932SOL    HW223494   0.046   2.696   5.108 -2.2328 -2.5934  0.3046
 5932SOL    HW323495   0.086   2.561   5.162  2.8120 -0.7680  1.7758
 5932SOL    MW423496   0.106   2.634   5.120 -0.0542 -0.1287 -0.6451
 5933SOL     OW23497   6.347   2.427   4.177  0.6554 -0.1847  0.1849
 5933SOL    HW223498   6.259   2.463   4.189  0.1562 -0.4326 -2.1927
 5933SOL    HW323499   6.400   2.503   4.155 -0.1025 -0.4955 -3.3890
 5933SOL    MW423500   6.342   2.442   4.176  0.6475 -0.4662 -0.2322
 5934SOL     OW23501   6.129   1.131   3.436 -0.0278  0.3295 -0.6650
 5934SOL    HW223502   6.082   1.214   3.436 -1.3099 -0.3761 -1.1027
 5934SOL    HW323503   6.143   1.110   3.344 -1.5942 -0.9501 -0.6468
 5934SOL    MW423504   6.125   1.139   3.424  0.7127  0.2902 -0.3022
 5935SOL     OW23505   4.556   5.281   4.953 -0.2676 -0.1556  0.0911
 5935SOL    HW223506   4.482   5.295   5.013 -0.2738  0.3416 -0.0309
 5935SOL    HW323507   4.579   5.189   4.965 -0.8235 -0.2852  0.2308
 5935SOL    MW423508   4.549   5.271   4.962 -0.1451 -0.0591  0.3257
 5936SOL     OW23509   1.018   1.065   3.131 -0.4912  0.3144  0.4190
 5936SOL    HW223510   0.974   0.987   3.096 -0.5348  0.1744  0.7788
 5936SOL    HW323511   1.008   1.057   3.226  2.2880 -0.9127  0.7037
 5936SOL    MW423512   1.011   1.053   3.139 -0.1755 -0.1674  0.3666
 5937SOL     OW23513   2.900   1.883   5.597  0.0586  0.5180 -1.0122
 5937SOL    HW223514   2.908   1.797   5.639  0.2808  1.0987  0.1831
 5937SOL    HW323515   2.972   1.886   5.534 -0.6133 -0.5929 -1.8543
 5937SOL    MW423516   2.910   1.872   5.595 -0.9398 -0.0545  0.3313
 5938SOL     OW23517   2.990   1.329   2.431  0.4881  0.1523 -0.2899
 5938SOL    HW223518   3.017   1.237   2.426 -0.7068 -0.1441 -1.8967
 5938SOL    HW323519   2.911   1.328   2.484 -0.6040 -0.0496 -1.8563
 5938SOL    MW423520   2.983   1.317   2.437  0.0891 -0.2668 -0.1661
 5939SOL     OW23521   1.965   0.129   5.988  0.3025 -0.8463  0.1806
 5939SOL    HW223522   1.998   0.219   5.998 -1.6713  0.0233 -0.5619
 5939SOL    HW323523   2.043   0.075   5.982  1.5611  0.9826 -0.6326
 5939SOL    MW423524   1.979   0.134   5.989 -0.2685  0.0380  0.0838
 5940SOL     OW23525   2.539   1.904   5.248  0.6331  0.2335 -0.0574
 5940SOL    HW223526   2.480   1.954   5.304 -2.2244 -1.2836 -1.5039
 5940SOL    HW323527   2.547   1.958   5.169  1.9296  0.8101  0.4388
 5940SOL    MW423528   2.533   1.918   5.245 -0.4777 -0.1660 -0.1610
 5941SOL     OW23529   3.967   2.663   2.253 -0.0512  0.0275  0.0420
 5941SOL    HW223530   3.897   2.621   2.302  0.3506 -0.7340 -0.0253
 5941SOL    HW323531   3.962   2.624   2.166 -0.5235  1.1014 -0.4383
 5941SOL    MW423532   3.957   2.653   2.248 -0.0999 -0.2739 -0.1878
 5942SOL     OW23533   4.106   0.369   0.787  0.1140  0.4750 -0.0303
 5942SOL    HW223534   4.163   0.293   0.775  0.3964  0.8567 -1.2452
 5942SOL    HW323535   4.019   0.331   0.801  0.0544 -0.0956 -1.6956
 5942SOL    MW423536   4.102   0.354   0.787 -0.2521 -0.4967 -0.5918
 5943SOL     OW23537   3.631   4.137   4.712 -0.0360  0.4480 -0.0767
 5943SOL    HW223538   3.565   4.068   4.713 -0.8067  1.1753  0.0670
 5943SOL    HW323539   3.587   4.214   4.749  1.5913  0.3381  2.2518
 5943SOL    MW423540   3.617   4.138   4.717 -0.0401 -0.2872 -0.0926
 5944SOL     OW23541   3.798   0.252   5.531 -0.4793  0.6082  0.0000
 5944SOL    HW223542   3.854   0.239   5.455  1.2778 -2.0489  1.5810
 5944SOL    HW323543   3.721   0.297   5.497  1.2237  1.5744 -2.8670
 5944SOL    MW423544   3.795   0.256   5.517 -0.2660 -0.2928 -0.1647
 5945SOL     OW23545   1.945   3.193   4.275  0.1828  0.2289 -0.0866
 5945SOL    HW223546   1.890   3.153   4.208  0.8794 -0.4183 -0.2863
 5945SOL    HW323547   2.030   3.150   4.265 -0.0161 -0.7540  2.0052
 5945SOL    MW423548   1.949   3.182   4.265 -0.1374 -0.3004 -0.1320
 5946SOL     OW23549   1.189   0.695   0.536 -0.4178 -0.3213  0.0519
 5946SOL    HW223550   1.110   0.673   0.586 -1.6550  1.1055 -1.1760
 5946SOL    HW323551   1.247   0.736   0.600 -1.6157  0.6812  0.5459
 5946SOL    MW423552   1.186   0.697   0.551  0.5724 -0.4042  0.3731
 5947SOL     OW23553   4.825   2.214   1.956 -0.1613 -0.5955  0.4804
 5947SOL    HW223554   4.762   2.145   1.937 -0.9655  0.2137  0.1015
 5947SOL    HW323555   4.788   2.292   1.915 -0.4837  0.5964  2.8518
 5947SOL    MW423556   4.812   2.215   1.948  0.3468 -0.0274 -0.5369
 5948SOL     OW23557   1.365   4.731   6.392 -0.2789  0.2857  0.2103
 5948SOL    HW223558   1.389   4.775   6.474  2.5263 -1.0619  0.2175
 5948SOL    HW323559   1.275   4.702   6.407 -0.1890  0.9246  2.4377
 5948SOL    MW423560   1.356   4.733   6.405 -0.6324  0.4346 -0.4168
 5949SOL     OW23561   2.097   1.794   6.204 -0.3172 -0.0330  0.0976
 5949SOL    HW223562   2.153   1.866   6.177 -0.3636 -0.3651 -0.9248
 5949SOL    HW323563   2.009   1.830   6.203 -0.1021  0.6633  2.3034
 5949SOL    MW423564   2.093   1.808   6.200  0.2972 -0.3344 -0.5811
 5950SOL     OW23565   3.737   2.884   6.323 -0.1197 -0.2010 -0.5408
 5950SOL    HW223566   3.669   2.865   6.387 -2.1047  1.0178 -2.1437
 5950SOL    HW323567   3.770   2.970   6.347  1.6709 -1.2029  0.8234
 5950SOL    MW423568   3.732   2.893   6.334 -0.5169  0.0283 -0.0363
 5951SOL     OW23569   0.519   3.337   1.986  0.1740  0.0238  0.5101
 5951SOL    HW223570   0.465   3.371   1.915 -1.0499 -0.7709  1.0187
 5951SOL    HW323571   0.541   3.248   1.958  2.0163  0.6380 -0.0983
 5951SOL    MW423572   0.515   3.330   1.973  0.1476 -0.1303  0.7095
 5952SOL     OW23573   1.996   3.003   4.577 -0.1227  0.5883 -0.3429
 5952SOL    HW223574   1.937   2.964   4.512 -1.4418  2.4750 -0.3613
 5952SOL    HW323575   1.938   3.036   4.645  1.1129  0.4403  0.8210
 5952SOL    MW423576   1.981   3.002   4.577 -0.8948  0.4542  0.5470
 5953SOL     OW23577   4.747   0.297   2.621  0.3216 -0.1557  0.4722
 5953SOL    HW223578   4.740   0.335   2.533  1.1664  0.4112  0.6343
 5953SOL    HW323579   4.740   0.372   2.680  1.4343 -0.3161  0.8236
 5953SOL    MW423580   4.745   0.312   2.617  0.1601  0.1332  0.3841
 5954SOL     OW23581   5.407   4.543   2.159  0.6506 -0.0867 -0.0863
 5954SOL    HW223582   5.392   4.627   2.117  1.9185 -0.6195 -1.6928
 5954SOL    HW323583   5.319   4.513   2.184 -0.0039  0.8497 -1.1705
 5954SOL    MW423584   5.393   4.550   2.157  0.0247  0.8089  0.9356
 5955SOL     OW23585   5.042   3.609   5.995  0.4187 -0.3457 -0.0533
 5955SOL    HW223586   5.113   3.551   6.023 -0.8656 -1.8610  0.2042
 5955SOL    HW323587   4.964   3.576   6.040 -0.6790  0.5897 -1.1743
 5955SOL    MW423588   5.041   3.597   6.005 -0.7383 -0.0735 -0.0915
 5956SOL     OW23589   5.337   2.646   2.283 -0.6137 -0.3085 -0.1295
 5956SOL    HW223590   5.397   2.600   2.342 -1.3214  0.4517  1.2216
 5956SOL    HW323591   5.257   2.659   2.334 -1.4594 -0.1112 -1.4460
 5956SOL    MW423592   5.335   2.642   2.297 -0.0150 -0.0901 -0.4760
 5957SOL     OW23593   2.494   4.324   3.528  0.2638 -0.3851  0.6882
 5957SOL    HW223594   2.400   4.307   3.532  0.5312 -3.7258 -2.3003
 5957SOL    HW323595   2.530   4.281   3.606 -0.6745  2.5498  2.9184
 5957SOL    MW423596   2.486   4.316   3.539 -0.4769  0.2838 -0.4276
 5958SOL     OW23597   2.305   4.298   4.528 -0.0096 -0.0251 -0.2755
 5958SOL    HW223598   2.247   4.372   4.545 -0.0578  0.1312 -1.0674
 5958SOL    HW323599   2.249   4.234   4.484  0.3405  0.0010 -0.7671
 5958SOL    MW423600   2.290   4.299   4.524  0.4875 -0.3181  0.4515
 5959SOL     OW23601   0.916   4.978   4.212 -0.1682 -0.2712 -0.5572
 5959SOL    HW223602   0.875   5.035   4.277  1.0278  1.0749 -0.9404
 5959SOL    HW323603   1.002   4.958   4.249 -1.3219 -3.7722  0.6520
 5959SOL    MW423604   0.922   4.983   4.226 -0.2383  0.7721 -0.0178
 5960SOL     OW23605   2.230   3.299   2.370  0.0844 -0.2180  0.3346
 5960SOL    HW223606   2.310   3.266   2.411  0.6980 -0.1915 -0.7956
 5960SOL    HW323607   2.172   3.223   2.367  0.8730 -0.8218 -0.7414
 5960SOL    MW423608   2.233   3.285   2.375 -0.1679 -0.1353  0.0267
 5961SOL     OW23609   4.013   0.699   2.999  0.7098 -0.2067  0.4552
 5961SOL    HW223610   4.105   0.724   2.988  0.7804 -0.9226 -0.8205
 5961SOL    HW323611   3.975   0.711   2.912  0.0964 -1.8499  0.4604
 5961SOL    MW423612   4.020   0.704   2.986 -0.2642 -0.0873 -0.9709
 5962SOL     OW23613   4.477   5.221   1.589  0.3843 -0.7038  0.5278
 5962SOL    HW223614   4.431   5.142   1.614 -0.1102 -1.0345 -1.3129
 5962SOL    HW323615   4.413   5.291   1.600  1.2346 -0.2449  3.5565
 5962SOL    MW423616   4.463   5.220   1.593  0.0552  0.0392  0.1707
 5963SOL     OW23617   2.667   2.779   4.417  0.1311 -0.3260  0.1247
 5963SOL    HW223618   2.725   2.838   4.465  0.4085 -0.6603  0.2073
 5963SOL    HW323619   2.623   2.835   4.353  0.3386 -0.0183  0.2500
 5963SOL    MW423620   2.669   2.794   4.415 -0.2587 -0.0657 -0.5494
 5964SOL     OW23621   3.232   6.067   3.855  0.4532  0.0031 -0.1209
 5964SOL    HW223622   3.196   6.118   3.783  1.9589  0.4835 -0.5843
 5964SOL    HW323623   3.198   5.979   3.842  0.0819  0.2610 -0.9746
 5964SOL    MW423624   3.223   6.062   3.844 -0.0924 -0.1360 -0.1112
 5965SOL     OW23625   1.376   1.376   4.418 -0.0027 -0.9199 -0.3716
 5965SOL    HW223626   1.390   1.323   4.340 -2.0019 -1.2295 -0.5560
 5965SOL    HW323627   1.289   1.414   4.406  0.2939  0.2899  0.9981
 5965SOL    MW423628   1.366   1.374   4.406 -0.1373  0.2759  0.3801
 5966SOL     OW23629   0.791   3.743   2.026 -0.2363  0.1176  0.1114
 5966SOL    HW223630   0.748   3.787   1.952  0.5100  2.6563  1.0756
 5966SOL    HW323631   0.884   3.749   2.006 -0.1153 -0.9354  0.3486
 5966SOL    MW423632   0.798   3.750   2.014 -0.0288 -0.5306 -0.3663
 5967SOL     OW23633   0.621   3.792   1.540 -0.0777 -0.1789 -0.4298
 5967SOL    HW223634   0.630   3.702   1.571  1.4913  0.1175  0.0356
 5967SOL    HW323635   0.553   3.787   1.473  1.6814 -2.1936 -2.2141
 5967SOL    MW423636   0.613   3.779   1.535 -0.0697  0.5336  0.4553
 5968SOL     OW23637   2.962   4.368   0.263  0.0744  0.2448 -0.3475
 5968SOL    HW223638   2.964   4.389   0.170 -2.7100  1.2236 -0.2859
 5968SOL    HW323639   2.994   4.448   0.306  0.3952  0.1534 -0.4090
 5968SOL    MW423640   2.967   4.381   0.256 -0.0527 -0.0339  0.0760
 5969SOL     OW23641   0.145   3.922   0.055  0.6764  0.0369 -0.0054
 5969SOL    HW223642   0.199   3.843   0.064  0.9465  0.4446  2.4756
 5969SOL    HW323643   0.190   3.988   0.107 -0.7559  1.1978 -0.1809
 5969SOL    MW423644   0.158   3.920   0.063 -0.0763 -0.3875  0.4752
 5970SOL     OW23645   6.276   5.133   0.846 -0.3665 -0.0954 -0.5431
 5970SOL    HW223646   6.330   5.167   0.917 -1.0290 -0.5331  0.1854
 5970SOL    HW323647   6.308   5.044   0.832  1.4879  0.7795 -2.5714
 5970SOL    MW423648   6.287   5.126   0.853 -0.2581  0.2432 -0.5051
 5971SOL     OW23649   2.055   6.028   2.898  0.1377 -0.3003 -0.3678
 5971SOL    HW223650   2.111   5.963   2.854  0.3454  1.2194 -2.5365
 5971SOL    HW323651   2.105   6.054   2.975  1.2172 -0.8793 -0.8413
 5971SOL    MW423652   2.069   6.023   2.902  0.1261 -0.8261 -0.2436
 5972SOL     OW23653   4.168   4.975   4.645  0.4520 -0.9991 -0.1302
 5972SOL    HW223654   4.132   4.980   4.556 -0.7258 -0.7082  0.3481
 5972SOL    HW323655   4.104   4.924   4.694 -1.2829  2.5242  1.6516
 5972SOL    MW423656   4.155   4.969   4.640 -0.3810 -0.6579 -0.1876
 5973SOL     OW23657   2.614   0.109   1.570  0.0791  0.7934 -0.2740
 5973SOL    HW223658   2.652   0.172   1.631  1.3135  0.4332 -0.6455
 5973SOL    HW323659   2.679   0.038   1.564 -0.3865  0.4275 -1.3522
 5973SOL    MW423660   2.628   0.108   1.577  0.0536  0.3866 -0.1315
 5974SOL     OW23661   2.373   3.528   1.056 -0.6168 -0.3819 -0.4237
 5974SOL    HW223662   2.356   3.446   1.103 -0.1302 -0.6109 -0.6471
 5974SOL    HW323663   2.413   3.500   0.974  1.6942  0.1669  0.4419
 5974SOL    MW423664   2.376   3.513   1.052 -0.0243  0.3146 -0.0244
 5975SOL     OW23665   3.244   1.843   0.477  0.1191 -0.6566 -0.3111
 5975SOL    HW223666   3.154   1.843   0.508 -0.4390 -0.5616 -1.8703
 5975SOL    HW323667   3.244   1.902   0.402  0.9512 -2.3930 -1.7555
 5975SOL    MW423668   3.232   1.851   0.471  0.0821 -0.3898 -0.2221
 5976SOL     OW23669   0.284   6.212   6.375 -0.1296 -0.6190  0.1711
 5976SOL    HW223670   0.237   6.205   6.458  1.3109 -0.3270  1.0442
 5976SOL    HW323671   0.319   6.124   6.359 -0.1579 -0.6040  0.0190
 5976SOL    MW423672   0.283   6.199   6.384  0.2362 -0.1691  0.2709
 5977SOL     OW23673   4.868   0.066   5.515  0.3886 -0.2703  0.3973
 5977SOL    HW223674   4.809   0.067   5.589 -1.1033  0.0924 -0.7512
 5977SOL    HW323675   4.820   0.020   5.446  0.2755  2.3411 -1.4305
 5977SOL    MW423676   4.854   0.060   5.515  0.1372 -0.3341  0.0147
 5978SOL     OW23677   5.785   1.520   4.792  0.4234 -0.4701 -0.0457
 5978SOL    HW223678   5.736   1.534   4.874  0.8636  0.1296  0.1260
 5978SOL    HW323679   5.723   1.545   4.723  0.1520 -0.6788  0.1189
 5978SOL    MW423680   5.770   1.525   4.794 -0.2896  0.1883  0.3006
 5979SOL     OW23681   2.644   1.076   3.352 -0.5372  0.1299 -0.0866
 5979SOL    HW223682   2.583   1.078   3.278 -1.1482  2.1087  0.4017
 5979SOL    HW323683   2.719   1.128   3.322 -0.1846 -0.2093  0.2015
 5979SOL    MW423684   2.646   1.083   3.338  0.1739 -0.3806 -0.1558
 5980SOL     OW23685   2.440   3.070  -0.008  0.2872 -0.7725 -0.2134
 5980SOL    HW223686   2.359   3.084   0.042  1.7276 -1.9631  2.6914
 5980SOL    HW323687   2.464   2.980   0.011  0.6851 -1.5011 -3.6626
 5980SOL    MW423688   2.432   3.060   0.001  0.1301 -0.1604 -0.1179
 5981SOL     OW23689   1.151   3.289   1.062  0.3153  0.1035  0.3120
 5981SOL    HW223690   1.227   3.258   1.011 -1.4995 -0.9130 -1.9684
 5981SOL    HW323691   1.154   3.238   1.142  1.4668 -0.7100 -0.2199
 5981SOL    MW423692   1.162   3.278   1.066  0.5007 -0.4225 -0.0167
 5982SOL     OW23693   4.426   0.466   3.431 -0.2407  0.1820  0.3478
 5982SOL    HW223694   4.389   0.377   3.428 -2.6451  1.1203 -0.6105
 5982SOL    HW323695   4.403   0.498   3.518 -0.6850  0.3418  0.1783
 5982SOL    MW423696   4.418   0.458   3.442  0.5425  0.1529  0.0640
 5983SOL     OW23697   2.766   3.037   0.501  0.2320  0.0472 -0.1277
 5983SOL    HW223698   2.767   2.941   0.505 -0.2833  0.0336 -0.2468
 5983SOL    HW323699   2.747   3.064   0.590 -1.3985 -0.0157 -0.4194
 5983SOL    MW423700   2.763   3.028   0.513  0.1478 -0.1107 -0.1351
 5984SOL     OW23701   1.357   6.203   6.251 -0.5801  0.2601 -0.1706
 5984SOL    HW223702   1.452   6.191   6.254 -0.5932  0.0298  2.9320
 5984SOL    HW323703   1.344   6.280   6.195  1.4950  0.7298 -0.0914
 5984SOL    MW423704   1.368   6.212   6.244 -0.2548 -0.1448 -0.4891
 5985SOL     OW23705   2.308   5.806   0.639 -0.0763 -0.1677 -0.1221
 5985SOL    HW223706   2.349   5.761   0.565 -1.0635  1.5301 -1.7646
 5985SOL    HW323707   2.266   5.736   0.689  0.2123 -1.3136 -1.4270
 5985SOL    MW423708   2.308   5.791   0.636  0.2432  0.2028 -0.4301
 5986SOL     OW23709   5.871   4.869   0.873 -0.1844  0.2038  0.1691
 5986SOL    HW223710   5.842   4.835   0.789 -0.9203  0.9321  0.1115
 5986SOL    HW323711   5.844   4.803   0.937  1.7330 -1.0987 -0.2783
 5986SOL    MW423712   5.864   4.856   0.870 -0.2621  0.4779 -0.1584
 5987SOL     OW23713   2.428   5.338   2.364 -0.6661  0.5479 -0.0345
 5987SOL    HW223714   2.484   5.397   2.414 -0.9717  0.0583  0.8948
 5987SOL    HW323715   2.387   5.395   2.298  0.0812  1.1076 -0.0333
 5987SOL    MW423716   2.430   5.353   2.362 -0.5725  0.5105 -0.0287
 5988SOL     OW23717   6.091   2.506   4.212 -0.1567 -0.1601  0.1466
 5988SOL    HW223718   6.063   2.415   4.225 -1.7455  0.1813 -0.6857
 5988SOL    HW323719   6.073   2.549   4.296  1.1821 -0.7238  0.7517
 5988SOL    MW423720   6.085   2.499   4.225  0.2128 -0.3734  0.2577
 5989SOL     OW23721   1.021   5.758   2.356  0.5756  0.3254  0.0281
 5989SOL    HW223722   0.945   5.782   2.303  0.0832 -0.9389  0.1313
 5989SOL    HW323723   0.989   5.692   2.417  1.9730 -1.0815 -0.6720
 5989SOL    MW423724   1.007   5.753   2.357  0.0897  0.3255 -0.6562
 5990SOL     OW23725   6.414   5.771   4.831 -0.5094  0.0810 -0.4237
 5990SOL    HW223726   6.366   5.728   4.902  1.5538 -2.9921 -0.6891
 5990SOL    HW323727   6.448   5.698   4.778  2.0801  2.1108 -1.7704
 5990SOL    MW423728   6.412   5.755   4.834 -0.4768 -0.2587  0.2811
 5991SOL     OW23729   1.461   6.404   0.046  0.0849 -0.3623 -0.0856
 5991SOL    HW223730   1.389   6.347   0.020  0.4429 -1.6858  1.6539
 5991SOL    HW323731   1.462   6.401   0.141  1.9423  0.2374 -0.0329
 5991SOL    MW423732   1.452   6.396   0.055  0.4135  0.4013  0.0572
 5992SOL     OW23733   1.739   0.146   4.980  0.2483  0.7322 -0.4279
 5992SOL    HW223734   1.689   0.066   4.966 -1.0927  1.1816  1.3978
 5992SOL    HW323735   1.816   0.137   4.924 -0.0315 -1.6592 -0.5082
 5992SOL    MW423736   1.743   0.135   4.971  0.3239 -0.0630  0.6085
 5993SOL     OW23737   4.825   4.728   3.438 -0.1840 -0.0490  0.0530
 5993SOL    HW223738   4.790   4.792   3.500 -1.8701 -1.1992  0.3791
 5993SOL    HW323739   4.904   4.694   3.480 -0.5851  0.1274  0.9613
 5993SOL    MW423740   4.831   4.732   3.452  0.1991 -0.6085 -0.4585
 5994SOL     OW23741   4.243   1.328   0.581  0.0271 -0.2265 -0.5520
 5994SOL    HW223742   4.161   1.279   0.580  0.4086 -0.9056  0.3641
 5994SOL    HW323743   4.217   1.416   0.611 -0.0030 -1.2700  2.9747
 5994SOL    MW423744   4.229   1.333   0.585 -0.4984  0.0076 -0.1416
 5995SOL     OW23745   0.731   0.917   1.580 -0.6620  0.2656 -0.1563
 5995SOL    HW223746   0.814   0.963   1.593 -0.5176 -0.0010 -0.1287
 5995SOL    HW323747   0.716   0.871   1.662 -0.8241  0.2895 -0.1719
 5995SOL    MW423748   0.740   0.917   1.593 -0.6079  0.3751 -0.2845
 5996SOL     OW23749   2.921   2.855   0.662  0.3188  0.0820  0.4664
 5996SOL    HW223750   2.991   2.855   0.727 -0.1543  0.1926  0.9920
 5996SOL    HW323751   2.946   2.787   0.599  0.5545 -0.3550  1.0217
 5996SOL    MW423752   2.933   2.846   0.662  0.1967 -0.4801 -0.6264
 5997SOL     OW23753   3.964   3.684   5.204  0.1021 -0.4406 -0.0953
 5997SOL    HW223754   3.947   3.689   5.110  0.1530 -0.8889 -0.1297
 5997SOL    HW323755   4.053   3.719   5.214  0.5430 -1.4558 -0.3583
 5997SOL    MW423756   3.973   3.689   5.193  0.2703 -0.2054 -0.2386
 5998SOL     OW23757   2.416   4.053   3.633  0.1654  0.7649  0.1958
 5998SOL    HW223758   2.353   4.114   3.595  0.2662  0.2577 -0.8006
 5998SOL    HW323759   2.461   4.014   3.558  0.8183  0.2166  0.8534
 5998SOL    MW423760   2.414   4.056   3.618  0.3057  0.3494  0.2510
 5999SOL     OW23761   1.098   0.523   4.778  0.0529  0.2435 -0.0130
 5999SOL    HW223762   1.104   0.573   4.697  0.7607  0.4072  0.1273
 5999SOL    HW323763   1.062   0.584   4.842 -0.1088  0.2412 -0.1018
 5999SOL    MW423764   1.094   0.537   4.776  0.1177  0.4428 -0.0362
 6000SOL     OW23765   5.356   0.315   3.350  0.1931 -0.3809  0.1659
 6000SOL    HW223766   5.422   0.364   3.399 -0.1369 -0.1353  0.3679
 6000SOL    HW323767   5.319   0.254   3.414  3.0879 -3.5354 -0.8475
 6000SOL    MW423768   5.360   0.313   3.365 -0.4187  0.0682 -0.4171
 6001SOL     OW23769   0.562   3.518   2.466  0.1698  0.0298  0.5380
 6001SOL    HW223770   0.492   3.468   2.423 -0.0155  0.8963 -0.1960
 6001SOL    HW323771   0.642   3.470   2.445 -0.0885 -0.4160  0.5439
 6001SOL    MW423772   0.563   3.505   2.457 -0.3673 -0.1993  0.3267
 6002SOL     OW23773   1.671   5.252   0.851  0.1322 -0.3219 -0.4565
 6002SOL    HW223774   1.731   5.319   0.883 -0.5230  0.8838 -1.6546
 6002SOL    HW323775   1.617   5.229   0.926 -0.5177  1.4909 -0.3208
 6002SOL    MW423776   1.672   5.257   0.865  0.1158  0.0741  0.0177
 6003SOL     OW23777   5.293   2.784   1.970 -0.2895  0.7528 -0.4609
 6003SOL    HW223778   5.226   2.763   2.035 -1.5610  1.9955 -1.3136
 6003SOL    HW323779   5.321   2.873   1.991  1.7392 -0.0115  0.3637
 6003SOL    MW423780   5.288   2.793   1.981 -0.1903  0.8625  0.3637
 6004SOL     OW23781   1.275   4.954   1.545  0.6662 -0.6715 -0.4810
 6004SOL    HW223782   1.335   5.028   1.554 -0.6498  0.3510  0.4617
 6004SOL    HW323783   1.286   4.905   1.626  0.3520 -0.5530 -0.3627
 6004SOL    MW423784   1.284   4.958   1.557  0.4240  0.2976  0.0134
 6005SOL     OW23785   3.792   1.342   2.706 -0.0234  0.2011 -0.2937
 6005SOL    HW223786   3.887   1.343   2.700  0.0643  0.2680  0.9371
 6005SOL    HW323787   3.764   1.294   2.628  0.9492  1.1090 -1.2466
 6005SOL    MW423788   3.801   1.336   2.695  0.1532 -0.6065 -0.1903
 6006SOL     OW23789   4.449   2.513   1.164 -0.2336 -0.4436  0.3722
 6006SOL    HW223790   4.438   2.516   1.259  2.0053  1.3758  0.6685
 6006SOL    HW323791   4.507   2.438   1.148 -0.1974 -0.4412  0.4954
 6006SOL    MW423792   4.455   2.503   1.174  0.2746 -0.4256 -0.0239
 6007SOL     OW23793   0.945   5.519   3.153  0.0058 -0.7329  0.2049
 6007SOL    HW223794   1.037   5.525   3.177 -0.1846 -1.6623  1.2958
 6007SOL    HW323795   0.898   5.544   3.233 -0.7257  1.3148 -0.8077
 6007SOL    MW423796   0.951   5.523   3.167  0.4052 -0.1953 -0.3256
 6008SOL     OW23797   2.964   2.659   0.474  0.2756  0.1930 -0.2916
 6008SOL    HW223798   2.878   2.663   0.433  0.5235 -1.7987 -1.1519
 6008SOL    HW323799   3.020   2.713   0.419  0.2978 -1.3282 -1.8533
 6008SOL    MW423800   2.960   2.666   0.462 -0.3018  0.2782  0.0034
 6009SOL     OW23801   3.740   2.304   6.019  0.7240  0.8931 -0.3148
 6009SOL    HW223802   3.745   2.317   5.925  2.4133  0.3676 -0.3230
 6009SOL    HW323803   3.648   2.323   6.041  0.1224  0.3005 -2.1594
 6009SOL    MW423804   3.728   2.308   6.010  0.2697 -0.1558  0.0524
 6010SOL     OW23805   3.135   4.531   4.546  0.0258 -0.1699  0.0769
 6010SOL    HW223806   3.143   4.608   4.489  0.0868 -0.8651 -0.8741
 6010SOL    HW323807   3.075   4.473   4.500  0.2433 -0.8388  0.6243
 6010SOL    MW423808   3.128   4.533   4.532 -0.1704  0.9846 -0.1812
 6011SOL     OW23809   6.332   5.102   3.116 -0.0798  0.1242  0.2723
 6011SOL    HW223810   6.295   5.052   3.189  1.4531  0.3704  1.2696
 6011SOL    HW323811   6.260   5.155   3.084 -1.1175 -0.9519  0.7594
 6011SOL    MW423812   6.318   5.102   3.121  0.2241  0.1951 -0.3763
 6012SOL     OW23813   0.017   5.591   1.364  0.1698  0.3358  0.1934
 6012SOL    HW223814   0.027   5.518   1.303  0.6574 -0.2279  0.9280
 6012SOL    HW323815   0.105   5.627   1.374  0.0238  0.6903  0.2546
 6012SOL    MW423816   0.030   5.586   1.357 -0.0851  0.4504 -0.1966
 6013SOL     OW23817   2.193   2.340   4.115  0.1037  0.6430  0.0664
 6013SOL    HW223818   2.160   2.361   4.202 -0.6145  0.8045 -0.2393
 6013SOL    HW323819   2.287   2.362   4.119  0.0404  0.7966  0.7468
 6013SOL    MW423820   2.201   2.346   4.127 -0.0882 -0.2325 -0.3217
 6014SOL     OW23821   0.775   2.514   0.350 -0.1943 -0.2330 -0.4586
 6014SOL    HW223822   0.737   2.478   0.270 -0.2997  1.6860 -1.3102
 6014SOL    HW323823   0.867   2.531   0.327 -0.0649 -0.2390  0.0359
 6014SOL    MW423824   0.782   2.511   0.336  0.8427  0.2601  0.0545
 6015SOL     OW23825   4.587   4.980   1.882 -0.1114 -0.8685  0.6719
 6015SOL    HW223826   4.511   5.026   1.917  0.0824 -1.2400  1.6248
 6015SOL    HW323827   4.639   5.048   1.840 -1.2773 -0.7171 -0.5599
 6015SOL    MW423828   4.584   4.995   1.881  0.3370 -0.2926  0.0233
 6016SOL     OW23829   5.597   0.560   2.258 -0.1789  0.1589 -0.1614
 6016SOL    HW223830   5.668   0.528   2.314  1.8156  1.5576 -1.7610
 6016SOL    HW323831   5.581   0.649   2.287 -2.1140 -0.4665  0.8786
 6016SOL    MW423832   5.604   0.567   2.270  0.4774 -1.0367  0.2306
 6017SOL     OW23833   3.264   4.079   5.673 -0.1524  0.3033  0.0827
 6017SOL    HW223834   3.281   4.011   5.738  1.3444  0.8832  0.3249
 6017SOL    HW323835   3.301   4.045   5.592 -0.7694  0.1851 -0.1559
 6017SOL    MW423836   3.271   4.066   5.671  0.1928  0.5109 -0.1613
 6018SOL     OW23837   0.121   2.705   3.493  0.6592 -0.6348 -0.1728
 6018SOL    HW223838   0.101   2.619   3.531 -0.6440 -0.3115 -0.0795
 6018SOL    HW323839   0.176   2.686   3.417 -0.0992 -1.5928 -0.4960
 6018SOL    MW423840   0.126   2.691   3.488 -0.2971 -0.2333 -0.7611
 6019SOL     OW23841   5.878   5.409   4.645  0.2103  0.2492  0.2170
 6019SOL    HW223842   5.916   5.351   4.711  1.1007 -0.9644 -1.2948
 6019SOL    HW323843   5.952   5.459   4.612 -0.0179 -0.0018 -0.6853
 6019SOL    MW423844   5.893   5.408   4.650 -0.3134 -0.3295  0.1003
 6020SOL     OW23845   5.590   2.347   0.628  0.1846 -0.1802 -0.3884
 6020SOL    HW223846   5.656   2.279   0.641 -0.9019 -1.2027 -0.0566
 6020SOL    HW323847   5.584   2.390   0.713  0.6740  0.1606 -0.5213
 6020SOL    MW423848   5.598   2.344   0.641  0.6657 -0.7753  0.2337
 6021SOL     OW23849   2.949   1.006   2.711  0.3374 -0.0489  0.0312
 6021SOL    HW223850   2.865   0.966   2.688  0.4273 -0.6381  0.7088
 6021SOL    HW323851   2.978   1.048   2.630  0.0246 -0.9722 -0.5682
 6021SOL    MW423852   2.941   1.006   2.697  0.7259 -0.2888  0.0138
 6022SOL     OW23853   4.177   3.666   4.024  0.2307 -0.3626  0.8827
 6022SOL    HW223854   4.121   3.736   3.991 -1.4456 -2.4579 -0.9990
 6022SOL    HW323855   4.229   3.708   4.094 -0.9259  2.6044  0.1158
 6022SOL    MW423856   4.176   3.681   4.029 -0.0022  0.2191 -0.1367
 6023SOL     OW23857   4.908   0.724   1.338 -0.1145 -0.0286 -0.2331
 6023SOL    HW223858   4.885   0.651   1.280 -0.0770  0.3230 -0.6939
 6023SOL    HW323859   4.966   0.779   1.286  0.1516  0.1417  0.2411
 6023SOL    MW423860   4.912   0.721   1.324 -0.1160  0.2111  0.1977
 6024SOL     OW23861   5.387   5.794   6.077 -0.0830 -0.0377 -0.5023
 6024SOL    HW223862   5.479   5.767   6.081 -0.0006  0.3811  2.3427
 6024SOL    HW323863   5.337   5.713   6.089  0.0914  0.1985  2.7959
 6024SOL    MW423864   5.392   5.780   6.079  0.2197 -0.4179 -0.2123
 6025SOL     OW23865   5.765   2.662   5.950 -0.1316 -0.1967 -0.0696
 6025SOL    HW223866   5.705   2.587   5.956  1.1233 -1.3811 -1.4694
 6025SOL    HW323867   5.729   2.715   5.879  1.6162 -2.1488 -2.6231
 6025SOL    MW423868   5.752   2.659   5.941  0.9700  0.4757  0.0336
 6026SOL     OW23869   1.928   1.548   2.451  0.1598 -0.0456 -0.4572
 6026SOL    HW223870   1.986   1.622   2.433  1.0329 -1.0146 -1.8367
 6026SOL    HW323871   1.846   1.588   2.480  1.5735  1.3575  1.8894
 6026SOL    MW423872   1.925   1.563   2.452 -0.7328  0.3342  0.8042
 6027SOL     OW23873   3.742   4.154   1.090 -0.0644 -0.3063  0.0045
 6027SOL    HW223874   3.718   4.238   1.129 -1.1189  0.3431 -1.8843
 6027SOL    HW323875   3.682   4.091   1.130  0.2063 -0.0459  0.8504
 6027SOL    MW423876   3.731   4.157   1.100  0.2865  0.2031  0.0623
 6028SOL     OW23877   2.357   1.756   3.082  0.7872 -0.0257 -0.6217
 6028SOL    HW223878   2.287   1.698   3.109  0.8338 -0.0994 -0.6592
 6028SOL    HW323879   2.411   1.703   3.022  0.9675 -0.0229 -0.4621
 6028SOL    MW423880   2.355   1.741   3.077 -0.2285  0.0112  0.2632
 6029SOL     OW23881   4.755   2.922   6.167  0.0099 -0.3746  0.3610
 6029SOL    HW223882   4.807   2.955   6.240 -0.4528  1.1278  0.0529
 6029SOL    HW323883   4.665   2.946   6.189 -0.2936 -1.0105 -0.1308
 6029SOL    MW423884   4.750   2.929   6.180  0.1193  0.0595 -0.1465
 6030SOL     OW23885   3.009   2.049   3.204  0.5215  0.2312  0.0710
 6030SOL    HW223886   3.096   2.060   3.243  1.2678 -1.0330 -1.0995
 6030SOL    HW323887   3.010   2.106   3.127  0.2136  0.4111  0.2006
 6030SOL    MW423888   3.021   2.058   3.199  0.0748 -0.1564 -1.0625
 6031SOL     OW23889   5.575   5.164   1.206  0.6164  0.2776  0.3698
 6031SOL    HW223890   5.653   5.189   1.255  0.3349  0.7149  0.6056
 6031SOL    HW323891   5.565   5.070   1.220  0.9894  0.2564  0.4920
 6031SOL    MW423892   5.584   5.155   1.214  0.3551  0.0447  0.0968
 6032SOL     OW23893   3.620   4.539   3.756  0.3114  0.4669  0.1409
 6032SOL    HW223894   3.679   4.550   3.830 -0.6962 -0.7860  1.1909
 6032SOL    HW323895   3.611   4.626   3.719 -0.1268  1.3934  2.2892
 6032SOL    MW423896   3.626   4.552   3.761 -0.0765  1.2368 -0.5215
 6033SOL     OW23897   4.514   3.855   3.409 -0.4916 -0.0977 -0.4111
 6033SOL    HW223898   4.468   3.919   3.463 -1.7887 -1.0963 -0.2758
 6033SOL    HW323899   4.585   3.905   3.367 -1.8200  1.5549 -0.7962
 6033SOL    MW423900   4.518   3.870   3.410 -0.5362 -1.2151 -0.9387
 6034SOL     OW23901   1.317   5.949   3.453 -0.1943  0.9049 -0.5589
 6034SOL    HW223902   1.377   5.938   3.527 -1.1878  1.3589  0.3228
 6034SOL    HW323903   1.373   5.935   3.376  0.4644 -1.5563  0.2667
 6034SOL    MW423904   1.333   5.946   3.453  0.0262 -0.0779 -0.1386
 6035SOL     OW23905   2.260   0.608   2.194 -0.0793 -0.0011  0.1508
 6035SOL    HW223906   2.185   0.558   2.163  1.7978 -3.3763  0.6267
 6035SOL    HW323907   2.319   0.612   2.119  1.1062 -1.2894  0.9772
 6035SOL    MW423908   2.258   0.602   2.180  0.5393 -0.2314  0.0791
 6036SOL     OW23909   5.362   4.341   0.070 -0.0108  0.6886 -0.4550
 6036SOL    HW223910   5.376   4.329   0.164 -1.3139 -1.4530 -0.4759
 6036SOL    HW323911   5.268   4.334   0.058  0.1207  1.0995 -1.9211
 6036SOL    MW423912   5.352   4.339   0.081  0.0625  0.0844  0.0909
 6037SOL     OW23913   5.252   2.133   0.115  0.0535 -0.1676  0.0514
 6037SOL    HW223914   5.266   2.224   0.087  1.5263  0.4744  2.6285
 6037SOL    HW323915   5.159   2.118   0.099 -0.5227  2.2402  0.6933
 6037SOL    MW423916   5.241   2.143   0.109 -0.0661  0.5833  0.7047
 6038SOL     OW23917   4.317   4.415   3.312  0.5906 -0.4940 -0.1050
 6038SOL    HW223918   4.232   4.386   3.345  0.4279  0.3202  0.2075
 6038SOL    HW323919   4.359   4.458   3.386  0.5833  0.5778 -0.7023
 6038SOL    MW423920   4.312   4.417   3.326  0.2784 -0.7831 -0.1056
 6039SOL     OW23921   6.149   4.645   2.119  0.0797  0.0742 -0.2822
 6039SOL    HW223922   6.160   4.739   2.129 -0.7396 -0.0510  2.6951
 6039SOL    HW323923   6.059   4.634   2.087 -0.0411  0.2837 -0.0165
 6039SOL    MW423924   6.138   4.656   2.116  0.0256 -0.0143 -0.1234
 6040SOL     OW23925   0.979   6.350   0.930  0.0456  0.0753 -0.6184
 6040SOL    HW223926   0.959   6.344   1.023  0.4783 -0.0448 -0.5306
 6040SOL    HW323927   1.067   6.387   0.926 -0.3910  1.0882 -1.0162
 6040SOL    MW423928   0.988   6.354   0.942  0.5653 -0.3914 -0.2333
 6041SOL     OW23929   5.722   2.504   4.354 -0.6653 -0.0536  1.0043
 6041SOL    HW223930   5.672   2.423   4.365  0.2477 -0.7248  0.3524
 6041SOL    HW323931   5.709   2.527   4.262 -0.1892  0.0358  0.9571
 6041SOL    MW423932   5.714   2.496   4.344  0.4427 -0.2320 -0.0459
 6042SOL     OW23933   0.657   5.229   2.306  0.2653  0.3201  0.7406
 6042SOL    HW223934   0.719   5.271   2.247  1.6485 -1.4611  0.8224
 6042SOL    HW323935   0.673   5.270   2.391  1.0332  0.2150  0.6573
 6042SOL    MW423936   0.667   5.240   2.310  0.1402 -0.0484 -0.2094
 6043SOL     OW23937   1.353   2.741   1.155  0.1879 -0.5725 -0.6017
 6043SOL    HW223938   1.434   2.694   1.136  0.5551 -0.2063  0.0229
 6043SOL    HW323939   1.343   2.802   1.081  1.4454  0.6382  0.1912
 6043SOL    MW423940   1.362   2.743   1.142  0.4915 -0.0026 -0.4268
 6044SOL     OW23941   4.176   2.814   0.021 -0.7873 -0.0453  0.3842
 6044SOL    HW223942   4.186   2.756   0.097 -1.4040 -1.6807 -0.7137
 6044SOL    HW323943   4.101   2.778  -0.026 -1.1752  1.6733 -0.3691
 6044SOL    MW423944   4.167   2.802   0.025  0.1861 -0.1288 -0.0533
 6045SOL     OW23945   3.458   1.214   4.183 -0.2711  0.2434 -0.7083
 6045SOL    HW223946   3.502   1.131   4.164 -1.2984 -0.7482  1.0021
 6045SOL    HW323947   3.368   1.202   4.151 -1.1794 -0.3591  1.7884
 6045SOL    MW423948   3.452   1.201   4.176 -0.7126  0.2112 -0.0145
 6046SOL     OW23949   5.574   1.561   5.363  0.5998 -0.2179 -0.3480
 6046SOL    HW223950   5.542   1.573   5.452  1.1081  1.2251 -0.3260
 6046SOL    HW323951   5.644   1.496   5.371  0.8250  0.0990  0.3545
 6046SOL    MW423952   5.579   1.554   5.376 -0.0302  0.2864 -0.4058
 6047SOL     OW23953   6.111   6.059   3.366  0.2888  0.1121 -0.0962
 6047SOL    HW223954   6.101   6.142   3.319 -0.0444  0.7833  1.1181
 6047SOL    HW323955   6.041   6.003   3.331 -0.5296  0.9106  0.2243
 6047SOL    MW423956   6.100   6.063   3.355  0.9470 -0.1356 -0.3608
 6048SOL     OW23957   3.410   4.264   3.138  0.8610  0.2013  0.3962
 6048SOL    HW223958   3.328   4.221   3.162 -0.2339  1.3615 -1.1168
 6048SOL    HW323959   3.471   4.192   3.125 -0.4524 -0.8154 -0.3917
 6048SOL    MW423960   3.407   4.249   3.140  0.4500 -0.4241 -0.2487
 6049SOL     OW23961   3.436   6.098   4.528  0.1595 -0.4864 -0.0311
 6049SOL    HW223962   3.501   6.027   4.529  0.0609 -0.5749  0.1835
 6049SOL    HW323963   3.458   6.149   4.450  1.7248  0.6335  1.0727
 6049SOL    MW423964   3.448   6.095   4.517 -0.0786  0.0247 -0.7537
 6050SOL     OW23965   0.923   1.438   1.330 -0.3692 -0.1894  0.3742
 6050SOL    HW223966   0.919   1.470   1.420  0.6983  0.9698  0.0383
 6050SOL    HW323967   0.923   1.517   1.276  1.2380 -0.7618 -0.5385
 6050SOL    MW423968   0.923   1.453   1.335 -0.3955  0.1354  0.2377
 6051SOL     OW23969   2.232   2.828   0.115 -1.0252  0.1257  0.3860
 6051SOL    HW223970   2.201   2.738   0.102 -0.7263  0.2263 -1.1983
 6051SOL    HW323971   2.208   2.873   0.034  0.3958  1.0320  0.4415
 6051SOL    MW423972   2.224   2.822   0.103  0.4939  0.3546  0.7445
 6052SOL     OW23973   0.284   2.213   5.546  0.2688 -0.1251 -0.0362
 6052SOL    HW223974   0.236   2.280   5.593  0.4640  0.6450 -0.9010
 6052SOL    HW323975   0.303   2.146   5.611 -0.7717  0.2011  0.6254
 6052SOL    MW423976   0.280   2.213   5.561  0.1537 -0.5331 -0.3240
 6053SOL     OW23977   0.093   2.754   0.558  0.6881  0.2996 -0.7668
 6053SOL    HW223978   0.188   2.742   0.568  1.4616  0.9495 -5.2782
 6053SOL    HW323979   0.059   2.666   0.547  1.3075  0.2004 -2.0919
 6053SOL    MW423980   0.101   2.741   0.558  0.0093 -0.5023  0.1519
 6054SOL     OW23981   5.315   1.683   4.102  0.0494 -0.4937  0.3461
 6054SOL    HW223982   5.379   1.696   4.031  0.6940  0.1538  1.0164
 6054SOL    HW323983   5.356   1.618   4.159 -0.2140 -0.6050  0.4053
 6054SOL    MW423984   5.329   1.676   4.100 -0.6962 -0.0567 -0.2719
 6055SOL     OW23985   2.295   1.079   5.939  0.3309 -0.1339  0.3265
 6055SOL    HW223986   2.295   1.173   5.956  0.6062 -0.1573  0.4684
 6055SOL    HW323987   2.244   1.042   6.011 -2.2624  0.1474 -1.2349
 6055SOL    MW423988   2.289   1.087   5.951 -0.4397 -0.4595  0.1567
 6056SOL     OW23989   1.142   3.702   0.467 -0.4684  0.5279 -0.6868
 6056SOL    HW223990   1.058   3.671   0.432 -1.5623  1.8166  0.6596
 6056SOL    HW323991   1.207   3.666   0.407 -1.9883 -0.3076 -1.9318
 6056SOL    MW423992   1.139   3.693   0.454 -0.0246 -0.4727  0.3333
 6057SOL     OW23993   0.677   1.117   5.721 -0.1441 -0.2692 -0.0470
 6057SOL    HW223994   0.586   1.139   5.745 -0.5277 -0.6436 -1.1123
 6057SOL    HW323995   0.730   1.182   5.767 -0.8518 -0.8396  1.6563
 6057SOL    MW423996   0.672   1.129   5.730  0.4128  0.0992  0.0017
 6058SOL     OW23997   3.476   0.064   6.153 -0.3706 -0.6541  0.1589
 6058SOL    HW223998   3.533   0.026   6.220 -0.9821  1.4536  2.0079
 6058SOL    HW323999   3.514   0.151   6.136 -2.4313  0.4511  0.7945
 6058SOL    MW424000   3.488   0.071   6.160 -0.0289 -0.0829 -0.7267
 6059SOL     OW24001   4.549   4.521   2.706  0.0898 -0.1465 -0.0797
 6059SOL    HW224002   4.498   4.445   2.735  1.3132 -0.0662  2.6787
 6059SOL    HW324003   4.640   4.494   2.719  0.5514  1.9122  1.5473
 6059SOL    MW424004   4.554   4.507   2.712 -0.3802 -0.4305  0.0431
 6060SOL     OW24005   4.811   5.648   2.172  0.2406  0.1102  0.1318
 6060SOL    HW224006   4.756   5.618   2.244  1.0790  0.4034  0.9182
 6060SOL    HW324007   4.836   5.737   2.197  1.9905 -0.4119  0.3682
 6060SOL    MW424008   4.807   5.656   2.184 -0.2362 -0.2617  0.1460
 6061SOL     OW24009   5.970   5.403   0.610 -0.7357 -0.2097 -1.0161
 6061SOL    HW224010   6.006   5.328   0.658  1.5318  0.5687 -1.3685
 6061SOL    HW324011   5.928   5.457   0.678  1.0546  0.0945 -0.0711
 6061SOL    MW424012   5.969   5.400   0.626  0.2500  0.1682  0.1754
 6062SOL     OW24013   0.480   1.841   2.278 -0.2446 -0.4600  0.2976
 6062SOL    HW224014   0.547   1.783   2.315  0.3409 -0.7275 -1.1411
 6062SOL    HW324015   0.413   1.845   2.346  1.0882 -0.4075  1.6732
 6062SOL    MW424016   0.480   1.834   2.292  0.1396  0.4475 -0.2834
 6063SOL     OW24017   0.952   3.808   1.638 -0.1540  0.3801 -0.1975
 6063SOL    HW224018   0.995   3.813   1.723  0.1456  0.1978 -0.3361
 6063SOL    HW324019   1.011   3.854   1.578 -0.2752  0.3491 -0.3429
 6063SOL    MW424020   0.965   3.815   1.641  0.5187  0.0703 -0.6513
 6064SOL     OW24021   5.080   5.952   2.195 -0.7800  0.8933 -0.4819
 6064SOL    HW224022   4.994   5.930   2.231  0.2202 -0.4952  1.1996
 6064SOL    HW324023   5.083   6.048   2.198 -1.9352  0.9228  0.2559
 6064SOL    MW424024   5.069   5.962   2.200 -0.4345  0.2347 -0.2506
 6065SOL     OW24025   3.830   2.156   0.617 -0.1182  0.3623 -0.3020
 6065SOL    HW224026   3.806   2.064   0.627 -0.8530  0.5445 -0.3430
 6065SOL    HW324027   3.748   2.204   0.631  0.2394  1.0053 -0.3698
 6065SOL    MW424028   3.816   2.150   0.620 -0.5590 -0.0581 -0.5422
 6066SOL     OW24029   0.620   4.964   2.307  0.2145 -0.1088 -0.0558
 6066SOL    HW224030   0.712   4.946   2.329  0.6285 -2.3558 -3.0088
 6066SOL    HW324031   0.617   5.058   2.295  2.6371 -0.1257 -1.5544
 6066SOL    MW424032   0.632   4.974   2.308  0.1635 -0.0229  0.1329
 6067SOL     OW24033   4.824   6.231   2.274  0.0762  0.2710 -0.3396
 6067SOL    HW224034   4.788   6.182   2.200 -1.1802 -2.5107  1.9466
 6067SOL    HW324035   4.908   6.264   2.241 -0.9841  0.2981 -3.3583
 6067SOL    MW424036   4.831   6.229   2.260  0.2935 -0.0563  0.4460
 6068SOL     OW24037   4.146   5.332   5.101  0.4526 -0.2254  0.3200
 6068SOL    HW224038   4.053   5.351   5.094  0.6119  0.6460  0.3962
 6068SOL    HW324039   4.170   5.296   5.015 -0.4512 -2.8838  1.1105
 6068SOL    MW424040   4.137   5.330   5.089  0.1967 -0.0256 -0.3844
 6069SOL     OW24041   3.918   4.345   2.700 -0.1163 -0.3590  0.4479
 6069SOL    HW224042   3.857   4.375   2.632 -0.7112 -0.3656  0.9772
 6069SOL    HW324043   3.896   4.253   2.714 -0.5919 -0.1270  1.2784
 6069SOL    MW424044   3.907   4.337   2.693  0.3173  0.3549  0.3802
 6070SOL     OW24045   3.911   3.602   2.439 -0.1984 -0.0393 -0.2432
 6070SOL    HW224046   3.928   3.520   2.393  0.3812  0.3948 -0.8315
 6070SOL    HW324047   3.998   3.635   2.463 -0.4054  0.5020 -0.2138
 6070SOL    MW424048   3.925   3.596   2.436 -0.5056 -0.1803 -0.3000
 6071SOL     OW24049   2.386   5.010   5.582 -0.5281 -0.1176 -0.0376
 6071SOL    HW224050   2.452   5.040   5.519 -0.3951  0.5347  0.4005
 6071SOL    HW324051   2.414   4.922   5.606 -0.6875 -0.4549 -1.0304
 6071SOL    MW424052   2.399   5.003   5.577  0.1324  0.6815  0.3389
 6072SOL     OW24053   0.008   1.154   4.739 -0.2237  0.1653 -0.2530
 6072SOL    HW224054   0.065   1.122   4.668 -0.7159 -1.1588 -0.0916
 6072SOL    HW324055  -0.043   1.077   4.764  1.1541  0.0842  2.7495
 6072SOL    MW424056   0.009   1.139   4.733  0.1549  0.4391 -0.0227
 6073SOL     OW24057   0.117   3.761   2.726 -0.3540 -0.1540 -0.0831
 6073SOL    HW224058   0.194   3.814   2.705  0.1091 -0.3761  0.9967
 6073SOL    HW324059   0.148   3.670   2.717 -0.1624 -0.2556  1.4404
 6073SOL    MW424060   0.131   3.756   2.722 -0.4513  0.0789 -0.4362
 6074SOL     OW24061   4.333   0.211   4.431 -0.0122 -0.6760  0.1697
 6074SOL    HW224062   4.267   0.169   4.376 -2.2527 -0.0181  2.1712
 6074SOL    HW324063   4.294   0.295   4.454  2.4092  0.6124 -0.0880
 6074SOL    MW424064   4.319   0.217   4.427 -0.2595  0.3028 -0.2552
 6075SOL     OW24065   5.750   0.232   1.151  0.2449 -0.0684  0.4913
 6075SOL    HW224066   5.819   0.210   1.214 -0.1528 -0.5405  0.7667
 6075SOL    HW324067   5.694   0.154   1.148 -0.9721  0.7442  1.1856
 6075SOL    MW424068   5.752   0.218   1.159 -0.3610 -0.2084 -0.4299
 6076SOL     OW24069   1.918   0.722   2.251 -0.2318  0.2421  0.1539
 6076SOL    HW224070   1.991   0.761   2.299  0.0358 -1.7016  1.4073
 6076SOL    HW324071   1.842   0.774   2.276  0.2678  0.5681  1.0079
 6076SOL    MW424072   1.917   0.734   2.260 -0.5461 -0.1958 -0.0777
 6077SOL     OW24073   5.572   3.251   1.712  0.6685 -0.4647 -0.6873
 6077SOL    HW224074   5.531   3.327   1.752  0.0231  0.3808 -2.8155
 6077SOL    HW324075   5.666   3.263   1.726  0.4180 -1.7221  3.0333
 6077SOL    MW424076   5.579   3.263   1.719 -0.2553 -0.4451  0.3627
 6078SOL     OW24077   5.847   4.794   2.250  0.1818 -0.1460 -0.6206
 6078SOL    HW224078   5.794   4.842   2.313 -0.4770 -0.3386 -1.0209
 6078SOL    HW324079   5.936   4.828   2.263  0.2297 -0.8280  1.0311
 6078SOL    MW424080   5.852   4.805   2.260 -0.1464  0.2234  1.0958
 6079SOL     OW24081   6.386   1.435   4.489  0.0960 -0.4460  0.5850
 6079SOL    HW224082   6.475   1.444   4.455  0.0223  1.2182  0.7746
 6079SOL    HW324083   6.393   1.369   4.557  1.2264 -0.1946  0.7316
 6079SOL    MW424084   6.398   1.427   4.493 -0.2515  0.3057 -0.3174
 6080SOL     OW24085   3.058   3.740   6.036  0.4077 -0.4006 -0.1107
 6080SOL    HW224086   3.118   3.668   6.060  1.4832  0.3782 -0.3746
 6080SOL    HW324087   3.003   3.702   5.968  0.9470 -0.9977 -0.2341
 6080SOL    MW424088   3.059   3.725   6.030 -0.4534  0.2810 -0.2137
 6081SOL     OW24089   4.448   6.114   5.237 -0.1754  0.1319 -0.3118
 6081SOL    HW224090   4.405   6.165   5.306 -0.1031 -2.3372  1.7155
 6081SOL    HW324091   4.470   6.178   5.170 -2.1094  2.3583  1.0202
 6081SOL    MW424092   4.445   6.129   5.238 -0.1069  0.1533  0.3675
 6082SOL     OW24093   0.634   4.314   0.918  0.3636  1.0958 -0.4960
 6082SOL    HW224094   0.701   4.352   0.974 -0.4425  2.3956 -0.3607
 6082SOL    HW324095   0.601   4.388   0.867 -1.3977  0.6410 -0.0904
 6082SOL    MW424096   0.638   4.329   0.919 -0.2344  0.0422  0.5606
 6083SOL     OW24097   4.388   4.419   2.310 -0.3092  0.0244 -0.2520
 6083SOL    HW224098   4.417   4.504   2.279 -0.0288 -0.4430 -1.3244
 6083SOL    HW324099   4.333   4.438   2.386  0.1613  1.1188 -0.1743
 6083SOL    MW424100   4.384   4.433   2.316 -0.3946  0.6634 -0.0907
 6084SOL     OW24101   0.037   4.917   4.080  0.3171 -0.0799 -0.7211
 6084SOL    HW224102  -0.057   4.921   4.097  0.3013 -0.5338 -0.6768
 6084SOL    HW324103   0.055   4.823   4.072  0.8795 -0.0282 -0.1162
 6084SOL    MW424104   0.027   4.905   4.081 -0.2844 -0.1179 -0.2421
 6085SOL     OW24105   5.872   5.989   1.951  0.3519 -0.0568  0.1920
 6085SOL    HW224106   5.829   6.073   1.938 -0.1763 -0.1173  1.3731
 6085SOL    HW324107   5.820   5.945   2.019  0.5072 -1.4149 -0.5272
 6085SOL    MW424108   5.860   5.994   1.958  0.1876 -0.3423 -0.0863
 6086SOL     OW24109   1.829   2.870   4.412  0.5315 -0.0896  0.2926
 6086SOL    HW224110   1.751   2.907   4.452 -0.8536 -1.3464 -1.0911
 6086SOL    HW324111   1.816   2.883   4.318  2.7923  1.1312  0.0765
 6086SOL    MW424112   1.817   2.876   4.405 -0.6450  0.6781 -0.0094
 6087SOL     OW24113   0.121   4.393   4.402  0.2304  0.6415 -0.2147
 6087SOL    HW224114   0.029   4.386   4.378 -0.1335 -1.0718  1.4112
 6087SOL    HW324115   0.125   4.469   4.460 -0.4845 -0.1011  0.8572
 6087SOL    MW424116   0.109   4.402   4.406 -0.0270 -0.1496 -0.5520
 6088SOL     OW24117   2.673   3.618   0.707  0.4699  0.0352 -0.1433
 6088SOL    HW224118   2.646   3.709   0.691  1.0612  0.7978  2.6187
 6088SOL    HW324119   2.592   3.572   0.725  0.3740  0.7726  1.4839
 6088SOL    MW424120   2.659   3.624   0.707  0.1115  1.1245  0.1384
 6089SOL     OW24121   2.006   1.806   2.060  0.3064 -0.8349  0.0162
 6089SOL    HW224122   1.911   1.819   2.058  0.4334  0.6055  1.4916
 6089SOL    HW324123   2.025   1.778   2.149  1.4126  0.3399  0.1853
 6089SOL    MW424124   1.996   1.804   2.071 -0.1322  0.3062  0.5261
 6090SOL     OW24125   2.633   2.327   2.956  0.2407  0.6889  0.4827
 6090SOL    HW224126   2.657   2.404   3.009 -0.5160  0.8377  0.6301
 6090SOL    HW324127   2.646   2.253   3.014 -1.3328  0.9111  1.1833
 6090SOL    MW424128   2.638   2.328   2.971  0.1427  0.4234 -0.0525
 6091SOL     OW24129   0.519   4.620   3.316  0.2871 -0.1625  0.3846
 6091SOL    HW224130   0.499   4.587   3.229  1.4855 -0.2604  0.1276
 6091SOL    HW324131   0.590   4.564   3.348  0.8648  0.7795  0.8208
 6091SOL    MW424132   0.526   4.608   3.309  0.3195  0.2762 -0.4866
 6092SOL     OW24133   2.031   5.915   3.632  0.4494 -0.1132  0.6339
 6092SOL    HW224134   2.107   5.872   3.671  0.5829 -0.3849  0.0849
 6092SOL    HW324135   2.044   6.008   3.652  1.1571 -0.1001  0.1767
 6092SOL    MW424136   2.043   5.921   3.640 -0.4239  0.1917  0.1989
 6093SOL     OW24137   2.263   1.909   2.860  0.3746 -0.0262 -0.1271
 6093SOL    HW224138   2.302   1.875   2.780  1.0968  0.8724 -0.1709
 6093SOL    HW324139   2.292   1.849   2.929  0.5353 -0.2505 -0.3920
 6093SOL    MW424140   2.272   1.896   2.859 -0.3328  0.4154 -0.3377
 6094SOL     OW24141   0.539   1.626   0.130  0.4508  0.4250  1.1200
 6094SOL    HW224142   0.586   1.691   0.183  1.0655  0.1169  0.9553
 6094SOL    HW324143   0.604   1.594   0.068  0.3317 -0.8092  1.6066
 6094SOL    MW424144   0.553   1.630   0.129  0.1110  0.2474 -0.1861
 6095SOL     OW24145   2.924   5.510   5.660 -0.1835  0.5197  0.3519
 6095SOL    HW224146   2.938   5.417   5.644 -1.6644  0.0818  1.3856
 6095SOL    HW324147   2.970   5.527   5.742 -0.5680  0.5034  0.5737
 6095SOL    MW424148   2.932   5.500   5.669 -0.0688 -0.1665  0.2624
 6096SOL     OW24149   4.289   4.479   0.774  0.1814  0.8039 -0.1794
 6096SOL    HW224150   4.252   4.401   0.816  0.3960 -0.6325 -2.5030
 6096SOL    HW324151   4.384   4.465   0.779  0.2238  0.9732 -0.5309
 6096SOL    MW424152   4.297   4.467   0.780 -0.3502 -0.1311  0.2511
 6097SOL     OW24153   1.839   5.932   4.757 -0.2612 -0.0677 -0.1372
 6097SOL    HW224154   1.845   5.998   4.827 -2.0362 -0.3944  0.3628
 6097SOL    HW324155   1.819   5.982   4.678 -1.0043  0.0737  0.1302
 6097SOL    MW424156   1.837   5.947   4.756  0.9327 -0.3286  0.0912
 6098SOL     OW24157   4.386   6.173   2.517 -0.2474  0.3513  0.0387
 6098SOL    HW224158   4.356   6.126   2.595 -0.0988 -0.0733 -0.1633
 6098SOL    HW324159   4.340   6.257   2.522 -1.5104 -0.2970 -0.2729
 6098SOL    MW424160   4.376   6.178   2.528  0.2467  0.2733  0.3012
 6099SOL     OW24161   5.684   2.379   5.281  0.3486  0.1019 -0.2447
 6099SOL    HW224162   5.730   2.407   5.201  1.2601  1.7047  0.7866
 6099SOL    HW324163   5.746   2.397   5.352 -0.8110 -0.3627  0.9225
 6099SOL    MW424164   5.698   2.385   5.280 -0.1670 -0.0500 -0.4063
 6100SOL     OW24165   1.796   5.816   2.392 -0.0531  0.1005  0.5571
 6100SOL    HW224166   1.891   5.826   2.390 -0.2206  4.0781  2.6835
 6100SOL    HW324167   1.776   5.790   2.483 -1.0298  0.0902  0.3554
 6100SOL    MW424168   1.806   5.813   2.404  0.2583 -0.4698 -0.2055
 6101SOL     OW24169   4.982   2.482   0.073 -0.6672 -0.1426 -0.0987
 6101SOL    HW224170   5.048   2.533   0.026 -1.9904  1.2955 -0.4832
 6101SOL    HW324171   5.032   2.428   0.134  0.9202 -0.0299 -1.2522
 6101SOL    MW424172   4.997   2.482   0.075 -0.0633 -0.0136 -0.3326
 6102SOL     OW24173   0.462   4.321   2.630 -0.0828 -0.5499 -0.0820
 6102SOL    HW224174   0.533   4.381   2.604  0.3728 -1.2416 -0.4583
 6102SOL    HW324175   0.505   4.252   2.678 -0.0893 -2.3078 -2.4088
 6102SOL    MW424176   0.477   4.320   2.633 -0.4655 -0.5020 -0.2991
 6103SOL     OW24177   5.823   5.656   4.969  0.5017 -0.5508  0.0108
 6103SOL    HW224178   5.799   5.695   5.054  2.1146 -3.4948  1.9809
 6103SOL    HW324179   5.858   5.730   4.919 -1.3362  1.4837  1.4981
 6103SOL    MW424180   5.824   5.671   4.974 -0.1330 -0.0840  0.2848
 6104SOL     OW24181   3.441   1.557   4.921 -0.1417  0.2849  0.1902
 6104SOL    HW224182   3.407   1.468   4.913 -0.2641  0.3266  0.2595
 6104SOL    HW324183   3.388   1.608   4.860 -0.8456  0.5376  1.0023
 6104SOL    MW424184   3.430   1.552   4.912  0.5559  0.6266  0.0570
 6105SOL     OW24185   3.491   0.733   1.197 -0.1865 -0.0786 -0.3039
 6105SOL    HW224186   3.471   0.653   1.149  1.9351 -1.8867  1.5539
 6105SOL    HW324187   3.587   0.738   1.196 -0.2309  1.9732  0.4002
 6105SOL    MW424188   3.501   0.723   1.191 -0.4093 -0.4277 -0.1642
 6106SOL     OW24189   3.947   6.193   1.739 -0.0630 -0.1009 -0.0942
 6106SOL    HW224190   3.987   6.264   1.689 -1.2232  0.5135 -0.1897
 6106SOL    HW324191   3.902   6.237   1.811  1.3706 -0.9504  1.4060
 6106SOL    MW424192   3.947   6.208   1.742  0.0890 -0.4014 -0.2176
 6107SOL     OW24193   1.833   0.275   5.465  0.3779 -0.2013 -0.5664
 6107SOL    HW224194   1.844   0.238   5.552 -1.2521  0.7940  0.1114
 6107SOL    HW324195   1.804   0.200   5.411 -2.6688 -0.1079  0.7348
 6107SOL    MW424196   1.831   0.260   5.469 -0.8999  0.0775 -0.9580
 6108SOL     OW24197   5.070   3.585   1.073 -0.3265 -0.2126 -0.1143
 6108SOL    HW224198   5.154   3.590   1.118 -1.2525 -0.0468  1.6960
 6108SOL    HW324199   5.058   3.492   1.057 -0.8415 -0.5304  1.8174
 6108SOL    MW424200   5.080   3.573   1.077 -0.1974 -0.7353 -0.0505
 6109SOL     OW24201   2.714   1.730   2.053  0.1167  0.0861 -0.0066
 6109SOL    HW224202   2.805   1.712   2.028  0.3694 -0.2549  1.1055
 6109SOL    HW324203   2.712   1.717   2.148 -0.8366  1.1845  0.1537
 6109SOL    MW424204   2.726   1.726   2.063 -0.2475 -0.2567  0.1559
 6110SOL     OW24205   0.866   5.538   1.287  0.1024 -0.7952 -0.0342
 6110SOL    HW224206   0.855   5.479   1.213  0.0032 -1.7044  0.6834
 6110SOL    HW324207   0.810   5.612   1.267  0.3410 -0.8626 -1.0251
 6110SOL    MW424208   0.857   5.540   1.275  0.0105 -0.0391  0.1528
 6111SOL     OW24209   4.512   1.881   5.412 -0.0586  0.0452 -0.2327
 6111SOL    HW224210   4.538   1.944   5.479 -0.6961  0.0300  0.0417
 6111SOL    HW324211   4.430   1.845   5.444 -0.0103 -0.4825 -0.6847
 6111SOL    MW424212   4.505   1.885   5.425  0.6901  0.5711 -0.1052
 6112SOL     OW24213   5.673   3.961   3.029  0.2619  0.4494  0.1401
 6112SOL    HW224214   5.704   3.871   3.036  1.5083  0.9022  0.6696
 6112SOL    HW324215   5.693   4.000   3.114 -1.4661  0.8812  0.3809
 6112SOL    MW424216   5.680   3.954   3.041 -0.2235 -0.0895  0.7861
 6113SOL     OW24217   2.446   5.962   2.339  0.0110  0.1756 -0.5367
 6113SOL    HW224218   2.494   5.997   2.264  1.7695  1.1419  0.9377
 6113SOL    HW324219   2.398   6.037   2.374  0.4780  0.1416  0.2041
 6113SOL    MW424220   2.446   5.977   2.334  0.3341 -0.5114  0.1538
 6114SOL     OW24221   6.140   2.086   0.831 -0.6256 -0.2017 -0.2375
 6114SOL    HW224222   6.065   2.031   0.851 -1.0157 -0.8816 -3.0406
 6114SOL    HW324223   6.146   2.147   0.904 -3.6608 -0.3804  0.2885
 6114SOL    MW424224   6.131   2.087   0.843 -0.6250  0.7637 -0.2441
 6115SOL     OW24225   5.562   1.348   0.236 -0.6325  0.0214  0.4470
 6115SOL    HW224226   5.603   1.283   0.179 -0.6671  0.6483 -0.2998
 6115SOL    HW324227   5.473   1.315   0.249 -1.1139  0.6002 -1.0859
 6115SOL    MW424228   5.555   1.335   0.230  0.4558  0.5505 -0.5571
 6116SOL     OW24229   2.846   1.276   4.597 -0.5346 -0.2382  0.4248
 6116SOL    HW224230   2.932   1.278   4.556 -0.9408  0.5874 -0.4416
 6116SOL    HW324231   2.861   1.308   4.686  0.1359 -0.6001  0.4427
 6116SOL    MW424232   2.859   1.281   4.603  0.3188 -0.2054 -0.0559
 6117SOL     OW24233   2.062   2.385   4.379  0.4200  0.1561  0.6441
 6117SOL    HW224234   2.022   2.298   4.382 -0.8527  0.7220  0.6732
 6117SOL    HW324235   1.988   2.445   4.367  1.5321  1.0088 -3.3003
 6117SOL    MW424236   2.047   2.382   4.378  0.0976 -0.3810  0.7909
 6118SOL     OW24237   1.751   3.273   4.997  0.1355 -0.0538  0.2946
 6118SOL    HW224238   1.828   3.315   5.035  0.2060  0.2104 -0.1303
 6118SOL    HW324239   1.725   3.207   5.061  0.8871 -0.3423  0.3043
 6118SOL    MW424240   1.758   3.270   5.010 -0.0794  0.2726 -0.0722
 6119SOL     OW24241   4.693   3.634   0.240  0.3141 -0.8676 -0.0670
 6119SOL    HW224242   4.703   3.687   0.319  0.5511  1.5606 -1.6422
 6119SOL    HW324243   4.602   3.647   0.213 -0.0795 -2.5324  0.3089
 6119SOL    MW424244   4.682   3.643   0.247  0.2879  0.0204 -0.2004
 6120SOL     OW24245   4.776   0.525   3.443  0.0095  0.0745  0.1868
 6120SOL    HW224246   4.717   0.454   3.415 -1.4448  0.5276  1.9359
 6120SOL    HW324247   4.860   0.481   3.458 -0.4319 -0.9876 -0.3068
 6120SOL    MW424248   4.779   0.510   3.441  0.1875  0.1752 -0.0802
 6121SOL     OW24249   1.016   0.768   4.905 -0.0931  0.0563 -0.2399
 6121SOL    HW224250   0.973   0.744   4.987  0.7307  0.7796  0.4088
 6121SOL    HW324251   0.945   0.800   4.850 -0.7697 -1.1288 -0.0901
 6121SOL    MW424252   1.001   0.769   4.909  0.0847 -0.8047  0.5101
 6122SOL     OW24253   6.009   5.263   0.305 -0.0923  0.0715  0.4164
 6122SOL    HW224254   6.051   5.345   0.332  0.6985  0.2449 -1.2126
 6122SOL    HW324255   6.030   5.201   0.375 -0.3541  1.1308  1.4763
 6122SOL    MW424256   6.017   5.266   0.318  0.1335  0.1803  0.0431
 6123SOL     OW24257   5.366   5.809   4.735 -0.5540 -0.7325  0.3636
 6123SOL    HW224258   5.398   5.719   4.740 -0.1122 -0.5753  0.3527
 6123SOL    HW324259   5.444   5.864   4.738 -0.6879 -0.3923 -1.3495
 6123SOL    MW424260   5.380   5.805   4.736  0.5212 -0.1258 -0.8631
 6124SOL     OW24261   5.542   6.208  -0.003 -0.5531  0.2002  0.1652
 6124SOL    HW224262   5.596   6.281   0.027  0.0695  0.0691 -0.5743
 6124SOL    HW324263   5.525   6.156   0.076  1.0446 -0.1483  0.3325
 6124SOL    MW424264   5.547   6.211   0.011  0.1533  0.0454  0.0407
 6125SOL     OW24265   5.939   0.093   1.600  0.3481  0.4062  0.4768
 6125SOL    HW224266   5.940   0.102   1.695 -0.4411  1.2795  0.4201
 6125SOL    HW324267   5.882   0.017   1.584  3.2175 -1.9671  0.7886
 6125SOL    MW424268   5.931   0.084   1.610 -0.2501 -0.2628  0.0590
 6126SOL     OW24269   4.966   3.149   0.319  0.0641 -0.3496 -0.0821
 6126SOL    HW224270   4.891   3.117   0.368  0.0298 -0.0088  0.0846
 6126SOL    HW324271   5.039   3.094   0.349  0.1412  0.1757  0.7066
 6126SOL    MW424272   4.966   3.137   0.329  0.3271 -0.1097  0.1811
 6127SOL     OW24273   5.270   3.242   5.348  0.1956 -0.0721  0.2393
 6127SOL    HW224274   5.317   3.314   5.391 -0.5216 -0.0911  1.0934
 6127SOL    HW324275   5.194   3.227   5.404 -1.0362  0.2092 -1.2940
 6127SOL    MW424276   5.266   3.250   5.361 -0.3822  0.0031  0.3830
 6128SOL     OW24277   0.767   2.814   2.135 -0.0532 -0.5443  0.0396
 6128SOL    HW224278   0.723   2.730   2.145  0.3202 -0.6647  0.7448
 6128SOL    HW324279   0.830   2.817   2.207 -0.3945  0.5426  0.3271
 6128SOL    MW424280   0.769   2.803   2.146  0.9980 -0.2645 -0.7472
 6129SOL     OW24281   2.205   4.674   3.345 -0.1192  0.0310 -0.2723
 6129SOL    HW224282   2.119   4.642   3.318 -1.3515  1.8553  1.1928
 6129SOL    HW324283   2.189   4.717   3.429  2.5615 -0.9572  0.8555
 6129SOL    MW424284   2.192   4.676   3.353  0.1599  0.0071  0.0770
 6130SOL     OW24285   5.765   0.399   2.054 -0.0498  0.2801 -0.8393
 6130SOL    HW224286   5.706   0.326   2.033 -1.4209  0.3620  2.1559
 6130SOL    HW324287   5.707   0.467   2.089  1.6719  0.6408  1.5767
 6130SOL    MW424288   5.749   0.398   2.056  0.3991  0.0478 -0.4297
 6131SOL     OW24289   1.929   5.288   1.193  0.3928  0.3400  0.4968
 6131SOL    HW224290   1.892   5.348   1.258 -1.0741 -0.5382  0.5186
 6131SOL    HW324291   2.024   5.301   1.199  0.1960  1.3587  1.7445
 6131SOL    MW424292   1.937   5.297   1.202 -0.0059 -0.1148 -0.4351
 6132SOL     OW24293   3.263   0.915   2.331  0.2382  0.1577 -0.0770
 6132SOL    HW224294   3.231   0.917   2.241  0.1732 -0.9665 -0.0876
 6132SOL    HW324295   3.228   0.834   2.367  0.7820  0.2912  0.7737
 6132SOL    MW424296   3.254   0.905   2.324 -0.2560  0.3707 -0.0333
 6133SOL     OW24297   5.853   3.964   1.316 -0.1869 -0.4740  0.0485
 6133SOL    HW224298   5.850   3.903   1.390 -0.4923  1.4297  1.6835
 6133SOL    HW324299   5.947   3.972   1.296  0.1240  0.8214  1.8597
 6133SOL    MW424300   5.865   3.957   1.323 -0.1808  0.0023 -0.0545
 6134SOL     OW24301   5.083   3.469   3.891  0.5837 -0.3016  0.1792
 6134SOL    HW224302   5.152   3.522   3.851  0.9114 -0.0125  1.1149
 6134SOL    HW324303   5.114   3.450   3.979 -0.6570  0.1025  0.7334
 6134SOL    MW424304   5.096   3.474   3.897 -1.0598  0.2694 -0.3300
 6135SOL     OW24305   3.400   4.583   3.169  0.2810 -0.7578  0.6672
 6135SOL    HW224306   3.435   4.496   3.150  1.2775 -0.3284  0.4641
 6135SOL    HW324307   3.399   4.588   3.265 -0.1712 -1.1429  0.6846
 6135SOL    MW424308   3.405   4.573   3.179 -0.0958 -0.5094 -0.2242
 6136SOL     OW24309   2.527   2.984   2.077 -0.3590 -0.2723 -0.3916
 6136SOL    HW224310   2.616   2.954   2.093 -0.3266  0.8667  2.0008
 6136SOL    HW324311   2.530   3.078   2.094 -1.9856 -0.1790 -0.4468
 6136SOL    MW424312   2.539   2.992   2.081  0.1783  0.2346 -0.6055
 6137SOL     OW24313   3.391   4.919   3.035  0.4211  0.4796 -0.2419
 6137SOL    HW224314   3.375   4.946   2.945 -0.8152 -0.6915 -0.3937
 6137SOL    HW324315   3.473   4.870   3.031  0.9172  1.3115 -0.5334
 6137SOL    MW424316   3.400   4.916   3.023 -0.6205 -0.3898  0.1273
 6138SOL     OW24317   0.178   3.534   2.319 -0.2468 -0.1395  0.1485
 6138SOL    HW224318   0.248   3.470   2.307  0.2077 -0.0316  1.9467
 6138SOL    HW324319   0.097   3.483   2.316  0.1153 -0.8755  1.7454
 6138SOL    MW424320   0.176   3.519   2.317 -1.0111  0.3434  0.0966
 6139SOL     OW24321   2.269   3.035   0.891  0.2067 -0.1585  0.1468
 6139SOL    HW224322   2.277   3.014   0.984 -2.8773 -2.3182  0.0907
 6139SOL    HW324323   2.274   2.950   0.847  1.1610  0.7855 -1.6555
 6139SOL    MW424324   2.270   3.021   0.898  0.0163  0.1334 -0.3902
 6140SOL     OW24325   1.991   3.920   4.105  0.0092  0.0184  0.1518
 6140SOL    HW224326   1.939   3.866   4.046  1.5127 -1.1151 -0.2062
 6140SOL    HW324327   1.946   3.916   4.189 -1.7217  0.9969 -0.6664
 6140SOL    MW424328   1.979   3.913   4.108  0.3118  0.5465 -0.4950
 6141SOL     OW24329   2.183   4.086   4.370  0.2178 -0.1510  0.1590
 6141SOL    HW224330   2.137   4.009   4.404  1.5162 -0.7174  0.7237
 6141SOL    HW324331   2.114   4.152   4.357 -0.8559 -1.2583  0.0799
 6141SOL    MW424332   2.168   4.085   4.373  0.4337 -0.1475 -0.6077
 6142SOL     OW24333   1.945   4.892   5.336  0.3780  0.2679  0.2347
 6142SOL    HW224334   1.878   4.959   5.348  0.3750  0.3486 -0.2262
 6142SOL    HW324335   1.913   4.817   5.386 -1.6930 -0.8594 -2.5371
 6142SOL    MW424336   1.932   4.891   5.344 -0.3863  0.9323 -0.5272
 6143SOL     OW24337   5.642   0.452   1.307  0.0582  0.0956  0.5319
 6143SOL    HW224338   5.676   0.380   1.254  0.3059  1.5717 -1.4236
 6143SOL    HW324339   5.704   0.460   1.379  1.5445  0.0246 -0.6793
 6143SOL    MW424340   5.655   0.444   1.309  0.2654  0.2302  0.6966
 6144SOL     OW24341   2.775   2.696   1.708 -0.3692 -0.5479  0.1797
 6144SOL    HW224342   2.723   2.688   1.788 -0.5977 -0.1396  0.0740
 6144SOL    HW324343   2.846   2.756   1.731 -1.4776  1.0761 -0.4295
 6144SOL    MW424344   2.778   2.703   1.722 -0.3199  0.1406  0.1392
 6145SOL     OW24345   1.004   2.810   0.080 -0.0890  0.2748  0.0535
 6145SOL    HW224346   1.066   2.828   0.009 -0.9033  0.8077 -0.5406
 6145SOL    HW324347   1.040   2.856   0.155  0.6381 -0.0649 -0.0790
 6145SOL    MW424348   1.017   2.819   0.081  0.1377  0.3618 -0.1730
 6146SOL     OW24349   5.298   1.428   1.594  0.3055  0.5729  1.0534
 6146SOL    HW224350   5.324   1.388   1.677  2.5100 -0.2864  0.0319
 6146SOL    HW324351   5.367   1.404   1.532 -1.0062  1.5718 -0.9470
 6146SOL    MW424352   5.310   1.420   1.596 -0.0812 -0.0465  0.0362
 6147SOL     OW24353   4.131   3.927   3.627  0.2166  0.2310  0.8286
 6147SOL    HW224354   4.217   3.968   3.638  0.7525  0.3605 -2.6550
 6147SOL    HW324355   4.150   3.835   3.612  0.2309  0.7306 -3.2274
 6147SOL    MW424356   4.145   3.921   3.627 -0.0838  0.2537 -0.2665
 6148SOL     OW24357   1.211   2.763   3.050 -0.0004 -0.1893  0.0221
 6148SOL    HW224358   1.120   2.760   3.077 -0.9405  0.4429 -2.7494
 6148SOL    HW324359   1.233   2.856   3.051  0.4921 -0.3038  0.2352
 6148SOL    MW424360   1.202   2.775   3.054  0.1413  0.2271  0.0776
 6149SOL     OW24361   3.604   2.406   3.342  0.5346 -0.5566  0.2052
 6149SOL    HW224362   3.552   2.381   3.266 -0.5404 -0.2272  0.8232
 6149SOL    HW324363   3.623   2.499   3.329  0.4434 -0.5265  0.2887
 6149SOL    MW424364   3.600   2.415   3.330 -0.0309  0.3770  0.1946
 6150SOL     OW24365   3.464   1.038   1.164  0.0561 -0.0727  0.1515
 6150SOL    HW224366   3.429   0.950   1.152  0.5430 -0.0598 -1.8544
 6150SOL    HW324367   3.389   1.096   1.146  0.0980 -0.0741 -0.0311
 6150SOL    MW424368   3.449   1.034   1.160 -0.2592 -0.7382  0.5426
 6151SOL     OW24369   1.229   4.965   3.780  0.1156  0.2273  0.4487
 6151SOL    HW224370   1.160   5.018   3.742 -0.3860  1.3433  2.7013
 6151SOL    HW324371   1.296   5.029   3.806  2.0434 -0.8190 -1.6494
 6151SOL    MW424372   1.229   4.980   3.779 -0.2899 -0.0302 -0.1409
 6152SOL     OW24373   0.020   0.416   1.558 -0.4877 -0.0761 -0.0181
 6152SOL    HW224374   0.073   0.355   1.506 -2.9722 -2.8188  0.4372
 6152SOL    HW324375  -0.017   0.476   1.494 -1.4875 -1.8352 -1.1874
 6152SOL    MW424376   0.022   0.415   1.543 -0.0839 -0.0118  0.0822
 6153SOL     OW24377   4.249   0.841   2.905 -0.3163  0.0737  0.1586
 6153SOL    HW224378   4.290   0.921   2.936 -0.5110  0.8186 -1.3928
 6153SOL    HW324379   4.272   0.836   2.812  0.1802 -1.9953  0.3311
 6153SOL    MW424380   4.257   0.851   2.897 -0.6713 -0.1246 -0.2925
 6154SOL     OW24381   2.367   0.446   2.402 -0.2997 -0.3906 -0.0255
 6154SOL    HW224382   2.461   0.465   2.400 -0.3794  0.0835  0.5315
 6154SOL    HW324383   2.329   0.508   2.340 -0.4339  0.5974  1.0064
 6154SOL    MW424384   2.374   0.457   2.393 -0.4931  0.7232  0.2585
 6155SOL     OW24385   4.399   1.344   0.315  0.1942  0.1288  0.5048
 6155SOL    HW224386   4.353   1.351   0.399  1.0120 -0.5116  1.0194
 6155SOL    HW324387   4.330   1.322   0.252 -0.8225  2.8006  0.5489
 6155SOL    MW424388   4.383   1.342   0.318  0.1507 -0.3808  0.7327
 6156SOL     OW24389   5.172   5.583   0.011  0.7562  0.2108  0.1017
 6156SOL    HW224390   5.161   5.577  -0.084 -2.3766 -0.7296  0.4233
 6156SOL    HW324391   5.189   5.494   0.039 -0.5695  0.1097  0.6193
 6156SOL    MW424392   5.173   5.571   0.002 -0.3009  0.6291 -0.2797
 6157SOL     OW24393   6.408   2.185   3.103  0.5134  0.4887 -0.7168
 6157SOL    HW224394   6.428   2.099   3.139  1.0173  0.7657 -0.3243
 6157SOL    HW324395   6.428   2.177   3.010 -0.2226 -0.0536 -0.8341
 6157SOL    MW424396   6.414   2.173   3.095 -0.5723  0.8662 -0.6670
 6158SOL     OW24397   4.589   4.951   0.761 -0.0255 -0.3983 -0.3102
 6158SOL    HW224398   4.502   4.936   0.725  0.2286  0.1328 -1.1767
 6158SOL    HW324399   4.624   4.863   0.778 -0.7982 -0.6069  0.2450
 6158SOL    MW424400   4.582   4.937   0.759 -1.1786  0.5337  0.2752
 6159SOL     OW24401   0.269   0.453   0.550 -0.0904  0.1076  0.4100
 6159SOL    HW224402   0.329   0.392   0.593  0.5495  0.8031  0.5227
 6159SOL    HW324403   0.243   0.513   0.619  2.1190  2.1696 -0.3815
 6159SOL    MW424404   0.274   0.452   0.565  0.0308  0.0907  0.3086
 6160SOL     OW24405   4.349   0.567   5.946 -0.6130 -0.3185  0.5034
 6160SOL    HW224406   4.416   0.499   5.935 -0.3179  0.1008 -0.3859
 6160SOL    HW324407   4.290   0.532   6.012  0.0784 -1.0186  0.7688
 6160SOL    MW424408   4.350   0.553   5.953 -0.0064  0.4942 -0.4845
 6161SOL     OW24409   5.459   4.821   3.921 -0.5585 -0.5004 -0.2147
 6161SOL    HW224410   5.520   4.776   3.979  1.4223  1.7572 -0.4016
 6161SOL    HW324411   5.433   4.754   3.857  1.3954 -1.6489  0.1226
 6161SOL    MW424412   5.463   4.806   3.920 -0.1971  0.2548  0.6354
 6162SOL     OW24413   2.327   6.290   2.012  0.2671  0.0203  0.4373
 6162SOL    HW224414   2.376   6.231   2.069  0.8557 -1.2667 -1.3281
 6162SOL    HW324415   2.376   6.291   1.930 -1.3327  0.6509 -0.5625
 6162SOL    MW424416   2.340   6.282   2.009  0.1747 -0.5893 -0.1611
 6163SOL     OW24417   2.137   0.088   1.984  0.1857  0.5078 -0.5597
 6163SOL    HW224418   2.185   0.015   2.023  0.1155  0.5427 -0.4028
 6163SOL    HW324419   2.066   0.105   2.047 -0.3380  0.1168 -1.0376
 6163SOL    MW424420   2.134   0.080   1.998 -0.5744 -0.3117  0.2986
 6164SOL     OW24421   0.366   0.498   5.005  0.4089 -0.4844  0.0317
 6164SOL    HW224422   0.449   0.450   5.009  1.1303  0.7172  0.0935
 6164SOL    HW324423   0.301   0.437   5.040  1.1186 -1.7366 -0.7499
 6164SOL    MW424424   0.369   0.484   5.010  0.1731 -0.4810 -0.0457
 6165SOL     OW24425   1.459   3.601   2.185  0.0032 -0.7108 -0.1735
 6165SOL    HW224426   1.537   3.550   2.205 -0.2987 -2.2426 -2.5747
 6165SOL    HW324427   1.451   3.598   2.090 -1.8668  1.1362 -0.1612
 6165SOL    MW424428   1.468   3.594   2.175 -0.1063 -1.0559  0.0882
 6166SOL     OW24429   2.522   1.028   2.596 -0.1291 -0.4108  0.1024
 6166SOL    HW224430   2.485   1.011   2.510  0.5616 -2.4621  0.1611
 6166SOL    HW324431   2.447   1.022   2.656 -0.4547  0.1013 -0.2518
 6166SOL    MW424432   2.507   1.025   2.593 -0.6507  0.7919 -0.1746
 6167SOL     OW24433   5.439   4.207   4.136  0.0833 -0.9368 -0.4717
 6167SOL    HW224434   5.498   4.260   4.082  2.0771 -1.3097  1.1810
 6167SOL    HW324435   5.474   4.119   4.131 -1.2631 -1.4822 -0.6235
 6167SOL    MW424436   5.451   4.203   4.128  0.1317 -0.1553 -0.9009
 6168SOL     OW24437   1.442   3.148   6.374  0.2130 -0.1692  0.0918
 6168SOL    HW224438   1.490   3.140   6.456 -0.9751 -0.7227  0.7784
 6168SOL    HW324439   1.479   3.224   6.331  0.4319  0.5244  1.4488
 6168SOL    MW424440   1.453   3.157   6.379 -0.5556  0.1583 -0.0600
 6169SOL     OW24441   5.689   1.596   0.269 -0.4827  0.0274 -0.3579
 6169SOL    HW224442   5.636   1.516   0.268 -2.8117  1.4607 -0.9806
 6169SOL    HW324443   5.689   1.624   0.360  0.5977 -0.8060 -0.0867
 6169SOL    MW424444   5.682   1.589   0.281 -0.4733 -0.3614 -0.5764
 6170SOL     OW24445   0.494   1.703   4.438  0.2123  0.5841  0.4293
 6170SOL    HW224446   0.401   1.684   4.424 -0.8740  1.8807  4.5004
 6170SOL    HW324447   0.526   1.630   4.492  1.1886  0.8203  0.1924
 6170SOL    MW424448   0.486   1.691   4.444  0.4875 -0.2172 -0.0930
 6171SOL     OW24449   0.743   2.322   0.523  0.0205  0.2728 -0.1420
 6171SOL    HW224450   0.746   2.387   0.453 -0.5279 -0.5783 -0.9846
 6171SOL    HW324451   0.669   2.350   0.578  0.3773  0.8759  0.0467
 6171SOL    MW424452   0.733   2.335   0.521 -0.4816  0.0314 -0.3415
 6172SOL     OW24453   0.967   1.938   2.335  0.6515  0.1513  0.3125
 6172SOL    HW224454   0.905   1.959   2.405  0.5565 -0.6673  0.4841
 6172SOL    HW324455   1.051   1.927   2.380  0.3278 -1.7537  0.5121
 6172SOL    MW424456   0.970   1.940   2.350 -0.1972  0.5291  0.4488
 6173SOL     OW24457   1.328   4.636   2.112 -0.0549  0.0543  0.4756
 6173SOL    HW224458   1.266   4.656   2.042 -0.2052 -0.1560  0.5492
 6173SOL    HW324459   1.414   4.642   2.071 -0.0489  1.5825  0.6611
 6173SOL    MW424460   1.331   4.639   2.098  0.6069 -0.0136  0.4637
 6174SOL     OW24461   3.572   2.061   2.323 -0.1786 -0.2762 -0.8876
 6174SOL    HW224462   3.571   1.969   2.295  0.0524 -0.7148  0.4452
 6174SOL    HW324463   3.482   2.079   2.350 -0.1260 -0.2628 -0.7168
 6174SOL    MW424464   3.560   2.051   2.323  0.3358  0.0439  0.3590
 6175SOL     OW24465   1.415   2.877   0.912  0.8132 -0.4163 -0.2326
 6175SOL    HW224466   1.410   2.801   0.853  1.2963 -1.1837  0.6913
 6175SOL    HW324467   1.489   2.928   0.879 -0.2621  0.3367 -1.6068
 6175SOL    MW424468   1.424   2.874   0.899 -1.3244  0.7223  0.0593
 6176SOL     OW24469   6.000   0.511   5.194 -0.4451  0.1985 -0.4774
 6176SOL    HW224470   5.929   0.564   5.156 -2.2208 -2.4566 -1.1525
 6176SOL    HW324471   6.080   0.557   5.168 -1.8315  2.2636 -1.4142
 6176SOL    MW424472   6.001   0.524   5.185 -0.0040  0.4060 -0.0056
 6177SOL     OW24473   2.982   3.767   1.481  0.1797  0.3173 -0.0028
 6177SOL    HW224474   3.035   3.802   1.409 -0.6042  1.2168 -0.1587
 6177SOL    HW324475   2.982   3.672   1.467  0.7921  0.4122 -0.6618
 6177SOL    MW424476   2.989   3.759   1.469 -0.2187 -0.6723  0.0895
 6178SOL     OW24477   3.474   2.331   1.587 -0.7371  0.0791  0.7423
 6178SOL    HW224478   3.457   2.276   1.510  0.9315  2.6361 -1.6453
 6178SOL    HW324479   3.541   2.283   1.636 -0.4874 -0.7791 -0.3803
 6178SOL    MW424480   3.481   2.317   1.584  0.6252 -0.1290  0.2842
 6179SOL     OW24481   5.492   1.774   3.403  0.0878  0.2039 -0.0656
 6179SOL    HW224482   5.445   1.855   3.422  0.7615  1.0235 -1.7124
 6179SOL    HW324483   5.423   1.709   3.388 -0.4599  0.5535  0.8247
 6179SOL    MW424484   5.477   1.776   3.403 -0.8971  0.1654  0.1147
 6180SOL     OW24485   3.637   5.147   0.998  0.3279 -1.2908  0.2728
 6180SOL    HW224486   3.550   5.117   1.025  0.8012 -3.0660 -0.0397
 6180SOL    HW324487   3.646   5.115   0.909  0.7348  0.2208 -0.2589
 6180SOL    MW424488   3.626   5.139   0.990  0.4300 -0.5067 -0.1134
 6181SOL     OW24489   0.366   3.691   5.314  0.1383 -0.7435  0.5394
 6181SOL    HW224490   0.293   3.753   5.318  0.6389 -0.1435  0.3451
 6181SOL    HW324491   0.411   3.712   5.232  0.9941 -0.5866  1.0428
 6181SOL    MW424492   0.362   3.702   5.304  0.1433  0.1544  0.4663
 6182SOL     OW24493   0.448   5.756   4.607  0.5627 -0.2192 -0.3995
 6182SOL    HW224494   0.440   5.723   4.696  1.6823  0.4786 -0.0236
 6182SOL    HW324495   0.384   5.706   4.557 -0.4180 -0.2863  0.8810
 6182SOL    MW424496   0.439   5.745   4.612 -0.0309 -0.4910 -0.3134
 6183SOL     OW24497   3.351   0.108   2.819  0.2793  0.4555 -0.2763
 6183SOL    HW224498   3.302   0.188   2.798  0.3090  0.5813  0.1147
 6183SOL    HW324499   3.443   0.136   2.818  0.4158  0.0517 -1.7518
 6183SOL    MW424500   3.357   0.123   2.816 -0.4526  0.0634  0.3501
 6184SOL     OW24501   4.278   1.813   5.043  0.0800 -0.2128  0.3465
 6184SOL    HW224502   4.198   1.775   5.007  1.3754 -1.3418 -1.4501
 6184SOL    HW324503   4.311   1.747   5.104 -0.1614  0.0936  0.8110
 6184SOL    MW424504   4.272   1.800   5.046 -0.2881 -0.7704  0.3429
 6185SOL     OW24505   4.438   4.881   4.564  0.5298  0.1963 -0.2012
 6185SOL    HW224506   4.437   4.798   4.612  1.8134  0.2020 -0.1429
 6185SOL    HW324507   4.354   4.922   4.586  0.2274 -0.7156  0.4123
 6185SOL    MW424508   4.427   4.875   4.573 -0.1774  0.8952 -0.2856
 6186SOL     OW24509   4.586   2.879   4.026 -0.4688 -0.6764 -0.2888
 6186SOL    HW224510   4.587   2.784   4.034  0.7641 -0.5525  1.6849
 6186SOL    HW324511   4.519   2.908   4.089 -1.4665 -0.2520 -1.5103
 6186SOL    MW424512   4.578   2.871   4.036  0.6706 -0.1409  0.1365
 6187SOL     OW24513   3.977   1.413   5.246 -0.0832  0.3432  0.4840
 6187SOL    HW224514   3.993   1.396   5.153  1.3780  2.8249  0.1754
 6187SOL    HW324515   3.898   1.363   5.267  1.4290 -3.0401 -1.1502
 6187SOL    MW424516   3.968   1.405   5.236  0.8008  0.6697  0.0892
 6188SOL     OW24517   0.852   5.666   2.925 -0.3852  0.0173 -0.0015
 6188SOL    HW224518   0.858   5.602   2.995 -0.7748  0.4221  0.4076
 6188SOL    HW324519   0.871   5.750   2.966 -0.3650  0.2291 -0.4313
 6188SOL    MW424520   0.855   5.669   2.939 -0.0041  0.2716 -0.0005
 6189SOL     OW24521   5.819   6.016   5.606  0.2725 -0.6896 -0.5283
 6189SOL    HW224522   5.878   6.091   5.608 -2.3901  1.6462  3.1190
 6189SOL    HW324523   5.739   6.049   5.564  0.3025 -2.7316 -2.3388
 6189SOL    MW424524   5.816   6.030   5.601  0.6108  0.4796  1.2466
 6190SOL     OW24525   5.367   5.068   0.241 -0.9510  0.6945  0.3650
 6190SOL    HW224526   5.405   5.019   0.314 -0.1591  1.3562  0.4208
 6190SOL    HW324527   5.319   5.003   0.190 -1.3366  0.1831  1.3558
 6190SOL    MW424528   5.366   5.053   0.244  0.2657  0.3020 -0.2550
 6191SOL     OW24529   1.010   5.381   1.906 -0.0742 -0.3431  1.1368
 6191SOL    HW224530   0.936   5.402   1.849  0.9844 -0.2865 -0.2664
 6191SOL    HW324531   1.005   5.286   1.918 -0.8410 -0.2294  1.7201
 6191SOL    MW424532   1.000   5.371   1.900  0.1664 -0.3954 -0.1386
 6192SOL     OW24533   0.961   2.585   1.242 -0.0928 -0.0790 -0.0745
 6192SOL    HW224534   1.027   2.573   1.173  0.2730  0.1185  0.2332
 6192SOL    HW324535   0.885   2.621   1.197 -0.2010 -0.8648 -0.5358
 6192SOL    MW424536   0.960   2.588   1.227 -0.1251 -0.3395 -0.0952
 6193SOL     OW24537   2.299   2.890   3.588 -0.0672  0.5307 -0.0687
 6193SOL    HW224538   2.341   2.935   3.662  0.5408 -1.0266  0.5762
 6193SOL    HW324539   2.260   2.812   3.627 -3.1447  1.6134 -0.7457
 6193SOL    MW424540   2.300   2.886   3.603  0.4314 -0.0219 -0.2980
 6194SOL     OW24541   3.521   0.080   5.769  0.5353  0.0601  0.1712
 6194SOL    HW224542   3.514   0.118   5.857 -1.7643  0.5844 -0.1705
 6194SOL    HW324543   3.569  -0.002   5.782  0.8897  0.4929  1.7998
 6194SOL    MW424544   3.526   0.074   5.782 -0.1578  0.1662  0.4661
 6195SOL     OW24545   3.978   3.571   3.632 -0.0361  0.2600  0.1068
 6195SOL    HW224546   3.982   3.609   3.545  2.2656 -0.6968 -0.2981
 6195SOL    HW324547   4.062   3.595   3.672 -0.6287 -0.1647  1.6809
 6195SOL    MW424548   3.990   3.579   3.626  0.0319 -0.0462  0.1031
 6196SOL     OW24549   2.511   5.697   3.399  0.6635  0.5925 -0.1209
 6196SOL    HW224550   2.435   5.711   3.343  0.1147  0.3149  0.5467
 6196SOL    HW324551   2.566   5.636   3.350 -0.8393 -1.4184  0.5491
 6196SOL    MW424552   2.509   5.691   3.385 -0.1187  0.9267 -0.3580
 6197SOL     OW24553   0.022   5.456   5.242  0.6520  0.2067 -0.0240
 6197SOL    HW224554   0.006   5.504   5.161  0.2368 -0.7994 -0.5608
 6197SOL    HW324555   0.111   5.481   5.267  1.5460 -0.9234 -1.8616
 6197SOL    MW424556   0.032   5.465   5.234 -0.0299  0.3488 -0.0203
 6198SOL     OW24557   3.847   2.369   3.178 -0.0830 -0.0243  0.3176
 6198SOL    HW224558   3.786   2.348   3.249 -0.2325 -1.9034 -0.2956
 6198SOL    HW324559   3.842   2.293   3.120  0.7193  1.0615 -1.2389
 6198SOL    MW424560   3.838   2.356   3.180 -0.4640  0.4619 -0.2124
 6199SOL     OW24561   3.202   3.977   2.117 -0.0862 -0.0774  0.2916
 6199SOL    HW224562   3.287   4.015   2.094 -1.1954  1.4852 -1.4549
 6199SOL    HW324563   3.177   3.926   2.040 -1.0471  0.0703  0.4986
 6199SOL    MW424564   3.210   3.975   2.104  0.8381 -0.3648  0.2247
 6200SOL     OW24565   0.167   0.781   4.377  0.4001  0.3064  0.5198
 6200SOL    HW224566   0.089   0.836   4.373  0.1555 -0.0219  0.6833
 6200SOL    HW324567   0.218   0.805   4.300 -0.7497 -0.7713 -0.6286
 6200SOL    MW424568   0.164   0.791   4.366 -0.1069 -0.3182 -0.4741
 6201SOL     OW24569   3.108   5.682   6.363  1.3664  0.1858  0.0250
 6201SOL    HW224570   3.189   5.640   6.390  1.9141  0.3164 -1.2975
 6201SOL    HW324571   3.136   5.751   6.302  0.2201 -0.6172 -1.5038
 6201SOL    MW424572   3.122   5.686   6.358 -0.6333 -0.4290  0.0407
 6202SOL     OW24573   1.741   4.777   6.073  0.0917  0.4229 -0.5309
 6202SOL    HW224574   1.671   4.730   6.117  1.4393 -0.9945  0.1979
 6202SOL    HW324575   1.801   4.804   6.143  1.2505 -0.1062 -1.2792
 6202SOL    MW424576   1.740   4.775   6.088 -0.7076  0.1970 -0.3120
 6203SOL     OW24577   0.695   0.982   0.293 -0.2790  0.0310  0.3534
 6203SOL    HW224578   0.774   1.015   0.335  0.1909  0.0295 -0.5136
 6203SOL    HW324579   0.675   0.901   0.340 -0.8497  0.9708  1.8142
 6203SOL    MW424580   0.703   0.976   0.305  0.6271  0.5770 -0.6049
 6204SOL     OW24581   3.269   3.025   3.326  0.7739 -0.1951 -0.2665
 6204SOL    HW224582   3.360   3.000   3.308  0.2990 -1.2423 -1.2800
 6204SOL    HW324583   3.259   3.010   3.420  2.1308  1.5710  0.2113
 6204SOL    MW424584   3.280   3.020   3.336 -0.2996  0.1144 -0.0326
 6205SOL     OW24585   5.433   5.182   2.027  0.3126  0.1784  0.2512
 6205SOL    HW224586   5.404   5.181   1.936 -0.2386 -1.8135  0.4051
 6205SOL    HW324587   5.528   5.196   2.022  0.0879  1.5478 -0.5206
 6205SOL    MW424588   5.442   5.184   2.015  0.1041  0.1064  0.3587
 6206SOL     OW24589   4.893   6.400   0.682  0.2002 -0.5930  0.3707
 6206SOL    HW224590   4.920   6.467   0.619 -1.4215  0.8824  1.1642
 6206SOL    HW324591   4.975   6.360   0.711  1.0785 -0.4011 -1.6368
 6206SOL    MW424592   4.907   6.403   0.677 -0.2427 -0.3013  0.1122
 6207SOL     OW24593   2.952   5.348   0.213 -0.2200  0.1596 -0.5662
 6207SOL    HW224594   2.915   5.395   0.288 -0.8083  0.5263 -1.0760
 6207SOL    HW324595   2.941   5.256   0.234  0.8135  0.2437  0.3844
 6207SOL    MW424596   2.946   5.342   0.225  0.2521  0.5450 -0.8448
 6208SOL     OW24597   2.766   5.479   0.018  0.1385  0.2202 -0.5426
 6208SOL    HW224598   2.790   5.566   0.049  0.7765  0.0424 -0.5275
 6208SOL    HW324599   2.822   5.419   0.068 -1.1509 -0.2943  0.3496
 6208SOL    MW424600   2.776   5.482   0.029  0.5430 -0.4779  0.6171
 6209SOL     OW24601   2.761   2.725   6.026 -0.0307 -0.4935  0.4975
 6209SOL    HW224602   2.831   2.711   6.089  0.2124  0.8436  0.5563
 6209SOL    HW324603   2.730   2.637   6.003  0.8411 -1.0403  1.3870
 6209SOL    MW424604   2.766   2.711   6.031 -0.3808  0.0258 -0.4269
 6210SOL     OW24605   4.446   3.655   0.092 -0.3200 -0.0777  0.9170
 6210SOL    HW224606   4.452   3.573   0.042  0.6949  0.2822  0.4147
 6210SOL    HW324607   4.364   3.695   0.062 -0.0489 -0.1738  0.0022
 6210SOL    MW424608   4.436   3.650   0.081 -0.2573  0.5835  0.2770
 6211SOL     OW24609   3.017   0.324   1.777 -0.4190  0.2947  0.3971
 6211SOL    HW224610   2.995   0.236   1.809 -0.3510  0.8933  2.2015
 6211SOL    HW324611   2.958   0.338   1.703 -2.6633 -0.0714  2.0029
 6211SOL    MW424612   3.007   0.314   1.772  0.1645 -0.5502 -0.8584
 6212SOL     OW24613   4.128   2.059   5.116  0.3388  0.3080  0.1499
 6212SOL    HW224614   4.200   1.999   5.097  2.7558  2.2492  2.3099
 6212SOL    HW324615   4.134   2.126   5.047  0.1971  0.1684 -0.0001
 6212SOL    MW424616   4.139   2.060   5.104 -0.8191  0.4603 -0.6303
 6213SOL     OW24617   3.399   1.580   6.337  0.1188 -0.0236 -0.5908
 6213SOL    HW224618   3.433   1.652   6.389  1.4567 -0.1489 -1.2680
 6213SOL    HW324619   3.360   1.521   6.402 -0.7814  1.1600 -0.0109
 6213SOL    MW424620   3.398   1.581   6.353  0.4336  0.4031  0.4188
 6214SOL     OW24621   1.902   4.191   0.332  0.1816  0.0377 -0.2466
 6214SOL    HW224622   1.822   4.153   0.296 -0.4873 -0.0736  1.3129
 6214SOL    HW324623   1.917   4.269   0.279 -1.6345  0.7366  0.2099
 6214SOL    MW424624   1.894   4.196   0.320  0.3966 -0.0413 -0.6252
 6215SOL     OW24625   5.058   2.738   2.174 -0.1769 -0.1018 -0.3470
 6215SOL    HW224626   4.979   2.689   2.197 -0.7706  1.5700  1.5415
 6215SOL    HW324627   5.031   2.830   2.180  1.6139  0.4900 -0.8636
 6215SOL    MW424628   5.044   2.744   2.178  0.4059 -0.4988 -0.3748
 6216SOL     OW24629   1.407   2.175   6.208 -0.3913 -0.6328  0.5551
 6216SOL    HW224630   1.450   2.100   6.248 -1.6550 -0.1131  3.0248
 6216SOL    HW324631   1.318   2.146   6.190 -0.2202 -0.4334 -0.7128
 6216SOL    MW424632   1.401   2.161   6.211  0.8419 -0.2586  0.2574
 6217SOL     OW24633   1.486   4.400   4.600  0.4536  0.5757  0.1919
 6217SOL    HW224634   1.396   4.374   4.618  0.5279  0.7040  0.7658
 6217SOL    HW324635   1.533   4.382   4.681  0.8872  0.7651 -0.0152
 6217SOL    MW424636   1.480   4.394   4.613  0.3103 -0.1084 -0.4444
 6218SOL     OW24637   1.306   0.347   4.807 -0.2594  0.0149  0.2582
 6218SOL    HW224638   1.242   0.412   4.779  0.2448  0.6600  0.5808
 6218SOL    HW324639   1.377   0.398   4.846  0.4885 -0.6883 -0.1578
 6218SOL    MW424640   1.306   0.362   4.809  0.3483 -0.5556 -0.0143
 6219SOL     OW24641   0.113   1.303   1.687  0.5771 -0.1328  0.4385
 6219SOL    HW224642   0.163   1.254   1.752  0.2536 -0.4476  0.4539
 6219SOL    HW324643   0.033   1.329   1.733  1.0909  1.1020  0.6756
 6219SOL    MW424644   0.109   1.300   1.701  0.1987  0.1440 -0.4760
 6220SOL     OW24645   0.376   0.958   0.351  0.3235 -0.1699  0.2467
 6220SOL    HW224646   0.360   0.893   0.283 -2.7759 -0.3377  1.0089
 6220SOL    HW324647   0.469   0.978   0.343  0.6019 -2.0068 -2.3690
 6220SOL    MW424648   0.386   0.952   0.341  0.2151  0.5635  0.4759
 6221SOL     OW24649   3.925   5.043   1.525  0.3066  0.4106  0.3041
 6221SOL    HW224650   3.916   5.121   1.470 -0.0412  0.5411  0.5482
 6221SOL    HW324651   3.907   4.970   1.466 -0.0167  0.5484  0.2337
 6221SOL    MW424652   3.922   5.043   1.510 -0.3744 -0.0672 -0.1324
 6222SOL     OW24653   3.207   3.085   0.090  0.0015 -0.6088  0.1237
 6222SOL    HW224654   3.180   3.098  -0.001 -0.2958 -1.3734  0.0963
 6222SOL    HW324655   3.247   2.998   0.090  0.3129 -0.4659  0.6540
 6222SOL    MW424656   3.209   3.076   0.078  0.8074 -0.0665 -0.2912
 6223SOL     OW24657   5.830   0.532   0.657 -0.0806 -0.6336  0.3088
 6223SOL    HW224658   5.822   0.619   0.618  1.6313  0.0172  1.2927
 6223SOL    HW324659   5.897   0.489   0.604  0.1689 -0.7943  0.7544
 6223SOL    MW424660   5.838   0.538   0.645 -0.0043  0.1630 -0.7227
 6224SOL     OW24661   2.901   4.985   5.535  0.4026 -0.0745 -0.1401
 6224SOL    HW224662   2.916   5.060   5.593  1.0610 -0.2308 -0.0934
 6224SOL    HW324663   2.900   4.910   5.594 -3.6072  0.0995  0.3031
 6224SOL    MW424664   2.903   4.985   5.550 -0.7728  0.2428  0.1952
 6225SOL     OW24665   2.467   5.363   0.918 -0.3378  0.0515  0.1715
 6225SOL    HW224666   2.415   5.348   0.840 -0.4273  0.8458  0.0772
 6225SOL    HW324667   2.546   5.311   0.904 -0.2198  0.4254 -0.5770
 6225SOL    MW424668   2.471   5.354   0.906  0.4007 -0.5448 -0.0230
 6226SOL     OW24669   5.012   4.643   2.480  0.2421  0.3775  0.5767
 6226SOL    HW224670   5.036   4.713   2.419 -2.5132  0.8837 -0.0498
 6226SOL    HW324671   4.979   4.689   2.558 -0.8696 -0.1892  0.4636
 6226SOL    MW424672   5.011   4.658   2.483 -0.1897 -0.7740  0.0864
 6227SOL     OW24673   4.945   0.643   4.836  0.3684 -0.4755  0.1455
 6227SOL    HW224674   4.898   0.726   4.834 -0.3242 -0.8409  0.6871
 6227SOL    HW324675   4.980   0.634   4.747  0.2514  0.2803  0.0150
 6227SOL    MW424676   4.943   0.653   4.824 -0.1205  0.3581  0.0565
 6228SOL     OW24677   2.702   4.744   1.718 -0.1046  0.1670 -0.6763
 6228SOL    HW224678   2.774   4.786   1.765 -0.5523 -1.2113  1.3804
 6228SOL    HW324679   2.622   4.781   1.757 -0.4948 -0.6962 -0.6283
 6228SOL    MW424680   2.701   4.754   1.729  0.2346  0.1510  0.0044
 6229SOL     OW24681   3.103   4.432   4.045  0.3364 -0.8109  0.2543
 6229SOL    HW224682   3.073   4.508   4.096  1.5053  0.4620 -0.8799
 6229SOL    HW324683   3.131   4.369   4.111  0.3367  0.1533  1.2181
 6229SOL    MW424684   3.103   4.434   4.061  0.6903  0.3793 -0.2987
 6230SOL     OW24685   2.017   1.743   3.496  0.0950  0.1337  0.3602
 6230SOL    HW224686   2.034   1.695   3.415 -0.8762 -0.7417  0.6496
 6230SOL    HW324687   1.922   1.755   3.497  0.2514  1.6031  0.5787
 6230SOL    MW424688   2.007   1.738   3.485  0.1499 -0.6301 -0.4821
 6231SOL     OW24689   1.009   6.259   3.339  0.2814 -0.2873  0.2713
 6231SOL    HW224690   0.946   6.331   3.345 -0.6426 -0.6891 -3.0089
 6231SOL    HW324691   0.962   6.184   3.376 -1.8023 -0.8384 -3.0642
 6231SOL    MW424692   0.994   6.259   3.345  0.5442  0.1207 -0.0708
 6232SOL     OW24693   5.549   0.766   4.933 -0.2587 -0.7765 -0.2036
 6232SOL    HW224694   5.473   0.711   4.913 -1.2060  0.1394  0.7571
 6232SOL    HW324695   5.531   0.849   4.889  0.4735 -0.7295 -0.4391
 6232SOL    MW424696   5.537   0.770   4.925 -0.0673 -0.3035  0.5581
 6233SOL     OW24697   5.694   4.301   3.161  0.2422  0.6890  0.2526
 6233SOL    HW224698   5.692   4.333   3.071 -0.6786  0.5699  0.2218
 6233SOL    HW324699   5.787   4.303   3.186  0.3909  1.6413 -0.3626
 6233SOL    MW424700   5.706   4.305   3.153 -0.2358  0.3060  0.2767
 6234SOL     OW24701   0.118   2.035   5.411  0.1540 -0.2494 -0.3999
 6234SOL    HW224702   0.068   2.077   5.341  2.3899  0.9101 -1.4208
 6234SOL    HW324703   0.163   2.107   5.455 -0.0303 -1.1193  1.3139
 6234SOL    MW424704   0.117   2.050   5.408  0.5827  0.2435 -0.9640
 6235SOL     OW24705   4.363   5.089   3.208 -0.1927  0.1112  0.2769
 6235SOL    HW224706   4.299   5.027   3.245 -0.5594 -0.7062 -1.5758
 6235SOL    HW324707   4.438   5.035   3.185  0.3630  0.7342  0.6081
 6235SOL    MW424708   4.364   5.074   3.210  0.3238 -0.2173 -0.2226
 6236SOL     OW24709   1.501   1.446   0.274 -0.0279 -0.5671 -0.4357
 6236SOL    HW224710   1.570   1.424   0.338 -0.5494 -0.5640  0.1362
 6236SOL    HW324711   1.528   1.401   0.194  0.3556 -1.0245 -0.0582
 6236SOL    MW424712   1.514   1.437   0.272 -0.0165  0.0169 -0.1422
 6237SOL     OW24713   0.623   1.248   1.779 -0.5573 -0.2284 -0.1609
 6237SOL    HW224714   0.618   1.189   1.854 -0.6039  0.0827  0.0813
 6237SOL    HW324715   0.567   1.206   1.712  0.1656 -0.9421 -0.3339
 6237SOL    MW424716   0.615   1.235   1.780  0.6149  0.2962 -0.2564
 6238SOL     OW24717   4.661   2.550   0.805  0.9186  1.0701 -0.2780
 6238SOL    HW224718   4.592   2.597   0.851  2.6362  0.8164  2.8646
 6238SOL    HW324719   4.674   2.599   0.724 -0.9246  2.8341  0.4127
 6238SOL    MW424720   4.654   2.562   0.801  0.2334  0.3912 -0.1349
 6239SOL     OW24721   5.315   3.135   3.163 -0.0386  0.2675 -0.4719
 6239SOL    HW224722   5.393   3.088   3.132  0.1491  0.1300  0.1878
 6239SOL    HW324723   5.329   3.225   3.136  1.5105  0.7543  1.6923
 6239SOL    MW424724   5.327   3.140   3.155  0.7301 -0.3802  0.0687
 6240SOL     OW24725   2.015   1.330   3.657  0.1809  0.2653  0.4150
 6240SOL    HW224726   1.993   1.245   3.619  1.9593 -0.0231 -0.0597
 6240SOL    HW324727   1.947   1.389   3.625 -0.1218 -0.6292 -0.6602
 6240SOL    MW424728   2.003   1.327   3.648 -0.5647 -0.1609 -0.2246
 6241SOL     OW24729   3.066   1.456   4.228 -0.4770  0.2644  0.3586
 6241SOL    HW224730   3.149   1.471   4.183 -0.1981  1.5628  1.2433
 6241SOL    HW324731   3.089   1.402   4.304 -0.6752 -0.4650 -0.0808
 6241SOL    MW424732   3.080   1.451   4.232  0.4372 -0.2886 -0.4906
 6242SOL     OW24733   5.852   1.397   0.814 -0.2637  0.2673  0.3323
 6242SOL    HW224734   5.930   1.342   0.824 -0.7547 -0.1890  1.8043
 6242SOL    HW324735   5.789   1.361   0.876 -2.2015 -0.2730 -1.8241
 6242SOL    MW424736   5.854   1.385   0.823  0.2633 -0.1133  0.2415
 6243SOL     OW24737   5.885   6.076   1.599 -0.3329  0.2785 -0.1327
 6243SOL    HW224738   5.913   5.995   1.555  2.5293  0.4593  1.1460
 6243SOL    HW324739   5.835   6.046   1.675  0.0686 -0.2658 -0.0765
 6243SOL    MW424740   5.882   6.061   1.603 -0.4015 -0.0596 -0.1785
 6244SOL     OW24741   5.436   3.690   2.742 -0.0891  0.1837 -0.0002
 6244SOL    HW224742   5.470   3.624   2.683  0.5816  0.4880  0.0348
 6244SOL    HW324743   5.511   3.713   2.797 -0.8979 -0.7210  1.5546
 6244SOL    MW424744   5.450   3.684   2.742 -0.4735  0.1904  0.3455
 6245SOL     OW24745   3.178   0.687   4.739 -0.1522 -0.0393  0.8030
 6245SOL    HW224746   3.190   0.681   4.834  0.2850  0.0911  0.7585
 6245SOL    HW324747   3.264   0.713   4.706 -0.2271 -0.3600  0.3454
 6245SOL    MW424748   3.191   0.689   4.747 -0.1289 -0.3044  0.3198
 6246SOL     OW24749   2.846   2.871   0.014  0.3547  0.1875  0.2979
 6246SOL    HW224750   2.826   2.911  -0.071  0.8414  0.0379  0.1049
 6246SOL    HW324751   2.877   2.943   0.068  4.9802 -0.3081 -1.1994
 6246SOL    MW424752   2.848   2.886   0.010 -0.5698  0.1849  0.4748
 6247SOL     OW24753   5.782   3.881   3.586  0.0770  0.0820  0.3126
 6247SOL    HW224754   5.695   3.854   3.616  0.1986 -0.2143  0.4007
 6247SOL    HW324755   5.842   3.830   3.640  0.3036  0.1772  0.1484
 6247SOL    MW424756   5.778   3.871   3.597 -0.0399  0.0662 -0.1373
 6248SOL     OW24757   2.122   3.831   5.322  0.0661  0.4834  0.1969
 6248SOL    HW224758   2.068   3.752   5.328  0.1213  0.2270 -1.8955
 6248SOL    HW324759   2.098   3.870   5.238  0.1658  2.6332  1.1032
 6248SOL    MW424760   2.112   3.826   5.312  0.1196 -0.2649  0.1718
 6249SOL     OW24761   4.693   6.303   0.356  0.2051 -0.0814  0.0515
 6249SOL    HW224762   4.785   6.331   0.352  0.3664 -0.3604  1.2450
 6249SOL    HW324763   4.683   6.267   0.445 -0.9552 -0.4236 -0.1985
 6249SOL    MW424764   4.704   6.302   0.367 -0.1455 -0.0358 -0.0956
 6250SOL     OW24765   6.402   6.239   3.236  0.1554  0.8735  0.0811
 6250SOL    HW224766   6.464   6.169   3.253 -2.9626 -1.8802  1.0413
 6250SOL    HW324767   6.411   6.298   3.312 -0.5722 -1.2507  1.9293
 6250SOL    MW424768   6.412   6.238   3.249 -0.1326 -0.0155  0.3020
 6251SOL     OW24769   3.013   6.360   3.435  0.5984  0.0241  0.5987
 6251SOL    HW224770   3.040   6.318   3.517  1.1096  2.6239  1.8709
 6251SOL    HW324771   2.928   6.399   3.455  0.3425 -0.0251 -0.3829
 6251SOL    MW424772   3.005   6.360   3.449  0.3449 -0.6066 -0.2169
 6252SOL     OW24773   1.259   1.356   0.399  0.4275  0.4138 -0.0083
 6252SOL    HW224774   1.288   1.279   0.447 -1.4727 -0.6113 -0.4270
 6252SOL    HW324775   1.338   1.387   0.353  1.3948 -0.7905  0.7940
 6252SOL    MW424776   1.273   1.350   0.399 -0.4224 -0.4222 -0.1540
 6253SOL     OW24777   2.654   4.767   4.982  0.3409 -0.4932 -0.0783
 6253SOL    HW224778   2.625   4.689   4.933 -2.7364 -0.3174  1.2541
 6253SOL    HW324779   2.654   4.837   4.917  0.4854 -1.0555 -0.7019
 6253SOL    MW424780   2.651   4.766   4.967  0.2959  0.1117  0.0942
 6254SOL     OW24781   3.165   6.256   0.524 -0.3772  0.4107  0.2265
 6254SOL    HW224782   3.197   6.179   0.478  0.4352  1.2717 -0.7230
 6254SOL    HW324783   3.130   6.223   0.606  1.8836 -0.7597  0.8101
 6254SOL    MW424784   3.165   6.242   0.528  0.0117 -0.2292  0.1496
 6255SOL     OW24785   1.595   4.322   4.861  0.0345 -0.2028 -0.1436
 6255SOL    HW224786   1.600   4.227   4.869  1.1387 -0.0347  1.8052
 6255SOL    HW324787   1.503   4.343   4.878 -0.4216 -0.9547 -1.5333
 6255SOL    MW424788   1.583   4.313   4.864  0.3097 -0.1010 -0.4095
 6256SOL     OW24789   4.005   5.345   0.646  0.3036  0.6146  0.2939
 6256SOL    HW224790   4.094   5.313   0.655  0.7605  1.8451  0.4176
 6256SOL    HW324791   3.950   5.273   0.676  1.3162  0.4161  1.7682
 6256SOL    MW424792   4.009   5.331   0.651 -0.0986 -0.0026  0.2133
 6257SOL     OW24793   0.939   4.348   2.935 -0.2041 -0.8596  0.4119
 6257SOL    HW224794   0.874   4.280   2.953 -1.0008 -0.6934 -1.6010
 6257SOL    HW324795   1.012   4.301   2.895 -1.1628 -0.5059 -1.9236
 6257SOL    MW424796   0.940   4.333   2.932  0.3060  0.6454 -0.3606
 6258SOL     OW24797   0.426   5.226   2.493  0.9298 -0.0258  0.0133
 6258SOL    HW224798   0.400   5.137   2.517  0.8551  0.3755  1.5111
 6258SOL    HW324799   0.356   5.281   2.528  1.2139  0.6600 -0.4891
 6258SOL    MW424800   0.413   5.221   2.501 -0.3236  0.0107 -0.0921
 6259SOL     OW24801   3.829   2.900   2.279 -0.5844  0.1381  0.1460
 6259SOL    HW224802   3.869   2.814   2.263 -0.3248  0.3902 -0.6159
 6259SOL    HW324803   3.858   2.925   2.366 -0.0172 -0.1969  0.0537
 6259SOL    MW424804   3.838   2.892   2.288  0.0305  0.5410 -0.1005
 6260SOL     OW24805   5.726   3.942   2.222 -0.2841  0.3874 -0.9169
 6260SOL    HW224806   5.726   3.896   2.306 -0.5457 -1.6765 -1.9766
 6260SOL    HW324807   5.647   3.911   2.177  0.3639  0.6664 -2.3195
 6260SOL    MW424808   5.715   3.932   2.227 -0.0672  0.1460  0.7129
 6261SOL     OW24809   2.642   1.246   0.158 -0.6272 -0.3018 -0.2971
 6261SOL    HW224810   2.643   1.235   0.063  0.0194 -1.0255 -0.2100
 6261SOL    HW324811   2.553   1.222   0.184 -0.5398 -0.9786 -0.6205
 6261SOL    MW424812   2.630   1.241   0.149  0.4865 -0.4322  0.0304
 6262SOL     OW24813   2.286   5.108   3.436 -0.2255 -0.4866 -0.5090
 6262SOL    HW224814   2.361   5.166   3.423 -2.0161  1.7417 -1.4603
 6262SOL    HW324815   2.279   5.060   3.354  0.7366 -1.4777 -0.0380
 6262SOL    MW424816   2.295   5.109   3.423 -0.1253 -0.8368  0.2177
 6263SOL     OW24817   1.173   0.866   6.172 -0.2726  0.0940 -0.1164
 6263SOL    HW224818   1.116   0.830   6.240 -0.2289  0.8503  0.3325
 6263SOL    HW324819   1.163   0.961   6.180  0.1570  0.2047 -0.8051
 6263SOL    MW424820   1.164   0.874   6.182 -0.2208  0.2007 -0.2301
 6264SOL     OW24821   4.070   5.950   4.142 -0.1608 -0.1355  0.0190
 6264SOL    HW224822   4.092   6.027   4.090 -1.2090 -0.8914 -1.6538
 6264SOL    HW324823   4.136   5.948   4.211 -0.5031  2.6095  0.5385
 6264SOL    MW424824   4.082   5.960   4.144 -0.5364 -0.6353  0.6201
 6265SOL     OW24825   5.703   4.996   0.073 -0.2130  0.1339  0.3537
 6265SOL    HW224826   5.622   4.955   0.043  0.8422 -0.9571 -1.1179
 6265SOL    HW324827   5.689   5.090   0.062 -0.3761 -0.1512 -2.3914
 6265SOL    MW424828   5.691   5.003   0.068 -0.1936  0.3855 -0.0776
 6266SOL     OW24829   0.485   6.171   2.436  0.5906 -0.0902 -0.7071
 6266SOL    HW224830   0.529   6.251   2.465 -1.8186  0.9650  0.3278
 6266SOL    HW324831   0.398   6.176   2.476  0.2159 -3.0525 -0.9595
 6266SOL    MW424832   0.479   6.182   2.445  0.7053  0.0403  0.4956
 6267SOL     OW24833   5.066   4.192   3.750 -0.3210  0.1570 -0.1444
 6267SOL    HW224834   4.996   4.256   3.766  0.3463  0.7651  0.4057
 6267SOL    HW324835   5.096   4.167   3.837  2.8697  2.9703 -0.2548
 6267SOL    MW424836   5.061   4.197   3.764  0.4593  0.2649  0.3845
 6268SOL     OW24837   3.776   6.410   4.138  0.2534  0.1879  0.2658
 6268SOL    HW224838   3.817   6.325   4.155 -1.8454 -1.2879 -1.3606
 6268SOL    HW324839   3.766   6.412   4.043  0.4128  2.3730  0.2664
 6268SOL    MW424840   3.780   6.399   4.128 -0.1361  0.4978  0.3206
 6269SOL     OW24841   4.359   1.893   6.087  0.2133 -0.0906 -0.1094
 6269SOL    HW224842   4.398   1.809   6.113 -0.7498 -0.6131 -0.3022
 6269SOL    HW324843   4.283   1.903   6.144 -1.3615 -0.7800 -1.9763
 6269SOL    MW424844   4.354   1.883   6.098  0.4557 -0.4989 -0.2956
 6270SOL     OW24845   5.239   3.162   0.609 -0.3157 -0.3752 -0.4722
 6270SOL    HW224846   5.329   3.134   0.629  0.7539  2.2648 -1.0888
 6270SOL    HW324847   5.235   3.159   0.513 -0.3834  0.7731 -0.5207
 6270SOL    MW424848   5.251   3.158   0.599 -0.0252 -0.0700 -0.0085
 6271SOL     OW24849   2.842   4.078   2.033 -0.0580  0.2884 -0.0258
 6271SOL    HW224850   2.767   4.030   1.997 -0.6802  0.9154  0.4010
 6271SOL    HW324851   2.913   4.060   1.972 -0.5042 -0.4648 -0.3486
 6271SOL    MW424852   2.841   4.069   2.020  0.0155 -1.0788  0.5350
 6272SOL     OW24853   3.607   5.427   4.794 -0.0831 -0.0441 -0.4355
 6272SOL    HW224854   3.565   5.359   4.847  0.7100  0.6678  1.1781
 6272SOL    HW324855   3.692   5.391   4.771 -0.7198 -0.6632 -1.9516
 6272SOL    MW424856   3.613   5.413   4.798  0.3382  0.4134  0.1935
 6273SOL     OW24857   1.457   2.858   0.525  0.1582  0.1991 -0.4932
 6273SOL    HW224858   1.445   2.951   0.506 -1.4740 -0.0305 -0.7028
 6273SOL    HW324859   1.531   2.832   0.470  1.2424  1.5582  0.2638
 6273SOL    MW424860   1.465   2.866   0.515 -0.1796 -0.0978  0.2047
 6274SOL     OW24861   0.222   1.140   4.969 -0.2249  0.0986  0.0575
 6274SOL    HW224862   0.154   1.146   5.036 -1.5360 -0.4130 -1.1865
 6274SOL    HW324863   0.175   1.120   4.888  1.4781 -1.0515 -0.7048
 6274SOL    MW424864   0.207   1.139   4.967 -0.4357 -0.2400  0.6425
 6275SOL     OW24865   3.801   1.037   1.343  1.5641  0.4255 -0.0507
 6275SOL    HW224866   3.713   1.064   1.369  0.7549 -1.3232 -0.8187
 6275SOL    HW324867   3.841   1.003   1.423  0.5186 -1.3110 -0.2363
 6275SOL    MW424868   3.795   1.036   1.357 -0.0395 -0.0747  0.4738
 6276SOL     OW24869   2.946   3.479   1.440  0.2971 -0.0721  0.2651
 6276SOL    HW224870   2.966   3.465   1.348  0.4276  0.0806  0.2694
 6276SOL    HW324871   2.916   3.394   1.472 -1.2948  0.2417 -0.2950
 6276SOL    MW424872   2.945   3.466   1.432  0.3223  0.2398 -0.2398
 6277SOL     OW24873   3.220   2.727   1.970  0.4661 -0.4862 -0.2506
 6277SOL    HW224874   3.266   2.672   2.034 -0.7964 -2.2695 -0.7698
 6277SOL    HW324875   3.157   2.667   1.929 -1.8580  1.6574 -0.0253
 6277SOL    MW424876   3.218   2.712   1.973 -0.4476  0.4729  0.0890
 6278SOL     OW24877   1.648   1.081   3.113  0.1216 -0.4404 -0.1077
 6278SOL    HW224878   1.631   1.166   3.153  0.2082  0.6242 -2.2082
 6278SOL    HW324879   1.742   1.079   3.098 -0.0291 -0.3903 -1.1269
 6278SOL    MW424880   1.658   1.092   3.116  0.6839 -0.2719 -0.7740
 6279SOL     OW24881   1.717   0.902   5.658  0.5560  0.3229 -0.4137
 6279SOL    HW224882   1.756   0.819   5.629  0.3171  0.4708 -1.1673
 6279SOL    HW324883   1.774   0.969   5.621  1.2844  0.4977  0.9644
 6279SOL    MW424884   1.730   0.900   5.649 -0.1999  0.0801  0.4282
 6280SOL     OW24885   3.513   1.741   1.767  0.2090  0.1871 -0.2517
 6280SOL    HW224886   3.467   1.690   1.700  0.8008 -0.2907 -0.3045
 6280SOL    HW324887   3.605   1.738   1.740  0.1574  2.0850 -0.7749
 6280SOL    MW424888   3.519   1.734   1.755  0.1590 -0.3482 -0.0520
 6281SOL     OW24889   6.344   3.449   4.129  0.9156 -0.6758  0.4438
 6281SOL    HW224890   6.280   3.393   4.173  0.6603 -0.9200 -0.2359
 6281SOL    HW324891   6.349   3.415   4.040  0.6213  0.4965 -0.0419
 6281SOL    MW424892   6.336   3.437   4.123 -0.1863  0.2976 -0.5477
 6282SOL     OW24893   1.745   0.498   4.692 -0.0302  0.2814 -0.5523
 6282SOL    HW224894   1.822   0.536   4.733 -0.3866 -0.5182  0.9277
 6282SOL    HW324895   1.671   0.536   4.738 -0.4548 -0.4112 -0.6374
 6282SOL    MW424896   1.745   0.508   4.703 -0.0608 -0.6260 -0.5053
 6283SOL     OW24897   5.659   3.630   0.434 -0.1681  0.4314 -0.4686
 6283SOL    HW224898   5.650   3.621   0.339 -1.7397 -0.0272 -0.3082
 6283SOL    HW324899   5.741   3.679   0.446  0.2939  0.1106 -2.0283
 6283SOL    MW424900   5.669   3.635   0.423 -0.0029 -0.0123  0.1742
 6284SOL     OW24901   5.629   6.265   4.304 -0.1235 -0.1258 -0.1271
 6284SOL    HW224902   5.619   6.252   4.398 -0.7984  0.3526 -0.1264
 6284SOL    HW324903   5.541   6.252   4.268  0.0826 -0.0746 -0.6582
 6284SOL    MW424904   5.616   6.262   4.312  0.3796  0.1693  0.4152
 6285SOL     OW24905   5.065   4.571   1.051 -0.2246 -1.7633 -0.7527
 6285SOL    HW224906   4.973   4.573   1.023 -0.4427 -1.1272 -0.0490
 6285SOL    HW324907   5.070   4.496   1.110 -0.0464 -2.3863 -1.5373
 6285SOL    MW424908   5.053   4.562   1.055 -0.4784  0.1156 -0.5507
 6286SOL     OW24909   6.070   2.536   4.958  0.1203 -0.2002  0.3737
 6286SOL    HW224910   6.101   2.529   5.049  0.1887 -1.0669  0.2952
 6286SOL    HW324911   6.082   2.448   4.922  1.5710  0.4998 -0.9683
 6286SOL    MW424912   6.076   2.523   4.965 -0.7765 -0.0967 -0.5360
 6287SOL     OW24913   5.175   1.236   4.293 -0.7220  0.2659  0.5243
 6287SOL    HW224914   5.085   1.263   4.310 -0.3119  1.2992  1.1481
 6287SOL    HW324915   5.170   1.184   4.213 -1.9645 -0.2694  0.9392
 6287SOL    MW424916   5.163   1.233   4.285  0.4980 -0.2135  0.8615
 6288SOL     OW24917   1.095   4.122   3.759  0.5204  0.0872 -0.0974
 6288SOL    HW224918   1.008   4.152   3.732  0.2408 -0.9101 -0.3455
 6288SOL    HW324919   1.100   4.147   3.852  0.6501  1.6264 -0.4830
 6288SOL    MW424920   1.084   4.129   3.768  0.3605 -0.1962  0.0965
 6289SOL     OW24921   2.483   5.415   5.492 -0.1139 -0.1320  0.2386
 6289SOL    HW224922   2.438   5.420   5.408  0.0167  1.3331  0.2320
 6289SOL    HW324923   2.571   5.447   5.474  0.7382 -2.2183  0.4193
 6289SOL    MW424924   2.489   5.420   5.479  0.0162 -0.4415  0.0974
 6290SOL     OW24925   3.772   4.726   2.788  0.1034  0.0200  0.2816
 6290SOL    HW224926   3.703   4.697   2.848 -1.0704  1.2487 -0.4248
 6290SOL    HW324927   3.725   4.756   2.710  1.5923 -3.1452 -2.0769
 6290SOL    MW424928   3.757   4.726   2.786  0.2860  0.0184  0.4118
 6291SOL     OW24929   1.680   5.174   2.426  0.1552  0.1788  0.1860
 6291SOL    HW224930   1.683   5.253   2.371 -0.8791 -0.4051 -0.7301
 6291SOL    HW324931   1.751   5.119   2.392 -1.5449 -0.9255 -1.7862
 6291SOL    MW424932   1.690   5.178   2.414  0.4804  0.1323 -0.0698
 6292SOL     OW24933   1.429   4.631   2.701 -0.3914 -0.1151 -0.0590
 6292SOL    HW224934   1.402   4.587   2.621 -3.2370 -1.5083  1.5194
 6292SOL    HW324935   1.514   4.592   2.723 -0.7824 -1.5841 -1.0505
 6292SOL    MW424936   1.437   4.620   2.693 -0.7865 -0.1247 -0.1690
 6293SOL     OW24937   0.326   1.558   4.798 -0.3387 -0.0865  0.1654
 6293SOL    HW224938   0.236   1.525   4.802 -0.0671 -0.8223  0.4854
 6293SOL    HW324939   0.319   1.641   4.751 -1.3019  0.2855  0.9198
 6293SOL    MW424940   0.313   1.564   4.792 -0.1450  0.4232 -0.3808
 6294SOL     OW24941   1.444   5.139   3.892 -0.7762 -0.4072  0.7069
 6294SOL    HW224942   1.484   5.172   3.812  0.5593  0.0679  1.5347
 6294SOL    HW324943   1.510   5.081   3.929 -1.6029 -1.0534  1.1918
 6294SOL    MW424944   1.458   5.136   3.886  0.8140 -0.1923 -0.4001
 6295SOL     OW24945   4.497   5.608   5.732 -0.2332  0.8518 -0.6673
 6295SOL    HW224946   4.525   5.528   5.778 -1.2030  1.5652  1.2498
 6295SOL    HW324947   4.578   5.659   5.723  0.0985  0.3777 -0.4445
 6295SOL    MW424948   4.512   5.604   5.737  0.2302  0.8716 -0.4506
 6296SOL     OW24949   4.924   5.250   1.959  0.2576 -0.0076  0.4614
 6296SOL    HW224950   4.946   5.311   1.888  0.6445 -0.2898  0.3379
 6296SOL    HW324951   4.872   5.182   1.917  0.3715 -0.1032  0.4748
 6296SOL    MW424952   4.920   5.249   1.944  0.1223 -0.9092 -0.0116
 6297SOL     OW24953   6.046   3.445   3.365  0.0841 -0.6149  0.3834
 6297SOL    HW224954   6.002   3.362   3.384 -1.0453 -0.5365 -1.5509
 6297SOL    HW324955   6.138   3.421   3.356 -0.4353 -2.1060 -1.9752
 6297SOL    MW424956   6.052   3.431   3.366  0.3288  0.4761  0.2825
 6298SOL     OW24957   3.727   6.003   1.898 -0.3814 -0.0088 -0.6889
 6298SOL    HW224958   3.698   6.052   1.822 -1.6081  1.8424  0.8983
 6298SOL    HW324959   3.650   5.953   1.925  0.2080 -1.0886 -0.9523
 6298SOL    MW424960   3.713   6.003   1.891 -0.0774  0.3342  0.5567
 6299SOL     OW24961   4.750   2.475   1.829 -0.1875 -0.2594  0.0785
 6299SOL    HW224962   4.730   2.566   1.849 -0.9899 -0.5614  0.7311
 6299SOL    HW324963   4.834   2.459   1.871 -1.0356 -0.3883  1.8452
 6299SOL    MW424964   4.758   2.485   1.837 -0.0634 -0.2487  0.5544
 6300SOL     OW24965   2.213   4.711   4.032  0.1441 -0.2429 -0.2091
 6300SOL    HW224966   2.136   4.722   3.975  0.6125  0.9289 -0.6518
 6300SOL    HW324967   2.268   4.647   3.986  0.6688  0.9288 -1.2814
 6300SOL    MW424968   2.210   4.704   4.018 -0.5549  0.2655  0.2650
 6301SOL     OW24969   5.345   1.781   4.903  0.5531  0.6593  0.1986
 6301SOL    HW224970   5.318   1.843   4.835  2.2253 -1.3172 -2.4838
 6301SOL    HW324971   5.264   1.737   4.928 -0.2138  1.9372  0.0610
 6301SOL    MW424972   5.331   1.783   4.897 -0.1562  0.1117  0.9071
 6302SOL     OW24973   1.263   2.596   5.622 -0.1084 -0.1724 -0.0427
 6302SOL    HW224974   1.350   2.634   5.609 -0.2443 -0.2428 -1.2277
 6302SOL    HW324975   1.204   2.672   5.620 -0.3928 -0.3875 -2.5282
 6302SOL    MW424976   1.267   2.611   5.620  0.1628 -0.1724 -0.2523
 6303SOL     OW24977   0.765   3.934   4.952  0.0770  0.0485  0.5577
 6303SOL    HW224978   0.717   3.871   5.006  1.4484 -0.5899  1.0753
 6303SOL    HW324979   0.705   4.009   4.943 -1.5670 -1.2626 -0.0149
 6303SOL    MW424980   0.751   3.936   4.958  0.8813 -0.3571 -0.0958
 6304SOL     OW24981   0.440   1.349   4.962  0.1610  0.5247 -0.1922
 6304SOL    HW224982   0.384   1.272   4.972 -0.4729  1.0066  0.0333
 6304SOL    HW324983   0.397   1.402   4.895 -1.6284  2.5654  2.3204
 6304SOL    MW424984   0.427   1.346   4.955  0.2244 -0.5985 -0.5431
 6305SOL     OW24985   5.445   0.177   5.441  0.8320 -0.5638 -0.1327
 6305SOL    HW224986   5.445   0.215   5.353  1.7676 -0.5877 -0.1619
 6305SOL    HW324987   5.358   0.140   5.452  0.4797  0.0523 -0.7801
 6305SOL    MW424988   5.434   0.177   5.431  0.4524 -0.0937 -0.0302
 6306SOL     OW24989   3.280   3.051   3.043  0.1375 -0.1232  0.0276
 6306SOL    HW224990   3.240   3.124   2.996 -0.4885 -1.2526 -1.2377
 6306SOL    HW324991   3.254   3.064   3.134 -2.2716 -0.2402 -0.5836
 6306SOL    MW424992   3.272   3.062   3.049 -0.5629  0.3855 -0.5876
 6307SOL     OW24993   1.691   2.207   5.221  0.3745 -0.3814  0.2437
 6307SOL    HW224994   1.735   2.130   5.255  0.3163 -0.8691 -0.7360
 6307SOL    HW324995   1.631   2.173   5.154  0.4859  0.5203 -0.3360
 6307SOL    MW424996   1.689   2.192   5.216  0.1294 -0.5320  0.0837
 6308SOL     OW24997   3.437   1.677   2.600  0.6294 -0.1830  0.1914
 6308SOL    HW224998   3.502   1.640   2.660  1.3502 -0.6135 -0.8295
 6308SOL    HW324999   3.446   1.772   2.611 -0.0267 -0.2511  1.5556
 6308SOL    MW425000   3.447   1.685   2.609 -0.6341 -0.4274 -0.2100
 6309SOL     OW25001   5.692   5.285   5.006  0.3416 -0.7764 -0.1797
 6309SOL    HW225002   5.644   5.202   5.011  0.6345 -0.8676  1.5009
 6309SOL    HW325003   5.625   5.352   5.020  0.4944 -0.8651  1.1339
 6309SOL    MW425004   5.677   5.282   5.008  0.2829  0.4774 -0.1230
 6310SOL     OW25005   1.785   5.752   1.946  0.2194  0.8018  0.2120
 6310SOL    HW225006   1.866   5.706   1.969 -0.1741 -0.3171 -0.5613
 6310SOL    HW325007   1.808   5.801   1.867  0.0476  0.1360 -0.2650
 6310SOL    MW425008   1.799   5.752   1.938  0.4103 -0.1392  0.6914
 6311SOL     OW25009   0.997   0.490   6.355 -0.2233 -0.1801  0.7212
 6311SOL    HW225010   0.922   0.431   6.357 -0.5741  0.2651  0.8197
 6311SOL    HW325011   0.973   0.562   6.414  0.1538  0.1120  0.5225
 6311SOL    MW425012   0.984   0.492   6.363 -0.1689 -0.2993  0.2123
 6312SOL     OW25013   1.670   1.078   0.075  0.2557 -0.0770 -0.1111
 6312SOL    HW225014   1.666   1.073   0.171  1.0570 -0.4291 -0.0861
 6312SOL    HW325015   1.739   1.141   0.058  2.3489 -2.3155 -0.4306
 6312SOL    MW425016   1.678   1.085   0.085  0.3422  0.1922  0.6676
 6313SOL     OW25017   2.494   2.050   1.666 -0.3565  0.3364 -0.6946
 6313SOL    HW225018   2.491   2.142   1.691 -1.4841  0.1405 -0.0772
 6313SOL    HW325019   2.403   2.023   1.661 -0.0409 -0.7185 -1.0027
 6313SOL    MW425020   2.482   2.059   1.669 -0.1846 -0.2588 -0.2920
 6314SOL     OW25021   1.399   1.906   1.977  0.0872  0.2507 -0.7115
 6314SOL    HW225022   1.406   1.843   2.048  0.8203  1.0941 -0.0120
 6314SOL    HW325023   1.414   1.854   1.898 -1.6415 -0.8677 -0.3654
 6314SOL    MW425024   1.402   1.891   1.976 -0.2251  0.4190  0.1133
 6315SOL     OW25025   0.906   4.717   4.350  0.5237  0.0667  0.2410
 6315SOL    HW225026   0.875   4.798   4.309  0.1344 -0.1854  0.0306
 6315SOL    HW325027   0.916   4.740   4.442 -1.7213 -0.2300  0.6100
 6315SOL    MW425028   0.903   4.731   4.357 -0.1099 -0.5482  0.4726
 6316SOL     OW25029   3.284   4.202   2.519 -0.3745  0.0374  0.1084
 6316SOL    HW225030   3.350   4.256   2.475  0.0578 -0.6426 -0.0828
 6316SOL    HW325031   3.278   4.238   2.608  0.5239 -0.1352  0.2415
 6316SOL    MW425032   3.292   4.214   2.525  0.0052 -0.2039  0.1971
 6317SOL     OW25033   4.259   0.364   2.453 -0.1409  0.3379 -0.3085
 6317SOL    HW225034   4.176   0.401   2.482  0.5064  0.1591  1.9719
 6317SOL    HW325035   4.254   0.364   2.358 -2.4737  0.9392 -0.2312
 6317SOL    MW425036   4.247   0.369   2.445  0.4729 -0.4143  0.2851
 6318SOL     OW25037   1.449   3.675   3.989  0.3961  0.4481  0.3629
 6318SOL    HW225038   1.526   3.621   3.972  0.0866 -0.2284  1.0505
 6318SOL    HW325039   1.420   3.703   3.903 -0.9541 -2.6177 -0.3231
 6318SOL    MW425040   1.456   3.671   3.976 -0.0864 -0.4759 -0.4393
 6319SOL     OW25041   3.416   2.160   1.374  0.3601  0.0227 -0.1974
 6319SOL    HW225042   3.472   2.082   1.378  1.5669  0.9048  1.3857
 6319SOL    HW325043   3.445   2.206   1.295  1.9202  0.4650  0.5949
 6319SOL    MW425044   3.428   2.156   1.364 -0.0585 -0.2968 -0.0736
 6320SOL     OW25045   2.256   1.909   1.700 -0.6378  0.0959 -0.3687
 6320SOL    HW225046   2.222   1.842   1.759  1.7656 -0.9197 -0.0301
 6320SOL    HW325047   2.285   1.861   1.623  1.5625  0.5975  0.0759
 6320SOL    MW425048   2.255   1.894   1.698  0.5572 -0.1735  0.4800
 6321SOL     OW25049   0.043   5.686   4.073  0.0534  0.0016  0.6581
 6321SOL    HW225050   0.113   5.629   4.042  0.0619  0.6058 -0.4763
 6321SOL    HW325051   0.066   5.705   4.164  1.0517 -0.2730  0.4756
 6321SOL    MW425052   0.055   5.681   4.081 -0.2001 -0.2818 -0.2909
 6322SOL     OW25053   4.421   5.161   4.688 -0.0077  0.3989 -0.1153
 6322SOL    HW225054   4.355   5.165   4.757  2.2375 -0.5815  2.2983
 6322SOL    HW325055   4.492   5.217   4.720  1.5179 -0.8724 -1.1100
 6322SOL    MW425056   4.422   5.169   4.701 -0.0229 -0.5256  0.4172
 6323SOL     OW25057   2.717   3.310   5.200 -0.2206 -0.5493  0.3905
 6323SOL    HW225058   2.651   3.350   5.256  0.0909 -0.4951  0.7267
 6323SOL    HW325059   2.668   3.254   5.141 -0.8095  1.3535 -1.0221
 6323SOL    MW425060   2.702   3.308   5.199  0.3722  0.0702  0.2548
 6324SOL     OW25061   1.632   1.895   0.900  0.3084 -0.0519  0.6474
 6324SOL    HW225062   1.665   1.889   0.990 -0.3888  0.4606  0.9395
 6324SOL    HW325063   1.682   1.967   0.862 -0.2407  0.5216  0.9961
 6324SOL    MW425064   1.643   1.904   0.907  0.4895 -0.0580  0.4813
 6325SOL     OW25065   3.644   3.944   5.434  0.1040  0.5638  0.1304
 6325SOL    HW225066   3.690   3.865   5.407 -1.7481 -0.5596  0.0617
 6325SOL    HW325067   3.651   3.945   5.529 -0.1140  0.1568  0.1497
 6325SOL    MW425068   3.651   3.934   5.443  0.0909  0.1366 -0.2459
 6326SOL     OW25069   1.379   2.925   1.868 -0.5862  0.2428 -0.2381
 6326SOL    HW225070   1.379   2.900   1.776  0.4852  1.1202 -0.4944
 6326SOL    HW325071   1.342   3.013   1.869  2.3421  1.5944 -0.2913
 6326SOL    MW425072   1.374   2.933   1.856  0.2434 -0.1561 -0.4435
 6327SOL     OW25073   0.150   3.062   3.681  0.2850 -0.2244 -0.1503
 6327SOL    HW225074   0.196   3.044   3.599  1.2329  1.4317 -0.0342
 6327SOL    HW325075   0.203   3.130   3.724 -1.3450  0.4950  0.8191
 6327SOL    MW425076   0.163   3.069   3.676 -0.1134  0.3743  0.4063
 6328SOL     OW25077   2.677   4.236   3.720 -0.2627 -1.2352  0.0384
 6328SOL    HW225078   2.720   4.233   3.805  1.1565 -0.3733 -0.6068
 6328SOL    HW325079   2.749   4.241   3.657 -1.3005 -0.5493 -1.1483
 6328SOL    MW425080   2.692   4.236   3.723 -0.0526 -0.1826 -0.2235
 6329SOL     OW25081   5.773   4.465   4.402  0.0019  0.2455  0.3758
 6329SOL    HW225082   5.688   4.500   4.375 -0.1104 -0.0671  0.3133
 6329SOL    HW325083   5.778   4.485   4.495 -0.2590  0.0338  0.4373
 6329SOL    MW425084   5.762   4.472   4.411 -0.6061  0.1934 -0.2685
 6330SOL     OW25085   5.580   0.760   1.547 -0.3051 -0.2316  0.4843
 6330SOL    HW225086   5.607   0.750   1.456  0.7587  2.1486  0.4807
 6330SOL    HW325087   5.494   0.718   1.551  0.7152 -2.6728 -0.9434
 6330SOL    MW425088   5.572   0.753   1.535 -0.1878 -0.3491 -0.3678
 6331SOL     OW25089   2.208   3.954   2.922  0.1565 -0.3440 -0.2453
 6331SOL    HW225090   2.216   4.038   2.877 -1.2037  0.3218  0.6851
 6331SOL    HW325091   2.285   3.950   2.979  0.6781 -0.1483 -0.9167
 6331SOL    MW425092   2.219   3.964   2.924  0.5083 -0.1001 -0.2879
 6332SOL     OW25093   5.520   0.634   0.036 -0.0422 -0.3919 -0.0694
 6332SOL    HW225094   5.463   0.696  -0.011  0.1352 -1.2606 -1.4629
 6332SOL    HW325095   5.516   0.664   0.127 -1.0826  0.8164 -0.4725
 6332SOL    MW425096   5.512   0.646   0.042  0.2523 -0.6370  0.0322
 6333SOL     OW25097   1.166   0.598   5.315 -0.2328 -0.0366  0.1447
 6333SOL    HW225098   1.230   0.648   5.366  0.0824 -0.4298  0.1312
 6333SOL    HW325099   1.214   0.569   5.238 -1.0291  1.6516 -1.0637
 6333SOL    MW425100   1.181   0.601   5.312  0.1194 -0.0481 -0.1456
 6334SOL     OW25101   4.742   4.926   2.111  0.2179  0.1925 -0.1920
 6334SOL    HW225102   4.734   4.997   2.176  0.1225  0.0856 -0.0866
 6334SOL    HW325103   4.707   4.963   2.031  1.8197  0.8903 -0.6187
 6334SOL    MW425104   4.736   4.940   2.109 -0.4433  0.3711  0.1036
 6335SOL     OW25105   3.251   1.396   0.085 -0.1045 -0.3110  0.0826
 6335SOL    HW225106   3.239   1.335   0.012 -1.6330 -0.0004  0.0385
 6335SOL    HW325107   3.283   1.342   0.157  0.8157 -0.7342 -0.6134
 6335SOL    MW425108   3.254   1.381   0.085 -0.1020 -0.5594  0.0480
 6336SOL     OW25109   1.783   5.190   3.544 -0.3392  0.5512  0.5419
 6336SOL    HW225110   1.811   5.196   3.452 -0.5460 -1.1428  0.3332
 6336SOL    HW325111   1.823   5.266   3.586  3.1630 -0.7256 -0.1104
 6336SOL    MW425112   1.792   5.201   3.537 -0.4953  0.0759  0.2812
 6337SOL     OW25113   4.574   2.595   4.023 -0.2751  0.0078  0.0787
 6337SOL    HW225114   4.580   2.555   4.109  0.2047 -1.3878 -0.5676
 6337SOL    HW325115   4.486   2.576   3.993 -0.4615  0.5432  0.2660
 6337SOL    MW425116   4.563   2.588   4.030  0.4123 -0.3648 -0.1545
 6338SOL     OW25117   0.987   0.719   5.472  0.0834  0.4595  0.1974
 6338SOL    HW225118   1.050   0.671   5.418 -2.0042 -2.1986 -0.0903
 6338SOL    HW325119   0.943   0.778   5.411 -0.4611 -0.6412 -0.5074
 6338SOL    MW425120   0.989   0.720   5.457  0.5975 -0.1188  0.0139
 6339SOL     OW25121   0.306   6.354   4.171 -0.3025  0.0673 -0.1376
 6339SOL    HW225122   0.249   6.278   4.183  2.5391 -2.0414  1.1437
 6339SOL    HW325123   0.319   6.387   4.260  2.8770 -1.4914  0.0823
 6339SOL    MW425124   0.300   6.348   4.185 -0.1475 -0.2831 -0.3226
 6340SOL     OW25125   4.458   6.325   3.711  0.4322  0.4136 -0.1274
 6340SOL    HW225126   4.461   6.420   3.710  2.1425  0.4439  1.4331
 6340SOL    HW325127   4.375   6.304   3.754 -0.3650  1.1541 -1.2715
 6340SOL    MW425128   4.447   6.335   3.717  0.3073 -0.0721  0.2176
 6341SOL     OW25129   1.974   4.806   3.768  0.3933 -0.7383 -0.2995
 6341SOL    HW225130   2.054   4.831   3.721  0.4859 -0.8969 -0.2286
 6341SOL    HW325131   1.964   4.713   3.749 -0.0287 -0.6185 -0.6790
 6341SOL    MW425132   1.983   4.797   3.759 -0.2385 -0.3219  0.7370
 6342SOL     OW25133   1.678   0.860   2.291  0.6222  0.0840  0.5070
 6342SOL    HW225134   1.658   0.896   2.204 -0.5644 -0.8985  0.3628
 6342SOL    HW325135   1.714   0.935   2.339 -0.3772  1.1021 -0.2645
 6342SOL    MW425136   1.680   0.875   2.286  0.3424  0.6981  0.5455
 6343SOL     OW25137   0.635   3.909   4.001  0.6247  0.0722 -0.4209
 6343SOL    HW225138   0.643   3.987   4.057 -0.1842 -0.0379 -0.1366
 6343SOL    HW325139   0.541   3.904   3.981  0.6463 -0.9134 -0.3085
 6343SOL    MW425140   0.624   3.919   4.006  0.1946  0.1611  0.1284
 6344SOL     OW25141   5.788   0.564   6.354 -0.2121  0.1288  0.0668
 6344SOL    HW225142   5.702   0.591   6.387 -0.6698  2.0695 -2.4431
 6344SOL    HW325143   5.769   0.492   6.294 -0.0450  0.3305 -0.2284
 6344SOL    MW425144   5.774   0.558   6.351 -0.3837 -0.0722 -0.1164
 6345SOL     OW25145   0.840   5.161   1.217  0.2593  0.6194  0.4371
 6345SOL    HW225146   0.857   5.092   1.153  2.5652  1.2056  0.3257
 6345SOL    HW325147   0.746   5.177   1.212  0.1232 -0.5953 -1.5044
 6345SOL    MW425148   0.830   5.154   1.208 -0.0216  0.2494 -0.5939
 6346SOL     OW25149   1.431   2.086   2.626 -0.1922  0.0645 -0.2286
 6346SOL    HW225150   1.440   2.172   2.667  0.2046 -0.4333  0.7630
 6346SOL    HW325151   1.406   2.028   2.698  0.3448 -0.8032 -0.7308
 6346SOL    MW425152   1.429   2.090   2.641  0.3661  0.4140  0.0544
 6347SOL     OW25153   5.401   3.248   1.129 -0.1454 -0.6819 -0.1529
 6347SOL    HW225154   5.477   3.191   1.115 -1.2826 -2.7815  1.6422
 6347SOL    HW325155   5.328   3.203   1.087 -1.1712 -0.9304  1.7451
 6347SOL    MW425156   5.402   3.235   1.122 -0.3224 -0.0217  0.3944
 6348SOL     OW25157   4.287   5.383   2.092  0.0232  0.3177 -0.0607
 6348SOL    HW225158   4.221   5.337   2.039 -2.8653  1.6788  2.0341
 6348SOL    HW325159   4.273   5.476   2.073 -0.0105  0.7449  1.8066
 6348SOL    MW425160   4.276   5.389   2.083  0.3057  0.4763 -0.0401
 6349SOL     OW25161   5.828   5.165   2.731  0.0515  1.1401  0.2922
 6349SOL    HW225162   5.836   5.196   2.640 -0.0839 -1.0017 -0.4949
 6349SOL    HW325163   5.906   5.112   2.745 -1.9839 -2.2268 -0.1600
 6349SOL    MW425164   5.839   5.162   2.720  0.1974  0.1433 -0.7124
 6350SOL     OW25165   3.980   0.498   1.040  0.2751 -0.9117  0.1727
 6350SOL    HW225166   3.922   0.559   0.994  2.8408  2.1737  0.6323
 6350SOL    HW325167   3.923   0.453   1.102 -1.8370  1.1054 -0.1532
 6350SOL    MW425168   3.965   0.500   1.042  0.1809 -0.2132 -0.0624
 6351SOL     OW25169   0.080   6.173   4.219 -0.0867 -0.3633  0.2518
 6351SOL    HW225170   0.103   6.123   4.297 -0.5870 -0.4349  0.3568
 6351SOL    HW325171   0.079   6.108   4.148 -0.6957 -0.4939  0.3805
 6351SOL    MW425172   0.083   6.158   4.220  0.4083  0.3495 -0.4540
 6352SOL     OW25173   5.450   3.484   0.941 -0.1826  0.5288  0.3604
 6352SOL    HW225174   5.388   3.429   0.893  0.5678 -1.0688  1.1386
 6352SOL    HW325175   5.448   3.450   1.030 -0.3877  2.4225  1.1367
 6352SOL    MW425176   5.441   3.472   0.947  0.2867 -0.0273 -0.2500
 6353SOL     OW25177   6.401   2.849   0.816  0.5731  0.1290  0.2150
 6353SOL    HW225178   6.469   2.828   0.880  0.4571 -0.7914  0.0501
 6353SOL    HW325179   6.441   2.832   0.731  0.4202  0.4361  0.0785
 6353SOL    MW425180   6.415   2.844   0.813 -0.6695 -0.7325  0.3687
 6354SOL     OW25181   2.999   5.483   6.204 -0.2282 -0.2829  0.1417
 6354SOL    HW225182   3.017   5.543   6.276 -1.3670 -0.3641  0.4990
 6354SOL    HW325183   2.924   5.432   6.233 -0.5523 -0.4765 -1.0085
 6354SOL    MW425184   2.992   5.484   6.217 -0.5075  0.0375  0.2110
 6355SOL     OW25185   0.501   6.015   5.280 -0.0089  0.0239 -0.3752
 6355SOL    HW225186   0.535   6.007   5.190  0.0524 -1.8236 -0.2270
 6355SOL    HW325187   0.406   6.019   5.270  0.0474  0.9799 -0.5736
 6355SOL    MW425188   0.493   6.014   5.266  0.3843  0.8628 -0.7591
 6356SOL     OW25189   1.347   5.416   1.041  0.5963  0.5498 -0.0666
 6356SOL    HW225190   1.260   5.389   1.069  1.6023  1.1804  4.5415
 6356SOL    HW325191   1.403   5.340   1.057  1.0826  0.1894 -2.8531
 6356SOL    MW425192   1.343   5.403   1.047  0.2076  0.2337 -0.3151
 6357SOL     OW25193   0.463   2.950   3.095 -0.1439 -0.4102  0.2984
 6357SOL    HW225194   0.405   2.962   3.020 -1.0704  1.3413  1.2440
 6357SOL    HW325195   0.515   2.872   3.073 -2.1005 -1.4093 -1.0315
 6357SOL    MW425196   0.462   2.941   3.082 -0.1658 -0.2218  0.5619
 6358SOL     OW25197   3.587   6.170   5.089 -0.0883  0.5928  0.6168
 6358SOL    HW225198   3.573   6.107   5.160  1.7718 -0.1285  0.4130
 6358SOL    HW325199   3.580   6.256   5.131 -3.3520  0.3797  0.7678
 6358SOL    MW425200   3.585   6.173   5.104 -0.5384 -0.7688  0.2367
 6359SOL     OW25201   0.042   6.319   4.605 -0.0847 -0.3723  0.0358
 6359SOL    HW225202   0.045   6.230   4.570 -0.2961 -0.1212 -0.6384
 6359SOL    HW325203   0.089   6.314   4.688  0.6940 -0.9207 -0.4265
 6359SOL    MW425204   0.049   6.307   4.611 -0.0527 -0.4172  0.2444
 6360SOL     OW25205   0.992   0.094   5.047  0.1270  0.1739  0.3128
 6360SOL    HW225206   1.070   0.150   5.053  0.4464  0.1529 -2.3593
 6360SOL    HW325207   0.930   0.146   4.996 -0.9446 -0.5280  0.8737
 6360SOL    MW425208   0.994   0.108   5.041 -0.4170 -0.3602 -0.2197
 6361SOL     OW25209   3.998   0.940   0.464 -0.1177  0.1044  0.0143
 6361SOL    HW225210   3.986   0.967   0.373  2.0227  0.2989 -0.2679
 6361SOL    HW325211   3.996   1.021   0.514 -4.3645 -0.1886  0.6711
 6361SOL    MW425212   3.997   0.954   0.459 -0.0581 -0.5429  0.1328
 6362SOL     OW25213   3.651   1.771   0.234  0.7680  0.1647  0.2793
 6362SOL    HW225214   3.600   1.705   0.281  0.9595 -1.8253 -2.1045
 6362SOL    HW325215   3.726   1.723   0.198  1.9810  2.1150  0.0263
 6362SOL    MW425216   3.654   1.756   0.236  0.3434  0.2950  0.0020
 6363SOL     OW25217   4.647   2.217   3.829  0.1911  0.1480 -0.1591
 6363SOL    HW225218   4.552   2.218   3.812  0.0681  1.9440  0.4820
 6363SOL    HW325219   4.681   2.291   3.779  1.6150 -1.6360 -2.0262
 6363SOL    MW425220   4.639   2.227   3.820  0.2106 -0.2479 -0.0632
 6364SOL     OW25221   5.208   4.776   6.154 -0.2554 -0.0664 -0.1290
 6364SOL    HW225222   5.233   4.689   6.125 -0.3715  0.3976 -1.7273
 6364SOL    HW325223   5.121   4.790   6.116  0.5653  1.4656 -1.5343
 6364SOL    MW425224   5.200   4.767   6.145  0.3450  0.3075  0.1235
 6365SOL     OW25225   1.390   3.617   0.777 -0.4348  0.1574 -0.4140
 6365SOL    HW225226   1.407   3.615   0.872 -0.7636 -0.9211 -0.3606
 6365SOL    HW325227   1.322   3.551   0.764  1.4625 -1.6707 -1.7371
 6365SOL    MW425228   1.383   3.608   0.788  0.1663  0.3560  0.2652
 6366SOL     OW25229   5.292   1.032   5.204  0.3449 -0.5029 -0.2747
 6366SOL    HW225230   5.236   1.062   5.132 -1.2793 -0.7817  0.8228
 6366SOL    HW325231   5.375   1.079   5.191 -0.8128  1.5137 -0.8112
 6366SOL    MW425232   5.296   1.042   5.193  0.0296 -0.1907  0.1594
 6367SOL     OW25233   4.549   3.998   5.134  0.4443  0.5433 -0.1585
 6367SOL    HW225234   4.625   3.956   5.094 -0.6240 -0.2091 -1.4484
 6367SOL    HW325235   4.537   3.952   5.217  0.6550 -0.1946 -0.5264
 6367SOL    MW425236   4.557   3.987   5.140  0.1052 -0.3324 -1.0785
 6368SOL     OW25237   4.018   5.663   0.600  0.0872 -0.3782 -0.6920
 6368SOL    HW225238   4.089   5.615   0.642  1.5694  2.6592  0.5675
 6368SOL    HW325239   4.058   5.702   0.522 -0.1489  1.4046  0.0536
 6368SOL    MW425240   4.032   5.661   0.595 -0.2783 -0.0279 -0.5036
 6369SOL     OW25241   2.590   4.184   4.706 -0.3050  0.2102  0.1035
 6369SOL    HW225242   2.558   4.246   4.640 -0.4541 -0.3597 -0.3621
 6369SOL    HW325243   2.518   4.177   4.768  0.1061  1.2996  0.7293
 6369SOL    MW425244   2.576   4.192   4.705 -0.0541  0.0873 -0.3995
 6370SOL     OW25245   5.286   2.047   0.712  0.2134  0.1718 -0.3788
 6370SOL    HW225246   5.271   2.123   0.657  1.7170  0.3966 -0.5093
 6370SOL    HW325247   5.333   2.081   0.788  0.1620 -0.5024 -0.0357
 6370SOL    MW425248   5.290   2.061   0.715  0.1394 -0.1119 -0.4287
 6371SOL     OW25249   3.055   2.277   3.690  0.1456  0.0416 -0.6241
 6371SOL    HW225250   2.979   2.336   3.688 -0.3014 -0.4975  0.0520
 6371SOL    HW325251   3.020   2.193   3.662  0.1875 -0.5291  0.9486
 6371SOL    MW425252   3.040   2.274   3.686  0.2623  0.3439  0.1839
 6372SOL     OW25253   4.014   0.526   2.342  0.3585  0.2574  0.1038
 6372SOL    HW225254   4.083   0.563   2.287 -0.0704 -0.3305 -0.8613
 6372SOL    HW325255   4.043   0.542   2.432  1.6923  0.1077 -0.2871
 6372SOL    MW425256   4.027   0.533   2.347 -0.2995  0.2519 -0.1201
 6373SOL     OW25257   5.038   5.691   4.896 -0.3512 -0.5392  0.0064
 6373SOL    HW225258   5.089   5.611   4.908 -1.1297 -1.2880 -1.3631
 6373SOL    HW325259   4.975   5.690   4.968 -1.0562 -1.7599 -0.5864
 6373SOL    MW425260   5.036   5.680   4.907  0.3189  0.0840 -0.1050
 6374SOL     OW25261   4.644   2.278   1.401 -0.0401  0.4365 -0.5439
 6374SOL    HW225262   4.550   2.274   1.417  0.0691 -1.6106 -0.0642
 6374SOL    HW325263   4.683   2.283   1.488  0.3130 -0.2333 -0.6565
 6374SOL    MW425264   4.637   2.278   1.414 -0.3292 -0.4466  0.4922
 6375SOL     OW25265   5.910   6.325   4.680 -0.9628 -0.9513  0.0608
 6375SOL    HW225266   5.851   6.389   4.640 -2.3158 -0.3001  2.8234
 6375SOL    HW325267   5.997   6.351   4.651 -1.5217  1.8359  0.5997
 6375SOL    MW425268   5.914   6.337   4.671  0.9523  0.2387 -0.6924
 6376SOL     OW25269   3.912   6.008   2.087 -0.4506 -0.3375 -0.0993
 6376SOL    HW225270   3.857   6.017   2.009 -0.6345 -0.6192 -0.0041
 6376SOL    HW325271   3.863   5.948   2.144 -0.0388 -0.6048 -0.0225
 6376SOL    MW425272   3.898   6.001   2.084 -0.2674  0.1629  0.3092
 6377SOL     OW25273   4.462   2.378   2.297  0.7952  0.2771 -0.2052
 6377SOL    HW225274   4.479   2.426   2.216  1.4225 -0.9553 -0.8340
 6377SOL    HW325275   4.407   2.304   2.271 -1.0428  1.1812  0.9248
 6377SOL    MW425276   4.457   2.375   2.283  0.3165  0.1703 -0.1654
 6378SOL     OW25277   6.291   0.252   0.422  0.1347  0.5791 -0.6000
 6378SOL    HW225278   6.309   0.288   0.509 -1.1672 -0.5541  0.1734
 6378SOL    HW325279   6.375   0.259   0.376  1.0603  0.5005  0.9900
 6378SOL    MW425280   6.305   0.258   0.428  0.1914  0.3151 -0.3971
 6379SOL     OW25281   5.544   4.955   0.470  0.6310 -0.4159  0.1904
 6379SOL    HW225282   5.515   5.027   0.525 -0.7174  0.3212 -1.3786
 6379SOL    HW325283   5.627   4.985   0.432  0.2685  0.1767 -0.1543
 6379SOL    MW425284   5.551   4.968   0.472 -0.0310 -0.1048  0.5473
 6380SOL     OW25285   1.922   2.140   0.054  0.2647 -0.2079  0.5996
 6380SOL    HW225286   1.833   2.123   0.023  1.0815 -0.6365 -1.7305
 6380SOL    HW325287   1.953   2.056   0.086  0.3125 -0.4066  0.0443
 6380SOL    MW425288   1.914   2.127   0.054 -0.4153 -0.0684  0.2831
 6381SOL     OW25289   3.053   1.553   0.835 -0.0014  0.6682  0.4971
 6381SOL    HW225290   3.129   1.605   0.812 -0.3431  0.9552  0.0069
 6381SOL    HW325291   3.031   1.504   0.756  0.8971 -0.9908  1.2154
 6381SOL    MW425292   3.060   1.553   0.822 -0.5323  0.2637 -0.3920
 6382SOL     OW25293   1.971   1.875   5.108  0.2261 -0.0329 -0.0285
 6382SOL    HW225294   2.037   1.827   5.157 -0.1821 -0.5017  0.0681
 6382SOL    HW325295   2.013   1.959   5.087  1.7234 -1.1779 -2.0052
 6382SOL    MW425296   1.985   1.880   5.112  0.0772  0.4210  0.1593
 6383SOL     OW25297   0.277   3.687   1.643  0.2244 -0.2906  0.0314
 6383SOL    HW225298   0.304   3.618   1.583 -2.1653 -0.6853 -0.6688
 6383SOL    HW325299   0.290   3.768   1.593 -0.8749 -0.5526 -0.7137
 6383SOL    MW425300   0.283   3.689   1.629 -0.5336  0.0220  0.6450
 6384SOL     OW25301   0.948   3.985   6.101  0.0124  0.4397 -0.0991
 6384SOL    HW225302   0.956   3.895   6.131 -1.0054  0.1001 -0.7970
 6384SOL    HW325303   1.036   4.023   6.113  0.4574 -0.6443  0.1483
 6384SOL    MW425304   0.961   3.978   6.107  0.3218 -0.5160 -0.2236
 6385SOL     OW25305   4.803   5.226   5.725  0.3481  0.1682  0.3847
 6385SOL    HW225306   4.734   5.169   5.692 -0.9090  1.4825  0.6797
 6385SOL    HW325307   4.865   5.234   5.652  0.2459 -1.0523  0.1368
 6385SOL    MW425308   4.802   5.220   5.711  0.2050 -0.5927  0.9069
 6386SOL     OW25309   3.221   2.490   6.363 -0.4089  0.0797 -0.3700
 6386SOL    HW225310   3.221   2.408   6.313  1.1402 -0.7559  0.9036
 6386SOL    HW325311   3.313   2.510   6.377 -0.7721  1.7417 -0.1183
 6386SOL    MW425312   3.233   2.482   6.358 -0.5579 -0.4838  0.3359
 6387SOL     OW25313   5.076   3.364   5.196 -0.2940 -0.1553 -0.5607
 6387SOL    HW225314   5.004   3.402   5.245 -0.4276 -1.3156  0.1767
 6387SOL    HW325315   5.133   3.326   5.262  0.7207  0.2477 -1.1689
 6387SOL    MW425316   5.074   3.364   5.211  0.1935  0.4262 -0.2373
 6388SOL     OW25317   5.802   2.454   5.022  0.0718 -0.7051 -0.5006
 6388SOL    HW225318   5.811   2.372   4.975  2.5301 -0.4700 -0.5558
 6388SOL    HW325319   5.886   2.498   5.010 -1.2966  2.0426 -0.8525
 6388SOL    MW425320   5.814   2.449   5.014  0.1263  0.2845  0.8977
 6389SOL     OW25321   5.654   2.296   2.607 -0.2617  0.1183  0.0502
 6389SOL    HW225322   5.747   2.291   2.584  0.5349  1.5240  2.6258
 6389SOL    HW325323   5.629   2.205   2.623  1.2022 -0.1196  1.1514
 6389SOL    MW425324   5.663   2.283   2.606 -0.6269  0.0410 -0.0133
 6390SOL     OW25325   0.766   1.323   5.920 -0.1972 -0.1045 -0.2262
 6390SOL    HW225326   0.848   1.343   5.875 -0.2374  0.5278 -0.0284
 6390SOL    HW325327   0.709   1.397   5.899  0.1262  0.7698  1.7030
 6390SOL    MW425328   0.769   1.336   5.911  0.3995 -0.2426  0.0892
 6391SOL     OW25329   3.937   5.241   5.697 -0.1373 -0.8867  0.9817
 6391SOL    HW225330   3.854   5.206   5.664 -0.0463  0.5338 -0.8462
 6391SOL    HW325331   4.002   5.175   5.673 -0.4753 -1.1800  0.8647
 6391SOL    MW425332   3.934   5.227   5.690  0.1310 -0.0783 -0.1857
 6392SOL     OW25333   6.020   4.117   2.906  0.3017  0.0017 -0.2018
 6392SOL    HW225334   6.088   4.051   2.897  1.4590  1.1355 -0.1171
 6392SOL    HW325335   5.941   4.075   2.872  1.1427 -1.1779 -0.7762
 6392SOL    MW425336   6.019   4.103   2.901  0.2680 -0.3614 -0.5998
 6393SOL     OW25337   3.724   0.270   4.673  0.8667  0.5233  0.3822
 6393SOL    HW225338   3.639   0.310   4.692  1.0163 -0.1353  2.7934
 6393SOL    HW325339   3.702   0.188   4.628  0.3997  1.5098 -1.2741
 6393SOL    MW425340   3.710   0.264   4.670  0.6142 -0.9057 -0.2648
 6394SOL     OW25341   4.819   4.766   3.176 -0.4746 -0.5768  0.2261
 6394SOL    HW225342   4.830   4.738   3.267 -0.5944  1.5162  0.9343
 6394SOL    HW325343   4.816   4.685   3.126 -0.4931 -1.7797  2.0979
 6394SOL    MW425344   4.820   4.752   3.181 -0.1049 -0.3765  0.8558
 6395SOL     OW25345   0.397   3.044   0.255  0.3728  0.9191  0.4082
 6395SOL    HW225346   0.483   3.029   0.215  0.2785  0.8824  0.2232
 6395SOL    HW325347   0.417   3.096   0.334  0.7286 -0.3666  1.1951
 6395SOL    MW425348   0.411   3.049   0.260  0.0685  0.4795  0.0702
 6396SOL     OW25349   0.469   1.032   4.617 -0.2113 -0.1680 -0.3166
 6396SOL    HW225350   0.516   0.958   4.579 -0.4260  0.0966 -1.1137
 6396SOL    HW325351   0.438   0.999   4.702  1.2421 -0.3950  0.1567
 6396SOL    MW425352   0.471   1.018   4.624  0.5022 -0.1245  0.2294
 6397SOL     OW25353   0.023   2.001   2.888 -0.2499 -0.4330 -0.0081
 6397SOL    HW225354   0.004   1.908   2.905 -0.9038  0.1248  2.7533
 6397SOL    HW325355  -0.054   2.032   2.841 -0.7354 -0.9333  0.4418
 6397SOL    MW425356   0.010   1.993   2.884  0.0576  0.0729  0.1257
 6398SOL     OW25357   5.342   4.259   3.114 -0.2134 -0.8599 -0.4847
 6398SOL    HW225358   5.393   4.180   3.097  1.0397 -0.0852 -0.5212
 6398SOL    HW325359   5.384   4.298   3.191 -1.9871 -1.1757  0.7057
 6398SOL    MW425360   5.355   4.254   3.122 -0.3583 -0.1594  0.1396
 6399SOL     OW25361   5.136   1.158   5.025 -0.5337  1.0396  0.8613
 6399SOL    HW225362   5.087   1.078   5.042 -1.4590  2.1553  4.1752
 6399SOL    HW325363   5.121   1.212   5.102  1.5983  3.6648 -0.4046
 6399SOL    MW425364   5.127   1.155   5.037 -0.0773 -0.1974 -0.4150
 6400SOL     OW25365   0.632   3.107   3.247  0.8417 -0.7040 -0.4566
 6400SOL    HW225366   0.576   3.055   3.190 -0.1511  0.4231 -0.5419
 6400SOL    HW325367   0.573   3.142   3.314  1.1860  1.4035 -1.1808
 6400SOL    MW425368   0.617   3.105   3.249 -0.4774 -0.2331 -0.2800
 6401SOL     OW25369   1.989   2.613   1.628 -0.3655  0.3191 -0.0223
 6401SOL    HW225370   2.073   2.594   1.669 -0.2312  0.4751 -0.2223
 6401SOL    HW325371   2.010   2.673   1.556 -0.4516 -0.7674 -0.9922
 6401SOL    MW425372   2.003   2.619   1.624  0.4484  0.0807 -0.0510
 6402SOL     OW25373   5.528   4.661   0.743 -0.0023  0.6272  0.0895
 6402SOL    HW225374   5.545   4.666   0.837 -1.5634 -0.5549  0.4695
 6402SOL    HW325375   5.537   4.568   0.722  1.6283  1.0224 -1.2399
 6402SOL    MW425376   5.532   4.649   0.753 -0.3020 -0.3850  0.1565
 6403SOL     OW25377   5.504   0.446   0.398 -0.4872 -0.6170  0.0272
 6403SOL    HW225378   5.525   0.533   0.364  0.1002  0.1784  2.2523
 6403SOL    HW325379   5.560   0.387   0.349  0.5153  0.4953 -0.2219
 6403SOL    MW425380   5.514   0.450   0.387  0.5056 -0.7236 -0.2994
 6404SOL     OW25381   3.481   1.280   2.258  0.1563 -0.4157  0.2423
 6404SOL    HW225382   3.454   1.207   2.202 -0.0067  1.2295 -1.9659
 6404SOL    HW325383   3.407   1.340   2.255  0.8294  0.4611  0.8842
 6404SOL    MW425384   3.467   1.278   2.250 -0.0095  0.2814 -0.3236
 6405SOL     OW25385   5.246   5.987   5.926  0.8878  0.3951  0.4204
 6405SOL    HW225386   5.300   5.983   5.847 -0.7069 -0.1209 -0.6967
 6405SOL    HW325387   5.307   5.969   5.997  2.3682  0.8331 -0.6882
 6405SOL    MW425388   5.262   5.984   5.925  0.3657 -0.2988 -0.0091
 6406SOL     OW25389   5.027   1.013   4.645 -0.3747  0.4454 -0.1522
 6406SOL    HW225390   4.980   1.097   4.649 -0.2734  0.5598 -1.1237
 6406SOL    HW325391   5.100   1.030   4.585 -0.5805 -0.4504 -0.6619
 6406SOL    MW425392   5.031   1.026   4.637 -0.6267  1.1469  0.5158
 6407SOL     OW25393   6.371   0.400   2.507 -0.6951 -0.4360 -0.1076
 6407SOL    HW225394   6.457   0.362   2.489 -0.4554 -0.2694  0.6563
 6407SOL    HW325395   6.372   0.419   2.601 -0.7572  1.5647 -0.4801
 6407SOL    MW425396   6.382   0.397   2.517  0.4466 -0.4556  0.1224
 6408SOL     OW25397   1.473   0.653   5.733 -0.2969 -0.0713  0.0475
 6408SOL    HW225398   1.528   0.724   5.767 -0.1003  1.4769 -3.1356
 6408SOL    HW325399   1.534   0.581   5.716 -0.0168  0.0523  0.5085
 6408SOL    MW425400   1.488   0.653   5.735 -0.0146 -0.1702 -0.3876
 6409SOL     OW25401   2.879   3.106   3.004  0.1455 -0.4220 -0.4627
 6409SOL    HW225402   2.925   3.044   2.947  2.4417  0.7799 -0.0750
 6409SOL    HW325403   2.924   3.097   3.089 -1.6683 -0.5454  0.5208
 6409SOL    MW425404   2.891   3.097   3.008  0.4068  0.2099 -0.0861
 6410SOL     OW25405   0.296   3.545   5.014 -0.0624 -0.1400  0.6426
 6410SOL    HW225406   0.246   3.626   5.009  0.1861  0.0275  0.8443
 6410SOL    HW325407   0.234   3.477   4.988  0.2352  0.3002 -1.3866
 6410SOL    MW425408   0.282   3.547   5.010  0.0275 -0.0767  0.4817
 6411SOL     OW25409   2.588   0.824   5.135 -0.2646 -0.4812 -1.1830
 6411SOL    HW225410   2.498   0.831   5.165 -0.3815  0.6250 -1.7601
 6411SOL    HW325411   2.626   0.754   5.189 -0.4566  1.3862  1.5518
 6411SOL    MW425412   2.581   0.815   5.146 -0.3555 -0.3987  1.0072
 6412SOL     OW25413   5.473   1.162   2.369  0.0933 -0.3224  0.8442
 6412SOL    HW225414   5.402   1.173   2.432  1.6053 -1.0985  2.8088
 6412SOL    HW325415   5.546   1.213   2.406  0.0897  2.0993 -2.1007
 6412SOL    MW425416   5.474   1.170   2.382  0.4497 -0.1388 -0.2317
 6413SOL     OW25417   3.655   1.862   2.950 -0.5708 -0.0089 -0.1051
 6413SOL    HW225418   3.700   1.846   2.867 -0.7458 -0.2159 -0.1623
 6413SOL    HW325419   3.709   1.927   2.995  1.1763 -2.0193  0.9071
 6413SOL    MW425420   3.668   1.868   2.945 -0.7576  0.4855  0.1783
 6414SOL     OW25421   5.441   1.116   5.596 -0.1395  0.2198  0.2376
 6414SOL    HW225422   5.451   1.099   5.690  0.3908 -0.6802  0.0353
 6414SOL    HW325423   5.463   1.032   5.555 -1.6798  0.2092 -0.6347
 6414SOL    MW425424   5.445   1.102   5.603 -0.4773  0.5431  0.6912
 6415SOL     OW25425   0.848   6.255   5.546 -0.3207  0.2663 -0.6809
 6415SOL    HW225426   0.754   6.245   5.532 -0.2694  1.0675 -1.6992
 6415SOL    HW325427   0.865   6.348   5.534  0.6182  0.1302 -0.5305
 6415SOL    MW425428   0.838   6.266   5.543 -0.0243 -0.0901  0.1398
 6416SOL     OW25429   4.696   0.973   1.002 -0.4818 -0.0667  0.6784
 6416SOL    HW225430   4.614   1.020   0.991  0.2367  1.0598 -0.1470
 6416SOL    HW325431   4.733   0.967   0.914  0.3246 -0.5179  1.0301
 6416SOL    MW425432   4.690   0.979   0.989  0.3178  0.4719  0.2030
 6417SOL     OW25433   0.679   2.813   5.100  0.3724  0.6395 -0.2753
 6417SOL    HW225434   0.750   2.797   5.039  0.0941 -1.6726 -0.0699
 6417SOL    HW325435   0.610   2.751   5.074 -0.2955  0.5793  1.4931
 6417SOL    MW425436   0.679   2.803   5.089  0.7269  0.1332 -0.6914
 6418SOL     OW25437   6.349   4.638   0.383  0.2881 -0.1780  0.4459
 6418SOL    HW225438   6.360   4.662   0.291  0.9126 -1.7310  0.0937
 6418SOL    HW325439   6.281   4.698   0.415 -0.0821  0.2526 -1.0654
 6418SOL    MW425440   6.342   4.649   0.375 -0.1711  0.2185 -0.1539
 6419SOL     OW25441   6.314   5.243   5.603  0.4090  0.5416 -0.2692
 6419SOL    HW225442   6.228   5.217   5.571  0.4051  0.3436 -0.1017
 6419SOL    HW325443   6.373   5.175   5.571  0.4049  0.3423  0.1413
 6419SOL    MW425444   6.311   5.231   5.595 -0.1002 -0.5355  0.4888
 6420SOL     OW25445   6.381   2.902   2.258  0.6039  0.2242  0.1728
 6420SOL    HW225446   6.465   2.857   2.265  0.2943 -1.1940 -3.2886
 6420SOL    HW325447   6.404   2.990   2.227  0.8490 -0.0208 -0.3561
 6420SOL    MW425448   6.395   2.908   2.255 -0.4973 -0.2033  0.0324
 6421SOL     OW25449   3.487   4.206   4.399 -0.4287 -0.0014 -0.0720
 6421SOL    HW225450   3.441   4.123   4.409  0.7009 -0.7316 -0.7968
 6421SOL    HW325451   3.549   4.209   4.471 -1.4414  0.9114  0.8083
 6421SOL    MW425452   3.489   4.196   4.410 -0.2580 -0.6362 -0.0508
 6422SOL     OW25453   3.506   2.499   6.385 -0.0334  0.3488  0.0004
 6422SOL    HW225454   3.546   2.584   6.401 -0.0898  0.3358  0.2104
 6422SOL    HW325455   3.574   2.436   6.408 -0.5622  0.2962  1.5070
 6422SOL    MW425456   3.520   2.502   6.390  0.7859  0.3855  0.7803
 6423SOL     OW25457   2.034   5.248   4.559  0.0522  0.3261  0.1062
 6423SOL    HW225458   2.108   5.188   4.567  0.4767  0.7173 -0.8050
 6423SOL    HW325459   2.073   5.335   4.560 -0.5875  0.6213  1.6842
 6423SOL    MW425460   2.049   5.251   4.560  0.5897  0.3648  0.5365
 6424SOL     OW25461   6.225   2.898   4.031  0.0156 -0.6594 -0.2788
 6424SOL    HW225462   6.264   2.930   3.950  0.7155 -0.2288  0.2291
 6424SOL    HW325463   6.255   2.807   4.038  0.5855 -0.4615 -0.1120
 6424SOL    MW425464   6.234   2.890   4.021 -0.2878  0.1513 -0.3782
 6425SOL     OW25465   5.300   6.358   5.519 -0.6087 -0.0205  0.5569
 6425SOL    HW225466   5.212   6.354   5.555 -2.2664  0.2504 -3.0629
 6425SOL    HW325467   5.309   6.279   5.466  0.7355  0.6956 -0.3629
 6425SOL    MW425468   5.290   6.347   5.517  0.4739  0.3975  0.1064
 6426SOL     OW25469   4.459   3.700   4.383 -0.1437  0.3061 -0.3671
 6426SOL    HW225470   4.409   3.760   4.326  0.3320 -0.4670 -1.6425
 6426SOL    HW325471   4.398   3.630   4.403  0.4270 -0.7559 -2.1130
 6426SOL    MW425472   4.444   3.699   4.378  0.3800  1.0020 -0.5028
 6427SOL     OW25473   0.512   1.008   0.748  0.6796 -0.2106  0.6793
 6427SOL    HW225474   0.491   1.004   0.841 -0.0389 -0.0875  0.5336
 6427SOL    HW325475   0.437   1.054   0.709 -0.2695 -2.4162 -0.2986
 6427SOL    MW425476   0.499   1.014   0.755  0.0778  0.1664 -0.0193
 6428SOL     OW25477   1.981   3.455   0.669  0.6057  0.8961  0.0526
 6428SOL    HW225478   1.892   3.463   0.705  0.0504 -0.5173 -0.9050
 6428SOL    HW325479   2.016   3.376   0.709  0.9096  0.6988 -0.5852
 6428SOL    MW425480   1.974   3.446   0.679  0.2299 -0.2579  0.0273
 6429SOL     OW25481   1.572   0.108   3.035 -0.4203  0.3795  0.1007
 6429SOL    HW225482   1.514   0.149   2.971  0.5244  0.0740 -0.9897
 6429SOL    HW325483   1.517   0.095   3.112 -0.8127  3.4833  0.4565
 6429SOL    MW425484   1.557   0.112   3.036 -0.1796  0.4046  0.2208
 6430SOL     OW25485   4.125   4.977   0.457 -0.0461  0.0994 -0.3250
 6430SOL    HW225486   4.109   4.891   0.420 -0.6339  0.4659 -0.9457
 6430SOL    HW325487   4.169   5.026   0.387 -0.0533  0.4164 -0.1129
 6430SOL    MW425488   4.129   4.972   0.443  0.3259  0.3328 -0.4932
 6431SOL     OW25489   4.319   3.460   4.150  0.0677  0.4380 -0.4843
 6431SOL    HW225490   4.395   3.515   4.130 -0.9506  2.8036  1.6444
 6431SOL    HW325491   4.246   3.503   4.104 -0.7372  0.9136  1.1589
 6431SOL    MW425492   4.319   3.473   4.141  0.3401 -0.3504  0.0900
 6432SOL     OW25493   5.871   5.722   4.321  0.4801 -0.1200  0.0499
 6432SOL    HW225494   5.833   5.653   4.268 -1.0946  0.3275  0.5243
 6432SOL    HW325495   5.965   5.719   4.302  0.2142 -1.2501 -1.2152
 6432SOL    MW425496   5.878   5.713   4.312  0.2270 -0.0928  0.3585
 6433SOL     OW25497   6.095   4.589   2.773 -0.1432 -0.1109 -0.0645
 6433SOL    HW225498   6.050   4.662   2.730 -0.8641  0.8747  2.2608
 6433SOL    HW325499   6.087   4.606   2.866  1.5807 -2.0503  0.5241
 6433SOL    MW425500   6.088   4.601   2.779 -0.2166 -0.5749  0.3554
 6434SOL     OW25501   3.997   4.112   0.303  0.4340  0.2596 -0.2917
 6434SOL    HW225502   4.016   4.181   0.366 -0.4683  1.8998 -1.7497
 6434SOL    HW325503   3.967   4.039   0.357  0.1298  1.4448  1.2187
 6434SOL    MW425504   3.996   4.111   0.319  0.0159  0.5564  0.6461
 6435SOL     OW25505   2.939   3.386   5.434 -0.2491 -0.5248  0.0670
 6435SOL    HW225506   3.032   3.370   5.419  0.0276 -1.1433  2.1844
 6435SOL    HW325507   2.897   3.363   5.351  1.1055 -3.7039  0.1274
 6435SOL    MW425508   2.946   3.381   5.421  0.5097  0.3761  0.2629
 6436SOL     OW25509   0.037   0.727   2.623  0.3444  0.0500 -0.3833
 6436SOL    HW225510   0.010   0.727   2.531  0.7228  0.1100 -0.4990
 6436SOL    HW325511   0.097   0.653   2.630 -0.1810 -0.3410 -0.0313
 6436SOL    MW425512   0.041   0.717   2.611 -0.5003  0.3402  0.2971
 6437SOL     OW25513   0.676   6.343   4.468  0.2771 -0.4746 -0.1571
 6437SOL    HW225514   0.620   6.389   4.530  0.7120 -1.0676  0.6835
 6437SOL    HW325515   0.621   6.275   4.431 -0.4333  0.8006 -1.5550
 6437SOL    MW425516   0.661   6.340   4.471  0.1049  0.8821 -0.4322
 6438SOL     OW25517   5.967   1.175   2.048 -0.1742  0.6170  0.3268
 6438SOL    HW225518   5.934   1.088   2.022  0.0221  0.6472 -0.0287
 6438SOL    HW325519   6.062   1.167   2.044 -0.1508  1.2881 -1.2354
 6438SOL    MW425520   5.975   1.162   2.044 -0.4721 -0.2208  0.1390
 6439SOL     OW25521   1.109   5.653   0.896 -0.2436 -0.5290  0.0208
 6439SOL    HW225522   1.083   5.562   0.899  0.6202 -0.9688 -2.8430
 6439SOL    HW325523   1.029   5.701   0.873 -0.3652 -0.7298  0.0297
 6439SOL    MW425524   1.095   5.648   0.894  0.4061 -0.4784  0.6598
 6440SOL     OW25525   2.913   0.513   5.984  0.6866 -0.0543 -0.2055
 6440SOL    HW225526   2.959   0.462   6.050  0.7045 -1.7662 -1.4784
 6440SOL    HW325527   2.827   0.472   5.977  0.3434  0.6942 -0.5775
 6440SOL    MW425528   2.907   0.501   5.991  0.4281 -0.0962 -0.6340
 6441SOL     OW25529   3.675   4.006   1.746  0.4051 -0.2045  0.1802
 6441SOL    HW225530   3.712   3.924   1.779  0.4219 -0.1790  0.2244
 6441SOL    HW325531   3.700   4.072   1.810  2.0515  0.2054 -0.8395
 6441SOL    MW425532   3.683   4.004   1.759 -0.4040 -0.5414 -0.3704
 6442SOL     OW25533   5.746   5.395   2.884 -0.2171  0.0938 -0.3046
 6442SOL    HW225534   5.806   5.335   2.840  0.7945  0.6544  0.2837
 6442SOL    HW325535   5.801   5.445   2.945 -1.5324 -0.5308  1.4974
 6442SOL    MW425536   5.761   5.394   2.886 -0.1236 -0.8131  0.0625
 6443SOL     OW25537   1.924   3.461   0.380 -0.0684  0.6547  0.1544
 6443SOL    HW225538   2.003   3.427   0.338 -0.2806  0.1126  0.1823
 6443SOL    HW325539   1.941   3.452   0.474 -0.5313 -0.3657  0.1585
 6443SOL    MW425540   1.936   3.455   0.387  0.0073 -0.5435  0.3131
 6444SOL     OW25541   1.400   5.532   6.140 -0.0221 -0.0712  0.1642
 6444SOL    HW225542   1.444   5.532   6.225  0.4017 -1.3411 -0.0417
 6444SOL    HW325543   1.466   5.567   6.079 -0.6108  1.6694  0.4636
 6444SOL    MW425544   1.415   5.537   6.143  0.1562 -0.9520 -0.2127
 6445SOL     OW25545   2.161   2.826   4.333  0.4474  0.1128 -0.2563
 6445SOL    HW225546   2.243   2.799   4.374  0.5051  0.1282 -0.3630
 6445SOL    HW325547   2.158   2.921   4.347 -0.0347 -0.0192  0.6305
 6445SOL    MW425548   2.171   2.835   4.340  0.3635 -0.1641 -0.1791
 6446SOL     OW25549   4.765   0.951   0.701  0.0596 -0.1330  0.0179
 6446SOL    HW225550   4.686   0.901   0.682  0.3197 -0.4418 -0.2728
 6446SOL    HW325551   4.771   1.014   0.629 -1.6066  2.0384  1.6198
 6446SOL    MW425552   4.756   0.953   0.689 -0.6133 -0.0565 -0.1332
 6447SOL     OW25553   2.028   0.546   2.898 -0.2079  0.1019  0.2037
 6447SOL    HW225554   2.065   0.532   2.811 -0.2947  0.8107  0.0522
 6447SOL    HW325555   2.092   0.508   2.958  1.0683  1.8011 -0.0110
 6447SOL    MW425556   2.041   0.539   2.894  0.0134 -0.4873  0.0610
 6448SOL     OW25557   2.596   5.359   2.905  0.4168  0.1660 -0.3145
 6448SOL    HW225558   2.523   5.309   2.868 -0.0524 -0.2225  1.0861
 6448SOL    HW325559   2.649   5.294   2.950 -0.7893  0.9949  2.4936
 6448SOL    MW425560   2.593   5.344   2.906 -0.2895  0.2312 -0.5925
 6449SOL     OW25561   1.053   1.289   0.204 -0.1923  0.8321 -0.1878
 6449SOL    HW225562   0.984   1.354   0.211  0.0339  0.9155  1.8763
 6449SOL    HW325563   1.125   1.324   0.256  0.3010 -0.6112  0.1586
 6449SOL    MW425564   1.054   1.302   0.212 -0.0183 -0.0020  1.0423
 6450SOL     OW25565   1.160   4.032   0.942  0.2047 -0.1920 -0.4890
 6450SOL    HW225566   1.228   4.066   1.001  1.1498 -0.2423 -1.5224
 6450SOL    HW325567   1.207   4.007   0.862 -1.0606 -0.0249 -1.3179
 6450SOL    MW425568   1.175   4.033   0.939  0.1274 -0.0584 -0.1980
 6451SOL     OW25569   1.820   4.888   0.256  0.2313  0.2921  0.5739
 6451SOL    HW225570   1.831   4.794   0.267  2.7939  0.3611 -0.6214
 6451SOL    HW325571   1.817   4.923   0.345 -0.9150 -0.8916  1.0280
 6451SOL    MW425572   1.821   4.880   0.269  0.0949  0.3818  0.1652
 6452SOL     OW25573   4.799   5.898   4.215  0.4982  0.4882 -0.3524
 6452SOL    HW225574   4.848   5.924   4.293 -0.7354 -1.3095  1.1275
 6452SOL    HW325575   4.792   5.803   4.222 -1.4100  0.4881 -1.5588
 6452SOL    MW425576   4.804   5.889   4.226  0.2588 -0.5738  0.0693
 6453SOL     OW25577   5.830   0.888   2.721 -0.2300  0.4081  0.1463
 6453SOL    HW225578   5.772   0.959   2.694  0.0385  0.5142 -0.1680
 6453SOL    HW325579   5.830   0.827   2.647  1.1555  1.1011 -0.4738
 6453SOL    MW425580   5.822   0.889   2.707 -0.3751  0.4132  0.2614
 6454SOL     OW25581   5.576   0.666   3.345 -0.1614 -0.3597  0.4758
 6454SOL    HW225582   5.556   0.660   3.252  2.6562  1.6125 -0.4034
 6454SOL    HW325583   5.540   0.751   3.372 -1.7907 -1.3255  1.4855
 6454SOL    MW425584   5.569   0.676   3.336 -0.4471 -0.0934 -0.1665
 6455SOL     OW25585   6.039   6.059   2.502  0.2189 -0.0323  0.6056
 6455SOL    HW225586   6.012   6.005   2.577 -0.4179  1.0231  1.1525
 6455SOL    HW325587   6.132   6.039   2.491  0.6445  0.6869  2.4548
 6455SOL    MW425588   6.047   6.049   2.511 -0.1846 -0.2453 -0.0631
 6456SOL     OW25589   1.067   3.398   4.503 -0.6914 -0.0957  0.3645
 6456SOL    HW225590   1.150   3.374   4.463 -0.4165  1.0867  0.2099
 6456SOL    HW325591   1.011   3.424   4.430 -1.0473 -0.4293  0.5122
 6456SOL    MW425592   1.071   3.398   4.488  0.3259  0.2675  0.3751
 6457SOL     OW25593   5.205   2.428   2.114 -0.3722 -0.2497  0.1204
 6457SOL    HW225594   5.277   2.365   2.109  0.1416  0.1162  1.9101
 6457SOL    HW325595   5.243   2.503   2.160 -1.9150 -0.0968  1.2334
 6457SOL    MW425596   5.220   2.430   2.120 -0.3104 -0.5138  0.2407
 6458SOL     OW25597   5.281   3.241   2.452 -0.4316 -0.3893 -0.1916
 6458SOL    HW225598   5.221   3.181   2.408 -0.9862 -1.0591  1.4232
 6458SOL    HW325599   5.223   3.307   2.492 -0.0630 -0.6323  0.7637
 6458SOL    MW425600   5.265   3.242   2.452 -0.0317  0.0231  0.0130
 6459SOL     OW25601   4.222   6.100   1.224  0.2382 -0.3104  0.3346
 6459SOL    HW225602   4.133   6.095   1.190 -0.4616  1.3387  1.7561
 6459SOL    HW325603   4.228   6.029   1.288  0.2714 -0.9818 -0.3974
 6459SOL    MW425604   4.211   6.090   1.228  0.0286  0.0008 -0.6148
 6460SOL     OW25605   3.597   1.170   0.974 -0.4735 -0.0495 -0.0767
 6460SOL    HW225606   3.679   1.194   1.017 -0.5392  1.2636 -0.6451
 6460SOL    HW325607   3.544   1.131   1.044  0.2953 -0.1133  0.4856
 6460SOL    MW425608   3.601   1.168   0.989 -0.0730  0.0644 -0.0772
 6461SOL     OW25609   5.608   3.693   0.174  0.6248  0.2162  0.5520
 6461SOL    HW225610   5.686   3.691   0.119 -0.6866  0.4333 -1.4245
 6461SOL    HW325611   5.600   3.784   0.201  1.6271 -0.0106  1.6891
 6461SOL    MW425612   5.617   3.705   0.170  0.4213 -0.8634  0.0575
 6462SOL     OW25613   6.148   2.481   5.215 -0.0786 -0.4630  0.1648
 6462SOL    HW225614   6.075   2.527   5.257  0.0107  0.3501 -0.5511
 6462SOL    HW325615   6.136   2.389   5.241 -1.3742 -0.3509  0.0433
 6462SOL    MW425616   6.136   2.475   5.224  0.2769  0.3719  0.7877
 6463SOL     OW25617   0.594   4.017   2.210  0.0718 -0.2113  0.3234
 6463SOL    HW225618   0.507   4.021   2.170 -0.3465 -0.0811  1.2305
 6463SOL    HW325619   0.654   4.015   2.135 -0.6398  1.0453 -0.3198
 6463SOL    MW425620   0.590   4.017   2.195 -0.1563  0.0518  0.4801
 6464SOL     OW25621   6.325   2.406   0.726  0.0334  0.4171  0.3528
 6464SOL    HW225622   6.309   2.484   0.778 -1.7379  0.7840 -0.6681
 6464SOL    HW325623   6.239   2.381   0.692  0.6516 -1.6343  0.1489
 6464SOL    MW425624   6.312   2.413   0.728  1.1212 -0.4166 -0.3405
 6465SOL     OW25625   6.285   2.647   4.797  1.0477 -0.1853 -0.3303
 6465SOL    HW225626   6.207   2.623   4.847  0.0201  4.0281  0.4964
 6465SOL    HW325627   6.265   2.622   4.707 -0.3258 -1.0942  0.2031
 6465SOL    MW425628   6.272   2.640   4.791 -0.0002 -0.2471  0.1310
 6466SOL     OW25629   4.090   1.053   5.820 -0.3264 -0.0860  0.3382
 6466SOL    HW225630   4.143   1.132   5.836  1.6564 -1.1752 -0.4443
 6466SOL    HW325631   4.092   1.006   5.904  0.0903 -0.1747  0.2842
 6466SOL    MW425632   4.097   1.057   5.833  0.4037 -0.2317  0.8964
 6467SOL     OW25633   0.725   4.240   4.942 -0.1947  0.3055  0.1151
 6467SOL    HW225634   0.803   4.209   4.896 -1.0464  1.7900 -2.5435
 6467SOL    HW325635   0.653   4.223   4.882 -1.6875  0.6985  1.7018
 6467SOL    MW425636   0.726   4.234   4.928  0.3089  0.0907 -0.3302
 6468SOL     OW25637   0.578   3.222   3.961 -0.1961  0.0918 -0.0094
 6468SOL    HW225638   0.598   3.315   3.955  0.0888  0.2201  2.1428
 6468SOL    HW325639   0.483   3.218   3.973 -0.0206  0.2787  1.7663
 6468SOL    MW425640   0.568   3.233   3.962 -0.4784  0.2798  0.1340
 6469SOL     OW25641   2.714   4.126   2.412 -0.3525  0.1979  0.1807
 6469SOL    HW225642   2.750   4.045   2.376 -0.0240  0.7365 -0.7093
 6469SOL    HW325643   2.668   4.167   2.339 -2.8001 -0.4343  1.2564
 6469SOL    MW425644   2.712   4.121   2.398 -0.0106  0.0504 -0.0764
 6470SOL     OW25645   3.915   1.280   2.259  0.2252 -0.1918 -0.2994
 6470SOL    HW225646   3.838   1.259   2.313 -0.4576  2.0901 -0.2954
 6470SOL    HW325647   3.912   1.215   2.189 -0.2251 -1.7385  1.0715
 6470SOL    MW425648   3.904   1.268   2.257 -0.0974  0.0371 -0.0529
 6471SOL     OW25649   5.624   4.364   1.268  0.0283 -0.2564 -0.5103
 6471SOL    HW225650   5.541   4.373   1.220 -1.1188 -1.2586  1.1751
 6471SOL    HW325651   5.669   4.291   1.226  0.6539  1.0247 -2.1849
 6471SOL    MW425652   5.619   4.356   1.256 -0.4256 -0.4561 -0.3191
 6472SOL     OW25653   0.320   2.213   2.674  0.3802  0.0981 -0.3107
 6472SOL    HW225654   0.338   2.202   2.581 -1.0491 -0.5444 -0.5406
 6472SOL    HW325655   0.314   2.124   2.708  1.4211  0.3227  0.5370
 6472SOL    MW425656   0.322   2.200   2.666  0.3359  0.6763  0.0220
 6473SOL     OW25657   2.363   4.191   2.810 -0.1700  0.3746  0.3797
 6473SOL    HW225658   2.440   4.159   2.762  0.9478  1.3885  1.4448
 6473SOL    HW325659   2.346   4.278   2.773 -2.4597 -0.8102 -1.6592
 6473SOL    MW425660   2.371   4.198   2.799 -0.2165  0.4028 -0.6035
 6474SOL     OW25661   2.787   0.289   3.019 -0.3178 -1.2125  0.1581
 6474SOL    HW225662   2.844   0.348   2.969  0.1803 -2.9844 -1.4990
 6474SOL    HW325663   2.725   0.347   3.063  0.6929  0.5851 -0.6871
 6474SOL    MW425664   2.786   0.305   3.018  0.2348  0.0869 -0.3148
 6475SOL     OW25665   3.630   5.524   5.824  0.0594 -0.6225 -0.0290
 6475SOL    HW225666   3.725   5.521   5.811 -0.0132  0.7329 -1.1153
 6475SOL    HW325667   3.617   5.590   5.892 -0.1807  1.0989 -1.6400
 6475SOL    MW425668   3.641   5.532   5.831 -1.0116  0.1894  0.3228
 6476SOL     OW25669   5.887   3.573   6.028 -0.6001  0.2082  0.2400
 6476SOL    HW225670   5.896   3.502   5.964 -2.0511  0.5675 -0.4217
 6476SOL    HW325671   5.976   3.600   6.047 -0.1101 -0.2303 -1.2935
 6476SOL    MW425672   5.900   3.567   6.022  0.1691 -0.2278 -0.1452
 6477SOL     OW25673   0.861   5.936   3.031  0.0268 -0.2841  0.0171
 6477SOL    HW225674   0.898   5.979   2.955 -0.8112  1.7162  0.6733
 6477SOL    HW325675   0.932   5.935   3.095  0.4045 -0.9783 -0.4050
 6477SOL    MW425676   0.875   5.942   3.030 -0.0862  0.1115 -0.0385
 6478SOL     OW25677   2.944   2.767   3.296 -0.1121  0.0119  0.7991
 6478SOL    HW225678   2.955   2.687   3.346 -1.0074 -0.5453  0.1297
 6478SOL    HW325679   3.021   2.770   3.239 -0.4442 -0.7749  0.2926
 6478SOL    MW425680   2.955   2.757   3.295 -0.0876 -0.0988 -0.1294
 6479SOL     OW25681   5.981   5.578   5.941  0.5418 -0.2157 -0.6113
 6479SOL    HW225682   6.032   5.525   5.881  2.6618  1.5687 -0.4838
 6479SOL    HW325683   6.020   5.562   6.027  0.0401  0.2043 -0.2975
 6479SOL    MW425684   5.993   5.569   5.945  0.2377 -0.2883 -0.1643
 6480SOL     OW25685   5.904   4.791   2.682  0.0548  0.3089  0.1030
 6480SOL    HW225686   5.959   4.833   2.616 -0.1414  0.6216  0.1340
 6480SOL    HW325687   5.823   4.769   2.635  0.2765 -0.3219  0.0096
 6480SOL    MW425688   5.901   4.794   2.667 -1.2211 -0.5908  0.0648
 6481SOL     OW25689   3.152   1.924   0.845  0.0098  0.1739  0.1263
 6481SOL    HW225690   3.060   1.919   0.818 -0.6133 -0.4163  2.1841
 6481SOL    HW325691   3.191   1.843   0.811  0.0880  0.9251 -1.6854
 6481SOL    MW425692   3.145   1.912   0.837 -0.6310 -0.1184  0.5608
 6482SOL     OW25693   1.035   2.996   5.522 -0.1797  0.4298  0.1971
 6482SOL    HW225694   0.949   2.960   5.541  0.2656  0.0144  1.5299
 6482SOL    HW325695   1.095   2.947   5.579  0.6819  2.0794  0.7689
 6482SOL    MW425696   1.032   2.985   5.532  0.2154  0.7583 -0.4210
 6483SOL     OW25697   2.709   0.583   0.091  0.3260  0.0388  0.3149
 6483SOL    HW225698   2.656   0.550   0.018  0.4275  2.2511 -0.8351
 6483SOL    HW325699   2.653   0.574   0.168 -0.3255 -0.9922 -0.2499
 6483SOL    MW425700   2.695   0.577   0.091  0.6125 -0.2463 -0.1444
 6484SOL     OW25701   2.736   1.893   2.885  0.3292  0.4205  0.0029
 6484SOL    HW225702   2.798   1.848   2.941  1.2293  0.1832 -1.1483
 6484SOL    HW325703   2.656   1.840   2.889  0.1245  0.7962  1.5916
 6484SOL    MW425704   2.733   1.880   2.893  0.0704  0.2559  0.4829
 6485SOL     OW25705   6.311   1.862   5.111  0.5230  0.4985 -0.1750
 6485SOL    HW225706   6.401   1.830   5.105 -0.0259 -1.5366  1.4260
 6485SOL    HW325707   6.276   1.850   5.022  1.2634 -0.5242 -0.3527
 6485SOL    MW425708   6.319   1.856   5.098  0.2229  0.3398  0.2762
 6486SOL     OW25709   2.061   2.978   0.334  0.1265  0.9715  0.0406
 6486SOL    HW225710   2.083   2.955   0.424 -1.5585 -0.5653  0.1319
 6486SOL    HW325711   2.042   2.893   0.292 -3.1674  1.8505 -0.5577
 6486SOL    MW425712   2.061   2.963   0.340  0.2649 -0.3186 -0.3342
 6487SOL     OW25713   1.254   0.529   1.980 -0.1953 -0.2071 -0.4741
 6487SOL    HW225714   1.227   0.605   2.031  0.1692 -0.6940  0.4604
 6487SOL    HW325715   1.247   0.558   1.889  0.6713  1.2055 -0.1195
 6487SOL    MW425716   1.249   0.543   1.974  0.2374 -0.0510 -0.2887
 6488SOL     OW25717   4.987   6.030   1.236  0.3625  0.3455 -0.1871
 6488SOL    HW225718   4.954   5.944   1.210 -0.8483  0.4352  0.9500
 6488SOL    HW325719   4.959   6.089   1.166 -1.0683  0.2364  0.2621
 6488SOL    MW425720   4.979   6.026   1.223 -0.2023  0.0549 -0.2768
 6489SOL     OW25721   0.642   6.386   1.114  0.0631 -1.0024  0.9570
 6489SOL    HW225722   0.557   6.379   1.156 -1.0123  0.1639 -0.8946
 6489SOL    HW325723   0.673   6.474   1.136  0.5413 -1.2081  1.1392
 6489SOL    MW425724   0.635   6.397   1.122  0.3362  0.3774  0.5676
 6490SOL     OW25725   3.012   4.872   0.868  0.5926  0.1033  0.2919
 6490SOL    HW225726   3.054   4.807   0.924 -0.7367 -0.9542  0.1369
 6490SOL    HW325727   3.065   4.873   0.788  0.5626 -0.9289  0.2419
 6490SOL    MW425728   3.024   4.864   0.865  0.1074 -0.5500 -0.7138
 6491SOL     OW25729   4.677   4.302   0.252  0.1615  0.1849 -0.2623
 6491SOL    HW225730   4.725   4.238   0.200 -0.4699 -0.0088 -0.6102
 6491SOL    HW325731   4.684   4.383   0.202  0.0309  0.1330 -0.3621
 6491SOL    MW425732   4.684   4.304   0.239 -0.1861 -0.0591  0.2172
 6492SOL     OW25733   3.934   2.680   4.798 -0.3889  0.2674 -0.1215
 6492SOL    HW225734   3.948   2.675   4.704  0.6436  0.5394  0.0109
 6492SOL    HW325735   3.885   2.762   4.811 -1.1648 -0.1290 -0.4803
 6492SOL    MW425736   3.929   2.690   4.788 -0.4722  0.3168  0.5794
 6493SOL     OW25737   3.774   4.168   4.222 -0.3377 -0.7586  0.3072
 6493SOL    HW225738   3.808   4.151   4.310 -2.1189 -1.1371  0.9645
 6493SOL    HW325739   3.749   4.261   4.224 -0.3146 -0.7490  0.1580
 6493SOL    MW425740   3.775   4.178   4.234  0.3246 -0.4386 -0.3733
 6494SOL     OW25741   2.431   0.702   5.874 -0.1541  0.5529 -0.0167
 6494SOL    HW225742   2.472   0.665   5.952 -2.0185  0.8418  1.1425
 6494SOL    HW325743   2.338   0.685   5.885 -0.6546  2.1954 -1.2994
 6494SOL    MW425744   2.424   0.695   5.886 -0.4517  0.5710  0.1550
 6495SOL     OW25745   2.002   4.500   5.772  0.6752 -0.1615 -0.1889
 6495SOL    HW225746   1.932   4.504   5.837 -0.6158 -0.3396 -1.5164
 6495SOL    HW325747   2.005   4.588   5.733  0.8068 -0.3084 -0.5193
 6495SOL    MW425748   1.993   4.512   5.775 -0.2421  0.2962 -0.9275
 6496SOL     OW25749   4.858   5.766   3.072  0.2637  0.5248  0.2971
 6496SOL    HW225750   4.869   5.737   2.982 -1.0294  0.2658  0.2040
 6496SOL    HW325751   4.891   5.856   3.072  2.7994 -0.3017  0.2251
 6496SOL    MW425752   4.864   5.774   3.060  0.3849 -0.3235 -0.3356
 6497SOL     OW25753   2.194   1.783   4.442  0.1477 -0.0284  0.3210
 6497SOL    HW225754   2.211   1.757   4.532  0.6885 -0.4092  0.1128
 6497SOL    HW325755   2.270   1.753   4.393 -0.7286 -1.0282 -0.4917
 6497SOL    MW425756   2.206   1.775   4.448 -0.0815 -0.0917  0.2959
 6498SOL     OW25757   3.840   2.325   1.395 -0.0339  0.2706 -0.4386
 6498SOL    HW225758   3.909   2.381   1.432 -0.6652 -0.0691  1.3519
 6498SOL    HW325759   3.810   2.373   1.317  1.0508  1.2480 -0.2867
 6498SOL    MW425760   3.845   2.339   1.389 -0.1194  0.0381  0.1583
 6499SOL     OW25761   0.334   1.879   1.704 -0.5793 -0.1083 -0.2654
 6499SOL    HW225762   0.346   1.804   1.646 -0.7501 -0.0871 -0.3298
 6499SOL    HW325763   0.336   1.955   1.647  0.4565  0.0027 -0.0919
 6499SOL    MW425764   0.336   1.879   1.689 -0.2491 -0.3042  0.0263
 6500SOL     OW25765   4.623   0.496   1.771 -0.1492 -0.7423 -0.1844
 6500SOL    HW225766   4.670   0.465   1.693 -0.8196 -0.2656 -0.7864
 6500SOL    HW325767   4.532   0.474   1.754 -0.5659  1.0288 -0.3824
 6500SOL    MW425768   4.617   0.489   1.758 -0.2210 -0.3116 -0.1123
 6501SOL     OW25769   2.718   4.248   4.255 -0.2600 -0.1044 -0.6481
 6501SOL    HW225770   2.758   4.242   4.168 -0.7187 -0.2612 -0.8487
 6501SOL    HW325771   2.671   4.332   4.254  0.8834  0.5726 -0.0587
 6501SOL    MW425772   2.717   4.258   4.244  0.0191 -0.9830 -0.1005
 6502SOL     OW25773   4.963   3.327   0.935  0.3346  0.3812  0.3742
 6502SOL    HW225774   4.870   3.338   0.950  0.2953  0.9524 -0.2118
 6502SOL    HW325775   4.983   3.239   0.967 -0.1140  0.7828  1.8283
 6502SOL    MW425776   4.954   3.317   0.941  0.4002 -0.0489  0.3838
 6503SOL     OW25777   6.325   3.931   2.142 -0.0507 -0.2144  0.6976
 6503SOL    HW225778   6.399   3.960   2.196  0.7643  0.8300 -0.8790
 6503SOL    HW325779   6.269   4.008   2.136  0.6699  0.2449 -1.1593
 6503SOL    MW425780   6.328   3.945   2.148 -0.1856 -0.4717  0.2294
 6504SOL     OW25781   0.928   2.539   5.599 -0.5419 -0.4727  0.0800
 6504SOL    HW225782   0.914   2.452   5.562  1.8591 -1.4418  1.2232
 6504SOL    HW325783   0.959   2.592   5.526  0.3554 -1.2708 -0.1325
 6504SOL    MW425784   0.930   2.534   5.585  0.2247 -0.1419  0.1450
 6505SOL     OW25785   2.575   2.605   3.691  0.2506 -0.1598 -0.0328
 6505SOL    HW225786   2.551   2.599   3.598  3.2173  1.1768 -1.0286
 6505SOL    HW325787   2.503   2.652   3.732  0.0598  1.6706 -2.2723
 6505SOL    MW425788   2.562   2.610   3.684 -0.1442  0.0877 -0.6235
 6506SOL     OW25789   3.221   4.242   2.845  0.1999  0.1999 -0.2399
 6506SOL    HW225790   3.125   4.245   2.854  0.2995  2.3959  0.6585
 6506SOL    HW325791   3.253   4.291   2.920  1.9082  2.2348 -2.1958
 6506SOL    MW425792   3.212   4.249   2.856  0.1687 -0.0721 -0.0158
 6507SOL     OW25793   3.989   4.832   6.138 -0.5405  0.5832  0.1137
 6507SOL    HW225794   4.013   4.924   6.153 -0.5629  1.0314 -2.2221
 6507SOL    HW325795   3.911   4.837   6.083  0.1813 -0.8237 -1.0806
 6507SOL    MW425796   3.982   4.845   6.133 -0.7029  0.0816  0.1188
 6508SOL     OW25797   2.257   2.019   6.108  0.4018 -0.3043 -0.2451
 6508SOL    HW225798   2.282   2.075   6.181  0.6170 -2.8693  1.7841
 6508SOL    HW325799   2.341   1.990   6.070  0.2923  0.8202 -1.3984
 6508SOL    MW425800   2.272   2.022   6.112  0.4386  1.1739  0.3632
 6509SOL     OW25801   3.364   5.536   0.059 -0.7995 -0.4360  0.2473
 6509SOL    HW225802   3.411   5.488  -0.009  1.1964  1.2500  0.3305
 6509SOL    HW325803   3.361   5.476   0.133 -0.1598 -1.1608 -0.2959
 6509SOL    MW425804   3.370   5.522   0.060  0.4771 -0.5554 -0.5279
 6510SOL     OW25805   4.967   3.340   5.741  0.5779  0.0406  0.0468
 6510SOL    HW225806   4.875   3.364   5.730  0.9867  1.2385 -0.9609
 6510SOL    HW325807   4.970   3.296   5.826 -1.1469 -1.2734 -0.5135
 6510SOL    MW425808   4.955   3.337   5.751  0.4275  0.5437  0.3319
 6511SOL     OW25809   4.839   5.797   1.152  0.3243  0.3951 -0.1271
 6511SOL    HW225810   4.833   5.839   1.066 -0.4224  0.1491 -0.2047
 6511SOL    HW325811   4.861   5.706   1.133  0.5631  0.4354 -0.0385
 6511SOL    MW425812   4.841   5.791   1.138  0.1257  0.3625 -0.4697
 6512SOL     OW25813   3.996   6.118   5.896 -0.2893  0.2374 -0.0429
 6512SOL    HW225814   4.020   6.199   5.941 -0.1911 -0.1190  0.5562
 6512SOL    HW325815   4.075   6.093   5.848  0.6423 -0.9541  1.9576
 6512SOL    MW425816   4.010   6.125   5.896  0.2373 -0.1276 -0.4671
 6513SOL     OW25817   4.461   2.063   4.590  0.2460  0.0742 -0.1153
 6513SOL    HW225818   4.376   2.105   4.594 -0.2356 -0.7640 -0.9728
 6513SOL    HW325819   4.482   2.042   4.681 -1.0803 -0.8749  0.0004
 6513SOL    MW425820   4.453   2.065   4.602 -0.2272 -0.1938 -0.3006
 6514SOL     OW25821   0.443   5.376   2.212  0.0458  0.6822  0.2736
 6514SOL    HW225822   0.462   5.376   2.118 -0.5613 -2.3814  0.0291
 6514SOL    HW325823   0.515   5.327   2.252 -1.9936 -2.3737  0.6195
 6514SOL    MW425824   0.455   5.369   2.205 -0.1833 -0.1550 -0.2022
 6515SOL     OW25825   3.410   0.761   1.460  0.4500  0.0570 -0.3458
 6515SOL    HW225826   3.435   0.740   1.370  0.6043  0.0694 -0.3058
 6515SOL    HW325827   3.480   0.724   1.514  0.3909  0.1056 -0.2346
 6515SOL    MW425828   3.422   0.753   1.455  0.1285 -0.0579  0.0975
 6516SOL     OW25829   0.063   3.252   5.985 -0.9438  0.2245  0.6106
 6516SOL    HW225830   0.129   3.266   5.917  1.0072  1.1980  2.5931
 6516SOL    HW325831   0.030   3.164   5.969 -1.7863  1.0051 -2.5564
 6516SOL    MW425832   0.067   3.243   5.974  0.0065  0.4627  0.1321
 6517SOL     OW25833   1.840   1.477   6.006 -0.5393  0.1424 -0.6305
 6517SOL    HW225834   1.862   1.388   5.978 -0.1761 -0.2845  0.9454
 6517SOL    HW325835   1.763   1.500   5.954 -0.8976 -1.2525 -0.7689
 6517SOL    MW425836   1.833   1.468   5.995  0.6436  0.1871  0.0086
 6518SOL     OW25837   5.062   2.464   5.676 -0.0404  0.0945  0.3152
 6518SOL    HW225838   5.097   2.416   5.601  2.8374 -0.1246  1.6637
 6518SOL    HW325839   5.127   2.533   5.692  0.6515 -1.2111  3.8582
 6518SOL    MW425840   5.075   2.467   5.668  0.0894 -0.2625  0.0220
 6519SOL     OW25841   5.127   0.169   4.384  0.1222 -0.6797  0.7054
 6519SOL    HW225842   5.181   0.097   4.417  0.7907 -0.4290  0.1688
 6519SOL    HW325843   5.190   0.234   4.354 -0.4704 -0.6189 -0.4558
 6519SOL    MW425844   5.142   0.168   4.385 -0.5988 -0.6071  0.3011
 6520SOL     OW25845   0.586   5.670   2.524  0.3895  0.7936 -0.2617
 6520SOL    HW225846   0.583   5.676   2.619 -0.5937  1.3585 -0.3121
 6520SOL    HW325847   0.494   5.663   2.498  0.6782  0.0449 -1.1386
 6520SOL    MW425848   0.573   5.670   2.533  0.0058 -0.2726  0.4284
 6521SOL     OW25849   6.325   1.694   5.600 -1.0414 -0.1556 -0.7657
 6521SOL    HW225850   6.260   1.708   5.669 -0.7984  0.5504 -0.6703
 6521SOL    HW325851   6.272   1.671   5.523 -1.2688 -1.6564 -0.1904
 6521SOL    MW425852   6.309   1.693   5.599  0.0166 -0.0216 -0.4893
 6522SOL     OW25853   2.695   0.576   1.760  0.1080  0.0287  0.0785
 6522SOL    HW225854   2.731   0.634   1.693 -0.2530  0.1665  0.0002
 6522SOL    HW325855   2.621   0.532   1.717  0.2698 -0.3624  0.1898
 6522SOL    MW425856   2.690   0.578   1.746  0.3339 -0.1649 -0.2095
 6523SOL     OW25857   6.078   0.177   0.675 -0.2545 -0.0049  0.3524
 6523SOL    HW225858   6.075   0.223   0.759 -2.0976 -0.2129  0.4296
 6523SOL    HW325859   6.000   0.123   0.674 -1.4261  1.5476 -2.3661
 6523SOL    MW425860   6.068   0.176   0.686  0.1174 -0.3802  0.0689
 6524SOL     OW25861   4.846   1.810   3.354  0.3928 -0.3293 -0.0357
 6524SOL    HW225862   4.763   1.850   3.379 -0.1628 -1.1277 -0.5702
 6524SOL    HW325863   4.859   1.740   3.418  0.9954  0.2156  0.4506
 6524SOL    MW425864   4.837   1.806   3.365  0.1142  0.3698  0.6588
 6525SOL     OW25865   2.587   6.266   2.653  0.6504  0.3732  0.0670
 6525SOL    HW225866   2.602   6.296   2.743  2.4515  0.0782 -0.0853
 6525SOL    HW325867   2.555   6.343   2.607 -1.0219  0.3348  1.1072
 6525SOL    MW425868   2.585   6.280   2.659  0.1012 -0.7431 -0.2845
 6526SOL     OW25869   1.376   5.435   3.572 -0.5368  0.2696  0.3652
 6526SOL    HW225870   1.425   5.354   3.585 -1.2684 -0.6508 -2.0133
 6526SOL    HW325871   1.423   5.500   3.625  1.9262 -1.0246 -0.0591
 6526SOL    MW425872   1.389   5.433   3.581 -0.1980  0.3046  0.2435
 6527SOL     OW25873   5.550   2.537   2.108  0.0053  0.1201  0.3879
 6527SOL    HW225874   5.473   2.571   2.154 -0.4374  0.5497 -0.6362
 6527SOL    HW325875   5.531   2.551   2.015  0.3531 -1.7783 -0.0262
 6527SOL    MW425876   5.537   2.543   2.102 -0.1761  0.5160  0.0095
 6528SOL     OW25877   2.038   2.356   6.284  0.5633  0.2637  0.0467
 6528SOL    HW225878   2.072   2.365   6.195  0.5120  0.3499  0.0357
 6528SOL    HW325879   1.953   2.313   6.274  0.2388  0.9055 -0.0070
 6528SOL    MW425880   2.031   2.351   6.271  0.0902 -0.2659  0.4161
 6529SOL     OW25881   4.996   6.107   5.292 -0.4033 -0.4029 -0.5336
 6529SOL    HW225882   4.938   6.175   5.323  0.5060  0.1076  0.0985
 6529SOL    HW325883   5.032   6.067   5.372  2.1634  1.0958 -0.8354
 6529SOL    MW425884   4.993   6.110   5.306  0.3432  0.2022  0.9069
 6530SOL     OW25885   3.336   0.004   6.383 -0.2466 -0.8928 -0.6922
 6530SOL    HW225886   3.416  -0.023   6.429  0.2519 -0.2306 -1.1674
 6530SOL    HW325887   3.365   0.026   6.294 -0.8621 -0.1112 -0.7097
 6530SOL    MW425888   3.350   0.003   6.377  0.1145  0.3179  0.2682
 6531SOL     OW25889   0.967   3.358   6.076 -0.2935 -0.4514  0.1335
 6531SOL    HW225890   0.875   3.383   6.074  0.3002  2.1354  1.3978
 6531SOL    HW325891   0.971   3.287   6.141 -1.1863  0.5662  1.3454
 6531SOL    MW425892   0.956   3.352   6.085  0.6099 -0.2266 -0.0627
 6532SOL     OW25893   5.950   5.220   5.806  0.0715 -0.3612  0.1206
 6532SOL    HW225894   6.007   5.282   5.761  1.3568 -0.8589  0.9971
 6532SOL    HW325895   5.926   5.156   5.739  0.5987 -0.1700 -0.2594
 6532SOL    MW425896   5.954   5.219   5.791 -0.1862  0.3177  0.0926
 6533SOL     OW25897   3.033   5.190   2.937 -0.2116 -0.7189  0.5777
 6533SOL    HW225898   3.116   5.173   2.980 -0.1556  1.8516  1.7150
 6533SOL    HW325899   3.056   5.208   2.846  0.6247  0.5879  1.0127
 6533SOL    MW425900   3.047   5.190   2.930 -0.1465  0.6822 -0.0887
 6534SOL     OW25901   2.206   1.069   2.214 -0.2261 -0.1564 -0.0215
 6534SOL    HW225902   2.238   1.042   2.128 -0.2528  0.1071 -0.1150
 6534SOL    HW325903   2.179   0.987   2.257  0.5391 -0.3767  0.0454
 6534SOL    MW425904   2.207   1.054   2.208  0.3666 -0.0763  0.7746
 6535SOL     OW25905   2.756   3.492   5.601 -0.0054  0.0677 -0.7086
 6535SOL    HW225906   2.679   3.449   5.564  0.2266 -0.0029 -1.1104
 6535SOL    HW325907   2.829   3.463   5.546  0.0482  1.5704 -1.4658
 6535SOL    MW425908   2.756   3.482   5.589 -0.6497 -0.0969 -0.5379
 6536SOL     OW25909   4.764   1.434   6.330  0.3391  0.2930 -0.2182
 6536SOL    HW225910   4.714   1.400   6.256  1.7816  1.1021 -1.6290
 6536SOL    HW325911   4.727   1.521   6.347  0.0937  0.1602 -0.0670
 6536SOL    MW425912   4.753   1.441   6.323  0.3339 -0.3000  0.0494
 6537SOL     OW25913   0.026   1.229   2.913 -0.2780  0.4321  0.1849
 6537SOL    HW225914   0.014   1.161   2.847 -0.6242  0.5403  0.1346
 6537SOL    HW325915   0.105   1.275   2.887 -1.0059  1.1795 -0.7819
 6537SOL    MW425916   0.035   1.226   2.901 -0.1690  0.4231 -0.4807
 6538SOL     OW25917   0.725   4.529   4.011 -0.2173  0.3447 -0.7470
 6538SOL    HW225918   0.651   4.589   4.001 -0.1700  0.4450 -0.4946
 6538SOL    HW325919   0.715   4.466   3.939 -0.9577 -0.0768 -0.2835
 6538SOL    MW425920   0.714   4.528   4.000 -0.3043 -0.2378  0.0973
 6539SOL     OW25921   0.493   6.398   0.651 -0.3286 -0.4423 -0.5984
 6539SOL    HW225922   0.521   6.446   0.729  0.4242 -0.7697 -0.6585
 6539SOL    HW325923   0.397   6.403   0.653 -0.3206 -0.4894  0.3749
 6539SOL    MW425924   0.484   6.405   0.662 -0.2550  0.0931 -0.2807
 6540SOL     OW25925   5.542   5.277   1.557  0.2250 -0.1088  0.3408
 6540SOL    HW225926   5.501   5.193   1.542  0.5790  0.0007 -1.4161
 6540SOL    HW325927   5.585   5.268   1.643 -3.7063 -0.0557  2.5360
 6540SOL    MW425928   5.542   5.265   1.566 -0.4066 -0.2460  0.0667
 6541SOL     OW25929   5.226   4.849   4.065  0.0116 -0.0457 -0.2972
 6541SOL    HW225930   5.254   4.780   4.125  0.2397 -1.1493 -1.6330
 6541SOL    HW325931   5.291   4.849   3.995 -1.1294  0.0721 -1.3984
 6541SOL    MW425932   5.238   4.840   4.063 -0.0519  0.5449  0.3002
 6542SOL     OW25933   1.660   1.114   2.670 -0.1758  0.3844 -0.3839
 6542SOL    HW225934   1.613   1.031   2.666  1.3136 -0.4669 -0.9301
 6542SOL    HW325935   1.616   1.170   2.606 -1.3066  0.0907  0.1237
 6542SOL    MW425936   1.648   1.111   2.661 -0.1570  0.0989 -0.7136
 6543SOL     OW25937   5.897   1.936   0.819  0.1450  0.0246 -0.2762
 6543SOL    HW225938   5.866   1.924   0.909  0.0685  1.0243 -0.1576
 6543SOL    HW325939   5.899   1.848   0.782  1.3397 -0.5653  1.0771
 6543SOL    MW425940   5.893   1.923   0.826 -0.1327 -0.4439 -0.4341
 6544SOL     OW25941   0.608   3.364   2.816  0.1937 -0.2969 -0.1752
 6544SOL    HW225942   0.579   3.445   2.774  0.0933 -0.5172 -0.5282
 6544SOL    HW325943   0.625   3.390   2.907 -0.7273 -0.0823 -0.0534
 6544SOL    MW425944   0.607   3.378   2.823 -0.3723  0.0074 -0.2344
 6545SOL     OW25945   4.298   1.777   3.140 -0.7345 -0.1093  0.5430
 6545SOL    HW225946   4.391   1.791   3.161 -0.3673  0.5369 -1.3127
 6545SOL    HW325947   4.264   1.865   3.120 -0.7317 -0.6643 -2.4316
 6545SOL    MW425948   4.306   1.791   3.140 -0.1198 -0.3880  0.2328
 6546SOL     OW25949   1.076   1.429   0.995  0.2270  0.4114 -0.8184
 6546SOL    HW225950   1.122   1.486   1.056  0.4255 -2.5428  2.0548
 6546SOL    HW325951   0.990   1.469   0.985  1.4045  2.9373 -1.6728
 6546SOL    MW425952   1.071   1.441   1.002  0.3855  0.6652  0.3047
 6547SOL     OW25953   0.516   4.065   3.148  0.1248  0.6014 -0.0584
 6547SOL    HW225954   0.425   4.060   3.118  0.0814  0.1052  0.1402
 6547SOL    HW325955   0.517   4.139   3.209 -0.5698 -0.4566  1.3091
 6547SOL    MW425956   0.504   4.074   3.152 -0.2364  0.0017  0.0531
 6548SOL     OW25957   2.256   2.536   3.448 -0.0453 -0.1319  0.2465
 6548SOL    HW225958   2.294   2.498   3.528  0.4061 -2.1246 -0.8567
 6548SOL    HW325959   2.329   2.582   3.407 -0.1316  0.3956  0.6732
 6548SOL    MW425960   2.271   2.537   3.453  0.1350  0.7385  0.5478
 6549SOL     OW25961   4.526   3.260   1.411 -0.1699 -0.1367  0.1098
 6549SOL    HW225962   4.461   3.287   1.346 -0.0586  0.1507  0.1161
 6549SOL    HW325963   4.478   3.204   1.472 -0.4740  0.2929  0.2678
 6549SOL    MW425964   4.511   3.256   1.410  0.1435 -0.0047 -0.1240
 6550SOL     OW25965   4.666   5.606   0.872  0.2717  0.4196  0.1782
 6550SOL    HW225966   4.582   5.579   0.910  1.0057 -1.2731  0.6685
 6550SOL    HW325967   4.674   5.556   0.791  1.4352 -0.5422  0.8561
 6550SOL    MW425968   4.656   5.596   0.867 -0.4383 -0.1088  0.2630
 6551SOL     OW25969   4.043   2.315   2.299 -0.9019  0.5835  0.5960
 6551SOL    HW225970   3.971   2.258   2.272 -0.6871  0.4506  0.2874
 6551SOL    HW325971   4.098   2.322   2.220 -0.2270  0.1476  1.0225
 6551SOL    MW425972   4.041   2.309   2.285 -0.1856 -0.1331 -0.2734
 6552SOL     OW25973   4.668   1.761   2.181  0.6634  0.0019 -0.1509
 6552SOL    HW225974   4.667   1.809   2.264 -0.9448 -1.6684  0.8698
 6552SOL    HW325975   4.739   1.698   2.190  2.5465  1.7925 -1.3575
 6552SOL    MW425976   4.677   1.759   2.193  0.8032 -0.0587  0.3815
 6553SOL     OW25977   2.625   2.269   3.373 -0.2040 -0.0201  0.1035
 6553SOL    HW225978   2.531   2.263   3.356 -0.2193  0.1972  0.1093
 6553SOL    HW325979   2.657   2.179   3.360 -0.2189  0.1254 -1.0267
 6553SOL    MW425980   2.616   2.256   3.369  0.1184 -0.0456 -0.1194
 6554SOL     OW25981   3.743   5.613   4.942 -0.0372 -0.2284 -0.0105
 6554SOL    HW225982   3.679   5.664   4.992  0.0673 -0.3380  0.2336
 6554SOL    HW325983   3.691   5.544   4.901  0.0480 -0.8339  0.8752
 6554SOL    MW425984   3.727   5.610   4.943  0.2682  0.5029  0.0209
 6555SOL     OW25985   4.482   2.081   2.799 -0.0734 -0.1138 -0.7085
 6555SOL    HW225986   4.470   2.000   2.847  2.8231 -1.0673 -1.3447
 6555SOL    HW325987   4.572   2.108   2.821 -0.8808  2.8525 -0.6506
 6555SOL    MW425988   4.493   2.074   2.808  0.0466  0.2853  0.1945
 6556SOL     OW25989   1.858   2.402   0.715 -0.5560  0.5772 -0.2286
 6556SOL    HW225990   1.786   2.452   0.754 -0.4054  0.4007  0.2851
 6556SOL    HW325991   1.842   2.312   0.743  0.0668  0.5941  0.2004
 6556SOL    MW425992   1.846   2.397   0.724  0.3556 -0.5270 -0.3877
 6557SOL     OW25993   6.027   2.601   2.028 -0.1775 -0.4222  0.6481
 6557SOL    HW225994   5.963   2.652   1.978 -0.8983 -1.8977 -0.0032
 6557SOL    HW325995   6.095   2.663   2.051 -0.2449  0.5052 -1.4567
 6557SOL    MW425996   6.028   2.616   2.024 -0.4535 -0.4927  0.5297
 6558SOL     OW25997   6.382   3.963   3.511  0.0638 -0.4686  0.0253
 6558SOL    HW225998   6.422   3.979   3.597  2.4429 -1.5221 -0.8009
 6558SOL    HW325999   6.414   3.876   3.486 -0.5206 -0.1634 -1.9546
 6558SOL    MW426000   6.392   3.953   3.519  0.2107  0.5798 -0.1823
 6559SOL     OW26001   5.442   2.436   2.419 -0.3411  0.4748 -0.1808
 6559SOL    HW226002   5.435   2.388   2.337 -1.0261  0.1940  0.0403
 6559SOL    HW326003   5.515   2.394   2.465 -0.7800 -0.1991 -0.0908
 6559SOL    MW426004   5.451   2.424   2.414 -0.0446  0.2123 -0.1120
 6560SOL     OW26005   6.111   5.521   1.298  0.7895  0.6591 -0.1504
 6560SOL    HW226006   6.131   5.442   1.250  0.5951 -0.3958  1.4182
 6560SOL    HW326007   6.101   5.589   1.231 -0.1745 -0.8611 -1.6087
 6560SOL    MW426008   6.112   5.520   1.283  0.3720  0.0463  0.1609
 6561SOL     OW26009   3.200   5.180   4.460  0.5487 -0.3665 -0.0963
 6561SOL    HW226010   3.138   5.162   4.389 -0.9064  2.8403  0.1697
 6561SOL    HW326011   3.265   5.239   4.421 -0.1277  1.2296  1.0975
 6561SOL    MW426012   3.200   5.185   4.445  0.1973 -0.2046 -0.2000
 6562SOL     OW26013   3.375   5.840   4.723 -0.5154  0.4917 -0.4762
 6562SOL    HW226014   3.419   5.887   4.793  1.1912 -0.1212 -1.0766
 6562SOL    HW326015   3.436   5.844   4.649 -0.8639 -1.5443 -0.9348
 6562SOL    MW426016   3.389   5.847   4.722  0.1053 -0.0462  0.2655
 6563SOL     OW26017   0.836   6.006   6.240  0.5232 -0.7528 -0.3929
 6563SOL    HW226018   0.756   6.037   6.197 -1.0418 -1.7005  1.5942
 6563SOL    HW326019   0.843   6.060   6.319  0.1149 -2.5483  0.9522
 6563SOL    MW426020   0.826   6.017   6.245 -0.3160 -0.2164  0.2699
 6564SOL     OW26021   6.132   1.110   1.733  0.3659  0.1978  0.0155
 6564SOL    HW226022   6.187   1.129   1.656 -0.2582  0.7089 -0.3155
 6564SOL    HW326023   6.186   1.137   1.808  1.1561 -0.7236 -0.2050
 6564SOL    MW426024   6.147   1.116   1.733 -0.1178 -0.6898  0.0009
 6565SOL     OW26025   1.600   4.326   3.353 -0.4115 -0.2540  0.0877
 6565SOL    HW226026   1.577   4.416   3.329  2.5651  0.7094  0.3659
 6565SOL    HW326027   1.560   4.313   3.439 -0.1416  1.2055  0.4747
 6565SOL    MW426028   1.592   4.336   3.361  0.0363  0.2083  0.6849
 6566SOL     OW26029   2.807   1.007   4.509 -0.5203  0.1490  0.5648
 6566SOL    HW226030   2.901   0.988   4.505 -0.3168  1.1687  0.2696
 6566SOL    HW326031   2.802   1.099   4.535 -1.4414  0.1324  0.4840
 6566SOL    MW426032   2.819   1.016   4.512 -0.0158 -0.1300 -0.3867
 6567SOL     OW26033   3.129   4.073   4.029 -0.0263 -0.3035  0.9934
 6567SOL    HW226034   3.156   4.133   4.099  2.6628  0.7544 -0.7673
 6567SOL    HW326035   3.188   3.998   4.037  1.6195  0.6539 -1.1059
 6567SOL    MW426036   3.141   4.071   4.039 -0.5087 -0.6009 -0.1953
 6568SOL     OW26037   2.492   2.821   4.713  0.3799  0.3416 -0.5850
 6568SOL    HW226038   2.458   2.797   4.627  0.3932  0.6391 -0.6753
 6568SOL    HW326039   2.431   2.887   4.746 -2.2237 -2.8477  1.5681
 6568SOL    MW426040   2.480   2.826   4.706  0.6998  0.5129 -0.2365
 6569SOL     OW26041   0.114   5.050   4.792 -0.6641  0.1033  0.0649
 6569SOL    HW226042   0.188   5.106   4.815 -0.9819  0.7545 -0.4961
 6569SOL    HW326043   0.081   5.084   4.709 -1.4524 -0.3223  0.1864
 6569SOL    MW426044   0.119   5.062   4.784 -0.0950 -0.0903  0.4164
 6570SOL     OW26045   4.681   5.177   1.135  0.2287  0.0995 -0.5309
 6570SOL    HW226046   4.641   5.145   1.215  1.8521 -1.1871 -0.1779
 6570SOL    HW326047   4.608   5.208   1.082 -0.9164  0.5818  1.2531
 6570SOL    MW426048   4.666   5.177   1.139 -0.4714 -0.4824 -0.1902
 6571SOL     OW26049   3.465   4.404   2.397  0.1246 -0.8754 -0.2568
 6571SOL    HW226050   3.463   4.493   2.363  0.2193 -0.2265  1.3226
 6571SOL    HW326051   3.464   4.348   2.320 -3.5575  0.3677 -1.3038
 6571SOL    MW426052   3.465   4.409   2.382  0.0193 -0.2363  0.9265
 6572SOL     OW26053   6.000   1.841   1.297 -0.1097  0.3400 -0.9054
 6572SOL    HW226054   6.035   1.838   1.208  0.2105  2.0876 -0.8740
 6572SOL    HW326055   6.076   1.824   1.353  0.1891  1.5376 -0.9197
 6572SOL    MW426056   6.015   1.838   1.293 -0.4061  0.1715 -0.0104
 6573SOL     OW26057   5.978   5.770   3.588 -0.6420  0.3258 -0.4410
 6573SOL    HW226058   5.891   5.733   3.577 -1.6202  2.7417 -1.4478
 6573SOL    HW326059   5.970   5.827   3.664  0.7159 -1.0447  0.8127
 6573SOL    MW426060   5.966   5.773   3.597  0.1523  0.1468  0.6305
 6574SOL     OW26061   5.369   6.220   6.179  0.3750 -0.5836  0.1086
 6574SOL    HW226062   5.421   6.206   6.258 -0.9645 -0.2385  1.0655
 6574SOL    HW326063   5.306   6.148   6.178 -0.2079 -0.0763 -0.1555
 6574SOL    MW426064   5.368   6.209   6.189 -0.4118 -0.0202 -0.1413
 6575SOL     OW26065   5.735   2.314   5.738  0.5016  0.2693  0.3680
 6575SOL    HW226066   5.817   2.268   5.760  0.7012  0.1566 -0.5827
 6575SOL    HW326067   5.700   2.341   5.823  1.3204 -0.0359  0.8192
 6575SOL    MW426068   5.741   2.311   5.752  0.5495  0.5496  0.4043
 6576SOL     OW26069   3.361   3.290   5.650 -0.3512  0.9171  0.0418
 6576SOL    HW226070   3.415   3.211   5.649  0.3123  1.3465 -1.4823
 6576SOL    HW326071   3.305   3.282   5.573 -0.1579  1.9918 -0.2296
 6576SOL    MW426072   3.361   3.279   5.640  0.1977  0.4077  0.0833
 6577SOL     OW26073   6.399   5.619   2.544  0.7808 -0.2413  0.1562
 6577SOL    HW226074   6.405   5.701   2.496  0.9435 -1.1175 -1.4054
 6577SOL    HW326075   6.432   5.639   2.632  0.2940  1.4621 -0.0128
 6577SOL    MW426076   6.404   5.632   2.549 -0.0366 -0.2352 -0.2023
 6578SOL     OW26077   2.172   1.575   0.214  0.6934 -0.4139  0.0169
 6578SOL    HW226078   2.254   1.526   0.218  1.6974  1.2939  1.6780
 6578SOL    HW326079   2.188   1.654   0.266 -1.9434  0.0731  0.2308
 6578SOL    MW426080   2.185   1.579   0.221  0.3122 -0.0321  0.4444
 6579SOL     OW26081   5.192   6.098   3.128 -0.0208 -0.3958 -0.3752
 6579SOL    HW226082   5.249   6.167   3.162  1.4214 -2.2714  1.2535
 6579SOL    HW326083   5.251   6.039   3.080 -0.3859 -2.5581  1.6166
 6579SOL    MW426084   5.207   6.099   3.127 -0.2901 -0.6166  0.3733
 6580SOL     OW26085   5.660   4.878   1.269  0.0966  0.4304  0.7255
 6580SOL    HW226086   5.735   4.914   1.318 -0.5616  1.3105  1.1088
 6580SOL    HW326087   5.674   4.783   1.271  2.3690  0.6414 -1.0863
 6580SOL    MW426088   5.672   4.870   1.276 -1.0073 -0.0458  0.2579
 6581SOL     OW26089   1.473   5.575   3.365  0.3871 -0.0239  0.1805
 6581SOL    HW226090   1.436   5.512   3.427  1.7647  1.7385  3.0239
 6581SOL    HW326091   1.564   5.549   3.356  1.3379  2.0731  2.4215
 6581SOL    MW426092   1.480   5.563   3.372  0.4092  0.4299  0.0292
 6582SOL     OW26093   0.810   1.528   0.998  0.7170 -0.2951 -0.9226
 6582SOL    HW226094   0.796   1.575   1.080  0.1033 -1.0842 -0.5579
 6582SOL    HW326095   0.744   1.563   0.939  1.4442  0.5874 -1.2276
 6582SOL    MW426096   0.800   1.539   1.001 -0.2224  0.0793  0.3395
 6583SOL     OW26097   4.976   0.815   5.496  0.2005 -0.5598 -0.0104
 6583SOL    HW226098   4.924   0.769   5.430 -2.0759  0.5909  0.8740
 6583SOL    HW326099   4.944   0.905   5.493  0.5228 -0.3306  2.1702
 6583SOL    MW426100   4.965   0.821   5.487  0.2329 -0.2903  0.5646
 6584SOL     OW26101   0.700   2.816   4.671 -0.0275  0.3758 -0.7373
 6584SOL    HW226102   0.639   2.889   4.688  0.7554  0.6915  0.9378
 6584SOL    HW326103   0.745   2.841   4.591 -1.2478  0.7087 -1.3501
 6584SOL    MW426104   0.698   2.829   4.663 -0.6808  0.7458 -0.2304
 6585SOL     OW26105   5.312   1.305   2.759  0.2857 -0.1344 -0.5466
 6585SOL    HW226106   5.403   1.335   2.767  0.7933 -1.3039 -1.5845
 6585SOL    HW326107   5.284   1.292   2.850  1.5860 -0.9147 -0.2094
 6585SOL    MW426108   5.321   1.307   2.772 -1.0472 -0.5749 -0.1911
 6586SOL     OW26109   5.098   2.328   0.290 -0.1201  0.4758  0.3891
 6586SOL    HW226110   5.151   2.392   0.338  0.3039  1.1055 -0.8713
 6586SOL    HW326111   5.147   2.246   0.298  0.0518  0.6167  0.8418
 6586SOL    MW426112   5.111   2.326   0.298  0.0783 -0.0454 -0.1468
 6587SOL     OW26113   0.268   3.070   2.866 -0.0028  0.0087  0.2222
 6587SOL    HW226114   0.337   3.031   2.812 -1.2177 -1.7343 -0.1422
 6587SOL    HW326115   0.253   3.156   2.826 -2.5003 -2.0329 -3.9288
 6587SOL    MW426116   0.275   3.076   2.853 -0.9993 -0.2435  0.3635
 6588SOL     OW26117   1.229   4.826   0.819 -0.0917 -0.5745  0.8128
 6588SOL    HW226118   1.192   4.794   0.737  0.5191  0.3863  0.1325
 6588SOL    HW326119   1.306   4.877   0.792 -0.3558  0.4551  1.9167
 6588SOL    MW426120   1.234   4.828   0.805 -0.4455  0.5475  0.0661
 6589SOL     OW26121   1.618   1.566   4.407 -0.0662  0.3741 -0.5019
 6589SOL    HW226122   1.557   1.494   4.422 -0.0104 -0.0941 -2.3487
 6589SOL    HW326123   1.699   1.538   4.450 -0.4931  0.0298  0.0960
 6589SOL    MW426124   1.621   1.553   4.415  0.0822 -0.4838 -0.1983
 6590SOL     OW26125   0.678   5.018   0.639  0.1046  0.7494 -0.9178
 6590SOL    HW226126   0.638   4.953   0.583 -0.6331  0.2956  0.1094
 6590SOL    HW326127   0.772   5.014   0.618  0.0204 -0.4097 -1.0900
 6590SOL    MW426128   0.685   5.009   0.629  0.0538  0.4928  0.4219
 6591SOL     OW26129   3.176   3.548   2.326  0.6908 -0.0664 -0.4998
 6591SOL    HW226130   3.090   3.569   2.290  0.8119  1.2328 -0.0719
 6591SOL    HW326131   3.162   3.540   2.420  1.2726  1.5991 -0.2419
 6591SOL    MW426132   3.163   3.550   2.334 -0.0744  0.1960 -0.3077
 6592SOL     OW26133   1.837   5.385   6.181  0.2582  0.5460  0.1025
 6592SOL    HW226134   1.823   5.322   6.252  1.7220  0.8526  0.7039
 6592SOL    HW326135   1.791   5.348   6.106 -0.5190 -0.2658  0.9600
 6592SOL    MW426136   1.829   5.372   6.180 -0.3075  0.3097  0.4440
 6593SOL     OW26137   4.784   1.230   2.730 -0.5213  0.2908  0.1322
 6593SOL    HW226138   4.811   1.141   2.709  0.1920  0.5445 -0.0765
 6593SOL    HW326139   4.734   1.259   2.654  0.3363  0.5050 -0.3610
 6593SOL    MW426140   4.781   1.222   2.717 -0.0681 -0.9629 -0.0356
 6594SOL     OW26141   1.073   3.584   4.732  0.4130  0.0145 -0.0593
 6594SOL    HW226142   1.094   3.503   4.779  0.7162 -0.1639 -0.5009
 6594SOL    HW326143   1.073   3.559   4.640  1.7272  0.7720 -0.2938
 6594SOL    MW426144   1.076   3.570   4.726  0.0696  0.1510 -0.3033
 6595SOL     OW26145   5.951   1.139   0.235  0.5760 -0.1586 -0.0995
 6595SOL    HW226146   5.959   1.074   0.305 -1.4872 -1.8823 -1.3435
 6595SOL    HW326147   5.985   1.220   0.273  0.2051 -1.1908  2.6349
 6595SOL    MW426148   5.957   1.141   0.249  0.1749 -0.0693  0.4425
 6596SOL     OW26149   0.434   0.225   3.260  0.2150 -0.3282  0.4713
 6596SOL    HW226150   0.452   0.131   3.257  2.5037  0.0217  1.1023
 6596SOL    HW326151   0.340   0.233   3.246  0.1203 -2.6478 -0.4724
 6596SOL    MW426152   0.424   0.214   3.258  0.8893  0.2202 -0.2037
 6597SOL     OW26153   1.625   1.476   4.691  0.1493 -0.6758 -0.1113
 6597SOL    HW226154   1.638   1.395   4.642  0.4006 -0.8758  0.2767
 6597SOL    HW326155   1.651   1.454   4.780 -0.3223 -0.3226  0.1164
 6597SOL    MW426156   1.630   1.463   4.696  0.2754 -0.2241 -0.2493
 6598SOL     OW26157   0.357   0.710   4.584 -0.1361  0.2884  0.0381
 6598SOL    HW226158   0.287   0.729   4.522 -1.7562 -1.4932  1.2259
 6598SOL    HW326159   0.398   0.630   4.551  0.3989  0.5133  0.1408
 6598SOL    MW426160   0.353   0.702   4.571  0.2305 -0.0691  0.1532
 6599SOL     OW26161   3.185   5.086   1.590  0.1062 -0.1179 -0.2049
 6599SOL    HW226162   3.232   5.052   1.514  0.1475  0.7223 -0.5647
 6599SOL    HW326163   3.152   5.008   1.635  0.0046 -0.6255 -1.1360
 6599SOL    MW426164   3.187   5.071   1.586 -0.2271  0.3259 -0.4477
 6600SOL     OW26165   2.527   6.361   6.131 -0.2434 -0.2675  0.2660
 6600SOL    HW226166   2.500   6.429   6.069 -0.6919 -0.7859 -0.1262
 6600SOL    HW326167   2.589   6.308   6.082  0.7921  0.3727  0.8641
 6600SOL    MW426168   2.531   6.363   6.116  0.2869  0.2203 -0.5359
 6601SOL     OW26169   0.805   3.178   0.183 -0.0045 -0.1952 -0.7661
 6601SOL    HW226170   0.745   3.247   0.152 -1.4372 -0.8286  0.4756
 6601SOL    HW326171   0.873   3.226   0.230 -0.9184  0.4180 -0.0177
 6601SOL    MW426172   0.806   3.194   0.185  0.2662  0.2481  0.4162
 6602SOL     OW26173   4.026   4.449   5.210  0.4719  0.2072 -0.3152
 6602SOL    HW226174   4.068   4.521   5.257 -1.3610 -0.4665  2.5893
 6602SOL    HW326175   3.935   4.477   5.199 -0.3032 -1.6027  0.9592
 6602SOL    MW426176   4.019   4.462   5.215 -0.1506 -0.1556  0.0136
 6603SOL     OW26177   6.230   2.236   4.025  0.3110  0.0184 -0.5037
 6603SOL    HW226178   6.269   2.298   4.086 -1.2492  0.8822 -0.3483
 6603SOL    HW326179   6.227   2.153   4.074 -0.3330  0.5420  0.3618
 6603SOL    MW426180   6.235   2.233   4.040  0.5465 -0.5333 -0.0828
 6604SOL     OW26181   4.152   2.090   0.487  0.4517 -0.6328 -0.5304
 6604SOL    HW226182   4.072   2.070   0.438 -0.5823 -0.4843  1.0451
 6604SOL    HW326183   4.157   2.022   0.554  0.0693  0.9632  1.1978
 6604SOL    MW426184   4.142   2.078   0.489 -0.3216  0.5611 -0.2972
 6605SOL     OW26185   2.201   0.258   5.004  0.1066 -0.5453 -0.0911
 6605SOL    HW226186   2.227   0.335   5.054  1.8583 -1.2755  0.1703
 6605SOL    HW326187   2.186   0.291   4.916  1.8066 -0.0322 -0.2192
 6605SOL    MW426188   2.202   0.272   4.999 -0.1201 -0.3797  0.4903
 6606SOL     OW26189   6.034   3.954   1.865  0.4139 -0.0989  0.3942
 6606SOL    HW226190   6.019   3.928   1.956 -1.7424 -0.0974  0.1042
 6606SOL    HW326191   5.947   3.948   1.824  1.4105 -0.5482 -1.7833
 6606SOL    MW426192   6.020   3.950   1.872  0.1736  0.0570 -0.4532
 6607SOL     OW26193   5.267   0.782   2.889 -0.6674  0.3483  0.5110
 6607SOL    HW226194   5.289   0.705   2.837 -0.7679 -0.2000  1.2691
 6607SOL    HW326195   5.350   0.828   2.901 -0.9870  1.8266 -2.1954
 6607SOL    MW426196   5.280   0.778   2.884  0.0689  0.1243  0.1358
 6608SOL     OW26197   3.885   1.985   0.025 -0.3874  0.1046 -0.0387
 6608SOL    HW226198   3.818   1.958  -0.038  0.1450 -1.5958  0.0760
 6608SOL    HW326199   3.940   1.907   0.037  0.8120  1.0487  0.8915
 6608SOL    MW426200   3.884   1.971   0.018  0.2168 -0.5063 -0.0008
 6609SOL     OW26201   2.774   1.414   5.506 -0.0181 -0.2551 -0.3065
 6609SOL    HW226202   2.736   1.326   5.516 -2.6737  0.9481  1.1167
 6609SOL    HW326203   2.706   1.465   5.464  0.8472  1.5415  0.3841
 6609SOL    MW426204   2.760   1.409   5.502 -1.0158 -0.2315  0.0715
 6610SOL     OW26205   4.933   4.833   2.685 -0.0552 -0.2283  0.5675
 6610SOL    HW226206   4.889   4.916   2.706 -1.2033 -0.2505 -1.4248
 6610SOL    HW326207   5.024   4.857   2.671 -0.0838  0.4373  1.4580
 6610SOL    MW426208   4.939   4.847   2.686  0.4648  0.5635  1.0451
 6611SOL     OW26209   3.007   6.369   5.649 -0.7807  0.2939  0.2333
 6611SOL    HW226210   3.047   6.438   5.595 -1.0727  0.8838  0.7549
 6611SOL    HW326211   3.000   6.294   5.590 -0.8658  0.8486 -0.4851
 6611SOL    MW426212   3.011   6.368   5.634 -0.6833 -0.1518  0.0892
 6612SOL     OW26213   3.186   0.393   3.785  0.7425  0.6064 -0.1750
 6612SOL    HW226214   3.101   0.348   3.779 -0.1455  2.1867  0.0200
 6612SOL    HW326215   3.238   0.355   3.714  0.2082 -1.0336  0.2628
 6612SOL    MW426216   3.181   0.382   3.774 -0.3269 -0.2109 -0.1569
 6613SOL     OW26217   0.820   3.266   1.521  0.2476  0.0172  1.2757
 6613SOL    HW226218   0.817   3.293   1.612  1.4159  0.6399  1.1459
 6613SOL    HW326219   0.812   3.347   1.471  0.2006 -0.2567  0.8315
 6613SOL    MW426220   0.818   3.280   1.526 -0.7155 -0.9966 -0.0032
 6614SOL     OW26221   0.225   6.121   2.557  0.3533 -0.1689  0.2388
 6614SOL    HW226222   0.186   6.201   2.592  1.1208  0.7646 -0.9679
 6614SOL    HW326223   0.186   6.110   2.471 -0.4203 -1.6257  0.7374
 6614SOL    MW426224   0.215   6.130   2.550  0.0113 -0.2599 -0.6672
 6615SOL     OW26225   5.143   3.819   5.375 -0.2687 -0.0415 -0.1449
 6615SOL    HW226226   5.192   3.858   5.448 -2.3477  2.0309  0.2480
 6615SOL    HW326227   5.076   3.765   5.418 -1.3313  0.9736 -0.4778
 6615SOL    MW426228   5.141   3.817   5.391  0.5476 -0.8592 -0.1992
 6616SOL     OW26229   3.690   2.381   5.413 -0.0774 -0.2452 -0.4698
 6616SOL    HW226230   3.672   2.424   5.329  0.1825  0.0268 -0.3875
 6616SOL    HW326231   3.731   2.297   5.388 -1.0245 -0.6722 -0.6434
 6616SOL    MW426232   3.693   2.375   5.398 -0.5167  0.5277 -0.5697
 6617SOL     OW26233   3.165   5.640   3.543 -0.1577 -0.0340 -0.4594
 6617SOL    HW226234   3.133   5.649   3.633  0.8097 -1.2640  0.0469
 6617SOL    HW326235   3.248   5.687   3.542 -0.1271 -0.0921 -0.6775
 6617SOL    MW426236   3.172   5.647   3.555 -0.4532 -0.1149  0.5865
 6618SOL     OW26237   5.255   3.284   0.065  0.8368 -0.0556 -0.1738
 6618SOL    HW226238   5.285   3.282   0.156  1.2401 -0.0925 -0.3045
 6618SOL    HW326239   5.332   3.258   0.014 -0.0307 -2.4523 -0.3742
 6618SOL    MW426240   5.269   3.281   0.070  0.0755 -1.0663  0.0059
 6619SOL     OW26241   3.370   0.899   5.051  0.0365  0.2229  0.0616
 6619SOL    HW226242   3.448   0.846   5.035 -0.0595  0.1501 -0.1776
 6619SOL    HW326243   3.299   0.835   5.059  0.3549  0.0921  2.7805
 6619SOL    MW426244   3.371   0.884   5.050 -0.5084 -0.4980  0.4265
 6620SOL     OW26245   2.287   0.967   1.955 -0.3548 -0.4116 -0.4349
 6620SOL    HW226246   2.256   0.880   1.930  1.2149 -0.6913 -1.5678
 6620SOL    HW326247   2.343   0.994   1.882 -1.5796  1.9857 -0.5714
 6620SOL    MW426248   2.290   0.959   1.942 -0.4778  0.7668  0.5683
 6621SOL     OW26249   4.093   4.996   0.146  0.0261  0.2640  0.3998
 6621SOL    HW226250   4.006   5.029   0.124 -0.3021  0.1411  1.4280
 6621SOL    HW326251   4.114   4.934   0.077 -1.0998 -0.3731  0.6083
 6621SOL    MW426252   4.085   4.992   0.134  0.2447  0.2112  0.5486
 6622SOL     OW26253   0.419   2.992   6.084 -0.0830  0.1788 -0.0117
 6622SOL    HW226254   0.475   3.057   6.042  0.6433  0.1254  0.8284
 6622SOL    HW326255   0.388   2.937   6.013  2.0945 -0.6609 -0.3790
 6622SOL    MW426256   0.422   2.993   6.069  0.6959  0.4662 -0.1750
 6623SOL     OW26257   5.544   3.852   3.692  0.1419  0.1176  0.4147
 6623SOL    HW226258   5.492   3.923   3.730  0.7883  1.0165 -0.3274
 6623SOL    HW326259   5.487   3.814   3.624 -0.5790 -0.7462  1.4716
 6623SOL    MW426260   5.530   3.857   3.688 -0.2490  0.0191 -0.5047
 6624SOL     OW26261   2.653   0.549   2.378  0.0510 -0.2686 -0.6454
 6624SOL    HW226262   2.660   0.502   2.294  1.7586 -1.5633  0.1620
 6624SOL    HW326263   2.703   0.496   2.440 -0.1354  1.2925  0.9362
 6624SOL    MW426264   2.661   0.536   2.375 -0.1460 -0.4846 -0.7027
 6625SOL     OW26265   1.517   1.711   3.760 -0.0663  0.1235  0.5717
 6625SOL    HW226266   1.448   1.654   3.796 -1.8067  0.9116 -1.3026
 6625SOL    HW326267   1.494   1.719   3.667  2.4649  0.6230 -0.0683
 6625SOL    MW426268   1.505   1.704   3.753 -0.2296  0.0821  0.2252
 6626SOL     OW26269   0.901   2.782   0.962 -0.5609  0.1520  0.8738
 6626SOL    HW226270   0.807   2.780   0.978 -0.6964 -2.7625  0.2309
 6626SOL    HW326271   0.909   2.779   0.867  0.2538  2.9665  0.7715
 6626SOL    MW426272   0.890   2.782   0.952  0.6949  0.1793 -0.3347
 6627SOL     OW26273   4.443   4.378   6.355 -0.0059 -0.4125  0.1517
 6627SOL    HW226274   4.442   4.397   6.449 -1.0266 -1.5800  0.4019
 6627SOL    HW326275   4.457   4.283   6.350 -0.2147 -0.3982 -0.8656
 6627SOL    MW426276   4.444   4.368   6.367 -0.0948  0.2525  0.2122
 6628SOL     OW26277   1.453   0.277   0.309 -0.6495 -0.2841  0.0455
 6628SOL    HW226278   1.442   0.369   0.334  0.3019 -0.1183 -0.1098
 6628SOL    HW326279   1.481   0.234   0.390 -0.8491 -0.3935  0.0572
 6628SOL    MW426280   1.455   0.284   0.323 -0.0031  0.0791 -0.5925
 6629SOL     OW26281   1.361   5.470   3.016 -0.6203 -0.0481  0.0235
 6629SOL    HW226282   1.315   5.518   2.947  3.0611  2.0144 -1.2983
 6629SOL    HW326283   1.334   5.514   3.097  0.2609  2.3427 -0.8786
 6629SOL    MW426284   1.351   5.482   3.018  0.7362  0.1326  0.3012
 6630SOL     OW26285   3.576   2.654   2.686 -0.2061 -0.0557 -0.5383
 6630SOL    HW226286   3.670   2.669   2.694 -0.6855  3.0033  0.6436
 6630SOL    HW326287   3.560   2.650   2.591  0.8414  1.9643 -0.8545
 6630SOL    MW426288   3.586   2.655   2.674  0.6903 -0.2758 -0.1003
 6631SOL     OW26289   5.800   2.592   2.434 -0.1656 -0.0292  0.1577
 6631SOL    HW226290   5.797   2.534   2.357 -1.0068 -2.1240  1.6651
 6631SOL    HW326291   5.833   2.675   2.400 -0.9627 -0.7102 -2.5556
 6631SOL    MW426292   5.804   2.595   2.419  0.1495  0.2374  0.7235
 6632SOL     OW26293   0.400   5.623   4.839 -0.6231  0.7709 -0.7378
 6632SOL    HW226294   0.414   5.529   4.823 -1.6562  0.7028 -1.3122
 6632SOL    HW326295   0.327   5.626   4.902  0.1081  1.1779  0.1154
 6632SOL    MW426296   0.392   5.611   4.845 -0.2977 -0.1561 -0.1602
 6633SOL     OW26297   0.981   0.114   2.646  0.3591  0.6106 -0.3881
 6633SOL    HW226298   1.044   0.044   2.635  2.0129  2.0105 -0.1868
 6633SOL    HW326299   0.968   0.121   2.741  1.0534  1.2817 -0.3338
 6633SOL    MW426300   0.987   0.106   2.657 -0.5950 -0.0588  0.2339
 6634SOL     OW26301   2.339   5.584   4.386 -0.2122 -0.0141 -0.3261
 6634SOL    HW226302   2.262   5.583   4.444  0.0390  1.2720  0.0840
 6634SOL    HW326303   2.356   5.678   4.373  0.5850 -0.2958 -1.3597
 6634SOL    MW426304   2.331   5.596   4.392 -0.1678 -0.0519 -0.3944
 6635SOL     OW26305   0.951   6.359   4.531 -0.4333 -0.4411  0.4477
 6635SOL    HW226306   0.889   6.331   4.463  0.1816 -3.2834  0.9382
 6635SOL    HW326307   1.027   6.391   4.483 -0.9151 -0.2348 -0.1844
 6635SOL    MW426308   0.953   6.360   4.516  0.0043 -0.1675  0.0505
 6636SOL     OW26309   0.836   4.113   4.365  0.1141  0.1870 -0.2464
 6636SOL    HW226310   0.913   4.064   4.334  0.0285  0.3935 -0.7933
 6636SOL    HW326311   0.788   4.135   4.285 -0.7427 -0.3055  0.1231
 6636SOL    MW426312   0.840   4.109   4.350 -0.3276  0.0677  0.5350
 6637SOL     OW26313   6.185   0.338   4.719 -0.0798  0.5887  0.2518
 6637SOL    HW226314   6.245   0.363   4.790 -0.1720  1.6305 -0.0113
 6637SOL    HW326315   6.198   0.406   4.652  0.1330 -0.4657 -0.8131
 6637SOL    MW426316   6.195   0.351   4.720 -0.2626 -0.6468  1.1901
 6638SOL     OW26317   3.609   0.769   4.896 -0.3860 -0.2821  0.1376
 6638SOL    HW226318   3.696   0.805   4.879  0.1553 -2.2702 -1.8649
 6638SOL    HW326319   3.563   0.779   4.812 -2.1338  0.7350  1.1602
 6638SOL    MW426320   3.614   0.775   4.882  0.1512  0.3675 -0.4099
 6639SOL     OW26321   5.770   6.022   2.323 -0.3206  0.3711  0.0864
 6639SOL    HW226322   5.733   6.064   2.401 -1.3862  0.2901 -0.3615
 6639SOL    HW326323   5.855   5.989   2.352  0.2542  2.2074  0.6506
 6639SOL    MW426324   5.776   6.023   2.337 -0.1461  0.0102 -0.0612
 6640SOL     OW26325   4.924   4.738   4.645  0.1901 -0.3840  0.0910
 6640SOL    HW226326   5.010   4.739   4.603  1.2738  1.6947  2.1353
 6640SOL    HW326327   4.885   4.822   4.622 -0.7920 -0.8163  0.1440
 6640SOL    MW426328   4.930   4.749   4.637  0.3862 -0.5205  0.2759
 6641SOL     OW26329   4.685   0.457   1.496  0.4988  0.0826 -0.1044
 6641SOL    HW226330   4.648   0.542   1.472 -0.4105 -1.2107 -4.3141
 6641SOL    HW326331   4.772   0.457   1.456  1.8250  0.0570  2.5829
 6641SOL    MW426332   4.692   0.468   1.487 -0.1128 -0.2937  0.0898
 6642SOL     OW26333   6.120   5.209   2.380 -0.7654 -0.2509  0.1191
 6642SOL    HW226334   6.163   5.257   2.451 -0.1594  0.1323 -0.4976
 6642SOL    HW326335   6.026   5.219   2.399 -0.6750  1.5210 -0.1911
 6642SOL    MW426336   6.113   5.217   2.392  0.0853  0.4966 -0.2063
 6643SOL     OW26337   5.215   1.800   5.419 -0.7112 -0.0755 -0.4214
 6643SOL    HW226338   5.279   1.770   5.483 -0.5837  1.4788  0.2276
 6643SOL    HW326339   5.249   1.885   5.390 -0.7040 -0.7688 -2.6512
 6643SOL    MW426340   5.228   1.807   5.424  0.7320 -0.3188  0.4521
 6644SOL     OW26341   2.236   5.550   3.006 -0.4778 -0.1355 -0.2468
 6644SOL    HW226342   2.149   5.589   2.998 -0.6729 -0.5501 -0.1573
 6644SOL    HW326343   2.262   5.567   3.096 -1.3867 -1.8906  0.3938
 6644SOL    MW426344   2.228   5.557   3.017 -0.7820  0.3734 -0.1144
 6645SOL     OW26345   2.961   4.429  -0.000 -0.1115 -0.1462 -0.1233
 6645SOL    HW226346   2.885   4.378  -0.029 -1.2807  0.7074  1.3108
 6645SOL    HW326347   2.932   4.520  -0.006  0.0202  0.1205  2.3856
 6645SOL    MW426348   2.947   4.434  -0.005  1.1581  0.0837 -0.0409
 6646SOL     OW26349   1.493   5.567   6.394  0.7791 -0.4217  0.4450
 6646SOL    HW226350   1.534   5.562   6.480  0.7528 -2.6071  0.3995
 6646SOL    HW326351   1.427   5.636   6.403  2.7831  1.5056  1.2131
 6646SOL    MW426352   1.490   5.575   6.406 -0.6787 -0.7918 -0.1895
 6647SOL     OW26353   0.100   5.960   4.000  0.1617 -0.0394 -0.0444
 6647SOL    HW226354   0.195   5.947   4.009  0.0399 -1.1933 -0.2158
 6647SOL    HW326355   0.064   5.872   4.009 -0.8876  0.3780 -0.1084
 6647SOL    MW426356   0.108   5.947   4.002 -0.5942  0.0725 -0.4594
 6648SOL     OW26357   0.382   2.482   0.319  0.1389  0.1490 -0.1726
 6648SOL    HW226358   0.306   2.498   0.264 -1.4999 -0.8748  1.6657
 6648SOL    HW326359   0.386   2.557   0.377 -0.9768 -0.8764  1.3009
 6648SOL    MW426360   0.373   2.494   0.319  0.3842 -0.0500  0.0218
 6649SOL     OW26361   5.556   6.294   2.946 -0.1547 -0.0325  0.1361
 6649SOL    HW226362   5.636   6.274   2.898 -1.1535 -2.0161 -0.8092
 6649SOL    HW326363   5.555   6.230   3.018 -1.0459 -0.2476 -0.0584
 6649SOL    MW426364   5.567   6.283   2.949 -0.4348  0.2533 -0.0530
 6650SOL     OW26365   3.710   5.644   5.347 -0.1464 -0.2934  0.0736
 6650SOL    HW226366   3.786   5.590   5.367  0.0668 -0.6429 -1.5473
 6650SOL    HW326367   3.691   5.691   5.429  3.2477  1.6270 -0.0709
 6650SOL    MW426368   3.717   5.643   5.361 -0.5070 -1.0735  0.0822
 6651SOL     OW26369   2.737   4.639   5.413  0.2211 -0.5184  0.1698
 6651SOL    HW226370   2.664   4.679   5.461  0.5351 -1.3955  1.4387
 6651SOL    HW326371   2.730   4.545   5.431  1.5605 -0.6430  0.1942
 6651SOL    MW426372   2.727   4.632   5.422  0.1116  0.1409 -0.1094
 6652SOL     OW26373   1.182   2.627   2.785  0.4425  0.0620 -0.0572
 6652SOL    HW226374   1.213   2.655   2.871 -0.6458  1.3174 -0.0430
 6652SOL    HW326375   1.089   2.606   2.798  0.1609  0.6375 -0.9868
 6652SOL    MW426376   1.174   2.628   2.798  0.3637  0.1566 -0.2775
 6653SOL     OW26377   5.643   1.184   1.273  0.3343 -0.2398  0.3256
 6653SOL    HW226378   5.556   1.199   1.237  0.0812 -2.7956 -0.3840
 6653SOL    HW326379   5.700   1.246   1.227 -0.5985 -0.8605 -1.7892
 6653SOL    MW426380   5.639   1.194   1.262  0.4716  0.1150  0.9234
 6654SOL     OW26381   4.725   4.953   4.602 -0.4843  0.2825  1.6000
 6654SOL    HW226382   4.630   4.963   4.602 -0.4465  0.8496  0.2808
 6654SOL    HW326383   4.758   5.040   4.578  0.2937 -0.2511  0.6351
 6654SOL    MW426384   4.717   4.966   4.599  0.4012  0.2151 -0.3544
 6655SOL     OW26385   5.643   2.251   4.407 -0.0369  0.1638  0.3329
 6655SOL    HW226386   5.712   2.199   4.364  0.4527  0.4827  0.7338
 6655SOL    HW326387   5.566   2.239   4.350  0.4582  0.1468 -0.3473
 6655SOL    MW426388   5.642   2.242   4.394 -0.5229 -0.3148 -0.8338
 6656SOL     OW26389   6.311   1.885   0.700  0.2291  0.0079 -0.0237
 6656SOL    HW226390   6.249   1.951   0.729  1.4933  0.8094  0.9625
 6656SOL    HW326391   6.313   1.893   0.605 -0.8512  0.2490 -0.0335
 6656SOL    MW426392   6.303   1.894   0.691  0.1765  0.3275  0.4616
 6657SOL     OW26393   5.759   2.411   1.716  0.2405  0.0984 -0.6149
 6657SOL    HW226394   5.772   2.465   1.638  1.0551  2.9729  1.3178
 6657SOL    HW326395   5.670   2.378   1.708  0.4809 -0.1623 -2.9787
 6657SOL    MW426396   5.749   2.414   1.705 -0.4114 -0.3838  0.2209
 6658SOL     OW26397   1.554   2.771   5.171  0.1994  0.1990  0.1356
 6658SOL    HW226398   1.530   2.679   5.184  0.3037  0.1854  0.2351
 6658SOL    HW326399   1.556   2.807   5.260 -0.5707  0.4791  0.0479
 6658SOL    MW426400   1.551   2.763   5.185  0.3947  0.3021 -0.4296
 6659SOL     OW26401   5.852   6.266   3.028  0.7625 -0.6204 -0.0346
 6659SOL    HW226402   5.889   6.285   2.942 -0.0563  0.0489 -0.2470
 6659SOL    HW326403   5.805   6.346   3.053  0.1484 -1.1552  0.5758
 6659SOL    MW426404   5.850   6.279   3.020  0.6054 -0.3371 -0.6046
 6660SOL     OW26405   1.116   4.307   3.336  0.2586  0.1844 -0.0862
 6660SOL    HW226406   1.200   4.288   3.377 -0.5776 -0.7281  1.2830
 6660SOL    HW326407   1.127   4.393   3.295  1.6347  0.3774  0.6664
 6660SOL    MW426408   1.128   4.316   3.336  0.0565 -0.7396 -0.2390
 6661SOL     OW26409   1.535   3.851   2.284  0.1650 -0.3622 -0.6516
 6661SOL    HW226410   1.482   3.771   2.278 -1.1842  0.4563 -0.1867
 6661SOL    HW326411   1.502   3.907   2.214  0.3649  0.1990 -0.3040
 6661SOL    MW426412   1.524   3.847   2.274  0.6718 -0.0373  0.1110
 6662SOL     OW26413   2.097   1.258   2.892 -0.4788  0.6358  0.2994
 6662SOL    HW226414   2.048   1.288   2.815 -0.6437  2.1783  0.9732
 6662SOL    HW326415   2.184   1.297   2.881  0.4337 -1.4568 -0.4971
 6662SOL    MW426416   2.102   1.268   2.880 -0.5967 -0.5260  0.3265
 6663SOL     OW26417   1.631   2.304   1.613 -0.4376 -0.2647  0.3206
 6663SOL    HW226418   1.654   2.218   1.647  1.4015  0.8208  2.0491
 6663SOL    HW326419   1.551   2.328   1.661 -1.3334 -1.2245 -0.6421
 6663SOL    MW426420   1.623   2.296   1.624  0.0277 -0.1113  0.0353
 6664SOL     OW26421   1.132   1.560   0.742 -0.4887  0.1803 -0.3770
 6664SOL    HW226422   1.086   1.516   0.671 -1.7333  3.1203 -1.5336
 6664SOL    HW326423   1.122   1.501   0.817 -1.2947 -1.8413 -1.9782
 6664SOL    MW426424   1.125   1.546   0.743 -0.5738 -0.2145 -0.6391
 6665SOL     OW26425   6.392   1.160   3.576  0.6763  0.1140 -0.1447
 6665SOL    HW226426   6.299   1.163   3.552  0.7407 -0.4000 -0.4593
 6665SOL    HW326427   6.433   1.226   3.520  0.4602  0.5469  0.1986
 6665SOL    MW426428   6.385   1.169   3.566 -0.0426  0.0581 -0.2026
 6666SOL     OW26429   5.549   6.218   4.577  0.2783  0.2408 -0.3693
 6666SOL    HW226430   5.538   6.255   4.664  0.0480  2.1693 -1.1631
 6666SOL    HW326431   5.623   6.158   4.585 -1.8248 -2.2744  1.9071
 6666SOL    MW426432   5.557   6.215   4.589  0.3089 -0.4314  0.1135
 6667SOL     OW26433   2.401   5.554   1.453 -0.4343 -0.1140  0.1830
 6667SOL    HW226434   2.467   5.523   1.515 -0.8044 -0.6802  0.3032
 6667SOL    HW326435   2.449   5.568   1.371 -0.1027 -0.1860  0.3644
 6667SOL    MW426436   2.416   5.552   1.450  0.1716  0.3644  0.3411
 6668SOL     OW26437   1.960   5.154   5.097  0.2103 -0.5895 -0.2594
 6668SOL    HW226438   2.041   5.106   5.115  1.8918  1.0360 -2.7434
 6668SOL    HW326439   1.959   5.223   5.164 -0.1651 -1.6917  0.9194
 6668SOL    MW426440   1.971   5.157   5.108 -0.4932 -0.5807 -0.3880
 6669SOL     OW26441   0.378   5.298   3.245  0.3999 -0.2201  0.2095
 6669SOL    HW226442   0.431   5.375   3.224 -0.1903 -0.2069 -1.3601
 6669SOL    HW326443   0.290   5.332   3.257  0.3885 -0.4849  0.9170
 6669SOL    MW426444   0.373   5.313   3.244  0.7869 -0.0856  0.3523
 6670SOL     OW26445   0.481   5.729   0.443  0.3458  0.0284 -0.6466
 6670SOL    HW226446   0.468   5.816   0.482  0.7387  1.9131 -4.3146
 6670SOL    HW326447   0.573   5.728   0.417  0.8636 -2.3376  0.9813
 6670SOL    MW426448   0.492   5.741   0.445  0.0747 -1.4594 -0.3454
 6671SOL     OW26449   2.704   3.376   0.031 -0.0679 -0.2614 -0.4568
 6671SOL    HW226450   2.799   3.377   0.042  0.0023  1.9585 -0.8880
 6671SOL    HW326451   2.677   3.293   0.071  2.2272 -2.0769 -2.3472
 6671SOL    MW426452   2.713   3.365   0.038 -0.5428 -0.0913 -0.1629
 6672SOL     OW26453   0.624   0.377   5.066  0.4563  0.2030  0.1585
 6672SOL    HW226454   0.705   0.368   5.017  1.9135 -0.8715  2.5834
 6672SOL    HW326455   0.648   0.357   5.157 -2.2914  0.9810  1.1648
 6672SOL    MW426456   0.638   0.373   5.072 -0.1782 -0.3064  0.6256
 6673SOL     OW26457   1.474   1.063   6.212 -0.0743  0.4483 -0.5005
 6673SOL    HW226458   1.463   1.027   6.300  0.1125 -0.6493 -0.9092
 6673SOL    HW326459   1.553   1.117   6.217 -1.4016  2.3908  0.5973
 6673SOL    MW426460   1.483   1.065   6.224 -0.2273 -0.4057  0.1777
 6674SOL     OW26461   2.666   0.656   4.340 -0.0949  0.1451  0.1699
 6674SOL    HW226462   2.648   0.750   4.332  2.1411  0.7334  1.2521
 6674SOL    HW326463   2.587   0.614   4.306 -0.7089  2.3938 -1.4513
 6674SOL    MW426464   2.653   0.663   4.334 -0.2685 -0.1667  0.5389
 6675SOL     OW26465   5.935   2.238   0.393  0.2563 -0.2109  0.0288
 6675SOL    HW226466   5.851   2.202   0.422 -0.4665  0.3391 -1.2836
 6675SOL    HW326467   5.984   2.162   0.362 -0.3077 -0.3726 -0.4791
 6675SOL    MW426468   5.930   2.223   0.393 -0.3659 -0.1978 -0.0449
 6676SOL     OW26469   0.782   0.201   1.165  0.0736 -0.5616 -0.4143
 6676SOL    HW226470   0.757   0.274   1.109 -2.6023 -1.4569 -0.5310
 6676SOL    HW326471   0.747   0.225   1.251  1.7934 -0.4144  0.2804
 6676SOL    MW426472   0.774   0.214   1.169  0.2750  0.2303 -0.1114
 6677SOL     OW26473   1.144   0.255   6.300  0.3732 -0.4294 -0.0009
 6677SOL    HW226474   1.111   0.345   6.295  3.1550  0.7069  0.1045
 6677SOL    HW326475   1.157   0.239   6.393  2.7334  0.3009 -0.1292
 6677SOL    MW426476   1.141   0.265   6.311 -0.9204  0.2899  0.3569
 6678SOL     OW26477   5.972   2.603   4.445 -0.2841  0.0665  0.0401
 6678SOL    HW226478   5.955   2.690   4.409  1.0458 -0.5473 -2.2293
 6678SOL    HW326479   5.891   2.554   4.428  0.1907 -0.1118 -1.9240
 6678SOL    MW426480   5.959   2.608   4.438  0.2191 -0.5396  0.0459
 6679SOL     OW26481   5.010   0.266   5.752 -0.2670 -0.2216  0.6627
 6679SOL    HW226482   4.924   0.302   5.731 -0.1007  0.7755  1.5488
 6679SOL    HW326483   5.027   0.202   5.684 -0.5203  1.5288 -1.1366
 6679SOL    MW426484   5.001   0.263   5.740 -0.2944  0.3927 -0.0596
 6680SOL     OW26485   1.892   5.022   2.315 -0.1525 -0.4895  0.2694
 6680SOL    HW226486   1.987   5.015   2.321  0.4069  3.8566 -0.2992
 6680SOL    HW326487   1.872   4.995   2.226  0.5337 -1.2401  0.3266
 6680SOL    MW426488   1.902   5.017   2.304 -0.3588  0.1542  0.4650
 6681SOL     OW26489   2.486   2.999   5.855 -0.4008  0.2757  0.0930
 6681SOL    HW226490   2.540   2.979   5.778  1.1321 -2.3102  1.6755
 6681SOL    HW326491   2.396   2.985   5.825  0.1483 -0.6154 -1.2615
 6681SOL    MW426492   2.481   2.994   5.841  0.1903  0.2161 -0.4587
 6682SOL     OW26493   6.010   0.598   1.141  0.0016  0.2219 -0.7520
 6682SOL    HW226494   5.983   0.615   1.231  0.4605  1.9963 -0.9241
 6682SOL    HW326495   5.938   0.632   1.087  0.6006  0.9443 -1.1004
 6682SOL    MW426496   5.997   0.605   1.145 -0.0594 -0.5584  0.5023
 6683SOL     OW26497   0.239   0.474   2.870 -0.0697 -0.3319  0.3291
 6683SOL    HW226498   0.180   0.541   2.904  0.3864  1.4101 -2.1268
 6683SOL    HW326499   0.323   0.492   2.912 -0.3096 -0.3660  0.8373
 6683SOL    MW426500   0.242   0.485   2.880 -0.4745  0.1968 -0.2265
 6684SOL     OW26501   4.241   3.098   3.734 -0.0759 -0.0760  0.2518
 6684SOL    HW226502   4.323   3.147   3.747 -1.8064  2.8731  1.1025
 6684SOL    HW326503   4.187   3.122   3.810 -2.4366 -0.3006 -1.2462
 6684SOL    MW426504   4.245   3.108   3.746 -0.0700 -0.3696 -0.3745
 6685SOL     OW26505   0.778   1.955   4.084  0.1882 -0.2603  0.2586
 6685SOL    HW226506   0.850   1.907   4.043  0.5589  0.8497 -0.4450
 6685SOL    HW326507   0.725   1.888   4.126  0.9803 -1.2214 -0.2330
 6685SOL    MW426508   0.781   1.940   4.084  0.3464  0.5645 -0.4427
 6686SOL     OW26509   1.231   0.376   0.629 -0.0362  0.2948  0.4271
 6686SOL    HW226510   1.311   0.425   0.648  0.8707 -0.1131 -1.9672
 6686SOL    HW326511   1.166   0.411   0.690  1.2593  2.6032  0.5826
 6686SOL    MW426512   1.233   0.387   0.639  0.0224  0.0009  0.4914
 6687SOL     OW26513   1.855   6.240   0.570 -0.0378 -0.2541 -0.2019
 6687SOL    HW226514   1.807   6.232   0.488 -2.1795  1.1959  0.7935
 6687SOL    HW326515   1.943   6.265   0.544  0.7176 -4.1768 -2.1830
 6687SOL    MW426516   1.860   6.242   0.556 -0.1259  0.6169  0.3407
 6688SOL     OW26517   4.002   1.802   5.788  0.4009 -0.2662 -0.6391
 6688SOL    HW226518   3.944   1.845   5.724 -0.0110 -0.8064 -0.6325
 6688SOL    HW326519   4.079   1.859   5.792 -0.8533  1.4540  0.6653
 6688SOL    MW426520   4.004   1.815   5.780 -0.0950 -0.2184  0.8204
 6689SOL     OW26521   4.126   2.353   3.249 -0.0704  0.5983  0.3461
 6689SOL    HW226522   4.153   2.286   3.312  0.7752 -1.4942 -2.0573
 6689SOL    HW326523   4.031   2.344   3.244  0.1385 -1.5096 -0.9639
 6689SOL    MW426524   4.117   2.343   3.257  0.1462 -0.0148  0.0629
 6690SOL     OW26525   6.124   3.178   1.082 -0.0169 -0.7144 -0.5701
 6690SOL    HW226526   6.115   3.266   1.046 -1.3965 -1.4430 -2.1323
 6690SOL    HW326527   6.199   3.140   1.035  0.1809 -0.6002 -0.3506
 6690SOL    MW426528   6.133   3.185   1.071  0.6093  0.3583 -0.0777
 6691SOL     OW26529   4.158   2.707   2.454  0.0947 -1.1617 -0.7565
 6691SOL    HW226530   4.106   2.686   2.376 -3.0878 -0.0242  0.8595
 6691SOL    HW326531   4.163   2.625   2.503  0.3121 -1.4121 -1.1979
 6691SOL    MW426532   4.152   2.694   2.450  0.2444 -0.3836 -0.3467
 6692SOL     OW26533   2.960   2.908   4.020  0.0051 -0.1655  0.8017
 6692SOL    HW226534   2.950   3.003   4.029  1.6514  0.1728 -0.5365
 6692SOL    HW326535   2.871   2.876   4.007 -0.3847  1.4751 -0.9135
 6692SOL    MW426536   2.947   2.917   4.020  0.0764  0.0398  0.4056
 6693SOL     OW26537   3.605   3.470   5.388 -0.5512 -0.0447 -0.6563
 6693SOL    HW226538   3.530   3.515   5.349  0.4386  1.8290 -0.5031
 6693SOL    HW326539   3.587   3.471   5.482 -2.0768 -2.9753 -0.8037
 6693SOL    MW426540   3.593   3.476   5.395 -0.0994 -0.5417 -0.0736
 6694SOL     OW26541   2.408   2.312   2.110 -0.2289 -0.0920  0.2353
 6694SOL    HW226542   2.320   2.306   2.072  0.4394  0.5939 -1.5211
 6694SOL    HW326543   2.399   2.375   2.181 -1.1267  0.1250 -0.0613
 6694SOL    MW426544   2.395   2.320   2.114 -0.1790  0.6315 -0.2521
 6695SOL     OW26545   2.987   0.616   0.495 -0.3793  0.5481 -0.0345
 6695SOL    HW226546   2.907   0.655   0.531  0.2085  1.3452  0.4514
 6695SOL    HW326547   3.040   0.691   0.467  0.0300  0.0126 -0.7142
 6695SOL    MW426548   2.983   0.631   0.496  0.3550 -0.6660 -0.3017
 6696SOL     OW26549   5.293   2.794   1.028  0.1960 -0.1686 -0.5259
 6696SOL    HW226550   5.215   2.749   0.996  0.2103 -1.9181  1.6300
 6696SOL    HW326551   5.360   2.777   0.962 -0.1733 -2.2635 -0.4242
 6696SOL    MW426552   5.291   2.786   1.015  0.2326 -0.3717  0.4757
 6697SOL     OW26553   3.048   0.256   4.932  0.1644 -0.9567  0.2065
 6697SOL    HW226554   2.974   0.279   4.877 -1.3437 -2.5346  1.4540
 6697SOL    HW326555   3.122   0.305   4.896 -1.0436 -0.8537 -2.2973
 6697SOL    MW426556   3.048   0.265   4.920 -0.1856  0.2298  0.0127
 6698SOL     OW26557   4.395   1.007   1.559  0.4849  0.0108 -0.4592
 6698SOL    HW226558   4.404   1.098   1.586  0.6019 -0.0628 -0.2509
 6698SOL    HW326559   4.385   1.012   1.464  0.6186  0.2331 -0.4639
 6698SOL    MW426560   4.395   1.020   1.550 -0.5388  0.5226  0.3659
 6699SOL     OW26561   1.657   3.108   6.156 -0.1715  0.0528 -0.0229
 6699SOL    HW226562   1.733   3.098   6.098 -2.1633 -0.9872 -2.6543
 6699SOL    HW326563   1.679   3.055   6.233  1.3660 -1.0096 -1.1278
 6699SOL    MW426564   1.670   3.100   6.159  0.6039  0.2032 -0.2461
 6700SOL     OW26565   4.643   1.291   6.123  0.3242 -0.4168  0.2850
 6700SOL    HW226566   4.617   1.205   6.155 -0.6373 -0.6896 -1.0895
 6700SOL    HW326567   4.706   1.273   6.053 -0.6108 -0.1040 -0.6801
 6700SOL    MW426568   4.648   1.277   6.118  0.3327  0.3456  0.2636
 6701SOL     OW26569   2.454   3.062   0.438  0.0207 -0.2047  0.3703
 6701SOL    HW226570   2.525   3.034   0.496 -1.2319 -0.2780  1.9297
 6701SOL    HW326571   2.428   2.982   0.392 -0.8647 -0.7955  1.8463
 6701SOL    MW426572   2.460   3.048   0.439  0.3745  0.1003  0.1220
 6702SOL     OW26573   4.532   4.560   3.820  0.2377 -0.3063  0.2333
 6702SOL    HW226574   4.521   4.641   3.869  0.9625 -0.3973  0.5540
 6702SOL    HW326575   4.445   4.541   3.786  0.3462  1.4422 -1.1786
 6702SOL    MW426576   4.519   4.568   3.822 -0.0412 -0.6728 -0.2091
 6703SOL     OW26577   1.644   4.255   1.043  0.0892 -0.0753 -0.0028
 6703SOL    HW226578   1.686   4.174   1.072 -1.3776 -0.9289 -0.1510
 6703SOL    HW326579   1.680   4.271   0.956  1.8241  0.5299  0.7731
 6703SOL    MW426580   1.655   4.246   1.036 -0.2368  0.2431  0.3768
 6704SOL     OW26581   1.600   6.282   2.304 -0.1239 -0.3833  0.4844
 6704SOL    HW226582   1.564   6.356   2.355 -0.2245  0.5776 -0.9297
 6704SOL    HW326583   1.662   6.241   2.364  1.6077  2.1918  0.6512
 6704SOL    MW426584   1.603   6.287   2.319  0.2685  0.1354  0.3493
 6705SOL     OW26585   3.012   0.816   6.277  0.1217  0.2125 -0.4789
 6705SOL    HW226586   2.952   0.862   6.336  0.6518  0.2557  0.0336
 6705SOL    HW326587   2.994   0.854   6.191  0.6940  1.5648 -0.0363
 6705SOL    MW426588   3.001   0.827   6.273  0.0465  0.3339 -0.0667
 6706SOL     OW26589   3.271   2.701   2.763  0.4766  0.0195  0.4607
 6706SOL    HW226590   3.221   2.627   2.799 -0.2463  0.9337  1.4133
 6706SOL    HW326591   3.353   2.663   2.733 -0.1675 -1.2772  0.2869
 6706SOL    MW426592   3.275   2.686   2.764  0.1474 -0.1335 -0.3086
 6707SOL     OW26593   6.107   2.562   3.633 -0.2019  0.0152  0.5022
 6707SOL    HW226594   6.158   2.595   3.706 -1.1891  1.4103  0.5977
 6707SOL    HW326595   6.017   2.561   3.665 -0.9772  2.6874 -1.3009
 6707SOL    MW426596   6.102   2.566   3.647 -0.0250 -0.1723 -0.2279
 6708SOL     OW26597   1.422   2.456   4.767  0.3214  0.6280 -0.2746
 6708SOL    HW226598   1.378   2.381   4.808 -0.2440  1.6089  0.9933
 6708SOL    HW326599   1.453   2.422   4.683 -0.6662 -0.7928 -0.1141
 6708SOL    MW426600   1.420   2.441   4.762 -0.6566 -0.0919  0.4157
 6709SOL     OW26601   2.404   3.510   3.750 -0.2280 -0.1539 -0.0724
 6709SOL    HW226602   2.365   3.425   3.728  0.7740 -0.3876 -1.0072
 6709SOL    HW326603   2.387   3.565   3.673 -0.3841  0.3384  0.3043
 6709SOL    MW426604   2.397   3.506   3.737 -0.3523  0.3931 -0.0633
 6710SOL     OW26605   2.529   2.089   2.565 -0.0330 -0.5040 -0.1610
 6710SOL    HW226606   2.505   2.023   2.630  0.7450 -0.9335 -0.2968
 6710SOL    HW326607   2.445   2.119   2.530 -0.4646 -0.3013  0.9939
 6710SOL    MW426608   2.515   2.084   2.569 -0.1784  0.0586  0.2658
 6711SOL     OW26609   3.735   0.327   6.398 -0.1682  0.9085  0.1138
 6711SOL    HW226610   3.783   0.275   6.462  0.2745  0.7544 -0.3347
 6711SOL    HW326611   3.721   0.411   6.440 -1.0328  0.3851  0.9109
 6711SOL    MW426612   3.740   0.331   6.412  0.0968 -0.7945  0.2793
 6712SOL     OW26613   4.153   4.099   1.438  0.0689 -0.2933  0.2323
 6712SOL    HW226614   4.138   4.005   1.450 -0.9352 -0.2406 -0.5036
 6712SOL    HW326615   4.175   4.109   1.346  0.4324  0.1629  0.3666
 6712SOL    MW426616   4.154   4.088   1.428  0.0835 -0.4501 -0.0743
 6713SOL     OW26617   4.880   3.734   4.200  0.5413 -0.1166 -0.5086
 6713SOL    HW226618   4.943   3.803   4.176  1.5358 -0.6389  0.5204
 6713SOL    HW326619   4.844   3.763   4.284  1.7407 -1.3179  0.4649
 6713SOL    MW426620   4.884   3.747   4.208  0.3653  0.6929 -0.3013
 6714SOL     OW26621   2.770   3.189   4.836 -0.3586 -0.0914 -0.5391
 6714SOL    HW226622   2.830   3.116   4.819 -1.7345 -1.8229  1.5141
 6714SOL    HW326623   2.824   3.256   4.877  0.4230 -1.1208  0.1516
 6714SOL    MW426624   2.785   3.188   4.839  0.1813 -0.0480 -0.6027
 6715SOL     OW26625   5.829   0.936   5.577 -0.4995  0.1976  0.3987
 6715SOL    HW226626   5.774   0.860   5.596  0.3590 -0.1809  1.5072
 6715SOL    HW326627   5.919   0.903   5.584 -0.1099  1.0307 -0.3795
 6715SOL    MW426628   5.834   0.922   5.580  0.0973 -0.0200 -0.2315
 6716SOL     OW26629   2.720   0.445   2.123 -0.2880  0.7674 -0.0362
 6716SOL    HW226630   2.670   0.409   2.050  1.8971 -0.2530 -1.1415
 6716SOL    HW326631   2.781   0.376   2.147  0.7414  2.0010  1.0863
 6716SOL    MW426632   2.722   0.431   2.116  0.4531  0.6451 -0.0765
 6717SOL     OW26633   5.944   0.612   2.301  0.2529  0.4745 -0.3081
 6717SOL    HW226634   6.003   0.558   2.354  1.3428  0.8200 -1.1166
 6717SOL    HW326635   5.885   0.652   2.364 -0.7495 -1.7935  0.3246
 6717SOL    MW426636   5.944   0.610   2.316 -0.3621  0.2800 -0.3313
 6718SOL     OW26637   2.259   1.196   5.617 -0.0219  0.0837  0.7937
 6718SOL    HW226638   2.326   1.234   5.675 -0.2852 -0.4663  1.4716
 6718SOL    HW326639   2.257   1.103   5.641  1.9105 -0.8459 -2.0569
 6718SOL    MW426640   2.268   1.189   5.628 -0.5868 -0.4360 -0.1480
 6719SOL     OW26641   3.827   3.298   2.470  0.6237  0.1495 -0.2695
 6719SOL    HW226642   3.755   3.288   2.532  0.2815 -0.6564 -0.7825
 6719SOL    HW326643   3.876   3.216   2.476  0.4895 -0.0104 -1.1651
 6719SOL    MW426644   3.824   3.286   2.479 -0.3421 -0.6123  0.2576
 6720SOL     OW26645   5.912   2.619   4.705 -0.0561 -0.1388  0.4642
 6720SOL    HW226646   5.967   2.658   4.773  0.8797  0.4711 -0.6112
 6720SOL    HW326647   5.960   2.635   4.623 -1.3114 -0.5686 -0.3801
 6720SOL    MW426648   5.926   2.626   4.703  0.0794 -0.6446 -0.0231
 6721SOL     OW26649   5.887   2.533   3.938  0.5562  0.2211 -0.1139
 6721SOL    HW226650   5.846   2.534   3.852  0.1256  0.1004  0.0886
 6721SOL    HW326651   5.922   2.444   3.947 -0.0414  0.0018  0.1309
 6721SOL    MW426652   5.886   2.521   3.928  0.1159  0.3866 -0.2896
 6722SOL     OW26653   4.060   0.585   2.603  0.4864 -0.6796 -0.6093
 6722SOL    HW226654   4.122   0.604   2.673 -0.5581  0.1732  0.1242
 6722SOL    HW326655   4.033   0.494   2.618  1.5009 -1.0379 -0.9082
 6722SOL    MW426656   4.064   0.575   2.614  0.2276  0.6167  0.3612
 6723SOL     OW26657   5.267   4.676   1.785 -0.2970  0.1348  0.1350
 6723SOL    HW226658   5.175   4.703   1.777 -0.4509  0.2625  1.9620
 6723SOL    HW326659   5.305   4.699   1.700 -1.4696  2.0336  0.0548
 6723SOL    MW426660   5.260   4.683   1.772 -0.1736  0.0459 -0.5095
 6724SOL     OW26661   2.388   6.014   5.686 -0.3701 -0.1350  0.4211
 6724SOL    HW226662   2.419   6.077   5.620 -1.2357  0.0993  0.2271
 6724SOL    HW326663   2.380   6.066   5.766  0.3154 -0.3359  0.6310
 6724SOL    MW426664   2.391   6.029   5.687  0.0821  0.2143  0.0268
 6725SOL     OW26665   0.925   4.276   4.548 -0.0179  0.2761 -0.0911
 6725SOL    HW226666   0.854   4.339   4.561 -0.3758 -0.1997  0.3160
 6725SOL    HW326667   0.895   4.219   4.477 -0.5605 -0.6296  0.8374
 6725SOL    MW426668   0.911   4.277   4.541 -0.0153 -0.5142 -0.0449
 6726SOL     OW26669   5.022   3.051   0.775 -0.3765 -0.1591  0.2247
 6726SOL    HW226670   4.999   2.963   0.745 -1.2454  0.2226 -0.2747
 6726SOL    HW326671   5.084   3.083   0.709 -1.6692  0.3753 -0.7770
 6726SOL    MW426672   5.027   3.043   0.763  0.3774 -0.4890  0.4358
 6727SOL     OW26673   5.370   4.208   3.538 -0.6332 -0.2786  0.5946
 6727SOL    HW226674   5.400   4.145   3.472 -0.2805  1.6783 -1.2336
 6727SOL    HW326675   5.445   4.219   3.597 -0.3048 -0.7445  0.2671
 6727SOL    MW426676   5.384   4.202   3.537 -0.1060 -0.5951 -0.0094
 6728SOL     OW26677   2.114   5.077   0.929 -0.7794 -0.0072  0.2442
 6728SOL    HW226678   2.192   5.049   0.881 -1.5866 -2.1368  0.0561
 6728SOL    HW326679   2.104   5.169   0.908  0.7550 -0.1040 -1.0386
 6728SOL    MW426680   2.123   5.085   0.920  0.2012 -0.2647 -0.3175
 6729SOL     OW26681   0.424   5.584   0.700 -0.3825  0.2102 -0.4450
 6729SOL    HW226682   0.519   5.586   0.690 -0.3934 -1.7878 -1.5442
 6729SOL    HW326683   0.391   5.626   0.621 -0.3961 -0.3830 -0.7630
 6729SOL    MW426684   0.432   5.590   0.688  0.0522 -0.7125  1.0238
 6730SOL     OW26685   3.230   2.875   3.949 -0.2102  0.7160  0.3460
 6730SOL    HW226686   3.275   2.885   4.033  0.2508  0.3935  0.1369
 6730SOL    HW326687   3.138   2.864   3.973  0.1071 -0.9204  0.9008
 6730SOL    MW426688   3.224   2.875   3.963  0.2047  0.0425  0.4968
 6731SOL     OW26689   3.925   5.581   2.114  0.1911  0.3446  0.1045
 6731SOL    HW226690   3.966   5.540   2.191 -0.4737  0.0497  0.3090
 6731SOL    HW326691   3.997   5.591   2.052  0.3923 -1.1454  0.0508
 6731SOL    MW426692   3.940   5.577   2.116 -0.1050 -0.2819  0.2562
 6732SOL     OW26693   6.118   3.208   0.699  0.0999 -0.0068 -0.0067
 6732SOL    HW226694   6.151   3.295   0.675 -0.2866 -0.1223 -1.0322
 6732SOL    HW326695   6.186   3.171   0.756  1.5245 -0.0424 -1.6406
 6732SOL    MW426696   6.132   3.215   0.703 -0.0600 -0.2657 -0.2265
 6733SOL     OW26697   2.238   1.457   4.627 -0.3464  0.1872  0.0513
 6733SOL    HW226698   2.186   1.492   4.554 -0.8494 -0.3757  0.1366
 6733SOL    HW326699   2.249   1.531   4.686 -0.2676  0.5462 -0.4021
 6733SOL    MW426700   2.233   1.471   4.625 -0.2013 -0.3816 -0.3308
 6734SOL     OW26701   3.357   3.156   0.426  0.1034  0.6668 -0.2160
 6734SOL    HW226702   3.262   3.163   0.415 -0.1130 -0.4970  0.6939
 6734SOL    HW326703   3.391   3.241   0.398 -1.2664  1.3819  0.2089
 6734SOL    MW426704   3.349   3.168   0.421  0.0142  0.9127 -0.0051
 6735SOL     OW26705   1.403   2.991   4.029 -0.6027  0.2280  0.1502
 6735SOL    HW226706   1.444   2.933   4.092  0.4538 -0.8677 -1.4695
 6735SOL    HW326707   1.476   3.039   3.990 -1.3899  2.2137  0.9718
 6735SOL    MW426708   1.418   2.990   4.032  0.0029  0.2549  0.1401
 6736SOL     OW26709   5.002   5.932   3.620  0.4062 -0.3470 -0.1787
 6736SOL    HW226710   5.065   5.908   3.687 -0.3219 -1.2484  0.2000
 6736SOL    HW326711   4.921   5.887   3.645 -0.2953  0.4874 -0.8443
 6736SOL    MW426712   4.999   5.923   3.632 -0.3446 -0.0856  0.1379
 6737SOL     OW26713   1.061   2.601   2.427 -0.3695  0.0349 -0.0802
 6737SOL    HW226714   1.143   2.646   2.444 -1.0629  1.3067 -0.0094
 6737SOL    HW326715   1.087   2.511   2.406  1.0125  0.3619  0.1465
 6737SOL    MW426716   1.075   2.595   2.426 -0.1080  0.3731 -0.0153
 6738SOL     OW26717   3.478   6.223   1.629 -0.6143 -0.5893 -0.1944
 6738SOL    HW226718   3.532   6.271   1.567  1.3623 -0.1023  1.7656
 6738SOL    HW326719   3.401   6.198   1.579  0.8266 -0.2083 -2.7994
 6738SOL    MW426720   3.475   6.226   1.615 -0.3079 -0.0122  0.2721
 6739SOL     OW26721   5.846   5.721   5.610  0.4876  0.5458 -0.5303
 6739SOL    HW226722   5.877   5.809   5.588  0.0759  0.7513 -0.2923
 6739SOL    HW326723   5.752   5.732   5.626  0.4092  0.0375 -0.6356
 6739SOL    MW426724   5.838   5.734   5.609 -0.0019  0.3891 -0.2829
 6740SOL     OW26725   1.786   5.820   3.598  0.0926 -0.5489  0.0770
 6740SOL    HW226726   1.756   5.848   3.512  0.2269 -0.5779  0.0208
 6740SOL    HW326727   1.870   5.863   3.610 -1.5759  2.6396  1.8157
 6740SOL    MW426728   1.793   5.829   3.588  0.9774 -0.0804  0.1827
 6741SOL     OW26729   1.452   1.777   2.414  0.4023  0.2897  0.4593
 6741SOL    HW226730   1.358   1.764   2.424  0.5793 -0.1076  1.8520
 6741SOL    HW326731   1.460   1.862   2.370 -0.6063  1.1606  1.8551
 6741SOL    MW426732   1.440   1.787   2.410  0.0421 -0.1646  0.2616
 6742SOL     OW26733   0.423   4.939   1.257 -0.0218 -0.3190 -0.0379
 6742SOL    HW226734   0.385   4.865   1.210  1.3043 -0.3796 -1.0612
 6742SOL    HW326735   0.478   4.900   1.324  1.7825 -0.3213 -1.4678
 6742SOL    MW426736   0.425   4.924   1.260  0.5056 -0.7549  0.0000
 6743SOL     OW26737   2.764   2.206   1.697  0.0514 -0.1909 -0.2965
 6743SOL    HW226738   2.692   2.225   1.756 -0.5488 -1.7866 -0.4748
 6743SOL    HW326739   2.803   2.125   1.731  1.3846  0.3115 -0.5547
 6743SOL    MW426740   2.760   2.198   1.709 -0.2224 -0.0654 -0.5266
 6744SOL     OW26741   4.435   3.413   5.964 -0.5243 -0.7020 -0.0745
 6744SOL    HW226742   4.513   3.466   5.949 -1.0462  0.1138 -0.0393
 6744SOL    HW326743   4.466   3.323   5.965  0.7438 -0.3048  1.9292
 6744SOL    MW426744   4.449   3.408   5.962 -1.3600 -0.3200 -0.0457
 6745SOL     OW26745   6.152   1.728   5.815  0.1761  0.4406  0.3977
 6745SOL    HW226746   6.177   1.761   5.901 -0.6999  0.5209  0.6347
 6745SOL    HW326747   6.060   1.705   5.825  0.2255 -0.0983 -0.3589
 6745SOL    MW426748   6.143   1.729   5.828 -0.0892 -0.1941 -0.9672
 6746SOL     OW26749   6.398   1.517   6.201  0.3524 -0.3957 -0.4077
 6746SOL    HW226750   6.407   1.432   6.158  0.5031 -0.2582 -0.6549
 6746SOL    HW326751   6.310   1.546   6.177 -0.1625 -1.0084  0.6585
 6746SOL    MW426752   6.388   1.509   6.192  0.3985 -0.0615  0.2134
 6747SOL     OW26753   2.912   6.239   6.201  0.4869  0.2601 -0.0351
 6747SOL    HW226754   2.898   6.255   6.294  0.7881 -0.0744  0.0711
 6747SOL    HW326755   2.920   6.326   6.163  1.2716  0.3926  0.3995
 6747SOL    MW426756   2.911   6.252   6.208  0.1397  0.5249  0.5173
 6748SOL     OW26757   5.291   0.659   4.784 -0.0479 -0.3941 -0.2568
 6748SOL    HW226758   5.250   0.745   4.781 -0.1147 -0.4062  0.1948
 6748SOL    HW326759   5.373   0.669   4.734  0.2155  0.0826  0.2610
 6748SOL    MW426760   5.297   0.672   4.777  0.7833 -0.2574  0.6752
 6749SOL     OW26761   6.353   4.167   3.268  0.5761 -0.2575 -0.0563
 6749SOL    HW226762   6.444   4.185   3.245  0.1884  0.3435 -1.2288
 6749SOL    HW326763   6.357   4.114   3.348  1.9028  1.5106  1.1198
 6749SOL    MW426764   6.365   4.162   3.276 -0.5779  0.1381 -0.2218
 6750SOL     OW26765   3.644   1.641   2.009 -0.2729 -0.1548  0.4642
 6750SOL    HW226766   3.585   1.685   1.947 -0.0941 -0.2060  0.2562
 6750SOL    HW326767   3.708   1.708   2.032  0.2648 -0.4330 -0.1998
 6750SOL    MW426768   3.644   1.655   2.004  0.1071 -0.4138 -0.4249
 6751SOL     OW26769   0.558   3.743   6.290 -0.6818  0.2895 -0.2580
 6751SOL    HW226770   0.524   3.766   6.204 -0.5974 -2.6876 -1.1644
 6751SOL    HW326771   0.589   3.653   6.282  1.9199  0.8006  2.1573
 6751SOL    MW426772   0.558   3.734   6.278  0.4040  0.1152  0.2118
 6752SOL     OW26773   4.098   2.026   5.415 -0.3390  0.3341 -0.0743
 6752SOL    HW226774   4.111   2.053   5.325  1.8255 -1.8728 -0.5181
 6752SOL    HW326775   4.131   2.100   5.467  1.4473  0.3480 -1.1556
 6752SOL    MW426776   4.104   2.040   5.410 -0.2629  0.1182 -0.0280
 6753SOL     OW26777   2.304   1.547   4.153 -0.3680  0.2038 -0.3181
 6753SOL    HW226778   2.249   1.473   4.129 -0.7623  0.3870  0.0079
 6753SOL    HW326779   2.390   1.527   4.115 -0.8180  0.2152 -1.3753
 6753SOL    MW426780   2.308   1.535   4.145  0.0380 -0.3684  0.7475
 6754SOL     OW26781   5.678   1.348   2.406  0.5206 -0.3587  0.1897
 6754SOL    HW226782   5.765   1.308   2.398  1.7414  1.6323  2.3052
 6754SOL    HW326783   5.667   1.397   2.325  1.6058 -0.2456  0.0877
 6754SOL    MW426784   5.688   1.349   2.394 -0.1514  0.4922 -0.2036
 6755SOL     OW26785   5.116   0.921   2.666  0.2761 -0.7994 -0.3445
 6755SOL    HW226786   5.180   0.881   2.725 -0.5329 -2.6451 -0.6500
 6755SOL    HW326787   5.167   0.985   2.617  1.9512 -2.2726 -0.6511
 6755SOL    MW426788   5.131   0.924   2.667  0.2989 -0.4006  0.2068
 6756SOL     OW26789   2.095   5.907   3.352 -0.3568 -0.1550  0.2638
 6756SOL    HW226790   2.013   5.929   3.308 -0.4201  2.1425  1.3677
 6756SOL    HW326791   2.077   5.921   3.445  1.4975  1.4424  0.4679
 6756SOL    MW426792   2.082   5.912   3.359 -0.6803 -0.5094  0.2964
 6757SOL     OW26793   0.801   1.163   5.114 -0.0149  0.3062  0.1366
 6757SOL    HW226794   0.892   1.184   5.093  0.8009 -1.6057  1.4414
 6757SOL    HW326795   0.755   1.166   5.030  1.4655  0.2947 -0.7042
 6757SOL    MW426796   0.807   1.166   5.100 -0.8921  0.3904  0.1746
 6758SOL     OW26797   0.376   4.975   6.128 -0.0515  0.1668  0.3326
 6758SOL    HW226798   0.468   5.001   6.130  0.2036 -0.4907 -1.3468
 6758SOL    HW326799   0.331   5.041   6.181  1.3313  0.6950  0.8939
 6758SOL    MW426800   0.383   4.987   6.135 -0.0902  0.1356 -0.4205
 6759SOL     OW26801   1.837   3.305   5.427  0.3530  0.1530  0.5107
 6759SOL    HW226802   1.762   3.358   5.456 -0.6020  0.4257 -2.1815
 6759SOL    HW326803   1.885   3.363   5.368  1.2543 -0.8704  0.2173
 6759SOL    MW426804   1.833   3.320   5.423 -0.1171 -0.6139 -0.5938
 6760SOL     OW26805   0.738   5.848   2.269 -0.1058 -0.6368  0.1054
 6760SOL    HW226806   0.725   5.816   2.358 -1.6079 -0.3886 -0.0103
 6760SOL    HW326807   0.715   5.774   2.213  0.2273 -0.5945 -0.0912
 6760SOL    MW426808   0.734   5.834   2.274 -0.2812 -0.0909  0.4421
 6761SOL     OW26809   2.415   4.869   4.104  0.1375 -0.6636 -0.3087
 6761SOL    HW226810   2.469   4.852   4.027  0.0990 -0.6825 -0.3312
 6761SOL    HW326811   2.333   4.824   4.087 -1.4405  2.5459 -2.0459
 6761SOL    MW426812   2.411   4.861   4.092  0.2142 -0.7536  0.1423
 6762SOL     OW26813   5.416   4.074   5.642  0.2758 -0.2210 -0.4099
 6762SOL    HW226814   5.503   4.078   5.603  1.2032 -1.6109  1.3906
 6762SOL    HW326815   5.359   4.119   5.579  2.7831  3.6938 -0.1857
 6762SOL    MW426816   5.420   4.081   5.628  0.5267  0.0155 -0.6828
 6763SOL     OW26817   4.118   2.146   2.547 -0.3468  0.3155  0.1548
 6763SOL    HW226818   4.142   2.237   2.565 -0.7081  0.6307 -0.8478
 6763SOL    HW326819   4.150   2.097   2.622 -1.8196  1.5184  1.6352
 6763SOL    MW426820   4.126   2.151   2.559 -0.1415 -0.1718  0.0088
 6764SOL     OW26821   3.783   1.587   0.039 -0.7234 -0.1347 -0.6138
 6764SOL    HW226822   3.757   1.497   0.057 -2.8248  0.8751  2.0733
 6764SOL    HW326823   3.879   1.584   0.035 -0.7497 -2.4635 -0.7125
 6764SOL    MW426824   3.792   1.575   0.041 -0.6080 -0.6217 -0.4600
 6765SOL     OW26825   0.355   6.012   4.638  0.0171  0.3434  0.0474
 6765SOL    HW226826   0.390   6.045   4.720 -0.0189  0.1712  0.1309
 6765SOL    HW326827   0.388   5.923   4.631  2.3249  1.2149 -1.4592
 6765SOL    MW426828   0.364   6.005   4.648  0.3771  0.4436  0.8262
 6766SOL     OW26829   1.625   3.821   1.298 -0.2044  0.0069 -0.9510
 6766SOL    HW226830   1.681   3.895   1.275 -0.0926  0.1424 -0.2726
 6766SOL    HW326831   1.634   3.760   1.225  1.5484 -0.3933 -0.4488
 6766SOL    MW426832   1.634   3.823   1.285 -0.1109 -0.1709  0.2118
 6767SOL     OW26833   5.829   2.469   2.182 -0.6838  0.4962  0.3578
 6767SOL    HW226834   5.878   2.532   2.130 -0.3263  0.7275  0.9598
 6767SOL    HW326835   5.737   2.486   2.160 -0.8983  3.4824  2.8455
 6767SOL    MW426836   5.823   2.480   2.173 -0.4305  0.2802 -0.6901
 6768SOL     OW26837   2.223   3.575   2.452  0.6324  0.1153  0.2273
 6768SOL    HW226838   2.236   3.487   2.417  1.0238  0.5599 -0.7852
 6768SOL    HW326839   2.138   3.571   2.496 -0.8389 -0.0012 -2.3931
 6768SOL    MW426840   2.214   3.563   2.453 -0.3897  0.6154  0.1936
 6769SOL     OW26841   2.291   6.280   5.313  0.3747  0.0844  0.0886
 6769SOL    HW226842   2.237   6.332   5.372 -0.7871 -0.1351 -0.7619
 6769SOL    HW326843   2.344   6.226   5.372 -0.1765  0.4572  0.9447
 6769SOL    MW426844   2.291   6.279   5.329  0.5301  0.1042  0.2519
 6770SOL     OW26845   3.919   2.701   1.111 -0.1521  1.0321 -0.7124
 6770SOL    HW226846   3.851   2.636   1.132  0.3334  0.0199 -2.1422
 6770SOL    HW326847   3.919   2.706   1.016 -0.2490  3.2665 -0.6417
 6770SOL    MW426848   3.910   2.693   1.101 -0.0046 -0.1427  0.6055
 6771SOL     OW26849   4.472   3.233   3.789  0.5134 -0.2213 -0.2486
 6771SOL    HW226850   4.456   3.311   3.737  1.4138 -0.9445 -1.6907
 6771SOL    HW326851   4.568   3.226   3.792  0.4498 -0.9678  0.3286
 6771SOL    MW426852   4.483   3.242   3.783 -0.0271 -0.3622 -0.3262
 6772SOL     OW26853   3.141   0.449   3.304  0.2152  0.0868  0.5718
 6772SOL    HW226854   3.157   0.396   3.226 -0.0844  2.0824 -0.9459
 6772SOL    HW326855   3.210   0.515   3.302 -2.5093  3.2010 -0.9115
 6772SOL    MW426856   3.152   0.451   3.293  0.3230  0.1532 -0.0490
 6773SOL     OW26857   0.736   0.823   5.997 -0.2497  0.0771 -0.0926
 6773SOL    HW226858   0.780   0.766   6.059 -1.1300 -0.0584  0.4246
 6773SOL    HW326859   0.718   0.903   6.046 -0.6009  0.1193 -0.2853
 6773SOL    MW426860   0.739   0.826   6.012 -0.1112  0.2078 -0.6920
 6774SOL     OW26861   2.475   4.865   1.877 -0.7073  0.1380 -0.2634
 6774SOL    HW226862   2.471   4.892   1.969  0.1713  0.7970 -0.4059
 6774SOL    HW326863   2.403   4.912   1.835 -0.1710  1.0478 -0.1969
 6774SOL    MW426864   2.465   4.875   1.884 -0.1629 -0.6382  0.3883
 6775SOL     OW26865   5.864   0.741   4.779 -0.4975  0.1315  0.0230
 6775SOL    HW226866   5.838   0.682   4.850  0.2597 -0.1555  0.0785
 6775SOL    HW326867   5.902   0.683   4.713  0.7647  0.5972  0.3140
 6775SOL    MW426868   5.866   0.725   4.780  0.2895 -0.5878  0.4057
 6776SOL     OW26869   2.476   6.334   4.254 -0.0598 -0.0334  0.0968
 6776SOL    HW226870   2.436   6.265   4.307 -3.1603  0.8293 -0.8591
 6776SOL    HW326871   2.567   6.308   4.245 -0.7400 -3.2217  0.9973
 6776SOL    MW426872   2.483   6.321   4.260  0.4437  0.6433 -0.0833
 6777SOL     OW26873   3.989   4.419   5.953 -0.1021 -0.0969  0.3486
 6777SOL    HW226874   3.911   4.474   5.946 -0.0607 -0.1877 -1.2685
 6777SOL    HW326875   3.975   4.366   6.032 -0.7149  1.3206  1.2276
 6777SOL    MW426876   3.977   4.419   5.962 -0.4574  0.8364  0.0535
 6778SOL     OW26877   4.295   0.553   1.319  0.4035  0.2928  0.4755
 6778SOL    HW226878   4.367   0.608   1.351  1.1167  0.0349 -0.6189
 6778SOL    HW326879   4.250   0.524   1.398  1.9173 -0.0926  1.2552
 6778SOL    MW426880   4.299   0.556   1.334 -0.1195  0.5767  0.4793
 6779SOL     OW26881   1.051   0.761   3.231 -0.5467  0.0672 -0.0616
 6779SOL    HW226882   1.055   0.709   3.311 -2.1098 -0.6480 -0.4296
 6779SOL    HW326883   1.131   0.738   3.183  0.2055  0.2166  1.0965
 6779SOL    MW426884   1.062   0.751   3.235 -0.6267 -0.1113  0.2514
 6780SOL     OW26885   4.551   2.952   0.060 -0.4292  0.3910 -0.3173
 6780SOL    HW226886   4.608   3.021   0.028 -0.9043  0.6948 -0.5162
 6780SOL    HW326887   4.463   2.988   0.053 -0.6223  0.0592  0.3115
 6780SOL    MW426888   4.547   2.966   0.055  0.0064  0.5723 -0.1765
 6781SOL     OW26889   2.159   1.037   4.891 -0.5378 -0.5425 -0.1796
 6781SOL    HW226890   2.113   1.076   4.965  0.8893 -0.3241  0.6297
 6781SOL    HW326891   2.141   1.097   4.818 -2.0395 -0.8140 -0.0749
 6781SOL    MW426892   2.150   1.050   4.891  0.0347  0.7496 -0.5385
 6782SOL     OW26893   2.660   3.614   1.200 -0.2165  0.2006  0.2186
 6782SOL    HW226894   2.615   3.600   1.283  2.6179 -0.3961  1.7656
 6782SOL    HW326895   2.749   3.582   1.214  0.1908 -0.7183 -3.3259
 6782SOL    MW426896   2.666   3.608   1.213 -0.0092  0.9119  0.6336
 6783SOL     OW26897   2.882   6.000   3.882 -0.2616 -0.3224  0.5444
 6783SOL    HW226898   2.947   6.061   3.916  1.6354 -0.4088 -2.4988
 6783SOL    HW326899   2.818   6.057   3.838 -0.0564 -0.3876  0.1566
 6783SOL    MW426900   2.882   6.016   3.880  0.1832  0.5835 -0.9668
 6784SOL     OW26901   3.552   2.947   4.396 -0.1237 -0.3208  0.1525
 6784SOL    HW226902   3.498   3.019   4.361  1.6199  1.2855  0.6396
 6784SOL    HW326903   3.639   2.985   4.408  0.4989 -2.1063  1.8692
 6784SOL    MW426904   3.556   2.961   4.393 -0.0717  0.5733  0.4661
 6785SOL     OW26905   1.182   2.848   5.693 -0.2192 -0.5154  0.0939
 6785SOL    HW226906   1.251   2.908   5.722  0.6465 -1.6015  0.3607
 6785SOL    HW326907   1.115   2.856   5.760 -1.4111  2.1569 -1.2430
 6785SOL    MW426908   1.182   2.857   5.706 -0.5518 -0.1852  0.4811
 6786SOL     OW26909   3.858   4.824   1.870  0.4917  0.3679  0.3974
 6786SOL    HW226910   3.953   4.836   1.870  0.3789  1.3834 -0.0869
 6786SOL    HW326911   3.832   4.844   1.960  0.6304  1.1330  0.2779
 6786SOL    MW426912   3.867   4.828   1.882 -0.1318 -0.1285  0.0275
 6787SOL     OW26913   1.521   4.182   2.204 -0.3047 -0.3382  0.1795
 6787SOL    HW226914   1.515   4.273   2.231  0.0166  0.5235 -2.4278
 6787SOL    HW326915   1.526   4.185   2.108 -1.0416 -3.1320 -0.0347
 6787SOL    MW426916   1.521   4.194   2.195  0.1323  0.5789  0.0613
 6788SOL     OW26917   0.183   3.062   4.219 -0.1486  0.4051  0.0931
 6788SOL    HW226918   0.089   3.048   4.232 -0.0259  0.1033  0.6937
 6788SOL    HW326919   0.200   3.031   4.130 -0.7016  0.8993 -0.1877
 6788SOL    MW426920   0.173   3.056   4.209 -0.5744 -0.1277  0.1605
 6789SOL     OW26921   0.124   5.102   4.271  0.0498  0.3588  0.2147
 6789SOL    HW226922   0.215   5.085   4.297  0.1467  2.2006  1.1900
 6789SOL    HW326923   0.100   5.025   4.219  1.9621 -0.4465  0.4312
 6789SOL    MW426924   0.133   5.089   4.268 -0.1794 -0.4438  0.0065
 6790SOL     OW26925   6.117   4.906   2.227  0.8552 -0.1300  0.2190
 6790SOL    HW226926   6.087   4.979   2.172  1.0733 -0.3567 -0.2095
 6790SOL    HW326927   6.105   4.937   2.317  2.1701  0.9395  0.0444
 6790SOL    MW426928   6.111   4.919   2.232  0.3212  0.4665  0.2467
 6791SOL     OW26929   0.218   2.154   0.183  0.0558 -0.0978 -0.6418
 6791SOL    HW226930   0.215   2.215   0.109 -0.2827 -1.0535 -1.4434
 6791SOL    HW326931   0.300   2.176   0.228 -0.4128  1.4278 -0.4606
 6791SOL    MW426932   0.228   2.165   0.179 -0.0334 -0.4082  0.1582
 6792SOL     OW26933   1.401   5.239   5.106  0.0436 -0.0548 -1.0784
 6792SOL    HW226934   1.461   5.174   5.143  0.9681  1.5350  0.3828
 6792SOL    HW326935   1.392   5.214   5.014  0.8588 -1.8480 -0.7182
 6792SOL    MW426936   1.408   5.227   5.099 -0.2496 -0.2834  0.1353
 6793SOL     OW26937   2.707   3.003   2.593 -0.3110  0.1337 -0.1077
 6793SOL    HW226938   2.664   2.956   2.522 -0.0956 -0.4304  0.1256
 6793SOL    HW326939   2.726   3.090   2.557  2.6800 -1.1137 -1.8888
 6793SOL    MW426940   2.704   3.009   2.579  0.0427  0.1999 -0.1889
 6794SOL     OW26941   3.252   1.005   6.163 -0.1383  0.5148 -0.6418
 6794SOL    HW226942   3.159   1.018   6.146 -0.0198 -0.3637 -2.0989
 6794SOL    HW326943   3.259   1.001   6.258 -1.8720 -1.3186 -0.5275
 6794SOL    MW426944   3.241   1.006   6.173 -0.9310  0.4650 -0.2619
 6795SOL     OW26945   4.737   4.503   3.100 -0.1204 -0.0654 -0.4709
 6795SOL    HW226946   4.696   4.568   3.044  2.9307  1.4274 -1.1761
 6795SOL    HW326947   4.664   4.458   3.142 -2.4105  2.0519 -1.9187
 6795SOL    MW426948   4.722   4.505   3.098 -0.1015  0.0513  0.6703
 6796SOL     OW26949   5.898   5.180   4.507 -0.0505  0.0649  0.2813
 6796SOL    HW226950   5.943   5.226   4.437  2.4052 -1.0187  1.0383
 6796SOL    HW326951   5.878   5.247   4.572 -0.7387  0.7745 -0.6458
 6796SOL    MW426952   5.901   5.195   4.507 -0.2582 -0.2401 -0.2376
 6797SOL     OW26953   6.199   2.811   5.582 -0.6365  0.5507  0.2824
 6797SOL    HW226954   6.257   2.838   5.653 -0.2775  1.4016 -0.3146
 6797SOL    HW326955   6.176   2.720   5.603  0.7019  0.2771  0.6599
 6797SOL    MW426956   6.203   2.802   5.594  0.0764  0.6000  0.5121
 6798SOL     OW26957   3.721   4.678   3.342  0.1935  0.1457 -0.4069
 6798SOL    HW226958   3.719   4.583   3.352 -0.4446 -0.0914 -2.3168
 6798SOL    HW326959   3.796   4.706   3.395  0.3689 -1.4080  0.2152
 6798SOL    MW426960   3.731   4.669   3.350  0.4743  0.0610 -0.1678
 6799SOL     OW26961   4.192   0.034   3.139  0.3776  0.4786 -0.3540
 6799SOL    HW226962   4.151   0.036   3.053  0.1078  1.9052 -0.2147
 6799SOL    HW326963   4.123   0.062   3.199  0.3608 -1.1251  0.4495
 6799SOL    MW426964   4.177   0.038   3.136 -0.1810 -0.1398 -0.5671
 6800SOL     OW26965   5.733   1.200   0.073  0.2721 -0.4293 -0.5126
 6800SOL    HW226966   5.727   1.123   0.016 -0.7335 -1.7008  1.2260
 6800SOL    HW326967   5.813   1.186   0.123 -0.4313 -0.8860  0.5150
 6800SOL    MW426968   5.743   1.188   0.072 -0.0501  0.3840 -0.0022
 6801SOL     OW26969   4.531   0.319   4.258  0.4345 -0.7325  0.0484
 6801SOL    HW226970   4.474   0.261   4.308  0.5072  0.2396  1.3304
 6801SOL    HW326971   4.613   0.320   4.308  0.4327  0.4476  0.0460
 6801SOL    MW426972   4.534   0.312   4.271 -0.0701  0.8153 -0.0072
 6802SOL     OW26973   0.003   0.011   4.187 -0.2996  0.4086 -0.1560
 6802SOL    HW226974   0.085  -0.033   4.209  0.4294  1.4816 -0.6853
 6802SOL    HW326975   0.029   0.093   4.145 -1.6367  1.1986  0.4877
 6802SOL    MW426976   0.017   0.016   4.184  0.2658 -0.1257  0.0294
 6803SOL     OW26977   2.880   6.074   0.397  0.0085 -0.0051  0.4686
 6803SOL    HW226978   2.842   5.998   0.442 -0.0086 -0.7574 -0.7892
 6803SOL    HW326979   2.970   6.078   0.431 -0.1163 -0.3303  0.8593
 6803SOL    MW426980   2.887   6.064   0.408  0.5671  0.0757 -0.2312
 6804SOL     OW26981   4.254   5.547   2.394  0.1989  0.6056  0.1853
 6804SOL    HW226982   4.299   5.613   2.341  1.2131  0.0211  0.2948
 6804SOL    HW326983   4.297   5.465   2.372 -1.2819 -0.1036 -0.2125
 6804SOL    MW426984   4.265   5.545   2.384  0.0980 -0.1237  0.9606
 6805SOL     OW26985   0.088   5.312   3.217  0.4860  0.7025  0.0871
 6805SOL    HW226986   0.025   5.262   3.165 -0.7153  1.8043  0.4217
 6805SOL    HW326987   0.038   5.344   3.291  0.2055  5.0795 -1.6703
 6805SOL    MW426988   0.073   5.310   3.220 -0.0150  0.2356 -1.0112
 6806SOL     OW26989   1.257   0.961   5.169  0.7901 -0.0666  0.0221
 6806SOL    HW226990   1.315   0.889   5.143  0.8672  0.2402 -0.6701
 6806SOL    HW326991   1.252   0.954   5.264  0.1307 -1.5147 -0.0803
 6806SOL    MW426992   1.264   0.950   5.178 -0.3280  0.1373 -0.4244
 6807SOL     OW26993   1.802   4.946   0.741 -0.0760 -0.3037  0.0736
 6807SOL    HW226994   1.779   5.015   0.802  0.8772  0.7119 -0.6750
 6807SOL    HW326995   1.864   4.890   0.789  0.2086  0.1502  0.2362
 6807SOL    MW426996   1.807   4.948   0.755 -0.4067 -0.0758  0.1261
 6808SOL     OW26997   5.317   3.636   1.167 -0.2482 -0.0000 -0.5839
 6808SOL    HW226998   5.395   3.689   1.183  0.0919 -0.4522 -0.7229
 6808SOL    HW326999   5.317   3.571   1.237  0.4212 -1.0447 -1.5155
 6808SOL    MW427000   5.327   3.634   1.178  0.1270  0.2153 -0.3785
 6809SOL     OW27001   2.379   2.412   2.878  0.1559  0.0752  0.0890
 6809SOL    HW227002   2.453   2.367   2.918 -0.0743 -0.1492  0.2620
 6809SOL    HW327003   2.324   2.439   2.951 -1.2938 -2.0743 -0.0935
 6809SOL    MW427004   2.381   2.410   2.893 -0.3483 -0.2245 -0.0748
 6810SOL     OW27005   1.967   3.950   2.412 -0.2107  0.2238  0.7981
 6810SOL    HW227006   1.958   3.907   2.497  1.6407  0.5160  1.1777
 6810SOL    HW327007   1.888   4.003   2.404 -1.3944 -1.3565  1.3952
 6810SOL    MW427008   1.955   3.951   2.422  0.0193 -0.3474  0.7649
 6811SOL     OW27009   3.577   5.870   6.236  0.3871 -0.2153  0.5546
 6811SOL    HW227010   3.481   5.875   6.233  0.4130  0.2468  0.4116
 6811SOL    HW327011   3.597   5.842   6.325  0.1191 -0.2051  0.6184
 6811SOL    MW427012   3.567   5.867   6.247 -0.2153 -0.0938  0.0841
 6812SOL     OW27013   5.749   4.770   3.406 -0.0067  0.0948 -0.1868
 6812SOL    HW227014   5.684   4.839   3.390  1.7940  1.9392 -0.0021
 6812SOL    HW327015   5.761   4.727   3.321 -1.0259  0.1057 -0.3479
 6812SOL    MW427016   5.742   4.773   3.393  0.0234  0.5582 -0.1268
 6813SOL     OW27017   1.506   5.199   1.070 -0.0518  0.2476 -0.3784
 6813SOL    HW227018   1.493   5.106   1.053 -0.7400 -0.0761  1.6813
 6813SOL    HW327019   1.546   5.202   1.157 -0.9500  1.9065  0.0212
 6813SOL    MW427020   1.510   5.187   1.079 -0.1771 -0.0570 -0.5040
 6814SOL     OW27021   1.413   4.162   4.109 -0.2007  0.1529 -0.4183
 6814SOL    HW227022   1.435   4.209   4.029 -0.0332  1.2601  0.2636
 6814SOL    HW327023   1.480   4.094   4.116  0.4858  0.8003 -0.6032
 6814SOL    MW427024   1.425   4.159   4.099 -0.1336 -0.3491  0.5666
 6815SOL     OW27025   5.730   6.160   1.282 -0.2554 -0.9350 -0.0652
 6815SOL    HW227026   5.815   6.173   1.240 -1.3722 -0.3735 -2.3223
 6815SOL    HW327027   5.683   6.100   1.223 -1.6127 -0.8215  0.8575
 6815SOL    MW427028   5.735   6.153   1.269  0.4346  0.1791  0.6663
 6816SOL     OW27029   2.724   4.922   4.425  0.3894 -0.0239  0.3674
 6816SOL    HW227030   2.685   4.947   4.341 -0.1823  1.0938  0.9435
 6816SOL    HW327031   2.807   4.969   4.427  0.1123  0.4616  0.6927
 6816SOL    MW427032   2.730   4.932   4.414 -0.0329 -0.3536 -0.0651
 6817SOL     OW27033   4.199   5.598   5.712  0.4057  0.6592  0.0676
 6817SOL    HW227034   4.194   5.607   5.617  0.6244 -1.1232 -0.1445
 6817SOL    HW327035   4.292   5.611   5.732  0.5348  0.0620 -0.1053
 6817SOL    MW427036   4.211   5.601   5.702 -0.0246 -0.0723  0.0091
 6818SOL     OW27037   4.065   3.995   4.290  0.5923 -0.3825  0.1287
 6818SOL    HW227038   4.069   3.994   4.386  1.7679  2.2566  0.2139
 6818SOL    HW327039   4.077   4.087   4.267 -0.1815 -0.8681 -2.5634
 6818SOL    MW427040   4.067   4.007   4.300 -0.2440  0.8725 -0.3086
 6819SOL     OW27041   3.953   6.143   5.429  0.2595 -0.3939  0.3370
 6819SOL    HW227042   3.991   6.175   5.348 -2.4529 -0.6764 -1.1723
 6819SOL    HW327043   4.002   6.063   5.450 -0.0897 -1.2845 -2.0050
 6819SOL    MW427044   3.964   6.137   5.421 -0.4435  0.3618  0.1971
 6820SOL     OW27045   4.200   6.399   6.399 -0.2265 -0.2267 -0.4914
 6820SOL    HW227046   4.275   6.396   6.340 -0.1319 -0.8854 -0.3492
 6820SOL    HW327047   4.125   6.377   6.343 -0.1310 -0.8938 -0.3604
 6820SOL    MW427048   4.200   6.396   6.384 -0.5088  0.2466 -0.1139
 6821SOL     OW27049   4.043   3.340   1.572  0.1847 -0.4475 -0.1988
 6821SOL    HW227050   4.012   3.429   1.589 -0.6689 -0.8178  0.2528
 6821SOL    HW327051   4.077   3.310   1.657  1.4861 -0.1738 -0.6057
 6821SOL    MW427052   4.043   3.347   1.586 -0.3037  0.4419 -1.0028
 6822SOL     OW27053   3.434   0.734   2.944 -0.0568 -0.0231 -0.5293
 6822SOL    HW227054   3.420   0.794   2.870  0.2546  0.6829 -0.0143
 6822SOL    HW327055   3.527   0.738   2.961 -0.0873 -0.4055 -0.2735
 6822SOL    MW427056   3.444   0.742   2.936  0.0318 -0.4175 -0.5736
 6823SOL     OW27057   5.929   0.939   3.584 -0.1108 -0.8934  0.1775
 6823SOL    HW227058   5.988   1.000   3.540 -1.4354  0.1518 -0.2118
 6823SOL    HW327059   5.980   0.858   3.592  1.6480  0.1848  0.5799
 6823SOL    MW427060   5.944   0.937   3.579 -0.6236  0.3095  0.6225
 6824SOL     OW27061   5.942   5.863   3.233 -0.3294 -0.1278 -0.2490
 6824SOL    HW227062   5.915   5.894   3.147  1.3408 -0.0959 -0.7821
 6824SOL    HW327063   5.859   5.848   3.280 -1.2642  2.9341 -0.7182
 6824SOL    MW427064   5.927   5.865   3.228  0.3499 -0.1423 -0.1168
 6825SOL     OW27065   3.200   1.098   2.948 -0.4321  0.4508 -0.8088
 6825SOL    HW227066   3.206   1.146   2.865  0.9383  0.1005 -0.9450
 6825SOL    HW327067   3.284   1.115   2.990 -0.9741  0.3196  0.3463
 6825SOL    MW427068   3.212   1.107   2.942  0.5390 -0.4980 -0.1719
 6826SOL     OW27069   0.964   2.036   4.304 -0.4970 -0.0833  0.4727
 6826SOL    HW227070   0.902   2.014   4.235  0.7773 -1.8447 -0.1824
 6826SOL    HW327071   0.979   2.130   4.293 -1.2336 -0.0935 -0.8770
 6826SOL    MW427072   0.958   2.046   4.293  0.6615  0.3896  0.1410
 6827SOL     OW27073   5.896   6.109   0.323 -0.6352 -0.2647  0.2251
 6827SOL    HW227074   5.938   6.034   0.279 -1.1122 -0.5581  0.2658
 6827SOL    HW327075   5.897   6.179   0.257 -3.0959 -1.2752 -1.0024
 6827SOL    MW427076   5.902   6.108   0.308 -0.9356 -0.1995 -0.0285
 6828SOL     OW27077   4.757   2.745   3.479 -0.0878 -0.0219  0.4462
 6828SOL    HW227078   4.733   2.832   3.447  0.6410  0.2535  0.6227
 6828SOL    HW327079   4.847   2.732   3.449  0.5980  0.2062  2.2202
 6828SOL    MW427080   4.766   2.755   3.471 -0.7013  0.9899 -0.2087
 6829SOL     OW27081   5.887   5.840   2.753  0.2678 -0.2432 -0.1028
 6829SOL    HW227082   5.870   5.895   2.830 -0.1202 -0.8484  0.2460
 6829SOL    HW327083   5.933   5.764   2.788  1.4711  0.1916 -0.6919
 6829SOL    MW427084   5.891   5.837   2.768  0.5549 -0.4226 -0.1262
 6830SOL     OW27085   6.383   0.077   2.854 -0.1795 -0.4595 -0.0609
 6830SOL    HW227086   6.430   0.030   2.785 -0.9835  0.2736 -1.1437
 6830SOL    HW327087   6.351   0.008   2.913  1.1166 -1.0460 -0.0241
 6830SOL    MW427088   6.385   0.062   2.853  0.2399 -0.0082 -0.0107
 6831SOL     OW27089   3.547   5.413   5.333  0.2730  0.0314 -0.1385
 6831SOL    HW227090   3.459   5.416   5.296  1.1707  0.7861 -2.3800
 6831SOL    HW327091   3.579   5.502   5.326  1.9960 -0.6412 -1.4631
 6831SOL    MW427092   3.539   5.425   5.327 -0.1242  0.1290  0.3566
 6832SOL     OW27093   0.938   3.355   5.094  0.3397  0.1103  0.1241
 6832SOL    HW227094   0.972   3.270   5.124 -0.7994 -0.3962  0.0200
 6832SOL    HW327095   0.847   3.357   5.124  0.5283  1.5811  0.6886
 6832SOL    MW427096   0.931   3.344   5.102  0.1420  0.7078  0.1200
 6833SOL     OW27097   3.408   3.666   5.328 -0.4854 -0.1890 -0.6840
 6833SOL    HW227098   3.401   3.708   5.413 -0.2460 -0.1328 -0.6924
 6833SOL    HW327099   3.438   3.736   5.269 -1.9409  0.1306 -1.0990
 6833SOL    MW427100   3.411   3.681   5.331  0.1344  0.0082  0.1998
 6834SOL     OW27101   1.145   0.464   4.358 -0.3232 -0.0749  0.5803
 6834SOL    HW227102   1.218   0.511   4.316  0.3446 -1.2291  0.3942
 6834SOL    HW327103   1.122   0.396   4.295 -1.2130 -0.0516  0.8771
 6834SOL    MW427104   1.152   0.462   4.344  0.3814  0.2968 -0.4489
 6835SOL     OW27105   0.400   3.028   2.289 -0.1297  0.1735  0.0676
 6835SOL    HW227106   0.336   3.048   2.221 -0.6205 -0.8675  0.2004
 6835SOL    HW327107   0.348   3.002   2.365  0.4302 -0.2619  0.3189
 6835SOL    MW427108   0.385   3.027   2.290 -0.1685  0.2451 -0.6941
 6836SOL     OW27109   6.072   5.519   0.365  0.1443  0.1100  0.3817
 6836SOL    HW227110   6.068   5.495   0.458 -0.7954 -0.3029  0.2495
 6836SOL    HW327111   5.997   5.578   0.353  1.0716  1.2864  0.1849
 6836SOL    MW427112   6.061   5.524   0.376  0.2784 -0.2750  0.0781
 6837SOL     OW27113   3.798   2.027   4.609 -0.4404 -1.0052  0.2402
 6837SOL    HW227114   3.865   1.982   4.557  0.0536 -1.6445  1.3931
 6837SOL    HW327115   3.847   2.072   4.677 -0.9811  0.8443 -0.5363
 6837SOL    MW427116   3.813   2.027   4.611  0.5213  0.1792 -0.3201
 6838SOL     OW27117   1.639   2.788   0.325  0.0159 -0.5670 -0.1569
 6838SOL    HW227118   1.654   2.696   0.347 -0.2719 -1.1013 -1.9878
 6838SOL    HW327119   1.560   2.787   0.271  0.9413  0.5369 -1.6071
 6838SOL    MW427120   1.630   2.776   0.321 -0.0539 -0.3906 -0.7282
 6839SOL     OW27121   4.261   2.705   2.013 -0.1614  0.3599 -0.5241
 6839SOL    HW227122   4.271   2.655   2.094  0.3925  0.3981 -0.5706
 6839SOL    HW327123   4.178   2.674   1.976 -0.0942 -0.1208 -0.2731
 6839SOL    MW427124   4.251   2.695   2.019  0.1085 -1.1209  0.0520
 6840SOL     OW27125   4.510   1.858   4.177  0.0635  0.3914  0.4926
 6840SOL    HW227126   4.556   1.926   4.227  0.5079  2.5750 -2.6032
 6840SOL    HW327127   4.432   1.901   4.143 -1.4371 -1.6897  1.0884
 6840SOL    MW427128   4.506   1.873   4.179  0.0482 -0.3250  0.1027
 6841SOL     OW27129   0.193   4.737   1.793 -0.3577 -0.4699  0.5364
 6841SOL    HW227130   0.145   4.811   1.833  0.7135 -0.0294  1.0370
 6841SOL    HW327131   0.171   4.662   1.848 -0.5265 -0.2865  0.7217
 6841SOL    MW427132   0.183   4.737   1.806 -0.1303 -0.2508  0.0629
 6842SOL     OW27133   0.610   0.754   2.387 -0.0161  0.3867 -0.3657
 6842SOL    HW227134   0.643   0.741   2.476 -1.1206  0.1352  0.0286
 6842SOL    HW327135   0.568   0.839   2.389  0.0331  0.4205 -0.6788
 6842SOL    MW427136   0.609   0.763   2.399 -0.9139 -0.1318  0.0214
 6843SOL     OW27137   2.947   5.758   0.154 -0.5009 -0.6887  0.8267
 6843SOL    HW227138   3.011   5.760   0.225 -0.1990 -0.5188  0.5491
 6843SOL    HW327139   2.991   5.713   0.082  0.3820  1.9309 -0.3877
 6843SOL    MW427140   2.961   5.752   0.154 -0.2428 -0.1907  0.5453
 6844SOL     OW27141   2.172   1.003   0.531 -0.0726  0.2873 -0.0256
 6844SOL    HW227142   2.259   0.980   0.562 -0.8895 -0.1830  2.0346
 6844SOL    HW327143   2.155   1.090   0.568 -0.6264  0.2281 -0.1238
 6844SOL    MW427144   2.181   1.012   0.540 -0.1004 -0.9734 -0.0790
 6845SOL     OW27145   3.357   1.256   6.234 -0.7068 -0.0617  0.4757
 6845SOL    HW227146   3.331   1.172   6.195 -1.7959  1.1008 -1.4705
 6845SOL    HW327147   3.425   1.290   6.176  1.7069 -0.7057  2.7089
 6845SOL    MW427148   3.362   1.249   6.221 -0.0048 -0.2650  0.3639
 6846SOL     OW27149   4.445   2.390   3.390  0.1982 -0.0642  0.4391
 6846SOL    HW227150   4.377   2.323   3.391 -0.0055  0.1234 -0.3541
 6846SOL    HW327151   4.479   2.388   3.300  1.5584 -0.4793  0.9296
 6846SOL    MW427152   4.441   2.381   3.378 -0.2228 -0.9817 -0.6044
 6847SOL     OW27153   0.044   4.630   6.063  0.0372 -0.4151  0.3109
 6847SOL    HW227154   0.031   4.678   5.981  0.4730 -1.6495 -0.5150
 6847SOL    HW327155   0.009   4.688   6.130 -2.0847 -0.1354 -0.9364
 6847SOL    MW427156   0.037   4.644   6.061  0.1381 -0.3381  0.1765
 6848SOL     OW27157   4.550   2.625   2.762 -0.5695  0.9680  0.3390
 6848SOL    HW227158   4.570   2.534   2.783  0.8449  0.9340 -1.0077
 6848SOL    HW327159   4.482   2.650   2.825 -0.2507 -0.6934  1.3904
 6848SOL    MW427160   4.543   2.617   2.773 -0.6323 -0.5578 -0.1963
 6849SOL     OW27161   5.755   1.905   0.532 -0.2106 -0.2430 -0.3054
 6849SOL    HW227162   5.701   1.893   0.610 -0.7803 -0.0639 -0.6654
 6849SOL    HW327163   5.840   1.867   0.556  0.8854  3.0296  1.7550
 6849SOL    MW427164   5.759   1.899   0.546 -0.4066  0.1196  0.0573
 6850SOL     OW27165   1.936   5.612   4.959 -0.3504 -0.4551  0.3165
 6850SOL    HW227166   1.923   5.530   4.913  0.4732 -0.0758 -0.6581
 6850SOL    HW327167   1.872   5.672   4.921 -3.5137 -1.4579  3.5100
 6850SOL    MW427168   1.926   5.609   4.948  0.0484 -0.1104 -0.2183
 6851SOL     OW27169   3.926   0.480   5.035 -0.1413  0.3169  0.7555
 6851SOL    HW227170   3.935   0.539   4.960  2.8777 -1.7920 -0.7279
 6851SOL    HW327171   3.995   0.508   5.096 -1.1100  0.5949  1.7507
 6851SOL    MW427172   3.936   0.491   5.033  0.2744  0.5157 -0.1744
 6852SOL     OW27173   5.211   2.300   6.020  0.2991  0.1077  0.5516
 6852SOL    HW227174   5.237   2.389   5.999 -1.0109  0.7877  1.6398
 6852SOL    HW327175   5.156   2.309   6.098 -0.2799 -1.5957  0.3797
 6852SOL    MW427176   5.207   2.313   6.027  0.5129 -1.0044  0.6410
 6853SOL     OW27177   3.250   4.654   0.770  0.3155  0.8198  0.0492
 6853SOL    HW227178   3.261   4.578   0.827 -1.9650  0.5510  0.2006
 6853SOL    HW327179   3.290   4.627   0.687  0.7556 -0.0094  0.5195
 6853SOL    MW427180   3.257   4.640   0.766 -0.0513  0.1174  0.0906
 6854SOL     OW27181   5.412   5.506   6.111  0.4052  0.1659 -0.4055
 6854SOL    HW227182   5.401   5.443   6.039 -2.3805  0.4178 -0.2917
 6854SOL    HW327183   5.439   5.452   6.186 -1.9755 -0.9899 -0.2869
 6854SOL    MW427184   5.414   5.490   6.111  0.0978 -0.1949  0.1643
 6855SOL     OW27185   2.792   0.103   2.817 -0.1330  0.4194 -0.3793
 6855SOL    HW227186   2.799   0.162   2.892  0.2148  1.2875 -1.0716
 6855SOL    HW327187   2.840   0.024   2.844 -1.6262 -0.0675  1.0124
 6855SOL    MW427188   2.799   0.100   2.831  0.6759  0.0693 -0.1013
 6856SOL     OW27189   2.437   3.225   0.737  0.4261 -0.1971  0.0069
 6856SOL    HW227190   2.524   3.186   0.741 -0.4292 -2.1196  1.2992
 6856SOL    HW327191   2.382   3.166   0.788 -1.4122  1.5998  0.2249
 6856SOL    MW427192   2.441   3.212   0.745 -0.0561 -0.0271 -0.5332
 6857SOL     OW27193   5.871   6.354   4.949 -0.4232  0.0456 -0.2645
 6857SOL    HW227194   5.890   6.344   4.856 -2.9322 -3.6130 -0.5987
 6857SOL    HW327195   5.796   6.414   4.952  0.1427  0.7831 -0.4698
 6857SOL    MW427196   5.864   6.361   4.937 -0.0404  0.4640 -0.0198
 6858SOL     OW27197   3.490   0.490   1.045 -0.3763 -0.2132  0.0183
 6858SOL    HW227198   3.455   0.465   0.959 -0.4879 -3.2981  0.8076
 6858SOL    HW327199   3.430   0.449   1.107  0.6222  0.5570  1.5530
 6858SOL    MW427200   3.477   0.481   1.042  0.3792  0.4549  0.2722
 6859SOL     OW27201   6.293   1.647   3.571  0.0491 -0.3208  0.6980
 6859SOL    HW227202   6.202   1.627   3.547  0.6890 -1.2917 -1.0925
 6859SOL    HW327203   6.324   1.569   3.616  0.4674 -0.6491 -0.1398
 6859SOL    MW427204   6.285   1.634   3.574  0.0593 -0.2936 -0.5273
 6860SOL     OW27205   5.007   3.680   0.557  0.0743  0.3027 -0.2749
 6860SOL    HW227206   4.984   3.665   0.649  2.5289  0.6000  0.4491
 6860SOL    HW327207   4.977   3.601   0.512 -0.1339 -0.3598  0.9890
 6860SOL    MW427208   5.000   3.667   0.563 -0.1977  0.0136 -0.1229
 6861SOL     OW27209   4.856   3.452   5.342 -0.3163  0.4959 -0.2875
 6861SOL    HW227210   4.873   3.526   5.401  0.1059  1.8636 -2.0432
 6861SOL    HW327211   4.778   3.477   5.294  0.8945  0.7148 -2.2376
 6861SOL    MW427212   4.848   3.465   5.344 -0.2097 -0.2686  0.2269
 6862SOL     OW27213   2.939   4.822   5.326  0.1620  0.1196 -0.0758
 6862SOL    HW227214   2.942   4.886   5.397 -1.4636 -1.1575  1.2519
 6862SOL    HW327215   2.872   4.759   5.354  0.1659 -0.9772 -2.3118
 6862SOL    MW427216   2.930   4.822   5.339  0.4124 -0.0878  0.4687
 6863SOL     OW27217   3.389   4.896   3.320  0.3004  0.2373 -0.3853
 6863SOL    HW227218   3.388   4.891   3.224 -0.0866  1.1110 -0.4357
 6863SOL    HW327219   3.458   4.960   3.340 -0.0969  0.5892 -0.1181
 6863SOL    MW427220   3.398   4.904   3.310  0.6086 -0.0356  0.1922
 6864SOL     OW27221   0.241   1.858   2.475 -0.9604  0.0579  0.4835
 6864SOL    HW227222   0.214   1.805   2.549 -0.3884  0.5492  1.0521
 6864SOL    HW327223   0.198   1.942   2.488 -1.4698 -0.0930 -0.1551
 6864SOL    MW427224   0.232   1.862   2.486 -0.5241  0.4095 -0.1053
 6865SOL     OW27225   3.924   2.398   0.464  0.1350 -0.1622 -0.1985
 6865SOL    HW227226   3.859   2.438   0.521 -0.1860 -1.6742  0.5331
 6865SOL    HW327227   3.927   2.307   0.491 -0.8525 -1.2411 -3.3236
 6865SOL    MW427228   3.916   2.392   0.475  0.4144 -0.2335  0.4848
 6866SOL     OW27229   1.139   6.207   0.248  0.1738 -0.1074  0.0515
 6866SOL    HW227230   1.186   6.162   0.178  1.6139 -0.7577  1.3770
 6866SOL    HW327231   1.168   6.165   0.328 -1.3258  0.7001  1.0860
 6866SOL    MW427232   1.149   6.196   0.249 -0.5390  0.3068  0.5265
 6867SOL     OW27233   0.175   2.683   4.433 -0.5110  1.1159  0.2231
 6867SOL    HW227234   0.091   2.729   4.433 -0.9382  0.3493 -0.0746
 6867SOL    HW327235   0.240   2.753   4.438 -1.1383  1.7742 -0.5400
 6867SOL    MW427236   0.172   2.698   4.434 -0.7925  0.0471 -0.1022
 6868SOL     OW27237   1.559   2.277   5.489 -0.7060  0.2002 -0.0468
 6868SOL    HW227238   1.588   2.263   5.398  1.9317 -0.9033  0.8704
 6868SOL    HW327239   1.528   2.191   5.517  0.3768  0.0278  0.6733
 6868SOL    MW427240   1.559   2.264   5.480  0.7517 -0.4626 -0.6643
 6869SOL     OW27241   3.067   2.855   1.106 -0.0085 -0.2742  0.2185
 6869SOL    HW227242   3.098   2.836   1.018 -0.3072 -1.5347  0.3683
 6869SOL    HW327243   2.994   2.916   1.093  0.9287  0.7757 -0.2834
 6869SOL    MW427244   3.061   2.861   1.093  0.0876 -0.3251 -0.1421
 6870SOL     OW27245   3.742   0.430   3.241 -0.1872  0.6309  0.0610
 6870SOL    HW227246   3.810   0.409   3.176 -0.0745  1.2339 -0.0231
 6870SOL    HW327247   3.784   0.414   3.325 -0.7645 -1.5226  0.0178
 6870SOL    MW427248   3.756   0.425   3.243 -0.0385  0.7885 -0.2660
 6871SOL     OW27249   3.644   4.380   1.238  0.3527 -0.6933  0.0938
 6871SOL    HW227250   3.640   4.471   1.266  1.8471 -0.1427 -1.3077
 6871SOL    HW327251   3.612   4.330   1.313  0.9850  0.8861  1.4729
 6871SOL    MW427252   3.639   4.385   1.252 -0.3990 -0.7391  0.3143
 6872SOL     OW27253   0.133   5.088   3.900  0.0195 -0.1025 -0.2804
 6872SOL    HW227254   0.106   5.010   3.948  1.8995 -1.4364 -1.2577
 6872SOL    HW327255   0.175   5.055   3.821 -0.6203  1.9648 -1.5924
 6872SOL    MW427256   0.135   5.074   3.896  0.0787  0.1916 -0.4195
 6873SOL     OW27257   5.510   5.474   3.542 -0.6388 -0.2288 -0.6777
 6873SOL    HW227258   5.537   5.382   3.534  1.7958  0.4627 -1.1118
 6873SOL    HW327259   5.451   5.475   3.617  1.2916 -1.7788  0.9788
 6873SOL    MW427260   5.506   5.462   3.551  0.2057  0.1108  0.0713
 6874SOL     OW27261   4.195   3.573   2.286 -0.0188 -0.3508 -0.4686
 6874SOL    HW227262   4.241   3.652   2.315 -1.7764  0.1413  1.1905
 6874SOL    HW327263   4.253   3.501   2.313  0.3362  0.2785  0.5171
 6874SOL    MW427264   4.209   3.574   2.294 -0.2666 -0.2027  0.4556
 6875SOL     OW27265   2.392   2.040   2.185  0.1103 -0.2185  0.2322
 6875SOL    HW227266   2.402   1.988   2.105 -0.3452 -0.9879  0.6646
 6875SOL    HW327267   2.421   2.127   2.160  0.1211 -0.4835 -0.7365
 6875SOL    MW427268   2.397   2.044   2.171 -0.7066  0.3654 -0.2747
 6876SOL     OW27269   4.167   0.049   4.274 -0.2674 -0.0809 -0.3784
 6876SOL    HW227270   4.104   0.036   4.344  1.3131 -0.0504  1.1146
 6876SOL    HW327271   4.233  -0.019   4.288  0.2108  0.0812 -1.6944
 6876SOL    MW427272   4.167   0.038   4.285 -0.3033 -0.4639 -0.2998
 6877SOL     OW27273   0.721   1.546   4.073  0.0646  0.0401 -0.0136
 6877SOL    HW227274   0.783   1.517   4.006 -0.2425  0.4088 -0.4666
 6877SOL    HW327275   0.655   1.476   4.075  0.6164 -0.4666  0.6396
 6877SOL    MW427276   0.720   1.533   4.064 -0.4051  0.1010  0.1759
 6878SOL     OW27277   5.592   2.948   5.029  0.0775 -0.0582  0.2056
 6878SOL    HW227278   5.640   3.030   5.023  0.9840 -0.5424  0.7398
 6878SOL    HW327279   5.532   2.960   5.102 -1.6048  1.0202 -1.2486
 6878SOL    MW427280   5.590   2.960   5.038  0.6938  0.3136 -0.5148
 6879SOL     OW27281   1.904   6.394   1.072 -0.3915 -0.2376  0.1423
 6879SOL    HW227282   1.839   6.339   1.116  0.6450 -0.4198  1.5002
 6879SOL    HW327283   1.959   6.428   1.142  0.1892  0.9756 -0.8608
 6879SOL    MW427284   1.903   6.391   1.087 -0.3191 -0.1134 -0.0125
 6880SOL     OW27285   2.953   4.291   4.440 -0.0387 -0.2079  0.2401
 6880SOL    HW227286   2.965   4.206   4.481 -1.1343 -0.6550 -0.3333
 6880SOL    HW327287   2.875   4.281   4.385  0.5517  0.7928 -0.8286
 6880SOL    MW427288   2.944   4.279   4.438 -0.5346 -0.1008 -0.4912
 6881SOL     OW27289   4.519   1.261   1.341  0.2447  0.1735 -0.1181
 6881SOL    HW227290   4.598   1.207   1.354  0.3232  0.3647  0.2383
 6881SOL    HW327291   4.553   1.348   1.323  0.1177  0.1156 -0.6267
 6881SOL    MW427292   4.534   1.265   1.341  0.3359 -0.1804 -0.1317
 6882SOL     OW27293   5.025   2.712   0.941 -0.1858  0.1923 -0.2213
 6882SOL    HW227294   5.002   2.623   0.967 -0.9836  0.5534  0.3546
 6882SOL    HW327295   4.980   2.768   1.004  0.3368  1.0043 -0.5517
 6882SOL    MW427296   5.016   2.708   0.952 -0.6995 -0.5551 -0.6938
 6883SOL     OW27297   0.633   5.524   5.013  0.2636 -0.0922  0.1340
 6883SOL    HW227298   0.692   5.458   4.978  1.2045  1.1255 -0.6711
 6883SOL    HW327299   0.607   5.576   4.937  1.2185  1.7207  0.9642
 6883SOL    MW427300   0.638   5.522   4.999  0.0543  0.5113 -0.6690
 6884SOL     OW27301   5.736   0.205   3.942 -0.5767 -0.3948  0.4021
 6884SOL    HW227302   5.695   0.196   4.028 -0.7898 -0.0661  0.3354
 6884SOL    HW327303   5.777   0.120   3.926 -0.0849 -0.2929  1.0609
 6884SOL    MW427304   5.736   0.192   3.951 -0.2368 -0.2619 -0.0015
 6885SOL     OW27305   3.747   0.817   0.017  0.3380  0.1710  0.2173
 6885SOL    HW227306   3.671   0.860   0.056 -0.1831 -2.3018  2.1475
 6885SOL    HW327307   3.806   0.801   0.091  1.6590 -0.1094 -0.8632
 6885SOL    MW427308   3.745   0.820   0.032 -0.0373 -0.1516 -0.6569
 6886SOL     OW27309   4.431   2.404   5.332  0.0253 -0.4078 -0.0287
 6886SOL    HW227310   4.405   2.461   5.260  0.1788 -1.3293 -0.8383
 6886SOL    HW327311   4.440   2.462   5.408  0.0027  0.5994 -0.7888
 6886SOL    MW427312   4.429   2.419   5.333 -0.3249 -0.1635 -0.0750
 6887SOL     OW27313   1.254   4.941   2.009 -0.1291 -0.7114 -0.3226
 6887SOL    HW227314   1.211   4.909   2.088  0.1252 -1.0935 -0.3378
 6887SOL    HW327315   1.319   5.003   2.041  1.1885 -2.1557 -0.0757
 6887SOL    MW427316   1.257   4.945   2.023  0.8559 -0.1562  0.3249
 6888SOL     OW27317   2.964   2.878   1.800 -0.0372  0.4298  0.5303
 6888SOL    HW227318   2.900   2.938   1.839 -0.2075  0.4733  0.1837
 6888SOL    HW327319   3.048   2.906   1.837 -0.1264  0.8331  0.4294
 6888SOL    MW427320   2.967   2.890   1.810  0.1403  0.5043  0.6452
 6889SOL     OW27321   1.949   0.993   0.285  0.1942  0.0739 -0.0496
 6889SOL    HW227322   2.009   1.068   0.276  0.8426 -0.2051  1.5465
 6889SOL    HW327323   1.869   1.030   0.322 -0.2116  0.2574 -1.0721
 6889SOL    MW427324   1.947   1.008   0.288  0.7829 -0.3226  0.0397
 6890SOL     OW27325   0.049   2.040   1.435  0.3315 -0.8768 -0.5465
 6890SOL    HW227326   0.035   2.087   1.353 -0.1773  1.5739  0.8466
 6890SOL    HW327327   0.144   2.039   1.447  0.3529 -0.2358 -0.6313
 6890SOL    MW427328   0.059   2.046   1.426  0.3391  0.4070  0.0866
 6891SOL     OW27329   4.955   1.324   0.247  0.0475 -0.4889 -0.5425
 6891SOL    HW227330   4.903   1.381   0.304 -0.5694  0.0773 -1.6551
 6891SOL    HW327331   5.003   1.383   0.190 -0.0932 -1.0574 -1.2695
 6891SOL    MW427332   4.954   1.339   0.247  0.1761  0.4232 -0.4285
 6892SOL     OW27333   2.473   2.250   4.410 -0.4463  0.0437  0.0362
 6892SOL    HW227334   2.452   2.164   4.375  0.7543 -0.7537  1.1851
 6892SOL    HW327335   2.549   2.279   4.360 -1.6336  1.0751 -1.2634
 6892SOL    MW427336   2.480   2.243   4.399  0.1556  0.3846 -0.2457
 6893SOL     OW27337   6.314   6.263   5.538  0.0527  0.2527 -0.0376
 6893SOL    HW227338   6.278   6.320   5.470  1.1937 -0.1028 -0.9689
 6893SOL    HW327339   6.239   6.213   5.570 -0.1686 -1.2723 -2.6961
 6893SOL    MW427340   6.299   6.264   5.534 -0.9521 -0.5522  0.4997
 6894SOL     OW27341   4.988   5.128   3.372  0.4128 -0.3275  0.7974
 6894SOL    HW227342   4.916   5.124   3.434  1.0035 -2.5356  1.4457
 6894SOL    HW327343   4.962   5.069   3.301 -0.0181  1.7572 -0.8701
 6894SOL    MW427344   4.975   5.119   3.371  0.2795  0.4725 -0.6374
 6895SOL     OW27345   4.949   1.979   3.555  0.0291 -0.0433  0.1572
 6895SOL    HW227346   4.927   1.930   3.476  0.5983 -1.5953  0.9224
 6895SOL    HW327347   4.885   1.950   3.620  0.6264 -0.0986  0.7330
 6895SOL    MW427348   4.938   1.969   3.553  0.4548 -0.6010 -0.3342
 6896SOL     OW27349   0.485   5.544   3.658 -0.1689  0.0110 -0.2239
 6896SOL    HW227350   0.479   5.597   3.579 -1.7292  0.6318  0.2770
 6896SOL    HW327351   0.449   5.459   3.633 -0.6367  0.1985 -0.1897
 6896SOL    MW427352   0.479   5.540   3.645 -0.2234 -0.0331  0.0090
 6897SOL     OW27353   1.630   3.062   3.882  0.2735  0.9510  0.2705
 6897SOL    HW227354   1.620   3.151   3.848 -0.1424  0.6160 -0.5063
 6897SOL    HW327355   1.656   3.010   3.805 -0.8558  0.1409  0.4172
 6897SOL    MW427356   1.632   3.067   3.867  0.0725 -0.5440  0.1163
 6898SOL     OW27357   6.108   1.903   3.251 -0.1334 -0.1795  0.5745
 6898SOL    HW227358   6.013   1.891   3.259  0.0940 -1.5308  1.6271
 6898SOL    HW327359   6.118   1.963   3.177 -1.7691 -0.7926 -0.2034
 6898SOL    MW427360   6.097   1.909   3.242  0.0771 -0.2831 -0.7398
 6899SOL     OW27361   1.738   5.391   2.240  0.0106  0.3133  0.1581
 6899SOL    HW227362   1.810   5.424   2.295  0.7696  0.9147 -1.1465
 6899SOL    HW327363   1.679   5.465   2.231  0.1395  0.3716 -0.2257
 6899SOL    MW427364   1.740   5.405   2.246 -0.3871  0.5334  0.6086
 6900SOL     OW27365   4.067   0.846   3.996  0.2550 -0.1499 -0.1036
 6900SOL    HW227366   4.026   0.780   4.053 -0.6843 -0.5857 -1.2413
 6900SOL    HW327367   4.026   0.928   4.022  0.9378 -0.1090  0.8682
 6900SOL    MW427368   4.056   0.848   4.007 -0.2543 -0.1675 -0.6136
 6901SOL     OW27369   3.265   4.203   5.293  1.0472 -0.3957 -0.0433
 6901SOL    HW227370   3.222   4.137   5.238  0.4146 -0.8354  0.9550
 6901SOL    HW327371   3.216   4.284   5.275  1.5094 -0.2913 -0.8954
 6901SOL    MW427372   3.253   4.205   5.283 -0.0387  0.3523  0.7658
 6902SOL     OW27373   2.018   1.336   5.653 -0.2066 -0.3585 -0.0173
 6902SOL    HW227374   2.108   1.306   5.645 -0.2110 -0.1015 -1.2538
 6902SOL    HW327375   1.991   1.309   5.741  0.5056 -2.0298 -0.2648
 6902SOL    MW427376   2.026   1.328   5.663 -0.0116  0.1248 -0.5948
 6903SOL     OW27377   5.706   0.001   0.056 -0.5086 -0.7287  0.1980
 6903SOL    HW227378   5.767   0.062   0.015 -0.9495 -0.4497 -0.0461
 6903SOL    HW327379   5.665   0.052   0.126  1.0008 -1.4970  1.7096
 6903SOL    MW427380   5.708   0.016   0.060  0.0809 -0.0070 -0.0624
 6904SOL     OW27381   4.003   3.839   5.599  0.0777  0.7783 -0.3706
 6904SOL    HW227382   4.018   3.922   5.554 -1.2783  1.0664 -0.3491
 6904SOL    HW327383   3.952   3.787   5.537 -0.4801  0.5877  0.2352
 6904SOL    MW427384   3.998   3.843   5.585  0.0259 -0.3510  0.6700
 6905SOL     OW27385   2.895   1.834   3.792  0.2932 -0.1729  0.4539
 6905SOL    HW227386   2.945   1.847   3.711 -0.3044  1.0430  0.2539
 6905SOL    HW327387   2.807   1.864   3.770  0.0696 -0.0695  1.4789
 6905SOL    MW427388   2.890   1.840   3.778  0.3580  0.3159 -0.3063
 6906SOL     OW27389   1.981   2.842   3.902  0.0109 -0.0504  0.2853
 6906SOL    HW227390   1.995   2.750   3.883  1.5261  0.6089 -2.3318
 6906SOL    HW327391   2.065   2.873   3.936 -0.3600  0.4576  0.7652
 6906SOL    MW427392   1.993   2.834   3.904 -0.3236 -0.0928 -0.2868
 6907SOL     OW27393   6.253   3.352   5.756 -0.5538  0.3091 -0.3329
 6907SOL    HW227394   6.178   3.295   5.739  0.0525 -1.1568  1.5135
 6907SOL    HW327395   6.256   3.360   5.852  1.7633  0.1023 -0.3356
 6907SOL    MW427396   6.244   3.345   5.767 -0.0585  0.1570  0.1347
 6908SOL     OW27397   3.435   2.184   5.297 -0.0990 -0.1911 -0.0350
 6908SOL    HW227398   3.433   2.092   5.321  0.9477 -0.6130 -1.4216
 6908SOL    HW327399   3.503   2.223   5.352  1.1713 -0.7971 -1.1402
 6908SOL    MW427400   3.444   2.177   5.307  1.0733  0.0433 -0.0077
 6909SOL     OW27401   0.598   4.621   3.721 -0.1524 -1.1693  0.1169
 6909SOL    HW227402   0.535   4.555   3.693 -0.9164 -0.7657  0.8447
 6909SOL    HW327403   0.674   4.607   3.665 -0.4311 -2.4385  0.0315
 6909SOL    MW427404   0.600   4.611   3.710  0.2723 -0.4806  0.2226
 6910SOL     OW27405   0.392   0.296   0.913  0.2721 -0.4027 -0.0810
 6910SOL    HW227406   0.464   0.234   0.904  0.4987 -0.1268 -0.1821
 6910SOL    HW327407   0.413   0.366   0.850  0.5017  0.2341  0.6909
 6910SOL    MW427408   0.404   0.297   0.903 -0.3761  0.1622  0.1608
 6911SOL     OW27409   5.611   2.455   2.831 -0.3933  0.0613  0.2728
 6911SOL    HW227410   5.596   2.536   2.784  1.3519 -0.6803 -1.7266
 6911SOL    HW327411   5.645   2.394   2.765 -2.1740 -2.5196  1.5384
 6911SOL    MW427412   5.614   2.457   2.816 -0.2867 -0.5721 -0.6990
 6912SOL     OW27413   0.443   2.831   5.846  0.1013  0.1463 -0.5717
 6912SOL    HW227414   0.493   2.807   5.768 -1.6092 -1.4318 -1.2295
 6912SOL    HW327415   0.453   2.757   5.905 -0.8494  0.1272 -0.4197
 6912SOL    MW427416   0.451   2.818   5.844  0.1964 -0.2349 -0.3916
 6913SOL     OW27417   0.077   0.034   2.272 -0.0607  0.5009 -0.6423
 6913SOL    HW227418   0.115  -0.053   2.285  0.1675  0.6971  0.0246
 6913SOL    HW327419  -0.017   0.023   2.289 -0.2654  0.1069 -1.8812
 6913SOL    MW427420   0.070   0.021   2.276  0.5819 -0.4446  0.4616
 6914SOL     OW27421   4.190   5.597   5.417  0.4620  0.2097  0.0578
 6914SOL    HW227422   4.179   5.690   5.396  1.9462  0.2506 -0.6911
 6914SOL    HW327423   4.276   5.575   5.381  1.4955 -0.6921  2.8709
 6914SOL    MW427424   4.200   5.606   5.409  0.2260  0.0571 -0.2243
 6915SOL     OW27425   3.947   6.088   6.164 -0.2180 -0.4863  0.1351
 6915SOL    HW227426   3.977   6.071   6.074 -0.4768 -0.7034  0.0868
 6915SOL    HW327427   3.966   6.180   6.179  0.6163 -0.6510  0.1610
 6915SOL    MW427428   3.953   6.098   6.154 -0.3673  0.0880 -0.1147
 6916SOL     OW27429   1.269   3.081   1.254  0.5893 -0.4458 -0.5310
 6916SOL    HW227430   1.214   3.135   1.311  2.3506 -0.3092  1.1393
 6916SOL    HW327431   1.208   3.015   1.218 -0.6590 -0.3697  1.3016
 6916SOL    MW427432   1.253   3.079   1.257 -0.0035 -0.5435  0.1573
 6917SOL     OW27433   3.328   6.004   2.844 -0.4151 -0.2052  0.0999
 6917SOL    HW227434   3.282   6.039   2.921 -0.1092  1.2361 -0.3405
 6917SOL    HW327435   3.345   6.081   2.790  0.9378 -0.9583 -0.5843
 6917SOL    MW427436   3.324   6.019   2.847 -0.1740 -0.3145  0.0822
 6918SOL     OW27437   3.496   3.325   6.376  0.2972 -0.0026 -0.1501
 6918SOL    HW227438   3.418   3.310   6.428  0.0666 -0.3533 -0.5893
 6918SOL    HW327439   3.554   3.375   6.433 -0.2194  0.2013  0.2007
 6918SOL    MW427440   3.494   3.329   6.390 -0.7725 -0.4592  0.2185
 6919SOL     OW27441   1.705   1.617   6.266 -0.1986 -0.1179 -0.0439
 6919SOL    HW227442   1.752   1.622   6.350  0.7751 -0.1282 -0.5714
 6919SOL    HW327443   1.753   1.677   6.209  1.0751 -2.3813 -1.5067
 6919SOL    MW427444   1.718   1.626   6.270 -0.1278 -0.8717 -0.0695
 6920SOL     OW27445   2.545   4.851   2.755 -0.3504  0.5548 -0.6358
 6920SOL    HW227446   2.574   4.765   2.726  1.4734  1.1624 -0.6908
 6920SOL    HW327447   2.560   4.850   2.850 -1.6065  0.3672 -0.4103
 6920SOL    MW427448   2.551   4.839   2.764  0.0003 -0.6090 -0.2627
 6921SOL     OW27449   4.360   2.685   2.962  0.4882 -0.3969  0.0521
 6921SOL    HW227450   4.432   2.693   3.024  1.5144  0.6710 -1.2360
 6921SOL    HW327451   4.316   2.604   2.987 -0.6592  1.1522  3.7063
 6921SOL    MW427452   4.363   2.675   2.973  0.1746 -0.1858 -0.0473
 6922SOL     OW27453   3.816   2.641   2.514  0.0347 -0.0996  0.0543
 6922SOL    HW227454   3.875   2.686   2.575  1.1158  0.4833 -1.3807
 6922SOL    HW327455   3.765   2.711   2.473 -1.4151 -0.5670  0.9616
 6922SOL    MW427456   3.817   2.656   2.517 -0.1217  0.6936  0.1964
 6923SOL     OW27457   1.354   1.367   2.487 -0.2426  0.4345  0.5127
 6923SOL    HW227458   1.289   1.397   2.423  1.4310  0.3719 -1.3198
 6923SOL    HW327459   1.353   1.434   2.555 -0.4251  1.8056 -0.7768
 6923SOL    MW427460   1.346   1.380   2.487  0.0423 -0.6108 -0.8584
 6924SOL     OW27461   1.988   4.651   0.460 -0.0413 -0.9381  0.6151
 6924SOL    HW227462   1.938   4.619   0.385  0.9551  0.0303 -0.5061
 6924SOL    HW327463   1.954   4.602   0.534 -1.6501 -1.3199 -0.3335
 6924SOL    MW427464   1.977   4.640   0.460 -0.0221 -0.3163  0.4371
 6925SOL     OW27465   0.828   5.715   1.690 -0.0144  0.3971  0.2210
 6925SOL    HW227466   0.780   5.635   1.709 -0.7760  0.6776 -0.4934
 6925SOL    HW327467   0.908   5.685   1.646 -0.8226  0.0816 -1.0706
 6925SOL    MW427468   0.832   5.700   1.687 -0.2661  0.2350 -0.3162
 6926SOL     OW27469   5.109   2.980   3.734  0.2109 -0.4196 -0.3238
 6926SOL    HW227470   5.017   2.991   3.710 -0.0751 -1.1488  0.3930
 6926SOL    HW327471   5.122   2.885   3.740  0.9472 -0.3218 -0.1932
 6926SOL    MW427472   5.099   2.969   3.732  0.0170  0.0813  0.3818
 6927SOL     OW27473   5.628   1.620   2.829 -0.4622  0.0145 -0.2093
 6927SOL    HW227474   5.563   1.630   2.898  0.8478  1.4330  0.9154
 6927SOL    HW327475   5.615   1.696   2.772 -0.2037 -0.0212 -0.3192
 6927SOL    MW427476   5.618   1.631   2.830  0.8384  0.4408  0.0807
 6928SOL     OW27477   0.555   2.036   5.690 -0.1709 -0.3534  0.1531
 6928SOL    HW227478   0.600   2.057   5.609  1.8083  0.5960  1.4376
 6928SOL    HW327479   0.532   1.943   5.681  1.2647 -0.6400 -0.9251
 6928SOL    MW427480   0.558   2.026   5.678  0.0971 -0.1035  0.3273
 6929SOL     OW27481   1.859   3.098   0.727  0.1051  0.4091 -0.2267
 6929SOL    HW227482   1.881   3.059   0.642  0.7864 -0.2581  0.2449
 6929SOL    HW327483   1.941   3.136   0.758  0.1380 -0.3372  0.6434
 6929SOL    MW427484   1.873   3.098   0.720  0.5895 -0.0923  0.2638
 6930SOL     OW27485   6.157   1.568   2.031  0.1738  0.5279  0.0945
 6930SOL    HW227486   6.221   1.551   2.101 -0.3896  0.0770  0.5110
 6930SOL    HW327487   6.114   1.650   2.057  2.0045  2.0256 -1.2623
 6930SOL    MW427488   6.160   1.577   2.044 -0.5816  0.2856  0.5253
 6931SOL     OW27489   1.030   2.146   2.838  0.2529  0.1499  0.2920
 6931SOL    HW227490   1.061   2.074   2.784  0.6829 -0.5356  1.4140
 6931SOL    HW327491   1.110   2.184   2.875 -0.1034 -0.9946  2.4225
 6931SOL    MW427492   1.045   2.142   2.836  0.0579  0.6783  0.3346
 6932SOL     OW27493   4.389   6.403   6.205 -0.9360 -0.5673 -0.1875
 6932SOL    HW227494   4.367   6.481   6.155 -2.0021 -0.0366  1.0521
 6932SOL    HW327495   4.473   6.423   6.247 -1.8465  0.4808  1.2070
 6932SOL    MW427496   4.397   6.416   6.204  0.1541  0.5191  0.1121
 6933SOL     OW27497   5.535   2.259   1.686  0.3309  0.5589  0.0634
 6933SOL    HW227498   5.591   2.184   1.666 -1.3365 -1.0781  1.2306
 6933SOL    HW327499   5.453   2.241   1.639 -0.7146  0.7444  1.7450
 6933SOL    MW427500   5.531   2.247   1.677  0.3807  0.1821  0.0043
 6934SOL     OW27501   5.024   5.248   5.511  0.1171  0.1267 -0.0326
 6934SOL    HW227502   4.968   5.233   5.435  0.2980 -0.2498 -0.0936
 6934SOL    HW327503   5.048   5.161   5.542 -0.4005  0.2668  0.7979
 6934SOL    MW427504   5.020   5.235   5.505  0.4144  0.6295 -0.1364
 6935SOL     OW27505   1.237   3.450   4.955 -0.1962 -0.2454  0.6940
 6935SOL    HW227506   1.305   3.384   4.973 -0.4153 -0.7087 -0.0957
 6935SOL    HW327507   1.209   3.481   5.041 -2.8001 -3.9342  1.4094
 6935SOL    MW427508   1.243   3.445   4.969 -0.2848  0.6605 -0.2055
 6936SOL     OW27509   3.067   4.589   0.451  0.1867 -0.1166 -0.4246
 6936SOL    HW227510   3.157   4.575   0.423  0.4421 -0.1460  0.3820
 6936SOL    HW327511   3.051   4.520   0.516  0.2128  1.0092  0.8187
 6936SOL    MW427512   3.077   4.578   0.456  0.2652  0.5274  0.0142
 6937SOL     OW27513   5.639   3.263   3.856  0.4582 -0.7547 -0.3173
 6937SOL    HW227514   5.630   3.249   3.951 -0.9909  2.1550  0.0791
 6937SOL    HW327515   5.733   3.275   3.843  0.4848  4.2988  1.9003
 6937SOL    MW427516   5.650   3.263   3.867 -0.1740  0.5722 -0.2556
 6938SOL     OW27517   5.592   3.452   5.617  0.8557 -0.4537 -0.4031
 6938SOL    HW227518   5.505   3.431   5.584  1.8792 -3.4420 -1.5179
 6938SOL    HW327519   5.629   3.512   5.551 -0.4628  1.3382  0.3899
 6938SOL    MW427520   5.585   3.457   5.604 -0.3695 -0.3156 -0.2157
 6939SOL     OW27521   3.531   1.109   1.426 -0.0493 -0.0879  0.2348
 6939SOL    HW227522   3.505   1.059   1.349  0.4791 -0.7459  0.4680
 6939SOL    HW327523   3.503   1.055   1.500  1.4347 -0.5672  0.4907
 6939SOL    MW427524   3.524   1.095   1.426 -0.6641 -0.0153 -0.1819
 6940SOL     OW27525   3.164   2.222   4.462  0.0992  0.3508 -0.3201
 6940SOL    HW227526   3.218   2.181   4.395 -0.5753  0.9699 -1.2643
 6940SOL    HW327527   3.134   2.149   4.516 -1.2135 -0.4804 -2.0575
 6940SOL    MW427528   3.167   2.207   4.460  0.6266  0.2107 -0.0350
 6941SOL     OW27529   0.008   5.981   1.529 -0.3838 -0.3184 -0.2814
 6941SOL    HW227530   0.070   5.992   1.457  1.2631 -2.2783  0.7415
 6941SOL    HW327531   0.007   6.066   1.573 -0.8848  0.6979 -2.1402
 6941SOL    MW427532   0.016   5.993   1.525 -0.3579 -0.2299 -0.3518
 6942SOL     OW27533   6.114   5.031   1.539  0.0092  0.3405 -0.1242
 6942SOL    HW227534   6.070   5.083   1.606  0.6396  0.4484  0.2128
 6942SOL    HW327535   6.180   4.981   1.588 -1.4645 -1.8153 -0.2231
 6942SOL    MW427536   6.117   5.031   1.555  0.1742 -0.4690  0.3800
 6943SOL     OW27537   4.141   1.957   2.789  0.4944 -0.2808  0.1871
 6943SOL    HW227538   4.209   1.892   2.806  0.6740 -0.2767 -0.5007
 6943SOL    HW327539   4.065   1.906   2.762  0.2689 -0.2722  0.7738
 6943SOL    MW427540   4.140   1.942   2.788 -0.2567  0.3714  0.3469
 6944SOL     OW27541   5.045   3.738   6.255  0.3599 -0.5788  0.3217
 6944SOL    HW227542   4.988   3.680   6.306 -0.0057  0.0282  0.6222
 6944SOL    HW327543   5.045   3.700   6.167  0.3376 -1.1776  0.5730
 6944SOL    MW427544   5.037   3.725   6.250 -0.3124  0.3058  0.2597
 6945SOL     OW27545   2.128   4.861   1.556  0.3760 -0.2691  0.1274
 6945SOL    HW227546   2.168   4.775   1.567 -0.4672 -0.9330 -1.6719
 6945SOL    HW327547   2.162   4.892   1.472 -0.7664  0.3330 -0.1221
 6945SOL    MW427548   2.138   4.854   1.546 -0.7518  0.0793  0.6024
 6946SOL     OW27549   4.784   4.085   1.805 -0.2932 -0.2425 -0.5955
 6946SOL    HW227550   4.726   4.156   1.833 -0.4255 -0.7721  0.5364
 6946SOL    HW327551   4.863   4.096   1.859 -0.3557 -0.9975 -0.3369
 6946SOL    MW427552   4.787   4.096   1.816 -0.0871 -0.5405 -0.3570
 6947SOL     OW27553   3.922   0.080   5.049 -0.3877 -0.4861  0.4666
 6947SOL    HW227554   3.915   0.145   5.119 -1.5921 -1.6651  1.4920
 6947SOL    HW327555   3.841   0.088   5.000 -0.1834 -0.6621  0.0907
 6947SOL    MW427556   3.911   0.089   5.051 -0.4165 -0.0408 -0.4469
 6948SOL     OW27557   5.722   0.107   3.050  0.3531 -0.0679 -0.2036
 6948SOL    HW227558   5.643   0.078   3.006 -0.2254  2.2464 -0.8403
 6948SOL    HW327559   5.694   0.129   3.139  0.8585 -1.7016  0.3884
 6948SOL    MW427560   5.708   0.106   3.056 -0.2778  0.0374  0.2554
 6949SOL     OW27561   1.616   3.559   1.705  0.1843 -0.7882  0.2089
 6949SOL    HW227562   1.646   3.649   1.688  0.0216 -0.4951  1.3232
 6949SOL    HW327563   1.542   3.547   1.646  0.5533 -0.3783 -0.3418
 6949SOL    MW427564   1.610   3.570   1.695  0.3046  0.0649 -0.2398
 6950SOL     OW27565   0.530   1.191   6.293 -0.4741 -1.0358  0.4371
 6950SOL    HW227566   0.492   1.121   6.344 -0.5548 -1.9824 -0.8738
 6950SOL    HW327567   0.569   1.147   6.217  0.2735  0.2424  0.0464
 6950SOL    MW427568   0.530   1.176   6.289  0.3291  0.2862  0.3709
 6951SOL     OW27569   2.765   0.180   0.327 -0.1685 -0.8039  0.3055
 6951SOL    HW227570   2.813   0.106   0.290  0.3711 -0.4352  0.2691
 6951SOL    HW327571   2.825   0.254   0.320 -0.3488 -0.5586  1.2037
 6951SOL    MW427572   2.779   0.180   0.321  0.3232  0.5159 -0.5045
 6952SOL     OW27573   2.217   2.618   5.392 -0.3361 -0.7468  0.2348
 6952SOL    HW227574   2.201   2.523   5.389  1.2093 -1.0202 -0.6230
 6952SOL    HW327575   2.227   2.644   5.301 -0.1237  0.1310  0.4976
 6952SOL    MW427576   2.216   2.609   5.380 -0.4712 -0.6961  0.4783
 6953SOL     OW27577   0.233   2.750   3.765 -0.0970  0.0892 -0.1530
 6953SOL    HW227578   0.217   2.732   3.672 -1.5740 -1.1882  0.3136
 6953SOL    HW327579   0.233   2.665   3.807 -1.3213  0.7573  1.2930
 6953SOL    MW427580   0.231   2.737   3.758  0.1510 -0.0814 -0.8985
 6954SOL     OW27581   1.694   0.569   2.561 -0.4967  0.2149 -0.0241
 6954SOL    HW227582   1.605   0.600   2.544 -1.1069 -1.2133  0.3541
 6954SOL    HW327583   1.699   0.485   2.515 -0.4001 -1.1979  2.4075
 6954SOL    MW427584   1.683   0.562   2.553  0.1131  0.6368  0.1435
 6955SOL     OW27585   5.590   0.592   1.789  0.1178 -0.5005 -0.2348
 6955SOL    HW227586   5.621   0.629   1.707  0.9093  0.2626  0.3899
 6955SOL    HW327587   5.495   0.606   1.788 -0.1068 -1.9697 -1.7301
 6955SOL    MW427588   5.581   0.599   1.778 -0.0952  0.4283  0.2826
 6956SOL     OW27589   6.128   1.510   3.072 -0.0598  0.2448  0.2396
 6956SOL    HW227590   6.108   1.601   3.049 -1.8426  0.1768  1.3050
 6956SOL    HW327591   6.044   1.474   3.100  0.5620 -1.8157 -0.3845
 6956SOL    MW427592   6.114   1.517   3.073  0.5584 -0.1417  0.5403
 6957SOL     OW27593   0.152   0.196   3.272 -0.0051 -0.0889 -0.4749
 6957SOL    HW227594   0.121   0.130   3.334  1.1369 -0.3724 -0.1885
 6957SOL    HW327595   0.108   0.176   3.190 -0.5260 -0.5125 -0.0944
 6957SOL    MW427596   0.142   0.185   3.270 -0.1262 -0.5245  0.2773
 6958SOL     OW27597   2.877   5.683   0.620 -0.3314  0.4998  0.2736
 6958SOL    HW227598   2.861   5.769   0.580 -1.6414 -0.4186 -1.2909
 6958SOL    HW327599   2.793   5.661   0.660 -0.8798 -1.2065 -1.6807
 6958SOL    MW427600   2.863   5.692   0.620  0.0918  0.2527  0.0827
 6959SOL     OW27601   0.911   3.187   2.104 -0.1693  0.0649 -0.1644
 6959SOL    HW227602   0.825   3.190   2.146 -0.5549 -1.5532 -0.7559
 6959SOL    HW327603   0.960   3.121   2.153 -0.1682 -0.8844 -1.3749
 6959SOL    MW427604   0.907   3.179   2.116  0.1659 -0.0168 -0.5880
 6960SOL     OW27605   0.223   2.823   0.268  0.0458  0.4459 -0.2163
 6960SOL    HW227606   0.216   2.798   0.361 -1.3384  2.0295  0.1680
 6960SOL    HW327607   0.284   2.896   0.267  0.6661 -0.0650 -0.6922
 6960SOL    MW427608   0.230   2.829   0.280 -0.3623 -0.5939  0.0001
 6961SOL     OW27609   4.439   5.841   6.208  0.6804  0.7155  0.1015
 6961SOL    HW227610   4.475   5.792   6.134  1.4234  0.8098  0.3860
 6961SOL    HW327611   4.501   5.913   6.220  0.7117  0.5458  0.9784
 6961SOL    MW427612   4.452   5.844   6.200 -0.1129 -0.3571 -0.0386
 6962SOL     OW27613   3.968   1.804   5.322 -0.3480 -0.1324 -0.2222
 6962SOL    HW227614   4.013   1.880   5.357 -1.4503  1.0533 -1.2830
 6962SOL    HW327615   4.034   1.734   5.322  0.3935  0.5175  1.7137
 6962SOL    MW427616   3.983   1.805   5.327  0.6949 -0.4892  0.0229
 6963SOL     OW27617   5.607   3.598   3.854  0.4032 -0.0385 -0.4854
 6963SOL    HW227618   5.569   3.545   3.784 -0.1280 -0.2997 -0.0072
 6963SOL    HW327619   5.569   3.685   3.841  0.3530 -0.0709 -0.5612
 6963SOL    MW427620   5.597   3.602   3.843  0.0365  0.3120 -0.2180
 6964SOL     OW27621   1.182   2.275   3.655 -0.0223  0.1621  0.8212
 6964SOL    HW227622   1.200   2.294   3.747 -1.3683 -0.9261  1.3513
 6964SOL    HW327623   1.117   2.340   3.629  2.0327  1.9673 -0.1064
 6964SOL    MW427624   1.176   2.286   3.663 -0.6994 -0.3535 -0.0326
 6965SOL     OW27625   1.994   1.953   1.324 -0.1273  0.6776 -0.0647
 6965SOL    HW227626   2.026   1.866   1.347  3.7597  1.5856 -1.2311
 6965SOL    HW327627   1.984   1.998   1.408 -2.0396 -0.7888  0.5362
 6965SOL    MW427628   1.997   1.948   1.338 -0.0829  0.2617 -0.2053
 6966SOL     OW27629   5.724   5.824   2.134  0.3076 -0.2771  0.0073
 6966SOL    HW227630   5.740   5.885   2.205  0.9147  1.3228 -1.4371
 6966SOL    HW327631   5.630   5.806   2.137  0.1207  0.7663  0.4360
 6966SOL    MW427632   5.714   5.830   2.143  0.3273 -0.3648 -0.2695
 6967SOL     OW27633   4.919   5.978   0.510 -0.1481  0.2122 -0.2743
 6967SOL    HW227634   4.854   6.025   0.562  1.2331  1.3415  0.4934
 6967SOL    HW327635   4.965   5.922   0.573 -1.0161 -1.3454 -0.9847
 6967SOL    MW427636   4.917   5.977   0.525  0.5728 -0.0644  0.5611
 6968SOL     OW27637   2.779   4.596   5.143  0.1024  0.0893 -0.2846
 6968SOL    HW227638   2.753   4.671   5.089 -0.0050  0.4836  0.3009
 6968SOL    HW327639   2.751   4.619   5.231 -0.6867 -1.0218 -0.2318
 6968SOL    MW427640   2.772   4.609   5.147  0.7613  1.2044 -0.3237
 6969SOL     OW27641   4.498   0.774   5.077 -0.5740 -0.4959 -0.0036
 6969SOL    HW227642   4.490   0.836   5.150 -0.8724 -2.3743  1.6566
 6969SOL    HW327643   4.532   0.826   5.005 -1.6797  1.7855  1.0177
 6969SOL    MW427644   4.502   0.789   5.077  0.7108  0.2113 -0.5019
 6970SOL     OW27645   2.143   5.353   0.892 -0.0627 -0.1961 -0.2615
 6970SOL    HW227646   2.167   5.445   0.906  2.8954 -0.7958 -0.6161
 6970SOL    HW327647   2.141   5.344   0.796 -1.6370 -0.2567 -0.2466
 6970SOL    MW427648   2.146   5.364   0.881 -0.2716 -0.0239  1.2439
 6971SOL     OW27649   1.199   5.322   3.292 -0.1041 -0.5739 -0.1653
 6971SOL    HW227650   1.208   5.266   3.215 -0.3937 -1.2101  0.2597
 6971SOL    HW327651   1.106   5.321   3.313  0.0166 -0.6817  0.3940
 6971SOL    MW427652   1.188   5.315   3.285 -0.5138 -0.7516  0.1468
 6972SOL     OW27653   2.187   1.915   4.082  0.1285 -0.2254 -0.9079
 6972SOL    HW227654   2.181   1.874   4.168 -3.0803  0.7761 -0.5001
 6972SOL    HW327655   2.173   1.844   4.020  1.5734 -0.8093 -0.5909
 6972SOL    MW427656   2.184   1.900   4.085  0.2391  0.0013 -0.1179
 6973SOL     OW27657   5.523   2.448   0.874  0.1547 -0.3090 -0.2327
 6973SOL    HW227658   5.496   2.536   0.849  1.5943 -0.1688 -1.4239
 6973SOL    HW327659   5.565   2.459   0.960 -0.8996 -0.0755  0.2631
 6973SOL    MW427660   5.525   2.461   0.882  0.2979 -0.1135 -0.4615
 6974SOL     OW27661   3.931   1.780   0.435  0.1636 -0.3056 -0.1196
 6974SOL    HW227662   3.910   1.823   0.352  0.1070 -0.4106 -0.1612
 6974SOL    HW327663   3.860   1.806   0.494  1.1685  1.2665  0.4532
 6974SOL    MW427664   3.919   1.789   0.431 -0.2485 -0.3307 -0.5976
 6975SOL     OW27665   5.042   0.013   3.891 -0.2456 -0.3071 -0.1430
 6975SOL    HW227666   5.038  -0.059   3.828 -0.8560 -0.3862 -0.0258
 6975SOL    HW327667   5.116   0.066   3.863 -0.7107 -0.1594 -1.1333
 6975SOL    MW427668   5.051   0.010   3.879  0.1402 -0.1547 -1.2210
 6976SOL     OW27669   0.082   6.047   4.497  0.3636 -0.1364 -0.3591
 6976SOL    HW227670   0.050   5.960   4.519  1.4828 -0.9279 -1.7483
 6976SOL    HW327671   0.166   6.054   4.543 -0.0471  0.4987  0.3143
 6976SOL    MW427672   0.089   6.037   4.506 -0.4581  0.0683 -0.4703
 6977SOL     OW27673   2.479   5.484   1.170 -0.7432 -0.4162  0.5233
 6977SOL    HW227674   2.486   5.459   1.078  0.4817 -0.8371  0.7197
 6977SOL    HW327675   2.491   5.403   1.218  0.3909  0.0693  1.0945
 6977SOL    MW427676   2.482   5.470   1.164 -0.2743  0.1597  0.2469
 6978SOL     OW27677   2.168   0.176   5.291 -0.3226 -0.4785 -0.0477
 6978SOL    HW227678   2.183   0.179   5.197 -1.4848  0.6551 -0.2348
 6978SOL    HW327679   2.193   0.264   5.321 -0.3917 -0.6882  0.6269
 6978SOL    MW427680   2.173   0.188   5.283  0.2723  0.3995  0.1961
 6979SOL     OW27681   3.569   0.975   3.821 -0.4313  0.4989  0.4253
 6979SOL    HW227682   3.582   0.887   3.785 -2.3774  0.2250  0.2823
 6979SOL    HW327683   3.494   1.010   3.773  0.8882  2.6527 -0.1836
 6979SOL    MW427684   3.561   0.968   3.810  0.6977  0.2780  0.7610
 6980SOL     OW27685   1.359   0.226   2.589 -0.5133  0.5477  0.2491
 6980SOL    HW227686   1.415   0.295   2.552 -0.0875  0.4876  0.7535
 6980SOL    HW327687   1.270   0.254   2.571 -0.3205  0.7413 -0.4130
 6980SOL    MW427688   1.355   0.239   2.582  0.5581 -0.0873  0.1801
 6981SOL     OW27689   0.898   3.328   5.727  0.2911 -0.4146 -0.1767
 6981SOL    HW227690   0.927   3.289   5.809 -0.4208 -1.0343 -0.2075
 6981SOL    HW327691   0.827   3.387   5.752 -0.0413 -0.7329 -0.3655
 6981SOL    MW427692   0.892   3.331   5.741 -0.0740 -0.4624  0.4972
 6982SOL     OW27693   5.408   0.413   2.440  0.0320  0.1599 -0.1242
 6982SOL    HW227694   5.492   0.390   2.479  0.0190 -0.5309 -0.4769
 6982SOL    HW327695   5.427   0.488   2.384 -0.0918  1.6362  1.7233
 6982SOL    MW427696   5.422   0.420   2.437 -0.0627  0.1170  0.1609
 6983SOL     OW27697   4.271   1.848   5.563  0.3223  0.0849 -0.3644
 6983SOL    HW227698   4.209   1.887   5.500  0.7341  1.5728  0.0989
 6983SOL    HW327699   4.259   1.900   5.643  1.4823 -0.2363  0.0335
 6983SOL    MW427700   4.261   1.860   5.565  0.2563  0.1029  0.5182
 6984SOL     OW27701   3.825   1.834   3.637  0.3080  0.2569 -0.1687
 6984SOL    HW227702   3.908   1.880   3.621  0.4625  0.4105  0.9794
 6984SOL    HW327703   3.843   1.743   3.614  0.3285  0.5453 -1.3911
 6984SOL    MW427704   3.839   1.828   3.632  0.1694  0.3541 -0.0420
 6985SOL     OW27705   1.875   3.364   2.690  0.4804 -0.2137  0.1454
 6985SOL    HW227706   1.806   3.317   2.643 -0.2958  0.9012  0.1177
 6985SOL    HW327707   1.897   3.438   2.634  0.2691  0.5587  1.0467
 6985SOL    MW427708   1.868   3.368   2.676  0.3524  0.3410  0.1914
 6986SOL     OW27709   1.402   2.439   0.399  0.4479  0.3841  0.5161
 6986SOL    HW227710   1.407   2.386   0.479 -0.3185  2.0482  1.7317
 6986SOL    HW327711   1.342   2.391   0.342  1.5806 -1.2139  0.6008
 6986SOL    MW427712   1.395   2.425   0.402 -0.5093 -0.8495 -0.2224
 6987SOL     OW27713   5.217   1.712   0.608 -0.4563  0.6135  0.4982
 6987SOL    HW227714   5.295   1.754   0.571 -0.0836 -0.1388  0.4148
 6987SOL    HW327715   5.241   1.690   0.698  0.1661 -1.4459 -0.1253
 6987SOL    MW427716   5.230   1.714   0.615  0.7763 -0.2347  0.1932
 6988SOL     OW27717   0.080   4.424   2.441  0.0068 -0.3798  0.4431
 6988SOL    HW227718   0.012   4.359   2.459 -0.4054  0.0381  0.3955
 6988SOL    HW327719   0.160   4.372   2.431 -0.6271 -1.0920 -1.4946
 6988SOL    MW427720   0.082   4.408   2.442  0.1114 -0.4317 -0.1599
 6989SOL     OW27721   6.388   2.528   1.058  0.8219  0.6003 -0.4715
 6989SOL    HW227722   6.423   2.583   1.128  1.6416  0.0302 -0.4208
 6989SOL    HW327723   6.458   2.465   1.040 -0.3432 -0.8434 -0.0860
 6989SOL    MW427724   6.402   2.527   1.065  0.0471  0.0237  0.6963
 6990SOL     OW27725   4.921   5.151   5.027 -0.7037 -0.2671 -0.2980
 6990SOL    HW227726   4.987   5.098   5.072  0.2287  1.9457  1.1147
 6990SOL    HW327727   4.957   5.164   4.940  0.0810 -0.2046  0.0239
 6990SOL    MW427728   4.935   5.145   5.022 -0.3724 -0.4139 -0.3726
 6991SOL     OW27729   1.830   4.467   2.010 -0.1546  1.0833 -0.3599
 6991SOL    HW227730   1.884   4.407   2.061 -0.7689  1.5951  0.9316
 6991SOL    HW327731   1.891   4.508   1.948  0.3492 -0.5390 -0.9876
 6991SOL    MW427732   1.845   4.465   2.008  0.3490 -0.0362 -0.4729
 6992SOL     OW27733   5.978   6.021   4.040  0.3068  0.3460  0.0237
 6992SOL    HW227734   5.915   5.968   4.089 -0.8771  2.5766  1.0805
 6992SOL    HW327735   6.052   6.032   4.100 -0.3280  1.5080  0.6294
 6992SOL    MW427736   5.979   6.015   4.055 -0.0136  0.3017 -0.2510
 6993SOL     OW27737   5.897   6.269   5.427  0.2837  0.7281 -0.0716
 6993SOL    HW227738   5.929   6.315   5.505 -0.7879  0.4288  0.5691
 6993SOL    HW327739   5.949   6.305   5.355  0.8997  1.4310  0.6991
 6993SOL    MW427740   5.908   6.280   5.428  0.0920  0.1474 -0.0484
 6994SOL     OW27741   3.333   6.311   3.408  0.2026  0.0820 -0.4413
 6994SOL    HW227742   3.425   6.310   3.381 -0.5433  1.3517 -3.2991
 6994SOL    HW327743   3.303   6.400   3.391 -1.7023 -0.4433 -0.0819
 6994SOL    MW427744   3.341   6.322   3.402 -0.3091 -0.3180 -0.0964
 6995SOL     OW27745   3.613   1.793   4.618  0.4479 -0.3807 -0.3544
 6995SOL    HW227746   3.685   1.856   4.628  0.2156 -0.3834  1.7517
 6995SOL    HW327747   3.539   1.835   4.660 -0.9762 -0.2038 -2.8528
 6995SOL    MW427748   3.613   1.807   4.625 -0.4156 -0.1979  0.4044
 6996SOL     OW27749   3.670   2.711   4.519 -0.0291 -0.3268  0.0887
 6996SOL    HW227750   3.627   2.776   4.464 -1.8074 -1.6689 -0.1697
 6996SOL    HW327751   3.624   2.630   4.502 -0.3756 -0.9136  3.2103
 6996SOL    MW427752   3.659   2.709   4.510  0.0369  0.2223  0.4340
 6997SOL     OW27753   6.055   6.314   3.226  0.7744 -0.6444  0.2264
 6997SOL    HW227754   6.134   6.317   3.172  0.6102  0.4198  0.0171
 6997SOL    HW327755   5.983   6.309   3.164  0.5951  0.3542  0.3344
 6997SOL    MW427756   6.056   6.314   3.211 -0.5127  1.1409 -0.0138
 6998SOL     OW27757   5.375   5.352   2.537  0.1362  0.4833 -0.0040
 6998SOL    HW227758   5.386   5.272   2.588  1.4952 -0.1118 -1.1656
 6998SOL    HW327759   5.305   5.400   2.582 -2.1624 -2.2379 -0.3681
 6998SOL    MW427760   5.367   5.348   2.549 -0.2513  0.4055  0.7076
 6999SOL     OW27761   2.561   3.450   5.387  0.7093 -0.0749 -0.2221
 6999SOL    HW227762   2.514   3.520   5.340 -0.1132 -0.5495 -0.1224
 6999SOL    HW327763   2.497   3.380   5.395  0.1824  0.6354  3.2275
 6999SOL    MW427764   2.546   3.450   5.382  0.0673 -0.0309  0.1257
 7000SOL     OW27765   2.221   3.042   6.028 -0.4329  0.2471 -0.1918
 7000SOL    HW227766   2.196   3.130   6.000 -0.2516 -0.1250 -1.6040
 7000SOL    HW327767   2.209   2.988   5.950 -0.6165 -1.0043  0.6719
 7000SOL    MW427768   2.216   3.046   6.014  0.2329 -0.1870  0.1260
 7001SOL     OW27769   4.561   4.913   3.161 -0.1163  0.0860  0.7360
 7001SOL    HW227770   4.612   4.842   3.201 -0.1003 -1.7961 -2.3231
 7001SOL    HW327771   4.622   4.952   3.098 -1.0505  0.9205  0.3375
 7001SOL    MW427772   4.576   4.909   3.158  0.2478  0.1629  0.0474
 7002SOL     OW27773   3.034   5.340   5.279 -0.9028 -0.2030 -0.0479
 7002SOL    HW227774   3.001   5.329   5.190 -1.8248 -1.1912  0.4010
 7002SOL    HW327775   3.128   5.355   5.267 -1.0257 -0.2349 -1.1915
 7002SOL    MW427776   3.042   5.340   5.265  0.4775 -0.9070  0.6844
 7003SOL     OW27777   0.590   2.916   3.665  0.1064 -0.0344 -0.1094
 7003SOL    HW227778   0.528   2.929   3.737  0.7142  1.2404  0.2281
 7003SOL    HW327779   0.665   2.873   3.706  0.7607  1.3582  0.2221
 7003SOL    MW427780   0.592   2.912   3.680  0.3466  0.2699 -0.4116
 7004SOL     OW27781   3.955   2.984   1.459  0.2112 -0.4716  0.0350
 7004SOL    HW227782   3.883   2.941   1.413 -0.3531 -0.5572  0.9759
 7004SOL    HW327783   3.971   3.064   1.409 -1.1034 -0.0357  0.2628
 7004SOL    MW427784   3.947   2.989   1.447  0.2515 -0.0505  0.1122
 7005SOL     OW27785   2.376   4.180   1.110 -0.1819  0.5416 -0.3373
 7005SOL    HW227786   2.471   4.175   1.103 -0.1849  0.2807 -0.2063
 7005SOL    HW327787   2.354   4.266   1.073  0.2148  1.1385  0.7631
 7005SOL    MW427788   2.386   4.191   1.104  0.2844 -0.0777 -0.0248
 7006SOL     OW27789   0.919   3.581   0.383  0.0099  0.3676  0.0827
 7006SOL    HW227790   0.860   3.655   0.366  0.2955  0.7395  0.6624
 7006SOL    HW327791   0.879   3.535   0.457  0.6997  0.9242  0.8212
 7006SOL    MW427792   0.906   3.585   0.391 -0.1516  0.1750  0.4431
 7007SOL     OW27793   0.643   3.858   3.280  0.6496 -0.1388 -0.1740
 7007SOL    HW227794   0.595   3.829   3.358  1.2664  0.3129  0.3858
 7007SOL    HW327795   0.588   3.928   3.244  0.1730 -0.6082 -0.3683
 7007SOL    MW427796   0.629   3.864   3.285  0.2447 -0.0212 -0.4734
 7008SOL     OW27797   3.825   2.846   4.194 -0.4396 -0.5245  0.0536
 7008SOL    HW227798   3.882   2.861   4.270 -1.4685 -2.0534  1.2120
 7008SOL    HW327799   3.864   2.897   4.124  0.3935  1.2079  1.6884
 7008SOL    MW427800   3.838   2.854   4.195  0.2013 -0.3543  0.7418
 7009SOL     OW27801   5.571   2.044   2.735  0.0061  0.1336 -0.1357
 7009SOL    HW227802   5.490   2.071   2.778  0.6837  1.3342  0.4319
 7009SOL    HW327803   5.635   2.040   2.805  0.6988  0.2739 -0.7485
 7009SOL    MW427804   5.568   2.047   2.750  0.3683  0.0115  0.0763
 7010SOL     OW27805   5.085   1.159   3.256  0.3998 -0.2648 -0.2419
 7010SOL    HW227806   5.154   1.143   3.320 -1.1757  1.3673  2.0101
 7010SOL    HW327807   5.131   1.186   3.177  2.3612 -0.8700  0.6375
 7010SOL    MW427808   5.100   1.160   3.254 -0.6690  0.4491 -0.5212
 7011SOL     OW27809   4.536   0.546   0.984 -0.7502 -0.1106  0.5472
 7011SOL    HW227810   4.457   0.514   0.940  0.2800 -1.6338 -0.2788
 7011SOL    HW327811   4.506   0.620   1.036 -2.6239 -0.3189 -0.1622
 7011SOL    MW427812   4.522   0.552   0.985  0.4278 -0.1583 -0.2402
 7012SOL     OW27813   1.794   4.529   1.122 -0.4097  0.7187 -0.1881
 7012SOL    HW227814   1.849   4.562   1.194  1.2255 -1.4354 -0.3153
 7012SOL    HW327815   1.749   4.453   1.160  0.8979 -0.7845 -1.4983
 7012SOL    MW427816   1.796   4.523   1.137  0.0568  0.2731 -0.3495
 7013SOL     OW27817   4.928   0.791   0.080  0.1304 -0.2627 -0.2952
 7013SOL    HW227818   4.929   0.869   0.025 -1.5546  0.6744  0.8743
 7013SOL    HW327819   4.933   0.825   0.170 -1.2105 -1.4222  0.2676
 7013SOL    MW427820   4.929   0.806   0.085  0.3475  0.6437  0.0172
 7014SOL     OW27821   1.550   1.546   1.617 -0.8107 -0.7409  0.1808
 7014SOL    HW227822   1.493   1.607   1.664 -0.6486 -0.5590  0.1458
 7014SOL    HW327823   1.490   1.492   1.565 -0.8999  0.0417 -0.5501
 7014SOL    MW427824   1.535   1.547   1.616  0.1272  0.1529  0.6369
 7015SOL     OW27825   2.330   1.605   2.229  0.1516  0.7624 -0.4649
 7015SOL    HW227826   2.390   1.571   2.163  1.7158  1.4910  0.5287
 7015SOL    HW327827   2.380   1.674   2.274 -1.6906  1.9151 -0.0839
 7015SOL    MW427828   2.345   1.610   2.227  0.1124 -0.1232 -0.1901
 7016SOL     OW27829   4.684   1.569   3.773 -0.6183  0.1192 -0.0741
 7016SOL    HW227830   4.597   1.553   3.736 -0.7503  1.2188 -0.2681
 7016SOL    HW327831   4.677   1.654   3.816 -0.1712 -0.6426  1.6086
 7016SOL    MW427832   4.671   1.578   3.774  0.0838  0.0499 -0.0518
 7017SOL     OW27833   5.333   5.878   2.624 -0.5167  0.0045  0.3364
 7017SOL    HW227834   5.342   5.938   2.550 -1.3525  0.7700  0.8202
 7017SOL    HW327835   5.417   5.833   2.630 -0.2894  0.2468 -0.7948
 7017SOL    MW427836   5.345   5.880   2.615  0.5955  0.1936  0.3891
 7018SOL     OW27837   3.503   1.758   5.836 -0.0268 -0.3553  0.1071
 7018SOL    HW227838   3.422   1.710   5.852  0.1167 -0.3587  0.8757
 7018SOL    HW327839   3.572   1.698   5.867  0.2358 -0.1570 -0.0928
 7018SOL    MW427840   3.501   1.743   5.842  0.1455  0.1857  0.1268
 7019SOL     OW27841   4.126   0.352   4.880 -0.0382  0.6187 -0.3290
 7019SOL    HW227842   4.109   0.388   4.793 -0.5721  0.5509 -0.2594
 7019SOL    HW327843   4.071   0.405   4.938 -2.3403 -1.4501 -0.4319
 7019SOL    MW427844   4.116   0.364   4.876  0.4782  0.1826  0.6554
 7020SOL     OW27845   4.115   1.843   0.643  0.1707 -0.1557 -0.5929
 7020SOL    HW227846   4.032   1.832   0.597 -0.4531  1.3716  0.0994
 7020SOL    HW327847   4.091   1.878   0.729  1.5801  1.4336 -0.7834
 7020SOL    MW427848   4.101   1.846   0.649  0.4472 -0.0150  0.3828
 7021SOL     OW27849   3.247   2.246   4.849  0.4358  0.1866  0.5263
 7021SOL    HW227850   3.223   2.299   4.773  0.0469  0.6571  0.9711
 7021SOL    HW327851   3.266   2.159   4.813  1.7757  0.7935 -0.3021
 7021SOL    MW427852   3.247   2.241   4.835 -0.0448  0.6910  0.6987
 7022SOL     OW27853   4.299   1.361   4.325  0.7072  0.0305  0.5138
 7022SOL    HW227854   4.207   1.336   4.316  0.9954 -0.1179 -3.2250
 7022SOL    HW327855   4.302   1.453   4.297  1.6894  0.1617  0.9875
 7022SOL    MW427856   4.287   1.370   4.320 -0.0256 -0.3211 -0.4661
 7023SOL     OW27857   2.556   0.572   0.408  0.0106 -0.3799 -0.4121
 7023SOL    HW227858   2.506   0.490   0.413  0.1948 -0.4059  1.7143
 7023SOL    HW327859   2.504   0.628   0.350 -2.7501 -0.2513  1.9665
 7023SOL    MW427860   2.543   0.568   0.401  0.1168  0.1076 -0.0498
 7024SOL     OW27861   1.799   5.693   3.132  0.5799 -0.4937  0.3571
 7024SOL    HW227862   1.875   5.689   3.073  1.3243  0.2874  1.2317
 7024SOL    HW327863   1.725   5.711   3.074  0.7051 -3.1511 -0.7732
 7024SOL    MW427864   1.799   5.695   3.116 -0.7870 -0.1537  0.4252
 7025SOL     OW27865   2.259   5.555   5.075  0.9182 -0.4912  0.1576
 7025SOL    HW227866   2.246   5.538   5.168  1.0061 -0.7375  0.1267
 7025SOL    HW327867   2.257   5.468   5.035 -1.6997 -0.2699 -0.4060
 7025SOL    MW427868   2.257   5.541   5.082 -0.3155  0.3524 -0.1499
 7026SOL     OW27869   5.644   5.885   1.691  0.4181 -0.2316  0.0318
 7026SOL    HW227870   5.688   5.801   1.704  0.4257 -0.0472  1.3757
 7026SOL    HW327871   5.636   5.921   1.779 -0.4322  0.7531 -0.4312
 7026SOL    MW427872   5.649   5.878   1.704  0.1440  0.5969 -0.4101
 7027SOL     OW27873   1.717   4.821   4.389  0.1868  0.0503 -0.4170
 7027SOL    HW227874   1.738   4.775   4.307 -0.9647 -0.1394 -0.6195
 7027SOL    HW327875   1.802   4.837   4.429  0.7516 -0.2046 -1.4640
 7027SOL    MW427876   1.731   4.817   4.383 -0.3994 -0.4500  0.1434
 7028SOL     OW27877   4.642   0.808   0.078 -0.0640  0.1611 -0.3619
 7028SOL    HW227878   4.736   0.788   0.071  0.0420  0.4841  0.0860
 7028SOL    HW327879   4.599   0.740   0.026  0.3043 -1.0605  0.8815
 7028SOL    MW427880   4.649   0.796   0.070  0.0910 -0.3662 -0.3764
 7029SOL     OW27881   5.157   0.499   2.195 -0.2300  0.0856  0.4598
 7029SOL    HW227882   5.236   0.553   2.188 -0.5619  0.3907 -1.5032
 7029SOL    HW327883   5.088   0.561   2.221 -0.1540  0.1466  0.5185
 7029SOL    MW427884   5.158   0.515   2.198 -0.1926 -0.1751 -0.1818
 7030SOL     OW27885   2.597   0.248   4.848 -0.0396  0.2762 -0.5172
 7030SOL    HW227886   2.653   0.305   4.901  1.5974 -0.1654 -1.6999
 7030SOL    HW327887   2.625   0.159   4.870 -0.9558 -0.0061 -0.4292
 7030SOL    MW427888   2.608   0.244   4.858  0.1931 -0.7536  0.5649
 7031SOL     OW27889   4.555   0.859   4.810 -0.1247  0.1616  0.1819
 7031SOL    HW227890   4.650   0.864   4.825 -0.2880 -0.6559  1.6589
 7031SOL    HW327891   4.544   0.781   4.755  0.1874  1.3127 -1.6007
 7031SOL    MW427892   4.566   0.849   4.804 -0.5804 -0.3999 -0.3337
 7032SOL     OW27893   4.964   4.294   3.439 -0.1607 -0.1716  0.6295
 7032SOL    HW227894   5.034   4.345   3.481 -0.5876  0.4737  0.5766
 7032SOL    HW327895   4.994   4.203   3.444  0.9658  0.1588  0.0372
 7032SOL    MW427896   4.977   4.289   3.445 -0.6281 -0.0053 -0.3598
 7033SOL     OW27897   1.927   4.369   3.172  0.2478  0.2921  0.4564
 7033SOL    HW227898   1.862   4.368   3.102  0.4341  0.4422  0.2789
 7033SOL    HW327899   1.903   4.297   3.229 -0.9096  1.1937  1.1518
 7033SOL    MW427900   1.916   4.360   3.170  0.4847 -0.0718  0.0782
 7034SOL     OW27901   0.163   4.194   1.287  0.2662 -0.1964 -0.0111
 7034SOL    HW227902   0.228   4.185   1.357  0.5186 -0.1702 -0.2420
 7034SOL    HW327903   0.215   4.208   1.208 -0.0539  2.4567  0.1619
 7034SOL    MW427904   0.179   4.194   1.286 -0.0008 -0.6888  0.2131
 7035SOL     OW27905   0.974   5.934   3.736 -0.0409  0.3444  0.1726
 7035SOL    HW227906   0.984   6.007   3.797  0.3662 -0.8410  1.5937
 7035SOL    HW327907   0.887   5.898   3.756 -0.4576  0.7448 -0.8792
 7035SOL    MW427908   0.964   5.939   3.747  0.0706  0.3544 -1.0364
 7036SOL     OW27909   1.652   1.717   4.183  0.1423 -0.1039 -0.4483
 7036SOL    HW227910   1.638   1.657   4.256  0.4565 -0.0420 -0.3359
 7036SOL    HW327911   1.655   1.661   4.105  2.0045 -0.4198 -0.1895
 7036SOL    MW427912   1.650   1.702   4.182 -0.2823  0.1463 -0.4094
 7037SOL     OW27913   4.199   1.578   0.728 -0.3642  0.5607  0.3232
 7037SOL    HW227914   4.169   1.666   0.706 -0.8615  0.3418  0.1002
 7037SOL    HW327915   4.196   1.576   0.824 -0.1333  0.8601  0.3376
 7037SOL    MW427916   4.195   1.589   0.738 -0.2925  0.1387  0.9474
 7038SOL     OW27917   5.946   2.869   5.451  0.6081  0.1122 -0.5144
 7038SOL    HW227918   5.882   2.806   5.485 -0.0271  0.9013 -0.2174
 7038SOL    HW327919   6.019   2.865   5.512  0.9512 -0.9586 -0.9761
 7038SOL    MW427920   5.947   2.860   5.463 -0.1434  0.2624 -0.0823
 7039SOL     OW27921   1.059   4.203   2.349 -0.0894  0.0026  0.6092
 7039SOL    HW227922   1.001   4.129   2.371 -0.5287  0.0383 -0.3860
 7039SOL    HW327923   1.143   4.180   2.388 -0.0639 -1.3046 -0.1488
 7039SOL    MW427924   1.062   4.190   2.357  0.0658  0.2692 -0.2938
 7040SOL     OW27925   3.850   5.377   0.963  0.0152 -0.1327  0.0124
 7040SOL    HW227926   3.788   5.307   0.943 -0.5663  0.5220 -0.5234
 7040SOL    HW327927   3.813   5.419   1.041  0.2694 -0.3051  0.2274
 7040SOL    MW427928   3.837   5.373   0.971 -0.4167  0.3308  0.8039
 7041SOL     OW27929   4.833   5.497   4.430 -0.2883 -0.5570  0.1040
 7041SOL    HW227930   4.854   5.405   4.418 -2.3284 -0.9578 -0.7664
 7041SOL    HW327931   4.807   5.504   4.522 -2.1404 -1.3600 -0.2981
 7041SOL    MW427932   4.832   5.486   4.441 -0.1948  0.4356  0.7060
 7042SOL     OW27933   1.014   1.002   2.754 -0.4108 -0.0656 -0.0166
 7042SOL    HW227934   1.099   1.012   2.798 -0.8590  0.1009  0.8186
 7042SOL    HW327935   1.037   0.979   2.664  0.5655 -3.0769  0.8689
 7042SOL    MW427936   1.029   1.000   2.748  0.2248  0.4139 -0.2092
 7043SOL     OW27937   1.717   3.591   5.773 -0.0105  0.1589  0.5763
 7043SOL    HW227938   1.622   3.586   5.762  0.2784 -1.2027 -2.0143
 7043SOL    HW327939   1.742   3.503   5.801  0.5370  0.3892  0.8281
 7043SOL    MW427940   1.708   3.579   5.775 -0.1681  0.0945  0.2036
 7044SOL     OW27941   0.262   4.187   3.443  0.7766 -0.2899  0.1804
 7044SOL    HW227942   0.318   4.128   3.494 -1.4449 -0.8298  2.1731
 7044SOL    HW327943   0.187   4.205   3.500 -1.2092  0.2157 -2.3783
 7044SOL    MW427944   0.259   4.181   3.457 -0.5998 -0.4726 -0.4072
 7045SOL     OW27945   0.585   4.518   0.689 -0.2907  0.3489  0.2749
 7045SOL    HW227946   0.534   4.599   0.689  0.5612  0.9007 -0.3820
 7045SOL    HW327947   0.645   4.527   0.615 -0.8412 -1.3192 -0.4270
 7045SOL    MW427948   0.586   4.529   0.680 -0.0140 -0.1808  0.4713
 7046SOL     OW27949   4.374   1.011   1.261 -0.8855 -0.5162  0.5651
 7046SOL    HW227950   4.392   1.104   1.246 -0.8917 -1.0405 -3.7759
 7046SOL    HW327951   4.283   1.000   1.234 -0.7246 -1.8641  0.5241
 7046SOL    MW427952   4.364   1.022   1.256  0.4506 -0.3433  0.2112
 7047SOL     OW27953   1.782   5.779   1.464 -0.2034  0.3815 -0.6084
 7047SOL    HW227954   1.794   5.810   1.554 -1.0105 -0.7111 -0.0984
 7047SOL    HW327955   1.694   5.808   1.441 -0.7428 -0.9655 -0.3318
 7047SOL    MW427956   1.772   5.787   1.473 -0.2675  0.2355  0.1930
 7048SOL     OW27957   2.061   0.277   6.322  0.0458  0.3110 -0.0271
 7048SOL    HW227958   2.109   0.196   6.340  0.6869  0.8739  0.9181
 7048SOL    HW327959   2.012   0.293   6.403 -1.0582  0.2258 -0.6570
 7048SOL    MW427960   2.060   0.268   6.335  0.3431  0.2547 -0.3607
 7049SOL     OW27961   1.444   1.162   5.196  0.4577  0.5633  0.6609
 7049SOL    HW227962   1.380   1.091   5.203  1.6324 -0.5746  0.3297
 7049SOL    HW327963   1.524   1.126   5.236  1.5149  1.1486 -0.8343
 7049SOL    MW427964   1.446   1.148   5.202 -0.2808  0.1320 -0.7684
 7050SOL     OW27965   5.689   1.150   2.663  0.1526  0.2217 -0.0765
 7050SOL    HW227966   5.608   1.167   2.711 -0.7477  0.3018 -1.5600
 7050SOL    HW327967   5.750   1.216   2.696 -0.0812 -0.3736  1.6850
 7050SOL    MW427968   5.686   1.161   2.674  0.1009  0.0145 -0.1744
 7051SOL     OW27969   1.775   4.465   3.566  0.4167  0.1327  0.4708
 7051SOL    HW227970   1.731   4.389   3.527  0.2351 -0.4814  1.8130
 7051SOL    HW327971   1.719   4.539   3.545  0.8771  0.0374 -1.3561
 7051SOL    MW427972   1.762   4.465   3.558  0.2343  0.5029 -0.1824
 7052SOL     OW27973   3.245   1.555   1.855 -0.1888  0.0515  0.0854
 7052SOL    HW227974   3.324   1.534   1.804  0.4211  0.5990  0.7806
 7052SOL    HW327975   3.200   1.620   1.802 -0.8732 -1.1958 -0.9438
 7052SOL    MW427976   3.250   1.561   1.841  0.2455 -0.1118 -0.0679
 7053SOL     OW27977   1.721   5.389   3.047  0.1612  0.1831  0.0873
 7053SOL    HW227978   1.712   5.421   3.137 -0.7985 -2.6009  1.0869
 7053SOL    HW327979   1.643   5.335   3.033  1.7187 -1.8437 -1.3452
 7053SOL    MW427980   1.709   5.386   3.057 -0.0329 -0.5789  0.1121
 7054SOL     OW27981   5.530   4.387   0.678 -0.0352  0.1595 -0.4194
 7054SOL    HW227982   5.605   4.350   0.724 -0.5274  2.4822  2.6472
 7054SOL    HW327983   5.474   4.312   0.658  1.9047 -1.3402 -0.4658
 7054SOL    MW427984   5.532   4.372   0.682  1.2952 -0.0289  0.2733
 7055SOL     OW27985   4.050   4.462   3.623 -0.3963  0.2055  0.2307
 7055SOL    HW227986   4.083   4.403   3.556  2.2534 -1.2438  2.5963
 7055SOL    HW327987   3.968   4.424   3.652 -0.3926 -0.4286 -0.5795
 7055SOL    MW427988   4.044   4.449   3.618 -0.1389  0.1687 -0.4169
 7056SOL     OW27989   0.136   1.541   5.663 -0.0065  0.3916  0.0206
 7056SOL    HW227990   0.064   1.601   5.645 -0.8042  0.0947  1.9377
 7056SOL    HW327991   0.184   1.581   5.736 -0.6892 -1.3280  1.4945
 7056SOL    MW427992   0.133   1.554   5.671  0.7111 -0.0549 -0.0124
 7057SOL     OW27993   3.815   5.504   4.354  0.4946  0.2790 -0.7515
 7057SOL    HW227994   3.745   5.547   4.305 -0.1943 -0.4914 -0.4582
 7057SOL    HW327995   3.837   5.566   4.424 -0.6417  0.0828 -0.2043
 7057SOL    MW427996   3.809   5.518   4.357 -0.0258 -0.2072  0.7629
 7058SOL     OW27997   5.952   1.042   0.502 -0.1324 -0.6638 -0.3158
 7058SOL    HW227998   5.882   1.094   0.540 -1.1192 -1.9331 -0.3246
 7058SOL    HW327999   5.929   0.951   0.523  1.4811 -1.1173 -0.3627
 7058SOL    MW428000   5.940   1.037   0.510 -0.7909  0.2353 -1.0596
 7059SOL     OW28001   3.767   5.383   6.383  0.1694  0.5329  0.5895
 7059SOL    HW228002   3.677   5.390   6.352 -0.0717 -0.9475  0.8530
 7059SOL    HW328003   3.817   5.443   6.327 -0.5405 -0.6512 -1.4224
 7059SOL    MW428004   3.761   5.392   6.372 -0.5453  0.3169  0.5464
 7060SOL     OW28005   6.278   1.403   0.759  0.5771 -0.1540 -0.4044
 7060SOL    HW228006   6.236   1.488   0.757  0.2328 -0.2875  0.6599
 7060SOL    HW328007   6.372   1.422   0.760  0.5057  0.1990 -0.5381
 7060SOL    MW428008   6.285   1.417   0.759  0.2992  0.5277  0.8076
 7061SOL     OW28009   4.717   2.657   1.604  0.5008  0.0051  0.1463
 7061SOL    HW228010   4.759   2.590   1.657  1.8837  0.5888 -0.1677
 7061SOL    HW328011   4.782   2.679   1.537 -0.9610 -0.2888 -1.4425
 7061SOL    MW428012   4.731   2.651   1.602 -0.2876  0.1686  0.3753
 7062SOL     OW28013   6.057   3.539   4.427  0.5311 -0.3307  0.4936
 7062SOL    HW228014   6.100   3.456   4.446  1.0001 -0.4009 -0.7612
 7062SOL    HW328015   6.129   3.602   4.422  0.3434 -0.1609 -0.1119
 7062SOL    MW428016   6.072   3.536   4.429 -0.2426  0.4660 -0.5136
 7063SOL     OW28017   0.493   5.105   5.453 -0.2846  0.8572  0.2301
 7063SOL    HW228018   0.470   5.180   5.509  1.2734  1.4863  0.0645
 7063SOL    HW328019   0.567   5.136   5.401 -0.3548 -0.4377 -0.6733
 7063SOL    MW428020   0.500   5.119   5.453  0.0279  0.2098  0.5867
 7064SOL     OW28021   2.250   2.198   2.753 -0.6109  0.7131  0.0398
 7064SOL    HW228022   2.295   2.267   2.802  1.4454 -0.0439 -0.6592
 7064SOL    HW328023   2.256   2.121   2.808  0.6031  0.1649 -0.8185
 7064SOL    MW428024   2.257   2.197   2.766  0.1751 -0.3085  0.7390
 7065SOL     OW28025   2.210   2.073   1.225  0.3992 -0.1207 -0.5109
 7065SOL    HW228026   2.278   2.006   1.214  2.1641  1.6403 -0.9140
 7065SOL    HW328027   2.133   2.024   1.255  2.2535 -2.0187  1.5298
 7065SOL    MW428028   2.209   2.058   1.227  0.2734  0.1885 -0.6031
 7066SOL     OW28029   0.171   4.000   0.546  0.0803 -0.0966 -0.1448
 7066SOL    HW228030   0.146   3.926   0.601  1.0852 -1.3596 -1.3203
 7066SOL    HW328031   0.099   4.062   0.555  0.0571 -0.3684  2.3249
 7066SOL    MW428032   0.158   3.999   0.554 -0.5216 -0.0236  0.4204
 7067SOL     OW28033   5.815   1.087   0.769 -0.5936 -0.3959 -0.0941
 7067SOL    HW228034   5.857   1.002   0.781  1.9949  0.4615 -2.0144
 7067SOL    HW328035   5.885   1.150   0.787 -1.7743  1.2299 -0.9790
 7067SOL    MW428036   5.830   1.084   0.773 -0.0850  0.0586 -0.5122
 7068SOL     OW28037   6.056   5.605   4.566 -0.0240  0.2231 -0.5318
 7068SOL    HW228038   6.131   5.548   4.584 -0.8191 -0.5735  0.3809
 7068SOL    HW328039   6.069   5.633   4.475  1.5813  0.4398 -0.2767
 7068SOL    MW428040   6.068   5.601   4.556 -0.2294 -1.0425  0.1187
 7069SOL     OW28041   2.175   4.435   1.949  0.4284 -0.1312  0.4530
 7069SOL    HW228042   2.186   4.398   2.037  1.0157 -0.6859  0.1535
 7069SOL    HW328043   2.151   4.526   1.965  4.3107  0.9395  1.2607
 7069SOL    MW428044   2.174   4.442   1.963 -0.3359  0.1272 -0.2969
 7070SOL     OW28045   2.022   5.849   6.007  0.0078  0.0299 -0.1568
 7070SOL    HW228046   2.009   5.793   6.084  0.6613  1.0385  0.7089
 7070SOL    HW328047   1.958   5.817   5.943 -0.6615 -0.7135  0.8574
 7070SOL    MW428048   2.012   5.837   6.008 -0.1762  0.3515  0.5485
 7071SOL     OW28049   1.501   0.065   0.511 -0.4406  0.4923 -0.2734
 7071SOL    HW228050   1.413   0.060   0.548 -0.0963 -0.3150  0.4592
 7071SOL    HW328051   1.559   0.039   0.583  0.3677  0.5914 -0.8763
 7071SOL    MW428052   1.497   0.061   0.526  0.1376  0.5848 -0.2223
 7072SOL     OW28053   5.739   5.620   3.601 -0.2681 -0.0025  0.1443
 7072SOL    HW228054   5.807   5.562   3.636  0.8486  0.7150 -0.7535
 7072SOL    HW328055   5.662   5.564   3.592  0.6889 -1.2853 -0.4026
 7072SOL    MW428056   5.738   5.605   3.604 -0.1871  0.2294  0.6274
 7073SOL     OW28057   0.544   4.320   1.614 -0.4500  0.4967 -1.0196
 7073SOL    HW228058   0.614   4.259   1.590 -0.0941  0.5766 -0.2365
 7073SOL    HW328059   0.519   4.292   1.702 -1.0914  0.7560 -1.1203
 7073SOL    MW428060   0.550   4.308   1.623  0.0681 -0.0001  0.0806
 7074SOL     OW28061   1.153   1.412   2.296  0.0775 -0.1648  0.1343
 7074SOL    HW228062   1.205   1.368   2.229  0.3777 -0.0867  0.3159
 7074SOL    HW328063   1.072   1.361   2.300  0.1597 -0.3174 -0.1115
 7074SOL    MW428064   1.149   1.399   2.288 -0.0925 -0.2654  0.0252
 7075SOL     OW28065   4.341   4.289   2.853  0.1392 -0.1160 -0.0515
 7075SOL    HW228066   4.318   4.370   2.900  0.8101 -0.6753  1.2926
 7075SOL    HW328067   4.435   4.280   2.867  0.1370 -0.9283 -0.5399
 7075SOL    MW428068   4.350   4.299   2.861  0.0057  0.6499  0.0878
 7076SOL     OW28069   4.457   4.397   5.296  0.1233 -0.2068  0.5210
 7076SOL    HW228070   4.394   4.466   5.275  0.0935 -0.8464 -1.7065
 7076SOL    HW328071   4.523   4.441   5.350 -1.0871  0.9774  1.0964
 7076SOL    MW428072   4.458   4.412   5.301  0.7676  0.3639 -0.0970
 7077SOL     OW28073   0.384   5.447   4.275  0.0549 -0.4210 -0.2361
 7077SOL    HW228074   0.445   5.389   4.321 -1.0820 -2.3771 -1.1146
 7077SOL    HW328075   0.346   5.501   4.345  1.2349 -0.6061  0.5812
 7077SOL    MW428076   0.387   5.447   4.291 -0.5368 -0.5666 -0.1451
 7078SOL     OW28077   4.978   6.016   4.445  0.6493 -0.2271  0.0492
 7078SOL    HW228078   5.034   5.970   4.506 -0.1087 -1.5849 -0.2359
 7078SOL    HW328079   4.909   6.055   4.500  1.5047  0.9637  0.3326
 7078SOL    MW428080   4.976   6.015   4.460  0.0734 -0.3810  0.0860
 7079SOL     OW28081   4.841   2.778   5.198 -0.3916  0.0894 -0.5691
 7079SOL    HW228082   4.833   2.713   5.267  0.6909 -0.1038 -0.6194
 7079SOL    HW328083   4.885   2.852   5.239  0.9063 -0.3030 -1.2191
 7079SOL    MW428084   4.846   2.779   5.212 -0.0832  0.1925  0.3627
 7080SOL     OW28085   0.687   1.005   2.581  0.0795  0.1450 -0.1486
 7080SOL    HW228086   0.605   1.019   2.534  0.3367  0.2599 -0.5724
 7080SOL    HW328087   0.683   1.066   2.655 -0.2593  0.0759 -0.1073
 7080SOL    MW428088   0.676   1.015   2.585 -0.5130  0.2032  0.1785
 7081SOL     OW28089   0.536   3.612   0.258  0.0669 -0.0482 -0.4303
 7081SOL    HW228090   0.546   3.527   0.215 -0.5204  0.0568 -0.7762
 7081SOL    HW328091   0.493   3.592   0.342 -2.0775  0.1132 -1.4242
 7081SOL    MW428092   0.532   3.598   0.264  0.3848  0.0120  0.1257
 7082SOL     OW28093   3.201   4.463   1.648 -0.7096  0.1785  0.4147
 7082SOL    HW228094   3.183   4.461   1.742 -2.1007 -0.7059  0.1556
 7082SOL    HW328095   3.294   4.443   1.641 -0.7749 -0.6300  1.5632
 7082SOL    MW428096   3.211   4.460   1.660 -0.7989  0.4065  0.1745
 7083SOL     OW28097   3.047   0.768   5.302 -0.4720 -0.0392 -0.0960
 7083SOL    HW228098   3.026   0.852   5.341 -2.1425 -0.9694  1.1009
 7083SOL    HW328099   3.103   0.725   5.366 -0.5901 -0.3035 -0.1697
 7083SOL    MW428100   3.052   0.773   5.315 -0.5159 -0.2195  0.2409
 7084SOL     OW28101   0.858   5.715   6.232 -0.0310  0.1149  0.4759
 7084SOL    HW228102   0.852   5.809   6.245  0.6078  0.1371  0.6309
 7084SOL    HW328103   0.936   5.688   6.281  0.1056 -0.4073 -0.0086
 7084SOL    MW428104   0.867   5.724   6.240 -0.6983  0.2344 -0.2361
 7085SOL     OW28105   1.989   2.430   3.754 -0.2602 -0.6045 -0.2824
 7085SOL    HW228106   1.961   2.477   3.676 -1.6431 -0.0013  0.5390
 7085SOL    HW328107   1.973   2.338   3.734 -0.6472 -0.4483 -0.6886
 7085SOL    MW428108   1.983   2.424   3.741  0.5097  0.0122 -0.3152
 7086SOL     OW28109   1.243   2.570   3.421 -0.1359 -0.1271 -0.2298
 7086SOL    HW228110   1.324   2.530   3.454  0.3402  0.3488 -0.7977
 7086SOL    HW328111   1.264   2.663   3.413 -0.7338 -0.0037 -0.4021
 7086SOL    MW428112   1.257   2.577   3.424 -0.0952  0.3034  0.2968
 7087SOL     OW28113   2.632   2.953   0.972  0.0383  0.5733 -0.3396
 7087SOL    HW228114   2.556   2.897   0.958 -0.0484  0.4326  0.6283
 7087SOL    HW328115   2.597   3.031   1.016  0.1987  1.2662 -1.4171
 7087SOL    MW428116   2.618   2.956   0.976  0.4672 -0.3481  0.0522
 7088SOL     OW28117   1.193   4.087   3.144 -0.4931 -0.2235 -0.0851
 7088SOL    HW228118   1.145   4.147   3.201  0.4688  0.8170 -0.3554
 7088SOL    HW328119   1.275   4.071   3.190  0.0859  0.2340 -0.9314
 7088SOL    MW428120   1.198   4.093   3.158  0.0275  0.5749  0.3595
 7089SOL     OW28121   5.918   1.213   5.508 -0.3236 -0.5531  0.1367
 7089SOL    HW228122   5.933   1.259   5.591 -0.0834 -3.0007  1.5311
 7089SOL    HW328123   5.876   1.131   5.533  0.5352 -1.7493 -2.0882
 7089SOL    MW428124   5.915   1.209   5.523 -0.0724  0.2899  0.4898
 7090SOL     OW28125   4.487   1.408   2.670  0.2685  0.0421  0.1099
 7090SOL    HW228126   4.493   1.459   2.751 -1.8227 -0.5184  0.6896
 7090SOL    HW328127   4.454   1.322   2.698 -1.2362  0.0831 -1.3742
 7090SOL    MW428128   4.483   1.403   2.685 -0.1395  1.2183 -0.5578
 7091SOL     OW28129   1.018   5.135   5.256  0.2845  0.1592 -0.4959
 7091SOL    HW228130   1.059   5.216   5.285  1.3827 -0.4227 -0.3484
 7091SOL    HW328131   1.042   5.126   5.164  1.5688 -0.7875 -0.1041
 7091SOL    MW428132   1.027   5.144   5.248 -0.4384 -0.5566  0.0762
 7092SOL     OW28133   4.611   5.863   1.291  0.0277 -0.2044  0.5882
 7092SOL    HW228134   4.639   5.945   1.332 -1.7613 -0.0315  1.5940
 7092SOL    HW328135   4.687   5.835   1.240  0.4183  2.5083 -0.5193
 7092SOL    MW428136   4.625   5.870   1.290 -0.0661  0.2578  0.0292
 7093SOL     OW28137   0.757   5.117   0.227  0.1826 -0.1711 -0.3723
 7093SOL    HW228138   0.839   5.146   0.187 -1.2806  5.0409 -0.3550
 7093SOL    HW328139   0.691   5.132   0.160 -1.2849  0.4476  1.1266
 7093SOL    MW428140   0.759   5.123   0.213 -0.3594  0.2374 -0.1880
 7094SOL     OW28141   2.581   4.078   2.652 -0.3709  0.0332 -0.3031
 7094SOL    HW228142   2.617   4.000   2.694 -1.7263 -0.1719  0.5099
 7094SOL    HW328143   2.625   4.080   2.566  0.8515 -0.7221  0.2690
 7094SOL    MW428144   2.592   4.068   2.646 -0.4713 -0.2016  0.2551
 7095SOL     OW28145   2.121   3.467   4.658 -0.6293  0.0938  0.3276
 7095SOL    HW228146   2.140   3.376   4.636 -0.9712 -0.3294  1.7229
 7095SOL    HW328147   2.025   3.473   4.658 -0.7606  1.5103 -3.7846
 7095SOL    MW428148   2.111   3.456   4.655  0.5369  0.1362  0.4569
 7096SOL     OW28149   5.554   2.737   5.330 -0.2476 -0.6947  0.2512
 7096SOL    HW228150   5.496   2.811   5.316 -1.3180 -1.3834  0.9023
 7096SOL    HW328151   5.613   2.738   5.254 -1.6240 -0.4515 -0.8620
 7096SOL    MW428152   5.554   2.747   5.318  0.1432  0.0069 -0.7783
 7097SOL     OW28153   1.693   2.814   4.825  0.2642  0.0077  0.9273
 7097SOL    HW228154   1.692   2.906   4.799  1.0089  0.4433  2.3622
 7097SOL    HW328155   1.648   2.812   4.910 -0.1897 -1.0444  0.6824
 7097SOL    MW428156   1.687   2.826   4.832 -0.3351  0.8609  0.0465
 7098SOL     OW28157   2.904   1.263   3.324  0.0090  0.4331 -0.3685
 7098SOL    HW228158   2.911   1.328   3.255  1.2964  0.9720  0.2320
 7098SOL    HW328159   2.949   1.302   3.399  0.9366 -1.1640 -0.0253
 7098SOL    MW428160   2.911   1.276   3.325  0.3555  0.8879 -0.6657
 7099SOL     OW28161   2.899   0.682   3.872 -0.5138 -0.1951 -0.1157
 7099SOL    HW228162   2.989   0.672   3.842  0.0149  2.4926  0.3882
 7099SOL    HW328163   2.885   0.607   3.931  1.3818 -0.6521 -0.1904
 7099SOL    MW428164   2.909   0.671   3.876  0.9304 -0.3737 -0.0928
 7100SOL     OW28165   5.865   0.099   0.428  0.3672  0.3523  0.2349
 7100SOL    HW228166   5.831   0.135   0.510 -0.3236  0.0960  0.0729
 7100SOL    HW328167   5.837   0.007   0.429  1.9068 -0.1370  0.5410
 7100SOL    MW428168   5.857   0.091   0.439  0.2157 -0.1365  0.0296
 7101SOL     OW28169   1.715   1.867   1.166 -0.1415 -0.0869 -0.3983
 7101SOL    HW228170   1.808   1.892   1.167 -0.5177  1.3730  0.1076
 7101SOL    HW328171   1.715   1.777   1.198  1.0047  0.2877  0.7718
 7101SOL    MW428172   1.728   1.858   1.170 -0.2500  0.0316  0.0402
 7102SOL     OW28173   5.358   1.012   3.924 -0.6406 -0.4860  0.2443
 7102SOL    HW228174   5.287   1.019   3.988 -0.6288 -1.8275  0.4321
 7102SOL    HW328175   5.438   1.022   3.976 -0.6607  1.5726 -0.0442
 7102SOL    MW428176   5.360   1.014   3.940  0.0083  0.1962  0.0564
 7103SOL     OW28177   5.114   0.655   5.117  0.3392  0.2309 -0.0795
 7103SOL    HW228178   5.203   0.679   5.142  0.7918 -0.6132 -0.8151
 7103SOL    HW328179   5.107   0.681   5.025  0.2194 -0.6851 -0.3476
 7103SOL    MW428180   5.125   0.661   5.108 -0.1756  0.4284 -0.4853
 7104SOL     OW28181   0.199   3.355   3.759  0.5321  0.3188  0.3873
 7104SOL    HW228182   0.233   3.402   3.835 -0.3658 -0.5631  1.3708
 7104SOL    HW328183   0.183   3.423   3.694  0.3337  1.2276  1.3614
 7104SOL    MW428184   0.201   3.370   3.761 -0.5770 -0.1041 -0.2316
 7105SOL     OW28185   5.431   0.304   5.195 -0.7191 -0.2225 -0.0585
 7105SOL    HW228186   5.383   0.318   5.113  3.0508 -0.5166 -2.5598
 7105SOL    HW328187   5.472   0.388   5.213 -2.0641  0.0566  2.0955
 7105SOL    MW428188   5.430   0.317   5.187  0.1767 -0.0019  0.1172
 7106SOL     OW28189   6.381   4.948   2.045 -0.3970 -0.0293 -0.0025
 7106SOL    HW228190   6.327   4.996   2.108 -0.9325  0.9354 -1.1521
 7106SOL    HW328191   6.417   4.875   2.095 -1.3712  0.2989  1.2356
 7106SOL    MW428192   6.378   4.945   2.060  0.1862 -0.4040  0.3901
 7107SOL     OW28193   0.279   0.365   1.223 -0.0596  0.4487  0.6902
 7107SOL    HW228194   0.360   0.408   1.251  0.6194 -1.8584  2.5788
 7107SOL    HW328195   0.307   0.297   1.162 -0.8554  1.0644 -0.3983
 7107SOL    MW428196   0.294   0.362   1.219  0.1762 -0.0160 -0.0539
 7108SOL     OW28197   0.814   4.077   5.525  0.0837 -0.9191 -0.1059
 7108SOL    HW228198   0.828   4.110   5.614  1.1280 -0.8763 -0.2708
 7108SOL    HW328199   0.720   4.059   5.520 -0.7887  2.7365 -0.2046
 7108SOL    MW428200   0.803   4.079   5.536 -0.1558  0.0771  0.1936
 7109SOL     OW28201   3.403   4.318   0.364 -0.1249 -0.3145 -0.6425
 7109SOL    HW228202   3.325   4.264   0.382  0.3496 -0.1140  2.5335
 7109SOL    HW328203   3.376   4.375   0.292 -2.4650 -1.1662 -0.5377
 7109SOL    MW428204   3.389   4.318   0.357  0.1861 -0.2853  0.0556
 7110SOL     OW28205   5.778   3.804   5.876  0.2155 -0.2361  0.0203
 7110SOL    HW228206   5.826   3.732   5.917  0.0071 -0.2670  0.2091
 7110SOL    HW328207   5.688   3.795   5.908 -0.2748 -1.0674 -1.4979
 7110SOL    MW428208   5.773   3.794   5.885  0.6161  0.3830 -0.3453
 7111SOL     OW28209   6.298   5.521   5.986 -0.4059 -0.1738  0.0610
 7111SOL    HW228210   6.335   5.546   5.902 -0.9402 -0.1335 -0.1666
 7111SOL    HW328211   6.369   5.476   6.032  0.1017  0.4230 -0.1272
 7111SOL    MW428212   6.312   5.519   5.981  0.0911  0.1325  0.1490
 7112SOL     OW28213   2.945   1.259   3.625  0.2455  0.0830  0.0655
 7112SOL    HW228214   3.030   1.270   3.667  0.2888  0.3552 -0.0885
 7112SOL    HW328215   2.936   1.164   3.613  0.6844  0.0721 -0.2328
 7112SOL    MW428216   2.955   1.248   3.629  0.1947 -0.7999  0.6252
 7113SOL     OW28217   5.835   5.648   3.920 -0.2673 -0.4602 -0.8673
 7113SOL    HW228218   5.805   5.590   3.850  1.5674 -1.6376 -0.7539
 7113SOL    HW328219   5.931   5.644   3.915 -0.0925 -0.0786  1.3084
 7113SOL    MW428220   5.844   5.640   3.910  0.0737 -0.0285  0.6464
 7114SOL     OW28221   6.333   1.567   4.966 -0.1536 -0.3271  0.0949
 7114SOL    HW228222   6.349   1.532   5.054 -0.9252  2.4107  1.4480
 7114SOL    HW328223   6.239   1.559   4.954 -0.4228  1.5119  0.6362
 7114SOL    MW428224   6.323   1.562   4.976  0.7878 -0.1831 -0.0391
 7115SOL     OW28225   5.969   4.495   4.205 -0.3345  0.0588  0.0876
 7115SOL    HW228226   5.929   4.450   4.131 -2.1820  1.6590  0.0200
 7115SOL    HW328227   5.909   4.478   4.278 -0.1594  0.9820  0.4562
 7115SOL    MW428228   5.956   4.487   4.205 -0.2451 -0.4533 -0.0729
 7116SOL     OW28229   6.121   3.828   5.863 -0.1252 -0.1046 -0.3372
 7116SOL    HW228230   6.142   3.783   5.944 -0.1757 -0.5500 -0.5703
 7116SOL    HW328231   6.091   3.915   5.891  1.5518  0.3809  0.0181
 7116SOL    MW428232   6.120   3.834   5.878 -0.3301 -0.2116  0.0349
 7117SOL     OW28233   1.618   5.268   1.341 -0.1848 -0.6161  0.0598
 7117SOL    HW228234   1.601   5.344   1.397  1.3417 -0.6103  0.5703
 7117SOL    HW328235   1.689   5.222   1.385  2.0206  0.1099 -2.4768
 7117SOL    MW428236   1.625   5.272   1.354  1.1114 -0.0370 -0.4878
 7118SOL     OW28237   0.621   2.244   1.741  0.4126  0.1111  0.0163
 7118SOL    HW228238   0.657   2.324   1.701  0.8613 -0.7859 -1.4729
 7118SOL    HW328239   0.698   2.188   1.753  0.0892 -0.1388  0.9918
 7118SOL    MW428240   0.636   2.247   1.737  0.5511  0.3518  0.3413
 7119SOL     OW28241   5.995   1.643   3.546 -0.4381 -0.4641 -0.2079
 7119SOL    HW228242   5.947   1.616   3.625 -1.9024  2.4595  0.0292
 7119SOL    HW328243   5.927   1.651   3.479  0.4457 -0.6549 -1.1431
 7119SOL    MW428244   5.980   1.640   3.548 -0.0180  0.5317 -0.3426
 7120SOL     OW28245   2.202   3.723   2.781  0.4798  0.3044  0.7654
 7120SOL    HW228246   2.209   3.793   2.845  0.8086  0.4532  0.5705
 7120SOL    HW328247   2.251   3.755   2.705 -1.7270  1.0910 -0.4162
 7120SOL    MW428248   2.209   3.737   2.779  0.5757  0.4506 -0.6233
 7121SOL     OW28249   3.356   0.278   0.051 -0.0595  0.4757  0.1182
 7121SOL    HW228250   3.408   0.299  -0.027 -1.4869  1.6273 -0.5876
 7121SOL    HW328251   3.312   0.196   0.029  1.4811 -0.5518  0.7555
 7121SOL    MW428252   3.357   0.270   0.038  0.1328  0.0035 -0.3400
 7122SOL     OW28253   6.210   6.155   0.252  0.2061  0.2369  0.1725
 7122SOL    HW228254   6.254   6.149   0.336  0.1353 -1.5983  0.1001
 7122SOL    HW328255   6.117   6.146   0.272 -0.1606  2.9659  0.1933
 7122SOL    MW428256   6.203   6.153   0.265  0.2790  0.2691 -0.1611
 7123SOL     OW28257   2.310   0.483   5.119  0.2546 -0.4996  0.0049
 7123SOL    HW228258   2.370   0.546   5.082  0.2894 -0.3917  0.2400
 7123SOL    HW328259   2.320   0.493   5.214  2.4484 -2.8800  0.1612
 7123SOL    MW428260   2.319   0.492   5.127 -0.0254 -0.3871 -0.2930
 7124SOL     OW28261   4.790   3.354   0.571  0.2421 -0.3659 -0.4205
 7124SOL    HW228262   4.867   3.384   0.522 -0.0804  1.7388  0.2478
 7124SOL    HW328263   4.716   3.374   0.514  0.0878 -0.9864 -0.4400
 7124SOL    MW428264   4.790   3.360   0.557 -0.2810  0.6241 -0.0805
 7125SOL     OW28265   2.615   0.595   0.869 -0.2820  0.4993  0.2446
 7125SOL    HW228266   2.655   0.509   0.867  0.5861  0.8568 -2.5481
 7125SOL    HW328267   2.523   0.579   0.848 -0.0314  0.2729 -0.7119
 7125SOL    MW428268   2.608   0.582   0.866  0.1251  0.1628  0.1582
 7126SOL     OW28269   0.088   4.179   2.648  0.4177 -0.3325  0.1365
 7126SOL    HW228270   0.025   4.120   2.607 -0.0172  0.0312  0.2666
 7126SOL    HW328271   0.042   4.213   2.725  0.2047  1.0803 -0.5786
 7126SOL    MW428272   0.073   4.176   2.653 -0.2025  0.0701  0.1627
 7127SOL     OW28273   4.444   4.601   3.499 -0.3048 -0.2877 -0.2115
 7127SOL    HW228274   4.451   4.696   3.505  0.9056 -0.3715  0.1377
 7127SOL    HW328275   4.530   4.569   3.527 -0.2260 -1.4406 -1.6313
 7127SOL    MW428276   4.456   4.609   3.504  0.0263 -0.4428  0.0840
 7128SOL     OW28277   4.673   4.726   0.501 -0.8978  0.4282  0.1194
 7128SOL    HW228278   4.724   4.716   0.581 -0.8826  0.7474  0.1539
 7128SOL    HW328279   4.587   4.692   0.523 -0.3169 -1.4397 -0.3690
 7128SOL    MW428280   4.668   4.720   0.515  0.1191  0.1620  0.1346
 7129SOL     OW28281   4.489   4.698   2.509 -0.4374 -0.7258 -0.1213
 7129SOL    HW228282   4.397   4.691   2.483 -0.9550  2.6722  0.2406
 7129SOL    HW328283   4.500   4.633   2.578 -2.8331 -0.6268  0.4270
 7129SOL    MW428284   4.478   4.689   2.515  0.1667 -0.3876  0.3313
 7130SOL     OW28285   1.190   1.443   4.939  0.5180 -0.3670 -0.3296
 7130SOL    HW228286   1.189   1.418   4.846  2.4378  1.3182 -0.8738
 7130SOL    HW328287   1.283   1.441   4.963  0.1536  0.3144  1.2625
 7130SOL    MW428288   1.202   1.439   4.930 -0.4773 -0.3153  0.2844
 7131SOL     OW28289   1.545   4.723   3.967 -0.0422 -0.7092 -0.0199
 7131SOL    HW228290   1.523   4.738   3.875  1.5590  0.1407 -0.2962
 7131SOL    HW328291   1.464   4.745   4.014 -0.3713  0.5587 -1.1085
 7131SOL    MW428292   1.531   4.728   3.962  0.2313 -0.1325 -0.0662
 7132SOL     OW28293   5.229   4.073   4.797  0.0266 -0.1624  0.1577
 7132SOL    HW228294   5.175   4.027   4.732 -0.8261 -1.8663  1.9708
 7132SOL    HW328295   5.169   4.091   4.869  1.3265  0.2177  1.1777
 7132SOL    MW428296   5.214   4.070   4.798  0.1981 -0.0602 -0.0748
 7133SOL     OW28297   1.802   4.031   1.091 -0.4116  0.2941 -0.9708
 7133SOL    HW228298   1.778   3.940   1.080  0.6677 -0.2408  0.6722
 7133SOL    HW328299   1.874   4.030   1.155 -1.6306  2.4151  0.5730
 7133SOL    MW428300   1.809   4.019   1.098  0.0003 -0.2754  0.6448
 7134SOL     OW28301   5.798   1.614   1.363 -0.1275  0.1886 -0.0641
 7134SOL    HW228302   5.840   1.699   1.355 -0.3375  0.2660 -0.3990
 7134SOL    HW328303   5.784   1.602   1.457  2.2228 -0.6292  0.2245
 7134SOL    MW428304   5.801   1.623   1.374  0.0264  0.0381 -0.1195
 7135SOL     OW28305   6.359   1.291   6.039  0.5470 -0.2680 -0.0166
 7135SOL    HW228306   6.357   1.318   5.948 -2.3491 -1.1325 -0.3171
 7135SOL    HW328307   6.389   1.200   6.036  0.3417 -0.3329 -0.1289
 7135SOL    MW428308   6.363   1.282   6.027 -0.2633 -0.1415 -0.2869
 7136SOL     OW28309   4.209   4.586   2.438 -0.2443 -0.2141 -0.4205
 7136SOL    HW228310   4.202   4.515   2.502 -1.2667 -0.7341 -1.0724
 7136SOL    HW328311   4.165   4.552   2.360  0.2312  0.7247 -1.1176
 7136SOL    MW428312   4.202   4.572   2.436  0.2369  0.3534  0.0297
 7137SOL     OW28313   1.112   3.361   3.850 -0.4420 -0.1414  0.2118
 7137SOL    HW228314   1.056   3.422   3.803 -0.6119  0.5362  1.2745
 7137SOL    HW328315   1.200   3.380   3.819 -0.6896 -0.6878 -0.8888
 7137SOL    MW428316   1.116   3.371   3.840  0.7216  0.1191  0.2744
 7138SOL     OW28317   0.683   3.831   0.111  0.3238 -0.3188  0.1884
 7138SOL    HW228318   0.657   3.764   0.175 -0.1711  0.0022  0.3306
 7138SOL    HW328319   0.646   3.801   0.028 -0.9581  0.3850  0.4826
 7138SOL    MW428320   0.675   3.818   0.109 -0.3630 -0.5131  0.0353
 7139SOL     OW28321   2.998   3.982   2.663  0.0336 -0.2517  0.1358
 7139SOL    HW228322   2.955   4.061   2.630 -0.1443 -0.3173  0.2095
 7139SOL    HW328323   3.088   3.989   2.632  0.0773  0.0968  0.3466
 7139SOL    MW428324   3.004   3.993   2.654  0.0689 -0.8381 -0.3393
 7140SOL     OW28325   3.655   0.992   4.116 -0.2152  1.1178 -0.4618
 7140SOL    HW228326   3.641   0.988   4.021  2.5834  1.3632 -0.9633
 7140SOL    HW328327   3.706   0.914   4.136 -0.0378  1.5240  0.7092
 7140SOL    MW428328   3.660   0.981   4.106  0.0274 -0.0913 -0.0895
 7141SOL     OW28329   4.729   1.526   0.434  0.0579 -0.1038 -0.0630
 7141SOL    HW228330   4.770   1.603   0.472 -1.6104  0.4120  0.8110
 7141SOL    HW328331   4.698   1.554   0.348 -1.5332  0.5898  0.6959
 7141SOL    MW428332   4.730   1.540   0.428 -0.2608  0.3847  0.0369
 7142SOL     OW28333   4.176   0.012   0.984 -0.3161  0.3240  0.1338
 7142SOL    HW228334   4.239  -0.059   0.995  1.7163  1.9398 -0.5375
 7142SOL    HW328335   4.091  -0.032   0.982  0.7107 -1.8956  1.5318
 7142SOL    MW428336   4.173  -0.004   0.985  0.0968 -0.0977 -0.2229
 7143SOL     OW28337   4.879   2.077   4.606  0.1695 -0.2054  0.3083
 7143SOL    HW228338   4.873   2.024   4.527 -0.0042 -0.2832  0.3752
 7143SOL    HW328339   4.966   2.117   4.601  0.0802 -0.0515 -0.0221
 7143SOL    MW428340   4.890   2.076   4.595 -0.4603  0.0940 -0.0778
 7144SOL     OW28341   4.859   1.927   4.126 -0.1677  0.2346 -0.0762
 7144SOL    HW228342   4.866   2.019   4.098  0.0147  0.3533  0.3472
 7144SOL    HW328343   4.869   1.931   4.221 -2.0205 -0.0089  0.1771
 7144SOL    MW428344   4.861   1.940   4.135  0.2205 -0.4580  0.0315
 7145SOL     OW28345   0.090   4.004   3.761  0.1865  0.3271  0.1111
 7145SOL    HW228346   0.112   3.911   3.758  0.0355  0.2630  0.7414
 7145SOL    HW328347   0.073   4.021   3.854  0.0817  0.9523 -0.0195
 7145SOL    MW428348   0.091   3.994   3.773  0.6119 -0.8089  0.6243
 7146SOL     OW28349   0.555   2.096   2.240  0.1207 -0.4674 -0.1621
 7146SOL    HW228350   0.509   2.140   2.167  0.5685  0.4462  0.0869
 7146SOL    HW328351   0.529   2.004   2.233 -0.8784 -0.1595 -0.6854
 7146SOL    MW428352   0.545   2.090   2.229 -0.0204  0.4975 -0.4552
 7147SOL     OW28353   3.555   1.947   3.380 -0.3858  0.1525  0.3832
 7147SOL    HW228354   3.618   1.964   3.309 -0.1570 -1.4245  0.1626
 7147SOL    HW328355   3.604   1.967   3.460  0.3171 -0.7034  0.1971
 7147SOL    MW428356   3.570   1.952   3.381  0.7501 -0.4973 -0.1102
 7148SOL     OW28357   3.966   2.137   4.802  0.5375 -0.8313 -0.7983
 7148SOL    HW228358   3.948   2.205   4.867  0.0348 -0.6932 -1.0777
 7148SOL    HW328359   4.052   2.159   4.766  0.2787 -0.2221 -1.0453
 7148SOL    MW428360   3.975   2.149   4.806 -0.0476 -0.1184  0.1719
 7149SOL     OW28361   1.577   2.077   3.397 -0.0658 -0.1895  0.2713
 7149SOL    HW228362   1.538   1.997   3.432 -1.3041  0.0855 -0.4490
 7149SOL    HW328363   1.506   2.141   3.397  0.1932  0.1526 -1.6325
 7149SOL    MW428364   1.563   2.075   3.401  0.0347 -0.3800  0.2326
 7150SOL     OW28365   4.285   4.099   1.191 -0.2594 -0.2690  0.6742
 7150SOL    HW228366   4.222   4.032   1.165 -3.2569  0.8438  4.1568
 7150SOL    HW328367   4.290   4.158   1.116 -0.8963 -2.0702 -0.8527
 7150SOL    MW428368   4.278   4.098   1.178  0.1498  0.0121 -0.1284
 7151SOL     OW28369   5.961   2.180   5.801 -0.4609 -0.2765  0.4929
 7151SOL    HW228370   5.942   2.095   5.841 -0.1554 -0.6033 -0.0526
 7151SOL    HW328371   6.018   2.224   5.865 -1.8915  0.1610  1.5025
 7151SOL    MW428372   5.966   2.175   5.815  0.3717 -0.0888  0.1004
 7152SOL     OW28373   3.849   6.159   4.192 -0.3257 -0.0562 -0.3756
 7152SOL    HW228374   3.864   6.115   4.276  1.2919 -0.6844 -0.9547
 7152SOL    HW328375   3.905   6.113   4.130 -1.8786  0.0404 -1.9577
 7152SOL    MW428376   3.858   6.147   4.195 -0.0130  0.3112 -0.6734
 7153SOL     OW28377   5.930   2.208   2.534  0.7588  0.1326  0.0862
 7153SOL    HW228378   5.929   2.169   2.447  1.2678  0.1969  0.0492
 7153SOL    HW328379   5.998   2.275   2.530  0.3932  0.5305  0.3665
 7153SOL    MW428380   5.939   2.212   2.522  0.6161  0.5228  0.4245
 7154SOL     OW28381   3.771   5.775   2.253  0.1279  0.0114  0.2214
 7154SOL    HW228382   3.847   5.788   2.309  1.8435  0.2100 -1.9915
 7154SOL    HW328383   3.799   5.711   2.188 -0.6699  1.8339 -2.1007
 7154SOL    MW428384   3.785   5.768   2.252  0.4673  0.6027 -0.3759
 7155SOL     OW28385   6.259   2.493   0.209  0.0531 -0.0797  0.4593
 7155SOL    HW228386   6.179   2.441   0.198  0.0436 -0.3989  1.8100
 7155SOL    HW328387   6.291   2.507   0.120 -1.8519  0.6170 -0.1646
 7155SOL    MW428388   6.252   2.488   0.196  0.0222 -0.5027  0.0799
 7156SOL     OW28389   1.283   5.694   4.405  0.1169  0.0928  0.1466
 7156SOL    HW228390   1.268   5.599   4.404  2.3929 -0.3438  1.0297
 7156SOL    HW328391   1.236   5.724   4.483 -0.6563 -0.2813 -0.1630
 7156SOL    MW428392   1.275   5.685   4.415  0.4443 -0.1791  0.0881
 7157SOL     OW28393   1.829   3.954   0.562 -0.3800 -0.5716 -0.0520
 7157SOL    HW228394   1.883   4.031   0.580  0.9654 -1.2487 -1.0217
 7157SOL    HW328395   1.854   3.927   0.474 -1.6126 -1.5024 -0.1479
 7157SOL    MW428396   1.839   3.961   0.553  0.2537  0.2176  0.1136
 7158SOL     OW28397   3.779   3.354   0.849 -0.1420  0.3084 -0.2004
 7158SOL    HW228398   3.818   3.429   0.805 -2.6594  1.8149 -0.0739
 7158SOL    HW328399   3.713   3.322   0.787  0.1076 -1.0892  0.2281
 7158SOL    MW428400   3.775   3.360   0.835 -0.2951  0.4158  0.3586
 7159SOL     OW28401   1.245   1.088   2.946 -0.2823  0.4257 -0.4130
 7159SOL    HW228402   1.304   1.020   2.980  1.9399  1.9718 -0.9800
 7159SOL    HW328403   1.180   1.099   3.016  1.1474 -0.0903  1.0811
 7159SOL    MW428404   1.245   1.081   2.960  0.0952 -0.3945  0.3751
 7160SOL     OW28405   3.221   2.450   2.375 -0.7985  0.4886  0.5015
 7160SOL    HW228406   3.234   2.403   2.457 -0.2112  1.1173  0.7809
 7160SOL    HW328407   3.178   2.531   2.401 -0.4895  0.7485  0.2116
 7160SOL    MW428408   3.217   2.455   2.389 -0.0742 -0.5552 -0.3470
 7161SOL     OW28409   2.204   3.648   0.741 -0.5424 -0.3823  0.1429
 7161SOL    HW228410   2.132   3.589   0.719 -0.9053  0.9174 -2.5646
 7161SOL    HW328411   2.165   3.711   0.802 -0.5174 -1.9978  1.9278
 7161SOL    MW428412   2.189   3.649   0.746  0.9689 -0.0138  0.2136
 7162SOL     OW28413   2.710   3.691   6.308 -0.0950  0.3977 -0.2719
 7162SOL    HW228414   2.675   3.699   6.396  1.4648  0.0043  0.4248
 7162SOL    HW328415   2.670   3.763   6.259 -1.0252  0.5877  0.7274
 7162SOL    MW428416   2.700   3.701   6.313 -0.4052  0.3992  0.1956
 7163SOL     OW28417   0.911   0.856   0.905 -0.2382  0.3351 -0.3990
 7163SOL    HW228418   0.874   0.873   0.819 -0.2062 -1.0239 -0.7065
 7163SOL    HW328419   0.844   0.806   0.952 -0.3888  1.3371  0.4966
 7163SOL    MW428420   0.898   0.852   0.900  0.0248  0.6177  0.1435
 7164SOL     OW28421   5.894   5.390   2.003  0.0134 -0.4390 -0.0593
 7164SOL    HW228422   5.840   5.457   1.962  0.3013  0.7673  1.4323
 7164SOL    HW328423   5.920   5.428   2.087 -0.3065 -2.6499  1.1228
 7164SOL    MW428424   5.890   5.404   2.009 -0.0367 -0.1679 -0.6954
 7165SOL     OW28425   6.137   3.840   2.398  0.3829  0.5710  0.5176
 7165SOL    HW228426   6.057   3.859   2.447  0.4135  2.1743  0.0124
 7165SOL    HW328427   6.113   3.855   2.306  0.8308 -0.5693  0.1986
 7165SOL    MW428428   6.123   3.844   2.392 -0.5051  0.1777 -0.3031
 7166SOL     OW28429   0.661   3.116   6.245 -0.2064  0.4881 -0.1587
 7166SOL    HW228430   0.586   3.156   6.290 -0.3711  0.5854 -0.5137
 7166SOL    HW328431   0.628   3.030   6.216  0.1885  0.0302  0.7239
 7166SOL    MW428432   0.647   3.110   6.247 -0.2630 -0.1783 -0.3088
 7167SOL     OW28433   4.605   1.989   3.414 -0.1937 -0.0357  0.4689
 7167SOL    HW228434   4.664   2.025   3.480 -0.2269  0.3470  0.2939
 7167SOL    HW328435   4.627   2.037   3.334 -1.1496  0.5398  0.5378
 7167SOL    MW428436   4.616   2.000   3.412 -0.1641 -0.7078  0.4180
 7168SOL     OW28437   0.898   2.816   2.395  0.4372  0.3702  0.0225
 7168SOL    HW228438   0.956   2.740   2.400  0.4324  0.1727 -2.0127
 7168SOL    HW328439   0.816   2.786   2.433  0.4719 -0.6512 -0.6570
 7168SOL    MW428440   0.895   2.802   2.400 -0.3122  0.2511  0.3091
 7169SOL     OW28441   5.107   2.448   2.820  0.2366 -0.5866  0.1041
 7169SOL    HW228442   5.116   2.416   2.730  0.2862 -0.5304  0.0888
 7169SOL    HW328443   5.022   2.493   2.821 -0.2312 -1.4621  0.3545
 7169SOL    MW428444   5.097   2.450   2.808  0.4321  0.3938  0.0526
 7170SOL     OW28445   5.820   1.874   4.494 -0.4672  0.0489 -0.2155
 7170SOL    HW228446   5.798   1.861   4.586 -0.6449  0.9573 -0.1152
 7170SOL    HW328447   5.888   1.810   4.475  0.9451  1.1048  1.0625
 7170SOL    MW428448   5.826   1.864   4.504 -0.2984 -0.3806  0.1529
 7171SOL     OW28449   4.829   5.129   1.467  0.2075  0.2053  0.3506
 7171SOL    HW228450   4.798   5.202   1.413 -0.0739 -0.2571 -0.1194
 7171SOL    HW328451   4.915   5.158   1.499  0.0457  0.7919  0.2738
 7171SOL    MW428452   4.836   5.143   1.464  0.3952 -0.0619  0.3954
 7172SOL     OW28453   0.210   3.753   3.710 -0.0927 -0.1529  0.4957
 7172SOL    HW228454   0.170   3.687   3.654  2.2201 -0.3915 -1.0147
 7172SOL    HW328455   0.256   3.811   3.649  1.4091  0.3615  2.0603
 7172SOL    MW428456   0.211   3.752   3.694  0.3988 -0.4496  0.2986
 7173SOL     OW28457   0.430   1.601   0.654 -0.1957 -0.1552 -0.8982
 7173SOL    HW228458   0.345   1.569   0.685  0.9783  0.0665  3.0338
 7173SOL    HW328459   0.489   1.527   0.665  0.5955  0.3861 -1.3927
 7173SOL    MW428460   0.426   1.587   0.659  0.3221 -0.1163 -0.3852
 7174SOL     OW28461   1.164   5.666   0.358  0.6438 -0.6381  0.1297
 7174SOL    HW228462   1.250   5.626   0.369  1.3169  1.0124  1.1291
 7174SOL    HW328463   1.121   5.655   0.443 -0.2002 -1.5192 -0.3823
 7174SOL    MW428464   1.169   5.659   0.371  0.4522 -0.4898 -0.6712
 7175SOL     OW28465   2.498   4.782   5.241  0.0448  0.1082 -0.0243
 7175SOL    HW228466   2.491   4.691   5.270 -1.1468  0.4557  0.8537
 7175SOL    HW328467   2.554   4.778   5.164 -0.4172 -1.4520 -0.3211
 7175SOL    MW428468   2.504   4.770   5.234 -0.3801 -0.0794  0.1957
 7176SOL     OW28469   5.518   5.593   3.009 -0.3951 -0.7658  0.1635
 7176SOL    HW228470   5.573   5.559   2.938  0.1492 -2.3124  1.2968
 7176SOL    HW328471   5.429   5.575   2.979 -0.1350 -3.0999  0.6302
 7176SOL    MW428472   5.513   5.586   2.995  0.4438  0.3804  0.4039
 7177SOL     OW28473   6.113   1.130   4.090 -0.2185  0.3262  0.2247
 7177SOL    HW228474   6.055   1.202   4.116 -0.0947  0.3365  0.4740
 7177SOL    HW328475   6.069   1.052   4.122  1.1550  0.4975  2.7886
 7177SOL    MW428476   6.100   1.130   4.097  0.2425  0.5345 -0.3526
 7178SOL     OW28477   0.337   5.292   3.897  0.3155  0.0351 -0.4443
 7178SOL    HW228478   0.309   5.383   3.909 -0.1908  0.2153 -2.5882
 7178SOL    HW328479   0.262   5.240   3.923  0.1541  0.2936 -0.3933
 7178SOL    MW428480   0.324   5.297   3.902  0.1190  0.1503 -0.2316
 7179SOL     OW28481   6.408   3.233   6.336  0.5570 -0.3034 -0.6696
 7179SOL    HW228482   6.367   3.164   6.284  1.9490 -1.6743 -0.0426
 7179SOL    HW328483   6.336   3.287   6.368 -0.5437 -1.3026 -1.4285
 7179SOL    MW428484   6.393   3.231   6.334  0.0234 -0.2323  0.3469
 7180SOL     OW28485   0.124   3.121   0.127 -0.7370  0.1527  0.2873
 7180SOL    HW228486   0.166   3.045   0.087 -0.5508 -0.4192  1.5334
 7180SOL    HW328487   0.066   3.155   0.059 -0.3968 -0.7625 -0.4738
 7180SOL    MW428488   0.122   3.116   0.113 -0.0574 -0.3699  0.0779
 7181SOL     OW28489   4.337   0.414   1.729 -0.2124  0.2088 -0.0798
 7181SOL    HW228490   4.294   0.456   1.803 -0.5187 -1.5120  0.7787
 7181SOL    HW328491   4.338   0.321   1.752  1.2335 -0.1603 -1.4736
 7181SOL    MW428492   4.332   0.407   1.742 -0.0334  0.4342  0.5589
 7182SOL     OW28493   2.283   0.752   5.413  0.0085  0.8458  0.0603
 7182SOL    HW228494   2.334   0.737   5.492  1.1321  0.2064 -0.7532
 7182SOL    HW328495   2.201   0.790   5.444  0.1128 -0.0879  1.5837
 7182SOL    MW428496   2.279   0.755   5.427 -0.1173  0.2642 -0.4250
 7183SOL     OW28497   1.139   3.090   2.765 -0.0974  0.0447  0.1750
 7183SOL    HW228498   1.075   3.031   2.726 -0.2058 -0.9867  1.8171
 7183SOL    HW328499   1.113   3.177   2.734  0.2006 -0.7093 -2.4839
 7183SOL    MW428500   1.128   3.094   2.756 -0.2707  0.1276 -0.2351
 7184SOL     OW28501   1.915   0.672   0.806  0.4215 -0.4190 -0.2093
 7184SOL    HW228502   1.955   0.609   0.865  1.1591 -1.0249 -1.3318
 7184SOL    HW328503   1.828   0.688   0.844  0.3933 -1.7440  0.3451
 7184SOL    MW428504   1.909   0.666   0.819 -0.4062  0.1745  0.1698
 7185SOL     OW28505   6.254   6.213   5.942 -0.3480  0.7017  1.1388
 7185SOL    HW228506   6.308   6.287   5.912  1.5764 -0.6674  1.0369
 7185SOL    HW328507   6.264   6.213   6.037  0.7057 -0.1457  1.0473
 7185SOL    MW428508   6.262   6.223   5.951 -0.4485 -1.0008 -0.5063
 7186SOL     OW28509   2.553   5.940   5.241  0.7758  0.1546 -0.0069
 7186SOL    HW228510   2.555   5.954   5.147  0.0933 -1.4142 -0.2837
 7186SOL    HW328511   2.513   5.853   5.252  2.2618 -0.3815  1.6475
 7186SOL    MW428512   2.548   5.930   5.230 -0.3319 -0.7962  0.5538
 7187SOL     OW28513   0.412   0.821   1.343 -0.2289 -0.7559 -0.0340
 7187SOL    HW228514   0.378   0.764   1.274  2.1011 -2.2580 -0.0427
 7187SOL    HW328515   0.501   0.790   1.358  0.6482  2.0130  0.9909
 7187SOL    MW428516   0.419   0.809   1.336  0.2758  0.4654  0.0608
 7188SOL     OW28517   1.818   4.610   0.219 -0.6291  0.2369 -0.4518
 7188SOL    HW228518   1.832   4.631   0.127  1.2932 -0.1457 -0.2815
 7188SOL    HW328519   1.723   4.614   0.230 -0.9961 -0.8046 -2.7037
 7188SOL    MW428520   1.807   4.614   0.208 -0.6009 -0.1504  0.8182
 7189SOL     OW28521   1.674   5.285   4.883 -0.0808  0.2169  0.1394
 7189SOL    HW228522   1.670   5.341   4.961  3.7326  0.9609 -0.0258
 7189SOL    HW328523   1.683   5.196   4.918 -1.0354  0.2332  0.4645
 7189SOL    MW428524   1.675   5.281   4.898  0.3802 -0.0984 -0.3807
 7190SOL     OW28525   5.262   4.522   2.941  0.4103 -0.5587 -0.1809
 7190SOL    HW228526   5.282   4.456   3.008 -0.4074 -1.1746 -0.5211
 7190SOL    HW328527   5.272   4.475   2.858 -0.3136 -0.2985 -0.4247
 7190SOL    MW428528   5.266   4.507   2.939 -0.3415  0.3753  0.3342
 7191SOL     OW28529   5.267   6.111   0.338 -0.5266 -0.5003 -0.3289
 7191SOL    HW228530   5.303   6.030   0.375 -0.4689  0.1151  1.0178
 7191SOL    HW328531   5.207   6.081   0.270 -1.1374 -1.7226  0.7014
 7191SOL    MW428532   5.264   6.097   0.334  0.0264  0.5412 -0.3135
 7192SOL     OW28533   2.185   1.762   5.245 -0.4268 -0.0344  0.2435
 7192SOL    HW228534   2.177   1.810   5.327 -1.5506  0.2837 -0.0408
 7192SOL    HW328535   2.166   1.671   5.269  0.8738 -0.2332  0.6225
 7192SOL    MW428536   2.182   1.756   5.259  0.9804  0.0375  0.3415
 7193SOL     OW28537   5.189   5.871   0.162  0.3553 -0.3768  0.2802
 7193SOL    HW228538   5.198   5.888   0.068  0.2042 -0.7155  0.2053
 7193SOL    HW328539   5.192   5.776   0.170 -0.7077 -0.4016  0.5009
 7193SOL    MW428540   5.191   5.861   0.150 -0.0387  0.0341  0.8797
 7194SOL     OW28541   2.097   2.278   1.097  0.1155  0.2355  0.2466
 7194SOL    HW228542   2.170   2.340   1.100 -0.6883  1.2567 -0.4077
 7194SOL    HW328543   2.135   2.194   1.123  0.9218  1.2770  2.6550
 7194SOL    MW428544   2.112   2.275   1.101  0.0807 -0.6278  0.3438
 7195SOL     OW28545   5.687   4.971   2.447  0.8962  0.7347 -0.3650
 7195SOL    HW228546   5.625   5.001   2.381  1.3151 -2.1990 -2.2933
 7195SOL    HW328547   5.638   4.970   2.528 -0.1071  2.9657 -0.8804
 7195SOL    MW428548   5.673   4.975   2.449  0.2780 -0.1345 -0.6882
 7196SOL     OW28549   2.118   5.972   0.529  0.2819  0.0117 -0.1072
 7196SOL    HW228550   2.182   5.920   0.579  0.3767 -0.4677 -0.7152
 7196SOL    HW328551   2.125   6.060   0.566 -0.6606 -0.6278  1.6841
 7196SOL    MW428552   2.128   5.977   0.540 -0.3243 -0.1002  0.1968
 7197SOL     OW28553   1.238   2.099   0.931  0.0788 -0.1997  0.1966
 7197SOL    HW228554   1.231   2.112   1.025 -0.3234 -0.0091  0.1403
 7197SOL    HW328555   1.199   2.013   0.916  1.1219 -0.7183  0.3373
 7197SOL    MW428556   1.232   2.089   0.941 -0.4220 -0.1642 -0.7085
 7198SOL     OW28557   3.121   2.875   0.823 -0.4822 -0.1509 -0.3663
 7198SOL    HW228558   3.204   2.847   0.785  1.3241  0.8918  2.5060
 7198SOL    HW328559   3.125   2.970   0.823 -1.5709 -0.0886  0.0586
 7198SOL    MW428560   3.133   2.884   0.818 -0.2290  0.5868  0.0806
 7199SOL     OW28561   3.333   1.671   4.496  0.0947 -0.3810 -0.2688
 7199SOL    HW228562   3.404   1.688   4.434 -0.9592 -0.4424 -1.5036
 7199SOL    HW328563   3.312   1.578   4.485  0.2613 -0.5379  0.5927
 7199SOL    MW428564   3.340   1.661   4.487 -0.6071 -0.0541  0.2706
 7200SOL     OW28565   1.021   6.114   3.950  0.2514 -0.2014  0.1241
 7200SOL    HW228566   1.042   6.191   4.003  0.7350 -0.3424  0.1441
 7200SOL    HW328567   1.024   6.041   4.012 -2.1879 -0.0219  0.5360
 7200SOL    MW428568   1.024   6.114   3.965 -0.4075  0.3359 -0.4476
 7201SOL     OW28569   2.694   5.807   1.233  0.3552 -0.0305  0.1828
 7201SOL    HW228570   2.685   5.784   1.326 -0.5079  0.3576  0.1984
 7201SOL    HW328571   2.618   5.862   1.214  1.0719  0.7651 -0.4870
 7201SOL    MW428572   2.683   5.811   1.243 -0.4052  0.0086  0.2621
 7202SOL     OW28573   2.125   2.089   3.066 -0.3988 -0.0049  0.4562
 7202SOL    HW228574   2.103   2.080   3.159 -1.6420 -1.6336  0.0541
 7202SOL    HW328575   2.120   1.999   3.032  0.2552  0.5339 -1.1444
 7202SOL    MW428576   2.122   2.076   3.074  0.5672 -1.0751 -0.4707
 7203SOL     OW28577   5.151   5.894   1.641 -0.1088  0.2470 -0.7603
 7203SOL    HW228578   5.202   5.835   1.586 -1.6494 -0.4665 -1.4830
 7203SOL    HW328579   5.186   5.882   1.729 -0.7869 -2.2338 -0.7681
 7203SOL    MW428580   5.163   5.885   1.645 -0.0479  0.7652  0.7210
 7204SOL     OW28581   0.729   5.797   0.159  0.3550  0.5336 -0.3997
 7204SOL    HW228582   0.821   5.820   0.148  0.2633  1.0037 -0.1915
 7204SOL    HW328583   0.724   5.705   0.132  1.3358 -0.2107  1.6611
 7204SOL    MW428584   0.740   5.788   0.154  0.8305  0.1607  0.0040
 7205SOL     OW28585   3.457   0.751   4.650  0.9136  0.4215 -0.3019
 7205SOL    HW228586   3.424   0.840   4.637 -0.1008  0.6417  2.9448
 7205SOL    HW328587   3.521   0.739   4.580  1.2374  3.7736 -0.7491
 7205SOL    MW428588   3.461   0.761   4.639  0.3641  0.7284  0.0404
 7206SOL     OW28589   3.176   3.146   2.509  0.0538  0.3137 -0.0564
 7206SOL    HW228590   3.212   3.062   2.478  0.8288  0.2678  0.9308
 7206SOL    HW328591   3.247   3.209   2.496 -0.8165  1.0336 -1.6178
 7206SOL    MW428592   3.190   3.143   2.503  0.2035 -0.3024 -0.1397
 7207SOL     OW28593   2.468   6.304   1.770  0.0942 -1.0269  1.5705
 7207SOL    HW228594   2.453   6.326   1.678  0.0347  0.7314  1.9682
 7207SOL    HW328595   2.465   6.208   1.772 -3.0069 -1.0850  0.2464
 7207SOL    MW428596   2.466   6.294   1.758 -0.2269  0.2890  0.0482
 7208SOL     OW28597   2.395   2.812   0.324 -0.0262 -0.5538  0.1210
 7208SOL    HW228598   2.325   2.797   0.261 -1.4275 -1.0274  1.7235
 7208SOL    HW328599   2.472   2.832   0.270 -1.4738  0.4307 -1.6738
 7208SOL    MW428600   2.396   2.813   0.309 -0.2828 -0.2606 -0.5191
 7209SOL     OW28601   5.045   4.941   5.174  0.5302  0.1545  0.1394
 7209SOL    HW228602   5.039   4.884   5.096  0.2884  0.6737 -0.2254
 7209SOL    HW328603   5.136   4.934   5.202  0.2891 -1.1997  0.6978
 7209SOL    MW428604   5.056   4.932   5.167 -0.2975  1.0945 -0.3611
 7210SOL     OW28605   4.561   3.756   4.744  0.8463 -0.7819  0.3297
 7210SOL    HW228606   4.615   3.815   4.692  0.3758 -0.4826  0.1744
 7210SOL    HW328607   4.621   3.717   4.807  0.7597  1.6182  1.9933
 7210SOL    MW428608   4.576   3.758   4.745 -0.1295  0.1861  0.3285
 7211SOL     OW28609   0.962   1.937   3.437 -0.6566 -0.2650  0.1511
 7211SOL    HW228610   1.020   1.996   3.388 -1.0298 -1.4851 -1.9006
 7211SOL    HW328611   0.906   1.995   3.487  1.4796  0.9936  1.2324
 7211SOL    MW428612   0.962   1.952   3.437 -0.5667 -1.0571  0.2272
 7212SOL     OW28613   3.860   5.055   0.558  0.0809 -0.3716  0.1132
 7212SOL    HW228614   3.948   5.028   0.534  0.7901  0.0845  2.0079
 7212SOL    HW328615   3.827   5.103   0.482  0.8532 -1.8580 -1.2023
 7212SOL    MW428616   3.867   5.058   0.545  0.0922  0.4473 -0.6198
 7213SOL     OW28617   1.369   0.171   5.312  0.0976  0.2794  0.0080
 7213SOL    HW228618   1.327   0.136   5.391  0.1446  0.6884  0.2134
 7213SOL    HW328619   1.443   0.221   5.344 -1.0288  2.1319 -0.1525
 7213SOL    MW428620   1.373   0.173   5.327  0.4546  0.2660  0.0077
 7214SOL     OW28621   1.246   3.063   5.953 -0.6790 -0.1006  0.4146
 7214SOL    HW228622   1.206   3.072   6.040  1.0378  1.7733  1.0857
 7214SOL    HW328623   1.334   3.032   5.970  0.5841  2.7196 -0.3336
 7214SOL    MW428624   1.252   3.060   5.967  0.0141 -0.5076 -0.5824
 7215SOL     OW28625   3.253   2.048   1.665  0.3120  0.2957 -0.6648
 7215SOL    HW228626   3.179   2.096   1.628 -2.5481 -1.9598  1.7074
 7215SOL    HW328627   3.279   1.987   1.596 -0.9006  0.2384 -1.0888
 7215SOL    MW428628   3.247   2.046   1.651  0.0253 -0.3150 -0.3316
 7216SOL     OW28629   5.024   2.627   3.128  0.3014 -0.3686 -0.3814
 7216SOL    HW228630   5.038   2.684   3.203  0.6316  0.5654 -1.1275
 7216SOL    HW328631   5.080   2.551   3.143  0.9672  0.1846 -0.0706
 7216SOL    MW428632   5.033   2.624   3.140  0.4746  0.3615 -0.4465
 7217SOL     OW28633   1.223   1.522   3.178 -0.5040 -0.2812 -0.0760
 7217SOL    HW228634   1.278   1.576   3.234  0.4264 -0.3455 -0.9056
 7217SOL    HW328635   1.279   1.450   3.151 -0.4344  0.5233 -2.2672
 7217SOL    MW428636   1.238   1.520   3.182  0.1441  0.1348  0.2001
 7218SOL     OW28637   6.186   5.993   4.192  0.0858 -0.2369  0.2626
 7218SOL    HW228638   6.209   6.072   4.242  1.4195 -0.0520 -0.5784
 7218SOL    HW328639   6.231   6.005   4.108 -0.8117 -1.2754 -0.3797
 7218SOL    MW428640   6.195   6.005   4.188  0.3650 -0.0330 -0.6000
 7219SOL     OW28641   4.418   3.764   6.217 -0.3089 -0.1444 -0.4308
 7219SOL    HW228642   4.442   3.673   6.230 -0.0785 -0.0615 -0.2517
 7219SOL    HW328643   4.353   3.763   6.147  0.8238 -0.3009 -1.5078
 7219SOL    MW428644   4.412   3.752   6.210  0.0334  0.1964  0.0753
 7220SOL     OW28645   3.955   0.428   3.059  0.1928 -0.3060 -0.1439
 7220SOL    HW228646   4.038   0.384   3.078 -0.0780 -0.5912  0.4126
 7220SOL    HW328647   3.978   0.521   3.055  0.8864 -0.5162 -1.9728
 7220SOL    MW428648   3.969   0.435   3.061 -0.5303 -0.4289 -0.2406
 7221SOL     OW28649   5.996   5.742   2.501  0.0477 -0.1475 -0.0752
 7221SOL    HW228650   5.914   5.695   2.487  0.2621 -0.5104 -0.1542
 7221SOL    HW328651   5.983   5.792   2.581 -0.2607 -0.1810 -0.1070
 7221SOL    MW428652   5.984   5.742   2.509  0.2010  0.2739 -0.4100
 7222SOL     OW28653   5.928   2.985   3.112 -0.3915  0.0028 -0.2115
 7222SOL    HW228654   6.024   2.978   3.118 -0.4319  0.1281  0.6560
 7222SOL    HW328655   5.903   2.914   3.053  0.1480 -0.7106  0.3937
 7222SOL    MW428656   5.938   2.974   3.105 -0.7698  0.3670  0.8591
 7223SOL     OW28657   3.590   0.450   0.673 -0.7436 -0.0658 -0.2516
 7223SOL    HW228658   3.508   0.486   0.708 -1.0598 -0.9379 -0.0677
 7223SOL    HW328659   3.564   0.402   0.594 -0.4539 -0.5450 -0.0642
 7223SOL    MW428660   3.575   0.448   0.667 -0.7462 -0.0438 -0.2807
 7224SOL     OW28661   1.833   0.942   5.115 -0.3928 -0.7537 -0.1182
 7224SOL    HW228662   1.888   0.865   5.130 -1.8424 -1.6853  0.6768
 7224SOL    HW328663   1.895   1.014   5.104  0.9871 -1.8614  0.1105
 7224SOL    MW428664   1.849   0.942   5.116 -0.4649 -0.0249 -0.7905
 7225SOL     OW28665   4.464   1.943   4.869  0.1161 -0.4487  0.1898
 7225SOL    HW228666   4.387   1.920   4.921  1.1883 -2.0170  1.1497
 7225SOL    HW328667   4.501   1.859   4.842  1.2469  0.2916 -0.6423
 7225SOL    MW428668   4.459   1.929   4.872  0.5280 -0.5250  0.2950
 7226SOL     OW28669   6.367   0.889   3.597 -0.4088  0.2547 -0.4061
 7226SOL    HW228670   6.368   0.982   3.618 -2.2178  0.6789 -1.9254
 7226SOL    HW328671   6.313   0.849   3.665 -0.1456  0.4095 -0.1054
 7226SOL    MW428672   6.360   0.896   3.608  0.4408 -0.2618 -0.5550
 7227SOL     OW28673   1.505   1.907   6.273 -0.2267  0.2525  0.3650
 7227SOL    HW228674   1.523   1.853   6.196 -2.4975  0.8619 -0.6823
 7227SOL    HW328675   1.535   1.855   6.347  0.1074 -1.2601 -0.7889
 7227SOL    MW428676   1.511   1.893   6.272 -0.0099 -0.1687 -0.2294
 7228SOL     OW28677   0.906   4.284   1.252  0.8932  0.2440  0.3766
 7228SOL    HW228678   0.852   4.208   1.271  0.2280  0.5490 -0.2396
 7228SOL    HW328679   0.889   4.303   1.160  1.1693  1.0419  0.4783
 7228SOL    MW428680   0.897   4.277   1.242  0.3278  0.0076 -0.1658
 7229SOL     OW28681   5.663   1.108   3.906 -0.1250  0.9498  0.4635
 7229SOL    HW228682   5.688   1.027   3.951 -1.3916 -0.1866 -0.7844
 7229SOL    HW328683   5.736   1.125   3.845  0.1324  0.7347  0.7060
 7229SOL    MW428684   5.676   1.100   3.904  0.1659  0.1446 -0.5085
 7230SOL     OW28685   1.994   2.167   0.498  0.5848 -0.0556 -0.7623
 7230SOL    HW228686   1.907   2.205   0.511  0.9035  0.5408 -0.2905
 7230SOL    HW328687   1.977   2.075   0.475 -0.1504 -0.3668  0.8257
 7230SOL    MW428688   1.980   2.160   0.497  0.5231  0.1582 -0.0525
 7231SOL     OW28689   0.382   3.782   3.365  0.6028 -0.2545 -0.1023
 7231SOL    HW228690   0.354   3.747   3.281 -1.0894  1.1357 -0.1848
 7231SOL    HW328691   0.389   3.706   3.423 -1.8352 -0.8873 -0.5446
 7231SOL    MW428692   0.379   3.768   3.362 -0.6783  0.5055 -0.3469
 7232SOL     OW28693   1.250   4.572   0.935  0.6550  0.1451  0.0958
 7232SOL    HW228694   1.249   4.666   0.920 -0.5354  0.0004 -0.8269
 7232SOL    HW328695   1.343   4.548   0.933  0.8696  0.9633 -1.9154
 7232SOL    MW428696   1.262   4.581   0.933  0.1903  0.3703  0.4885
 7233SOL     OW28697   6.129   0.496   0.261 -0.1327  0.3065  0.1476
 7233SOL    HW228698   6.207   0.446   0.285 -0.0858  0.5892  0.5883
 7233SOL    HW328699   6.138   0.510   0.167 -0.2105 -0.6266 -0.0115
 7233SOL    MW428700   6.140   0.491   0.252 -0.0190 -0.3133  0.2222
 7234SOL     OW28701   4.484   2.556   5.555  0.2059 -0.3088 -0.3002
 7234SOL    HW228702   4.466   2.514   5.640  0.1792  0.1075 -0.0975
 7234SOL    HW328703   4.546   2.626   5.576 -1.4292  1.2019 -0.2673
 7234SOL    MW428704   4.490   2.560   5.569  0.2180 -0.1240  0.1336
 7235SOL     OW28705   5.697   2.262   0.120  0.5986  0.0774  0.1374
 7235SOL    HW228706   5.609   2.231   0.101  0.9838 -0.0965 -1.5034
 7235SOL    HW328707   5.751   2.183   0.119  1.0360  0.3737 -0.6221
 7235SOL    MW428708   5.693   2.248   0.118 -0.3949 -0.8294 -0.1964
 7236SOL     OW28709   1.511   0.574   2.156  0.0773 -0.3093 -0.3729
 7236SOL    HW228710   1.478   0.511   2.220  1.0177 -0.2022  0.2245
 7236SOL    HW328711   1.435   0.593   2.100 -1.0402  0.3585  1.2941
 7236SOL    MW428712   1.496   0.568   2.157  0.0459 -0.7090  0.2848
 7237SOL     OW28713   0.679   3.076   2.219 -0.6376 -0.8429  0.0614
 7237SOL    HW228714   0.586   3.095   2.212 -0.9248 -2.4036 -0.8604
 7237SOL    HW328715   0.687   2.985   2.190  1.3807 -0.2229 -1.5651
 7237SOL    MW428716   0.668   3.067   2.214 -0.1340  0.3793  0.1128
 7238SOL     OW28717   2.930   6.028   0.118  0.0462 -0.0094  0.1128
 7238SOL    HW228718   2.940   5.933   0.118 -0.2748 -0.0752  2.0614
 7238SOL    HW328719   2.911   6.051   0.209 -2.0221  1.6993 -0.6505
 7238SOL    MW428720   2.929   6.018   0.130 -0.1002  0.4078 -0.0194
 7239SOL     OW28721   2.532   0.354   1.938  0.0778 -0.1456  0.2666
 7239SOL    HW228722   2.485   0.288   1.989  1.3484 -0.8592  0.5509
 7239SOL    HW328723   2.575   0.304   1.869  0.6733  0.4494  0.2005
 7239SOL    MW428724   2.532   0.338   1.936 -0.2659  0.1828 -0.2743
 7240SOL     OW28725   2.127   6.385   1.717  0.4236 -0.6038  0.2990
 7240SOL    HW228726   2.210   6.412   1.678 -0.9857  2.6840 -0.7641
 7240SOL    HW328727   2.132   6.418   1.807 -0.0244  0.3103 -0.0068
 7240SOL    MW428728   2.139   6.393   1.724  0.2507  0.0705  0.0082
 7241SOL     OW28729   3.811   5.584   0.188 -0.2097  0.3989 -0.0028
 7241SOL    HW228730   3.722   5.552   0.174  0.9387 -3.0344 -0.2858
 7241SOL    HW328731   3.862   5.547   0.116  1.5732  2.0052  0.3382
 7241SOL    MW428732   3.806   5.575   0.177 -0.1111 -0.1641 -0.3848
 7242SOL     OW28733   0.105   1.536   4.161 -0.0046 -0.0196 -0.0375
 7242SOL    HW228734   0.184   1.559   4.113  0.5233  0.5921  1.0690
 7242SOL    HW328735   0.086   1.446   4.136  1.1325 -0.2226 -0.2054
 7242SOL    MW428736   0.113   1.527   4.151 -0.2216 -0.1010 -0.2900
 7243SOL     OW28737   3.091   3.774   0.359 -0.1159  0.1693  0.0266
 7243SOL    HW228738   3.013   3.728   0.327 -1.5762  1.4506  1.5505
 7243SOL    HW328739   3.103   3.846   0.297 -0.4310  0.2408  0.0450
 7243SOL    MW428740   3.082   3.777   0.346 -0.3662  0.2743  0.1849
 7244SOL     OW28741   6.235   5.629   3.594 -0.0166  0.2996  0.0189
 7244SOL    HW228742   6.147   5.658   3.569  0.0282  0.9867  0.6295
 7244SOL    HW328743   6.220   5.560   3.658 -0.1191  1.2278  1.0174
 7244SOL    MW428744   6.222   5.624   3.599 -0.3034  0.1533  0.3518
 7245SOL     OW28745   5.493   1.808   4.461  0.7647 -0.4780 -0.2819
 7245SOL    HW228746   5.515   1.892   4.501 -0.3444 -1.8452  3.5843
 7245SOL    HW328747   5.416   1.828   4.407  1.4679  1.2309 -0.7253
 7245SOL    MW428748   5.486   1.822   4.459 -0.2012  0.0053 -0.6595
 7246SOL     OW28749   1.500   3.454   5.226 -0.3345 -0.1775 -0.0072
 7246SOL    HW228750   1.547   3.407   5.294  0.8718 -0.0832 -0.7487
 7246SOL    HW328751   1.414   3.474   5.265 -0.5840 -2.2502  0.5903
 7246SOL    MW428752   1.495   3.451   5.240  0.1266  0.3779 -0.5328
 7247SOL     OW28753   4.540   0.699   1.429 -0.1418 -0.0008 -0.2872
 7247SOL    HW228754   4.559   0.746   1.348 -1.4213 -1.1079 -1.2720
 7247SOL    HW328755   4.566   0.760   1.499  1.2095  0.8831 -1.5050
 7247SOL    MW428756   4.546   0.713   1.428  0.3923  0.2308 -0.1656
 7248SOL     OW28757   2.333   2.684   5.640  0.4218  0.5122  0.3421
 7248SOL    HW228758   2.316   2.657   5.550  1.8177 -1.7546  0.6899
 7248SOL    HW328759   2.376   2.609   5.680  1.5213  2.1279  2.3835
 7248SOL    MW428760   2.336   2.671   5.633  0.4208  0.1258  0.2158
 7249SOL     OW28761   5.464   6.225   5.123  0.0655  0.6000  0.0611
 7249SOL    HW228762   5.522   6.286   5.168  1.4222 -0.0901 -0.7022
 7249SOL    HW328763   5.508   6.206   5.040 -0.6903 -0.8274 -0.0456
 7249SOL    MW428764   5.477   6.230   5.118 -0.7784  0.2352 -0.1667
 7250SOL     OW28765   2.160   3.708   5.016 -0.5117 -0.0234 -0.6182
 7250SOL    HW228766   2.069   3.715   5.045 -0.3717  1.0599 -0.3993
 7250SOL    HW328767   2.163   3.754   4.932 -0.5030 -1.5022 -1.4726
 7250SOL    MW428768   2.148   3.715   5.009 -0.4703 -0.0085 -0.6671
 7251SOL     OW28769   5.266   2.650   5.685  0.0199  0.1704 -0.0873
 7251SOL    HW228770   5.324   2.587   5.644  0.3655  0.3428  0.1379
 7251SOL    HW328771   5.318   2.730   5.694 -0.7038  0.8160 -1.2844
 7251SOL    MW428772   5.280   2.653   5.681  0.3930 -0.4729 -0.1975
 7252SOL     OW28773   1.232   4.030   6.206 -0.4657 -0.0369 -0.4521
 7252SOL    HW228774   1.306   4.088   6.227 -0.7181  0.8498 -1.8967
 7252SOL    HW328775   1.168   4.048   6.274  0.1701  0.0598  0.1368
 7252SOL    MW428776   1.233   4.040   6.218  0.2210 -0.3657  0.2558
 7253SOL     OW28777   0.242   4.282   6.275  0.1686  0.0582  0.0970
 7253SOL    HW228778   0.249   4.319   6.187  0.8985  0.8959  0.4858
 7253SOL    HW328779   0.153   4.248   6.279  0.5621 -1.2887 -1.4420
 7253SOL    MW428780   0.232   4.283   6.264  0.3222 -0.5948  0.3535
 7254SOL     OW28781   3.125   5.170   2.678  0.2190  0.2452 -0.1540
 7254SOL    HW228782   3.051   5.110   2.676 -0.9495  1.5475  1.3700
 7254SOL    HW328783   3.092   5.253   2.644  1.7426  0.1752 -1.9955
 7254SOL    MW428784   3.111   5.173   2.674 -0.3208  0.0865  0.0720
 7255SOL     OW28785   0.211   1.394   3.810 -0.5484  0.5779 -0.2410
 7255SOL    HW228786   0.121   1.425   3.810 -0.5846  0.4719 -0.4260
 7255SOL    HW328787   0.204   1.300   3.794 -0.3592  0.6982 -1.0629
 7255SOL    MW428788   0.198   1.386   3.808 -0.1169 -0.1742 -0.1878
 7256SOL     OW28789   2.994   4.046   6.395 -0.2085  0.3096  0.3567
 7256SOL    HW228790   2.970   3.962   6.356  2.6084 -0.4016 -0.0984
 7256SOL    HW328791   3.050   4.088   6.330  0.3876  1.4488  1.5530
 7256SOL    MW428792   2.998   4.040   6.382  0.3673  0.4794 -0.0703
 7257SOL     OW28793   4.726   6.016   3.783 -0.0797  0.8452 -0.7775
 7257SOL    HW228794   4.700   5.949   3.720 -1.9832 -0.8096  1.6077
 7257SOL    HW328795   4.778   5.969   3.848  1.5384  2.4337 -0.8471
 7257SOL    MW428796   4.730   6.001   3.783 -0.5505  0.3121 -0.3221
 7258SOL     OW28797   0.026   2.068   2.542  0.3587  0.0073 -0.0209
 7258SOL    HW228798  -0.002   2.065   2.634 -0.2811 -0.3752 -0.2243
 7258SOL    HW328799  -0.051   2.040   2.492  0.8377 -0.2267 -0.6450
 7258SOL    MW428800   0.012   2.064   2.548 -0.3020  0.0903 -0.6304
 7259SOL     OW28801   5.758   2.941   6.366 -0.5930  0.0533  0.1813
 7259SOL    HW228802   5.725   2.912   6.282  0.4830  1.3508 -0.7254
 7259SOL    HW328803   5.845   2.900   6.372  1.3133  3.4681 -1.4916
 7259SOL    MW428804   5.765   2.932   6.356  0.0595  0.0531  0.0146
 7260SOL     OW28805   5.557   0.835   2.345 -0.2352  0.1989  0.1061
 7260SOL    HW228806   5.511   0.857   2.426 -1.2021  0.7788 -0.5884
 7260SOL    HW328807   5.534   0.905   2.284  0.8899  0.0452 -0.5273
 7260SOL    MW428808   5.548   0.847   2.348  0.5236  0.1294 -0.1821
 7261SOL     OW28809   4.372   3.343   2.366 -0.3345 -0.3634 -0.0665
 7261SOL    HW228810   4.402   3.298   2.445  0.8767  2.2046  1.0623
 7261SOL    HW328811   4.432   3.314   2.297  0.2891 -0.6028  0.5699
 7261SOL    MW428812   4.384   3.333   2.367 -0.1199  0.7962 -0.3263
 7262SOL     OW28813   0.098   4.648   2.602 -0.3407 -0.1929  0.5193
 7262SOL    HW228814   0.103   4.578   2.537  0.5027  0.9328 -0.6801
 7262SOL    HW328815   0.187   4.685   2.604 -0.3222 -0.2330  2.3876
 7262SOL    MW428816   0.111   4.643   2.593 -0.0688  0.4026  0.1192
 7263SOL     OW28817   1.124   5.129   2.256  0.2743  0.4412 -0.6515
 7263SOL    HW228818   1.091   5.108   2.343 -0.5742  2.5423 -0.3965
 7263SOL    HW328819   1.053   5.104   2.197 -0.0194  0.9147 -0.5118
 7263SOL    MW428820   1.110   5.123   2.260 -0.2374 -0.5449  0.1148
 7264SOL     OW28821   0.501   0.491   2.958 -0.5089 -0.2998 -0.5729
 7264SOL    HW228822   0.536   0.566   2.911 -0.4994 -0.1296 -0.2981
 7264SOL    HW328823   0.557   0.418   2.934  0.5299  0.1226  0.4716
 7264SOL    MW428824   0.513   0.491   2.949  0.1498  1.3088  0.3925
 7265SOL     OW28825   1.829   1.867   6.193  0.4135 -0.6335 -0.0718
 7265SOL    HW228826   1.803   1.958   6.209  1.6170 -0.1789 -0.5915
 7265SOL    HW328827   1.779   1.841   6.115  1.1674  0.0941 -0.8226
 7265SOL    MW428828   1.819   1.875   6.185  0.4867  0.4255  0.4890
 7266SOL     OW28829   4.139   1.199   2.828 -0.0379 -0.0113 -0.2865
 7266SOL    HW228830   4.067   1.136   2.823  0.0941 -0.2657  0.8679
 7266SOL    HW328831   4.129   1.240   2.913  1.0858  0.0718 -0.1827
 7266SOL    MW428832   4.128   1.196   2.838  0.1614 -0.1072  0.1077
 7267SOL     OW28833   6.080   0.461   1.433  0.2982 -0.4340  0.1404
 7267SOL    HW228834   6.102   0.370   1.451 -0.3203 -0.6019  0.0416
 7267SOL    HW328835   6.014   0.484   1.498  2.2616  0.7287  1.8576
 7267SOL    MW428836   6.074   0.452   1.444 -0.0294 -0.0220 -0.4098
 7268SOL     OW28837   1.285   4.049   2.409  0.2797  0.2947 -0.0488
 7268SOL    HW228838   1.344   4.079   2.339  0.3604 -0.4631 -0.3093
 7268SOL    HW328839   1.247   3.969   2.375 -0.4978  0.4908  0.3467
 7268SOL    MW428840   1.288   4.043   2.395 -0.0032  0.3326 -0.0898
 7269SOL     OW28841   0.985   5.408   3.855 -0.4146 -0.5343  0.0320
 7269SOL    HW228842   1.067   5.457   3.859  0.0117 -1.1123 -1.1907
 7269SOL    HW328843   0.993   5.341   3.923  1.1493 -2.0738 -1.5907
 7269SOL    MW428844   0.997   5.406   3.865  0.2493  0.1290 -0.9887
 7270SOL     OW28845   2.233   3.211   0.528 -0.1449  0.2170  0.7412
 7270SOL    HW228846   2.274   3.245   0.607 -0.4940 -0.8041  1.3887
 7270SOL    HW328847   2.297   3.148   0.493  0.4072  1.3383 -0.3216
 7270SOL    MW428848   2.247   3.207   0.534 -0.1353 -0.9107  0.0432
 7271SOL     OW28849   3.515   0.392   6.233 -0.4139 -0.7868  0.2904
 7271SOL    HW228850   3.593   0.387   6.289  0.2675 -1.2634 -0.6695
 7271SOL    HW328851   3.493   0.485   6.232 -0.5182 -0.7779  1.4298
 7271SOL    MW428852   3.522   0.404   6.240  0.3111 -0.0195 -0.4708
 7272SOL     OW28853   0.282   2.320   1.380 -0.2403 -0.6307  0.3930
 7272SOL    HW228854   0.196   2.338   1.417 -0.8722 -1.3240 -0.6825
 7272SOL    HW328855   0.273   2.342   1.287  0.6350 -1.0741  0.1966
 7272SOL    MW428856   0.270   2.326   1.373 -0.5318 -0.0219  0.5022
 7273SOL     OW28857   1.853   0.816   2.647  0.4790 -0.4849 -0.0402
 7273SOL    HW228858   1.826   0.735   2.605  0.1007 -1.7471  2.4722
 7273SOL    HW328859   1.944   0.801   2.672  0.3764 -0.2030  0.5282
 7273SOL    MW428860   1.862   0.804   2.645  0.3227  0.1836  0.0702
 7274SOL     OW28861   6.346   0.269   3.456  0.1398 -0.6898  0.6900
 7274SOL    HW228862   6.274   0.275   3.393 -0.3046  0.8431  1.2993
 7274SOL    HW328863   6.423   0.301   3.407 -0.0325 -0.2978  0.6732
 7274SOL    MW428864   6.347   0.274   3.441  0.0065 -0.0110  0.1382
 7275SOL     OW28865   4.599   4.968   5.709 -0.0593 -0.0016 -0.1824
 7275SOL    HW228866   4.509   4.985   5.682 -0.3437  0.3210  0.8838
 7275SOL    HW328867   4.604   5.005   5.798  0.5247 -1.7742  0.5730
 7275SOL    MW428868   4.588   4.975   5.717  0.3181 -0.0450 -0.6745
 7276SOL     OW28869   1.116   4.540   2.615 -0.1582 -0.1268  0.2839
 7276SOL    HW228870   1.128   4.608   2.549 -0.3386 -0.4242 -0.0619
 7276SOL    HW328871   1.150   4.578   2.695 -1.0386  0.6901  0.2872
 7276SOL    MW428872   1.122   4.554   2.617 -0.0562 -0.2564 -0.1151
 7277SOL     OW28873   1.431   0.909   0.962 -0.2475  0.4186  0.5377
 7277SOL    HW228874   1.346   0.912   1.007  0.1873 -1.0173  1.5524
 7277SOL    HW328875   1.462   0.999   0.963 -2.1345  1.1190 -0.6296
 7277SOL    MW428876   1.424   0.921   0.968  0.0519  0.5147  0.1605
 7278SOL     OW28877   6.083   3.132   6.073 -0.0133  0.0428 -0.0198
 7278SOL    HW228878   5.990   3.122   6.093 -0.0320 -0.1447 -0.2051
 7278SOL    HW328879   6.100   3.068   6.004  0.8469 -1.7770  1.7901
 7278SOL    MW428880   6.073   3.123   6.067  0.4259 -0.0418  0.2617
 7279SOL     OW28881   1.110   1.839   0.819 -0.1917  0.2629  0.0341
 7279SOL    HW228882   1.104   1.745   0.798  1.9056 -0.3753  1.8714
 7279SOL    HW328883   1.059   1.849   0.899 -0.5703  0.7291 -0.2672
 7279SOL    MW428884   1.103   1.828   0.827 -0.4331 -0.3128 -0.1006
 7280SOL     OW28885   5.282   5.445   4.008  0.0715  0.2548  0.2959
 7280SOL    HW228886   5.273   5.353   3.983 -2.6936  0.2679  0.8890
 7280SOL    HW328887   5.370   5.451   4.044  0.3392 -2.1637  0.2324
 7280SOL    MW428888   5.292   5.433   4.010  0.0394  0.1382  0.4822
 7281SOL     OW28889   4.516   5.097   1.342 -0.0656  0.1890 -0.8063
 7281SOL    HW228890   4.533   5.008   1.372 -1.2958  0.4155  0.6790
 7281SOL    HW328891   4.517   5.150   1.422  1.7197  1.7286 -1.7492
 7281SOL    MW428892   4.519   5.092   1.356  0.5892  0.0829  0.5264
 7282SOL     OW28893   4.429   5.984   3.649 -0.0606  0.7623  0.4599
 7282SOL    HW228894   4.491   6.035   3.598  0.0461  0.0194 -0.1801
 7282SOL    HW328895   4.387   6.047   3.707  1.4491  1.2458  1.0673
 7282SOL    MW428896   4.432   5.999   3.650  0.5020  0.1126  0.1854
 7283SOL     OW28897   0.195   4.649   3.785 -0.2196  0.1818 -0.1507
 7283SOL    HW228898   0.231   4.619   3.868 -0.3035 -1.4453 -0.6655
 7283SOL    HW328899   0.227   4.586   3.720 -1.3673  0.5419 -1.1197
 7283SOL    MW428900   0.204   4.637   3.787 -0.2980  0.2192  0.3111
 7284SOL     OW28901   3.678   4.672   0.183 -1.0657  0.6775  0.1903
 7284SOL    HW228902   3.755   4.685   0.128 -0.6267 -0.2102  0.5703
 7284SOL    HW328903   3.605   4.699   0.128 -0.5960  0.2844 -0.6488
 7284SOL    MW428904   3.679   4.677   0.169  0.5461  0.1222  0.8567
 7285SOL     OW28905   5.087   3.170   2.976  0.1769  0.5300 -0.4171
 7285SOL    HW228906   5.168   3.146   3.022  0.4449 -0.6708 -1.4591
 7285SOL    HW328907   5.030   3.203   3.045  1.0037 -0.0652  0.5932
 7285SOL    MW428908   5.090   3.171   2.991  0.2452 -0.5246 -0.5528
 7286SOL     OW28909   4.481   0.001   3.239 -0.1150  0.2219 -0.0719
 7286SOL    HW228910   4.405  -0.051   3.211  0.2094 -1.0606  1.3280
 7286SOL    HW328911   4.450   0.049   3.316  0.1802  0.5619 -0.1612
 7286SOL    MW428912   4.467  -0.000   3.245 -0.1078  0.2511  0.1187
 7287SOL     OW28913   4.683   0.088   2.333  0.3265 -0.3211 -0.0743
 7287SOL    HW228914   4.669   0.021   2.399 -0.2276 -0.2303 -0.0931
 7287SOL    HW328915   4.767   0.066   2.294 -0.2144 -1.4782 -0.6322
 7287SOL    MW428916   4.692   0.076   2.336  0.0687  0.3818 -0.1196
 7288SOL     OW28917   5.342   6.133   5.361  0.2366 -0.0696  0.2546
 7288SOL    HW228918   5.357   6.176   5.276 -0.9385  0.5287  0.3216
 7288SOL    HW328919   5.265   6.078   5.346 -0.4479  0.6214  1.1101
 7288SOL    MW428920   5.334   6.132   5.348 -0.7227  0.3011  0.4459
 7289SOL     OW28921   4.774   5.384   1.368 -0.5158  0.1897  0.1770
 7289SOL    HW228922   4.761   5.449   1.438 -0.1660  0.0187  0.4021
 7289SOL    HW328923   4.716   5.413   1.298  1.6674  2.3675 -0.8797
 7289SOL    MW428924   4.764   5.397   1.368 -0.1826  0.1121 -0.3956
 7290SOL     OW28925   1.767   2.500   1.458  0.3773  0.0232  0.2231
 7290SOL    HW228926   1.735   2.437   1.523 -1.7541  1.7619  0.9887
 7290SOL    HW328927   1.851   2.529   1.493  0.0010 -0.2282  1.4001
 7290SOL    MW428928   1.774   2.495   1.471 -0.0598 -0.0878 -0.3631
 7291SOL     OW28929   3.947   5.987   1.520 -0.1552  0.1969  0.0282
 7291SOL    HW228930   3.890   5.912   1.539 -2.0018  1.0303 -1.8086
 7291SOL    HW328931   3.943   6.041   1.599 -1.5534 -0.0222  0.1361
 7291SOL    MW428932   3.939   5.984   1.533 -0.0470  0.4642 -0.2735
 7292SOL     OW28933   1.375   4.006   0.240 -0.5540  0.6115  0.5238
 7292SOL    HW228934   1.353   3.941   0.173  3.2060  0.3695 -0.7127
 7292SOL    HW328935   1.416   3.955   0.310 -1.0904  1.2843  1.3473
 7292SOL    MW428936   1.377   3.991   0.240  0.1316 -0.0820 -0.3569
 7293SOL     OW28937   1.726   4.403   2.981  0.5650  0.1784 -0.2441
 7293SOL    HW228938   1.694   4.313   2.979  0.6942  0.1389 -0.8712
 7293SOL    HW328939   1.723   4.431   2.889  0.9386  0.6649 -0.1107
 7293SOL    MW428940   1.721   4.395   2.969  0.1055  0.1365 -0.3181
 7294SOL     OW28941   0.473   6.415   5.026 -0.2406  0.5817 -0.6429
 7294SOL    HW228942   0.524   6.495   5.039 -0.4489  0.2832  2.7603
 7294SOL    HW328943   0.538   6.345   5.018 -0.0097  0.5039  1.4165
 7294SOL    MW428944   0.488   6.416   5.027 -0.3778  0.3101 -0.2831
 7295SOL     OW28945   6.047   2.644   5.881  0.2910 -0.1350  0.3061
 7295SOL    HW228946   6.049   2.604   5.794  1.3165  0.0927  0.2153
 7295SOL    HW328947   5.953   2.656   5.899  0.0749  0.7558 -1.1844
 7295SOL    MW428948   6.035   2.640   5.872  0.3349  0.1063  0.0440
 7296SOL     OW28949   1.159   4.185   2.862  0.6257 -0.3695 -0.2343
 7296SOL    HW228950   1.245   4.157   2.829  1.7453  2.1351  0.3177
 7296SOL    HW328951   1.168   4.182   2.957  0.8088  1.7109 -0.1462
 7296SOL    MW428952   1.172   4.181   2.870 -0.1538  0.2162 -0.4279
 7297SOL     OW28953   2.943   0.424   0.293 -0.5668  0.5662 -0.5558
 7297SOL    HW228954   3.032   0.416   0.259 -0.7195 -0.7431 -0.6746
 7297SOL    HW328955   2.951   0.487   0.365  0.8226 -0.8930  0.6426
 7297SOL    MW428956   2.956   0.432   0.298  0.4519 -0.4869 -0.2395
 7298SOL     OW28957   4.417   2.775   4.340  0.2006 -0.0281 -0.3376
 7298SOL    HW228958   4.495   2.820   4.371  1.9195 -2.1131 -1.4312
 7298SOL    HW328959   4.383   2.832   4.271  0.8807  0.7672 -0.0380
 7298SOL    MW428960   4.423   2.788   4.335 -0.2072 -0.2524  0.5987
 7299SOL     OW28961   5.753   0.327   4.380 -0.3875 -0.1195 -0.2919
 7299SOL    HW228962   5.727   0.247   4.425 -0.4628  0.1163  0.0815
 7299SOL    HW328963   5.845   0.313   4.357 -0.0362  0.1774  0.8571
 7299SOL    MW428964   5.762   0.315   4.383  0.0902 -0.1623  0.1122
 7300SOL     OW28965   0.497   5.383   6.158  0.0953 -0.2799  0.2002
 7300SOL    HW228966   0.568   5.427   6.112  0.0189  0.0218  0.3628
 7300SOL    HW328967   0.444   5.454   6.193 -0.3964 -0.5052 -0.0879
 7300SOL    MW428968   0.500   5.398   6.157  0.1356  0.2285  0.0631
 7301SOL     OW28969   1.036   2.774   3.766  0.0088 -0.3729 -0.2918
 7301SOL    HW228970   1.026   2.679   3.763 -0.5635 -0.2856 -1.5312
 7301SOL    HW328971   1.023   2.803   3.676 -1.7100  1.0647  0.3611
 7301SOL    MW428972   1.033   2.766   3.754 -0.2848  0.0783 -0.2271
 7302SOL     OW28973   3.747   4.939   2.533  0.2487  0.2589  0.5326
 7302SOL    HW228974   3.663   4.972   2.499  2.6140  2.5829 -4.0041
 7302SOL    HW328975   3.739   4.844   2.529 -1.4655  0.4029 -2.2142
 7302SOL    MW428976   3.735   4.931   2.528 -0.1829  0.1629  0.1805
 7303SOL     OW28977   3.359   4.252   1.211 -0.4496 -0.0857 -0.0341
 7303SOL    HW228978   3.365   4.347   1.203 -0.4828 -0.1734 -1.1599
 7303SOL    HW328979   3.266   4.232   1.200 -0.3298 -0.3222 -0.6074
 7303SOL    MW428980   3.348   4.262   1.209  0.2027 -0.3153 -0.4796
 7304SOL     OW28981   2.539   0.064   5.755 -0.0524  0.3781  0.4706
 7304SOL    HW228982   2.525   0.063   5.850  0.1276  1.4140  0.5216
 7304SOL    HW328983   2.631   0.092   5.745 -0.5835  2.0817 -0.0223
 7304SOL    MW428984   2.550   0.068   5.767 -0.8317  0.4411  0.1362
 7305SOL     OW28985   1.735   5.583   1.718 -0.2630  0.6728 -0.0011
 7305SOL    HW228986   1.754   5.663   1.669  1.4329  0.8945  0.9287
 7305SOL    HW328987   1.740   5.609   1.810  1.3570 -0.6736  0.3433
 7305SOL    MW428988   1.738   5.597   1.724  0.4310 -0.2076  0.2276
 7306SOL     OW28989   4.527   5.254   4.434 -0.2463 -0.0779 -0.3596
 7306SOL    HW228990   4.496   5.214   4.516 -0.9748 -0.2340 -0.7035
 7306SOL    HW328991   4.506   5.189   4.367 -2.1888  1.1733 -1.0422
 7306SOL    MW428992   4.520   5.240   4.436  0.0532  0.1403 -0.4536
 7307SOL     OW28993   5.960   1.317   5.798 -0.1656  0.7031 -0.5669
 7307SOL    HW228994   5.926   1.367   5.872 -3.1143 -1.4090 -0.3021
 7307SOL    HW328995   6.002   1.241   5.838 -0.7340  0.1490 -1.0043
 7307SOL    MW428996   5.961   1.314   5.813 -0.1390 -0.3554  0.3644
 7308SOL     OW28997   2.791   4.615   2.407 -0.6118 -0.1237 -0.6461
 7308SOL    HW228998   2.764   4.547   2.345 -0.4544  1.1393 -2.1397
 7308SOL    HW328999   2.721   4.681   2.402 -1.3969 -0.6803  1.6951
 7308SOL    MW429000   2.778   4.615   2.398  0.2500 -0.1191 -0.5104
 7309SOL     OW29001   2.531   3.871   1.327  0.5418 -0.5204 -0.0556
 7309SOL    HW229002   2.537   3.789   1.374  1.5672 -0.1255  0.5405
 7309SOL    HW329003   2.622   3.895   1.309  0.3050  0.8343  0.4282
 7309SOL    MW429004   2.544   3.864   1.331  0.0916  0.3307  0.7370
 7310SOL     OW29005   1.606   0.850   5.928 -0.1809 -0.1337 -0.1664
 7310SOL    HW229006   1.676   0.882   5.871  0.0967  0.5416  0.5303
 7310SOL    HW329007   1.539   0.917   5.923  0.1086  0.2390  0.7689
 7310SOL    MW429008   1.607   0.863   5.920 -0.2676  0.3546 -0.3579
 7311SOL     OW29009   1.819   2.630   2.111  0.1966 -0.2017  0.2744
 7311SOL    HW229010   1.866   2.668   2.036  0.6438 -0.4718  0.4137
 7311SOL    HW329011   1.740   2.592   2.072 -0.0923  0.5698  0.0876
 7311SOL    MW429012   1.815   2.630   2.096  0.1115  0.0940  0.4021
 7312SOL     OW29013   3.548   3.286   2.121 -0.4108 -0.1575  0.1021
 7312SOL    HW229014   3.465   3.332   2.112  0.7039  2.2308  0.9670
 7312SOL    HW329015   3.536   3.230   2.198 -1.5280 -0.6547 -0.4166
 7312SOL    MW429016   3.536   3.285   2.130  0.1854 -0.0023  0.6575
 7313SOL     OW29017   2.653   5.394   1.849 -0.0900  0.5106 -0.4979
 7313SOL    HW229018   2.742   5.399   1.882  0.0304  0.1757 -0.7666
 7313SOL    HW329019   2.626   5.303   1.864  0.1906  0.1817 -1.8656
 7313SOL    MW429020   2.661   5.383   1.855 -0.2614 -0.5535  0.1944
 7314SOL     OW29021   3.517   0.438   4.695  0.0215 -0.2573 -0.2915
 7314SOL    HW229022   3.433   0.412   4.734  0.1090 -0.6000 -0.3297
 7314SOL    HW329023   3.493   0.508   4.633  0.0265  1.1492  1.2212
 7314SOL    MW429024   3.503   0.444   4.692 -0.2052  0.0841 -0.3502
 7315SOL     OW29025   2.345   0.567   4.760 -0.6415  0.1657 -0.1035
 7315SOL    HW229026   2.307   0.645   4.802 -1.3089 -0.9045  1.3484
 7315SOL    HW329027   2.411   0.537   4.823  0.0213 -0.1295 -0.9272
 7315SOL    MW429028   2.349   0.574   4.774  0.2140  0.2018  0.0723
 7316SOL     OW29029   4.852   4.343   3.804  0.2173  0.0075 -0.4928
 7316SOL    HW229030   4.777   4.296   3.842  0.5766 -0.0128  0.1997
 7316SOL    HW329031   4.813   4.397   3.735 -0.3075 -0.7157 -0.7809
 7316SOL    MW429032   4.837   4.344   3.800 -0.2055  0.0885  0.8723
 7317SOL     OW29033   1.336   5.097   0.289  0.1298  0.1177 -0.0142
 7317SOL    HW229034   1.276   5.068   0.358  0.4716 -1.6207 -0.4099
 7317SOL    HW329035   1.329   5.193   0.291 -1.1604  0.0428  1.2642
 7317SOL    MW429036   1.327   5.106   0.299 -0.7970  0.5336 -0.3194
 7318SOL     OW29037   2.617   3.894   6.159  0.2348 -0.5492  0.2034
 7318SOL    HW229038   2.551   3.828   6.137 -0.2797  0.3309 -0.9844
 7318SOL    HW329039   2.567   3.964   6.202  1.1245 -1.9620  3.9278
 7318SOL    MW429040   2.601   3.894   6.162  0.0025 -0.4912 -0.3040
 7319SOL     OW29041   0.097   5.151   1.020  0.1034  0.4171 -0.4125
 7319SOL    HW229042   0.114   5.057   1.024 -1.3270 -0.0404 -2.9881
 7319SOL    HW329043   0.153   5.183   0.949 -0.8027  1.1342 -0.8272
 7319SOL    MW429044   0.107   5.143   1.011 -0.3564 -1.2105 -0.1681
 7320SOL     OW29045   0.030   4.801   1.541 -0.2740 -0.2421 -0.4422
 7320SOL    HW229046   0.091   4.859   1.497  1.0298 -2.9519 -2.5173
 7320SOL    HW329047   0.084   4.753   1.604 -0.6082 -1.3102 -0.9382
 7320SOL    MW429048   0.045   4.802   1.544  0.0269  0.4588  0.3578
 7321SOL     OW29049   1.539   2.520   0.056 -0.0210 -0.3690  0.2051
 7321SOL    HW229050   1.470   2.456   0.075  0.6751 -0.7913  1.3978
 7321SOL    HW329051   1.497   2.605   0.071 -0.1734 -0.6344  1.3727
 7321SOL    MW429052   1.524   2.523   0.061  0.5614 -0.0710 -0.6756
 7322SOL     OW29053   1.270   0.378   4.003  0.0210  0.1748 -0.4839
 7322SOL    HW229054   1.313   0.345   3.924  0.9845  3.0850 -1.3195
 7322SOL    HW329055   1.284   0.309   4.068 -0.3311 -2.0897 -2.6407
 7322SOL    MW429056   1.278   0.364   4.001  0.0624 -0.0557  0.3182
 7323SOL     OW29057   3.529   4.371   4.829 -0.6138  0.0142 -0.1855
 7323SOL    HW229058   3.441   4.386   4.795 -0.8530  0.7876  0.7310
 7323SOL    HW329059   3.516   4.358   4.924  0.3526  1.1978  0.1278
 7323SOL    MW429060   3.515   4.371   4.837  0.7644 -0.0984  0.2583
 7324SOL     OW29061   3.802   1.289   4.417  0.0774 -0.1405  0.3162
 7324SOL    HW229062   3.786   1.195   4.429 -0.2856 -0.1731 -0.3473
 7324SOL    HW329063   3.847   1.316   4.497  0.6097 -0.9789  0.3162
 7324SOL    MW429064   3.806   1.280   4.429  0.0418  0.4798  0.5443
 7325SOL     OW29065   2.809   5.302   1.319  0.0652 -0.2301 -0.4431
 7325SOL    HW229066   2.847   5.386   1.293  2.4476 -0.7448  1.0924
 7325SOL    HW329067   2.814   5.248   1.241  1.5905  0.0537 -0.5611
 7325SOL    MW429068   2.815   5.306   1.306  0.1595 -0.0576 -0.4449
 7326SOL     OW29069   5.328   4.031   3.778  0.1808 -0.5115 -0.4931
 7326SOL    HW229070   5.295   4.078   3.855  1.3049 -0.4751 -0.0152
 7326SOL    HW329071   5.297   4.083   3.704  1.3789  1.0337  0.0194
 7326SOL    MW429072   5.319   4.044   3.779 -0.1291 -0.0577 -0.3563
 7327SOL     OW29073   1.413   0.553   0.388 -0.1633 -0.1101  0.9179
 7327SOL    HW229074   1.351   0.590   0.449 -1.3981  0.0121 -0.3607
 7327SOL    HW329075   1.429   0.622   0.324  0.3263 -0.5535  0.5446
 7327SOL    MW429076   1.407   0.567   0.388  0.3336 -0.3205  0.1723
 7328SOL     OW29077   0.782   1.227   4.319 -0.0596  0.5239 -0.0276
 7328SOL    HW229078   0.780   1.201   4.411  1.2318 -2.0228 -0.6302
 7328SOL    HW329079   0.819   1.315   4.320 -0.2847  0.6419  1.8758
 7328SOL    MW429080   0.786   1.235   4.331  0.1935  0.1657 -0.0517
 7329SOL     OW29081   1.352   1.815   0.655 -0.4102 -0.1838  0.2879
 7329SOL    HW229082   1.322   1.841   0.742 -1.9609 -1.0329  0.0432
 7329SOL    HW329083   1.432   1.765   0.670 -1.3673 -1.4646  1.3696
 7329SOL    MW429084   1.359   1.812   0.668 -0.1899 -0.1549 -0.1659
 7330SOL     OW29085   6.384   2.364   3.315  0.2297  0.2256 -0.4840
 7330SOL    HW229086   6.391   2.292   3.253  0.3034  0.7073 -1.0358
 7330SOL    HW329087   6.321   2.424   3.276  0.0142  0.3674  0.0696
 7330SOL    MW429088   6.377   2.362   3.302  0.7760  0.2145  0.0487
 7331SOL     OW29089   3.634   3.709   3.706  0.5937  0.4263  0.4802
 7331SOL    HW229090   3.630   3.614   3.696 -1.3655  0.3937  0.9821
 7331SOL    HW329091   3.627   3.744   3.617 -0.4468  0.0842  0.4149
 7331SOL    MW429092   3.632   3.701   3.693  0.0276  0.0753 -0.7264
 7332SOL     OW29093   4.340   6.009   2.745 -0.0756 -0.7574 -0.6232
 7332SOL    HW229094   4.300   6.034   2.829  0.3726 -0.3837 -0.5132
 7332SOL    HW329095   4.418   5.959   2.769  0.4644 -0.0149 -0.7957
 7332SOL    MW429096   4.345   6.006   2.759 -0.6445  0.4986 -0.1034
 7333SOL     OW29097   5.568   1.124   4.547 -0.3743  0.1740 -0.2317
 7333SOL    HW229098   5.635   1.171   4.497  0.4947  0.0424  0.7667
 7333SOL    HW329099   5.596   1.032   4.544 -0.8516  0.0260 -0.3137
 7333SOL    MW429100   5.581   1.118   4.540  0.2067 -0.1142 -0.1522
 7334SOL     OW29101   3.737   3.439   2.249  0.2355  0.0935 -0.5840
 7334SOL    HW229102   3.756   3.378   2.320 -1.7652  1.1613  0.9508
 7334SOL    HW329103   3.666   3.397   2.200 -0.4360  0.6942 -0.1408
 7334SOL    MW429104   3.730   3.425   2.252 -0.2584  0.1285 -0.2055
 7335SOL     OW29105   4.909   5.713   2.790  0.3757  0.1734 -0.1074
 7335SOL    HW229106   4.904   5.679   2.701 -1.1843  0.8398 -0.3022
 7335SOL    HW329107   4.992   5.760   2.793  0.7213 -0.3567 -1.0178
 7335SOL    MW429108   4.919   5.715   2.778 -0.0607 -0.6378 -0.1363
 7336SOL     OW29109   5.605   3.271   1.420 -0.5144  0.2415 -0.0959
 7336SOL    HW229110   5.531   3.327   1.398 -0.5469  0.3425  0.2629
 7336SOL    HW329111   5.583   3.235   1.506 -0.8676 -0.9600 -0.6607
 7336SOL    MW429112   5.592   3.274   1.428 -0.0865  0.3909 -0.1596
 7337SOL     OW29113   1.037   4.774   3.690 -0.4024 -0.9927  0.3375
 7337SOL    HW229114   1.102   4.824   3.740  0.1684 -1.6735  0.3065
 7337SOL    HW329115   1.022   4.825   3.611 -1.2829  0.0789  1.1700
 7337SOL    MW429116   1.044   4.787   3.686  0.2356  0.1626 -0.0283
 7338SOL     OW29117   6.371   4.792   6.263 -0.2467 -0.7903 -0.0204
 7338SOL    HW229118   6.438   4.855   6.237  0.3429 -1.3625  0.0795
 7338SOL    HW329119   6.292   4.819   6.216  0.0535 -0.1037 -0.1340
 7338SOL    MW429120   6.369   4.804   6.253 -0.6081 -0.2213 -0.4055
 7339SOL     OW29121   0.585   0.105   4.655 -0.1421 -0.0322  0.2540
 7339SOL    HW229122   0.595   0.198   4.678  0.9552 -0.2617  0.7855
 7339SOL    HW329123   0.506   0.077   4.701  1.1384 -0.0804  2.5695
 7339SOL    MW429124   0.576   0.114   4.664  0.3000  0.7125 -0.5259
 7340SOL     OW29125   6.109   5.624   3.976 -0.0160 -0.0424 -0.0175
 7340SOL    HW229126   6.102   5.649   4.069  1.7194 -0.0841  0.1552
 7340SOL    HW329127   6.162   5.693   3.937 -0.2952 -0.3113 -0.8763
 7340SOL    MW429128   6.115   5.636   3.983  0.0508  0.0382 -0.5800
 7341SOL     OW29129   4.192   3.597   1.309 -0.3640  0.3596 -0.6254
 7341SOL    HW229130   4.140   3.565   1.382 -0.2051 -0.8779 -1.0332
 7341SOL    HW329131   4.238   3.519   1.276  2.2425  1.4772  0.1093
 7341SOL    MW429132   4.191   3.582   1.314 -0.1614 -0.0274  0.0994
 7342SOL     OW29133   1.185   2.253   5.939 -0.0384  0.7197 -0.6580
 7342SOL    HW229134   1.168   2.330   5.993  0.2010  1.1783 -1.2298
 7342SOL    HW329135   1.119   2.256   5.870 -1.6590 -0.9627  0.7022
 7342SOL    MW429136   1.174   2.263   5.937 -0.3493  0.0571  0.9147
 7343SOL     OW29137   6.066   0.203   0.278  0.1838  0.0446 -0.1220
 7343SOL    HW229138   6.149   0.210   0.324  0.3106 -1.0885 -0.1280
 7343SOL    HW329139   6.009   0.154   0.338  0.0523 -0.6113 -0.7623
 7343SOL    MW429140   6.069   0.197   0.292  0.5796  0.3355 -0.3119
 7344SOL     OW29141   2.514   5.796   4.749  0.2356 -0.5637 -0.6434
 7344SOL    HW229142   2.530   5.708   4.782 -0.5731 -0.2261  0.7330
 7344SOL    HW329143   2.517   5.852   4.826  1.3133  0.7292 -1.5651
 7344SOL    MW429144   2.516   5.791   4.763  0.3790  0.0936 -0.2422
 7345SOL     OW29145   4.900   6.334   6.253 -0.1934 -0.4556  0.2553
 7345SOL    HW229146   4.902   6.269   6.324  0.2254  0.1457  0.8072
 7345SOL    HW329147   4.974   6.311   6.197  0.1366 -0.2830  0.6136
 7345SOL    MW429148   4.910   6.323   6.255 -0.0895 -0.3111 -0.4803
 7346SOL     OW29149   4.872   2.594   0.347  0.3920 -0.0800 -0.3743
 7346SOL    HW229150   4.936   2.524   0.338  0.0972 -0.7277  1.8663
 7346SOL    HW329151   4.860   2.628   0.258  1.5138 -1.9887 -1.3101
 7346SOL    MW429152   4.879   2.589   0.334 -0.0839  0.4912  0.0493
 7347SOL     OW29153   3.614   4.383   4.133  0.4934  0.3355 -0.2685
 7347SOL    HW229154   3.574   4.309   4.086 -1.1618  1.1782 -0.2824
 7347SOL    HW329155   3.674   4.422   4.069 -0.9412  0.8333 -1.3782
 7347SOL    MW429156   3.616   4.378   4.118  0.0968  0.8040 -0.2825
 7348SOL     OW29157   5.168   3.206   1.777 -0.3857 -0.6724  0.2874
 7348SOL    HW229158   5.126   3.122   1.796  2.0163 -1.8587  0.7707
 7348SOL    HW329159   5.209   3.194   1.692 -0.5107  0.2427  0.0868
 7348SOL    MW429160   5.168   3.193   1.769 -0.8821 -0.3109 -0.0708
 7349SOL     OW29161   3.261   1.209   1.138 -0.0178 -1.1422  0.4020
 7349SOL    HW229162   3.215   1.269   1.079  0.5460 -0.5134  0.5910
 7349SOL    HW329163   3.197   1.191   1.208 -0.3732 -1.1795  0.0719
 7349SOL    MW429164   3.246   1.215   1.140 -0.0539  0.0468 -0.2860
 7350SOL     OW29165   0.646   1.088   2.012  0.4189 -0.4179  0.3671
 7350SOL    HW229166   0.583   1.019   2.037 -0.1649 -0.3187 -0.7674
 7350SOL    HW329167   0.728   1.041   1.996  0.5201 -0.6117  1.3925
 7350SOL    MW429168   0.648   1.072   2.013  0.3768 -0.7569  0.4432
 7351SOL     OW29169   1.660   3.510   3.918 -0.1964  0.0845 -0.1738
 7351SOL    HW229170   1.661   3.461   3.836 -1.7042 -1.2905  0.5634
 7351SOL    HW329171   1.663   3.443   3.986  1.9637  1.2286  0.9501
 7351SOL    MW429172   1.661   3.495   3.916 -0.4936 -0.1955  0.6518
 7352SOL     OW29173   4.844   1.157   2.420  0.2521  0.8055  0.3613
 7352SOL    HW229174   4.854   1.081   2.362  0.7795  1.2636 -0.1662
 7352SOL    HW329175   4.753   1.154   2.449  0.1729  0.1757  0.0596
 7352SOL    MW429176   4.833   1.147   2.416  0.0190 -0.0915  1.1677
 7353SOL     OW29177   2.708   2.739   0.407  0.1163 -0.1888  0.4179
 7353SOL    HW229178   2.694   2.761   0.315 -1.4416  1.7137  1.0272
 7353SOL    HW329179   2.672   2.651   0.417  0.0331 -0.2919 -0.7222
 7353SOL    MW429180   2.701   2.730   0.396  0.4637 -0.3517 -0.2280
 7354SOL     OW29181   3.582   6.346   3.099 -0.0690 -0.0703  0.3660
 7354SOL    HW229182   3.636   6.299   3.036  1.3481  0.4663  1.1409
 7354SOL    HW329183   3.575   6.287   3.174  0.2465  0.2477  0.6469
 7354SOL    MW429184   3.588   6.332   3.101 -0.4527 -0.2752  0.0467
 7355SOL     OW29185   5.998   4.029   0.470 -0.4502  0.6764 -0.3662
 7355SOL    HW229186   6.089   4.059   0.466 -0.0447 -0.4919 -0.4002
 7355SOL    HW329187   5.966   4.061   0.554  0.2248  0.4848 -0.0302
 7355SOL    MW429188   6.006   4.037   0.481 -0.0247  0.2752 -0.1597
 7356SOL     OW29189   1.949   4.042   3.728  0.3261  0.6015 -0.4262
 7356SOL    HW229190   1.958   4.074   3.817  0.2767 -0.2909 -0.0946
 7356SOL    HW329191   1.989   3.955   3.729 -0.4018  0.2503 -1.0765
 7356SOL    MW429192   1.956   4.035   3.740  0.3959  0.0459  0.6139
 7357SOL     OW29193   5.140   4.065   1.521  0.2848 -0.0901  0.1622
 7357SOL    HW229194   5.078   3.998   1.550  0.0704  0.6843  1.5993
 7357SOL    HW329195   5.221   4.043   1.565  0.5428 -0.0609 -0.2904
 7357SOL    MW429196   5.142   4.053   1.530 -0.1594 -0.2316  0.2550
 7358SOL     OW29197   5.365   0.550   3.175  0.0621 -0.2156  0.0034
 7358SOL    HW229198   5.354   0.462   3.211  0.4824 -1.0299 -1.7476
 7358SOL    HW329199   5.280   0.570   3.136 -0.8429  1.2355  2.5126
 7358SOL    MW429200   5.352   0.541   3.175  0.3093  0.4452 -0.1964
 7359SOL     OW29201   2.407   4.554   1.874 -0.0514  0.0489  0.3499
 7359SOL    HW229202   2.332   4.512   1.917 -0.4834 -0.5848 -0.9801
 7359SOL    HW329203   2.435   4.621   1.937 -0.7260 -0.7575  1.5663
 7359SOL    MW429204   2.401   4.557   1.888 -0.1112 -0.1336  0.0399
 7360SOL     OW29205   0.579   3.978   5.389  0.8912  0.7323 -0.0312
 7360SOL    HW229206   0.617   4.055   5.347 -0.9534  0.3140 -2.7589
 7360SOL    HW329207   0.490   4.004   5.412  0.3931 -0.3996 -0.5771
 7360SOL    MW429208   0.572   3.991   5.386  0.3374 -0.2413  0.3588
 7361SOL     OW29209   4.841   5.081   0.730 -0.0119  0.2692 -0.0811
 7361SOL    HW229210   4.761   5.037   0.757 -0.1799 -0.6247 -1.8993
 7361SOL    HW329211   4.852   5.152   0.794 -0.9171 -1.0485  1.6269
 7361SOL    MW429212   4.832   5.085   0.742 -0.7564 -0.1806 -0.1437
 7362SOL     OW29213   4.577   4.162   1.020 -0.3362  0.4457 -0.5539
 7362SOL    HW229214   4.507   4.196   0.964  0.9791  4.8934  0.0682
 7362SOL    HW329215   4.658   4.181   0.972  0.6170  0.0724  0.8286
 7362SOL    MW429216   4.579   4.169   1.007 -0.5642  0.0760 -0.2075
 7363SOL     OW29217   0.475   4.533   6.136  0.0722 -0.2023  0.4233
 7363SOL    HW229218   0.391   4.498   6.106 -0.7018  1.7306  0.2116
 7363SOL    HW329219   0.454   4.584   6.214  1.2584 -0.7562  1.1317
 7363SOL    MW429220   0.461   4.535   6.142  0.2783  0.0828  0.0125
 7364SOL     OW29221   4.764   0.255   4.399 -0.2744  0.3926 -0.5646
 7364SOL    HW229222   4.805   0.293   4.477 -3.4177  0.9924  0.9684
 7364SOL    HW329223   4.778   0.161   4.409  2.4604  0.6121 -1.3007
 7364SOL    MW429224   4.772   0.248   4.411 -0.5706 -0.3392 -0.7385
 7365SOL     OW29225   2.919   2.264   2.041 -0.0315 -0.2943  0.5218
 7365SOL    HW229226   3.015   2.262   2.036  0.0695  1.7023  0.8395
 7365SOL    HW329227   2.895   2.176   2.070  1.8702 -0.1345  2.9248
 7365SOL    MW429228   2.929   2.252   2.044  0.0547 -0.1628  0.4308
 7366SOL     OW29229   3.802   5.799   1.652  0.0322  0.1150 -0.1669
 7366SOL    HW229230   3.781   5.711   1.620  1.6741  0.1790 -1.5895
 7366SOL    HW329231   3.721   5.849   1.641 -0.5925 -0.9323 -0.4198
 7366SOL    MW429232   3.789   5.794   1.646  0.2049  0.0587  0.4188
 7367SOL     OW29233   3.030   1.978   6.292 -0.4833  0.0812 -0.5622
 7367SOL    HW229234   3.124   1.958   6.293 -0.7811 -1.4756  1.0091
 7367SOL    HW329235   3.007   1.979   6.199  0.9347 -0.2468 -0.9563
 7367SOL    MW429236   3.040   1.976   6.280  0.4016 -0.1266 -0.2533
 7368SOL     OW29237   4.322   3.866   4.171  0.5634  0.0304  0.5804
 7368SOL    HW229238   4.358   3.929   4.109  0.2731  0.1932  0.5752
 7368SOL    HW329239   4.252   3.913   4.216  0.0624 -0.4174  0.2810
 7368SOL    MW429240   4.317   3.880   4.169 -0.4162 -0.2520 -0.3063
 7369SOL     OW29241   4.630   3.576   5.211  0.1491 -0.1095 -0.0110
 7369SOL    HW229242   4.632   3.624   5.128 -3.2967 -1.1895 -0.8753
 7369SOL    HW329243   4.588   3.493   5.189  1.1947 -1.3743  2.4450
 7369SOL    MW429244   4.625   3.572   5.197 -0.1504  0.4422 -0.0384
 7370SOL     OW29245   3.883   0.819   2.166  0.3603 -0.1109 -0.1151
 7370SOL    HW229246   3.869   0.725   2.150 -1.6552 -0.0131  0.7835
 7370SOL    HW329247   3.852   0.833   2.255  2.6983  1.0577  0.6013
 7370SOL    MW429248   3.877   0.808   2.176 -0.6354  0.0702 -0.0875
 7371SOL     OW29249   1.367   4.922   4.610 -0.0158 -0.4855 -0.4320
 7371SOL    HW229250   1.399   4.868   4.538 -1.9974 -0.5389 -1.3625
 7371SOL    HW329251   1.380   4.869   4.688 -0.1149 -1.4863 -1.0789
 7371SOL    MW429252   1.373   4.908   4.611 -0.4217  0.3341  0.0744
 7372SOL     OW29253   0.609   4.467   0.152  0.5986 -0.0015 -0.0619
 7372SOL    HW229254   0.649   4.381   0.157 -1.3278 -0.9157  0.6657
 7372SOL    HW329255   0.683   4.528   0.149  2.0275 -1.5751  1.2772
 7372SOL    MW429256   0.624   4.464   0.152 -0.1388  0.3378  0.2736
 7373SOL     OW29257   1.493   2.687   2.251 -0.0114 -0.1856 -0.1177
 7373SOL    HW229258   1.455   2.617   2.304 -0.0780 -0.1826 -0.1610
 7373SOL    HW329259   1.418   2.739   2.222  0.1066  0.5096  0.7612
 7373SOL    MW429260   1.478   2.685   2.254  0.2145 -0.1195  0.1384
 7374SOL     OW29261   5.396   4.592   3.785  0.1188 -0.0603 -0.2099
 7374SOL    HW229262   5.403   4.616   3.692 -0.1746  1.4496  0.1411
 7374SOL    HW329263   5.303   4.582   3.801  0.0764  0.8596  0.1890
 7374SOL    MW429264   5.385   4.594   3.775  0.0746  0.0154 -0.1741
 7375SOL     OW29265   5.517   1.867   0.218 -0.0753 -0.0743  0.5181
 7375SOL    HW229266   5.597   1.815   0.210 -1.5071 -2.2045 -1.0588
 7375SOL    HW329267   5.483   1.845   0.305 -1.7425 -3.6828 -0.8416
 7375SOL    MW429268   5.523   1.857   0.228 -0.1614  0.5607 -0.1029
 7376SOL     OW29269   3.984   3.037   4.631  0.1359 -0.2140 -0.2769
 7376SOL    HW229270   4.058   2.987   4.596  1.0490  0.3360  0.7674
 7376SOL    HW329271   4.014   3.128   4.630 -0.3262 -0.0337  0.6140
 7376SOL    MW429272   3.998   3.042   4.626 -0.6254 -0.0979  0.6935
 7377SOL     OW29273   0.748   0.443   3.961 -0.4590 -0.3622  0.1042
 7377SOL    HW229274   0.695   0.371   3.995 -0.2277 -1.0533 -0.9290
 7377SOL    HW329275   0.836   0.426   3.995 -0.8401  0.7343  1.7439
 7377SOL    MW429276   0.753   0.431   3.970 -0.2679 -0.1042 -0.5801
 7378SOL     OW29277   2.163   3.684   1.138  0.3217  0.4840  0.2240
 7378SOL    HW229278   2.239   3.636   1.105  1.1784  2.1225 -0.3107
 7378SOL    HW329279   2.142   3.747   1.069 -3.4234 -1.7870 -0.9824
 7378SOL    MW429280   2.170   3.686   1.125 -0.4206 -0.2529  0.0552
 7379SOL     OW29281   0.342   1.576   0.365 -0.7704 -0.1618 -0.5044
 7379SOL    HW229282   0.406   1.593   0.435 -0.7293 -1.8440 -0.1012
 7379SOL    HW329283   0.384   1.608   0.286 -0.7785  1.7058  0.1983
 7379SOL    MW429284   0.356   1.583   0.364 -0.5505 -0.1171  0.1423
 7380SOL     OW29285   3.658   6.412   0.369 -0.1626 -0.3028 -0.2168
 7380SOL    HW229286   3.735   6.357   0.380 -0.4202 -0.4503  0.9490
 7380SOL    HW329287   3.591   6.372   0.425  0.1028  2.0017  1.9363
 7380SOL    MW429288   3.660   6.400   0.378  0.4275 -0.1975  0.0513
 7381SOL     OW29289   0.843   0.331   4.916  0.3119  0.0835 -0.0179
 7381SOL    HW229290   0.874   0.283   4.840  1.6035 -0.9889  1.1278
 7381SOL    HW329291   0.917   0.385   4.942 -0.0274  0.2542  0.6127
 7381SOL    MW429292   0.857   0.332   4.909 -0.8072  0.1128 -0.2549
 7382SOL     OW29293   4.464   3.310   4.889 -0.3187  0.2164 -0.0308
 7382SOL    HW229294   4.475   3.385   4.830  0.0201  2.2578  2.4342
 7382SOL    HW329295   4.377   3.323   4.927  0.5996  0.6850  2.0607
 7382SOL    MW429296   4.454   3.322   4.886 -0.3364 -0.7673  0.1875
 7383SOL     OW29297   2.877   1.966   4.294  0.4430 -0.2005 -0.2902
 7383SOL    HW229298   2.903   1.984   4.203  1.6092  2.1683  0.4353
 7383SOL    HW329299   2.910   1.878   4.310 -1.0188 -1.2757 -2.5385
 7383SOL    MW429300   2.885   1.957   4.284  0.3372 -0.5597  0.4499
 7384SOL     OW29301   5.226   4.350   4.472 -0.3459 -0.5845 -0.2388
 7384SOL    HW229302   5.142   4.317   4.504 -1.7028  2.2826 -0.5220
 7384SOL    HW329303   5.258   4.406   4.543  0.1379  0.2033 -1.0637
 7384SOL    MW429304   5.219   4.353   4.486  0.1059 -0.0706  0.2048
 7385SOL     OW29305   2.306   0.185   2.333  0.0036 -0.6948  0.3583
 7385SOL    HW229306   2.317   0.275   2.363  1.1769 -0.4114 -0.8149
 7385SOL    HW329307   2.215   0.181   2.305  0.4692  0.8468 -1.6584
 7385SOL    MW429308   2.296   0.197   2.333  0.2792 -0.0756 -0.7620
 7386SOL     OW29309   5.801   3.306   0.364  0.2276  0.1270  0.2809
 7386SOL    HW229310   5.848   3.224   0.348  0.0632  0.1353 -0.2682
 7386SOL    HW329311   5.868   3.374   0.362  0.2007  0.1404 -0.5193
 7386SOL    MW429312   5.816   3.304   0.362 -0.4956 -0.8348  0.3227
 7387SOL     OW29313   2.095   3.123   1.500 -0.3010  0.5439 -0.1026
 7387SOL    HW229314   2.039   3.199   1.493 -0.6082  0.3858  0.5138
 7387SOL    HW329315   2.178   3.157   1.535 -0.3532  0.6283 -0.0618
 7387SOL    MW429316   2.099   3.137   1.504 -0.5433  0.1999 -0.5772
 7388SOL     OW29317   4.738   1.254   1.646  0.6328 -0.4428  0.2710
 7388SOL    HW229318   4.764   1.205   1.567  0.3686  0.3785 -0.3333
 7388SOL    HW329319   4.643   1.258   1.642  0.6762  0.6110  0.0048
 7388SOL    MW429320   4.729   1.248   1.635  0.9664  0.1117 -0.7321
 7389SOL     OW29321   4.883   1.605   3.524  0.1146  0.8649 -0.1728
 7389SOL    HW229322   4.833   1.563   3.593  0.0286 -0.1562 -0.8337
 7389SOL    HW329323   4.974   1.594   3.551  0.1320 -0.4010 -0.6711
 7389SOL    MW429324   4.889   1.598   3.537  0.0310  0.5341 -0.3591
 7390SOL     OW29325   1.051   5.066   1.866  0.0625 -0.6952 -0.4693
 7390SOL    HW229326   1.135   5.038   1.902  1.1691  1.0267 -1.5403
 7390SOL    HW329327   0.986   5.036   1.929  1.6622 -0.3176  1.4568
 7390SOL    MW429328   1.053   5.059   1.879 -0.3395 -0.1641 -0.3133
 7391SOL     OW29329   2.034   0.467   0.960  0.2807  0.3865 -0.3122
 7391SOL    HW229330   2.035   0.481   1.055  3.6554 -0.7565 -0.0316
 7391SOL    HW329331   2.005   0.377   0.950  0.2542  0.3985 -0.3433
 7391SOL    MW429332   2.031   0.457   0.971 -0.0971 -0.0857 -0.0804
 7392SOL     OW29333   5.542   3.947   4.123  0.3222 -0.2440 -0.0631
 7392SOL    HW229334   5.496   3.875   4.080  2.1715  0.5859 -3.8949
 7392SOL    HW329335   5.629   3.912   4.142  0.4463  0.2753  0.3616
 7392SOL    MW429336   5.547   3.933   4.120  0.4648  0.0379 -0.4324
 7393SOL     OW29337   4.155   3.003   4.854  0.1543  0.7618 -0.6936
 7393SOL    HW229338   4.086   3.005   4.788  0.6121  0.8220 -1.1792
 7393SOL    HW329339   4.164   2.910   4.878 -0.3838  0.8044 -0.3114
 7393SOL    MW429340   4.147   2.991   4.849 -1.0260  0.1854  0.2674
 7394SOL     OW29341   2.386   4.489   2.774 -0.5236 -0.5843 -0.1668
 7394SOL    HW229342   2.404   4.565   2.719 -0.9704 -0.8047 -0.6219
 7394SOL    HW329343   2.360   4.526   2.858  0.9217 -0.2434  0.1734
 7394SOL    MW429344   2.385   4.504   2.778  0.8589  0.1999  0.0740
 7395SOL     OW29345   0.779   6.231   2.005 -0.0486 -0.1475 -0.5922
 7395SOL    HW229346   0.767   6.143   1.970  1.6387 -2.2579  3.4255
 7395SOL    HW329347   0.706   6.243   2.066 -0.7774  1.7338 -1.7326
 7395SOL    MW429348   0.768   6.221   2.008 -0.1141 -0.0663 -0.6126
 7396SOL     OW29349   3.900   2.856   5.924 -0.5532 -0.4611 -0.1650
 7396SOL    HW229350   3.853   2.787   5.971  1.0484 -0.4419  1.5873
 7396SOL    HW329351   3.869   2.938   5.963  1.2705 -0.4737  1.4243
 7396SOL    MW429352   3.890   2.858   5.935  0.6598  0.1537 -0.0942
 7397SOL     OW29353   4.557   1.106   2.464 -0.0063  0.0385 -0.2289
 7397SOL    HW229354   4.504   1.120   2.542 -1.4316  1.9067 -1.4281
 7397SOL    HW329355   4.497   1.123   2.391  1.6917  0.0378 -1.7001
 7397SOL    MW429356   4.542   1.110   2.465  0.2436 -0.3808 -0.4149
 7398SOL     OW29357   6.151   5.418   5.790  0.2594 -0.2262 -0.4007
 7398SOL    HW229358   6.203   5.430   5.870  0.2107 -0.8141 -0.2798
 7398SOL    HW329359   6.216   5.410   5.720  0.3416 -0.9467 -0.2510
 7398SOL    MW429360   6.166   5.419   5.791 -0.7899  0.9017 -0.3021
 7399SOL     OW29361   4.858   3.014   3.619  0.4083  0.5535  0.4440
 7399SOL    HW229362   4.830   3.010   3.528 -0.2460  0.6324  0.6308
 7399SOL    HW329363   4.786   2.973   3.668  1.4409 -0.9315  0.7966
 7399SOL    MW429364   4.844   3.008   3.614 -0.8707 -0.3259  0.8334
 7400SOL     OW29365   0.661   6.191   0.680  0.0362  0.2032 -0.1794
 7400SOL    HW229366   0.737   6.236   0.644  0.1437 -0.1179 -0.3544
 7400SOL    HW329367   0.594   6.260   0.689  0.2086  0.4021 -0.4156
 7400SOL    MW429368   0.662   6.206   0.676 -0.2639  0.2145 -0.1146
 7401SOL     OW29369   4.420   4.249   3.646 -0.0522 -0.3570 -1.1265
 7401SOL    HW229370   4.494   4.264   3.587  1.1448 -0.4265  0.2868
 7401SOL    HW329371   4.382   4.166   3.617  1.3275 -1.0542 -1.0119
 7401SOL    MW429372   4.425   4.240   3.634  0.1927 -0.3009 -0.3452
 7402SOL     OW29373   6.295   6.258   4.021  0.6075 -0.1240 -0.5043
 7402SOL    HW229374   6.361   6.255   3.952  0.3430 -0.7213 -0.7342
 7402SOL    HW329375   6.344   6.280   4.100  0.6871  2.4450 -1.1512
 7402SOL    MW429376   6.310   6.261   4.022 -0.3186  1.0055 -0.3037
 7403SOL     OW29377   4.750   4.559   0.121  0.1006 -0.5419 -0.0035
 7403SOL    HW229378   4.738   4.522   0.033 -1.7877  0.6370 -0.2970
 7403SOL    HW329379   4.839   4.534   0.145  0.3997 -1.5627 -1.9223
 7403SOL    MW429380   4.760   4.551   0.113  0.0363 -0.2118 -0.8741
 7404SOL     OW29381   2.517   5.973   4.963  0.1113 -0.9320 -0.1997
 7404SOL    HW229382   2.433   6.015   4.981  1.0429  0.5239  1.0584
 7404SOL    HW329383   2.572   6.043   4.929  1.5861 -1.1856  1.5306
 7404SOL    MW429384   2.513   5.988   4.961 -0.6922 -0.3727 -0.3782
 7405SOL     OW29385   4.556   5.346   5.847  0.2539  0.3967 -0.3368
 7405SOL    HW229386   4.603   5.304   5.776  1.0588  0.9962 -0.1704
 7405SOL    HW329387   4.620   5.355   5.917  0.0559  1.7165 -0.3018
 7405SOL    MW429388   4.570   5.342   5.847 -0.1120  0.0002  0.0562
 7406SOL     OW29389   3.593   1.367   2.022 -0.0848  0.5738 -0.2492
 7406SOL    HW229390   3.576   1.326   2.107  1.9370 -0.8782 -0.4676
 7406SOL    HW329391   3.617   1.457   2.042  0.5517  0.1903  0.7322
 7406SOL    MW429392   3.594   1.373   2.036  0.6399 -0.3970  0.0341
 7407SOL     OW29393   4.254   0.388   5.636  0.5723  0.3711  0.1542
 7407SOL    HW229394   4.205   0.469   5.647  0.1590  0.4580 -1.8749
 7407SOL    HW329395   4.194   0.330   5.589  1.1200 -0.8759  0.9304
 7407SOL    MW429396   4.240   0.391   5.631 -0.1264 -0.4390  0.4238
 7408SOL     OW29397   2.457   4.908   2.150 -0.0733 -0.1411 -0.0028
 7408SOL    HW229398   2.493   4.978   2.206 -1.0221  1.2717 -1.0750
 7408SOL    HW329399   2.363   4.909   2.169 -0.5816  1.0463 -2.2420
 7408SOL    MW429400   2.449   4.918   2.160  0.5635  0.2992  0.3775
 7409SOL     OW29401   3.309   2.087   3.242 -0.2232  0.6609 -0.7886
 7409SOL    HW229402   3.335   2.155   3.181  0.1845  1.4670  0.2529
 7409SOL    HW329403   3.385   2.029   3.249 -0.1865  0.7012 -0.8620
 7409SOL    MW429404   3.322   2.088   3.235  0.0034 -0.5094  0.2774
 7410SOL     OW29405   5.851   2.431   5.497 -0.1408 -0.2068 -0.1524
 7410SOL    HW229406   5.810   2.515   5.516 -2.1479 -0.8050 -1.5759
 7410SOL    HW329407   5.800   2.368   5.547 -0.2959 -0.8537 -1.1166
 7410SOL    MW429408   5.839   2.434   5.506  0.3103  0.1907 -0.0585
 7411SOL     OW29409   1.179   2.991   4.888  0.5545  0.0559 -0.1198
 7411SOL    HW229410   1.166   2.905   4.848  1.4828 -0.0562 -0.2031
 7411SOL    HW329411   1.258   2.982   4.940  0.5420  0.8019  0.0410
 7411SOL    MW429412   1.188   2.979   4.889 -0.4010 -0.7569  0.5664
 7412SOL     OW29413   2.377   4.146   5.681 -0.2141 -0.0662 -0.6100
 7412SOL    HW229414   2.303   4.186   5.727  1.1784 -0.0071  1.7291
 7412SOL    HW329415   2.362   4.052   5.690  0.8408 -0.0839  1.4647
 7412SOL    MW429416   2.365   4.139   5.688  0.0477 -0.6839  0.0659
 7413SOL     OW29417   3.817   0.257   1.499  0.1941 -0.3738 -0.2908
 7413SOL    HW229418   3.905   0.239   1.467  0.2663 -1.2101  0.3440
 7413SOL    HW329419   3.799   0.187   1.562 -0.7849 -0.0115 -0.1422
 7413SOL    MW429420   3.826   0.246   1.503  0.1335 -0.0103 -0.5242
 7414SOL     OW29421   4.688   5.879   3.301  0.0911  0.5475  0.5255
 7414SOL    HW229422   4.630   5.934   3.248 -0.3385  0.7517  1.2041
 7414SOL    HW329423   4.754   5.848   3.239 -0.1790  1.1017 -0.0507
 7414SOL    MW429424   4.689   5.882   3.286 -0.1150  0.2404 -0.0722
 7415SOL     OW29425   4.519   4.831   1.442 -0.7282 -0.0910  0.3560
 7415SOL    HW229426   4.514   4.799   1.532  1.4124 -1.0463  0.1852
 7415SOL    HW329427   4.608   4.811   1.414 -1.0914  0.9264 -1.7206
 7415SOL    MW429428   4.530   4.824   1.451 -0.5044 -0.3616 -0.2101
 7416SOL     OW29429   3.142   2.828   0.304  0.1436 -0.2462  0.3776
 7416SOL    HW229430   3.132   2.915   0.343 -1.2208 -0.4815  0.6048
 7416SOL    HW329431   3.194   2.843   0.225  1.2861  0.5212  1.2302
 7416SOL    MW429432   3.148   2.841   0.299 -0.0195 -0.3153  0.7756
 7417SOL     OW29433   3.402   0.095   4.410  0.0426  0.4264  0.2597
 7417SOL    HW229434   3.357   0.176   4.385  0.4133  0.4204 -0.4560
 7417SOL    HW329435   3.345   0.025   4.378 -0.4886  0.3846  1.2504
 7417SOL    MW429436   3.388   0.096   4.403  0.1720  0.0260 -0.0891
 7418SOL     OW29437   0.820   6.203   5.255  0.0865 -0.0873 -0.1856
 7418SOL    HW229438   0.849   6.211   5.346  0.0983  2.1084 -0.3132
 7418SOL    HW329439   0.837   6.112   5.232  0.4328 -0.6002  1.8822
 7418SOL    MW429440   0.826   6.192   5.264  0.3091  0.1985  0.5831
 7419SOL     OW29441   0.449   5.645   4.084  0.0395 -0.0738 -0.1231
 7419SOL    HW229442   0.419   5.579   4.147  0.5447 -0.6614 -0.4918
 7419SOL    HW329443   0.544   5.639   4.086  0.0947  0.7543 -0.0523
 7419SOL    MW429444   0.457   5.635   4.093  0.2958 -0.2990  0.3232
 7420SOL     OW29445   4.514   1.527   5.461 -0.2754  0.2115  0.4396
 7420SOL    HW229446   4.553   1.446   5.493 -0.9055 -0.0628  0.5231
 7420SOL    HW329447   4.589   1.581   5.436  0.1349 -1.2418 -1.7318
 7420SOL    MW429448   4.529   1.524   5.462 -0.3114  0.2300  0.0906
 7421SOL     OW29449   2.991   6.217   5.159 -1.2156 -0.3252 -0.2170
 7421SOL    HW229450   2.939   6.201   5.238 -2.2657 -0.3729 -0.8946
 7421SOL    HW329451   2.964   6.147   5.099 -4.0329  2.2877 -2.3370
 7421SOL    MW429452   2.980   6.206   5.162 -0.1826 -0.5171  0.5932
 7422SOL     OW29453   1.517   3.934   1.858 -0.1359 -0.0005 -0.9283
 7422SOL    HW229454   1.464   3.911   1.781 -0.9365 -1.4156  0.0125
 7422SOL    HW329455   1.462   3.914   1.933  1.2964 -0.3695  0.0755
 7422SOL    MW429456   1.503   3.929   1.858  0.7302  0.4985 -0.0315
 7423SOL     OW29457   2.133   4.500   2.440  0.0732 -0.3853 -0.0185
 7423SOL    HW229458   2.217   4.545   2.452  0.5269 -1.1293 -0.3087
 7423SOL    HW329459   2.102   4.483   2.529  2.0664 -3.3851  0.2683
 7423SOL    MW429460   2.140   4.504   2.454  0.1475  0.6179  0.0625
 7424SOL     OW29461   2.764   0.765   1.053  0.1329 -0.5979 -0.4570
 7424SOL    HW229462   2.723   0.728   1.131  1.0405 -2.0946 -0.6440
 7424SOL    HW329463   2.730   0.713   0.980  0.2367 -0.0309 -0.9230
 7424SOL    MW429464   2.754   0.753   1.054  0.4754 -0.4523 -0.4374
 7425SOL     OW29465   0.770   5.517   3.670  0.0638  0.1844  0.1538
 7425SOL    HW229466   0.683   5.536   3.706  0.5293  0.6625  1.0447
 7425SOL    HW329467   0.827   5.511   3.746  1.2163  1.9681 -0.5016
 7425SOL    MW429468   0.766   5.518   3.685 -0.0363 -0.3163 -0.2913
 7426SOL     OW29469   5.816   3.079   5.836 -0.0784 -0.2277  0.0374
 7426SOL    HW229470   5.902   3.036   5.840 -0.5205 -1.1765 -0.4047
 7426SOL    HW329471   5.784   3.077   5.926 -0.3551 -1.4066 -0.0644
 7426SOL    MW429472   5.823   3.073   5.848  0.3352  0.0989 -0.3459
 7427SOL     OW29473   2.845   2.679   2.918 -0.1731 -0.8240  0.6018
 7427SOL    HW229474   2.811   2.633   2.995  0.5255 -0.1791  1.3105
 7427SOL    HW329475   2.772   2.733   2.889 -0.4033 -0.9673  0.9051
 7427SOL    MW429476   2.831   2.680   2.925 -0.0315  0.1280  0.6810
 7428SOL     OW29477   1.348   1.381   5.338 -0.2840  0.3192  0.0888
 7428SOL    HW229478   1.264   1.340   5.359 -1.2964  0.5191 -3.0759
 7428SOL    HW329479   1.398   1.311   5.294 -0.4900  1.3014 -1.7992
 7428SOL    MW429480   1.344   1.366   5.335  0.2285  0.4099  0.3356
 7429SOL     OW29481   3.283   6.244   2.029 -0.2019 -0.0461 -0.2603
 7429SOL    HW229482   3.359   6.199   2.065  0.9879  1.3334 -0.9404
 7429SOL    HW329483   3.250   6.297   2.101 -0.8047 -0.9597  0.1561
 7429SOL    MW429484   3.288   6.245   2.043 -0.4592  0.2794 -0.1259
 7430SOL     OW29485   2.496   6.019   1.784  0.2459 -0.1172  0.8548
 7430SOL    HW229486   2.412   5.981   1.757  0.7296 -2.8943  2.8220
 7430SOL    HW329487   2.558   5.946   1.779  2.3136  1.5869  0.5728
 7430SOL    MW429488   2.493   6.004   1.780 -0.7213 -0.1873  0.1011
 7431SOL     OW29489   5.558   4.926   0.965  0.2352 -0.1800 -0.0116
 7431SOL    HW229490   5.567   5.018   0.939  3.0560 -0.1692  0.7794
 7431SOL    HW329491   5.471   4.901   0.933  0.0096  2.3077 -1.5954
 7431SOL    MW429492   5.547   4.935   0.958  0.6865 -0.2426  0.0982
 7432SOL     OW29493   5.801   2.891   1.253  0.1171  0.1539  0.0935
 7432SOL    HW229494   5.858   2.912   1.327  0.3749  0.4630 -0.1936
 7432SOL    HW329495   5.859   2.889   1.177 -0.0218 -0.8583 -0.0060
 7432SOL    MW429496   5.816   2.893   1.253 -0.4097  0.0678 -0.3608
 7433SOL     OW29497   6.157   0.086   4.062 -0.0807 -0.3648 -0.1891
 7433SOL    HW229498   6.089   0.019   4.053  1.5278 -1.9083 -1.5403
 7433SOL    HW329499   6.239   0.037   4.067  1.1788  1.4951 -1.3276
 7433SOL    MW429500   6.159   0.071   4.062 -0.1277 -0.3001  0.6181
 7434SOL     OW29501   4.133   0.341   3.298  0.1042  0.7106 -0.0360
 7434SOL    HW229502   4.161   0.431   3.314 -0.5078  0.7405  0.9023
 7434SOL    HW329503   4.205   0.287   3.330 -0.4609  0.8142  1.4466
 7434SOL    MW429504   4.146   0.346   3.304 -0.1625  0.2635  0.3048
 7435SOL     OW29505   2.481   2.938   4.261 -0.5510  0.3668 -0.7950
 7435SOL    HW229506   2.404   2.955   4.315  0.4035  0.8345  0.4925
 7435SOL    HW329507   2.515   3.026   4.241 -0.5702  0.1786 -1.7018
 7435SOL    MW429508   2.475   2.952   4.265 -0.3862  0.1393 -0.1768
 7436SOL     OW29509   3.192   0.796   0.390  0.0259 -0.0894  0.3965
 7436SOL    HW229510   3.232   0.780   0.304  2.3591  0.9099  1.2400
 7436SOL    HW329511   3.160   0.886   0.385 -1.5321 -0.6228  0.0064
 7436SOL    MW429512   3.193   0.805   0.378 -0.0833 -0.0713  1.0391
 7437SOL     OW29513   5.987   4.585   1.695 -0.1360  0.1578  0.0687
 7437SOL    HW229514   5.892   4.580   1.686 -0.1779  0.5437  0.2672
 7437SOL    HW329515   6.021   4.568   1.607 -0.3840 -0.0705  0.0181
 7437SOL    MW429516   5.979   4.582   1.682  0.2616 -0.3777  0.8473
 7438SOL     OW29517   1.669   0.754   0.901  0.4232  0.1598 -0.1642
 7438SOL    HW229518   1.610   0.827   0.884 -1.2554 -1.1050  0.0027
 7438SOL    HW329519   1.635   0.712   0.980  0.3454 -1.7479 -1.1404
 7438SOL    MW429520   1.657   0.758   0.909 -0.6502  0.2886  0.1214
 7439SOL     OW29521   1.512   2.837   4.232 -0.6558 -0.1624  0.1005
 7439SOL    HW229522   1.476   2.755   4.268  0.0315 -0.1054  0.9617
 7439SOL    HW329523   1.553   2.879   4.307  1.1862 -0.2171 -0.8163
 7439SOL    MW429524   1.513   2.831   4.247  0.4746 -0.2463  0.9070
 7440SOL     OW29525   3.096   2.575   0.185  0.4499 -0.7384  0.0610
 7440SOL    HW229526   3.156   2.567   0.112  2.0726  0.4487  1.1876
 7440SOL    HW329527   3.088   2.669   0.199 -0.1008 -0.9367  1.1922
 7440SOL    MW429528   3.103   2.586   0.177  0.6279  0.0991  0.0911
 7441SOL     OW29529   6.008   2.815   6.350 -0.2377 -0.0514 -0.2141
 7441SOL    HW229530   5.974   2.733   6.313 -1.9527  1.0960 -1.3403
 7441SOL    HW329531   6.020   2.796   6.443  0.2736 -1.8313 -0.6044
 7441SOL    MW429532   6.005   2.802   6.357 -0.2666 -0.0561  0.1646
 7442SOL     OW29533   5.141   1.931   4.050  0.4608 -0.6604  0.0030
 7442SOL    HW229534   5.048   1.912   4.037  0.3817  0.5513 -1.4036
 7442SOL    HW329535   5.186   1.850   4.025 -0.1010 -0.5191 -1.5766
 7442SOL    MW429536   5.134   1.917   4.045  1.4730  0.3660  0.5946
 7443SOL     OW29537   0.357   0.697   4.167 -0.1303  0.2418 -0.0019
 7443SOL    HW229538   0.444   0.657   4.164  0.1299  0.8385 -1.2073
 7443SOL    HW329539   0.303   0.635   4.215  1.2747  0.4987  2.0242
 7443SOL    MW429540   0.362   0.684   4.173 -0.2233 -0.1191 -0.1438
 7444SOL     OW29541   1.898   6.060   5.010 -0.1773  0.0679 -0.9027
 7444SOL    HW229542   1.941   5.982   5.045  0.8531  1.1793  0.4691
 7444SOL    HW329543   1.967   6.107   4.963 -0.2666  1.0619 -0.0958
 7444SOL    MW429544   1.913   6.056   5.009  0.4505  0.0713  0.2788
 7445SOL     OW29545   3.508   5.818   2.344  0.1282 -0.0694  0.4371
 7445SOL    HW229546   3.430   5.785   2.300  0.5710  0.1146 -0.5373
 7445SOL    HW329547   3.580   5.774   2.300  0.5450 -1.1176  2.0977
 7445SOL    MW429548   3.507   5.808   2.332  0.1654 -0.0219  0.7646
 7446SOL     OW29549   3.003   0.328   5.758  0.2748  0.1258 -0.8282
 7446SOL    HW229550   2.984   0.390   5.828 -0.3835 -0.2978 -0.6170
 7446SOL    HW329551   3.088   0.355   5.724 -0.0597  1.2279 -0.8306
 7446SOL    MW429552   3.011   0.340   5.763 -0.3422  0.5689  0.3213
 7447SOL     OW29553   1.437   2.150   2.921  0.1764 -0.5436  0.0370
 7447SOL    HW229554   1.459   2.065   2.958  1.5810 -0.2528 -0.0772
 7447SOL    HW329555   1.522   2.189   2.899 -0.4673  0.7102 -0.2935
 7447SOL    MW429556   1.451   2.144   2.923  0.5050 -0.3348 -0.8183
 7448SOL     OW29557   5.104   6.378   0.896  0.2482 -0.9980  0.3980
 7448SOL    HW229558   5.048   6.301   0.885 -1.3305 -0.0719  1.5524
 7448SOL    HW329559   5.155   6.382   0.815 -2.6550 -0.8566 -1.5650
 7448SOL    MW429560   5.103   6.368   0.884 -0.3941 -0.0939  0.0761
 7449SOL     OW29561   5.428   1.472   5.143  0.2112  0.2392  0.1511
 7449SOL    HW229562   5.339   1.500   5.164 -0.1104 -0.5629 -0.0991
 7449SOL    HW329563   5.477   1.484   5.224 -0.1566  0.5627  0.3261
 7449SOL    MW429564   5.423   1.478   5.156 -0.2467  0.4095  0.2084
 7450SOL     OW29565   2.677   4.663   3.303  0.2198 -0.0806  0.0920
 7450SOL    HW229566   2.720   4.596   3.251 -0.6920 -1.5121  1.1215
 7450SOL    HW329567   2.670   4.626   3.391 -1.7029  0.7089  0.3315
 7450SOL    MW429568   2.682   4.649   3.308  0.0675  0.2043 -1.0332
 7451SOL     OW29569   1.730   3.197   2.345 -0.4287  0.3568  0.1466
 7451SOL    HW229570   1.666   3.143   2.300  0.9633 -0.1631 -1.3040
 7451SOL    HW329571   1.728   3.281   2.298 -1.2801  0.9795  1.2356
 7451SOL    MW429572   1.721   3.201   2.333 -0.4260  0.4574 -0.0803
 7452SOL     OW29573   5.320   3.761   4.036  1.2991 -0.2953 -0.1976
 7452SOL    HW229574   5.312   3.682   4.089 -0.8318 -0.7079 -1.0221
 7452SOL    HW329575   5.301   3.731   3.946  0.0612  1.1781 -0.4721
 7452SOL    MW429576   5.316   3.746   4.031  0.2720  0.1027  0.1260
 7453SOL     OW29577   5.407   2.737   0.766 -0.6238 -0.2600 -0.1360
 7453SOL    HW229578   5.344   2.742   0.694 -0.7001 -1.6824 -0.1801
 7453SOL    HW329579   5.489   2.768   0.728 -1.0676  0.7400 -0.3209
 7453SOL    MW429580   5.410   2.742   0.752  0.1224  0.1334  0.2610
 7454SOL     OW29581   2.266   2.466   3.740 -0.1150  0.5566  0.6660
 7454SOL    HW229582   2.172   2.475   3.754 -0.3330  0.4770 -0.6046
 7454SOL    HW329583   2.291   2.390   3.793 -1.1684 -0.6817 -0.5090
 7454SOL    MW429584   2.257   2.457   3.749 -0.7100 -0.3443  0.4498
 7455SOL     OW29585   5.075   5.599   5.660 -0.3763 -0.4238 -0.0374
 7455SOL    HW229586   5.165   5.585   5.630 -0.0625  0.4958  0.4222
 7455SOL    HW329587   5.085   5.629   5.750 -1.2069 -1.2687  0.3450
 7455SOL    MW429588   5.089   5.601   5.668  0.7523  0.8172  1.0371
 7456SOL     OW29589   1.049   2.560   5.875 -0.0826 -0.6755  0.0797
 7456SOL    HW229590   1.049   2.653   5.897  4.9417 -0.0595 -1.2277
 7456SOL    HW329591   1.026   2.557   5.782  1.9759 -0.3126 -0.5007
 7456SOL    MW429592   1.046   2.572   5.865 -0.0268 -0.3360 -0.0471
 7457SOL     OW29593   5.999   3.453   2.375  0.1677  0.0210 -0.0364
 7457SOL    HW229594   5.962   3.516   2.313 -0.1330  0.7161  0.8291
 7457SOL    HW329595   6.084   3.491   2.400  0.3904 -0.3701 -0.1951
 7457SOL    MW429596   6.005   3.467   2.370 -0.2075 -0.3275  0.0872
 7458SOL     OW29597   4.715   2.807   2.646  0.3901  0.1646 -0.3906
 7458SOL    HW229598   4.657   2.873   2.607 -0.5377 -0.3445  0.0822
 7458SOL    HW329599   4.657   2.733   2.664  1.4294 -0.7887 -0.9165
 7458SOL    MW429600   4.700   2.806   2.644  0.3076 -0.1737 -0.0586
 7459SOL     OW29601   4.456   2.020   2.521 -0.2322  0.3268 -0.4237
 7459SOL    HW229602   4.530   2.077   2.501  0.7416 -0.9055 -0.4065
 7459SOL    HW329603   4.458   2.011   2.617 -0.9529  0.9824 -0.3304
 7459SOL    MW429604   4.466   2.026   2.531 -0.1287 -0.3108  0.3905
 7460SOL     OW29605   4.987   3.993   3.414 -0.0001 -0.1115  0.5277
 7460SOL    HW229606   5.054   3.965   3.352  0.0782  1.0765  0.0640
 7460SOL    HW329607   4.907   4.002   3.361 -0.2493 -0.3747  0.8541
 7460SOL    MW429608   4.985   3.990   3.399 -0.0136 -0.0186 -0.1283
 7461SOL     OW29609   6.073   3.051   1.736  0.2546  0.2499 -0.2931
 7461SOL    HW229610   6.029   3.043   1.820 -1.4314  0.9506 -1.0513
 7461SOL    HW329611   6.048   2.972   1.688  0.5204  0.2524 -0.4387
 7461SOL    MW429612   6.064   3.040   1.741  0.4876 -0.2490 -0.3950
 7462SOL     OW29613   2.016   6.146   5.473 -0.8598 -0.4613 -0.1541
 7462SOL    HW229614   1.980   6.137   5.385 -1.2173  0.7338 -0.1477
 7462SOL    HW329615   2.039   6.239   5.480  1.9381 -1.0691 -0.0389
 7462SOL    MW429616   2.014   6.157   5.462  0.5253 -0.1700 -0.3472
 7463SOL     OW29617   4.425   2.150   6.132 -0.4287 -0.2048 -0.0787
 7463SOL    HW229618   4.342   2.150   6.180 -0.3531  0.4078  0.0595
 7463SOL    HW329619   4.432   2.062   6.096 -2.4510  0.4908 -2.3597
 7463SOL    MW429620   4.415   2.138   6.134  0.3524 -0.3470 -0.0951
 7464SOL     OW29621   2.297   5.866   4.378 -0.2999 -0.4702 -0.2603
 7464SOL    HW229622   2.267   5.911   4.300  2.6287  1.6636 -0.3041
 7464SOL    HW329623   2.230   5.885   4.444 -0.0645  2.5618 -0.7689
 7464SOL    MW429624   2.284   5.874   4.377 -0.3596 -0.2286 -0.1461
 7465SOL     OW29625   1.933   4.631   4.623  0.2080  0.3877 -0.4132
 7465SOL    HW229626   2.024   4.607   4.607  0.2782  0.5992 -0.3386
 7465SOL    HW329627   1.938   4.705   4.684 -0.0400 -0.2430  0.3917
 7465SOL    MW429628   1.946   4.638   4.629  0.5151  0.4358 -0.3002
 7466SOL     OW29629   4.957   6.010   2.499  0.7057  0.4236  0.0927
 7466SOL    HW229630   5.013   5.933   2.505 -0.7977 -1.0820 -3.1009
 7466SOL    HW329631   5.015   6.079   2.466  1.6493  0.2154  1.2313
 7466SOL    MW429632   4.972   6.009   2.495 -0.0075  0.2364 -0.2828
 7467SOL     OW29633   2.174   5.180   2.450 -0.3634  0.0313  0.0522
 7467SOL    HW229634   2.106   5.246   2.442  0.3531  0.6674 -0.9734
 7467SOL    HW329635   2.255   5.229   2.465 -0.1918 -0.7352  1.9254
 7467SOL    MW429636   2.176   5.195   2.451 -0.0542  0.2473 -0.4665
 7468SOL     OW29637   0.670   0.646   5.326 -0.2902  0.8265  0.6412
 7468SOL    HW229638   0.615   0.647   5.248 -1.5256 -0.4327  1.4618
 7468SOL    HW329639   0.733   0.575   5.310  0.1688  1.2917  0.3403
 7468SOL    MW429640   0.671   0.637   5.313  0.2077 -1.1168 -0.5129
 7469SOL     OW29641   0.801   2.604   3.525 -0.1301 -0.3548 -0.4317
 7469SOL    HW229642   0.792   2.595   3.430 -2.5724 -1.6405 -0.1624
 7469SOL    HW329643   0.711   2.607   3.557  0.4839 -3.5266  2.1184
 7469SOL    MW429644   0.788   2.603   3.517  0.4163 -0.1652 -0.5770
 7470SOL     OW29645   4.806   3.742   3.264  0.3921  0.0350 -0.3695
 7470SOL    HW229646   4.787   3.834   3.286  1.4202  0.0802  0.3712
 7470SOL    HW329647   4.893   3.744   3.225  0.5702 -0.6776 -0.0172
 7470SOL    MW429648   4.815   3.755   3.262 -0.4664  0.4923  0.0410
 7471SOL     OW29649   1.205   0.527   2.753  0.2079  0.1272 -0.1023
 7471SOL    HW229650   1.214   0.505   2.845 -0.0091 -0.0952 -0.1337
 7471SOL    HW329651   1.214   0.444   2.707 -0.5142  0.1098 -0.2262
 7471SOL    MW429652   1.208   0.513   2.759 -0.4045 -0.1848  0.0555
 7472SOL     OW29653   5.059   0.443   3.522 -0.0417 -0.0965 -0.0886
 7472SOL    HW229654   5.139   0.485   3.490 -0.1030 -0.5422 -0.8529
 7472SOL    HW329655   5.086   0.398   3.602 -0.0128  1.5122  0.8596
 7472SOL    MW429656   5.073   0.443   3.529 -0.3046  0.0905  0.1901
 7473SOL     OW29657   2.132   0.841   0.844 -0.4082 -0.0094 -0.5680
 7473SOL    HW229658   2.103   0.922   0.802  0.7764 -1.1919 -4.0407
 7473SOL    HW329659   2.055   0.784   0.840 -0.2063 -0.2358 -1.6056
 7473SOL    MW429660   2.118   0.844   0.838  0.1990  0.2540  0.4726
 7474SOL     OW29661   5.275   0.159   2.702  0.0703 -0.3054 -0.6063
 7474SOL    HW229662   5.261   0.095   2.771  0.1069  0.9487  0.6070
 7474SOL    HW329663   5.193   0.207   2.696  0.8373  1.1799  0.2865
 7474SOL    MW429664   5.262   0.157   2.710  0.4595 -0.3345 -0.2591
 7475SOL     OW29665   0.324   1.447   2.316 -0.1557  0.1382 -0.0361
 7475SOL    HW229666   0.371   1.493   2.386  0.2294  1.2963 -1.0249
 7475SOL    HW329667   0.377   1.369   2.299  1.4858  1.4295 -1.1474
 7475SOL    MW429668   0.337   1.443   2.323  0.2675  0.5268 -0.7138
 7476SOL     OW29669   1.387   5.406   2.513  0.2594  0.7837 -0.2643
 7476SOL    HW229670   1.445   5.481   2.515  0.6931  0.4387  0.5479
 7476SOL    HW329671   1.423   5.345   2.578 -1.0323  0.5842  0.3033
 7476SOL    MW429672   1.399   5.408   2.521 -0.3350 -0.7991 -0.0063
 7477SOL     OW29673   3.713   4.546   1.992  0.5258  1.0322 -0.5221
 7477SOL    HW229674   3.639   4.606   2.003 -1.0929 -1.0802  0.8366
 7477SOL    HW329675   3.675   4.467   1.954  1.9618 -0.2634  0.5906
 7477SOL    MW429676   3.698   4.544   1.989 -0.1869 -0.3204  0.1084
 7478SOL     OW29677   5.452   2.892   2.251 -0.2522  0.5239  0.0315
 7478SOL    HW229678   5.540   2.876   2.216 -0.0428  2.3031 -0.3682
 7478SOL    HW329679   5.415   2.805   2.264  2.3022 -0.3680  2.1609
 7478SOL    MW429680   5.459   2.879   2.248 -0.8897 -0.2600  0.2111
 7479SOL     OW29681   5.360   0.730   4.063  0.2740  0.6984 -0.0081
 7479SOL    HW229682   5.328   0.767   3.981  0.6830  0.3613 -0.3271
 7479SOL    HW329683   5.319   0.644   4.068  1.0856  0.2848 -0.3964
 7479SOL    MW429684   5.350   0.724   4.053 -0.2905 -0.4859  0.4086
 7480SOL     OW29685   2.924   2.366   4.795 -0.5276  0.0418 -0.4556
 7480SOL    HW229686   3.000   2.373   4.736 -1.5834 -0.4100 -1.9328
 7480SOL    HW329687   2.852   2.341   4.738 -1.7035 -0.0220  0.9987
 7480SOL    MW429688   2.925   2.364   4.780 -0.3856  0.3030 -0.2773
 7481SOL     OW29689   1.079   0.037   5.727 -0.2105  0.2050 -0.1109
 7481SOL    HW229690   1.100   0.076   5.812  0.0918  1.2858 -0.6705
 7481SOL    HW329691   1.163   0.028   5.683 -0.5250  1.3124 -0.9815
 7481SOL    MW429692   1.093   0.041   5.732 -0.5123 -0.0003  0.1016
 7482SOL     OW29693   5.897   6.269   4.143  0.0887 -0.2639 -0.1585
 7482SOL    HW229694   5.828   6.243   4.204 -0.0921 -1.0985 -0.7009
 7482SOL    HW329695   5.913   6.191   4.091  0.5849  0.2936 -0.8581
 7482SOL    MW429696   5.890   6.255   4.145 -0.1391 -0.6055 -0.0703
 7483SOL     OW29697   4.467   2.024   0.733  0.0957  0.1447  0.0572
 7483SOL    HW229698   4.450   2.118   0.728 -0.5200 -0.0222 -2.9927
 7483SOL    HW329699   4.509   2.003   0.650  2.5420 -1.9180  1.6423
 7483SOL    MW429700   4.470   2.034   0.722 -0.1718  0.2690 -0.2348
 7484SOL     OW29701   4.836   5.863   5.328  0.8477 -0.5167  0.3494
 7484SOL    HW229702   4.880   5.946   5.311 -0.8499  0.4292  0.2998
 7484SOL    HW329703   4.837   5.818   5.244 -3.8611  2.3526 -1.7137
 7484SOL    MW429704   4.842   5.868   5.315  0.0153  0.0065 -0.7472
 7485SOL     OW29705   0.088   6.390   5.898  0.8635  0.3019  0.5032
 7485SOL    HW229706   0.101   6.323   5.966  0.4831 -2.2211 -1.7639
 7485SOL    HW329707   0.124   6.351   5.819  1.3990  3.2017 -0.7741
 7485SOL    MW429708   0.094   6.376   5.897 -0.4909 -0.2981  0.1790
 7486SOL     OW29709   2.214   3.911   6.216  0.1063  0.4665 -0.0397
 7486SOL    HW229710   2.255   3.829   6.186  0.6526  1.0187 -0.8468
 7486SOL    HW329711   2.284   3.957   6.263  0.6241  1.6471 -1.8687
 7486SOL    MW429712   2.229   3.906   6.218 -0.0218  0.1566  0.2274
 7487SOL     OW29713   2.881   0.973   3.593  0.6947 -0.2676 -0.4025
 7487SOL    HW229714   2.943   0.909   3.558  0.4018 -1.1959  0.7298
 7487SOL    HW329715   2.802   0.961   3.542  1.5663  1.3423 -2.2797
 7487SOL    MW429716   2.879   0.963   3.582  0.5951 -0.0207 -0.1388
 7488SOL     OW29717   0.543   1.533   1.344  0.6349 -0.3395 -0.0051
 7488SOL    HW229718   0.507   1.445   1.332  0.7651 -0.3089 -0.6423
 7488SOL    HW329719   0.496   1.588   1.282 -0.8813  0.4718  1.7783
 7488SOL    MW429720   0.532   1.529   1.335  0.4298  0.4755  0.2745
 7489SOL     OW29721   6.246   5.511   1.601 -0.4476 -0.0681  0.1725
 7489SOL    HW229722   6.265   5.533   1.509  1.2366 -1.6478  0.0711
 7489SOL    HW329723   6.274   5.588   1.650  0.6182  0.0149 -0.5101
 7489SOL    MW429724   6.252   5.524   1.595 -0.9022  0.4253  0.2623
 7490SOL     OW29725   5.289   0.036  -0.004 -0.7846 -0.4423 -0.3784
 7490SOL    HW229726   5.326   0.096  -0.068 -1.1741  0.4778  0.2354
 7490SOL    HW329727   5.208   0.078   0.024 -0.4371 -0.6372  0.9857
 7490SOL    MW429728   5.283   0.050  -0.009  0.3668  0.4861 -0.1049
 7491SOL     OW29729   0.651   0.261   2.856 -0.5839 -0.5282  0.2404
 7491SOL    HW229730   0.653   0.277   2.761  1.7750 -1.6642  0.0121
 7491SOL    HW329731   0.568   0.216   2.871 -0.9865 -0.3499 -1.3002
 7491SOL    MW429732   0.641   0.257   2.845  0.0559  0.1141  0.2210
 7492SOL     OW29733   6.253   2.526   4.559 -0.3111 -0.5410 -0.3380
 7492SOL    HW229734   6.202   2.556   4.484  1.8818  0.9659 -1.3602
 7492SOL    HW329735   6.324   2.474   4.520  0.4267 -0.3802  0.7392
 7492SOL    MW429736   6.256   2.523   4.544 -0.1599  0.0767  0.1494
 7493SOL     OW29737   2.831   3.079   1.918  0.4391  0.3195  0.0633
 7493SOL    HW229738   2.785   3.112   1.841 -0.4522 -0.0075  0.4543
 7493SOL    HW329739   2.762   3.052   1.979  1.0560  2.5741  1.8941
 7493SOL    MW429740   2.816   3.080   1.916 -0.8022  0.1159 -0.1905
 7494SOL     OW29741   3.652   0.657   1.557  0.1470  0.0010 -0.3706
 7494SOL    HW229742   3.693   0.696   1.635  0.4189  0.4167 -0.7213
 7494SOL    HW329743   3.725   0.622   1.507 -0.1570 -2.0666  0.5087
 7494SOL    MW429744   3.667   0.658   1.561 -0.6235  0.6541 -0.5916
 7495SOL     OW29745   3.713   4.410   3.390 -0.2357 -0.2817 -0.2532
 7495SOL    HW229746   3.746   4.340   3.334 -0.6416 -0.9661  0.3367
 7495SOL    HW329747   3.736   4.382   3.479  1.1290  1.1802 -0.1103
 7495SOL    MW429748   3.720   4.397   3.394 -0.1627 -0.1761  0.4445
 7496SOL     OW29749   3.979   1.178   0.611 -0.7898 -0.7394  0.2970
 7496SOL    HW229750   3.940   1.265   0.616 -3.3917 -1.8376  0.5850
 7496SOL    HW329751   3.995   1.153   0.702 -0.5452 -0.7819  0.2436
 7496SOL    MW429752   3.976   1.186   0.624  0.8507  0.3701 -0.3057
 7497SOL     OW29753   0.647   2.798   6.156 -0.3871  0.4635  0.2262
 7497SOL    HW229754   0.686   2.800   6.244 -1.1876  0.1703  0.6019
 7497SOL    HW329755   0.556   2.826   6.170 -1.1798 -1.7561 -0.1445
 7497SOL    MW429756   0.640   2.802   6.170  0.0652 -0.2681 -0.4246
 7498SOL     OW29757   2.813   3.493   6.132  0.1783 -0.1930 -0.0620
 7498SOL    HW229758   2.767   3.552   6.192 -1.0933 -0.2585 -0.9175
 7498SOL    HW329759   2.753   3.483   6.058  0.8617 -1.6595 -0.4581
 7498SOL    MW429760   2.799   3.500   6.130 -0.2826  0.0805  0.6033
 7499SOL     OW29761   4.505   5.535   3.832  0.5558 -0.1062 -0.1228
 7499SOL    HW229762   4.509   5.618   3.878  0.3544 -0.8130  1.2229
 7499SOL    HW329763   4.595   5.521   3.801  0.1907  1.5391 -2.1679
 7499SOL    MW429764   4.517   5.544   3.834  1.0079 -0.1717  0.2856
 7500SOL     OW29765   1.098   5.271   1.636  0.8502  0.2104 -0.8082
 7500SOL    HW229766   1.042   5.338   1.677  0.6429 -0.1224 -0.5427
 7500SOL    HW329767   1.102   5.201   1.700  1.8077  0.3458 -0.7096
 7500SOL    MW429768   1.091   5.271   1.650  0.0495 -0.0406  0.0351
 7501SOL     OW29769   2.495   5.518   3.618 -0.3779 -0.0315 -0.1157
 7501SOL    HW229770   2.406   5.509   3.586 -0.3963 -1.3942  0.2855
 7501SOL    HW329771   2.540   5.569   3.551 -0.6258 -2.0664 -1.9186
 7501SOL    MW429772   2.490   5.524   3.605 -0.2242  0.3089 -0.1391
 7502SOL     OW29773   2.672   2.321   4.236  0.3439  0.2909 -0.3805
 7502SOL    HW229774   2.705   2.411   4.232 -0.3748  0.5968  0.3605
 7502SOL    HW329775   2.747   2.269   4.265  0.5255  0.7780  0.0350
 7502SOL    MW429776   2.686   2.326   4.239 -0.1574  0.0332  0.7867
 7503SOL     OW29777   2.689   4.364   5.393  0.1940  0.1030 -0.4540
 7503SOL    HW229778   2.763   4.319   5.435 -0.1741 -0.2381 -0.1694
 7503SOL    HW329779   2.613   4.311   5.416 -0.2794  1.0157  0.0923
 7503SOL    MW429780   2.689   4.351   5.402  0.0538 -0.6776  0.3864
 7504SOL     OW29781   1.469   2.851   2.916  0.1982  0.1209  0.1249
 7504SOL    HW229782   1.483   2.761   2.887 -0.2122 -0.0926  0.5732
 7504SOL    HW329783   1.556   2.891   2.915  1.0965 -1.3623  3.4429
 7504SOL    MW429784   1.482   2.845   2.912  0.4597  0.1246 -0.0693
 7505SOL     OW29785   2.818   3.314   0.937 -0.5964  0.2312  0.0183
 7505SOL    HW229786   2.810   3.409   0.929  1.3231  0.6605  2.2436
 7505SOL    HW329787   2.744   3.288   0.993 -0.4862  0.5764  0.3271
 7505SOL    MW429788   2.807   3.323   0.943 -0.1463  0.1299 -0.3022
 7506SOL     OW29789   5.095   4.039   6.044  0.2213  0.0861  0.0298
 7506SOL    HW229790   5.091   4.046   6.139 -0.7143  0.5461 -0.0361
 7506SOL    HW329791   5.168   3.979   6.028  0.7491  0.4389  1.0146
 7506SOL    MW429792   5.104   4.032   6.054 -0.9046  0.5071  0.2440
 7507SOL     OW29793   3.706   0.085   4.867 -0.2690  0.1392 -0.1857
 7507SOL    HW229794   3.728   0.166   4.822  0.6182  1.0613  1.7708
 7507SOL    HW329795   3.611   0.089   4.880 -0.4155  0.2274 -1.2261
 7507SOL    MW429796   3.697   0.096   4.863  0.7523 -0.1099 -0.5512
 7508SOL     OW29797   4.230   0.567   1.037  0.2909  0.1206  0.7510
 7508SOL    HW229798   4.137   0.545   1.032  0.7179 -2.0147  1.4309
 7508SOL    HW329799   4.256   0.546   1.126  1.3005  1.3587  0.7825
 7508SOL    MW429800   4.221   0.561   1.048  0.5476  0.3519  0.0531
 7509SOL     OW29801   1.981   1.058   6.147  0.0027  0.2035 -0.1845
 7509SOL    HW229802   1.926   0.980   6.151  0.7410 -0.2576  1.9485
 7509SOL    HW329803   2.069   1.026   6.167  0.8363  1.1611 -2.1180
 7509SOL    MW429804   1.985   1.043   6.150  0.1278  0.2171 -0.0770
 7510SOL     OW29805   0.585   3.970   0.483 -0.0679  0.2411  0.5785
 7510SOL    HW229806   0.569   4.062   0.505  0.8755  0.7436 -0.6904
 7510SOL    HW329807   0.522   3.951   0.414  2.3107  1.2305 -2.0662
 7510SOL    MW429808   0.575   3.980   0.477 -0.4135  0.4320  0.2764
 7511SOL     OW29809   4.068   4.453   2.241  0.2073  0.2236 -0.4473
 7511SOL    HW229810   3.977   4.464   2.271  0.6888  0.1091  1.1441
 7511SOL    HW329811   4.075   4.359   2.223 -0.1950  0.3525 -1.3629
 7511SOL    MW429812   4.057   4.442   2.242 -0.2537 -0.1762  0.4237
 7512SOL     OW29813   0.497   1.704   6.196 -0.2776  0.2769  0.8200
 7512SOL    HW229814   0.420   1.743   6.236 -2.0291 -1.0962 -1.0567
 7512SOL    HW329815   0.506   1.618   6.238 -0.6445 -0.1526  0.0372
 7512SOL    MW429816   0.488   1.698   6.207 -0.2653 -0.0183 -0.7129
 7513SOL     OW29817   2.540   2.960   3.098  0.4802  0.0099 -0.2189
 7513SOL    HW229818   2.555   2.919   3.013  1.9403 -2.0687  0.9332
 7513SOL    HW329819   2.583   2.901   3.160 -2.0074  0.5005  2.1492
 7513SOL    MW429820   2.547   2.947   3.095 -0.9294  0.1661 -0.7702
 7514SOL     OW29821   5.219   4.102   5.175 -0.5159 -0.0356  0.5755
 7514SOL    HW229822   5.273   4.179   5.157  0.9816 -1.2011 -0.1860
 7514SOL    HW329823   5.137   4.120   5.130 -0.2582  1.1804  0.5478
 7514SOL    MW429824   5.216   4.114   5.167 -0.6049  0.2418 -0.2969
 7515SOL     OW29825   4.976   5.046   2.314  0.2368  0.1749  0.5252
 7515SOL    HW229826   5.049   5.071   2.259  0.7907 -1.6250  0.3849
 7515SOL    HW329827   4.900   5.090   2.276  1.2238  2.2255  0.7905
 7515SOL    MW429828   4.975   5.055   2.302  0.4731 -0.3526 -0.1049
 7516SOL     OW29829   0.900   3.907   0.942  0.0314 -0.0840  0.6024
 7516SOL    HW229830   0.867   3.933   0.857  0.5585  0.9556  0.7027
 7516SOL    HW329831   0.972   3.968   0.960 -0.3095 -0.0507  1.9479
 7516SOL    MW429832   0.905   3.918   0.933 -0.4854  0.2285 -0.2495
 7517SOL     OW29833   1.137   0.948   1.066 -0.5932 -0.2058 -0.0544
 7517SOL    HW229834   1.093   0.966   1.149  1.2606 -0.0081  0.9357
 7517SOL    HW329835   1.080   0.884   1.022 -1.8725  0.0878  1.1136
 7517SOL    MW429836   1.123   0.942   1.071  0.0989  0.6903  0.1672
 7518SOL     OW29837   3.823   6.095   0.604  0.7499  0.3022 -0.4164
 7518SOL    HW229838   3.854   6.183   0.623  0.3324  0.3057  0.2549
 7518SOL    HW329839   3.848   6.044   0.681 -1.7887  0.5213  0.6290
 7518SOL    MW429840   3.831   6.100   0.617  0.1234 -0.2002  0.6373
 7519SOL     OW29841   5.471   0.929   1.100 -0.1046  0.2428 -0.0954
 7519SOL    HW229842   5.521   0.861   1.145 -1.1846 -0.2132  0.4639
 7519SOL    HW329843   5.416   0.880   1.038  1.4270  0.8537 -2.0612
 7519SOL    MW429844   5.470   0.913   1.097  0.2289 -0.1717  0.0442
 7520SOL     OW29845   0.111   2.534   4.863 -0.7330 -0.8844  0.7292
 7520SOL    HW229846   0.029   2.574   4.833  1.8266  4.3164 -0.4704
 7520SOL    HW329847   0.130   2.577   4.946  2.1014  0.5295 -0.5051
 7520SOL    MW429848   0.103   2.545   4.870  0.0548 -0.4482 -0.1071
 7521SOL     OW29849   3.888   4.592   1.735  0.2971 -0.4353 -0.1455
 7521SOL    HW229850   3.880   4.666   1.795 -1.4228 -0.0576 -0.7963
 7521SOL    HW329851   3.933   4.525   1.786 -0.1328  0.2557  1.1966
 7521SOL    MW429852   3.893   4.593   1.749  0.2765 -0.1997  0.1786
 7522SOL     OW29853   4.463   0.294   5.824 -0.1336  0.1330  0.6113
 7522SOL    HW229854   4.536   0.343   5.786 -0.3538 -0.1961 -0.2417
 7522SOL    HW329855   4.389   0.312   5.766 -0.6394  0.1325  1.2400
 7522SOL    MW429856   4.463   0.303   5.811  0.0433 -0.6983 -0.2031
 7523SOL     OW29857   1.299   4.273   5.881  0.0571  0.1299 -0.3063
 7523SOL    HW229858   1.232   4.272   5.949 -0.7397 -0.0819 -1.0810
 7523SOL    HW329859   1.375   4.231   5.921 -0.5180 -0.3138  0.3328
 7523SOL    MW429860   1.301   4.268   5.895 -0.1632 -0.3340  0.0781
 7524SOL     OW29861   2.404   3.684   2.966 -0.0715  0.0188  0.4842
 7524SOL    HW229862   2.357   3.669   2.884 -2.1926  0.6328  1.5130
 7524SOL    HW329863   2.423   3.596   2.999 -0.0298 -0.2418 -0.2268
 7524SOL    MW429864   2.400   3.670   2.959 -0.7134 -1.0032  0.1350
 7525SOL     OW29865   5.633   0.205   3.299 -0.4990 -0.3358 -0.5780
 7525SOL    HW229866   5.714   0.204   3.349 -0.4324  0.3459 -0.6566
 7525SOL    HW329867   5.567   0.170   3.359 -0.3092 -0.0698 -0.2086
 7525SOL    MW429868   5.635   0.200   3.314  0.0036 -0.1953 -0.0199
 7526SOL     OW29869   5.992   5.216   1.693  0.0692  0.4085  0.0688
 7526SOL    HW229870   6.008   5.299   1.649  0.9246  0.5418  0.5906
 7526SOL    HW329871   6.063   5.209   1.757 -0.9833  0.1100  1.2508
 7526SOL    MW429872   6.004   5.226   1.696  1.1799  0.0850  0.2663
 7527SOL     OW29873   3.005   4.689   4.181  0.2530 -0.5609  0.1796
 7527SOL    HW229874   2.953   4.739   4.118  1.2942  1.5518  0.9192
 7527SOL    HW329875   2.950   4.683   4.259 -0.8252 -2.7306 -0.6496
 7527SOL    MW429876   2.991   4.695   4.183  0.2087 -0.7934  0.2326
 7528SOL     OW29877   0.878   5.146   6.242 -0.5246 -0.0393  0.1473
 7528SOL    HW229878   0.821   5.213   6.278  0.8281  2.4250 -1.8938
 7528SOL    HW329879   0.841   5.128   6.155 -1.1741 -2.4495  0.8596
 7528SOL    MW429880   0.866   5.152   6.235  0.7401  0.0143 -0.0062
 7529SOL     OW29881   6.224   0.080   5.805 -0.1037 -0.0802  0.0083
 7529SOL    HW229882   6.169   0.071   5.882  0.0721  0.0531  0.1494
 7529SOL    HW329883   6.313   0.064   5.836  0.1805  1.5763  0.1828
 7529SOL    MW429884   6.228   0.077   5.819  0.6132 -0.0343 -0.6211
 7530SOL     OW29885   2.230   3.123   4.335  0.1908  0.3386  0.0775
 7530SOL    HW229886   2.279   3.180   4.276  0.4338 -0.1254 -0.1739
 7530SOL    HW329887   2.236   3.167   4.420  0.0760  0.8639 -0.1846
 7530SOL    MW429888   2.237   3.136   4.339 -0.8574 -0.2828  0.3961
 7531SOL     OW29889   3.226   1.325   0.861  0.3998  0.8545  0.3476
 7531SOL    HW229890   3.190   1.238   0.871  0.6138  0.6528 -0.5928
 7531SOL    HW329891   3.150   1.382   0.848  0.1661  1.0067  2.0720
 7531SOL    MW429892   3.211   1.321   0.861  0.0618 -0.0446 -0.2169
 7532SOL     OW29893   1.607   4.946   5.651  0.2287  0.1110 -0.0938
 7532SOL    HW229894   1.517   4.927   5.624  0.6852  1.0393 -2.4928
 7532SOL    HW329895   1.647   4.860   5.661 -0.7255 -0.3030  0.3174
 7532SOL    MW429896   1.600   4.932   5.649  0.1505  0.1577 -0.0112
 7533SOL     OW29897   5.515   2.147   0.883 -0.0274 -0.0238 -0.1433
 7533SOL    HW229898   5.504   2.120   0.974 -0.3964  0.3866 -0.0610
 7533SOL    HW329899   5.550   2.236   0.888 -1.3242  0.5276 -0.3771
 7533SOL    MW429900   5.518   2.155   0.896 -0.3603  0.4397 -0.6657
 7534SOL     OW29901   1.236   4.410   5.198  0.4315 -0.1278  0.4612
 7534SOL    HW229902   1.178   4.400   5.273 -1.2276  0.2429 -0.6980
 7534SOL    HW329903   1.232   4.325   5.154 -0.0548  0.2101 -0.1657
 7534SOL    MW429904   1.228   4.397   5.202 -0.2511  0.4075  0.8828
 7535SOL     OW29905   5.716   1.044   3.463  0.8172 -0.1131  0.2297
 7535SOL    HW229906   5.775   1.000   3.525  0.1239 -1.2345  0.1295
 7535SOL    HW329907   5.713   1.135   3.493  1.6172 -0.3134  0.9771
 7535SOL    MW429908   5.724   1.050   3.475  0.0284  0.2629  0.1016
 7536SOL     OW29909   2.900   6.100   1.878  0.4816  0.0722  0.0024
 7536SOL    HW229910   2.939   6.032   1.932 -1.0101 -1.5486 -0.8507
 7536SOL    HW329911   2.858   6.159   1.940 -0.3887 -1.2268  0.6909
 7536SOL    MW429912   2.899   6.099   1.893  0.1887 -0.8325 -0.0683
 7537SOL     OW29913   1.321   4.570   4.341  0.5526 -0.4357  0.0225
 7537SOL    HW229914   1.345   4.506   4.274 -0.4752  0.6826 -1.4730
 7537SOL    HW329915   1.252   4.526   4.391 -0.8683 -0.2026 -1.6252
 7537SOL    MW429916   1.315   4.556   4.339 -0.1026  0.4065  0.8232
 7538SOL     OW29917   5.192   3.081   5.705  0.2366 -0.0363  0.2011
 7538SOL    HW229918   5.147   3.000   5.685  0.2431  0.4543 -2.1498
 7538SOL    HW329919   5.149   3.115   5.783 -1.3274 -1.1512 -0.1349
 7538SOL    MW429920   5.181   3.075   5.713  0.2047 -0.6050 -0.2227
 7539SOL     OW29921   2.364   0.975   4.631  0.1575 -0.2141  0.2443
 7539SOL    HW229922   2.398   1.065   4.631  1.3933 -0.6351 -1.0941
 7539SOL    HW329923   2.438   0.922   4.661 -0.7863 -0.7331  1.7129
 7539SOL    MW429924   2.379   0.980   4.635  0.1128  0.1088  0.2031
 7540SOL     OW29925   2.120   4.778   2.485 -0.0215  0.0431  0.2808
 7540SOL    HW229926   2.177   4.769   2.561 -1.1794 -1.6109  1.0145
 7540SOL    HW329927   2.090   4.689   2.467 -0.7805  0.5852 -1.3409
 7540SOL    MW429928   2.124   4.765   2.493  0.1622  0.0433  0.2705
 7541SOL     OW29929   1.878   3.287   3.937 -0.7325  0.1233 -0.0736
 7541SOL    HW229930   1.810   3.271   4.002 -1.0477  1.2411 -0.1045
 7541SOL    HW329931   1.948   3.331   3.985 -0.2609 -0.5180 -0.1584
 7541SOL    MW429932   1.878   3.291   3.952 -0.0706  0.1799  0.1014
 7542SOL     OW29933   3.959   2.176   1.217 -0.2302  0.6088  0.0665
 7542SOL    HW229934   3.981   2.088   1.245  1.0776  0.4129 -1.4398
 7542SOL    HW329935   3.909   2.213   1.290 -1.7552 -1.7263  0.3075
 7542SOL    MW429936   3.955   2.169   1.230 -0.2899 -0.0690  0.3760
 7543SOL     OW29937   2.602   6.159   3.128  0.5428  0.0765  0.3389
 7543SOL    HW229938   2.606   6.244   3.084 -0.6148  0.1582  0.3706
 7543SOL    HW329939   2.509   6.146   3.148  0.4816 -1.8040 -0.8747
 7543SOL    MW429940   2.590   6.168   3.125 -0.2057  0.0138  0.3883
 7544SOL     OW29941   3.242   4.884   5.313 -0.0448  0.3217  0.5302
 7544SOL    HW229942   3.198   4.935   5.381  1.3697  0.9488  1.0002
 7544SOL    HW329943   3.321   4.852   5.355  0.3760 -0.0797 -0.5491
 7544SOL    MW429944   3.246   4.887   5.328 -0.2449 -0.6467  0.4667
 7545SOL     OW29945   1.489   0.066   6.176  0.4172  0.0843  0.1331
 7545SOL    HW229946   1.479   0.058   6.271 -0.9846  0.7867  0.0624
 7545SOL    HW329947   1.584   0.065   6.162  0.6407 -0.2067  1.5121
 7545SOL    MW429948   1.500   0.065   6.186 -0.0017 -0.2162  0.7868
 7546SOL     OW29949   2.484   3.090   3.443  0.0321  0.4459  1.0520
 7546SOL    HW229950   2.445   3.122   3.362  0.0599 -2.9517 -0.4469
 7546SOL    HW329951   2.412   3.049   3.491  0.6060 -0.4331  1.1831
 7546SOL    MW429952   2.470   3.089   3.439 -0.5586  0.0955 -0.6387
 7547SOL     OW29953   5.631   5.896   0.350 -0.1474  0.3859  0.2686
 7547SOL    HW229954   5.537   5.890   0.366 -0.1404  0.3410  0.2935
 7547SOL    HW329955   5.638   5.939   0.265 -0.1667  1.8277  0.9559
 7547SOL    MW429956   5.620   5.901   0.341 -0.2394  0.2853  0.0146
 7548SOL     OW29957   6.363   0.062   6.353  0.8275  0.6014 -0.5817
 7548SOL    HW229958   6.400   0.147   6.376  0.3451  0.4365  0.8861
 7548SOL    HW329959   6.269   0.071   6.370  0.4044  0.4445 -2.5368
 7548SOL    MW429960   6.355   0.074   6.358  0.3925  0.1031  0.2230
 7549SOL     OW29961   1.653   2.261   2.691 -0.2458  0.3342  0.1390
 7549SOL    HW229962   1.725   2.234   2.748  0.5675 -1.7351 -1.6859
 7549SOL    HW329963   1.666   2.355   2.678  1.8958  0.1005  0.2237
 7549SOL    MW429964   1.664   2.270   2.697  0.0435  0.0751  0.0514
 7550SOL     OW29965   4.633   1.037   0.275  0.2618 -0.2749 -0.1260
 7550SOL    HW229966   4.643   1.115   0.221 -1.2138 -0.7108 -1.0905
 7550SOL    HW329967   4.627   0.965   0.212  1.4281 -1.1718  0.7385
 7550SOL    MW429968   4.634   1.038   0.259 -0.1156 -0.5803  0.0095
 7551SOL     OW29969   6.393   3.783   0.931  0.4770  0.1001  0.1079
 7551SOL    HW229970   6.395   3.694   0.966 -0.1725  0.2932  0.6589
 7551SOL    HW329971   6.418   3.773   0.839 -2.1475 -1.0307 -0.5827
 7551SOL    MW429972   6.397   3.770   0.923 -0.0974 -0.0098  0.9981
 7552SOL     OW29973   0.046   1.883   1.053  0.7531  0.2243 -0.5569
 7552SOL    HW229974   0.092   1.800   1.044 -0.0066 -0.3210  0.4200
 7552SOL    HW329975   0.070   1.933   0.975  0.7456 -1.1341 -1.4410
 7552SOL    MW429976   0.055   1.879   1.042 -0.0238 -0.5332 -0.3326
 7553SOL     OW29977   1.320   3.914   1.326 -0.2611  0.0325  0.0946
 7553SOL    HW229978   1.412   3.889   1.328 -0.1089  0.4450 -1.1138
 7553SOL    HW329979   1.314   3.981   1.258 -1.6994 -1.0553 -0.9189
 7553SOL    MW429980   1.331   3.920   1.317 -0.1897  0.3523 -0.3023
 7554SOL     OW29981   1.577   5.622   2.488  0.2489 -0.3657 -0.1598
 7554SOL    HW229982   1.637   5.651   2.557  0.9125 -1.1154 -0.4078
 7554SOL    HW329983   1.598   5.678   2.413  2.6998 -2.4681 -1.1833
 7554SOL    MW429984   1.588   5.633   2.487 -0.1591 -0.4184  0.2913
 7555SOL     OW29985   2.964   0.121   1.460  0.4249  0.2451  0.3988
 7555SOL    HW229986   2.900   0.174   1.507  0.4924  0.7941 -0.1087
 7555SOL    HW329987   3.049   0.157   1.486  0.4983 -0.0214  0.5310
 7555SOL    MW429988   2.967   0.133   1.470 -0.8127  0.3603  0.1907
 7556SOL     OW29989   3.565   2.983   2.757 -0.0716 -0.3081 -0.5005
 7556SOL    HW229990   3.564   2.890   2.781 -0.6611  0.0932  1.1860
 7556SOL    HW329991   3.624   3.023   2.820  1.0181  0.3279 -1.8904
 7556SOL    MW429992   3.572   2.976   2.769  0.1720 -0.0507 -0.9185
 7557SOL     OW29993   4.939   3.254   3.181 -0.5190  0.6499  0.0720
 7557SOL    HW229994   5.001   3.322   3.209 -1.0966  1.5364 -0.7334
 7557SOL    HW329995   4.942   3.188   3.250 -1.4536  2.4577  1.9315
 7557SOL    MW429996   4.948   3.254   3.193 -0.1199  0.0094  0.0647
 7558SOL     OW29997   5.036   1.337   2.420  0.0880  0.4567  0.3426
 7558SOL    HW229998   5.068   1.356   2.332  0.7560  0.2790  0.5417
 7558SOL    HW329999   4.970   1.269   2.408 -0.8330  1.4117 -0.1585
 7558SOL    MW430000   5.031   1.331   2.407 -0.2972  0.0969 -0.5918
 7559SOL     OW30001   2.348   3.994   0.893 -0.5863  0.4121  0.4626
 7559SOL    HW230002   2.392   3.917   0.929  0.9393  0.4905 -1.0999
 7559SOL    HW330003   2.352   4.059   0.963 -0.0794 -0.2779  1.0946
 7559SOL    MW430004   2.354   3.992   0.907  0.1662  0.2658 -0.2635
 7560SOL     OW30005   2.235   3.792   4.112 -0.4902 -0.3628  0.2208
 7560SOL    HW230006   2.295   3.850   4.064  0.5669  0.2901  2.2029
 7560SOL    HW330007   2.154   3.843   4.119 -1.1498 -1.0182 -1.9770
 7560SOL    MW430008   2.233   3.807   4.107  0.0475  0.2780 -0.5749
 7561SOL     OW30009   5.489   3.183   6.325 -0.0849  0.4172  0.7573
 7561SOL    HW230010   5.486   3.205   6.232 -1.0215  1.6424  1.0587
 7561SOL    HW330011   5.582   3.164   6.341 -0.0667 -0.9391 -0.6388
 7561SOL    MW430012   5.501   3.183   6.315  0.5176 -0.0441  0.7515
 7562SOL     OW30013   4.907   4.970   3.998 -0.4451  0.3927  0.3967
 7562SOL    HW230014   4.823   4.944   3.960 -0.5574  3.5473 -1.8749
 7562SOL    HW330015   4.960   4.996   3.923  0.5413  3.7589  2.0851
 7562SOL    MW430016   4.903   4.970   3.983  0.2999 -0.4694 -0.1373
 7563SOL     OW30017   5.258   6.344   1.123 -0.0772  0.1755  0.4064
 7563SOL    HW230018   5.208   6.351   1.041  1.2685 -0.6149 -0.5282
 7563SOL    HW330019   5.334   6.401   1.109  1.7420 -2.2203 -0.1800
 7563SOL    MW430020   5.262   6.352   1.110 -0.6239  0.4084 -0.4451
 7564SOL     OW30021   1.498   6.242   5.878 -0.0315  0.4561  0.0081
 7564SOL    HW230022   1.470   6.267   5.966 -0.1565  0.2661  0.0216
 7564SOL    HW330023   1.528   6.324   5.839  0.7901  0.4100  0.5136
 7564SOL    MW430024   1.499   6.256   5.884 -0.4366 -0.4591 -0.4039
 7565SOL     OW30025   3.182   3.656   3.619 -0.4006 -0.0529  0.2571
 7565SOL    HW230026   3.263   3.606   3.613 -0.7379 -0.6918  0.8303
 7565SOL    HW330027   3.160   3.678   3.529  0.6656  0.5525  0.1351
 7565SOL    MW430028   3.190   3.652   3.606  0.5719 -0.4110 -0.0423
 7566SOL     OW30029   3.482   5.839   1.894 -0.1358 -0.2229  0.3322
 7566SOL    HW230030   3.400   5.825   1.939 -0.7131  3.0777  0.6092
 7566SOL    HW330031   3.457   5.867   1.806  0.8262 -2.0175 -0.5586
 7566SOL    MW430032   3.468   5.841   1.888  0.2950  0.0200 -0.0557
 7567SOL     OW30033   0.934   2.176   6.326  1.1922 -0.4426 -0.7923
 7567SOL    HW230034   1.014   2.200   6.279  0.9380 -1.7213 -1.9367
 7567SOL    HW330035   0.964   2.120   6.397  1.6302  1.8850  0.9762
 7567SOL    MW430036   0.949   2.172   6.329 -0.0964 -0.0348 -0.5461
 7568SOL     OW30037   1.187   5.872   2.750  0.2990  0.2572 -0.4599
 7568SOL    HW230038   1.215   5.791   2.792  0.1410  0.2949 -0.2783
 7568SOL    HW330039   1.204   5.859   2.657  0.2042 -0.0099 -0.4397
 7568SOL    MW430040   1.193   5.860   2.744 -0.1429 -0.3186 -0.0900
 7569SOL     OW30041   1.631   4.432   4.009 -0.4137 -0.3397 -0.1215
 7569SOL    HW230042   1.626   4.399   4.098 -0.6529  0.6192  0.2298
 7569SOL    HW330043   1.587   4.517   4.012 -0.1208 -0.1408 -1.0716
 7569SOL    MW430044   1.624   4.439   4.021  0.1743  0.3708  0.7758
 7570SOL     OW30045   2.949   1.010   4.064 -0.1060  0.3140  0.0292
 7570SOL    HW230046   3.030   0.964   4.041 -0.6299 -0.3425 -0.5505
 7570SOL    HW330047   2.973   1.102   4.062  0.3039  0.2074 -1.5168
 7570SOL    MW430048   2.963   1.016   4.061  0.6680  0.6400  0.1779
 7571SOL     OW30049   0.114   5.448   5.584 -0.1032  0.6395  0.0477
 7571SOL    HW230050   0.173   5.424   5.656  1.4954 -0.7651 -1.6211
 7571SOL    HW330051   0.046   5.381   5.586  0.5663 -0.0700 -0.4065
 7571SOL    MW430052   0.112   5.436   5.594  0.1560  0.3114 -0.0663
 7572SOL     OW30053   5.673   5.611   3.282  0.1864 -0.9648  0.1599
 7572SOL    HW230054   5.714   5.615   3.368  0.4659  1.7473 -0.0151
 7572SOL    HW330055   5.745   5.592   3.222  0.7235  0.9233  0.1616
 7572SOL    MW430056   5.688   5.609   3.286  0.4652 -0.2943 -0.5246
 7573SOL     OW30057   0.900   1.757   4.781  0.0546 -0.1831  0.0096
 7573SOL    HW230058   0.870   1.848   4.786  1.1366  0.1361  1.1290
 7573SOL    HW330059   0.878   1.730   4.692 -2.6853  0.3026  0.4545
 7573SOL    MW430060   0.893   1.766   4.770  0.0015  0.0277  0.1282
 7574SOL     OW30061   3.580   4.407   0.782 -0.1241 -0.0211  0.6300
 7574SOL    HW230062   3.669   4.419   0.817  0.0304 -0.2566  0.3177
 7574SOL    HW330063   3.593   4.386   0.690 -0.2298 -4.5202  1.4441
 7574SOL    MW430064   3.593   4.406   0.775 -0.1720  0.2278  0.2808
 7575SOL     OW30065   5.799   0.941   1.638 -0.8385  0.6684  0.2717
 7575SOL    HW230066   5.834   1.014   1.587  1.1877  0.0297  0.6286
 7575SOL    HW330067   5.737   0.898   1.579  0.8478  0.4060 -1.4400
 7575SOL    MW430068   5.796   0.945   1.623 -0.5425 -0.4275  0.1891
 7576SOL     OW30069   3.976   1.337   3.200 -0.0114 -0.0467 -0.1116
 7576SOL    HW230070   4.016   1.252   3.217  0.3085  0.4632  2.0775
 7576SOL    HW330071   3.922   1.324   3.122  0.1154 -2.2129  0.1029
 7576SOL    MW430072   3.974   1.324   3.192 -0.1938 -0.1628  0.2266
 7577SOL     OW30073   3.293   1.719   4.774  0.5483 -0.0264  0.0326
 7577SOL    HW230074   3.300   1.814   4.768 -2.2655  0.2191 -0.3410
 7577SOL    HW330075   3.293   1.689   4.683 -1.2846 -0.0921  0.0277
 7577SOL    MW430076   3.294   1.727   4.761 -0.0296  0.1542  0.4502
 7578SOL     OW30077   0.170   4.837   2.992  0.2435 -0.0892  0.4014
 7578SOL    HW230078   0.215   4.880   3.065 -0.0771  1.0759 -0.0712
 7578SOL    HW330079   0.146   4.751   3.027  0.7092  0.1809  1.4422
 7578SOL    MW430080   0.173   4.831   3.006 -0.1997  0.6552  0.4685
 7579SOL     OW30081   4.866   2.548   3.989  0.0125  0.2945 -0.2637
 7579SOL    HW230082   4.899   2.475   4.042 -0.2477 -0.0358 -0.5506
 7579SOL    HW330083   4.774   2.557   4.015 -1.2515 -2.2610 -3.1556
 7579SOL    MW430084   4.858   2.539   4.000  0.4076  0.6496 -0.0114
 7580SOL     OW30085   1.724   5.086   1.550  0.5978 -0.0343 -0.1212
 7580SOL    HW230086   1.763   5.037   1.622 -0.9696 -2.2205 -0.6262
 7580SOL    HW330087   1.709   5.020   1.482 -0.6720  1.3691 -1.2850
 7580SOL    MW430088   1.727   5.070   1.551 -0.2235 -0.1922 -0.5322
 7581SOL     OW30089   2.091   4.456   2.720 -0.1347 -0.3001 -0.1731
 7581SOL    HW230090   2.026   4.524   2.738  0.0678  0.0672 -0.7902
 7581SOL    HW330091   2.173   4.492   2.751 -0.2267 -0.7908  0.6637
 7581SOL    MW430092   2.093   4.469   2.726  0.3801  0.4954  0.3468
 7582SOL     OW30093   0.080   5.233   1.460  0.1306 -0.1635 -0.1432
 7582SOL    HW230094  -0.010   5.211   1.435  0.2055 -1.1007  0.3759
 7582SOL    HW330095   0.071   5.280   1.543  0.0022  1.4568 -1.0345
 7582SOL    MW430096   0.067   5.237   1.468 -0.2988  0.0127 -0.7064
 7583SOL     OW30097   3.169   2.158   5.232 -0.0114 -0.0342  0.4140
 7583SOL    HW230098   3.258   2.188   5.250 -0.0451 -0.4530  1.3379
 7583SOL    HW330099   3.172   2.129   5.141  0.4271  1.2292  0.0043
 7583SOL    MW430100   3.182   2.158   5.222 -0.7096  0.1357 -0.3595
 7584SOL     OW30101   2.016   3.155   1.995 -0.5855  0.3699 -0.0298
 7584SOL    HW230102   1.927   3.134   2.023 -0.4220  0.2213  0.3762
 7584SOL    HW330103   2.035   3.090   1.927  0.0590 -1.0783  1.4749
 7584SOL    MW430104   2.006   3.144   1.990  0.3635  0.0981 -0.2576
 7585SOL     OW30105   5.736   5.212   0.592 -0.0345  0.0440  0.4954
 7585SOL    HW230106   5.648   5.247   0.597 -0.2961 -0.4776 -0.2304
 7585SOL    HW330107   5.788   5.281   0.551 -0.6571 -0.5654 -1.4254
 7585SOL    MW430108   5.732   5.226   0.587  0.3522  0.7973  0.5001
 7586SOL     OW30109   4.899   0.245   6.309 -0.0634 -0.4773  0.6072
 7586SOL    HW230110   4.906   0.321   6.367  1.3927 -0.2313  0.1613
 7586SOL    HW330111   4.934   0.172   6.361 -1.8775 -0.9818  1.1991
 7586SOL    MW430112   4.905   0.245   6.323 -0.3026 -0.4630 -0.2181
 7587SOL     OW30113   6.090   2.546   5.624 -0.0829 -0.2003 -0.2440
 7587SOL    HW230114   6.150   2.471   5.635  0.3611  0.0611 -0.8156
 7587SOL    HW330115   6.017   2.510   5.573  0.4055 -0.1115 -1.0192
 7587SOL    MW430116   6.089   2.531   5.619  0.6358  0.2715  0.1155
 7588SOL     OW30117   2.077   0.622   4.149  0.1210 -0.2655 -0.2795
 7588SOL    HW230118   2.062   0.562   4.221  0.2765  1.5160  1.3297
 7588SOL    HW330119   2.171   0.617   4.133 -0.1492 -1.9795 -1.6488
 7588SOL    MW430120   2.088   0.614   4.156  0.0856 -0.3686  0.4505
 7589SOL     OW30121   0.031   4.730   0.109 -0.1578 -0.4142  0.2996
 7589SOL    HW230122  -0.009   4.745   0.023  1.3622  0.0582 -0.3617
 7589SOL    HW330123   0.081   4.649   0.098  0.6591  0.0519  0.4861
 7589SOL    MW430124   0.032   4.721   0.096 -0.2903 -0.3562 -0.1923
 7590SOL     OW30125   4.121   5.981   1.874 -0.5517 -0.0724 -0.1431
 7590SOL    HW230126   4.059   5.954   1.942  0.3826 -0.2646  0.6568
 7590SOL    HW330127   4.088   6.066   1.844 -1.9269 -0.7649 -0.6710
 7590SOL    MW430128   4.109   5.989   1.879  0.0245 -0.4977  0.1191
 7591SOL     OW30129   6.012   5.058   0.486  0.5505 -0.0907 -0.1859
 7591SOL    HW230130   5.987   5.066   0.578  0.4963  2.0937 -0.3258
 7591SOL    HW330131   5.928   5.044   0.441  0.6895 -2.3346  0.1402
 7591SOL    MW430132   5.997   5.057   0.492 -0.2210  0.5282  0.3014
 7592SOL     OW30133   0.526   1.268   4.042  0.0889  0.2754  0.0750
 7592SOL    HW230134   0.516   1.175   4.023 -1.4275  0.4294 -0.0046
 7592SOL    HW330135   0.535   1.309   3.956 -0.4281  0.3179  0.0388
 7592SOL    MW430136   0.526   1.261   4.029 -0.2293 -0.1689  0.1445
 7593SOL     OW30137   2.135   6.145   4.887 -1.0886 -0.2672  0.2054
 7593SOL    HW230138   2.101   6.231   4.909 -0.6447  0.0907 -0.4602
 7593SOL    HW330139   2.182   6.116   4.965  1.5722  1.5259 -0.6044
 7593SOL    MW430140   2.137   6.152   4.900 -0.3247  0.4401 -0.0299
 7594SOL     OW30141   2.693   0.730   3.228  0.4051  0.4026 -0.1195
 7594SOL    HW230142   2.780   0.698   3.204 -0.0198 -1.3811  0.5332
 7594SOL    HW330143   2.689   0.819   3.192  1.1707 -0.7233 -3.3312
 7594SOL    MW430144   2.704   0.737   3.220 -0.5933  0.0320 -0.1052
 7595SOL     OW30145   1.359   5.354   0.214  0.4234  0.0480 -0.2324
 7595SOL    HW230146   1.401   5.423   0.265 -0.0442 -0.3147  0.6547
 7595SOL    HW330147   1.426   5.329   0.150  1.5211 -0.3839  1.0263
 7595SOL    MW430148   1.373   5.360   0.212 -0.4971 -0.0900  0.6045
 7596SOL     OW30149   2.751   2.680   1.127  0.5917  0.0155 -0.0437
 7596SOL    HW230150   2.729   2.718   1.042  0.0492  0.7369  0.4018
 7596SOL    HW330151   2.807   2.605   1.106  0.5405  0.2321 -1.0257
 7596SOL    MW430152   2.755   2.675   1.113 -0.4541 -0.2968 -0.1769
 7597SOL     OW30153   6.322   0.872   4.337  0.1984 -0.5421  0.2211
 7597SOL    HW230154   6.294   0.811   4.269  0.8702  0.0360 -0.5966
 7597SOL    HW330155   6.261   0.858   4.409  1.1779 -3.1942  0.6354
 7597SOL    MW430156   6.310   0.862   4.337 -0.0468  0.4121  0.3015
 7598SOL     OW30157   5.318   4.457   4.754 -0.3380 -0.0291  0.0869
 7598SOL    HW230158   5.383   4.525   4.738  0.2618 -0.5357  0.3390
 7598SOL    HW330159   5.366   4.375   4.745 -1.0455 -0.4278 -0.1842
 7598SOL    MW430160   5.333   4.455   4.750 -0.0513 -0.4223 -0.3761
 7599SOL     OW30161   2.787   2.561   4.229  0.0647 -0.5329  0.1948
 7599SOL    HW230162   2.870   2.598   4.198 -0.3185 -0.3663 -0.6633
 7599SOL    HW330163   2.797   2.556   4.324 -0.0737  2.3934  0.4691
 7599SOL    MW430164   2.799   2.565   4.238  0.6286  0.7723  0.1084
 7600SOL     OW30165   4.712   5.942   5.028 -0.5022 -0.3063 -0.4145
 7600SOL    HW230166   4.626   5.915   5.060 -1.6516  1.5071 -1.7961
 7600SOL    HW330167   4.729   6.026   5.071 -0.0030 -0.0597 -1.0612
 7600SOL    MW430168   4.703   5.950   5.038  0.1657  0.1970  0.6651
 7601SOL     OW30169   4.761   6.351   1.837  0.3953  0.0406  0.2636
 7601SOL    HW230170   4.855   6.333   1.829 -0.1296 -2.9629 -0.0229
 7601SOL    HW330171   4.722   6.306   1.762 -1.5322 -1.2228  1.9332
 7601SOL    MW430172   4.768   6.343   1.826  1.0448 -0.7025 -0.0761
 7602SOL     OW30173   4.654   2.198   2.417 -0.2392 -0.4758 -0.2306
 7602SOL    HW230174   4.728   2.176   2.360  0.2170  0.6552 -0.0951
 7602SOL    HW330175   4.603   2.261   2.367  0.4890  0.9947  0.8186
 7602SOL    MW430176   4.657   2.203   2.403  0.7851 -0.1158 -0.0674
 7603SOL     OW30177   0.828   3.730   3.128 -0.4538  0.0299 -0.4927
 7603SOL    HW230178   0.770   3.772   3.191  0.0075  1.6524 -1.1044
 7603SOL    HW330179   0.821   3.783   3.049 -0.5388 -1.5991 -1.6267
 7603SOL    MW430180   0.819   3.743   3.126  0.3388  0.0189  0.2044
 7604SOL     OW30181   3.799   3.593   4.663  0.1293  0.6918  0.3537
 7604SOL    HW230182   3.730   3.648   4.627 -1.8333 -2.0519 -0.3559
 7604SOL    HW330183   3.872   3.604   4.602 -1.6773 -0.6336 -2.2155
 7604SOL    MW430184   3.800   3.602   4.650 -0.1335 -0.5470  0.0341
 7605SOL     OW30185   3.957   4.551   0.636  0.2653 -0.1173  0.6092
 7605SOL    HW230186   3.937   4.538   0.729 -2.1391 -0.5539  0.0890
 7605SOL    HW330187   3.879   4.592   0.600  1.0052 -0.2896 -1.3138
 7605SOL    MW430188   3.944   4.555   0.644  0.4645  0.1863 -0.0469
 7606SOL     OW30189   4.821   5.112   2.685 -0.1533  0.7042  0.1450
 7606SOL    HW230190   4.898   5.123   2.630 -0.4829  2.3382 -0.0317
 7606SOL    HW330191   4.747   5.124   2.626 -0.5157  1.6215  0.7778
 7606SOL    MW430192   4.821   5.115   2.670  0.0268 -0.0805  0.6015
 7607SOL     OW30193   3.035   6.187   1.239 -0.4016  0.1673 -0.2974
 7607SOL    HW230194   3.044   6.229   1.325 -2.3061  0.6853 -0.3000
 7607SOL    HW330195   3.001   6.100   1.258 -0.4268  0.1314 -0.5034
 7607SOL    MW430196   3.032   6.181   1.253  0.0645  0.0962 -0.4007
 7608SOL     OW30197   6.195   4.305   2.541  0.0254  0.4066  0.6547
 7608SOL    HW230198   6.116   4.252   2.528  0.7084 -0.1948 -1.3500
 7608SOL    HW330199   6.198   4.364   2.466  1.8426 -0.0865  0.2777
 7608SOL    MW430200   6.185   4.306   2.529  0.2339 -0.2967 -0.0151
 7609SOL     OW30201   1.339   2.308   0.050  0.5448 -0.5811  0.2624
 7609SOL    HW230202   1.333   2.311  -0.045 -0.1373 -0.2548  0.3050
 7609SOL    HW330203   1.337   2.215   0.072 -3.4249 -0.7127  0.1315
 7609SOL    MW430204   1.338   2.296   0.040  0.7693  0.1818 -0.3122
 7610SOL     OW30205   1.570   1.293   4.091  0.7892  0.2118 -0.9813
 7610SOL    HW230206   1.604   1.223   4.036 -1.3321 -2.8688  1.3306
 7610SOL    HW330207   1.484   1.263   4.118 -0.2662  3.7730  0.2000
 7610SOL    MW430208   1.563   1.280   4.087 -0.7260  0.0432  0.0712
 7611SOL     OW30209   2.002   1.689   4.177 -0.5505  0.4157 -0.3279
 7611SOL    HW230210   1.986   1.712   4.268  0.3685  0.3581 -0.1423
 7611SOL    HW330211   2.015   1.772   4.132 -0.5858  0.4215 -0.3278
 7611SOL    MW430212   2.001   1.703   4.183 -0.5487  0.8367  0.2781
 7612SOL     OW30213   5.000   0.829   3.515 -0.1676  0.2503 -0.1226
 7612SOL    HW230214   5.029   0.741   3.492  0.0421  0.7831 -2.0298
 7612SOL    HW330215   5.071   0.865   3.570  0.3731 -0.2796 -0.4726
 7612SOL    MW430216   5.013   0.822   3.519  0.1606  0.4874  0.4708
 7613SOL     OW30217   4.261   3.074   0.903 -0.7248  0.2115 -0.2937
 7613SOL    HW230218   4.215   3.050   0.983  0.5867 -2.3392 -0.2337
 7613SOL    HW330219   4.263   3.170   0.905 -1.5508  0.2463  2.2148
 7613SOL    MW430220   4.255   3.084   0.914 -0.1718 -0.6238  0.0690
 7614SOL     OW30221   2.955   5.436   4.109  0.0517  0.0683  0.1566
 7614SOL    HW230222   2.971   5.345   4.084  0.8049  0.1226  0.4077
 7614SOL    HW330223   2.868   5.456   4.074 -0.0776 -0.7136  0.0125
 7614SOL    MW430224   2.945   5.427   4.101 -0.3399 -0.4346 -0.4990
 7615SOL     OW30225   2.540   0.105   3.967  0.7716  0.1194 -1.1101
 7615SOL    HW230226   2.451   0.140   3.978  0.9552  0.3869 -0.4427
 7615SOL    HW330227   2.528   0.011   3.961  0.3744  0.2058 -1.8179
 7615SOL    MW430228   2.527   0.097   3.967  0.0092 -0.2208 -0.0693
 7616SOL     OW30229   3.318   3.989   4.372 -0.4774 -0.2571 -0.4488
 7616SOL    HW230230   3.311   3.942   4.288 -0.1036 -2.3284  0.6096
 7616SOL    HW330231   3.268   3.935   4.433  2.7934 -1.2087  1.5996
 7616SOL    MW430232   3.311   3.976   4.369  0.1087  0.1989 -0.1716
 7617SOL     OW30233   0.974   4.640   5.496 -0.6538 -0.1965  0.4851
 7617SOL    HW230234   0.935   4.589   5.567  0.9826  1.1969  2.5207
 7617SOL    HW330235   0.913   4.713   5.483 -0.0447  0.6226  1.9235
 7617SOL    MW430236   0.960   4.643   5.504  0.0902  0.3031 -0.3671
 7618SOL     OW30237   5.193   5.983   0.905 -0.2462 -0.7668  0.1386
 7618SOL    HW230238   5.226   6.036   0.978 -0.5227  0.4509 -0.5906
 7618SOL    HW330239   5.169   5.899   0.945  1.9403 -1.0403  1.0164
 7618SOL    MW430240   5.194   5.979   0.920  0.3026 -0.1516 -0.6082
 7619SOL     OW30241   1.389   3.071   5.666  0.0204  0.4280 -0.2384
 7619SOL    HW230242   1.315   3.130   5.658 -0.6886 -0.4159 -0.0731
 7619SOL    HW330243   1.449   3.115   5.727  0.2832  1.7197 -1.4000
 7619SOL    MW430244   1.387   3.085   5.673 -0.2479 -0.5100 -0.0950
 7620SOL     OW30245   1.732   5.804   5.591  0.0092 -0.1013 -0.8082
 7620SOL    HW230246   1.803   5.796   5.528  0.3447  2.3700 -0.8417
 7620SOL    HW330247   1.770   5.773   5.674  0.6043 -0.2636 -1.1400
 7620SOL    MW430248   1.746   5.799   5.594 -0.2594 -0.0398  0.0299
 7621SOL     OW30249   1.046   0.987   5.668 -0.8381  0.0704 -0.1911
 7621SOL    HW230250   0.981   0.921   5.643 -0.9350  0.6570 -1.5374
 7621SOL    HW330251   1.082   0.954   5.751 -1.0106 -1.5774 -0.7333
 7621SOL    MW430252   1.042   0.974   5.676 -0.4501 -0.5455  0.5024
 7622SOL     OW30253   0.001   3.330   2.336  0.0208 -0.2006  0.0936
 7622SOL    HW230254  -0.025   3.276   2.411 -0.0439 -0.5210 -0.1560
 7622SOL    HW330255  -0.081   3.363   2.300  0.1322  1.3770  1.1925
 7622SOL    MW430256  -0.013   3.327   2.341 -0.3812 -0.0595  0.4927
 7623SOL     OW30257   4.438   2.739   4.900  0.1855  0.4793 -0.5092
 7623SOL    HW230258   4.467   2.741   4.808 -0.7901 -1.6231 -0.9113
 7623SOL    HW330259   4.347   2.767   4.897  0.5118  1.6915  0.0405
 7623SOL    MW430260   4.430   2.743   4.887 -0.7970  0.0284  0.0135
 7624SOL     OW30261   1.116   4.123   2.063  0.6535  0.4301 -0.2136
 7624SOL    HW230262   1.064   4.191   2.020  0.3295  0.1574 -0.2548
 7624SOL    HW330263   1.120   4.149   2.155 -0.3512 -0.0417 -0.0304
 7624SOL    MW430264   1.110   4.135   2.069 -0.1145  0.1474  0.2292
 7625SOL     OW30265   6.162   5.531   2.395  0.2360  0.0753  0.5939
 7625SOL    HW230266   6.257   5.528   2.408  0.5785 -1.0180 -1.6059
 7625SOL    HW330267   6.133   5.606   2.446  2.3652  0.8128  0.8305
 7625SOL    MW430268   6.171   5.540   2.403  0.4429  0.7224 -0.8501
 7626SOL     OW30269   3.244   6.029   0.797  0.7025  0.8624  0.5324
 7626SOL    HW230270   3.166   6.013   0.850  0.3827  0.0081 -0.1670
 7626SOL    HW330271   3.307   5.962   0.825  0.7216  0.7412  0.2027
 7626SOL    MW430272   3.242   6.018   0.808 -0.4628  0.4698  0.2070
 7627SOL     OW30273   5.912   4.633   3.609 -0.4271  0.7704 -0.3291
 7627SOL    HW230274   5.906   4.540   3.630 -0.9225  0.7393 -0.5931
 7627SOL    HW330275   5.833   4.652   3.559 -1.3208  1.7648  1.3586
 7627SOL    MW430276   5.901   4.623   3.605  0.5412 -0.2665 -0.3886
 7628SOL     OW30277   3.990   5.081   0.825  0.1772  0.7131  0.6324
 7628SOL    HW230278   4.081   5.108   0.812  0.9494 -1.6673  0.6034
 7628SOL    HW330279   3.974   5.093   0.918  0.2152  1.9204  0.5020
 7628SOL    MW430280   4.000   5.086   0.835  0.3114  0.2592 -0.2574
 7629SOL     OW30281   2.766   1.712   1.484  0.1509 -0.2819 -0.5608
 7629SOL    HW230282   2.734   1.773   1.551  1.8844 -0.5652  0.5868
 7629SOL    HW330283   2.731   1.746   1.402 -1.3269  0.5710  0.3768
 7629SOL    MW430284   2.757   1.724   1.482 -0.2533  0.4566  0.3423
 7630SOL     OW30285   5.555   0.459   0.673  0.4534  0.4960  0.3325
 7630SOL    HW230286   5.544   0.440   0.580  1.5297  0.7000  0.1533
 7630SOL    HW330287   5.649   0.476   0.684  0.0725  2.3041  1.1135
 7630SOL    MW430288   5.566   0.459   0.662 -0.2218 -0.5080 -0.2798
 7631SOL     OW30289   2.636   6.101   3.725 -0.3630  0.2383 -0.2004
 7631SOL    HW230290   2.592   6.023   3.690  1.3214 -0.6187 -0.5328
 7631SOL    HW330291   2.570   6.143   3.779 -1.1698 -1.7780  0.4982
 7631SOL    MW430292   2.622   6.096   3.728 -0.2907 -0.3478  0.0145
 7632SOL     OW30293   4.979   4.469   6.121 -0.3360 -0.0532  0.4801
 7632SOL    HW230294   4.994   4.504   6.033 -1.7384  0.2669  0.3432
 7632SOL    HW330295   4.942   4.382   6.106  0.3912 -0.4275  0.7866
 7632SOL    MW430296   4.976   4.462   6.107  0.2178  0.2504 -0.1327
 7633SOL     OW30297   5.556   2.310   6.244 -0.3367  0.5164 -0.4267
 7633SOL    HW230298   5.508   2.235   6.209  0.6277 -0.4153  0.1865
 7633SOL    HW330299   5.644   2.277   6.260  0.3147  1.9772 -0.7954
 7633SOL    MW430300   5.562   2.296   6.242  0.4998  0.2319  0.6965
 7634SOL     OW30301   1.828   2.983   2.643 -0.3308 -0.3783  0.0872
 7634SOL    HW230302   1.786   2.984   2.729  0.0763 -1.1493  0.3067
 7634SOL    HW330303   1.906   3.037   2.654 -0.0450 -0.8325  0.3343
 7634SOL    MW430304   1.833   2.990   2.656 -0.0526 -0.2535 -0.1003
 7635SOL     OW30305   0.307   4.095   5.403 -0.6397 -0.2249 -0.3243
 7635SOL    HW230306   0.347   4.182   5.413 -0.3664 -0.2220 -1.3929
 7635SOL    HW330307   0.219   4.113   5.372 -0.0613 -0.3607 -2.1333
 7635SOL    MW430308   0.301   4.109   5.400  0.8501  0.0787 -0.1102
 7636SOL     OW30309   2.466   2.164   4.663  0.4865  0.5689  0.1882
 7636SOL    HW230310   2.471   2.208   4.578 -1.9755 -0.8547 -0.7986
 7636SOL    HW330311   2.530   2.094   4.658  0.0622  0.2392 -0.6703
 7636SOL    MW430312   2.475   2.161   4.651 -0.4695 -0.6674  0.1932
 7637SOL     OW30313   3.198   0.666   3.814 -0.5613  0.0422 -0.0649
 7637SOL    HW230314   3.210   0.571   3.806  0.8467  0.1809  0.2229
 7637SOL    HW330315   3.233   0.701   3.732 -0.0513  0.3914  0.3023
 7637SOL    MW430316   3.204   0.658   3.802 -0.2345  0.4533 -0.2215
 7638SOL     OW30317   6.325   3.114   0.892  0.1352  0.0891 -0.3188
 7638SOL    HW230318   6.357   3.028   0.863  0.0435 -0.5998  1.5155
 7638SOL    HW330319   6.401   3.157   0.929 -0.4747 -0.5788  1.8307
 7638SOL    MW430320   6.339   3.108   0.893 -0.2418 -0.3402  0.7593
 7639SOL     OW30321   6.004   2.923   1.066  0.0299  0.1663 -0.0371
 7639SOL    HW230322   6.078   2.865   1.084 -1.7707 -2.1279  0.3840
 7639SOL    HW330323   6.041   3.012   1.072  2.3558 -0.8288  1.7885
 7639SOL    MW430324   6.019   2.927   1.069  0.6608  0.3645 -0.0056
 7640SOL     OW30325   4.057   2.461   0.072  0.3315  0.5788 -0.0531
 7640SOL    HW230326   4.011   2.424  -0.003 -1.0210  1.2429  0.4249
 7640SOL    HW330327   4.090   2.384   0.120 -1.8848 -0.0423  0.5851
 7640SOL    MW430328   4.056   2.446   0.069 -0.1405  0.2881 -0.1673
 7641SOL     OW30329   2.140   0.346   4.756 -0.4459 -0.0859 -0.0641
 7641SOL    HW230330   2.111   0.437   4.759 -0.9208 -0.2600  1.0079
 7641SOL    HW330331   2.216   0.347   4.698 -1.7672  0.6032 -1.8896
 7641SOL    MW430332   2.146   0.358   4.749  0.0200 -0.2193 -0.4462
 7642SOL     OW30333   0.374   4.021   4.226 -0.0426  0.2459 -0.2633
 7642SOL    HW230334   0.434   3.962   4.271 -0.6588 -1.2734 -1.3376
 7642SOL    HW330335   0.332   4.071   4.296  0.6511 -0.4499  0.6659
 7642SOL    MW430336   0.376   4.020   4.241  0.3398 -0.1526  0.2285
 7643SOL     OW30337   1.948   4.910   4.020 -0.3963 -0.4118 -0.3340
 7643SOL    HW230338   2.030   4.952   4.046 -0.7896 -0.0301  0.3471
 7643SOL    HW330339   1.959   4.889   3.927 -0.0547  0.8978 -0.6040
 7643SOL    MW430340   1.960   4.913   4.011  0.3317 -0.1517 -0.0839
 7644SOL     OW30341   1.917   2.851   0.944  0.0499  0.1849  0.3029
 7644SOL    HW230342   1.841   2.867   1.000  0.2958  2.6283  0.0464
 7644SOL    HW330343   1.900   2.903   0.865  0.0105 -2.6444 -1.7433
 7644SOL    MW430344   1.905   2.860   0.941  0.0828 -0.2773 -0.0353
 7645SOL     OW30345   5.616   5.768   4.043  0.4904 -0.2724  0.7293
 7645SOL    HW230346   5.650   5.843   4.091  0.4795 -0.2672  0.7287
 7645SOL    HW330347   5.690   5.735   3.993  0.1598  0.6090 -0.3880
 7645SOL    MW430348   5.630   5.774   4.042  0.4945  0.1239 -0.0837
 7646SOL     OW30349   4.405   3.198   2.593  0.1270  0.6497 -0.5096
 7646SOL    HW230350   4.478   3.232   2.645 -0.9759  2.9994 -0.3574
 7646SOL    HW330351   4.337   3.179   2.658  0.4732 -1.3193 -0.6698
 7646SOL    MW430352   4.406   3.200   2.608  0.3329  0.4963 -0.0855
 7647SOL     OW30353   2.145   5.644   6.220 -0.1513 -0.3628 -0.2286
 7647SOL    HW230354   2.122   5.578   6.155 -0.2200 -1.8468  1.2350
 7647SOL    HW330355   2.131   5.601   6.304  0.3386  1.3490  0.7810
 7647SOL    MW430356   2.140   5.630   6.223 -0.8201 -0.3113  0.2318
 7648SOL     OW30357   3.581   3.279   3.840 -0.0176 -0.3917 -0.1601
 7648SOL    HW230358   3.676   3.266   3.829  0.3643  0.9140  1.2199
 7648SOL    HW330359   3.549   3.297   3.751  1.4898  1.7171 -0.3643
 7648SOL    MW430360   3.590   3.280   3.827  0.1830 -0.0341 -0.2029
 7649SOL     OW30361   4.465   1.609   6.123  0.3505  1.0531 -0.2066
 7649SOL    HW230362   4.560   1.598   6.127  0.0375 -1.9345  1.7360
 7649SOL    HW330363   4.439   1.564   6.043  0.3426 -1.1153  0.9517
 7649SOL    MW430364   4.474   1.602   6.113 -0.0165  0.0339 -0.5653
 7650SOL     OW30365   0.266   5.047   5.295 -0.0890  0.0959 -0.0248
 7650SOL    HW230366   0.350   5.065   5.335  0.1199  3.0154 -1.4490
 7650SOL    HW330367   0.271   4.955   5.268  2.4849  0.0822  0.2367
 7650SOL    MW430368   0.278   5.037   5.296  0.5873  0.0668 -0.4587
 7651SOL     OW30369   2.179   4.510   0.034 -0.2474 -0.3839 -0.1014
 7651SOL    HW230370   2.235   4.496   0.110 -1.4107 -1.5370  0.5927
 7651SOL    HW330371   2.146   4.599   0.044  2.2386  0.7374 -1.1062
 7651SOL    MW430372   2.182   4.520   0.045 -0.5733 -0.1252  0.0483
 7652SOL     OW30373   4.113   5.625   6.180  0.3151 -0.4008  0.5888
 7652SOL    HW230374   4.094   5.569   6.256  1.7572 -0.8618  0.6268
 7652SOL    HW330375   4.090   5.713   6.210 -0.6024 -0.7714  1.0226
 7652SOL    MW430376   4.107   5.629   6.194  0.4410 -0.9675 -0.1523
 7653SOL     OW30377   1.669   3.682   3.319 -0.1326 -0.2897 -0.2042
 7653SOL    HW230378   1.689   3.763   3.271 -1.6693  0.5027  0.4336
 7653SOL    HW330379   1.743   3.624   3.299  0.9864  1.2367 -0.7255
 7653SOL    MW430380   1.682   3.685   3.310 -0.0615 -0.2798 -0.4578
 7654SOL     OW30381   4.900   5.783   1.577 -0.3903  0.1244 -0.3109
 7654SOL    HW230382   4.925   5.790   1.485 -1.8152  2.0521 -0.6319
 7654SOL    HW330383   4.971   5.825   1.624 -0.7949  1.4130 -0.7977
 7654SOL    MW430384   4.912   5.790   1.571  0.3331 -0.2138  0.4599
 7655SOL     OW30385   4.254   0.341   3.988  0.0835 -0.1134  0.2641
 7655SOL    HW230386   4.192   0.277   4.024  0.7270 -0.6764  0.4029
 7655SOL    HW330387   4.244   0.418   4.044 -0.1513 -0.3727  0.5855
 7655SOL    MW430388   4.244   0.343   4.000  0.1306 -0.5261 -0.1303
 7656SOL     OW30389   3.988   1.469   0.942  0.4047  0.8058  0.1589
 7656SOL    HW230390   4.080   1.475   0.968 -0.0054  1.2629  1.5952
 7656SOL    HW330391   3.950   1.551   0.973 -0.8556 -0.1262  1.1271
 7656SOL    MW430392   3.995   1.481   0.949 -0.1967 -0.1551 -0.2741
 7657SOL     OW30393   3.659   0.390   5.863 -0.2059  1.0743  0.0471
 7657SOL    HW230394   3.669   0.462   5.925 -2.2740  1.1203  0.4096
 7657SOL    HW330395   3.637   0.432   5.780  0.7072  0.9353 -0.2734
 7657SOL    MW430396   3.658   0.405   5.860 -0.4445 -0.0383 -0.3770
 7658SOL     OW30397   1.494   5.108   1.699  0.0549  0.0838 -0.3155
 7658SOL    HW230398   1.513   5.042   1.766 -0.4670 -0.5446 -0.7622
 7658SOL    HW330399   1.576   5.117   1.650  0.5668  0.8599  0.6527
 7658SOL    MW430400   1.507   5.100   1.701  0.0482 -0.3655 -0.0644
 7659SOL     OW30401   2.696   0.151   2.570  0.3839 -1.1144  0.4532
 7659SOL    HW230402   2.737   0.093   2.506 -1.4687 -0.1136 -1.7673
 7659SOL    HW330403   2.735   0.126   2.654  1.6295 -3.6689 -0.7942
 7659SOL    MW430404   2.707   0.140   2.573  0.2503  0.4775 -0.0866
 7660SOL     OW30405   1.395   3.666   1.051  0.7394  0.7603  0.0192
 7660SOL    HW230406   1.406   3.758   1.072  2.0485  0.7099 -0.3608
 7660SOL    HW330407   1.321   3.637   1.105  0.2431  2.0413  0.0507
 7660SOL    MW430408   1.387   3.674   1.061  0.1111 -0.1486 -1.0027
 7661SOL     OW30409   6.282   5.486   2.033  0.1290 -0.5727 -0.1909
 7661SOL    HW230410   6.295   5.391   2.038  0.2564 -0.4824  2.0804
 7661SOL    HW330411   6.187   5.496   2.035  0.1368 -0.6262  0.7592
 7661SOL    MW430412   6.271   5.475   2.034  0.3796  0.2697 -0.1161
 7662SOL     OW30413   2.224   5.020   3.996  0.1701 -0.3550  0.3172
 7662SOL    HW230414   2.249   5.103   3.956 -2.2360  1.1410  1.6449
 7662SOL    HW330415   2.306   4.985   4.032  1.1044  2.0810  0.7731
 7662SOL    MW430416   2.238   5.027   3.996  0.4117 -0.4696 -0.5354
 7663SOL     OW30417   0.293   0.843   2.748 -0.3265  0.7521  0.7914
 7663SOL    HW230418   0.372   0.795   2.771  0.5102  0.4422 -2.2359
 7663SOL    HW330419   0.221   0.782   2.768  0.5613 -0.8934 -0.7374
 7663SOL    MW430420   0.294   0.828   2.753  0.6235  0.0226  0.1795
 7664SOL     OW30421   0.150   1.460   1.204  0.1950 -0.6650 -0.5648
 7664SOL    HW230422   0.103   1.462   1.288  1.0548 -0.6619 -0.0680
 7664SOL    HW330423   0.083   1.481   1.139 -0.9609 -2.6837 -0.1094
 7664SOL    MW430424   0.135   1.463   1.206  0.2510  0.1643  0.3443
 7665SOL     OW30425   6.006   6.228   5.168  0.0062 -0.2895  0.0430
 7665SOL    HW230426   5.966   6.277   5.096 -0.7403  0.1393  0.7389
 7665SOL    HW330427   5.953   6.148   5.174  0.1621 -0.3940  0.0253
 7665SOL    MW430428   5.994   6.224   5.159 -0.2866  0.8688  0.9780
 7666SOL     OW30429   2.578   4.499   4.226  0.1702 -0.9364 -0.7232
 7666SOL    HW230430   2.491   4.506   4.266 -0.1492 -1.5147 -1.3043
 7666SOL    HW330431   2.635   4.549   4.285 -0.2236 -2.0190  0.6538
 7666SOL    MW430432   2.574   4.506   4.239  0.3961  0.3590 -0.4349
 7667SOL     OW30433   2.230   4.519   3.033 -0.5831 -0.1773 -0.2593
 7667SOL    HW230434   2.159   4.584   3.030 -1.0634 -0.6597  0.4594
 7667SOL    HW330435   2.284   4.545   3.107 -0.5189 -0.3366 -0.2504
 7667SOL    MW430436   2.228   4.531   3.042 -0.3596  0.4611  0.2441
 7668SOL     OW30437   4.140   2.429   5.903  0.2449 -0.3302 -0.2739
 7668SOL    HW230438   4.154   2.521   5.878 -0.0155 -0.7655 -2.1593
 7668SOL    HW330439   4.144   2.430   5.999  2.1788  1.3250 -0.2947
 7668SOL    MW430440   4.142   2.441   5.912 -0.4793  0.0888  0.3688
 7669SOL     OW30441   0.304   2.942   6.384  0.7794  0.2794 -0.2495
 7669SOL    HW230442   0.337   2.855   6.403 -1.8253 -0.9358 -0.7885
 7669SOL    HW330443   0.312   2.951   6.289  0.2574  0.2552 -0.3003
 7669SOL    MW430444   0.309   2.932   6.374  0.2269 -0.1044  0.0591
 7670SOL     OW30445   1.042   3.918   1.381 -0.4904 -0.3636  0.4930
 7670SOL    HW230446   1.137   3.914   1.380 -0.3898  1.2210 -0.6931
 7670SOL    HW330447   1.021   4.008   1.405 -1.6748 -0.5579  0.2914
 7670SOL    MW430448   1.052   3.929   1.384 -0.8848 -1.0269  0.1972
 7671SOL     OW30449   3.463   4.614   3.992  0.4318  0.3866 -0.4004
 7671SOL    HW230450   3.494   4.585   3.906  2.3673  1.1976 -0.0354
 7671SOL    HW330451   3.472   4.537   4.048  0.7812  0.3179 -0.5489
 7671SOL    MW430452   3.469   4.600   3.988  0.1028  0.3382 -0.0882
 7672SOL     OW30453   4.938   0.066   2.172  0.1674  0.4996 -0.6301
 7672SOL    HW230454   5.020   0.069   2.222  0.0598 -0.9464 -0.3451
 7672SOL    HW330455   4.954   0.126   2.099  0.7642  1.7249  0.4432
 7672SOL    MW430456   4.951   0.074   2.169  0.5744 -0.1959  0.2537
 7673SOL     OW30457   5.812   3.805   4.083 -0.4030 -0.0658  0.0516
 7673SOL    HW230458   5.821   3.710   4.080 -1.7210 -0.1974 -0.3427
 7673SOL    HW330459   5.867   3.832   4.157  1.5398 -0.8975 -1.0002
 7673SOL    MW430460   5.821   3.796   4.093 -0.9930  0.2106 -0.7724
 7674SOL     OW30461   0.242   4.536   3.391 -0.0038 -0.4528 -0.2171
 7674SOL    HW230462   0.169   4.587   3.355 -0.4628 -1.5499 -0.8858
 7674SOL    HW330463   0.320   4.578   3.356 -0.2058  1.3239  1.2443
 7674SOL    MW430464   0.242   4.548   3.382  0.3968 -0.1276  0.2721
 7675SOL     OW30465   2.763   3.704   5.210  0.1964  0.5419 -0.4989
 7675SOL    HW230466   2.830   3.645   5.175  1.3152 -0.2359  2.5823
 7675SOL    HW330467   2.786   3.790   5.175  0.9131 -0.2116 -1.9652
 7675SOL    MW430468   2.775   3.708   5.201  0.1938 -0.0426 -0.1373
 7676SOL     OW30469   2.538   0.030   0.498 -0.0170  0.3535  0.1876
 7676SOL    HW230470   2.620   0.010   0.453 -0.6431 -1.0796 -0.3964
 7676SOL    HW330471   2.555   0.011   0.590  0.6054  1.0890  0.2282
 7676SOL    MW430472   2.551   0.025   0.504  0.4155 -0.0651  0.1540
 7677SOL     OW30473   2.944   2.435   5.827 -0.0704  0.0522  0.0155
 7677SOL    HW230474   3.004   2.471   5.762  1.8213  0.3724  1.8545
 7677SOL    HW330475   2.987   2.451   5.911 -1.9482 -1.2637  1.2960
 7677SOL    MW430476   2.957   2.442   5.829  0.1645 -0.7137  0.5768
 7678SOL     OW30477   1.160   5.238   4.765  0.4859 -0.1232 -0.0133
 7678SOL    HW230478   1.091   5.242   4.699 -0.2269 -1.0759  0.6449
 7678SOL    HW330479   1.165   5.327   4.800 -0.0592  0.0702 -0.4196
 7678SOL    MW430480   1.151   5.250   4.761  0.1794 -0.4162 -0.5380
 7679SOL     OW30481   0.520   4.771   4.472 -0.1237  0.0073 -0.4500
 7679SOL    HW230482   0.500   4.754   4.564  1.9669  0.3961  0.1476
 7679SOL    HW330483   0.435   4.779   4.429 -1.1564  0.4381  1.5700
 7679SOL    MW430484   0.506   4.770   4.479  0.6042 -0.5221 -0.7328
 7680SOL     OW30485   4.440   1.579   1.609  0.0561 -0.4099  0.0539
 7680SOL    HW230486   4.357   1.530   1.606 -1.0122  1.2652  0.9917
 7680SOL    HW330487   4.460   1.597   1.517 -0.4408 -1.1048 -0.2011
 7680SOL    MW430488   4.432   1.575   1.597 -0.7936 -0.4449  0.1599
 7681SOL     OW30489   4.128   6.352   1.607  0.3835  0.8005 -0.1515
 7681SOL    HW230490   4.151   6.356   1.514  0.6138  2.9444 -0.0542
 7681SOL    HW330491   4.194   6.294   1.646 -0.7326 -1.5510 -1.5434
 7681SOL    MW430492   4.140   6.345   1.600 -0.0449  0.4759 -0.2322
 7682SOL     OW30493   2.285   4.080   5.151 -0.5574  0.2494 -0.3609
 7682SOL    HW230494   2.306   4.134   5.227 -0.1096  0.3209 -0.5321
 7682SOL    HW330495   2.364   4.083   5.097 -1.2838  1.1588 -1.3980
 7682SOL    MW430496   2.298   4.087   5.154 -0.0216  0.1539  0.7370
 7683SOL     OW30497   2.871   5.484   0.431 -0.2431  0.2780  0.0630
 7683SOL    HW230498   2.887   5.552   0.496  0.3708 -0.5248  0.7708
 7683SOL    HW330499   2.796   5.517   0.380 -0.5158  1.0724  0.9477
 7683SOL    MW430500   2.863   5.497   0.432  0.0971  0.3370 -0.2673
 7684SOL     OW30501   0.231   0.522   2.593  0.0717 -0.3176  0.3594
 7684SOL    HW230502   0.272   0.462   2.530  0.1115 -0.5108  0.5674
 7684SOL    HW330503   0.255   0.486   2.679  1.4910  0.9037  0.5296
 7684SOL    MW430504   0.240   0.509   2.596  0.5036 -0.0009  0.5334
 7685SOL     OW30505   4.205   1.199   0.164 -0.3348  0.7428 -0.1054
 7685SOL    HW230506   4.125   1.173   0.210  0.6294  0.4403  1.4999
 7685SOL    HW330507   4.262   1.123   0.170  0.6026  1.4424  0.0749
 7685SOL    MW430508   4.202   1.186   0.171 -0.2251  0.3344  0.3654
 7686SOL     OW30509   5.074   5.161   2.560 -0.3001 -0.2522 -0.4740
 7686SOL    HW230510   5.141   5.095   2.579 -1.3102 -1.0148  0.5625
 7686SOL    HW330511   5.031   5.130   2.481  0.6690  0.3453 -1.2623
 7686SOL    MW430512   5.077   5.148   2.552 -0.2273 -0.1468  0.4819
 7687SOL     OW30513   2.583   0.028   0.780  0.5652 -0.1362 -0.3193
 7687SOL    HW230514   2.517   0.015   0.848 -0.5458 -0.1428 -1.3719
 7687SOL    HW330515   2.598   0.122   0.777 -2.4585  0.4186 -2.7919
 7687SOL    MW430516   2.577   0.039   0.788  0.0032 -0.0067  0.4008
 7688SOL     OW30517   4.438   4.888   3.543 -0.0907 -0.2424 -0.2324
 7688SOL    HW230518   4.351   4.902   3.507 -0.1007  0.1491 -0.0686
 7688SOL    HW330519   4.445   4.952   3.614 -0.7366 -2.1084  1.6188
 7688SOL    MW430520   4.428   4.898   3.548 -0.4017 -0.1780  0.1004
 7689SOL     OW30521   0.985   5.053   2.495 -0.6329 -0.3637 -0.1541
 7689SOL    HW230522   0.943   5.127   2.539  0.3050 -0.1094  0.3397
 7689SOL    HW330523   1.033   5.008   2.564 -0.7109 -1.0971 -0.5641
 7689SOL    MW430524   0.986   5.057   2.510 -0.3200  0.3097  0.0151
 7690SOL     OW30525   4.672   6.048   0.896 -0.0969 -0.1108  0.4328
 7690SOL    HW230526   4.602   6.002   0.850 -1.2021 -0.0681  1.9978
 7690SOL    HW330527   4.628   6.094   0.968  1.3452  1.1386  0.5762
 7690SOL    MW430528   4.657   6.048   0.900  0.4930  0.1896  0.0652
 7691SOL     OW30529   4.333   5.028   5.610 -0.3029 -0.3418 -0.4036
 7691SOL    HW230530   4.248   5.002   5.645  1.3461 -3.1333  2.0239
 7691SOL    HW330531   4.333   5.123   5.615 -2.4335 -0.3530  1.7777
 7691SOL    MW430532   4.322   5.037   5.615 -0.1339  0.1408  0.1173
 7692SOL     OW30533   0.528   1.695   3.806  0.8491 -0.7073  0.8168
 7692SOL    HW230534   0.616   1.709   3.770 -0.2044 -3.9182 -3.9014
 7692SOL    HW330535   0.529   1.603   3.835 -0.7974 -0.6089  1.2470
 7692SOL    MW430536   0.540   1.684   3.805  0.4244  0.4449  0.3422
 7693SOL     OW30537   0.189   4.366   5.740  0.2496 -0.6578 -0.4526
 7693SOL    HW230538   0.107   4.375   5.692 -1.0075 -0.4806  1.5957
 7693SOL    HW330539   0.197   4.272   5.756  0.6521 -0.7132 -0.9304
 7693SOL    MW430540   0.180   4.354   5.736  0.1985 -0.2497  1.0658
 7694SOL     OW30541   2.312   1.566   5.606  0.2688  0.0038 -0.1135
 7694SOL    HW230542   2.375   1.637   5.589  0.7096 -0.5679 -0.8876
 7694SOL    HW330543   2.361   1.504   5.661 -0.2797  0.5200  1.0038
 7694SOL    MW430544   2.327   1.567   5.611 -0.0783 -0.3147 -0.3124
 7695SOL     OW30545   3.771   0.721   3.910 -0.0059 -0.3826 -0.1074
 7695SOL    HW230546   3.837   0.777   3.868 -0.4572  1.9753  2.0600
 7695SOL    HW330547   3.803   0.710   4.000 -2.9544  1.8142  1.3856
 7695SOL    MW430548   3.784   0.727   3.916 -0.3633  0.4129 -0.3000
 7696SOL     OW30549   2.287   0.922   3.388 -0.0535  0.0709  0.1954
 7696SOL    HW230550   2.199   0.911   3.425 -0.4112  2.2376  0.1648
 7696SOL    HW330551   2.273   0.937   3.295  0.5569 -1.7162 -0.2152
 7696SOL    MW430552   2.274   0.923   3.381  0.1712  0.2572 -0.1171
 7697SOL     OW30553   4.960   5.124   5.957 -0.4946 -1.0119 -0.2937
 7697SOL    HW230554   4.933   5.182   6.028  1.7640 -0.6479  0.3475
 7697SOL    HW330555   4.928   5.167   5.878  0.5571  0.8233  0.2124
 7697SOL    MW430556   4.952   5.138   5.956 -0.0699 -0.3723 -0.2725
 7698SOL     OW30557   3.435   2.065   0.060 -0.3399  0.1233 -0.3859
 7698SOL    HW230558   3.413   2.097  -0.027  0.7137 -0.9948 -1.0944
 7698SOL    HW330559   3.473   1.978   0.044  0.4512  0.1696  1.1386
 7698SOL    MW430560   3.437   2.058   0.046 -0.2361  0.7757 -0.2239
 7699SOL     OW30561   1.905   2.986   3.340 -0.1854  0.3459  0.0385
 7699SOL    HW230562   1.909   3.031   3.256  0.3804 -0.8965 -0.6120
 7699SOL    HW330563   1.881   2.896   3.319  0.8889 -0.2246  1.1075
 7699SOL    MW430564   1.902   2.980   3.326  0.3362  0.0728  0.5885
 7700SOL     OW30565   1.368   1.713   4.927 -0.3389  0.2764 -0.1689
 7700SOL    HW230566   1.277   1.736   4.914 -0.4751 -0.8990 -1.5067
 7700SOL    HW330567   1.403   1.782   4.984 -1.6881  1.4877 -0.7696
 7700SOL    MW430568   1.361   1.725   4.933  0.6391  0.1044  0.4237
 7701SOL     OW30569   3.730   5.258   3.936 -0.0963  0.3288  0.1484
 7701SOL    HW230570   3.721   5.164   3.920  1.2065  0.3227 -0.7441
 7701SOL    HW330571   3.683   5.274   4.018 -0.4188 -1.0727  0.2528
 7701SOL    MW430572   3.723   5.248   3.945  0.6365 -0.3851  0.2667
 7702SOL     OW30573   5.182   2.970   0.354 -0.7201  0.2689  0.5597
 7702SOL    HW230574   5.136   2.934   0.278 -1.2826 -0.3490  1.1793
 7702SOL    HW330575   5.274   2.968   0.328 -1.0483  2.0006 -0.8844
 7702SOL    MW430576   5.188   2.965   0.340 -0.7979  0.2589 -0.6456
 7703SOL     OW30577   4.197   3.042   5.938 -0.2564 -0.2434 -0.3230
 7703SOL    HW230578   4.281   3.038   5.893 -1.1586 -0.6380 -2.0771
 7703SOL    HW330579   4.167   2.951   5.942 -1.4135  0.0543 -1.4230
 7703SOL    MW430580   4.204   3.030   5.933  0.2529  0.1632 -0.0006
 7704SOL     OW30581   0.989   3.210   3.065  0.2542 -0.7509 -0.3954
 7704SOL    HW230582   1.077   3.217   3.028  0.2764  1.1019 -0.1214
 7704SOL    HW330583   0.994   3.136   3.125  1.5067 -0.9412 -0.6952
 7704SOL    MW430584   1.001   3.202   3.068 -0.2016  0.5622  0.1878
 7705SOL     OW30585   3.116   1.084   3.261 -0.2399  0.9985  0.3885
 7705SOL    HW230586   3.196   1.137   3.257 -0.6083  1.4973 -1.5708
 7705SOL    HW330587   3.055   1.137   3.312 -0.4682  2.3442 -1.2044
 7705SOL    MW430588   3.118   1.098   3.267 -0.3708  0.0669  0.0915
 7706SOL     OW30589   5.341   1.497   2.409 -0.1988 -0.2689  0.3431
 7706SOL    HW230590   5.355   1.591   2.397 -1.3619 -0.1562 -0.3231
 7706SOL    HW330591   5.381   1.477   2.493  0.0715  0.8240  0.4881
 7706SOL    MW430592   5.348   1.506   2.418 -0.2843  0.1421 -0.0261
 7707SOL     OW30593   4.094   0.740   1.318  0.2471 -0.4653  0.5682
 7707SOL    HW230594   4.161   0.673   1.301  1.4727  1.0261 -0.8661
 7707SOL    HW330595   4.132   0.795   1.386  0.5791  0.4549 -0.3312
 7707SOL    MW430596   4.108   0.738   1.324 -0.0295  0.3081  0.5872
 7708SOL     OW30597   2.245   0.277   0.170  0.0730 -0.1499  0.1871
 7708SOL    HW230598   2.188   0.226   0.227 -0.1157  0.3308  0.4387
 7708SOL    HW330599   2.330   0.232   0.174  0.1934  0.1273  1.2234
 7708SOL    MW430600   2.249   0.265   0.178  0.3946  0.5949  0.9966
 7709SOL     OW30601   3.975   2.351   5.649 -0.1388 -0.2356  0.6416
 7709SOL    HW230602   4.016   2.381   5.731 -0.9893  0.4043  0.8437
 7709SOL    HW330603   3.979   2.427   5.591 -2.0848  0.2384  1.0686
 7709SOL    MW430604   3.981   2.365   5.652  0.1734  0.2472  0.0670
 7710SOL     OW30605   0.193   0.590   0.783  0.2434  0.1100  0.2357
 7710SOL    HW230606   0.191   0.537   0.863 -3.6347 -0.7614 -0.2571
 7710SOL    HW330607   0.104   0.625   0.775  1.2908  2.6041 -2.2075
 7710SOL    MW430608   0.181   0.588   0.792 -0.1331 -0.3654  0.4184
 7711SOL     OW30609   4.012   4.260   1.867  0.1644  0.5110 -0.7022
 7711SOL    HW230610   4.035   4.343   1.907  0.2311  0.4281 -0.5680
 7711SOL    HW330611   4.083   4.243   1.804  0.8605 -0.0878  0.2084
 7711SOL    MW430612   4.025   4.269   1.864  0.0646  0.2968 -0.7111
 7712SOL     OW30613   5.134   5.032   1.756 -0.5819  0.4443  0.2247
 7712SOL    HW230614   5.100   4.945   1.736 -1.6749 -0.0769  3.7146
 7712SOL    HW330615   5.063   5.077   1.801  0.4422  2.6785 -0.2081
 7712SOL    MW430616   5.120   5.027   1.759  0.1316  0.1740 -0.0225
 7713SOL     OW30617   5.019   1.396   6.230  0.0440 -0.1526  0.1275
 7713SOL    HW230618   5.000   1.428   6.141 -0.7621  1.2719  0.7778
 7713SOL    HW330619   4.937   1.408   6.278  1.4551  2.8939  2.1003
 7713SOL    MW430620   5.006   1.402   6.224 -0.2011 -0.2890  0.1163
 7714SOL     OW30621   3.787   6.374   1.926 -0.3592  0.7052 -0.2367
 7714SOL    HW230622   3.692   6.373   1.917 -0.4091  3.5233 -1.1652
 7714SOL    HW330623   3.803   6.394   2.019 -0.6115 -0.3981  0.0603
 7714SOL    MW430624   3.777   6.377   1.937 -0.1742 -0.3401 -0.0008
 7715SOL     OW30625   6.190   3.231   1.364 -0.2734  0.1763 -0.3452
 7715SOL    HW230626   6.131   3.198   1.297 -2.2193  0.3075  1.2213
 7715SOL    HW330627   6.135   3.244   1.441  1.8045  0.2600  1.2340
 7715SOL    MW430628   6.175   3.228   1.366  0.1839 -0.2586  0.0229
 7716SOL     OW30629   2.132   2.300   1.992 -0.2894  0.2286  0.2547
 7716SOL    HW230630   2.086   2.243   2.053 -0.8398 -0.9550 -1.2189
 7716SOL    HW330631   2.156   2.243   1.919  1.1219  1.4096 -0.2553
 7716SOL    MW430632   2.129   2.285   1.991 -0.1762 -0.2334  0.7183
 7717SOL     OW30633   3.218   3.027   1.459  0.1333  0.4652  0.1863
 7717SOL    HW230634   3.294   2.975   1.483 -0.2628 -0.1800  0.0883
 7717SOL    HW330635   3.220   3.031   1.363 -0.3895 -0.2582  0.1297
 7717SOL    MW430636   3.228   3.021   1.449  0.5879  0.3072 -0.3432
 7718SOL     OW30637   1.705   1.110   0.370 -0.0256  0.1044  0.3121
 7718SOL    HW230638   1.676   1.197   0.396 -1.2671  0.5173 -2.1206
 7718SOL    HW330639   1.653   1.049   0.422 -1.9868  0.8655 -0.6493
 7718SOL    MW430640   1.695   1.113   0.380  0.1011 -0.2343  0.1251
 7719SOL     OW30641   5.598   2.678   2.657  0.4493 -1.0726  0.4544
 7719SOL    HW230642   5.648   2.647   2.582 -0.4132  0.0168 -0.5923
 7719SOL    HW330643   5.511   2.698   2.622 -0.7899 -2.9361  2.2166
 7719SOL    MW430644   5.593   2.676   2.643  0.1850  0.1836  0.1521
 7720SOL     OW30645   0.538   0.681   0.992 -0.0006 -0.0263 -0.6943
 7720SOL    HW230646   0.510   0.765   1.028 -1.8118 -1.3576  1.2322
 7720SOL    HW330647   0.503   0.680   0.903  1.0226  1.6608 -1.1679
 7720SOL    MW430648   0.530   0.692   0.985  0.0309  0.1347 -0.0519
 7721SOL     OW30649   0.069   5.606   3.159  0.1833  0.4572 -0.5191
 7721SOL    HW230650  -0.009   5.560   3.190  0.4135 -0.5232 -1.3292
 7721SOL    HW330651   0.135   5.591   3.227  0.4113 -0.8926 -0.9967
 7721SOL    MW430652   0.068   5.598   3.172  0.6377  0.7025  0.6082
 7722SOL     OW30653   5.982   2.233   2.104 -0.2521 -0.6399  0.3656
 7722SOL    HW230654   5.924   2.309   2.110 -0.0989 -0.4067 -0.7671
 7722SOL    HW330655   6.065   2.269   2.072  0.1848 -1.1232  0.9380
 7722SOL    MW430656   5.985   2.248   2.100  0.2449 -0.0416  0.5020
 7723SOL     OW30657   4.213   5.538   0.257 -0.1324  0.3714  0.2970
 7723SOL    HW230658   4.196   5.625   0.293 -0.6421  0.1121  0.6752
 7723SOL    HW330659   4.141   5.484   0.287  1.1379 -0.6611  1.6487
 7723SOL    MW430660   4.201   5.543   0.265 -0.2267 -0.6303 -0.6181
 7724SOL     OW30661   5.765   0.712   2.507  0.2390  0.0835  0.6836
 7724SOL    HW230662   5.690   0.767   2.484  0.3383 -1.2880 -4.1833
 7724SOL    HW330663   5.727   0.631   2.540 -0.3015  0.3652  0.7500
 7724SOL    MW430664   5.750   0.709   2.508  0.0825  0.5029 -0.0483
 7725SOL     OW30665   1.519   3.569   0.005  0.8413  0.1733 -0.7091
 7725SOL    HW230666   1.555   3.500  -0.049  1.4330  0.9284 -1.2991
 7725SOL    HW330667   1.555   3.553   0.092 -1.3958 -2.0179 -0.0597
 7725SOL    MW430668   1.528   3.558   0.010 -0.2008  0.0211  0.0885
 7726SOL     OW30669   0.190   0.430   1.784 -0.4069  0.1202  0.0019
 7726SOL    HW230670   0.116   0.439   1.725  0.0640 -1.3951 -0.8858
 7726SOL    HW330671   0.158   0.372   1.854 -0.2722  0.0264 -0.0134
 7726SOL    MW430672   0.176   0.423   1.785  0.0712  0.0509 -0.1573
 7727SOL     OW30673   4.205   2.385   6.193 -0.2554 -0.3675  0.7732
 7727SOL    HW230674   4.214   2.305   6.245 -0.8146  0.3280  1.9736
 7727SOL    HW330675   4.250   2.452   6.243  1.9532 -0.2633 -1.1688
 7727SOL    MW430676   4.212   2.383   6.206  0.1081 -0.0986  0.1066
 7728SOL     OW30677   0.971   0.365   1.944 -0.0837 -0.0606  0.2784
 7728SOL    HW230678   1.065   0.375   1.959 -0.1928 -0.4620  1.3174
 7728SOL    HW330679   0.947   0.442   1.892  0.6524  0.5486  0.8191
 7728SOL    MW430680   0.980   0.377   1.939  0.5865 -0.3018  0.0008
 7729SOL     OW30681   2.464   3.993   2.187 -0.6930  0.3921 -0.5196
 7729SOL    HW230682   2.440   4.071   2.236 -1.1395 -1.0867  1.7508
 7729SOL    HW330683   2.503   3.934   2.252  0.9639 -0.7505 -2.4110
 7729SOL    MW430684   2.466   3.995   2.202 -0.3559 -0.2442  0.4211
 7730SOL     OW30685   2.655   4.155   1.046  0.2193  0.0194 -0.4187
 7730SOL    HW230686   2.687   4.066   1.029 -0.7285 -0.2610 -0.7750
 7730SOL    HW330687   2.665   4.166   1.141 -1.1088 -1.0657 -0.1142
 7730SOL    MW430688   2.661   4.145   1.057  0.0504 -0.4913  0.0999
 7731SOL     OW30689   3.693   0.945   2.010 -0.3609 -0.1963 -0.0932
 7731SOL    HW230690   3.633   0.888   1.962 -0.0700  0.9037 -1.8515
 7731SOL    HW330691   3.751   0.885   2.056  0.3118 -1.3941 -2.3356
 7731SOL    MW430692   3.692   0.929   2.010 -0.0516 -0.1907 -0.5354
 7732SOL     OW30693   4.717   5.506   2.873  0.1113 -0.1686  0.5729
 7732SOL    HW230694   4.726   5.492   2.967 -0.1370 -0.6098  0.5317
 7732SOL    HW330695   4.783   5.572   2.852 -0.3999  0.5732  1.2083
 7732SOL    MW430696   4.727   5.513   2.882 -0.1707  0.3699  0.0110
 7733SOL     OW30697   4.687   3.331   3.097 -0.3592  0.6727 -0.3048
 7733SOL    HW230698   4.690   3.425   3.076 -0.6337  1.2377  1.9851
 7733SOL    HW330699   4.769   3.313   3.142 -0.2883 -0.2279 -0.7594
 7733SOL    MW430700   4.698   3.341   3.100 -0.0766 -0.0386  0.1702
 7734SOL     OW30701   1.547   6.136   3.547  0.0102  0.7428 -0.2848
 7734SOL    HW230702   1.633   6.161   3.582  1.4248 -2.2663 -1.2598
 7734SOL    HW330703   1.525   6.207   3.487  1.7355  1.6753  0.0975
 7734SOL    MW430704   1.555   6.148   3.544 -0.2389  0.6506 -0.2351
 7735SOL     OW30705   4.120   1.252   5.484  0.0046  0.0130 -0.5552
 7735SOL    HW230706   4.113   1.289   5.572  1.0454  0.1973 -0.5364
 7735SOL    HW330707   4.114   1.328   5.425 -0.2536 -0.0622 -0.6283
 7735SOL    MW430708   4.118   1.267   5.488  0.4496 -0.7290  0.2929
 7736SOL     OW30709   4.730   5.453   6.128 -0.0429 -0.3467 -0.5183
 7736SOL    HW230710   4.645   5.456   6.172  0.1009 -0.4219 -0.2356
 7736SOL    HW330711   4.779   5.384   6.174  0.4630  0.2437 -0.1466
 7736SOL    MW430712   4.725   5.445   6.140  0.6919 -0.0805  0.4411
 7737SOL     OW30713   2.990   1.669   3.436  0.6188  0.1856 -0.4968
 7737SOL    HW230714   3.046   1.661   3.359  1.5046 -1.0551  0.2281
 7737SOL    HW330715   3.032   1.737   3.489 -0.4203  1.6020 -1.4089
 7737SOL    MW430716   3.003   1.677   3.433 -0.0442 -0.0062  0.4858
 7738SOL     OW30717   2.329   5.072   0.745 -0.2689  0.0902 -0.4344
 7738SOL    HW230718   2.360   4.982   0.737 -0.8970 -0.2222  0.3891
 7738SOL    HW330719   2.408   5.125   0.751  0.1079 -0.4576 -0.5161
 7738SOL    MW430720   2.343   5.067   0.745 -0.1272  0.1398  0.6495
 7739SOL     OW30721   3.864   5.776   4.750 -0.2062 -0.1507 -0.2101
 7739SOL    HW230722   3.837   5.696   4.796 -1.8736 -0.2402 -1.2473
 7739SOL    HW330723   3.901   5.832   4.818  0.2246 -1.4849  0.6836
 7739SOL    MW430724   3.865   5.773   4.765  0.2929 -0.1277  0.0254
 7740SOL     OW30725   4.126   4.695   3.216 -0.2765  1.2314 -0.1405
 7740SOL    HW230726   4.162   4.608   3.233 -1.9437  0.4580 -0.3234
 7740SOL    HW330727   4.198   4.743   3.176  0.7168 -0.0356  0.0481
 7740SOL    MW430728   4.140   4.690   3.213  0.1926 -0.0339 -0.4344
 7741SOL     OW30729   3.773   2.168   5.728  0.7150 -0.0450 -0.0967
 7741SOL    HW230730   3.851   2.199   5.680  1.0687  1.2890  1.2595
 7741SOL    HW330731   3.703   2.225   5.698  1.0740  1.2377  1.3834
 7741SOL    MW430732   3.774   2.180   5.717 -0.2485  0.2617  0.5852
 7742SOL     OW30733   1.407   4.732   5.917 -0.3751 -0.0182 -0.0994
 7742SOL    HW230734   1.455   4.660   5.876 -2.0058 -0.1182 -1.9857
 7742SOL    HW330735   1.434   4.729   6.008  3.8992  0.5535 -1.1377
 7742SOL    MW430736   1.417   4.722   5.923 -0.3070  0.3023 -0.5217
 7743SOL     OW30737   2.696   2.177   6.090 -0.4307 -0.1382 -0.1791
 7743SOL    HW230738   2.639   2.161   6.165 -0.7888 -1.0996 -0.6463
 7743SOL    HW330739   2.757   2.103   6.089  0.4885  0.5885 -0.0172
 7743SOL    MW430740   2.697   2.165   6.100  0.3132 -0.4704  0.1978
 7744SOL     OW30741   5.777   5.580   6.240  0.0307  0.2358  0.4445
 7744SOL    HW230742   5.755   5.646   6.173  1.3475 -1.4349 -1.7925
 7744SOL    HW330743   5.756   5.622   6.323 -0.0717  3.1157 -0.9091
 7744SOL    MW430744   5.771   5.594   6.242 -0.3548  0.2397 -0.4406
 7745SOL     OW30745   4.230   2.772   6.124 -0.0295  0.0076 -0.0836
 7745SOL    HW230746   4.213   2.744   6.034 -0.3846  1.6319 -0.5538
 7745SOL    HW330747   4.155   2.741   6.174 -0.4481  0.1904 -0.5999
 7745SOL    MW430748   4.218   2.764   6.119 -0.0719 -0.2412  0.9257
 7746SOL     OW30749   3.903   3.040   3.327  0.6868  0.3079 -0.0486
 7746SOL    HW230750   3.876   3.029   3.236 -0.3455 -0.9573  0.3826
 7746SOL    HW330751   3.870   3.126   3.352 -1.8333 -0.6106  0.0326
 7746SOL    MW430752   3.895   3.050   3.318 -1.5039 -0.1185 -0.2481
 7747SOL     OW30753   3.246   2.742   4.881  0.6528 -0.5439 -0.2032
 7747SOL    HW230754   3.188   2.793   4.937  1.7881  0.7471 -0.1660
 7747SOL    HW330755   3.262   2.661   4.930 -0.6423 -0.6650  0.0322
 7747SOL    MW430756   3.241   2.738   4.895  0.2394 -0.1564  0.4108
 7748SOL     OW30757   4.052   0.162   1.345  0.0344  0.4609 -0.9532
 7748SOL    HW230758   4.095   0.076   1.338  0.1887  0.2416  1.6902
 7748SOL    HW330759   4.085   0.211   1.270  1.7850 -1.0239 -1.2424
 7748SOL    MW430760   4.062   0.157   1.334 -0.0304 -0.0427 -0.8643
 7749SOL     OW30761   1.875   6.147   2.107 -0.0305 -0.2393 -0.1446
 7749SOL    HW230762   1.810   6.077   2.114 -1.9705  1.3630 -1.3141
 7749SOL    HW330763   1.847   6.199   2.032  2.7487  0.4355 -0.8400
 7749SOL    MW430764   1.863   6.144   2.098  0.2195 -0.1590 -0.0380
 7750SOL     OW30765   2.084   5.887   2.294  0.0807  0.2453  0.6618
 7750SOL    HW230766   2.117   5.938   2.368  1.5394  0.7132 -0.2644
 7750SOL    HW330767   2.120   5.932   2.217  2.1759 -2.5926 -0.1927
 7750SOL    MW430768   2.093   5.900   2.294 -0.2053  0.3571 -0.5339
 7751SOL     OW30769   5.761   0.107   4.556  0.9633  0.6458 -0.5374
 7751SOL    HW230770   5.829   0.081   4.494  2.4004  0.1443  1.1874
 7751SOL    HW330771   5.799   0.181   4.603 -0.0605  0.9451 -0.1588
 7751SOL    MW430772   5.775   0.113   4.554 -0.1504  0.7265 -0.2905
 7752SOL     OW30773   5.262   6.368   0.465  0.1714  0.2544  0.3282
 7752SOL    HW230774   5.265   6.275   0.441 -2.3602 -0.1091  1.1519
 7752SOL    HW330775   5.299   6.414   0.389 -2.9306 -1.1545 -2.2907
 7752SOL    MW430776   5.267   6.362   0.451  0.0507 -0.7382  0.2087
 7753SOL     OW30777   5.436   2.311   2.980  0.7081  0.1529  0.8285
 7753SOL    HW230778   5.401   2.256   2.910 -0.1870  1.2259  0.3992
 7753SOL    HW330779   5.505   2.362   2.939  1.0390 -0.1195  1.0431
 7753SOL    MW430780   5.440   2.311   2.966  0.0243  0.6550 -0.1627
 7754SOL     OW30781   2.982   3.358   3.603  0.1586  0.4475  0.2402
 7754SOL    HW230782   2.912   3.300   3.631  0.3686 -0.3063 -0.7486
 7754SOL    HW330783   3.004   3.408   3.682 -0.3246 -0.5006  1.0071
 7754SOL    MW430784   2.976   3.357   3.617 -0.4062 -0.1369  0.5843
 7755SOL     OW30785   3.528   0.854   6.087 -0.2242  0.0623  0.2903
 7755SOL    HW230786   3.444   0.873   6.045  0.3600 -0.2918 -1.0889
 7755SOL    HW330787   3.505   0.802   6.164 -1.4597  2.1268  1.4120
 7755SOL    MW430788   3.514   0.850   6.091 -0.0957  0.7555  0.0453
 7756SOL     OW30789   0.614   0.111   0.865  0.4094  0.3037 -0.1958
 7756SOL    HW230790   0.696   0.134   0.820  0.4941  0.2168 -0.0846
 7756SOL    HW330791   0.642   0.070   0.947  0.2567  0.8654  0.1447
 7756SOL    MW430792   0.629   0.109   0.870 -0.1212  0.4490 -0.8994
 7757SOL     OW30793   5.238   4.392   4.196 -0.2897 -0.0575 -0.0124
 7757SOL    HW230794   5.230   4.388   4.292 -2.5337 -0.2636 -0.1520
 7757SOL    HW330795   5.325   4.357   4.178 -0.2512 -1.1125  1.9057
 7757SOL    MW430796   5.248   4.387   4.206  0.3515  0.4180  0.2085
 7758SOL     OW30797   0.274   5.693   1.401 -0.1368  0.1742 -0.4085
 7758SOL    HW230798   0.266   5.736   1.486 -0.3436 -1.4522  0.4528
 7758SOL    HW330799   0.336   5.621   1.417  0.1318  0.0818 -1.7464
 7758SOL    MW430800   0.281   5.689   1.415  0.7320 -0.3126  0.2020
 7759SOL     OW30801   0.746   6.311   6.132  0.5004  0.6522  0.5729
 7759SOL    HW230802   0.670   6.360   6.101 -0.4608 -1.2698 -0.2909
 7759SOL    HW330803   0.724   6.285   6.221 -0.4262 -0.8753 -0.0593
 7759SOL    MW430804   0.733   6.314   6.139  0.0498 -0.1225  0.3884
 7760SOL     OW30805   5.145   3.459   1.835  0.1828 -0.0070  0.2500
 7760SOL    HW230806   5.179   3.511   1.762 -0.1203  0.5004  0.4620
 7760SOL    HW330807   5.174   3.370   1.816  2.7153  0.5539  1.0352
 7760SOL    MW430808   5.153   3.454   1.823 -0.5010 -0.8497  0.3733
 7761SOL     OW30809   1.840   5.035   4.630  0.0924 -0.6413 -0.6519
 7761SOL    HW230810   1.899   5.107   4.606  0.1000  0.4055  2.1421
 7761SOL    HW330811   1.752   5.072   4.621  0.0798 -0.4189  0.2539
 7761SOL    MW430812   1.836   5.050   4.626  0.2213 -0.0973 -0.2785
 7762SOL     OW30813   0.718   3.529   5.778  0.0937 -0.2237 -0.2452
 7762SOL    HW230814   0.729   3.613   5.735  0.2834  0.2181  0.6518
 7762SOL    HW330815   0.625   3.511   5.772  0.2843 -0.8129 -2.0012
 7762SOL    MW430816   0.707   3.537   5.771  0.1147  0.4610  0.8210
 7763SOL     OW30817   2.298   5.707   3.217 -0.7021  0.6471 -0.2051
 7763SOL    HW230818   2.357   5.759   3.162  0.7952 -0.3303  0.4158
 7763SOL    HW330819   2.225   5.767   3.237  1.7463  3.1961  1.9303
 7763SOL    MW430820   2.296   5.722   3.213 -0.0499  0.1792 -0.2384
 7764SOL     OW30821   5.947   1.640   5.192 -0.2768 -0.0472 -0.0078
 7764SOL    HW230822   5.898   1.708   5.144 -0.1327 -0.3591 -0.6139
 7764SOL    HW330823   5.917   1.647   5.282  0.9222  1.9223  0.2943
 7764SOL    MW430824   5.936   1.650   5.197  0.1741  0.3256 -0.4609
 7765SOL     OW30825   5.725   0.994   3.191  0.3977  0.4822 -0.0408
 7765SOL    HW230826   5.768   1.074   3.159  2.2092  0.0026  1.0540
 7765SOL    HW330827   5.740   0.995   3.285 -1.8853  0.1538  0.3859
 7765SOL    MW430828   5.732   1.005   3.199 -0.1775 -0.6473  0.4482
 7766SOL     OW30829   4.151   5.718   1.037 -0.6556 -0.2603 -0.0508
 7766SOL    HW230830   4.091   5.656   0.995 -0.5055 -1.3436  1.2573
 7766SOL    HW330831   4.173   5.677   1.120 -0.4085  1.5001  0.7983
 7766SOL    MW430832   4.146   5.704   1.042 -0.2659 -0.2624 -0.1259
 7767SOL     OW30833   5.301   1.635   0.871 -0.1135  0.1842  0.1908
 7767SOL    HW230834   5.302   1.566   0.937 -2.5009  0.2986  0.4450
 7767SOL    HW330835   5.330   1.713   0.918  2.4528 -0.5407 -0.0605
 7767SOL    MW430836   5.305   1.636   0.886 -0.1492  0.1517 -0.5454
 7768SOL     OW30837   6.181   5.298   1.149 -0.1237  0.4935 -0.2740
 7768SOL    HW230838   6.092   5.281   1.118  0.2375 -0.2530 -0.9530
 7768SOL    HW330839   6.194   5.235   1.220 -0.3764  1.0806  0.2977
 7768SOL    MW430840   6.171   5.287   1.154  0.0929 -0.0905  0.4478
 7769SOL     OW30841   2.756   0.769   5.589 -0.0773  0.4719  0.1157
 7769SOL    HW230842   2.748   0.742   5.497 -2.5433 -1.0397  0.6805
 7769SOL    HW330843   2.839   0.817   5.592 -0.2547  1.2674 -3.0473
 7769SOL    MW430844   2.766   0.772   5.577  0.4601  0.1671  0.3871
 7770SOL     OW30845   3.382   2.669   3.506  0.4684 -0.2771  0.2782
 7770SOL    HW230846   3.346   2.589   3.545  0.2242  0.2160  1.0904
 7770SOL    HW330847   3.395   2.728   3.580 -1.2455  1.1714 -0.4816
 7770SOL    MW430848   3.379   2.666   3.521 -0.5066 -0.1922  0.1441
 7771SOL     OW30849   2.556   1.843   0.445  0.1904  0.3345 -0.5392
 7771SOL    HW230850   2.466   1.864   0.471  0.4586  0.5616  0.2482
 7771SOL    HW330851   2.591   1.924   0.409 -0.2974 -0.0777 -1.9814
 7771SOL    MW430852   2.549   1.856   0.444 -0.2035  0.0715  0.1162
 7772SOL     OW30853   3.574   1.168   6.392  0.2554 -0.1104  0.0892
 7772SOL    HW230854   3.607   1.241   6.445 -1.0629 -0.7800  1.9432
 7772SOL    HW330855   3.501   1.205   6.343  0.8449  0.2742 -0.5112
 7772SOL    MW430856   3.568   1.183   6.393  0.0171 -0.0018  0.2308
 7773SOL     OW30857   5.645   2.430   0.363  0.3477  0.8157  0.3483
 7773SOL    HW230858   5.663   2.353   0.309  3.7016  1.2674  0.5694
 7773SOL    HW330859   5.634   2.394   0.452  0.1875  0.4464  0.1809
 7773SOL    MW430860   5.646   2.415   0.368 -0.2135  0.0702 -0.4921
 7774SOL     OW30861   5.743   0.309   5.794 -0.8338  0.1094 -0.2700
 7774SOL    HW230862   5.654   0.342   5.794 -0.6924  0.6114 -2.4468
 7774SOL    HW330863   5.747   0.249   5.720  1.3068  2.1725 -2.0048
 7774SOL    MW430864   5.732   0.305   5.784  0.3368 -0.2879 -0.2922
 7775SOL     OW30865   2.865   1.322   0.334 -0.8819  0.0428  0.0680
 7775SOL    HW230866   2.818   1.368   0.403 -0.1769 -0.9459  1.2504
 7775SOL    HW330867   2.796   1.283   0.280 -1.4470  1.0200  0.0591
 7775SOL    MW430868   2.850   1.323   0.336 -0.4616  0.3792  0.0980
 7776SOL     OW30869   5.394   5.592   1.053 -0.7250 -0.2805 -0.5997
 7776SOL    HW230870   5.464   5.658   1.049  0.8445 -1.9264 -2.9675
 7776SOL    HW330871   5.422   5.531   1.120 -0.6982 -0.1141 -0.4576
 7776SOL    MW430872   5.407   5.593   1.061  0.3532 -0.3009 -0.1928
 7777SOL     OW30873   0.738   4.196   3.075  0.0029 -0.3219 -0.2851
 7777SOL    HW230874   0.799   4.161   3.140 -1.5920 -1.3191  0.7460
 7777SOL    HW330875   0.657   4.146   3.089  0.0360 -1.7665 -4.1108
 7777SOL    MW430876   0.735   4.185   3.085 -0.5649  0.0867  0.2329
 7778SOL     OW30877   4.456   0.729   2.230 -0.3372 -0.2130  0.3165
 7778SOL    HW230878   4.538   0.689   2.202 -0.2861  1.4232 -2.1276
 7778SOL    HW330879   4.470   0.749   2.323  1.1298 -1.9879  0.5392
 7778SOL    MW430880   4.469   0.726   2.239  0.0824  0.4976 -0.3461
 7779SOL     OW30881   6.283   1.141   4.297  0.2172 -0.2177 -0.2002
 7779SOL    HW230882   6.230   1.121   4.220 -0.1795 -1.9067  0.4673
 7779SOL    HW330883   6.286   1.059   4.346  2.3675  0.1994  0.4484
 7779SOL    MW430884   6.276   1.128   4.293 -0.0907 -0.4445  0.2357
 7780SOL     OW30885   3.084   5.928   0.578 -0.5319 -0.1069  0.2103
 7780SOL    HW230886   3.161   5.932   0.634  0.3856  1.6425 -1.0532
 7780SOL    HW330887   3.102   5.856   0.517 -0.3839 -0.3853  0.5826
 7780SOL    MW430888   3.097   5.919   0.577 -0.0271  0.0346  0.2348
 7781SOL     OW30889   5.778   4.019   4.431  0.3627  0.1989  0.6095
 7781SOL    HW230890   5.745   4.065   4.354  0.5636  1.1712  1.0866
 7781SOL    HW330891   5.840   4.080   4.471  1.2948 -0.8423  0.7893
 7781SOL    MW430892   5.782   4.033   4.426 -0.3195  0.7912 -0.1414
 7782SOL     OW30893   4.475   2.690   0.942  0.0020  0.0549  0.3459
 7782SOL    HW230894   4.452   2.611   0.991  0.7269 -0.4155 -0.0446
 7782SOL    HW330895   4.473   2.760   1.006 -1.6491 -0.0925  0.5015
 7782SOL    MW430896   4.472   2.689   0.957 -0.3904  0.2431  0.3131
 7783SOL     OW30897   1.002   3.086   5.137  0.3190 -0.4686  0.7996
 7783SOL    HW230898   1.048   3.063   5.056  2.1355  0.2255  1.5640
 7783SOL    HW330899   1.072   3.101   5.201 -1.0022  0.3738  2.1362
 7783SOL    MW430900   1.018   3.085   5.135 -0.1867 -0.0172 -0.0191
 7784SOL     OW30901   3.542   4.757   4.253  0.4286  0.1705 -0.4209
 7784SOL    HW230902   3.502   4.726   4.171 -0.0362  1.2100 -0.5996
 7784SOL    HW330903   3.553   4.677   4.305 -0.4065 -0.3436 -1.0006
 7784SOL    MW430904   3.538   4.742   4.249 -0.1309  0.3935  0.3831
 7785SOL     OW30905   3.597   3.788   3.442 -0.1083 -0.0375 -0.9106
 7785SOL    HW230906   3.680   3.834   3.435 -0.0749  0.0681  0.0787
 7785SOL    HW330907   3.531   3.853   3.418  0.0750 -0.0737 -1.5309
 7785SOL    MW430908   3.599   3.803   3.438  0.3275  0.0698 -0.0674
 7786SOL     OW30909   1.179   3.241   5.606  0.2199 -0.1340  0.9169
 7786SOL    HW230910   1.094   3.201   5.585  0.3450 -0.2912  0.7111
 7786SOL    HW330911   1.160   3.299   5.681  0.1068 -0.8452  1.4467
 7786SOL    MW430912   1.165   3.244   5.613  0.1135 -0.3343 -0.3447
 7787SOL     OW30913   6.102   1.591   6.273 -0.2065 -0.2489  0.5373
 7787SOL    HW230914   6.100   1.504   6.312 -2.6146 -0.7239 -0.4220
 7787SOL    HW330915   6.077   1.650   6.344  0.4594 -0.4590  0.9479
 7787SOL    MW430916   6.098   1.588   6.287 -0.5101  0.2327  0.4790
 7788SOL     OW30917   5.138   4.484   2.255  0.0986 -0.2506  0.6364
 7788SOL    HW230918   5.145   4.414   2.319 -2.6255  0.2235  1.5850
 7788SOL    HW330919   5.109   4.560   2.305  1.1126  1.0679 -0.6761
 7788SOL    MW430920   5.135   4.485   2.270  0.0143 -0.1782 -0.0197
 7789SOL     OW30921   1.713   6.219   0.333 -0.2794  0.1096  0.1368
 7789SOL    HW230922   1.730   6.153   0.266 -1.0702 -0.3152  0.3407
 7789SOL    HW330923   1.623   6.249   0.316 -0.1791  0.6323  0.4740
 7789SOL    MW430924   1.703   6.215   0.322 -0.3905 -0.3299  0.7325
 7790SOL     OW30925   2.988   3.590   4.682  0.5070 -0.0343  0.3766
 7790SOL    HW230926   3.058   3.570   4.620 -1.1699 -0.4548 -1.4915
 7790SOL    HW330927   2.984   3.513   4.739  2.1534  0.4059  1.1305
 7790SOL    MW430928   2.997   3.577   4.681  0.3742 -0.3530  1.0204
 7791SOL     OW30929   2.993   4.413   1.031  0.4960 -0.3031 -0.1829
 7791SOL    HW230930   2.976   4.364   0.950 -0.2194 -0.7234  0.2093
 7791SOL    HW330931   2.912   4.462   1.046  0.9461  0.4541 -0.1821
 7791SOL    MW430932   2.980   4.413   1.022 -0.4179  0.5459  0.0201
 7792SOL     OW30933   0.543   3.218   5.724  0.5604  0.0228  0.2630
 7792SOL    HW230934   0.582   3.214   5.812  2.5209  4.2529 -0.1198
 7792SOL    HW330935   0.615   3.195   5.665  1.0430  2.5447 -0.2714
 7792SOL    MW430936   0.558   3.215   5.728  0.2164  0.8049  0.1667
 7793SOL     OW30937   5.315   1.460   6.168 -0.2288 -0.1895  0.2835
 7793SOL    HW230938   5.373   1.390   6.198 -1.0332 -0.8182  0.4075
 7793SOL    HW330939   5.229   1.439   6.207 -0.7478  0.2408 -0.5959
 7793SOL    MW430940   5.311   1.448   6.177  0.1644 -0.1230  0.2061
 7794SOL     OW30941   1.188   4.659   2.863 -0.4229 -0.4031 -0.3132
 7794SOL    HW230942   1.281   4.657   2.884 -0.6686 -0.0733  0.8948
 7794SOL    HW330943   1.146   4.608   2.932 -1.2657  0.6181 -0.0382
 7794SOL    MW430944   1.195   4.652   2.875 -0.3410  0.5498 -0.6357
 7795SOL     OW30945   6.278   3.124   0.262  0.3384 -0.1462 -0.4999
 7795SOL    HW230946   6.362   3.104   0.221 -0.0969 -0.6674 -1.1718
 7795SOL    HW330947   6.281   3.081   0.347  0.5764 -0.5581 -0.7129
 7795SOL    MW430948   6.289   3.115   0.268 -0.2544  0.0607  0.4163
 7796SOL     OW30949   5.812   6.123   4.521  0.7528  0.3076 -0.0234
 7796SOL    HW230950   5.858   6.201   4.554 -1.6019  1.7201  0.1079
 7796SOL    HW330951   5.870   6.051   4.543  2.5297  1.9025  0.8465
 7796SOL    MW430952   5.826   6.124   4.528 -0.2592  0.3507  0.2430
 7797SOL     OW30953   0.259   4.068   2.948  0.2509 -0.1353 -0.2223
 7797SOL    HW230954   0.277   4.047   2.857  0.3347 -0.5646 -0.1112
 7797SOL    HW330955   0.222   3.988   2.984  0.1590  0.0518  0.1039
 7797SOL    MW430956   0.257   4.055   2.941 -0.0630  0.1542  0.2196
 7798SOL     OW30957   6.201   3.456   0.608 -0.0294 -0.1291 -0.4919
 7798SOL    HW230958   6.181   3.520   0.676 -0.5413 -1.1003  0.3064
 7798SOL    HW330959   6.274   3.494   0.559 -0.1672  0.9409  0.1119
 7798SOL    MW430960   6.208   3.469   0.610 -0.3220 -0.1056  0.4328
 7799SOL     OW30961   4.051   1.895   2.415 -0.7708 -0.2702  0.1324
 7799SOL    HW230962   4.082   1.981   2.445 -0.2492 -0.1849 -0.6393
 7799SOL    HW330963   3.962   1.889   2.450 -0.9864  0.7915 -0.1989
 7799SOL    MW430964   4.043   1.906   2.424 -1.4533 -0.2529 -0.5863
 7800SOL     OW30965   5.275   0.876   0.908 -0.4720  0.1139 -0.0715
 7800SOL    HW230966   5.203   0.938   0.895 -0.1199  0.6511  0.4737
 7800SOL    HW330967   5.270   0.817   0.833 -1.3917  0.2313 -0.1133
 7800SOL    MW430968   5.265   0.876   0.896 -0.6205 -0.5011  0.4093
 7801SOL     OW30969   0.288   3.474   0.765 -0.4803  0.4662 -0.1580
 7801SOL    HW230970   0.374   3.454   0.800 -1.0693 -0.1481  1.0059
 7801SOL    HW330971   0.264   3.558   0.803 -1.7410 -0.8785  2.2333
 7801SOL    MW430972   0.296   3.482   0.774 -0.0386  0.8909 -0.0179
 7802SOL     OW30973   0.833   2.541   3.243 -0.0067 -0.5374 -0.2079
 7802SOL    HW230974   0.902   2.479   3.217  1.1425  1.0163 -1.1061
 7802SOL    HW330975   0.752   2.491   3.238  0.8534 -1.9184 -1.0717
 7802SOL    MW430976   0.832   2.526   3.239 -0.5525 -0.3335  0.4498
 7803SOL     OW30977   6.394   1.033   0.006 -0.2182 -0.2220  0.4152
 7803SOL    HW230978   6.399   1.128   0.012  1.7227 -0.2214 -0.3797
 7803SOL    HW330979   6.472   1.001   0.052 -0.7566 -1.4135  0.5477
 7803SOL    MW430980   6.405   1.041   0.013 -0.4770  0.0080 -0.1386
 7804SOL     OW30981   3.554   0.996   2.413  0.5917 -0.3379  0.3456
 7804SOL    HW230982   3.500   0.953   2.479  2.6603  0.8432  2.9899
 7804SOL    HW330983   3.494   1.015   2.341 -1.7135 -1.9717  1.7147
 7804SOL    MW430984   3.539   0.993   2.412  0.2308 -0.0046  0.0194
 7805SOL     OW30985   2.937   2.407   2.640  0.4326 -0.5301 -0.1228
 7805SOL    HW230986   2.868   2.358   2.684  0.6539 -0.9972 -0.2942
 7805SOL    HW330987   2.942   2.369   2.552 -0.9286  1.2639 -1.0474
 7805SOL    MW430988   2.928   2.396   2.634  0.4198  0.3283 -0.6436
 7806SOL     OW30989   0.144   5.852   3.552 -0.0909 -0.3170  0.3171
 7806SOL    HW230990   0.237   5.871   3.558 -0.3408  1.0336  0.1988
 7806SOL    HW330991   0.105   5.899   3.626 -0.6407 -1.2183  0.6209
 7806SOL    MW430992   0.151   5.860   3.563 -0.8420 -0.3538  0.3678
 7807SOL     OW30993   4.433   1.535   3.674  0.5677 -0.0778  0.0935
 7807SOL    HW230994   4.377   1.458   3.676  0.2424  0.1747  0.9221
 7807SOL    HW330995   4.465   1.539   3.583 -0.1042 -0.6819 -0.1782
 7807SOL    MW430996   4.430   1.526   3.662  0.2219 -0.1068 -0.2978
 7808SOL     OW30997   0.827   0.951   2.345 -0.0170 -0.4732  0.0569
 7808SOL    HW230998   0.793   0.977   2.431  1.6081 -0.5194  0.7486
 7808SOL    HW330999   0.786   0.866   2.328 -0.5332 -0.3542  0.6741
 7808SOL    MW431000   0.817   0.943   2.354  0.3382 -0.0200  0.6735
 7809SOL     OW31001   5.087   1.579   0.378  0.5322 -0.2942  0.7515
 7809SOL    HW231002   5.069   1.629   0.457  1.1613  1.5959 -0.2359
 7809SOL    HW331003   5.182   1.569   0.377  0.7578  1.4722 -0.7175
 7809SOL    MW431004   5.097   1.584   0.388 -0.3480 -0.0558  0.2513
 7810SOL     OW31005   3.176   5.199   0.104  1.0935 -0.4053  0.0041
 7810SOL    HW231006   3.234   5.225   0.175 -1.1806 -0.7890  2.1330
 7810SOL    HW331007   3.100   5.257   0.113  0.6801 -0.5375 -2.0801
 7810SOL    MW431008   3.174   5.210   0.114  0.4798  0.6514 -0.1279
 7811SOL     OW31009   4.070   3.643   6.241 -0.4285  0.2654 -0.0342
 7811SOL    HW231010   4.096   3.667   6.152 -2.1883  0.0732 -0.6298
 7811SOL    HW331011   4.112   3.558   6.255 -0.8431 -0.1128 -1.0128
 7811SOL    MW431012   4.079   3.635   6.231 -0.4199  0.3557  0.2785
 7812SOL     OW31013   3.541   3.420   1.815  0.1004  0.1107 -0.0638
 7812SOL    HW231014   3.491   3.341   1.835  1.6425 -0.5385  1.4650
 7812SOL    HW331015   3.580   3.403   1.729 -0.1349 -0.4908 -0.0552
 7812SOL    MW431016   3.539   3.407   1.806 -0.1522 -0.4837  0.2245
 7813SOL     OW31017   0.735   2.058   0.584 -0.1175  0.5571 -0.1140
 7813SOL    HW231018   0.765   2.143   0.552 -0.6369  0.8021  0.0353
 7813SOL    HW331019   0.738   2.065   0.679  1.0997 -0.0543 -0.0895
 7813SOL    MW431020   0.739   2.070   0.592  0.4688 -0.5458 -0.4973
 7814SOL     OW31021   4.576   5.766   5.981  0.1471 -0.6011 -0.2468
 7814SOL    HW231022   4.574   5.839   5.920  1.0979 -2.3477 -2.5561
 7814SOL    HW331023   4.509   5.706   5.949 -0.1223 -1.0815  1.1491
 7814SOL    MW431024   4.567   5.767   5.969  0.1033 -0.2684  0.3978
 7815SOL     OW31025   0.752   6.052   4.104 -0.2308  0.5983 -0.0389
 7815SOL    HW231026   0.820   6.091   4.159 -0.8619  0.3146  0.9583
 7815SOL    HW331027   0.741   6.114   4.032 -0.6458  1.8599  1.0767
 7815SOL    MW431028   0.760   6.065   4.102 -0.1449  0.2539 -0.6472
 7816SOL     OW31029   3.766   1.889   0.653  0.4084  0.0729 -0.0706
 7816SOL    HW231030   3.680   1.852   0.635  1.5246 -1.9743 -1.6458
 7816SOL    HW331031   3.776   1.885   0.748 -1.8365  1.9314  0.3218
 7816SOL    MW431032   3.756   1.884   0.663  0.0284  0.1761  0.1382
 7817SOL     OW31033   4.944   6.036   3.038 -0.4129 -0.1081  0.0207
 7817SOL    HW231034   4.945   6.057   2.944 -2.3184 -0.3180 -0.0817
 7817SOL    HW331035   5.032   6.058   3.068 -0.3271  1.7991 -1.4233
 7817SOL    MW431036   4.956   6.041   3.029 -0.0649 -0.4476 -0.3245
 7818SOL     OW31037   5.553   4.619   4.335 -0.3936 -0.3481 -0.0301
 7818SOL    HW231038   5.593   4.690   4.386 -1.1921 -0.0516  0.2099
 7818SOL    HW331039   5.572   4.640   4.244 -0.6511  0.1904  0.0400
 7818SOL    MW431040   5.561   4.631   4.330 -0.4291 -0.5499  0.5221
 7819SOL     OW31041   4.172   4.835   2.516 -0.0549 -0.4909  0.3101
 7819SOL    HW231042   4.189   4.741   2.510  1.1006 -0.3004  0.4627
 7819SOL    HW331043   4.171   4.854   2.610 -1.6118 -0.5655  0.3351
 7819SOL    MW431044   4.174   4.825   2.527 -0.2462 -0.4036 -0.5712
 7820SOL     OW31045   5.894   1.359   1.224 -0.2360 -0.2228  0.2942
 7820SOL    HW231046   5.982   1.389   1.204 -0.0603  0.2101  1.6039
 7820SOL    HW331047   5.847   1.438   1.253 -1.2691 -0.3145 -1.0224
 7820SOL    MW431048   5.899   1.373   1.225 -0.1055 -0.4818 -0.2620
 7821SOL     OW31049   3.553   3.498   5.666  0.4415 -0.2166  0.5831
 7821SOL    HW231050   3.613   3.468   5.733 -0.1469 -0.7900  0.8619
 7821SOL    HW331051   3.494   3.424   5.650  0.3836  0.0127 -0.3459
 7821SOL    MW431052   3.553   3.485   5.672  0.0915  0.5783 -0.3487
 7822SOL     OW31053   1.630   4.872   1.401 -0.3824 -0.8256  0.1110
 7822SOL    HW231054   1.603   4.823   1.479  1.3297 -1.9404  0.0514
 7822SOL    HW331055   1.704   4.823   1.367 -0.7551 -0.0502 -1.9367
 7822SOL    MW431056   1.636   4.859   1.407  0.3703  0.3528  0.2625
 7823SOL     OW31057   5.778   4.226   4.224  0.2664 -0.2040 -0.3258
 7823SOL    HW231058   5.788   4.285   4.298  2.9014 -0.6375 -0.2453
 7823SOL    HW331059   5.792   4.282   4.147 -1.0457 -0.0273 -0.4505
 7823SOL    MW431060   5.781   4.242   4.223  0.0368 -0.3405 -0.0302
 7824SOL     OW31061   2.381   0.036   2.561 -0.2083 -0.5362  0.0421
 7824SOL    HW231062   2.316   0.017   2.629  0.3655 -1.0087  0.4660
 7824SOL    HW331063   2.333   0.088   2.496 -0.7176  0.0819  0.8924
 7824SOL    MW431064   2.366   0.040   2.561 -0.0435  0.2011 -0.2814
 7825SOL     OW31065   0.961   3.142   4.230  0.4714  0.2567  0.3708
 7825SOL    HW231066   1.012   3.215   4.195 -0.6013  0.9770  0.2693
 7825SOL    HW331067   1.016   3.065   4.215  0.8371  0.7946 -1.2131
 7825SOL    MW431068   0.975   3.142   4.223 -0.3135 -0.4956  0.1466
 7826SOL     OW31069   2.353   0.662   2.608 -0.7337  0.6400  0.0534
 7826SOL    HW231070   2.291   0.731   2.586 -0.6802  0.6165 -0.1740
 7826SOL    HW331071   2.350   0.602   2.534 -1.5095 -0.1294  0.6788
 7826SOL    MW431072   2.345   0.663   2.596  0.6298  0.2322 -0.5580
 7827SOL     OW31073   4.146   1.908   4.215 -0.1769 -0.2892 -0.2946
 7827SOL    HW231074   4.061   1.921   4.174 -0.3474 -0.2423  0.0732
 7827SOL    HW331075   4.180   1.828   4.175  0.0034  0.1786 -1.1029
 7827SOL    MW431076   4.140   1.899   4.204  0.0814 -0.0676  0.4829
 7828SOL     OW31077   3.358   5.360   3.283  0.5320  0.4206  0.1091
 7828SOL    HW231078   3.438   5.307   3.283 -0.0320 -0.4500 -0.3261
 7828SOL    HW331079   3.312   5.335   3.363  0.2339  0.1876 -0.1298
 7828SOL    MW431080   3.363   5.350   3.294 -0.1006  0.0222 -0.3696
 7829SOL     OW31081   5.836   0.515   0.238  0.1463 -0.3736  0.2315
 7829SOL    HW231082   5.825   0.597   0.191 -0.3821  1.1324  2.7532
 7829SOL    HW331083   5.930   0.498   0.237  0.3108  0.5363  0.0612
 7829SOL    MW431084   5.847   0.523   0.232  0.2898 -1.0851  0.0571
 7830SOL     OW31085   2.376   1.963   3.306 -0.0933 -0.2934 -0.1293
 7830SOL    HW231086   2.283   1.966   3.330  0.4478 -2.0901  2.6340
 7830SOL    HW331087   2.379   1.903   3.231 -1.0841 -1.0470  0.3998
 7830SOL    MW431088   2.364   1.956   3.300 -0.4377 -0.1347  0.5907
 7831SOL     OW31089   0.198   4.480   5.391  0.2795 -0.0205 -0.7207
 7831SOL    HW231090   0.226   4.571   5.401  0.0641 -0.1413  1.3343
 7831SOL    HW331091   0.118   4.474   5.442  0.8896 -1.6175  0.0931
 7831SOL    MW431092   0.191   4.491   5.399 -0.9431 -0.5669 -0.1919
 7832SOL     OW31093   0.430   5.415   2.758 -0.0682 -0.0255  0.3506
 7832SOL    HW231094   0.412   5.360   2.834 -0.1901 -0.4680  0.0113
 7832SOL    HW331095   0.424   5.504   2.790 -0.0771 -0.2103  0.8680
 7832SOL    MW431096   0.427   5.419   2.772  0.2634 -0.1264  0.7623
 7833SOL     OW31097   0.063   1.930   0.443 -0.0706  0.5010  0.3571
 7833SOL    HW231098   0.096   1.849   0.483  0.8387  1.0857  0.7937
 7833SOL    HW331099   0.069   1.914   0.349  1.6174  0.6511  0.4223
 7833SOL    MW431100   0.068   1.917   0.436  0.4008 -0.0393  0.1534
 7834SOL     OW31101   5.322   4.838   0.802  0.0177  0.7488  0.3098
 7834SOL    HW231102   5.276   4.883   0.732 -0.9735 -1.4336 -0.5496
 7834SOL    HW331103   5.389   4.786   0.758  1.3015  1.5153  1.2785
 7834SOL    MW431104   5.325   4.837   0.787 -0.6568  0.0392 -0.0454
 7835SOL     OW31105   1.825   5.039   0.493  0.3466  0.2838 -0.2257
 7835SOL    HW231106   1.739   5.080   0.484  0.5651  1.3151  1.9025
 7835SOL    HW331107   1.820   4.989   0.574  0.8445 -2.1337 -1.5934
 7835SOL    MW431108   1.813   5.038   0.502 -0.3959  0.4562  0.0525
 7836SOL     OW31109   1.364   0.899   0.033  0.3535  0.5497  0.5418
 7836SOL    HW231110   1.353   0.816  -0.014 -1.1605  1.5453 -0.9850
 7836SOL    HW331111   1.403   0.874   0.117 -1.8618 -1.9587  0.9515
 7836SOL    MW431112   1.368   0.885   0.038 -0.5919  0.1450 -0.1907
 7837SOL     OW31113   5.348   5.982   2.329  0.3705 -0.1290 -0.5741
 7837SOL    HW231114   5.265   5.951   2.295  1.2858 -0.5536 -2.5815
 7837SOL    HW331115   5.371   6.056   2.272  0.8815  0.6344  0.5968
 7837SOL    MW431116   5.340   5.988   2.317  0.2360 -0.3123 -0.0900
 7838SOL     OW31117   5.689   2.805   1.611  0.1637  0.0322  0.0890
 7838SOL    HW231118   5.628   2.797   1.684  1.3410  1.9617  1.3541
 7838SOL    HW331119   5.652   2.875   1.557 -0.8235 -1.5348 -1.3557
 7838SOL    MW431120   5.676   2.813   1.613  0.3093 -0.8569  0.5629
 7839SOL     OW31121   1.879   0.670   5.648 -0.0423  0.1370  0.2439
 7839SOL    HW231122   1.930   0.663   5.729 -0.4430  2.0287  0.7098
 7839SOL    HW331123   1.939   0.711   5.585 -0.8345  2.2167  0.7461
 7839SOL    MW431124   1.894   0.675   5.651  0.1126  0.1830  0.5370
 7840SOL     OW31125   1.288   0.833   2.316 -0.5343 -0.4177  0.0165
 7840SOL    HW231126   1.355   0.769   2.339 -0.3539  0.0615  0.8469
 7840SOL    HW331127   1.336   0.915   2.305 -0.9746 -0.0828  0.5640
 7840SOL    MW431128   1.303   0.835   2.317 -0.1404 -0.3143  0.0000
 7841SOL     OW31129   1.312   0.171   4.182 -0.5792 -0.3137  0.1659
 7841SOL    HW231130   1.326   0.097   4.123  0.1839 -0.3749  0.4082
 7841SOL    HW331131   1.400   0.208   4.196 -0.5648 -0.9132  2.0508
 7841SOL    MW431132   1.326   0.166   4.176  0.3522 -0.0080  0.1133
 7842SOL     OW31133   3.544   2.430   2.879 -0.2583 -0.1296 -0.2596
 7842SOL    HW231134   3.634   2.456   2.901 -0.8169  1.0943  0.7265
 7842SOL    HW331135   3.530   2.464   2.791  0.2715 -0.4069 -0.4538
 7842SOL    MW431136   3.554   2.438   2.870  0.0036  0.7266  0.0318
 7843SOL     OW31137   2.711   0.377   1.300  0.1380  0.1401 -0.7691
 7843SOL    HW231138   2.793   0.397   1.345  0.2984 -0.5696 -0.7457
 7843SOL    HW331139   2.658   0.456   1.312 -0.0878 -0.2541  1.2365
 7843SOL    MW431140   2.714   0.390   1.308  0.2564 -0.4581  0.2099
 7844SOL     OW31141   4.564   4.405   0.773 -0.8005 -0.6067 -0.2662
 7844SOL    HW231142   4.591   4.371   0.688 -0.6596 -0.0556 -0.4463
 7844SOL    HW331143   4.586   4.498   0.770 -1.5508 -0.4111  0.0666
 7844SOL    MW431144   4.570   4.413   0.762  0.5474  0.8316  0.2412
 7845SOL     OW31145   2.520   2.857   6.113  1.2728 -0.3940  0.3030
 7845SOL    HW231146   2.575   2.783   6.087  1.5688 -0.0317 -0.1298
 7845SOL    HW331147   2.498   2.901   6.031 -0.4699 -1.0694  0.3784
 7845SOL    MW431148   2.524   2.853   6.099  0.3542  0.1663 -0.2241
 7846SOL     OW31149   1.109   4.614   4.664 -0.3651 -0.0098 -0.5434
 7846SOL    HW231150   1.180   4.651   4.717  0.1732  0.1536 -1.3575
 7846SOL    HW331151   1.154   4.557   4.601 -0.8255  1.1092 -1.9298
 7846SOL    MW431152   1.124   4.611   4.662 -1.1050  0.3729 -0.1291
 7847SOL     OW31153   3.608   4.579   1.667 -0.1590 -0.1852  0.1215
 7847SOL    HW231154   3.584   4.662   1.710 -1.4396 -1.5959  2.3106
 7847SOL    HW331155   3.702   4.570   1.682 -0.1567  0.4879  0.5555
 7847SOL    MW431156   3.617   4.589   1.674  0.2080 -0.1273 -0.4181
 7848SOL     OW31157   0.624   3.517   1.657  0.1306  0.9375 -0.3562
 7848SOL    HW231158   0.574   3.554   1.729 -0.0146 -0.7757  0.4736
 7848SOL    HW331159   0.558   3.491   1.593 -0.0596 -0.7736  0.4780
 7848SOL    MW431160   0.608   3.518   1.658 -0.0446  0.5420  0.3781
 7849SOL     OW31161   0.894   0.516   5.641  0.1060 -0.3534  0.0026
 7849SOL    HW231162   0.916   0.598   5.597  1.1877 -0.2471  0.6953
 7849SOL    HW331163   0.960   0.454   5.609  0.1165 -0.6019  0.5073
 7849SOL    MW431164   0.906   0.518   5.631 -0.7640  0.2981 -0.2300
 7850SOL     OW31165   2.286   6.234   2.400  0.5922  0.0114  0.0301
 7850SOL    HW231166   2.308   6.308   2.457  2.4937 -0.4364 -0.0539
 7850SOL    HW331167   2.210   6.263   2.350  0.0905  1.1509  1.3971
 7850SOL    MW431168   2.279   6.248   2.401  0.4978  0.1850  0.0154
 7851SOL     OW31169   1.689   4.923   2.900  0.0436 -0.4594 -0.5419
 7851SOL    HW231170   1.734   4.913   2.816  1.3823 -1.0544  0.2291
 7851SOL    HW331171   1.693   4.837   2.940  0.9512  0.2088  0.8806
 7851SOL    MW431172   1.695   4.911   2.894 -0.5231  0.0438 -0.0347
 7852SOL     OW31173   0.597   5.194   1.838 -0.3356 -0.3528  0.3866
 7852SOL    HW231174   0.646   5.198   1.756 -1.1267  2.3441 -0.0561
 7852SOL    HW331175   0.619   5.108   1.875  4.1120  0.3684 -0.0678
 7852SOL    MW431176   0.606   5.183   1.832  0.0413 -0.2726 -0.3889
 7853SOL     OW31177   2.761   3.419   3.295 -0.4224 -0.0269 -0.7341
 7853SOL    HW231178   2.715   3.345   3.255  0.1194 -1.2196  0.7671
 7853SOL    HW331179   2.847   3.385   3.318  0.8485  1.8517 -2.4135
 7853SOL    MW431180   2.766   3.405   3.293  0.2892 -0.4633  0.3660
 7854SOL     OW31181   2.725   5.737   4.299 -0.4032  0.1528  0.3964
 7854SOL    HW231182   2.670   5.760   4.373  2.6208 -1.7388  3.5503
 7854SOL    HW331183   2.723   5.641   4.295  2.6258 -0.0375  0.8326
 7854SOL    MW431184   2.718   5.727   4.308  0.0916  0.1881  0.0268
 7855SOL     OW31185   1.809   5.971   2.785  0.1567  0.3084 -0.0637
 7855SOL    HW231186   1.896   5.980   2.826  0.5553 -0.6461 -0.6537
 7855SOL    HW331187   1.748   5.978   2.858  0.8349 -0.9609  0.6855
 7855SOL    MW431188   1.813   5.973   2.800  0.0689 -0.1718 -0.5126
 7856SOL     OW31189   1.279   5.363   5.578 -0.7662 -0.0648  0.0076
 7856SOL    HW231190   1.280   5.454   5.607  0.0973 -0.2162  0.4948
 7856SOL    HW331191   1.368   5.346   5.547 -0.9623 -0.6942 -0.2337
 7856SOL    MW431192   1.291   5.373   5.578 -0.7077 -0.2805 -0.2818
 7857SOL     OW31193   6.004   4.781   4.468  0.4438 -0.4133  0.2310
 7857SOL    HW231194   5.938   4.819   4.527  2.1523  0.9678  1.3212
 7857SOL    HW331195   5.966   4.792   4.381 -1.0965 -0.3373  0.8651
 7857SOL    MW431196   5.990   4.787   4.465 -0.4939  0.2329 -0.2661
 7858SOL     OW31197   4.616   1.560   2.461 -0.1386  0.6825 -0.2473
 7858SOL    HW231198   4.572   1.506   2.527  0.4896  1.2292  0.6436
 7858SOL    HW331199   4.604   1.512   2.379 -0.3417 -0.3722  0.3749
 7858SOL    MW431200   4.609   1.547   2.459  0.2818 -0.0264 -0.1752
 7859SOL     OW31201   0.468   4.285   1.153  0.4657  0.4437 -0.3249
 7859SOL    HW231202   0.513   4.309   1.072  3.8882 -1.4928  0.7919
 7859SOL    HW331203   0.500   4.348   1.218 -0.1436  0.3489  0.0720
 7859SOL    MW431204   0.478   4.297   1.151  0.1049  0.4548  0.9568
 7860SOL     OW31205   3.348   0.500   5.090  0.2583  0.2256  0.2155
 7860SOL    HW231206   3.443   0.512   5.078  0.3923 -0.7756  0.2214
 7860SOL    HW331207   3.340   0.426   5.150 -0.5241  1.0280  1.1224
 7860SOL    MW431208   3.360   0.492   5.096 -0.1859  0.3806  0.1140
 7861SOL     OW31209   2.255   1.918   0.096 -0.3926 -0.6929 -0.0947
 7861SOL    HW231210   2.314   1.974   0.147 -0.6712  0.1328 -0.6471
 7861SOL    HW331211   2.312   1.853   0.056 -0.1926 -1.4795  1.4079
 7861SOL    MW431212   2.270   1.917   0.097  0.4355  0.6586  0.3204
 7862SOL     OW31213   1.733   4.388   0.477  0.1911 -0.8773  0.2123
 7862SOL    HW231214   1.797   4.321   0.456  1.4642  0.5589 -0.6959
 7862SOL    HW331215   1.655   4.363   0.428  0.1204 -2.4826  1.0934
 7862SOL    MW431216   1.731   4.376   0.468  1.3775 -0.9760  0.0335
 7863SOL     OW31217   1.819   6.361   1.916  0.2534  0.2264 -0.0743
 7863SOL    HW231218   1.793   6.390   2.003 -0.3655  0.8682 -0.4621
 7863SOL    HW331219   1.832   6.441   1.866  2.7531 -0.0553 -0.0058
 7863SOL    MW431220   1.817   6.375   1.921  1.2541 -0.3276 -0.3071
 7864SOL     OW31221   1.829   3.718   4.006 -0.2258 -0.1149  0.7141
 7864SOL    HW231222   1.776   3.651   3.962  0.8002 -0.4717 -0.0242
 7864SOL    HW331223   1.876   3.671   4.075 -0.2543  0.0329  0.8344
 7864SOL    MW431224   1.828   3.703   4.009 -0.4170 -0.2132 -0.3297
 7865SOL     OW31225   3.432   1.992   4.775  0.5758  0.2272 -0.3323
 7865SOL    HW231226   3.480   2.057   4.723 -0.0172 -0.0663 -1.2704
 7865SOL    HW331227   3.472   1.997   4.861 -0.8022  3.3923  0.2881
 7865SOL    MW431228   3.443   2.001   4.779 -0.1170  0.6138  0.0766
 7866SOL     OW31229   3.300   3.165   4.243 -0.2947 -0.6510 -0.4329
 7866SOL    HW231230   3.288   3.209   4.159 -0.4566 -0.3808 -0.2689
 7866SOL    HW331231   3.237   3.207   4.302  0.7005  0.0570  0.1585
 7866SOL    MW431232   3.290   3.177   4.240 -0.0087  0.4413 -0.0539
 7867SOL     OW31233   2.135   3.440   4.943  0.3825  0.4738 -0.0559
 7867SOL    HW231234   2.143   3.444   4.848  3.1439 -0.5919  0.0375
 7867SOL    HW331235   2.157   3.529   4.973 -1.0494  0.9693 -0.3672
 7867SOL    MW431236   2.139   3.452   4.935 -0.2225  0.8071  0.5966
 7868SOL     OW31237   0.120   4.523   4.980  0.3839  0.7405 -0.6195
 7868SOL    HW231238   0.047   4.500   5.039  0.3571  1.6136 -0.3058
 7868SOL    HW331239   0.080   4.579   4.914  0.1149 -1.3017 -2.3101
 7868SOL    MW431240   0.105   4.527   4.979  0.2634 -0.5322  0.3321
 7869SOL     OW31241   1.098   2.729   4.806 -0.1111 -0.0724  0.0996
 7869SOL    HW231242   1.157   2.692   4.872 -1.5192  0.3589  1.6672
 7869SOL    HW331243   1.012   2.732   4.849 -0.7157  1.9405 -1.0951
 7869SOL    MW431244   1.094   2.725   4.821  0.7378 -0.1218 -0.0231
 7870SOL     OW31245   3.687   2.229   3.973 -0.6311 -0.3095 -0.7918
 7870SOL    HW231246   3.765   2.192   3.931  0.8369  1.7553 -0.0975
 7870SOL    HW331247   3.716   2.251   4.061 -2.7306 -1.6250  0.2893
 7870SOL    MW431248   3.701   2.227   3.979  0.3208  0.0318 -0.2091
 7871SOL     OW31249   1.351   4.409   2.505  0.0703 -0.6240 -0.7601
 7871SOL    HW231250   1.373   4.350   2.577 -0.5246  0.8727  0.7484
 7871SOL    HW331251   1.256   4.422   2.513  0.3246  1.3304 -0.3352
 7871SOL    MW431252   1.341   4.403   2.516  0.1775 -0.3012 -0.2127
 7872SOL     OW31253   3.037   2.662   4.137 -0.0648  0.1193 -0.6241
 7872SOL    HW231254   2.993   2.742   4.108  0.5733  0.6178 -0.2271
 7872SOL    HW331255   3.125   2.690   4.161  0.3298 -0.7893 -0.9632
 7872SOL    MW431256   3.043   2.676   4.136  0.3842 -0.1093  0.5799
 7873SOL     OW31257   4.592   4.703   2.940  0.0537 -0.1133  0.1443
 7873SOL    HW231258   4.585   4.783   2.889 -1.4393 -0.6044 -0.4833
 7873SOL    HW331259   4.538   4.639   2.893  1.0459 -1.4392  0.7313
 7873SOL    MW431260   4.584   4.705   2.927 -0.1649  0.3648 -0.6824
 7874SOL     OW31261   5.282   1.365   5.901 -0.0755 -0.5748 -0.2738
 7874SOL    HW231262   5.338   1.407   5.837 -2.7825 -0.0097 -2.4785
 7874SOL    HW331263   5.309   1.403   5.985  1.6014  0.9638 -1.4322
 7874SOL    MW431264   5.293   1.375   5.904  0.0200  0.4618 -0.4830
 7875SOL     OW31265   2.292   4.138   4.789 -0.4603  0.3541  0.1615
 7875SOL    HW231266   2.324   4.054   4.757 -1.2826 -0.5916  1.7138
 7875SOL    HW331267   2.287   4.193   4.711 -1.2458 -1.4535 -1.1341
 7875SOL    MW431268   2.296   4.134   4.775  0.6342 -0.0415  0.1539
 7876SOL     OW31269   5.865   4.990   1.407 -0.5849  0.5672  0.1698
 7876SOL    HW231270   5.830   4.942   1.482  1.0564 -0.4074  0.3597
 7876SOL    HW331271   5.947   5.027   1.439 -1.4394  2.9118 -0.2113
 7876SOL    MW431272   5.871   4.988   1.421  0.2743  0.2734 -0.3081
 7877SOL     OW31273   2.156   0.328   1.845  0.0949 -0.4474  0.0311
 7877SOL    HW231274   2.183   0.329   1.753 -1.5392  0.2883 -0.4922
 7877SOL    HW331275   2.162   0.237   1.872  1.2746 -0.5607 -0.5895
 7877SOL    MW431276   2.160   0.316   1.836  0.0434 -0.5267  0.1555
 7878SOL     OW31277   3.203   2.318   2.647 -0.0733 -0.2748  0.5095
 7878SOL    HW231278   3.244   2.294   2.730  0.0537 -0.5990  0.3548
 7878SOL    HW331279   3.118   2.353   2.671  0.1486  0.0693  0.8105
 7878SOL    MW431280   3.198   2.320   2.661  0.4673  0.3457  0.5730
 7879SOL     OW31281   0.847   1.807   0.632 -0.4657 -0.2279 -0.0969
 7879SOL    HW231282   0.933   1.812   0.673  0.4940 -1.4997 -1.8002
 7879SOL    HW331283   0.822   1.899   0.619  0.7151  0.1709  0.2497
 7879SOL    MW431284   0.855   1.820   0.636  0.4979 -0.4129  0.3570
 7880SOL     OW31285   2.981   5.731   2.342 -0.3302 -0.4477  0.2516
 7880SOL    HW231286   2.941   5.645   2.326 -1.1148  0.1589 -1.2766
 7880SOL    HW331287   3.074   5.718   2.323 -0.5931 -0.7617 -0.9092
 7880SOL    MW431288   2.988   5.718   2.338 -0.5345  0.5262  0.0550
 7881SOL     OW31289   5.098   3.085   3.334 -0.6271 -0.0997 -0.1484
 7881SOL    HW231290   5.119   3.129   3.416  0.5826 -1.2186  0.1768
 7881SOL    HW331291   5.179   3.091   3.283 -1.6638  1.4877 -1.7269
 7881SOL    MW431292   5.112   3.092   3.338 -0.4511  0.0607  0.4097
 7882SOL     OW31293   3.060   1.442   5.862  0.8961  0.4250 -0.2442
 7882SOL    HW231294   3.066   1.427   5.956  0.1216  1.2181 -0.0574
 7882SOL    HW331295   3.098   1.364   5.823 -0.6944 -0.8921  0.7152
 7882SOL    MW431296   3.066   1.430   5.869 -1.1727 -0.3102 -0.3856
 7883SOL     OW31297   5.487   1.026   4.857 -0.0080  0.0437 -0.0591
 7883SOL    HW231298   5.552   1.065   4.798  0.4986 -1.1500 -0.3150
 7883SOL    HW331299   5.489   1.082   4.934  0.0031  1.0841 -0.7870
 7883SOL    MW431300   5.496   1.038   4.859  0.0939  0.1346  0.1501
 7884SOL     OW31301   0.094   1.276   2.602  0.0666 -0.0914 -0.7817
 7884SOL    HW231302   0.175   1.291   2.651  0.9650 -0.7041 -2.0121
 7884SOL    HW331303   0.086   1.353   2.546  1.5873 -1.3904 -2.9615
 7884SOL    MW431304   0.104   1.288   2.601  0.6543 -0.2602 -0.2585
 7885SOL     OW31305   1.312   1.891   5.950  0.0080  0.5577  0.0942
 7885SOL    HW231306   1.306   1.865   5.858  0.4571  1.5188 -0.2314
 7885SOL    HW331307   1.402   1.923   5.960 -0.5016  2.0054  0.4153
 7885SOL    MW431308   1.323   1.892   5.939  0.1912 -0.2025 -0.5027
 7886SOL     OW31309   5.150   2.475   5.074 -0.7111  0.3915 -0.2911
 7886SOL    HW231310   5.092   2.538   5.031 -0.2773  1.2666  0.3884
 7886SOL    HW331311   5.165   2.511   5.161  0.7554  0.1425 -0.4042
 7886SOL    MW431312   5.145   2.488   5.080 -0.1724 -0.1132  0.4698
 7887SOL     OW31313   4.564   3.232   5.201  0.8720 -0.9471 -0.2947
 7887SOL    HW231314   4.584   3.146   5.164 -0.1224 -0.9506 -0.8686
 7887SOL    HW331315   4.469   3.239   5.195  0.9246  0.1435 -0.1420
 7887SOL    MW431316   4.554   3.222   5.195  0.0355  0.6919  0.3091
 7888SOL     OW31317   3.929   0.765   3.313 -0.3567 -0.0152 -0.1692
 7888SOL    HW231318   4.013   0.725   3.288 -0.0417 -0.0775  0.9250
 7888SOL    HW331319   3.954   0.847   3.356 -0.9327  0.6225 -1.0089
 7888SOL    MW431320   3.944   0.771   3.315  0.5944 -0.1078 -0.3085
 7889SOL     OW31321   2.399   2.882   2.585  0.0247  0.0625  0.3567
 7889SOL    HW231322   2.359   2.912   2.667 -1.4450 -0.0685 -0.2818
 7889SOL    HW331323   2.403   2.786   2.594 -0.8428 -0.0202 -0.0047
 7889SOL    MW431324   2.394   2.873   2.597  0.2275 -0.5548  0.2383
 7890SOL     OW31325   0.516   6.053   2.161  0.1570 -0.3174  0.5397
 7890SOL    HW231326   0.505   6.086   2.251 -0.5524 -0.2010  0.4183
 7890SOL    HW331327   0.585   5.987   2.168  3.2188  2.6210  0.4280
 7890SOL    MW431328   0.523   6.048   2.174 -0.8510 -0.1478 -0.7177
 7891SOL     OW31329   1.339   0.476   3.659 -0.0947 -0.0732 -0.5510
 7891SOL    HW231330   1.251   0.472   3.696 -0.0639  0.7703 -0.3678
 7891SOL    HW331331   1.377   0.390   3.677 -0.6208 -0.1875  0.0220
 7891SOL    MW431332   1.333   0.464   3.666  0.0187 -0.1411  0.4183
 7892SOL     OW31333   1.198   1.143   6.178 -0.4720  0.3492 -0.4784
 7892SOL    HW231334   1.293   1.148   6.188 -0.1022 -3.2128 -0.8630
 7892SOL    HW331335   1.165   1.144   6.268 -0.0584  0.9865 -0.3204
 7892SOL    MW431336   1.206   1.144   6.191 -0.5172  0.3596 -0.3401
 7893SOL     OW31337   2.187   0.800   2.355 -0.0648  0.3290 -0.0688
 7893SOL    HW231338   2.190   0.725   2.296 -1.3163 -2.6811  3.2955
 7893SOL    HW331339   2.278   0.819   2.374  0.2814 -0.3050 -1.0003
 7893SOL    MW431340   2.199   0.793   2.350  0.3716 -0.5265 -0.4328
 7894SOL     OW31341   0.017   5.671   4.348 -0.4179  0.0115 -0.3348
 7894SOL    HW231342  -0.020   5.737   4.407 -0.1340 -0.1770  0.0541
 7894SOL    HW331343  -0.032   5.591   4.366  0.8934 -0.5444  0.9912
 7894SOL    MW431344   0.006   5.669   4.358 -0.0223  0.0521 -0.1296
 7895SOL     OW31345   5.683   1.581   0.550 -0.4004 -0.8877  0.0844
 7895SOL    HW231346   5.605   1.569   0.605  1.2399 -1.1682  2.5401
 7895SOL    HW331347   5.704   1.494   0.518 -1.2817 -0.7509 -0.9026
 7895SOL    MW431348   5.676   1.568   0.553 -0.0392  0.1304 -0.7097
 7896SOL     OW31349   5.403   1.073   0.682 -0.2331  0.2292  0.3488
 7896SOL    HW231350   5.462   1.081   0.757  0.2846 -0.5198  0.0349
 7896SOL    HW331351   5.327   1.126   0.705 -0.8043 -1.2615  2.1064
 7896SOL    MW431352   5.401   1.081   0.695  0.1610 -0.4457 -0.2053
 7897SOL     OW31353   3.896   1.025   2.682  0.5175  0.2472 -0.3091
 7897SOL    HW231354   3.806   1.038   2.712 -0.6792 -1.7661 -2.6795
 7897SOL    HW331355   3.917   0.935   2.707  0.9059 -0.1416 -1.9322
 7897SOL    MW431356   3.887   1.015   2.689 -0.1659 -0.3860  0.2786
 7898SOL     OW31357   4.365   6.052   2.057  0.0708 -0.5540 -0.1522
 7898SOL    HW231358   4.284   6.037   2.007  0.6175 -0.3750 -1.1205
 7898SOL    HW331359   4.388   6.143   2.039  0.6338 -0.6819 -0.0951
 7898SOL    MW431360   4.357   6.062   2.048 -0.2750 -0.7617  0.2012
 7899SOL     OW31361   4.348   0.594   3.699 -0.8874  0.3369 -0.2350
 7899SOL    HW231362   4.332   0.662   3.634 -1.2022 -1.3263 -1.9863
 7899SOL    HW331363   4.262   0.557   3.718 -0.5488 -0.6508 -0.5567
 7899SOL    MW431364   4.335   0.598   3.693 -0.9188 -0.0032  0.2028
 7900SOL     OW31365   4.178   2.471   4.822 -0.0912  0.8733 -0.1424
 7900SOL    HW231366   4.188   2.545   4.881  2.1336  0.8010 -0.3468
 7900SOL    HW331367   4.186   2.509   4.734  1.2682  0.4013 -0.2434
 7900SOL    MW431368   4.180   2.486   4.818  0.0546  0.0895  0.1629
 7901SOL     OW31369   0.101   3.467   4.409 -0.3919 -0.2988  0.3213
 7901SOL    HW231370   0.118   3.546   4.358 -0.2051 -0.6450 -0.1594
 7901SOL    HW331371   0.005   3.461   4.413 -0.4137 -0.4216 -0.2433
 7901SOL    MW431372   0.090   3.476   4.403 -0.0851  0.7226 -0.4779
 7902SOL     OW31373   0.651   5.713   5.241 -0.2975  0.8722 -0.4182
 7902SOL    HW231374   0.655   5.620   5.218 -1.4309  0.2373  1.6540
 7902SOL    HW331375   0.741   5.736   5.262 -0.1113  0.0237 -0.2278
 7902SOL    MW431376   0.663   5.703   5.241 -0.1874 -0.0956 -0.6908
 7903SOL     OW31377   3.310   4.421   0.908 -0.4592  0.0285  0.4594
 7903SOL    HW231378   3.251   4.359   0.864 -0.7779 -0.1424  1.1157
 7903SOL    HW331379   3.391   4.417   0.857 -0.6013 -0.6614  0.2744
 7903SOL    MW431380   3.313   4.412   0.895 -0.2021 -0.2715  0.3842
 7904SOL     OW31381   1.888   5.942   0.399  0.4101 -0.7902 -0.1102
 7904SOL    HW231382   1.900   5.893   0.318  1.6704  2.9756 -2.4623
 7904SOL    HW331383   1.972   5.938   0.444  0.1190 -1.7750  0.3619
 7904SOL    MW431384   1.900   5.935   0.394  0.1866 -0.3230  0.0643
 7905SOL     OW31385   2.320   5.794   5.910  0.0682  0.1743 -0.5931
 7905SOL    HW231386   2.234   5.811   5.948  1.5335  3.5078  1.7017
 7905SOL    HW331387   2.302   5.775   5.818 -3.2747 -2.7140  0.4309
 7905SOL    MW431388   2.306   5.794   5.903  0.6169 -0.5191 -0.1713
 7906SOL     OW31389   1.530   4.670   0.292 -0.5420  0.2654 -0.6461
 7906SOL    HW231390   1.510   4.752   0.248 -0.7532  0.1003 -0.8579
 7906SOL    HW331391   1.552   4.695   0.382 -1.3857  0.4789 -0.4923
 7906SOL    MW431392   1.531   4.684   0.298 -0.4880 -0.4181 -0.9071
 7907SOL     OW31393   5.252   2.791   4.998  0.6183  0.4242  0.1904
 7907SOL    HW231394   5.326   2.732   5.015  1.2680  0.7833 -1.2810
 7907SOL    HW331395   5.280   2.844   4.924 -0.5438  1.5946  0.5505
 7907SOL    MW431396   5.266   2.790   4.991  0.1730 -0.5575 -0.0531
 7908SOL     OW31397   1.975   0.438   1.537  0.1288 -0.1963 -0.3092
 7908SOL    HW231398   1.907   0.404   1.595 -0.8531 -0.1842 -1.4270
 7908SOL    HW331399   2.043   0.371   1.537 -0.1318 -0.4666  0.3740
 7908SOL    MW431400   1.975   0.425   1.545  0.2488 -0.4614 -0.9842
 7909SOL     OW31401   5.607   3.652   2.276 -0.0808 -0.5105  0.0177
 7909SOL    HW231402   5.627   3.694   2.360  0.2858 -1.0229  0.1959
 7909SOL    HW331403   5.534   3.592   2.296 -0.3029 -0.2936 -0.1347
 7909SOL    MW431404   5.600   3.650   2.290  0.3321 -0.2510  0.4585
 7910SOL     OW31405   5.768   5.624   1.251  0.3658 -0.3269 -0.5766
 7910SOL    HW231406   5.717   5.683   1.197  1.7261  0.9795 -0.5050
 7910SOL    HW331407   5.843   5.599   1.196  0.5563 -0.8302 -0.1009
 7910SOL    MW431408   5.771   5.628   1.237 -0.1688 -0.4459 -0.6814
 7911SOL     OW31409   1.290   2.425   3.877  0.0842 -0.1305  0.2062
 7911SOL    HW231410   1.197   2.448   3.870 -0.1303 -0.9647  0.1897
 7911SOL    HW331411   1.336   2.500   3.839 -0.4938  0.9816  1.5986
 7911SOL    MW431412   1.283   2.438   3.871  0.0357 -0.6557 -0.1230
 7912SOL     OW31413   2.529   5.270   3.493 -0.3958 -0.2954 -0.2685
 7912SOL    HW231414   2.523   5.350   3.545 -1.3450 -1.5563  1.7064
 7912SOL    HW331415   2.596   5.288   3.428 -0.4851  2.0386  0.1969
 7912SOL    MW431416   2.537   5.283   3.492 -0.7829  0.5514 -0.1830
 7913SOL     OW31417   3.558   2.167   4.603 -0.4598 -0.3275  0.7806
 7913SOL    HW231418   3.650   2.142   4.606 -0.7994 -1.4971  2.8561
 7913SOL    HW331419   3.560   2.263   4.596  0.8515 -0.4629 -2.6211
 7913SOL    MW431420   3.570   2.177   4.602 -0.5716 -1.0478 -0.5902
 7914SOL     OW31421   4.933   1.686   0.815  0.1271 -0.1948 -0.2186
 7914SOL    HW231422   4.970   1.773   0.830 -0.0743 -0.1229 -0.1438
 7914SOL    HW331423   4.943   1.641   0.899 -1.6630  0.4489  0.3724
 7914SOL    MW431424   4.940   1.692   0.828  0.1138 -0.1525 -0.7155
 7915SOL     OW31425   5.314   6.142   3.474 -0.0630 -0.0137  0.4564
 7915SOL    HW231426   5.337   6.194   3.396  0.1003 -2.8309 -1.5040
 7915SOL    HW331427   5.245   6.083   3.444 -1.8350  0.4886  3.2157
 7915SOL    MW431428   5.308   6.141   3.459  0.5681 -0.5820  0.3042
 7916SOL     OW31429   3.824   5.892   5.780  0.6725  0.3339  0.2283
 7916SOL    HW231430   3.918   5.892   5.800  0.5911  0.4264  0.6271
 7916SOL    HW331431   3.786   5.951   5.846  0.6209  2.1752 -1.3475
 7916SOL    MW431432   3.832   5.900   5.792 -0.7952  0.1232 -0.0696
 7917SOL     OW31433   4.822   3.557   2.967  0.2203  0.6133 -0.2877
 7917SOL    HW231434   4.821   3.622   3.038 -0.4806  1.1060 -0.7355
 7917SOL    HW331435   4.772   3.599   2.897 -1.3482 -0.9196 -0.1406
 7917SOL    MW431436   4.816   3.571   2.967  0.1751  0.7871 -0.0356
 7918SOL     OW31437   6.029   0.929   2.915 -0.0385  0.9972 -0.3555
 7918SOL    HW231438   6.099   0.891   2.862 -0.3831  2.5302 -2.0290
 7918SOL    HW331439   5.950   0.913   2.865 -0.8124 -0.0034  1.1251
 7918SOL    MW431440   6.028   0.922   2.902  0.1383 -0.1216  0.1382
 7919SOL     OW31441   0.198   1.211   1.107  0.6559 -0.3442  0.8181
 7919SOL    HW231442   0.112   1.171   1.098 -0.4309  2.1836 -1.2718
 7919SOL    HW331443   0.182   1.288   1.162  1.2343  0.9491 -0.7694
 7919SOL    MW431444   0.185   1.216   1.113 -0.1789  0.4108 -0.3361
 7920SOL     OW31445   4.020   2.201   2.944 -0.1076 -0.0097  0.6858
 7920SOL    HW231446   4.060   2.275   2.990  0.7324  0.7919 -1.2393
 7920SOL    HW331447   4.085   2.131   2.951 -0.0701  0.0409  0.8635
 7920SOL    MW431448   4.033   2.201   2.951 -0.2228  0.1461  0.1006
 7921SOL     OW31449   4.464   0.016   0.439 -0.2059  0.6382  0.0623
 7921SOL    HW231450   4.441   0.060   0.356  0.6080 -0.6735 -0.8914
 7921SOL    HW331451   4.537  -0.041   0.416 -0.3472 -0.1852  1.5818
 7921SOL    MW431452   4.471   0.014   0.425 -0.2126  0.1646  0.2564
 7922SOL     OW31453   6.043   1.726   0.409 -0.1352  0.1958  0.2970
 7922SOL    HW231454   6.019   1.716   0.317  1.1524  1.6930 -0.2618
 7922SOL    HW331455   6.110   1.659   0.424 -1.0430 -0.7046  0.4608
 7922SOL    MW431456   6.049   1.716   0.399 -0.0278 -0.4158 -0.1618
 7923SOL     OW31457   5.513   0.376   4.726 -0.0513 -0.2377 -0.0683
 7923SOL    HW231458   5.510   0.461   4.681  1.9486  0.0461  0.2339
 7923SOL    HW331459   5.494   0.312   4.658 -1.8020  0.4290 -0.2567
 7923SOL    MW431460   5.510   0.379   4.711  0.6260  0.0751  0.4195
 7924SOL     OW31461   4.291   5.315   3.063  0.2573 -0.0111  0.2017
 7924SOL    HW231462   4.314   5.231   3.103 -0.0512  0.2246  0.9005
 7924SOL    HW331463   4.257   5.367   3.136  1.3316  1.0497 -0.0212
 7924SOL    MW431464   4.290   5.311   3.078 -0.3115 -0.2544  0.3789
 7925SOL     OW31465   3.789   0.411   0.322  0.3832  0.6967  0.2170
 7925SOL    HW231466   3.842   0.448   0.393  0.9712 -1.7059  1.1234
 7925SOL    HW331467   3.710   0.379   0.364  1.9074 -3.2787  0.4728
 7925SOL    MW431468   3.786   0.412   0.337  0.6037 -0.0484  0.3000
 7926SOL     OW31469   3.900   6.004   0.846  0.4385  0.4405  0.1584
 7926SOL    HW231470   3.830   5.969   0.902  1.0183  0.4938  0.9361
 7926SOL    HW331471   3.910   6.095   0.874  0.8217  0.4314  0.0550
 7926SOL    MW431472   3.892   6.011   0.857 -0.3063  0.3754  0.7693
 7927SOL     OW31473   2.973   3.193   5.706  1.0447 -0.2644 -0.0474
 7927SOL    HW231474   2.977   3.242   5.624  1.2650 -0.4427 -0.1470
 7927SOL    HW331475   2.891   3.143   5.701  0.9111 -0.0492 -0.0255
 7927SOL    MW431476   2.963   3.193   5.695 -0.2904 -0.3597  0.6246
 7928SOL     OW31477   5.991   0.264   3.045  0.2382  0.2620  0.2835
 7928SOL    HW231478   5.903   0.226   3.044 -0.2407  1.3374 -0.3669
 7928SOL    HW331479   6.024   0.251   2.956  1.2111 -1.1543  0.8227
 7928SOL    MW431480   5.984   0.258   3.033  0.1569 -0.4103 -0.1959
 7929SOL     OW31481   1.161   0.067   2.955  0.1281  0.4320  0.0260
 7929SOL    HW231482   1.066   0.074   2.953  0.1399  0.7786  0.5060
 7929SOL    HW331483   1.185   0.088   3.046  0.5916 -0.5760  0.1478
 7929SOL    MW431484   1.152   0.071   2.967 -0.0875  0.0415 -0.3997
 7930SOL     OW31485   3.660   2.468   2.247 -0.2681  0.6242  0.1998
 7930SOL    HW231486   3.744   2.421   2.248 -0.1941  0.5191 -3.1034
 7930SOL    HW331487   3.596   2.402   2.219 -1.1462  1.1973  0.8089
 7930SOL    MW431488   3.663   2.453   2.244  0.4459 -0.1486  0.5605
 7931SOL     OW31489   5.273   5.070   1.310  0.8752  0.5011  0.2951
 7931SOL    HW231490   5.235   5.119   1.383  1.3177  0.9988  0.1983
 7931SOL    HW331491   5.216   4.993   1.301 -0.5120  1.5612 -0.2863
 7931SOL    MW431492   5.260   5.066   1.319 -0.0945 -0.3140  0.1550
 7932SOL     OW31493   1.537   4.917   0.200  0.3228  0.2426 -0.0795
 7932SOL    HW231494   1.477   4.980   0.241 -0.6544 -0.7994  0.1197
 7932SOL    HW331495   1.623   4.938   0.238 -0.2384  0.5234  1.0839
 7932SOL    MW431496   1.541   4.928   0.210  0.0610 -0.1490  0.3609
 7933SOL     OW31497   5.224   1.294   0.786  0.2134 -0.4057 -0.2816
 7933SOL    HW231498   5.155   1.346   0.746 -0.2368 -1.2012 -0.5519
 7933SOL    HW331499   5.237   1.334   0.872 -0.3069 -0.0083 -0.3825
 7933SOL    MW431500   5.217   1.306   0.792  1.0543 -0.2590  0.7256
 7934SOL     OW31501   3.237   3.043   4.641 -0.3759  0.2135 -0.1098
 7934SOL    HW231502   3.203   2.970   4.589 -0.3129  0.0705  0.0490
 7934SOL    HW331503   3.329   3.020   4.657 -0.4515  0.1536  0.2481
 7934SOL    MW431504   3.245   3.031   4.636 -0.2829  0.9343  0.1878
 7935SOL     OW31505   6.324   0.721   2.349  0.0363  0.4199  0.2828
 7935SOL    HW231506   6.371   0.666   2.286  0.5586  1.2140 -0.0379
 7935SOL    HW331507   6.242   0.743   2.305  0.3514  0.8808 -0.0802
 7935SOL    MW431508   6.319   0.716   2.335  0.0964 -0.5487  0.4101
 7936SOL     OW31509   2.864   2.925   4.547  0.0915  0.1540  0.3293
 7936SOL    HW231510   2.948   2.899   4.510  0.3614  0.1973  0.8953
 7936SOL    HW331511   2.877   2.921   4.642 -0.8079 -0.6841  0.4338
 7936SOL    MW431512   2.876   2.921   4.555 -0.0947 -0.3914  0.4403
 7937SOL     OW31513   0.013   5.981   5.111  0.0548 -0.2183 -0.1670
 7937SOL    HW231514  -0.027   6.067   5.093  1.1753 -0.0063 -1.8893
 7937SOL    HW331515   0.086   6.001   5.170  0.6080  0.1073 -0.9415
 7937SOL    MW431516   0.017   5.995   5.116 -0.6234  0.0087 -0.2739
 7938SOL     OW31517   5.671   5.293   3.928  0.1298 -0.0129 -0.9243
 7938SOL    HW231518   5.648   5.265   3.840 -1.8042  1.7021 -1.0543
 7938SOL    HW331519   5.633   5.227   3.986 -0.6762  0.0886 -1.3258
 7938SOL    MW431520   5.663   5.281   3.924 -0.8048  0.1983 -1.0416
 7939SOL     OW31521   2.355   2.290   3.304  0.3107  0.0065 -0.1989
 7939SOL    HW231522   2.312   2.357   3.357 -0.4070  1.0138 -1.9519
 7939SOL    HW331523   2.321   2.207   3.336  0.3740  0.5350  1.2867
 7939SOL    MW431524   2.345   2.288   3.315  0.3288  0.1072  0.4410
 7940SOL     OW31525   2.671   1.623   4.409  0.5025 -0.1927  0.7491
 7940SOL    HW231526   2.736   1.673   4.459  0.1476  0.8841  0.1740
 7940SOL    HW331527   2.722   1.563   4.355  0.9899  0.1992  0.7667
 7940SOL    MW431528   2.686   1.622   4.409  0.0457 -0.4949 -0.5973
 7941SOL     OW31529   4.751   5.202   2.221 -0.2188 -0.0733 -0.2847
 7941SOL    HW231530   4.818   5.270   2.218  1.3616 -1.5757 -2.2075
 7941SOL    HW331531   4.679   5.237   2.169 -0.9496  1.4876  1.6538
 7941SOL    MW431532   4.750   5.216   2.213  0.3601 -0.3647  0.1048
 7942SOL     OW31533   3.542   5.846   4.457  0.0274 -0.0190 -0.1033
 7942SOL    HW231534   3.625   5.800   4.446  1.3700  2.1741  0.2094
 7942SOL    HW331535   3.487   5.815   4.386  0.3818 -2.9453  0.7723
 7942SOL    MW431536   3.546   5.836   4.446 -0.0297  0.9714  0.4144
 7943SOL     OW31537   4.792   2.897   2.920 -0.1448  0.0317 -0.3672
 7943SOL    HW231538   4.720   2.877   2.860 -0.4450  0.6385 -0.2222
 7943SOL    HW331539   4.841   2.966   2.875 -1.0058  1.2787  0.5527
 7943SOL    MW431540   4.789   2.904   2.906  0.0280  0.1535  0.4927
 7944SOL     OW31541   1.992   0.838   5.433 -0.5363 -0.0573 -0.7154
 7944SOL    HW231542   1.970   0.930   5.450 -2.2818 -0.6965  0.9095
 7944SOL    HW331543   1.992   0.830   5.338 -1.5280  1.3911 -0.8689
 7944SOL    MW431544   1.989   0.849   5.423 -0.0485 -0.3675  0.3829
 7945SOL     OW31545   2.183   0.010   2.761 -0.5454 -0.0279 -0.1196
 7945SOL    HW231546   2.118  -0.030   2.820 -0.9979  1.3739  0.3869
 7945SOL    HW331547   2.132   0.071   2.708  0.3992  1.5452  0.6952
 7945SOL    MW431548   2.168   0.013   2.762  0.7092 -0.6146  0.5712
 7946SOL     OW31549   3.892   1.065   1.840 -1.2049 -0.0783 -0.8067
 7946SOL    HW231550   3.813   1.036   1.885 -1.1541  0.6529 -0.2264
 7946SOL    HW331551   3.960   1.066   1.907 -0.5089 -1.4170 -1.4645
 7946SOL    MW431552   3.890   1.061   1.855  0.2001  0.1008  0.2882
 7947SOL     OW31553   3.650   0.296   5.195  0.1197  0.0445  0.2979
 7947SOL    HW231554   3.625   0.347   5.272 -0.8621  2.3193 -1.4001
 7947SOL    HW331555   3.639   0.357   5.122  0.6587 -2.1178 -1.6989
 7947SOL    MW431556   3.645   0.311   5.195  0.6743 -0.0848 -0.3941
 7948SOL     OW31557   5.488   0.561   5.259  0.3254  0.2243  0.6302
 7948SOL    HW231558   5.471   0.647   5.219 -1.7908  1.2330  3.3139
 7948SOL    HW331559   5.464   0.573   5.351  3.0932 -2.4147  1.8609
 7948SOL    MW431560   5.482   0.574   5.266  0.9617  0.4639  0.6969
 7949SOL     OW31561   5.924   0.783   0.113  0.0284 -0.3236 -0.0866
 7949SOL    HW231562   5.895   0.842   0.043  1.5464 -0.2457 -0.6924
 7949SOL    HW331563   6.013   0.757   0.087 -0.0247 -1.6533  0.9610
 7949SOL    MW431564   5.932   0.788   0.100 -0.2704 -0.2175 -0.4516
 7950SOL     OW31565   6.073   1.854   3.859 -0.1566  0.3469  0.0272
 7950SOL    HW231566   6.107   1.777   3.904 -1.1402  0.8737  1.7816
 7950SOL    HW331567   6.150   1.907   3.840  0.2657  0.4833  1.8977
 7950SOL    MW431568   6.088   1.851   3.863  0.2024  0.1390  0.6900
 7951SOL     OW31569   4.245   1.687   4.721 -0.0936  0.7189  0.1079
 7951SOL    HW231570   4.193   1.666   4.643  0.0105 -0.7337  0.3958
 7951SOL    HW331571   4.183   1.727   4.782 -0.3849  0.9868 -0.3578
 7951SOL    MW431572   4.230   1.689   4.719 -0.4269  0.2029 -0.0053
 7952SOL     OW31573   0.110   0.467   1.020  0.2421  0.3171  0.3986
 7952SOL    HW231574   0.157   0.432   1.096  1.0663 -1.2950 -0.7854
 7952SOL    HW331575   0.020   0.479   1.051  0.5445 -0.3704  1.6161
 7952SOL    MW431576   0.104   0.464   1.034  0.0995  0.2582 -0.1809
 7953SOL     OW31577   4.352   1.114   5.485  0.3886  0.2498  0.0241
 7953SOL    HW231578   4.339   1.053   5.558  0.8641 -0.5697 -0.5660
 7953SOL    HW331579   4.266   1.154   5.472 -1.3469 -3.6897 -2.5772
 7953SOL    MW431580   4.339   1.111   5.493 -0.3247 -0.7111  0.1535
 7954SOL     OW31581   1.698   5.947   2.142  0.5276  0.0995 -0.3971
 7954SOL    HW231582   1.712   5.884   2.071 -1.8813 -2.3624  1.0950
 7954SOL    HW331583   1.733   5.903   2.219  0.5809  1.4855  0.3838
 7954SOL    MW431584   1.704   5.933   2.143  0.2219  0.4090 -0.1238
 7955SOL     OW31585   2.956   3.483   1.167  0.2198 -0.4868  0.1360
 7955SOL    HW231586   3.034   3.434   1.139 -0.0174 -0.2087 -1.0713
 7955SOL    HW331587   2.983   3.575   1.161  0.1422 -0.4200  0.7891
 7955SOL    MW431588   2.970   3.489   1.163  0.1741  0.2053 -0.2560
 7956SOL     OW31589   1.114   1.064   0.021 -0.4976 -0.3854  0.0949
 7956SOL    HW231590   1.081   1.127   0.086 -1.6458  0.1816 -0.9821
 7956SOL    HW331591   1.203   1.043   0.050  0.1381  2.1650  0.1993
 7956SOL    MW431592   1.121   1.070   0.033 -0.3941 -0.3803  0.3090
 7957SOL     OW31593   5.870   2.848   2.309 -0.1281 -1.0822 -0.0161
 7957SOL    HW231594   5.830   2.928   2.344  0.0070 -0.0812 -1.9672
 7957SOL    HW331595   5.963   2.858   2.327 -0.2702 -1.4686  0.9557
 7957SOL    MW431596   5.877   2.860   2.316  0.9157 -0.1658 -0.3047
 7958SOL     OW31597   4.657   0.832   2.812  0.4875 -0.4066 -0.3889
 7958SOL    HW231598   4.696   0.831   2.899  1.3315  1.0245 -0.7043
 7958SOL    HW331599   4.728   0.863   2.755 -0.1083 -1.1080 -1.5497
 7958SOL    MW431600   4.672   0.836   2.816  0.6484 -0.0466  0.2255
 7959SOL     OW31601   1.596   6.391   1.436  0.3936  0.2307  0.6139
 7959SOL    HW231602   1.617   6.381   1.343 -2.0374 -0.5314  0.0787
 7959SOL    HW331603   1.608   6.304   1.473  2.1776  0.7088  1.2555
 7959SOL    MW431604   1.600   6.378   1.429  0.0845  0.0392 -0.7637
 7960SOL     OW31605   2.448   2.470   4.134 -0.6033  0.0452  0.4304
 7960SOL    HW231606   2.500   2.549   4.120  1.1202 -1.2543 -1.0385
 7960SOL    HW331607   2.511   2.407   4.168 -0.9999 -1.7503 -1.9068
 7960SOL    MW431608   2.463   2.472   4.137  0.1439  0.1554 -0.5691
 7961SOL     OW31609   2.377   2.113   0.269  0.3168 -0.4440 -0.0919
 7961SOL    HW231610   2.470   2.128   0.250  0.1175  0.7411 -0.2163
 7961SOL    HW331611   2.335   2.195   0.245 -0.3517  0.1620  2.8364
 7961SOL    MW431612   2.384   2.126   0.263  0.0403  0.2280  0.2989
 7962SOL     OW31613   0.049   6.045   3.749  0.0931 -0.4727 -0.3492
 7962SOL    HW231614  -0.045   6.032   3.739 -0.6188  1.9951  1.9715
 7962SOL    HW331615   0.069   6.010   3.835  1.1951 -0.3581 -0.5442
 7962SOL    MW431616   0.039   6.039   3.759 -0.2449  0.4217  0.4759
 7963SOL     OW31617   1.698   3.023   2.882  0.2855 -0.4830 -0.0942
 7963SOL    HW231618   1.768   3.005   2.945  1.4438  0.2174 -1.1358
 7963SOL    HW331619   1.663   3.107   2.908  1.8154  0.5658 -1.2385
 7963SOL    MW431620   1.703   3.031   2.893 -0.2999  0.5880 -0.5656
 7964SOL     OW31621   3.641   5.276   2.582  0.2221  0.1082  0.1716
 7964SOL    HW231622   3.618   5.265   2.674  0.7258 -2.3063  0.0646
 7964SOL    HW331623   3.697   5.354   2.581 -0.5211  0.7026  1.7473
 7964SOL    MW431624   3.646   5.285   2.594  0.0029 -0.0590 -0.3421
 7965SOL     OW31625   4.060   0.511   5.294  0.3638  0.1289  0.2100
 7965SOL    HW231626   4.111   0.591   5.287 -1.2182  1.0787 -1.1025
 7965SOL    HW331627   4.036   0.506   5.387  3.0642 -0.5712  0.9593
 7965SOL    MW431628   4.064   0.521   5.306 -0.0446  0.0655  0.1539
 7966SOL     OW31629   6.152   4.457   3.824 -0.5497 -0.0120 -0.2739
 7966SOL    HW231630   6.182   4.426   3.738 -1.8454 -1.4758 -0.2493
 7966SOL    HW331631   6.160   4.552   3.820  0.0587 -0.1031 -1.7703
 7966SOL    MW431632   6.157   4.465   3.812 -0.1618 -0.0727  0.2325
 7967SOL     OW31633   5.801   2.661   1.882  0.0766  0.1798  0.4752
 7967SOL    HW231634   5.723   2.698   1.842  0.3775  0.6212  0.2818
 7967SOL    HW331635   5.803   2.570   1.853 -0.1556  0.2719  0.1672
 7967SOL    MW431636   5.791   2.654   1.873 -0.2713  0.0318 -0.3701
 7968SOL     OW31637   5.909   6.256   0.553  0.3070  0.1728 -0.0128
 7968SOL    HW231638   5.953   6.199   0.615 -1.4978  0.2743  1.4790
 7968SOL    HW331639   5.897   6.203   0.475 -0.3281 -1.1453  0.9413
 7968SOL    MW431640   5.913   6.241   0.551 -0.1972  0.2290  0.2132
 7969SOL     OW31641   1.492   5.987   0.155 -0.5729 -0.0036 -0.0656
 7969SOL    HW231642   1.585   5.988   0.132 -0.7382  1.2028 -0.7741
 7969SOL    HW331643   1.490   5.970   0.249  0.3021 -1.2420 -0.2489
 7969SOL    MW431644   1.504   5.985   0.164  0.1668 -0.6730 -0.2573
 7970SOL     OW31645   5.616   0.593   3.881  0.3808  0.1456  0.4037
 7970SOL    HW231646   5.667   0.659   3.928  1.5329  1.8333 -2.8977
 7970SOL    HW331647   5.676   0.520   3.868 -0.2773 -0.8055  2.3229
 7970SOL    MW431648   5.630   0.592   3.886  0.5560  0.5095 -0.4508
 7971SOL     OW31649   5.450   3.032   1.797  0.1062 -0.4657  0.0340
 7971SOL    HW231650   5.401   3.061   1.874 -0.5851  0.4814 -0.7423
 7971SOL    HW331651   5.483   3.113   1.758  0.9065 -0.9805 -0.3658
 7971SOL    MW431652   5.447   3.047   1.802 -0.1257  0.2777 -0.2815
 7972SOL     OW31653   0.166   2.196   5.869  0.0943 -0.2893 -0.1363
 7972SOL    HW231654   0.260   2.196   5.887  0.1550  0.0104 -0.4370
 7972SOL    HW331655   0.148   2.107   5.838  0.1612 -0.5270  0.4882
 7972SOL    MW431656   0.176   2.184   5.867 -0.0206 -0.5451  0.1978
 7973SOL     OW31657   0.125   2.914   3.971  0.0981 -0.2458  0.2054
 7973SOL    HW231658   0.148   2.858   3.897 -2.4354 -1.6225  0.3618
 7973SOL    HW331659   0.088   2.855   4.036 -2.1484  1.4722  0.6179
 7973SOL    MW431660   0.123   2.899   3.970  0.0994 -0.0673  0.0450
 7974SOL     OW31661   6.033   4.520   1.407  0.2514  0.2783 -0.0924
 7974SOL    HW231662   6.108   4.576   1.388  0.8685 -0.5767 -0.2443
 7974SOL    HW331663   6.049   4.441   1.356  1.1717 -1.4804  2.6835
 7974SOL    MW431664   6.045   4.517   1.398 -0.1987 -0.0498 -0.2170
 7975SOL     OW31665   2.645   0.494   3.897  0.2973 -0.3790 -0.0752
 7975SOL    HW231666   2.707   0.432   3.859 -0.3238 -1.7148  0.9825
 7975SOL    HW331667   2.676   0.507   3.987  1.0051  1.7024 -0.5614
 7975SOL    MW431668   2.657   0.487   3.904 -0.3124  0.7336 -0.0776
 7976SOL     OW31669   2.377   2.699   3.856  1.3562 -0.1214 -0.2467
 7976SOL    HW231670   2.340   2.753   3.927  0.7420 -1.6466  0.6542
 7976SOL    HW331671   2.320   2.623   3.853  0.1820  0.7136 -3.7148
 7976SOL    MW431672   2.364   2.696   3.865  0.3920 -0.1499 -0.4032
 7977SOL     OW31673   5.957   0.584   3.876 -0.1262 -0.3461  0.2746
 7977SOL    HW231674   5.944   0.502   3.828 -0.2145 -0.0738 -0.1789
 7977SOL    HW331675   5.942   0.653   3.810 -1.8582  0.0897  1.0516
 7977SOL    MW431676   5.953   0.583   3.861  0.0873 -0.1990 -0.2726
 7978SOL     OW31677   6.239   1.482   2.270 -0.3508  0.0397  0.2178
 7978SOL    HW231678   6.182   1.543   2.317 -1.0365  0.4698 -1.1441
 7978SOL    HW331679   6.187   1.403   2.262 -0.7098  0.3739 -0.8695
 7978SOL    MW431680   6.225   1.480   2.275  0.9491  0.6299 -0.7055
 7979SOL     OW31681   1.353   3.889   3.549 -0.4533  0.2054 -0.4825
 7979SOL    HW231682   1.258   3.886   3.536 -0.5711  1.8271 -0.1306
 7979SOL    HW331683   1.364   3.923   3.638  0.4634 -1.3151  0.0289
 7979SOL    MW431684   1.342   3.893   3.559  0.0503  0.5735  0.6252
 7980SOL     OW31685   3.616   6.257   3.373 -0.2140 -0.0938 -0.3701
 7980SOL    HW231686   3.676   6.209   3.430 -2.5511  0.0804  2.5107
 7980SOL    HW331687   3.631   6.349   3.393  0.8731  0.1905 -2.2498
 7980SOL    MW431688   3.626   6.263   3.383  0.2781 -0.5263  0.9883
 7981SOL     OW31689   2.513   3.688   1.947 -0.4477 -0.0718  0.3720
 7981SOL    HW231690   2.422   3.687   1.918 -0.5129 -2.0886  0.5009
 7981SOL    HW331691   2.560   3.636   1.882  1.0738  2.6125 -0.8666
 7981SOL    MW431692   2.507   3.681   1.935 -0.2401  0.5779  0.0007
 7982SOL     OW31693   1.167   1.400   6.010 -0.4854 -0.8405 -0.2989
 7982SOL    HW231694   1.154   1.334   6.079 -0.1611 -1.0004 -0.3887
 7982SOL    HW331695   1.105   1.375   5.942 -1.8261  0.1472  0.5211
 7982SOL    MW431696   1.157   1.388   6.010 -0.0444 -0.4733  0.3551
 7983SOL     OW31697   2.470   1.134   4.225  0.6465  0.1761 -0.0448
 7983SOL    HW231698   2.380   1.163   4.242  0.5990 -0.4852  0.9361
 7983SOL    HW331699   2.523   1.182   4.287  0.8041 -0.3916  0.2677
 7983SOL    MW431700   2.465   1.144   4.235 -0.2198  0.3367 -0.1309
 7984SOL     OW31701   2.780   5.419   4.557  0.1225  0.2024  0.2737
 7984SOL    HW231702   2.861   5.403   4.509 -0.5572 -0.9782 -0.5332
 7984SOL    HW331703   2.718   5.449   4.490  0.3202  2.9149  1.1495
 7984SOL    MW431704   2.782   5.421   4.542  0.1909 -0.1720 -0.0335
 7985SOL     OW31705   1.533   3.185   5.918 -0.2914  0.2723 -0.0735
 7985SOL    HW231706   1.620   3.224   5.912 -0.6158  1.5677  2.1996
 7985SOL    HW331707   1.540   3.120   5.988 -0.8565 -0.5762 -0.7820
 7985SOL    MW431708   1.545   3.182   5.927 -0.0933  0.3508  0.2513
 7986SOL     OW31709   0.575   6.404   1.813  0.2227  0.5528 -0.1481
 7986SOL    HW231710   0.518   6.451   1.752 -0.2007  1.4124  0.8815
 7986SOL    HW331711   0.660   6.447   1.806 -0.3989  2.1749  1.4809
 7986SOL    MW431712   0.579   6.416   1.804  0.5247  0.1928  0.2759
 7987SOL     OW31713   1.677   2.230   4.311 -0.4277 -0.0277  0.3047
 7987SOL    HW231714   1.629   2.278   4.244  0.1733  1.5491  0.9619
 7987SOL    HW331715   1.761   2.209   4.271 -0.0973  0.8478  0.5183
 7987SOL    MW431716   1.682   2.233   4.297  0.2944 -0.2548 -0.7187
 7988SOL     OW31717   1.154   1.606   0.144  0.4428  0.0181 -0.1322
 7988SOL    HW231718   1.235   1.617   0.194  0.4907  1.2658 -0.4570
 7988SOL    HW331719   1.182   1.563   0.063  0.3780 -1.9383  0.8209
 7988SOL    MW431720   1.168   1.602   0.140 -0.0924  0.3497  0.2178
 7989SOL     OW31721   4.602   5.965   2.876  0.0662  0.4225  0.5745
 7989SOL    HW231722   4.622   6.058   2.874  2.8874 -0.1171 -0.6534
 7989SOL    HW331723   4.649   5.928   2.802 -2.0918 -1.8390  0.1878
 7989SOL    MW431724   4.611   5.972   2.866  0.1039 -0.4428  0.6883
 7990SOL     OW31725   4.942   3.008   2.159  0.6151 -0.0493  0.1310
 7990SOL    HW231726   4.874   3.008   2.227  0.9009  1.3978  0.4513
 7990SOL    HW331727   4.895   2.990   2.078  0.1615 -1.0838  0.6007
 7990SOL    MW431728   4.927   3.006   2.158  0.1888  0.0913  0.4662
 7991SOL     OW31729   3.542   2.027   3.861  0.5981 -0.1281  0.0292
 7991SOL    HW231730   3.589   1.945   3.876 -2.1685 -1.3735  3.3744
 7991SOL    HW331731   3.582   2.089   3.922  1.0343  0.2830 -0.6640
 7991SOL    MW431732   3.553   2.024   3.871  0.0768  0.5205  0.0499
 7992SOL     OW31733   3.928   5.441   3.413 -0.3157 -0.8247 -0.0689
 7992SOL    HW231734   4.006   5.413   3.365  0.3355 -0.2120  0.6109
 7992SOL    HW331735   3.892   5.360   3.449  0.4002 -1.0320  0.1979
 7992SOL    MW431736   3.933   5.427   3.411  0.7022 -0.3452 -0.7581
 7993SOL     OW31737   3.509   0.681   5.810 -0.0117  0.3349  0.4251
 7993SOL    HW231738   3.512   0.611   5.745 -3.0804  0.6280 -0.2064
 7993SOL    HW331739   3.565   0.749   5.775 -2.1388  0.7839 -2.4355
 7993SOL    MW431740   3.516   0.681   5.797  0.4579  0.0365  0.2616
 7994SOL     OW31741   5.345   4.242   2.319  0.2614 -0.1958 -0.6884
 7994SOL    HW231742   5.307   4.180   2.381 -1.2429 -0.9605 -2.3136
 7994SOL    HW331743   5.439   4.228   2.326  0.0823 -0.8265  0.8251
 7994SOL    MW431744   5.352   4.232   2.328  0.1216 -0.4341  0.0545
 7995SOL     OW31745   2.401   4.357   6.152  0.1264 -0.2227  0.0246
 7995SOL    HW231746   2.341   4.297   6.108  0.3756  1.3155 -2.6129
 7995SOL    HW331747   2.347   4.433   6.174  0.3643 -0.3074  0.9403
 7995SOL    MW431748   2.386   4.359   6.149  0.0171 -0.3072  0.3266
 7996SOL     OW31749   5.332   6.394   2.079  0.1090  0.1646 -0.5074
 7996SOL    HW231750   5.358   6.485   2.071  1.0405 -0.1670 -1.3896
 7996SOL    HW331751   5.300   6.370   1.992 -0.3284 -0.3049 -0.2294
 7996SOL    MW431752   5.331   6.403   2.066 -0.8651 -0.2540 -0.1135
 7997SOL     OW31753   4.123   0.037   2.879  0.1805 -0.3994  0.0081
 7997SOL    HW231754   4.050   0.099   2.884  0.6023  0.2971 -1.7540
 7997SOL    HW331755   4.082  -0.049   2.890 -0.6132  0.0981  1.0483
 7997SOL    MW431756   4.108   0.034   2.881  0.1389  0.3158  0.6730
 7998SOL     OW31757   4.093   2.938   0.705 -0.2139 -0.1026  0.1401
 7998SOL    HW231758   4.033   3.011   0.689 -1.7860 -1.0951  1.1568
 7998SOL    HW331759   4.161   2.974   0.761 -1.1269  0.5373  0.8669
 7998SOL    MW431760   4.094   2.952   0.710 -0.3540 -0.1518  0.0057
 7999SOL     OW31761   4.611   3.795   0.742  0.7380  0.1821 -0.1716
 7999SOL    HW231762   4.637   3.818   0.653  2.4255  1.6976  0.6444
 7999SOL    HW331763   4.681   3.830   0.797 -0.7026  0.0892  1.8309
 7999SOL    MW431764   4.624   3.803   0.738 -0.4548  0.3714  0.1898
 8000SOL     OW31765   2.354   2.209   5.681  0.2413  0.3644  0.0091
 8000SOL    HW231766   2.358   2.194   5.587  0.0967  0.3215  0.0090
 8000SOL    HW331767   2.430   2.163   5.716  0.9506  1.3446 -0.2082
 8000SOL    MW431768   2.365   2.201   5.673 -0.6076 -0.5817 -0.1228
 8001SOL     OW31769   4.788   5.123   1.761  0.3173  0.5846 -0.2978
 8001SOL    HW231770   4.774   5.109   1.667 -3.1041  0.6515  0.0613
 8001SOL    HW331771   4.777   5.218   1.773 -2.2410  0.2635  0.4524
 8001SOL    MW431772   4.785   5.134   1.750  0.0182 -0.0496  0.3145
 8002SOL     OW31773   6.274   5.092   1.316  0.5014 -0.6326  0.5265
 8002SOL    HW231774   6.294   5.025   1.250  1.5483 -1.9055  2.0476
 8002SOL    HW331775   6.219   5.047   1.379 -1.3022  0.8449  0.0776
 8002SOL    MW431776   6.270   5.077   1.315  0.2528  0.4692  0.1153
 8003SOL     OW31777   4.535   5.362   4.176  0.2407 -0.3666 -0.8298
 8003SOL    HW231778   4.541   5.332   4.267  0.5701 -0.3140 -0.8315
 8003SOL    HW331779   4.525   5.456   4.183  1.3024 -0.2343 -0.8602
 8003SOL    MW431780   4.535   5.370   4.189 -0.1904  0.1638 -0.1207
 8004SOL     OW31781   5.330   3.638   5.026  0.4061 -0.0173  0.3775
 8004SOL    HW231782   5.248   3.605   4.992  1.3875 -0.3060 -1.8472
 8004SOL    HW331783   5.334   3.729   4.996  0.1935  0.5108  1.8573
 8004SOL    MW431784   5.320   3.646   5.018  0.2548 -0.2302  0.5393
 8005SOL     OW31785   0.600   0.261   6.386 -0.3658  0.3459 -0.3589
 8005SOL    HW231786   0.566   0.192   6.443 -2.1311  0.1133 -1.5863
 8005SOL    HW331787   0.640   0.324   6.446 -0.0057 -1.0170  0.9103
 8005SOL    MW431788   0.601   0.260   6.402 -0.1008  0.0866 -0.3530
 8006SOL     OW31789   4.949   2.875   4.783  0.0776  0.3883 -0.5743
 8006SOL    HW231790   4.868   2.921   4.808  0.6545  0.5653  1.0867
 8006SOL    HW331791   4.956   2.804   4.847  2.7672  2.1562  1.3214
 8006SOL    MW431792   4.939   2.872   4.795 -0.9363 -0.2548 -0.4352
 8007SOL     OW31793   6.020   1.418   1.612  0.1367 -0.1260  0.4471
 8007SOL    HW231794   6.003   1.488   1.675 -0.5688  2.2867 -2.1604
 8007SOL    HW331795   6.073   1.461   1.544  0.0713 -2.2831 -1.0492
 8007SOL    MW431796   6.025   1.433   1.611  0.2840 -0.3797 -0.3966
 8008SOL     OW31797   4.311   4.954   0.663 -0.6792 -0.4988 -0.1310
 8008SOL    HW231798   4.257   4.962   0.585 -2.2606  0.9799  1.0561
 8008SOL    HW331799   4.280   4.873   0.705  0.0609 -1.2061 -0.9086
 8008SOL    MW431800   4.300   4.944   0.658  0.3909 -0.6040  0.3404
 8009SOL     OW31801   1.746   5.504   3.301 -0.0994 -0.5524  0.3003
 8009SOL    HW231802   1.817   5.501   3.364 -0.8157  0.8736  1.2305
 8009SOL    HW331803   1.768   5.577   3.243  0.3999 -1.6572 -0.9346
 8009SOL    MW431804   1.758   5.513   3.302 -0.2524  0.2857 -0.0354
 8010SOL     OW31805   2.083   3.245   0.843  0.3372  0.1286  0.2140
 8010SOL    HW231806   2.031   3.273   0.919  1.4674  0.1929  0.9924
 8010SOL    HW331807   2.138   3.174   0.877  0.9218  0.2214 -0.5231
 8010SOL    MW431808   2.084   3.239   0.858 -0.2417  0.6324  0.3585
 8011SOL     OW31809   5.853   1.764   3.016  0.4888  0.0275  0.1766
 8011SOL    HW231810   5.783   1.699   3.007  1.1087 -0.3892 -2.5636
 8011SOL    HW331811   5.812   1.847   2.992  0.6329 -0.0537 -0.3880
 8011SOL    MW431812   5.838   1.766   3.011 -0.7290 -0.3288 -0.7138
 8012SOL     OW31813   2.705   3.264   2.457 -0.4380 -0.2873 -0.4002
 8012SOL    HW231814   2.700   3.359   2.449 -0.0144 -0.3234 -1.3088
 8012SOL    HW331815   2.614   3.236   2.465 -0.4830  0.2888  1.3602
 8012SOL    MW431816   2.692   3.273   2.457 -0.4905  0.3427 -0.5607
 8013SOL     OW31817   4.620   2.891   3.726  0.6886  0.2912 -0.4717
 8013SOL    HW231818   4.635   2.802   3.697  0.5044  0.0691  0.0914
 8013SOL    HW331819   4.620   2.886   3.822 -1.9051  0.4141 -0.3956
 8013SOL    MW431820   4.622   2.879   3.735 -0.0563 -0.1795 -0.2422
 8014SOL     OW31821   3.535   0.763   1.827 -0.2346 -0.1690  0.4414
 8014SOL    HW231822   3.469   0.833   1.820 -1.1036 -1.0345 -0.4001
 8014SOL    HW331823   3.484   0.683   1.838  0.7100 -0.7890  0.4056
 8014SOL    MW431824   3.519   0.762   1.827 -0.2172 -0.1234  0.4624
 8015SOL     OW31825   1.455   2.249   0.599 -0.1680 -0.7001 -0.0234
 8015SOL    HW231826   1.403   2.179   0.561 -0.4737  0.6460 -2.2478
 8015SOL    HW331827   1.443   2.240   0.693  0.1239 -3.8345 -0.1905
 8015SOL    MW431828   1.447   2.239   0.606 -0.4359 -0.0916 -0.1900
 8016SOL     OW31829   3.995   2.606   1.981 -0.2854 -0.2839  0.3365
 8016SOL    HW231830   3.958   2.522   1.953 -0.5671  0.1158 -0.5272
 8016SOL    HW331831   3.958   2.670   1.920  0.5640  0.3541  0.4736
 8016SOL    MW431832   3.985   2.603   1.969  0.0969 -0.2178  0.5324
 8017SOL     OW31833   3.891   6.030   4.452 -0.5706  0.2535 -0.0757
 8017SOL    HW231834   3.981   6.025   4.484 -1.1601 -2.0647  1.5332
 8017SOL    HW331835   3.844   6.077   4.521 -0.8474  0.2191 -0.2400
 8017SOL    MW431836   3.897   6.036   4.466 -0.0843  0.0035 -0.7423
 8018SOL     OW31837   1.095   0.821   4.087 -0.1145 -0.0509 -0.0021
 8018SOL    HW231838   1.055   0.877   4.021 -0.4401  0.3016  0.4886
 8018SOL    HW331839   1.189   0.824   4.067 -0.3738 -1.6912 -1.7851
 8018SOL    MW431840   1.102   0.829   4.076  0.3914 -0.2310 -0.3518
 8019SOL     OW31841   4.811   0.960   2.197 -0.5817 -0.3756 -0.0226
 8019SOL    HW231842   4.863   0.930   2.122 -0.4427 -0.8363  0.2550
 8019SOL    HW331843   4.723   0.970   2.161 -0.7664 -1.6797 -0.0068
 8019SOL    MW431844   4.806   0.957   2.182  0.4803  0.2237 -0.0152
 8020SOL     OW31845   0.325   0.061   4.766  0.0733  0.9510  0.0427
 8020SOL    HW231846   0.251   0.121   4.774 -0.1122  0.8261 -0.7114
 8020SOL    HW331847   0.347   0.038   4.857  0.8240  2.9769  0.4227
 8020SOL    MW431848   0.318   0.066   4.779  0.0610 -0.0993 -0.0175
 8021SOL     OW31849   1.424   0.638   4.518  0.0059  0.1619 -0.2788
 8021SOL    HW231850   1.436   0.549   4.551 -0.5142 -0.3256 -1.3876
 8021SOL    HW331851   1.498   0.687   4.555 -0.3812 -0.4139  1.3591
 8021SOL    MW431852   1.435   0.633   4.527  0.2808 -0.0567 -0.0983
 8022SOL     OW31853   1.825   5.159   3.234  0.6370  0.1590 -0.3874
 8022SOL    HW231854   1.905   5.196   3.197  0.2870 -1.4970 -3.0710
 8022SOL    HW331855   1.844   5.066   3.244 -0.3962  0.0348  0.6217
 8022SOL    MW431856   1.838   5.152   3.230 -0.6490 -0.6591  0.1320
 8023SOL     OW31857   4.408   6.314   4.180  0.0971  0.6079  0.5476
 8023SOL    HW231858   4.439   6.398   4.144 -3.5412  1.4776 -1.0275
 8023SOL    HW331859   4.445   6.248   4.121 -0.8602  1.5797 -1.2390
 8023SOL    MW431860   4.417   6.317   4.167  0.3459 -0.2848 -0.3695
 8024SOL     OW31861   2.744   6.109   1.086  0.1223 -0.5170 -0.1082
 8024SOL    HW231862   2.675   6.151   1.137 -1.6644 -1.6934 -1.4358
 8024SOL    HW331863   2.726   6.136   0.995  0.7598 -1.6990 -0.6073
 8024SOL    MW431864   2.732   6.118   1.080  0.3594  0.2460  0.0548
 8025SOL     OW31865   2.273   4.841   0.158  0.4251  0.1256 -0.1919
 8025SOL    HW231866   2.365   4.827   0.135  0.4142 -2.1251  0.8399
 8025SOL    HW331867   2.275   4.907   0.227  1.3614 -0.4999  0.3994
 8025SOL    MW431868   2.285   4.848   0.164  0.0022  0.1282  0.0604
 8026SOL     OW31869   5.236   4.575   1.373  0.5552  0.5009  0.5969
 8026SOL    HW231870   5.273   4.509   1.431 -2.1168 -1.7255 -0.0115
 8026SOL    HW331871   5.271   4.553   1.287 -2.0641 -1.7790 -0.0287
 8026SOL    MW431872   5.245   4.563   1.369 -0.1100  0.1301  0.0242
 8027SOL     OW31873   0.762   0.477   3.391  0.3999  0.8765 -0.1224
 8027SOL    HW231874   0.723   0.456   3.476  1.1628  1.4722  0.3968
 8027SOL    HW331875   0.689   0.478   3.330 -0.2541  1.0463  0.6464
 8027SOL    MW431876   0.747   0.474   3.394 -0.0545 -0.4794 -0.3054
 8028SOL     OW31877   0.309   6.281   2.051 -0.2163  0.1615 -0.1768
 8028SOL    HW231878   0.350   6.196   2.033 -1.2971 -1.4585  3.9386
 8028SOL    HW331879   0.379   6.333   2.090 -0.3824 -0.1240  0.5127
 8028SOL    MW431880   0.323   6.277   2.053 -0.0298  0.1523  0.0723
 8029SOL     OW31881   4.350   1.061   3.050  0.6099  0.3118 -0.1847
 8029SOL    HW231882   4.280   1.066   3.115  1.2102  0.2723  0.4867
 8029SOL    HW331883   4.364   1.152   3.023  0.6514  0.3808  0.0665
 8029SOL    MW431884   4.343   1.073   3.055 -0.5783  0.3798 -0.2793
 8030SOL     OW31885   2.199   4.665   5.486  0.4755  0.1459  0.0997
 8030SOL    HW231886   2.173   4.671   5.394 -0.3329 -0.0872  0.3005
 8030SOL    HW331887   2.200   4.571   5.504  0.5299  0.1941  0.3511
 8030SOL    MW431888   2.196   4.653   5.476 -1.1531  0.0856  0.1939
 8031SOL     OW31889   5.202   5.253   2.962 -0.6362  1.0910  0.0711
 8031SOL    HW231890   5.238   5.191   2.897 -0.6604  2.3433 -1.1869
 8031SOL    HW331891   5.110   5.261   2.938 -1.1696  0.0187  1.5742
 8031SOL    MW431892   5.194   5.246   2.950 -0.4844  0.0881  0.2197
 8032SOL     OW31893   0.306   4.262   2.414  0.1856 -0.7453 -0.1967
 8032SOL    HW231894   0.364   4.273   2.338 -0.4485 -0.9700 -0.7259
 8032SOL    HW331895   0.359   4.290   2.489  0.7208 -0.2246 -0.7543
 8032SOL    MW431896   0.321   4.267   2.414  0.3141 -0.1428 -0.0679
 8033SOL     OW31897   6.028   1.685   0.108 -0.0972 -0.0600  0.3013
 8033SOL    HW231898   5.991   1.599   0.088 -0.7604  0.8148 -2.6332
 8033SOL    HW331899   5.952   1.744   0.108  0.6240  0.8916 -0.1042
 8033SOL    MW431900   6.013   1.682   0.106 -0.3042  0.0272  0.1025
 8034SOL     OW31901   6.278   0.676   5.370  0.7184 -0.6363 -0.6118
 8034SOL    HW231902   6.335   0.605   5.342 -1.1606 -2.7724  0.6269
 8034SOL    HW331903   6.251   0.652   5.459 -0.3305  1.4369 -0.3012
 8034SOL    MW431904   6.282   0.663   5.378  0.1923 -0.2381  0.4602
 8035SOL     OW31905   3.857   5.986   3.165 -0.5177 -0.2714 -0.7781
 8035SOL    HW231906   3.828   5.921   3.229 -1.2499  0.4158 -0.3882
 8035SOL    HW331907   3.813   5.960   3.084 -0.8701 -0.2331 -0.6045
 8035SOL    MW431908   3.847   5.974   3.163  0.5710  0.4535  0.7410
 8036SOL     OW31909   4.029   1.759   2.142  0.1737 -0.2742 -0.3056
 8036SOL    HW231910   3.986   1.674   2.134 -1.5653  0.7014 -2.7767
 8036SOL    HW331911   4.032   1.777   2.236 -0.9470 -2.3039  0.1618
 8036SOL    MW431912   4.024   1.750   2.153  0.2673 -0.2176 -0.3630
 8037SOL     OW31913   5.220   0.637   3.837  0.5255  0.0956  0.5148
 8037SOL    HW231914   5.141   0.590   3.862  0.8467 -0.5089  0.4343
 8037SOL    HW331915   5.269   0.574   3.784  1.0433  0.4684  0.5422
 8037SOL    MW431916   5.216   0.622   3.833 -0.1274 -0.6273  0.0431
 8038SOL     OW31917   3.867   6.216   4.987  0.2107 -0.3454 -0.2381
 8038SOL    HW231918   3.848   6.307   4.964  3.2685  0.1126 -1.4147
 8038SOL    HW331919   3.801   6.194   5.053 -0.0859  3.0125  0.7720
 8038SOL    MW431920   3.856   6.225   4.992 -0.0951  0.2609  0.6305
 8039SOL     OW31921   2.125   2.577   4.891 -0.4220  0.2247  0.6549
 8039SOL    HW231922   2.030   2.586   4.902 -0.5204 -1.0819  1.0983
 8039SOL    HW331923   2.142   2.611   4.803 -1.2071  1.0028  0.7835
 8039SOL    MW431924   2.114   2.583   4.881  0.1067 -0.7643 -1.8165
 8040SOL     OW31925   4.300   4.486   4.095  0.4292  0.3165  0.4362
 8040SOL    HW231926   4.226   4.432   4.123  0.9436  0.0170  1.2933
 8040SOL    HW331927   4.293   4.490   4.000  0.1440 -0.9460  0.3787
 8040SOL    MW431928   4.289   4.479   4.086 -0.0078  0.3491  0.0563
 8041SOL     OW31929   1.911   1.619   5.687 -0.0791  0.6014 -0.2225
 8041SOL    HW231930   1.985   1.674   5.714  1.2823  0.0190 -2.5205
 8041SOL    HW331931   1.949   1.531   5.678 -1.6863 -0.2729  1.1014
 8041SOL    MW431932   1.926   1.614   5.690 -0.6316 -0.6717  0.9680
 8042SOL     OW31933   3.981   2.705   0.826  0.1581  0.9649 -0.3301
 8042SOL    HW231934   4.053   2.642   0.815 -0.1912  0.4943  0.0537
 8042SOL    HW331935   4.008   2.781   0.774  1.4745  1.2584  0.7437
 8042SOL    MW431936   3.994   2.706   0.818 -0.1318 -0.9363  0.3880
 8043SOL     OW31937   5.043   2.820   3.353 -0.0840  0.0570 -0.0978
 8043SOL    HW231938   5.084   2.790   3.434 -0.5039  0.0737  0.1242
 8043SOL    HW331939   5.069   2.912   3.345  1.9835 -0.5566 -1.2641
 8043SOL    MW431940   5.052   2.828   3.363  0.0097 -0.7304 -0.0326
 8044SOL     OW31941   0.512   5.515   3.154  0.5719 -0.1747 -0.0950
 8044SOL    HW231942   0.576   5.479   3.093  0.3572 -0.6901 -0.0245
 8044SOL    HW331943   0.565   5.560   3.220  0.8666 -0.6090 -0.0289
 8044SOL    MW431944   0.527   5.516   3.155 -0.3086 -0.0787  0.4785
 8045SOL     OW31945   0.636   3.456   5.391 -0.3467 -0.1087 -0.0490
 8045SOL    HW231946   0.662   3.544   5.364 -2.9522  1.2589  1.4818
 8045SOL    HW331947   0.558   3.469   5.445 -1.3533 -3.4506 -0.4367
 8045SOL    MW431948   0.629   3.469   5.395  0.4560  0.6681 -0.0291
 8046SOL     OW31949   4.552   0.116   4.067 -0.1189 -0.5103 -0.5634
 8046SOL    HW231950   4.496   0.126   3.990  1.4899  0.2282 -1.6971
 8046SOL    HW331951   4.542   0.199   4.115 -1.6222 -1.2192  0.4236
 8046SOL    MW431952   4.543   0.128   4.063 -0.2050  0.3315  0.7427
 8047SOL     OW31953   2.389   6.310   3.359  0.1093  0.2483  0.4348
 8047SOL    HW231954   2.429   6.320   3.445  2.3536  0.3141 -0.5390
 8047SOL    HW331955   2.379   6.216   3.348 -0.6549  0.2616  0.9468
 8047SOL    MW431956   2.393   6.299   3.369 -0.4896 -0.5864 -1.0245
 8048SOL     OW31957   1.577   1.846   5.496 -0.5496 -0.4989  0.1250
 8048SOL    HW231958   1.584   1.752   5.476  2.0031 -0.5801  0.9828
 8048SOL    HW331959   1.641   1.860   5.566 -1.4751  1.7520  0.5869
 8048SOL    MW431960   1.587   1.835   5.502 -0.5273 -0.0187 -0.2194
 8049SOL     OW31961   6.342   3.819   6.144 -0.1280  0.5979  0.4409
 8049SOL    HW231962   6.303   3.849   6.226  0.8628  0.1805  1.0895
 8049SOL    HW331963   6.291   3.741   6.121  0.4646 -0.1176  1.4406
 8049SOL    MW431964   6.330   3.812   6.152 -0.4098  0.2113  0.3543
 8050SOL     OW31965   2.668   2.180   2.332  0.3560  1.1939  0.3226
 8050SOL    HW231966   2.627   2.140   2.409 -0.3770  1.2694 -0.0187
 8050SOL    HW331967   2.658   2.274   2.346 -2.8357  1.2466 -1.3943
 8050SOL    MW431968   2.661   2.187   2.344  0.1859 -0.2368  0.2228
 8051SOL     OW31969   0.248   5.141   0.471  0.3750 -0.2921  0.3801
 8051SOL    HW231970   0.286   5.165   0.556  1.3670  0.9275 -0.3741
 8051SOL    HW331971   0.224   5.224   0.431  0.4467 -0.8010 -0.7721
 8051SOL    MW431972   0.250   5.155   0.477 -0.1719  0.1233  0.1853
 8052SOL     OW31973   0.195   5.659   5.024 -0.3153 -0.7983  0.6338
 8052SOL    HW231974   0.236   5.685   5.106 -0.5216  0.1383  0.4476
 8052SOL    HW331975   0.151   5.738   4.992 -0.3921 -1.1924 -0.2864
 8052SOL    MW431976   0.195   5.673   5.030 -0.6134  0.0917  0.0284
 8053SOL     OW31977   5.515   1.205   5.111 -0.0981 -0.0353  0.2968
 8053SOL    HW231978   5.610   1.218   5.104 -0.1936  0.3403 -0.4186
 8053SOL    HW331979   5.480   1.293   5.127 -0.2758 -0.2739  1.3250
 8053SOL    MW431980   5.523   1.218   5.112 -0.6983  0.1037  0.3052
 8054SOL     OW31981   3.373   3.928   2.335 -0.0890 -0.2390  0.7547
 8054SOL    HW231982   3.314   3.961   2.266 -0.3377  0.4093  1.2700
 8054SOL    HW331983   3.395   3.839   2.307 -2.1520 -0.8989  1.0611
 8054SOL    MW431984   3.368   3.921   2.322  0.3598  0.1626  0.0502
 8055SOL     OW31985   3.882   3.029   5.330 -0.6788  0.5654 -0.1786
 8055SOL    HW231986   3.934   3.041   5.409 -0.6583  0.2523 -0.1426
 8055SOL    HW331987   3.809   3.091   5.339 -0.2722  1.0595 -0.2671
 8055SOL    MW431988   3.879   3.039   5.342 -0.0796  0.0976 -0.4507
 8056SOL     OW31989   2.581   3.107   5.075  0.2804 -0.2798 -0.4747
 8056SOL    HW231990   2.622   3.113   4.988  2.2975 -2.4823  0.2066
 8056SOL    HW331991   2.584   3.013   5.096  0.0208  0.2123  2.0577
 8056SOL    MW431992   2.587   3.095   5.066  0.5834 -0.5411  0.0321
 8057SOL     OW31993   5.047   4.357   1.818  0.2147 -0.0126 -0.7961
 8057SOL    HW231994   5.015   4.406   1.893 -1.7100  0.8752 -2.1082
 8057SOL    HW331995   5.141   4.377   1.814  0.1657  0.6463  0.8135
 8057SOL    MW431996   5.055   4.366   1.827 -0.3655 -0.1432  0.5450
 8058SOL     OW31997   3.889   0.963   3.008  0.2177  0.3099  0.1783
 8058SOL    HW231998   3.927   0.903   2.944  0.1344  0.8905 -0.4275
 8058SOL    HW331999   3.870   0.908   3.084 -0.4812 -0.5733 -0.6057
 8058SOL    MW432000   3.891   0.948   3.009  0.0621 -0.2062  0.1753
 8059SOL     OW32001   5.960   2.323   1.179 -0.1376 -0.1477  0.0646
 8059SOL    HW232002   5.886   2.307   1.120  0.4795 -0.8734 -0.5260
 8059SOL    HW332003   5.954   2.416   1.201 -1.3756 -0.2528  0.2396
 8059SOL    MW432004   5.949   2.333   1.174  0.4306  0.2659 -0.0527
 8060SOL     OW32005   2.432   4.193   5.395  0.2704 -0.2902 -0.3134
 8060SOL    HW232006   2.474   4.109   5.411 -0.4443 -0.6518 -0.2863
 8060SOL    HW332007   2.398   4.220   5.480 -0.5725 -0.5748 -0.5506
 8060SOL    MW432008   2.433   4.186   5.408 -0.3996  0.1642 -0.0091
 8061SOL     OW32009   2.863   3.199   4.556  0.5339 -0.7491  0.1857
 8061SOL    HW232010   2.862   3.214   4.650 -0.1985 -1.3283  0.2761
 8061SOL    HW332011   2.859   3.103   4.546 -0.1849 -0.6690 -0.4336
 8061SOL    MW432012   2.862   3.188   4.567 -0.4254  0.2758 -0.0444
 8062SOL     OW32013   4.170   5.869   0.805  0.1470 -0.3621 -0.0014
 8062SOL    HW232014   4.191   5.844   0.895 -1.5972  2.4049  1.2946
 8062SOL    HW332015   4.075   5.885   0.806 -0.4431 -2.6860 -3.0471
 8062SOL    MW432016   4.160   5.868   0.817 -0.4987 -0.6494 -0.2753
 8063SOL     OW32017   4.494   3.801   1.827  0.1103 -0.1992 -0.3985
 8063SOL    HW232018   4.463   3.886   1.795 -0.2883 -0.4496 -0.6742
 8063SOL    HW332019   4.578   3.788   1.783  0.3270  0.1915 -0.1191
 8063SOL    MW432020   4.501   3.811   1.817  0.2254  0.1591 -0.3828
 8064SOL     OW32021   3.866   5.650   3.590  0.3408  0.3019  0.2058
 8064SOL    HW232022   3.885   5.575   3.535 -0.2188  1.0299 -1.0240
 8064SOL    HW332023   3.802   5.619   3.653  1.2858 -0.6467  0.7322
 8064SOL    MW432024   3.860   5.636   3.591 -0.0531  0.4376  0.6146
 8065SOL     OW32025   6.169   3.779   5.569  0.3992  0.2109  0.7251
 8065SOL    HW232026   6.189   3.692   5.536 -0.4273 -0.1557  1.1565
 8065SOL    HW332027   6.120   3.763   5.650 -0.4290  1.0702  0.4060
 8065SOL    MW432028   6.165   3.766   5.575  0.2270  0.2736  0.0791
 8066SOL     OW32029   5.791   1.172   5.086  0.3274 -0.3968 -0.2781
 8066SOL    HW232030   5.870   1.118   5.093 -0.7450 -1.9896  0.1187
 8066SOL    HW332031   5.804   1.243   5.149  1.7080 -0.2600 -0.6959
 8066SOL    MW432032   5.803   1.174   5.096  0.5082 -0.3100  0.3700
 8067SOL     OW32033   3.296   2.878   2.507 -0.3607  0.1971 -0.1696
 8067SOL    HW232034   3.340   2.885   2.592 -0.5542 -1.3280  0.0875
 8067SOL    HW332035   3.235   2.804   2.518  1.7078 -2.0580 -2.4813
 8067SOL    MW432036   3.294   2.869   2.520  0.4255 -0.0777 -0.0975
 8068SOL     OW32037   1.022   1.893   3.976 -0.4342  0.4141 -0.1938
 8068SOL    HW232038   1.097   1.948   3.997 -0.2377  0.3979 -0.8359
 8068SOL    HW332039   1.057   1.804   3.976 -1.0339  0.1127  2.2091
 8068SOL    MW432040   1.036   1.888   3.979  0.4755  0.2425 -0.1857
 8069SOL     OW32041   4.505   5.159   0.904  0.1347  0.0402 -0.5518
 8069SOL    HW232042   4.448   5.096   0.949  0.1669 -0.2435 -0.9027
 8069SOL    HW332043   4.564   5.105   0.852  0.9257  0.3193  0.0378
 8069SOL    MW432044   4.505   5.144   0.903 -0.3290 -0.0033 -0.4713
 8070SOL     OW32045   4.602   3.904   6.058 -0.3980 -0.6502  0.2340
 8070SOL    HW232046   4.529   3.930   6.001 -0.8217 -0.3171  0.9241
 8070SOL    HW332047   4.563   3.847   6.123  0.3599 -2.2827 -0.6755
 8070SOL    MW432048   4.588   3.900   6.059  0.7603  0.2774  0.0981
 8071SOL     OW32049   3.539   4.724   0.448 -0.5537 -0.0689 -0.0164
 8071SOL    HW232050   3.577   4.718   0.360  1.0767  0.5661  0.6006
 8071SOL    HW332051   3.474   4.794   0.441  0.2760  0.6871 -0.4991
 8071SOL    MW432052   3.536   4.732   0.435  0.3392  0.2574 -0.0095
 8072SOL     OW32053   4.027   0.219   4.073 -0.2382 -0.1861 -0.1688
 8072SOL    HW232054   3.970   0.283   4.117 -0.4699 -0.1367 -0.5382
 8072SOL    HW332055   4.050   0.156   4.141 -2.0186 -1.1078 -0.3589
 8072SOL    MW432056   4.023   0.219   4.088 -0.0514  0.1225 -0.3671
 8073SOL     OW32057   1.496   5.848   5.848  0.0011 -0.1567 -0.6517
 8073SOL    HW232058   1.577   5.899   5.847  1.9830 -2.9494  1.2686
 8073SOL    HW332059   1.466   5.850   5.758  0.1748  3.8205 -0.8121
 8073SOL    MW432060   1.503   5.855   5.836 -0.1840  0.2242 -0.3242
 8074SOL     OW32061   4.734   0.372   2.352 -0.1715 -0.2850 -0.2045
 8074SOL    HW232062   4.710   0.280   2.354  0.9731 -0.5843  0.6500
 8074SOL    HW332063   4.651   0.419   2.366 -0.4202 -1.2427  1.9069
 8074SOL    MW432064   4.720   0.366   2.354  0.1982 -0.5016  0.0730
 8075SOL     OW32065   1.729   1.206   6.140 -0.0372 -0.3360 -0.3837
 8075SOL    HW232066   1.795   1.146   6.175  1.4436  0.8159 -1.0865
 8075SOL    HW332067   1.756   1.293   6.171  0.2435  0.4765 -2.7118
 8075SOL    MW432068   1.741   1.210   6.149  0.9390 -0.5560  0.0800
 8076SOL     OW32069   1.868   2.817   2.316 -0.3146 -0.9553  0.8970
 8076SOL    HW232070   1.849   2.740   2.262  0.7025  0.2585 -1.3452
 8076SOL    HW332071   1.790   2.829   2.370 -1.9718 -1.5357 -1.2374
 8076SOL    MW432072   1.856   2.809   2.316 -0.4809  0.0019  0.2963
 8077SOL     OW32073   5.070   1.065   0.852 -0.5366 -0.2280  0.5524
 8077SOL    HW232074   5.003   1.093   0.914 -0.7179  0.1152  0.2062
 8077SOL    HW332075   5.121   1.144   0.834  0.3617 -0.6210  1.2956
 8077SOL    MW432076   5.068   1.079   0.858 -0.5633  0.3369 -0.1095
 8078SOL     OW32077   5.064   2.184   4.340 -0.6801 -0.5824 -0.4483
 8078SOL    HW232078   5.142   2.128   4.339  0.2665  0.5811  1.5373
 8078SOL    HW332079   5.081   2.247   4.410 -1.3991  2.6194 -2.9231
 8078SOL    MW432080   5.077   2.185   4.349 -0.7191  0.3472 -0.1902
 8079SOL     OW32081   5.530   4.375   3.920 -0.5395 -0.5588  0.5143
 8079SOL    HW232082   5.492   4.457   3.889 -0.7063  0.0313  2.1820
 8079SOL    HW332083   5.554   4.328   3.840 -1.3454  0.6740 -0.4935
 8079SOL    MW432084   5.528   4.379   3.905  0.1837 -0.2237  0.1497
 8080SOL     OW32085   3.343   2.737   5.410  0.2573 -0.2305  0.2430
 8080SOL    HW232086   3.391   2.697   5.483  0.7394  2.1898  1.3411
 8080SOL    HW332087   3.286   2.802   5.451 -0.3670  0.3485 -1.4597
 8080SOL    MW432088   3.342   2.740   5.425  0.0110  0.6772 -0.0772
 8081SOL     OW32089   5.011   0.189   5.305 -0.3265  0.1434 -0.2287
 8081SOL    HW232090   4.977   0.165   5.391  1.2703  0.5239  0.5530
 8081SOL    HW332091   4.935   0.224   5.258 -0.9519  1.3101  1.5460
 8081SOL    MW432092   4.997   0.191   5.310 -0.1067 -0.0181  0.8196
 8082SOL     OW32093   0.244   5.589   4.487 -0.1612  0.8201 -0.5305
 8082SOL    HW232094   0.181   5.621   4.423  0.4008 -1.0487 -2.1199
 8082SOL    HW332095   0.191   5.548   4.555 -0.7203  1.6671 -0.4417
 8082SOL    MW432096   0.229   5.588   4.488  0.2747 -0.2686  0.3365
 8083SOL     OW32097   5.387   5.798   4.252 -0.3217 -0.3143  0.2625
 8083SOL    HW232098   5.427   5.846   4.324 -0.2280  1.1496 -0.7197
 8083SOL    HW332099   5.460   5.778   4.193 -0.6337  0.0551 -0.2612
 8083SOL    MW432100   5.402   5.802   4.254 -0.3009 -0.2662  0.6202
 8084SOL     OW32101   3.385   3.855   6.262  0.2263  0.4915  0.2358
 8084SOL    HW232102   3.452   3.842   6.330 -0.8219 -2.0918  0.8684
 8084SOL    HW332103   3.419   3.809   6.186 -0.2990  0.1569  0.2026
 8084SOL    MW432104   3.398   3.848   6.261 -0.5310 -0.2748 -0.4795
 8085SOL     OW32105   0.988   2.449   1.487  0.0457  0.6062  0.0620
 8085SOL    HW232106   1.036   2.368   1.467 -0.8866 -0.2190  1.0182
 8085SOL    HW332107   0.978   2.493   1.403 -1.6218 -1.5382 -0.9661
 8085SOL    MW432108   0.993   2.444   1.473 -0.1987 -0.2757 -0.0092
 8086SOL     OW32109   4.453   2.595   1.481 -0.6086  0.1959 -0.0387
 8086SOL    HW232110   4.397   2.673   1.489  0.7537  1.3857 -1.3992
 8086SOL    HW332111   4.539   2.625   1.512  0.1581 -0.4715 -1.4569
 8086SOL    MW432112   4.457   2.610   1.487 -0.2733  0.2355  0.7360
 8087SOL     OW32113   0.786   1.635   3.018 -0.0656 -0.0926 -0.1938
 8087SOL    HW232114   0.825   1.718   3.044 -0.4140  0.4335 -1.3214
 8087SOL    HW332115   0.860   1.575   3.010  0.7566  1.1714 -3.4253
 8087SOL    MW432116   0.801   1.638   3.021 -0.8711 -0.8176 -0.3185
 8088SOL     OW32117   0.725   3.494   6.036 -0.0005 -0.0235 -0.1844
 8088SOL    HW232118   0.784   3.561   6.070 -2.0630  1.9837 -0.2980
 8088SOL    HW332119   0.717   3.515   5.943  0.8559 -1.7078 -0.6691
 8088SOL    MW432120   0.732   3.506   6.028  0.1522 -0.3101 -0.0154
 8089SOL     OW32121   2.499   2.624   2.703 -0.5333 -0.0298 -0.2890
 8089SOL    HW232122   2.570   2.580   2.657  0.7553  0.3005  1.2639
 8089SOL    HW332123   2.462   2.556   2.761  0.2912  0.4262  0.8162
 8089SOL    MW432124   2.503   2.609   2.705 -0.8596  0.3313  0.5292
 8090SOL     OW32125   4.196   2.153   6.328  0.5420 -0.0273  0.4124
 8090SOL    HW232126   4.180   2.059   6.336 -0.4477 -0.0238 -1.1258
 8090SOL    HW332127   4.273   2.169   6.382 -0.5535 -1.3182  2.4891
 8090SOL    MW432128   4.204   2.143   6.336  0.3419 -0.2427 -0.5622
 8091SOL     OW32129   2.904   1.762   0.260  0.2680 -0.1604  0.2798
 8091SOL    HW232130   2.881   1.803   0.176  0.5146  1.0763  0.7912
 8091SOL    HW332131   2.944   1.679   0.236  0.1044  0.0621 -0.8227
 8091SOL    MW432132   2.906   1.756   0.245  0.3528  0.0955 -0.4685
 8092SOL     OW32133   4.136   2.443   2.523 -0.1371 -0.1041 -0.3493
 8092SOL    HW232134   4.225   2.462   2.493  0.0307  1.0251  0.7724
 8092SOL    HW332135   4.092   2.408   2.446  1.1552 -0.2767 -1.0386
 8092SOL    MW432136   4.142   2.441   2.509 -0.0321 -0.2616 -0.0169
 8093SOL     OW32137   3.766   2.454   1.162 -0.0687  0.7621 -0.0275
 8093SOL    HW232138   3.672   2.443   1.148 -0.3747  2.3489  0.5273
 8093SOL    HW332139   3.807   2.407   1.089 -1.2168 -1.0746  0.4374
 8093SOL    MW432140   3.759   2.446   1.150  0.0524 -0.4291 -0.4685
 8094SOL     OW32141   5.879   1.459   3.770  0.1201  0.6878  0.6965
 8094SOL    HW232142   5.896   1.365   3.782  1.6029  0.9732  1.0163
 8094SOL    HW332143   5.785   1.467   3.780  0.0719 -0.6378  1.6704
 8094SOL    MW432144   5.869   1.448   3.773 -0.5291  0.8884  0.4899
 8095SOL     OW32145   3.767   2.782   5.330  0.0544  0.0059  0.4098
 8095SOL    HW232146   3.825   2.710   5.358 -0.0423 -1.3927 -2.5924
 8095SOL    HW332147   3.821   2.860   5.337  0.5942 -0.4798  2.5000
 8095SOL    MW432148   3.782   2.783   5.335 -0.1186 -0.3707 -0.3089
 8096SOL     OW32149   0.240   3.007   4.768  0.1902  0.5879 -0.0462
 8096SOL    HW232150   0.160   2.955   4.776  0.5296  0.0817  0.0944
 8096SOL    HW332151   0.218   3.075   4.704 -0.4012  0.5488  0.1137
 8096SOL    MW432152   0.227   3.009   4.760  0.0290  0.6604  0.3037
 8097SOL     OW32153   1.460   3.567   2.524  0.3106  0.3960 -0.0158
 8097SOL    HW232154   1.525   3.637   2.514  1.0679 -0.0631  1.4205
 8097SOL    HW332155   1.436   3.569   2.616  0.4102 -1.2777  0.0800
 8097SOL    MW432156   1.466   3.577   2.534 -0.4118 -0.2856 -0.7655
 8098SOL     OW32157   4.958   0.768   5.890 -0.3651  0.0236  0.2618
 8098SOL    HW232158   4.986   0.678   5.873  0.1517  0.6252 -2.5328
 8098SOL    HW332159   5.032   0.822   5.864 -2.0538  1.4157 -2.0281
 8098SOL    MW432160   4.971   0.763   5.884 -0.2838  0.6672 -0.3092
 8099SOL     OW32161   3.665   1.557   3.042  0.0260  0.8823 -0.0808
 8099SOL    HW232162   3.632   1.647   3.050  2.8780  2.1192 -0.7836
 8099SOL    HW332163   3.632   1.513   3.120 -2.4499  2.1452 -0.3021
 8099SOL    MW432164   3.656   1.563   3.053  0.3695  0.1623  0.0919
 8100SOL     OW32165   5.646   3.303   0.636 -0.7631  0.0100 -0.0449
 8100SOL    HW232166   5.723   3.254   0.666 -0.9479  0.6998  1.6743
 8100SOL    HW332167   5.673   3.341   0.552  1.3425  1.4623  1.1952
 8100SOL    MW432168   5.660   3.301   0.629  0.1657  0.2692 -0.8878
 8101SOL     OW32169   2.134   2.040   2.294  0.1579 -0.9512 -0.0026
 8101SOL    HW232170   2.060   2.080   2.247  0.3735  1.2344  1.3783
 8101SOL    HW332171   2.207   2.047   2.232 -0.7156 -3.3153 -1.4608
 8101SOL    MW432172   2.134   2.046   2.279 -0.5068  0.2746 -0.4119
 8102SOL     OW32173   5.809   6.262   1.906 -0.3664  0.1965 -0.3779
 8102SOL    HW232174   5.854   6.344   1.883  0.6219 -0.1736  0.1872
 8102SOL    HW332175   5.721   6.273   1.870 -0.7509  2.1273  0.9512
 8102SOL    MW432176   5.803   6.274   1.898 -0.0537  0.7084  0.2083
 8103SOL     OW32177   5.380   4.997   6.135  0.2995  0.0284 -0.2017
 8103SOL    HW232178   5.430   4.962   6.208  0.2243  0.8071  0.2368
 8103SOL    HW332179   5.321   4.926   6.110  0.2297 -0.2013  0.5856
 8103SOL    MW432180   5.379   4.983   6.141 -0.1112 -0.0188 -0.3443
 8104SOL     OW32181   1.528   0.132   2.359  0.0678 -0.4524 -0.0113
 8104SOL    HW232182   1.470   0.139   2.434  1.3936  0.4013  0.9861
 8104SOL    HW332183   1.482   0.176   2.288 -1.5140 -1.8887  0.0674
 8104SOL    MW432184   1.514   0.138   2.360 -0.4534  0.2008 -0.0213
 8105SOL     OW32185   2.611   5.179   0.752  0.2732  0.4812 -0.1291
 8105SOL    HW232186   2.637   5.094   0.785 -0.3348 -0.8058 -2.6566
 8105SOL    HW332187   2.687   5.211   0.703 -0.7961 -0.6535 -2.7221
 8105SOL    MW432188   2.625   5.172   0.750  0.5071 -0.1932  0.5689
 8106SOL     OW32189   1.779   4.130   6.061  0.1651 -0.1327 -1.0213
 8106SOL    HW232190   1.837   4.198   6.095  1.1857 -1.1088 -0.7340
 8106SOL    HW332191   1.838   4.065   6.023 -0.8492 -0.1229 -2.7194
 8106SOL    MW432192   1.795   4.131   6.061  0.5100 -0.2333  0.2775
 8107SOL     OW32193   3.241   2.274   0.487 -0.1355 -0.1405  0.0038
 8107SOL    HW232194   3.244   2.216   0.411 -0.5344  0.4458 -0.4692
 8107SOL    HW332195   3.282   2.224   0.558 -2.8675 -2.0972  0.3458
 8107SOL    MW432196   3.247   2.260   0.487  0.4468  0.2667  0.4910
 8108SOL     OW32197   0.299   2.080   3.439 -0.7238 -0.5055 -0.4691
 8108SOL    HW232198   0.219   2.052   3.393 -1.7516 -1.4776  1.7537
 8108SOL    HW332199   0.325   2.004   3.491  0.7055  0.3488  0.1320
 8108SOL    MW432200   0.292   2.066   3.440  0.5196 -0.4606 -0.0144
 8109SOL     OW32201   2.208   4.940   2.288 -0.6848 -1.1190 -0.6888
 8109SOL    HW232202   2.226   5.019   2.338 -0.3855 -0.7239 -1.3951
 8109SOL    HW332203   2.198   4.871   2.353  1.1966 -0.9217 -0.1390
 8109SOL    MW432204   2.209   4.941   2.303  0.6893 -0.2023  0.1659
 8110SOL     OW32205   2.841   3.596   4.264 -0.4449  0.0702  0.0436
 8110SOL    HW232206   2.898   3.541   4.210  0.5542  0.0723  1.0501
 8110SOL    HW332207   2.878   3.684   4.256 -0.7988  0.2207  0.0611
 8110SOL    MW432208   2.853   3.600   4.256  0.2846  0.2345 -0.6387
 8111SOL     OW32209   6.295   0.401   0.675  0.2446 -0.6919 -0.0978
 8111SOL    HW232210   6.201   0.394   0.661  0.0636 -0.1725  0.7677
 8111SOL    HW332211   6.324   0.472   0.619 -0.0623 -0.1687  0.4016
 8111SOL    MW432212   6.287   0.409   0.666 -0.0011  0.6524  0.0717
 8112SOL     OW32213   2.138   3.408   2.040  0.1414 -0.0482 -0.4949
 8112SOL    HW232214   2.150   3.437   1.949 -0.3885 -0.2641 -0.6373
 8112SOL    HW332215   2.065   3.346   2.036 -2.5516  2.7857  0.6484
 8112SOL    MW432216   2.130   3.404   2.027 -0.1860  0.1157  0.2147
 8113SOL     OW32217   0.198   4.111   4.455  0.1848  0.2418 -0.0569
 8113SOL    HW232218   0.200   4.206   4.466 -0.1355  0.0642  1.7382
 8113SOL    HW332219   0.225   4.076   4.540  0.5748 -1.2816 -0.7736
 8113SOL    MW432220   0.202   4.119   4.468 -0.2480  0.0537  0.3338
 8114SOL     OW32221   0.671   6.237   4.980 -0.2018 -0.3294  0.7250
 8114SOL    HW232222   0.720   6.294   4.920  0.7894  0.5817  2.3459
 8114SOL    HW332223   0.730   6.224   5.054 -0.9119 -2.4535  0.9813
 8114SOL    MW432224   0.686   6.243   4.982 -0.1488  0.1604 -0.0959
 8115SOL     OW32225   0.405   3.984   3.566 -0.3286  0.1186  0.0004
 8115SOL    HW232226   0.495   3.991   3.597 -0.7379 -0.0056  1.2488
 8115SOL    HW332227   0.409   3.919   3.496  0.4416 -0.3546  0.4720
 8115SOL    MW432228   0.418   3.977   3.561  0.1528 -0.0515  0.8122
 8116SOL     OW32229   3.401   5.327   1.282  0.1488  0.5173 -0.0462
 8116SOL    HW232230   3.403   5.344   1.188  0.5413 -2.9903 -0.8028
 8116SOL    HW332231   3.317   5.285   1.297  0.4484  0.2576  1.0004
 8116SOL    MW432232   3.390   5.324   1.271  0.7493  0.0448 -0.1723
 8117SOL     OW32233   1.733   5.001   5.893 -0.2819  0.1706  0.0345
 8117SOL    HW232234   1.729   4.916   5.937  2.1919 -0.0932 -0.1243
 8117SOL    HW332235   1.674   4.991   5.818 -2.0118 -0.4892  1.4265
 8117SOL    MW432236   1.725   4.988   5.889  0.1165  0.6188 -0.2917
 8118SOL     OW32237   6.175   1.581   1.405  0.1574 -0.0276 -0.0075
 8118SOL    HW232238   6.251   1.527   1.429 -0.8601 -0.5546  2.1989
 8118SOL    HW332239   6.204   1.671   1.422  0.7634 -0.0889 -0.6296
 8118SOL    MW432240   6.189   1.586   1.410  0.1700  0.0850 -0.4864
 8119SOL     OW32241   0.110   3.251   3.140  0.0740  0.0743 -0.5813
 8119SOL    HW232242   0.132   3.158   3.140 -0.0598  0.0311 -1.7295
 8119SOL    HW332243   0.189   3.295   3.109  1.0825  0.6325  2.4435
 8119SOL    MW432244   0.123   3.245   3.136  0.3715 -0.4538  0.3403
 8120SOL     OW32245   1.853   2.801   0.145  0.0232 -0.1189 -0.3928
 8120SOL    HW232246   1.773   2.795   0.197 -0.3437 -1.3066 -1.0705
 8120SOL    HW332247   1.896   2.716   0.156  0.3390 -0.0989 -1.3899
 8120SOL    MW432248   1.848   2.789   0.154 -0.1058 -0.3675  0.5753
 8121SOL     OW32249   2.839   5.932   5.403 -0.2514  0.4608  0.0654
 8121SOL    HW232250   2.857   5.867   5.335 -1.0612 -1.3002  1.4471
 8121SOL    HW332251   2.744   5.930   5.413 -0.1750  0.9848  0.9692
 8121SOL    MW432252   2.829   5.923   5.395 -0.5857 -0.3003  0.1491
 8122SOL     OW32253   0.815   3.063   3.987  0.1166  0.2228 -0.8976
 8122SOL    HW232254   0.733   3.113   3.992 -2.1518 -3.3050  0.7816
 8122SOL    HW332255   0.850   3.065   4.077  0.2093 -0.8027 -0.8987
 8122SOL    MW432256   0.809   3.070   4.000  0.6565  0.0440 -0.8020
 8123SOL     OW32257   0.893   6.085   2.327  0.4494  0.2915 -0.0394
 8123SOL    HW232258   0.831   6.157   2.337  0.1814 -0.0798  1.1051
 8123SOL    HW332259   0.843   6.015   2.285 -0.0459 -0.1382  1.2072
 8123SOL    MW432260   0.878   6.085   2.323 -0.6805 -0.1991  0.1018
 8124SOL     OW32261   5.624   1.607   4.580 -0.0421  0.6184  0.1340
 8124SOL    HW232262   5.614   1.692   4.537 -0.6568 -0.1658 -1.3538
 8124SOL    HW332263   5.538   1.591   4.620 -0.1813  0.3437 -0.2720
 8124SOL    MW432264   5.611   1.616   4.579 -0.2136  0.0103 -0.1401
 8125SOL     OW32265   4.065   4.074   4.572  0.9825 -0.1769  0.0231
 8125SOL    HW232266   4.102   4.152   4.615 -1.8499  0.0521  2.3014
 8125SOL    HW332267   4.064   4.007   4.640  0.1422 -1.1353 -0.9059
 8125SOL    MW432268   4.070   4.076   4.587 -0.2470  0.0952  0.5402
 8126SOL     OW32269   0.518   2.598   2.760  0.1704 -0.7872 -0.2262
 8126SOL    HW232270   0.550   2.558   2.841  0.5942 -1.0020 -0.4964
 8126SOL    HW332271   0.586   2.661   2.737 -0.8194  0.6324  0.5816
 8126SOL    MW432272   0.531   2.601   2.768 -0.0267  0.3322 -0.2751
 8127SOL     OW32273   0.669   3.320   5.112  0.0465  0.0606 -0.5290
 8127SOL    HW232274   0.650   3.297   5.203 -2.6790  0.9826 -0.7706
 8127SOL    HW332275   0.625   3.252   5.061  1.9264 -0.7046 -1.2316
 8127SOL    MW432276   0.661   3.308   5.118 -0.3217 -0.0629 -0.3211
 8128SOL     OW32277   3.547   1.390   4.394 -0.0905  0.7716  0.2658
 8128SOL    HW232278   3.626   1.355   4.436 -0.6069  0.5119  1.0448
 8128SOL    HW332279   3.529   1.328   4.323 -0.5180 -0.0958  1.1082
 8128SOL    MW432280   3.555   1.377   4.390 -0.0100 -0.4262 -0.3271
 8129SOL     OW32281   2.138   5.587   5.581 -0.5057  0.4788  0.1229
 8129SOL    HW232282   2.136   5.671   5.534  1.8605 -0.2868 -1.5542
 8129SOL    HW332283   2.227   5.582   5.616 -0.9809 -0.8273  1.2183
 8129SOL    MW432284   2.150   5.598   5.580 -0.6676  0.0413 -0.0517
 8130SOL     OW32285   3.789   0.613   0.870 -0.5172  0.7573  0.3078
 8130SOL    HW232286   3.732   0.646   0.939 -0.0317 -0.7900  1.5130
 8130SOL    HW332287   3.731   0.563   0.812 -0.7963  1.3957  0.0310
 8130SOL    MW432288   3.774   0.611   0.871  0.3742  0.4106  0.1411
 8131SOL     OW32289   5.033   3.195   4.114 -0.1358 -0.1384  0.1029
 8131SOL    HW232290   4.964   3.172   4.053 -0.0825  0.1651 -0.0755
 8131SOL    HW332291   5.004   3.277   4.153  0.2139  0.0939 -0.1166
 8131SOL    MW432292   5.020   3.203   4.111  0.1302 -0.3804 -0.0961
 8132SOL     OW32293   3.737   3.196   2.910  0.4336 -0.2263 -0.5477
 8132SOL    HW232294   3.669   3.210   2.976  0.7854 -2.3748  0.3626
 8132SOL    HW332295   3.799   3.136   2.952  0.6644 -1.7024 -2.8285
 8132SOL    MW432296   3.736   3.190   2.924 -0.3885  0.2426  0.0937
 8133SOL     OW32297   0.047   3.974   4.257  0.0290  0.5431  0.1442
 8133SOL    HW232298   0.083   4.038   4.318 -0.6069 -1.2532  2.5617
 8133SOL    HW332299   0.101   3.896   4.270  1.0712  0.5690 -3.0259
 8133SOL    MW432300   0.059   3.972   4.267 -0.5837  0.0883  0.2089
 8134SOL     OW32301   3.189   3.628   4.256 -0.6619 -0.1285 -0.2498
 8134SOL    HW232302   3.282   3.642   4.243 -0.5944  0.9433  1.1908
 8134SOL    HW332303   3.178   3.617   4.350 -2.1393  1.2552 -0.2008
 8134SOL    MW432304   3.200   3.628   4.267  0.2211 -0.1227 -0.2628
 8135SOL     OW32305   5.168   4.442   3.898 -0.3241  0.6230  0.6421
 8135SOL    HW232306   5.143   4.360   3.856 -1.5712  1.9341 -1.3227
 8135SOL    HW332307   5.161   4.424   3.992  1.2881 -2.0309  0.3443
 8135SOL    MW432308   5.163   4.429   3.905  0.5887  0.2677  0.1651
 8136SOL     OW32309   1.711   6.049   5.855  0.5490  0.4450  0.1772
 8136SOL    HW232310   1.743   6.078   5.770 -0.2330  1.6015  0.2630
 8136SOL    HW332311   1.635   6.104   5.873 -0.4934 -1.1030  0.7502
 8136SOL    MW432312   1.706   6.060   5.846 -0.1257  0.6368  0.2003
 8137SOL     OW32313   4.706   3.851   4.389 -0.1789 -0.1540  0.5486
 8137SOL    HW232314   4.704   3.924   4.326  1.2862 -0.3387  0.2662
 8137SOL    HW332315   4.624   3.804   4.373  0.0245 -0.0283 -1.0513
 8137SOL    MW432316   4.695   3.854   4.378  0.1117  0.2998  0.4207
 8138SOL     OW32317   6.114   2.190   3.142  0.1470  0.3646 -0.1299
 8138SOL    HW232318   6.132   2.210   3.234  0.5095  1.2235 -0.3739
 8138SOL    HW332319   6.198   2.203   3.098 -0.3203  1.2992 -0.7852
 8138SOL    MW432320   6.127   2.195   3.148  0.3375 -0.4824 -0.7049
 8139SOL     OW32321   2.649   0.935   4.279  0.1851 -0.7957  0.1187
 8139SOL    HW232322   2.708   0.968   4.347  0.7648 -0.3036 -0.6021
 8139SOL    HW332323   2.576   0.998   4.278  0.5648 -0.3492 -0.2410
 8139SOL    MW432324   2.647   0.948   4.288 -0.6500  0.1468 -0.3174
 8140SOL     OW32325   1.962   1.048   3.584 -0.2565 -0.2820  0.4106
 8140SOL    HW232326   1.879   1.018   3.623  0.0455  1.0264  2.1794
 8140SOL    HW332327   2.011   0.967   3.569 -0.4413 -0.9182  2.7292
 8140SOL    MW432328   1.957   1.033   3.587 -0.0157  0.2715 -0.0452
 8141SOL     OW32329   6.063   2.824   0.490 -0.4698 -0.2526 -0.2306
 8141SOL    HW232330   6.037   2.800   0.579  2.2216 -0.5192  0.5690
 8141SOL    HW332331   6.132   2.889   0.502 -0.9555  0.6863 -2.1846
 8141SOL    MW432332   6.068   2.829   0.503 -0.7366 -0.4623 -0.1718
 8142SOL     OW32333   4.604   4.553   1.992  0.1270  0.0307 -0.2196
 8142SOL    HW232334   4.555   4.583   2.068  2.8646  0.4394  1.5029
 8142SOL    HW332335   4.648   4.631   1.959  2.3601 -0.8725  0.4707
 8142SOL    MW432336   4.603   4.567   1.998 -0.4433  0.6024 -0.3534
 8143SOL     OW32337   0.466   2.513   1.494  0.1589  0.0481 -0.0130
 8143SOL    HW232338   0.548   2.464   1.501  1.0030  1.0486 -2.0923
 8143SOL    HW332339   0.399   2.445   1.482  0.8798 -0.7131  0.1464
 8143SOL    MW432340   0.468   2.497   1.493  0.0688 -0.5032 -0.3137
 8144SOL     OW32341   4.892   1.548   2.554  0.4143  0.0050  0.6565
 8144SOL    HW232342   4.931   1.467   2.521  1.5574 -0.0248  2.0182
 8144SOL    HW332343   4.805   1.550   2.515  1.0075 -0.9813 -0.8051
 8144SOL    MW432344   4.886   1.538   2.544  0.1368 -0.3980  0.2517
 8145SOL     OW32345   4.839   5.701   5.091 -0.1642 -0.4081  0.0273
 8145SOL    HW232346   4.803   5.615   5.070 -0.4772  0.4753 -3.6994
 8145SOL    HW332347   4.773   5.763   5.062  1.5286  1.1424 -0.7036
 8145SOL    MW432348   4.826   5.698   5.084 -0.2480 -0.1864 -0.0925
 8146SOL     OW32349   3.558   4.041   3.035 -0.1074 -0.2163  0.0386
 8146SOL    HW232350   3.590   3.955   3.006  1.3319  0.6516 -1.0996
 8146SOL    HW332351   3.635   4.098   3.029 -1.6618  1.8365 -2.1976
 8146SOL    MW432352   3.572   4.037   3.030 -0.3422  0.2426 -0.0860
 8147SOL     OW32353   6.189   1.467   5.741 -0.0315 -0.5890  0.1220
 8147SOL    HW232354   6.114   1.413   5.767  0.2429 -0.5336  1.0804
 8147SOL    HW332355   6.172   1.552   5.780 -0.5654  0.1094 -1.5684
 8147SOL    MW432356   6.177   1.471   5.750  0.3094 -0.4179 -0.6010
 8148SOL     OW32357   1.064   5.820   3.469 -0.0032  0.0468 -0.5842
 8148SOL    HW232358   1.012   5.864   3.537 -0.4333 -0.0730 -0.8301
 8148SOL    HW332359   1.149   5.864   3.471 -0.3062  0.6343 -0.5705
 8148SOL    MW432360   1.068   5.832   3.478 -0.3923 -0.0542 -0.2777
 8149SOL     OW32361   3.178   5.772   2.836  0.2638  0.1254  0.1120
 8149SOL    HW232362   3.148   5.761   2.746  0.8517 -1.3255  0.0767
 8149SOL    HW332363   3.241   5.844   2.832  0.4421 -0.0676 -0.6694
 8149SOL    MW432364   3.182   5.780   2.824  0.1585  0.0123  0.1064
 8150SOL     OW32365   1.810   5.780   0.096  0.6565 -1.0909  0.0295
 8150SOL    HW232366   1.901   5.762   0.118  0.8225  0.2198  0.5075
 8150SOL    HW332367   1.798   5.741   0.009  1.6958 -1.1826 -0.0835
 8150SOL    MW432368   1.820   5.773   0.088  0.0430  0.2002  0.1982
 8151SOL     OW32369   5.814   3.183   1.559  0.2194 -0.0794 -0.3812
 8151SOL    HW232370   5.895   3.232   1.577 -0.8577  1.4886  0.4372
 8151SOL    HW332371   5.769   3.236   1.494 -0.2531 -0.8383 -0.6756
 8151SOL    MW432372   5.819   3.196   1.553  0.3458 -0.1758 -0.0663
 8152SOL     OW32373   3.206   1.694   5.913 -0.1892 -0.0573  0.0738
 8152SOL    HW232374   3.154   1.621   5.880  0.1137  0.4819 -1.7261
 8152SOL    HW332375   3.201   1.686   6.008  2.1390 -4.0480  0.0652
 8152SOL    MW432376   3.198   1.684   5.921 -0.5612 -0.5706  0.3521
 8153SOL     OW32377   0.405   2.583   4.158 -0.7699  0.3725 -0.3609
 8153SOL    HW232378   0.474   2.643   4.129 -0.3449 -0.1828 -0.5134
 8153SOL    HW332379   0.410   2.509   4.098 -2.0990  0.7133 -0.9425
 8153SOL    MW432380   0.415   2.581   4.146  0.4231  0.1535  0.2683
 8154SOL     OW32381   6.200   2.066   4.674  0.7763 -0.0314  0.2708
 8154SOL    HW232382   6.159   2.120   4.606  1.5873  0.7691  0.3873
 8154SOL    HW332383   6.293   2.064   4.650  1.0117 -0.0440  1.1463
 8154SOL    MW432384   6.207   2.073   4.662 -0.2259  0.3011 -0.3263
 8155SOL     OW32385   4.100   4.254   3.426  0.0906 -0.2463 -0.1677
 8155SOL    HW232386   4.155   4.176   3.434  0.1975 -0.1925 -0.3944
 8155SOL    HW332387   4.031   4.228   3.365  0.3216 -0.0523 -0.5155
 8155SOL    MW432388   4.098   4.240   3.419 -0.1828  0.0388  0.1380
 8156SOL     OW32389   3.129   0.551   1.951  0.4972  0.0349  0.0792
 8156SOL    HW232390   3.079   0.490   1.896 -0.6603  1.4873 -0.5295
 8156SOL    HW332391   3.064   0.612   1.984  1.8078  1.8629 -0.5561
 8156SOL    MW432392   3.114   0.551   1.948 -0.0165 -0.3072 -0.5644
 8157SOL     OW32393   3.778   3.713   5.412  0.2759  0.5989 -0.3223
 8157SOL    HW232394   3.837   3.692   5.339  1.9686  0.5662  0.9979
 8157SOL    HW332395   3.732   3.631   5.429  1.1009  0.1269 -0.2971
 8157SOL    MW432396   3.780   3.699   5.404  0.3180 -0.3219  0.0186
 8158SOL     OW32397   2.182   4.332   3.843  0.1199  0.0480 -0.4381
 8158SOL    HW232398   2.256   4.390   3.863  1.3335 -1.7767  0.6183
 8158SOL    HW332399   2.119   4.389   3.800  1.5573  1.9887 -0.1373
 8158SOL    MW432400   2.184   4.347   3.840  0.3893 -0.1509 -0.1911
 8159SOL     OW32401   3.352   3.953   1.366 -0.2110 -0.3744 -0.5425
 8159SOL    HW232402   3.364   3.961   1.271  0.1082  0.3783 -0.4457
 8159SOL    HW332403   3.262   3.982   1.382 -0.4429 -1.0177 -0.6755
 8159SOL    MW432404   3.342   3.958   1.355 -0.2475  0.0847  0.9112
 8160SOL     OW32405   5.790   4.002   2.782 -0.3642 -0.0649  0.4816
 8160SOL    HW232406   5.740   3.995   2.863  0.6604  2.0430  1.3509
 8160SOL    HW332407   5.756   4.080   2.739  1.1443  0.5876  0.3999
 8160SOL    MW432408   5.779   4.011   2.787 -0.0597 -0.0553  0.3881
 8161SOL     OW32409   0.842   5.381   2.139 -0.1728 -0.0072  0.3108
 8161SOL    HW232410   0.888   5.391   2.056  1.6352 -0.8991  1.1679
 8161SOL    HW332411   0.772   5.447   2.135  0.5966  0.7731 -1.4029
 8161SOL    MW432412   0.839   5.391   2.128 -0.4583 -0.8245 -0.1352
 8162SOL     OW32413   2.122   4.265   3.031 -0.4414 -0.2230  0.1030
 8162SOL    HW232414   2.059   4.312   3.086  1.1465  0.6575  1.2508
 8162SOL    HW332415   2.186   4.331   3.005  0.6349 -1.2890 -0.0879
 8162SOL    MW432416   2.122   4.280   3.035 -0.5318  0.5513 -0.0050
 8163SOL     OW32417   1.347   4.643   1.462 -0.2936  0.0213 -0.1379
 8163SOL    HW232418   1.298   4.606   1.536 -0.9365  1.0693 -0.0182
 8163SOL    HW332419   1.364   4.733   1.488  1.2757 -0.1813 -0.4136
 8163SOL    MW432420   1.343   4.650   1.475 -0.1154  0.0375  0.4019
 8164SOL     OW32421   4.486   6.177   5.798 -0.2808  0.1275  0.7648
 8164SOL    HW232422   4.405   6.168   5.749 -0.5134  0.4582  1.0826
 8164SOL    HW332423   4.537   6.099   5.776  0.1609  0.8586 -0.9966
 8164SOL    MW432424   4.482   6.166   5.789  0.0755 -1.1590 -0.4973
 8165SOL     OW32425   3.652   2.588   1.442 -0.0326  0.0437 -0.2576
 8165SOL    HW232426   3.601   2.521   1.487  0.5723  0.1554  0.6293
 8165SOL    HW332427   3.737   2.586   1.485  0.0257  1.3278 -0.2711
 8165SOL    MW432428   3.657   2.579   1.453 -0.3857 -0.3044  0.7197
 8166SOL     OW32429   2.143   1.550   6.357  0.3350  0.5392 -0.1453
 8166SOL    HW232430   2.148   1.565   6.451  0.0214  0.3061 -0.0905
 8166SOL    HW332431   2.151   1.638   6.318 -0.4095  0.7303  0.1286
 8166SOL    MW432432   2.145   1.564   6.364 -0.3103 -0.1082 -0.0854
 8167SOL     OW32433   0.796   5.368   1.041 -0.0103 -0.3331 -0.2380
 8167SOL    HW232434   0.831   5.304   1.103 -0.0104 -0.6371 -0.5540
 8167SOL    HW332435   0.741   5.318   0.982 -2.3205  0.3504  1.1944
 8167SOL    MW432436   0.794   5.353   1.041 -0.6465  0.2843 -0.3162
 8168SOL     OW32437   0.572   1.422   3.555  0.2507  0.0577 -0.2534
 8168SOL    HW232438   0.485   1.450   3.528 -1.1055 -2.9446  0.5880
 8168SOL    HW332439   0.630   1.493   3.527 -2.2610  1.5448 -2.0908
 8168SOL    MW432440   0.568   1.435   3.548  0.1279 -0.3782 -0.3257
 8169SOL     OW32441   5.987   0.386   0.874  0.3467  0.5505 -0.0303
 8169SOL    HW232442   5.894   0.373   0.856  0.2922  0.4594  0.3205
 8169SOL    HW332443   5.989   0.453   0.943  0.4970 -0.2434  0.7472
 8169SOL    MW432444   5.975   0.393   0.881  0.5106  0.2122  0.5949
 8170SOL     OW32445   5.922   3.969   5.267  0.1533  0.0357  0.5233
 8170SOL    HW232446   5.983   3.987   5.339 -1.4425  0.5599  1.7979
 8170SOL    HW332447   5.966   3.901   5.215  2.0229  0.7244  1.0974
 8170SOL    MW432448   5.936   3.963   5.270  0.4379  0.3931  0.4495
 8171SOL     OW32449   0.033   4.850   4.491  0.5867 -0.0821  0.5915
 8171SOL    HW232450  -0.044   4.795   4.476  2.6662 -3.2458  0.6023
 8171SOL    HW332451  -0.001   4.927   4.537 -2.6162 -0.9967  0.0074
 8171SOL    MW432452   0.018   4.853   4.495  0.1754  0.7373 -0.6515
 8172SOL     OW32453   1.483   6.171   2.848  0.0268  0.2486 -0.1785
 8172SOL    HW232454   1.477   6.081   2.819 -1.5009 -0.1120  1.1045
 8172SOL    HW332455   1.398   6.210   2.827  1.4301  2.1398 -2.8658
 8172SOL    MW432456   1.471   6.164   2.842 -0.3503  0.4462  0.1176
 8173SOL     OW32457   1.889   3.519   0.054  0.1895 -0.0692  0.6330
 8173SOL    HW232458   1.904   3.610   0.028  0.5262  0.6408  3.0556
 8173SOL    HW332459   1.977   3.482   0.064  0.0535 -0.7194 -0.4267
 8173SOL    MW432460   1.903   3.526   0.052  0.2448  0.0869  0.8215
 8174SOL     OW32461   1.018   4.267   4.042  0.0735 -0.4235 -0.1900
 8174SOL    HW232462   1.015   4.193   4.102 -2.3683 -0.0481  0.2715
 8174SOL    HW332463   0.993   4.343   4.095  2.3014  0.7519 -0.7035
 8174SOL    MW432464   1.014   4.268   4.057 -0.4148  0.3427  0.3906
 8175SOL     OW32465   5.684   4.666   2.557 -0.1890  0.2281  0.3470
 8175SOL    HW232466   5.596   4.638   2.533 -0.1697  1.2663 -1.0048
 8175SOL    HW332467   5.742   4.600   2.518 -0.3447 -2.0461  3.4732
 8175SOL    MW432468   5.680   4.653   2.549 -0.7855  0.4915 -0.1900
 8176SOL     OW32469   4.320   2.861   3.866 -0.2021  1.2764  0.0116
 8176SOL    HW232470   4.343   2.803   3.794 -0.6247  1.4252 -0.2529
 8176SOL    HW332471   4.318   2.949   3.826  0.7288  1.5123  0.4706
 8176SOL    MW432472   4.323   2.865   3.851  0.6418 -0.0735  0.6060
 8177SOL     OW32473   5.612   3.572   3.380 -0.1476  0.1511  0.0664
 8177SOL    HW232474   5.573   3.538   3.460  0.0119 -1.0341 -0.3387
 8177SOL    HW332475   5.598   3.503   3.315 -0.1597  1.0336 -0.8981
 8177SOL    MW432476   5.605   3.558   3.382  0.4092 -0.0250 -0.0284
 8178SOL     OW32477   5.395   3.990   3.019 -0.5681  0.0212  0.2980
 8178SOL    HW232478   5.370   4.022   2.933  0.5419  3.0807  0.9895
 8178SOL    HW332479   5.490   3.981   3.015 -0.2250  2.2336  1.7113
 8178SOL    MW432480   5.404   3.993   3.007  0.3017 -0.3616 -0.4651
 8179SOL     OW32481   4.415   2.838   1.829 -0.4080 -0.4185  0.5384
 8179SOL    HW232482   4.376   2.803   1.909 -2.7986 -1.3055 -0.8834
 8179SOL    HW332483   4.456   2.920   1.856  0.6903 -1.6581  2.9906
 8179SOL    MW432484   4.415   2.844   1.843 -0.1493  0.1044  0.1240
 8180SOL     OW32485   3.569   2.681   4.803 -0.1635  0.4669 -0.6622
 8180SOL    HW232486   3.626   2.712   4.732  0.9002 -0.7199 -0.3642
 8180SOL    HW332487   3.604   2.721   4.882 -0.0082  0.0722 -0.5306
 8180SOL    MW432488   3.581   2.690   4.804 -0.0377  0.1343 -0.1886
 8181SOL     OW32489   0.868   0.261   3.206 -0.4595 -0.2613  0.0925
 8181SOL    HW232490   0.863   0.284   3.114 -1.0592  0.5277  0.3143
 8181SOL    HW332491   0.825   0.333   3.252  0.3983 -0.3135  1.0381
 8181SOL    MW432492   0.862   0.273   3.200 -0.0959  0.8818 -0.6508
 8182SOL     OW32493   3.234   0.173   1.855  0.2500 -0.0274 -0.0689
 8182SOL    HW232494   3.164   0.238   1.843 -1.2354 -1.6401 -0.5335
 8182SOL    HW332495   3.254   0.176   1.948  0.8192  1.6590 -0.2108
 8182SOL    MW432496   3.227   0.182   1.865  0.7264  0.4138 -0.0035
 8183SOL     OW32497   4.601   0.273   5.464  0.3007 -0.0676  0.1514
 8183SOL    HW232498   4.645   0.310   5.540  1.1325 -2.1451  0.7423
 8183SOL    HW332499   4.535   0.339   5.440 -0.2160  0.5239  2.8649
 8183SOL    MW432500   4.598   0.286   5.470 -0.0977  0.4309 -0.3456
 8184SOL     OW32501   0.563   5.772   6.253 -0.4851 -0.7058  0.5494
 8184SOL    HW232502   0.542   5.838   6.188 -2.2916 -0.3247  1.4568
 8184SOL    HW332503   0.652   5.745   6.232 -0.2963  0.8414 -0.8305
 8184SOL    MW432504   0.572   5.777   6.242  0.1035  0.1585  0.0882
 8185SOL     OW32505   2.017   3.824   0.892 -0.4448 -0.1447  0.3762
 8185SOL    HW232506   2.013   3.919   0.894 -0.8579 -0.1559  0.2414
 8185SOL    HW332507   1.925   3.796   0.883 -0.3062 -0.5457  0.1603
 8185SOL    MW432508   2.004   3.833   0.891 -0.3284 -0.1411  0.3588
 8186SOL     OW32509   3.816   3.978   3.479 -0.0624 -0.0350  0.0710
 8186SOL    HW232510   3.808   4.028   3.560  1.1359  1.4789 -0.6828
 8186SOL    HW332511   3.900   3.933   3.487  0.3888  0.6590 -0.5716
 8186SOL    MW432512   3.826   3.979   3.491 -0.2886 -0.5996  0.2715
 8187SOL     OW32513   1.644   2.783   2.463 -0.3427 -0.5793 -0.0907
 8187SOL    HW232514   1.593   2.743   2.392 -0.7295 -1.1152  0.4691
 8187SOL    HW332515   1.583   2.843   2.505  0.1325  0.3549 -0.7065
 8187SOL    MW432516   1.629   2.786   2.459 -0.2996  0.3261  0.1094
 8188SOL     OW32517   3.344   3.998   2.819 -0.2694  0.4791  0.8946
 8188SOL    HW232518   3.292   4.076   2.835 -0.9198  0.2867 -0.1502
 8188SOL    HW332519   3.307   3.961   2.738  1.0594 -0.0254  0.4909
 8188SOL    MW432520   3.332   4.003   2.810 -0.4918  0.2526 -0.0816
 8189SOL     OW32521   3.787   3.268   5.052 -0.0242 -0.5873  0.0896
 8189SOL    HW232522   3.858   3.304   5.106 -0.0534  1.4191 -1.1064
 8189SOL    HW332523   3.728   3.227   5.114  0.6209  0.4572  1.4570
 8189SOL    MW432524   3.789   3.268   5.067  0.3784  0.0025  0.4350
 8190SOL     OW32525   1.666   3.974   3.959 -0.2654  0.8304 -0.1976
 8190SOL    HW232526   1.645   3.981   3.866  0.0797  0.6518 -0.2903
 8190SOL    HW332527   1.711   3.890   3.967  0.8133  1.3919 -0.0845
 8190SOL    MW432528   1.669   3.964   3.948 -0.1969  0.3310 -0.0064
 8191SOL     OW32529   3.012   3.759   1.147 -0.0021  0.3375 -0.2360
 8191SOL    HW232530   3.094   3.809   1.144  0.6802 -0.6741  0.5356
 8191SOL    HW332531   2.949   3.813   1.100  0.3665  2.5293  1.5994
 8191SOL    MW432532   3.015   3.773   1.140 -0.3260  0.5260  0.8169
 8192SOL     OW32533   2.301   1.728   4.714  0.4425 -0.1395  0.5846
 8192SOL    HW232534   2.310   1.817   4.748  0.1947  0.3189 -0.4796
 8192SOL    HW332535   2.389   1.702   4.690  0.3608  0.3563 -0.3282
 8192SOL    MW432536   2.314   1.737   4.715  0.1267  0.1434 -0.3159
 8193SOL     OW32537   4.292   2.055   1.755  0.1506  0.0845  0.1708
 8193SOL    HW232538   4.242   2.046   1.836 -0.0966  0.3641  0.0527
 8193SOL    HW332539   4.301   1.966   1.722 -0.0759  0.0098  0.3108
 8193SOL    MW432540   4.286   2.042   1.761  0.3287  0.2859  0.0397
 8194SOL     OW32541   6.109   1.031   0.031 -0.1017 -0.1573 -0.0542
 8194SOL    HW232542   6.062   1.026   0.114 -0.1459 -1.0502 -0.1204
 8194SOL    HW332543   6.199   1.007   0.053 -0.3264 -1.4191 -0.4149
 8194SOL    MW432544   6.115   1.027   0.045  0.0283  0.3815 -0.3035
 8195SOL     OW32545   2.247   2.974   2.808  0.2708  0.2990  0.3773
 8195SOL    HW232546   2.185   3.043   2.784 -1.0755 -0.7023  0.9098
 8195SOL    HW332547   2.241   2.967   2.903  2.3134  1.1724  0.6365
 8195SOL    MW432548   2.238   2.982   2.817 -0.0589  0.3919 -0.1717
 8196SOL     OW32549   5.079   3.435   2.890 -0.0982  0.1639 -0.9307
 8196SOL    HW232550   4.992   3.460   2.922  0.1566 -0.2094  0.0650
 8196SOL    HW332551   5.095   3.348   2.927  0.4373 -0.0455 -1.6268
 8196SOL    MW432552   5.070   3.427   2.899  0.7630  0.6685 -0.2021
 8197SOL     OW32553   2.655   2.917   3.920 -0.1354  0.3792  0.3037
 8197SOL    HW232554   2.686   2.855   3.854 -1.8181  1.2246 -1.3727
 8197SOL    HW332555   2.613   2.861   3.986 -0.0790 -0.3957 -0.2962
 8197SOL    MW432556   2.653   2.901   3.920  0.2609 -0.4906  0.2256
 8198SOL     OW32557   2.407   6.103   4.432 -0.3472 -0.7574  0.5313
 8198SOL    HW232558   2.340   6.122   4.498 -1.7964  2.4881 -1.5649
 8198SOL    HW332559   2.367   6.038   4.375 -0.1636 -1.5854  1.3303
 8198SOL    MW432560   2.393   6.097   4.433 -0.0465 -0.4177  0.3638
 8199SOL     OW32561   3.176   0.709   5.030 -0.3474  0.3638 -0.0552
 8199SOL    HW232562   3.236   0.638   5.051 -1.3738 -0.7158 -0.6190
 8199SOL    HW332563   3.097   0.691   5.082 -1.0533  0.4281 -1.0674
 8199SOL    MW432564   3.173   0.697   5.039 -0.4512  0.2933  0.8167
 8200SOL     OW32565   4.809   4.535   0.959  0.0218 -0.0912  0.4204
 8200SOL    HW232566   4.809   4.503   0.868 -1.8839 -0.6508  0.5715
 8200SOL    HW332567   4.755   4.472   1.006 -0.5378  1.1999  1.5692
 8200SOL    MW432568   4.802   4.522   0.953  0.1228 -0.2842 -0.3886
 8201SOL     OW32569   1.071   3.499   3.412  0.4469 -0.0956 -0.3776
 8201SOL    HW232570   1.132   3.426   3.420 -0.6668 -1.4153 -2.8766
 8201SOL    HW332571   0.994   3.462   3.368 -0.1379  2.5720 -1.8177
 8201SOL    MW432572   1.069   3.485   3.407  0.3267 -0.1037  0.5745
 8202SOL     OW32573   4.630   4.238   2.857  0.6304 -0.3026  0.2221
 8202SOL    HW232574   4.705   4.298   2.850  1.5543 -1.2486  1.4808
 8202SOL    HW332575   4.614   4.209   2.768 -0.3494  2.3530 -0.5679
 8202SOL    MW432576   4.638   4.242   2.845 -0.0919  0.5413  0.1985
 8203SOL     OW32577   3.043   3.544   3.810 -1.1194 -0.2168 -0.3363
 8203SOL    HW232578   3.094   3.575   3.735 -0.5465 -1.1539 -0.3467
 8203SOL    HW332579   2.959   3.590   3.802 -0.5819  0.7160 -0.7879
 8203SOL    MW432580   3.039   3.554   3.799 -0.0173 -0.2617 -0.2951
 8204SOL     OW32581   4.340   0.938   5.722  0.5066 -0.7977  0.4809
 8204SOL    HW232582   4.384   0.898   5.797  1.8244  1.5243  1.0584
 8204SOL    HW332583   4.253   0.962   5.755  0.7678 -0.5760  1.0191
 8204SOL    MW432584   4.334   0.936   5.737 -0.0719 -0.3135 -0.0248
 8205SOL     OW32585   0.372   4.088   0.730 -0.3016 -0.7870 -0.0882
 8205SOL    HW232586   0.292   4.062   0.684 -0.0994  1.2480 -1.7539
 8205SOL    HW332587   0.424   4.134   0.663  2.6516 -2.6989  0.7301
 8205SOL    MW432588   0.368   4.091   0.715  0.5421  0.0067 -0.4401
 8206SOL     OW32589   1.993   6.262   0.847  0.2211  0.3803  0.5367
 8206SOL    HW232590   1.922   6.221   0.798 -1.5616  2.4286  1.2991
 8206SOL    HW332591   1.954   6.290   0.929  2.6454 -1.0442  2.3361
 8206SOL    MW432592   1.979   6.260   0.851 -0.1685 -0.0199 -0.5994
 8207SOL     OW32593   1.303   6.046   4.752 -0.2305 -0.2050 -0.3300
 8207SOL    HW232594   1.258   6.130   4.747  0.7969  0.3161 -1.4622
 8207SOL    HW332595   1.350   6.039   4.668  0.6616 -1.3382  0.2323
 8207SOL    MW432596   1.304   6.056   4.740  0.3099 -0.2310 -0.2651
 8208SOL     OW32597   4.694   0.075   2.844 -0.6288 -0.6497 -0.2862
 8208SOL    HW232598   4.705   0.092   2.937  0.1715 -2.3028 -0.0384
 8208SOL    HW332599   4.713   0.159   2.802 -1.0929  0.1396  1.0236
 8208SOL    MW432600   4.698   0.089   2.851  0.0921 -0.1373  0.8172
 8209SOL     OW32601   3.176   4.242   4.256  0.1753  0.0451  0.5414
 8209SOL    HW232602   3.233   4.182   4.304  1.9878  2.2492  1.2559
 8209SOL    HW332603   3.104   4.261   4.316 -1.4618 -2.6790 -0.3370
 8209SOL    MW432604   3.174   4.236   4.270  0.2904 -0.5573  0.9287
 8210SOL     OW32605   4.496   3.445   5.535  0.0627 -0.0922  0.4698
 8210SOL    HW232606   4.419   3.439   5.590  0.1386 -0.3142  0.5509
 8210SOL    HW332607   4.462   3.470   5.449 -0.1231 -0.4471  0.4415
 8210SOL    MW432608   4.481   3.448   5.531  0.5397  0.0060 -0.1400
 8211SOL     OW32609   2.670   1.830   1.722 -0.1141 -0.0316  0.4828
 8211SOL    HW232610   2.741   1.885   1.756  1.0722 -0.4926 -1.1224
 8211SOL    HW332611   2.599   1.891   1.704 -0.2399  0.4159  2.2935
 8211SOL    MW432612   2.670   1.845   1.725 -0.4336 -0.2294  0.1815
 8212SOL     OW32613   5.101   6.193   0.022 -0.5035  0.4203  0.5335
 8212SOL    HW232614   5.125   6.157   0.107  0.4983  0.3774  0.2493
 8212SOL    HW332615   5.157   6.270   0.012 -1.0513  0.7805  0.1761
 8212SOL    MW432616   5.111   6.199   0.032 -0.7999  0.0436  0.2989
 8213SOL     OW32617   6.144   3.169   3.460 -0.4284  0.2223  0.5893
 8213SOL    HW232618   6.116   3.101   3.521 -1.4000 -1.0455 -1.1599
 8213SOL    HW332619   6.239   3.161   3.456 -0.4340 -0.2303  1.3081
 8213SOL    MW432620   6.153   3.159   3.467  0.0959  1.0245  0.1832
 8214SOL     OW32621   2.270   6.065   5.119  0.2186  0.2339 -0.0256
 8214SOL    HW232622   2.249   5.995   5.181  3.1961  0.3596  1.3187
 8214SOL    HW332623   2.229   6.143   5.157  0.0303 -0.1218  0.5125
 8214SOL    MW432624   2.262   6.066   5.132  0.1264 -0.2744  0.0039
 8215SOL     OW32625   6.148   0.185   2.734  0.0990  0.1489  0.2861
 8215SOL    HW232626   6.239   0.186   2.764 -0.2426 -0.2748  1.3764
 8215SOL    HW332627   6.131   0.093   2.712  0.1920  0.3737 -0.7550
 8215SOL    MW432628   6.158   0.173   2.735  0.7575 -0.3738 -0.1215
 8216SOL     OW32629   5.925   3.878   2.578 -0.1009 -0.2615  0.4024
 8216SOL    HW232630   5.924   3.859   2.672  1.6818 -0.9781  0.3355
 8216SOL    HW332631   5.939   3.972   2.572 -0.8660 -0.1171  0.8471
 8216SOL    MW432632   5.927   3.888   2.589  0.1738  0.1583 -0.2701
 8217SOL     OW32633   2.528   1.602   2.920  0.4832 -0.4717 -0.4440
 8217SOL    HW232634   2.617   1.595   2.952  0.1034 -0.1023  0.7301
 8217SOL    HW332635   2.495   1.512   2.922  0.5433 -0.4854 -0.0355
 8217SOL    MW432636   2.535   1.589   2.924 -0.1709 -0.0262  0.3781
 8218SOL     OW32637   3.098   4.199   1.167  0.2638  0.1232  0.4074
 8218SOL    HW232638   3.056   4.133   1.112  1.5615 -0.3371 -0.0844
 8218SOL    HW332639   3.047   4.278   1.152 -2.9407 -1.2312  2.9691
 8218SOL    MW432640   3.086   4.201   1.157 -0.3942  0.1531  0.0029
 8219SOL     OW32641   0.397   5.393   1.191 -0.2504 -0.4345 -0.3508
 8219SOL    HW232642   0.420   5.424   1.103 -1.3052  1.8486  0.1015
 8219SOL    HW332643   0.307   5.360   1.182  0.1639 -1.5951 -0.4038
 8219SOL    MW432644   0.388   5.393   1.178 -0.1065 -0.0236 -0.1318
 8220SOL     OW32645   2.778   5.477   2.685  0.1321  0.2820  0.4585
 8220SOL    HW232646   2.822   5.528   2.753  0.8166  1.5463 -0.8751
 8220SOL    HW332647   2.720   5.418   2.733 -0.4885  2.1237  2.1177
 8220SOL    MW432648   2.776   5.476   2.700  0.2359  0.0190  0.2924
 8221SOL     OW32649   4.811   5.701   1.906 -0.7279  0.1780  0.2965
 8221SOL    HW232650   4.812   5.681   2.000 -0.2493  0.9987  0.4678
 8221SOL    HW332651   4.874   5.772   1.895 -0.4707 -0.1895 -0.7160
 8221SOL    MW432652   4.819   5.707   1.917 -0.0595  0.2364  0.1427
 8222SOL     OW32653   0.458   3.454   1.125 -0.0682 -0.2413 -0.2916
 8222SOL    HW232654   0.478   3.535   1.079  0.2570  0.1610  0.5452
 8222SOL    HW332655   0.542   3.422   1.157 -0.2945 -0.4825  0.0743
 8222SOL    MW432656   0.472   3.460   1.123  0.2725 -0.4046 -0.3372
 8223SOL     OW32657   1.182   4.117   5.492 -0.0867  0.1443  0.1824
 8223SOL    HW232658   1.238   4.086   5.421 -1.0875 -0.2495 -0.4489
 8223SOL    HW332659   1.142   4.197   5.458 -1.9366 -0.9900 -0.4134
 8223SOL    MW432660   1.184   4.124   5.478 -0.0489  0.2527  0.2529
 8224SOL     OW32661   5.958   3.866   4.315  0.5605 -0.1334 -0.4642
 8224SOL    HW232662   5.903   3.929   4.361 -0.3867  0.8969 -2.8445
 8224SOL    HW332663   6.047   3.890   4.338  0.1936  1.7279 -0.8700
 8224SOL    MW432664   5.962   3.877   4.324 -0.5090 -0.0381  0.8535
 8225SOL     OW32665   1.611   5.620   0.224 -0.2757 -0.7911  0.0734
 8225SOL    HW232666   1.635   5.629   0.316  0.4819 -1.1205 -0.0878
 8225SOL    HW332667   1.666   5.683   0.178 -0.7625 -0.5173 -0.1372
 8225SOL    MW432668   1.621   5.629   0.230 -0.2635  0.1518  0.1758
 8226SOL     OW32669   3.121   2.425   6.049  0.5104 -0.3955 -0.4428
 8226SOL    HW232670   3.190   2.491   6.051  0.3852 -0.2775 -0.0397
 8226SOL    HW332671   3.167   2.343   6.030  0.8057 -0.3738  0.1838
 8226SOL    MW432672   3.136   2.423   6.047  0.4015 -0.5282  0.4499
 8227SOL     OW32673   3.779   1.643   2.345 -0.2935 -0.0397 -0.2409
 8227SOL    HW232674   3.803   1.584   2.273  0.3298  2.2931 -2.0464
 8227SOL    HW332675   3.685   1.659   2.332 -0.2219  0.2302 -0.4370
 8227SOL    MW432676   3.770   1.637   2.334 -0.2307  0.2416  0.3143
 8228SOL     OW32677   5.548   4.951   3.502 -0.2147 -0.5407 -0.3324
 8228SOL    HW232678   5.597   4.945   3.584 -1.0446  1.0231  0.3293
 8228SOL    HW332679   5.557   5.043   3.475 -0.0804 -0.9864 -1.9250
 8228SOL    MW432680   5.555   4.962   3.509 -0.1606  0.6241 -0.1997
 8229SOL     OW32681   6.027   0.205   5.197 -0.0805 -0.2009  0.0024
 8229SOL    HW232682   6.094   0.188   5.130  0.8764  1.3431  0.5069
 8229SOL    HW332683   6.018   0.300   5.197 -2.7972 -0.3859 -0.4915
 8229SOL    MW432684   6.035   0.215   5.188  0.2259  0.8567  0.2027
 8230SOL     OW32685   4.611   6.221   3.461 -0.1021  0.0849  0.3184
 8230SOL    HW232686   4.578   6.264   3.540  1.5824  0.4935  0.8499
 8230SOL    HW332687   4.579   6.274   3.389 -1.3427 -0.0686  0.7307
 8230SOL    MW432688   4.603   6.234   3.462 -0.4121 -0.9224 -0.7031
 8231SOL     OW32689   4.212   2.301   1.169  0.3056 -0.5101  0.3535
 8231SOL    HW232690   4.126   2.267   1.192  0.6003 -1.8959 -0.4955
 8231SOL    HW332691   4.265   2.291   1.248  0.4672 -2.3926  0.0607
 8231SOL    MW432692   4.208   2.295   1.182  0.3826  0.3385  0.4891
 8232SOL     OW32693   3.782   4.771   0.557  0.1237 -0.3353 -0.3329
 8232SOL    HW232694   3.808   4.861   0.535 -1.1002 -0.0293 -0.6328
 8232SOL    HW332695   3.692   4.764   0.525 -1.1254 -0.5073  2.8078
 8232SOL    MW432696   3.773   4.782   0.550 -0.2429 -0.2360  0.2046
 8233SOL     OW32697   5.634   2.903   6.107 -0.0743 -0.7698 -0.0149
 8233SOL    HW232698   5.674   2.825   6.069  1.0027  0.8256 -2.4399
 8233SOL    HW332699   5.549   2.910   6.063  0.1162 -0.2458 -0.3108
 8233SOL    MW432700   5.628   2.894   6.096  1.1672  0.5704  0.0428
 8234SOL     OW32701   5.285   6.127   2.799  0.1035  0.2566 -0.2894
 8234SOL    HW232702   5.339   6.134   2.720  0.5654 -0.3801 -0.0321
 8234SOL    HW332703   5.342   6.088   2.865 -0.6157 -0.2813  0.0352
 8234SOL    MW432704   5.299   6.123   2.797 -0.3128 -0.2724  0.6793
 8235SOL     OW32705   1.956   2.431   2.526 -0.3028 -0.0726  0.0027
 8235SOL    HW232706   2.000   2.506   2.484 -1.2474  0.7469  0.4199
 8235SOL    HW332707   1.892   2.471   2.585 -2.2585 -1.1744 -1.2539
 8235SOL    MW432708   1.953   2.447   2.528 -0.3635 -0.1875 -0.3475
 8236SOL     OW32709   5.897   5.850   1.422  0.4368 -0.7265 -0.2272
 8236SOL    HW232710   5.863   5.774   1.468 -0.2140 -0.7732 -0.7575
 8236SOL    HW332711   5.990   5.853   1.444  0.1826 -0.8321  0.9501
 8236SOL    MW432712   5.905   5.841   1.431 -0.3136  0.3242 -0.5766
 8237SOL     OW32713   2.893   3.329   0.497 -0.5011  0.0059 -0.3524
 8237SOL    HW232714   2.875   3.236   0.510  2.1769 -0.5910 -0.3317
 8237SOL    HW332715   2.975   3.345   0.544 -0.2668  2.0955 -1.3408
 8237SOL    MW432716   2.902   3.319   0.505  0.6064  0.0250  0.6030
 8238SOL     OW32717   1.800   5.348   0.619  0.0806 -0.1343 -0.2107
 8238SOL    HW232718   1.785   5.296   0.540 -0.6411 -1.5752  0.8233
 8238SOL    HW332719   1.732   5.318   0.680  1.3810  0.0468  1.3834
 8238SOL    MW432720   1.789   5.337   0.616  0.8119 -0.1401 -0.0093
 8239SOL     OW32721   1.144   1.601   3.890  0.8214 -0.3662 -0.0438
 8239SOL    HW232722   1.202   1.590   3.964  0.3394 -0.0336  0.3925
 8239SOL    HW332723   1.199   1.588   3.813  1.1873 -1.3631  0.3747
 8239SOL    MW432724   1.159   1.598   3.889  0.4505  0.6153 -0.0820
 8240SOL     OW32725   5.459   4.251   6.023  0.7314 -0.4332 -0.5639
 8240SOL    HW232726   5.410   4.329   5.997  1.0568  0.1292  0.4402
 8240SOL    HW332727   5.536   4.250   5.967  1.1720  0.4736  0.0104
 8240SOL    MW432728   5.463   4.261   6.012 -0.3784  0.5041 -0.3467
 8241SOL     OW32729   3.505   5.377   6.292 -0.1768  0.6421 -0.3470
 8241SOL    HW232730   3.455   5.410   6.217 -1.9933 -0.9527  0.0733
 8241SOL    HW332731   3.462   5.294   6.315  2.7295 -0.8806  0.0481
 8241SOL    MW432732   3.493   5.371   6.285  0.1913  0.1354  0.1716
 8242SOL     OW32733   1.862   1.523   4.499  0.1737 -0.0343  0.1798
 8242SOL    HW232734   1.882   1.615   4.515 -0.8754  0.0949  0.8211
 8242SOL    HW332735   1.870   1.482   4.585 -1.8378 -0.0492  0.3926
 8242SOL    MW432736   1.866   1.530   4.513  0.4352  0.6520 -0.2228
 8243SOL     OW32737   0.868   3.398   1.769  0.1669  0.3639 -0.1265
 8243SOL    HW232738   0.778   3.431   1.774  0.8806  2.4150  0.1862
 8243SOL    HW332739   0.864   3.312   1.811 -1.3111  1.2133  1.6252
 8243SOL    MW432740   0.855   3.391   1.775  0.4112 -0.8020 -0.2424
 8244SOL     OW32741   4.735   4.379   2.177 -0.3139 -0.8547 -0.4253
 8244SOL    HW232742   4.681   4.394   2.099  0.4457  0.4775 -0.7344
 8244SOL    HW332743   4.727   4.460   2.228  1.0702 -0.7737 -0.2978
 8244SOL    MW432744   4.727   4.392   2.173  0.5690  0.1130 -0.1664
 8245SOL     OW32745   4.134   4.578   0.205 -0.3591  0.0541 -0.0491
 8245SOL    HW232746   4.063   4.515   0.188 -0.8202  0.1345  1.4228
 8245SOL    HW332747   4.135   4.634   0.128 -1.4719 -0.3503 -0.3820
 8245SOL    MW432748   4.125   4.577   0.192  0.2591  0.0869  0.0620
 8246SOL     OW32749   1.926   3.901   5.970 -1.1521 -0.4296  0.7166
 8246SOL    HW232750   1.841   3.858   5.956 -1.5616  0.6816 -0.3909
 8246SOL    HW332751   1.975   3.883   5.889 -0.2553 -1.1694  1.3950
 8246SOL    MW432752   1.921   3.893   5.957 -0.0276  0.1864 -0.4788
 8247SOL     OW32753   5.455   1.850   1.483  0.3540  0.4887 -0.3174
 8247SOL    HW232754   5.431   1.836   1.574  3.6475 -0.6011  0.5207
 8247SOL    HW332755   5.529   1.910   1.487  1.4679 -0.6771 -2.1337
 8247SOL    MW432756   5.461   1.856   1.496  0.6222 -0.0215 -0.2762
 8248SOL     OW32757   5.441   5.394   4.811 -0.0842 -0.1585 -0.3757
 8248SOL    HW232758   5.432   5.397   4.906  1.7682 -1.4461 -0.1122
 8248SOL    HW332759   5.520   5.444   4.792  1.0774 -2.0966 -0.9319
 8248SOL    MW432760   5.450   5.401   4.821  0.1012  0.3366 -0.2881
 8249SOL     OW32761   2.546   2.597   3.387  0.0284  0.1215  0.4652
 8249SOL    HW232762   2.569   2.685   3.356  1.8132 -0.1440  0.9579
 8249SOL    HW332763   2.574   2.539   3.316 -2.0615 -0.0376 -0.3119
 8249SOL    MW432764   2.553   2.601   3.373 -0.4112 -0.3435  0.3271
 8250SOL     OW32765   1.482   4.432   1.790  0.3717 -0.2303 -0.0897
 8250SOL    HW232766   1.388   4.424   1.808  0.6263 -1.2361  0.9228
 8250SOL    HW332767   1.522   4.358   1.835  1.5611 -0.4067 -1.3565
 8250SOL    MW432768   1.475   4.421   1.799  0.2388 -1.0634 -0.0138
 8251SOL     OW32769   5.147   4.579   0.768  0.1240 -0.0035 -0.1132
 8251SOL    HW232770   5.233   4.617   0.749  0.9603 -1.4204  0.6651
 8251SOL    HW332771   5.147   4.566   0.863 -1.4477  1.0680  0.0753
 8251SOL    MW432772   5.159   4.582   0.778 -1.2136 -0.0283 -0.0927
 8252SOL     OW32773   0.194   4.972   3.244 -0.0854  0.3945  0.5037
 8252SOL    HW232774   0.136   5.047   3.245  0.7403  1.0622  0.0397
 8252SOL    HW332775   0.254   4.986   3.317 -1.1310 -0.8230  1.6368
 8252SOL    MW432776   0.194   4.984   3.253  0.2895 -0.0153 -0.3568
 8253SOL     OW32777   1.718   1.763   5.055 -0.4371 -0.1250 -0.6250
 8253SOL    HW232778   1.718   1.749   4.960  0.3569  0.6954 -0.7572
 8253SOL    HW332779   1.808   1.790   5.075 -0.6904  0.0457  0.3047
 8253SOL    MW432780   1.730   1.765   5.045 -0.0982  0.0649 -0.8309
 8254SOL     OW32781   0.716   0.736   2.633 -0.4834  0.2326  0.1853
 8254SOL    HW232782   0.715   0.831   2.641 -0.3639  0.1271  1.8900
 8254SOL    HW332783   0.795   0.709   2.680 -0.9543 -0.7519  0.4311
 8254SOL    MW432784   0.726   0.745   2.641  0.3006 -0.4638  0.2200
 8255SOL     OW32785   1.831   2.171   3.422  0.5776 -0.3709  0.0200
 8255SOL    HW232786   1.741   2.148   3.445 -0.1732  1.3854 -0.9871
 8255SOL    HW332787   1.823   2.230   3.347  2.5893 -0.4084 -0.2886
 8255SOL    MW432788   1.818   2.176   3.415 -0.2903  0.2619 -0.1888
 8256SOL     OW32789   1.714   1.676   2.535 -0.2825  0.3013 -0.2429
 8256SOL    HW232790   1.771   1.749   2.562  0.0515  0.5093 -1.4327
 8256SOL    HW332791   1.634   1.718   2.503 -1.2457 -0.0007  1.6419
 8256SOL    MW432792   1.711   1.691   2.534 -0.0605  0.0542 -0.0218
 8257SOL     OW32793   3.193   1.247   3.734 -0.0790  0.4933  0.2953
 8257SOL    HW232794   3.252   1.299   3.680 -0.3625 -0.2035 -0.7149
 8257SOL    HW332795   3.205   1.282   3.823 -0.1979  2.1982 -0.3207
 8257SOL    MW432796   3.202   1.258   3.739  0.7673  0.6030  0.0324
 8258SOL     OW32797   0.742   3.746   5.308  0.3900  0.4046  0.3435
 8258SOL    HW232798   0.834   3.759   5.331  0.5025  0.3586 -0.0557
 8258SOL    HW332799   0.693   3.800   5.369  0.6990  0.6278  0.3968
 8258SOL    MW432800   0.748   3.755   5.319 -0.2782  0.0267 -0.1650
 8259SOL     OW32801   5.148   5.968   4.669  0.5796 -0.0355 -0.0691
 8259SOL    HW232802   5.223   5.911   4.686  0.0515 -0.5698  0.5744
 8259SOL    HW332803   5.073   5.918   4.701  0.1684  1.3262  1.2192
 8259SOL    MW432804   5.148   5.954   4.676 -0.1131  0.1350 -0.1784
 8260SOL     OW32805   4.766   0.040   3.720  0.2483  0.2782  0.1543
 8260SOL    HW232806   4.795   0.106   3.784  0.6267  0.3147 -0.0565
 8260SOL    HW332807   4.801   0.071   3.637  1.7231 -0.9816  0.2720
 8260SOL    MW432808   4.774   0.053   3.718 -0.3507 -0.1122  0.0667
 8261SOL     OW32809   5.848   0.928   2.270 -0.0638  0.1954 -0.5465
 8261SOL    HW232810   5.774   0.867   2.268 -0.9420  1.2256 -0.2061
 8261SOL    HW332811   5.827   0.988   2.341  1.3561  0.2171 -0.1294
 8261SOL    MW432812   5.835   0.928   2.279 -0.3604  0.1726 -0.0013
 8262SOL     OW32813   0.898   4.394   0.998  0.4679 -0.1604  0.8525
 8262SOL    HW232814   0.942   4.358   0.922  1.2738  0.8623  0.8153
 8262SOL    HW332815   0.935   4.482   1.008  0.1960 -0.1846  2.2686
 8262SOL    MW432816   0.909   4.401   0.989 -0.1151 -0.2980 -0.1724
 8263SOL     OW32817   1.478   2.103   5.941 -0.0405 -0.0193  0.3536
 8263SOL    HW232818   1.454   2.147   6.022  1.5172 -0.8057  1.2833
 8263SOL    HW332819   1.396   2.096   5.892 -0.9526  0.7282  1.7191
 8263SOL    MW432820   1.464   2.108   5.945 -0.2951  0.6357  0.0639
 8264SOL     OW32821   0.442   2.911   3.885 -0.0933 -0.4323  0.0719
 8264SOL    HW232822   0.394   2.848   3.832  1.8511  0.0075 -2.4270
 8264SOL    HW332823   0.485   2.858   3.953 -1.1459 -1.2827  0.1003
 8264SOL    MW432824   0.441   2.896   3.887  0.2778 -0.3477  0.1402
 8265SOL     OW32825   0.838   0.519   1.497  0.0709  0.4872 -0.9480
 8265SOL    HW232826   0.888   0.596   1.471 -0.7516  1.0250 -0.9431
 8265SOL    HW332827   0.903   0.449   1.500  1.4650  1.7184  1.9155
 8265SOL    MW432828   0.853   0.520   1.494  0.0989  0.8787  0.2918
 8266SOL     OW32829   5.027   5.151   0.031  0.0730  0.1731 -0.2775
 8266SOL    HW232830   5.001   5.173   0.120  1.6629 -1.6224  0.7265
 8266SOL    HW332831   4.992   5.063   0.017  0.4121  0.1700 -1.1623
 8266SOL    MW432832   5.019   5.142   0.041 -0.5209 -0.8398 -0.1057
 8267SOL     OW32833   6.019   5.142   0.773 -0.3639 -0.1050  0.1006
 8267SOL    HW232834   5.972   5.070   0.814 -0.4675  0.3103  0.7260
 8267SOL    HW332835   6.111   5.129   0.799  0.3629 -2.2902 -3.0696
 8267SOL    MW432836   6.025   5.131   0.782  0.2764  0.2247 -0.3451
 8268SOL     OW32837   1.983   3.488   3.737  0.3951  0.1862  0.2701
 8268SOL    HW232838   1.942   3.407   3.766  0.7597  0.3710  1.3418
 8268SOL    HW332839   2.020   3.526   3.816 -0.0413  1.5626 -0.1498
 8268SOL    MW432840   1.982   3.483   3.751  0.2086  0.1349 -0.2429
 8269SOL     OW32841   5.083   3.899   4.127 -0.6656 -0.4460 -0.1940
 8269SOL    HW232842   5.172   3.867   4.114  0.6686  3.5231 -2.7111
 8269SOL    HW332843   5.088   3.953   4.206 -0.8125 -0.1464 -0.3896
 8269SOL    MW432844   5.095   3.902   4.136 -0.0430  0.1464 -0.3538
 8270SOL     OW32845   3.545   2.201   0.845 -0.3988 -0.0915 -0.2147
 8270SOL    HW232846   3.625   2.188   0.897 -1.2189  0.2694  1.2076
 8270SOL    HW332847   3.554   2.290   0.810 -0.1480 -0.0758 -0.1142
 8270SOL    MW432848   3.557   2.211   0.848  0.5377  0.5966 -0.2128
 8271SOL     OW32849   0.790   0.676   3.768  0.2645 -0.0772 -0.5398
 8271SOL    HW232850   0.713   0.731   3.781 -0.2016 -0.7217 -0.5755
 8271SOL    HW332851   0.773   0.598   3.820  0.0409 -1.0672 -2.0516
 8271SOL    MW432852   0.778   0.673   3.777  0.0444  0.4232  0.9021
 8272SOL     OW32853   4.062   1.971   3.553 -0.7297  0.0242  0.3402
 8272SOL    HW232854   4.087   2.062   3.570 -1.0699 -0.0082  1.0289
 8272SOL    HW332855   4.145   1.928   3.531 -0.7229  0.7353 -1.1152
 8272SOL    MW432856   4.077   1.978   3.552  0.2262 -0.1992  0.7730
 8273SOL     OW32857   2.645   4.611   2.647 -0.2925 -0.1614 -0.5749
 8273SOL    HW232858   2.686   4.552   2.710  0.4576 -0.0379 -0.9468
 8273SOL    HW332859   2.698   4.603   2.568 -1.1939 -0.2696 -1.1841
 8273SOL    MW432860   2.657   4.602   2.645 -0.2456 -0.2649 -0.0052
 8274SOL     OW32861   3.660   1.956   1.312  0.0633 -0.1918  0.2552
 8274SOL    HW232862   3.754   1.957   1.330  0.0012 -0.6572  0.6325
 8274SOL    HW332863   3.632   1.867   1.334 -0.4191 -0.1296 -0.0954
 8274SOL    MW432864   3.668   1.944   1.317  0.3406  0.1691  0.3638
 8275SOL     OW32865   2.517   1.523   3.957 -0.4760  0.0926 -0.2424
 8275SOL    HW232866   2.588   1.460   3.946  0.5843  1.1303  0.3965
 8275SOL    HW332867   2.489   1.543   3.868  1.1787  0.8971 -0.6314
 8275SOL    MW432868   2.523   1.517   3.944 -0.1794  0.2330  0.2977
 8276SOL     OW32869   6.223   6.070   3.606  0.4059 -0.4793 -0.3789
 8276SOL    HW232870   6.169   6.069   3.527 -0.5318 -0.2776  0.2353
 8276SOL    HW332871   6.244   6.162   3.620 -0.9908 -0.2637  0.5958
 8276SOL    MW432872   6.218   6.082   3.597 -0.5599  0.4973 -1.0000
 8277SOL     OW32873   1.467   2.517   5.225 -0.8679 -0.0127 -0.2554
 8277SOL    HW232874   1.505   2.482   5.144 -0.1096 -1.8798  0.8675
 8277SOL    HW332875   1.486   2.452   5.292 -3.2412  0.5189  1.0628
 8277SOL    MW432876   1.475   2.504   5.223 -0.1072  0.0972  0.0210
 8278SOL     OW32877   2.754   1.435   4.199 -0.3800 -0.0140  0.1586
 8278SOL    HW232878   2.806   1.364   4.160 -1.5106 -0.3834 -0.7416
 8278SOL    HW332879   2.787   1.515   4.157 -0.6639 -0.2650 -0.5532
 8278SOL    MW432880   2.765   1.436   4.188  0.7647 -0.1393  0.4139
 8279SOL     OW32881   2.191   0.228   3.416 -0.5221 -0.1713 -0.4175
 8279SOL    HW232882   2.157   0.138   3.412  1.3147 -0.9478  0.0209
 8279SOL    HW332883   2.254   0.233   3.344  0.2027  0.3849  0.2373
 8279SOL    MW432884   2.195   0.216   3.406 -0.2600  0.1057  0.2073
 8280SOL     OW32885   2.072   3.819   4.439  0.2245 -0.4782 -0.0429
 8280SOL    HW232886   2.069   3.811   4.534 -1.4742 -0.1690 -0.0527
 8280SOL    HW332887   2.120   3.741   4.410  1.4533 -0.1675  1.0918
 8280SOL    MW432888   2.078   3.808   4.448  0.6867  0.2431  0.5976
 8281SOL     OW32889   1.667   3.768   5.965 -0.1474  0.6038 -0.2760
 8281SOL    HW232890   1.704   3.710   5.898 -0.9021 -0.6235  0.3556
 8281SOL    HW332891   1.633   3.842   5.915  0.6273  0.4164 -1.1124
 8281SOL    MW432892   1.668   3.770   5.949  1.0753  0.1254 -0.1984
 8282SOL     OW32893   4.396   3.761   4.983 -0.1362  0.1694  0.7399
 8282SOL    HW232894   4.363   3.851   4.979  1.6940  0.8763  0.7201
 8282SOL    HW332895   4.439   3.747   4.899 -0.8737 -0.9456  0.5242
 8282SOL    MW432896   4.397   3.771   4.972 -0.1886 -0.6329 -0.2060
 8283SOL     OW32897   2.735   4.079   1.748  0.3259  0.3321 -0.2343
 8283SOL    HW232898   2.707   4.169   1.733 -1.8260 -0.0862  0.9966
 8283SOL    HW332899   2.675   4.045   1.813  0.3914 -2.3485 -1.4455
 8283SOL    MW432900   2.724   4.086   1.754  0.2724 -0.5503  1.0872
 8284SOL     OW32901   0.747   1.987   4.765 -0.9712 -0.4526  0.2718
 8284SOL    HW232902   0.742   1.985   4.669 -0.0096 -2.0845  0.2029
 8284SOL    HW332903   0.668   1.941   4.794 -0.2839 -1.7620  0.1572
 8284SOL    MW432904   0.736   1.980   4.756  0.1970  0.1396 -0.2265
 8285SOL     OW32905   1.838   2.835   5.178  0.1574 -0.3545 -0.4751
 8285SOL    HW232906   1.749   2.808   5.200  0.3214  0.1965  0.9997
 8285SOL    HW332907   1.886   2.826   5.261  1.3501 -0.1433 -1.1257
 8285SOL    MW432908   1.833   2.830   5.192  0.0929 -0.1952 -0.2984
 8286SOL     OW32909   6.276   6.214   5.043  0.1119  0.5442  0.1782
 8286SOL    HW232910   6.186   6.208   5.074 -0.0655  1.6744 -0.0674
 8286SOL    HW332911   6.282   6.148   4.973 -1.1555  1.8453 -1.2257
 8286SOL    MW432912   6.265   6.204   5.038  0.2274  0.4960  0.2427
 8287SOL     OW32913   2.909   2.736   5.456 -0.3105 -0.1401  0.4490
 8287SOL    HW232914   2.929   2.643   5.444 -0.9486 -0.1736 -0.4566
 8287SOL    HW332915   2.994   2.778   5.469  0.3665 -0.3495 -2.6559
 8287SOL    MW432916   2.923   2.729   5.456 -0.8899 -0.5079 -0.1966
 8288SOL     OW32917   5.109   5.560   3.384  0.7597 -0.5851  0.3199
 8288SOL    HW232918   5.189   5.572   3.332 -0.1974 -0.3220 -1.1621
 8288SOL    HW332919   5.048   5.517   3.323 -0.0994 -1.1605  1.5550
 8288SOL    MW432920   5.111   5.556   3.369 -0.1327 -0.1583 -0.8665
 8289SOL     OW32921   0.073   0.258   4.099 -0.3476  0.3756 -0.5847
 8289SOL    HW232922   0.157   0.304   4.104 -0.3869  0.3172  2.0435
 8289SOL    HW332923   0.025   0.288   4.177 -1.9373 -1.1595 -0.9179
 8289SOL    MW432924   0.078   0.268   4.110  0.1839 -0.4336 -0.7773
 8290SOL     OW32925   4.004   1.398   4.595 -0.0690  0.1009 -0.4211
 8290SOL    HW232926   4.052   1.466   4.548 -1.6973  1.1708 -0.5898
 8290SOL    HW332927   4.072   1.337   4.625  1.3206  1.2514 -1.1384
 8290SOL    MW432928   4.019   1.399   4.593 -0.3048 -0.0208 -0.2096
 8291SOL     OW32929   5.406   1.580   0.061  0.0061 -0.3557  0.1286
 8291SOL    HW232930   5.427   1.592   0.153  0.2277  0.5649 -0.0296
 8291SOL    HW332931   5.464   1.510   0.031  1.8810  1.1613  0.0491
 8291SOL    MW432932   5.416   1.572   0.069 -0.0601  0.5865 -0.3565
 8292SOL     OW32933   0.630   0.028   1.483  0.8341  0.0190 -0.5415
 8292SOL    HW232934   0.664  -0.056   1.513  1.8834  1.1886  1.8498
 8292SOL    HW332935   0.539   0.030   1.514  0.4472 -0.6258 -1.5685
 8292SOL    MW432936   0.622   0.017   1.491 -0.3857 -0.1672  0.4873
 8293SOL     OW32937   4.751   2.292   4.268  0.2513  0.5437 -0.0692
 8293SOL    HW232938   4.775   2.270   4.178 -0.1132 -0.3159  0.0307
 8293SOL    HW332939   4.808   2.237   4.322  1.4432  2.0500  0.2812
 8293SOL    MW432940   4.762   2.282   4.263  0.3028 -0.2542  0.2536
 8294SOL     OW32941   1.574   3.069   0.177  0.2668  0.3313  0.1641
 8294SOL    HW232942   1.520   3.077   0.256 -0.5779  2.0197 -0.5325
 8294SOL    HW332943   1.640   3.139   0.186 -0.2516  0.9846 -0.9073
 8294SOL    MW432944   1.576   3.080   0.189 -0.0841 -0.4015  0.2386
 8295SOL     OW32945   4.045   1.690   3.234  0.2772  0.1500  0.3920
 8295SOL    HW232946   4.138   1.708   3.216  0.6508 -0.8293  1.2316
 8295SOL    HW332947   4.010   1.661   3.149  0.6621  0.7862  0.0045
 8295SOL    MW432948   4.053   1.688   3.220 -0.3475 -0.4839  0.0411
 8296SOL     OW32949   0.396   0.419   3.992 -0.2027 -0.0229 -0.5330
 8296SOL    HW232950   0.367   0.431   4.082  0.0248  0.6502 -0.5424
 8296SOL    HW332951   0.397   0.324   3.979 -0.9870 -0.1034 -0.0753
 8296SOL    MW432952   0.392   0.408   4.002 -0.1423 -0.4400  0.4619
 8297SOL     OW32953   4.873   0.551   5.538 -0.1341 -0.7692 -0.3555
 8297SOL    HW232954   4.812   0.591   5.477 -0.5374 -0.0753  0.4718
 8297SOL    HW332955   4.940   0.511   5.483 -1.0157 -1.0216 -1.2588
 8297SOL    MW432956   4.874   0.551   5.523  0.0946  0.5523 -0.7400
 8298SOL     OW32957   5.906   1.340   2.704  0.4814  0.0292  0.3905
 8298SOL    HW232958   5.962   1.286   2.759  0.1872  0.6518  1.3223
 8298SOL    HW332959   5.917   1.429   2.739 -2.3160 -0.0266  1.6800
 8298SOL    MW432960   5.915   1.345   2.716  0.3045 -0.0812  0.0742
 8299SOL     OW32961   2.462   5.589   1.908 -0.3510 -0.3078  0.5536
 8299SOL    HW232962   2.509   5.508   1.890  0.0382 -0.3799  1.8065
 8299SOL    HW332963   2.384   5.585   1.853 -0.5335 -1.7073  0.8811
 8299SOL    MW432964   2.458   5.578   1.899  0.5465 -0.7972  0.1143
 8300SOL     OW32965   0.973   1.615   6.000  0.1550  0.3145 -0.3638
 8300SOL    HW232966   0.970   1.707   6.025 -0.0612  0.2772 -0.2445
 8300SOL    HW332967   1.062   1.586   6.019  0.7832  0.9742 -2.1007
 8300SOL    MW432968   0.984   1.623   6.006  0.0398  0.5312 -0.0713
 8301SOL     OW32969   4.301   3.351   1.273 -0.2428 -0.6626 -0.0243
 8301SOL    HW232970   4.209   3.325   1.261 -0.7533  1.3487 -0.9738
 8301SOL    HW332971   4.338   3.347   1.184 -0.0011  0.4940  0.0104
 8301SOL    MW432972   4.293   3.347   1.259  0.1247  0.1489 -0.4469
 8302SOL     OW32973   3.041   4.447   5.301 -0.1020  0.5704  0.1253
 8302SOL    HW232974   2.983   4.419   5.231 -1.0743  1.1052  0.7046
 8302SOL    HW332975   3.006   4.406   5.380  1.6290 -0.9419  0.1800
 8302SOL    MW432976   3.029   4.438   5.302 -0.3399  0.2805  0.1232
 8303SOL     OW32977   1.671   0.379   2.070  0.0591  0.5190  0.3181
 8303SOL    HW232978   1.624   0.454   2.107  0.6636  0.7951  0.5396
 8303SOL    HW332979   1.603   0.325   2.032 -0.2746  1.8548 -1.0622
 8303SOL    MW432980   1.656   0.382   2.070 -0.0106 -0.2415  0.7271
 8304SOL     OW32981   1.271   6.099   4.282 -0.5292  0.9245  0.6846
 8304SOL    HW232982   1.200   6.034   4.275  0.4679 -0.1819  0.5588
 8304SOL    HW332983   1.322   6.086   4.203 -1.0155  2.7651  0.0261
 8304SOL    MW432984   1.268   6.088   4.271 -0.4497  0.2942  0.0089
 8305SOL     OW32985   4.985   3.132   5.953 -0.1181  0.0793  0.0634
 8305SOL    HW232986   4.896   3.107   5.928 -0.6086  0.9255  0.9177
 8305SOL    HW332987   5.012   3.067   6.018  0.9902 -1.8594 -2.1767
 8305SOL    MW432988   4.977   3.120   5.958 -0.2296 -0.0960  0.0731
 8306SOL     OW32989   5.795   3.642   4.391  0.1373 -0.3599 -0.5649
 8306SOL    HW232990   5.861   3.574   4.391  0.7315  0.1963  0.4645
 8306SOL    HW332991   5.838   3.718   4.352 -0.6031 -0.6110 -1.9564
 8306SOL    MW432992   5.809   3.643   4.386 -0.5162 -0.5925  0.5012
 8307SOL     OW32993   5.798   3.135   6.111  0.6612 -0.7633 -0.3357
 8307SOL    HW232994   5.716   3.088   6.123 -0.6647  1.0767 -1.5472
 8307SOL    HW332995   5.829   3.153   6.200 -2.0427  1.3529  0.3205
 8307SOL    MW432996   5.792   3.131   6.124 -0.1110  0.1784  0.4263
 8308SOL     OW32997   0.980   5.464   2.390 -0.2622 -0.6321 -0.2285
 8308SOL    HW232998   0.900   5.445   2.440 -0.3992  0.4244 -0.0187
 8308SOL    HW332999   0.962   5.431   2.302 -1.1018 -0.0066 -0.2966
 8308SOL    MW433000   0.967   5.457   2.385 -0.1147 -0.3211  0.0080
 8309SOL     OW33001   1.197   6.198   5.820 -0.0835  0.4000 -0.3841
 8309SOL    HW233002   1.289   6.224   5.820  0.1081 -0.2392  0.0611
 8309SOL    HW333003   1.149   6.279   5.805  0.5305  0.8299 -0.0851
 8309SOL    MW433004   1.203   6.212   5.818 -0.0108  0.3672 -0.1469
 8310SOL     OW33005   0.572   4.870   0.030 -0.2625  0.2578 -0.2413
 8310SOL    HW233006   0.648   4.823   0.065  0.6557  0.7795 -1.4288
 8310SOL    HW333007   0.509   4.801   0.010 -0.1687 -0.1763  0.9101
 8310SOL    MW433008   0.574   4.855   0.032  0.3930  0.1060  0.4803
 8311SOL     OW33009   5.179   0.325   1.178 -0.1348 -0.1023 -0.2159
 8311SOL    HW233010   5.118   0.284   1.117 -0.6903  1.0834 -0.4794
 8311SOL    HW333011   5.171   0.274   1.258 -1.8718  0.3325 -0.0743
 8311SOL    MW433012   5.170   0.313   1.180  0.0692 -0.0542  0.0189
 8312SOL     OW33013   3.372   5.350   1.000  0.3284  0.0357 -0.1410
 8312SOL    HW233014   3.304   5.413   0.978 -0.3175 -0.9771 -1.1769
 8312SOL    HW333015   3.451   5.383   0.956  0.3119  0.7850  0.3875
 8312SOL    MW433016   3.374   5.363   0.991 -0.6814 -0.5796 -0.9818
 8313SOL     OW33017   0.436   5.350   4.768  0.3865  0.0252  0.5044
 8313SOL    HW233018   0.390   5.328   4.686  2.5910  1.2716 -1.1805
 8313SOL    HW333019   0.413   5.279   4.828 -1.4167 -0.8897 -1.1385
 8313SOL    MW433020   0.427   5.338   4.765  0.0567 -0.1412 -0.4465
 8314SOL     OW33021   1.095   6.320   4.127  0.0015  0.0278  0.3018
 8314SOL    HW233022   1.172   6.310   4.070  0.1359  0.6595  0.3654
 8314SOL    HW333023   1.070   6.412   4.118 -2.0560 -0.6158 -1.3696
 8314SOL    MW433024   1.102   6.331   4.118 -0.7667 -0.6147 -0.1167
 8315SOL     OW33025   3.542   5.682   1.091  0.3430  0.0394  0.6151
 8315SOL    HW233026   3.490   5.668   1.170  0.7722  0.4178  0.9746
 8315SOL    HW333027   3.567   5.774   1.095 -0.9068  0.4719 -0.7526
 8315SOL    MW433028   3.538   5.692   1.102 -0.1232 -0.1650  0.3742
 8316SOL     OW33029   0.086   1.291   5.778  0.3450 -0.1408 -0.6080
 8316SOL    HW233030   0.157   1.293   5.841  0.6266  0.6596 -0.9284
 8316SOL    HW333031   0.088   1.378   5.737 -1.6887  0.4151  0.3411
 8316SOL    MW433032   0.096   1.303   5.781  0.4492  0.7775 -0.2629
 8317SOL     OW33033   2.292   2.705   1.304 -0.7183  0.1380  0.3514
 8317SOL    HW233034   2.330   2.746   1.226  0.1230 -0.8227  0.2400
 8317SOL    HW333035   2.366   2.691   1.363 -0.4823 -3.3856 -0.5687
 8317SOL    MW433036   2.306   2.709   1.302 -0.2348 -0.6542  0.8238
 8318SOL     OW33037   2.368   6.140   6.392 -0.1235 -0.2128 -0.1982
 8318SOL    HW233038   2.442   6.197   6.415  0.0956 -0.0671 -1.2420
 8318SOL    HW333039   2.295   6.174   6.443 -0.7678  2.8969 -2.8754
 8318SOL    MW433040   2.368   6.152   6.402 -0.4671 -0.2686 -0.0290
 8319SOL     OW33041   4.793   5.070   0.449  0.6716  0.1705 -0.5295
 8319SOL    HW233042   4.703   5.041   0.462  0.8578  0.4495  1.8142
 8319SOL    HW333043   4.829   5.077   0.537  2.8037  0.6953 -1.3779
 8319SOL    MW433044   4.786   5.067   0.462  0.6049 -0.3781 -0.4284
 8320SOL     OW33045   4.092   3.267   1.830 -0.1342  0.5929  0.1440
 8320SOL    HW233046   4.003   3.237   1.815  0.2572  0.3596 -2.0414
 8320SOL    HW333047   4.143   3.186   1.837 -0.0365  0.7286  1.0565
 8320SOL    MW433048   4.087   3.252   1.829  0.3444 -0.2813 -0.8237
 8321SOL     OW33049   3.766   0.573   2.023  0.6318 -0.1802  0.1219
 8321SOL    HW233050   3.798   0.611   1.942 -1.4450  0.6879 -0.3548
 8321SOL    HW333051   3.802   0.485   2.024  1.4731  0.1183 -1.2572
 8321SOL    MW433052   3.775   0.566   2.013 -0.1623 -0.0010 -0.0031
 8322SOL     OW33053   1.348   4.452   4.938 -0.6510  0.4490  0.3817
 8322SOL    HW233054   1.306   4.379   4.893  2.3365 -1.7243  0.7988
 8322SOL    HW333055   1.324   4.442   5.030  1.9243 -1.8580  0.9176
 8322SOL    MW433056   1.339   4.441   4.944  0.0175 -0.4782  0.0792
 8323SOL     OW33057   4.483   5.615   1.359  0.3542 -1.1124  0.3737
 8323SOL    HW233058   4.506   5.706   1.342 -1.6406 -0.8180 -0.9870
 8323SOL    HW333059   4.541   5.565   1.302 -1.0704 -0.4657 -1.7649
 8323SOL    MW433060   4.494   5.621   1.349 -0.0880  0.3379  0.4676
 8324SOL     OW33061   2.965   1.546   6.303  0.2014  0.3641 -0.0341
 8324SOL    HW233062   2.954   1.495   6.383 -0.8253  0.5797 -0.0148
 8324SOL    HW333063   3.015   1.489   6.245  1.6513  0.4990  1.0128
 8324SOL    MW433064   2.970   1.532   6.306  0.1973 -0.0469  0.2732
 8325SOL     OW33065   0.110   3.778   4.994 -0.0436  0.0217 -0.2333
 8325SOL    HW233066   0.020   3.766   4.965 -0.4418  0.9477  0.5672
 8325SOL    HW333067   0.128   3.871   4.978  0.8717 -0.2150 -0.6546
 8325SOL    MW433068   0.101   3.788   4.988 -0.2639 -0.1959  0.3977
 8326SOL     OW33069   5.140   1.113   6.123 -0.4613 -0.0320  0.3285
 8326SOL    HW233070   5.076   1.184   6.130  1.2137  1.6371 -0.3366
 8326SOL    HW333071   5.108   1.060   6.050 -0.9568  0.9364 -0.1808
 8326SOL    MW433072   5.127   1.116   6.114  0.0343 -0.3719  0.3351
 8327SOL     OW33073   4.439   5.757   3.029 -0.6384 -0.1169  0.1934
 8327SOL    HW233074   4.470   5.726   3.114  0.5281 -0.1523 -0.2153
 8327SOL    HW333075   4.518   5.788   2.985 -1.4556  1.3698 -0.2810
 8327SOL    MW433076   4.454   5.757   3.034 -0.2985  0.6182 -0.9678
 8328SOL     OW33077   1.591   1.806   2.793 -0.4911  0.0142 -0.0107
 8328SOL    HW233078   1.657   1.876   2.795 -0.7233  0.3483 -2.1350
 8328SOL    HW333079   1.642   1.726   2.784 -0.2759 -0.0294  1.3525
 8328SOL    MW433080   1.606   1.805   2.792  0.1198  0.7444 -0.4578
 8329SOL     OW33081   1.638   6.308   3.311  0.3886 -0.6199 -0.0113
 8329SOL    HW233082   1.570   6.375   3.300  0.0479 -0.4701  2.4380
 8329SOL    HW333083   1.716   6.358   3.336  0.3205 -1.0527  1.1166
 8329SOL    MW433084   1.639   6.323   3.313 -0.5487 -0.2879 -0.5111
 8330SOL     OW33085   3.160   5.753   0.377  0.1695  0.4037  0.3641
 8330SOL    HW233086   3.252   5.776   0.363  0.3520  0.7259  1.8766
 8330SOL    HW333087   3.161   5.657   0.386  0.5737  0.5089  1.6511
 8330SOL    MW433088   3.173   5.743   0.376  0.2828  0.2677  0.3032
 8331SOL     OW33089   4.882   5.883   0.044  0.3833  0.3327  0.1304
 8331SOL    HW233090   4.928   5.916  -0.033  1.1356 -1.8056 -0.4082
 8331SOL    HW333091   4.803   5.843   0.010 -0.1656  0.9303  0.6785
 8331SOL    MW433092   4.878   5.882   0.030 -0.0299  0.2093 -0.7364
 8332SOL     OW33093   5.361   0.667   2.127  0.3431  0.2979  0.7329
 8332SOL    HW233094   5.439   0.612   2.139  0.8153  0.7304 -0.1731
 8332SOL    HW333095   5.396   0.753   2.105 -0.3970  0.7906  1.4325
 8332SOL    MW433096   5.376   0.671   2.125  0.8179 -1.2550 -0.2610
 8333SOL     OW33097   0.353   1.221   3.348 -0.2051 -0.7947 -0.1463
 8333SOL    HW233098   0.332   1.142   3.399  1.4882 -0.4663  1.1332
 8333SOL    HW333099   0.402   1.187   3.273 -2.0803 -1.2071 -1.2537
 8333SOL    MW433100   0.356   1.206   3.345 -0.3519  0.1386 -0.2719
 8334SOL     OW33101   2.387   3.704   6.143  0.1395 -0.1943 -0.5370
 8334SOL    HW233102   2.389   3.626   6.087  1.8628 -0.2930 -0.3978
 8334SOL    HW333103   2.389   3.669   6.232 -2.0610 -0.0231 -0.3685
 8334SOL    MW433104   2.388   3.689   6.147 -0.1652  0.1308  0.1318
 8335SOL     OW33105   4.591   0.174   5.019 -0.3494 -0.1971 -0.5659
 8335SOL    HW233106   4.653   0.198   5.089  0.3305 -0.0404 -1.2090
 8335SOL    HW333107   4.571   0.256   4.975 -1.2575 -0.2017 -0.1840
 8335SOL    MW433108   4.597   0.188   5.023 -0.5839  0.2191  1.0200
 8336SOL     OW33109   1.803   2.967   2.070 -0.3313 -0.4672  0.0823
 8336SOL    HW233110   1.827   2.926   2.153  0.7140  0.3773  0.2232
 8336SOL    HW333111   1.756   2.899   2.022 -2.4982 -0.4657  2.0166
 8336SOL    MW433112   1.800   2.953   2.074  0.2088 -0.3353 -0.1732
 8337SOL     OW33113   6.125   2.843   2.398  0.2154  0.7485  0.2118
 8337SOL    HW233114   6.169   2.870   2.479  0.8076  0.6634 -0.0798
 8337SOL    HW333115   6.183   2.874   2.328  0.5932 -0.7021 -0.1531
 8337SOL    MW433116   6.139   2.851   2.400 -0.3469 -0.1898 -0.1058
 8338SOL     OW33117   6.021   5.962   3.777  0.1439 -0.0244 -0.2205
 8338SOL    HW233118   6.068   6.027   3.725 -0.1799 -0.1725 -0.7055
 8338SOL    HW333119   6.016   6.000   3.864 -0.4902  0.8288 -0.6239
 8338SOL    MW433120   6.027   5.976   3.781  0.1931  0.4118  0.1814
 8339SOL     OW33121   2.879   4.977   2.706  0.0678 -0.3505 -0.1852
 8339SOL    HW233122   2.819   5.021   2.767  1.2000 -0.5769  1.1417
 8339SOL    HW333123   2.880   4.886   2.734 -0.0303 -0.6413 -1.0854
 8339SOL    MW433124   2.871   4.971   2.718  0.1120  0.1092 -0.0820
 8340SOL     OW33125   2.477   3.415   3.044  0.2368  0.4713  0.5568
 8340SOL    HW233126   2.548   3.352   3.061  0.8404  1.0384  0.1902
 8340SOL    HW333127   2.426   3.416   3.125  0.1847 -0.5204  0.5574
 8340SOL    MW433128   2.480   3.407   3.057  0.0010 -0.7328 -0.1321
 8341SOL     OW33129   2.944   2.227   2.400 -0.4679  0.1267 -0.1990
 8341SOL    HW233130   2.998   2.158   2.362  0.1155  0.7952 -0.6024
 8341SOL    HW333131   2.854   2.201   2.379 -0.1674  0.5813 -2.2865
 8341SOL    MW433132   2.939   2.215   2.392  0.0019 -0.2072 -0.3205
 8342SOL     OW33133   1.864   3.504   3.270 -0.1866 -0.4699 -0.4998
 8342SOL    HW233134   1.803   3.464   3.208  0.0970 -1.2951 -0.2598
 8342SOL    HW333135   1.934   3.540   3.215  0.5320 -2.0016 -0.6267
 8342SOL    MW433136   1.865   3.503   3.255 -0.3077 -0.4413  0.2769
 8343SOL     OW33137   0.673   1.368   5.498 -0.2500  0.5306 -0.1937
 8343SOL    HW233138   0.669   1.352   5.404  1.4899 -0.4214 -0.1471
 8343SOL    HW333139   0.732   1.300   5.531 -0.8885  0.8079  1.6004
 8343SOL    MW433140   0.680   1.357   5.490  0.1863 -0.0315 -0.4137
 8344SOL     OW33141   4.988   3.787   5.794 -0.3411 -0.4618 -0.0080
 8344SOL    HW233142   5.073   3.799   5.752 -1.1799 -1.0410 -2.0021
 8344SOL    HW333143   5.003   3.722   5.862  0.7564 -0.8418 -0.5940
 8344SOL    MW433144   5.001   3.780   5.797  0.5210 -0.3965 -0.3964
 8345SOL     OW33145   5.312   2.066   0.400  0.4509 -0.0813 -0.1425
 8345SOL    HW233146   5.314   2.157   0.427  0.3148 -0.4197  1.0793
 8345SOL    HW333147   5.290   2.069   0.307  1.1565  1.1465 -0.2919
 8345SOL    MW433148   5.309   2.078   0.391  0.0887 -0.5716  0.0706
 8346SOL     OW33149   3.747   1.772   5.169 -0.2404 -0.1317 -0.1903
 8346SOL    HW233150   3.807   1.768   5.243  0.8290 -3.0659 -1.0833
 8346SOL    HW333151   3.796   1.821   5.102 -0.4097  0.7586  0.3125
 8346SOL    MW433152   3.761   1.778   5.170 -0.3796 -0.7419 -0.3975
 8347SOL     OW33153   1.911   3.554   1.162 -0.0931 -0.5851  0.3098
 8347SOL    HW233154   1.881   3.559   1.253 -1.0200 -0.4492  0.0065
 8347SOL    HW333155   1.996   3.597   1.163  0.4414 -1.6083  1.3300
 8347SOL    MW433156   1.918   3.561   1.174 -0.1337  0.5131 -0.2395
 8348SOL     OW33157   6.191   2.140   6.380  0.6257 -0.3748 -0.2144
 8348SOL    HW233158   6.222   2.067   6.434 -1.7780 -1.4492 -0.1505
 8348SOL    HW333159   6.123   2.182   6.433  0.9068  0.9896 -0.8861
 8348SOL    MW433160   6.186   2.136   6.394  0.1006 -0.4532 -0.1469
 8349SOL     OW33161   2.768   1.525   3.072  0.4758  0.0381  0.1873
 8349SOL    HW233162   2.840   1.530   3.009 -1.0332  1.6577 -1.5602
 8349SOL    HW333163   2.782   1.599   3.131  0.7327 -0.1989  0.4250
 8349SOL    MW433164   2.779   1.535   3.072 -0.5562  0.0076 -0.4337
 8350SOL     OW33165   0.277   3.245   1.793 -0.1042 -0.6099 -0.3200
 8350SOL    HW233166   0.254   3.184   1.723  0.4648 -1.8474  0.5206
 8350SOL    HW333167   0.305   3.188   1.865  0.9722  0.6826  0.3136
 8350SOL    MW433168   0.278   3.229   1.793 -0.3992 -0.0298  0.0851
 8351SOL     OW33169   2.578   1.223   1.568 -0.5009 -0.8583  0.5035
 8351SOL    HW233170   2.495   1.266   1.545 -0.7078 -1.5172  0.0011
 8351SOL    HW333171   2.607   1.183   1.486  0.8504  0.2355  0.4075
 8351SOL    MW433172   2.570   1.224   1.554  0.1025  0.4716  0.0925
 8352SOL     OW33173   3.124   2.621   1.597 -0.2495  0.1203  0.1122
 8352SOL    HW233174   3.055   2.555   1.606 -0.0681 -0.0385  0.3535
 8352SOL    HW333175   3.077   2.701   1.572 -0.4538 -0.1343 -0.3370
 8352SOL    MW433176   3.108   2.623   1.595  0.2749 -0.4358  0.1320
 8353SOL     OW33177   2.570   0.508   4.577 -0.0571 -0.1731 -0.7062
 8353SOL    HW233178   2.599   0.567   4.508  1.1719 -0.6060 -0.5662
 8353SOL    HW333179   2.566   0.563   4.655 -0.8668  0.1745 -0.9802
 8353SOL    MW433180   2.573   0.523   4.578  0.3609  0.3611  0.1168
 8354SOL     OW33181   4.015   2.412   1.634 -0.1681  0.0860 -0.0665
 8354SOL    HW233182   3.972   2.497   1.630  1.2494  1.0222  2.4100
 8354SOL    HW333183   4.109   2.432   1.631  0.1982 -1.5179 -0.7215
 8354SOL    MW433184   4.022   2.426   1.633  0.4052  0.8062  0.2606
 8355SOL     OW33185   2.580   0.032   4.515 -0.2874 -0.2070  0.1752
 8355SOL    HW233186   2.640  -0.011   4.576  0.2243  0.2360 -0.0082
 8355SOL    HW333187   2.512   0.070   4.571 -0.8611 -1.4204  0.3245
 8355SOL    MW433188   2.579   0.031   4.531 -0.1021 -0.7114 -0.2414
 8356SOL     OW33189   4.888   2.440   0.948 -0.0794 -0.1429  0.1587
 8356SOL    HW233190   4.893   2.345   0.934 -1.3167 -0.2602  0.4082
 8356SOL    HW333191   4.829   2.471   0.880  0.9465  0.5811 -0.4224
 8356SOL    MW433192   4.881   2.432   0.937  0.0163 -0.2541  0.7703
 8357SOL     OW33193   4.223   2.006   1.339  0.2236 -0.3033  0.3242
 8357SOL    HW233194   4.151   1.955   1.301  0.4321 -0.4138  0.0745
 8357SOL    HW333195   4.181   2.062   1.405 -0.0794 -0.4222  0.2329
 8357SOL    MW433196   4.208   2.007   1.343 -0.0254  0.3688 -0.2392
 8358SOL     OW33197   0.576   0.562   1.525  0.8865  0.7762 -0.7710
 8358SOL    HW233198   0.671   0.566   1.511  0.7804 -0.8125 -2.3399
 8358SOL    HW333199   0.539   0.571   1.437 -0.3640  0.2326 -0.3117
 8358SOL    MW433200   0.584   0.564   1.511  0.3524 -0.4925 -0.3912
 8359SOL     OW33201   0.000   4.118   6.223 -0.1703  0.4060  0.3968
 8359SOL    HW233202  -0.021   4.081   6.309  1.5706  0.3545  0.8486
 8359SOL    HW333203   0.068   4.061   6.188 -0.5473  0.6766 -0.8518
 8359SOL    MW433204   0.006   4.106   6.230 -0.4122  0.3009 -0.7929
 8360SOL     OW33205   4.844   0.187   3.478  0.3849 -0.2108  0.1392
 8360SOL    HW233206   4.920   0.246   3.472  0.7790 -0.4707  2.0889
 8360SOL    HW333207   4.784   0.220   3.411  1.4534  1.1509 -0.2043
 8360SOL    MW433208   4.846   0.199   3.468  0.1187  0.6697 -0.4229
 8361SOL     OW33209   6.200   4.987   4.323 -0.0844  0.2415 -0.0373
 8361SOL    HW233210   6.177   5.051   4.256  1.4252  1.0562  0.1715
 8361SOL    HW333211   6.121   4.933   4.334 -1.8578  2.7771  0.6250
 8361SOL    MW433212   6.186   4.988   4.316  0.1020 -0.1705 -0.0197
 8362SOL     OW33213   3.659   1.473   1.124 -0.5195 -0.3086 -0.2470
 8362SOL    HW233214   3.718   1.398   1.122  0.7387  0.5317  1.8751
 8362SOL    HW333215   3.593   1.451   1.190 -0.0240  0.5042  0.5391
 8362SOL    MW433216   3.658   1.460   1.133  0.2198 -0.1808  0.3228
 8363SOL     OW33217   4.798   1.130   0.487  0.1719 -0.6795 -0.3444
 8363SOL    HW233218   4.884   1.096   0.462  0.6885  1.4436 -1.8093
 8363SOL    HW333219   4.739   1.100   0.418  0.2925 -0.0576 -0.7319
 8363SOL    MW433220   4.801   1.122   0.474  0.1302 -0.2492 -0.7116
 8364SOL     OW33221   4.276   0.290   2.848 -0.4212  0.3679  0.3955
 8364SOL    HW233222   4.239   0.202   2.839  1.2636 -0.3342 -0.0703
 8364SOL    HW333223   4.349   0.292   2.786  0.3156  1.6825  1.2563
 8364SOL    MW433224   4.280   0.279   2.839 -0.0852 -0.2087 -0.2719
 8365SOL     OW33225   1.076   2.712   4.274  0.4375  0.2499  0.2638
 8365SOL    HW233226   1.120   2.686   4.355 -0.1247 -0.4182  0.3695
 8365SOL    HW333227   1.129   2.784   4.239  0.7688  0.4428  1.1443
 8365SOL    MW433228   1.089   2.718   4.280  0.2512 -0.0871 -0.3284
 8366SOL     OW33229   4.339   5.142   1.911 -0.3485  0.1159 -0.7208
 8366SOL    HW233230   4.330   5.094   1.829  1.3682 -0.9834 -0.3252
 8366SOL    HW333231   4.310   5.080   1.978  1.6040 -0.3156 -0.2281
 8366SOL    MW433232   4.334   5.128   1.909  0.5702  0.2077  0.0566
 8367SOL     OW33233   0.126   4.492   1.935  0.1544  0.4761  0.4028
 8367SOL    HW233234   0.060   4.495   1.865  0.3491 -1.8378  0.0114
 8367SOL    HW333235   0.078   4.458   2.011  0.4032  1.0055  0.7997
 8367SOL    MW433236   0.111   4.488   1.936 -0.3660 -0.4583  0.4178
 8368SOL     OW33237   3.245   5.606   0.978  0.1090 -0.2427 -0.4723
 8368SOL    HW233238   3.172   5.573   0.924 -0.0807 -1.2782  0.3799
 8368SOL    HW333239   3.208   5.678   1.028 -0.7177 -1.5485  0.8791
 8368SOL    MW433240   3.230   5.611   0.977  0.2618 -0.3370 -0.5312
 8369SOL     OW33241   1.185   4.286   1.485 -0.4140 -0.1075  0.4272
 8369SOL    HW233242   1.101   4.247   1.510 -0.0526 -1.3348 -0.2250
 8369SOL    HW333243   1.163   4.348   1.416 -0.5960 -1.7720 -1.0626
 8369SOL    MW433244   1.171   4.289   1.479 -0.2756  0.5463  0.2005
 8370SOL     OW33245   0.615   2.900   4.258 -0.4789 -0.0680 -0.3712
 8370SOL    HW233246   0.533   2.894   4.308  1.1565  1.4607  2.8701
 8370SOL    HW333247   0.634   2.994   4.256  1.0336 -0.3693 -1.2996
 8370SOL    MW433248   0.607   2.912   4.265 -1.0925 -0.0127 -0.0816
 8371SOL     OW33249   5.856   2.984   3.390 -0.6948  0.5152 -0.2701
 8371SOL    HW233250   5.920   2.963   3.323 -0.9103 -2.1772  0.2636
 8371SOL    HW333251   5.779   3.016   3.342 -0.2224  0.3548 -1.1428
 8371SOL    MW433252   5.854   2.986   3.375  0.4305 -0.3091 -0.2570
 8372SOL     OW33253   2.490   4.299   1.931 -0.0098 -0.2774 -0.3296
 8372SOL    HW233254   2.429   4.248   1.878 -0.0088 -0.1579 -0.4457
 8372SOL    HW333255   2.473   4.390   1.907  2.2447 -0.3626 -2.5934
 8372SOL    MW433256   2.479   4.304   1.921  0.2456 -0.4367 -0.3024
 8373SOL     OW33257   3.060   2.680   2.454  0.1962  0.6450 -0.1859
 8373SOL    HW233258   3.007   2.750   2.491  0.0319  1.1756 -1.3745
 8373SOL    HW333259   3.026   2.668   2.365  0.0059 -1.1702  0.0816
 8373SOL    MW433260   3.049   2.688   2.447 -0.0703  1.0305  0.1407
 8374SOL     OW33261   2.599   2.843   0.129 -0.0948 -0.5118 -0.0473
 8374SOL    HW233262   2.562   2.780   0.067  0.2333 -0.7604  0.0090
 8374SOL    HW333263   2.688   2.859   0.098 -1.0804  2.2650 -1.8780
 8374SOL    MW433264   2.606   2.837   0.117  0.1316 -0.0238  0.4486
 8375SOL     OW33265   0.001   2.492   2.504  0.0147  0.3070  0.0194
 8375SOL    HW233266   0.065   2.433   2.464 -0.1135 -0.5369  1.0156
 8375SOL    HW333267  -0.052   2.523   2.431  0.6208 -0.1552 -0.6295
 8375SOL    MW433268   0.003   2.488   2.489  0.1097 -0.1520  0.2167
 8376SOL     OW33269   5.797   5.947   5.866 -0.2902 -0.1059 -0.3824
 8376SOL    HW233270   5.777   5.956   5.773  0.8400 -1.6209 -0.8129
 8376SOL    HW333271   5.881   5.901   5.868  0.2612  0.8820  1.3906
 8376SOL    MW433272   5.805   5.942   5.854 -0.3591 -0.6335 -0.2676
 8377SOL     OW33273   4.476   5.652   4.143  0.0114 -0.5914  0.1503
 8377SOL    HW233274   4.569   5.658   4.121 -0.1286  0.2527 -0.2627
 8377SOL    HW333275   4.432   5.700   4.072 -0.6101  0.4825  1.2254
 8377SOL    MW433276   4.483   5.659   4.131 -0.1401 -0.1401  0.3646
 8378SOL     OW33277   1.288   3.174   2.983  0.9934 -0.0642 -0.0595
 8378SOL    HW233278   1.254   3.126   2.907 -0.6388 -0.2584  0.7396
 8378SOL    HW333279   1.355   3.232   2.947 -0.4772  0.6278 -1.8232
 8378SOL    MW433280   1.292   3.175   2.968  0.3456  0.0551  0.3196
 8379SOL     OW33281   6.186   0.200   1.557  0.7440 -0.1285  0.8619
 8379SOL    HW233282   6.233   0.151   1.625  1.3896 -0.4911  0.1591
 8379SOL    HW333283   6.096   0.168   1.563  1.0962 -1.2255  0.5942
 8379SOL    MW433284   6.180   0.189   1.567 -0.0214 -0.3787 -0.6518
 8380SOL     OW33285   0.523   6.039   4.253 -0.0629  0.8233  0.4528
 8380SOL    HW233286   0.474   5.988   4.189 -0.4193  2.4302 -0.6177
 8380SOL    HW333287   0.600   6.069   4.206 -0.3693  2.0892  0.7072
 8380SOL    MW433288   0.526   6.037   4.239  0.5662  0.1110  0.0226
 8381SOL     OW33289   6.032   5.854   1.765 -0.1142  0.1465 -0.3095
 8381SOL    HW233290   6.058   5.768   1.798 -0.7679 -0.4812 -1.3530
 8381SOL    HW333291   5.988   5.896   1.838  1.3165  0.1097  0.6075
 8381SOL    MW433292   6.030   5.848   1.779 -0.0516  0.9518 -0.4213
 8382SOL     OW33293   0.046   6.334   1.407  0.6606  0.1353  0.1082
 8382SOL    HW233294   0.085   6.421   1.403  0.0559  0.3740 -1.2468
 8382SOL    HW333295   0.075   6.291   1.327  0.8252 -0.8632  0.6871
 8382SOL    MW433296   0.055   6.340   1.396 -0.7108 -0.3726 -0.5706
 8383SOL     OW33297   1.567   4.197   1.911 -0.4255  0.1981 -0.1763
 8383SOL    HW233298   1.658   4.197   1.881 -0.2968 -0.4244  0.2071
 8383SOL    HW333299   1.537   4.108   1.897 -0.2867 -0.1839  1.7629
 8383SOL    MW433300   1.575   4.186   1.905 -0.7991  0.0216 -0.0102
 8384SOL     OW33301   1.131   1.540   4.301  0.5893  0.0958  0.0878
 8384SOL    HW233302   1.036   1.527   4.299  0.7273 -1.2691  1.0333
 8384SOL    HW333303   1.145   1.607   4.369  0.3402 -0.1338  0.3668
 8384SOL    MW433304   1.120   1.547   4.310 -0.3734 -0.4641  0.0870
 8385SOL     OW33305   1.213   1.546   6.303 -0.0483  0.0936 -0.0293
 8385SOL    HW233306   1.299   1.514   6.277 -0.3066  1.0274 -2.2484
 8385SOL    HW333307   1.202   1.627   6.254 -2.1729  0.0042  0.2198
 8385SOL    MW433308   1.223   1.552   6.293  0.1354  0.4407  0.0241
 8386SOL     OW33309   2.416   4.503   5.275 -0.5752 -0.3406  0.0996
 8386SOL    HW233310   2.463   4.457   5.205  0.9243 -0.3011  1.0383
 8386SOL    HW333311   2.346   4.549   5.230 -1.9905 -3.2528 -0.9624
 8386SOL    MW433312   2.413   4.503   5.260 -0.1797  0.3598 -0.7265
 8387SOL     OW33313   0.711   5.376   2.991  0.6818  0.3039  0.0339
 8387SOL    HW233314   0.752   5.318   3.056 -0.3745  0.1658  0.6041
 8387SOL    HW333315   0.699   5.321   2.914  0.8764  0.1283  0.1269
 8387SOL    MW433316   0.715   5.361   2.990  0.0623  0.5960  0.4811
 8388SOL     OW33317   5.631   5.321   5.445 -0.2813  0.1557 -0.6221
 8388SOL    HW233318   5.622   5.327   5.541  0.9474  0.2018 -0.4928
 8388SOL    HW333319   5.625   5.411   5.414 -1.4969  0.0676 -0.6839
 8388SOL    MW433320   5.629   5.334   5.454 -0.2214  0.4471  0.5930
 8389SOL     OW33321   3.691   5.154   5.117  0.1468  0.3819 -0.2325
 8389SOL    HW233322   3.727   5.242   5.122  0.8615  0.0851 -0.0273
 8389SOL    HW333323   3.761   5.097   5.149 -0.4359 -0.2268 -0.0085
 8389SOL    MW433324   3.705   5.158   5.122  0.4413 -0.2958 -0.4677
 8390SOL     OW33325   4.416   1.799   4.501  0.1440 -0.3710 -0.2086
 8390SOL    HW233326   4.383   1.762   4.583  0.4741 -0.0026  0.0939
 8390SOL    HW333327   4.439   1.889   4.523  1.1810 -0.5583 -0.4475
 8390SOL    MW433328   4.415   1.806   4.515  0.3891 -0.6441  0.0302
 8391SOL     OW33329   0.461   1.773   5.704 -0.2337  0.3569 -0.9572
 8391SOL    HW233330   0.398   1.802   5.638 -0.5680  1.8220 -0.0368
 8391SOL    HW333331   0.410   1.766   5.785  0.4001 -0.3526 -0.6053
 8391SOL    MW433332   0.446   1.776   5.706  0.5167  0.9529  0.2301
 8392SOL     OW33333   0.913   4.457   1.738 -0.0701 -0.3041  0.6532
 8392SOL    HW233334   0.880   4.536   1.782 -0.2860 -1.1791  2.1415
 8392SOL    HW333335   0.888   4.469   1.646 -0.0226  1.3879  0.8255
 8392SOL    MW433336   0.905   4.469   1.732  0.1574  0.1003 -0.3306
 8393SOL     OW33337   1.952   5.684   4.150  0.3155 -0.3451 -0.3941
 8393SOL    HW233338   2.037   5.650   4.180  0.4434 -1.8098 -2.2569
 8393SOL    HW333339   1.974   5.762   4.100  0.3767  0.2741  0.5636
 8393SOL    MW433340   1.966   5.690   4.148 -0.0586 -0.0519 -0.0994
 8394SOL     OW33341   4.583   3.564   3.218 -0.2341 -0.0870 -0.2903
 8394SOL    HW233342   4.656   3.608   3.263 -0.5961 -0.1741  0.3954
 8394SOL    HW333343   4.587   3.473   3.249  0.7663 -0.6808 -2.0192
 8394SOL    MW433344   4.593   3.558   3.228 -0.3533  0.0574 -0.0605
 8395SOL     OW33345   5.239   3.512   3.497  0.3389  0.0105  0.3703
 8395SOL    HW233346   5.180   3.478   3.565  1.3568  0.0107  1.2805
 8395SOL    HW333347   5.191   3.500   3.415 -0.4165 -1.1310  0.9553
 8395SOL    MW433348   5.225   3.506   3.495 -0.1082  0.0503  0.2495
 8396SOL     OW33349   1.263   4.205   4.788 -0.3752  0.5204 -0.3089
 8396SOL    HW233350   1.267   4.142   4.717  0.5570 -0.7692  0.8386
 8396SOL    HW333351   1.169   4.224   4.798 -0.8410 -1.7676  0.2166
 8396SOL    MW433352   1.251   4.200   4.780  0.4159  0.1107 -0.1127
 8397SOL     OW33353   5.412   4.761   5.060  0.7473 -0.7624  0.0959
 8397SOL    HW233354   5.500   4.731   5.081  0.6600 -2.8170 -2.0651
 8397SOL    HW333355   5.386   4.813   5.136  3.8366  0.0627  0.7301
 8397SOL    MW433356   5.420   4.764   5.073  0.4831 -0.7329 -0.6937
 8398SOL     OW33357   2.574   3.263   6.232 -0.4735 -0.2950  1.0728
 8398SOL    HW233358   2.627   3.321   6.286  0.3440 -0.4983  0.5028
 8398SOL    HW333359   2.529   3.206   6.295  0.9567 -0.9585  1.5272
 8398SOL    MW433360   2.575   3.263   6.247  0.2386  0.0681  0.0884
 8399SOL     OW33361   5.861   3.132   0.776 -0.0279 -0.8457  0.3258
 8399SOL    HW233362   5.819   3.053   0.742  0.2386 -1.3812  1.2187
 8399SOL    HW333363   5.953   3.122   0.752 -0.3122  0.1504 -1.3018
 8399SOL    MW433364   5.868   3.120   0.768 -0.4012  0.8301 -0.2793
 8400SOL     OW33365   2.523   4.267   5.903 -0.2182  0.0777 -0.3083
 8400SOL    HW233366   2.458   4.222   5.848  0.2197 -1.6812  0.5260
 8400SOL    HW333367   2.473   4.303   5.976 -0.2623 -1.7313  0.6160
 8400SOL    MW433368   2.508   4.265   5.905 -0.4974 -0.2168  0.2126
 8401SOL     OW33369   3.924   0.172   0.831 -0.0820 -0.6973  0.5659
 8401SOL    HW233370   3.834   0.202   0.818  0.9157  1.8656 -1.4472
 8401SOL    HW333371   3.930   0.090   0.781 -1.0059 -0.2526 -0.3181
 8401SOL    MW433372   3.913   0.165   0.822 -0.0940 -0.2510  0.5895
 8402SOL     OW33373   3.413   0.517   1.902 -0.1982  0.0414 -0.7539
 8402SOL    HW233374   3.426   0.562   1.986  0.2864  1.1481 -1.3976
 8402SOL    HW333375   3.327   0.477   1.909 -1.1791  2.0783 -0.5723
 8402SOL    MW433376   3.404   0.518   1.914  0.1017  0.1940 -0.0086
 8403SOL     OW33377   2.362   0.120   2.952  0.4032 -0.5104 -0.3543
 8403SOL    HW233378   2.268   0.105   2.948  0.5260 -1.1272 -1.3244
 8403SOL    HW333379   2.382   0.174   2.875  1.1325 -2.3050 -1.5226
 8403SOL    MW433380   2.352   0.125   2.941 -0.4843 -0.6524  0.3180
 8404SOL     OW33381   1.530   0.589   1.719 -0.7165 -0.1599  0.4928
 8404SOL    HW233382   1.581   0.615   1.643 -1.0679 -0.6198  0.0917
 8404SOL    HW333383   1.594   0.575   1.788 -0.3319 -0.4340  0.0797
 8404SOL    MW433384   1.545   0.591   1.718 -0.3587  0.4013 -0.5649
 8405SOL     OW33385   0.706   0.752   0.433  0.2682  0.1473 -0.6299
 8405SOL    HW233386   0.627   0.699   0.438  0.5117 -0.1013  1.5472
 8405SOL    HW333387   0.768   0.699   0.383 -0.0733 -0.8208 -0.0360
 8405SOL    MW433388   0.704   0.738   0.427 -0.1702  0.5760  0.4412
 8406SOL     OW33389   5.647   0.733   1.282  0.2889  0.2464 -0.3211
 8406SOL    HW233390   5.736   0.766   1.282  0.4471  0.1106  3.0197
 8406SOL    HW333391   5.656   0.639   1.271  0.6397  0.1706  0.5291
 8406SOL    MW433392   5.660   0.725   1.281 -0.0070 -0.2317 -0.5033
 8407SOL     OW33393   1.707   0.353   5.958 -0.0142 -0.2051  0.0135
 8407SOL    HW233394   1.628   0.337   5.907 -0.4039  1.7823 -0.0611
 8407SOL    HW333395   1.683   0.328   6.047 -0.3672 -0.6029 -0.1877
 8407SOL    MW433396   1.694   0.347   5.963 -0.0935 -0.1310  0.1932
 8408SOL     OW33397   0.758   1.650   5.810  0.4572  0.4768 -0.0801
 8408SOL    HW233398   0.762   1.744   5.790  1.1367  0.4766  0.0442
 8408SOL    HW333399   0.833   1.634   5.867 -0.5473  0.1585  1.2011
 8408SOL    MW433400   0.768   1.660   5.814 -0.3639 -0.6292 -0.1770
 8409SOL     OW33401   2.996   0.741   4.247  0.0113  0.1799 -0.2191
 8409SOL    HW233402   2.980   0.683   4.173  1.2251 -2.0049  1.0914
 8409SOL    HW333403   2.950   0.822   4.226 -0.5766 -0.7500 -2.8162
 8409SOL    MW433404   2.988   0.744   4.235  0.0454  0.0569  0.1585
 8410SOL     OW33405   1.768   0.821   6.165 -0.2589  0.3297  0.1364
 8410SOL    HW233406   1.732   0.757   6.227  0.7465 -1.0346 -0.6361
 8410SOL    HW333407   1.691   0.864   6.128 -0.8856  1.3778  2.4765
 8410SOL    MW433408   1.753   0.818   6.169  0.3330  0.7110  0.2543
 8411SOL     OW33409   0.257   1.087   1.810 -0.0162 -0.3076 -0.4001
 8411SOL    HW233410   0.193   1.035   1.761  0.7722 -0.4555 -1.3272
 8411SOL    HW333411   0.339   1.074   1.761  0.5221  0.5719  0.2535
 8411SOL    MW433412   0.259   1.078   1.797  0.1671  0.4666 -0.5843
 8412SOL     OW33413   4.960   2.989   6.334  0.0685 -0.1664 -0.1189
 8412SOL    HW233414   4.975   3.080   6.361  1.9492 -0.3921 -0.2408
 8412SOL    HW333415   4.972   2.938   6.413  1.5464 -0.4869 -0.5162
 8412SOL    MW433416   4.964   2.994   6.348  1.0555  0.0471  0.4779
 8413SOL     OW33417   4.045   3.140   0.233 -0.3528  0.1317  0.2122
 8413SOL    HW233418   3.955   3.109   0.245 -0.5220  0.1150 -1.0382
 8413SOL    HW333419   4.092   3.103   0.308 -1.4219  0.3311  1.0116
 8413SOL    MW433420   4.039   3.131   0.245  0.2576 -0.1083 -0.4723
 8414SOL     OW33421   2.446   5.820   2.761  0.7097 -0.1879 -0.2913
 8414SOL    HW233422   2.491   5.779   2.835  1.6965  0.9952 -0.2001
 8414SOL    HW333423   2.486   5.781   2.684 -0.0165 -1.1038 -0.2257
 8414SOL    MW433424   2.457   5.810   2.761  0.3081  0.3714  0.0598
 8415SOL     OW33425   0.897   6.344   3.738 -0.3330  0.3235  0.5484
 8415SOL    HW233426   0.938   6.412   3.791  0.1912  0.4888 -0.0517
 8415SOL    HW333427   0.970   6.300   3.695 -0.8058  1.4121 -1.4997
 8415SOL    MW433428   0.912   6.347   3.739  0.0312  0.4314  0.1056
 8416SOL     OW33429   3.157   4.868   2.258  0.6388 -0.5305  0.0593
 8416SOL    HW233430   3.188   4.949   2.299 -1.6415  0.8407 -0.7341
 8416SOL    HW333431   3.139   4.892   2.167 -0.7865 -1.6994 -0.0188
 8416SOL    MW433432   3.158   4.882   2.251 -0.6038 -0.1920  0.9267
 8417SOL     OW33433   1.217   6.182   3.502  0.0153  0.1519  0.3963
 8417SOL    HW233434   1.161   6.209   3.429  1.4675  0.4350 -0.6522
 8417SOL    HW333435   1.242   6.092   3.482 -0.2147 -0.0438  0.9632
 8417SOL    MW433436   1.213   6.174   3.490  0.6397  0.3637 -0.1383
 8418SOL     OW33437   6.119   1.936   1.935 -1.2343 -1.0530 -0.2569
 8418SOL    HW233438   6.197   1.964   1.983 -2.9050  0.2245  1.9038
 8418SOL    HW333439   6.143   1.852   1.896  1.1909 -0.6900  0.3084
 8418SOL    MW433440   6.132   1.929   1.936  0.0918  0.2506 -0.2224
 8419SOL     OW33441   4.532   2.437   4.570  0.6110 -0.0283 -0.1524
 8419SOL    HW233442   4.565   2.453   4.482 -0.9261 -1.7098 -1.1013
 8419SOL    HW333443   4.604   2.394   4.616  1.2406  0.3709 -0.7601
 8419SOL    MW433444   4.545   2.433   4.565  0.0516  0.4929 -0.0848
 8420SOL     OW33445   0.581   1.771   4.195 -0.2044  0.0568  0.1029
 8420SOL    HW233446   0.540   1.742   4.277  0.2055 -0.7278  0.0374
 8420SOL    HW333447   0.637   1.698   4.169 -1.1938 -0.1928 -1.4795
 8420SOL    MW433448   0.583   1.757   4.202  0.0453 -0.3716 -0.2851
 8421SOL     OW33449   6.164   1.202   1.218 -0.5171 -0.0672 -0.7058
 8421SOL    HW233450   6.252   1.165   1.209  0.1501  0.9253  1.1822
 8421SOL    HW333451   6.139   1.183   1.308 -1.9616  0.2746 -1.0073
 8421SOL    MW433452   6.172   1.195   1.228 -0.7488  0.3778  0.6483
 8422SOL     OW33453   3.195   5.808   1.174 -0.0493 -0.1511 -0.0988
 8422SOL    HW233454   3.119   5.842   1.222  0.5346  0.7719  0.1977
 8422SOL    HW333455   3.262   5.875   1.185  0.5148 -0.5228 -1.1416
 8422SOL    MW433456   3.194   5.821   1.182 -0.7519  0.1281 -0.7431
 8423SOL     OW33457   1.840   5.059   2.011 -0.4888 -0.2360 -0.1037
 8423SOL    HW233458   1.831   5.029   1.921 -0.9953 -0.5154  0.0389
 8423SOL    HW333459   1.810   5.149   2.010 -1.9494 -0.6948  0.0705
 8423SOL    MW433460   1.835   5.067   1.999 -0.8764  0.6744  1.0540
 8424SOL     OW33461   2.633   4.822   0.589 -0.2909 -0.3887  0.0281
 8424SOL    HW233462   2.676   4.858   0.667 -0.0868  0.1106 -0.3103
 8424SOL    HW333463   2.541   4.820   0.612 -0.1832 -0.6493  0.4442
 8424SOL    MW433464   2.627   4.827   0.603  0.1513 -0.0668  0.0410
 8425SOL     OW33465   0.487   3.035   4.634  0.1433  1.0077 -0.9991
 8425SOL    HW233466   0.416   3.002   4.689  1.3211  0.0500  0.0055
 8425SOL    HW333467   0.511   3.119   4.673  0.9025  0.3801 -0.0777
 8425SOL    MW433468   0.481   3.042   4.646 -0.0646 -0.4958 -0.0991
 8426SOL     OW33469   1.272   0.078   5.983 -0.3653  0.0914 -0.5450
 8426SOL    HW233470   1.205   0.144   5.995 -0.3824  0.0746 -0.5474
 8426SOL    HW333471   1.319   0.076   6.066  0.7737  1.3601 -1.1247
 8426SOL    MW433472   1.269   0.086   5.995  0.9234 -0.1438 -0.1648
 8427SOL     OW33473   0.651   1.845   1.038 -0.2471 -0.6727  0.0944
 8427SOL    HW233474   0.582   1.911   1.040  1.2608  1.0529 -1.5644
 8427SOL    HW333475   0.656   1.818   0.946  1.5789 -0.3835  0.0628
 8427SOL    MW433476   0.643   1.850   1.026 -0.1252 -0.3484  0.1323
 8428SOL     OW33477   5.392   5.130   2.733  0.0573  0.1385 -0.0715
 8428SOL    HW233478   5.435   5.144   2.818  3.4044 -0.1371 -1.5718
 8428SOL    HW333479   5.424   5.045   2.704 -2.7234 -0.7711 -0.7768
 8428SOL    MW433480   5.402   5.121   2.741  0.0670  0.4472  0.6700
 8429SOL     OW33481   3.598   2.655   1.881  0.8426  0.2826 -0.3876
 8429SOL    HW233482   3.559   2.721   1.939 -1.1728 -0.3957 -0.8963
 8429SOL    HW333483   3.527   2.631   1.821  1.8011 -1.6835 -0.8043
 8429SOL    MW433484   3.584   2.661   1.881  0.3906 -0.0131  0.2841
 8430SOL     OW33485   0.651   4.065   3.690 -0.2264  0.2198 -0.3574
 8430SOL    HW233486   0.718   4.112   3.640  0.1732  0.3465  0.2816
 8430SOL    HW333487   0.698   3.991   3.729  0.3739  2.0463  2.7458
 8430SOL    MW433488   0.666   4.061   3.688  0.0926  0.6759 -0.0629
 8431SOL     OW33489   4.578   5.049   3.960  0.4945 -0.4290  0.4820
 8431SOL    HW233490   4.563   4.955   3.959  1.4484 -0.6861  3.0101
 8431SOL    HW333491   4.504   5.086   3.912 -0.7910 -2.3794  0.8448
 8431SOL    MW433492   4.566   5.042   3.954 -0.0494  0.2808  0.0632
 8432SOL     OW33493   6.041   3.527   4.104 -0.2594  0.0458  0.0119
 8432SOL    HW233494   6.042   3.520   4.200  1.8378  1.2207  0.1557
 8432SOL    HW333495   5.949   3.523   4.080 -0.9447  1.0585  2.2183
 8432SOL    MW433496   6.029   3.526   4.114  0.4525 -0.2264  0.1947
 8433SOL     OW33497   1.270   5.741   0.005 -0.0599 -0.5356  0.2381
 8433SOL    HW233498   1.239   5.794   0.078 -0.2947  0.2330 -0.4000
 8433SOL    HW333499   1.259   5.797  -0.072  1.1692 -0.9271 -0.2557
 8433SOL    MW433500   1.265   5.755   0.004 -0.2546 -0.7071  0.3665
 8434SOL     OW33501   3.106   1.223   4.441  0.1860  0.1753 -0.7408
 8434SOL    HW233502   3.150   1.144   4.409  0.9545 -0.1017  0.9404
 8434SOL    HW333503   3.177   1.285   4.457 -0.2550  0.5484 -0.2298
 8434SOL    MW433504   3.121   1.221   4.439  0.3076 -0.1160 -0.3147
 8435SOL     OW33505   3.436   5.943   3.197 -0.8542  0.5363  0.1855
 8435SOL    HW233506   3.379   5.968   3.125 -2.4261 -0.3515  1.0625
 8435SOL    HW333507   3.475   5.860   3.170 -0.0618  1.0581 -0.3390
 8435SOL    MW433508   3.434   5.935   3.184  0.7601 -0.3169  0.8584
 8436SOL     OW33509   4.846   0.447   4.229  0.3424 -0.2544  0.1524
 8436SOL    HW233510   4.822   0.468   4.319 -2.2876  1.7680 -0.8680
 8436SOL    HW333511   4.845   0.351   4.225  1.1031 -0.4116  2.3552
 8436SOL    MW433512   4.843   0.437   4.240  0.1632 -0.8944 -0.4011
 8437SOL     OW33513   3.632   1.044   4.434 -1.3478  0.0175 -0.1723
 8437SOL    HW233514   3.657   0.980   4.367 -2.1334 -1.3052  0.7209
 8437SOL    HW333515   3.570   0.996   4.490 -0.7511  1.0707  1.4781
 8437SOL    MW433516   3.627   1.029   4.433  0.2159  0.0436 -0.3335
 8438SOL     OW33517   2.279   4.402   5.516  0.0207  0.3263  0.3076
 8438SOL    HW233518   2.341   4.420   5.445  0.5171 -0.1864  0.6023
 8438SOL    HW333519   2.214   4.344   5.477  0.7313 -0.6004  0.4713
 8438SOL    MW433520   2.279   4.397   5.501  0.4813  0.1615 -0.4330
 8439SOL     OW33521   2.808   1.327   4.901 -0.3885 -0.4140  0.1696
 8439SOL    HW233522   2.766   1.398   4.949  0.3595 -0.9370  1.6454
 8439SOL    HW333523   2.744   1.256   4.901  0.1785 -0.9807  1.8538
 8439SOL    MW433524   2.794   1.327   4.907  0.2617  0.2316  0.4660
 8440SOL     OW33525   0.356   3.475   6.153  0.2727  0.7227 -0.2269
 8440SOL    HW233526   0.284   3.535   6.171  0.1276  1.7592 -3.4980
 8440SOL    HW333527   0.319   3.388   6.164 -0.7447  1.2353  0.5012
 8440SOL    MW433528   0.342   3.472   6.156 -0.3554  0.0440  0.1726
 8441SOL     OW33529   5.477   1.341   3.363 -0.0434 -0.3518  0.4440
 8441SOL    HW233530   5.417   1.414   3.373 -0.2481 -0.1587 -1.6205
 8441SOL    HW333531   5.425   1.264   3.384 -0.8236 -0.1192 -0.5445
 8441SOL    MW433532   5.463   1.340   3.367 -0.4843  0.0510 -0.1570
 8442SOL     OW33533   0.221   3.382   3.427  0.7650  0.3526  0.0666
 8442SOL    HW233534   0.276   3.450   3.466 -0.0066  1.1856 -0.2438
 8442SOL    HW333535   0.148   3.431   3.387 -1.1977 -0.8059  2.0364
 8442SOL    MW433536   0.219   3.397   3.427  0.6220  0.4965  0.5527
 8443SOL     OW33537   4.972   0.203   4.902  0.3446  0.0543 -0.1928
 8443SOL    HW233538   4.912   0.128   4.893  0.7544 -0.1645 -1.3711
 8443SOL    HW333539   5.006   0.216   4.813  0.5006  1.4639  0.0527
 8443SOL    MW433540   4.968   0.195   4.889 -0.4515 -0.0632  0.5683
 8444SOL     OW33541   5.696   5.747   6.026  0.1288  0.1148 -0.2449
 8444SOL    HW233542   5.742   5.813   5.976  2.9985 -2.1890 -0.9030
 8444SOL    HW333543   5.700   5.668   5.972  3.2156 -2.4734  3.2204
 8444SOL    MW433544   5.702   5.745   6.012  0.2180  0.2526  0.4261
 8445SOL     OW33545   5.971   1.356   4.148 -0.2695 -1.2272 -0.2173
 8445SOL    HW233546   6.021   1.355   4.229 -0.4710  1.3420  0.0289
 8445SOL    HW333547   5.896   1.412   4.167 -0.5813 -0.9789 -2.0214
 8445SOL    MW433548   5.968   1.363   4.161 -0.4055  0.2813  0.0231
 8446SOL     OW33549   4.414   0.105   0.188  0.6134  0.1795  0.3315
 8446SOL    HW233550   4.505   0.092   0.165 -0.0039  0.3642 -2.6619
 8446SOL    HW333551   4.373   0.020   0.174 -0.5830  1.2008 -4.1217
 8446SOL    MW433552   4.420   0.092   0.183  0.0620 -0.3687  0.1031
 8447SOL     OW33553   6.079   0.043   6.033 -0.3151  0.5978 -0.0750
 8447SOL    HW233554   6.076   0.121   6.089  0.8459 -0.7064  1.9494
 8447SOL    HW333555   5.992   0.039   5.992 -1.6030  1.1564  2.4069
 8447SOL    MW433556   6.067   0.053   6.035  0.0374  0.3344  0.4676
 8448SOL     OW33557   1.975   0.478   1.224 -0.4143  0.3797 -0.0478
 8448SOL    HW233558   1.978   0.522   1.309 -0.9168  2.6235 -1.1019
 8448SOL    HW333559   1.901   0.418   1.231 -0.5894  0.6952  1.0247
 8448SOL    MW433560   1.966   0.476   1.236 -0.1255 -0.2322  0.2887
 8449SOL     OW33561   1.621   5.356   4.188 -0.3270 -0.4666 -0.2901
 8449SOL    HW233562   1.632   5.263   4.207  0.3163 -0.6225 -1.3366
 8449SOL    HW333563   1.546   5.360   4.129  1.6694 -0.7719 -3.0912
 8449SOL    MW433564   1.613   5.344   4.183 -0.3876 -0.7670  0.0156
 8450SOL     OW33565   6.415   2.439   5.896  0.4313 -0.7425 -0.0812
 8450SOL    HW233566   6.449   2.435   5.806 -0.2342 -1.4073 -0.3182
 8450SOL    HW333567   6.473   2.382   5.946 -0.4553 -2.1050 -0.5411
 8450SOL    MW433568   6.427   2.431   5.891  0.3687 -0.2064  0.2784
 8451SOL     OW33569   3.980   6.357   6.235 -0.1659 -0.1179  0.0728
 8451SOL    HW233570   3.997   6.431   6.177 -0.1043 -0.0659  0.1561
 8451SOL    HW333571   3.891   6.372   6.267 -0.6508 -0.7799 -0.9364
 8451SOL    MW433572   3.971   6.369   6.232  0.0292  0.0488  0.1101
 8452SOL     OW33573   0.855   4.495   1.424 -0.2661  0.2141  0.2577
 8452SOL    HW233574   0.860   4.579   1.378  1.1005  0.9256  1.6211
 8452SOL    HW333575   0.881   4.430   1.359 -1.0452  0.8629 -0.7337
 8452SOL    MW433576   0.859   4.498   1.409 -0.0880 -0.1136 -0.3378
 8453SOL     OW33577   3.720   2.375   0.289 -0.0702 -0.3277  0.4486
 8453SOL    HW233578   3.643   2.364   0.345  0.0485 -0.7253  0.5369
 8453SOL    HW333579   3.793   2.388   0.350 -0.3815  2.3926  0.3545
 8453SOL    MW433580   3.719   2.375   0.305 -0.6866 -0.9168  0.2828
 8454SOL     OW33581   1.505   5.543   2.166  0.3795 -0.2946 -0.2614
 8454SOL    HW233582   1.527   5.505   2.082  0.5894 -1.0372  0.1224
 8454SOL    HW333583   1.436   5.487   2.201  1.3833 -0.9466  0.7475
 8454SOL    MW433584   1.499   5.531   2.160  0.2028  0.6924  0.0384
 8455SOL     OW33585   0.405   2.842   1.988  0.0931  0.1364 -0.2859
 8455SOL    HW233586   0.366   2.771   2.038  0.4882 -0.0058 -0.1817
 8455SOL    HW333587   0.405   2.811   1.897  0.2162  0.0263 -0.2475
 8455SOL    MW433588   0.400   2.829   1.982  0.2558  0.4977 -0.0776
 8456SOL     OW33589   3.323   2.107   2.439  0.1852  0.0669 -0.4872
 8456SOL    HW233590   3.241   2.078   2.399 -0.4163 -0.2941  0.9600
 8456SOL    HW333591   3.297   2.161   2.513  1.2971  2.3509 -1.6628
 8456SOL    MW433592   3.309   2.110   2.443  0.0361  0.2523  0.5714
 8457SOL     OW33593   2.265   0.071   4.419  0.1392  0.2109 -0.2643
 8457SOL    HW233594   2.339   0.027   4.376 -0.3419  0.0857 -0.9817
 8457SOL    HW333595   2.306   0.136   4.476  0.8161 -0.1176 -0.3619
 8457SOL    MW433596   2.280   0.074   4.421 -0.3401  0.4203  0.1313
 8458SOL     OW33597   2.992   6.391   4.164  0.4046 -0.5071 -0.5454
 8458SOL    HW233598   2.923   6.368   4.226  0.9214  0.8016  0.5752
 8458SOL    HW333599   3.011   6.310   4.118 -1.8513 -0.9244 -0.8822
 8458SOL    MW433600   2.985   6.377   4.166  0.4452 -0.3307 -0.5182
 8459SOL     OW33601   1.151   4.907   6.155  0.6558 -0.0544 -0.2909
 8459SOL    HW233602   1.241   4.930   6.179  0.4443  0.2519  0.2382
 8459SOL    HW333603   1.156   4.817   6.123  0.9505 -0.5282  1.0313
 8459SOL    MW433604   1.163   4.898   6.154 -0.0921 -0.3969 -0.5327
 8460SOL     OW33605   0.530   1.888   4.909 -0.9255  0.2041 -0.4115
 8460SOL    HW233606   0.531   1.820   4.976  1.2024 -0.2835 -0.8697
 8460SOL    HW333607   0.472   1.852   4.841  0.2968 -1.2898 -0.7254
 8460SOL    MW433608   0.522   1.874   4.909  0.1123  0.4184 -0.3274
 8461SOL     OW33609   6.258   2.899   2.658 -0.7128 -0.4298 -0.1697
 8461SOL    HW233610   6.193   2.841   2.698 -0.2070 -0.8749  0.0131
 8461SOL    HW333611   6.335   2.844   2.646  0.9936  0.9733  3.0661
 8461SOL    MW433612   6.259   2.884   2.662 -0.9843  0.1874 -0.1957
 8462SOL     OW33613   3.455   6.225   2.598 -0.0324  0.3284 -0.4217
 8462SOL    HW233614   3.507   6.159   2.552  1.4387 -0.1754  1.7546
 8462SOL    HW333615   3.517   6.296   2.616 -0.1808  0.0234  1.6367
 8462SOL    MW433616   3.470   6.226   2.595 -0.2112  0.2455 -0.5731
 8463SOL     OW33617   5.166   4.667   3.210  0.0786 -0.0282  0.3935
 8463SOL    HW233618   5.085   4.616   3.217  0.3938 -0.8236 -1.2435
 8463SOL    HW333619   5.148   4.730   3.140  0.6553  0.2184  0.4652
 8463SOL    MW433620   5.153   4.668   3.201  1.1151  0.4800 -0.0911
 8464SOL     OW33621   4.031   5.830   2.363 -0.3050  0.0994  0.4937
 8464SOL    HW233622   4.085   5.807   2.438  0.1464  2.0742  0.8385
 8464SOL    HW333623   4.083   5.894   2.315 -0.2319 -1.7015 -2.0166
 8464SOL    MW433624   4.045   5.836   2.367 -0.5585 -0.9239 -0.3205
 8465SOL     OW33625   4.253   3.792   5.776 -0.2928  0.3566 -0.8296
 8465SOL    HW233626   4.169   3.808   5.734 -0.3576  1.6550 -0.2684
 8465SOL    HW333627   4.305   3.746   5.710 -0.9925  0.7489 -1.6665
 8465SOL    MW433628   4.249   3.788   5.762  0.1378 -0.2875  0.0752
 8466SOL     OW33629   5.689   3.828   2.466  0.0657  0.2611  0.2079
 8466SOL    HW233630   5.624   3.883   2.510  1.0823  2.1391 -0.5514
 8466SOL    HW333631   5.772   3.849   2.510  0.3490 -1.4353  0.5610
 8466SOL    MW433632   5.691   3.838   2.478 -0.6562 -0.3863  0.0259
 8467SOL     OW33633   3.003   2.684   2.188  0.0135 -1.1779  0.2386
 8467SOL    HW233634   2.997   2.592   2.163  1.7835 -0.9816 -1.1976
 8467SOL    HW333635   3.082   2.715   2.143 -0.8477  1.1808  0.2251
 8467SOL    MW433636   3.013   2.676   2.178  0.3182 -0.2073  0.1641
 8468SOL     OW33637   4.520   4.945   2.747 -0.3930 -0.4358  0.2167
 8468SOL    HW233638   4.521   4.887   2.670  0.0255 -0.3058  0.1239
 8468SOL    HW333639   4.536   5.032   2.711  2.0950 -0.6366  0.6783
 8468SOL    MW433640   4.522   4.949   2.732  0.0385 -0.6221 -0.1721
 8469SOL     OW33641   0.131   2.466   1.925 -0.5598  0.1985  0.1259
 8469SOL    HW233642   0.080   2.537   1.886 -3.0041 -0.2185  2.2521
 8469SOL    HW333643   0.117   2.391   1.868  0.5153  0.9130 -1.1263
 8469SOL    MW433644   0.122   2.466   1.913 -0.0155 -0.6331  0.0997
 8470SOL     OW33645   1.635   5.292   0.149 -0.1919 -1.1417  0.5164
 8470SOL    HW233646   1.685   5.253   0.077  1.2436  1.0458  0.2290
 8470SOL    HW333647   1.700   5.339   0.201 -1.7114  0.3319  1.1806
 8470SOL    MW433648   1.650   5.293   0.146  0.6598  0.2461 -0.1839
 8471SOL     OW33649   0.064   3.540   5.318  0.8769 -0.1943  0.5107
 8471SOL    HW233650   0.024   3.522   5.233  1.2103  0.4310  0.2125
 8471SOL    HW333651   0.137   3.478   5.323  1.2049  0.1529  0.0863
 8471SOL    MW433652   0.068   3.529   5.308  0.3026 -0.0259 -0.1837
 8472SOL     OW33653   0.123   0.767   6.336  0.4773 -0.2713  0.3021
 8472SOL    HW233654   0.189   0.762   6.267 -0.4081  2.2243 -0.8298
 8472SOL    HW333655   0.039   0.759   6.290 -0.0990 -0.2865  1.3244
 8472SOL    MW433656   0.120   0.765   6.321 -0.6369  0.6736  0.6469
 8473SOL     OW33657   5.420   0.338   1.418 -0.0413  0.1070 -0.1437
 8473SOL    HW233658   5.459   0.275   1.479  0.3503 -1.8259 -2.2557
 8473SOL    HW333659   5.494   0.385   1.381 -0.2299  0.7720  0.2951
 8473SOL    MW433660   5.435   0.336   1.421  0.1881  0.0245  0.1954
 8474SOL     OW33661   5.683   2.920   4.123  0.3624 -0.0153  0.5220
 8474SOL    HW233662   5.778   2.916   4.108  0.2872 -1.0077  0.2616
 8474SOL    HW333663   5.649   2.839   4.084 -0.7224  0.8197 -0.3296
 8474SOL    MW433664   5.691   2.909   4.116  0.6737  0.4260 -0.1239
 8475SOL     OW33665   4.388   1.161   2.249  0.5599  0.4716  0.3417
 8475SOL    HW233666   4.364   1.069   2.235 -0.0993  0.3385  2.0314
 8475SOL    HW333667   4.316   1.196   2.302  1.2471  1.7229  0.4731
 8475SOL    MW433668   4.375   1.154   2.254 -0.4540 -0.1043  0.5762
 8476SOL     OW33669   1.682   3.814   1.586  0.5815 -0.0417  0.0967
 8476SOL    HW233670   1.682   3.819   1.491 -0.9492  1.2822  0.1293
 8476SOL    HW333671   1.686   3.906   1.615  1.0955 -0.4231  1.3136
 8476SOL    MW433672   1.683   3.827   1.578 -0.1667  0.2056  0.4277
 8477SOL     OW33673   0.522   1.497   5.864 -0.3985  0.0239  0.0164
 8477SOL    HW233674   0.586   1.562   5.836  0.0989 -0.4529  0.0418
 8477SOL    HW333675   0.448   1.510   5.804  0.2580 -0.3157 -0.9031
 8477SOL    MW433676   0.521   1.507   5.852 -0.1040 -0.0537  0.3136
 8478SOL     OW33677   3.458   0.175   5.488  0.2621  0.9210  0.2685
 8478SOL    HW233678   3.480   0.160   5.580  2.5259  0.5368 -0.2765
 8478SOL    HW333679   3.484   0.266   5.472 -2.0566  1.6775  0.4812
 8478SOL    MW433680   3.465   0.185   5.498  0.4738  0.0665  0.1490
 8479SOL     OW33681   5.114   3.346   1.252 -0.1010 -0.0988 -0.4146
 8479SOL    HW233682   5.068   3.267   1.221 -0.9173 -0.1658  0.8855
 8479SOL    HW333683   5.184   3.312   1.307 -1.1840  0.0537  1.1355
 8479SOL    MW433684   5.117   3.331   1.255 -0.4330 -0.0106 -0.2927
 8480SOL     OW33685   3.893   1.089   6.388 -0.2703 -0.1618  0.1340
 8480SOL    HW233686   3.847   1.153   6.335  0.3366 -1.5202 -2.1586
 8480SOL    HW333687   3.828   1.020   6.404  0.2301 -0.9588 -1.0962
 8480SOL    MW433688   3.879   1.088   6.383 -0.4103  0.0451  0.2878
 8481SOL     OW33689   5.004   3.004   5.307  0.4991  0.2428  0.0403
 8481SOL    HW233690   5.015   3.082   5.253 -0.1952 -0.5704 -1.3099
 8481SOL    HW333691   4.964   3.036   5.388 -0.2065  1.2225 -0.6863
 8481SOL    MW433692   5.000   3.018   5.311 -0.0990  0.2664 -0.2891
 8482SOL     OW33693   0.582   2.545   4.668 -0.1521 -0.2307  0.2209
 8482SOL    HW233694   0.616   2.634   4.658 -0.5587  0.0566  1.2818
 8482SOL    HW333695   0.660   2.491   4.680  0.0760  0.0373 -0.0195
 8482SOL    MW433696   0.597   2.550   4.668  0.3049  0.1977 -0.5006
 8483SOL     OW33697   1.954   4.379   0.159 -0.2020  0.3811 -0.4471
 8483SOL    HW233698   2.010   4.404   0.086 -3.0706  2.4686 -2.1270
 8483SOL    HW333699   1.899   4.455   0.175 -1.0971 -0.7449  2.5922
 8483SOL    MW433700   1.954   4.392   0.152 -0.2709 -0.8301  0.0780
 8484SOL     OW33701   4.479   4.047   2.140  0.6878 -0.0871  0.6869
 8484SOL    HW233702   4.513   4.076   2.225  0.3965  0.2379  0.6941
 8484SOL    HW333703   4.556   4.013   2.094  1.0475  0.7449  0.6572
 8484SOL    MW433704   4.494   4.046   2.145  0.5548  0.3808 -0.2577
 8485SOL     OW33705   4.044   3.878   3.873 -0.5793 -0.7298 -0.0833
 8485SOL    HW233706   4.075   3.901   3.786 -0.2728 -1.9571 -0.3190
 8485SOL    HW333707   3.955   3.844   3.860 -1.2001  0.6771  0.3123
 8485SOL    MW433708   4.036   3.877   3.860 -0.1812 -0.3026 -0.0464
 8486SOL     OW33709   1.974   1.890   0.154  0.0982 -0.1945  0.2228
 8486SOL    HW233710   1.965   1.897   0.249 -0.2130 -1.4265  0.3126
 8486SOL    HW333711   2.068   1.890   0.138  0.1551 -0.1945  0.5522
 8486SOL    MW433712   1.985   1.891   0.164 -0.2380  0.1981 -0.4428
 8487SOL     OW33713   0.799   4.758   1.362 -0.2945  0.2166  0.1109
 8487SOL    HW233714   0.863   4.828   1.347  0.1038 -0.5118 -1.9348
 8487SOL    HW333715   0.721   4.803   1.395  0.0064  1.6190 -0.9926
 8487SOL    MW433716   0.797   4.773   1.365  0.5030  0.1140 -0.7107
 8488SOL     OW33717   3.623   1.299   3.181  0.0552 -0.0576 -0.1488
 8488SOL    HW233718   3.674   1.293   3.261  1.1026  1.2219 -0.6774
 8488SOL    HW333719   3.687   1.286   3.111 -0.2881  1.5993 -0.8295
 8488SOL    MW433720   3.638   1.297   3.182 -0.8121 -0.1485 -0.9761
 8489SOL     OW33721   0.234   5.553   3.913 -0.1188 -0.2890  0.5821
 8489SOL    HW233722   0.300   5.606   3.958 -0.5280 -0.1947  1.0856
 8489SOL    HW333723   0.223   5.595   3.828 -1.0263  0.9402  1.2712
 8489SOL    MW433724   0.241   5.566   3.908  0.3621 -0.3595  0.0080
 8490SOL     OW33725   0.238   5.806   0.299  0.1548 -0.1591 -0.2128
 8490SOL    HW233726   0.308   5.771   0.354  0.7797  0.5480 -0.5285
 8490SOL    HW333727   0.158   5.793   0.349  0.4107 -1.5922 -0.1212
 8490SOL    MW433728   0.237   5.799   0.313 -0.2142  0.1338  0.0816
 8491SOL     OW33729   1.386   1.150   5.591 -0.4810 -0.4868 -0.1129
 8491SOL    HW233730   1.375   1.124   5.683 -2.9096 -0.9408 -0.4870
 8491SOL    HW333731   1.476   1.183   5.587  0.3999 -2.3343  1.9662
 8491SOL    MW433732   1.397   1.151   5.603 -0.3494 -0.5772 -0.6282
 8492SOL     OW33733   0.829   0.775   3.043 -0.0745 -0.1269 -0.1879
 8492SOL    HW233734   0.756   0.833   3.066  0.1581  1.3470 -2.7419
 8492SOL    HW333735   0.879   0.765   3.124 -2.4014 -0.1903  1.3310
 8492SOL    MW433736   0.826   0.781   3.057 -0.3176  0.3208  0.7859
 8493SOL     OW33737   5.491   3.995   0.931  0.3893  0.0992 -0.3606
 8493SOL    HW233738   5.449   3.910   0.917  0.8925 -0.2117 -0.0098
 8493SOL    HW333739   5.422   4.059   0.914 -0.7847 -0.4265  2.0892
 8493SOL    MW433740   5.477   3.992   0.927  0.4455 -0.3435 -0.0178
 8494SOL     OW33741   5.864   3.654   3.305 -0.4540 -0.3701  0.2858
 8494SOL    HW233742   5.774   3.626   3.323 -0.0812 -2.2771 -0.6402
 8494SOL    HW333743   5.914   3.573   3.296  1.4909  0.6593  1.2865
 8494SOL    MW433744   5.859   3.640   3.306 -0.0634  0.2827  0.1927
 8495SOL     OW33745   1.521   5.705   5.137 -0.3552 -0.5196 -0.2119
 8495SOL    HW233746   1.570   5.728   5.058  0.4320  0.1751  0.4593
 8495SOL    HW333747   1.434   5.681   5.105 -0.2530  0.3810 -1.2340
 8495SOL    MW433748   1.516   5.705   5.122 -0.7346 -0.2058 -0.1888
 8496SOL     OW33749   4.869   1.338   0.939  0.5078  0.1643  0.8375
 8496SOL    HW233750   4.891   1.360   0.848  3.6130 -0.4342  1.3244
 8496SOL    HW333751   4.855   1.423   0.980  1.5700  0.6173  0.3158
 8496SOL    MW433752   4.870   1.352   0.932  0.4664 -0.4584  0.3716
 8497SOL     OW33753   0.997   5.554   4.470  0.3796  0.3985 -0.0332
 8497SOL    HW233754   1.067   5.496   4.440 -0.3287 -1.0586  0.9967
 8497SOL    HW333755   1.042   5.626   4.514  1.2528 -1.1650  1.7330
 8497SOL    MW433756   1.012   5.556   4.472  0.7203  0.0260  0.0621
 8498SOL     OW33757   3.240   3.853   2.573 -0.6227 -0.3002 -0.0480
 8498SOL    HW233758   3.282   3.873   2.489  1.8858 -0.5634  1.0490
 8498SOL    HW333759   3.217   3.760   2.566 -0.6154 -0.2691 -0.5334
 8498SOL    MW433760   3.243   3.843   2.561  0.1383 -0.6048 -0.1845
 8499SOL     OW33761   6.197   4.222   4.516 -0.0982 -0.4284  0.1921
 8499SOL    HW233762   6.114   4.215   4.564 -0.1776  1.8985  0.5292
 8499SOL    HW333763   6.264   4.218   4.584 -0.1413  1.3015  0.3790
 8499SOL    MW433764   6.195   4.221   4.532  0.1813 -0.4349 -0.3836
 8500SOL     OW33765   5.337   5.479   3.740  0.4100 -0.5502  0.5692
 8500SOL    HW233766   5.268   5.541   3.716  0.7832 -0.3606 -0.0281
 8500SOL    HW333767   5.324   5.464   3.834 -0.1399 -0.1441  0.5625
 8500SOL    MW433768   5.326   5.485   3.750  0.5440 -0.1857  0.1218
 8501SOL     OW33769   5.876   4.233   3.508 -0.0303 -0.1606 -0.3018
 8501SOL    HW233770   5.881   4.138   3.501  2.9473 -0.1437  0.1959
 8501SOL    HW333771   5.902   4.265   3.422  2.3384  0.0934  0.4120
 8501SOL    MW433772   5.880   4.225   3.496  0.3974  0.3625 -0.7466
 8502SOL     OW33773   5.776   5.326   6.108  0.7855  0.0954  0.0819
 8502SOL    HW233774   5.761   5.418   6.130 -1.0189  0.2422 -1.5040
 8502SOL    HW333775   5.693   5.296   6.071  1.4312 -2.1038  0.2568
 8502SOL    MW433776   5.763   5.334   6.106  0.4040 -0.4712  1.1511
 8503SOL     OW33777   4.036   2.502   2.782 -0.0157 -0.4907 -0.1651
 8503SOL    HW233778   4.073   2.442   2.717  1.7950 -0.5581  0.8460
 8503SOL    HW333779   4.097   2.497   2.856 -2.2433 -0.7944  1.7735
 8503SOL    MW433780   4.049   2.493   2.783  0.4059 -0.1038 -0.2322
 8504SOL     OW33781   2.444   2.372   6.386  0.7073  0.0173  0.2681
 8504SOL    HW233782   2.459   2.402   6.297  1.7669  1.1207  0.7963
 8504SOL    HW333783   2.391   2.292   6.375  0.7519  0.1651 -1.3227
 8504SOL    MW433784   2.439   2.365   6.373  0.4681 -0.9969 -0.3747
 8505SOL     OW33785   5.107   3.523   4.952 -0.8097 -0.7836 -0.1137
 8505SOL    HW233786   5.116   3.450   4.891 -1.6804 -1.5633  0.6517
 8505SOL    HW333787   5.098   3.482   5.038 -0.1295  0.2708  0.4904
 8505SOL    MW433788   5.107   3.508   4.955  0.3966  0.4220 -0.0537
 8506SOL     OW33789   0.772   3.851   4.625 -0.3924  0.2902  0.1281
 8506SOL    HW233790   0.715   3.777   4.647 -0.7314  0.8022  1.0399
 8506SOL    HW333791   0.773   3.904   4.705 -2.3094  2.6840 -1.2996
 8506SOL    MW433792   0.765   3.848   4.639  0.1750  0.4293 -0.0454
 8507SOL     OW33793   1.528   4.056   5.511 -0.0981  0.1767 -0.8431
 8507SOL    HW233794   1.532   4.151   5.526 -0.4385 -0.0144  0.5985
 8507SOL    HW333795   1.443   4.030   5.547  0.3058 -0.7831 -0.5492
 8507SOL    MW433796   1.517   4.065   5.518  0.6204 -0.8932 -0.3046
 8508SOL     OW33797   6.381   3.312   3.881  0.0880  0.0437  0.4681
 8508SOL    HW233798   6.474   3.311   3.856 -0.0591 -2.4598 -0.2461
 8508SOL    HW333799   6.336   3.347   3.804  0.3034 -0.2628  0.2018
 8508SOL    MW433800   6.387   3.317   3.867 -0.5074 -0.2062 -0.5504
 8509SOL     OW33801   1.027   0.619   0.744 -0.2896  0.2762 -0.3809
 8509SOL    HW233802   0.984   0.533   0.742 -0.1497  0.2127 -0.6112
 8509SOL    HW333803   1.037   0.638   0.838  0.5570 -0.3939 -0.3219
 8509SOL    MW433804   1.023   0.610   0.756 -0.2330  1.0357  0.3597
 8510SOL     OW33805   1.610   0.139   4.411 -0.2056 -0.0477 -0.3530
 8510SOL    HW233806   1.601   0.221   4.363 -2.0979 -0.6672 -1.1538
 8510SOL    HW333807   1.647   0.164   4.496  2.4759  1.1658 -1.7606
 8510SOL    MW433808   1.614   0.153   4.416  0.2430  0.5864 -0.1708
 8511SOL     OW33809   2.284   3.273   1.174  0.2782 -0.1416 -0.5511
 8511SOL    HW233810   2.194   3.277   1.142  0.7151  0.0399 -1.7994
 8511SOL    HW333811   2.275   3.280   1.270 -1.1027 -1.2911 -0.5585
 8511SOL    MW433812   2.271   3.274   1.183  0.2095 -0.3453  0.1958
 8512SOL     OW33813   2.070   2.026   4.528 -0.4695  0.2775 -0.2532
 8512SOL    HW233814   2.130   1.953   4.512  1.5357  1.5148  1.1963
 8512SOL    HW333815   2.037   2.050   4.442  1.5204 -0.1302 -1.1711
 8512SOL    MW433816   2.073   2.019   4.515  0.1044  0.6595  0.5804
 8513SOL     OW33817   4.285   5.625   3.410 -0.3574  0.6609  0.5041
 8513SOL    HW233818   4.375   5.646   3.383 -0.6645  1.0449 -0.2443
 8513SOL    HW333819   4.284   5.640   3.504  1.0735 -1.8339  1.0116
 8513SOL    MW433820   4.297   5.630   3.419 -0.2966  0.1120 -0.3907
 8514SOL     OW33821   6.224   1.165   0.480  0.3802 -0.1318  0.2594
 8514SOL    HW233822   6.137   1.127   0.494  0.2859  0.1805  0.5449
 8514SOL    HW333823   6.277   1.092   0.448 -0.0615 -0.2521 -0.2114
 8514SOL    MW433824   6.219   1.150   0.478 -0.2288  0.2200 -0.0921
 8515SOL     OW33825   0.375   0.059   1.619  0.3449 -0.1922  0.5825
 8515SOL    HW233826   0.361   0.154   1.623  1.8886  0.0539  0.8112
 8515SOL    HW333827   0.302   0.022   1.669 -1.6451  0.6900 -1.4889
 8515SOL    MW433828   0.364   0.067   1.626  0.0751  0.1617 -0.1546
 8516SOL     OW33829   5.305   4.212   2.048  0.4740 -0.7505 -0.6536
 8516SOL    HW233830   5.341   4.124   2.051  1.9448 -0.1748 -0.4807
 8516SOL    HW333831   5.307   4.242   2.139  1.4821  0.0143 -0.9055
 8516SOL    MW433832   5.310   4.204   2.060  0.6487 -0.0916 -0.3933
 8517SOL     OW33833   0.217   3.337   4.177  0.6726  0.2682  0.2690
 8517SOL    HW233834   0.223   3.242   4.182  0.5089  0.2339 -0.1446
 8517SOL    HW333835   0.144   3.360   4.233  0.2681  0.0869 -0.1744
 8517SOL    MW433836   0.208   3.328   4.185  0.0308  0.0227 -0.0437
 8518SOL     OW33837   6.233   3.364   6.056 -0.1057  0.2542  0.0087
 8518SOL    HW233838   6.324   3.333   6.055 -0.5054 -1.1651  1.7276
 8518SOL    HW333839   6.181   3.285   6.066 -1.3172  1.2250  2.2911
 8518SOL    MW433840   6.238   3.349   6.057  0.0185  0.0640  0.0762
 8519SOL     OW33841   5.379   3.228   4.803 -0.2294 -0.0954  0.5460
 8519SOL    HW233842   5.403   3.283   4.878  0.1637  0.9188 -0.2947
 8519SOL    HW333843   5.415   3.142   4.824  0.5633  0.3712  1.1782
 8519SOL    MW433844   5.387   3.224   4.815  0.1489 -0.0356 -0.1186
 8520SOL     OW33845   6.040   1.888   5.503  0.4694 -0.1222  0.2179
 8520SOL    HW233846   5.962   1.938   5.477  0.4858  0.5901  1.4728
 8520SOL    HW333847   6.084   1.868   5.420  0.4470  1.9143 -0.3427
 8520SOL    MW433848   6.035   1.892   5.488  0.3479 -0.2218 -0.4955
 8521SOL     OW33849   0.236   6.136   0.714 -0.4743  0.0311 -0.8862
 8521SOL    HW233850   0.305   6.070   0.704  1.8752  1.9755  1.2739
 8521SOL    HW333851   0.158   6.086   0.739  0.9231 -2.0099 -0.4061
 8521SOL    MW433852   0.234   6.121   0.716 -0.3650 -0.2875  0.3871
 8522SOL     OW33853   3.955   0.547   0.578  0.4752  0.1293 -0.1614
 8522SOL    HW233854   3.991   0.516   0.661  0.9256 -0.1374 -0.4547
 8522SOL    HW333855   4.024   0.528   0.514  0.0946  0.2622 -0.6075
 8522SOL    MW433856   3.969   0.541   0.581 -0.1104 -0.0184  0.2886
 8523SOL     OW33857   4.625   4.095   2.599  0.1500 -0.2948 -0.2888
 8523SOL    HW233858   4.618   4.150   2.521 -1.2522  1.4298  0.9489
 8523SOL    HW333859   4.543   4.046   2.602  0.5787 -1.0294 -0.3615
 8523SOL    MW433860   4.614   4.096   2.589 -0.1152  0.1641  1.3080
 8524SOL     OW33861   0.884   0.124   5.515  0.1709  0.1292 -0.7013
 8524SOL    HW233862   0.941   0.113   5.591  0.6655  1.8779 -0.7858
 8524SOL    HW333863   0.933   0.085   5.443 -0.5190 -2.0070 -0.0941
 8524SOL    MW433864   0.898   0.118   5.515 -0.2040 -0.2207 -0.5048
 8525SOL     OW33865   6.282   1.590   0.428 -0.8682  0.2355 -0.1525
 8525SOL    HW233866   6.309   1.504   0.397 -1.3608 -1.1182  2.7697
 8525SOL    HW333867   6.364   1.637   0.443 -0.5452 -0.1227 -0.7856
 8525SOL    MW433868   6.296   1.585   0.426 -0.3633 -0.9240  0.3791
 8526SOL     OW33869   0.353   3.961   3.918  0.3654 -0.1370 -0.1207
 8526SOL    HW233870   0.346   4.025   3.989 -1.2215 -0.2157 -0.1616
 8526SOL    HW333871   0.375   4.013   3.841  0.6652  0.1444  0.1512
 8526SOL    MW433872   0.355   3.976   3.917 -0.2360  0.4301  0.3409
 8527SOL     OW33873   2.017   1.200   6.386  0.0014 -0.1860  0.4879
 8527SOL    HW233874   1.980   1.273   6.336 -1.0998 -0.8155  0.3581
 8527SOL    HW333875   1.999   1.122   6.333  2.1504 -0.4590  0.0808
 8527SOL    MW433876   2.010   1.199   6.373 -0.7646  0.1217  0.9425
 8528SOL     OW33877   3.323   0.122   2.509  0.0174  0.4175 -0.5101
 8528SOL    HW233878   3.355   0.069   2.582 -0.1651  2.5281  1.2078
 8528SOL    HW333879   3.352   0.075   2.431 -0.7227 -2.5280  0.8238
 8528SOL    MW433880   3.331   0.109   2.508 -0.4446  0.3671  0.0063
 8529SOL     OW33881   5.096   0.796   2.432 -0.0438 -0.0007 -0.3241
 8529SOL    HW233882   5.098   0.702   2.451 -1.8771  0.0086  0.1265
 8529SOL    HW333883   5.108   0.838   2.517 -0.4737  0.1384 -0.3272
 8529SOL    MW433884   5.098   0.789   2.446  0.2771  0.6345 -0.0103
 8530SOL     OW33885   6.257   2.284   2.072 -0.3991 -0.0029  0.6307
 8530SOL    HW233886   6.285   2.364   2.116  1.4632  0.0084 -0.4627
 8530SOL    HW333887   6.329   2.223   2.084 -1.2713 -1.1092  0.4071
 8530SOL    MW433888   6.270   2.287   2.079 -0.1545 -0.6208  0.2597
 8531SOL     OW33889   1.997   2.116   5.496  0.3997  0.2917  0.1685
 8531SOL    HW233890   1.982   2.102   5.589 -0.1182 -2.0699 -0.2046
 8531SOL    HW333891   1.918   2.082   5.453  1.0495  0.4074 -1.1845
 8531SOL    MW433892   1.984   2.110   5.503 -0.0315  0.3331  0.1124
 8532SOL     OW33893   6.007   4.622   6.339  0.4396 -0.5320  0.0657
 8532SOL    HW233894   5.917   4.588   6.343 -0.3638  1.3688 -0.9000
 8532SOL    HW333895   5.997   4.714   6.315  2.6931 -0.5326 -1.1151
 8532SOL    MW433896   5.994   4.629   6.336  0.0378  0.0230  0.1148
 8533SOL     OW33897   3.322   1.483   3.025 -0.6932 -0.3394 -0.3340
 8533SOL    HW233898   3.360   1.571   3.032 -1.4421 -0.0502  0.2476
 8533SOL    HW333899   3.372   1.441   2.955 -1.8256  1.3161 -2.2573
 8533SOL    MW433900   3.334   1.489   3.017  0.0967 -0.4658 -0.4727
 8534SOL     OW33901   5.367   5.877   0.459  0.2005 -0.4337  0.1319
 8534SOL    HW233902   5.341   5.786   0.450 -2.0353  0.1715 -0.2214
 8534SOL    HW333903   5.385   5.888   0.553  0.6537 -1.2572  0.1459
 8534SOL    MW433904   5.366   5.866   0.470 -0.3797 -0.6845  0.4587
 8535SOL     OW33905   2.522   4.191   0.750 -0.6247  0.6661 -0.0621
 8535SOL    HW233906   2.559   4.262   0.803 -0.2586  0.9952 -0.7416
 8535SOL    HW333907   2.510   4.119   0.812  0.5131  0.7837  0.3237
 8535SOL    MW433908   2.525   4.191   0.765 -0.2024  0.4449  0.2533
 8536SOL     OW33909   6.132   3.851   5.085 -0.0846  0.2281  0.8470
 8536SOL    HW233910   6.095   3.785   5.144  0.0969 -0.0750  0.6242
 8536SOL    HW333911   6.182   3.909   5.142  1.2689 -0.8798  0.8333
 8536SOL    MW433912   6.133   3.850   5.100 -0.2896 -0.0324  0.0837
 8537SOL     OW33913   1.020   2.232   5.724  0.8509  0.4064  0.3237
 8537SOL    HW233914   0.945   2.279   5.761  0.5789 -0.1858  0.5307
 8537SOL    HW333915   1.056   2.293   5.659 -0.1668  0.4669 -0.2110
 8537SOL    MW433916   1.015   2.246   5.720 -0.3212  0.0266  1.1799
 8538SOL     OW33917   3.008   4.708   4.776 -0.1531  0.0993  0.2190
 8538SOL    HW233918   3.011   4.797   4.741 -0.0025  0.8665  2.0458
 8538SOL    HW333919   3.056   4.655   4.713  1.4093  1.6692  0.0104
 8538SOL    MW433920   3.015   4.712   4.763 -0.2181  0.5725 -0.6253
 8539SOL     OW33921   3.205   4.528   3.789  0.1110  0.1075 -0.0845
 8539SOL    HW233922   3.273   4.472   3.750 -0.6615 -0.7192 -0.2733
 8539SOL    HW333923   3.196   4.496   3.879 -1.5978 -1.3066 -0.7168
 8539SOL    MW433924   3.213   4.516   3.796  0.3602 -0.5309 -0.4136
 8540SOL     OW33925   0.301   1.351   0.887 -0.1996 -0.0129 -0.0979
 8540SOL    HW233926   0.272   1.297   0.961  0.0008  0.3087  0.2177
 8540SOL    HW333927   0.395   1.361   0.900  0.1460 -1.4189 -1.3597
 8540SOL    MW433928   0.309   1.345   0.899  0.1662 -0.0827 -0.3131
 8541SOL     OW33929   0.131   2.999   1.319 -0.0600  0.1652  0.1357
 8541SOL    HW233930   0.107   3.091   1.304  0.4649  0.1114 -1.1093
 8541SOL    HW333931   0.223   2.994   1.292  0.3487 -0.4327  1.5047
 8541SOL    MW433932   0.140   3.011   1.314  0.4687 -0.0991  0.4724
 8542SOL     OW33933   1.792   0.085   6.192 -0.3834 -0.1307 -0.1744
 8542SOL    HW233934   1.844   0.120   6.120 -0.4030 -0.8614 -0.5527
 8542SOL    HW333935   1.842   0.012   6.225 -0.7649 -0.3087  0.0205
 8542SOL    MW433936   1.805   0.080   6.186  0.1000 -0.1418  0.3949
 8543SOL     OW33937   0.629   0.434   5.607 -0.0442  0.1008 -0.1072
 8543SOL    HW233938   0.721   0.461   5.607 -0.0727  0.2267 -0.7092
 8543SOL    HW333939   0.580   0.513   5.630 -0.0462  0.2492 -0.5966
 8543SOL    MW433940   0.635   0.448   5.610  0.3470 -0.1178  0.0288
 8544SOL     OW33941   5.063   1.939   0.862  0.3797 -0.5921  0.1796
 8544SOL    HW233942   5.127   1.976   0.801  0.7027 -0.3673  0.6494
 8544SOL    HW333943   4.987   1.996   0.856  0.4134 -0.5660 -0.0049
 8544SOL    MW433944   5.061   1.951   0.853 -0.1876 -0.3225 -0.2745
 8545SOL     OW33945   5.875   5.030   5.307 -0.0021 -0.4352 -0.3632
 8545SOL    HW233946   5.871   5.119   5.272 -1.1065 -0.3555 -0.0905
 8545SOL    HW333947   5.903   4.976   5.233  0.6515  0.1270 -0.5362
 8545SOL    MW433948   5.878   5.034   5.293  0.2940 -0.4785 -0.2695
 8546SOL     OW33949   1.096   3.849   3.783 -0.2564  0.2948 -0.5634
 8546SOL    HW233950   1.129   3.935   3.758  0.9444 -0.6570 -2.5236
 8546SOL    HW333951   1.081   3.804   3.699  1.1851 -2.1163  0.3523
 8546SOL    MW433952   1.098   3.854   3.768 -0.0112 -0.2603  0.5129
 8547SOL     OW33953   4.031   5.867   6.313 -0.6304 -0.1025 -0.0300
 8547SOL    HW233954   4.112   5.895   6.354  0.5618 -1.7978 -1.1027
 8547SOL    HW333955   4.000   5.944   6.265 -0.5306  1.0297  1.6462
 8547SOL    MW433956   4.037   5.881   6.312 -0.3989  0.2702 -0.1852
 8548SOL     OW33957   4.467   6.093   4.013  0.0940 -1.1257 -0.1910
 8548SOL    HW233958   4.553   6.131   3.993  0.1350 -1.2245 -0.2049
 8548SOL    HW333959   4.481   6.044   4.094 -0.2072 -0.2746  0.3911
 8548SOL    MW433960   4.480   6.092   4.021 -0.3038  0.4716 -0.0103
 8549SOL     OW33961   5.564   6.301   1.792 -0.2257 -0.1982  0.3009
 8549SOL    HW233962   5.504   6.325   1.863 -2.5448 -0.2387 -1.5235
 8549SOL    HW333963   5.562   6.376   1.733  0.2276 -0.8783 -0.5975
 8549SOL    MW433964   5.556   6.314   1.794 -0.0882  0.2291 -0.2945
 8550SOL     OW33965   1.251   2.730   5.273  0.4980  0.7031  0.8286
 8550SOL    HW233966   1.326   2.712   5.331  2.0034  1.3570 -0.8044
 8550SOL    HW333967   1.277   2.694   5.188 -1.9045 -0.7773  0.6266
 8550SOL    MW433968   1.265   2.723   5.269  0.4088 -0.6638 -0.3168
 8551SOL     OW33969   4.776   0.904   3.065 -0.1844  0.4549 -0.2294
 8551SOL    HW233970   4.748   0.981   3.115 -2.0079  0.6441 -1.4225
 8551SOL    HW333971   4.858   0.876   3.106  0.0676  2.5101  0.7749
 8551SOL    MW433972   4.783   0.911   3.077  0.1172 -0.5575 -0.0268
 8552SOL     OW33973   1.963   1.357   3.338 -0.0511  0.2063 -0.2881
 8552SOL    HW233974   2.034   1.314   3.385  0.2898  0.8914 -0.1615
 8552SOL    HW333975   1.909   1.396   3.407 -1.1222 -1.1666 -0.3298
 8552SOL    MW433976   1.965   1.357   3.354 -0.1371  0.0134 -0.1369
 8553SOL     OW33977   1.665   3.597   0.241 -0.2838  0.5348  0.3203
 8553SOL    HW233978   1.684   3.578   0.333  1.2606  0.3655 -0.0138
 8553SOL    HW333979   1.750   3.599   0.198 -0.8132  2.5006 -0.7685
 8553SOL    MW433980   1.679   3.595   0.247  0.0664 -0.1696 -0.0422
 8554SOL     OW33981   4.153   5.748   3.932 -0.5948  0.4961  0.1525
 8554SOL    HW233982   4.136   5.803   4.009 -1.6215  0.5125 -0.0731
 8554SOL    HW333983   4.246   5.763   3.912  0.2138 -0.8459  2.4233
 8554SOL    MW433984   4.163   5.757   3.939  0.6625  0.2028 -0.1293
 8555SOL     OW33985   2.200   1.201   3.420  0.0557  0.0682 -0.3671
 8555SOL    HW233986   2.203   1.156   3.336 -0.4434 -0.7468  0.0342
 8555SOL    HW333987   2.256   1.148   3.477  1.0730  1.0810 -0.3822
 8555SOL    MW433988   2.208   1.188   3.417  0.5983  0.8063  0.0586
 8556SOL     OW33989   2.028   2.729   1.376  0.0285 -0.0866 -0.1642
 8556SOL    HW233990   1.972   2.699   1.304  0.8263 -1.9815 -0.0425
 8556SOL    HW333991   2.117   2.704   1.350  0.4330 -0.0098  1.0794
 8556SOL    MW433992   2.032   2.722   1.363  0.3118  0.1926  0.0044
 8557SOL     OW33993   0.499   0.713   5.935  0.4140  0.3853  0.1110
 8557SOL    HW233994   0.583   0.753   5.961 -0.3193  1.8020  0.3664
 8557SOL    HW333995   0.453   0.701   6.018  1.1045 -2.2574  0.2036
 8557SOL    MW433996   0.504   0.717   5.949 -0.4210  0.0663 -0.1865
 8558SOL     OW33997   0.034   4.230   0.679 -0.5005  0.0989  0.2540
 8558SOL    HW233998   0.107   4.244   0.619 -1.0797  0.6720 -0.3390
 8558SOL    HW333999  -0.032   4.294   0.651 -1.3742 -0.6586  0.5315
 8558SOL    MW434000   0.035   4.241   0.667  0.0229  0.3608  0.0329
 8559SOL     OW34001   4.846   2.426   3.725  0.1641  0.2901  0.4845
 8559SOL    HW234002   4.855   2.485   3.800 -0.5928 -0.3103  1.0687
 8559SOL    HW334003   4.771   2.461   3.676 -0.2083 -0.1044  0.7654
 8559SOL    MW434004   4.837   2.438   3.729  1.2580  0.4263 -0.4840
 8560SOL     OW34005   0.529   0.174   5.692 -0.2811 -0.1940 -0.4830
 8560SOL    HW234006   0.616   0.134   5.703  0.0925  0.5735 -0.5470
 8560SOL    HW334007   0.547   0.259   5.651 -1.1491 -0.4348 -1.4048
 8560SOL    MW434008   0.543   0.180   5.688  0.3780  0.4397 -0.4418
 8561SOL     OW34009   5.041   3.455   4.203  0.8384  0.0922  0.2104
 8561SOL    HW234010   5.120   3.441   4.254  2.6337  2.9338 -1.5326
 8561SOL    HW334011   4.993   3.523   4.250  1.0017  0.5776 -0.3147
 8561SOL    MW434012   5.045   3.462   4.216  1.0551 -0.7264  0.6796
 8562SOL     OW34013   0.379   5.904   0.696 -0.0307 -0.6193 -0.0557
 8562SOL    HW234014   0.432   5.877   0.770  0.1234 -0.8722 -0.2559
 8562SOL    HW334015   0.295   5.859   0.708  0.0631 -0.8183 -0.1387
 8562SOL    MW434016   0.375   5.895   0.707  0.0255 -0.0016 -0.1101
 8563SOL     OW34017   4.517   0.815   0.731 -0.5081 -0.0061 -0.0872
 8563SOL    HW234018   4.506   0.724   0.703  1.1539 -0.2461 -0.0979
 8563SOL    HW334019   4.441   0.833   0.785 -0.8100 -1.4567  0.0096
 8563SOL    MW434020   4.506   0.805   0.735 -0.7252 -0.1103  0.3278
 8564SOL     OW34021   0.015   0.575   2.142  0.3481 -0.5075 -0.2179
 8564SOL    HW234022   0.093   0.525   2.166 -0.3953 -1.8569 -0.4726
 8564SOL    HW334023  -0.049   0.508   2.118 -0.5876  0.6034 -0.9166
 8564SOL    MW434024   0.017   0.560   2.142  0.3524  0.2210  0.1800
 8565SOL     OW34025   1.108   1.475   3.434 -0.4216 -0.0984 -0.4813
 8565SOL    HW234026   1.081   1.391   3.472 -2.4743  0.4295 -0.6376
 8565SOL    HW334027   1.131   1.454   3.344 -2.8946 -0.2579 -1.1441
 8565SOL    MW434028   1.107   1.461   3.427  0.5419  0.3325 -0.0916
 8566SOL     OW34029   1.564   0.358   5.072  0.1943 -0.6267 -0.1219
 8566SOL    HW234030   1.617   0.374   5.150  1.5090  0.7720 -1.2270
 8566SOL    HW334031   1.621   0.308   5.014  1.1800  2.4701 -2.0789
 8566SOL    MW434032   1.578   0.354   5.075  0.3557  0.6130 -0.0681
 8567SOL     OW34033   4.391   1.162   2.745 -0.2606  0.0114  0.0912
 8567SOL    HW234034   4.303   1.176   2.780 -0.5249 -0.0170 -0.5566
 8567SOL    HW334035   4.442   1.132   2.820 -1.1718 -1.4771  0.1390
 8567SOL    MW434036   4.386   1.160   2.760  0.0613  0.3529 -0.3579
 8568SOL     OW34037   4.468   1.121   0.967  0.2392 -0.5344  0.6014
 8568SOL    HW234038   4.416   1.080   0.897  0.2497  0.0113  0.2719
 8568SOL    HW334039   4.403   1.151   1.030 -0.0531  2.0020 -0.7769
 8568SOL    MW434040   4.452   1.119   0.966  0.2713  0.0339  0.5315
 8569SOL     OW34041   0.041   1.276   2.122 -0.0942  0.4144 -0.3513
 8569SOL    HW234042   0.136   1.264   2.115 -0.0591 -0.6432  1.3805
 8569SOL    HW334043   0.011   1.202   2.175 -2.0707  0.0980 -1.7950
 8569SOL    MW434044   0.050   1.265   2.128 -0.3179  0.3235 -0.1201
 8570SOL     OW34045   4.237   0.584   5.078  0.6251 -0.4514  0.1813
 8570SOL    HW234046   4.255   0.498   5.115 -1.0967 -0.5320  0.9429
 8570SOL    HW334047   4.313   0.637   5.101  1.3419 -1.5487  0.4003
 8570SOL    MW434048   4.249   0.580   5.086  0.0181  0.0535 -0.0264
 8571SOL     OW34049   1.782   2.327   1.105 -0.3251  0.0139  0.0416
 8571SOL    HW234050   1.687   2.317   1.113 -0.3760  1.1538  1.2643
 8571SOL    HW334051   1.817   2.298   1.190  0.4701 -0.8189 -0.5496
 8571SOL    MW434052   1.774   2.322   1.117 -0.3109  0.1105 -0.3140
 8572SOL     OW34053   1.665   3.305   3.135  0.3541  0.0567  0.4441
 8572SOL    HW234054   1.645   3.225   3.183 -2.0314 -0.4766 -1.2314
 8572SOL    HW334055   1.594   3.365   3.158 -0.0049  0.3040 -1.2045
 8572SOL    MW434056   1.653   3.302   3.144 -0.1888 -0.5444 -0.0535
 8573SOL     OW34057   1.439   2.880   6.296  0.5298  0.3143  0.3342
 8573SOL    HW234058   1.423   2.972   6.320  1.1605  0.5274 -0.0352
 8573SOL    HW334059   1.532   2.878   6.271  0.0960 -0.0685 -1.3202
 8573SOL    MW434060   1.450   2.892   6.296 -0.9039  0.0203 -0.3929
 8574SOL     OW34061   1.108   1.218   5.318 -0.3647 -0.1237 -0.0985
 8574SOL    HW234062   1.142   1.130   5.333  0.6322  0.0865 -1.0308
 8574SOL    HW334063   1.021   1.216   5.358 -0.0639 -1.2900  0.5677
 8574SOL    MW434064   1.101   1.206   5.325  0.5774 -0.3430  0.5812
 8575SOL     OW34065   1.679   0.767   1.520 -0.4979  0.0676 -0.6860
 8575SOL    HW234066   1.607   0.814   1.477 -0.7353  0.1913 -0.1589
 8575SOL    HW334067   1.732   0.835   1.560 -2.0575 -0.1659  1.9917
 8575SOL    MW434068   1.677   0.782   1.519 -0.0848  0.3653  0.1059
 8576SOL     OW34069   1.031   2.960   1.730 -0.5760  0.1573 -0.1774
 8576SOL    HW234070   1.110   2.956   1.676 -0.9214  0.2292 -0.6949
 8576SOL    HW334071   1.021   2.872   1.766 -0.6255 -0.0263 -0.6403
 8576SOL    MW434072   1.040   2.948   1.728  0.2416 -0.1743 -0.1166
 8577SOL     OW34073   1.818   1.630   3.744 -0.3516  0.7026 -0.1086
 8577SOL    HW234074   1.765   1.705   3.719 -2.3125  0.1942  2.1083
 8577SOL    HW334075   1.760   1.576   3.798  2.1349 -0.4064  1.6803
 8577SOL    MW434076   1.804   1.632   3.748 -0.0933  0.4148 -0.1263
 8578SOL     OW34077   4.500   0.795   2.485  0.3087  0.6729 -0.1004
 8578SOL    HW234078   4.585   0.828   2.512 -0.4835  2.5835  0.2461
 8578SOL    HW334079   4.440   0.823   2.554 -0.5248 -1.2668  0.0310
 8578SOL    MW434080   4.503   0.803   2.498  0.0868 -0.5421  0.6418
 8579SOL     OW34081   6.306   4.256   2.823  0.3139 -0.0920  0.2767
 8579SOL    HW234082   6.287   4.162   2.819  2.1144 -0.5581  1.2593
 8579SOL    HW334083   6.288   4.289   2.735  2.2916 -1.9450 -0.9074
 8579SOL    MW434084   6.301   4.248   2.811 -0.5146 -0.5126 -0.4713
 8580SOL     OW34085   5.666   2.845   4.393 -0.1183 -0.0932 -0.0881
 8580SOL    HW234086   5.613   2.766   4.380  0.9630 -0.6025 -1.6408
 8580SOL    HW334087   5.677   2.881   4.305  3.9968 -1.3109 -0.2496
 8580SOL    MW434088   5.660   2.839   4.380  0.3976 -0.5509  0.7004
 8581SOL     OW34089   6.312   5.959   5.846  0.2483 -0.1460 -0.6588
 8581SOL    HW234090   6.235   5.910   5.874  0.9448 -0.5290  0.6957
 8581SOL    HW334091   6.299   6.047   5.879  0.7037 -0.3969  0.2300
 8581SOL    MW434092   6.300   5.964   5.854  0.5592 -0.3840  0.5911
 8582SOL     OW34093   3.505   5.784   0.100 -0.3905 -0.1247  0.3237
 8582SOL    HW234094   3.468   5.697   0.080  0.7240 -0.3959 -0.6435
 8582SOL    HW334095   3.507   5.787   0.196  1.3061 -1.9627  0.4004
 8582SOL    MW434096   3.500   5.773   0.110 -0.0184 -0.1595 -0.5005
 8583SOL     OW34097   4.676   3.992   4.627 -0.4805  0.5522 -0.3614
 8583SOL    HW234098   4.590   4.036   4.629 -0.2933  1.2692 -3.6128
 8583SOL    HW334099   4.683   3.957   4.539  2.4582  0.2194 -0.0767
 8583SOL    MW434100   4.665   3.993   4.616 -0.1672  0.3705 -0.1962
 8584SOL     OW34101   1.303   2.302   4.128  0.0633  0.1874  0.4933
 8584SOL    HW234102   1.296   2.324   4.035 -0.0338  1.5650  0.8141
 8584SOL    HW334103   1.381   2.348   4.158  0.6256 -0.9956  0.9067
 8584SOL    MW434104   1.312   2.311   4.120 -0.2267  0.0789  0.1476
 8585SOL     OW34105   4.164   1.633   6.316  0.5279  0.7522 -0.1530
 8585SOL    HW234106   4.137   1.591   6.234  0.9842  0.9314 -0.3971
 8585SOL    HW334107   4.245   1.588   6.340  0.2224  0.4730  0.3784
 8585SOL    MW434108   4.171   1.621   6.309  0.4710  0.1555 -0.1370
 8586SOL     OW34109   2.428   0.636   3.110  0.6380  0.0492  0.1912
 8586SOL    HW234110   2.352   0.680   3.070  0.1931 -0.2786  0.6653
 8586SOL    HW334111   2.482   0.708   3.143 -0.3720  0.2469  1.4873
 8586SOL    MW434112   2.425   0.652   3.109  0.0215  0.2401 -0.0828
 8587SOL     OW34113   3.566   5.315   1.528 -0.4872  0.5144 -0.6114
 8587SOL    HW234114   3.503   5.311   1.456 -0.2966  0.4294 -0.7735
 8587SOL    HW334115   3.517   5.355   1.600 -1.3598 -1.3981 -0.0800
 8587SOL    MW434116   3.551   5.320   1.528  0.2534 -0.2107  0.0880
 8588SOL     OW34117   6.206   3.953   4.423  0.2191 -0.6141 -0.5749
 8588SOL    HW234118   6.222   4.042   4.455 -2.1021 -0.2177 -0.3165
 8588SOL    HW334119   6.275   3.938   4.358  1.5006  0.8158  0.3844
 8588SOL    MW434120   6.217   3.963   4.419 -0.7020 -0.0774  0.0812
 8589SOL     OW34121   3.891   0.179   2.942  0.6494 -0.3356  0.1008
 8589SOL    HW234122   3.863   0.150   3.029 -1.3207  0.7123 -0.1212
 8589SOL    HW334123   3.888   0.274   2.947  3.5562 -0.1575 -0.2351
 8589SOL    MW434124   3.887   0.188   2.954 -0.0905 -0.2900 -0.2356
 8590SOL     OW34125   4.947   2.802   1.434 -0.3242  0.3408  0.5512
 8590SOL    HW234126   5.032   2.763   1.413 -0.8122 -0.4677  0.0384
 8590SOL    HW334127   4.906   2.817   1.349 -1.1430 -0.2991  0.8216
 8590SOL    MW434128   4.953   2.799   1.420 -0.0659 -0.3403 -0.2034
 8591SOL     OW34129   2.248   0.976   6.212  0.1330  0.1869 -0.3064
 8591SOL    HW234130   2.231   0.890   6.251 -0.8413  0.7059  0.4815
 8591SOL    HW334131   2.286   1.027   6.283 -0.6027  0.8100 -0.3411
 8591SOL    MW434132   2.250   0.971   6.226  0.4473 -0.3028  0.3966
 8592SOL     OW34133   1.923   1.227   5.903  0.1606 -0.4820 -0.1234
 8592SOL    HW234134   1.952   1.173   5.976 -0.0865 -0.2140  0.1772
 8592SOL    HW334135   1.832   1.199   5.887 -0.3921  0.6812  0.8392
 8592SOL    MW434136   1.915   1.216   5.911 -0.5299 -0.2416 -0.2247
 8593SOL     OW34137   4.623   6.050   6.227  0.4962 -0.1008 -0.3608
 8593SOL    HW234138   4.677   6.077   6.301  0.4979 -2.5665  0.6418
 8593SOL    HW334139   4.661   6.095   6.151  0.9887  1.8466  0.9657
 8593SOL    MW434140   4.635   6.060   6.226  0.0000  0.2842  0.1488
 8594SOL     OW34141   6.352   1.099   5.650 -0.0718 -0.4012 -0.1097
 8594SOL    HW234142   6.407   1.163   5.695 -0.6505  0.3643 -0.4650
 8594SOL    HW334143   6.285   1.075   5.714 -0.0206 -0.4407 -0.0706
 8594SOL    MW434144   6.350   1.105   5.664 -1.2862  0.1860  0.0679
 8595SOL     OW34145   2.412   2.111   0.700 -0.1473 -0.2580  0.5742
 8595SOL    HW234146   2.488   2.150   0.656 -1.1977  0.0368 -1.0707
 8595SOL    HW334147   2.449   2.048   0.761  1.4380  0.2441  0.1722
 8595SOL    MW434148   2.427   2.108   0.702 -0.0149  0.1910  0.4398
 8596SOL     OW34149   3.927   4.713   3.563 -0.1847  0.5118  0.6955
 8596SOL    HW234150   3.994   4.781   3.571 -0.6035  0.8207  1.8458
 8596SOL    HW334151   3.972   4.632   3.586  0.1669  0.4749 -0.0842
 8596SOL    MW434152   3.942   4.711   3.567 -0.1589  0.4759 -0.0325
 8597SOL     OW34153   0.313   3.153   3.955  0.0441  0.4220 -0.0337
 8597SOL    HW234154   0.357   3.072   3.930 -0.6689  0.3608 -1.1686
 8597SOL    HW334155   0.220   3.134   3.944 -0.1627  1.2086  0.2592
 8597SOL    MW434156   0.306   3.140   3.950  0.8855 -0.0207  0.5830
 8598SOL     OW34157   4.316   1.362   3.034 -0.0893  0.3503 -0.2421
 8598SOL    HW234158   4.286   1.360   3.125 -1.5323 -0.1959 -0.7087
 8598SOL    HW334159   4.279   1.443   2.998  1.4168  1.1595 -0.0736
 8598SOL    MW434160   4.307   1.372   3.041  0.6558 -0.0888 -0.2889
 8599SOL     OW34161   2.078   5.699   1.270  0.3682 -0.0572 -0.2064
 8599SOL    HW234162   2.003   5.643   1.288  0.6211 -1.0106 -1.8482
 8599SOL    HW334163   2.120   5.711   1.355 -1.8565  0.8887  0.8307
 8599SOL    MW434164   2.074   5.693   1.283 -0.1939 -0.2751 -0.2042
 8600SOL     OW34165   4.160   5.872   5.553  0.4339  0.5296  0.0847
 8600SOL    HW234166   4.130   5.869   5.644 -0.0093  2.1006  0.0264
 8600SOL    HW334167   4.254   5.854   5.558  0.1632 -0.8984  0.6597
 8600SOL    MW434168   4.168   5.869   5.565  0.1958  0.0946  0.3854
 8601SOL     OW34169   0.855   1.761   2.727 -0.1329  0.1529  0.4435
 8601SOL    HW234170   0.804   1.842   2.726 -1.0558 -0.3262 -2.8153
 8601SOL    HW334171   0.833   1.720   2.811 -1.6944  2.0104  1.0252
 8601SOL    MW434172   0.845   1.766   2.738 -1.1692 -0.4000  0.0057
 8602SOL     OW34173   5.329   2.585   5.985 -0.2076 -0.1979  0.3350
 8602SOL    HW234174   5.249   2.620   5.945  1.2362  0.3324 -2.2781
 8602SOL    HW334175   5.346   2.644   6.059 -0.6119  1.5910 -0.9226
 8602SOL    MW434176   5.320   2.598   5.990 -0.1375  0.2686 -0.0259
 8603SOL     OW34177   1.230   1.801   6.203  0.6182 -0.0282 -0.5292
 8603SOL    HW234178   1.221   1.819   6.110  1.0463 -0.2171 -0.6085
 8603SOL    HW334179   1.320   1.827   6.225  0.8040 -0.7808 -0.3619
 8603SOL    MW434180   1.241   1.806   6.194 -0.0911 -1.0509 -0.2452
 8604SOL     OW34181   4.322   2.228   5.870 -0.1565  0.0926 -0.4490
 8604SOL    HW234182   4.238   2.271   5.884 -1.0819 -1.1113 -1.9959
 8604SOL    HW334183   4.354   2.208   5.958 -1.1449  1.1862  0.1744
 8604SOL    MW434184   4.315   2.231   5.884  0.3503  0.2616  0.4795
 8605SOL     OW34185   3.613   4.020   2.461  0.4571  0.5172 -0.3075
 8605SOL    HW234186   3.631   3.939   2.508  0.6287  0.2559 -0.8256
 8605SOL    HW334187   3.546   3.997   2.397  0.1292  0.9044 -0.1100
 8605SOL    MW434188   3.606   4.006   2.459 -0.3039 -0.3872  0.3995
 8606SOL     OW34189   2.257   4.108   0.578 -0.1356 -0.3434 -0.0869
 8606SOL    HW234190   2.313   4.141   0.649  0.7182  0.0648 -0.9225
 8606SOL    HW334191   2.295   4.023   0.556 -0.4682 -0.5194  0.0209
 8606SOL    MW434192   2.269   4.102   0.585 -0.1647  0.0728  0.4160
 8607SOL     OW34193   1.063   3.920   5.072  0.4099  0.6819  0.3013
 8607SOL    HW234194   1.099   4.008   5.058 -0.0227  1.0344  1.3653
 8607SOL    HW334195   0.971   3.927   5.047  0.1938  0.7249  1.1031
 8607SOL    MW434196   1.056   3.933   5.067 -0.7570 -0.6689  0.3129
 8608SOL     OW34197   4.358   5.294   2.343  0.5093 -0.3950 -0.3842
 8608SOL    HW234198   4.349   5.310   2.249  0.1645  0.3801 -0.2314
 8608SOL    HW334199   4.283   5.238   2.364 -0.7201  1.2367 -0.1917
 8608SOL    MW434200   4.347   5.289   2.333 -0.6009  0.2287  0.1296
 8609SOL     OW34201   2.776   6.058   2.634 -0.0287  0.2877 -0.4808
 8609SOL    HW234202   2.717   6.133   2.624 -0.9162 -0.1575  0.9874
 8609SOL    HW334203   2.735   5.988   2.583 -0.8875 -0.0531  0.6257
 8609SOL    MW434204   2.763   6.058   2.626 -0.3129  0.7807  0.2612
 8610SOL     OW34205   0.960   3.136   3.765 -0.0433  0.2457  0.1964
 8610SOL    HW234206   1.020   3.203   3.799 -1.5893  1.3160  0.9000
 8610SOL    HW334207   0.910   3.107   3.841  0.5123 -1.6886 -0.1128
 8610SOL    MW434208   0.962   3.141   3.779  0.3056  0.3627 -0.0261
 8611SOL     OW34209   5.554   0.452   2.966 -0.2093  0.4134 -0.9695
 8611SOL    HW234210   5.642   0.481   2.993  0.4729 -4.0347  2.9295
 8611SOL    HW334211   5.496   0.489   3.032 -0.6031 -0.1384 -1.0097
 8611SOL    MW434212   5.558   0.461   2.978 -0.0476  0.0151  0.4180
 8612SOL     OW34213   4.968   4.640   2.894 -0.9333 -0.0133  0.5307
 8612SOL    HW234214   5.060   4.619   2.912 -1.1462 -2.5178 -0.7661
 8612SOL    HW334215   4.972   4.714   2.834  0.3621 -0.9322 -0.6090
 8612SOL    MW434216   4.981   4.647   2.888 -0.1227  0.1452 -0.1110
 8613SOL     OW34217   2.857   4.524   3.747 -0.6162 -0.1843  0.0743
 8613SOL    HW234218   2.884   4.444   3.702 -0.3984 -0.5842  0.9007
 8613SOL    HW334219   2.925   4.587   3.726  0.2660 -0.7930  1.0168
 8613SOL    MW434220   2.869   4.522   3.738  0.4198  0.1988 -0.5693
 8614SOL     OW34221   4.450   2.034   1.161 -0.0891 -0.0887  0.1418
 8614SOL    HW234222   4.444   1.982   1.081  0.6321  2.3839 -1.6488
 8614SOL    HW334223   4.361   2.036   1.196 -0.8450  0.3724 -1.7211
 8614SOL    MW434224   4.437   2.028   1.155 -0.0153  0.2373 -0.4877
 8615SOL     OW34225   4.339   2.150   3.818 -0.3606  0.1085  0.0182
 8615SOL    HW234226   4.331   2.098   3.738  1.0200  1.6189 -1.1793
 8615SOL    HW334227   4.348   2.085   3.888 -1.6006 -1.2584 -1.0200
 8615SOL    MW434228   4.339   2.134   3.816 -0.5548 -0.1872  0.6472
 8616SOL     OW34229   2.759   5.561   3.968  0.2180  0.0298 -0.2009
 8616SOL    HW234230   2.672   5.523   3.958 -0.3658  0.9687  1.0900
 8616SOL    HW334231   2.770   5.616   3.891 -0.3948  0.0333 -0.2895
 8616SOL    MW434232   2.749   5.563   3.957 -0.1863 -0.5940  0.2769
 8617SOL     OW34233   0.120   2.027   0.802 -0.4430  0.2158 -0.5157
 8617SOL    HW234234   0.112   2.120   0.782 -0.3521  0.4394  0.4398
 8617SOL    HW334235   0.038   1.988   0.771 -0.5132  0.6282 -0.8463
 8617SOL    MW434236   0.108   2.034   0.796 -0.4722  0.2008 -0.1069
 8618SOL     OW34237   1.602   4.330   5.569  0.5272  0.1730  0.4089
 8618SOL    HW234238   1.693   4.339   5.540  0.5119  1.3777  0.6852
 8618SOL    HW334239   1.550   4.347   5.490  0.5187  1.8006  0.7281
 8618SOL    MW434240   1.607   4.334   5.554  0.0708  0.2014 -0.2742
 8619SOL     OW34241   5.149   5.624   2.219 -0.1385 -0.0682 -0.3545
 8619SOL    HW234242   5.098   5.546   2.242  1.8090 -1.3841 -0.2888
 8619SOL    HW334243   5.127   5.641   2.128 -2.6134  0.9990  0.3342
 8619SOL    MW434244   5.139   5.616   2.210  0.0689  0.1369  0.1966
 8620SOL     OW34245   6.154   3.534   2.732 -0.3448  0.0115 -0.1354
 8620SOL    HW234246   6.227   3.485   2.770  0.3483  0.4979 -0.8007
 8620SOL    HW334247   6.077   3.480   2.749  0.5062 -1.7576 -1.5820
 8620SOL    MW434248   6.154   3.520   2.739 -0.9399  0.2819  0.7067
 8621SOL     OW34249   5.076   4.250   3.035  0.1796  0.1039  0.4441
 8621SOL    HW234250   5.052   4.329   3.084  2.2983  0.4615  0.9988
 8621SOL    HW334251   5.148   4.212   3.085 -0.4102 -1.8796 -0.1429
 8621SOL    MW434252   5.082   4.256   3.048 -0.1028 -0.1549  0.0289
 8622SOL     OW34253   0.538   4.718   5.201  0.2985  0.2435 -0.2615
 8622SOL    HW234254   0.555   4.633   5.242 -1.9628 -0.2266 -0.1821
 8622SOL    HW334255   0.625   4.758   5.193  1.2182 -1.2085  1.5410
 8622SOL    MW434256   0.552   4.712   5.205 -0.1979  0.7106 -0.0136
 8623SOL     OW34257   6.247   0.422   1.098  0.5132 -0.1350 -0.3944
 8623SOL    HW234258   6.273   0.390   1.184  1.1475 -0.5674 -0.7485
 8623SOL    HW334259   6.166   0.471   1.115  1.3362  0.9221  0.6561
 8623SOL    MW434260   6.239   0.425   1.112  0.3230 -0.3153  0.0120
 8624SOL     OW34261   0.578   5.100   3.241  0.2429  0.3190 -0.2106
 8624SOL    HW234262   0.555   5.049   3.163  1.9589  0.0254 -0.5695
 8624SOL    HW334263   0.507   5.163   3.250 -1.1058 -1.0845 -0.6952
 8624SOL    MW434264   0.566   5.102   3.232  0.3267  0.3829 -0.3390
 8625SOL     OW34265   5.822   4.315   4.880  0.2616 -0.2050 -0.4134
 8625SOL    HW234266   5.776   4.370   4.817 -0.0912 -0.5677 -0.4784
 8625SOL    HW334267   5.752   4.267   4.925  0.5355 -0.2621 -0.0399
 8625SOL    MW434268   5.807   4.316   4.878 -0.0256 -0.3670  0.0635
 8626SOL     OW34269   0.272   1.154   0.685  0.4575 -0.4946 -0.0505
 8626SOL    HW234270   0.276   1.210   0.608  0.5973  0.2367  0.4729
 8626SOL    HW334271   0.294   1.212   0.758  1.2675 -1.3931  0.4368
 8626SOL    MW434272   0.275   1.169   0.684  0.3228  0.0168 -0.1050
 8627SOL     OW34273   1.046   5.080   4.965  0.2538  0.1058  0.5447
 8627SOL    HW234274   0.974   5.030   4.926 -1.4665  1.1124  2.2868
 8627SOL    HW334275   1.065   5.148   4.900 -1.0470  0.4077  0.4494
 8627SOL    MW434276   1.039   5.082   4.951 -0.1248 -0.2663  0.2848
 8628SOL     OW34277   5.235   3.405   4.415  0.2820  0.1149  0.6718
 8628SOL    HW234278   5.246   3.496   4.442  0.4285 -0.1752  1.6560
 8628SOL    HW334279   5.157   3.375   4.463 -0.1178 -0.1057 -0.1091
 8628SOL    MW434280   5.226   3.413   4.425 -0.5813  0.0412 -0.8230
 8629SOL     OW34281   2.661   0.410   5.928  0.8847 -0.0217 -0.0638
 8629SOL    HW234282   2.618   0.468   5.990  0.7132 -1.6855  1.4410
 8629SOL    HW334283   2.643   0.450   5.842 -3.3203 -0.3303  0.4462
 8629SOL    MW434284   2.653   0.423   5.925  0.0067 -0.0599 -0.5598
 8630SOL     OW34285   4.944   3.678   5.509  0.3823 -0.3970  0.2126
 8630SOL    HW234286   5.007   3.633   5.565 -0.2809 -0.7209  0.7093
 8630SOL    HW334287   4.863   3.680   5.560  0.6431  2.2878  0.6567
 8630SOL    MW434288   4.942   3.673   5.523  0.3218  0.1664 -0.1192
 8631SOL     OW34289   4.074   3.519   0.963  0.2381  0.3789  0.1155
 8631SOL    HW234290   4.150   3.572   0.989  0.8548 -0.4501  0.0657
 8631SOL    HW334291   4.028   3.500   1.044 -0.2567  1.3902  0.0751
 8631SOL    MW434292   4.078   3.523   0.977  0.1682 -0.4225 -0.0356
 8632SOL     OW34293   0.165   4.900   3.689  0.4905 -0.1299 -0.5405
 8632SOL    HW234294   0.196   4.816   3.720  1.2495 -0.0699 -1.1099
 8632SOL    HW334295   0.222   4.922   3.616 -1.2859 -0.3264 -2.0714
 8632SOL    MW434296   0.176   4.892   3.683 -0.0815  0.4308  0.1257
 8633SOL     OW34297   3.380   2.796   3.007  0.1822  0.1655 -0.1836
 8633SOL    HW234298   3.382   2.891   3.003  0.4401  0.1322 -1.3036
 8633SOL    HW334299   3.338   2.770   2.925  0.6910 -0.6996 -0.1802
 8633SOL    MW434300   3.375   2.805   2.996 -0.5757 -0.1516 -0.1250
 8634SOL     OW34301   2.920   5.419   3.079 -0.1322 -0.0113  0.1326
 8634SOL    HW234302   2.955   5.344   3.030 -0.3490 -0.1112  0.1293
 8634SOL    HW334303   2.998   5.461   3.117 -0.0258 -0.3726  0.3254
 8634SOL    MW434304   2.935   5.415   3.078 -0.1312  0.4378  0.4154
 8635SOL     OW34305   5.759   0.358   6.169 -0.1316 -0.0078  0.1330
 8635SOL    HW234306   5.736   0.301   6.242  1.6955  0.5564  1.2170
 8635SOL    HW334307   5.810   0.302   6.110 -1.6918 -0.4905 -0.8201
 8635SOL    MW434308   5.762   0.343   6.171  0.5241 -0.8353 -0.2955
 8636SOL     OW34309   5.032   6.074   3.896  0.2043 -0.4374 -0.2922
 8636SOL    HW234310   5.008   6.118   3.814 -1.6647 -1.2108 -0.2083
 8636SOL    HW334311   4.983   5.992   3.894  1.7628 -1.4292  0.6605
 8636SOL    MW434312   5.022   6.069   3.885  0.6600 -0.4332 -0.0057
 8637SOL     OW34313   0.230   3.855   5.585  0.2204  0.3862  0.0892
 8637SOL    HW234314   0.135   3.866   5.574  0.2784 -0.2700 -1.2651
 8637SOL    HW334315   0.269   3.904   5.513  0.9937  1.7231  1.3853
 8637SOL    MW434316   0.222   3.863   5.574 -0.0912  0.4340 -0.3660
 8638SOL     OW34317   4.658   0.377   2.940 -0.5723  0.8440  0.2648
 8638SOL    HW234318   4.733   0.409   2.990 -0.4039  1.5742 -0.4186
 8638SOL    HW334319   4.591   0.359   3.005 -0.3190  1.6634  0.7729
 8638SOL    MW434320   4.659   0.379   2.955  0.7360 -0.2319  0.2509
 8639SOL     OW34321   6.021   4.245   6.330 -0.0309 -0.2790 -0.0061
 8639SOL    HW234322   6.084   4.307   6.367 -0.3027  1.1195 -1.7172
 8639SOL    HW334323   5.937   4.271   6.368 -0.3491  1.3078 -1.6400
 8639SOL    MW434324   6.018   4.256   6.340 -0.3075  0.5992  0.4371
 8640SOL     OW34325   2.063   3.145   2.659 -0.9533 -0.2284  0.4464
 8640SOL    HW234326   2.026   3.232   2.677  1.6413  0.9279  0.6180
 8640SOL    HW334327   2.076   3.144   2.564 -0.3099 -0.1057  0.5257
 8640SOL    MW434328   2.060   3.156   2.649  0.0188  0.0118  0.3299
 8641SOL     OW34329   0.266   5.216   6.211  0.2423 -0.2376 -0.7177
 8641SOL    HW234330   0.347   5.255   6.179  1.1407  1.3253  2.9472
 8641SOL    HW334331   0.200   5.283   6.198  0.6433  0.4663  0.6768
 8641SOL    MW434332   0.268   5.230   6.205 -1.0606 -0.3440 -0.3291
 8642SOL     OW34333   2.404   4.680   4.693  0.6497 -0.0974  0.3134
 8642SOL    HW234334   2.349   4.714   4.763 -0.6172 -0.2277 -0.5932
 8642SOL    HW334335   2.460   4.616   4.736  0.2748  0.2124  1.2975
 8642SOL    MW434336   2.404   4.676   4.708  0.0230 -0.3523  0.2616
 8643SOL     OW34337   0.285   5.132   0.776 -0.3837  0.2682  0.7827
 8643SOL    HW234338   0.234   5.059   0.742 -1.3446  0.4305  1.8096
 8643SOL    HW334339   0.360   5.091   0.819  0.2617  0.0179 -0.5194
 8643SOL    MW434340   0.289   5.117   0.777  0.0186  0.8020  0.2280
 8644SOL     OW34341   4.292   2.415   1.618  0.0744 -0.2757  0.6827
 8644SOL    HW234342   4.315   2.411   1.711  1.5962 -0.9754  0.3034
 8644SOL    HW334343   4.363   2.466   1.578  0.2061 -1.2029 -0.3044
 8644SOL    MW434344   4.305   2.421   1.625 -0.0628  0.4177  0.0209
 8645SOL     OW34345   0.089   4.247   0.350  0.2154  0.2450 -0.1979
 8645SOL    HW234346   0.156   4.181   0.331  0.5553  0.3575  0.5679
 8645SOL    HW334347   0.132   4.330   0.331 -0.1519  0.2648 -0.9831
 8645SOL    MW434348   0.104   4.249   0.345 -0.5387  0.0989  0.2609
 8646SOL     OW34349   3.147   3.253   4.453  0.5286  0.5369  0.0994
 8646SOL    HW234350   3.052   3.240   4.459  0.5510 -0.8835 -1.7221
 8646SOL    HW334351   3.181   3.210   4.532 -0.4073  3.0879  2.0291
 8646SOL    MW434352   3.139   3.246   4.464  0.6043 -0.3324 -0.2305
 8647SOL     OW34353   0.797   2.026   2.536  0.2802  0.0779 -0.3014
 8647SOL    HW234354   0.790   2.121   2.531  1.0088  0.1175 -0.8912
 8647SOL    HW334355   0.707   1.994   2.532  0.1006  0.6908 -1.5388
 8647SOL    MW434356   0.784   2.035   2.535 -0.2860 -0.8700  0.2531
 8648SOL     OW34357   0.859   2.468   4.981  0.0985 -0.5322  0.5571
 8648SOL    HW234358   0.953   2.475   4.968 -0.0009 -0.4980 -0.2268
 8648SOL    HW334359   0.846   2.481   5.074  0.9669 -1.6152  0.8474
 8648SOL    MW434360   0.869   2.471   4.991 -0.5958 -0.2360 -0.5787
 8649SOL     OW34361   0.791   1.712   1.233  0.4658  0.0984  0.4093
 8649SOL    HW234362   0.738   1.721   1.313  0.5773 -0.3382  0.5344
 8649SOL    HW334363   0.751   1.773   1.171 -0.2260 -0.2705  0.4801
 8649SOL    MW434364   0.779   1.722   1.236 -0.2907  0.2525  0.9242
 8650SOL     OW34365   5.712   3.700   1.070  0.0593 -0.1246 -0.2475
 8650SOL    HW234366   5.759   3.640   1.127  1.7711  0.0952 -1.3448
 8650SOL    HW334367   5.709   3.655   0.985  0.1051  0.7216 -0.7118
 8650SOL    MW434368   5.718   3.686   1.066  0.0272 -0.7521  0.4693
 8651SOL     OW34369   4.465   0.537   0.209 -0.5071  0.4310 -0.4882
 8651SOL    HW234370   4.473   0.567   0.119 -0.4199  1.2543 -0.2129
 8651SOL    HW334371   4.486   0.613   0.262 -0.0666 -0.1804  0.2362
 8651SOL    MW434372   4.469   0.551   0.204 -0.2956 -0.1766  0.3837
 8652SOL     OW34373   1.427   3.604   5.752  0.5260  0.2493 -0.1066
 8652SOL    HW234374   1.400   3.688   5.713  0.3564  0.3383  0.2038
 8652SOL    HW334375   1.402   3.539   5.687 -1.8417  0.1621  0.8059
 8652SOL    MW434376   1.420   3.607   5.738  0.1158 -0.3907 -0.0583
 8653SOL     OW34377   1.226   2.118   2.414 -0.0398  0.4572  0.2815
 8653SOL    HW234378   1.148   2.174   2.420  0.4849  1.3645 -0.9605
 8653SOL    HW334379   1.265   2.122   2.502 -2.8832 -2.3778  1.8936
 8653SOL    MW434380   1.221   2.126   2.427 -0.2890  0.3603  0.5797
 8654SOL     OW34381   3.826   4.567   5.484 -0.1352  0.1107 -0.1561
 8654SOL    HW234382   3.888   4.496   5.499  0.7805  1.0064  0.4884
 8654SOL    HW334383   3.761   4.531   5.424 -0.0753 -1.4732  0.6684
 8654SOL    MW434384   3.825   4.553   5.478 -0.2510 -0.5366  0.3778
 8655SOL     OW34385   2.193   4.078   2.481 -0.5426 -0.0957  0.2602
 8655SOL    HW234386   2.119   4.028   2.447  0.3011 -3.2356  2.5177
 8655SOL    HW334387   2.257   4.011   2.507  2.7583  2.4105 -0.7417
 8655SOL    MW434388   2.192   4.062   2.480  0.1116 -0.5257  0.7287
 8656SOL     OW34389   5.799   1.313   0.546  0.4623  0.1586  0.5079
 8656SOL    HW234390   5.737   1.241   0.533  1.7907 -1.2789  1.5674
 8656SOL    HW334391   5.797   1.330   0.640  0.7871  0.9231  0.3872
 8656SOL    MW434392   5.791   1.305   0.557 -0.0327 -0.1078 -0.7761
 8657SOL     OW34393   4.745   3.096   1.342  0.3098  0.5464  0.1092
 8657SOL    HW234394   4.693   3.025   1.304  1.3716 -1.1496  1.6871
 8657SOL    HW334395   4.684   3.169   1.347 -1.3314 -0.7383 -0.0332
 8657SOL    MW434396   4.730   3.096   1.337 -0.0353  0.1456  0.1948
 8658SOL     OW34397   3.248   5.360   2.348 -1.4832 -0.5316 -0.5591
 8658SOL    HW234398   3.177   5.424   2.340  0.4433  1.8837  0.2516
 8658SOL    HW334399   3.310   5.386   2.279 -0.1346 -0.7758  0.5282
 8658SOL    MW434400   3.247   5.372   2.338 -0.6019 -0.0487  0.0944
 8659SOL     OW34401   3.623   3.517   0.158 -0.4999 -0.0778  0.1961
 8659SOL    HW234402   3.590   3.601   0.126 -0.8031  0.4254  1.7563
 8659SOL    HW334403   3.682   3.540   0.230  0.4076 -1.1510 -0.1753
 8659SOL    MW434404   3.626   3.531   0.163  0.3382  0.0851 -0.1831
 8660SOL     OW34405   1.875   5.901   5.344 -0.4726  0.0637 -0.6175
 8660SOL    HW234406   1.819   5.977   5.328  2.1249  2.2862  0.1835
 8660SOL    HW334407   1.928   5.893   5.265  0.9008  0.6304  0.2094
 8660SOL    MW434408   1.874   5.910   5.331 -0.0831 -0.9206  0.5954
 8661SOL     OW34409   4.672   3.555   2.513  0.3533 -0.1078  1.0373
 8661SOL    HW234410   4.671   3.625   2.448  0.0028 -0.9633  0.1080
 8661SOL    HW334411   4.671   3.601   2.597 -0.5442  0.9915  0.4528
 8661SOL    MW434412   4.672   3.570   2.515 -0.0515  0.3219 -0.1894
 8662SOL     OW34413   0.063   2.878   1.980  0.0213 -0.1270  0.0273
 8662SOL    HW234414  -0.001   2.945   1.961 -0.3442 -1.0852 -2.5299
 8662SOL    HW334415   0.074   2.880   2.075 -1.1669  2.3897  0.1634
 8662SOL    MW434416   0.056   2.887   1.990 -0.6892  0.2742  0.2218
 8663SOL     OW34417   1.022   6.003   6.035  0.0859 -0.0858  0.2082
 8663SOL    HW234418   0.965   6.018   6.111 -0.6251  0.2936 -0.3940
 8663SOL    HW334419   1.030   6.089   5.994 -1.7382 -0.7544 -1.6791
 8663SOL    MW434420   1.016   6.016   6.040 -0.1823 -0.2059  0.7148
 8664SOL     OW34421   0.483   2.010   0.487 -0.1426  0.9263  0.3491
 8664SOL    HW234422   0.569   2.048   0.510  0.0614  0.9130 -0.3752
 8664SOL    HW334423   0.446   2.072   0.424 -0.1422  0.3058 -0.2632
 8664SOL    MW434424   0.490   2.023   0.482  0.1049 -0.4852  0.3191
 8665SOL     OW34425   5.205   6.171   1.608  0.3466  0.1064 -0.3072
 8665SOL    HW234426   5.292   6.163   1.568  0.6044 -1.0421  0.4304
 8665SOL    HW334427   5.183   6.082   1.635 -0.7962  0.4913  0.0744
 8665SOL    MW434428   5.214   6.158   1.606  0.5746  0.0993  0.6717
 8666SOL     OW34429   5.966   4.313   3.267  0.6642 -1.0523  0.3261
 8666SOL    HW234430   5.981   4.234   3.215  1.5207 -1.0062  0.4835
 8666SOL    HW334431   6.051   4.358   3.267  0.1959 -0.1384  0.2502
 8666SOL    MW434432   5.980   4.309   3.260  0.3475  0.2916  0.1577
 8667SOL     OW34433   4.353   3.855   2.307  0.0600  0.4531 -0.2288
 8667SOL    HW234434   4.439   3.818   2.327  0.0608 -0.2671 -1.4325
 8667SOL    HW334435   4.370   3.921   2.240 -0.4352 -0.5939 -1.4300
 8667SOL    MW434436   4.367   3.859   2.300 -0.1741 -0.1192  0.0950
 8668SOL     OW34437   4.213   3.122   2.330 -0.0173  0.2689  0.5669
 8668SOL    HW234438   4.235   3.214   2.347 -2.5727  0.8838  0.8779
 8668SOL    HW334439   4.162   3.124   2.249  1.7212 -1.2016 -0.6547
 8668SOL    MW434440   4.209   3.134   2.321  0.4553  0.3171 -0.5933
 8669SOL     OW34441   3.936   4.344   0.146  0.5580  0.2107 -0.1310
 8669SOL    HW234442   3.954   4.269   0.201  1.3747 -0.0112 -0.6901
 8669SOL    HW334443   3.867   4.314   0.086 -0.7941  0.6488  1.1433
 8669SOL    MW434444   3.929   4.331   0.145 -0.0483 -0.6733 -0.2115
 8670SOL     OW34445   3.006   0.094   2.548  0.0883  0.8288 -0.0325
 8670SOL    HW234446   3.030   0.173   2.500  0.1970  0.4753 -0.5740
 8670SOL    HW334447   3.086   0.041   2.549 -0.0799  0.5710  0.0113
 8670SOL    MW434448   3.020   0.097   2.542 -0.7186 -0.0022  0.0155
 8671SOL     OW34449   3.369   4.948   0.436  0.0318  0.0389  0.0829
 8671SOL    HW234450   3.311   4.968   0.362 -0.7883 -0.4133  0.5860
 8671SOL    HW334451   3.399   5.034   0.466 -0.0869  0.2596 -0.4142
 8671SOL    MW434452   3.365   4.962   0.430  0.4459 -0.2369  0.4800
 8672SOL     OW34453   4.588   0.109   1.942  0.0660  0.4457 -0.3172
 8672SOL    HW234454   4.658   0.050   1.914 -0.6378  0.2553 -1.7693
 8672SOL    HW334455   4.634   0.190   1.966  0.8512  0.0477 -0.4397
 8672SOL    MW434456   4.603   0.112   1.941  0.1426 -0.1493  0.2043
 8673SOL     OW34457   1.724   3.490   0.840  0.3614 -0.8681  0.6653
 8673SOL    HW234458   1.685   3.435   0.773 -1.3611  1.2437 -0.2028
 8673SOL    HW334459   1.673   3.474   0.919  0.0057 -0.7114  0.4707
 8673SOL    MW434460   1.712   3.481   0.842  0.3774  0.4496  0.1073
 8674SOL     OW34461   5.018   0.198   4.120 -0.6239 -0.5421 -0.1896
 8674SOL    HW234462   5.046   0.182   4.210 -0.8416 -2.5748 -0.4500
 8674SOL    HW334463   5.074   0.142   4.067  0.5442  1.7289 -1.5273
 8674SOL    MW434464   5.029   0.189   4.125 -0.1717  0.2080  0.1043
 8675SOL     OW34465   4.395   6.123   6.359 -0.1369 -0.4036 -0.0681
 8675SOL    HW234466   4.340   6.178   6.302  1.1594  0.5402 -0.4559
 8675SOL    HW334467   4.472   6.104   6.305  0.9448  0.1922  1.2247
 8675SOL    MW434468   4.398   6.128   6.344  0.0445 -0.1827 -0.0387
 8676SOL     OW34469   4.313   2.611   5.181 -0.4706  0.4703  0.2597
 8676SOL    HW234470   4.322   2.704   5.203 -2.0882  0.6770  0.1689
 8676SOL    HW334471   4.366   2.600   5.101  0.9989  0.9277  1.1222
 8676SOL    MW434472   4.321   2.622   5.173 -0.2996 -0.1555 -0.4761
 8677SOL     OW34473   0.528   5.983   3.813 -0.2657  0.5080 -0.1180
 8677SOL    HW234474   0.593   5.937   3.866 -2.2570 -2.8232 -0.2388
 8677SOL    HW334475   0.569   6.067   3.790  3.2463 -0.7017  1.1367
 8677SOL    MW434476   0.542   5.988   3.817 -0.7441  0.1071  0.0974
 8678SOL     OW34477   4.528   3.493   4.672 -0.0203  0.0763 -0.4734
 8678SOL    HW234478   4.546   3.587   4.674  0.9758 -0.0024 -2.6716
 8678SOL    HW334479   4.613   3.452   4.658  0.1828 -1.5314  3.8441
 8678SOL    MW434480   4.541   3.500   4.671  0.4203  0.4970  0.2003
 8679SOL     OW34481   1.947   2.331   5.149  0.4284 -0.3304 -0.2657
 8679SOL    HW234482   1.862   2.297   5.177  0.6715 -2.4513 -1.8306
 8679SOL    HW334483   1.925   2.392   5.078  0.2031 -1.4552 -1.1952
 8679SOL    MW434484   1.933   2.335   5.143 -0.3268 -0.0164  0.0473
 8680SOL     OW34485   4.754   2.282   5.848 -0.2963 -0.0342 -0.2038
 8680SOL    HW234486   4.699   2.208   5.874 -1.0164 -0.3943 -2.5876
 8680SOL    HW334487   4.841   2.244   5.836 -0.5280 -0.3608 -0.8254
 8680SOL    MW434488   4.759   2.267   5.850  0.0033 -0.6495  0.1254
 8681SOL     OW34489   1.068   4.006   5.742  0.2243  0.2358  0.3582
 8681SOL    HW234490   0.993   3.950   5.720  0.2101  0.0279  0.9002
 8681SOL    HW334491   1.086   4.055   5.662 -1.4298  1.3889  0.6348
 8681SOL    MW434492   1.061   4.005   5.729 -0.2471 -0.1109 -0.5205
 8682SOL     OW34493   3.118   5.387   3.847 -0.6661  0.2485 -0.5191
 8682SOL    HW234494   3.137   5.474   3.881 -1.6710  1.1158 -2.0613
 8682SOL    HW334495   3.034   5.396   3.803 -0.8213 -1.5302 -0.6588
 8682SOL    MW434496   3.110   5.400   3.846  0.2164  0.1049 -0.0242
 8683SOL     OW34497   1.635   0.803   4.099 -0.4151  0.2048  0.8103
 8683SOL    HW234498   1.597   0.725   4.058  0.9695 -0.4335  0.6721
 8683SOL    HW334499   1.670   0.771   4.183 -0.5314  0.8466  1.1073
 8683SOL    MW434500   1.635   0.789   4.105  0.4204  0.2244  0.2609
 8684SOL     OW34501   5.289   5.569   1.372 -0.2847 -0.1134 -0.0546
 8684SOL    HW234502   5.342   5.648   1.377 -0.4797 -0.0598  1.7442
 8684SOL    HW334503   5.349   5.502   1.338  0.6495  0.2131  0.8714
 8684SOL    MW434504   5.304   5.570   1.368 -0.2324 -0.2841 -0.4399
 8685SOL     OW34505   6.295   4.883   0.752  0.3214  0.3642 -0.5590
 8685SOL    HW234506   6.249   4.873   0.669  0.7830  1.2751 -0.9305
 8685SOL    HW334507   6.262   4.811   0.806  0.4290 -0.5874 -1.7135
 8685SOL    MW434508   6.284   4.872   0.748  0.0573  0.1489 -0.0291
 8686SOL     OW34509   0.237   2.610   2.820 -0.2971  0.4233 -0.1988
 8686SOL    HW234510   0.224   2.671   2.892 -0.2037  0.5756 -0.3103
 8686SOL    HW334511   0.328   2.624   2.793  0.2699 -0.9771  0.9063
 8686SOL    MW434512   0.248   2.620   2.826  0.4303 -0.1027  0.5242
 8687SOL     OW34513   1.155   4.706   4.082 -0.1061 -0.1197  0.2989
 8687SOL    HW234514   1.146   4.664   4.167  0.5751 -2.4441 -0.6940
 8687SOL    HW334515   1.066   4.719   4.051 -0.3326 -0.7607  0.6816
 8687SOL    MW434516   1.142   4.702   4.089  0.0128 -1.1328  0.2018
 8688SOL     OW34517   5.127   0.134   2.396 -0.0362 -0.1462  0.0203
 8688SOL    HW234518   5.079   0.177   2.466 -1.0114  1.8967 -1.7949
 8688SOL    HW334519   5.211   0.109   2.436  0.1130  2.4105  1.5292
 8688SOL    MW434520   5.132   0.136   2.410  0.0454 -0.6879  0.6255
 8689SOL     OW34521   2.606   4.432   0.861  0.4826 -0.2424  0.1792
 8689SOL    HW234522   2.588   4.474   0.945 -0.4558  1.9996 -1.0608
 8689SOL    HW334523   2.666   4.492   0.816 -0.9939 -0.0869 -1.7117
 8689SOL    MW434524   2.612   4.446   0.866 -0.3406  0.2116  0.2891
 8690SOL     OW34525   2.743   5.587   3.218  1.0159 -0.4320 -0.2113
 8690SOL    HW234526   2.746   5.676   3.182 -1.2417  0.3623  1.3145
 8690SOL    HW334527   2.679   5.542   3.163  1.6566 -0.9393 -0.5580
 8690SOL    MW434528   2.735   5.593   3.206 -0.5618  0.6889 -0.7600
 8691SOL     OW34529   3.482   1.539   0.349  0.5431  0.1453  0.2697
 8691SOL    HW234530   3.386   1.543   0.351  0.4668  1.6464 -1.9513
 8691SOL    HW334531   3.508   1.526   0.440 -1.7604 -0.4081  0.9153
 8691SOL    MW434532   3.473   1.538   0.361 -0.1220 -0.5118 -0.2462
 8692SOL     OW34533   1.604   1.264   2.445  0.2758 -0.3559  0.1145
 8692SOL    HW234534   1.525   1.318   2.446  0.7131  0.3504 -1.0088
 8692SOL    HW334535   1.665   1.312   2.389  1.0740 -1.4892 -0.0253
 8692SOL    MW434536   1.602   1.277   2.438 -0.0643 -0.7346 -0.1448
 8693SOL     OW34537   3.536   4.295   5.092 -0.4165  0.0921 -0.3912
 8693SOL    HW234538   3.474   4.316   5.161  0.3997  1.3198  0.0031
 8693SOL    HW334539   3.520   4.202   5.072  0.2770 -0.7446  2.4287
 8693SOL    MW434540   3.526   4.285   5.098 -0.3940  0.3288  0.1897
 8694SOL     OW34541   4.973   2.495   4.706 -1.0584  0.0048 -0.0598
 8694SOL    HW234542   5.028   2.533   4.775 -0.7990 -0.6728  0.1235
 8694SOL    HW334543   4.901   2.453   4.753  0.2105 -2.2906  0.0215
 8694SOL    MW434544   4.971   2.494   4.721 -0.0865  0.2658 -0.2756
 8695SOL     OW34545   2.644   5.602   0.742  0.2880 -0.7339  0.0583
 8695SOL    HW234546   2.646   5.537   0.812 -1.1277 -1.1225 -0.2208
 8695SOL    HW334547   2.584   5.565   0.677 -3.3040  2.2492  1.3222
 8695SOL    MW434548   2.637   5.588   0.742 -0.7379  0.2758  0.1199
 8696SOL     OW34549   3.016   1.544   1.226  0.2303  0.2712 -0.1152
 8696SOL    HW234550   3.047   1.560   1.136 -0.1492  1.5959 -0.0296
 8696SOL    HW334551   2.955   1.470   1.218 -2.2433  2.3146 -1.5095
 8696SOL    MW434552   3.012   1.536   1.213 -0.7577 -0.6162  0.0348
 8697SOL     OW34553   4.033   1.071   2.088 -0.0944 -0.3508 -0.6669
 8697SOL    HW234554   3.976   0.996   2.103 -0.1197 -1.1489 -3.9446
 8697SOL    HW334555   4.121   1.040   2.109 -0.1933 -1.1182 -1.3391
 8697SOL    MW434556   4.037   1.057   2.092 -0.8065  0.0565  0.1240
 8698SOL     OW34557   1.311   5.805   1.645  0.7731 -0.2302  0.6324
 8698SOL    HW234558   1.345   5.777   1.730  2.1648 -1.0136 -0.1475
 8698SOL    HW334559   1.307   5.901   1.651  1.8558 -0.2069  1.2306
 8698SOL    MW434560   1.315   5.814   1.657 -0.5606  0.5259  0.7620
 8699SOL     OW34561   4.469   2.945   1.092 -0.2190 -0.2116 -0.2493
 8699SOL    HW234562   4.542   2.995   1.054  0.5188 -0.1338  1.1859
 8699SOL    HW334563   4.393   2.971   1.041  0.0008  2.8980  0.7613
 8699SOL    MW434564   4.469   2.955   1.081 -0.2327 -0.0084 -0.7078
 8700SOL     OW34565   5.442   3.517   4.117 -0.1169 -0.5162 -0.2138
 8700SOL    HW234566   5.407   3.447   4.062 -0.1914  1.8500 -3.4209
 8700SOL    HW334567   5.500   3.567   4.059  0.4137  1.7568  2.0738
 8700SOL    MW434568   5.445   3.514   4.102  0.4289  0.3561 -0.8802
 8701SOL     OW34569   1.825   2.782   5.948  0.1791 -0.8019  0.0356
 8701SOL    HW234570   1.747   2.823   5.910  0.9051  0.8263  0.2270
 8701SOL    HW334571   1.790   2.714   6.005 -1.2365  1.1036  1.6020
 8701SOL    MW434572   1.810   2.778   5.950  0.6084 -0.1015  0.5363
 8702SOL     OW34573   1.614   3.788   6.277 -0.4190  0.1546 -0.3759
 8702SOL    HW234574   1.628   3.777   6.183  0.7644 -0.6109 -0.1335
 8702SOL    HW334575   1.593   3.700   6.308 -0.4444  0.3395  0.1298
 8702SOL    MW434576   1.613   3.775   6.269 -0.2534  1.0176  0.1578
 8703SOL     OW34577   4.898   6.314   4.097  0.4086 -0.3986  0.3787
 8703SOL    HW234578   4.826   6.278   4.045 -0.3124  1.5569 -0.0629
 8703SOL    HW334579   4.953   6.360   4.033  2.4185 -2.2980  0.6188
 8703SOL    MW434580   4.895   6.315   4.081 -0.0358 -0.3473  0.5120
 8704SOL     OW34581   4.550   0.246   3.644 -0.3263  0.7904 -0.2133
 8704SOL    HW234582   4.563   0.318   3.706 -1.1754  0.5482  0.2692
 8704SOL    HW334583   4.621   0.184   3.663 -1.4696 -0.0386  1.6468
 8704SOL    MW434584   4.561   0.247   3.655  0.3329 -0.3958  0.5776
 8705SOL     OW34585   5.687   1.229   4.828  0.1686  0.1675 -0.5104
 8705SOL    HW234586   5.731   1.194   4.906  1.0404  0.2344 -0.9675
 8705SOL    HW334587   5.724   1.316   4.816 -0.6195  0.5151 -0.4839
 8705SOL    MW434588   5.698   1.236   4.837 -0.3702  0.1135  0.2668
 8706SOL     OW34589   4.726   6.302   5.335 -0.2166  0.0779 -0.0809
 8706SOL    HW234590   4.643   6.341   5.305 -0.1888  1.8761  1.8920
 8706SOL    HW334591   4.700   6.222   5.380 -0.8347  0.3523  0.0661
 8706SOL    MW434592   4.712   6.297   5.337 -0.2600 -1.2025  0.5410
 8707SOL     OW34593   4.417   4.065   1.830  0.1886 -0.3074  0.0289
 8707SOL    HW234594   4.472   4.143   1.839 -0.8555  0.2135  2.8947
 8707SOL    HW334595   4.340   4.097   1.782  0.5404  0.0027 -0.3341
 8707SOL    MW434596   4.414   4.080   1.825  0.0789  0.2833  0.3518
 8708SOL     OW34597   1.826   1.321   2.757 -0.3509 -0.1671  0.6035
 8708SOL    HW234598   1.887   1.305   2.685  0.0477 -1.2351  1.1589
 8708SOL    HW334599   1.776   1.240   2.765 -3.2874  1.3081 -1.1147
 8708SOL    MW434600   1.828   1.309   2.749 -0.5040 -0.1765 -0.1342
 8709SOL     OW34601   0.198   4.631   4.605 -0.0913 -0.1134 -0.6608
 8709SOL    HW234602   0.139   4.699   4.573  1.0934  0.7693 -1.0428
 8709SOL    HW334603   0.265   4.678   4.654 -0.5422 -1.2448  1.1101
 8709SOL    MW434604   0.199   4.646   4.607 -0.1093  0.2649 -0.7118
 8710SOL     OW34605   3.839   2.796   3.459 -0.1820 -0.1131  0.6248
 8710SOL    HW234606   3.912   2.749   3.417  1.4153 -0.3157  3.3341
 8710SOL    HW334607   3.832   2.878   3.411  2.1472  0.0768  0.4896
 8710SOL    MW434608   3.848   2.800   3.447  0.0020 -0.4518  0.4870
 8711SOL     OW34609   5.207   1.713   5.912 -0.2599 -0.1867  0.0538
 8711SOL    HW234610   5.286   1.704   5.859 -1.1205 -1.7594 -1.0371
 8711SOL    HW334611   5.239   1.708   6.002  1.0084  0.4457 -0.3305
 8711SOL    MW434612   5.222   1.711   5.917  0.2792  0.2907 -0.2174
 8712SOL     OW34613   4.625   2.422   2.944  0.2094  0.2234  0.0990
 8712SOL    HW234614   4.672   2.345   2.913  0.9705  1.0768 -0.9609
 8712SOL    HW334615   4.672   2.448   3.023 -0.9995 -1.2648  1.3562
 8712SOL    MW434616   4.638   2.415   2.950 -0.4365 -0.3034  0.4920
 8713SOL     OW34617   3.823   0.642   5.772  0.1324  0.1385  0.2587
 8713SOL    HW234618   3.780   0.643   5.857 -0.6543 -0.8840 -0.1036
 8713SOL    HW334619   3.813   0.731   5.738 -1.2522  0.0613  0.4179
 8713SOL    MW434620   3.816   0.654   5.778 -0.5333 -1.0265 -0.6191
 8714SOL     OW34621   5.384   4.297   1.055  0.5033 -0.0224  0.1246
 8714SOL    HW234622   5.343   4.240   1.120  0.6681  1.1017  1.2287
 8714SOL    HW334623   5.331   4.284   0.976 -0.6086 -0.2897  0.8896
 8714SOL    MW434624   5.372   4.288   1.053 -0.2034  0.3035  0.4835
 8715SOL     OW34625   3.879   1.421   0.695 -0.1611 -0.4678  0.1788
 8715SOL    HW234626   3.919   1.425   0.782  0.1662 -0.5014  0.0311
 8715SOL    HW334627   3.945   1.457   0.636 -0.0423 -1.2468 -0.1761
 8715SOL    MW434628   3.893   1.427   0.699 -0.0577 -0.0325 -0.4986
 8716SOL     OW34629   5.192   4.998   0.626 -0.1134 -0.2062  0.1364
 8716SOL    HW234630   5.229   5.053   0.558 -1.7928 -1.0889 -1.6040
 8716SOL    HW334631   5.139   5.057   0.680 -2.7388 -0.1337 -2.3144
 8716SOL    MW434632   5.190   5.013   0.624 -0.3988 -0.1487 -0.3886
 8717SOL     OW34633   3.263   2.844   4.229 -0.1867 -0.6190  0.0068
 8717SOL    HW234634   3.305   2.924   4.261 -0.9316 -0.3677  0.3880
 8717SOL    HW334635   3.336   2.784   4.211  0.2883 -0.8616  2.3760
 8717SOL    MW434636   3.278   2.847   4.231  0.5482 -0.4811 -0.5008
 8718SOL     OW34637   3.179   4.164   1.626  0.0589  0.1483 -0.1663
 8718SOL    HW234638   3.219   4.251   1.628 -1.0713  0.6820  0.8707
 8718SOL    HW334639   3.252   4.103   1.631  0.8984  1.0291 -1.3652
 8718SOL    MW434640   3.194   4.167   1.627 -0.5247 -0.1054 -0.3891
 8719SOL     OW34641   3.358   4.377   4.604  0.1539  0.3968 -0.1688
 8719SOL    HW234642   3.397   4.349   4.521  1.5989  1.4552  0.1214
 8719SOL    HW334643   3.284   4.432   4.579 -0.5478 -0.7567 -0.7295
 8719SOL    MW434644   3.353   4.380   4.590  0.4856 -0.3281 -0.9058
 8720SOL     OW34645   0.737   1.811   6.276  0.2660 -0.0315  0.0610
 8720SOL    HW234646   0.766   1.780   6.362 -0.1815  0.6142  0.4524
 8720SOL    HW334647   0.663   1.754   6.253 -0.6549  0.8221  0.8482
 8720SOL    MW434648   0.731   1.799   6.284 -0.4970 -0.3003 -0.0876
 8721SOL     OW34649   3.519   4.728   0.796  0.3358 -0.0872  0.2120
 8721SOL    HW234650   3.425   4.740   0.792  0.2145  0.4529  2.7564
 8721SOL    HW334651   3.535   4.646   0.749 -1.6512 -1.1492  1.2448
 8721SOL    MW434652   3.509   4.719   0.789 -0.5043  0.1842 -0.6007
 8722SOL     OW34653   2.886   0.513   4.104  0.0614  0.1282  0.1904
 8722SOL    HW234654   2.942   0.445   4.066 -3.2447 -2.1339 -1.1270
 8722SOL    HW334655   2.886   0.494   4.198  1.4391  0.1974  0.2262
 8722SOL    MW434656   2.893   0.502   4.111 -0.1696 -0.0464  0.4660
 8723SOL     OW34657   2.041   6.374   4.973 -0.0441  0.0648  0.4789
 8723SOL    HW234658   2.018   6.456   4.929  1.5270  0.4925  0.3982
 8723SOL    HW334659   2.129   6.388   5.006  0.1967 -1.5412  0.6148
 8723SOL    MW434660   2.049   6.387   4.971  0.0044 -0.2462 -0.6199
 8724SOL     OW34661   4.041   2.655   3.313 -0.1785  1.1477 -0.0380
 8724SOL    HW234662   4.050   2.711   3.236 -0.4324  1.2642  0.0160
 8724SOL    HW334663   4.075   2.570   3.284 -1.6623  0.7634 -0.7631
 8724SOL    MW434664   4.047   2.651   3.299 -0.1587 -0.2690  0.4817
 8725SOL     OW34665   1.249   1.960   4.361 -0.5605  0.1341  0.1042
 8725SOL    HW234666   1.296   2.042   4.380  0.4092  0.0595 -1.7724
 8725SOL    HW334667   1.160   1.988   4.340 -0.6399  0.5479  0.9532
 8725SOL    MW434668   1.243   1.975   4.361  0.6354  0.3619  0.0125
 8726SOL     OW34669   5.515   3.829   1.222  0.5651 -0.0170 -0.4561
 8726SOL    HW234670   5.603   3.814   1.187  0.5978 -0.4854 -0.1729
 8726SOL    HW334671   5.479   3.899   1.166  0.5497 -0.8775 -1.5585
 8726SOL    MW434672   5.521   3.836   1.210 -0.0248  0.5674 -0.5237
 8727SOL     OW34673   0.682   3.131   2.678 -0.1247 -0.0233  0.8306
 8727SOL    HW234674   0.755   3.095   2.728  0.8816 -0.7105 -1.0453
 8727SOL    HW334675   0.663   3.215   2.721  1.5407  0.0188  1.5594
 8727SOL    MW434676   0.689   3.138   2.690  0.3138 -0.3846 -0.3378
 8728SOL     OW34677   3.342   3.323   4.020 -0.0637 -0.2964  0.2658
 8728SOL    HW234678   3.422   3.311   3.968 -0.0005  0.4795  0.1810
 8728SOL    HW334679   3.276   3.270   3.974 -0.1960  0.9418 -1.0560
 8728SOL    MW434680   3.344   3.314   4.007 -0.1351 -0.2295 -0.3519
 8729SOL     OW34681   1.284   4.198   4.348  0.0083 -0.5716 -0.1093
 8729SOL    HW234682   1.283   4.125   4.410  0.4720 -0.3819  0.1310
 8729SOL    HW334683   1.341   4.168   4.277  0.7572 -0.1915  0.3170
 8729SOL    MW434684   1.292   4.185   4.347  0.5941  0.1488 -0.2887
 8730SOL     OW34685   4.638   4.263   5.141  0.1103  0.8057  0.0204
 8730SOL    HW234686   4.600   4.175   5.144 -0.2557  0.9009 -1.1565
 8730SOL    HW334687   4.583   4.315   5.200 -0.4334  0.5142 -0.2201
 8730SOL    MW434688   4.625   4.258   5.149 -0.1759 -0.2085  0.5936
 8731SOL     OW34689   3.834   1.090   5.830 -0.0420 -0.9049 -0.1410
 8731SOL    HW234690   3.820   1.076   5.923  1.0723  1.9315  0.5877
 8731SOL    HW334691   3.927   1.069   5.816  0.1272 -0.1077 -0.2854
 8731SOL    MW434692   3.845   1.086   5.841  0.1420 -0.1720  0.7855
 8732SOL     OW34693   1.869   4.497   4.391  0.3884  0.1796 -0.1662
 8732SOL    HW234694   1.883   4.564   4.324 -2.6311  1.8332  0.6376
 8732SOL    HW334695   1.901   4.538   4.472  1.0081 -0.4863 -0.0632
 8732SOL    MW434696   1.875   4.511   4.393 -0.4111  0.0226  0.7944
 8733SOL     OW34697   0.333   1.231   0.146 -0.1644  0.4518 -0.1431
 8733SOL    HW234698   0.284   1.274   0.077 -1.3061  0.3574  0.5863
 8733SOL    HW334699   0.268   1.209   0.213  0.9405  0.7762  1.0916
 8733SOL    MW434700   0.318   1.234   0.146 -0.7064 -0.0288  0.0013
 8734SOL     OW34701   1.875   5.416   5.234 -0.0517 -0.3690  0.4209
 8734SOL    HW234702   1.939   5.451   5.172  0.5649 -0.4634  0.9876
 8734SOL    HW334703   1.793   5.413   5.185  0.8251 -2.3900 -1.0462
 8734SOL    MW434704   1.872   5.420   5.220 -0.0766  0.5171 -0.1764
 8735SOL     OW34705   0.577   4.292   1.974 -0.5543  0.2946 -0.3703
 8735SOL    HW234706   0.556   4.312   2.065  0.0699 -0.1056 -0.1312
 8735SOL    HW334707   0.606   4.375   1.937  0.4823  0.2000  0.1765
 8735SOL    MW434708   0.578   4.305   1.981  0.1802  0.3260  0.5732
 8736SOL     OW34709   3.191   3.689   5.552  0.4801  0.7152  0.2927
 8736SOL    HW234710   3.271   3.703   5.603  0.1022 -0.0489  1.1189
 8736SOL    HW334711   3.147   3.617   5.596 -0.4435  0.8225 -0.4317
 8736SOL    MW434712   3.196   3.682   5.565 -0.3234 -0.1829  0.2789
 8737SOL     OW34713   3.664   3.367   5.903 -0.4546  0.0729 -0.5604
 8737SOL    HW234714   3.592   3.382   5.965  0.7862  1.2271  0.7057
 8737SOL    HW334715   3.742   3.395   5.952  0.7457 -0.3619 -2.1717
 8737SOL    MW434716   3.665   3.373   5.918  0.5504  0.0287  0.2591
 8738SOL     OW34717   3.056   5.569   5.893  0.4001  0.6099 -0.3418
 8738SOL    HW234718   3.130   5.629   5.893 -0.6208  1.9405 -1.6035
 8738SOL    HW334719   3.001   5.599   5.966 -1.5915  3.2731 -2.7222
 8738SOL    MW434720   3.058   5.581   5.903 -0.0127  0.0104  0.3425
 8739SOL     OW34721   5.211   3.994   0.023  0.5595 -0.5203 -0.2795
 8739SOL    HW234722   5.283   3.968  -0.035 -0.5435  0.3361 -2.1347
 8739SOL    HW334723   5.161   3.913   0.036  1.5229 -0.9981  0.5669
 8739SOL    MW434724   5.214   3.980   0.017 -0.2756 -0.4200 -0.2466
 8740SOL     OW34725   0.979   3.537   3.666  0.3068  0.4120 -0.9256
 8740SOL    HW234726   1.012   3.533   3.576  0.2522  1.7174 -1.0219
 8740SOL    HW334727   0.885   3.526   3.657  0.5304 -2.2758 -0.7423
 8740SOL    MW434728   0.971   3.535   3.653  0.3894 -0.4279  0.7891
 8741SOL     OW34729   3.904   5.270   2.145  0.3626  0.0486  0.4973
 8741SOL    HW234730   3.980   5.272   2.087 -1.5735  1.2587 -2.2189
 8741SOL    HW334731   3.925   5.335   2.213  2.4603 -0.9849  0.9142
 8741SOL    MW434732   3.917   5.279   2.146  0.0350 -0.6606 -0.2650
 8742SOL     OW34733   4.244   2.519   4.317  1.0103 -0.6344 -0.2966
 8742SOL    HW234734   4.177   2.550   4.256  0.3644 -0.5450  0.4494
 8742SOL    HW334735   4.326   2.551   4.280  0.6867 -1.0058 -1.3871
 8742SOL    MW434736   4.246   2.527   4.304 -0.1471  0.0789  0.4229
 8743SOL     OW34737   4.503   2.279   4.951 -0.7717 -0.2090 -0.1558
 8743SOL    HW234738   4.569   2.266   4.882  0.4104  1.7964  0.4826
 8743SOL    HW334739   4.531   2.221   5.022 -0.3951 -0.2858 -0.3602
 8743SOL    MW434740   4.516   2.270   4.951  0.2416 -0.4958 -0.5273
 8744SOL     OW34741   2.985   2.433   3.112  0.2525  0.5251 -0.1252
 8744SOL    HW234742   3.047   2.427   3.185  0.1973 -0.7987 -0.1692
 8744SOL    HW334743   3.004   2.357   3.057 -1.0751  0.3706 -0.4115
 8744SOL    MW434744   2.996   2.422   3.114 -0.1289  0.4489 -0.4024
 8745SOL     OW34745   5.345   2.950   6.387  0.3807 -0.0787 -0.0528
 8745SOL    HW234746   5.387   3.032   6.360  2.3774 -1.6518 -2.0481
 8745SOL    HW334747   5.371   2.940   6.479 -1.2032  2.2270  0.7364
 8745SOL    MW434748   5.354   2.960   6.396  0.0779  0.1011 -0.0873
 8746SOL     OW34749   4.189   1.736   3.986 -0.5013  0.0162 -0.2535
 8746SOL    HW234750   4.220   1.707   3.900 -0.5077 -0.7517 -0.0027
 8746SOL    HW334751   4.125   1.669   4.012 -0.1614 -0.0096  0.5526
 8746SOL    MW434752   4.185   1.723   3.978  0.0764  0.0567  0.3648
 8747SOL     OW34753   6.305   4.984   2.860 -0.5667  0.3631 -0.2791
 8747SOL    HW234754   6.339   5.009   2.946  0.3027  0.2828 -0.5893
 8747SOL    HW334755   6.349   4.901   2.840 -0.5787  0.4999 -0.9040
 8747SOL    MW434756   6.315   4.976   2.869 -0.2393 -0.0772  0.0236
 8748SOL     OW34757   3.452   5.905   3.737 -0.3720  0.6777  0.3699
 8748SOL    HW234758   3.464   5.914   3.643  1.1549 -0.7255  0.3775
 8748SOL    HW334759   3.399   5.980   3.762  0.0803  1.6577 -1.4486
 8748SOL    MW434760   3.447   5.916   3.728 -0.3970 -0.1675  0.5388
 8749SOL     OW34761   5.302   0.245   5.823  0.0318  0.2115 -0.3824
 8749SOL    HW234762   5.358   0.263   5.747  0.1284 -1.8881 -0.8902
 8749SOL    HW334763   5.213   0.249   5.788  0.0896 -1.1908 -0.7755
 8749SOL    MW434764   5.298   0.248   5.808 -0.1998 -0.3915 -0.1112
 8750SOL     OW34765   0.123   2.229   1.771  0.2229  0.0672 -0.0020
 8750SOL    HW234766   0.213   2.214   1.744 -0.4708  0.5225 -2.9309
 8750SOL    HW334767   0.082   2.143   1.769  0.0309  0.1712 -1.1362
 8750SOL    MW434768   0.129   2.216   1.768  0.0173  0.0472  0.4327
 8751SOL     OW34769   0.260   5.834   1.132 -0.4947  0.1691  0.3683
 8751SOL    HW234770   0.251   5.760   1.192 -1.0263 -0.0334  0.0451
 8751SOL    HW334771   0.306   5.798   1.056  0.5879  0.5328  0.8312
 8751SOL    MW434772   0.265   5.820   1.130  0.0358  0.5716  0.7194
 8752SOL     OW34773   5.539   6.032   1.122 -0.1440  0.4778  0.2767
 8752SOL    HW234774   5.449   6.059   1.139 -0.0634  0.4727  0.7414
 8752SOL    HW334775   5.558   6.065   1.035 -0.2975  1.2679  0.5273
 8752SOL    MW434776   5.530   6.040   1.113 -0.3608  0.2228 -0.4595
 8753SOL     OW34777   0.055   0.436   5.877  0.4562  0.1127 -0.1099
 8753SOL    HW234778   0.148   0.457   5.869  0.8393 -1.4698 -0.1589
 8753SOL    HW334779   0.047   0.396   5.964 -0.0744 -0.2603 -0.3260
 8753SOL    MW434780   0.066   0.433   5.887 -0.8337 -0.6915 -0.2054
 8754SOL     OW34781   0.310   1.752   6.403  0.3237  0.0980 -0.1869
 8754SOL    HW234782   0.390   1.724   6.446  0.0333 -0.1171  0.2224
 8754SOL    HW334783   0.259   1.672   6.391 -0.2279  0.3434  0.4017
 8754SOL    MW434784   0.314   1.738   6.407 -0.4671  0.1291 -0.1286
 8755SOL     OW34785   5.573   5.773   5.626  0.0590 -0.1983 -0.0973
 8755SOL    HW234786   5.555   5.835   5.555  0.4956 -0.2685 -0.2717
 8755SOL    HW334787   5.492   5.724   5.636 -1.2888  2.2121  1.8870
 8755SOL    MW434788   5.560   5.775   5.618  0.4624  0.0166 -0.3326
 8756SOL     OW34789   3.259   3.051   1.198 -0.5073  0.7383  0.6103
 8756SOL    HW234790   3.190   3.001   1.155  0.2209  0.4437 -0.2661
 8756SOL    HW334791   3.340   3.012   1.165  0.1095  0.3845  2.3964
 8756SOL    MW434792   3.261   3.039   1.188 -0.2250 -0.0157  0.1234
 8757SOL     OW34793   2.835   3.093   1.352 -0.4015 -0.0429  0.0087
 8757SOL    HW234794   2.787   3.016   1.383  1.4804 -1.6557 -0.8412
 8757SOL    HW334795   2.858   3.073   1.262  0.2531  1.4646 -0.1932
 8757SOL    MW434796   2.832   3.080   1.345 -0.5591 -0.0497  0.2144
 8758SOL     OW34797   0.107   6.208   6.109 -0.0196  0.0841 -0.2307
 8758SOL    HW234798   0.178   6.218   6.173 -0.4203 -0.9072  0.3870
 8758SOL    HW334799   0.031   6.181   6.160 -0.6902  0.5217 -0.9670
 8758SOL    MW434800   0.107   6.206   6.124  0.6048  0.5978 -0.7458
 8759SOL     OW34801   0.916   2.499   2.853 -0.3871 -0.6730 -0.1809
 8759SOL    HW234802   0.917   2.445   2.932  2.6959 -0.2564  0.1791
 8759SOL    HW334803   0.881   2.442   2.785 -3.0114 -1.0854  1.3694
 8759SOL    MW434804   0.911   2.485   2.855  0.0561 -0.2108  0.1072
 8760SOL     OW34805   1.655   3.067   5.178 -0.0956 -0.3580 -0.7324
 8760SOL    HW234806   1.632   3.103   5.264  0.9786  1.7173 -1.2280
 8760SOL    HW334807   1.734   3.016   5.194 -1.1116 -1.8238 -0.1692
 8760SOL    MW434808   1.662   3.065   5.191  0.2991 -0.4396 -0.0259
 8761SOL     OW34809   5.585   0.134   4.162  0.0164  0.3055  0.1917
 8761SOL    HW234810   5.493   0.128   4.136  0.6120 -0.9677 -1.7838
 8761SOL    HW334811   5.602   0.054   4.210  0.3692  0.0002 -0.4311
 8761SOL    MW434812   5.575   0.123   4.165  0.2875  0.4752 -0.1933
 8762SOL     OW34813   5.004   2.785   5.698 -0.0523  0.3101  0.2388
 8762SOL    HW234814   4.931   2.789   5.637  0.1053  1.7553  0.0902
 8762SOL    HW334815   5.080   2.810   5.646  0.5192 -0.9024  0.4536
 8762SOL    MW434816   5.005   2.789   5.683 -0.6252 -0.1268  0.1390
 8763SOL     OW34817   6.315   4.645   4.842 -0.0234 -0.6696 -0.2960
 8763SOL    HW234818   6.308   4.640   4.747 -1.7155 -0.0382 -0.2424
 8763SOL    HW334819   6.332   4.738   4.859 -1.2920 -0.4921  0.0686
 8763SOL    MW434820   6.316   4.657   4.832 -0.6910 -0.0846 -0.4066
 8764SOL     OW34821   0.617   4.296   3.856  0.2790 -0.1424  0.0386
 8764SOL    HW234822   0.622   4.216   3.804 -0.2573 -0.3441  0.2943
 8764SOL    HW334823   0.526   4.301   3.885 -0.4234  1.9383 -2.1783
 8764SOL    MW434824   0.606   4.286   3.853 -0.4384  0.0914 -0.0019
 8765SOL     OW34825   4.564   3.558   4.063  0.4051 -0.4901  0.4620
 8765SOL    HW234826   4.606   3.644   4.053 -0.9018  0.2264  0.9494
 8765SOL    HW334827   4.635   3.496   4.050  1.5076  0.6704  0.6833
 8765SOL    MW434828   4.579   3.561   4.060 -0.2913  0.6175 -0.2811
 8766SOL     OW34829   1.561   4.653   5.307 -0.3420 -0.0252 -0.7058
 8766SOL    HW234830   1.477   4.700   5.302  1.4428  3.5936 -0.1652
 8766SOL    HW334831   1.586   4.641   5.215  0.3388  2.6619 -0.9512
 8766SOL    MW434832   1.553   4.658   5.294  0.0100 -0.0845  0.3965
 8767SOL     OW34833   3.196   1.950   5.859  0.5230 -0.3044 -0.2586
 8767SOL    HW234834   3.196   1.856   5.876 -1.3437 -0.0431  1.5805
 8767SOL    HW334835   3.115   1.965   5.809  1.2417  0.2365 -1.3001
 8767SOL    MW434836   3.185   1.939   5.854  0.0668 -0.6429  0.1455
 8768SOL     OW34837   0.795   2.849   5.499 -0.3922 -0.5134 -0.0147
 8768SOL    HW234838   0.855   2.776   5.482 -2.8742 -2.3822 -1.4658
 8768SOL    HW334839   0.786   2.893   5.415 -0.3076  0.3624  0.4303
 8768SOL    MW434840   0.801   2.845   5.486 -0.2922  0.2871 -0.2109
 8769SOL     OW34841   3.771   4.578   5.908 -0.3546 -0.5917 -0.3158
 8769SOL    HW234842   3.745   4.649   5.966  0.1597 -1.0500  0.4946
 8769SOL    HW334843   3.701   4.573   5.843 -0.5193  0.4753 -0.2340
 8769SOL    MW434844   3.758   4.586   5.907  0.6485 -0.2763 -0.2281
 8770SOL     OW34845   3.230   1.856   4.245 -0.0642 -0.3130 -0.9349
 8770SOL    HW234846   3.308   1.863   4.302 -1.6052  0.6739  1.1955
 8770SOL    HW334847   3.263   1.879   4.158  2.0781 -0.1257 -0.1572
 8770SOL    MW434848   3.245   1.860   4.241  0.1884 -0.4001 -0.3748
 8771SOL     OW34849   0.462   3.666   3.860 -0.5177 -0.7306 -0.3104
 8771SOL    HW234850   0.387   3.614   3.887  0.3770 -1.6993  0.3901
 8771SOL    HW334851   0.424   3.747   3.827 -1.8056 -0.5904  1.3781
 8771SOL    MW434852   0.447   3.670   3.859  1.3538  0.1673 -0.3928
 8772SOL     OW34853   1.434   1.216   0.085  0.8479 -0.7333 -0.1728
 8772SOL    HW234854   1.401   1.186   0.170 -1.6062  0.4175 -0.6145
 8772SOL    HW334855   1.520   1.176   0.077  0.8109 -1.5409  2.4825
 8772SOL    MW434856   1.441   1.207   0.095 -0.0879 -0.4177 -0.1476
 8773SOL     OW34857   3.532   4.891   5.029 -0.0763  0.0762 -0.0231
 8773SOL    HW234858   3.605   4.901   4.968  2.0027 -2.1401  1.9213
 8773SOL    HW334859   3.559   4.941   5.107 -0.7217 -0.5884  0.6458
 8773SOL    MW434860   3.545   4.899   5.032  0.0252 -0.4262  0.0807
 8774SOL     OW34861   0.887   4.898   6.368 -0.3022  0.3580  0.2391
 8774SOL    HW234862   0.884   4.990   6.344 -0.8193  0.1274 -0.6576
 8774SOL    HW334863   0.948   4.859   6.305 -1.5556 -0.2382 -0.6330
 8774SOL    MW434864   0.895   4.905   6.356 -0.0226  0.4604 -0.3415
 8775SOL     OW34865   4.190   3.586   4.802  0.0880  0.0802 -0.3332
 8775SOL    HW234866   4.221   3.643   4.872  1.1941 -1.9247  0.9250
 8775SOL    HW334867   4.219   3.629   4.722 -0.1800  1.8543  0.4823
 8775SOL    MW434868   4.198   3.599   4.801 -0.0981 -0.5631 -0.3105
 8776SOL     OW34869   4.331   5.578   6.016 -0.6656 -0.2633 -0.0016
 8776SOL    HW234870   4.251   5.601   6.063 -0.2680  0.7882  0.2049
 8776SOL    HW334871   4.313   5.493   5.977 -2.7066  0.8898 -1.7902
 8776SOL    MW434872   4.318   5.570   6.017  0.4371 -0.8946  0.1674
 8777SOL     OW34873   5.070   2.418   4.169  0.1064 -0.3077  0.6742
 8777SOL    HW234874   5.073   2.460   4.255  1.4015 -0.6626  0.8183
 8777SOL    HW334875   5.072   2.324   4.187 -0.8090 -0.4103  0.2865
 8777SOL    MW434876   5.071   2.411   4.183 -0.0683 -0.6641 -0.7112
 8778SOL     OW34877   4.399   4.086   4.581 -0.4373 -0.4959  0.0320
 8778SOL    HW234878   4.329   4.120   4.636  1.1151 -0.4272  2.1254
 8778SOL    HW334879   4.426   4.160   4.527  1.1717  1.0582  2.7010
 8778SOL    MW434880   4.394   4.100   4.582 -0.0988 -0.8228 -0.0138
 8779SOL     OW34881   1.973   6.001   4.013  1.4905  0.1955  0.2195
 8779SOL    HW234882   1.913   5.971   3.945  0.9607 -1.2879  1.2907
 8779SOL    HW334883   1.960   6.096   4.018  1.1555  0.2444 -1.3482
 8779SOL    MW434884   1.964   6.010   4.005  0.5418 -0.4582 -0.0798
 8780SOL     OW34885   4.027   3.867   2.342 -0.3159  0.2465 -0.8132
 8780SOL    HW234886   4.085   3.913   2.282 -0.6742  0.7824 -0.7514
 8780SOL    HW334887   3.994   3.793   2.292 -0.4363  0.5624 -1.2011
 8780SOL    MW434888   4.030   3.863   2.327 -0.0864  0.6974  0.1173
 8781SOL     OW34889   1.876   0.275   1.803  0.0219 -0.1702 -0.2828
 8781SOL    HW234890   1.823   0.345   1.840  0.1262 -0.7448  1.0134
 8781SOL    HW334891   1.966   0.302   1.817  0.0647 -0.7795  0.6897
 8781SOL    MW434892   1.881   0.287   1.810 -0.1431  0.2283 -0.8682
 8782SOL     OW34893   0.382   1.864   3.601 -0.5112 -0.4377  0.1787
 8782SOL    HW234894   0.312   1.799   3.595  0.0328 -0.9124 -1.6214
 8782SOL    HW334895   0.445   1.826   3.663 -0.2315 -1.6205 -0.8052
 8782SOL    MW434896   0.381   1.850   3.608 -0.1323  0.2817  0.3252
 8783SOL     OW34897   3.994   5.228   1.330  0.5807 -0.2976  0.3110
 8783SOL    HW234898   4.014   5.319   1.354  1.8043  0.2250 -2.3259
 8783SOL    HW334899   4.070   5.178   1.362  1.2574  0.0809 -0.6514
 8783SOL    MW434900   4.007   5.233   1.338  0.0109 -0.0416  0.3552
 8784SOL     OW34901   0.237   4.454   1.591  0.1029 -0.8144  0.6496
 8784SOL    HW234902   0.162   4.467   1.648  1.1370 -0.9740  2.1152
 8784SOL    HW334903   0.279   4.374   1.624  0.7434 -0.9048 -0.3265
 8784SOL    MW434904   0.233   4.445   1.603 -0.1995  0.1990  0.3701
 8785SOL     OW34905   5.380   5.533   3.285  0.0862 -0.1655  0.1300
 8785SOL    HW234906   5.433   5.539   3.365  0.5899 -1.9116 -0.0269
 8785SOL    HW334907   5.443   5.548   3.214 -0.1635  0.3656  0.0160
 8785SOL    MW434908   5.396   5.536   3.286  0.1749 -0.2455  0.1673
 8786SOL     OW34909   6.213   0.596   5.007 -0.2975 -0.0147 -0.6028
 8786SOL    HW234910   6.287   0.539   5.027  0.9117  0.9455 -2.0415
 8786SOL    HW334911   6.218   0.608   4.912 -1.5192  1.1233 -0.5469
 8786SOL    MW434912   6.224   0.590   4.997  0.5850 -0.0270  0.3548
 8787SOL     OW34913   4.239   4.761   0.852 -0.2048 -0.4186  0.2369
 8787SOL    HW234914   4.251   4.667   0.842 -0.4082 -0.3446 -0.8218
 8787SOL    HW334915   4.147   4.776   0.831  0.4251  0.3266 -2.3516
 8787SOL    MW434916   4.229   4.750   0.848  0.8958  0.0343 -0.9492
 8788SOL     OW34917   4.718   4.447   6.287  0.1658  0.1688 -0.2339
 8788SOL    HW234918   4.628   4.420   6.306  0.2015 -0.2819 -0.6637
 8788SOL    HW334919   4.752   4.377   6.231  1.4571 -0.6935  1.5600
 8788SOL    MW434920   4.711   4.434   6.282 -0.1437  0.0495 -0.6055
 8789SOL     OW34921   6.171   1.199   3.163  0.1078  0.3434 -0.3925
 8789SOL    HW234922   6.131   1.206   3.077 -0.3002  2.3258 -0.0721
 8789SOL    HW334923   6.234   1.271   3.167 -3.0127  3.2642  2.5346
 8789SOL    MW434924   6.174   1.209   3.152 -0.1258 -0.7683  0.0622
 8790SOL     OW34925   3.786   2.115   5.375 -0.5154 -0.4198 -0.3014
 8790SOL    HW234926   3.881   2.103   5.379 -0.5465 -1.1909 -1.3967
 8790SOL    HW334927   3.751   2.052   5.438 -0.2919  0.3459  0.6180
 8790SOL    MW434928   3.794   2.105   5.384 -0.5486  0.4963  0.1991
 8791SOL     OW34929   1.164   2.316   0.252 -0.2511  0.8804 -0.1181
 8791SOL    HW234930   1.103   2.389   0.244 -1.0036  0.4531  1.3333
 8791SOL    HW334931   1.211   2.315   0.169 -3.3675  0.1803 -2.0240
 8791SOL    MW434932   1.162   2.326   0.240  0.3981 -0.1269  0.3222
 8792SOL     OW34933   5.911   5.910   6.343 -0.1953 -0.0290 -0.0152
 8792SOL    HW234934   5.896   5.822   6.377 -0.1980  0.3347  0.9714
 8792SOL    HW334935   5.824   5.943   6.320 -0.2481 -0.1019  0.0811
 8792SOL    MW434936   5.898   5.903   6.344 -0.8992  0.1781  0.4253
 8793SOL     OW34937   6.097   3.634   6.352  0.4347  0.5264 -0.4844
 8793SOL    HW234938   6.154   3.558   6.346  0.4478  0.6590 -3.9131
 8793SOL    HW334939   6.156   3.708   6.369  0.9458  0.2966 -1.2460
 8793SOL    MW434940   6.112   3.634   6.353 -0.6352 -0.0138  0.1434
 8794SOL     OW34941   2.502   3.236   5.603  0.4945 -0.3363  0.3694
 8794SOL    HW234942   2.498   3.207   5.512 -2.8383 -1.9301  0.8640
 8794SOL    HW334943   2.561   3.174   5.645 -0.1394 -1.3728 -0.2130
 8794SOL    MW434944   2.509   3.224   5.597  0.3268  0.0148  0.4639
 8795SOL     OW34945   2.544   6.070   2.081  1.2197 -0.0401  0.3946
 8795SOL    HW234946   2.623   6.125   2.077  1.4146 -0.2308  1.4445
 8795SOL    HW334947   2.529   6.044   1.990  1.4874  1.2277 -0.0338
 8795SOL    MW434948   2.553   6.074   2.068  0.2276 -0.2992 -0.9865
 8796SOL     OW34949   0.333   3.138   0.757  0.4211 -0.3719  0.0027
 8796SOL    HW234950   0.363   3.218   0.802  1.2566  0.1398 -1.4153
 8796SOL    HW334951   0.242   3.158   0.733  0.8849  0.5370 -1.1146
 8796SOL    MW434952   0.325   3.151   0.760  0.7086  0.2756 -0.4119
 8797SOL     OW34953   4.440   2.026   2.094 -0.1351  0.1514  0.2883
 8797SOL    HW234954   4.404   2.073   2.169  0.2039 -0.1426  0.6381
 8797SOL    HW334955   4.417   1.934   2.111 -1.0930  0.2124 -0.5531
 8797SOL    MW434956   4.432   2.020   2.106  0.5559 -0.0664  0.2833
 8798SOL     OW34957   5.556   2.971   1.437  0.5931 -0.0840 -0.2209
 8798SOL    HW234958   5.504   2.913   1.382  0.2608  0.2967 -0.3127
 8798SOL    HW334959   5.591   3.037   1.377  1.9049 -0.8220 -0.3105
 8798SOL    MW434960   5.554   2.972   1.422  0.3866  0.0480  0.3361
 8799SOL     OW34961   4.104   4.144   0.605 -0.1100  0.2673  0.3590
 8799SOL    HW234962   4.012   4.127   0.622 -0.4151  1.9944  0.6801
 8799SOL    HW334963   4.104   4.224   0.551  1.2194  1.1462  1.5853
 8799SOL    MW434964   4.092   4.152   0.600  0.2124  0.1881 -0.5219
 8800SOL     OW34965   1.969   2.762   5.444 -0.2382 -0.4136  0.0991
 8800SOL    HW234966   1.927   2.708   5.512 -1.7414 -1.6564 -1.7175
 8800SOL    HW334967   2.050   2.715   5.423  0.2428 -0.0151  0.9935
 8800SOL    MW434968   1.975   2.748   5.451  0.3347 -0.1669 -0.4106
 8801SOL     OW34969   2.984   1.399   2.097  0.3842 -0.5548 -0.1867
 8801SOL    HW234970   2.890   1.392   2.111  0.0731  1.4001 -0.9536
 8801SOL    HW334971   3.006   1.327   2.039 -1.1604  0.4705 -2.1713
 8801SOL    MW434972   2.975   1.389   2.092  0.5965  0.7500  0.1936
 8802SOL     OW34973   4.835   3.919   0.873  0.0881 -0.6379 -0.3323
 8802SOL    HW234974   4.898   3.849   0.893  2.9353  1.5792 -0.8454
 8802SOL    HW334975   4.789   3.934   0.955 -0.9859 -3.3432 -0.3208
 8802SOL    MW434976   4.837   3.912   0.886  0.0234 -0.1656 -0.6397
 8803SOL     OW34977   4.828   0.816   2.430 -0.3459 -0.2965  0.6220
 8803SOL    HW234978   4.922   0.807   2.446 -0.2130 -0.2386 -0.0924
 8803SOL    HW334979   4.822   0.872   2.353 -0.9708 -0.2350  0.7104
 8803SOL    MW434980   4.840   0.822   2.422 -0.3942  0.2543  0.1583
 8804SOL     OW34981   2.539   0.604   4.963  0.1731  0.2849 -0.5213
 8804SOL    HW234982   2.598   0.534   4.991 -0.6708  0.3778  1.6244
 8804SOL    HW334983   2.558   0.676   5.022 -2.0229  0.3313  0.2005
 8804SOL    MW434984   2.550   0.604   4.974 -0.5144  0.2953 -0.7632
 8805SOL     OW34985   1.380   3.856   5.630 -0.6392  0.2791 -0.1462
 8805SOL    HW234986   1.343   3.910   5.700  0.6728  1.2398 -0.1470
 8805SOL    HW334987   1.304   3.823   5.582 -1.5378  0.3452  1.1779
 8805SOL    MW434988   1.365   3.859   5.633 -0.3030 -0.2843  0.5460
 8806SOL     OW34989   4.588   2.520   4.321  0.8805 -0.5384  0.0883
 8806SOL    HW234990   4.636   2.440   4.303  1.4384  0.4905 -3.8004
 8806SOL    HW334991   4.656   2.583   4.347  0.6036 -0.8792  1.7865
 8806SOL    MW434992   4.603   2.518   4.322 -0.4265  0.0888  0.1614
 8807SOL     OW34993   0.075   6.365   2.625 -0.3350  0.4648 -0.1592
 8807SOL    HW234994   0.156   6.413   2.609 -0.2516  0.2090 -0.5274
 8807SOL    HW334995   0.012   6.402   2.563 -0.2568  0.0654 -0.4780
 8807SOL    MW434996   0.077   6.377   2.615  0.4411  0.2429  0.4380
 8808SOL     OW34997   0.004   3.138   3.459  0.7422 -0.4569 -0.6558
 8808SOL    HW234998   0.024   3.115   3.550  0.5046 -0.1305 -0.5174
 8808SOL    HW334999   0.084   3.179   3.426 -0.2684  2.8852  0.5720
 8808SOL    MW435000   0.017   3.140   3.467  0.0078  0.1912 -0.1537
 8809SOL     OW35001   6.187   2.806   2.092  0.8128 -0.4634  0.0603
 8809SOL    HW235002   6.133   2.883   2.076 -0.2900 -1.2547 -0.1710
 8809SOL    HW335003   6.251   2.834   2.156 -0.3692  0.3008  0.9500
 8809SOL    MW435004   6.188   2.820   2.098  0.2548 -0.4971  0.6599
 8810SOL     OW35005   1.779   4.142   3.288 -0.4959  0.1049 -0.2203
 8810SOL    HW235006   1.833   4.153   3.366 -1.1200 -0.1912  0.2630
 8810SOL    HW335007   1.693   4.176   3.312 -1.5766 -2.6633  0.2699
 8810SOL    MW435008   1.775   4.148   3.301 -0.5502  0.7067  0.0951
 8811SOL     OW35009   5.618   1.431   6.366 -0.1718 -0.2819 -0.2157
 8811SOL    HW235010   5.686   1.400   6.426 -1.2149 -0.8700  0.7005
 8811SOL    HW335011   5.565   1.353   6.348 -1.2413  0.3834 -0.0339
 8811SOL    MW435012   5.620   1.416   6.372  0.2963  0.1013 -0.1331
 8812SOL     OW35013   1.712   1.212   1.986 -0.5930  0.2483  0.3488
 8812SOL    HW235014   1.732   1.197   1.894 -3.2814  1.1082 -0.4563
 8812SOL    HW335015   1.795   1.197   2.031  0.8148 -0.1420 -2.1949
 8812SOL    MW435016   1.726   1.208   1.980 -0.2044  0.5954  0.3682
 8813SOL     OW35017   5.497   2.338   1.315 -0.2076 -0.0386 -0.2849
 8813SOL    HW235018   5.431   2.309   1.378  0.5729  0.9421  1.0281
 8813SOL    HW335019   5.447   2.379   1.245 -1.3386 -3.9604 -2.0192
 8813SOL    MW435020   5.482   2.340   1.314  0.2213 -0.5621  0.1613
 8814SOL     OW35021   4.388   1.717   0.496  0.2030 -0.2460  0.0135
 8814SOL    HW235022   4.354   1.788   0.442  0.2915 -0.3291 -0.1503
 8814SOL    HW335023   4.465   1.754   0.539 -0.2873  0.0530  0.6526
 8814SOL    MW435024   4.393   1.731   0.495  0.7071 -0.2194 -0.7996
 8815SOL     OW35025   0.235   1.745   1.289  0.2512 -0.3760  0.3312
 8815SOL    HW235026   0.208   1.654   1.281 -0.3673 -0.3339  1.6840
 8815SOL    HW335027   0.153   1.794   1.299  0.6609 -0.0549  2.7489
 8815SOL    MW435028   0.221   1.739   1.289 -0.5275 -0.0725  0.1203
 8816SOL     OW35029   5.411   2.895   5.728 -0.0813  0.0185 -0.1710
 8816SOL    HW235030   5.399   2.935   5.814  2.7626  0.9547 -0.1342
 8816SOL    HW335031   5.408   2.968   5.667  3.6411  0.2725 -0.2473
 8816SOL    MW435032   5.409   2.910   5.731 -0.5058 -0.0739  0.6608
 8817SOL     OW35033   4.929   3.991   0.548  0.3290  0.4320 -0.0582
 8817SOL    HW235034   4.976   4.034   0.477  0.0233  0.9716  0.0624
 8817SOL    HW335035   4.878   4.061   0.590  1.6082  0.4400  1.6031
 8817SOL    MW435036   4.928   4.006   0.544  0.1531  0.7723 -0.1457
 8818SOL     OW35037   0.779   4.697   0.129  0.5178 -0.0882 -0.0544
 8818SOL    HW235038   0.832   4.723   0.054 -1.2122  1.3356 -0.8813
 8818SOL    HW335039   0.809   4.754   0.200 -1.2903  2.3844 -1.1106
 8818SOL    MW435040   0.790   4.708   0.128  0.6552 -0.2873  0.7478
 8819SOL     OW35041   4.747   6.156   1.339 -0.2394  0.1984  0.2672
 8819SOL    HW235042   4.829   6.116   1.311  1.6937  3.5225  0.6297
 8819SOL    HW335043   4.712   6.197   1.260 -2.1730 -1.9046 -0.0916
 8819SOL    MW435044   4.753   6.156   1.325 -0.1246  0.2086  0.3224
 8820SOL     OW35045   1.959   0.446   2.396 -0.4852 -0.2264  0.4144
 8820SOL    HW235046   1.899   0.513   2.363 -0.2172 -1.7356 -3.7760
 8820SOL    HW335047   2.001   0.411   2.318  4.2951 -0.8730  2.8817
 8820SOL    MW435048   1.956   0.450   2.382  0.2442  0.0329  0.2002
 8821SOL     OW35049   6.125   3.885   1.237  0.2888  0.2079  0.1249
 8821SOL    HW235050   6.171   3.817   1.286  1.1076 -1.8389 -3.1360
 8821SOL    HW335051   6.194   3.946   1.211  0.2519  0.1313 -0.1628
 8821SOL    MW435052   6.140   3.884   1.240  0.0905 -0.4235 -0.2835
 8822SOL     OW35053   0.458   0.146   0.436  0.5820 -0.5456  0.3904
 8822SOL    HW235054   0.469   0.082   0.507 -0.2349 -0.3986  0.6539
 8822SOL    HW335055   0.404   0.101   0.371 -2.6865  0.8381  1.9205
 8822SOL    MW435056   0.452   0.131   0.437  0.4985 -0.4166  0.7080
 8823SOL     OW35057   6.213   3.008   6.281  0.4969  0.1465  0.0936
 8823SOL    HW235058   6.157   2.998   6.357 -1.7132  0.3095 -1.4343
 8823SOL    HW335059   6.165   3.066   6.222  1.7979 -0.5207 -1.7407
 8823SOL    MW435060   6.199   3.014   6.283 -0.3331 -0.4220  0.2893
 8824SOL     OW35061   3.349   5.561   4.724  0.1692 -0.0708 -0.0429
 8824SOL    HW235062   3.431   5.517   4.746  0.4012  0.2500 -0.2562
 8824SOL    HW335063   3.370   5.654   4.730 -0.1085  0.0140 -0.3549
 8824SOL    MW435064   3.363   5.568   4.728  0.8039 -0.4144  0.3790
 8825SOL     OW35065   1.374   4.107   2.663 -0.2212  0.5889  0.9894
 8825SOL    HW235066   1.374   4.085   2.570 -0.6193 -1.5294  1.4353
 8825SOL    HW335067   1.456   4.070   2.696  1.3749  3.8091  1.0387
 8825SOL    MW435068   1.385   4.099   2.655 -0.7907 -0.3860  0.1645
 8826SOL     OW35069   3.332   5.214   3.980 -0.3186 -0.6300  0.0077
 8826SOL    HW235070   3.278   5.269   3.923  0.1647  0.3387  0.4614
 8826SOL    HW335071   3.354   5.138   3.926  0.8604  0.6612 -1.4314
 8826SOL    MW435072   3.328   5.211   3.965  0.2605 -0.3316 -0.0134
 8827SOL     OW35073   3.304   3.428   5.198  0.4318 -0.0207 -0.2262
 8827SOL    HW235074   3.333   3.440   5.108  0.2676 -1.9099 -0.5536
 8827SOL    HW335075   3.353   3.494   5.247  0.3082  1.2415 -1.7095
 8827SOL    MW435076   3.314   3.439   5.193  0.3541  0.1520  0.1229
 8828SOL     OW35077   4.646   4.226   3.468 -0.2391 -0.3260  0.3202
 8828SOL    HW235078   4.733   4.267   3.471  0.3253 -1.4517  0.1094
 8828SOL    HW335079   4.613   4.248   3.381  0.0051 -0.2233  0.2499
 8828SOL    MW435080   4.653   4.234   3.457  0.5424  0.1218 -0.0602
 8829SOL     OW35081   4.365   2.652   3.677  0.1830 -0.1055  0.1768
 8829SOL    HW235082   4.454   2.616   3.674 -0.0349 -0.6136 -2.1371
 8829SOL    HW335083   4.341   2.663   3.585 -1.1939  2.4976  0.7508
 8829SOL    MW435084   4.374   2.649   3.665 -0.0468 -0.1545 -0.0164
 8830SOL     OW35085   5.054   1.259   1.566  0.3358  0.1811 -0.5211
 8830SOL    HW235086   5.140   1.297   1.580 -0.1450  0.9489  0.5595
 8830SOL    HW335087   5.062   1.208   1.485  1.0243  2.5771 -2.0535
 8830SOL    MW435088   5.066   1.257   1.557  0.1200 -0.2718  0.0137
 8831SOL     OW35089   5.797   3.494   5.151 -0.6501 -0.3743  0.1771
 8831SOL    HW235090   5.825   3.506   5.060 -1.1117 -2.6274 -0.3183
 8831SOL    HW335091   5.877   3.509   5.202  0.3106 -1.8220 -0.8332
 8831SOL    MW435092   5.811   3.498   5.146  0.6705 -0.1507 -0.4465
 8832SOL     OW35093   1.640   2.897   5.775 -0.0073 -0.1915  0.0207
 8832SOL    HW235094   1.551   2.908   5.806  0.1492 -0.5347  0.6057
 8832SOL    HW335095   1.655   2.971   5.717 -0.9225 -0.5293 -0.6765
 8832SOL    MW435096   1.630   2.908   5.771 -0.2413  0.0138  0.4956
 8833SOL     OW35097   0.340   4.461   0.309 -0.6166 -0.2058  0.8172
 8833SOL    HW235098   0.432   4.452   0.283 -1.1210  1.6723 -2.0692
 8833SOL    HW335099   0.329   4.554   0.326 -2.6063  0.2173 -2.0431
 8833SOL    MW435100   0.351   4.472   0.308  0.0988 -0.1244 -0.2334
 8834SOL     OW35101   2.217   1.804   3.671 -0.4329 -0.3174 -0.2027
 8834SOL    HW235102   2.270   1.725   3.667  0.6048  0.3534 -0.1079
 8834SOL    HW335103   2.140   1.785   3.618  0.1536 -1.1181 -0.7774
 8834SOL    MW435104   2.214   1.791   3.664 -0.3074  0.2450 -0.1582
 8835SOL     OW35105   1.302   3.189   1.905  0.6916 -0.0258 -0.0983
 8835SOL    HW235106   1.308   3.226   1.817  0.7190  0.8861  0.2690
 8835SOL    HW335107   1.375   3.229   1.953  0.1369  0.2027  0.5802
 8835SOL    MW435108   1.312   3.199   1.900  0.1392 -0.5601 -0.3629
 8836SOL     OW35109   2.668   3.992   4.019  0.4335 -0.1824 -0.5544
 8836SOL    HW235110   2.684   3.975   4.112 -0.2360 -1.1690 -0.6079
 8836SOL    HW335111   2.599   4.059   4.019  0.8022  0.2053 -0.3501
 8836SOL    MW435112   2.661   3.999   4.031 -0.6152  0.1152 -0.1876
 8837SOL     OW35113   2.427   0.911   0.631  0.4897  0.3819  0.5127
 8837SOL    HW235114   2.492   0.901   0.562 -1.6844 -0.0046 -1.6510
 8837SOL    HW335115   2.386   0.825   0.638 -0.1793  0.7542  1.3822
 8837SOL    MW435116   2.430   0.899   0.623 -0.2723  0.1838 -1.4907
 8838SOL     OW35117   0.573   5.877   4.999 -0.0286 -0.6122  0.0080
 8838SOL    HW235118   0.603   5.837   4.917 -2.9266  0.6621 -1.8489
 8838SOL    HW335119   0.565   5.804   5.060  1.2902 -1.7631 -1.1154
 8838SOL    MW435120   0.576   5.862   4.996 -0.0784  0.3020 -0.2338
 8839SOL     OW35121   6.253   5.795   1.294  0.1448 -0.1162  0.0022
 8839SOL    HW235122   6.209   5.828   1.372  0.9904  2.0952 -0.3644
 8839SOL    HW335123   6.311   5.725   1.326 -1.3365 -0.9709  0.9228
 8839SOL    MW435124   6.255   5.790   1.308  0.2295  0.7016  0.0086
 8840SOL     OW35125   3.480   4.709   2.060  0.3202  0.5974  0.0582
 8840SOL    HW235126   3.506   4.800   2.070  0.5616  0.3948  1.5689
 8840SOL    HW335127   3.445   4.684   2.146  0.1805 -0.7050 -0.3438
 8840SOL    MW435128   3.478   4.717   2.073 -0.4267  0.9197 -0.4295
 8841SOL     OW35129   6.313   5.841   3.373 -0.1035 -0.1888 -0.4878
 8841SOL    HW235130   6.284   5.932   3.372  0.5310  0.0740  1.2093
 8841SOL    HW335131   6.305   5.814   3.465  1.4295 -1.2724 -0.6372
 8841SOL    MW435132   6.308   5.849   3.385 -0.2396 -0.2346  0.1452
 8842SOL     OW35133   5.791   6.038   5.224 -0.0407 -0.0671 -0.5581
 8842SOL    HW235134   5.801   5.943   5.235  1.8438  0.2458  0.8741
 8842SOL    HW335135   5.817   6.074   5.308  0.5811  1.8183 -1.5167
 8842SOL    MW435136   5.795   6.030   5.237 -0.1806 -0.1571  0.2968
 8843SOL     OW35137   2.573   4.551   4.840  0.0649  0.0538  0.4550
 8843SOL    HW235138   2.632   4.525   4.768  1.2333  0.1233  1.3571
 8843SOL    HW335139   2.560   4.471   4.890 -1.4009 -0.1849 -0.2449
 8843SOL    MW435140   2.579   4.537   4.837  0.3953  0.0073 -0.5475
 8844SOL     OW35141   5.241   2.066   2.221 -0.4003  0.8723 -0.9369
 8844SOL    HW235142   5.203   2.055   2.134 -1.1168  0.6566 -0.5993
 8844SOL    HW335143   5.256   1.977   2.253 -0.7131  0.9424 -0.5918
 8844SOL    MW435144   5.238   2.053   2.214  0.0901  0.7135  0.3761
 8845SOL     OW35145   3.820   2.425   4.263  0.1026 -0.1539  0.3783
 8845SOL    HW235146   3.806   2.426   4.358  0.3162 -0.4103  0.4123
 8845SOL    HW335147   3.895   2.482   4.249  0.9281 -1.1852  0.5042
 8845SOL    MW435148   3.828   2.433   4.274 -0.1996  0.5590 -0.2175
 8846SOL     OW35149   6.157   2.119   5.585  0.7559  0.0724 -0.4263
 8846SOL    HW235150   6.131   2.031   5.558  0.6795  0.5111 -1.8784
 8846SOL    HW335151   6.088   2.147   5.645  0.0453 -0.3460 -1.0262
 8846SOL    MW435152   6.145   2.111   5.589 -0.5122  0.8820 -0.2989
 8847SOL     OW35153   1.315   1.036   4.348  0.2921 -0.2299  0.1726
 8847SOL    HW235154   1.296   1.096   4.276 -0.0943 -0.7754 -0.1896
 8847SOL    HW335155   1.236   1.035   4.401 -0.5352 -2.0420 -1.0061
 8847SOL    MW435156   1.302   1.044   4.346 -0.6546  0.4356  0.3235
 8848SOL     OW35157   4.175   3.642   0.290  0.1207  0.0991 -0.4954
 8848SOL    HW235158   4.151   3.701   0.219 -1.6551 -1.0702 -0.9566
 8848SOL    HW335159   4.125   3.673   0.365  0.2975  0.0344 -0.3508
 8848SOL    MW435160   4.165   3.654   0.291  0.0354  0.4300 -0.1348
 8849SOL     OW35161   6.270   6.339   2.450 -0.3508  0.2153  0.0749
 8849SOL    HW235162   6.296   6.247   2.459 -0.9647  0.0529  0.2594
 8849SOL    HW335163   6.184   6.336   2.408 -1.7195  0.5401  2.6379
 8849SOL    MW435164   6.262   6.327   2.446 -0.2530  0.2646  0.9397
 8850SOL     OW35165   5.782   5.253   1.393 -0.2634  0.5138 -0.3216
 8850SOL    HW235166   5.708   5.247   1.454 -0.3114 -0.5369 -0.4514
 8850SOL    HW335167   5.816   5.163   1.389  0.0763  0.6781 -1.4231
 8850SOL    MW435168   5.777   5.240   1.401  0.2443  0.0454  0.2820
 8851SOL     OW35169   0.289   1.659   5.921  0.0835  0.0071  0.2290
 8851SOL    HW235170   0.223   1.707   5.972 -1.3517 -1.8606  0.2150
 8851SOL    HW335171   0.369   1.667   5.973 -0.5784  0.8295  1.1624
 8851SOL    MW435172   0.291   1.666   5.935 -0.3565  0.6586  0.4252
 8852SOL     OW35173   3.450   5.467   2.188  0.0768 -0.0392  0.0525
 8852SOL    HW235174   3.472   5.509   2.271  1.1461 -1.5180  0.5482
 8852SOL    HW335175   3.530   5.423   2.161 -0.5772 -0.5103 -1.2111
 8852SOL    MW435176   3.463   5.467   2.196  0.1351 -0.1371 -0.3689
 8853SOL     OW35177   5.220   4.156   5.461  0.1049 -0.2472 -0.1489
 8853SOL    HW235178   5.216   4.135   5.368  0.2453 -1.6374  0.1281
 8853SOL    HW335179   5.137   4.123   5.497 -0.4505  1.2716  0.0629
 8853SOL    MW435180   5.208   4.149   5.454  0.1449  0.5822  0.2539
 8854SOL     OW35181   3.214   0.449   5.626 -0.5388  0.4768 -0.1711
 8854SOL    HW235182   3.205   0.544   5.633 -0.0810  0.5399 -0.3924
 8854SOL    HW335183   3.308   0.434   5.635 -0.3928  0.1997 -1.8938
 8854SOL    MW435184   3.226   0.460   5.628 -0.3722  0.1561  0.6048
 8855SOL     OW35185   5.838   0.573   2.971 -0.2854  0.3657 -0.2157
 8855SOL    HW235186   5.917   0.604   3.015 -0.1478  0.2822 -0.4021
 8855SOL    HW335187   5.870   0.530   2.891 -0.4479 -0.5337  0.1910
 8855SOL    MW435188   5.852   0.571   2.966 -0.2076 -0.1004  0.5692
 8856SOL     OW35189   1.052   6.308   2.115 -0.6021  0.1888 -0.2814
 8856SOL    HW235190   1.108   6.323   2.039 -2.0960  1.1795 -1.2327
 8856SOL    HW335191   0.962   6.315   2.081 -1.3781 -2.4880  0.9375
 8856SOL    MW435192   1.047   6.311   2.100  0.4183 -0.2633  0.7938
 8857SOL     OW35193   2.105   2.717   3.195  0.4099 -0.3815 -0.2521
 8857SOL    HW235194   2.157   2.789   3.159 -0.8569  0.4008 -0.5976
 8857SOL    HW335195   2.157   2.638   3.178  1.9352  0.4608  0.3606
 8857SOL    MW435196   2.118   2.716   3.188  0.5806 -0.1916  0.2110
 8858SOL     OW35197   0.638   4.578   1.629 -0.2316 -0.1242 -1.0602
 8858SOL    HW235198   0.662   4.605   1.541  0.1653 -0.9406 -1.2204
 8858SOL    HW335199   0.585   4.499   1.616 -0.8164  0.1816 -0.5952
 8858SOL    MW435200   0.634   4.571   1.615  0.1174  0.0417  0.3627
 8859SOL     OW35201   0.913   4.083   2.742  0.2674 -0.0531  0.1930
 8859SOL    HW235202   0.914   4.065   2.648  2.6945  3.9832 -0.8185
 8859SOL    HW335203   1.005   4.088   2.767 -0.2063  2.4447  1.8464
 8859SOL    MW435204   0.925   4.082   2.733 -0.0328 -0.0943  0.3026
 8860SOL     OW35205   1.325   0.699   3.156  0.4738 -0.1646  0.1216
 8860SOL    HW235206   1.401   0.667   3.205  0.0659 -1.4500 -0.0509
 8860SOL    HW335207   1.312   0.633   3.087  0.1365  0.8437 -0.8010
 8860SOL    MW435208   1.333   0.686   3.154 -0.1372 -0.2098  0.3923
 8861SOL     OW35209   0.985   5.451   5.130 -0.2730  0.1821 -0.0883
 8861SOL    HW235210   0.998   5.480   5.039  0.0283  2.0914  0.5163
 8861SOL    HW335211   1.074   5.447   5.166 -0.2668 -1.8796 -0.1966
 8861SOL    MW435212   0.999   5.454   5.123 -0.3599 -0.2088 -0.1400
 8862SOL     OW35213   5.550   4.715   0.328 -0.9707  0.3400  0.5249
 8862SOL    HW235214   5.534   4.794   0.380 -1.9880 -0.4500  1.4711
 8862SOL    HW335215   5.588   4.653   0.390 -0.8504 -0.1449 -0.0244
 8862SOL    MW435216   5.553   4.717   0.343 -0.4266 -0.4134 -0.1727
 8863SOL     OW35217   0.145   0.257   3.000 -0.2017 -0.1527  0.0576
 8863SOL    HW235218   0.085   0.219   2.937  0.4298  0.2226 -0.7990
 8863SOL    HW335219   0.179   0.336   2.956 -0.0127  0.3083  1.0032
 8863SOL    MW435220   0.142   0.262   2.986 -0.1765 -0.0975 -0.3398
 8864SOL     OW35221   3.775   4.479   4.815 -0.1536 -0.9539  0.1091
 8864SOL    HW235222   3.811   4.443   4.735  1.9174 -2.2976  1.5600
 8864SOL    HW335223   3.681   4.461   4.809 -0.0876 -0.8210 -2.0606
 8864SOL    MW435224   3.767   4.472   4.804 -0.2116  0.3922 -0.5248
 8865SOL     OW35225   4.842   4.242   0.922  0.2956  0.5877 -0.0454
 8865SOL    HW235226   4.907   4.172   0.916  2.1844  2.2971 -1.0859
 8865SOL    HW335227   4.845   4.284   0.836 -1.6725  1.2060  0.1538
 8865SOL    MW435228   4.851   4.238   0.910  0.0232 -0.0942  0.3296
 8866SOL     OW35229   1.479   5.964   6.106 -0.5374 -0.0985 -0.1835
 8866SOL    HW235230   1.392   5.951   6.143 -0.7698  0.2489 -0.6049
 8866SOL    HW335231   1.466   5.961   6.011 -0.0745 -0.1628 -0.2491
 8866SOL    MW435232   1.466   5.962   6.098 -0.0891  0.0410 -0.5706
 8867SOL     OW35233   4.240   6.249   5.019 -0.4913  0.5960 -0.1846
 8867SOL    HW235234   4.241   6.342   4.996 -0.3359  0.5954 -0.1811
 8867SOL    HW335235   4.299   6.208   4.956  0.3227  0.6690  0.5311
 8867SOL    MW435236   4.248   6.256   5.007  0.2502  0.3844 -0.2356
 8868SOL     OW35237   3.372   5.637   1.303 -0.3990  0.0747 -0.0616
 8868SOL    HW235238   3.286   5.676   1.289  0.2502  1.2357 -0.9379
 8868SOL    HW335239   3.354   5.543   1.312 -1.9515  0.4625  1.7469
 8868SOL    MW435240   3.358   5.629   1.303 -0.6969  0.8419  0.1911
 8869SOL     OW35241   5.948   3.063   5.227  0.4727  0.4468  0.4669
 8869SOL    HW235242   5.975   2.990   5.172  2.5063  1.2284  0.3584
 8869SOL    HW335243   5.920   3.023   5.309  1.4389 -0.4576  0.3652
 8869SOL    MW435244   5.948   3.048   5.231 -0.1748  0.2184 -0.0746
 8870SOL     OW35245   4.255   1.864   0.015  0.1751 -0.0267  0.0751
 8870SOL    HW235246   4.231   1.802  -0.053  1.6816  0.6549 -1.1577
 8870SOL    HW335247   4.350   1.874   0.005  0.0708  1.9708  0.6350
 8870SOL    MW435248   4.265   1.857   0.005 -0.9030 -0.6038  0.0181
 8871SOL     OW35249   1.799   1.945   3.747 -0.5314 -0.2345 -0.0957
 8871SOL    HW235250   1.833   2.034   3.737  0.4855 -0.3473  1.8987
 8871SOL    HW335251   1.866   1.900   3.798 -1.5059 -1.8748 -0.2080
 8871SOL    MW435252   1.813   1.951   3.752 -0.1294 -0.4123 -0.0342
 8872SOL     OW35253   1.232   0.437   6.050 -0.3072 -0.0955 -0.1061
 8872SOL    HW235254   1.276   0.427   6.134  0.6991 -1.7740 -0.7658
 8872SOL    HW335255   1.299   0.471   5.991 -0.4453 -0.7524 -0.6578
 8872SOL    MW435256   1.247   0.440   6.053 -0.0005 -0.2692  0.4187
 8873SOL     OW35257   1.882   4.897   3.308 -0.0844  0.2878 -0.0598
 8873SOL    HW235258   1.915   4.807   3.303 -1.8144 -0.4467  0.7371
 8873SOL    HW335259   1.856   4.907   3.400 -2.9799  0.3866 -0.7939
 8873SOL    MW435260   1.883   4.886   3.320 -0.4255  0.6796  0.3803
 8874SOL     OW35261   0.026   5.871   3.047 -0.0407 -0.3146  0.5077
 8874SOL    HW235262   0.081   5.915   3.111  1.2159  0.1120 -0.8247
 8874SOL    HW335263   0.044   5.778   3.061  3.0727 -0.1573 -1.5524
 8874SOL    MW435264   0.036   5.864   3.058 -0.1880 -0.4632 -0.0199
 8875SOL     OW35265   3.539   1.546   5.190  0.0662 -0.2490 -0.9679
 8875SOL    HW235266   3.520   1.565   5.098  1.6723 -0.7704 -1.4446
 8875SOL    HW335267   3.625   1.584   5.205  1.4010 -3.0900 -0.7104
 8875SOL    MW435268   3.548   1.553   5.180  0.2530  0.3778  0.5194
 8876SOL     OW35269   1.522   5.211   3.594  0.0833  0.2433 -0.1435
 8876SOL    HW235270   1.617   5.203   3.584  0.4025  3.3147 -0.3564
 8876SOL    HW335271   1.487   5.171   3.514  0.9909 -2.6651  0.7813
 8876SOL    MW435272   1.530   5.205   3.582  0.1775 -0.3064 -0.5530
 8877SOL     OW35273   2.806   4.643   0.084 -0.1595  0.1618  0.4898
 8877SOL    HW235274   2.726   4.616   0.129 -0.3193  1.1795  0.8465
 8877SOL    HW335275   2.863   4.675   0.154  1.0645 -1.6770  0.3976
 8877SOL    MW435276   2.803   4.644   0.099  0.0818  0.3966 -0.4241
 8878SOL     OW35277   3.440   4.023   0.598  0.7321  0.8620  0.5120
 8878SOL    HW235278   3.470   4.053   0.684 -1.1362  2.6312  0.6325
 8878SOL    HW335279   3.392   3.942   0.616 -0.9735  2.0133  1.4329
 8878SOL    MW435280   3.438   4.016   0.612  0.2948 -0.4407  0.5360
 8879SOL     OW35281   2.421   1.731   4.318 -0.0083 -0.1876 -0.1887
 8879SOL    HW235282   2.380   1.695   4.240 -1.8127  0.9524  0.1918
 8879SOL    HW335283   2.491   1.669   4.338 -0.3034 -1.1762 -1.9618
 8879SOL    MW435284   2.425   1.718   4.310 -0.2668  0.0759 -0.1226
 8880SOL     OW35285   4.692   3.255   1.691  0.3974 -0.5810  0.1221
 8880SOL    HW235286   4.636   3.298   1.625 -2.0687 -1.6190  1.3936
 8880SOL    HW335287   4.694   3.163   1.665  3.4501 -0.2767 -1.0970
 8880SOL    MW435288   4.685   3.249   1.679 -0.4779  0.4000  0.1125
 8881SOL     OW35289   2.448   1.644   1.146  0.1326 -0.2149 -0.4455
 8881SOL    HW235290   2.539   1.670   1.158 -0.6930  2.6145  0.5918
 8881SOL    HW335291   2.429   1.661   1.054  0.9306 -2.0310 -0.9862
 8881SOL    MW435292   2.458   1.650   1.136  0.0284  0.2124 -0.0316
 8882SOL     OW35293   5.721   1.993   6.159 -0.6393  0.3425 -0.0744
 8882SOL    HW235294   5.761   2.068   6.204 -0.1735  1.4380 -2.1778
 8882SOL    HW335295   5.648   1.967   6.215  0.3976  1.0693  1.6988
 8882SOL    MW435296   5.717   1.999   6.173 -0.1971 -0.1674 -0.0353
 8883SOL     OW35297   0.936   0.133   4.121  0.2551  0.4241 -0.2316
 8883SOL    HW235298   0.844   0.108   4.116  0.8784 -2.5415  0.9788
 8883SOL    HW335299   0.944   0.182   4.202 -0.3009  1.0587 -0.5492
 8883SOL    MW435300   0.925   0.136   4.131 -0.7756  0.3555 -0.2512
 8884SOL     OW35301   5.664   5.826   3.089  0.0458  0.1733  0.0618
 8884SOL    HW235302   5.680   5.834   3.184 -0.5484  0.3138  0.1533
 8884SOL    HW335303   5.619   5.743   3.079  1.9886 -0.8827 -0.3544
 8884SOL    MW435304   5.660   5.816   3.101 -0.2893 -0.3192  0.0724
 8885SOL     OW35305   4.742   4.861   4.345  0.3493  0.5865 -0.8076
 8885SOL    HW235306   4.825   4.840   4.301  1.3125  0.2943  1.0321
 8885SOL    HW335307   4.769   4.906   4.425 -1.2867  0.4699 -0.1614
 8885SOL    MW435308   4.757   4.865   4.350  0.0268 -0.4766 -0.1318
 8886NA      NA35309   2.029   0.764   0.290  0.0773 -0.0413 -0.1184
 8887NA      NA35310   0.957   3.213   4.617  0.5604 -0.7201 -0.3565
 8888NA      NA35311   4.490   3.977   1.200 -0.3484 -0.0482 -0.4062
 8889NA      NA35312   2.388   2.548   1.646 -0.2085 -0.3516  0.3164
 8890NA      NA35313   0.243   1.424   5.455 -0.0280 -0.1584  0.0916
 8891NA      NA35314   0.522   5.812   5.436 -0.1557 -0.1424  0.3030
 8892NA      NA35315   3.142   4.659   5.292  0.0217 -0.3220 -0.1217
   6.42900   6.42900   6.42900
