A-SYNC WITH FASUDIL
35315
  121NASP     N    1   4.527   5.538   1.106  0.2114  0.5183  0.0166
  121NASP    H1    2   4.469   5.603   1.056 -0.6528 -0.2821 -0.0428
  121NASP    H2    3   4.504   5.445   1.075  1.9674 -0.0164  0.2006
  121NASP    H3    4   4.627   5.542   1.095  0.5491 -0.3840  2.2236
  121NASP    CA    5   4.505   5.552   1.251 -0.8611 -0.3384  0.4367
  121NASP    HA    6   4.405   5.514   1.273 -0.6258 -0.5248  1.2038
  121NASP    CB    7   4.593   5.460   1.332  1.0144 -0.3793  0.1091
  121NASP   HB1    8   4.558   5.358   1.314 -0.5972 -0.2230  1.9617
  121NASP   HB2    9   4.576   5.479   1.438  3.3732 -0.8476  0.6174
  121NASP    CG   10   4.742   5.462   1.304 -0.2997  0.0435 -0.3710
  121NASP   OD1   11   4.821   5.386   1.364 -0.7381  0.5437  0.0874
  121NASP   OD2   12   4.785   5.549   1.225 -0.0056  0.0127 -0.5305
  121NASP     C   13   4.502   5.702   1.296 -0.4500  0.7762 -0.2639
  121NASP     O   14   4.563   5.781   1.231 -0.5239 -0.0691  0.1164
  122ASN      N   15   4.436   5.724   1.412 -0.0740 -0.0157  0.3668
  122ASN      H   16   4.405   5.643   1.463 -0.8741  0.0967  0.0777
  122ASN     CA   17   4.410   5.854   1.461  0.2695 -0.1234 -0.2191
  122ASN     HA   18   4.391   5.924   1.380  3.3865 -0.2733 -1.2214
  122ASN     CB   19   4.285   5.859   1.551 -0.3334  0.0849  0.5283
  122ASN    HB1   20   4.279   5.951   1.609 -0.1403 -1.0106  2.3749
  122ASN    HB2   21   4.292   5.770   1.614  1.1978 -1.2602 -1.4188
  122ASN     CG   22   4.156   5.837   1.475  0.4879  0.4739 -0.3573
  122ASN    OD1   23   4.149   5.842   1.353 -0.0838  0.1224 -0.2658
  122ASN    ND2   24   4.044   5.822   1.539 -0.3437  0.7467 -0.0869
  122ASN   HD21   25   3.966   5.836   1.476  1.4881  1.6801 -2.2829
  122ASN   HD22   26   4.038   5.816   1.640  1.6588 -0.4860 -0.0028
  122ASN      C   27   4.530   5.904   1.534 -0.9225 -0.2507 -0.4724
  122ASN      O   28   4.603   5.829   1.593  0.6678  0.0413 -0.5954
  123GLU      N   29   4.547   6.037   1.534  0.1210  0.0619  0.4177
  123GLU      H   30   4.486   6.094   1.478 -0.0869 -1.1888 -0.6654
  123GLU     CA   31   4.650   6.106   1.614  0.1963  0.1965 -0.2895
  123GLU     HA   32   4.734   6.037   1.620 -0.1739 -0.1534  1.2461
  123GLU     CB   33   4.681   6.249   1.557  0.4871 -0.4433 -0.0995
  123GLU    HB1   34   4.754   6.299   1.619  0.1319  1.2374 -0.9957
  123GLU    HB2   35   4.588   6.306   1.552  0.1015 -1.1675 -2.5503
  123GLU     CG   36   4.731   6.256   1.414  0.0364 -0.5707  0.2019
  123GLU    HG1   37   4.642   6.248   1.352  1.6106  2.4600 -2.7413
  123GLU    HG2   38   4.800   6.172   1.404  2.8061  1.4384  1.2581
  123GLU     CD   39   4.796   6.390   1.380  0.4254  0.2663  0.4652
  123GLU    OE1   40   4.764   6.500   1.435  0.3550  0.0444 -0.9958
  123GLU    OE2   41   4.875   6.382   1.284  0.3483 -0.5352  0.0497
  123GLU      C   42   4.613   6.119   1.763  0.0198  0.1202 -0.3919
  123GLU      O   43   4.690   6.089   1.852 -0.0074 -0.4146 -0.4097
  124ALA      N   44   4.492   6.163   1.789 -0.0585 -0.3700 -0.0067
  124ALA      H   45   4.431   6.177   1.710 -0.2719  0.4941  0.2997
  124ALA     CA   46   4.430   6.176   1.920  0.2694 -0.0208 -0.7522
  124ALA     HA   47   4.484   6.123   1.999 -1.1962 -0.8511 -0.2638
  124ALA     CB   48   4.420   6.323   1.956 -0.4303 -0.3995  0.2775
  124ALA    HB1   49   4.522   6.362   1.953 -0.4715 -0.3210 -0.1938
  124ALA    HB2   50   4.387   6.339   2.059 -0.3474  1.8014  0.0151
  124ALA    HB3   51   4.364   6.367   1.874  1.1389 -0.7809 -1.0489
  124ALA      C   52   4.286   6.121   1.918 -0.1783 -1.0810  0.2376
  124ALA      O   53   4.224   6.078   1.820 -0.3021 -0.5481  0.1017
  125TYR      N   54   4.227   6.111   2.037 -0.4209  0.1160 -0.2057
  125TYR      H   55   4.280   6.152   2.112 -0.2110 -0.3100 -0.1185
  125TYR     CA   56   4.090   6.058   2.066 -0.0381  0.2053  0.4393
  125TYR     HA   57   4.093   5.952   2.042  2.9054  0.1056  0.8625
  125TYR     CB   58   4.069   6.083   2.216 -0.0882 -0.0519 -0.2455
  125TYR    HB1   59   4.076   6.187   2.245  1.0290 -0.1508 -0.1388
  125TYR    HB2   60   4.139   6.026   2.277  2.8107  2.4297 -0.9882
  125TYR     CG   61   3.932   6.050   2.266  0.4304  0.5017  0.4945
  125TYR    CD1   62   3.885   5.917   2.252  0.1165 -0.2411  0.4591
  125TYR    HD1   63   3.955   5.841   2.220  0.2899  0.4934 -0.9731
  125TYR    CE1   64   3.748   5.889   2.270 -0.0778  0.4649 -0.0143
  125TYR    HE1   65   3.709   5.792   2.240  0.0586 -0.1154  1.6311
  125TYR     CZ   66   3.661   5.985   2.321 -0.3836 -0.2107  0.2054
  125TYR     OH   67   3.537   5.958   2.360 -0.1850  0.0237 -0.0273
  125TYR     HH   68   3.507   5.871   2.333  0.9565 -0.0221 -1.2866
  125TYR    CE2   69   3.710   6.117   2.338  0.3420 -0.0741 -0.1559
  125TYR    HE2   70   3.636   6.186   2.378 -0.5541 -1.1493  0.1068
  125TYR    CD2   71   3.846   6.148   2.306  0.0577  0.0533 -1.1116
  125TYR    HD2   72   3.880   6.248   2.327 -1.9812  0.4521  0.8081
  125TYR      C   73   3.981   6.131   1.992 -0.0508 -0.1074 -0.3146
  125TYR      O   74   3.973   6.256   1.983  0.1923  1.0097 -0.3740
  126GLU      N   75   3.888   6.056   1.932 -0.1744  0.1477  0.2191
  126GLU      H   76   3.913   5.959   1.940  1.3645  0.5514  0.5472
  126GLU     CA   77   3.775   6.098   1.845  0.2820  0.3305  0.3484
  126GLU     HA   78   3.816   6.185   1.795 -0.9884 -0.1578 -1.6446
  126GLU     CB   79   3.755   5.997   1.739 -0.5944  0.3816  0.4100
  126GLU    HB1   80   3.733   5.902   1.787  4.8107 -1.1698  0.4967
  126GLU    HB2   81   3.849   5.969   1.691 -0.5184 -0.9234  1.2749
  126GLU     CG   82   3.646   6.030   1.632  0.0624  0.0255 -0.1728
  126GLU    HG1   83   3.682   6.088   1.547 -0.2661  3.0445  1.6134
  126GLU    HG2   84   3.581   6.103   1.679  2.0780  0.7013  1.7501
  126GLU     CD   85   3.579   5.907   1.584  0.5179 -0.0737  0.7001
  126GLU    OE1   86   3.463   5.912   1.545 -0.0587  0.2142  0.0447
  126GLU    OE2   87   3.639   5.801   1.566  0.1326 -0.0522  0.2026
  126GLU      C   88   3.653   6.130   1.927 -0.1574 -0.5365  0.0137
  126GLU      O   89   3.577   6.039   1.967 -0.3301 -0.5381  0.6520
  127MET      N   90   3.637   6.246   1.974 -0.1098 -0.5761  0.2168
  127MET      H   91   3.711   6.313   1.962  0.5341 -0.8186  2.3978
  127MET     CA   92   3.517   6.286   2.052 -0.5718  0.2263 -0.4377
  127MET     HA   93   3.524   6.234   2.148  2.2672  0.6292 -0.3356
  127MET     CB   94   3.527   6.436   2.080 -0.3871 -0.0573  0.0946
  127MET    HB1   95   3.525   6.484   1.982  0.6309 -0.5697 -0.1898
  127MET    HB2   96   3.622   6.460   2.126 -0.7887  0.1521  0.8303
  127MET     CG   97   3.426   6.512   2.166 -0.0466  0.3603 -0.3870
  127MET    HG1   98   3.326   6.511   2.122 -0.5972  0.2151  0.8448
  127MET    HG2   99   3.459   6.616   2.169  1.2745  0.0499 -2.0375
  127MET     SD  100   3.418   6.445   2.333  0.3454 -0.1288 -0.1008
  127MET     CE  101   3.273   6.549   2.378 -0.2887  0.1973  0.0311
  127MET    HE1  102   3.237   6.535   2.480 -0.6128 -0.8244 -0.2119
  127MET    HE2  103   3.192   6.525   2.308 -2.1685 -1.0063  2.4660
  127MET    HE3  104   3.306   6.651   2.361 -1.4005  0.6846  0.6910
  127MET      C  105   3.388   6.246   1.978  0.1139 -0.3940 -0.2839
  127MET      O  106   3.373   6.270   1.857 -0.7900 -0.5438 -0.0885
  128PRO      N  107   3.292   6.185   2.048  0.0229  0.0727 -0.4992
  128PRO     CD  108   3.304   6.141   2.186 -0.0131  0.3269  0.7765
  128PRO    HD1  109   3.298   6.217   2.264  2.5381 -0.5164  1.9004
  128PRO    HD2  110   3.394   6.079   2.197  0.9572  1.7000  0.7698
  128PRO     CG  111   3.182   6.051   2.205  0.8947  0.4649  0.3557
  128PRO    HG1  112   3.122   6.117   2.267  3.2099  1.7851  1.3133
  128PRO    HG2  113   3.210   5.962   2.260  0.9906  2.0620  3.0407
  128PRO     CB  114   3.119   6.029   2.074 -0.1477  0.3238 -0.3077
  128PRO    HB1  115   3.178   5.951   2.026  2.2167 -0.7029  3.7752
  128PRO    HB2  116   3.012   6.013   2.091 -0.2142  1.3762  0.3648
  128PRO     CA  117   3.156   6.152   1.998  0.0703 -0.1251  0.7161
  128PRO     HA  118   3.158   6.132   1.891 -0.4998 -3.4369  1.2059
  128PRO      C  119   3.059   6.275   2.013 -0.2477 -0.1327  0.2407
  128PRO      O  120   2.972   6.278   2.096 -0.7443  0.0289 -0.5087
  129SER      N  121   3.072   6.375   1.924  0.2900 -0.0204 -0.4602
  129SER      H  122   3.131   6.353   1.845  0.6010 -2.1996  0.3050
  129SER     CA  123   2.985   6.496   1.923  0.2561  0.6454 -0.3120
  129SER     HA  124   2.962   6.521   2.027 -0.9240  0.2989 -0.4714
  129SER     CB  125   3.035   6.617   1.844  0.4356 -0.0127  0.7328
  129SER    HB1  126   3.118   6.661   1.900  0.6117 -0.5632  0.9181
  129SER    HB2  127   2.956   6.688   1.823 -0.6215 -0.8279  1.8091
  129SER     OG  128   3.087   6.567   1.730 -0.5708  0.2993 -0.4163
  129SER    HG1  129   3.172   6.610   1.714 -0.1738 -0.4443 -0.3645
  129SER      C  130   2.845   6.472   1.867  0.8024 -0.3827 -0.3414
  129SER      O  131   2.828   6.390   1.773  0.6036 -0.4499 -0.3445
  130GLU      N  132   2.742   6.544   1.919  0.1202 -0.3393 -0.5147
  130GLU      H  133   2.761   6.601   2.001 -0.8869  0.3999 -0.7665
  130GLU     CA  134   2.602   6.530   1.886  0.0898 -0.2706 -0.2308
  130GLU     HA  135   2.583   6.430   1.848 -1.8295 -0.9270  2.1677
  130GLU     CB  136   2.501   6.527   2.001  0.0881 -0.1291 -0.5137
  130GLU    HB1  137   2.403   6.547   1.959 -1.0835  0.3655  2.2329
  130GLU    HB2  138   2.522   6.600   2.080 -1.2204 -2.2817  1.9471
  130GLU     CG  139   2.490   6.395   2.080 -0.5117  1.1872  0.8079
  130GLU    HG1  140   2.586   6.383   2.129  0.8428 -0.1929 -1.9413
  130GLU    HG2  141   2.482   6.318   2.003  3.2241 -0.6205  2.0198
  130GLU     CD  142   2.380   6.400   2.183  0.0663 -0.2443  0.7267
  130GLU    OE1  143   2.372   6.494   2.262 -0.4523 -0.1816  0.0259
  130GLU    OE2  144   2.296   6.306   2.191 -0.1067 -0.1251  0.6932
  130GLU      C  145   2.552   6.625   1.775 -0.2063  0.2545 -0.4778
  130GLU      O  146   2.599   6.741   1.765  0.0599 -0.0553 -0.0367
  131GLU      N  147   2.460   6.571   1.688 -0.5069  0.1020 -0.8285
  131GLU      H  148   2.424   6.478   1.706 -0.4720  0.4210  1.2199
  131GLU     CA  149   2.424   6.636   1.562 -0.4355 -0.1105  0.2703
  131GLU     HA  150   2.517   6.669   1.516  0.5585 -0.4848  1.9368
  131GLU     CB  151   2.338   6.542   1.476 -0.3962  0.5631 -0.6911
  131GLU    HB1  152   2.291   6.591   1.391  1.3210  1.4909 -1.1571
  131GLU    HB2  153   2.260   6.494   1.536  1.0198  1.0395  1.7000
  131GLU     CG  154   2.433   6.434   1.423 -0.1456 -0.1702 -0.3300
  131GLU    HG1  155   2.497   6.390   1.500  1.6447  1.0090 -1.0777
  131GLU    HG2  156   2.512   6.468   1.357 -0.0547 -1.0119 -0.6718
  131GLU     CD  157   2.356   6.330   1.346 -0.1852  0.2519  0.4040
  131GLU    OE1  158   2.375   6.209   1.363  0.7791 -0.0567 -0.4647
  131GLU    OE2  159   2.281   6.369   1.255  0.2776 -0.3668  0.1524
  131GLU      C  160   2.339   6.767   1.584 -0.0255 -0.3536  0.2061
  131GLU      O  161   2.348   6.854   1.498 -1.0847  0.5261  0.0633
  132GLY      N  162   2.255   6.781   1.692 -0.0396 -0.2082 -0.0830
  132GLY      H  163   2.254   6.703   1.756  0.1325 -0.9127 -0.9124
  132GLY     CA  164   2.191   6.903   1.736 -0.4855  0.7999 -0.1718
  132GLY    HA1  165   2.119   6.881   1.815 -0.4457 -0.9599 -0.5906
  132GLY    HA2  166   2.132   6.944   1.654  0.1292 -0.0005 -1.0356
  132GLY      C  167   2.271   7.025   1.793  0.4587 -0.2665 -0.1348
  132GLY      O  168   2.218   7.135   1.801  0.0383 -0.1706  0.6696
  133TYR      N  169   2.400   7.003   1.816  0.3831 -0.3060  0.5179
  133TYR      H  170   2.431   6.907   1.813 -1.2120 -0.8461  0.3990
  133TYR     CA  171   2.493   7.092   1.886 -0.4908 -0.3993 -0.4054
  133TYR     HA  172   2.446   7.103   1.983  0.9535  0.6684  0.2104
  133TYR     CB  173   2.628   7.025   1.926 -0.2647  0.2563  0.7218
  133TYR    HB1  174   2.657   6.967   1.839 -2.2838 -0.5107  0.4973
  133TYR    HB2  175   2.608   6.948   2.000  1.2979  0.1854  1.1084
  133TYR     CG  176   2.748   7.107   1.978  0.1417  0.7506 -0.7718
  133TYR    CD1  177   2.778   7.106   2.113  0.1655 -0.3678  0.3554
  133TYR    HD1  178   2.717   7.038   2.170  0.9799 -2.2664 -0.9123
  133TYR    CE1  179   2.879   7.188   2.160 -0.6953  0.3719 -0.4429
  133TYR    HE1  180   2.915   7.188   2.262 -1.7982 -0.0351 -0.0367
  133TYR     CZ  181   2.949   7.273   2.068  0.0719 -0.1404 -0.5545
  133TYR     OH  182   3.055   7.350   2.111 -0.5594 -0.0955 -0.1042
  133TYR     HH  183   3.117   7.372   2.041 -1.3058  0.3751 -0.6393
  133TYR    CE2  184   2.918   7.272   1.930 -0.3576  0.0451 -0.1759
  133TYR    HE2  185   2.978   7.325   1.858  2.6835 -1.4722  1.0487
  133TYR    CD2  186   2.823   7.181   1.887 -0.5630  0.5235  0.2390
  133TYR    HD2  187   2.802   7.158   1.783  1.7157 -2.7030  0.3134
  133TYR      C  188   2.515   7.231   1.821 -0.1666  0.4686  0.4690
  133TYR      O  189   2.506   7.245   1.696  0.0977  0.0868 -0.4461
  134GLN      N  190   2.545   7.327   1.907  0.1122  0.2605  0.6374
  134GLN      H  191   2.539   7.311   2.006 -1.7439  3.2043  1.1266
  134GLN     CA  192   2.582   7.464   1.875  0.7288 -0.1120 -0.5479
  134GLN     HA  193   2.624   7.460   1.775 -1.6984  0.0813 -1.6473
  134GLN     CB  194   2.457   7.548   1.887  0.5339  0.7504  0.2044
  134GLN    HB1  195   2.482   7.654   1.891 -0.9494  1.1418  0.0011
  134GLN    HB2  196   2.415   7.525   1.985 -2.7332  2.2595 -0.6990
  134GLN     CG  197   2.341   7.509   1.780 -0.4072 -0.8442  0.0784
  134GLN    HG1  198   2.305   7.408   1.797 -2.3228 -0.2770 -0.3954
  134GLN    HG2  199   2.378   7.532   1.680 -2.3905  2.7820 -0.0049
  134GLN     CD  200   2.211   7.593   1.789 -0.1749 -0.2657  0.4983
  134GLN    OE1  201   2.190   7.672   1.878  0.1143  0.3200 -0.0636
  134GLN    NE2  202   2.107   7.561   1.715  0.3113  0.5144 -0.0957
  134GLN   HE21  203   2.014   7.598   1.731 -0.2952 -0.1013 -1.9863
  134GLN   HE22  204   2.120   7.468   1.679  0.1211  0.1582  0.7389
  134GLN      C  205   2.698   7.512   1.964 -0.6380  0.3471 -0.2990
  134GLN      O  206   2.703   7.489   2.088  0.3347  0.0813  0.4673
  135ASP      N  207   2.798   7.585   1.905 -0.3086  0.3614 -0.0597
  135ASP      H  208   2.804   7.585   1.804 -1.1723 -0.6627 -0.1186
  135ASP     CA  209   2.881   7.675   1.989  0.0410 -0.1988 -0.2456
  135ASP     HA  210   2.940   7.616   2.059 -2.2329 -0.5062  1.5215
  135ASP     CB  211   2.971   7.755   1.885 -0.4686 -0.3088 -0.5494
  135ASP    HB1  212   2.917   7.842   1.848  1.1016  0.1855 -1.7692
  135ASP    HB2  213   2.996   7.693   1.799 -1.9948  0.2928 -1.4561
  135ASP     CG  214   3.104   7.803   1.938  0.4236 -0.8734  0.0598
  135ASP    OD1  215   3.175   7.879   1.871 -0.4364 -0.3419 -0.3108
  135ASP    OD2  216   3.147   7.756   2.049  0.9923 -0.4037  0.4322
  135ASP      C  217   2.815   7.776   2.076 -0.4531  0.4986  0.0455
  135ASP      O  218   2.695   7.796   2.064  0.1573 -0.4521  0.2219
  136TYR      N  219   2.883   7.836   2.172  0.1028  0.5962 -0.1117
  136TYR      H  220   2.978   7.807   2.185 -0.6726 -2.2172 -0.1836
  136TYR     CA  221   2.827   7.944   2.260 -0.3090  0.1306 -0.7675
  136TYR     HA  222   2.744   7.900   2.316 -1.1660 -0.0786 -2.1550
  136TYR     CB  223   2.933   7.978   2.368  0.3736 -0.2902 -0.3446
  136TYR    HB1  224   3.028   7.997   2.317  0.0106  1.9316 -0.2582
  136TYR    HB2  225   2.946   7.888   2.428 -0.8079 -0.7034 -0.6919
  136TYR     CG  226   2.897   8.099   2.453  0.3400  0.2969 -0.6017
  136TYR    CD1  227   2.957   8.225   2.415 -0.8057  0.5951 -0.4805
  136TYR    HD1  228   3.030   8.229   2.336  0.2663  0.8285  0.4950
  136TYR    CE1  229   2.909   8.341   2.479 -0.5479  0.7201  0.2022
  136TYR    HE1  230   2.948   8.438   2.455  2.3368 -0.9666 -2.7808
  136TYR     CZ  231   2.814   8.332   2.582  0.3602  0.3024 -0.4312
  136TYR     OH  232   2.772   8.443   2.637  0.4908  0.2193  0.0540
  136TYR     HH  233   2.694   8.425   2.690  1.8446 -0.7513  1.7856
  136TYR    CE2  234   2.752   8.210   2.610  0.3522  0.5487 -0.6250
  136TYR    HE2  235   2.662   8.206   2.670  1.2655 -2.1027  0.7448
  136TYR    CD2  236   2.792   8.090   2.547  0.6756  0.5467 -0.1651
  136TYR    HD2  237   2.742   7.998   2.572 -1.6329  1.3725 -1.4548
  136TYR      C  238   2.780   8.072   2.184  0.1480 -0.1966 -0.1775
  136TYR      O  239   2.849   8.131   2.104 -0.1618  0.0786 -0.1466
  137GLU      N  240   2.655   8.107   2.211  0.7576  0.0912 -0.1199
  137GLU      H  241   2.610   8.052   2.283  1.8060 -1.3566 -0.5155
  137GLU     CA  242   2.595   8.226   2.154 -0.3682  0.7720 -0.1414
  137GLU     HA  243   2.669   8.276   2.091  1.6468  0.2245  1.6795
  137GLU     CB  244   2.473   8.192   2.070 -0.4152 -0.0050 -1.0415
  137GLU    HB1  245   2.403   8.151   2.142 -0.3101 -0.5044 -1.2186
  137GLU    HB2  246   2.506   8.119   1.995  2.1802 -0.4470  0.4047
  137GLU     CG  247   2.404   8.317   2.006 -0.0672  0.3713  0.3698
  137GLU    HG1  248   2.367   8.387   2.082 -0.3606 -1.0242  1.5498
  137GLU    HG2  249   2.317   8.276   1.956 -1.5136  1.1142  2.1632
  137GLU     CD  250   2.482   8.393   1.900 -0.9144  0.0157  0.1947
  137GLU    OE1  251   2.450   8.513   1.883 -0.1135 -0.0040 -0.7139
  137GLU    OE2  252   2.586   8.348   1.845 -0.1013  0.0420 -0.1886
  137GLU      C  253   2.558   8.327   2.262  0.9270  0.4103  0.2374
  137GLU      O  254   2.468   8.296   2.345 -0.2190  0.4631 -0.4339
  138PRO      N  255   2.625   8.444   2.269 -0.0448 -0.2424 -0.1596
  138PRO     CD  256   2.739   8.476   2.188  0.5506  0.4407  0.0987
  138PRO    HD1  257   2.728   8.473   2.079  0.2291 -1.9742  0.1237
  138PRO    HD2  258   2.819   8.407   2.215 -0.2837 -0.4357  0.4076
  138PRO     CG  259   2.782   8.608   2.234 -0.3706 -1.0520  0.3002
  138PRO    HG1  260   2.740   8.673   2.157  1.0500  0.0967  0.4507
  138PRO    HG2  261   2.889   8.630   2.231 -0.5811  0.0373 -2.4370
  138PRO     CB  262   2.706   8.642   2.363  0.5132 -0.0407  0.5633
  138PRO    HB1  263   2.774   8.626   2.447  2.0064 -0.4192 -0.6563
  138PRO    HB2  264   2.666   8.743   2.363 -2.0442 -0.9764  0.9379
  138PRO     CA  265   2.581   8.551   2.365  0.0807  0.2255  0.0233
  138PRO     HA  266   2.573   8.507   2.464 -2.2949  1.2373  0.3531
  138PRO      C  267   2.446   8.615   2.335 -0.0945  0.6551 -0.4321
  138PRO      O  268   2.399   8.612   2.217  0.3262 -0.5420 -0.5375
  139GLU      N  269   2.378   8.680   2.432  0.0810 -0.4311 -0.1863
  139GLU      H  270   2.419   8.682   2.524  0.8987  3.2077 -0.4842
  139GLU     CA  271   2.256   8.757   2.414  0.2901  0.4082 -0.4230
  139GLU     HA  272   2.237   8.769   2.308  1.1354  1.3422 -0.4830
  139GLU     CB  273   2.142   8.677   2.472 -0.0165  0.2839  0.8594
  139GLU    HB1  274   2.052   8.738   2.463 -0.9324 -1.1599 -0.2411
  139GLU    HB2  275   2.165   8.647   2.574  2.3152  1.2273  0.6482
  139GLU     CG  276   2.121   8.549   2.389 -0.5506 -0.3862 -0.5165
  139GLU    HG1  277   2.203   8.482   2.417 -0.4307  0.3853  1.1151
  139GLU    HG2  278   2.126   8.575   2.283  1.4628  1.9606  0.0697
  139GLU     CD  279   1.987   8.481   2.407 -0.2592  0.3829  0.6218
  139GLU    OE1  280   1.943   8.418   2.311 -0.3417  0.1991 -0.5102
  139GLU    OE2  281   1.938   8.486   2.520 -0.4140 -0.0877  0.5206
  139GLU      C  282   2.259   8.897   2.484  0.3275  0.2440 -0.3306
  139GLU      O  283   2.158   8.973   2.493  0.1183  0.3001  0.0359
  140CALA     N  284   2.378   8.936   2.528 -0.4364 -0.3835 -0.2857
  140CALA     H  285   2.457   8.876   2.509  1.7278  1.5540  1.9290
  140CALA    CA  286   2.413   9.061   2.590  0.4745 -0.7570 -0.4950
  140CALA    HA  287   2.352   9.140   2.545 -0.3980 -1.5074 -0.6561
  140CALA    CB  288   2.380   9.059   2.740  0.4901 -0.5000 -0.3156
  140CALA   HB1  289   2.402   9.156   2.783 -0.3732 -0.7935  0.8193
  140CALA   HB2  290   2.432   8.979   2.792  0.2348 -0.1696  0.4533
  140CALA   HB3  291   2.271   9.048   2.742  0.5686 -1.3173  2.3323
  140CALA     C  292   2.556   9.095   2.559  0.3870 -0.2141  0.7029
  140CALA   OC1  293   2.587   9.188   2.480  0.4648  0.0788  0.1879
  140CALA   OC2  294   2.648   9.018   2.599  0.4334  0.3992 -0.3965
  141FAS      C  295   0.133   2.832   1.526  0.3278  0.3241 -0.2568
  141FAS     C1  296   0.282   2.874   1.553 -0.4828  0.0590  0.1327
  141FAS      N  297   0.387   2.842   1.448 -0.2217 -0.0227  0.2640
  141FAS     C2  298   0.425   2.702   1.448 -0.0275 -0.3719  0.2895
  141FAS     C3  299   0.332   2.610   1.366 -0.0034  0.3006  0.3931
  141FAS     N1  300   0.192   2.663   1.345  0.3988 -0.1263 -0.4928
  141FAS     C4  301   0.114   2.684   1.471  0.3393  0.0429 -0.3603
  141FAS      S  302   0.105   2.584   1.230 -0.1528 -0.0533  0.2992
  141FAS      O  303   0.177   2.608   1.101  0.2552  0.0396  0.1029
  141FAS     O1  304   0.091   2.446   1.279  0.1274  0.6502 -0.1887
  141FAS     C5  305  -0.051   2.664   1.226  1.2366  0.1123 -0.3101
  141FAS     C6  306  -0.158   2.581   1.259 -0.1348  0.5670 -0.1456
  141FAS     C7  307  -0.291   2.629   1.261 -0.4238  0.2868  0.4702
  141FAS     C8  308  -0.315   2.765   1.236  0.2518 -0.1349  0.6484
  141FAS     C9  309  -0.215   2.846   1.182 -0.4384 -0.2531 -0.1702
  141FAS    C10  310  -0.079   2.800   1.193 -0.0772 -0.6053  0.5279
  141FAS    C11  311   0.026   2.888   1.160 -0.2692  0.1823  0.7223
  141FAS    C12  312  -0.013   3.017   1.122 -0.8806 -0.3513  0.6992
  141FAS     N2  313  -0.141   3.059   1.107 -0.1322 -0.2748 -0.3039
  141FAS    C13  314  -0.239   2.976   1.132 -0.3936 -0.0225 -0.7170
  141FAS      H  315   0.090   2.907   1.458  1.2047  0.6186 -0.4965
  141FAS     H1  316   0.070   2.842   1.615  0.8433 -0.2386  0.1790
  141FAS     H2  317   0.306   2.820   1.645 -1.4371 -0.3169  0.1714
  141FAS     H3  318   0.297   2.977   1.587 -1.9915 -0.2936  2.1025
  141FAS     H4  319   0.351   2.868   1.355  0.7909  2.5171  0.4920
  141FAS     H5  320   0.427   2.675   1.554 -0.9777  1.0551  0.7081
  141FAS     H6  321   0.526   2.697   1.405 -0.2552  3.3438 -1.1392
  141FAS     H7  322   0.324   2.511   1.412 -1.1370 -0.5634 -1.5272
  141FAS     H8  323   0.384   2.591   1.271 -2.1069  0.5450 -0.8997
  141FAS     H9  324   0.155   2.616   1.546  0.3057 -1.4669 -1.6701
  141FAS    H10  325   0.007   2.661   1.470  0.2594  0.3270  0.8156
  141FAS    H11  326  -0.154   2.478   1.293 -1.3560  0.7687  0.6656
  141FAS    H12  327  -0.373   2.563   1.289 -0.3671  0.3546  0.8043
  141FAS    H13  328  -0.413   2.811   1.245  0.7899  1.2014  0.0812
  141FAS    H14  329   0.133   2.874   1.169 -0.2066  1.2977  2.0522
  141FAS    H15  330   0.071   3.084   1.104 -2.3154  0.7151 -2.9546
  141FAS    H16  331  -0.340   3.017   1.125 -0.6999 -0.8042 -0.9361
  141FAS    H17  332   0.474   2.897   1.456 -0.4814  0.4091  0.1405
  142SOL     OW  333   5.518   4.526   0.181  0.4793 -0.1088  0.2459
  142SOL    HW2  334   5.538   4.615   0.151 -0.1935 -0.4133 -1.2006
  142SOL    HW3  335   5.600   4.496   0.222  0.2988  1.6361  2.0344
  142SOL    MW4  336   5.532   4.533   0.182 -0.1713 -0.7435 -0.6257
  143SOL     OW  337   5.798   5.811   1.763  0.0151 -0.0053  0.0838
  143SOL    HW2  338   5.706   5.783   1.761  0.1219 -0.2972 -1.6307
  143SOL    HW3  339   5.822   5.824   1.671  0.7906  3.1024  0.5966
  143SOL    MW4  340   5.789   5.809   1.751  0.7704 -0.1231 -0.2507
  144SOL     OW  341   1.588   0.775   5.936 -0.5949  0.2536  0.3420
  144SOL    HW2  342   1.664   0.814   5.980  0.5876 -0.4741 -0.9837
  144SOL    HW3  343   1.519   0.777   6.003  0.4872  1.1963  1.4965
  144SOL    MW4  344   1.589   0.780   5.951  0.1361  0.0906  0.0161
  145SOL     OW  345   4.889   1.538   0.701  1.3617 -0.2194 -0.1364
  145SOL    HW2  346   4.856   1.580   0.621  1.3309 -0.2166 -0.1224
  145SOL    HW3  347   4.814   1.537   0.760  1.3462 -0.3471 -0.1572
  145SOL    MW4  348   4.875   1.543   0.698 -0.2796 -0.6071  0.1694
  146SOL     OW  349   2.869   5.155   0.260 -0.0550  0.1594  0.3134
  146SOL    HW2  350   2.914   5.195   0.186  2.1576 -1.6613  0.5359
  146SOL    HW3  351   2.798   5.105   0.221 -0.4133  1.1595 -0.3271
  146SOL    MW4  352   2.866   5.154   0.245 -0.5903 -0.4490  0.2983
  147SOL     OW  353   5.547   0.932   1.356 -0.0396  0.3471 -0.1833
  147SOL    HW2  354   5.506   0.967   1.434  1.4892 -0.6593  1.1444
  147SOL    HW3  355   5.555   1.006   1.297  1.0839  1.7579  1.6375
  147SOL    MW4  356   5.543   0.946   1.358  0.6490  0.2364  0.0177
  148SOL     OW  357   6.072   2.921   2.264  0.4082  0.1804  0.1325
  148SOL    HW2  358   6.064   2.935   2.170  0.5782  1.5357  0.2984
  148SOL    HW3  359   6.095   2.828   2.273  2.2406  0.4282 -1.2723
  148SOL    MW4  360   6.074   2.910   2.253  0.0002  0.0972  0.3331
  149SOL     OW  361   4.119   2.892   5.609 -0.6228  0.6925 -0.1064
  149SOL    HW2  362   4.206   2.853   5.614  0.2533  2.3271 -1.5210
  149SOL    HW3  363   4.122   2.966   5.670 -1.0533  0.7177 -0.1120
  149SOL    MW4  364   4.131   2.897   5.618  0.4271 -0.0350 -0.4939
  150SOL     OW  365   5.559   2.599   0.574  0.1610 -0.3857  0.1768
  150SOL    HW2  366   5.614   2.549   0.635  0.4836  0.2896  0.4499
  150SOL    HW3  367   5.470   2.569   0.592  0.0829  0.7656  1.9619
  150SOL    MW4  368   5.554   2.589   0.585  0.2636  0.0586  0.2377
  151SOL     OW  369   6.316   4.345   6.424 -0.0681  0.1569  0.5083
  151SOL    HW2  370   6.333   4.439   6.426 -1.1553  0.4211 -0.9099
  151SOL    HW3  371   6.261   4.332   6.346  0.6663 -1.7530  0.2536
  151SOL    MW4  372   6.311   4.355   6.414  0.1295 -0.1748  0.5651
  152SOL     OW  373   4.852   1.484   0.157 -0.0171  0.5718 -0.5100
  152SOL    HW2  374   4.851   1.444   0.070  0.6597  0.2025 -0.3498
  152SOL    HW3  375   4.911   1.559   0.149 -0.7037  1.1072 -0.6153
  152SOL    MW4  376   4.860   1.489   0.145 -0.1153  0.1808  0.0457
  153SOL     OW  377   3.342   0.161   1.235  0.1717  0.2197  0.4576
  153SOL    HW2  378   3.426   0.153   1.280 -0.6715  1.7149  2.4538
  153SOL    HW3  379   3.283   0.201   1.300 -1.7023  0.5577 -1.3321
  153SOL    MW4  380   3.345   0.166   1.249  0.1558 -0.0317  0.2957
  154SOL     OW  381   2.334   4.256   2.351 -0.2945 -0.0399 -0.3368
  154SOL    HW2  382   2.265   4.198   2.322  0.6318 -0.4436 -1.8319
  154SOL    HW3  383   2.306   4.344   2.324  0.6097 -0.4159 -2.7553
  154SOL    MW4  384   2.321   4.260   2.344 -0.0910  0.1906  0.1946
  155SOL     OW  385   2.845   0.608   0.680 -0.2952  0.4253  0.6942
  155SOL    HW2  386   2.890   0.657   0.612  0.4862 -1.9680 -0.6257
  155SOL    HW3  387   2.912   0.593   0.747 -0.3496  0.5470  0.7774
  155SOL    MW4  388   2.860   0.613   0.680  0.2558  0.2005 -0.4564
  156SOL     OW  389   1.433   5.409   4.847  0.4277  0.1238  0.3585
  156SOL    HW2  390   1.373   5.407   4.921  1.1898  0.5092  1.0026
  156SOL    HW3  391   1.428   5.321   4.809 -2.6034  0.9055 -1.3077
  156SOL    MW4  392   1.425   5.397   4.852 -0.1200  1.2030 -0.1751
  157SOL     OW  393   4.413   0.843   2.271 -0.2716  0.2854  0.0393
  157SOL    HW2  394   4.384   0.752   2.265  0.0181  0.1608  0.4483
  157SOL    HW3  395   4.333   0.894   2.278 -0.4409  0.0767 -0.3791
  157SOL    MW4  396   4.399   0.838   2.271  0.0900  0.2509  0.3617
  158SOL     OW  397   6.027   4.930   2.897  0.4633 -0.4147  0.4914
  158SOL    HW2  398   6.077   4.996   2.945 -0.4284  0.7056 -0.0818
  158SOL    HW3  399   5.952   4.977   2.861 -0.5249 -1.8672  0.5581
  158SOL    MW4  400   6.024   4.945   2.898  0.5727 -0.3034 -0.2902
  159SOL     OW  401   4.238   2.442   4.761  0.0219 -0.0538 -0.3319
  159SOL    HW2  402   4.272   2.474   4.678 -0.2612  1.5611  0.1445
  159SOL    HW3  403   4.143   2.439   4.749  0.0836 -1.5392 -0.6294
  159SOL    MW4  404   4.230   2.446   4.749  0.6242 -0.6160 -0.1743
  160SOL     OW  405   2.265   2.197   5.127 -0.0552 -0.3984  0.0657
  160SOL    HW2  406   2.347   2.218   5.172 -2.0052  1.2480  3.2264
  160SOL    HW3  407   2.235   2.117   5.169 -0.8011 -0.1084  0.1028
  160SOL    MW4  408   2.272   2.189   5.139 -0.4949  0.2562 -0.3481
  161SOL     OW  409   2.509   4.444   3.774 -0.3898 -0.2188 -0.1738
  161SOL    HW2  410   2.439   4.509   3.771 -1.0007 -0.8996 -1.0463
  161SOL    HW3  411   2.578   4.481   3.719  0.7086  1.2680  2.0519
  161SOL    MW4  412   2.509   4.457   3.766  0.0892 -0.1884  0.6944
  162SOL     OW  413   4.644   3.469   1.156  0.0988 -0.2096  0.4228
  162SOL    HW2  414   4.697   3.532   1.205 -0.9463 -0.0332  1.3720
  162SOL    HW3  415   4.697   3.447   1.079  2.4272 -1.4918  2.2388
  162SOL    MW4  416   4.658   3.474   1.153  0.7936  0.2047  0.2252
  163SOL     OW  417   5.241   2.435   1.238  0.2233 -0.5145  0.2229
  163SOL    HW2  418   5.259   2.462   1.328 -0.6952  0.0420  0.2595
  163SOL    HW3  419   5.303   2.484   1.185 -0.2681  0.3549  0.4379
  163SOL    MW4  420   5.251   2.445   1.243  0.0283  0.4545  0.0451
  164SOL     OW  421   4.291   6.161   0.025 -0.1529 -0.1293 -0.6773
  164SOL    HW2  422   4.196   6.154   0.023 -0.0380 -2.0268 -1.7576
  164SOL    HW3  423   4.309   6.251  -0.003 -1.6115  0.3463 -0.1738
  164SOL    MW4  424   4.281   6.172   0.021  0.6297 -0.0940 -0.0516
  165SOL     OW  425   1.517   2.193   2.196  0.5153 -0.0293  0.8825
  165SOL    HW2  426   1.470   2.169   2.116  0.9065 -1.7734  1.1442
  165SOL    HW3  427   1.610   2.186   2.173  0.8615  4.0162  0.1733
  165SOL    MW4  428   1.523   2.189   2.183  0.3381 -0.1951 -0.7752
  166SOL     OW  429   1.397   0.582   6.116 -0.3329 -0.5141 -0.2479
  166SOL    HW2  430   1.368   0.625   6.197 -1.5566 -1.7701  0.0143
  166SOL    HW3  431   1.320   0.580   6.060  0.7169  1.1733 -1.8940
  166SOL    MW4  432   1.383   0.588   6.119 -0.4211  0.1030  0.2341
  167SOL     OW  433   5.568   6.035   4.510 -0.9230 -0.4319 -0.7823
  167SOL    HW2  434   5.535   5.972   4.446 -2.9050 -0.0009 -0.2490
  167SOL    HW3  435   5.491   6.083   4.538 -0.2449 -0.9751  2.3749
  167SOL    MW4  436   5.554   6.033   4.505 -0.2855 -0.2643  0.1612
  168SOL     OW  437   1.296   5.452   5.095 -0.3138  0.6054 -0.2088
  168SOL    HW2  438   1.270   5.541   5.119 -0.5903  0.9261 -1.5940
  168SOL    HW3  439   1.223   5.397   5.124 -1.0093  1.0788 -1.0070
  168SOL    MW4  440   1.283   5.457   5.102  0.0903 -0.1789  0.1153
  169SOL     OW  441   0.791   5.448   5.945 -0.0600  0.3872 -0.1311
  169SOL    HW2  442   0.872   5.440   5.894 -0.5226 -0.3508 -0.7637
  169SOL    HW3  443   0.734   5.502   5.890 -0.2042  0.4399  0.0706
  169SOL    MW4  444   0.794   5.454   5.931  0.3296  0.7340 -0.6734
  170SOL     OW  445   5.973   3.791   5.959  0.5265  0.2931 -0.2815
  170SOL    HW2  446   5.955   3.827   5.872  1.6746 -0.7857 -0.9951
  170SOL    HW3  447   5.923   3.847   6.019  0.9913  2.0528 -1.4793
  170SOL    MW4  448   5.964   3.803   5.955  0.2180  0.1904  0.0601
  171SOL     OW  449   6.374   5.328   0.166  0.4829 -0.0912 -0.1892
  171SOL    HW2  450   6.336   5.415   0.153 -1.7861 -1.1663 -1.2560
  171SOL    HW3  451   6.425   5.336   0.247 -1.4216  1.6878  0.9282
  171SOL    MW4  452   6.376   5.341   0.175  0.2251  0.2740 -0.5140
  172SOL     OW  453   0.408   1.188   1.018  0.4360 -0.1290 -0.4423
  172SOL    HW2  454   0.483   1.134   0.992  1.1077  1.2862 -1.6303
  172SOL    HW3  455   0.415   1.194   1.113  2.0117  0.1797 -0.5483
  172SOL    MW4  456   0.419   1.182   1.027  0.4615 -0.1164  0.1291
  173SOL     OW  457   5.089   4.238   5.403  0.2844  0.7052 -0.0169
  173SOL    HW2  458   5.167   4.290   5.385  0.6742  0.5467  1.1302
  173SOL    HW3  459   5.026   4.299   5.439  0.2055  0.6640 -0.0839
  173SOL    MW4  460   5.091   4.253   5.405 -0.2533 -0.7220 -0.1007
  174SOL     OW  461   5.988   0.419   1.719  0.2941  0.8241  0.2714
  174SOL    HW2  462   6.025   0.495   1.764 -0.6494  1.6559 -0.3407
  174SOL    HW3  463   5.909   0.397   1.769  0.0859  0.7921 -0.0722
  174SOL    MW4  464   5.983   0.426   1.732  0.3698 -0.1084  0.6374
  175SOL     OW  465   3.164   3.757   6.270 -0.1136  0.0902 -0.4968
  175SOL    HW2  466   3.143   3.693   6.337  0.3001  0.7110  0.2340
  175SOL    HW3  467   3.180   3.838   6.317  2.3081  0.0653 -1.1091
  175SOL    MW4  468   3.164   3.759   6.285 -0.0399  0.9232 -0.2038
  176SOL     OW  469   5.717   3.636   5.088 -0.5935 -0.2768  0.2007
  176SOL    HW2  470   5.725   3.549   5.049 -0.6695  0.2677 -1.0952
  176SOL    HW3  471   5.624   3.645   5.109 -1.1019  0.4262 -2.0571
  176SOL    MW4  472   5.706   3.626   5.085  0.0861 -0.1349 -0.0752
  177SOL     OW  473   5.245   4.756   1.762  0.0625  0.1235  0.0034
  177SOL    HW2  474   5.267   4.823   1.696 -0.4805 -0.6481 -0.9943
  177SOL    HW3  475   5.294   4.679   1.733  1.6556  0.3703  1.8230
  177SOL    MW4  476   5.255   4.755   1.749 -0.2484 -0.4670  0.2082
  178SOL     OW  477   4.639   1.256   6.421 -0.4470 -0.5895  0.3775
  178SOL    HW2  478   4.617   1.163   6.412  0.7317 -0.7452 -1.1883
  178SOL    HW3  479   4.735   1.259   6.419 -0.4744  0.7314 -0.6787
  178SOL    MW4  480   4.649   1.244   6.419 -0.5914 -0.0241 -0.3345
  179SOL     OW  481   3.663   4.440   2.588 -0.1611 -0.1914  0.4284
  179SOL    HW2  482   3.661   4.375   2.658 -1.3730 -1.7031 -0.9277
  179SOL    HW3  483   3.579   4.485   2.594 -1.4318 -2.0985 -1.5422
  179SOL    MW4  484   3.652   4.437   2.598 -0.1743 -0.0384  0.5299
  180SOL     OW  485   1.936   1.099   5.384  0.2305  0.6110  0.0598
  180SOL    HW2  486   2.014   1.059   5.424 -1.9032 -0.6218  3.4184
  180SOL    HW3  487   1.933   1.187   5.422  0.9764  1.4251 -1.6551
  180SOL    MW4  488   1.946   1.105   5.395  0.4332 -0.0844  0.7055
  181SOL     OW  489   2.090   3.299   4.380  0.3970  0.1705 -0.0788
  181SOL    HW2  490   2.060   3.285   4.470  0.0159 -1.3307 -0.4045
  181SOL    HW3  491   2.123   3.214   4.352  0.1478  0.5069 -1.4939
  181SOL    MW4  492   2.090   3.286   4.388  0.1393  1.0417  0.4155
  182SOL     OW  493   5.599   3.145   0.803  0.7147 -0.3451 -0.0311
  182SOL    HW2  494   5.680   3.195   0.816  2.2030 -1.6596 -3.1651
  182SOL    HW3  495   5.627   3.054   0.807 -0.5984 -0.8233 -1.1828
  182SOL    MW4  496   5.614   3.140   0.805 -0.3717  0.3128  0.7662
  183SOL     OW  497   6.132   4.174   4.952  0.5661  0.2105  0.3717
  183SOL    HW2  498   6.193   4.238   4.915 -0.3047  1.1301  0.5123
  183SOL    HW3  499   6.048   4.194   4.912 -0.3510  1.0418  2.5858
  183SOL    MW4  500   6.129   4.185   4.942 -0.2788 -0.5376 -0.7027
  184SOL     OW  501   4.312   1.618   4.469 -0.1609 -0.0597 -0.1289
  184SOL    HW2  502   4.229   1.658   4.492 -0.1817 -0.4550  0.4919
  184SOL    HW3  503   4.289   1.532   4.435  0.1247 -1.3075  2.6109
  184SOL    MW4  504   4.298   1.612   4.467 -0.4101 -0.1229 -0.5476
  185SOL     OW  505   4.049   1.022   5.389  0.1486 -0.7923  0.1647
  185SOL    HW2  506   4.090   0.999   5.305  1.8080  0.9355  0.4335
  185SOL    HW3  507   4.095   0.967   5.453  1.4358  0.4228  0.3374
  185SOL    MW4  508   4.061   1.012   5.386 -0.2341  0.2171 -0.1493
  186SOL     OW  509   2.987   3.121   5.410 -0.2399  0.2886 -0.0590
  186SOL    HW2  510   3.016   3.204   5.372  0.6900 -0.6906 -1.6063
  186SOL    HW3  511   3.036   3.115   5.492 -0.3313  1.2785  0.0801
  186SOL    MW4  512   2.997   3.131   5.416 -0.1053 -0.2559  0.1628
  187SOL     OW  513   1.938   4.987   5.035  0.1989 -0.2076 -0.5674
  187SOL    HW2  514   1.857   4.997   5.085  1.6621  1.5255  1.6596
  187SOL    HW3  515   1.941   5.063   4.977  0.7576  0.3739  0.2070
  187SOL    MW4  516   1.928   4.998   5.034 -0.2876 -0.1745 -0.1228
  188SOL     OW  517   3.872   3.586   4.453 -0.3998  0.1125  0.5552
  188SOL    HW2  518   3.887   3.655   4.388  1.2313  0.5125  1.3075
  188SOL    HW3  519   3.781   3.599   4.482 -0.6047  0.9583 -0.4393
  188SOL    MW4  520   3.862   3.597   4.449  0.5304  0.0454  0.6366
  189SOL     OW  521   1.195   1.753   0.912 -0.2085 -0.2602  0.5949
  189SOL    HW2  522   1.122   1.773   0.971 -1.5651 -1.5109 -0.5887
  189SOL    HW3  523   1.240   1.837   0.900 -1.3711  0.5190  1.4474
  189SOL    MW4  524   1.191   1.767   0.918  0.2159 -0.3222  0.0048
  190SOL     OW  525   2.217   1.211   3.217 -0.0216  0.7312 -0.1536
  190SOL    HW2  526   2.207   1.139   3.280 -0.1557  1.4644  0.6781
  190SOL    HW3  527   2.256   1.169   3.140 -1.2990 -0.4760 -0.1796
  190SOL    MW4  528   2.221   1.196   3.215 -0.0414 -0.7797 -0.8697
  191SOL     OW  529   3.869   5.333   6.313  0.4378 -0.6481 -0.3969
  191SOL    HW2  530   3.926   5.397   6.357 -1.0216  0.1602  0.3925
  191SOL    HW3  531   3.929   5.279   6.262  1.9684 -0.1818  0.8251
  191SOL    MW4  532   3.884   5.334   6.312  0.0107  0.6705  0.0708
  192SOL     OW  533   6.084   1.366   0.383  0.4004 -0.1297  1.2425
  192SOL    HW2  534   6.142   1.427   0.337 -0.2229 -1.4419 -1.5003
  192SOL    HW3  535   6.025   1.422   0.434  1.0548  1.4395  0.3401
  192SOL    MW4  536   6.084   1.381   0.384  0.2517 -0.5574 -0.0566
  193SOL     OW  537   2.328   5.583   2.847 -0.0827  0.0149  0.0559
  193SOL    HW2  538   2.284   5.514   2.896  0.6670 -0.1047  0.5801
  193SOL    HW3  539   2.412   5.544   2.821  1.1708  1.2988  1.9632
  193SOL    MW4  540   2.333   5.569   2.850 -0.2123 -0.1201  0.2242
  194SOL     OW  541   3.059   2.004   1.589 -1.0370 -0.0450  0.4882
  194SOL    HW2  542   3.001   1.932   1.562 -0.0276 -1.8332  2.7342
  194SOL    HW3  543   2.999   2.073   1.618 -2.0887 -1.2088  1.1945
  194SOL    MW4  544   3.043   2.003   1.589 -0.0579  0.4545 -0.0698
  195SOL     OW  545   1.704   2.792   3.501 -0.5995  0.1892 -0.3151
  195SOL    HW2  546   1.680   2.879   3.469 -1.0216  0.2726  0.2056
  195SOL    HW3  547   1.789   2.773   3.461 -0.1751  1.1333  0.1107
  195SOL    MW4  548   1.712   2.801   3.491  0.1459  0.3914 -0.2025
  196SOL     OW  549   3.271   5.565   6.318 -0.0515  0.2647  0.3287
  196SOL    HW2  550   3.281   5.471   6.328 -0.5744 -0.0194 -1.4206
  196SOL    HW3  551   3.332   5.588   6.247  0.1436  1.2627  0.7980
  196SOL    MW4  552   3.280   5.556   6.310  0.0677 -0.0005 -0.0552
  197SOL     OW  553   2.204   5.549   4.114  0.1677  0.1278  0.0639
  197SOL    HW2  554   2.111   5.548   4.140 -0.1276 -0.8136 -0.9626
  197SOL    HW3  555   2.222   5.641   4.093 -0.7895  0.1831 -0.5828
  197SOL    MW4  556   2.194   5.561   4.115  0.2133 -0.1038  0.1738
  198SOL     OW  557   2.481   2.792   2.248  0.3948 -0.2548 -0.0815
  198SOL    HW2  558   2.493   2.703   2.213 -1.4971 -2.0213  3.2984
  198SOL    HW3  559   2.541   2.797   2.322 -0.8134  0.5668  0.8839
  198SOL    MW4  560   2.491   2.780   2.253 -0.1838  0.4868 -0.0220
  199SOL     OW  561   5.742   1.737   2.596 -0.2873  0.1901 -0.1034
  199SOL    HW2  562   5.724   1.750   2.689  3.6949 -2.6137  1.3833
  199SOL    HW3  563   5.735   1.642   2.583  3.0715 -0.0271 -1.4731
  199SOL    MW4  564   5.739   1.726   2.606  0.8051 -0.0676 -0.0582
  200SOL     OW  565   5.317   3.389   0.709  0.0718 -0.1176  0.4526
  200SOL    HW2  566   5.347   3.324   0.645  1.8219  0.7194  0.3536
  200SOL    HW3  567   5.361   3.363   0.790  1.6240  1.4493  0.1838
  200SOL    MW4  568   5.327   3.377   0.711  0.1597 -0.1660  0.5131
  201SOL     OW  569   5.807   1.276   3.007 -1.1729 -0.5451 -0.0895
  201SOL    HW2  570   5.812   1.351   2.947 -1.6314 -0.7687 -0.4099
  201SOL    HW3  571   5.885   1.285   3.062 -0.5172 -0.5611 -0.9886
  201SOL    MW4  572   5.818   1.287   3.006 -0.0860  0.1470  0.2818
  202SOL     OW  573   5.523   1.906   5.439 -0.0260 -0.3907 -0.3950
  202SOL    HW2  574   5.616   1.884   5.437  0.1431 -0.1592  1.8916
  202SOL    HW3  575   5.513   1.960   5.518 -2.2330 -1.0808 -0.1408
  202SOL    MW4  576   5.534   1.910   5.449  0.1407 -0.0482  0.3427
  203SOL     OW  577   1.917   5.696   2.662 -0.0639 -0.7505 -0.2687
  203SOL    HW2  578   1.921   5.684   2.757 -0.0962 -1.3819 -0.3457
  203SOL    HW3  579   2.007   5.683   2.632  0.5840  2.3587 -0.0105
  203SOL    MW4  580   1.930   5.693   2.670 -0.0963 -0.2091  0.0069
  204SOL     OW  581   5.477   2.990   1.747 -0.4382  0.2086  0.2062
  204SOL    HW2  582   5.518   2.976   1.833 -0.2300 -2.0430 -0.2027
  204SOL    HW3  583   5.398   3.040   1.766 -0.4719 -0.3675  1.7427
  204SOL    MW4  584   5.472   2.995   1.761  1.0839  0.4012 -0.3865
  205SOL     OW  585   2.924   2.928   3.189 -0.1069  0.4929 -0.0491
  205SOL    HW2  586   2.985   2.870   3.143 -0.8010  0.6612 -1.2499
  205SOL    HW3  587   2.842   2.920   3.139 -0.7805  1.0000  0.9484
  205SOL    MW4  588   2.921   2.919   3.176  0.0854  0.0936  0.1902
  206SOL     OW  589   3.355   5.876   3.790  0.4464  0.0243 -0.4060
  206SOL    HW2  590   3.423   5.879   3.858  0.4463 -2.2112 -0.2171
  206SOL    HW3  591   3.315   5.962   3.793  2.0414  0.7883  0.7712
  206SOL    MW4  592   3.359   5.887   3.800  0.3585  0.1776 -0.6439
  207SOL     OW  593   0.945   5.478   5.362  0.1756  0.5241 -0.4263
  207SOL    HW2  594   1.034   5.511   5.377  0.4191 -0.4754  0.4695
  207SOL    HW3  595   0.924   5.505   5.273  1.1276  1.3317 -0.4237
  207SOL    MW4  596   0.954   5.486   5.352 -0.1934 -0.7396  0.0179
  208SOL     OW  597   0.783   0.495   4.516  1.0129  0.4712 -0.1577
  208SOL    HW2  598   0.846   0.529   4.579  0.4664 -0.5631  1.0124
  208SOL    HW3  599   0.704   0.547   4.530  1.0061  0.4902 -0.2641
  208SOL    MW4  600   0.781   0.506   4.526  0.5648  0.4377  0.2647
  209SOL     OW  601   1.261   3.243   4.520  0.0268  0.0534 -0.3795
  209SOL    HW2  602   1.307   3.222   4.439 -1.0909 -0.7551 -0.8397
  209SOL    HW3  603   1.322   3.297   4.570  0.5532  0.9764 -1.9603
  209SOL    MW4  604   1.275   3.247   4.516 -0.0402 -0.2677 -0.3050
  210SOL     OW  605   3.746   2.588   0.398  0.3293  0.3998 -0.5327
  210SOL    HW2  606   3.706   2.668   0.364  1.2857  0.4295 -1.6667
  210SOL    HW3  607   3.783   2.545   0.320  0.1039 -0.9872  0.0933
  210SOL    MW4  608   3.746   2.593   0.383  0.4829 -0.2347  0.5616
  211SOL     OW  609   5.474   2.859   0.446 -0.2144  0.4033 -0.1680
  211SOL    HW2  610   5.426   2.840   0.365 -0.9284  0.2191  0.2910
  211SOL    HW3  611   5.511   2.775   0.472  2.8353  1.0175 -2.0402
  211SOL    MW4  612   5.473   2.845   0.439 -0.2616  0.0407 -0.3297
  212SOL     OW  613   2.178   4.803   3.485  0.1928  0.1383  0.1242
  212SOL    HW2  614   2.265   4.818   3.521 -0.6924 -1.1800  3.0640
  212SOL    HW3  615   2.127   4.880   3.511 -0.0487 -0.0514  0.2150
  212SOL    MW4  616   2.183   4.815   3.493  0.5253  0.1622  0.0746
  213SOL     OW  617   1.658   2.575   2.038 -0.1339  0.0518 -0.1264
  213SOL    HW2  618   1.580   2.532   2.074  1.6546 -2.0244  1.5662
  213SOL    HW3  619   1.692   2.628   2.110 -0.1299  1.2346 -0.9640
  213SOL    MW4  620   1.652   2.576   2.052 -0.8945 -0.6953  0.1326
  214SOL     OW  621   4.212   5.283   0.508  0.5399  0.2507 -0.5767
  214SOL    HW2  622   4.198   5.354   0.571 -3.3205  0.8399 -1.8153
  214SOL    HW3  623   4.201   5.203   0.560  0.9821  0.6322  0.1141
  214SOL    MW4  624   4.208   5.282   0.523 -0.5550 -0.0656 -0.6887
  215SOL     OW  625   2.045   2.436   3.271  0.5852  0.2747 -0.3470
  215SOL    HW2  626   1.973   2.410   3.213  2.5689 -2.1037 -1.9304
  215SOL    HW3  627   2.093   2.502   3.223  0.0317  1.1992  0.3317
  215SOL    MW4  628   2.042   2.441   3.257  0.5763 -0.0703  0.1519
  216SOL     OW  629   3.928   2.739   2.283 -0.0629 -0.3189 -0.1318
  216SOL    HW2  630   3.897   2.772   2.367 -0.9437  1.1744 -1.0135
  216SOL    HW3  631   3.973   2.657   2.305 -1.7865 -0.8847  1.5811
  216SOL    MW4  632   3.930   2.732   2.297 -0.3244 -0.0362  0.1702
  217SOL     OW  633   1.798   3.671   0.333 -0.1846  0.0512 -0.1627
  217SOL    HW2  634   1.762   3.741   0.279 -0.8437 -0.0812  0.0895
  217SOL    HW3  635   1.893   3.679   0.323 -0.2803  0.4301 -0.8194
  217SOL    MW4  636   1.806   3.681   0.325 -0.4606 -0.2575  0.2056
  218SOL     OW  637   0.314   3.685   0.850 -0.6790 -0.1751 -0.1776
  218SOL    HW2  638   0.243   3.723   0.903 -0.4015 -0.1179  0.1580
  218SOL    HW3  639   0.357   3.761   0.810 -1.5714 -0.2783 -1.3814
  218SOL    MW4  640   0.310   3.700   0.852 -0.4543 -0.2863  0.4488
  219SOL     OW  641   2.819   1.468   0.882 -0.6641  0.0268  0.0950
  219SOL    HW2  642   2.821   1.439   0.974 -1.5240 -0.6758 -0.0896
  219SOL    HW3  643   2.797   1.388   0.833 -1.9820  0.7663 -0.5537
  219SOL    MW4  644   2.816   1.453   0.888 -0.3110 -0.1873 -0.4487
  220SOL     OW  645   0.866   0.436   1.723 -1.2688 -0.1147 -0.0234
  220SOL    HW2  646   0.936   0.468   1.779 -2.2895  0.6859  0.8441
  220SOL    HW3  647   0.866   0.341   1.736  0.0712 -0.2042 -0.5595
  220SOL    MW4  648   0.875   0.428   1.732  0.3620 -0.3286 -0.0542
  221SOL     OW  649   3.105   6.301   5.278 -0.3308 -0.0091 -0.1533
  221SOL    HW2  650   3.095   6.249   5.198  0.3042  0.2358 -0.3931
  221SOL    HW3  651   3.199   6.302   5.295 -0.5364 -0.8923  1.1637
  221SOL    MW4  652   3.116   6.294   5.269 -0.3178  0.0406  0.0002
  222SOL     OW  653   6.289   4.569   5.589  0.0733 -0.4208  0.1715
  222SOL    HW2  654   6.270   4.488   5.635  0.2641 -0.4665  0.1687
  222SOL    HW3  655   6.241   4.562   5.507 -1.7942  0.4536  1.1229
  222SOL    MW4  656   6.280   4.558   5.584 -0.3845 -0.1096 -0.1393
  223SOL     OW  657   1.820   1.415   0.264  0.0272  0.4732  0.2425
  223SOL    HW2  658   1.834   1.500   0.223 -0.9952  0.4977 -0.1029
  223SOL    HW3  659   1.823   1.353   0.191 -3.6558  0.6978 -0.3090
  223SOL    MW4  660   1.822   1.418   0.249  0.3833  0.0012 -0.3506
  224SOL     OW  661   0.723   0.576   0.413  0.0973 -0.1770  0.0088
  224SOL    HW2  662   0.655   0.520   0.378  0.7152  0.0992 -1.7482
  224SOL    HW3  663   0.748   0.633   0.340  2.2258 -0.2987  0.5575
  224SOL    MW4  664   0.718   0.576   0.399  0.3316 -0.5700  0.3088
  225SOL     OW  665   0.774   0.429   5.621  0.4158  0.1724 -0.0104
  225SOL    HW2  666   0.801   0.448   5.531 -0.7114  0.4011 -0.3169
  225SOL    HW3  667   0.762   0.334   5.622  0.3356  0.1813 -0.1234
  225SOL    MW4  668   0.776   0.419   5.609  0.5596 -0.1479  0.3536
  226SOL     OW  669   5.260   5.031   3.654  0.2649 -0.4624 -0.4778
  226SOL    HW2  670   5.276   5.093   3.583  1.2644  0.1151  0.2372
  226SOL    HW3  671   5.186   4.979   3.623 -1.5822  2.0035 -0.4973
  226SOL    MW4  672   5.252   5.032   3.641  0.2542 -0.3987  0.3627
  227SOL     OW  673   4.208   5.241   1.785  0.0748  0.2551  0.0782
  227SOL    HW2  674   4.155   5.221   1.708 -1.5387  0.4029  1.1104
  227SOL    HW3  675   4.238   5.331   1.771  2.2947 -0.6923 -1.7308
  227SOL    MW4  676   4.205   5.250   1.773  0.1245 -0.4035  0.1744
  228SOL     OW  677   5.925   4.664   6.438 -0.0097 -0.3358 -0.2825
  228SOL    HW2  678   5.992   4.708   6.387 -0.1017 -0.2634 -0.3395
  228SOL    HW3  679   5.960   4.576   6.452  0.3984 -0.1002  0.2527
  228SOL    MW4  680   5.938   4.658   6.433 -0.3357 -0.5608  0.0734
  229SOL     OW  681   2.542   5.332   0.915 -0.3210 -0.0406 -1.0345
  229SOL    HW2  682   2.572   5.248   0.951  0.4785  0.8641  0.5198
  229SOL    HW3  683   2.568   5.330   0.823  1.1842 -0.8291 -0.6241
  229SOL    MW4  684   2.549   5.320   0.908 -0.4778 -0.2791  0.4725
  230SOL     OW  685   4.757   5.051   4.273  0.1955 -0.0379 -0.1999
  230SOL    HW2  686   4.719   5.109   4.208  1.4909 -0.2181 -1.1520
  230SOL    HW3  687   4.782   5.108   4.346 -1.3563  0.1478  0.2111
  230SOL    MW4  688   4.756   5.066   4.274  0.5137  0.3147  0.0112
  231SOL     OW  689   2.065   3.996   5.204  0.0512  0.2430  0.1081
  231SOL    HW2  690   2.153   4.017   5.173 -0.6642 -0.6047 -2.8085
  231SOL    HW3  691   2.073   3.993   5.299  3.5165 -1.3568 -0.1030
  231SOL    MW4  692   2.078   3.999   5.213 -0.5499  0.1223 -0.4966
  232SOL     OW  693   1.813   5.625   5.498 -0.1320 -0.0750  0.0691
  232SOL    HW2  694   1.836   5.675   5.420 -1.5373  1.2478  0.4570
  232SOL    HW3  695   1.851   5.675   5.570  1.1312 -1.2732  0.2854
  232SOL    MW4  696   1.821   5.638   5.497  0.1079 -0.0766 -0.5842
  233SOL     OW  697   4.301   1.432   0.170 -0.0641  0.7335 -0.0617
  233SOL    HW2  698   4.274   1.451   0.259  0.4529 -0.6634  0.4171
  233SOL    HW3  699   4.396   1.420   0.176  0.1169  1.5951 -0.9826
  233SOL    MW4  700   4.310   1.433   0.182 -0.4752 -0.2657  0.2407
  234SOL     OW  701   2.302   2.159   5.526  0.1956  0.3170 -0.3943
  234SOL    HW2  702   2.321   2.091   5.462 -1.0848 -0.5686  0.1261
  234SOL    HW3  703   2.221   2.200   5.495  0.7593  1.3774 -0.5079
  234SOL    MW4  704   2.294   2.156   5.514  0.6159 -0.7672 -0.4719
  235SOL     OW  705   0.121   3.788   3.589 -0.6600 -0.5208  0.2369
  235SOL    HW2  706   0.138   3.852   3.519 -1.3433  0.8541  1.2820
  235SOL    HW3  707   0.058   3.728   3.552 -1.4463  0.5251 -0.1737
  235SOL    MW4  708   0.115   3.789   3.575 -0.2171 -0.3406 -0.4204
  236SOL     OW  709   1.285   3.643   0.365  0.0577  0.0858 -0.2015
  236SOL    HW2  710   1.275   3.735   0.391  2.5501  1.3229 -2.9672
  236SOL    HW3  711   1.362   3.612   0.414  1.8939  0.9752 -2.3110
  236SOL    MW4  712   1.294   3.651   0.375 -0.0996  0.5285  0.0036
  237SOL     OW  713   2.369   2.755   1.538  0.2147 -0.2074  0.4904
  237SOL    HW2  714   2.348   2.662   1.529  1.9319 -0.5128 -0.9076
  237SOL    HW3  715   2.463   2.757   1.554 -0.0922  1.2372  2.3796
  237SOL    MW4  716   2.378   2.743   1.539 -0.1192  0.3214  0.5075
  238SOL     OW  717   1.725   6.109   6.189 -0.0790  0.4006  0.0999
  238SOL    HW2  718   1.749   6.130   6.098 -0.3446 -0.4391 -0.1779
  238SOL    HW3  719   1.643   6.155   6.203 -0.5002 -0.1708 -0.3991
  238SOL    MW4  720   1.718   6.118   6.179  0.1493  0.6852 -0.1803
  239SOL     OW  721   3.600   1.679   3.109  0.5647 -0.2299 -0.2355
  239SOL    HW2  722   3.524   1.649   3.059  0.5390 -0.5323 -0.0172
  239SOL    HW3  723   3.664   1.609   3.098  0.6478 -0.1826 -0.0461
  239SOL    MW4  724   3.598   1.665   3.101 -0.1736 -0.0640  0.7053
  240SOL     OW  725   0.297   0.369   2.067  0.0309  0.3144  0.2639
  240SOL    HW2  726   0.251   0.389   2.148  1.1879 -1.3479  1.3714
  240SOL    HW3  727   0.316   0.276   2.071  1.3399  0.4615 -1.2795
  240SOL    MW4  728   0.294   0.360   2.078 -0.6307 -0.1253 -0.0787
  241SOL     OW  729   6.108   5.964   4.615  0.3021 -0.4954  0.4969
  241SOL    HW2  730   6.057   5.885   4.625 -1.8321  0.7630  0.0904
  241SOL    HW3  731   6.056   6.021   4.558  2.1844  0.8545 -0.0129
  241SOL    MW4  732   6.095   5.961   4.609 -0.3966  0.2885 -0.0050
  242SOL     OW  733   6.112   6.180   0.254 -0.4205  0.2816 -0.0246
  242SOL    HW2  734   6.132   6.266   0.289  0.8755 -0.3926  1.0043
  242SOL    HW3  735   6.187   6.157   0.200  0.5336 -1.2299  1.8067
  242SOL    MW4  736   6.124   6.188   0.252  0.0457 -0.1396  0.1152
  243SOL     OW  737   2.152   0.827   2.031 -0.3744  0.1574  0.1399
  243SOL    HW2  738   2.077   0.887   2.028 -0.6827 -0.2452 -0.6286
  243SOL    HW3  739   2.164   0.800   1.940 -0.7829 -1.5908  0.5624
  243SOL    MW4  740   2.144   0.831   2.018  0.1145  0.4044 -0.5397
  244SOL     OW  741   3.598   5.376   0.900  0.4262 -0.0569  0.5699
  244SOL    HW2  742   3.675   5.412   0.943  0.4044  2.5233 -1.2617
  244SOL    HW3  743   3.632   5.307   0.843  0.7356 -1.8829  2.8451
  244SOL    MW4  744   3.613   5.372   0.898 -0.5371  0.2106 -0.0781
  245SOL     OW  745   2.372   5.110   2.880  0.1631  0.5400 -0.6624
  245SOL    HW2  746   2.333   5.076   2.960 -1.4014 -1.9503 -2.3311
  245SOL    HW3  747   2.458   5.067   2.876 -0.6379 -1.1103 -1.3113
  245SOL    MW4  748   2.378   5.100   2.890  0.2756  0.3061  0.2829
  246SOL     OW  749   2.904   0.654   2.878 -0.3209  0.2984 -0.1368
  246SOL    HW2  750   2.894   0.622   2.967 -0.1331  0.4648 -0.0549
  246SOL    HW3  751   2.878   0.580   2.823 -0.2104  0.1163  0.0533
  246SOL    MW4  752   2.899   0.640   2.882 -0.2101 -0.3259 -0.0980
  247SOL     OW  753   4.222   3.996   0.448 -1.0671  0.4939 -0.5046
  247SOL    HW2  754   4.317   3.984   0.439 -1.2785 -0.5000 -1.7149
  247SOL    HW3  755   4.205   3.981   0.541 -0.3865 -2.1848 -0.7330
  247SOL    MW4  756   4.233   3.992   0.459 -0.0124  0.5973 -0.1022
  248SOL     OW  757   0.836   2.776   4.095  0.5863  0.2872 -0.5698
  248SOL    HW2  758   0.776   2.775   4.169  2.3164  2.3194  0.9895
  248SOL    HW3  759   0.795   2.835   4.032  0.4905  0.9157  0.0724
  248SOL    MW4  760   0.823   2.784   4.096 -0.8346 -0.1941 -0.0157
  249SOL     OW  761   4.533   0.344   2.424  0.4859 -0.1646  0.3397
  249SOL    HW2  762   4.453   0.391   2.450  1.6420  0.5628  2.9212
  249SOL    HW3  763   4.534   0.266   2.480  0.4303 -1.4386 -1.3582
  249SOL    MW4  764   4.522   0.340   2.435  0.3303  0.3425 -0.6565
  250SOL     OW  765   2.683   0.829   2.412  0.3882  0.1451 -0.1507
  250SOL    HW2  766   2.744   0.890   2.372 -0.1853  1.6297  1.1412
  250SOL    HW3  767   2.606   0.831   2.355  0.6752 -0.0148 -0.5497
  250SOL    MW4  768   2.681   0.837   2.399 -0.0765  0.3357 -0.2190
  251SOL     OW  769   5.864   6.334   3.112 -0.6755  0.6373  0.1948
  251SOL    HW2  770   5.939   6.331   3.052  1.4582  2.0334  2.5986
  251SOL    HW3  771   5.872   6.255   3.165 -1.1477  0.6026  0.2229
  251SOL    MW4  772   5.875   6.323   3.111  0.1094  0.3469  0.2191
  252SOL     OW  773   3.283   2.472   2.644 -0.2246  0.2355 -0.0142
  252SOL    HW2  774   3.195   2.441   2.623  0.6044 -1.2463 -1.5412
  252SOL    HW3  775   3.278   2.499   2.735 -2.1306 -0.2317  0.0672
  252SOL    MW4  776   3.271   2.472   2.653  0.6383  0.2231 -0.1395
  253SOL     OW  777   0.514   1.060   4.100  0.1563  0.1563  0.1161
  253SOL    HW2  778   0.519   1.136   4.157 -0.9416  0.3105  0.0324
  253SOL    HW3  779   0.457   1.087   4.028  1.2302 -0.1537 -0.8953
  253SOL    MW4  780   0.507   1.073   4.098 -0.3031 -0.1351  0.1026
  254SOL     OW  781   5.605   1.126   0.718 -0.1153  0.0247 -0.0672
  254SOL    HW2  782   5.596   1.104   0.625 -1.0211 -0.9828  0.2298
  254SOL    HW3  783   5.565   1.052   0.763  3.3858 -1.2306  1.2724
  254SOL    MW4  784   5.599   1.113   0.712 -0.1279 -0.0929  0.0411
  255SOL     OW  785   2.664   0.012   3.152  0.9111 -0.2893  0.4776
  255SOL    HW2  786   2.729  -0.021   3.214  1.8085 -1.4490 -1.0110
  255SOL    HW3  787   2.613   0.076   3.202 -0.1703 -3.0468  3.2214
  255SOL    MW4  788   2.665   0.016   3.167  0.0594 -0.1276  0.2843
  256SOL     OW  789   5.852   4.250   1.874  0.0505 -0.0459  0.0572
  256SOL    HW2  790   5.873   4.279   1.785 -2.7363  0.5483 -0.5029
  256SOL    HW3  791   5.844   4.155   1.867  0.6865 -0.0957 -0.0991
  256SOL    MW4  792   5.854   4.241   1.861  0.0745  0.6869  0.2779
  257SOL     OW  793   0.720   6.292   3.473  0.1176  0.7497  0.4133
  257SOL    HW2  794   0.777   6.331   3.407  0.2014 -0.0373  0.0092
  257SOL    HW3  795   0.778   6.233   3.522  0.2321  1.8632  1.6789
  257SOL    MW4  796   0.735   6.289   3.471  0.2741 -0.0077  0.1960
  258SOL     OW  797   2.950   6.030   3.008 -0.1172 -0.2345 -0.2366
  258SOL    HW2  798   2.978   6.048   3.097  2.3897 -1.9187 -0.5694
  258SOL    HW3  799   2.954   6.115   2.963  0.2287  0.3338  0.8467
  258SOL    MW4  800   2.954   6.043   3.014  0.1265  0.1405  0.3541
  259SOL     OW  801   5.812   6.210   1.387  0.1110 -0.0668  0.4108
  259SOL    HW2  802   5.798   6.249   1.473  0.0997 -0.9259  0.8157
  259SOL    HW3  803   5.735   6.154   1.374 -0.6313  1.1894 -0.8262
  259SOL    MW4  804   5.800   6.208   1.397  0.0001  0.2794 -0.1115
  260SOL     OW  805   0.493   1.779   3.241  0.0003 -0.3701  0.7423
  260SOL    HW2  806   0.553   1.727   3.295  1.1623  0.7162  0.5285
  260SOL    HW3  807   0.539   1.861   3.226 -0.8155 -0.1834 -0.9075
  260SOL    MW4  808   0.507   1.783   3.246  0.0087  0.0226  0.1335
  261SOL     OW  809   0.713   5.260   1.039 -0.3831 -0.3318 -0.2035
  261SOL    HW2  810   0.798   5.220   1.060 -0.3752 -0.0825  0.2405
  261SOL    HW3  811   0.666   5.192   0.991  0.1807 -0.3700 -0.7187
  261SOL    MW4  812   0.718   5.246   1.035 -0.1971  0.0203 -0.1399
  262SOL     OW  813   4.290   3.358   1.017 -0.6477  0.3704  0.2857
  262SOL    HW2  814   4.275   3.427   0.953 -2.1120 -0.0362  0.1639
  262SOL    HW3  815   4.314   3.281   0.965  1.5435  0.8741  0.4489
  262SOL    MW4  816   4.291   3.357   1.002 -0.2380 -0.1738 -0.4429
  263SOL     OW  817   0.614   5.259   0.282  0.2319 -0.5914 -0.5453
  263SOL    HW2  818   0.552   5.332   0.291  0.3808 -0.4316 -0.7935
  263SOL    HW3  819   0.577   5.204   0.213  0.0598 -0.8106 -0.2753
  263SOL    MW4  820   0.601   5.261   0.274  0.2195 -0.0724 -0.2078
  264SOL     OW  821   6.176   1.821   5.625 -0.1113 -0.0881  0.4203
  264SOL    HW2  822   6.081   1.820   5.612 -0.4476  0.3448  2.5576
  264SOL    HW3  823   6.211   1.846   5.539 -1.7422 -2.5601 -1.0966
  264SOL    MW4  824   6.168   1.824   5.612  0.5525  0.1396  0.0275
  265SOL     OW  825   0.302   1.581   6.312 -0.2505 -0.5268 -0.4830
  265SOL    HW2  826   0.371   1.644   6.334 -0.0322 -1.0231  0.3075
  265SOL    HW3  827   0.307   1.515   6.382 -1.8306 -0.3283 -0.1489
  265SOL    MW4  828   0.312   1.581   6.324 -0.2894 -0.2316  0.2619
  266SOL     OW  829   2.375   2.591   0.465 -0.1984  0.1367  0.1058
  266SOL    HW2  830   2.406   2.681   0.461  1.0812 -0.2756  0.0524
  266SOL    HW3  831   2.304   2.592   0.529 -1.2247  1.4438 -0.9994
  266SOL    MW4  832   2.370   2.603   0.473  1.1330  0.4720  0.0824
  267SOL     OW  833   5.759   5.604   2.388 -0.0536 -0.0254  0.1226
  267SOL    HW2  834   5.752   5.568   2.300  2.2464  0.4398 -0.3271
  267SOL    HW3  835   5.716   5.539   2.444 -1.0251 -0.6238 -1.2518
  267SOL    MW4  836   5.753   5.591   2.384 -0.4762  0.1645 -0.3364
  268SOL     OW  837   2.324   4.107   5.168  0.2176 -0.5243  0.4157
  268SOL    HW2  838   2.415   4.086   5.187  0.0530 -0.3435  1.4724
  268SOL    HW3  839   2.328   4.168   5.094  0.8766 -1.4150 -0.2953
  268SOL    MW4  840   2.336   4.112   5.161  0.2127  0.0399 -0.2458
  269SOL     OW  841   2.094   3.259   2.430 -0.2275 -0.1837  0.5580
  269SOL    HW2  842   2.142   3.290   2.352  2.9374 -1.8705  1.6444
  269SOL    HW3  843   2.136   3.176   2.451 -3.2771 -1.4358  2.1613
  269SOL    MW4  844   2.106   3.252   2.422 -0.4257  0.9036 -0.4472
  270SOL     OW  845   1.298   6.112   5.897 -0.2047  0.2631  0.3198
  270SOL    HW2  846   1.329   6.171   5.828 -0.1583  0.6176  0.6399
  270SOL    HW3  847   1.263   6.037   5.850  0.6567  0.0899 -0.0734
  270SOL    MW4  848   1.298   6.110   5.881  0.0314 -0.2083  0.5279
  271SOL     OW  849   3.488   3.312   5.243  0.2326 -0.2268 -0.3212
  271SOL    HW2  850   3.551   3.370   5.285  0.5843 -1.1018  0.4065
  271SOL    HW3  851   3.525   3.224   5.255 -1.5747 -0.8815  0.9979
  271SOL    MW4  852   3.501   3.308   5.250  0.6339  0.3214 -0.2113
  272SOL     OW  853   4.204   3.193   1.867  0.2093  0.5194 -0.2254
  272SOL    HW2  854   4.109   3.205   1.862 -0.1014 -0.6479  1.7495
  272SOL    HW3  855   4.240   3.281   1.872 -0.8975  0.9442  0.4810
  272SOL    MW4  856   4.196   3.206   1.867 -0.3747 -0.7826 -0.1515
  273SOL     OW  857   1.754   5.146   0.942  0.8684  0.6521 -0.2254
  273SOL    HW2  858   1.741   5.090   1.018 -0.5085  0.0826 -0.8533
  273SOL    HW3  859   1.777   5.086   0.871  2.3959  1.2020 -0.2423
  273SOL    MW4  860   1.755   5.131   0.943  0.2019  0.1873  0.0626
  274SOL     OW  861   2.821   5.369   3.850 -0.0947 -0.3556 -1.0675
  274SOL    HW2  862   2.883   5.366   3.923 -0.8499  0.6738 -0.3577
  274SOL    HW3  863   2.747   5.316   3.879 -0.2821 -0.1714 -1.2085
  274SOL    MW4  864   2.819   5.361   3.863 -0.4538  0.1969  0.1754
  275SOL     OW  865   4.091   2.337   5.152 -0.1030 -0.0394  0.2891
  275SOL    HW2  866   4.182   2.349   5.123  0.6429 -2.0264  1.5672
  275SOL    HW3  867   4.063   2.425   5.179  1.6948  0.4949  0.5545
  275SOL    MW4  868   4.099   2.350   5.152 -0.5856 -0.5726  0.1545
  276SOL     OW  869   3.732   5.554   2.380  0.3235  0.2751 -0.6678
  276SOL    HW2  870   3.763   5.605   2.455 -2.9316  0.2266  0.8857
  276SOL    HW3  871   3.733   5.463   2.412  3.0091 -0.4022 -2.3075
  276SOL    MW4  872   3.736   5.549   2.394  0.2467 -0.1588 -0.0800
  277SOL     OW  873   1.482   3.487   2.950 -0.1216  0.0029 -0.1051
  277SOL    HW2  874   1.441   3.571   2.930  0.0826  0.1730  0.1880
  277SOL    HW3  875   1.537   3.469   2.873 -0.2407  0.0879 -0.2116
  277SOL    MW4  876   1.484   3.496   2.937  0.4709 -0.2479  0.6434
  278SOL     OW  877   2.125   0.679   5.476  0.2215  0.3947  0.1747
  278SOL    HW2  878   2.165   0.720   5.400 -0.3408  0.3382 -0.1621
  278SOL    HW3  879   2.100   0.592   5.447 -0.9174  0.7193  0.0939
  278SOL    MW4  880   2.127   0.673   5.462  0.5314  0.0909  0.1567
  279SOL     OW  881   2.587   4.980   4.525 -0.1998  0.1359  0.0549
  279SOL    HW2  882   2.577   4.909   4.462  1.5737  1.0209 -1.3409
  279SOL    HW3  883   2.673   5.018   4.504 -1.1662  2.8381  0.5606
  279SOL    MW4  884   2.597   4.976   4.514  0.5739 -0.2156  0.3683
  280SOL     OW  885   0.645   0.117   0.598  0.4305 -0.2706  0.3207
  280SOL    HW2  886   0.719   0.126   0.538  2.2667 -2.4301  2.0949
  280SOL    HW3  887   0.674   0.159   0.678 -0.4922 -0.6563  0.8711
  280SOL    MW4  888   0.658   0.124   0.600 -0.3231 -0.2624 -0.0934
  281SOL     OW  889   0.372   5.133   2.772  0.0038  0.2960  0.0275
  281SOL    HW2  890   0.432   5.093   2.710 -0.4479  0.1086 -0.2954
  281SOL    HW3  891   0.406   5.222   2.785 -0.8439  0.9241 -1.7998
  281SOL    MW4  892   0.384   5.139   2.766 -0.5876  0.2871 -0.2840
  282SOL     OW  893   0.446   0.931   6.373  0.3744  0.0034  0.0603
  282SOL    HW2  894   0.470   0.959   6.461 -0.1134 -1.6862  0.7617
  282SOL    HW3  895   0.470   1.005   6.317  0.9804  0.9808  1.5592
  282SOL    MW4  896   0.453   0.945   6.377  0.2709  0.3039 -0.1469
  283SOL     OW  897   4.269   3.831   4.704 -0.0410  0.1012  0.4135
  283SOL    HW2  898   4.347   3.777   4.717  1.8504  2.1683 -1.4552
  283SOL    HW3  899   4.199   3.767   4.689  1.5094 -1.8329  0.8646
  283SOL    MW4  900   4.270   3.815   4.704  0.3791 -0.3678 -0.1209
  284SOL     OW  901   2.933   2.068   5.366 -0.1807  0.1601 -0.5141
  284SOL    HW2  902   2.881   2.010   5.421 -1.6011  2.0490  0.2515
  284SOL    HW3  903   2.932   2.152   5.413 -2.0267  2.0673 -3.6506
  284SOL    MW4  904   2.926   2.072   5.380  0.2617 -0.3543 -0.2428
  285SOL     OW  905   3.619   5.729   3.438  0.3502 -0.3529  0.7002
  285SOL    HW2  906   3.602   5.803   3.496  0.3785 -1.0173  1.5917
  285SOL    HW3  907   3.570   5.748   3.358  0.3589  0.6150  0.9196
  285SOL    MW4  908   3.610   5.741   3.435  0.3762  0.6906 -0.0404
  286SOL     OW  909   3.681   1.107   4.698  0.1724 -0.5462  0.0217
  286SOL    HW2  910   3.650   1.037   4.641 -1.3448 -1.0119  1.3484
  286SOL    HW3  911   3.620   1.179   4.684  0.5456 -0.2061  0.1165
  286SOL    MW4  912   3.669   1.107   4.689  0.0700  0.2357  0.4073
  287SOL     OW  913   0.595   6.250   2.735 -0.2270  0.5564  0.9717
  287SOL    HW2  914   0.625   6.225   2.822  0.6934  0.9498  0.7768
  287SOL    HW3  915   0.538   6.325   2.750 -0.3230  0.4250  1.2646
  287SOL    MW4  916   0.591   6.257   2.749  0.4050 -0.2499  0.2427
  288SOL     OW  917   5.935   3.167   5.041 -0.8230 -0.2028  0.4549
  288SOL    HW2  918   6.024   3.166   5.006 -1.0149  0.4729 -0.0849
  288SOL    HW3  919   5.935   3.240   5.103 -1.1458  0.1601  0.0363
  288SOL    MW4  920   5.946   3.177   5.045  0.3475  0.2752  0.3192
  289SOL     OW  921   0.187   3.137   5.179  0.1717  0.3225 -0.4498
  289SOL    HW2  922   0.226   3.076   5.242 -1.6994 -0.3219  0.1627
  289SOL    HW3  923   0.216   3.106   5.094 -1.0181 -1.7213 -0.1774
  289SOL    MW4  924   0.196   3.125   5.176  0.6686  0.4203 -0.1631
  290SOL     OW  925   2.991   4.104   1.098  0.4631 -0.4740 -0.0847
  290SOL    HW2  926   3.035   4.029   1.138  0.0224 -1.3843 -1.2571
  290SOL    HW3  927   3.061   4.161   1.068  0.8097  0.1440  1.7663
  290SOL    MW4  928   3.006   4.102   1.100 -0.0572 -0.5206 -0.0600
  291SOL     OW  929   1.462   3.399   4.673 -0.0211 -0.7357 -0.1772
  291SOL    HW2  930   1.424   3.455   4.740  0.5347  0.3062 -0.7054
  291SOL    HW3  931   1.525   3.344   4.720  0.5028  0.1140  0.1334
  291SOL    MW4  932   1.465   3.399   4.688  0.6383 -0.4366  1.2557
  292SOL     OW  933   3.370   4.566   6.178  0.1033 -0.6580 -0.4463
  292SOL    HW2  934   3.360   4.488   6.233  2.3048 -1.0944 -0.5765
  292SOL    HW3  935   3.403   4.633   6.237  0.9041 -0.6541 -0.8868
  292SOL    MW4  936   3.373   4.564   6.193  0.4605  0.2534  0.3474
  293SOL     OW  937   0.252   3.338   4.019  0.1224  0.2692 -0.3224
  293SOL    HW2  938   0.178   3.327   4.078  1.4952  2.0162  1.9176
  293SOL    HW3  939   0.307   3.261   4.035  0.4605  0.7026  0.7243
  293SOL    MW4  940   0.250   3.326   4.029 -0.0483 -0.4075 -0.3527
  294SOL     OW  941   1.215   5.002   2.169 -0.5444 -0.0884  0.0829
  294SOL    HW2  942   1.291   5.041   2.127 -0.1283 -1.9334 -0.9957
  294SOL    HW3  943   1.145   5.009   2.104 -0.7897 -0.0478  0.3476
  294SOL    MW4  944   1.216   5.008   2.155 -0.0251  0.5494  0.0823
  295SOL     OW  945   4.952   5.218   3.732  0.3032 -0.0189 -0.2648
  295SOL    HW2  946   4.952   5.149   3.798  1.9625 -0.2612 -0.4813
  295SOL    HW3  947   4.948   5.172   3.649  2.0636  0.0743 -0.4315
  295SOL    MW4  948   4.951   5.203   3.730 -0.0433 -0.1594  0.2922
  296SOL     OW  949   1.862   6.171   5.942  0.0247  0.2836  0.1217
  296SOL    HW2  950   1.892   6.081   5.928  0.7774  0.5048  0.2538
  296SOL    HW3  951   1.924   6.225   5.893  0.4071  0.8138  1.1514
  296SOL    MW4  952   1.874   6.167   5.934 -0.4572  0.3186  0.3641
  297SOL     OW  953   2.713   5.093   4.912 -0.5363 -0.0790 -0.2586
  297SOL    HW2  954   2.684   5.016   4.863 -1.0257 -0.9149  1.2947
  297SOL    HW3  955   2.751   5.150   4.845 -1.1100 -1.1981 -1.6000
  297SOL    MW4  956   2.714   5.091   4.897  0.4045 -0.2724 -0.5589
  298SOL     OW  957   4.820   5.034   5.551 -0.2346  0.1887 -0.0574
  298SOL    HW2  958   4.858   4.954   5.514  2.8226  0.7330  1.5877
  298SOL    HW3  959   4.732   5.008   5.578  0.2139 -2.2749 -0.6701
  298SOL    MW4  960   4.814   5.020   5.549 -0.4165 -0.1671 -0.6260
  299SOL     OW  961   2.189   0.565   5.900  0.7986  0.5557 -0.0502
  299SOL    HW2  962   2.204   0.535   5.989 -3.2089  1.0840  0.9953
  299SOL    HW3  963   2.191   0.661   5.906 -0.1910  0.6114 -0.3126
  299SOL    MW4  964   2.191   0.574   5.912  0.2131 -0.0074 -0.7272
  300SOL     OW  965   5.064   3.423   6.153 -0.1349  0.3904  0.2771
  300SOL    HW2  966   5.013   3.460   6.080  1.2037  1.5436 -0.1402
  300SOL    HW3  967   5.020   3.341   6.174 -1.8389  1.0707 -0.3881
  300SOL    MW4  968   5.051   3.417   6.146  0.2500 -0.2383 -0.0621
  301SOL     OW  969   2.978   1.975   4.293  0.2321 -0.4079 -0.2407
  301SOL    HW2  970   2.888   2.004   4.309  0.9798  0.8769  2.2816
  301SOL    HW3  971   3.011   2.033   4.225 -0.5412 -0.2121 -0.4551
  301SOL    MW4  972   2.970   1.987   4.286  0.0742 -0.0846 -0.1908
  302SOL     OW  973   0.876   0.094   5.830  0.0332  0.0103 -0.0836
  302SOL    HW2  974   0.788   0.066   5.804  1.1517 -4.1073 -0.2415
  302SOL    HW3  975   0.867   0.116   5.923 -1.1275 -0.7867  0.0273
  302SOL    MW4  976   0.863   0.093   5.839  1.0546 -0.0537  0.0323
  303SOL     OW  977   4.370   0.086   1.593  0.1659 -0.3827  0.8173
  303SOL    HW2  978   4.375   0.108   1.500  0.5375  0.6052  1.0580
  303SOL    HW3  979   4.372  -0.009   1.596 -0.2461 -0.4361 -0.2087
  303SOL    MW4  980   4.371   0.077   1.581  0.2270  0.0844  0.0879
  304SOL     OW  981   2.238   0.200   3.083 -0.3910 -0.5985  0.2494
  304SOL    HW2  982   2.167   0.140   3.060 -0.7428 -0.1136  0.0651
  304SOL    HW3  983   2.306   0.182   3.017 -0.9101 -0.0719 -0.4425
  304SOL    MW4  984   2.238   0.189   3.071  0.5411  0.7115  0.7462
  305SOL     OW  985   3.110  -0.021   2.700 -0.4482 -0.9329 -0.8094
  305SOL    HW2  986   3.157   0.045   2.752 -1.9924 -0.4059 -0.0140
  305SOL    HW3  987   3.072   0.028   2.627 -1.7345 -0.8619 -0.1299
  305SOL    MW4  988   3.111  -0.006   2.697  0.1332  0.3366  0.5721
  306SOL     OW  989   3.249   5.414   5.204  0.7332  0.2954  0.0806
  306SOL    HW2  990   3.228   5.326   5.233 -0.0215  0.6015  0.4870
  306SOL    HW3  991   3.223   5.470   5.277  0.4734  0.9185 -0.4807
  306SOL    MW4  992   3.243   5.410   5.217  0.2532  0.0771 -0.5589
  307SOL     OW  993   0.434   6.373   0.302  0.1055 -0.2426  0.4151
  307SOL    HW2  994   0.386   6.317   0.241  0.8454 -0.6548  0.1928
  307SOL    HW3  995   0.470   6.313   0.367 -0.5350  0.1767  1.1643
  307SOL    MW4  996   0.433   6.358   0.303 -0.2873 -0.5248 -0.1799
  308SOL     OW  997   3.971   0.796   2.196  0.0481  0.5617  0.5041
  308SOL    HW2  998   3.897   0.739   2.214  0.6852 -0.7331 -0.8265
  308SOL    HW3  999   3.958   0.824   2.105  2.6994 -2.1815 -0.8898
  308SOL    MW4 1000   3.959   0.792   2.186  0.0138  0.7032 -0.2239
  309SOL     OW 1001   2.222   2.893   2.194 -0.0916  0.2637 -0.0034
  309SOL    HW2 1002   2.156   2.850   2.248 -1.8590 -1.9011 -3.5620
  309SOL    HW3 1003   2.299   2.837   2.201 -0.4094 -0.1740  0.0055
  309SOL    MW4 1004   2.224   2.880   2.202 -0.2381  0.3831  0.3794
  310SOL     OW 1005   6.256   2.240   3.877 -0.6250 -0.0587 -0.2979
  310SOL    HW2 1006   6.271   2.146   3.887 -1.0969 -0.1305 -0.2737
  310SOL    HW3 1007   6.167   2.247   3.843 -0.4467  0.3629 -0.6862
  310SOL    MW4 1008   6.246   2.229   3.874 -0.1778  0.4672 -0.3319
  311SOL     OW 1009   4.149   0.542   3.370 -0.4269 -0.3614  0.0788
  311SOL    HW2 1010   4.133   0.455   3.332 -2.5470 -0.2632  0.6243
  311SOL    HW3 1011   4.109   0.603   3.308 -2.7899 -0.1088  1.7382
  311SOL    MW4 1012   4.142   0.538   3.357 -0.3760  0.4166  0.2542
  312SOL     OW 1013   2.637   2.835   6.160  0.0423  0.2921  0.3249
  312SOL    HW2 1014   2.641   2.749   6.118 -0.3921  1.4837 -2.3533
  312SOL    HW3 1015   2.549   2.839   6.199  0.6647 -1.0600  2.0036
  312SOL    MW4 1016   2.626   2.824   6.160  0.3102  0.3038 -0.0813
  313SOL     OW 1017   4.861   4.437   2.296  0.2359  0.0637 -0.1277
  313SOL    HW2 1018   4.821   4.381   2.362 -0.8883  1.8481  0.7789
  313SOL    HW3 1019   4.940   4.471   2.338  0.2254  0.1737 -0.1968
  313SOL    MW4 1020   4.867   4.434   2.310  0.4338 -0.0027  0.1216
  314SOL     OW 1021   0.064   1.434   1.873  0.1292 -0.5374  0.8198
  314SOL    HW2 1022   0.038   1.417   1.782  0.1555  1.5265  0.3906
  314SOL    HW3 1023   0.147   1.481   1.867  0.6955 -1.3165  1.9798
  314SOL    MW4 1024   0.071   1.438   1.860  0.2596 -0.2876  0.1484
  315SOL     OW 1025   5.746   6.335   2.031 -0.0176 -0.0049 -0.1642
  315SOL    HW2 1026   5.822   6.388   2.055  0.8587 -1.2900 -0.0543
  315SOL    HW3 1027   5.727   6.283   2.109 -1.5376  0.8615  0.0995
  315SOL    MW4 1028   5.753   6.335   2.044 -0.0674 -0.0473 -1.0239
  316SOL     OW 1029   0.623   4.719   5.877  0.4831 -0.4176 -0.1809
  316SOL    HW2 1030   0.655   4.693   5.964 -1.7067  0.5072  0.9680
  316SOL    HW3 1031   0.580   4.641   5.843 -0.2405 -0.2823  0.3849
  316SOL    MW4 1032   0.622   4.705   5.884  0.1747  0.1848 -0.4307
  317SOL     OW 1033   2.360   4.723   0.288  0.8044  0.0509  0.1618
  317SOL    HW2 1034   2.353   4.819   0.287  0.6674  0.0358 -0.4023
  317SOL    HW3 1035   2.332   4.699   0.376 -0.5482  0.4365 -0.1357
  317SOL    MW4 1036   2.355   4.733   0.300  0.1910  0.6743 -0.1557
  318SOL     OW 1037   4.388   3.410   1.268  0.8525 -0.5213 -0.6251
  318SOL    HW2 1038   4.354   3.397   1.180  2.2458  1.6490 -1.5860
  318SOL    HW3 1039   4.483   3.406   1.258  1.0528  0.4071  0.6406
  318SOL    MW4 1040   4.396   3.408   1.255  0.2951 -0.3159 -0.4388
  319SOL     OW 1041   2.289   6.018   6.213  0.4259  0.2767 -0.0570
  319SOL    HW2 1042   2.384   6.014   6.203  0.3352  0.7183 -1.2849
  319SOL    HW3 1043   2.261   6.081   6.147 -0.9494 -1.6663 -1.4553
  319SOL    MW4 1044   2.298   6.025   6.203 -0.5001 -0.0589  0.1968
  320SOL     OW 1045   6.272   1.305   5.079  0.4958 -0.4058  0.2630
  320SOL    HW2 1046   6.284   1.286   5.172  2.3770 -0.8470 -0.0255
  320SOL    HW3 1047   6.200   1.249   5.053  0.5205 -0.9450  1.2779
  320SOL    MW4 1048   6.264   1.295   5.088 -0.3004 -0.1091  0.3507
  321SOL     OW 1049   0.648   1.171   5.881  0.8193 -0.6517 -0.4198
  321SOL    HW2 1050   0.647   1.153   5.787 -0.9483 -1.3987 -0.3046
  321SOL    HW3 1051   0.625   1.087   5.921 -1.6288  0.3498  0.4775
  321SOL    MW4 1052   0.645   1.157   5.874  0.3682  0.3355 -0.4858
  322SOL     OW 1053   1.225   5.239   4.235  0.1065 -0.3060  0.0839
  322SOL    HW2 1054   1.188   5.176   4.173 -1.0987  0.5297 -0.0706
  322SOL    HW3 1055   1.320   5.232   4.222 -0.1017 -0.0264 -2.0013
  322SOL    MW4 1056   1.233   5.230   4.225 -0.1094 -0.0007 -0.5773
  323SOL     OW 1057   4.348   2.832   3.084  0.1876  0.3368  0.3291
  323SOL    HW2 1058   4.407   2.863   3.153  1.1050  0.7036 -0.5846
  323SOL    HW3 1059   4.260   2.847   3.118  0.6204 -0.0687  1.6568
  323SOL    MW4 1060   4.344   2.838   3.097  0.3537 -0.0371 -0.2458
  324SOL     OW 1061   5.845   5.688   5.344  0.2309 -0.4358 -0.6379
  324SOL    HW2 1062   5.773   5.718   5.400  1.5079  0.5127  0.5535
  324SOL    HW3 1063   5.873   5.605   5.383 -1.0136 -1.4967 -1.8764
  324SOL    MW4 1064   5.839   5.681   5.356 -0.3780  0.2700  0.3910
  325SOL     OW 1065   2.878   5.355   5.142  0.4795 -0.2892  0.3686
  325SOL    HW2 1066   2.799   5.362   5.089  1.6575 -0.1732 -1.4804
  325SOL    HW3 1067   2.853   5.388   5.228 -1.3377  0.2019 -0.3100
  325SOL    MW4 1068   2.864   5.360   5.146 -0.4246 -0.0343  0.1901
  326SOL     OW 1069   2.639   5.680   3.719 -0.2163  0.1095 -0.5593
  326SOL    HW2 1070   2.660   5.769   3.688 -2.1612  1.4084  1.5596
  326SOL    HW3 1071   2.723   5.635   3.717  1.5863  3.0135  1.3309
  326SOL    MW4 1072   2.653   5.686   3.714  0.1638  0.9452 -0.1915
  327SOL     OW 1073   3.480   3.079   4.218  0.3007  0.7043  0.3253
  327SOL    HW2 1074   3.401   3.071   4.271  0.8488 -2.9181  0.8206
  327SOL    HW3 1075   3.507   3.171   4.228 -2.9655  1.6628  1.2997
  327SOL    MW4 1076   3.473   3.090   4.226 -0.1462  0.2350  0.1434
  328SOL     OW 1077   3.236   2.782   5.409  0.1563  0.1419  0.7163
  328SOL    HW2 1078   3.255   2.700   5.364 -0.7297 -0.2511  1.0271
  328SOL    HW3 1079   3.173   2.757   5.477 -0.0070  1.0569  0.9086
  328SOL    MW4 1080   3.230   2.768   5.412 -0.4376  0.0308  0.2886
  329SOL     OW 1081   3.662   6.291   6.264  0.1433 -0.0129  0.3547
  329SOL    HW2 1082   3.754   6.316   6.259  0.1119 -0.1276 -2.0038
  329SOL    HW3 1083   3.627   6.313   6.178 -2.6719  2.2800  1.9081
  329SOL    MW4 1084   3.669   6.297   6.252 -0.2058  0.4801  0.2220
  330SOL     OW 1085   6.269   2.452   5.712 -0.2086  0.5203  0.0616
  330SOL    HW2 1086   6.268   2.503   5.793 -0.0062 -0.8505  0.9626
  330SOL    HW3 1087   6.359   2.421   5.705  0.0636  1.5236 -1.3034
  330SOL    MW4 1088   6.281   2.455   5.722  0.2005 -0.2659  0.3287
  331SOL     OW 1089   4.321   2.543   4.501  0.1296  0.4555  0.3409
  331SOL    HW2 1090   4.322   2.452   4.471  1.1441  1.5995 -3.6298
  331SOL    HW3 1091   4.413   2.569   4.504 -0.1148  1.2555  1.9669
  331SOL    MW4 1092   4.333   2.534   4.498 -0.2841 -0.2177  0.3794
  332SOL     OW 1093   5.140   3.411   1.879  0.4981  0.8217  0.2057
  332SOL    HW2 1094   5.090   3.331   1.863  0.8591  0.9108 -1.5850
  332SOL    HW3 1095   5.102   3.447   1.959 -1.5483  0.3139 -0.4812
  332SOL    MW4 1096   5.128   3.405   1.888 -0.3821  0.1215 -0.7622
  333SOL     OW 1097   0.610   1.567   5.052  0.6027 -0.1842 -0.5825
  333SOL    HW2 1098   0.584   1.585   4.962 -0.3456 -0.2680 -0.3361
  333SOL    HW3 1099   0.606   1.471   5.060  1.1243 -0.2076 -0.5771
  333SOL    MW4 1100   0.606   1.556   5.041 -0.0073 -0.1110  0.7367
  334SOL     OW 1101   5.895   3.775   4.666  0.4621  0.0757  0.1079
  334SOL    HW2 1102   5.926   3.690   4.636 -1.9359 -1.3386  1.3254
  334SOL    HW3 1103   5.909   3.775   4.760 -1.3640  0.1332  0.4235
  334SOL    MW4 1104   5.901   3.764   4.674  0.0120 -0.1466 -0.2156
  335SOL     OW 1105   2.284   5.376   3.023  0.1765 -0.1341 -0.5257
  335SOL    HW2 1106   2.304   5.295   2.976  2.5290  0.5246 -0.7995
  335SOL    HW3 1107   2.325   5.365   3.108  0.5222  0.7628 -0.5617
  335SOL    MW4 1108   2.292   5.364   3.028 -0.3314 -0.6984  0.4052
  336SOL     OW 1109   0.417   0.505   4.667  0.0189  0.1279  0.3484
  336SOL    HW2 1110   0.425   0.412   4.648 -0.4938  0.2739 -0.6379
  336SOL    HW3 1111   0.460   0.516   4.752 -0.9185 -1.2128  1.0406
  336SOL    MW4 1112   0.424   0.495   4.676 -0.0080 -0.0001  0.3399
  337SOL     OW 1113   4.195   2.010   0.144 -0.6635 -0.0880  0.0632
  337SOL    HW2 1114   4.266   1.956   0.178 -0.7551 -0.4788 -0.3531
  337SOL    HW3 1115   4.122   1.949   0.132 -0.8189  0.1555 -0.2569
  337SOL    MW4 1116   4.195   1.995   0.147  0.1617  0.1114  0.0368
  338SOL     OW 1117   1.618   2.904   3.858 -0.2971 -0.0013  0.1540
  338SOL    HW2 1118   1.667   2.966   3.803 -0.6395  0.0927 -0.0494
  338SOL    HW3 1119   1.527   2.914   3.829 -0.6037  0.6112  1.2585
  338SOL    MW4 1120   1.612   2.914   3.847  0.2679 -0.7580 -0.1958
  339SOL     OW 1121   2.741   4.223   1.155 -0.6003  0.2979 -0.2774
  339SOL    HW2 1122   2.820   4.172   1.171 -1.0148 -0.0874  0.6330
  339SOL    HW3 1123   2.677   4.158   1.124 -0.6043  0.5808 -0.8732
  339SOL    MW4 1124   2.743   4.208   1.153 -0.1472  0.0398 -0.5110
  340SOL     OW 1125   4.780   5.598   1.589  0.5868 -0.7419 -0.2646
  340SOL    HW2 1126   4.863   5.635   1.618  1.0637 -0.7397 -1.5737
  340SOL    HW3 1127   4.726   5.674   1.566  0.4261 -0.7625  0.0394
  340SOL    MW4 1128   4.784   5.613   1.590 -0.0294  0.0767  0.4625
  341SOL     OW 1129   1.229   6.236   2.600 -0.1387  0.1484  0.2762
  341SOL    HW2 1130   1.264   6.285   2.673 -0.5602 -0.1205  0.6660
  341SOL    HW3 1131   1.221   6.146   2.633  0.9771 -0.2792 -0.5397
  341SOL    MW4 1132   1.233   6.230   2.614 -0.2384 -0.3448 -0.0008
  342SOL     OW 1133   4.571   4.360   1.015  0.1360  0.0546  0.4050
  342SOL    HW2 1134   4.593   4.305   1.090 -0.2571 -0.4091  0.1878
  342SOL    HW3 1135   4.481   4.390   1.033 -0.0474 -0.2559  0.0055
  342SOL    MW4 1136   4.562   4.357   1.028  0.0653  0.3498  0.1185
  343SOL     OW 1137   4.793   3.147   0.255  0.3880  0.2491  0.1058
  343SOL    HW2 1138   4.839   3.064   0.267 -0.7341 -0.3907  0.1261
  343SOL    HW3 1139   4.753   3.164   0.340  1.2578  1.2332  0.3374
  343SOL    MW4 1140   4.794   3.138   0.268  0.2165  0.0990  0.0943
  344SOL     OW 1141   3.388   0.393   1.047 -0.5849 -0.1546 -0.1096
  344SOL    HW2 1142   3.381   0.317   1.105 -0.7060 -0.5664 -0.6486
  344SOL    HW3 1143   3.335   0.461   1.090  1.5621  0.4980  1.6806
  344SOL    MW4 1144   3.380   0.392   1.060  0.5095 -0.1076  0.0514
  345SOL     OW 1145   2.987   0.731   6.428  0.0023 -0.1563 -0.3895
  345SOL    HW2 1146   2.981   0.819   6.464 -0.9529 -0.0156 -0.8761
  345SOL    HW3 1147   3.081   0.715   6.420  0.1777  1.0337 -0.8398
  345SOL    MW4 1148   2.999   0.740   6.432  0.5895 -0.6083  0.3486
  346SOL     OW 1149   3.887   6.249   4.514  0.0445 -0.0617  0.2524
  346SOL    HW2 1150   3.969   6.297   4.527 -1.2238  2.1776  0.5229
  346SOL    HW3 1151   3.829   6.282   4.582 -1.2010 -1.4111 -0.0938
  346SOL    MW4 1152   3.890   6.259   4.525 -0.0442  0.1135 -0.1787
  347SOL     OW 1153   2.542   2.976   5.051 -0.0927  0.0176  0.1186
  347SOL    HW2 1154   2.624   2.977   5.100 -0.1748 -1.0685  0.3049
  347SOL    HW3 1155   2.489   3.046   5.091  1.0577  1.3510 -0.5999
  347SOL    MW4 1156   2.546   2.985   5.063  0.2248  0.2630 -0.4107
  348SOL     OW 1157   6.166   6.365   1.917  0.5289  0.4646 -0.5010
  348SOL    HW2 1158   6.106   6.404   1.854  1.2580  2.7696  0.1484
  348SOL    HW3 1159   6.132   6.392   2.003  2.8142  2.5655 -0.1199
  348SOL    MW4 1160   6.153   6.374   1.920 -0.3032 -0.3820 -0.8497
  349SOL     OW 1161   3.940   3.730   1.810 -0.0109 -0.0795  0.1232
  349SOL    HW2 1162   3.943   3.639   1.841  3.1143  0.1600  0.7671
  349SOL    HW3 1163   3.878   3.773   1.870 -0.7247 -1.5090  0.4752
  349SOL    MW4 1164   3.932   3.723   1.822  0.3420  0.1835  0.3456
  350SOL     OW 1165   5.229   3.043   3.280  0.2003  0.3136  0.4008
  350SOL    HW2 1166   5.162   3.081   3.223  0.3637  0.4981  0.3314
  350SOL    HW3 1167   5.262   2.968   3.231 -0.7316 -0.4475  0.9058
  350SOL    MW4 1168   5.225   3.038   3.266  0.3193  0.1707  0.4820
  351SOL     OW 1169   3.598   4.495   4.869 -0.7586  0.3296  0.4091
  351SOL    HW2 1170   3.508   4.520   4.892 -0.7915  0.9349 -0.3524
  351SOL    HW3 1171   3.599   4.492   4.774  0.5095  2.2659  0.2994
  351SOL    MW4 1172   3.586   4.498   4.860  0.2521 -0.4213 -0.2064
  352SOL     OW 1173   5.747   5.374   0.235  0.2846  0.1179  0.0748
  352SOL    HW2 1174   5.659   5.381   0.199  0.9242  2.1191 -1.2205
  352SOL    HW3 1175   5.747   5.430   0.312  0.8248  1.3918 -0.8234
  352SOL    MW4 1176   5.736   5.382   0.241 -0.0879  0.1937  0.2371
  353SOL     OW 1177   4.706   0.785   4.312  0.0539  0.5527  0.3957
  353SOL    HW2 1178   4.723   0.869   4.269  1.0735  0.9936  1.5885
  353SOL    HW3 1179   4.789   0.737   4.303  0.3541  0.7298  1.9764
  353SOL    MW4 1180   4.719   0.790   4.305  0.0232  0.0128  0.3253
  354SOL     OW 1181   2.990   3.622   4.015  0.2386 -0.2007  0.3790
  354SOL    HW2 1182   3.058   3.632   4.082 -0.6123 -0.1942  1.2661
  354SOL    HW3 1183   3.005   3.695   3.954  0.2543  0.5494  1.2601
  354SOL    MW4 1184   3.001   3.633   4.016 -0.7507  0.1436  0.4181
  355SOL     OW 1185   5.242   1.315   1.478  0.0118 -0.0318  0.2333
  355SOL    HW2 1186   5.314   1.354   1.529 -0.0936 -1.7704  1.8474
  355SOL    HW3 1187   5.186   1.389   1.454  0.9047  1.0394  1.3218
  355SOL    MW4 1188   5.244   1.330   1.482  0.3237  0.1048 -0.3961
  356SOL     OW 1189   3.971   4.325   5.555  0.2621  0.3297  0.8271
  356SOL    HW2 1190   3.970   4.345   5.462  1.9645 -0.1315  0.6738
  356SOL    HW3 1191   3.937   4.236   5.561 -1.8981  1.1021  0.9159
  356SOL    MW4 1192   3.966   4.316   5.544 -0.3883 -1.1539  0.3956
  357SOL     OW 1193   2.196   4.441   3.586 -0.3292  0.0012 -0.8456
  357SOL    HW2 1194   2.113   4.478   3.553 -0.2278  0.8608 -0.1635
  357SOL    HW3 1195   2.254   4.516   3.594 -0.2986 -0.1803  1.1362
  357SOL    MW4 1196   2.192   4.456   3.583 -0.3362 -0.5667 -0.1020
  358SOL     OW 1197   0.976   2.849   5.273  1.1724 -0.0627 -0.2607
  358SOL    HW2 1198   0.899   2.843   5.329  2.6253 -0.0104  1.8554
  358SOL    HW3 1199   0.970   2.773   5.216  0.2099 -0.7651  0.7413
  358SOL    MW4 1200   0.965   2.838   5.273 -0.0166 -0.3880  0.0645
  359SOL     OW 1201   3.156   0.819   3.776 -0.1674 -0.2794  0.0342
  359SOL    HW2 1202   3.204   0.737   3.774  1.2584  0.5132 -0.1982
  359SOL    HW3 1203   3.082   0.806   3.717 -0.7401 -1.8195  1.0423
  359SOL    MW4 1204   3.152   0.807   3.768  0.0985  0.2546 -0.2105
  360SOL     OW 1205   5.719   4.975   0.641 -0.1635 -0.9672 -0.3527
  360SOL    HW2 1206   5.798   5.029   0.648  0.8658 -2.2083 -1.7741
  360SOL    HW3 1207   5.673   4.990   0.724  1.7715 -0.5567  0.7219
  360SOL    MW4 1208   5.724   4.984   0.653  0.4893  0.4037 -0.6956
  361SOL     OW 1209   2.659   3.182   3.036 -0.4201  0.3499  0.0850
  361SOL    HW2 1210   2.565   3.176   3.019  0.0707  0.1053 -3.1126
  361SOL    HW3 1211   2.692   3.093   3.021  0.3213  0.3403  1.5587
  361SOL    MW4 1212   2.651   3.169   3.032  0.3476 -0.2067 -0.3893
  362SOL     OW 1213   2.744   3.006   5.365 -0.2263  0.2322  0.1759
  362SOL    HW2 1214   2.685   3.011   5.441  0.0592  1.3649  0.3405
  362SOL    HW3 1215   2.825   3.046   5.396 -0.4815  1.7665 -1.0725
  362SOL    MW4 1216   2.747   3.012   5.379  0.4968  0.5230 -0.5355
  363SOL     OW 1217   6.234   1.581   0.279 -0.3024  0.1728 -0.1239
  363SOL    HW2 1218   6.245   1.599   0.186 -0.5163 -0.4346 -0.2679
  363SOL    HW3 1219   6.320   1.550   0.308 -0.5906 -0.9366 -0.4202
  363SOL    MW4 1220   6.247   1.580   0.271  0.1277  0.3887  0.1543
  364SOL     OW 1221   4.215   0.636   5.324 -0.1308 -0.0771 -0.2525
  364SOL    HW2 1222   4.153   0.564   5.337 -1.5434  1.0843 -0.3531
  364SOL    HW3 1223   4.218   0.647   5.229 -0.4106  0.4161 -0.2026
  364SOL    MW4 1224   4.207   0.628   5.313 -0.1518  0.4553 -0.3674
  365SOL     OW 1225   5.620   0.099   1.592 -0.7169 -0.4263 -0.6063
  365SOL    HW2 1226   5.667   0.015   1.596  0.1056  0.0323 -0.3338
  365SOL    HW3 1227   5.590   0.113   1.681  1.8231  1.0221  0.1241
  365SOL    MW4 1228   5.622   0.089   1.604  0.5505  0.2790 -0.0651
  366SOL     OW 1229   4.138   3.522   4.086  0.1288 -0.3412 -0.3863
  366SOL    HW2 1230   4.140   3.439   4.039  0.3903 -1.7000  1.9069
  366SOL    HW3 1231   4.045   3.539   4.101  0.1207 -0.6389 -0.1165
  366SOL    MW4 1232   4.126   3.513   4.081  0.2983 -0.1646 -0.5078
  367SOL     OW 1233   2.968   1.635   1.178 -0.5096  0.0993  0.5299
  367SOL    HW2 1234   3.016   1.709   1.139 -0.7140 -0.3986 -0.7080
  367SOL    HW3 1235   2.886   1.674   1.209 -0.6738  0.3771 -0.2326
  367SOL    MW4 1236   2.963   1.650   1.177 -0.5174  0.0273 -0.0496
  368SOL     OW 1237   4.385   4.795   0.706 -0.4885  0.2403  0.3512
  368SOL    HW2 1238   4.442   4.799   0.783  0.4781 -0.3600 -0.3098
  368SOL    HW3 1239   4.308   4.745   0.736  1.1494 -2.5992  0.2104
  368SOL    MW4 1240   4.382   4.789   0.720 -0.6952  0.3271  0.4431
  369SOL     OW 1241   5.417   3.832   2.251 -0.0409 -0.1143 -1.1226
  369SOL    HW2 1242   5.393   3.745   2.220  0.1193 -0.0108 -1.5453
  369SOL    HW3 1243   5.433   3.882   2.171  0.3168  0.1731 -0.8729
  369SOL    MW4 1244   5.416   3.827   2.236 -0.3578 -0.0985  0.0130
  370SOL     OW 1245   1.391   3.796   1.829  0.4889 -0.2068  0.2478
  370SOL    HW2 1246   1.388   3.711   1.874  1.2271 -0.4116 -0.0843
  370SOL    HW3 1247   1.313   3.842   1.861 -0.7642 -1.5745 -0.7037
  370SOL    MW4 1248   1.380   3.791   1.839  0.4829 -0.5816 -0.1509
  371SOL     OW 1249   2.437   4.988   1.792  0.4362  0.1575 -0.1902
  371SOL    HW2 1250   2.432   5.045   1.869  0.1050  0.7146 -0.6168
  371SOL    HW3 1251   2.475   4.907   1.825 -1.1165 -0.1785  0.8757
  371SOL    MW4 1252   2.442   4.985   1.806  0.1859 -0.0474 -0.4046
  372SOL     OW 1253   4.219   0.611   5.031  0.1078  0.1507  0.0001
  372SOL    HW2 1254   4.260   0.525   5.042  0.3747  0.4149  1.2093
  372SOL    HW3 1255   4.267   0.652   4.959  0.5263 -0.3855 -0.0326
  372SOL    MW4 1256   4.230   0.605   5.023 -0.4220  0.8842  0.4689
  373SOL     OW 1257   6.368   5.204   5.593 -0.3529  0.0366 -0.1363
  373SOL    HW2 1258   6.319   5.130   5.629  0.0494 -0.1096  0.1042
  373SOL    HW3 1259   6.458   5.174   5.589 -0.5137 -0.3211 -2.1971
  373SOL    MW4 1260   6.373   5.190   5.597 -0.6358  0.2989  0.1212
  374SOL     OW 1261   2.999   1.688   5.665 -0.7238 -0.1241  0.5665
  374SOL    HW2 1262   3.002   1.600   5.703  1.0396  0.1669  1.2230
  374SOL    HW3 1263   3.054   1.741   5.723  0.4909  0.7889 -1.3151
  374SOL    MW4 1264   3.007   1.684   5.677 -0.0342  0.7929 -0.3032
  375SOL     OW 1265   4.343   2.426   6.052  0.8883 -0.0995  0.2578
  375SOL    HW2 1266   4.344   2.342   6.098  2.0927 -0.3134 -0.1245
  375SOL    HW3 1267   4.319   2.404   5.962 -0.1180  0.1473  0.4559
  375SOL    MW4 1268   4.340   2.412   6.046  0.3028 -0.2167  0.0947
  376SOL     OW 1269   3.330   4.508   5.471  0.1436  0.2715  0.5432
  376SOL    HW2 1270   3.302   4.484   5.382 -0.7267  0.3677  0.7824
  376SOL    HW3 1271   3.403   4.449   5.489  0.7945  0.7228 -0.5014
  376SOL    MW4 1272   3.336   4.497   5.462 -0.3405 -0.0415  0.2354
  377SOL     OW 1273   4.351   4.820   0.213 -0.4274  0.1523 -0.5747
  377SOL    HW2 1274   4.387   4.853   0.295 -0.2686 -0.5197 -0.3643
  377SOL    HW3 1275   4.280   4.880   0.191 -1.6023 -0.6121  0.9455
  377SOL    MW4 1276   4.347   4.832   0.221  0.0162  0.9159  0.0391
  378SOL     OW 1277   0.486   6.305   5.213 -0.5460  0.5914 -0.4491
  378SOL    HW2 1278   0.564   6.292   5.266 -0.1770  0.2048 -1.0729
  378SOL    HW3 1279   0.490   6.397   5.186  0.7474  0.1158 -2.0753
  378SOL    MW4 1280   0.497   6.316   5.216  0.0689  0.5506 -0.4664
  379SOL     OW 1281   1.869   2.429   2.350  0.2606 -0.0122  0.2921
  379SOL    HW2 1282   1.808   2.438   2.423 -1.5424  1.3330 -1.2956
  379SOL    HW3 1283   1.854   2.342   2.316  1.0564 -0.6206  1.4146
  379SOL    MW4 1284   1.859   2.419   2.355 -0.2097  0.3561 -0.3713
  380SOL     OW 1285   6.256   3.179   1.818 -0.1242 -0.0070  0.5003
  380SOL    HW2 1286   6.257   3.275   1.816  0.9190  0.0554  1.9052
  380SOL    HW3 1287   6.238   3.158   1.910 -1.4126 -1.1910  0.0077
  380SOL    MW4 1288   6.254   3.189   1.830  0.5877 -0.3981  0.6311
  381SOL     OW 1289   4.091   1.309   3.716 -0.1164 -0.0507 -0.3154
  381SOL    HW2 1290   4.094   1.247   3.789 -0.2835  0.6113  0.2587
  381SOL    HW3 1291   4.066   1.392   3.756  0.5791  0.5006 -1.0157
  381SOL    MW4 1292   4.088   1.312   3.731  0.1026 -0.4331 -0.0324
  382SOL     OW 1293   6.107   0.619   3.413  0.0397 -1.0046  0.2801
  382SOL    HW2 1294   6.070   0.534   3.437  0.1770 -1.9086 -2.4306
  382SOL    HW3 1295   6.032   0.672   3.386  0.0436 -0.4903  1.2237
  382SOL    MW4 1296   6.092   0.615   3.413  0.0417  0.4414 -0.3160
  383SOL     OW 1297   3.259   4.459   3.547 -0.0077  0.3946  0.4153
  383SOL    HW2 1298   3.203   4.484   3.473  2.0971  0.4425 -1.2572
  383SOL    HW3 1299   3.287   4.542   3.585 -0.3061  0.3957  0.6285
  383SOL    MW4 1300   3.255   4.473   3.542  0.3362 -0.4967  0.4513
  384SOL     OW 1301   0.558   0.915   1.334  0.2754  0.4216 -0.6856
  384SOL    HW2 1302   0.651   0.926   1.317  0.5322 -0.3358  0.1595
  384SOL    HW3 1303   0.551   0.903   1.429 -0.4867 -1.1314 -0.8937
  384SOL    MW4 1304   0.569   0.915   1.344  0.4686  0.3431 -0.1003
  385SOL     OW 1305   3.374   2.355   2.011  0.1847  0.0077 -0.2095
  385SOL    HW2 1306   3.465   2.361   1.984  1.0386  0.6911  2.5408
  385SOL    HW3 1307   3.377   2.318   2.099 -2.0117  1.7559  0.7020
  385SOL    MW4 1308   3.386   2.351   2.019  0.5667 -0.2041  0.7015
  386SOL     OW 1309   2.963   3.245   1.362 -0.0146 -0.0118  0.5332
  386SOL    HW2 1310   2.888   3.276   1.312  0.0444 -0.9842 -0.1654
  386SOL    HW3 1311   3.035   3.304   1.337  0.1115 -0.7153 -0.8274
  386SOL    MW4 1312   2.963   3.257   1.352  0.3152  0.2195 -0.5571
  387SOL     OW 1313   5.145   3.184   0.261 -0.0206 -0.4126  0.3398
  387SOL    HW2 1314   5.129   3.255   0.324  1.4208  0.1251  0.1389
  387SOL    HW3 1315   5.074   3.121   0.277 -0.6168  0.4897  1.3679
  387SOL    MW4 1316   5.134   3.185   0.272 -0.4503 -0.3800  0.2163
  388SOL     OW 1317   2.395   4.758   1.388 -0.2909  0.1864 -0.2199
  388SOL    HW2 1318   2.407   4.680   1.443 -2.2646  0.7314  1.0917
  388SOL    HW3 1319   2.337   4.814   1.439  2.2355  3.2589 -0.4103
  388SOL    MW4 1320   2.389   4.755   1.402 -0.0773  0.1775 -0.4533
  389SOL     OW 1321   4.461   0.421   4.204  0.2520 -0.5361 -0.4547
  389SOL    HW2 1322   4.374   0.385   4.221  0.0540  0.1335  0.0476
  389SOL    HW3 1323   4.443   0.509   4.169  0.7206 -0.4492 -0.4758
  389SOL    MW4 1324   4.447   0.428   4.202  0.4996  0.2165  0.6856
  390SOL     OW 1325   0.335   5.057   3.819  0.2434 -0.0357 -0.3799
  390SOL    HW2 1326   0.412   5.090   3.773 -0.1451  0.1173 -0.9270
  390SOL    HW3 1327   0.324   5.116   3.894  0.4034  0.2033 -0.5438
  390SOL    MW4 1328   0.344   5.069   3.823 -0.5129 -0.9218 -0.2588
  391SOL     OW 1329   3.092   3.186   1.681 -0.4520  0.0313  0.3352
  391SOL    HW2 1330   3.130   3.228   1.758 -1.1051 -0.0091  0.6790
  391SOL    HW3 1331   3.099   3.092   1.700  1.5946 -0.0942 -0.7044
  391SOL    MW4 1332   3.098   3.179   1.694 -0.3149 -0.2665 -0.5124
  392SOL     OW 1333   4.023   4.862   3.622  0.0498 -0.0008 -0.0717
  392SOL    HW2 1334   4.114   4.885   3.642  0.3611 -1.2061 -0.0058
  392SOL    HW3 1335   3.995   4.927   3.558  1.1253  0.1177 -0.4436
  392SOL    MW4 1336   4.031   4.873   3.616  0.1877  0.3781  0.1674
  393SOL     OW 1337   1.328   5.808   6.093 -0.0497  0.5469 -0.0534
  393SOL    HW2 1338   1.405   5.756   6.117 -0.2660  0.3480  0.2202
  393SOL    HW3 1339   1.270   5.746   6.048 -0.5278  0.4238  0.7212
  393SOL    MW4 1340   1.331   5.793   6.090  0.0044  0.3092  0.3757
  394SOL     OW 1341   3.194   2.188   3.213  0.2286 -0.3671 -0.4681
  394SOL    HW2 1342   3.282   2.212   3.183 -0.3786  3.0505  0.0588
  394SOL    HW3 1343   3.208   2.149   3.299  1.2108  0.5975 -0.1704
  394SOL    MW4 1344   3.208   2.186   3.220  0.4013  0.3415 -0.3479
  395SOL     OW 1345   2.360   5.530   0.966 -0.3010 -0.4035  0.2628
  395SOL    HW2 1346   2.415   5.453   0.948  0.2441  0.0658 -0.1039
  395SOL    HW3 1347   2.422   5.602   0.977 -0.8089 -0.0222  0.6479
  395SOL    MW4 1348   2.375   5.529   0.965  0.3461 -0.0063  0.1109
  396SOL     OW 1349   3.236   2.996   2.675 -0.0897  0.0624 -0.6425
  396SOL    HW2 1350   3.265   2.989   2.584  1.5936  1.9108 -0.3058
  396SOL    HW3 1351   3.184   3.076   2.678 -1.4861 -0.8128 -0.2569
  396SOL    MW4 1352   3.233   3.006   2.664  0.6128 -0.2131 -0.3608
  397SOL     OW 1353   4.393   2.001   5.492 -0.5467  0.8209  0.1178
  397SOL    HW2 1354   4.400   1.973   5.401  0.8556  2.3784 -0.3029
  397SOL    HW3 1355   4.410   1.921   5.543  2.2631  0.5887 -1.0205
  397SOL    MW4 1356   4.396   1.987   5.487  0.2844  0.0208 -0.0651
  398SOL     OW 1357   0.431   5.651   2.290 -0.0847  0.9190  0.2145
  398SOL    HW2 1358   0.504   5.598   2.323  0.1080  0.9178 -0.2115
  398SOL    HW3 1359   0.400   5.604   2.213  0.2889  1.5823 -0.3489
  398SOL    MW4 1360   0.437   5.638   2.284  0.5754 -0.0651 -0.3457
  399SOL     OW 1361   5.850   2.714   0.797  0.6936  0.0452  0.3976
  399SOL    HW2 1362   5.855   2.756   0.711  0.0674 -0.1948  0.2413
  399SOL    HW3 1363   5.780   2.761   0.843 -0.7147 -1.4384 -0.1381
  399SOL    MW4 1364   5.841   2.726   0.792  0.1184 -0.0754 -0.1040
  400SOL     OW 1365   2.720   2.465   0.176  0.2033  0.6464 -0.6109
  400SOL    HW2 1366   2.756   2.549   0.148 -0.2617  1.6297  1.5545
  400SOL    HW3 1367   2.785   2.400   0.147  1.3454  1.8998 -0.9620
  400SOL    MW4 1368   2.733   2.468   0.169 -0.2368  0.4015 -0.6529
  401SOL     OW 1369   0.621   1.573   2.323 -0.5878  0.2824  0.6200
  401SOL    HW2 1370   0.609   1.610   2.235 -0.1436  2.2893  1.3364
  401SOL    HW3 1371   0.665   1.490   2.308 -0.4725  0.6067 -1.0715
  401SOL    MW4 1372   0.625   1.567   2.309  0.2925 -0.9654 -0.0818
  402SOL     OW 1373   1.321   1.589   5.923 -0.1815 -0.0827  0.3608
  402SOL    HW2 1374   1.380   1.526   5.880  1.1748  1.2053  0.2389
  402SOL    HW3 1375   1.282   1.540   5.996  1.3729 -0.8924  0.6943
  402SOL    MW4 1376   1.324   1.574   5.927 -0.0914 -0.8862  0.4266
  403SOL     OW 1377   6.363   4.565   3.385 -0.1886 -0.7020  0.0279
  403SOL    HW2 1378   6.268   4.558   3.375 -0.1782  0.8345 -1.6556
  403SOL    HW3 1379   6.376   4.634   3.450 -0.2029 -1.3740  0.7596
  403SOL    MW4 1380   6.352   4.573   3.392  0.4493 -0.6615 -0.1514
  404SOL     OW 1381   6.078   3.353   2.052 -0.1349 -0.5991 -0.3957
  404SOL    HW2 1382   6.012   3.342   2.120 -2.1403  1.2348 -1.8955
  404SOL    HW3 1383   6.028   3.356   1.971  1.9213 -0.1715 -1.7098
  404SOL    MW4 1384   6.063   3.352   2.050  0.5526 -0.3738 -0.3030
  405SOL     OW 1385   0.449   2.506   2.092  0.4080  0.5655  0.3907
  405SOL    HW2 1386   0.494   2.516   2.176  2.0313 -2.8460  0.0690
  405SOL    HW3 1387   0.369   2.459   2.114  1.2209 -1.0479 -0.0127
  405SOL    MW4 1388   0.445   2.501   2.106 -0.3835 -0.0467 -0.0641
  406SOL     OW 1389   6.037   6.117   2.272  0.1897 -0.1614 -0.7860
  406SOL    HW2 1390   6.042   6.133   2.177 -1.0650 -2.3952 -1.3006
  406SOL    HW3 1391   5.944   6.108   2.290  0.4273  0.0444  0.6333
  406SOL    MW4 1392   6.026   6.118   2.262  0.3477 -0.6087  0.0163
  407SOL     OW 1393   1.617   1.511   5.863  0.2710 -0.3835  0.3629
  407SOL    HW2 1394   1.595   1.600   5.891  0.2501  0.3265 -1.7316
  407SOL    HW3 1395   1.562   1.496   5.786  0.7466 -1.9744  0.3019
  407SOL    MW4 1396   1.607   1.521   5.856 -0.4190  0.8147 -0.3343
  408SOL     OW 1397   4.477   3.832   4.468  0.9345  0.1756  0.3475
  408SOL    HW2 1398   4.390   3.846   4.431  1.1916 -0.9649 -0.7797
  408SOL    HW3 1399   4.475   3.742   4.500  1.5011  0.3490  0.8887
  408SOL    MW4 1400   4.465   3.822   4.467 -0.4324 -0.7735  1.0043
  409SOL     OW 1401   1.786   1.355   2.655  0.3621  0.1735 -0.2725
  409SOL    HW2 1402   1.871   1.316   2.672  1.5083  2.7956  0.4451
  409SOL    HW3 1403   1.783   1.364   2.559  1.2569  0.8374 -0.2419
  409SOL    MW4 1404   1.797   1.351   2.644 -0.4578 -0.5842  0.4684
  410SOL     OW 1405   0.573   3.699   3.147 -0.5957 -0.4114 -0.4448
  410SOL    HW2 1406   0.493   3.695   3.094 -1.7592 -0.3161  1.1999
  410SOL    HW3 1407   0.565   3.625   3.207  0.1404  0.0807  0.2790
  410SOL    MW4 1408   0.561   3.689   3.148  0.0135  0.1566  0.1045
  411SOL     OW 1409   3.356   0.992   4.825 -0.0991  0.0256  0.3141
  411SOL    HW2 1410   3.422   1.059   4.847  0.1752 -0.1568  0.0528
  411SOL    HW3 1411   3.301   0.987   4.903 -1.5739  2.2443 -0.4976
  411SOL    MW4 1412   3.358   1.000   4.838 -0.3972  0.2893 -0.2455
  412SOL     OW 1413   5.714   3.929   5.060 -0.3276 -0.3257 -0.4345
  412SOL    HW2 1414   5.716   3.835   5.075 -0.9504 -0.2852 -0.0654
  412SOL    HW3 1415   5.716   3.968   5.147  0.0359  0.0107 -0.5883
  412SOL    MW4 1416   5.714   3.922   5.073 -0.6112  0.0834 -0.1927
  413SOL     OW 1417   3.730   5.335   2.939  0.1496 -0.2575 -0.3213
  413SOL    HW2 1418   3.789   5.337   3.014  1.2557  0.4136 -1.1722
  413SOL    HW3 1419   3.718   5.242   2.920 -0.2626 -0.4345  0.7625
  413SOL    MW4 1420   3.736   5.323   2.946 -0.3342 -0.2839 -0.0395
  414SOL     OW 1421   0.993   5.853   1.682  0.0099 -0.2120 -0.1043
  414SOL    HW2 1422   1.081   5.845   1.645  0.6666  1.4144  0.9870
  414SOL    HW3 1423   0.942   5.897   1.614  0.3109 -0.2334 -0.3447
  414SOL    MW4 1424   0.998   5.858   1.668  0.5640 -0.4611  0.3726
  415SOL     OW 1425   1.704   1.044   0.840 -0.0232 -0.2897 -0.0733
  415SOL    HW2 1426   1.760   0.991   0.783  0.3462  0.8344 -0.7889
  415SOL    HW3 1427   1.624   1.058   0.789  0.9786  2.1810 -1.1282
  415SOL    MW4 1428   1.701   1.038   0.826  0.4133 -0.1332 -0.1098
  416SOL     OW 1429   1.724   5.484   0.625  0.1279 -0.0406 -0.1783
  416SOL    HW2 1430   1.707   5.461   0.716  0.8734  1.5351  0.3946
  416SOL    HW3 1431   1.637   5.491   0.585 -0.2640  0.3595  0.7129
  416SOL    MW4 1432   1.710   5.482   0.632  0.4311 -0.1337  0.3823
  417SOL     OW 1433   0.911   2.185   3.692  0.4800  0.1015  0.0958
  417SOL    HW2 1434   0.974   2.253   3.668  2.9633 -1.8208  0.7215
  417SOL    HW3 1435   0.960   2.127   3.750 -1.1365 -2.8392 -1.2630
  417SOL    MW4 1436   0.926   2.186   3.697  0.7572  0.0185 -0.1694
  418SOL     OW 1437   2.756   3.752   3.413 -0.4328 -0.8868 -0.3891
  418SOL    HW2 1438   2.732   3.750   3.506  0.8366  0.5219  0.0057
  418SOL    HW3 1439   2.852   3.756   3.413 -0.3062 -2.9207 -1.8307
  418SOL    MW4 1440   2.765   3.753   3.426 -0.7721 -0.1526 -0.2053
  419SOL     OW 1441   5.983   0.648   5.034  0.1257 -0.2707  0.1063
  419SOL    HW2 1442   6.054   0.604   4.988  1.8109  0.8500  1.5388
  419SOL    HW3 1443   6.026   0.712   5.090 -2.0572  0.9289  0.5355
  419SOL    MW4 1444   5.998   0.651   5.035 -0.2171 -0.1750  0.1603
  420SOL     OW 1445   0.210   6.172   3.243  0.6174  0.0495  0.0442
  420SOL    HW2 1446   0.184   6.130   3.325 -1.1020 -1.4843 -1.1800
  420SOL    HW3 1447   0.182   6.263   3.252  0.0129 -0.2211  0.9816
  420SOL    MW4 1448   0.203   6.178   3.255  0.3743  0.4700  0.0751
  421SOL     OW 1449   2.373   3.138   3.248  0.1170 -0.6807 -0.1044
  421SOL    HW2 1450   2.375   3.230   3.220  0.7873 -1.1445 -1.6633
  421SOL    HW3 1451   2.345   3.142   3.339  0.5208  1.1004 -0.0236
  421SOL    MW4 1452   2.369   3.151   3.256  0.5624 -0.2637  0.2545
  422SOL     OW 1453   3.263   2.931   1.419 -0.0034  0.5126 -0.4893
  422SOL    HW2 1454   3.320   2.887   1.482 -2.6835 -2.2809  0.2094
  422SOL    HW3 1455   3.287   2.892   1.335 -0.4040 -0.1604 -0.2964
  422SOL    MW4 1456   3.274   2.920   1.416  0.1823 -0.5979  0.0963
  423SOL     OW 1457   1.245   3.474   3.615 -0.4389  0.0549 -0.3676
  423SOL    HW2 1458   1.222   3.567   3.614 -2.7380 -0.4482 -0.2229
  423SOL    HW3 1459   1.263   3.452   3.524 -0.0050  0.5996 -0.4180
  423SOL    MW4 1460   1.244   3.483   3.603 -0.2172  0.4008  0.2675
  424SOL     OW 1461   2.886   2.211   5.988  0.0367  0.0679  0.1325
  424SOL    HW2 1462   2.897   2.128   5.942  2.2173  0.1973  0.3315
  424SOL    HW3 1463   2.797   2.239   5.966 -0.4431 -1.9002 -0.6018
  424SOL    MW4 1464   2.876   2.204   5.979  0.3284 -0.0236  0.5812
  425SOL     OW 1465   5.343   2.978   0.206  0.5299 -0.4086  0.3915
  425SOL    HW2 1466   5.283   3.045   0.239  0.1660  0.5244 -1.9842
  425SOL    HW3 1467   5.430   3.017   0.216  0.3207  0.4666 -0.9773
  425SOL    MW4 1468   5.346   2.992   0.212 -0.4279  0.1471  0.1327
  426SOL     OW 1469   6.017   0.449   2.960  0.2696  0.5977  0.1034
  426SOL    HW2 1470   5.955   0.451   3.033 -0.4605 -1.2653 -0.3946
  426SOL    HW3 1471   6.025   0.540   2.933 -3.1049  0.8839 -0.4276
  426SOL    MW4 1472   6.010   0.461   2.966 -0.7577 -0.3441  0.0877
  427SOL     OW 1473   2.916   4.182   5.041  0.1821 -0.0160 -0.3659
  427SOL    HW2 1474   2.854   4.148   4.976  0.4315  0.4998 -0.8855
  427SOL    HW3 1475   2.949   4.263   5.002  0.4911  0.1948  0.3200
  427SOL    MW4 1476   2.912   4.188   5.027  0.1999 -0.4984  0.5496
  428SOL     OW 1477   0.830   3.314   2.246 -0.6340  0.3916 -0.3920
  428SOL    HW2 1478   0.821   3.410   2.242  0.2349  0.5134  0.3173
  428SOL    HW3 1479   0.826   3.293   2.339 -3.7713 -0.6136 -0.6331
  428SOL    MW4 1480   0.829   3.324   2.257 -0.2813 -0.6552  0.1017
  429SOL     OW 1481   6.037   0.207   1.525  0.5473  0.2503 -0.3154
  429SOL    HW2 1482   5.999   0.271   1.585 -2.2013  0.0442 -1.6779
  429SOL    HW3 1483   6.132   0.223   1.530  0.3411  1.2268  2.8621
  429SOL    MW4 1484   6.045   0.218   1.534  0.3004  0.2357  0.5131
  430SOL     OW 1485   4.452   1.647   2.162  0.0032  0.3796 -0.6039
  430SOL    HW2 1486   4.428   1.683   2.077 -0.3015  0.0037 -0.6812
  430SOL    HW3 1487   4.446   1.552   2.150 -0.2715  0.3299 -0.0966
  430SOL    MW4 1488   4.448   1.639   2.149 -0.2421 -0.0178  0.0935
  431SOL     OW 1489   4.529   0.156   1.355  0.6311 -0.2710 -0.5269
  431SOL    HW2 1490   4.533   0.249   1.377  0.1419  0.0128 -1.5635
  431SOL    HW3 1491   4.609   0.118   1.393  0.7242  0.5226  0.0857
  431SOL    MW4 1492   4.540   0.163   1.363  0.5846 -0.1297  0.5702
  432SOL     OW 1493   5.478   4.974   0.075 -1.0474 -0.2400  0.2336
  432SOL    HW2 1494   5.417   4.906   0.045 -2.0284  0.0557  1.4760
  432SOL    HW3 1495   5.461   4.982   0.169 -0.2635  1.0298  0.2941
  432SOL    MW4 1496   5.467   4.966   0.083 -0.0496 -0.2517 -0.1464
  433SOL     OW 1497   0.369   3.993   5.664  0.2868  0.2574  0.5157
  433SOL    HW2 1498   0.350   3.924   5.729  0.9181  0.6463  1.1304
  433SOL    HW3 1499   0.315   4.067   5.692 -0.9809 -0.2099 -0.5920
  433SOL    MW4 1500   0.359   3.993   5.676 -0.0465 -0.1621 -0.1510
  434SOL     OW 1501   0.173   3.849   5.991  0.1003  0.4257 -0.2965
  434SOL    HW2 1502   0.252   3.902   5.998 -0.5128  1.1629  1.5511
  434SOL    HW3 1503   0.130   3.858   6.076 -1.2358 -1.1365 -0.7533
  434SOL    MW4 1504   0.178   3.857   6.003 -0.0392 -0.3400 -0.2099
  435SOL     OW 1505   6.374   0.178   5.447 -0.5394 -0.3825  0.0612
  435SOL    HW2 1506   6.320   0.100   5.436 -0.5003 -0.2673 -1.1170
  435SOL    HW3 1507   6.430   0.180   5.369  0.1172  0.3168  0.5283
  435SOL    MW4 1508   6.374   0.168   5.435  0.2114  0.2873 -0.3429
  436SOL     OW 1509   5.936   5.375   1.986  0.0499  0.5700  0.5764
  436SOL    HW2 1510   5.967   5.286   1.971 -1.3557 -0.1748  1.8177
  436SOL    HW3 1511   5.987   5.406   2.061  0.6611  0.8974  0.0372
  436SOL    MW4 1512   5.947   5.368   1.994 -0.3874  0.0080 -0.1022
  437SOL     OW 1513   0.960   5.284   1.811 -0.0536 -0.0188  0.3435
  437SOL    HW2 1514   0.990   5.246   1.728 -1.0086  0.3469 -0.1773
  437SOL    HW3 1515   1.026   5.350   1.831  0.7304 -0.7964  0.4107
  437SOL    MW4 1516   0.973   5.288   1.803  0.2597 -0.1802  0.6877
  438SOL     OW 1517   3.794   3.837   0.539 -0.1941  0.0385  0.3212
  438SOL    HW2 1518   3.886   3.818   0.525 -0.4450 -2.5178  1.4716
  438SOL    HW3 1519   3.753   3.827   0.453  0.4303 -0.0296  0.0317
  438SOL    MW4 1520   3.801   3.833   0.526 -0.0702 -0.0616 -0.3156
  439SOL     OW 1521   6.207   5.926   2.384 -0.5763 -0.6233 -0.2767
  439SOL    HW2 1522   6.151   5.975   2.324 -1.4435 -0.7102  0.4429
  439SOL    HW3 1523   6.146   5.872   2.434  0.0764 -0.0877  1.1190
  439SOL    MW4 1524   6.192   5.925   2.382 -0.3273  0.1700 -0.6380
  440SOL     OW 1525   0.942   6.096   3.012 -0.6135 -0.1541  0.4659
  440SOL    HW2 1526   0.896   6.169   2.971  0.0334 -0.0126 -0.0387
  440SOL    HW3 1527   1.033   6.105   2.981 -0.8017 -2.0133 -0.8450
  440SOL    MW4 1528   0.948   6.107   3.002  0.5234  0.3646 -0.1540
  441SOL     OW 1529   0.051   4.856   3.313 -0.2008 -0.9221  0.5368
  441SOL    HW2 1530   0.107   4.916   3.265 -2.7020 -1.0388 -2.8608
  441SOL    HW3 1531   0.099   4.773   3.313 -0.3737 -1.1528 -2.7373
  441SOL    MW4 1532   0.065   4.853   3.307  0.2228 -0.8276  0.1280
  442SOL     OW 1533   2.185   1.088   5.561  0.4321 -0.1187  0.3587
  442SOL    HW2 1534   2.207   1.116   5.473  1.5375 -2.0295 -0.0213
  442SOL    HW3 1535   2.266   1.052   5.596  0.3565  1.6933  2.6533
  442SOL    MW4 1536   2.199   1.087   5.554  0.0329  0.1953  0.2028
  443SOL     OW 1537   1.350   0.158   5.646 -0.1075 -0.1679 -0.1453
  443SOL    HW2 1538   1.319   0.216   5.577  1.2835 -0.6879 -1.2519
  443SOL    HW3 1539   1.374   0.216   5.718  0.4871  0.5772 -0.9289
  443SOL    MW4 1540   1.349   0.173   5.646 -0.5489  0.4045  0.0021
  444SOL     OW 1541   4.404   1.484   2.675 -0.4591 -0.2456  0.5231
  444SOL    HW2 1542   4.426   1.570   2.640  0.0997 -0.8101 -0.5561
  444SOL    HW3 1543   4.310   1.489   2.692 -0.7419  0.0809 -1.0099
  444SOL    MW4 1544   4.394   1.496   2.673  0.9646  0.0442 -0.3107
  445SOL     OW 1545   5.886   6.073   3.591  0.1507  0.2677  0.0347
  445SOL    HW2 1546   5.841   6.007   3.644  1.6846 -0.8298  0.0150
  445SOL    HW3 1547   5.922   6.135   3.655 -0.2495  0.4218  0.1150
  445SOL    MW4 1548   5.884   6.073   3.606 -0.7543  0.0061 -0.4606
  446SOL     OW 1549   6.215   3.260   4.084  0.0695  0.2297 -0.7914
  446SOL    HW2 1550   6.252   3.207   4.014 -0.8599 -2.1238  0.3755
  446SOL    HW3 1551   6.290   3.280   4.141  0.2103 -1.3098 -0.3872
  446SOL    MW4 1552   6.230   3.256   4.082 -0.3114  0.0041 -0.8175
  447SOL     OW 1553   1.794   4.347   5.132 -0.5463  0.4314  0.6968
  447SOL    HW2 1554   1.852   4.276   5.107 -0.0810  0.0834  2.5631
  447SOL    HW3 1555   1.851   4.409   5.179 -1.5449  0.3867  2.0189
  447SOL    MW4 1556   1.810   4.346   5.135  0.4983 -0.3952  0.4124
  448SOL     OW 1557   1.473   0.738   1.309  0.3642 -0.2072 -0.3465
  448SOL    HW2 1558   1.386   0.776   1.318 -0.1593 -1.4846  0.4158
  448SOL    HW3 1559   1.484   0.724   1.215  0.0441  0.6210 -0.5111
  448SOL    MW4 1560   1.463   0.741   1.298  0.2505 -0.2869  0.3492
  449SOL     OW 1561   2.150   4.115   2.945  0.0739 -0.0817 -0.0654
  449SOL    HW2 1562   2.222   4.072   2.991  1.9794  1.9441 -0.9218
  449SOL    HW3 1563   2.087   4.136   3.014  0.1889 -2.0319  0.6981
  449SOL    MW4 1564   2.151   4.112   2.960  0.0309 -0.4213  0.1507
  450SOL     OW 1565   0.154   3.672   1.355 -0.1867 -0.1766 -0.0368
  450SOL    HW2 1566   0.228   3.731   1.343 -0.0913 -0.4991 -1.1108
  450SOL    HW3 1567   0.082   3.729   1.383  0.9818 -0.1241  3.2984
  450SOL    MW4 1568   0.154   3.687   1.357  0.9406  0.2638 -0.5655
  451SOL     OW 1569   1.050   1.449   0.759 -0.1441  0.4931 -0.3489
  451SOL    HW2 1570   0.962   1.419   0.777  0.3682 -0.8710 -0.0134
  451SOL    HW3 1571   1.091   1.460   0.845 -0.2474  2.0252 -0.4598
  451SOL    MW4 1572   1.044   1.447   0.772 -0.3498 -0.2091  0.1624
  452SOL     OW 1573   3.660   2.402   4.547 -0.0602  0.2579 -0.0745
  452SOL    HW2 1574   3.607   2.452   4.608  0.6717 -1.1423  1.8158
  452SOL    HW3 1575   3.749   2.409   4.581  0.1407 -1.8351 -0.0315
  452SOL    MW4 1576   3.665   2.409   4.559  0.5473 -0.5328 -0.4807
  453SOL     OW 1577   5.286   0.897   4.353  0.2898  0.5324 -0.0672
  453SOL    HW2 1578   5.207   0.909   4.300 -0.3408 -2.0228  0.1941
  453SOL    HW3 1579   5.254   0.896   4.443  0.4608 -1.2495  0.0051
  453SOL    MW4 1580   5.271   0.899   4.358 -0.0498 -0.3405  0.1959
  454SOL     OW 1581   5.331   1.255   2.731  0.0577 -0.1168  0.6739
  454SOL    HW2 1582   5.269   1.186   2.706 -1.4026  1.2145  0.5132
  454SOL    HW3 1583   5.357   1.295   2.648 -1.3079  1.3583  0.9163
  454SOL    MW4 1584   5.326   1.251   2.717  0.0284 -0.2833  0.1756
  455SOL     OW 1585   4.006   0.327   2.234 -0.1297 -0.5942  0.3442
  455SOL    HW2 1586   3.952   0.289   2.165 -0.5119 -2.4999  1.6412
  455SOL    HW3 1587   3.949   0.329   2.311  0.0507  2.1629  0.5271
  455SOL    MW4 1588   3.991   0.322   2.235  0.0581  0.4828  0.0804
  456SOL     OW 1589   0.796   1.333   5.235  0.3784  0.3310 -0.3534
  456SOL    HW2 1590   0.710   1.314   5.198  0.8976 -0.0224 -1.4212
  456SOL    HW3 1591   0.782   1.411   5.289 -0.5311  0.5041 -0.8161
  456SOL    MW4 1592   0.783   1.341   5.238 -0.2925 -0.6635 -0.3754
  457SOL     OW 1593   3.024   4.329   4.765  0.3068  0.0704  0.1314
  457SOL    HW2 1594   3.050   4.247   4.725  0.6627  0.8790 -1.3484
  457SOL    HW3 1595   3.001   4.386   4.692  0.7096  1.5092  1.0759
  457SOL    MW4 1596   3.024   4.326   4.750 -0.0109 -0.2338 -0.0957
  458SOL     OW 1597   4.625   3.262   4.964 -0.1842  0.2347 -0.0640
  458SOL    HW2 1598   4.647   3.322   4.893  2.5008 -0.6921 -0.1362
  458SOL    HW3 1599   4.537   3.232   4.944 -0.4424  1.8584 -1.6342
  458SOL    MW4 1600   4.616   3.266   4.952  0.0835 -0.6194 -0.4510
  459SOL     OW 1601   2.444   4.279   5.590  0.3726 -1.0705 -0.3280
  459SOL    HW2 1602   2.363   4.229   5.593 -1.0123  1.0391  2.0077
  459SOL    HW3 1603   2.476   4.278   5.680  1.2266  0.7377 -0.5652
  459SOL    MW4 1604   2.438   4.272   5.602  0.5230 -0.1813 -0.2427
  460SOL     OW 1605   1.897   3.620   1.182 -0.3210 -0.4911 -0.8786
  460SOL    HW2 1606   1.803   3.620   1.167 -0.0904 -0.4147 -2.4905
  460SOL    HW3 1607   1.916   3.706   1.220 -0.9978 -0.8240  0.2367
  460SOL    MW4 1608   1.887   3.631   1.185  0.3679 -0.4255 -0.1225
  461SOL     OW 1609   0.075   3.287   1.458 -0.3500  0.7341 -0.0212
  461SOL    HW2 1610  -0.008   3.313   1.417 -0.3158  0.6909 -0.1183
  461SOL    HW3 1611   0.083   3.345   1.534 -0.1615  1.1642 -0.3640
  461SOL    MW4 1612   0.065   3.298   1.462 -0.3462  0.6903  0.0501
  462SOL     OW 1613   0.564   5.838   2.630  0.5487 -0.1835 -0.0548
  462SOL    HW2 1614   0.515   5.756   2.629  0.5439 -0.1776 -0.6984
  462SOL    HW3 1615   0.595   5.848   2.540  1.5869 -0.1040  0.2964
  462SOL    MW4 1616   0.562   5.828   2.618 -0.7761  0.1042  1.0125
  463SOL     OW 1617   1.214   1.492   6.158  0.1523 -0.1037  0.0062
  463SOL    HW2 1618   1.243   1.401   6.164  0.1558 -0.1251 -0.2921
  463SOL    HW3 1619   1.249   1.535   6.236  0.7547 -0.1882 -0.2192
  463SOL    MW4 1620   1.222   1.485   6.169  0.2923  0.1134 -0.5331
  464SOL     OW 1621   4.593   4.359   5.200 -0.1921 -0.2072  0.1368
  464SOL    HW2 1622   4.619   4.424   5.134  0.2140 -0.7699 -0.2617
  464SOL    HW3 1623   4.515   4.318   5.164 -0.2859 -0.1381  0.2600
  464SOL    MW4 1624   4.586   4.362   5.187 -0.0643  0.1131  0.1283
  465SOL     OW 1625   2.584   0.341   4.048 -0.2255  0.1075  0.3037
  465SOL    HW2 1626   2.537   0.336   3.965 -1.0889  0.5944  0.7519
  465SOL    HW3 1627   2.518   0.321   4.114  0.7391 -1.6857  0.8161
  465SOL    MW4 1628   2.569   0.338   4.046 -0.1422 -0.1529 -0.0067
  466SOL     OW 1629   4.263   4.919   1.721 -0.1634  0.2944  0.4586
  466SOL    HW2 1630   4.208   4.972   1.663  1.2751 -0.0862 -1.3709
  466SOL    HW3 1631   4.331   4.980   1.752  0.7659 -0.1294 -0.6527
  466SOL    MW4 1632   4.265   4.934   1.717 -0.1682 -0.0832  0.3427
  467SOL     OW 1633   0.994   5.578   1.796 -0.2553 -0.6321 -0.2469
  467SOL    HW2 1634   0.981   5.668   1.765 -0.6929 -1.0658 -1.3485
  467SOL    HW3 1635   0.914   5.558   1.846  0.2773 -0.0768  0.8765
  467SOL    MW4 1636   0.982   5.587   1.799  0.7508 -0.1756 -0.6162
  468SOL     OW 1637   1.394   4.178   5.042  0.2264  0.0843  0.5865
  468SOL    HW2 1638   1.409   4.137   4.957  3.7344  1.0178  0.6078
  468SOL    HW3 1639   1.392   4.105   5.104  1.5594 -0.3816  0.1073
  468SOL    MW4 1640   1.396   4.163   5.039 -0.2323 -0.5151  0.6523
  469SOL     OW 1641   5.131   1.950   4.068  0.0533 -0.8344 -0.5670
  469SOL    HW2 1642   5.216   1.970   4.107 -1.0944  0.8366  1.2758
  469SOL    HW3 1643   5.136   1.988   3.980  1.6067 -1.8678 -0.9719
  469SOL    MW4 1644   5.143   1.958   4.062 -0.0460  0.5398 -0.1486
  470SOL     OW 1645   0.056   2.460   3.254  0.4841  0.0370  0.0869
  470SOL    HW2 1646   0.071   2.456   3.348  2.1785 -0.3401 -0.1762
  470SOL    HW3 1647  -0.038   2.473   3.245  0.1687 -0.8536  1.8092
  470SOL    MW4 1648   0.046   2.461   3.265  0.0036 -0.1457  1.0011
  471SOL     OW 1649   1.821   6.017   1.744  0.0326 -0.0887  0.1051
  471SOL    HW2 1650   1.727   6.032   1.731 -0.4352 -2.4239  0.2659
  471SOL    HW3 1651   1.858   6.013   1.656 -0.7054 -2.6071 -0.1620
  471SOL    MW4 1652   1.813   6.018   1.731  0.3426  0.4940  0.6553
  472SOL     OW 1653   4.536   2.152   4.147  0.0609  0.3164  0.3238
  472SOL    HW2 1654   4.585   2.152   4.065 -0.5054 -0.1428 -0.0250
  472SOL    HW3 1655   4.469   2.220   4.135  0.6023  0.9426  0.7963
  472SOL    MW4 1656   4.534   2.161   4.135  0.1681  0.0205 -0.6471
  473SOL     OW 1657   2.838   6.348   0.538 -0.1845 -0.1489 -0.1724
  473SOL    HW2 1658   2.839   6.271   0.482  1.6435 -1.5829  1.6854
  473SOL    HW3 1659   2.929   6.377   0.540 -0.6760  1.4883 -0.0191
  473SOL    MW4 1660   2.850   6.342   0.531 -0.5760 -0.6798  0.1382
  474SOL     OW 1661   5.095   5.748   1.043  0.0186 -1.0106  0.4068
  474SOL    HW2 1662   5.154   5.677   1.067  1.3241 -0.0331  0.1988
  474SOL    HW3 1663   5.034   5.755   1.117  1.2338 -0.9255  1.4253
  474SOL    MW4 1664   5.095   5.739   1.056 -0.6579  0.0881  0.8102
  475SOL     OW 1665   4.048   3.660   4.660  0.1061 -0.4085 -0.0759
  475SOL    HW2 1666   4.001   3.624   4.736  0.8338  1.1089  1.1306
  475SOL    HW3 1667   3.993   3.635   4.585 -0.5865 -2.0207  0.9024
  475SOL    MW4 1668   4.034   3.652   4.660  0.4925 -0.5602  0.4142
  476SOL     OW 1669   4.461   1.927   5.224 -0.0208 -0.1508 -0.0485
  476SOL    HW2 1670   4.443   1.834   5.211 -0.1082 -0.3834  1.4825
  476SOL    HW3 1671   4.482   1.960   5.137 -2.8538 -0.9366 -1.1214
  476SOL    MW4 1672   4.462   1.919   5.211 -0.4476 -0.6028  0.2140
  477SOL     OW 1673   4.289   2.104   3.948  0.3632  0.4165 -0.2599
  477SOL    HW2 1674   4.302   2.180   3.891 -1.3053  1.8018  1.0873
  477SOL    HW3 1675   4.195   2.085   3.941  0.3717 -0.2050  0.9870
  477SOL    MW4 1676   4.278   2.112   3.940 -0.1474 -0.3173  0.3998
  478SOL     OW 1677   1.896   1.556   4.976  0.1674  0.0018 -0.3121
  478SOL    HW2 1678   1.846   1.627   5.014  0.4789  1.1458 -1.9370
  478SOL    HW3 1679   1.862   1.477   5.019 -2.1152  0.8414 -0.4249
  478SOL    MW4 1680   1.885   1.555   4.987 -0.2163  0.1387 -0.5161
  479SOL     OW 1681   3.925   1.078   3.324  0.4168 -0.0913 -0.9215
  479SOL    HW2 1682   4.008   1.107   3.287  0.0375 -1.6893 -3.2314
  479SOL    HW3 1683   3.859   1.129   3.276 -0.0056  1.2780  0.9936
  479SOL    MW4 1684   3.927   1.089   3.313 -1.0881  1.2053 -0.2531
  480SOL     OW 1685   1.987   6.285   3.606 -0.1977  1.3947 -0.1611
  480SOL    HW2 1686   2.065   6.317   3.560 -0.4548  0.7445 -1.0844
  480SOL    HW3 1687   1.917   6.288   3.541 -0.2016 -1.1374 -0.4041
  480SOL    MW4 1688   1.988   6.290   3.592 -0.2044  0.4009 -0.2160
  481SOL     OW 1689   4.844   4.778   2.435  0.0081  0.1626 -0.1753
  481SOL    HW2 1690   4.838   4.857   2.489 -0.9739 -0.5733  0.8257
  481SOL    HW3 1691   4.761   4.775   2.387  0.0429 -0.2634 -0.2132
  481SOL    MW4 1692   4.832   4.788   2.436 -0.2120  0.0432 -0.3347
  482SOL     OW 1693   0.132   0.768   5.083 -0.0890 -0.3880  0.1415
  482SOL    HW2 1694   0.057   0.734   5.133  0.5565  0.0625  1.4672
  482SOL    HW3 1695   0.108   0.858   5.061  0.2690 -0.0452  1.0775
  482SOL    MW4 1696   0.119   0.775   5.087 -0.4200 -0.0350  0.5719
  483SOL     OW 1697   0.493   2.745   5.823  0.2809 -0.2828 -0.3452
  483SOL    HW2 1698   0.498   2.666   5.877 -0.9185 -0.6938 -0.8083
  483SOL    HW3 1699   0.584   2.763   5.800  1.0443  0.7283  2.9295
  483SOL    MW4 1700   0.506   2.737   5.827 -0.1812 -0.3451  0.3202
  484SOL     OW 1701   0.292   2.171   2.921 -0.0179  0.3557 -0.4126
  484SOL    HW2 1702   0.230   2.182   2.993  2.4093  1.8504  1.6334
  484SOL    HW3 1703   0.319   2.080   2.925 -1.8548 -0.2707 -1.2268
  484SOL    MW4 1704   0.287   2.161   2.931 -0.3341  0.5033  0.0072
  485SOL     OW 1705   1.433   4.926   0.504 -0.1595  0.4372  0.0473
  485SOL    HW2 1706   1.437   4.914   0.599  2.5096 -0.6958 -0.1285
  485SOL    HW3 1707   1.354   4.879   0.477 -0.6142  0.2386  1.6060
  485SOL    MW4 1708   1.423   4.918   0.513 -0.4121  0.1264  0.1578
  486SOL     OW 1709   2.245   1.062   4.333  0.2085  0.1075  0.4255
  486SOL    HW2 1710   2.263   1.024   4.247  1.1837  1.7613 -0.1339
  486SOL    HW3 1711   2.272   0.994   4.395  0.7353 -0.6038 -0.5502
  486SOL    MW4 1712   2.251   1.048   4.330  0.1281 -0.0840  0.4286
  487SOL     OW 1713   5.285   2.297   2.645 -0.5322 -0.2380 -0.4869
  487SOL    HW2 1714   5.222   2.282   2.575 -3.3979 -0.2496  1.8997
  487SOL    HW3 1715   5.246   2.367   2.698  1.2215 -0.5869  1.4067
  487SOL    MW4 1716   5.272   2.304   2.643  0.3999 -0.7142 -0.0688
  488SOL     OW 1717   1.426   1.534   4.082 -0.3012 -0.5249 -0.0491
  488SOL    HW2 1718   1.471   1.550   4.165 -0.0499 -1.2533 -0.0407
  488SOL    HW3 1719   1.349   1.592   4.085 -0.0093 -0.1545  0.4533
  488SOL    MW4 1720   1.421   1.544   4.094  0.0196 -0.2093  0.0854
  489SOL     OW 1721   2.637   0.708   3.148  0.6381  0.2901 -0.3952
  489SOL    HW2 1722   2.718   0.658   3.156 -0.2326 -1.0088  1.0421
  489SOL    HW3 1723   2.611   0.697   3.057  0.8286 -1.3819 -0.2876
  489SOL    MW4 1724   2.644   0.700   3.137 -0.4526 -0.1352 -0.5045
  490SOL     OW 1725   0.432   3.517   1.396  0.6630 -0.2710  0.7104
  490SOL    HW2 1726   0.341   3.533   1.422  0.6445  1.1769 -0.1262
  490SOL    HW3 1727   0.428   3.439   1.341 -0.2586  0.4099 -0.2243
  490SOL    MW4 1728   0.419   3.509   1.392 -0.3709 -0.1877 -0.2658
  491SOL     OW 1729   5.157   4.507   3.410 -0.4611  0.0218 -0.3616
  491SOL    HW2 1730   5.097   4.539   3.478 -1.6183 -0.8535 -0.9322
  491SOL    HW3 1731   5.118   4.537   3.328 -0.5450 -1.2084 -0.7896
  491SOL    MW4 1732   5.144   4.515   3.408 -0.7587 -0.0089 -0.6406
  492SOL     OW 1733   1.429   5.849   2.569  0.1979  0.1452  0.3136
  492SOL    HW2 1734   1.458   5.913   2.504 -1.3805 -0.4994 -1.0922
  492SOL    HW3 1735   1.354   5.892   2.612  1.4216  0.7003  1.9957
  492SOL    MW4 1736   1.423   5.863   2.566 -0.3313 -0.2893 -0.1649
  493SOL     OW 1737   3.960   0.260   3.035  0.1601 -0.2809 -0.3676
  493SOL    HW2 1738   3.886   0.227   3.086 -1.6964  1.3721 -1.8233
  493SOL    HW3 1739   4.015   0.305   3.099 -0.4349 -0.9507  0.6483
  493SOL    MW4 1740   3.958   0.261   3.050  0.1748 -0.6756  0.3670
  494SOL     OW 1741   6.129   3.695   5.457 -0.1158 -0.1311  0.2460
  494SOL    HW2 1742   6.156   3.715   5.368  0.0187  1.2173  0.5719
  494SOL    HW3 1743   6.190   3.743   5.512 -0.2382 -0.8923  1.0761
  494SOL    MW4 1744   6.140   3.704   5.453  0.4727 -0.4692 -0.3329
  495SOL     OW 1745   4.183   6.182   0.397  0.5116  0.5468 -0.5640
  495SOL    HW2 1746   4.208   6.157   0.486 -0.0206 -0.2773 -0.6318
  495SOL    HW3 1747   4.265   6.179   0.348  1.0167  2.1468  0.1228
  495SOL    MW4 1748   4.197   6.178   0.402 -0.5218  0.0677 -0.2795
  496SOL     OW 1749   2.642   6.151   1.444  0.0110  0.5740 -0.2583
  496SOL    HW2 1750   2.549   6.175   1.436 -0.5780 -0.5090  2.2074
  496SOL    HW3 1751   2.649   6.067   1.399 -1.1499 -1.1521  2.5193
  496SOL    MW4 1752   2.631   6.143   1.437 -0.4060 -0.0198 -0.1961
  497SOL     OW 1753   2.161   4.700   4.320 -0.1393  0.0589  0.7924
  497SOL    HW2 1754   2.078   4.653   4.328  0.3802 -1.1847 -0.5654
  497SOL    HW3 1755   2.228   4.633   4.334  0.6225  0.4303 -0.8341
  497SOL    MW4 1756   2.159   4.685   4.323  0.4181  0.2744  0.0781
  498SOL     OW 1757   5.083   3.456   2.804 -0.3300 -0.4791  0.8096
  498SOL    HW2 1758   5.096   3.500   2.720 -0.7467  0.0104  0.9996
  498SOL    HW3 1759   5.171   3.428   2.830  0.1844  1.4919  1.3561
  498SOL    MW4 1760   5.097   3.458   2.797 -0.3897 -0.2465 -0.5961
  499SOL     OW 1761   3.056   3.893   0.457  0.0103  0.4734  0.2203
  499SOL    HW2 1762   2.981   3.834   0.452  1.7501 -1.8526 -0.3772
  499SOL    HW3 1763   3.072   3.905   0.550  1.6581 -2.9919  0.5577
  499SOL    MW4 1764   3.048   3.887   0.468 -0.5570 -0.3367 -0.2906
  500SOL     OW 1765   1.838   5.594   1.602 -0.1191 -0.4245  0.0325
  500SOL    HW2 1766   1.855   5.545   1.521 -0.5779  1.1372 -1.0659
  500SOL    HW3 1767   1.754   5.638   1.585 -0.2383 -0.1103  1.3894
  500SOL    MW4 1768   1.829   5.593   1.589 -0.1380 -0.2727  0.3229
  501SOL     OW 1769   0.654   3.869   4.986  0.4943 -0.0175 -0.5603
  501SOL    HW2 1770   0.561   3.859   5.009  0.4780  0.6364 -0.3073
  501SOL    HW3 1771   0.683   3.943   5.039  1.2913 -0.5308 -0.2738
  501SOL    MW4 1772   0.645   3.877   4.996 -0.4254 -0.1181 -0.1528
  502SOL     OW 1773   2.487   4.826   3.535  0.0070 -0.3733  0.2675
  502SOL    HW2 1774   2.517   4.781   3.455 -0.2469 -1.3341  0.6991
  502SOL    HW3 1775   2.465   4.914   3.505 -1.3761 -1.0999 -1.0223
  502SOL    MW4 1776   2.488   4.832   3.520  0.0377 -0.0320  0.0889
  503SOL     OW 1777   0.452   2.873   1.873  0.0204  0.4823 -0.5343
  503SOL    HW2 1778   0.516   2.914   1.932 -0.9763  0.7133  0.4290
  503SOL    HW3 1779   0.390   2.943   1.855  0.6324  0.5926 -2.3995
  503SOL    MW4 1780   0.453   2.888   1.878  0.0633  0.6867 -0.1067
  504SOL     OW 1781   5.200   0.469   0.437  0.1115 -0.0489 -0.0260
  504SOL    HW2 1782   5.113   0.503   0.419 -0.4579 -1.4422 -0.0304
  504SOL    HW3 1783   5.259   0.531   0.395 -0.7300  2.1658  1.9006
  504SOL    MW4 1784   5.197   0.481   0.429  0.3567 -0.5385 -0.4913
  505SOL     OW 1785   2.376   0.926   4.795 -0.1517 -0.8282  0.0715
  505SOL    HW2 1786   2.392   0.839   4.830 -0.6391 -1.0385 -0.2126
  505SOL    HW3 1787   2.305   0.961   4.848  0.5202 -0.3152  0.6493
  505SOL    MW4 1788   2.369   0.919   4.807 -0.8613 -0.5701  0.2267
  506SOL     OW 1789   5.407   5.951   2.889 -0.1759 -0.4812  0.1858
  506SOL    HW2 1790   5.456   5.970   2.969 -0.7587  0.6292  0.2888
  506SOL    HW3 1791   5.342   6.020   2.883 -0.7244 -1.0565 -0.7851
  506SOL    MW4 1792   5.405   5.963   2.898  0.0233 -0.2014  0.4369
  507SOL     OW 1793   2.195   2.227   1.150 -0.2981 -0.0735  0.0865
  507SOL    HW2 1794   2.118   2.249   1.204 -0.6897 -0.6647 -0.2230
  507SOL    HW3 1795   2.237   2.155   1.196  0.1514  0.3280  0.3189
  507SOL    MW4 1796   2.190   2.221   1.163 -0.3922  0.0648  0.4259
  508SOL     OW 1797   1.466   3.914   2.127 -0.1434  0.3014 -0.0824
  508SOL    HW2 1798   1.499   3.953   2.046  1.4881 -0.4163  0.1916
  508SOL    HW3 1799   1.511   3.830   2.133 -1.2194 -0.2282  0.9298
  508SOL    MW4 1800   1.476   3.908   2.117  0.4336 -0.5681  0.0592
  509SOL     OW 1801   5.959   5.644   3.075  0.2183 -0.2879 -0.0275
  509SOL    HW2 1802   6.017   5.613   3.144 -0.1418 -1.0295 -0.0545
  509SOL    HW3 1803   6.017   5.670   3.004  0.5692  0.0891  0.3893
  509SOL    MW4 1804   5.974   5.643   3.075  0.2287  0.2044 -0.0398
  510SOL     OW 1805   4.797   0.144   2.061 -0.3701 -1.0916  0.0800
  510SOL    HW2 1806   4.788   0.228   2.016 -0.0408 -0.3359  1.3893
  510SOL    HW3 1807   4.725   0.144   2.124  1.2271 -0.5558  1.9747
  510SOL    MW4 1808   4.786   0.155   2.063  0.3328 -0.6361 -0.0283
  511SOL     OW 1809   4.006   4.768   5.838 -0.4036 -0.5099  0.0496
  511SOL    HW2 1810   4.093   4.739   5.810 -0.5334 -0.6369 -0.2289
  511SOL    HW3 1811   3.979   4.703   5.902  0.4175  0.4636  1.4267
  511SOL    MW4 1812   4.014   4.755   5.843  0.2131 -0.2016 -0.8381
  512SOL     OW 1813   4.458   6.140   3.483 -0.0582  0.4901 -0.0157
  512SOL    HW2 1814   4.514   6.184   3.548 -0.5529  0.1928  0.6290
  512SOL    HW3 1815   4.370   6.142   3.523 -0.7368  1.9009 -1.4737
  512SOL    MW4 1816   4.453   6.146   3.497  0.3017 -0.1535  0.3655
  513SOL     OW 1817   3.330   2.398   3.517 -0.1066 -0.2055 -0.0199
  513SOL    HW2 1818   3.368   2.441   3.440 -0.5703 -1.1596 -0.8073
  513SOL    HW3 1819   3.299   2.314   3.484  0.8098 -1.1745  1.4790
  513SOL    MW4 1820   3.331   2.393   3.502 -0.1356  1.0373  0.6099
  514SOL     OW 1821   2.553   5.561   0.383  0.0148 -0.4874  0.3302
  514SOL    HW2 1822   2.551   5.551   0.287  1.3945  0.3488  0.2031
  514SOL    HW3 1823   2.640   5.530   0.409 -0.0121  0.1461  1.2160
  514SOL    MW4 1824   2.564   5.555   0.373 -0.2565 -0.5040  0.1546
  515SOL     OW 1825   0.953   1.681   1.545  0.0903  0.3180  0.5656
  515SOL    HW2 1826   1.000   1.602   1.518 -2.1546 -0.4692 -1.3267
  515SOL    HW3 1827   0.914   1.658   1.629 -0.3961 -0.5283  0.1147
  515SOL    MW4 1828   0.954   1.667   1.552 -0.5882  0.2611  0.1809
  516SOL     OW 1829   4.268   6.263   1.275 -0.4119  0.0592 -0.1362
  516SOL    HW2 1830   4.213   6.194   1.238 -1.1033  1.1311 -1.1819
  516SOL    HW3 1831   4.345   6.264   1.218 -0.4031  0.1562 -0.1213
  516SOL    MW4 1832   4.271   6.254   1.263  0.1289 -0.1517 -0.2793
  517SOL     OW 1833   1.904   2.035   5.015 -0.0482 -0.4740  0.5364
  517SOL    HW2 1834   1.971   2.045   5.084 -0.6158  1.2185  0.8780
  517SOL    HW3 1835   1.955   2.028   4.934  0.5653  1.0070  0.7662
  517SOL    MW4 1836   1.920   2.035   5.014 -0.0852 -0.0883 -0.2837
  518SOL     OW 1837   0.070   2.125   5.908  0.8582  0.2100  0.5410
  518SOL    HW2 1838   0.050   2.219   5.910  1.9217  0.4632  0.1371
  518SOL    HW3 1839   0.079   2.105   5.814  0.7663 -0.2597  0.6345
  518SOL    MW4 1840   0.069   2.135   5.896  0.6506  0.3397  0.4838
  519SOL     OW 1841   5.127   3.612   2.587 -0.0105 -0.1455  0.1570
  519SOL    HW2 1842   5.082   3.575   2.512 -0.2738 -0.1747  0.3273
  519SOL    HW3 1843   5.219   3.590   2.573 -0.2259 -1.3857  0.5405
  519SOL    MW4 1844   5.133   3.604   2.576  0.2781 -0.7103  0.4522
  520SOL     OW 1845   6.247   3.009   2.471 -0.2194 -0.1629  0.2672
  520SOL    HW2 1846   6.194   2.965   2.537 -0.9666  2.0936  1.2930
  520SOL    HW3 1847   6.233   2.958   2.391 -1.8896 -1.1143  1.1035
  520SOL    MW4 1848   6.238   2.997   2.469 -0.5782 -0.1660 -0.4252
  521SOL     OW 1849   3.775   0.715   2.508  0.0660  0.4082  0.0267
  521SOL    HW2 1850   3.837   0.711   2.582 -0.3664 -0.0968  0.3706
  521SOL    HW3 1851   3.689   0.704   2.549 -0.1242 -0.6988 -0.6346
  521SOL    MW4 1852   3.772   0.713   2.523  0.0440  0.4174 -0.7928
  522SOL     OW 1853   4.837   4.770   4.162 -0.1253  0.1643  0.2784
  522SOL    HW2 1854   4.796   4.800   4.082 -0.2134 -0.4147  0.0985
  522SOL    HW3 1855   4.805   4.830   4.230  0.8570  1.3725 -0.2873
  522SOL    MW4 1856   4.828   4.782   4.161  0.0129  0.4503 -0.3984
  523SOL     OW 1857   5.598   5.701   6.380 -0.2826  0.0704 -0.0196
  523SOL    HW2 1858   5.565   5.715   6.291  0.8762  1.4725 -0.2741
  523SOL    HW3 1859   5.538   5.638   6.419 -1.6758  0.5570 -1.3088
  523SOL    MW4 1860   5.586   5.695   6.374 -0.3473 -0.3492 -0.7241
  524SOL     OW 1861   2.745   0.004   2.880 -0.1974  0.0260 -0.0189
  524SOL    HW2 1862   2.719  -0.002   2.972 -1.0328 -0.2377 -0.2646
  524SOL    HW3 1863   2.786   0.091   2.872 -2.1733  1.0179  0.1203
  524SOL    MW4 1864   2.747   0.015   2.891  0.3298  0.1591  0.2161
  525SOL     OW 1865   3.376   2.254   3.907  0.4499  0.3093 -0.3623
  525SOL    HW2 1866   3.461   2.285   3.876  1.1000  1.3884  2.2439
  525SOL    HW3 1867   3.397   2.182   3.966 -0.4585  0.4437  0.1411
  525SOL    MW4 1868   3.390   2.249   3.911  0.3275  0.0479 -0.0700
  526SOL     OW 1869   5.901   0.810   3.379 -0.0375  0.3394 -0.3286
  526SOL    HW2 1870   5.810   0.785   3.397 -0.4480  0.7501 -1.7190
  526SOL    HW3 1871   5.934   0.841   3.464 -0.8735 -0.7261  0.4202
  526SOL    MW4 1872   5.893   0.811   3.393  0.1989  0.1064 -0.2538
  527SOL     OW 1873   0.050   0.717   6.134 -0.5517  0.1203 -0.2558
  527SOL    HW2 1874   0.137   0.734   6.172  0.2798 -0.1702 -1.9354
  527SOL    HW3 1875  -0.001   0.794   6.157  0.4974  0.8256 -0.1892
  527SOL    MW4 1876   0.055   0.729   6.142  1.0095  0.0062  0.1889
  528SOL     OW 1877   4.285   3.994   1.490  0.2980 -0.1443 -0.0215
  528SOL    HW2 1878   4.304   3.926   1.555  2.0534  0.7615  0.5008
  528SOL    HW3 1879   4.204   3.966   1.448  1.5591 -3.1640 -0.6875
  528SOL    MW4 1880   4.277   3.981   1.493 -0.2326  0.4114 -0.4304
  529SOL     OW 1881   0.451   4.199   4.392 -0.3667 -0.4846 -0.1534
  529SOL    HW2 1882   0.364   4.171   4.362 -0.5345  0.5762 -0.7274
  529SOL    HW3 1883   0.434   4.241   4.476 -0.3992 -0.3566 -0.2238
  529SOL    MW4 1884   0.437   4.201   4.399  0.3357 -0.9723  0.1120
  530SOL     OW 1885   3.001   1.224   4.057  0.5242  0.0055  0.3033
  530SOL    HW2 1886   2.966   1.301   4.102  1.1369  0.0041  0.7905
  530SOL    HW3 1887   3.038   1.170   4.126  0.0107 -0.7881 -0.0232
  530SOL    MW4 1888   3.001   1.227   4.072 -0.5761  0.3127  0.4566
  531SOL     OW 1889   2.650   1.099   5.788 -0.3316 -0.6129  0.5387
  531SOL    HW2 1890   2.681   1.186   5.813 -0.0490 -0.5848  0.1094
  531SOL    HW3 1891   2.557   1.099   5.811 -0.4060 -0.0922  0.2613
  531SOL    MW4 1892   2.642   1.111   5.794 -0.3824 -0.1364  0.1832
  532SOL     OW 1893   3.437   3.708   3.764  0.0260  0.0143 -0.3976
  532SOL    HW2 1894   3.513   3.674   3.811 -0.3260  1.0399  0.9946
  532SOL    HW3 1895   3.368   3.644   3.781  0.2389 -0.2642 -0.5785
  532SOL    MW4 1896   3.438   3.695   3.772  0.4133 -0.4190  0.3644
  533SOL     OW 1897   1.630   0.639   4.245 -0.1283  0.5628  0.1168
  533SOL    HW2 1898   1.638   0.656   4.151  0.3157  0.0706  0.0655
  533SOL    HW3 1899   1.550   0.588   4.253  0.0126  0.3178 -0.0322
  533SOL    MW4 1900   1.620   0.635   4.234  0.1008  0.1216  0.2081
  534SOL     OW 1901   3.439   6.124   2.576  0.4967 -0.2996  0.2735
  534SOL    HW2 1902   3.471   6.074   2.501  0.4185 -1.6952  1.1487
  534SOL    HW3 1903   3.347   6.142   2.555  0.8972  0.7355 -0.6814
  534SOL    MW4 1904   3.431   6.120   2.563  0.2159  0.2167 -0.1539
  535SOL     OW 1905   0.220   5.185   4.718  0.5658  0.3370  0.2900
  535SOL    HW2 1906   0.136   5.194   4.672  1.1466 -0.8627 -1.0790
  535SOL    HW3 1907   0.197   5.186   4.811 -0.8703  0.8285 -0.0454
  535SOL    MW4 1908   0.206   5.186   4.724  0.4621  0.4071 -0.6131
  536SOL     OW 1909   4.197   0.094   4.244  0.3197  0.2732 -0.2721
  536SOL    HW2 1910   4.117   0.042   4.242 -0.9317  2.0939 -0.4712
  536SOL    HW3 1911   4.243   0.064   4.323 -0.2137 -1.2620 -0.5163
  536SOL    MW4 1912   4.193   0.084   4.254  0.5341 -0.0085 -0.2180
  537SOL     OW 1913   1.202   5.424   2.603  0.2841 -0.4895 -0.6179
  537SOL    HW2 1914   1.174   5.488   2.669  0.9585 -1.4205  0.6108
  537SOL    HW3 1915   1.123   5.409   2.550 -0.9407 -1.2887  1.2993
  537SOL    MW4 1916   1.188   5.430   2.605  0.1655 -0.1539 -0.0782
  538SOL     OW 1917   5.453   5.196   6.077  0.3681  0.2462  0.2248
  538SOL    HW2 1918   5.419   5.108   6.066  0.5184  0.0352  1.3351
  538SOL    HW3 1919   5.385   5.253   6.042 -1.1656 -0.1690  2.3426
  538SOL    MW4 1920   5.440   5.192   6.071  0.0049 -0.8418  0.0447
  539SOL     OW 1921   0.795   1.666   0.268  0.0131 -0.0662  0.5750
  539SOL    HW2 1922   0.865   1.716   0.308 -1.8974  2.0498  1.5195
  539SOL    HW3 1923   0.825   1.648   0.179  1.2382  1.8511  0.5604
  539SOL    MW4 1924   0.808   1.670   0.261 -0.1915 -0.5308  0.0040
  540SOL     OW 1925   2.401   5.583   0.688  0.2643  0.0223 -0.1330
  540SOL    HW2 1926   2.386   5.558   0.779  0.1011  0.7986  0.0637
  540SOL    HW3 1927   2.347   5.661   0.676 -0.7299 -0.8097 -1.2754
  540SOL    MW4 1928   2.392   5.590   0.699 -0.4700  0.4892  0.2007
  541SOL     OW 1929   3.309   3.585   4.841 -0.6345 -0.6799 -0.6819
  541SOL    HW2 1930   3.365   3.663   4.846  0.3781 -1.3461 -1.2817
  541SOL    HW3 1931   3.355   3.520   4.894 -0.6561 -1.3480 -1.4693
  541SOL    MW4 1932   3.322   3.587   4.849 -0.0743  0.1722 -0.3184
  542SOL     OW 1933   6.301   1.803   0.507 -0.5934  0.2107  0.1802
  542SOL    HW2 1934   6.368   1.847   0.559  0.2715 -0.9424  0.0636
  542SOL    HW3 1935   6.350   1.749   0.445 -1.6185 -0.7003  0.1363
  542SOL    MW4 1936   6.316   1.802   0.506 -0.3549  0.1653  0.2881
  543SOL     OW 1937   3.242   4.242   0.627 -0.3731 -0.2813  0.1325
  543SOL    HW2 1938   3.297   4.306   0.582 -0.0556 -0.5668  0.1145
  543SOL    HW3 1939   3.201   4.291   0.698  1.5324 -0.5361  1.4791
  543SOL    MW4 1940   3.244   4.257   0.630 -0.4526  0.1513 -0.0366
  544SOL     OW 1941   5.764   1.686   0.465  0.2936 -0.5036 -0.2081
  544SOL    HW2 1942   5.762   1.600   0.507  0.3883  0.1945  1.2773
  544SOL    HW3 1943   5.857   1.703   0.449  0.4019 -0.0720  0.8209
  544SOL    MW4 1944   5.776   1.677   0.468 -0.1749  0.9119  0.0138
  545SOL     OW 1945   3.141   0.151   3.468  0.1392 -0.6879  0.1041
  545SOL    HW2 1946   3.169   0.082   3.408  1.3757  0.1993 -0.3690
  545SOL    HW3 1947   3.179   0.231   3.433 -0.2452  0.0657  1.3313
  545SOL    MW4 1948   3.149   0.153   3.456 -0.0975  0.1950  0.9359
  546SOL     OW 1949   3.383   4.725   5.668  0.5869  0.2586 -0.2103
  546SOL    HW2 1950   3.345   4.673   5.597 -0.6852  0.5492  0.2367
  546SOL    HW3 1951   3.379   4.667   5.744 -1.6253  1.2527  0.4900
  546SOL    MW4 1952   3.378   4.710   5.668 -0.5417 -0.0598  0.0397
  547SOL     OW 1953   0.109   4.228   5.101 -0.0106 -0.2590 -0.1507
  547SOL    HW2 1954   0.072   4.162   5.041 -0.3523 -0.0731 -0.1506
  547SOL    HW3 1955   0.200   4.203   5.111 -0.3310 -1.2300  0.5191
  547SOL    MW4 1956   0.116   4.216   5.094  0.1687  0.3516  0.2570
  548SOL     OW 1957   4.719   5.523   3.044 -0.0654 -0.4719 -0.7141
  548SOL    HW2 1958   4.661   5.449   3.061 -1.5082  0.5354 -0.9990
  548SOL    HW3 1959   4.706   5.543   2.951  2.2336 -1.4113 -1.2935
  548SOL    MW4 1960   4.709   5.516   3.034  0.2748 -0.9696 -0.2832
  549SOL     OW 1961   0.027   6.023   1.143  0.1675  0.2028 -0.3227
  549SOL    HW2 1962   0.108   6.046   1.097  0.7018  1.6115  1.2145
  549SOL    HW3 1963   0.007   6.100   1.197 -1.4702 -0.6315  0.3406
  549SOL    MW4 1964   0.035   6.036   1.144  0.1187 -0.8706  0.4003
  550SOL     OW 1965   3.287   2.412   4.119 -0.0064 -0.0107  0.6724
  550SOL    HW2 1966   3.308   2.500   4.091  1.0696 -0.1388  1.0366
  550SOL    HW3 1967   3.308   2.356   4.044 -0.5307  0.0117  0.5002
  550SOL    MW4 1968   3.292   2.416   4.106  0.7693  0.4665 -1.1155
  551SOL     OW 1969   5.512   3.540   3.962  0.5055 -0.0746  0.1362
  551SOL    HW2 1970   5.427   3.584   3.968 -0.6693 -2.3055  0.8613
  551SOL    HW3 1971   5.576   3.611   3.972 -1.2513  1.5601  0.4460
  551SOL    MW4 1972   5.509   3.555   3.964 -0.3074 -0.1341  0.2622
  552SOL     OW 1973   0.810   5.214   3.420  0.3175  0.2232 -0.0029
  552SOL    HW2 1974   0.896   5.176   3.436 -1.4672 -3.0027  3.2062
  552SOL    HW3 1975   0.799   5.281   3.487  0.7519  1.6258 -1.2723
  552SOL    MW4 1976   0.820   5.218   3.431  0.3947 -0.5684  0.0598
  553SOL     OW 1977   6.002   1.092   6.415  0.8785 -0.1514 -0.4807
  553SOL    HW2 1978   6.063   1.049   6.476  0.3203 -0.4281 -0.1030
  553SOL    HW3 1979   6.022   1.185   6.423  0.6571 -0.1647  0.3046
  553SOL    MW4 1980   6.013   1.098   6.424 -0.6454 -0.2642  0.5106
  554SOL     OW 1981   5.417   4.010   3.345  0.0650  0.3777  0.1788
  554SOL    HW2 1982   5.457   4.092   3.372 -0.4500 -0.0963  2.5585
  554SOL    HW3 1983   5.487   3.961   3.302  1.4379  0.4937  2.2119
  554SOL    MW4 1984   5.431   4.014   3.343  0.2672 -0.5011 -0.5627
  555SOL     OW 1985   4.567   0.302   3.627 -0.2110 -0.2450  0.0956
  555SOL    HW2 1986   4.566   0.335   3.717  0.2206 -0.1941  0.0797
  555SOL    HW3 1987   4.654   0.264   3.616 -0.6293 -1.2322  0.0547
  555SOL    MW4 1988   4.578   0.301   3.637  0.0041 -0.0911  0.0283
  556SOL     OW 1989   1.735   0.667   6.254  0.0726  0.1053 -0.5378
  556SOL    HW2 1990   1.828   0.643   6.249 -0.2777 -1.1364 -1.6831
  556SOL    HW3 1991   1.691   0.605   6.196 -1.7199 -0.5340  1.3826
  556SOL    MW4 1992   1.741   0.656   6.245 -0.3704  0.1839 -0.0627
  557SOL     OW 1993   4.157   3.316   2.291 -0.0139  0.0570  0.3460
  557SOL    HW2 1994   4.071   3.343   2.259 -0.8646  0.3540  2.7193
  557SOL    HW3 1995   4.179   3.239   2.239 -1.8446 -0.2041 -0.0980
  557SOL    MW4 1996   4.149   3.309   2.280  0.1305  0.1520  0.4290
  558SOL     OW 1997   1.544   6.217   0.697 -0.0987  0.0577  0.2964
  558SOL    HW2 1998   1.593   6.281   0.748 -0.4356  0.1308  0.5366
  558SOL    HW3 1999   1.488   6.270   0.640 -3.1486  0.1444  3.0499
  558SOL    MW4 2000   1.543   6.232   0.696  0.9353 -0.0320  0.1006
  559SOL     OW 2001   6.289   2.116   1.969  0.1057  0.5892  0.0610
  559SOL    HW2 2002   6.344   2.188   1.998  1.2998  0.1255 -0.9235
  559SOL    HW3 2003   6.224   2.156   1.911  2.2459  0.6960 -2.4866
  559SOL    MW4 2004   6.288   2.131   1.965  0.4189  0.0960 -0.0077
  560SOL     OW 2005   3.031  -0.025   3.125 -0.0938 -0.7643  0.0331
  560SOL    HW2 2006   3.114  -0.070   3.138 -0.4231 -1.5836 -0.6558
  560SOL    HW3 2007   3.001  -0.052   3.038 -0.5603  0.3717 -0.1833
  560SOL    MW4 2008   3.038  -0.034   3.115 -0.2676 -0.7068 -0.0486
  561SOL     OW 2009   5.187   5.985   1.703 -0.7345 -0.6072  0.5945
  561SOL    HW2 2010   5.209   5.918   1.768 -1.8581 -1.9192 -0.3214
  561SOL    HW3 2011   5.097   6.009   1.724 -0.3705  0.5949  0.8580
  561SOL    MW4 2012   5.178   5.979   1.715 -0.5746 -0.2287  0.2334
  562SOL     OW 2013   2.561   5.240   2.559  0.1596 -0.3835 -0.4081
  562SOL    HW2 2014   2.470   5.210   2.562  0.0708 -0.1114 -0.3755
  562SOL    HW3 2015   2.566   5.296   2.482  0.3430 -0.5367 -0.5087
  562SOL    MW4 2016   2.550   5.243   2.550  0.4534 -0.4934  0.1096
  563SOL     OW 2017   3.208   2.706   1.871 -0.1061 -0.3991 -0.5536
  563SOL    HW2 2018   3.197   2.765   1.946  0.0931 -0.5811 -0.3764
  563SOL    HW3 2019   3.302   2.685   1.871 -0.4566 -2.2127  0.5515
  563SOL    MW4 2020   3.219   2.711   1.881  0.4586  0.2370  0.5436
  564SOL     OW 2021   5.730   2.236   3.003 -0.0117  0.1032  0.5785
  564SOL    HW2 2022   5.750   2.205   2.915  0.3135  1.4495  0.1614
  564SOL    HW3 2023   5.812   2.276   3.034  0.1743 -1.2054  1.8809
  564SOL    MW4 2024   5.744   2.237   2.996 -0.3539  0.1039 -0.1489
  565SOL     OW 2025   5.915   2.476   0.381  0.5637 -0.1229 -0.1861
  565SOL    HW2 2026   5.910   2.395   0.331  1.2058 -0.5628  0.4439
  565SOL    HW3 2027   5.923   2.448   0.472 -0.2826  0.6629  0.1487
  565SOL    MW4 2028   5.915   2.462   0.386 -0.0238  0.2662  0.2299
  566SOL     OW 2029   2.007   2.866   4.101 -0.1823 -0.3229  0.3759
  566SOL    HW2 2030   1.958   2.943   4.071  0.5543 -0.3560 -1.0094
  566SOL    HW3 2031   2.038   2.825   4.020  2.1074 -0.3059  1.1901
  566SOL    MW4 2032   2.004   2.871   4.086  0.1486 -0.1667  0.7356
  567SOL     OW 2033   0.049   1.942   6.362 -0.1022  0.1470  0.6289
  567SOL    HW2 2034   0.049   1.894   6.445 -0.9986 -1.2267 -0.1275
  567SOL    HW3 2035  -0.027   2.000   6.367  2.7487  4.2130  2.9291
  567SOL    MW4 2036   0.039   1.943   6.373  0.0561 -0.3768  0.2323
  568SOL     OW 2037   1.572   3.235   3.622  0.4485  0.1369 -0.2889
  568SOL    HW2 2038   1.590   3.187   3.542  2.0429  0.7560 -0.3215
  568SOL    HW3 2039   1.618   3.318   3.612  1.3661 -0.0914  1.5723
  568SOL    MW4 2040   1.580   3.240   3.610 -0.4253 -0.3645  1.0464
  569SOL     OW 2041   1.145   0.206   0.763 -0.1142  0.1410 -0.0650
  569SOL    HW2 2042   1.171   0.231   0.675  2.0294  1.8179  0.9521
  569SOL    HW3 2043   1.095   0.281   0.796  0.9653  0.4837  0.8578
  569SOL    MW4 2044   1.142   0.219   0.756 -0.5246  0.8708  0.0729
  570SOL     OW 2045   2.817   3.484   6.406  0.5920  0.2293  0.2356
  570SOL    HW2 2046   2.873   3.408   6.421  0.7304  0.3285  0.2368
  570SOL    HW3 2047   2.849   3.520   6.323  0.2953  0.0850  0.0602
  570SOL    MW4 2048   2.829   3.479   6.397  0.0073 -0.2643  0.6892
  571SOL     OW 2049   0.387   4.706   3.535  0.3323  0.4291  0.1935
  571SOL    HW2 2050   0.342   4.719   3.618 -0.9041  0.8972 -0.5306
  571SOL    HW3 2051   0.389   4.793   3.494 -0.8705 -0.1220 -1.1323
  571SOL    MW4 2052   0.381   4.719   3.540  0.0947 -0.4159 -0.0488
  572SOL     OW 2053   1.875   1.708   2.452  0.8842 -0.0036  0.6606
  572SOL    HW2 2054   1.888   1.759   2.532  1.7634 -0.5464  0.8824
  572SOL    HW3 2055   1.901   1.768   2.381  0.9959  0.1741  0.8499
  572SOL    MW4 2056   1.880   1.723   2.453 -0.3082 -0.2344 -0.4570
  573SOL     OW 2057   1.841   5.841   3.765 -0.0219 -0.0769 -0.1307
  573SOL    HW2 2058   1.885   5.756   3.756  0.9758  0.3456  0.5344
  573SOL    HW3 2059   1.910   5.905   3.746 -0.0654  0.6356  1.8716
  573SOL    MW4 2060   1.856   5.839   3.761  0.1984  0.2652  0.0688
  574SOL     OW 2061   2.576   3.629   4.008  0.6523 -0.3130 -0.8904
  574SOL    HW2 2062   2.501   3.652   4.062 -0.1714 -2.3436 -1.0751
  574SOL    HW3 2063   2.644   3.691   4.033 -0.8225  1.0746 -0.1501
  574SOL    MW4 2064   2.575   3.640   4.018 -0.3210 -0.0691  0.3679
  575SOL     OW 2065   0.670   4.940   0.070 -0.0136  0.1728  0.2152
  575SOL    HW2 2066   0.599   4.876   0.057  0.2034 -0.3814  1.6267
  575SOL    HW3 2067   0.625   5.022   0.091 -0.2422 -0.2638  1.4650
  575SOL    MW4 2068   0.655   4.942   0.071 -0.4892  0.2162  0.5225
  576SOL     OW 2069   0.285   4.922   5.685  0.1722 -0.0364 -0.1565
  576SOL    HW2 2070   0.342   4.869   5.629  0.8921 -0.1194  0.6419
  576SOL    HW3 2071   0.325   4.918   5.772  1.2439  3.1409 -0.3516
  576SOL    MW4 2072   0.297   4.915   5.689  0.7081  0.5495  0.0089
  577SOL     OW 2073   4.402   1.295   1.886 -0.0656 -0.4618  0.5581
  577SOL    HW2 2074   4.497   1.288   1.884 -0.1361 -1.8101  1.0541
  577SOL    HW3 2075   4.373   1.247   1.808 -0.2915  1.9681 -0.9682
  577SOL    MW4 2076   4.411   1.288   1.875 -0.5531  0.0511 -1.0825
  578SOL     OW 2077   0.336   0.621   0.652 -0.0361  0.6894  0.7084
  578SOL    HW2 2078   0.399   0.663   0.593  0.1210  0.5236  0.7580
  578SOL    HW3 2079   0.290   0.558   0.596 -1.2993  1.9402  0.2663
  578SOL    MW4 2080   0.338   0.618   0.637  0.1890  0.0295  0.0060
  579SOL     OW 2081   1.074   2.522   0.115  0.7983 -0.0803  0.5914
  579SOL    HW2 2082   1.003   2.460   0.131  1.6049 -1.4632 -0.9728
  579SOL    HW3 2083   1.090   2.562   0.201 -0.4729 -1.2237  1.4094
  579SOL    MW4 2084   1.066   2.519   0.129  0.2172 -0.2921  0.3181
  580SOL     OW 2085   4.634   3.226   2.814  0.2937  0.1158  0.0678
  580SOL    HW2 2086   4.722   3.190   2.806  0.8905  1.0159  2.0302
  580SOL    HW3 2087   4.646   3.321   2.817 -0.6741  0.2347  0.8135
  580SOL    MW4 2088   4.647   3.234   2.814  0.3864 -0.1550 -0.3347
  581SOL     OW 2089   2.166   2.552   3.049 -0.0916  0.2461  0.5779
  581SOL    HW2 2090   2.174   2.472   2.996  1.9069  0.9688 -0.3076
  581SOL    HW3 2091   2.102   2.605   3.001  0.5805  0.2682 -0.3262
  581SOL    MW4 2092   2.159   2.548   3.035  0.1112  0.1947  0.1987
  582SOL     OW 2093   1.796   4.213   0.665  0.8621 -0.2073  0.2942
  582SOL    HW2 2094   1.828   4.129   0.633  1.3998  0.2920 -0.5305
  582SOL    HW3 2095   1.856   4.237   0.736  1.2488 -0.1190 -0.0551
  582SOL    MW4 2096   1.808   4.205   0.670 -0.0379 -0.1667 -0.1319
  583SOL     OW 2097   0.837   0.130   6.096 -0.2996 -0.3102 -0.1640
  583SOL    HW2 2098   0.871   0.068   6.159 -0.0593 -0.6558 -0.6282
  583SOL    HW3 2099   0.819   0.209   6.147 -0.9864 -0.8815  0.5036
  583SOL    MW4 2100   0.839   0.132   6.111 -0.4862  0.3865  0.0967
  584SOL     OW 2101   6.162   5.183   4.410 -0.8067  0.1212 -0.6072
  584SOL    HW2 2102   6.255   5.203   4.411 -0.8164  0.1756  0.9766
  584SOL    HW3 2103   6.154   5.112   4.346  0.3392  0.0314 -0.6709
  584SOL    MW4 2104   6.173   5.176   4.402 -0.3222  0.3727 -0.1768
  585SOL     OW 2105   5.315   3.993   2.697  0.2661  0.2310  0.4130
  585SOL    HW2 2106   5.318   4.086   2.677  1.2806  0.0493 -0.3068
  585SOL    HW3 2107   5.256   3.956   2.631 -0.9011  0.4795  1.2722
  585SOL    MW4 2108   5.307   4.000   2.686  0.2864 -0.2499 -0.2163
  586SOL     OW 2109   4.935   5.173   5.778  0.5333  0.5846 -0.4964
  586SOL    HW2 2110   4.917   5.120   5.701 -1.3293  0.0584  0.2417
  586SOL    HW3 2111   4.889   5.256   5.762  0.1823  0.4921  0.0160
  586SOL    MW4 2112   4.926   5.177   5.766 -0.3707  0.0568  0.1357
  587SOL     OW 2113   0.017   4.016   4.903 -0.1648 -0.0767 -0.6423
  587SOL    HW2 2114   0.042   3.934   4.861  0.0757 -0.4472  0.2092
  587SOL    HW3 2115   0.047   4.084   4.843 -0.3878 -0.6103 -1.3658
  587SOL    MW4 2116   0.024   4.014   4.890 -0.3762  0.4149 -0.4180
  588SOL     OW 2117   2.733   2.786   4.218 -0.0836  0.0521 -0.3405
  588SOL    HW2 2118   2.792   2.862   4.213 -0.2749  0.4364  1.9945
  588SOL    HW3 2119   2.655   2.820   4.262 -1.2130 -0.9613 -1.4854
  588SOL    MW4 2120   2.730   2.801   4.223 -0.1365 -0.2480  0.0174
  589SOL     OW 2121   4.123   3.096   4.674 -0.0530 -0.7343 -0.8773
  589SOL    HW2 2122   4.150   3.155   4.744  0.4227 -0.2522 -1.4521
  589SOL    HW3 2123   4.038   3.062   4.702  0.0715 -0.4449 -0.1360
  589SOL    MW4 2124   4.115   3.099   4.687 -0.3525  0.6071  0.0327
  590SOL     OW 2125   5.537   3.378   4.498  0.2834 -0.3804 -0.3135
  590SOL    HW2 2126   5.539   3.343   4.587 -1.6930  0.5701  0.1585
  590SOL    HW3 2127   5.462   3.334   4.456  0.3649  0.1650 -1.0586
  590SOL    MW4 2128   5.527   3.368   4.504 -0.5011 -0.5632 -0.0354
  591SOL     OW 2129   4.146   1.056   2.608 -0.3861 -0.2103 -0.0684
  591SOL    HW2 2130   4.239   1.068   2.626 -0.5199  1.1342 -0.1820
  591SOL    HW3 2131   4.144   1.008   2.525  0.2060 -0.2148 -0.0823
  591SOL    MW4 2132   4.158   1.051   2.599  0.1886  0.6922 -0.4190
  592SOL     OW 2133   5.160   2.198   5.394 -0.3928 -0.2101  0.0004
  592SOL    HW2 2134   5.143   2.149   5.314  1.0132 -1.1354  0.2240
  592SOL    HW3 2135   5.075   2.230   5.422 -1.1417 -1.2875 -0.9658
  592SOL    MW4 2136   5.147   2.196   5.388 -0.5461  0.0169 -0.2167
  593SOL     OW 2137   5.577   0.110   3.182  0.2953  0.2124  0.1162
  593SOL    HW2 2138   5.597   0.063   3.102  1.8965 -1.7046  1.5527
  593SOL    HW3 2139   5.488   0.142   3.170 -0.8876 -3.1484 -0.9999
  593SOL    MW4 2140   5.568   0.108   3.170  0.1978  0.0108  0.3332
  594SOL     OW 2141   2.221   3.271   1.627 -0.0586  0.5466 -0.2344
  594SOL    HW2 2142   2.192   3.183   1.651 -2.0980  0.8515 -1.3094
  594SOL    HW3 2143   2.259   3.307   1.707  0.1707 -1.0522  0.4077
  594SOL    MW4 2144   2.222   3.264   1.640 -0.3231 -0.1323 -0.7138
  595SOL     OW 2145   2.948   2.285   3.713 -0.3767 -0.0752  0.4479
  595SOL    HW2 2146   2.877   2.223   3.731 -0.7089 -0.8993 -2.9749
  595SOL    HW3 2147   3.028   2.235   3.730 -0.6483 -1.4263 -1.8196
  595SOL    MW4 2148   2.949   2.270   3.717 -1.0478 -0.8672  1.1591
  596SOL     OW 2149   1.272   4.344   0.924  0.3945 -0.1193  0.0649
  596SOL    HW2 2150   1.357   4.377   0.953  0.2448  1.5348 -1.2046
  596SOL    HW3 2151   1.217   4.422   0.920 -0.0565 -0.5017 -2.8912
  596SOL    MW4 2152   1.276   4.359   0.927  0.1443  0.3488 -0.4406
  597SOL     OW 2153   3.535   0.284   3.016 -0.2204 -0.0470  0.4120
  597SOL    HW2 2154   3.605   0.234   3.057 -0.6350  0.8119  2.2878
  597SOL    HW3 2155   3.531   0.251   2.926  2.0401 -0.6705  0.4755
  597SOL    MW4 2156   3.544   0.273   3.009 -0.1000 -0.2720  0.3389
  598SOL     OW 2157   4.770   2.840   1.176 -0.2748  0.2359 -0.6032
  598SOL    HW2 2158   4.691   2.792   1.151 -0.1243  1.4395 -3.9451
  598SOL    HW3 2159   4.738   2.917   1.224 -0.8187 -0.9126  0.9438
  598SOL    MW4 2160   4.755   2.844   1.179 -0.4068 -0.2973 -0.3367
  599SOL     OW 2161   2.218   4.767   3.182 -0.4825  0.0887 -0.8268
  599SOL    HW2 2162   2.193   4.754   3.273 -0.0288  0.7471 -0.6010
  599SOL    HW3 2163   2.308   4.734   3.177  0.4297  2.3426 -0.4091
  599SOL    MW4 2164   2.227   4.761   3.193 -0.6613  0.0493 -0.0726
  600SOL     OW 2165   3.679   3.412   5.691  0.1511 -0.2420  0.5521
  600SOL    HW2 2166   3.690   3.425   5.785 -2.0627 -0.4851  0.9103
  600SOL    HW3 2167   3.604   3.468   5.668  1.3942  0.7501 -1.3404
  600SOL    MW4 2168   3.670   3.421   5.700  0.0778 -0.5794  0.5713
  601SOL     OW 2169   1.360   5.430   5.647 -0.2407 -0.0238 -0.0040
  601SOL    HW2 2170   1.426   5.394   5.587  1.7279  0.1984  1.9189
  601SOL    HW3 2171   1.308   5.355   5.673  0.1263 -0.4526 -0.4766
  601SOL    MW4 2172   1.362   5.416   5.642 -0.1896 -0.8937  0.7864
  602SOL     OW 2173   4.224   1.343   5.610 -0.2782  0.4623  0.2521
  602SOL    HW2 2174   4.150   1.288   5.635  0.5986 -0.7616  0.2484
  602SOL    HW3 2175   4.272   1.291   5.546 -0.0680  1.7423 -0.6688
  602SOL    MW4 2176   4.220   1.329   5.605 -0.0315  0.5496 -0.0986
  603SOL     OW 2177   1.069   3.418   0.902 -0.3799  0.0229 -0.4498
  603SOL    HW2 2178   1.120   3.387   0.977  1.0640  0.5568 -1.1773
  603SOL    HW3 2179   1.029   3.339   0.866  0.7093 -0.5642 -0.4240
  603SOL    MW4 2180   1.071   3.404   0.907  0.5592 -0.7744 -0.2748
  604SOL     OW 2181   1.274   2.601   6.184  0.3093 -1.1402  0.0665
  604SOL    HW2 2182   1.314   2.599   6.271 -1.1378  1.0333  0.8582
  604SOL    HW3 2183   1.325   2.665   6.135 -0.5743 -0.2346  0.2800
  604SOL    MW4 2184   1.286   2.609   6.189  0.0721 -0.3052  0.0921
  605SOL     OW 2185   5.389   3.884   6.306 -0.3711  0.2946  0.1847
  605SOL    HW2 2186   5.294   3.869   6.314 -0.3024  0.5765  1.9259
  605SOL    HW3 2187   5.404   3.890   6.212 -1.7396 -1.8721 -0.2516
  605SOL    MW4 2188   5.378   3.883   6.295  0.6511 -0.0840  0.4632
  606SOL     OW 2189   1.484   5.141   2.086  0.2824 -0.4257 -0.3904
  606SOL    HW2 2190   1.575   5.110   2.083  0.2270 -0.5425 -1.1821
  606SOL    HW3 2191   1.479   5.194   2.165  0.9071 -0.8398 -0.0699
  606SOL    MW4 2192   1.495   5.144   2.096  0.4087  0.2274  0.0019
  607SOL     OW 2193   0.761   1.050   4.471  0.1237  0.1591 -0.0246
  607SOL    HW2 2194   0.759   1.116   4.402  1.3761  0.2108 -0.0284
  607SOL    HW3 2195   0.709   1.089   4.542  1.0113  1.2501  0.0520
  607SOL    MW4 2196   0.754   1.064   4.472  0.1262  0.1946  0.5047
  608SOL     OW 2197   1.209   0.562   1.064  0.8475  0.4607 -0.3571
  608SOL    HW2 2198   1.175   0.477   1.093  0.8469  0.8313  0.8007
  608SOL    HW3 2199   1.295   0.542   1.028  0.9850  0.0058  0.2039
  608SOL    MW4 2200   1.216   0.548   1.063 -0.7346 -0.3302 -0.5951
  609SOL     OW 2201   0.032   5.533   5.600 -0.2404  0.4256  0.0631
  609SOL    HW2 2202   0.104   5.470   5.607 -0.5576  0.1283  0.7571
  609SOL    HW3 2203  -0.009   5.532   5.686 -1.3610  0.2583 -0.4545
  609SOL    MW4 2204   0.036   5.524   5.612  0.2924  0.1637 -0.2519
  610SOL     OW 2205   3.883   3.894   1.574 -0.0782  0.8487  0.4376
  610SOL    HW2 2206   3.876   3.822   1.636 -1.6429  0.1390 -0.4935
  610SOL    HW3 2207   3.792   3.913   1.550  0.3355  2.8167  0.2871
  610SOL    MW4 2208   3.870   3.887   1.579 -0.1708 -0.1983 -0.6901
  611SOL     OW 2209   1.562   0.830   5.653  0.3393 -0.3001 -0.4177
  611SOL    HW2 2210   1.494   0.776   5.614 -0.3528 -0.3844  0.8520
  611SOL    HW3 2211   1.560   0.808   5.746  0.6632  1.2359 -0.0173
  611SOL    MW4 2212   1.553   0.820   5.660 -0.2586 -0.0889  0.6492
  612SOL     OW 2213   3.049   3.591   4.902  0.4008  0.4399 -0.1961
  612SOL    HW2 2214   3.140   3.585   4.875  0.6717  0.0982  0.7709
  612SOL    HW3 2215   3.034   3.683   4.919  0.4606  0.5442 -0.6885
  612SOL    MW4 2216   3.059   3.602   4.900 -0.5415 -0.1416 -0.3510
  613SOL     OW 2217   2.272   5.574   0.346 -0.2222 -0.1581 -0.2200
  613SOL    HW2 2218   2.240   5.603   0.431 -0.1318 -1.4733  0.2789
  613SOL    HW3 2219   2.365   5.557   0.359 -0.2021 -0.3504 -0.5891
  613SOL    MW4 2220   2.280   5.575   0.359 -0.1670  0.4695 -0.1688
  614SOL     OW 2221   4.204   6.278   5.435 -0.0686  0.3913  0.6695
  614SOL    HW2 2222   4.158   6.235   5.363  0.7076  1.1376 -0.2995
  614SOL    HW3 2223   4.146   6.349   5.462  1.2849  2.6505 -1.9324
  614SOL    MW4 2224   4.190   6.281   5.429 -0.0224  0.3399  0.3402
  615SOL     OW 2225   1.871   6.146   2.786  0.1551  0.4019 -0.0134
  615SOL    HW2 2226   1.828   6.070   2.826 -0.6028  1.1289  0.5767
  615SOL    HW3 2227   1.964   6.134   2.808  0.0921 -0.4945 -0.1683
  615SOL    MW4 2228   1.878   6.134   2.795  0.1501  0.3907 -0.1946
  616SOL     OW 2229   5.756   4.990   6.417 -0.4656 -0.0917 -0.3496
  616SOL    HW2 2230   5.809   4.998   6.496 -0.7132 -0.4650 -0.1389
  616SOL    HW3 2231   5.667   4.974   6.450 -0.7255  0.6270 -0.6937
  616SOL    MW4 2232   5.751   4.989   6.432  0.3972  0.3777 -0.3585
  617SOL     OW 2233   2.424   4.876   3.978  0.1517  0.2734 -0.5968
  617SOL    HW2 2234   2.446   4.783   3.991 -0.4887  0.1464 -0.3814
  617SOL    HW3 2235   2.379   4.878   3.893 -2.3925 -0.0913  0.6390
  617SOL    MW4 2236   2.421   4.864   3.969 -0.1352  0.5450 -0.4141
  618SOL     OW 2237   3.086   1.044   4.233 -0.0552 -1.4012  0.1046
  618SOL    HW2 2238   3.130   0.980   4.177 -0.6238 -2.3014  0.6635
  618SOL    HW3 2239   3.157   1.090   4.277  0.6856  1.7958 -3.8115
  618SOL    MW4 2240   3.101   1.042   4.231 -0.1746 -0.0017  0.1012
  619SOL     OW 2241   1.570   6.199   4.719 -0.3743  0.5612 -0.1729
  619SOL    HW2 2242   1.497   6.257   4.697 -0.8615  0.4805  1.1210
  619SOL    HW3 2243   1.556   6.122   4.665 -1.8101  0.1552  0.7030
  619SOL    MW4 2244   1.558   6.197   4.709  0.0710 -0.2953 -0.3204
  620SOL     OW 2245   5.972   3.839   3.934 -0.1950  0.2627 -0.3363
  620SOL    HW2 2246   5.959   3.933   3.947 -1.3253  0.0894 -0.1511
  620SOL    HW3 2247   5.886   3.800   3.948  0.6078 -1.0097  1.4302
  620SOL    MW4 2248   5.959   3.846   3.937  0.4951 -0.5351 -0.1945
  621SOL     OW 2249   6.186   1.161   0.517 -0.1793 -0.5292  0.3641
  621SOL    HW2 2250   6.170   1.174   0.610  0.6268 -0.6403  0.5230
  621SOL    HW3 2251   6.160   1.244   0.477 -0.6164 -0.5148  0.6711
  621SOL    MW4 2252   6.180   1.174   0.524 -0.3802 -0.0393  0.7394
  622SOL     OW 2253   5.164   1.659   5.819 -0.2051  0.4641  0.0039
  622SOL    HW2 2254   5.187   1.568   5.835 -1.3184 -0.0010 -0.8686
  622SOL    HW3 2255   5.092   1.677   5.879  0.0195  0.7756  0.1823
  622SOL    MW4 2256   5.157   1.649   5.829 -0.2634  0.4077  0.2385
  623SOL     OW 2257   0.067   2.482   4.269 -0.2036  0.1033  0.7252
  623SOL    HW2 2258   0.044   2.391   4.290 -1.9300  0.6399  1.3114
  623SOL    HW3 2259   0.027   2.498   4.184 -1.3455  0.8081  1.3788
  623SOL    MW4 2260   0.059   2.472   4.261  0.0424 -0.2194 -0.4232
  624SOL     OW 2261   2.946   3.753   3.072  0.0736 -0.2942 -0.2263
  624SOL    HW2 2262   2.878   3.686   3.076  0.4843 -0.8028 -1.2794
  624SOL    HW3 2263   3.023   3.711   3.112 -0.7114  1.0003  2.9681
  624SOL    MW4 2264   2.947   3.738   3.078  0.5695  0.5354  0.0414
  625SOL     OW 2265   0.270   2.518   5.748  0.5028 -0.2221 -0.2767
  625SOL    HW2 2266   0.354   2.496   5.707  0.9679  0.5905  0.2144
  625SOL    HW3 2267   0.247   2.603   5.711 -0.4884 -0.7703 -0.9687
  625SOL    MW4 2268   0.278   2.526   5.738 -0.0097  0.1731 -0.5687
  626SOL     OW 2269   2.739   3.566   4.638  0.1304  0.5528 -0.4567
  626SOL    HW2 2270   2.674   3.605   4.580 -1.0025 -2.4633 -1.4329
  626SOL    HW3 2271   2.802   3.525   4.578  0.9680  0.4209  0.4930
  626SOL    MW4 2272   2.739   3.566   4.622  0.1076 -0.4758 -0.3960
  627SOL     OW 2273   3.634   2.952   3.122  0.2570 -0.2010 -0.0605
  627SOL    HW2 2274   3.557   2.895   3.124  0.9504 -1.1797 -0.6319
  627SOL    HW3 2275   3.663   2.951   3.031  0.7129  0.4913  0.0674
  627SOL    MW4 2276   3.628   2.944   3.110  0.4792 -0.3394 -0.2512
  628SOL     OW 2277   0.016   0.828   4.568  0.3470 -0.3924 -0.6002
  628SOL    HW2 2278   0.087   0.765   4.554  0.9227 -0.3645  1.7202
  628SOL    HW3 2279   0.054   0.895   4.624 -1.5210 -0.4708  0.8793
  628SOL    MW4 2280   0.030   0.829   4.574 -0.1159  0.2452 -0.0479
  629SOL     OW 2281   5.953   5.114   0.681 -0.2157 -0.1408 -0.3420
  629SOL    HW2 2282   6.028   5.143   0.628 -0.8131 -0.2671 -1.2845
  629SOL    HW3 2283   5.923   5.194   0.725  2.8716 -0.7091  3.2917
  629SOL    MW4 2284   5.959   5.129   0.680  0.1380 -0.9181  0.0391
  630SOL     OW 2285   0.409   2.944   6.147  0.4728  0.1174 -0.3874
  630SOL    HW2 2286   0.463   2.868   6.170 -0.0183 -0.6570 -1.6762
  630SOL    HW3 2287   0.471   3.012   6.123  0.9151  0.0767  0.5885
  630SOL    MW4 2288   0.424   2.943   6.147 -0.0502  0.6931 -0.8159
  631SOL     OW 2289   3.501   2.665   1.854  0.2675  0.2497 -0.0373
  631SOL    HW2 2290   3.536   2.754   1.858 -0.3847  0.4825  0.5344
  631SOL    HW3 2291   3.520   2.628   1.940  0.5659 -0.1861 -0.2831
  631SOL    MW4 2292   3.508   2.672   1.865 -0.6039  0.2501  0.0961
  632SOL     OW 2293   1.607   4.483   6.031 -0.2096  0.0390  0.0453
  632SOL    HW2 2294   1.584   4.434   6.110  1.9981 -0.1065  0.6818
  632SOL    HW3 2295   1.660   4.556   6.064 -0.4202  0.7765 -1.2014
  632SOL    MW4 2296   1.611   4.486   6.046 -0.7210  0.0960 -0.1476
  633SOL     OW 2297   2.194   0.736   2.485 -0.2292 -0.0705 -0.9957
  633SOL    HW2 2298   2.230   0.715   2.399  0.8152  1.4728 -0.9759
  633SOL    HW3 2299   2.256   0.699   2.547  1.6737  2.8684 -0.9602
  633SOL    MW4 2300   2.207   0.729   2.482  0.2463  0.4803 -0.0860
  634SOL     OW 2301   6.037   4.720   2.152 -0.4796  0.2043  0.2200
  634SOL    HW2 2302   6.072   4.759   2.232 -1.4142 -0.6021  1.0431
  634SOL    HW3 2303   6.106   4.732   2.087  1.0447 -0.7074  1.6039
  634SOL    MW4 2304   6.051   4.727   2.154  0.0658  0.0992  0.2640
  635SOL     OW 2305   2.265   1.768   6.283 -0.2379  0.3951  0.3905
  635SOL    HW2 2306   2.287   1.838   6.222 -0.3469  1.1564  1.1913
  635SOL    HW3 2307   2.345   1.716   6.291  0.1156  0.9456  0.4475
  635SOL    MW4 2308   2.278   1.770   6.276 -0.0406 -0.1691  0.8681
  636SOL     OW 2309   5.291   1.509   6.294  0.3050 -0.2028  0.1003
  636SOL    HW2 2310   5.263   1.600   6.305  0.2532 -0.4203  2.0377
  636SOL    HW3 2311   5.350   1.511   6.219 -1.0911  1.1006 -1.0250
  636SOL    MW4 2312   5.295   1.521   6.285  0.1976 -0.4518 -0.0362
  637SOL     OW 2313   4.155   3.541   0.832 -0.3801 -0.0123  0.2106
  637SOL    HW2 2314   4.084   3.496   0.786 -0.8283  0.0446  0.8491
  637SOL    HW3 2315   4.113   3.612   0.880  0.3916  1.4876 -1.2403
  637SOL    MW4 2316   4.140   3.544   0.832 -0.3316 -0.3102 -0.1471
  638SOL     OW 2317   2.153   2.872   5.050  0.0124  0.0393  0.2097
  638SOL    HW2 2318   2.176   2.963   5.070  0.2183 -0.3091  1.7504
  638SOL    HW3 2319   2.232   2.823   5.073 -0.1811 -0.5613 -0.3869
  638SOL    MW4 2320   2.166   2.878   5.056 -0.4242  0.2346  0.5689
  639SOL     OW 2321   0.400   4.255   2.103 -0.3945  0.1079 -0.1839
  639SOL    HW2 2322   0.433   4.219   2.185  0.1835  0.3125 -0.3228
  639SOL    HW3 2323   0.305   4.246   2.110 -0.2695 -1.9175 -0.4293
  639SOL    MW4 2324   0.392   4.249   2.115 -0.4308 -0.4832  0.0722
  640SOL     OW 2325   2.230   3.384   1.385 -0.1750  0.2839 -0.6124
  640SOL    HW2 2326   2.139   3.360   1.365  0.4797 -1.1717 -2.0322
  640SOL    HW3 2327   2.250   3.336   1.465 -0.4661  0.0733 -0.6625
  640SOL    MW4 2328   2.220   3.374   1.393 -0.3849 -0.2445 -0.3492
  641SOL     OW 2329   0.803   5.440   1.575 -0.4411 -0.5122  0.3142
  641SOL    HW2 2330   0.875   5.430   1.637 -0.9778 -1.1134  0.8674
  641SOL    HW3 2331   0.843   5.479   1.497  0.7785 -2.1567  0.0551
  641SOL    MW4 2332   0.818   5.444   1.573  0.0756 -0.3814 -0.4057
  642SOL     OW 2333   2.565   3.440   1.350 -0.4713 -0.1041 -0.1949
  642SOL    HW2 2334   2.583   3.527   1.385  1.6827  0.1367 -1.6752
  642SOL    HW3 2335   2.472   3.443   1.325 -0.7128  1.3864  0.7388
  642SOL    MW4 2336   2.555   3.452   1.351 -0.7112 -0.9677 -0.5196
  643SOL     OW 2337   6.375   3.961   0.174 -0.6696  0.1725 -0.3370
  643SOL    HW2 2338   6.292   4.002   0.195 -0.7158 -0.5236  0.8920
  643SOL    HW3 2339   6.357   3.868   0.171  0.0715  0.0069 -0.0061
  643SOL    MW4 2340   6.362   3.954   0.176  0.6362  0.0575 -0.5478
  644SOL     OW 2341   5.397   1.162   4.307  0.3200  0.0480 -0.3004
  644SOL    HW2 2342   5.417   1.194   4.394  0.0058  0.0641 -0.2336
  644SOL    HW3 2343   5.366   1.073   4.321 -0.9950  0.4959 -0.2639
  644SOL    MW4 2344   5.395   1.154   4.320  0.0768  0.2079  0.3590
  645SOL     OW 2345   6.419   6.081   4.945 -0.1268 -0.3765 -0.0228
  645SOL    HW2 2346   6.430   6.008   4.883 -1.8580 -0.6760 -0.0256
  645SOL    HW3 2347   6.452   6.046   5.028  0.4574 -0.6231 -0.3449
  645SOL    MW4 2348   6.425   6.066   4.948 -0.3108  0.4117 -0.0704
  646SOL     OW 2349   5.694   3.557   1.278 -0.2439 -0.6308 -0.3347
  646SOL    HW2 2350   5.714   3.643   1.315  2.3966 -1.1340 -0.4024
  646SOL    HW3 2351   5.701   3.497   1.352  0.6116 -1.0768 -0.7531
  646SOL    MW4 2352   5.698   3.561   1.292  0.1295 -0.2537 -0.1027
  647SOL     OW 2353   0.021   1.562   1.214  0.2238  0.1332 -0.1615
  647SOL    HW2 2354  -0.016   1.478   1.190 -1.8947  0.3009  2.1444
  647SOL    HW3 2355   0.091   1.541   1.276  0.5254  0.0473 -0.5247
  647SOL    MW4 2356   0.026   1.549   1.219 -0.0697 -0.1933 -0.0689
  648SOL     OW 2357   5.409   2.039   5.657 -0.4798 -0.0475  0.5327
  648SOL    HW2 2358   5.388   2.077   5.742  1.5486  1.5110  0.4123
  648SOL    HW3 2359   5.334   1.983   5.637 -0.6773 -1.1426  3.7064
  648SOL    MW4 2360   5.396   2.036   5.666  0.2585  0.3682 -1.0515
  649SOL     OW 2361   4.493   2.027   1.733  0.4365 -0.3176  0.2749
  649SOL    HW2 2362   4.404   1.996   1.750 -0.5906  0.6495 -2.6723
  649SOL    HW3 2363   4.534   1.954   1.686  0.0914  0.3681 -1.1468
  649SOL    MW4 2364   4.486   2.013   1.729  0.2740  0.1967 -0.0691
  650SOL     OW 2365   2.259   4.210   3.963 -0.5343 -0.5187 -0.2183
  650SOL    HW2 2366   2.204   4.268   3.911 -0.6966 -0.3912  0.0914
  650SOL    HW3 2367   2.210   4.128   3.968 -1.0294 -0.1866  0.6370
  650SOL    MW4 2368   2.246   4.207   3.957  0.9365  0.1700  0.2299
  651SOL     OW 2369   5.727   0.982   3.772 -0.7246 -0.4965 -0.2585
  651SOL    HW2 2370   5.738   1.078   3.773 -0.5325 -0.4494 -2.4442
  651SOL    HW3 2371   5.656   0.967   3.709 -2.1750 -1.7218  1.5618
  651SOL    MW4 2372   5.719   0.993   3.764  0.1513 -0.3658  0.2885
  652SOL     OW 2373   1.607   4.699   3.476 -0.3413 -0.1429  0.5489
  652SOL    HW2 2374   1.515   4.707   3.451 -0.0108  1.4423 -0.2303
  652SOL    HW3 2375   1.653   4.760   3.419  1.1264 -0.4227  1.3950
  652SOL    MW4 2376   1.601   4.708   3.465  0.4410 -0.2336 -0.3633
  653SOL     OW 2377   6.096   4.899   4.229  0.0349  0.1955 -0.7921
  653SOL    HW2 2378   6.155   4.900   4.153 -0.3557  0.1464 -1.0954
  653SOL    HW3 2379   6.079   4.807   4.244  1.8668  0.0511  0.7274
  653SOL    MW4 2380   6.102   4.887   4.221  0.5650  0.1650  0.1860
  654SOL     OW 2381   5.730   2.167   4.617  0.3037  0.1108  0.9286
  654SOL    HW2 2382   5.669   2.170   4.543  0.1159 -2.3065  0.9113
  654SOL    HW3 2383   5.719   2.079   4.654  2.4844  0.2441  2.0456
  654SOL    MW4 2384   5.720   2.156   4.612 -0.2473  0.2859 -0.3881
  655SOL     OW 2385   2.922   2.435   3.986 -0.3892  0.1534 -0.1859
  655SOL    HW2 2386   2.975   2.359   4.011  0.0101  1.3436  3.0348
  655SOL    HW3 2387   2.984   2.496   3.947  0.7843  1.4334  3.3260
  655SOL    MW4 2388   2.937   2.433   3.984 -0.8198  0.1580 -0.1737
  656SOL     OW 2389   4.053   1.211   4.965  0.1035 -0.2722  0.0218
  656SOL    HW2 2390   3.984   1.164   5.014 -0.7014  2.0821  1.3021
  656SOL    HW3 2391   4.106   1.252   5.033  1.6200 -0.4204 -1.0266
  656SOL    MW4 2392   4.051   1.210   4.981 -0.3465 -0.5602  0.1957
  657SOL     OW 2393   4.642   4.358   5.474  0.3127 -0.2160  0.3584
  657SOL    HW2 2394   4.602   4.368   5.387  0.9792 -0.3320  0.0346
  657SOL    HW3 2395   4.594   4.420   5.529 -0.1751 -0.2043 -0.0712
  657SOL    MW4 2396   4.630   4.368   5.470 -0.4607  0.1518  0.0526
  658SOL     OW 2397   5.691   2.134   5.869  0.0202  0.4106  0.1812
  658SOL    HW2 2398   5.784   2.130   5.846  0.7267  0.9320  2.6373
  658SOL    HW3 2399   5.645   2.138   5.785  2.1156 -1.2485 -1.1511
  658SOL    MW4 2400   5.697   2.134   5.855 -1.2966 -0.1736  0.4457
  659SOL     OW 2401   1.417   0.437   4.218 -1.1685 -0.2027  0.1746
  659SOL    HW2 2402   1.327   0.449   4.187 -0.8795 -1.9191 -1.5145
  659SOL    HW3 2403   1.443   0.353   4.182  0.8245 -0.1740  1.4196
  659SOL    MW4 2404   1.408   0.427   4.209  0.0134  0.0764 -0.2610
  660SOL     OW 2405   1.172   0.738   1.920 -0.3254  0.5583 -0.0998
  660SOL    HW2 2406   1.188   0.795   1.996 -1.9712  0.3124  0.4538
  660SOL    HW3 2407   1.118   0.667   1.954  0.4045 -0.5196 -1.1364
  660SOL    MW4 2408   1.167   0.736   1.935 -0.0005  0.1435  0.2523
  661SOL     OW 2409   5.163   4.722   0.717 -0.1556 -0.4834  0.2802
  661SOL    HW2 2410   5.180   4.772   0.638  1.8452  0.2724  1.1282
  661SOL    HW3 2411   5.206   4.638   0.703 -2.1886 -1.4677 -0.5064
  661SOL    MW4 2412   5.171   4.718   0.705  0.1407  0.7345  0.1212
  662SOL     OW 2413   2.392   3.756   0.862  0.2783 -0.8845  0.1270
  662SOL    HW2 2414   2.372   3.674   0.815  0.2458 -0.6115 -0.3395
  662SOL    HW3 2415   2.385   3.824   0.795 -1.8580 -0.2137  0.9264
  662SOL    MW4 2416   2.388   3.754   0.847  0.3974 -0.1307 -0.1551
  663SOL     OW 2417   0.510   6.055   5.105  0.3575 -0.9066 -0.0281
  663SOL    HW2 2418   0.558   6.063   5.023  1.1669 -0.5964  0.4667
  663SOL    HW3 2419   0.512   6.143   5.143  0.9564 -1.2852  0.8509
  663SOL    MW4 2420   0.516   6.067   5.099  0.4931 -0.0047 -0.2426
  664SOL     OW 2421   6.064   0.594   6.096  0.6218 -0.0689  0.5087
  664SOL    HW2 2422   6.080   0.589   6.190 -1.2973 -0.8644  0.8541
  664SOL    HW3 2423   5.991   0.656   6.087  0.1211 -0.7500 -0.3385
  664SOL    MW4 2424   6.056   0.602   6.107  0.1258 -0.2410 -0.5929
  665SOL     OW 2425   4.750   5.734   2.516  0.7303 -0.3059 -0.0318
  665SOL    HW2 2426   4.766   5.730   2.610 -0.5316  1.3361  0.3103
  665SOL    HW3 2427   4.792   5.656   2.480  1.4954 -0.7978  1.8486
  665SOL    MW4 2428   4.758   5.723   2.524 -0.0979 -0.3358 -0.1607
  666SOL     OW 2429   5.670   4.293   0.882  0.1731  0.5440 -0.5230
  666SOL    HW2 2430   5.757   4.265   0.912  0.0778 -0.2341 -0.9472
  666SOL    HW3 2431   5.669   4.272   0.789  0.7328  3.6003 -1.3291
  666SOL    MW4 2432   5.682   4.286   0.874 -0.1007 -0.0608  0.5876
  667SOL     OW 2433   0.097   4.341   3.490 -0.3159 -0.0773 -0.2584
  667SOL    HW2 2434   0.062   4.405   3.428  0.3632  0.7735  0.2255
  667SOL    HW3 2435   0.104   4.388   3.573  2.0032 -0.1713 -0.3400
  667SOL    MW4 2436   0.093   4.356   3.492 -0.1007 -0.5296  0.3536
  668SOL     OW 2437   0.861   1.722   4.208  0.5466 -0.3749  0.1447
  668SOL    HW2 2438   0.911   1.776   4.269 -3.2799  1.3788  2.0027
  668SOL    HW3 2439   0.839   1.781   4.136 -2.8477  0.4941  1.7277
  668SOL    MW4 2440   0.865   1.737   4.206 -0.3733  0.0018  0.2931
  669SOL     OW 2441   3.539   5.159   5.224 -0.2242  0.1001 -0.3080
  669SOL    HW2 2442   3.553   5.212   5.302 -0.7510 -1.2926  0.7779
  669SOL    HW3 2443   3.614   5.099   5.221 -0.4730 -0.2073 -0.5502
  669SOL    MW4 2444   3.551   5.158   5.234  0.1275  0.3945 -0.2912
  670SOL     OW 2445   6.057   1.194   3.459  0.8933  0.1413  0.1729
  670SOL    HW2 2446   6.007   1.138   3.399  1.8495 -2.1361  1.3785
  670SOL    HW3 2447   5.991   1.233   3.516  0.1888  0.3233 -0.7418
  670SOL    MW4 2448   6.041   1.192   3.458  0.5608 -0.4936 -0.2400
  671SOL     OW 2449   3.774   1.607   4.631 -0.4625  0.7283  0.5463
  671SOL    HW2 2450   3.870   1.605   4.630 -0.4515  1.1658 -0.9211
  671SOL    HW3 2451   3.749   1.516   4.649  0.2124  0.7228  1.5655
  671SOL    MW4 2452   3.783   1.595   4.634  0.1093 -0.0694 -0.2950
  672SOL     OW 2453   0.270   2.142   3.919  0.0175  0.0668  0.5178
  672SOL    HW2 2454   0.320   2.170   3.842 -1.2863 -0.2797 -0.4994
  672SOL    HW3 2455   0.277   2.047   3.919 -1.5588 -0.0864 -0.3394
  672SOL    MW4 2456   0.277   2.134   3.909 -0.2288  0.9491 -0.1232
  673SOL     OW 2457   1.467   1.400   5.402  0.3750 -0.5601 -0.6147
  673SOL    HW2 2458   1.463   1.307   5.382 -0.2920 -0.4738 -0.9147
  673SOL    HW3 2459   1.426   1.443   5.327 -1.4925 -0.1812  0.5247
  673SOL    MW4 2460   1.461   1.394   5.390  0.0532  0.3262  0.0260
  674SOL     OW 2461   4.324   3.068   1.132  0.0321  0.1556 -0.4449
  674SOL    HW2 2462   4.319   2.973   1.120 -1.5659 -0.0714  1.4329
  674SOL    HW3 2463   4.238   3.100   1.104  0.1548  0.8793 -0.0058
  674SOL    MW4 2464   4.312   3.059   1.127 -0.0496 -0.0832  0.0078
  675SOL     OW 2465   0.977   3.947   4.413 -0.1624  0.1794  0.5665
  675SOL    HW2 2466   0.918   4.016   4.445  0.3528  0.8997 -0.0037
  675SOL    HW3 2467   0.928   3.903   4.344  1.0187  2.8277 -2.1725
  675SOL    MW4 2468   0.963   3.950   4.408 -0.2607  0.2659 -0.2629
  676SOL     OW 2469   3.929   3.468   2.184  0.2969 -0.5135 -0.4742
  676SOL    HW2 2470   3.885   3.435   2.262  0.8153 -0.9980 -0.3699
  676SOL    HW3 2471   3.864   3.460   2.114 -0.5006  0.8465  0.0792
  676SOL    MW4 2472   3.915   3.462   2.185 -0.1869 -0.3784 -0.0776
  677SOL     OW 2473   3.295  -0.026   4.247 -0.9898  0.3885 -0.2208
  677SOL    HW2 2474   3.330  -0.051   4.161  1.7085 -0.6399  1.0454
  677SOL    HW3 2475   3.253  -0.106   4.280  1.3327 -0.4597  0.8893
  677SOL    MW4 2476   3.294  -0.040   4.240 -0.0522  0.0000 -0.0514
  678SOL     OW 2477   1.729   1.211   0.080  0.8353 -0.7782 -0.1502
  678SOL    HW2 2478   1.736   1.143   0.147  2.2554  0.1975  0.7301
  678SOL    HW3 2479   1.781   1.179   0.007 -1.5294 -2.3226 -1.3080
  678SOL    MW4 2480   1.737   1.198   0.080  0.4077  0.0716 -0.3420
  679SOL     OW 2481   1.376   2.816   0.645  0.9763 -0.4315  0.8920
  679SOL    HW2 2482   1.470   2.814   0.629  0.9045  1.3617 -0.0281
  679SOL    HW3 2483   1.365   2.874   0.721  0.5120  1.3001 -0.4340
  679SOL    MW4 2484   1.387   2.824   0.653 -0.2465 -0.6273  0.3496
  680SOL     OW 2485   4.754   3.287   2.443 -0.0895 -0.2236 -0.8081
  680SOL    HW2 2486   4.800   3.312   2.523 -0.3807 -0.8394 -0.4405
  680SOL    HW3 2487   4.688   3.356   2.431 -2.6055 -1.9649  1.5995
  680SOL    MW4 2488   4.751   3.300   2.452 -0.1022 -0.0558  0.1894
  681SOL     OW 2489   5.751   3.422   1.516 -0.1255  0.0041 -0.2537
  681SOL    HW2 2490   5.833   3.374   1.498  0.4466  1.2415 -1.0892
  681SOL    HW3 2491   5.693   3.356   1.553  0.9830 -1.0976 -0.3925
  681SOL    MW4 2492   5.754   3.407   1.518  0.0445  0.3510 -1.0593
  682SOL     OW 2493   1.478   0.235   1.112  0.2228  0.4687  0.1964
  682SOL    HW2 2494   1.533   0.236   1.190 -0.4709 -1.7738  0.8036
  682SOL    HW3 2495   1.464   0.142   1.094 -4.0144  0.8371  0.6007
  682SOL    MW4 2496   1.483   0.223   1.120 -0.0115 -0.1378  1.0492
  683SOL     OW 2497   2.159   3.167   1.912 -0.3732 -0.2611  0.4563
  683SOL    HW2 2498   2.101   3.237   1.943  0.7387  0.1454  1.6958
  683SOL    HW3 2499   2.243   3.211   1.897  0.1840 -1.2274  0.6876
  683SOL    MW4 2500   2.162   3.182   1.914  0.6538 -0.3438  0.4571
  684SOL     OW 2501   5.196   5.720   0.643  0.0916  0.7352  0.0480
  684SOL    HW2 2502   5.152   5.783   0.585 -0.1257 -0.5261 -1.2186
  684SOL    HW3 2503   5.240   5.660   0.583  0.6353 -0.0822  1.2373
  684SOL    MW4 2504   5.196   5.721   0.627  0.4815 -0.3940  0.0485
  685SOL     OW 2505   4.215   1.757   0.520 -0.4583  0.1028  0.4140
  685SOL    HW2 2506   4.310   1.750   0.529 -0.0556  1.1852 -2.1997
  685SOL    HW3 2507   4.182   1.749   0.610  1.9915 -1.2082  1.3023
  685SOL    MW4 2508   4.223   1.755   0.533 -0.4079 -0.4321  0.5899
  686SOL     OW 2509   0.760   1.769   6.116  0.5400  0.7640  0.2875
  686SOL    HW2 2510   0.691   1.806   6.062 -0.4475  0.5276  1.3441
  686SOL    HW3 2511   0.820   1.842   6.132  0.4359  1.0212 -0.4884
  686SOL    MW4 2512   0.759   1.783   6.111  0.0642 -0.2512  0.4274
  687SOL     OW 2513   5.055   2.125   1.254 -0.1861  0.7111  0.0088
  687SOL    HW2 2514   4.981   2.186   1.257 -1.3314 -0.6331  3.4463
  687SOL    HW3 2515   5.123   2.168   1.306  0.0674  0.3340 -0.0110
  687SOL    MW4 2516   5.054   2.139   1.261 -0.0539  0.5618  0.6632
  688SOL     OW 2517   0.062   3.474   1.171  0.8692 -0.2491  0.2049
  688SOL    HW2 2518   0.118   3.524   1.231  0.8754 -1.2671  1.0668
  688SOL    HW3 2519  -0.011   3.444   1.225 -0.1650  0.4597 -0.7487
  688SOL    MW4 2520   0.060   3.477   1.186 -0.1280 -0.6867  0.2148
  689SOL     OW 2521   1.349   3.902   6.078  0.3718  0.3942 -0.4584
  689SOL    HW2 2522   1.324   3.810   6.074  0.2319  0.3331  1.0611
  689SOL    HW3 2523   1.432   3.908   6.031  0.9146 -0.7145  0.3356
  689SOL    MW4 2524   1.357   3.891   6.072  0.0745  0.1251 -0.1936
  690SOL     OW 2525   3.614   4.478   4.588 -0.3525  0.0847 -0.1836
  690SOL    HW2 2526   3.596   4.426   4.510  1.9147  0.0887 -0.7936
  690SOL    HW3 2527   3.709   4.495   4.584 -0.6540  2.5515  1.0532
  690SOL    MW4 2528   3.624   4.473   4.577  0.0168  0.3954 -0.1192
  691SOL     OW 2529   0.366   4.054   6.015  0.3402 -0.0601  0.4368
  691SOL    HW2 2530   0.459   4.065   6.033  0.4450  2.0072 -0.9881
  691SOL    HW3 2531   0.323   4.122   6.066 -0.3081 -0.4303  0.4036
  691SOL    MW4 2532   0.373   4.064   6.024 -0.0995 -0.1434  0.2367
  692SOL     OW 2533   2.957   5.755   3.122  0.2752 -0.1809  0.1296
  692SOL    HW2 2534   2.929   5.825   3.063  0.0841 -0.4267 -0.0761
  692SOL    HW3 2535   2.989   5.687   3.063 -0.4648 -0.6721  0.2779
  692SOL    MW4 2536   2.958   5.755   3.106 -0.5464 -0.5384  0.0626
  693SOL     OW 2537   3.942   4.892   6.303  0.9994 -0.1917  0.1455
  693SOL    HW2 2538   3.859   4.865   6.264  1.5852 -2.2233  0.1685
  693SOL    HW3 2539   3.920   4.971   6.354 -0.3542  0.8153 -1.8695
  693SOL    MW4 2540   3.928   4.899   6.305 -0.1943  0.2715 -0.5068
  694SOL     OW 2541   4.197   4.445   5.719  0.1093  0.1665 -0.0624
  694SOL    HW2 2542   4.188   4.408   5.807  1.4853  1.6439  0.7537
  694SOL    HW3 2543   4.130   4.401   5.667 -1.2586 -0.1815  1.9064
  694SOL    MW4 2544   4.187   4.434   5.724 -0.9452 -0.3683  0.3412
  695SOL     OW 2545   6.409   2.346   1.035 -0.0985 -0.1288  0.7145
  695SOL    HW2 2546   6.351   2.301   0.973 -0.4745  1.3107 -0.0294
  695SOL    HW3 2547   6.421   2.284   1.107  1.0779 -2.2469 -1.1712
  695SOL    MW4 2548   6.403   2.332   1.036  0.6220  0.2095  0.8123
  696SOL     OW 2549   3.313   5.044   1.934 -0.1700 -0.9937  0.8917
  696SOL    HW2 2550   3.405   5.028   1.953 -0.2959 -1.0092  1.4945
  696SOL    HW3 2551   3.277   5.079   2.015 -0.7492 -1.2082  0.7331
  696SOL    MW4 2552   3.321   5.047   1.947 -0.4141 -0.0939  0.6486
  697SOL     OW 2553   1.576   0.256   4.824 -0.3851 -0.5544 -0.5829
  697SOL    HW2 2554   1.575   0.246   4.728  0.5227  0.5968 -0.7249
  697SOL    HW3 2555   1.624   0.337   4.839 -0.9418 -0.4737  0.8409
  697SOL    MW4 2556   1.582   0.265   4.813  0.0943 -0.3170  0.5577
  698SOL     OW 2557   0.841   2.407   5.654 -0.2816  0.2537  0.0623
  698SOL    HW2 2558   0.929   2.373   5.670 -0.5855 -0.3795  0.4007
  698SOL    HW3 2559   0.799   2.407   5.740 -1.2169 -1.1614 -0.3701
  698SOL    MW4 2560   0.847   2.403   5.667 -0.8717 -0.4675  0.1999
  699SOL     OW 2561   4.962   5.970   4.062 -0.1995  0.3742 -0.1572
  699SOL    HW2 2562   4.894   5.904   4.050  0.8725 -0.5220 -1.6309
  699SOL    HW3 2563   5.019   5.933   4.130 -1.1160  1.1170  1.0649
  699SOL    MW4 2564   4.960   5.956   4.070 -0.1362  0.6135  0.2139
  700SOL     OW 2565   5.072   5.488   1.391  0.0113 -0.3881 -0.5038
  700SOL    HW2 2566   5.102   5.426   1.457  1.3973 -1.6922 -2.2645
  700SOL    HW3 2567   4.978   5.471   1.384 -0.4062  0.5811  1.8674
  700SOL    MW4 2568   5.063   5.478   1.399  0.4473 -0.1858 -0.1957
  701SOL     OW 2569   4.980   3.713   1.743  0.9961  0.3059  0.2845
  701SOL    HW2 2570   4.981   3.643   1.677  1.0707 -0.4547  1.0635
  701SOL    HW3 2571   4.943   3.788   1.698  0.9727 -0.2166 -0.6021
  701SOL    MW4 2572   4.975   3.714   1.729  0.1219  0.7684 -0.3391
  702SOL     OW 2573   4.890   5.725   2.805 -0.2254 -0.2009 -0.5274
  702SOL    HW2 2574   4.950   5.769   2.746 -0.5407 -0.3970 -1.0024
  702SOL    HW3 2575   4.934   5.643   2.829 -0.6780 -0.7725 -1.5948
  702SOL    MW4 2576   4.903   5.720   2.801 -0.2770 -0.0137  0.0560
  703SOL     OW 2577   2.211   5.714   2.586 -0.4193  0.8107 -0.2877
  703SOL    HW2 2578   2.253   5.685   2.667  1.1817  1.2661 -0.9190
  703SOL    HW3 2579   2.228   5.808   2.582 -0.2032  0.7332 -1.3044
  703SOL    MW4 2580   2.219   5.722   2.596  0.0689  0.0458 -0.5123
  704SOL     OW 2581   5.740   0.805   1.066 -0.0039  0.8219 -0.7229
  704SOL    HW2 2582   5.790   0.841   1.139  0.5712 -2.7725  0.8294
  704SOL    HW3 2583   5.807   0.773   1.005 -0.4074 -0.5661 -0.4603
  704SOL    MW4 2584   5.756   0.806   1.067 -0.3618 -0.0210  0.4723
  705SOL     OW 2585   5.520   1.776   2.448  0.1329 -0.1045 -0.8758
  705SOL    HW2 2586   5.463   1.828   2.504 -0.2175 -0.3435 -1.0113
  705SOL    HW3 2587   5.592   1.749   2.505  0.4701  0.7594 -0.8694
  705SOL    MW4 2588   5.522   1.780   2.463  0.8210  1.1978  0.5477
  706SOL     OW 2589   0.829   5.249   6.403 -0.2465  0.4127 -0.4493
  706SOL    HW2 2590   0.894   5.273   6.469 -0.6490 -0.1121  0.1585
  706SOL    HW3 2591   0.860   5.165   6.368 -0.6697  0.0721 -0.0316
  706SOL    MW4 2592   0.842   5.241   6.407 -0.1057  0.3656 -0.3740
  707SOL     OW 2593   0.927   1.149   5.920 -0.1949  0.1512  0.7749
  707SOL    HW2 2594   0.956   1.058   5.915 -0.0096  0.1970  1.0033
  707SOL    HW3 2595   0.834   1.146   5.897  0.3544  0.2178 -1.7802
  707SOL    MW4 2596   0.919   1.137   5.916 -0.3852 -0.7605 -0.1751
  708SOL     OW 2597   5.971   1.434   5.448  0.2512 -0.1403 -0.7455
  708SOL    HW2 2598   5.875   1.428   5.447  0.1186  1.1334  0.8792
  708SOL    HW3 2599   6.000   1.344   5.463 -0.6137 -0.7146 -2.2540
  708SOL    MW4 2600   5.962   1.421   5.450  0.2009 -0.7057 -0.3520
  709SOL     OW 2601   5.558   2.540   4.060 -0.2404 -0.1702 -0.1670
  709SOL    HW2 2602   5.579   2.454   4.023 -0.6020 -0.3139 -0.0425
  709SOL    HW3 2603   5.625   2.554   4.126 -0.0943 -0.2921 -0.2874
  709SOL    MW4 2604   5.570   2.530   4.064  0.5259 -0.3100  0.3446
  710SOL     OW 2605   0.591   4.613   0.960  0.2373  0.9176  0.3865
  710SOL    HW2 2606   0.509   4.619   0.912  0.1669  0.5554  0.4604
  710SOL    HW3 2607   0.639   4.542   0.917  0.1023  0.4765  0.9574
  710SOL    MW4 2608   0.587   4.605   0.948 -0.0258 -0.2081 -0.1860
  711SOL     OW 2609   1.770   1.692   0.765 -0.3932  0.2238  0.5115
  711SOL    HW2 2610   1.849   1.642   0.785 -2.3372 -2.9917  0.7120
  711SOL    HW3 2611   1.712   1.677   0.839 -2.0961  0.5382 -0.7086
  711SOL    MW4 2612   1.773   1.684   0.777 -0.0209 -0.0789  0.5581
  712SOL     OW 2613   5.761   3.986   1.203 -0.0757 -0.2800  0.2096
  712SOL    HW2 2614   5.753   3.949   1.291  2.4588  1.0061  1.0927
  712SOL    HW3 2615   5.801   4.072   1.218 -1.4944  0.8463 -2.0765
  712SOL    MW4 2616   5.765   3.993   1.217  0.6345 -0.2969 -0.0084
  713SOL     OW 2617   0.433   3.435   2.271 -0.3112 -0.7620 -0.1206
  713SOL    HW2 2618   0.343   3.402   2.269 -0.8271  0.6200 -1.7349
  713SOL    HW3 2619   0.484   3.363   2.310 -2.0967 -1.5442  0.8755
  713SOL    MW4 2620   0.428   3.421   2.276 -0.1339 -1.3146 -0.1405
  714SOL     OW 2621   3.008   4.968   2.777 -0.6393 -0.4977 -0.2512
  714SOL    HW2 2622   3.034   5.002   2.691 -2.8773 -0.7747 -1.0898
  714SOL    HW3 2623   3.090   4.966   2.827  0.6502  0.1161 -2.2072
  714SOL    MW4 2624   3.023   4.972   2.772  0.5647  0.4091 -0.6393
  715SOL     OW 2625   3.090   5.403   2.187 -0.1022 -0.0106  0.4284
  715SOL    HW2 2626   3.006   5.435   2.219 -0.8980 -0.5521 -1.0441
  715SOL    HW3 2627   3.137   5.482   2.159  0.4022  0.4193  2.3435
  715SOL    MW4 2628   3.085   5.418   2.187 -0.2959  0.1883  0.6311
  716SOL     OW 2629   1.227   0.353   0.530  0.1220  0.2950  0.6290
  716SOL    HW2 2630   1.257   0.296   0.459 -1.2276  0.4239 -0.0934
  716SOL    HW3 2631   1.305   0.372   0.582  0.8641 -1.0080  0.0275
  716SOL    MW4 2632   1.241   0.348   0.528 -0.5471 -0.1349 -0.1960
  717SOL     OW 2633   3.010   6.071   5.424  0.8764 -0.0839 -0.3747
  717SOL    HW2 2634   2.937   6.106   5.475  1.0490 -0.4454  0.1370
  717SOL    HW3 2635   3.056   6.147   5.391  0.5061  0.1506 -0.3524
  717SOL    MW4 2636   3.006   6.085   5.427 -0.2591 -0.0462  0.4533
  718SOL     OW 2637   3.243   4.379   3.069  0.7158  0.2329  0.5593
  718SOL    HW2 2638   3.315   4.356   3.127 -0.4656 -0.5886  1.7678
  718SOL    HW3 2639   3.218   4.296   3.028 -0.7071  0.1375  1.5603
  718SOL    MW4 2640   3.249   4.365   3.071 -0.0344  0.6586 -0.7625
  719SOL     OW 2641   1.434   0.459   1.416  1.0367  0.0297  0.5120
  719SOL    HW2 2642   1.507   0.407   1.384  0.1613  0.3154 -2.2177
  719SOL    HW3 2643   1.436   0.538   1.362 -0.9075  0.3261  0.8132
  719SOL    MW4 2644   1.444   0.463   1.405  0.0444  0.5620 -0.6108
  720SOL     OW 2645   6.116   2.492   2.078 -0.0011 -0.3479  0.1355
  720SOL    HW2 2646   6.205   2.459   2.071  0.4330  0.8244 -0.0494
  720SOL    HW3 2647   6.063   2.415   2.099  1.1625 -0.9134  1.0539
  720SOL    MW4 2648   6.121   2.477   2.079 -0.4526  0.1973  0.4066
  721SOL     OW 2649   0.317   5.212   4.039  0.0595 -0.4473  0.0303
  721SOL    HW2 2650   0.390   5.233   4.096 -1.4713  0.7454  1.6822
  721SOL    HW3 2651   0.280   5.132   4.076  1.0159 -1.5611 -1.3385
  721SOL    MW4 2652   0.321   5.204   4.052  0.4463  0.0472 -0.1808
  722SOL     OW 2653   0.461   4.851   1.121  0.6911  0.0034 -0.2697
  722SOL    HW2 2654   0.374   4.812   1.133  0.1395  1.2031 -0.2227
  722SOL    HW3 2655   0.467   4.865   1.026  0.2543  1.1827 -0.1333
  722SOL    MW4 2656   0.450   4.847   1.110 -0.3314 -0.1342  0.2826
  723SOL     OW 2657   1.354   0.730   4.337 -0.3066  0.2131  0.1376
  723SOL    HW2 2658   1.332   0.736   4.244 -0.7577 -2.7978 -0.0577
  723SOL    HW3 2659   1.437   0.777   4.345 -1.2826  2.3288 -1.3001
  723SOL    MW4 2660   1.362   0.737   4.326  0.4127 -1.3170 -0.1584
  724SOL     OW 2661   3.971   2.527   3.450  0.2098  0.2527  0.0238
  724SOL    HW2 2662   3.986   2.595   3.515 -0.6196  0.5947 -0.1228
  724SOL    HW3 2663   3.877   2.533   3.431  0.4214  0.0995 -1.1316
  724SOL    MW4 2664   3.961   2.537   3.456  0.7452 -0.7064  0.0529
  725SOL     OW 2665   4.808   1.643   0.455 -0.0627 -0.8328 -0.7536
  725SOL    HW2 2666   4.850   1.590   0.387 -0.9203 -1.2015 -1.0035
  725SOL    HW3 2667   4.874   1.709   0.478  1.7202 -2.9807  0.7521
  725SOL    MW4 2668   4.823   1.645   0.449 -0.0636  0.1774  0.1266
  726SOL     OW 2669   3.316   2.566   5.062  0.2820 -0.7697  0.1995
  726SOL    HW2 2670   3.335   2.495   5.002 -0.3816  0.0857 -1.0685
  726SOL    HW3 2671   3.242   2.612   5.023  1.0993  1.0011  0.6220
  726SOL    MW4 2672   3.309   2.563   5.049  0.0630  0.8509 -0.3258
  727SOL     OW 2673   5.124   3.821   1.977 -0.3221  0.2364  0.0464
  727SOL    HW2 2674   5.063   3.774   1.920 -0.2859  0.6895 -0.3793
  727SOL    HW3 2675   5.091   3.806   2.065  0.3009 -1.4701  0.0313
  727SOL    MW4 2676   5.112   3.813   1.981 -0.2248  0.0911 -0.2258
  728SOL     OW 2677   3.808   3.584   2.851  0.3922  0.2644  0.3512
  728SOL    HW2 2678   3.825   3.517   2.917 -1.1770 -1.5237 -0.9660
  728SOL    HW3 2679   3.861   3.559   2.776 -0.2713  0.4062 -0.1837
  728SOL    MW4 2680   3.817   3.572   2.850 -0.0421 -0.2104 -0.3473
  729SOL     OW 2681   5.600   5.034   4.159 -0.6577  0.1852  0.4006
  729SOL    HW2 2682   5.620   5.105   4.098 -0.2382 -1.2053 -1.1500
  729SOL    HW3 2683   5.505   5.038   4.169 -1.0629 -0.8848 -2.1497
  729SOL    MW4 2684   5.590   5.044   4.152 -0.2436  0.1941  0.1338
  730SOL     OW 2685   2.280   4.801   2.699 -0.3983 -0.3610  0.3966
  730SOL    HW2 2686   2.296   4.722   2.647  0.2442  1.2146 -1.9997
  730SOL    HW3 2687   2.221   4.854   2.645  0.6377  1.5644  1.0324
  730SOL    MW4 2688   2.274   4.798   2.685 -0.4173 -0.1103  0.2864
  731SOL     OW 2689   4.529   0.667   1.448  0.2712  0.0659  0.2590
  731SOL    HW2 2690   4.453   0.720   1.424  0.3625  0.0264 -0.1222
  731SOL    HW3 2691   4.604   0.714   1.411  0.3369 -0.3999 -0.2060
  731SOL    MW4 2692   4.529   0.680   1.440 -0.1160 -0.0720 -0.0960
  732SOL     OW 2693   4.244   2.151   4.725  0.2162 -0.2332  0.4438
  732SOL    HW2 2694   4.234   2.226   4.667  0.0426 -1.2772 -0.9261
  732SOL    HW3 2695   4.208   2.180   4.809 -2.2819  0.3848 -0.7535
  732SOL    MW4 2696   4.238   2.165   4.728  0.0716  0.1657 -0.1024
  733SOL     OW 2697   2.736   2.889   2.055 -0.2645 -0.0679  0.1003
  733SOL    HW2 2698   2.765   2.940   1.980 -0.7820  0.0646 -0.0137
  733SOL    HW3 2699   2.697   2.953   2.114  2.4022  0.2374  1.6722
  733SOL    MW4 2700   2.735   2.904   2.053  0.0692  0.5954  0.2034
  734SOL     OW 2701   1.159   5.226   5.737 -0.2847 -0.3668 -0.1784
  734SOL    HW2 2702   1.111   5.144   5.727  0.1358 -0.5001 -1.2740
  734SOL    HW3 2703   1.194   5.224   5.826 -2.7297 -0.0239  0.8752
  734SOL    MW4 2704   1.157   5.215   5.747  0.0111  0.2038 -0.6376
  735SOL     OW 2705   2.529   0.413   2.449 -0.1310 -0.4657 -0.2772
  735SOL    HW2 2706   2.506   0.323   2.475 -1.1012  0.4115  2.1961
  735SOL    HW3 2707   2.455   0.442   2.396  0.6483 -1.4099 -1.9559
  735SOL    MW4 2708   2.516   0.405   2.445  0.2906 -0.1266 -0.2923
  736SOL     OW 2709   5.609   4.151   2.601  0.3143 -0.3032 -0.7517
  736SOL    HW2 2710   5.567   4.072   2.566 -1.6203  0.8175 -1.1193
  736SOL    HW3 2711   5.545   4.220   2.586  1.5160  1.1538  0.5387
  736SOL    MW4 2712   5.595   4.150   2.594 -0.5478 -0.2775  0.1010
  737SOL     OW 2713   3.694  -0.020   1.597 -0.0702  0.3890 -0.0066
  737SOL    HW2 2714   3.737  -0.003   1.680  1.7063 -2.1253 -0.3010
  737SOL    HW3 2715   3.604  -0.042   1.621  0.3096  0.1057  1.2316
  737SOL    MW4 2716   3.687  -0.021   1.611  0.0029  1.0536  0.1773
  738SOL     OW 2717   4.815   5.501   4.958  0.3437 -1.0676 -0.0051
  738SOL    HW2 2718   4.726   5.516   4.989  0.1098 -0.7482 -0.7964
  738SOL    HW3 2719   4.810   5.513   4.863  1.1823 -1.2851 -0.0914
  738SOL    MW4 2720   4.803   5.504   4.950  0.4020  0.2430 -0.6304
  739SOL     OW 2721   4.577   5.100   2.231  0.3924 -0.2877 -0.0693
  739SOL    HW2 2722   4.516   5.164   2.194  0.9205  0.5663  0.4933
  739SOL    HW3 2723   4.655   5.105   2.175  0.2148 -0.8706 -0.3728
  739SOL    MW4 2724   4.579   5.109   2.219  0.2292  0.1769 -0.5093
  740SOL     OW 2725   1.948   2.723   6.002 -0.1793 -0.0501 -0.4480
  740SOL    HW2 2726   1.865   2.749   5.961  0.0495  0.9113 -0.3299
  740SOL    HW3 2727   1.922   2.669   6.077 -0.6388 -0.8874 -1.1939
  740SOL    MW4 2728   1.933   2.720   6.007 -0.3008 -0.1413  0.2123
  741SOL     OW 2729   6.235   1.065   3.608 -0.1883  0.0950  0.0900
  741SOL    HW2 2730   6.174   1.108   3.548 -0.7068  0.8941  1.1492
  741SOL    HW3 2731   6.184   1.049   3.687  0.4105 -1.1652  0.2444
  741SOL    MW4 2732   6.221   1.069   3.610  0.7181 -0.2582  0.2729
  742SOL     OW 2733   6.152   4.825   3.225 -0.1864  0.3734  0.2594
  742SOL    HW2 2734   6.216   4.777   3.172 -1.0924 -0.2929 -0.2744
  742SOL    HW3 2735   6.067   4.803   3.185 -0.6295  2.6351 -0.1756
  742SOL    MW4 2736   6.149   4.816   3.212 -0.1426  0.2580 -0.0911
  743SOL     OW 2737   6.286   3.885   3.301 -0.0845  0.6790  0.2455
  743SOL    HW2 2738   6.324   3.798   3.287 -0.0790  0.2755  2.4245
  743SOL    HW3 2739   6.241   3.906   3.219  0.5883 -1.0207 -0.5951
  743SOL    MW4 2740   6.285   3.876   3.289 -0.4801  0.4408 -0.8422
  744SOL     OW 2741   3.473   5.428   0.331 -0.6144 -0.4196  0.2610
  744SOL    HW2 2742   3.493   5.391   0.418  0.8498  1.2081  0.6767
  744SOL    HW3 2743   3.530   5.380   0.271 -1.7277 -1.6453  0.1240
  744SOL    MW4 2744   3.483   5.417   0.335 -0.9053  0.0472  0.6054
  745SOL     OW 2745   5.990   0.059   1.267  0.4478 -0.0797 -0.5955
  745SOL    HW2 2746   5.998   0.116   1.343  0.4579  1.3844 -1.6452
  745SOL    HW3 2747   5.907   0.085   1.226  0.4712 -0.8017 -1.1197
  745SOL    MW4 2748   5.980   0.070   1.272 -0.0836  0.6272  0.3910
  746SOL     OW 2749   1.949   4.302   3.077  0.2948  0.0465 -0.1140
  746SOL    HW2 2750   1.934   4.382   3.028  0.5220  0.5889  0.6801
  746SOL    HW3 2751   1.937   4.327   3.169  1.0779 -0.6520  0.1978
  746SOL    MW4 2752   1.946   4.316   3.083  0.4336  0.2479  0.0932
  747SOL     OW 2753   6.046   1.378   3.898 -0.2586 -0.0617  0.5482
  747SOL    HW2 2754   6.125   1.376   3.845 -0.6149 -0.0766  0.0063
  747SOL    HW3 2755   6.071   1.336   3.980  0.8987  1.8767  1.2394
  747SOL    MW4 2756   6.059   1.372   3.902  0.0533 -0.3237 -0.0502
  748SOL     OW 2757   6.070   2.525   5.979  0.8323 -0.3490  0.0235
  748SOL    HW2 2758   6.025   2.598   6.021 -0.2864 -1.3497  0.6113
  748SOL    HW3 2759   6.051   2.534   5.886 -0.1172 -0.4349  0.2062
  748SOL    MW4 2760   6.062   2.535   5.972  0.8501  0.1996  0.6233
  749SOL     OW 2761   1.105   5.651   0.622  0.2189 -0.1012  0.2554
  749SOL    HW2 2762   1.078   5.570   0.578 -1.2572  1.3569 -1.6596
  749SOL    HW3 2763   1.201   5.646   0.623  0.2149 -1.0910 -1.3571
  749SOL    MW4 2764   1.114   5.639   0.617  0.4136 -0.4930  0.0419
  750SOL     OW 2765   1.424   1.996   3.989  0.5408 -0.5097 -0.7346
  750SOL    HW2 2766   1.469   1.969   4.069 -1.4922 -0.3153  0.5429
  750SOL    HW3 2767   1.385   1.915   3.955  0.6210 -0.4285 -1.0229
  750SOL    MW4 2768   1.424   1.981   3.995  0.3800  0.4042 -0.5430
  751SOL     OW 2769   0.643   2.161   6.308  0.6436  0.6130 -0.0894
  751SOL    HW2 2770   0.612   2.252   6.311  0.7249  0.6884 -1.2592
  751SOL    HW3 2771   0.576   2.114   6.258  1.4817  0.4057 -1.0521
  751SOL    MW4 2772   0.630   2.167   6.302 -0.3169 -0.4633  0.1489
  752SOL     OW 2773   4.293   5.259   4.564 -0.4923  0.7965  0.0489
  752SOL    HW2 2774   4.312   5.271   4.471 -1.6784  2.3689 -0.0290
  752SOL    HW3 2775   4.352   5.188   4.592 -3.0207 -2.7760 -2.8115
  752SOL    MW4 2776   4.303   5.251   4.556  0.5112 -0.6392 -1.3749
  753SOL     OW 2777   3.425   5.612   0.879 -0.0426  0.2949 -0.3472
  753SOL    HW2 2778   3.485   5.541   0.903 -1.8022 -1.7167 -1.4862
  753SOL    HW3 2779   3.411   5.660   0.960  2.0856  0.0622  0.2124
  753SOL    MW4 2780   3.431   5.609   0.893  0.0233 -0.1625  0.1338
  754SOL     OW 2781   2.202   0.837   5.905 -0.2666  0.8009  0.0558
  754SOL    HW2 2782   2.131   0.861   5.846  0.7466  0.0800 -1.5300
  754SOL    HW3 2783   2.270   0.902   5.889 -0.7578  1.9216  2.0811
  754SOL    MW4 2784   2.202   0.849   5.895  0.1730 -0.1808  0.1579
  755SOL     OW 2785   0.420   5.608   2.712  0.3639  0.2480  0.4463
  755SOL    HW2 2786   0.390   5.527   2.754  1.9709 -0.1334  0.8982
  755SOL    HW3 2787   0.345   5.636   2.660 -0.1252 -1.7214 -0.0070
  755SOL    MW4 2788   0.406   5.601   2.710  0.0572 -0.3885 -0.1784
  756SOL     OW 2789   0.190   5.112   5.523  0.5624 -0.0477  0.1423
  756SOL    HW2 2790   0.229   5.049   5.583  0.6274  0.4005  0.5741
  756SOL    HW3 2791   0.221   5.197   5.554 -1.5835  0.4340  1.1657
  756SOL    MW4 2792   0.199   5.115   5.535  0.0148 -0.4728  0.1089
  757SOL     OW 2793   0.401   2.590   0.763  0.9895  0.5386 -0.5458
  757SOL    HW2 2794   0.393   2.515   0.822  2.5061  0.7859  0.0045
  757SOL    HW3 2795   0.436   2.553   0.682  1.8890  0.6627 -0.2209
  757SOL    MW4 2796   0.404   2.575   0.760 -0.1311  0.1789  0.0596
  758SOL     OW 2797   2.238   3.147   5.117  0.1199  0.1990  0.5551
  758SOL    HW2 2798   2.276   3.172   5.201  1.6169 -0.5702  0.1467
  758SOL    HW3 2799   2.265   3.216   5.057 -0.3021  0.3497  0.5333
  758SOL    MW4 2800   2.247   3.159   5.120  0.2908 -0.0598 -0.5492
  759SOL     OW 2801   2.880   4.952   3.028 -0.2365 -0.5888  0.1443
  759SOL    HW2 2802   2.874   4.858   3.040 -0.0252 -0.6317 -0.0734
  759SOL    HW3 2803   2.930   4.963   2.947  1.8903 -0.2784  1.4054
  759SOL    MW4 2804   2.886   4.941   3.019 -0.1899 -0.4930 -0.0881
  760SOL     OW 2805   3.777   2.773   4.506 -0.1542 -0.4214 -0.2525
  760SOL    HW2 2806   3.862   2.745   4.542 -0.5063 -1.2779 -0.0737
  760SOL    HW3 2807   3.713   2.750   4.573 -0.4174  1.4356  0.2097
  760SOL    MW4 2808   3.780   2.767   4.520 -0.3424 -0.7491  0.2197
  761SOL     OW 2809   4.631   1.029   4.757 -0.5715 -0.3900 -0.2740
  761SOL    HW2 2810   4.687   0.982   4.695  0.2517  0.4471 -0.1934
  761SOL    HW3 2811   4.680   1.109   4.777 -0.5168 -0.9162  1.9405
  761SOL    MW4 2812   4.645   1.033   4.752  0.2931 -0.0919  0.2393
  762SOL     OW 2813   4.601   2.831   5.634  0.0532 -0.1196 -0.3243
  762SOL    HW2 2814   4.601   2.926   5.624  1.9904  0.1067  1.2244
  762SOL    HW3 2815   4.647   2.799   5.556  0.5854  0.3213 -0.1956
  762SOL    MW4 2816   4.607   2.839   5.622 -0.2611  0.2974  0.0802
  763SOL     OW 2817   0.986   3.256   4.124  0.0177 -0.5174 -0.0921
  763SOL    HW2 2818   0.893   3.235   4.115  0.1427 -0.8292 -0.7464
  763SOL    HW3 2819   0.996   3.283   4.215 -1.2441  2.2497 -0.6926
  763SOL    MW4 2820   0.975   3.257   4.135  0.1936  0.2194  0.2456
  764SOL     OW 2821   2.313   2.352   4.359  0.2130 -0.3272  0.0449
  764SOL    HW2 2822   2.285   2.439   4.331  0.8096 -0.4531 -1.0132
  764SOL    HW3 2823   2.238   2.296   4.341  0.6572 -0.4456 -1.6177
  764SOL    MW4 2824   2.300   2.356   4.353 -0.3712  0.1272  0.7254
  765SOL     OW 2825   4.106   2.234   0.891 -0.0207 -0.0907  0.4043
  765SOL    HW2 2826   4.187   2.286   0.891 -0.0290 -0.0769  0.3363
  765SOL    HW3 2827   4.112   2.180   0.969  0.2533 -0.4002  0.1693
  765SOL    MW4 2828   4.117   2.234   0.901 -0.2895  0.4791 -0.1418
  766SOL     OW 2829   3.267   2.524   5.321 -0.1131 -0.0843  0.1626
  766SOL    HW2 2830   3.172   2.516   5.328 -0.1270  0.5624  0.8628
  766SOL    HW3 2831   3.284   2.533   5.227 -0.8947  1.3248  0.1197
  766SOL    MW4 2832   3.257   2.524   5.309  0.3097 -0.5595 -0.4183
  767SOL     OW 2833   3.326   1.152   5.406 -0.1336  0.7321  0.5720
  767SOL    HW2 2834   3.361   1.070   5.440  0.1357  0.7980  0.4588
  767SOL    HW3 2835   3.355   1.155   5.315  0.0516  1.0581  0.6375
  767SOL    MW4 2836   3.335   1.142   5.399 -0.2914 -0.5145 -0.7603
  768SOL     OW 2837   5.207   4.803   4.495 -0.2927  0.0244 -0.1909
  768SOL    HW2 2838   5.129   4.752   4.470 -0.7456  1.0842 -1.0063
  768SOL    HW3 2839   5.279   4.740   4.489 -0.7409 -0.3848 -1.8513
  768SOL    MW4 2840   5.206   4.788   4.491  0.3695 -0.3224  0.4733
  769SOL     OW 2841   0.173   5.059   2.322  0.1090 -0.2664  0.0445
  769SOL    HW2 2842   0.221   4.980   2.295 -1.9106 -1.3835 -0.4668
  769SOL    HW3 2843   0.110   5.028   2.386 -0.1859  1.1060  0.4468
  769SOL    MW4 2844   0.171   5.044   2.327 -0.5213  0.1877 -0.2036
  770SOL     OW 2845   5.944   5.450   0.022 -0.1062 -0.8727  0.0250
  770SOL    HW2 2846   5.879   5.429   0.090  0.5930 -0.0409  0.9836
  770SOL    HW3 2847   6.020   5.397   0.045  0.3257 -0.1779  0.2159
  770SOL    MW4 2848   5.946   5.440   0.034  0.5245  0.0957  0.4190
  771SOL     OW 2849   1.493   0.877   2.190  0.0201 -0.1222  0.1701
  771SOL    HW2 2850   1.403   0.847   2.198  0.5384 -1.7817  0.2072
  771SOL    HW3 2851   1.505   0.940   2.262 -1.1237  0.2219  0.0737
  771SOL    MW4 2852   1.483   0.882   2.201 -0.0964 -0.1934  0.4358
  772SOL     OW 2853   2.187   5.980   0.050 -0.4813  0.3498 -0.5833
  772SOL    HW2 2854   2.213   6.000  -0.040  0.3152  2.3499  0.0474
  772SOL    HW3 2855   2.094   6.003   0.054 -0.4938  0.3513 -0.8707
  772SOL    MW4 2856   2.178   5.986   0.039 -0.0229  0.1699  0.0917
  773SOL     OW 2857   2.497   2.237   5.260 -0.0798  0.4656  0.3763
  773SOL    HW2 2858   2.512   2.263   5.351  0.3441  1.5504  0.0138
  773SOL    HW3 2859   2.575   2.188   5.236  0.2527  1.0235  0.3026
  773SOL    MW4 2860   2.509   2.234   5.269 -0.5360 -0.3893  0.8165
  774SOL     OW 2861   0.156   6.006   0.361 -0.4060  0.2370  0.3069
  774SOL    HW2 2862   0.219   5.956   0.413 -0.4615 -0.2804 -0.1137
  774SOL    HW3 2863   0.207   6.042   0.289 -0.7526 -1.0247 -0.6108
  774SOL    MW4 2864   0.171   6.004   0.359 -0.3202 -0.0183  0.1549
  775SOL     OW 2865   2.558   5.416   2.327 -0.3540 -0.2979 -0.5931
  775SOL    HW2 2866   2.553   5.442   2.235 -0.4463  1.8247 -0.0536
  775SOL    HW3 2867   2.507   5.483   2.373  1.6398  0.0696  1.2464
  775SOL    MW4 2868   2.550   5.428   2.321  0.1952  0.4909 -0.3450
  776SOL     OW 2869   1.441   0.936   5.122  0.3141 -0.0137  0.0894
  776SOL    HW2 2870   1.444   0.985   5.040 -1.7252  0.0215 -0.0057
  776SOL    HW3 2871   1.531   0.906   5.136  0.6038 -0.5250 -2.4654
  776SOL    MW4 2872   1.453   0.938   5.113 -0.6872  0.2892 -0.6882
  777SOL     OW 2873   4.911   2.347   2.780 -0.4138  0.4981  0.1540
  777SOL    HW2 2874   4.856   2.345   2.858 -0.2150  0.3125  0.2877
  777SOL    HW3 2875   4.871   2.415   2.725 -1.3845 -0.3300 -0.2008
  777SOL    MW4 2876   4.898   2.356   2.783  0.1927  0.2923 -0.1806
  778SOL     OW 2877   4.397   0.643   3.066  0.1833  0.0482  0.3091
  778SOL    HW2 2878   4.401   0.678   3.155  0.1606 -0.6764  0.6047
  778SOL    HW3 2879   4.397   0.720   3.010  0.2607  0.5136  0.9349
  778SOL    MW4 2880   4.397   0.658   3.071 -0.0565 -0.4042 -0.3256
  779SOL     OW 2881   3.706   4.111   0.291 -0.4627  0.1438 -0.1054
  779SOL    HW2 2882   3.614   4.091   0.309  0.2326 -2.2761  1.1371
  779SOL    HW3 2883   3.743   4.131   0.377  0.3327  0.4798 -0.5149
  779SOL    MW4 2884   3.699   4.111   0.305  0.2286  0.0058 -0.6529
  780SOL     OW 2885   0.470   0.453   3.280 -0.3174  0.3283  0.6607
  780SOL    HW2 2886   0.521   0.520   3.233 -1.3547 -0.3401 -1.5875
  780SOL    HW3 2887   0.535   0.388   3.307  0.7363  2.2297  3.0460
  780SOL    MW4 2888   0.486   0.453   3.277 -0.8478 -0.5392  0.5336
  781SOL     OW 2889   1.630   0.487   2.280  0.0849 -0.4448  0.2782
  781SOL    HW2 2890   1.615   0.519   2.191 -2.7117  0.3487  0.9363
  781SOL    HW3 2891   1.683   0.555   2.321 -0.7756  0.4617 -0.0760
  781SOL    MW4 2892   1.635   0.500   2.274  0.2028 -0.0750 -0.0555
  782SOL     OW 2893   5.779   3.535   0.841 -0.5517  0.5602  0.2033
  782SOL    HW2 2894   5.693   3.548   0.800 -1.2247 -1.5331  0.8073
  782SOL    HW3 2895   5.840   3.533   0.768 -1.5093 -1.3819 -0.6128
  782SOL    MW4 2896   5.775   3.536   0.826  0.0237  0.8158 -0.1992
  783SOL     OW 2897   3.298   5.604   3.436  0.0149 -0.1082 -0.6024
  783SOL    HW2 2898   3.339   5.617   3.521  0.3835  1.3336 -0.9791
  783SOL    HW3 2899   3.361   5.639   3.373 -0.2179 -1.2249 -1.4947
  783SOL    MW4 2900   3.312   5.610   3.439 -0.0461  0.4505  0.2008
  784SOL     OW 2901   5.043   4.225   3.190  0.0743  0.1889 -0.5036
  784SOL    HW2 2902   5.059   4.145   3.241  0.8099 -0.3826 -1.5951
  784SOL    HW3 2903   4.988   4.197   3.117 -0.8146  0.9661 -0.1570
  784SOL    MW4 2904   5.038   4.211   3.187 -0.6214  0.1989  0.2106
  785SOL     OW 2905   5.465   6.009   2.034  0.1226  0.2689 -0.2727
  785SOL    HW2 2906   5.547   6.028   1.988  0.7554 -1.4399  0.0981
  785SOL    HW3 2907   5.409   6.084   2.013  2.1313  2.0788  0.3970
  785SOL    MW4 2908   5.468   6.021   2.025 -0.0670 -0.4458 -0.0620
  786SOL     OW 2909   4.090   0.052   1.711 -0.6028 -0.5577 -0.3470
  786SOL    HW2 2910   4.158   0.062   1.645  0.6258 -1.9610  0.6351
  786SOL    HW3 2911   4.120   0.105   1.785 -0.4278 -1.3805  0.1848
  786SOL    MW4 2912   4.103   0.060   1.712 -0.0367 -0.0248  0.3049
  787SOL     OW 2913   2.001   0.543   6.325  0.1170 -0.7426  0.1420
  787SOL    HW2 2914   2.046   0.594   6.393  1.1078 -0.4564 -0.7108
  787SOL    HW3 2915   1.978   0.461   6.369  1.4295 -0.8774  0.6472
  787SOL    MW4 2916   2.004   0.539   6.340 -0.2752 -0.1487 -0.6390
  788SOL     OW 2917   2.208   1.897   0.305  0.0596  0.5457 -0.6043
  788SOL    HW2 2918   2.266   1.910   0.380 -0.3239 -0.5566 -0.0926
  788SOL    HW3 2919   2.267   1.868   0.235  0.2502  0.2267 -0.3219
  788SOL    MW4 2920   2.224   1.895   0.306 -0.3264 -0.4163  0.5406
  789SOL     OW 2921   4.397   0.521   1.988 -0.3114 -0.1816  0.3095
  789SOL    HW2 2922   4.420   0.548   1.899 -0.4443 -2.0901 -0.3559
  789SOL    HW3 2923   4.306   0.548   1.999  0.2218  1.6266  0.5481
  789SOL    MW4 2924   4.388   0.528   1.978  0.2970 -0.1931 -0.6718
  790SOL     OW 2925   4.488   5.117   2.907 -0.3797 -0.5314 -0.2423
  790SOL    HW2 2926   4.438   5.163   2.841  0.4167  0.4875 -0.1532
  790SOL    HW3 2927   4.568   5.089   2.862  1.8250  3.1709  1.0055
  790SOL    MW4 2928   4.492   5.119   2.893 -0.4954  0.1928  0.0769
  791SOL     OW 2929   5.904   5.349   3.338  0.4898 -0.0203 -0.2115
  791SOL    HW2 2930   5.869   5.431   3.303 -1.0307 -1.4122 -2.2189
  791SOL    HW3 2931   5.853   5.332   3.417  0.7863  0.9033  0.1955
  791SOL    MW4 2932   5.893   5.358   3.344  0.2924  0.5648  0.0402
  792SOL     OW 2933   5.329   1.224   1.183 -0.7057  0.1005 -0.2373
  792SOL    HW2 2934   5.323   1.311   1.143  1.0844  0.3253 -0.1325
  792SOL    HW3 2935   5.297   1.236   1.272  1.3516  1.1989  0.4398
  792SOL    MW4 2936   5.324   1.237   1.189  0.0603 -0.1318 -0.2429
  793SOL     OW 2937   6.146   5.212   0.036 -0.2190 -0.0037 -0.0441
  793SOL    HW2 2938   6.139   5.127   0.081  1.9383  0.3230  1.0774
  793SOL    HW3 2939   6.209   5.261   0.089  0.2391  1.4940 -1.8942
  793SOL    MW4 2940   6.154   5.207   0.049 -1.1173  0.4094 -0.4034
  794SOL     OW 2941   0.930   5.327   4.891  0.4563 -0.3800  0.1773
  794SOL    HW2 2942   0.943   5.381   4.813  0.4200  1.9242  1.6767
  794SOL    HW3 2943   1.003   5.265   4.891  0.5043 -0.3557 -1.6019
  794SOL    MW4 2944   0.941   5.326   4.881 -0.5310 -0.0486 -0.5446
  795SOL     OW 2945   4.512   0.590   0.832  0.0599 -0.0589  0.5707
  795SOL    HW2 2946   4.586   0.618   0.777  0.2922 -0.6524  0.5727
  795SOL    HW3 2947   4.457   0.538   0.773 -0.1353  0.0261  0.6793
  795SOL    MW4 2948   4.515   0.587   0.817 -0.0007 -0.3376 -0.5868
  796SOL     OW 2949   5.174   2.668   5.767  0.0540 -0.4764 -0.2901
  796SOL    HW2 2950   5.102   2.608   5.750  1.4422 -1.5091 -3.2781
  796SOL    HW3 2951   5.248   2.611   5.790  0.6506  0.3039 -0.2264
  796SOL    MW4 2952   5.174   2.653   5.767 -0.4356 -0.2585 -0.0594
  797SOL     OW 2953   5.572   5.009   0.855 -0.1101  0.2589 -0.3041
  797SOL    HW2 2954   5.550   4.922   0.888 -1.1875  1.1137  1.3997
  797SOL    HW3 2955   5.487   5.051   0.841  0.3475  1.8785  1.3607
  797SOL    MW4 2956   5.558   5.003   0.857  0.2868 -0.2099 -0.0334
  798SOL     OW 2957   2.093   5.101   3.699  0.3239 -0.0936 -0.3391
  798SOL    HW2 2958   2.039   5.133   3.771 -1.6342 -0.6386 -1.4937
  798SOL    HW3 2959   2.128   5.180   3.658  0.4682  0.2681  0.4549
  798SOL    MW4 2960   2.091   5.115   3.703 -0.2364 -0.2313 -0.0432
  799SOL     OW 2961   3.239   0.998   3.994  0.0817 -0.0928 -0.0496
  799SOL    HW2 2962   3.233   0.967   3.904 -0.8162  0.6518 -0.2633
  799SOL    HW3 2963   3.314   1.058   3.994 -0.4333  0.5637 -0.5156
  799SOL    MW4 2964   3.248   1.002   3.982 -0.6813 -0.1053  0.0858
  800SOL     OW 2965   2.698   0.725   0.396 -0.0683 -0.2864  0.2600
  800SOL    HW2 2966   2.746   0.699   0.317  0.3735  1.6924 -0.1792
  800SOL    HW3 2967   2.757   0.787   0.440 -0.8143 -0.4482  1.5120
  800SOL    MW4 2968   2.712   0.730   0.391  0.0760  0.1265 -0.1231
  801SOL     OW 2969   0.833   4.168   0.704 -0.1656  0.1303 -0.6057
  801SOL    HW2 2970   0.803   4.249   0.745 -0.8801 -0.2199 -0.4265
  801SOL    HW3 2971   0.756   4.135   0.657  0.4959  0.2878 -1.8649
  801SOL    MW4 2972   0.818   4.174   0.703 -0.0080  0.3574  0.2303
  802SOL     OW 2973   3.187   0.737   3.300  0.1694  0.3218 -0.3280
  802SOL    HW2 2974   3.100   0.778   3.304 -0.0079 -0.1467  0.9238
  802SOL    HW3 2975   3.170   0.645   3.318  0.6955 -0.1668 -2.1124
  802SOL    MW4 2976   3.173   0.730   3.303  0.0828 -0.2380 -0.0328
  803SOL     OW 2977   4.625   3.184   3.770 -0.9977 -0.5916 -0.0450
  803SOL    HW2 2978   4.657   3.273   3.755  0.1496 -0.4228  2.7218
  803SOL    HW3 2979   4.532   3.194   3.789 -1.1028 -0.1264 -0.7786
  803SOL    MW4 2980   4.617   3.197   3.770 -0.0843  0.2165  0.2866
  804SOL     OW 2981   4.884   6.090   0.120  0.1673 -0.2973 -0.2366
  804SOL    HW2 2982   4.879   6.169   0.066  1.3658  0.0576  0.1360
  804SOL    HW3 2983   4.793   6.068   0.138 -0.2179  0.3448 -1.2876
  804SOL    MW4 2984   4.872   6.098   0.116 -0.3519  0.2441  0.1294
  805SOL     OW 2985   0.187   5.346   2.978 -0.6807  0.5952 -0.9978
  805SOL    HW2 2986   0.189   5.353   3.073 -1.0447  0.3079 -0.9637
  805SOL    HW3 2987   0.155   5.431   2.948 -0.4095  0.7408 -0.8722
  805SOL    MW4 2988   0.183   5.358   2.986  0.5931 -0.0034 -0.3638
  806SOL     OW 2989   0.904   2.599   5.111 -0.5111 -0.5836  0.8263
  806SOL    HW2 2990   0.839   2.663   5.083  1.7866  0.8978 -1.6377
  806SOL    HW3 2991   0.854   2.518   5.125 -3.1282  1.0216  1.3698
  806SOL    MW4 2992   0.889   2.597   5.109  0.2721  0.4131 -0.6558
  807SOL     OW 2993   1.898   1.608   3.480 -0.0863 -0.2027 -0.1195
  807SOL    HW2 2994   1.847   1.667   3.424  0.5366  0.0006 -0.4798
  807SOL    HW3 2995   1.934   1.543   3.420 -1.2656 -1.3457  0.3457
  807SOL    MW4 2996   1.896   1.607   3.465 -0.5178  0.6716  0.1386
  808SOL     OW 2997   0.121   0.414   4.645 -0.3795 -0.3620 -0.3308
  808SOL    HW2 2998   0.036   0.380   4.672 -0.5112  0.5624  0.4703
  808SOL    HW3 2999   0.114   0.423   4.550 -1.6281  0.8630 -0.1459
  808SOL    MW4 3000   0.109   0.411   4.636  0.2137 -0.0121  0.0912
  809SOL     OW 3001   0.024   2.492   0.060  0.1357 -0.8826  0.0706
  809SOL    HW2 3002   0.117   2.473   0.050  0.2792 -0.6364  0.8744
  809SOL    HW3 3003  -0.003   2.441   0.136 -0.5835 -1.5943 -0.6417
  809SOL    MW4 3004   0.033   2.483   0.069  0.2600  0.5408 -0.2870
  810SOL     OW 3005   1.646   0.850   1.506  0.1989  0.4172 -0.1268
  810SOL    HW2 3006   1.586   0.798   1.453 -0.4125  0.6841  0.2955
  810SOL    HW3 3007   1.590   0.896   1.568  0.8731  0.3340  0.5677
  810SOL    MW4 3008   1.630   0.849   1.507  0.0839  0.1832  0.3306
  811SOL     OW 3009   2.352   1.869   5.477 -0.0497 -0.9589  0.4294
  811SOL    HW2 3010   2.426   1.815   5.448 -1.0371 -2.4924  0.6940
  811SOL    HW3 3011   2.296   1.809   5.527 -1.6589  0.0706 -0.0688
  811SOL    MW4 3012   2.355   1.854   5.480  0.6575 -0.5838  0.0147
  812SOL     OW 3013   3.959   2.555   1.394 -0.0257  0.2377  0.2465
  812SOL    HW2 3014   3.953   2.616   1.321  1.3728  1.1016  0.8142
  812SOL    HW3 3015   4.043   2.512   1.382  0.0785  0.1637  1.1719
  812SOL    MW4 3016   3.969   2.557   1.382 -0.4687 -0.0952  0.2311
  813SOL     OW 3017   4.153   0.345   1.294  0.6525  0.2822 -0.0200
  813SOL    HW2 3018   4.118   0.256   1.289  1.7185 -0.1439 -0.2250
  813SOL    HW3 3019   4.178   0.357   1.385 -0.0288  0.5974  0.1331
  813SOL    MW4 3020   4.152   0.335   1.305  0.1634 -0.5833  0.0480
  814SOL     OW 3021   2.562   4.289   5.859 -0.3518  0.0527 -0.3294
  814SOL    HW2 3022   2.520   4.250   5.935 -0.4455  1.3056  0.2976
  814SOL    HW3 3023   2.655   4.271   5.871 -0.4881 -0.9865 -0.6851
  814SOL    MW4 3024   2.569   4.282   5.870 -0.7298  0.1687 -0.0997
  815SOL     OW 3025   0.145   2.712   0.863 -0.4186 -0.0533 -0.2963
  815SOL    HW2 3026   0.221   2.673   0.819  0.5209  1.2841  0.0844
  815SOL    HW3 3027   0.140   2.669   0.948 -0.1285 -0.1992 -0.3555
  815SOL    MW4 3028   0.154   2.702   0.868  0.0513 -0.4790  0.4491
  816SOL     OW 3029   1.818   1.921   3.794 -0.6524 -0.2707  0.0467
  816SOL    HW2 3030   1.809   1.828   3.775 -0.8043 -0.2397 -0.0347
  816SOL    HW3 3031   1.863   1.924   3.878 -0.1053 -0.4137 -0.2324
  816SOL    MW4 3032   1.823   1.909   3.803  0.2734 -0.1703 -0.0504
  817SOL     OW 3033   3.045   0.025   3.949 -0.3710  0.4853  0.1573
  817SOL    HW2 3034   3.095   0.065   4.021  0.0031 -0.5733  0.5083
  817SOL    HW3 3035   3.103   0.032   3.873 -0.1971  0.3698  0.2792
  817SOL    MW4 3036   3.059   0.031   3.949 -0.0962 -0.4589 -0.2814
  818SOL     OW 3037   5.250   5.152   1.269 -0.4327  0.1661 -0.0584
  818SOL    HW2 3038   5.197   5.093   1.323 -0.5233 -0.4152 -0.7724
  818SOL    HW3 3039   5.312   5.191   1.331 -3.1033  2.6176  1.2900
  818SOL    MW4 3040   5.251   5.149   1.284 -0.3181 -0.5293  0.2507
  819SOL     OW 3041   3.200   6.366   0.025  0.0089  0.1260 -0.1239
  819SOL    HW2 3042   3.250   6.425   0.081 -1.8069  1.0142  0.6588
  819SOL    HW3 3043   3.250   6.284   0.027  0.8544  0.6199  1.5074
  819SOL    MW4 3044   3.213   6.363   0.033  0.2000 -0.3163 -0.4378
  820SOL     OW 3045   1.217   3.188   3.846 -0.1725 -0.0474  0.3651
  820SOL    HW2 3046   1.184   3.239   3.772 -0.3272 -1.4325 -0.5606
  820SOL    HW3 3047   1.267   3.118   3.805  2.4117  0.9006  1.6507
  820SOL    MW4 3048   1.220   3.186   3.831 -0.3362  0.4472 -0.0636
  821SOL     OW 3049   1.656   0.747   5.198  0.1478 -0.0191 -0.5601
  821SOL    HW2 3050   1.686   0.792   5.276  2.2210 -1.8652 -0.1939
  821SOL    HW3 3051   1.715   0.776   5.128  0.8642 -1.2975 -0.5295
  821SOL    MW4 3052   1.668   0.757   5.199 -0.1910  0.4533  0.8408
  822SOL     OW 3053   5.354   3.682   4.847 -0.5761  0.0220 -0.0187
  822SOL    HW2 3054   5.265   3.705   4.821 -1.1796 -1.2037  0.8540
  822SOL    HW3 3055   5.350   3.669   4.941  0.3827 -0.6288 -0.0428
  822SOL    MW4 3056   5.342   3.683   4.856 -0.5128  0.0354 -0.5682
  823SOL     OW 3057   3.724   4.725   2.792 -0.3071 -0.3075  0.5227
  823SOL    HW2 3058   3.724   4.656   2.726  0.9671 -0.1922  0.3858
  823SOL    HW3 3059   3.796   4.783   2.767  0.1179 -0.1826  1.9323
  823SOL    MW4 3060   3.733   4.724   2.780 -0.1168  0.2949 -0.4601
  824SOL     OW 3061   6.343   5.527   0.551 -0.0407  0.4674  0.0521
  824SOL    HW2 3062   6.279   5.598   0.547 -0.5903 -0.0181  0.1903
  824SOL    HW3 3063   6.314   5.473   0.624  0.3505  0.0719 -0.0837
  824SOL    MW4 3064   6.331   5.530   0.560 -0.2212  0.0790  0.3248
  825SOL     OW 3065   1.080   0.372   3.392 -0.0022 -0.0018 -0.2066
  825SOL    HW2 3066   1.142   0.314   3.348  0.1680 -0.9811  1.2419
  825SOL    HW3 3067   1.103   0.460   3.361  0.3189 -0.6045 -1.7637
  825SOL    MW4 3068   1.092   0.376   3.382 -0.2114 -0.2178  0.1668
  826SOL     OW 3069   2.548   2.580   6.094  0.0254  0.2153  0.4382
  826SOL    HW2 3070   2.541   2.563   6.000 -0.5746  0.3929  0.4467
  826SOL    HW3 3071   2.457   2.586   6.124  0.1989 -0.3773  1.1277
  826SOL    MW4 3072   2.535   2.578   6.085 -0.1515  0.6574  0.1066
  827SOL     OW 3073   3.969   1.974   1.455  0.4943 -0.1232 -0.0533
  827SOL    HW2 3074   3.916   2.003   1.381  0.3838 -0.1592  0.0122
  827SOL    HW3 3075   3.999   2.055   1.496 -0.8437 -0.0703  0.8777
  827SOL    MW4 3076   3.966   1.989   1.451  0.0071 -0.3514  0.0696
  828SOL     OW 3077   3.155   0.337   5.688  0.5403  0.2836  0.3364
  828SOL    HW2 3078   3.092   0.265   5.678  0.7573 -0.2862  2.4394
  828SOL    HW3 3079   3.106   0.406   5.732  0.3514  1.4589 -1.6286
  828SOL    MW4 3080   3.140   0.336   5.692 -0.3390 -0.4879  0.4448
  829SOL     OW 3081   2.239   4.297   5.408 -0.1630 -0.0739  0.4343
  829SOL    HW2 3082   2.300   4.370   5.399  0.9971 -0.9755  0.8136
  829SOL    HW3 3083   2.259   4.240   5.334 -0.6317 -0.3313  0.4992
  829SOL    MW4 3084   2.249   4.300   5.397  0.3783 -0.1991  0.2675
  830SOL     OW 3085   2.900   5.216   5.907 -0.3710  0.0555 -0.4229
  830SOL    HW2 3086   2.943   5.131   5.915  0.7756  0.7218  0.9062
  830SOL    HW3 3087   2.882   5.243   5.997 -1.5145  0.8515 -0.8567
  830SOL    MW4 3088   2.903   5.209   5.920  0.5220  0.4514 -0.1463
  831SOL     OW 3089   6.047   6.206   0.997  0.0791 -0.5742 -0.5493
  831SOL    HW2 3090   6.115   6.139   0.993  0.8358  0.1435 -0.0755
  831SOL    HW3 3091   6.047   6.234   1.089 -0.9750 -0.6758 -0.5061
  831SOL    MW4 3092   6.056   6.201   1.009  0.1704  0.2721  0.7734
  832SOL     OW 3093   0.210   1.131   4.190 -0.2547 -0.0684 -0.5006
  832SOL    HW2 3094   0.246   1.051   4.154  1.2080  1.1075 -1.7933
  832SOL    HW3 3095   0.128   1.144   4.142 -0.3219 -0.6104 -0.5333
  832SOL    MW4 3096   0.204   1.122   4.179 -0.1684  0.1870 -0.9830
  833SOL     OW 3097   5.324   5.574   0.413 -0.0250  0.0605 -0.0641
  833SOL    HW2 3098   5.256   5.584   0.347 -0.3346  1.1020  0.3912
  833SOL    HW3 3099   5.302   5.494   0.459 -0.0759 -0.4175 -0.8994
  833SOL    MW4 3100   5.312   5.565   0.410  0.1862  0.1887  0.3235
  834SOL     OW 3101   0.903   4.428   4.179  0.8320  0.0466  0.5204
  834SOL    HW2 3102   0.813   4.403   4.159  1.0382 -0.3273  0.0404
  834SOL    HW3 3103   0.897   4.477   4.262  0.3131 -0.7896  0.9862
  834SOL    MW4 3104   0.891   4.431   4.187 -0.4471  0.7111 -0.2628
  835SOL     OW 3105   1.010   1.831   4.422 -0.5860  0.3366 -0.1800
  835SOL    HW2 3106   1.031   1.748   4.465 -2.1703 -0.4142 -0.7441
  835SOL    HW3 3107   0.938   1.867   4.473 -0.1599  1.1777 -0.1638
  835SOL    MW4 3108   1.003   1.825   4.434  0.4406  0.6670 -0.1150
  836SOL     OW 3109   5.482   3.167   3.387  0.4083  0.3784  0.0636
  836SOL    HW2 3110   5.407   3.116   3.356  1.3511 -1.2532  0.3293
  836SOL    HW3 3111   5.454   3.201   3.472  0.6031 -1.9234  1.1382
  836SOL    MW4 3112   5.469   3.165   3.394 -0.0384 -0.3450 -0.2945
  837SOL     OW 3113   6.331   2.675   2.895  0.0001  0.0265  0.4448
  837SOL    HW2 3114   6.396   2.608   2.916 -0.4003 -0.2277  0.8998
  837SOL    HW3 3115   6.250   2.644   2.936 -0.1809  0.8071  0.7071
  837SOL    MW4 3116   6.329   2.662   2.903 -0.0813 -0.2652 -0.1110
  838SOL     OW 3117   2.845   3.369   1.697 -0.4673  0.4001  0.0443
  838SOL    HW2 3118   2.845   3.356   1.792  0.8285  0.0163  0.0033
  838SOL    HW3 3119   2.908   3.306   1.664  1.5796  2.7221 -0.7601
  838SOL    MW4 3120   2.853   3.359   1.705  0.1661 -0.1181 -0.0519
  839SOL     OW 3121   6.241   4.167   3.823  0.7544 -0.0489  0.6191
  839SOL    HW2 3122   6.250   4.240   3.762  1.3608 -0.4487  0.2157
  839SOL    HW3 3123   6.235   4.090   3.767 -0.4017 -0.2721  1.0293
  839SOL    MW4 3124   6.241   4.167   3.808  0.0084 -0.4728  0.4490
  840SOL     OW 3125   6.359   1.498   2.120  0.1430  0.4292  0.0840
  840SOL    HW2 3126   6.384   1.494   2.027  2.9315 -0.5431  0.7632
  840SOL    HW3 3127   6.398   1.580   2.151  1.0279 -0.2470  0.8105
  840SOL    MW4 3128   6.368   1.508   2.112  0.5026  0.7339 -0.5721
  841SOL     OW 3129   0.474   0.485   4.244 -0.5089  0.0736  0.3594
  841SOL    HW2 3130   0.391   0.506   4.200  0.2046  1.5544 -0.3769
  841SOL    HW3 3131   0.536   0.471   4.172 -0.2246 -1.6023  0.8993
  841SOL    MW4 3132   0.471   0.486   4.228 -0.0252 -0.0322 -0.1893
  842SOL     OW 3133   2.617   5.111   0.506  0.1067 -0.2646 -0.1162
  842SOL    HW2 3134   2.627   5.178   0.574  0.5360 -1.7331  1.3513
  842SOL    HW3 3135   2.584   5.158   0.430  0.5816  1.6307  0.7919
  842SOL    MW4 3136   2.614   5.126   0.505  0.5733 -0.0305  0.0610
  843SOL     OW 3137   2.955   3.659   0.861  0.1855  0.5996  0.1139
  843SOL    HW2 3138   2.866   3.687   0.840  0.2595  0.3055 -0.6575
  843SOL    HW3 3139   2.952   3.633   0.953 -0.5000  0.6827  0.1158
  843SOL    MW4 3140   2.943   3.659   0.870  0.2304 -0.4042 -0.1893
  844SOL     OW 3141   5.935   4.851   0.414  0.4262 -0.1883  0.0350
  844SOL    HW2 3142   5.866   4.785   0.406  0.7791 -0.4616 -0.8862
  844SOL    HW3 3143   5.888   4.934   0.416  0.0773 -0.3429 -1.1169
  844SOL    MW4 3144   5.920   4.853   0.413  0.6744  0.0489 -0.5491
  845SOL     OW 3145   1.974   6.206   1.096 -0.3342 -0.0722  0.0332
  845SOL    HW2 3146   1.984   6.111   1.100 -1.5474 -0.1932  0.6188
  845SOL    HW3 3147   1.960   6.224   1.003  0.8044 -0.3529 -0.2047
  845SOL    MW4 3148   1.973   6.195   1.084  0.9053 -0.2757 -0.5758
  846SOL     OW 3149   3.463   1.142   1.665  0.0502 -0.2812 -0.1145
  846SOL    HW2 3150   3.455   1.237   1.674 -0.4908 -0.4458  1.5617
  846SOL    HW3 3151   3.372   1.112   1.656  0.2401 -0.6219 -0.9416
  846SOL    MW4 3152   3.450   1.151   1.665 -0.1835  0.0073  0.1557
  847SOL     OW 3153   6.336   1.331   1.085  0.3879 -0.4055 -0.1947
  847SOL    HW2 3154   6.373   1.291   1.006 -0.5108 -0.5572 -0.5481
  847SOL    HW3 3155   6.269   1.269   1.114  0.8208 -0.4273  0.7903
  847SOL    MW4 3156   6.332   1.318   1.078 -0.1786  0.2875 -0.4117
  848SOL     OW 3157   0.770   0.286   1.125  0.6050 -0.0360 -0.2820
  848SOL    HW2 3158   0.695   0.345   1.125  0.4014 -0.2719  0.4191
  848SOL    HW3 3159   0.754   0.227   1.051  0.2321  0.0826 -0.3003
  848SOL    MW4 3160   0.758   0.286   1.115 -0.0955 -0.2041 -0.3346
  849SOL     OW 3161   4.711   0.197   0.725 -0.9633  0.1973 -0.3262
  849SOL    HW2 3162   4.634   0.229   0.773 -1.4534  0.0450 -0.9974
  849SOL    HW3 3163   4.738   0.119   0.774 -0.4854  0.9391  0.6200
  849SOL    MW4 3164   4.704   0.191   0.738 -0.5904 -1.0512 -0.5424
  850SOL     OW 3165   4.419   3.971   6.297 -0.2988 -0.6429 -0.4097
  850SOL    HW2 3166   4.374   4.046   6.259 -0.3694 -0.8873 -0.8137
  850SOL    HW3 3167   4.371   3.952   6.378  0.1757  0.2115  0.0816
  850SOL    MW4 3168   4.407   3.978   6.303  0.0197 -0.6369  0.0757
  851SOL     OW 3169   2.550   5.722   3.986 -0.3336 -0.2623  0.3322
  851SOL    HW2 3170   2.584   5.693   3.902  1.1127  1.4380  0.2649
  851SOL    HW3 3171   2.509   5.807   3.967 -1.0382 -0.4120  1.1434
  851SOL    MW4 3172   2.550   5.730   3.972  0.0327 -0.1477  0.2722
  852SOL     OW 3173   3.375   1.063   2.262  0.0956  0.4168  0.0281
  852SOL    HW2 3174   3.425   0.984   2.243 -1.1461 -0.8771  1.7815
  852SOL    HW3 3175   3.296   1.032   2.305 -0.9047  2.5761 -0.0764
  852SOL    MW4 3176   3.371   1.049   2.265  0.2763  0.4693 -0.7757
  853SOL     OW 3177   5.321   2.396   3.607  0.8032 -0.3680  0.1800
  853SOL    HW2 3178   5.309   2.466   3.671 -0.1609 -0.7282  0.4168
  853SOL    HW3 3179   5.252   2.333   3.628 -0.2177 -0.0232 -1.8502
  853SOL    MW4 3180   5.310   2.397   3.618 -0.3814  0.8066  0.3782
  854SOL     OW 3181   0.579   3.922   3.309  0.0065 -0.4446 -0.9381
  854SOL    HW2 3182   0.584   3.832   3.277 -1.5324 -1.2084  0.7925
  854SOL    HW3 3183   0.503   3.960   3.264 -2.4971 -1.6891  1.9225
  854SOL    MW4 3184   0.570   3.915   3.299 -0.4705 -0.1185 -0.0428
  855SOL     OW 3185   5.586   0.561   2.210 -0.7011 -0.7781  0.4708
  855SOL    HW2 3186   5.511   0.505   2.187 -1.9813  0.9272  0.3218
  855SOL    HW3 3187   5.616   0.527   2.294 -2.1765 -0.9921  0.9461
  855SOL    MW4 3188   5.580   0.549   2.218 -0.4929  0.3324  0.0560
  856SOL     OW 3189   1.289   4.504   1.361  0.1721 -0.4817 -0.0156
  856SOL    HW2 3190   1.207   4.547   1.380  0.1907 -1.4526  2.5823
  856SOL    HW3 3191   1.266   4.434   1.299 -0.5979  0.3578 -0.7018
  856SOL    MW4 3192   1.275   4.500   1.355  0.2548 -0.0096  0.0628
  857SOL     OW 3193   0.771   0.594   1.321  0.1464 -0.1935  0.8880
  857SOL    HW2 3194   0.761   0.588   1.226  0.6721  0.9456  0.7567
  857SOL    HW3 3195   0.687   0.562   1.355 -0.5717  0.6820  0.0105
  857SOL    MW4 3196   0.759   0.589   1.313 -0.1536 -0.1412  0.3365
  858SOL     OW 3197   3.123   2.093   2.882 -0.2248 -0.3216  0.0287
  858SOL    HW2 3198   3.106   2.093   2.976 -0.3849  1.2511  0.0336
  858SOL    HW3 3199   3.048   2.138   2.843  0.0141 -0.6212 -0.8148
  858SOL    MW4 3200   3.111   2.099   2.889 -0.2790  0.0485  0.8115
  859SOL     OW 3201   1.208   6.178   2.057 -0.2737 -0.5415 -0.3268
  859SOL    HW2 3202   1.126   6.141   2.024 -0.4829 -0.1200 -0.2995
  859SOL    HW3 3203   1.212   6.149   2.148 -0.0380 -1.1429 -0.5286
  859SOL    MW4 3204   1.197   6.170   2.065 -0.1791  0.0499  0.0740
  860SOL     OW 3205   1.067   4.816   4.919  0.2785  0.0674 -0.1648
  860SOL    HW2 3206   1.020   4.738   4.891 -1.5393  1.9714 -2.9246
  860SOL    HW3 3207   1.145   4.819   4.863 -0.4800  1.0116 -1.1974
  860SOL    MW4 3208   1.071   4.806   4.908 -0.1756  0.0105  0.2219
  861SOL     OW 3209   6.291   4.935   1.869  0.6690  0.7355 -0.0253
  861SOL    HW2 3210   6.218   4.996   1.866  0.3276  0.3270 -0.2319
  861SOL    HW3 3211   6.315   4.922   1.777  0.5767  0.3778 -0.0013
  861SOL    MW4 3212   6.284   4.941   1.856  0.0858  0.1992 -0.5236
  862SOL     OW 3213   3.937   4.046   6.032 -0.2625 -0.3274  0.5480
  862SOL    HW2 3214   3.936   3.955   6.003  0.5269 -0.5248  1.0863
  862SOL    HW3 3215   3.985   4.092   5.963 -1.5233 -0.1286 -0.2122
  862SOL    MW4 3216   3.943   4.040   6.019  0.5164 -0.3513  0.0763
  863SOL     OW 3217   6.156   2.728   1.949  0.1412  0.0150 -0.3261
  863SOL    HW2 3218   6.114   2.644   1.971 -0.2172  0.3266  0.2059
  863SOL    HW3 3219   6.250   2.710   1.956  0.1066 -0.6874 -1.5157
  863SOL    MW4 3220   6.163   2.714   1.953 -0.4739  0.6213  0.0114
  864SOL     OW 3221   0.395   5.721   4.992 -0.5077  0.1546 -0.0185
  864SOL    HW2 3222   0.386   5.628   5.012  0.8886  0.2506  1.2926
  864SOL    HW3 3223   0.382   5.727   4.897 -0.8291 -1.3360 -0.0905
  864SOL    MW4 3224   0.392   5.709   4.982  0.7411  0.3386  0.1933
  865SOL     OW 3225   0.493   3.697   2.208  0.6342 -0.0542  0.1841
  865SOL    HW2 3226   0.412   3.742   2.229  0.8842  0.0935  0.8358
  865SOL    HW3 3227   0.485   3.611   2.250  1.1920  0.2946  1.0278
  865SOL    MW4 3228   0.482   3.691   2.216  0.3696 -0.5116 -0.3761
  866SOL     OW 3229   4.633   3.434   5.439  0.3965 -0.6594  0.3100
  866SOL    HW2 3230   4.610   3.433   5.346  2.9276  2.9238 -0.5808
  866SOL    HW3 3231   4.720   3.396   5.443  0.2988 -0.8233  1.2615
  866SOL    MW4 3232   4.641   3.429   5.428  0.1161 -0.0752 -0.8009
  867SOL     OW 3233   5.255   3.344   5.955  0.0276 -0.3792 -0.1935
  867SOL    HW2 3234   5.260   3.249   5.971 -1.1823 -0.3595  0.4245
  867SOL    HW3 3235   5.221   3.380   6.037  0.5421  0.6030 -0.4075
  867SOL    MW4 3236   5.251   3.336   5.968  0.1002  0.6569  0.5299
  868SOL     OW 3237   4.023   5.943   3.256 -0.0060  0.0633 -0.0131
  868SOL    HW2 3238   3.950   5.913   3.202 -0.1435  1.2345 -0.4973
  868SOL    HW3 3239   4.072   6.002   3.199  2.4886 -2.1763 -0.3966
  868SOL    MW4 3240   4.020   5.947   3.241 -0.3148 -0.4100 -0.2076
  869SOL     OW 3241   4.880   5.426   1.986  0.1796  0.2714 -0.0342
  869SOL    HW2 3242   4.867   5.500   2.045 -0.3945  2.1071 -2.3413
  869SOL    HW3 3243   4.946   5.455   1.924  0.0162 -1.1972 -0.9458
  869SOL    MW4 3244   4.887   5.439   1.986  0.5597  0.2158  0.2139
  870SOL     OW 3245   5.418   1.977   5.189 -0.0932 -0.5164  0.1678
  870SOL    HW2 3246   5.324   1.961   5.196 -0.3642  1.3965  1.5164
  870SOL    HW3 3247   5.451   1.972   5.279  0.5180  1.7290  0.1479
  870SOL    MW4 3248   5.410   1.974   5.202 -0.5291  0.7134  0.3574
  871SOL     OW 3249   1.580   5.720   4.063  0.1302 -0.1057 -0.3034
  871SOL    HW2 3250   1.563   5.720   3.968  0.8865 -1.3695 -0.4674
  871SOL    HW3 3251   1.502   5.680   4.101  0.0700 -0.1314 -0.4519
  871SOL    MW4 3252   1.568   5.715   4.055 -0.4289 -0.5867 -0.1626
  872SOL     OW 3253   0.743   4.384   0.846  0.2272 -0.0444  0.7330
  872SOL    HW2 3254   0.804   4.451   0.814 -0.8262 -0.5407 -2.6308
  872SOL    HW3 3255   0.778   4.360   0.932  2.7771  2.1205  0.4407
  872SOL    MW4 3256   0.756   4.390   0.853  0.1149  0.3049 -0.2703
  873SOL     OW 3257   2.874   2.443   4.537  0.1689 -0.0176 -0.2366
  873SOL    HW2 3258   2.871   2.415   4.445  0.2265 -0.7366 -0.0263
  873SOL    HW3 3259   2.848   2.365   4.586 -0.8380  0.6435  0.3084
  873SOL    MW4 3260   2.870   2.429   4.531  0.3963 -0.9987  1.2154
  874SOL     OW 3261   3.803   4.043   1.028  0.2182 -0.0902 -0.0920
  874SOL    HW2 3262   3.828   3.955   1.001  0.7359 -0.2047  0.7249
  874SOL    HW3 3263   3.863   4.101   0.982 -0.6607 -0.0805 -1.2970
  874SOL    MW4 3264   3.814   4.039   1.018 -0.4113 -0.1769 -0.6567
  875SOL     OW 3265   5.396   3.324   6.331 -0.4202 -0.4312  0.3992
  875SOL    HW2 3266   5.381   3.403   6.280  0.1399  0.2217  1.2174
  875SOL    HW3 3267   5.309   3.296   6.359 -0.6102 -0.0614  0.1876
  875SOL    MW4 3268   5.383   3.331   6.328 -0.4341 -0.1751  0.4656
  876SOL     OW 3269   5.549   1.196   2.488 -0.3737 -0.1556  0.1663
  876SOL    HW2 3270   5.469   1.191   2.435  0.1774 -0.1755 -0.6968
  876SOL    HW3 3271   5.619   1.206   2.423  0.2587  0.5569  0.9421
  876SOL    MW4 3272   5.548   1.196   2.472  0.0277  0.0663 -0.5538
  877SOL     OW 3273   5.548   3.626   1.019  0.0967 -0.5566  1.1260
  877SOL    HW2 3274   5.604   3.610   1.095 -0.2181 -1.8539  1.1040
  877SOL    HW3 3275   5.485   3.554   1.020 -0.9837  0.3455  0.6006
  877SOL    MW4 3276   5.547   3.614   1.030  0.4258  0.1555 -0.3092
  878SOL     OW 3277   2.982   3.562   1.995 -0.1802  0.1165  0.1167
  878SOL    HW2 3278   2.888   3.556   2.010  0.0751  0.2980  1.9800
  878SOL    HW3 3279   3.016   3.614   2.068  1.7423 -2.3842  1.1791
  878SOL    MW4 3280   2.974   3.568   2.006  0.6458 -0.0130  0.4704
  879SOL     OW 3281   4.053   4.719   5.063  0.1354  0.5818 -0.1854
  879SOL    HW2 3282   3.963   4.689   5.079  0.5714 -0.4530  0.4125
  879SOL    HW3 3283   4.069   4.783   5.132  0.1657  0.0887  0.2709
  879SOL    MW4 3284   4.043   4.724   5.074 -0.3588  0.3964 -0.5882
  880SOL     OW 3285   1.558   5.988   5.682  0.5140  0.4292 -0.4385
  880SOL    HW2 3286   1.563   6.008   5.775  1.6432 -1.0428 -0.1398
  880SOL    HW3 3287   1.645   6.007   5.648  0.5025 -0.3080 -0.9093
  880SOL    MW4 3288   1.570   5.993   5.689  0.7213  0.7950 -0.3768
  881SOL     OW 3289   0.996   5.817   5.272 -0.7401  0.2111  0.1750
  881SOL    HW2 3290   1.007   5.903   5.312 -0.7157 -0.7814  2.4515
  881SOL    HW3 3291   0.912   5.821   5.228  0.4916  2.2572 -2.2518
  881SOL    MW4 3292   0.987   5.829   5.271  0.2980  0.0935  0.1155
  882SOL     OW 3293   0.495   3.098   3.551  0.5101  0.3813  0.0122
  882SOL    HW2 3294   0.545   3.180   3.557 -0.9405  1.2680  0.4595
  882SOL    HW3 3295   0.434   3.102   3.624 -0.5105 -0.4658 -0.7708
  882SOL    MW4 3296   0.494   3.110   3.561 -0.1317  0.0333  0.1655
  883SOL     OW 3297   1.966   2.775   1.913  0.1613 -0.3780  0.0787
  883SOL    HW2 3298   1.948   2.729   1.995 -1.5411  0.9451  0.5140
  883SOL    HW3 3299   2.061   2.788   1.913  0.1212  0.4421  2.3640
  883SOL    MW4 3300   1.976   2.771   1.924  0.5619  0.2799 -0.0063
  884SOL     OW 3301   1.134   2.034   3.776  0.3814 -0.0064  0.4140
  884SOL    HW2 3302   1.157   2.013   3.686 -1.2588  0.8152 -0.2376
  884SOL    HW3 3303   1.154   1.954   3.825 -2.2717 -1.9543 -1.3456
  884SOL    MW4 3304   1.140   2.020   3.771 -0.1531 -0.4029 -0.5796
  885SOL     OW 3305   1.822   4.215   4.014  0.2702 -0.0940  0.0822
  885SOL    HW2 3306   1.824   4.285   3.949 -2.2137  0.7012  0.7648
  885SOL    HW3 3307   1.788   4.256   4.094  1.5300 -1.4483  1.3900
  885SOL    MW4 3308   1.818   4.230   4.016  0.5374  0.2612 -0.7912
  886SOL     OW 3309   4.009   5.003   5.544 -0.0327  0.9287  0.3217
  886SOL    HW2 3310   3.940   4.986   5.609 -0.0447  2.7630  0.8408
  886SOL    HW3 3311   3.984   4.949   5.469 -0.7631 -0.2047  1.3243
  886SOL    MW4 3312   3.996   4.993   5.543  0.3898  0.0458  0.3754
  887SOL     OW 3313   5.807   1.444   1.574 -0.2519  0.2473  0.4796
  887SOL    HW2 3314   5.859   1.511   1.617  1.3476 -0.3245 -0.4555
  887SOL    HW3 3315   5.813   1.465   1.481  1.3745 -1.8511  0.0276
  887SOL    MW4 3316   5.815   1.455   1.567  0.7327  0.3029  0.4488
  888SOL     OW 3317   5.102   5.154   5.486  0.3164 -0.3691  0.2083
  888SOL    HW2 3318   5.118   5.109   5.402  1.4838  0.5770 -0.1201
  888SOL    HW3 3319   5.134   5.093   5.552  3.4868  0.5344 -0.3234
  888SOL    MW4 3320   5.109   5.140   5.483 -0.0428  0.7012 -0.4028
  889SOL     OW 3321   2.360   1.913   2.578 -0.3272 -0.3169 -0.3062
  889SOL    HW2 3322   2.271   1.878   2.573 -0.8110  0.9247 -0.6975
  889SOL    HW3 3323   2.402   1.884   2.497  0.0245 -1.8822  0.3948
  889SOL    MW4 3324   2.354   1.904   2.567  0.6010  0.6106 -0.2122
  890SOL     OW 3325   4.188   4.655   4.684  0.0956 -0.2186  0.3789
  890SOL    HW2 3326   4.153   4.583   4.737 -0.0489  0.7118  1.5976
  890SOL    HW3 3327   4.257   4.615   4.632 -1.3910 -1.6806 -0.5673
  890SOL    MW4 3328   4.193   4.640   4.685  0.1968 -0.8575 -0.7122
  891SOL     OW 3329   3.618   0.119   4.159 -0.3429 -0.3493  0.1935
  891SOL    HW2 3330   3.655   0.070   4.086  0.1230 -0.3597  0.4317
  891SOL    HW3 3331   3.599   0.053   4.226 -2.3737 -0.5799 -0.5389
  891SOL    MW4 3332   3.620   0.104   4.159 -0.2954  0.1723  0.1618
  892SOL     OW 3333   5.588   0.670   1.491 -0.0316  0.2953 -0.2138
  892SOL    HW2 3334   5.588   0.694   1.583 -0.8657 -0.4088 -0.0174
  892SOL    HW3 3335   5.587   0.753   1.444  1.5788  0.6894  0.3801
  892SOL    MW4 3336   5.588   0.684   1.497 -0.1469  0.2324  0.0044
  893SOL     OW 3337   6.196   1.735   1.256 -0.2299  0.0397  0.0369
  893SOL    HW2 3338   6.236   1.821   1.248  3.8440 -1.5431  0.7147
  893SOL    HW3 3339   6.216   1.692   1.172 -0.5510 -0.8139  0.3880
  893SOL    MW4 3340   6.204   1.740   1.244 -0.0118 -0.2122  0.8360
  894SOL     OW 3341   1.816   2.531   4.627  0.4502  0.0013  0.1026
  894SOL    HW2 3342   1.868   2.579   4.691  2.6037  0.9474 -2.2213
  894SOL    HW3 3343   1.737   2.584   4.615  0.7881  0.6604  0.7434
  894SOL    MW4 3344   1.813   2.544   4.634  0.4640 -0.0677 -0.0221
  895SOL     OW 3345   5.774   1.814   5.367  0.7149  0.3815 -0.2475
  895SOL    HW2 3346   5.818   1.895   5.342 -0.7922  1.0382 -0.8949
  895SOL    HW3 3347   5.745   1.776   5.284 -2.2620  1.3509  0.2688
  895SOL    MW4 3348   5.776   1.819   5.353 -0.0408  0.9806  0.2207
  896SOL     OW 3349   5.969   5.157   2.209 -0.1873 -0.6435  0.3087
  896SOL    HW2 3350   5.878   5.132   2.224 -0.6287 -0.0613 -1.2246
  896SOL    HW3 3351   6.014   5.129   2.289 -1.6535 -1.1350  1.0183
  896SOL    MW4 3352   5.963   5.150   2.222 -0.5138 -0.3160  0.2221
  897SOL     OW 3353   4.825   6.277   4.997  0.2856 -0.3875 -0.3890
  897SOL    HW2 3354   4.769   6.318   5.064  1.1925  0.4451 -0.1227
  897SOL    HW3 3355   4.867   6.205   5.043  0.5639 -0.0945 -0.1808
  897SOL    MW4 3356   4.823   6.273   5.012 -0.2222 -0.3210 -0.6992
  898SOL     OW 3357   2.470   1.704   3.825 -0.1866  0.2299  0.0303
  898SOL    HW2 3358   2.493   1.714   3.733  2.3271  1.2080  0.6945
  898SOL    HW3 3359   2.407   1.774   3.841 -1.4986 -0.6222 -1.1517
  898SOL    MW4 3360   2.464   1.714   3.815 -0.8662 -0.7973  0.1850
  899SOL     OW 3361   2.773   3.954   1.006  0.4866 -0.2793  0.6342
  899SOL    HW2 3362   2.781   3.915   1.093  1.5818 -0.7596  0.3389
  899SOL    HW3 3363   2.849   4.012   0.999 -0.6062  1.2232  0.6999
  899SOL    MW4 3364   2.784   3.957   1.017 -0.3396 -0.0035 -0.3975
  900SOL     OW 3365   2.059   6.147   5.203 -0.1267 -0.3573 -0.0371
  900SOL    HW2 3366   1.969   6.122   5.228  0.2154 -0.9910  0.6203
  900SOL    HW3 3367   2.113   6.110   5.273  0.6212  0.2732 -0.2804
  900SOL    MW4 3368   2.054   6.138   5.216 -0.5588  0.3803 -0.0089
  901SOL     OW 3369   5.791   5.673   5.750  0.2432  0.1061  0.3489
  901SOL    HW2 3370   5.751   5.702   5.669  0.3043  3.5348  1.4069
  901SOL    HW3 3371   5.885   5.678   5.734  0.2559  0.8595  0.6451
  901SOL    MW4 3372   5.798   5.677   5.738 -0.4095 -0.0443  0.1466
  902SOL     OW 3373   5.937   6.106   5.740 -0.3132 -0.0605 -0.3759
  902SOL    HW2 3374   6.010   6.167   5.729  0.1904 -0.6057 -0.1152
  902SOL    HW3 3375   5.955   6.036   5.676 -1.8501  0.9495 -1.9883
  902SOL    MW4 3376   5.949   6.105   5.730  0.2186 -0.2712 -0.2008
  903SOL     OW 3377   0.064   0.845   3.244  0.3210  0.2197  0.0041
  903SOL    HW2 3378  -0.024   0.876   3.265 -0.0862 -0.1291 -1.1154
  903SOL    HW3 3379   0.104   0.918   3.195  1.1530  0.9097  1.6330
  903SOL    MW4 3380   0.058   0.859   3.240 -0.0582  0.4849  0.8337
  904SOL     OW 3381   4.496   5.362   3.679 -0.2748  0.5664  0.3339
  904SOL    HW2 3382   4.574   5.371   3.734  0.1700 -0.1596 -0.1596
  904SOL    HW3 3383   4.519   5.410   3.599 -0.0186 -0.3017 -0.1246
  904SOL    MW4 3384   4.510   5.370   3.676  0.6223 -0.0299  0.3065
  905SOL     OW 3385   5.888   4.260   4.856 -0.4753 -0.2274  0.2186
  905SOL    HW2 3386   5.880   4.185   4.798  0.8240  0.4207 -0.8355
  905SOL    HW3 3387   5.813   4.252   4.916 -0.4599 -2.2379  0.0254
  905SOL    MW4 3388   5.877   4.249   4.856  0.0290  0.6975 -0.0143
  906SOL     OW 3389   2.267   4.896   5.583 -0.2217  0.2376  0.8789
  906SOL    HW2 3390   2.229   4.909   5.496  1.9726 -4.4293 -1.1275
  906SOL    HW3 3391   2.348   4.947   5.582  0.3884 -0.7324 -0.3370
  906SOL    MW4 3392   2.273   4.905   5.572  0.1949  0.4332 -0.6977
  907SOL     OW 3393   4.541   4.759   3.477  0.0819  0.3186  0.4924
  907SOL    HW2 3394   4.611   4.781   3.538 -0.0667  2.4230 -0.0006
  907SOL    HW3 3395   4.580   4.771   3.390 -0.2377 -0.8221  0.1691
  907SOL    MW4 3396   4.556   4.764   3.473  0.6546 -0.3167 -0.2275
  908SOL     OW 3397   1.728   5.799   1.917 -0.1704 -0.3324 -0.1811
  908SOL    HW2 3398   1.779   5.870   1.877 -0.7701  0.1098 -0.1793
  908SOL    HW3 3399   1.756   5.797   2.008 -1.7053  1.3892  0.3900
  908SOL    MW4 3400   1.738   5.808   1.924  0.2329  0.5744 -0.2884
  909SOL     OW 3401   5.039   3.492   1.551 -0.2126  0.8559  0.0968
  909SOL    HW2 3402   5.011   3.508   1.461  1.5729 -0.6511 -0.7911
  909SOL    HW3 3403   5.010   3.403   1.570  0.7108  0.6211  0.4602
  909SOL    MW4 3404   5.031   3.482   1.542  0.0232  0.3179  0.2159
  910SOL     OW 3405   4.977   4.207   1.040  0.0177  0.1843  0.5426
  910SOL    HW2 3406   4.926   4.161   0.973 -0.8756  1.0931  0.5793
  910SOL    HW3 3407   5.060   4.160   1.043  0.2844  0.4338 -1.5655
  910SOL    MW4 3408   4.981   4.195   1.032  0.4549  0.0804 -0.1044
  911SOL     OW 3409   5.031   5.756   5.180 -0.1411 -0.9779 -0.1494
  911SOL    HW2 3410   5.114   5.803   5.170 -0.7372  0.8840  2.4556
  911SOL    HW3 3411   5.055   5.664   5.173  1.7864 -0.4398 -1.4581
  911SOL    MW4 3412   5.045   5.750   5.178  0.2155  0.7173  0.5120
  912SOL     OW 3413   1.078   3.646   1.875 -0.2370 -0.0231  0.3056
  912SOL    HW2 3414   1.089   3.700   1.953  0.5915 -0.6993  0.6751
  912SOL    HW3 3415   1.166   3.641   1.837 -0.2070 -1.4298  0.5129
  912SOL    MW4 3416   1.091   3.653   1.881 -0.4207 -0.4868 -0.2124
  913SOL     OW 3417   3.563   4.120   4.161 -0.2681 -0.5481  0.3641
  913SOL    HW2 3418   3.504   4.104   4.087 -0.4072  0.0553  0.3398
  913SOL    HW3 3419   3.575   4.034   4.201  0.2009 -0.9705 -0.6510
  913SOL    MW4 3420   3.556   4.106   4.157  0.4048 -0.0871  0.4803
  914SOL     OW 3421   4.578   5.991   5.620  0.0588 -0.1996  0.0665
  914SOL    HW2 3422   4.665   5.996   5.579 -0.7873  0.2250 -1.7865
  914SOL    HW3 3423   4.522   6.045   5.564 -1.7067 -1.5649  0.4419
  914SOL    MW4 3424   4.582   5.999   5.607  0.5566  0.5485 -0.1332
  915SOL     OW 3425   5.354   4.210   0.797  0.0503  0.3508 -0.3860
  915SOL    HW2 3426   5.346   4.283   0.859 -1.5989 -0.1552  0.0647
  915SOL    HW3 3427   5.358   4.252   0.711 -1.8305  1.0195 -0.2145
  915SOL    MW4 3428   5.353   4.226   0.794  0.2281  0.2429 -0.4149
  916SOL     OW 3429   6.021   3.129   0.805 -0.9320  0.4876 -0.3570
  916SOL    HW2 3430   6.103   3.179   0.807  0.2550 -1.3094 -1.2096
  916SOL    HW3 3431   5.986   3.143   0.717  0.1049 -1.1577 -1.0762
  916SOL    MW4 3432   6.027   3.138   0.794  0.2221 -0.5057 -0.3356
  917SOL     OW 3433   3.426   1.994   0.663 -0.0317  0.4756 -1.0233
  917SOL    HW2 3434   3.345   2.020   0.620 -0.5172 -1.5178 -1.4324
  917SOL    HW3 3435   3.490   1.987   0.592  0.0115  0.2450 -0.9619
  917SOL    MW4 3436   3.424   1.997   0.648  0.0632  0.1002 -0.1671
  918SOL     OW 3437   1.122   4.455   2.772 -0.8213  0.3963 -0.1939
  918SOL    HW2 3438   1.106   4.413   2.687 -0.8898 -1.5598  0.7413
  918SOL    HW3 3439   1.035   4.483   2.801 -0.9161  0.2920 -0.3733
  918SOL    MW4 3440   1.109   4.453   2.765  0.1952  0.6264 -0.9695
  919SOL     OW 3441   3.849   0.619   1.811  0.1252  0.3774  0.0375
  919SOL    HW2 3442   3.880   0.533   1.782 -0.2699 -0.6299  2.3699
  919SOL    HW3 3443   3.927   0.663   1.844  0.0796  0.2784  0.2813
  919SOL    MW4 3444   3.863   0.614   1.812 -0.4787  0.3210 -0.0246
  920SOL     OW 3445   3.472   4.860   2.730 -0.1067 -0.1844 -0.2456
  920SOL    HW2 3446   3.550   4.820   2.769  0.3141 -0.0924 -0.9709
  920SOL    HW3 3447   3.505   4.935   2.680 -0.7774  0.4766  0.2724
  920SOL    MW4 3448   3.487   4.865   2.729 -0.0192  0.2843 -0.3346
  921SOL     OW 3449   6.431   3.425   1.897 -0.0338  0.0735  0.5306
  921SOL    HW2 3450   6.473   3.495   1.946 -1.4858  1.8799 -0.6471
  921SOL    HW3 3451   6.484   3.415   1.818  1.3893 -1.7117  1.6563
  921SOL    MW4 3452   6.443   3.433   1.893 -0.2758  0.2213 -0.1188
  922SOL     OW 3453   2.381   3.540   2.913  0.4882 -0.2102  0.2677
  922SOL    HW2 3454   2.448   3.488   2.869  0.5218  0.3504 -0.3552
  922SOL    HW3 3455   2.369   3.496   2.997  1.0253 -0.8095  0.0449
  922SOL    MW4 3456   2.388   3.527   2.919  0.6573 -0.1271 -0.4107
  923SOL     OW 3457   1.038   6.324   1.326  0.7524 -0.4244  0.2662
  923SOL    HW2 3458   1.042   6.389   1.256 -2.8839  0.4270  0.6992
  923SOL    HW3 3459   1.057   6.373   1.406 -0.1782 -0.2574  0.3940
  923SOL    MW4 3460   1.041   6.339   1.327 -0.2364  0.6423  0.2693
  924SOL     OW 3461   2.915   4.675   3.038  0.7410 -0.4309  0.2352
  924SOL    HW2 3462   2.982   4.642   2.979  1.6499 -0.1258  1.0576
  924SOL    HW3 3463   2.899   4.603   3.099  1.1075 -0.1462  0.6810
  924SOL    MW4 3464   2.921   4.661   3.039 -0.0569  0.0431 -0.4258
  925SOL     OW 3465   5.239   2.246   1.022 -0.6037 -0.0324 -0.0612
  925SOL    HW2 3466   5.249   2.169   1.079  0.3515  0.7649  0.9065
  925SOL    HW3 3467   5.206   2.314   1.081 -0.5402  0.5449 -0.6846
  925SOL    MW4 3468   5.236   2.245   1.038 -0.2046 -0.1445 -0.2054
  926SOL     OW 3469   1.016   0.785   1.530 -0.0597 -0.0169 -0.2553
  926SOL    HW2 3470   1.031   0.691   1.520 -1.0853 -0.2724  0.4326
  926SOL    HW3 3471   1.004   0.797   1.624  2.4800  1.2010 -0.0070
  926SOL    MW4 3472   1.017   0.774   1.541  0.0549 -0.4520  0.1908
  927SOL     OW 3473   2.425   1.746   5.944 -0.4750 -1.0082  0.3044
  927SOL    HW2 3474   2.483   1.699   5.884  0.3688 -1.1485  1.1959
  927SOL    HW3 3475   2.419   1.689   6.021 -1.0694 -0.5716  0.5921
  927SOL    MW4 3476   2.432   1.733   5.946 -0.2555 -0.7796 -0.0392
  928SOL     OW 3477   1.850   1.825   4.616  0.8208  0.0930 -0.7619
  928SOL    HW2 3478   1.759   1.835   4.586  0.9269  0.1081 -1.0844
  928SOL    HW3 3479   1.899   1.804   4.536  1.0611 -0.1581 -0.5498
  928SOL    MW4 3480   1.844   1.823   4.601  0.9824  0.0939 -0.4962
  929SOL     OW 3481   4.763   3.546   4.466  0.3620 -0.1078 -0.3972
  929SOL    HW2 3482   4.805   3.472   4.510  0.5286  0.7159  0.8883
  929SOL    HW3 3483   4.805   3.550   4.380  0.4830 -1.3812 -0.4161
  929SOL    MW4 3484   4.774   3.537   4.461  0.3938  0.0884  0.2991
  930SOL     OW 3485   1.142   4.869   5.427 -0.4388  0.6044  0.0589
  930SOL    HW2 3486   1.201   4.794   5.432 -0.5691  0.3840 -1.2860
  930SOL    HW3 3487   1.162   4.922   5.504  0.9410  0.1131  0.0506
  930SOL    MW4 3488   1.152   4.866   5.438 -0.2490 -0.1369  0.6352
  931SOL     OW 3489   3.492   3.083   1.282  0.0123  0.0881 -0.4211
  931SOL    HW2 3490   3.430   3.030   1.332 -0.5994  0.9196 -0.2689
  931SOL    HW3 3491   3.439   3.153   1.245  0.4287 -0.5733 -2.3816
  931SOL    MW4 3492   3.477   3.085   1.284  0.2748 -0.2209  0.1427
  932SOL     OW 3493   3.558   1.393   2.627  0.3340 -0.5773  0.6241
  932SOL    HW2 3494   3.570   1.348   2.543  0.0744 -0.5735  0.5829
  932SOL    HW3 3495   3.614   1.470   2.622  1.6858 -1.4912  1.1466
  932SOL    MW4 3496   3.567   1.397   2.615 -0.0963  0.1848  0.2208
  933SOL     OW 3497   3.509   4.115   2.976 -0.0884 -0.0373  0.2358
  933SOL    HW2 3498   3.451   4.044   2.949 -2.3355  0.9915  2.0704
  933SOL    HW3 3499   3.514   4.173   2.899 -1.3141 -0.2804 -0.0483
  933SOL    MW4 3500   3.502   4.113   2.962 -0.0680 -0.1700 -0.5760
  934SOL     OW 3501   4.234   5.103   4.926  0.0328  0.2418  0.0258
  934SOL    HW2 3502   4.176   5.061   4.989  0.1826  1.2079  0.8413
  934SOL    HW3 3503   4.257   5.034   4.865 -2.5404 -0.0157 -0.7729
  934SOL    MW4 3504   4.230   5.088   4.927 -0.0240  0.4648 -0.2939
  935SOL     OW 3505   4.592   5.634   5.067 -0.5315  0.1963  0.0216
  935SOL    HW2 3506   4.584   5.729   5.058 -1.9801  0.1171  0.1698
  935SOL    HW3 3507   4.638   5.621   5.149 -0.1354  0.7668 -0.1007
  935SOL    MW4 3508   4.597   5.645   5.076 -0.4491 -0.0330 -0.8182
  936SOL     OW 3509   0.812   1.450   3.634  0.4427 -0.0087 -0.4689
  936SOL    HW2 3510   0.836   1.522   3.575  0.9814  0.7557  0.6607
  936SOL    HW3 3511   0.821   1.371   3.580  2.0290  0.5746 -1.1025
  936SOL    MW4 3512   0.816   1.449   3.619  0.5631  0.7586 -0.2426
  937SOL     OW 3513   3.367   3.817   4.307 -0.1311  0.1567  0.5132
  937SOL    HW2 3514   3.437   3.875   4.335  1.0301 -0.0037 -1.7959
  937SOL    HW3 3515   3.309   3.872   4.255 -1.3752  0.1231  1.7984
  937SOL    MW4 3516   3.369   3.832   4.304 -0.4271 -0.1119 -0.2791
  938SOL     OW 3517   2.858   2.206   0.104  0.6002 -0.5617  0.4105
  938SOL    HW2 3518   2.893   2.121   0.131  1.4936 -0.0786  0.8041
  938SOL    HW3 3519   2.841   2.196   0.010  0.3203 -1.2883  0.5245
  938SOL    MW4 3520   2.860   2.193   0.095 -0.1634  0.3084  0.3096
  939SOL     OW 3521   0.627   2.153   1.348 -0.3908 -0.3175  0.0825
  939SOL    HW2 3522   0.592   2.069   1.378  1.5057 -1.3816 -0.5164
  939SOL    HW3 3523   0.722   2.142   1.351 -0.0961  1.2020 -1.6424
  939SOL    MW4 3524   0.635   2.140   1.352  0.0126  0.3168  0.0163
  940SOL     OW 3525   1.260   3.499   1.539 -0.4193  0.0506  0.4507
  940SOL    HW2 3526   1.329   3.554   1.576 -1.6618  0.6856  1.9645
  940SOL    HW3 3527   1.229   3.548   1.463 -0.0184  0.3559  0.4802
  940SOL    MW4 3528   1.265   3.513   1.534 -0.1178 -0.0340 -0.1896
  941SOL     OW 3529   6.322   3.684   0.204 -0.1523 -0.5116  0.8392
  941SOL    HW2 3530   6.233   3.651   0.211 -0.3469  0.3768  3.4633
  941SOL    HW3 3531   6.347   3.707   0.293  1.2999  2.9652 -0.2788
  941SOL    MW4 3532   6.314   3.682   0.216  0.3177  0.0877  0.0823
  942SOL     OW 3533   3.064   0.664   4.415  0.0930 -0.6627  0.2674
  942SOL    HW2 3534   3.100   0.644   4.328 -1.1487 -0.0984 -0.3991
  942SOL    HW3 3535   2.969   0.657   4.404 -0.1733  1.0111  1.1689
  942SOL    MW4 3536   3.056   0.660   4.402 -0.2642  0.3483  0.3072
  943SOL     OW 3537   5.435   1.276   5.403 -0.5783 -0.2736  0.0538
  943SOL    HW2 3538   5.407   1.188   5.376  0.4774 -0.2646 -1.1456
  943SOL    HW3 3539   5.417   1.331   5.328  2.0995 -0.1770 -0.6265
  943SOL    MW4 3540   5.429   1.271   5.390 -0.0325 -0.3556  0.1366
  944SOL     OW 3541   4.608   0.986   1.617 -0.2616  0.0722 -0.0305
  944SOL    HW2 3542   4.696   1.007   1.585 -0.1659 -1.1639 -0.6131
  944SOL    HW3 3543   4.549   1.029   1.554 -0.0656 -0.5331 -0.6425
  944SOL    MW4 3544   4.612   0.995   1.604 -0.0504  0.0844 -0.2475
  945SOL     OW 3545   1.700   1.409   2.080  0.2211  0.5049 -0.1787
  945SOL    HW2 3546   1.742   1.390   1.997 -0.5007  1.3378 -0.7563
  945SOL    HW3 3547   1.747   1.485   2.114  0.1442  0.5179 -0.0995
  945SOL    MW4 3548   1.712   1.417   2.074 -0.2953 -0.4307  0.2220
  946SOL     OW 3549   0.443   1.669   5.774  0.4166 -0.2967 -0.3596
  946SOL    HW2 3550   0.446   1.588   5.724 -1.5756 -0.9176  0.4076
  946SOL    HW3 3551   0.350   1.678   5.798  0.0824  3.3916 -2.3357
  946SOL    MW4 3552   0.431   1.659   5.771  0.0388 -0.1331 -0.1888
  947SOL     OW 3553   0.738   1.713   0.841  0.4363  0.2143  0.0298
  947SOL    HW2 3554   0.772   1.799   0.815  2.9014 -0.3450  1.0552
  947SOL    HW3 3555   0.717   1.670   0.759 -0.5831  1.6883 -0.5127
  947SOL    MW4 3556   0.740   1.719   0.827 -0.1847 -0.3083 -0.3873
  948SOL     OW 3557   2.029   0.483   0.712  0.0028  0.0950  0.8141
  948SOL    HW2 3558   2.068   0.561   0.752  0.1776  0.6515 -0.3876
  948SOL    HW3 3559   2.091   0.412   0.732  1.1055  0.7572 -0.1528
  948SOL    MW4 3560   2.043   0.484   0.720 -0.0448  0.0405  0.1457
  949SOL     OW 3561   3.604   2.544   6.382  0.2414 -0.2165  0.1292
  949SOL    HW2 3562   3.618   2.496   6.301  0.5484  0.0784  0.0022
  949SOL    HW3 3563   3.617   2.479   6.452 -0.8066 -0.6546 -0.0705
  949SOL    MW4 3564   3.607   2.529   6.381 -0.0366 -0.3934 -0.3795
  950SOL     OW 3565   0.532   5.733   4.036 -0.0625  0.7137 -0.0090
  950SOL    HW2 3566   0.466   5.751   4.103 -0.4657  0.1225 -0.2384
  950SOL    HW3 3567   0.493   5.664   3.982  1.8591 -1.7819  1.5677
  950SOL    MW4 3568   0.518   5.726   4.038 -0.4798 -0.2603 -0.0998
  951SOL     OW 3569   4.032   4.607   6.088 -0.0190 -0.0891  0.1291
  951SOL    HW2 3570   4.086   4.544   6.041 -0.5455 -1.1673  0.9339
  951SOL    HW3 3571   3.950   4.562   6.105 -0.5415  0.9345  0.4201
  951SOL    MW4 3572   4.028   4.593   6.084 -0.2515 -0.2299  0.1865
  952SOL     OW 3573   1.375   5.477   0.255 -0.4595  0.0100  0.0740
  952SOL    HW2 3574   1.427   5.495   0.333  0.4291 -1.2294 -0.1906
  952SOL    HW3 3575   1.340   5.389   0.269  0.5338 -0.6651 -1.3044
  952SOL    MW4 3576   1.378   5.468   0.267 -0.1490  0.3618  0.0056
  953SOL     OW 3577   4.292   5.475   1.504  0.0296  0.8831  0.4155
  953SOL    HW2 3578   4.294   5.488   1.598 -0.6625  1.7048  0.3314
  953SOL    HW3 3579   4.200   5.490   1.480 -0.0919 -0.6158 -0.2190
  953SOL    MW4 3580   4.280   5.478   1.513  0.4322 -0.5689 -0.2602
  954SOL     OW 3581   2.845  -0.033   4.505 -0.1982 -0.1497  0.1351
  954SOL    HW2 3582   2.851  -0.014   4.411 -0.7758  1.9165  0.4490
  954SOL    HW3 3583   2.766  -0.086   4.514 -0.2065 -0.2601 -0.5257
  954SOL    MW4 3584   2.836  -0.037   4.494 -0.1200 -0.2012 -0.3333
  955SOL     OW 3585   0.203   0.464   4.902 -0.0867  0.4689  0.1773
  955SOL    HW2 3586   0.119   0.465   4.949  0.4503  0.7600  1.1558
  955SOL    HW3 3587   0.180   0.436   4.814 -1.5357  2.5232 -0.1669
  955SOL    MW4 3588   0.189   0.460   4.897 -0.1164  0.6531  0.7085
  956SOL     OW 3589   5.551   4.142   2.297  0.4905  0.0057 -0.0979
  956SOL    HW2 3590   5.567   4.151   2.203  0.5366 -0.8563 -0.1770
  956SOL    HW3 3591   5.638   4.149   2.336  0.6825 -1.3219 -0.2615
  956SOL    MW4 3592   5.565   4.144   2.290  0.0990  0.2840  0.2154
  957SOL     OW 3593   5.411   0.751   2.742  0.0636  0.4508 -0.0072
  957SOL    HW2 3594   5.485   0.794   2.785 -0.0136  0.2368  0.3431
  957SOL    HW3 3595   5.409   0.789   2.654 -0.3525  1.6093  0.4698
  957SOL    MW4 3596   5.420   0.762   2.736  0.0521  0.2565  0.0476
  958SOL     OW 3597   6.309   6.283   5.945 -0.0755  0.2699 -0.1497
  958SOL    HW2 3598   6.342   6.367   5.975 -0.7825  0.9720 -1.2674
  958SOL    HW3 3599   6.378   6.249   5.888  0.4872 -0.2157  0.8151
  958SOL    MW4 3600   6.322   6.290   5.941  0.0588  0.1486 -0.1974
  959SOL     OW 3601   2.298   4.376   3.091  0.7547 -0.1336 -0.5638
  959SOL    HW2 3602   2.299   4.304   3.153  0.2758 -1.3682 -1.9315
  959SOL    HW3 3603   2.208   4.378   3.058  0.7255  1.1861 -0.4530
  959SOL    MW4 3604   2.286   4.367   3.095  0.1367  0.3695 -0.2955
  960SOL     OW 3605   1.347   1.100   4.120  0.2250  0.2283 -0.0507
  960SOL    HW2 3606   1.359   1.164   4.050  0.2879  0.1244 -0.1356
  960SOL    HW3 3607   1.424   1.043   4.114  1.3028  1.4340  1.4102
  960SOL    MW4 3608   1.359   1.101   4.110  0.4937 -0.2351  0.0505
  961SOL     OW 3609   0.785   4.921   4.632  1.0955  0.2055  0.1568
  961SOL    HW2 3610   0.704   4.886   4.669  1.3389  1.0381  1.5636
  961SOL    HW3 3611   0.772   4.917   4.538  0.3372 -1.7845  0.2946
  961SOL    MW4 3612   0.772   4.916   4.625 -0.2331 -0.0907 -0.0388
  962SOL     OW 3613   5.394   1.467   2.518 -0.4247  0.1964 -0.0632
  962SOL    HW2 3614   5.365   1.480   2.428 -0.5414  0.5491  0.0222
  962SOL    HW3 3615   5.479   1.425   2.511 -0.1327  0.8330 -0.3495
  962SOL    MW4 3616   5.401   1.463   2.506  0.1344  0.4271 -0.0686
  963SOL     OW 3617   2.389   5.973   1.589 -0.3550 -0.5072 -1.0265
  963SOL    HW2 3618   2.411   6.052   1.540 -0.3248 -0.3397 -0.7403
  963SOL    HW3 3619   2.420   5.989   1.678 -1.6921 -0.2217 -0.5835
  963SOL    MW4 3620   2.396   5.986   1.594 -0.1587  0.1453 -0.1909
  964SOL     OW 3621   2.240   6.365   3.922  0.7314  1.1877 -0.0389
  964SOL    HW2 3622   2.150   6.381   3.895  0.0765 -0.2187  1.1725
  964SOL    HW3 3623   2.249   6.410   4.006  0.3568 -0.5927  1.0232
  964SOL    MW4 3624   2.229   6.373   3.930 -0.1177  0.1310 -0.0426
  965SOL     OW 3625   4.556   4.675   5.692  0.0195  0.1027 -0.0098
  965SOL    HW2 3626   4.469   4.686   5.731 -0.0049 -1.8703  0.6028
  965SOL    HW3 3627   4.538   4.650   5.601 -0.0162  0.2818 -0.0543
  965SOL    MW4 3628   4.542   4.673   5.685 -0.2669  0.4336 -0.6689
  966SOL     OW 3629   0.049   5.468   5.089 -0.0298  0.0641 -0.3509
  966SOL    HW2 3630   0.020   5.456   5.180  1.8723  1.3928  0.4880
  966SOL    HW3 3631   0.014   5.554   5.064  0.1371  0.0585 -0.6052
  966SOL    MW4 3632   0.040   5.478   5.098 -0.2936 -0.5970 -0.9433
  967SOL     OW 3633   0.168   2.493   3.935  0.3312  0.3205 -0.6999
  967SOL    HW2 3634   0.223   2.424   3.971  0.9816  0.3164 -1.6424
  967SOL    HW3 3635   0.079   2.469   3.959  0.6568 -0.2084 -0.0042
  967SOL    MW4 3636   0.164   2.481   3.943  0.2057 -0.2133  0.3057
  968SOL     OW 3637   0.293   2.821   4.231 -0.2314  0.1198  0.1547
  968SOL    HW2 3638   0.218   2.879   4.244 -1.0268 -1.0388  0.8723
  968SOL    HW3 3639   0.269   2.767   4.155 -0.5504 -0.8920  0.9571
  968SOL    MW4 3640   0.280   2.822   4.223  0.1612 -0.6672 -0.0410
  969SOL     OW 3641   3.475   3.443   1.517 -0.3347 -0.4643  0.1885
  969SOL    HW2 3642   3.410   3.375   1.535 -0.4875 -0.0091  1.4983
  969SOL    HW3 3643   3.531   3.406   1.449 -2.1755 -0.7331 -1.2506
  969SOL    MW4 3644   3.474   3.429   1.511 -0.5253  0.8515 -0.4314
  970SOL     OW 3645   2.620   1.460   1.806  0.0914 -0.1123  0.3387
  970SOL    HW2 3646   2.642   1.391   1.744 -0.9365  1.1372 -1.5155
  970SOL    HW3 3647   2.652   1.428   1.890 -0.8902 -3.1139 -0.3093
  970SOL    MW4 3648   2.627   1.447   1.809  0.1448 -0.0798 -0.1240
  971SOL     OW 3649   2.267   2.558   6.227 -0.1749  0.2533  0.6918
  971SOL    HW2 3650   2.184   2.597   6.202 -0.2676 -1.2866 -1.7860
  971SOL    HW3 3651   2.250   2.464   6.231  1.7087 -0.2898 -1.5294
  971SOL    MW4 3652   2.254   2.551   6.224  0.3514  0.2630 -0.1640
  972SOL     OW 3653   1.522   4.689   5.841  0.0825 -0.0454  0.2457
  972SOL    HW2 3654   1.533   4.605   5.886 -1.2394 -0.3562  0.0560
  972SOL    HW3 3655   1.596   4.693   5.780  1.0295 -0.3322  1.3448
  972SOL    MW4 3656   1.533   4.678   5.839 -0.1070  0.0669  0.6032
  973SOL     OW 3657   6.387   1.600   0.033  0.5483  0.0731 -0.1100
  973SOL    HW2 3658   6.386   1.506   0.013 -1.7647  0.1778 -0.8033
  973SOL    HW3 3659   6.331   1.639  -0.034 -1.9354  1.3668  2.5088
  973SOL    MW4 3660   6.380   1.593   0.022  0.4185 -0.3922  0.3489
  974SOL     OW 3661   1.252   2.904   0.868  0.2538 -0.0744 -0.2346
  974SOL    HW2 3662   1.213   2.817   0.877  0.5123 -0.2728 -0.9097
  974SOL    HW3 3663   1.200   2.961   0.924 -0.8335 -0.3888 -0.8977
  974SOL    MW4 3664   1.240   2.900   0.876  0.4589  0.2815  0.1194
  975SOL     OW 3665   5.534   3.572   3.686  0.2502 -0.7478 -0.0303
  975SOL    HW2 3666   5.519   3.578   3.780  4.0704 -0.3487  0.7108
  975SOL    HW3 3667   5.506   3.656   3.651  2.0040  0.5067  1.3989
  975SOL    MW4 3668   5.528   3.584   3.693 -0.6414  0.2795  0.0665
  976SOL     OW 3669   4.671   2.561   1.444 -0.2203 -0.9075  0.4830
  976SOL    HW2 3670   4.739   2.510   1.488  1.7914  0.5155 -0.7991
  976SOL    HW3 3671   4.685   2.545   1.351  1.1128  2.5926 -0.0337
  976SOL    MW4 3672   4.682   2.552   1.438  0.1221  0.1905 -0.3922
  977SOL     OW 3673   5.051   2.797   0.035 -0.0734  0.0401 -0.8685
  977SOL    HW2 3674   4.958   2.780   0.021  0.0844 -0.4138 -1.4271
  977SOL    HW3 3675   5.081   2.723   0.088 -0.1410  0.4747 -0.2080
  977SOL    MW4 3676   5.042   2.785   0.040  0.3982  0.4314  0.4314
  978SOL     OW 3677   2.895   5.473   6.362 -0.4289  0.3352 -0.4082
  978SOL    HW2 3678   2.852   5.535   6.420 -0.4456  0.0419 -0.1027
  978SOL    HW3 3679   2.828   5.449   6.298 -0.3272  0.8711 -0.7191
  978SOL    MW4 3680   2.881   5.478   6.361 -0.0812  0.0361 -0.3526
  979SOL     OW 3681   4.691   2.241   0.737  0.2586  0.2193  0.0537
  979SOL    HW2 3682   4.698   2.275   0.826  2.0905 -0.2911  0.1501
  979SOL    HW3 3683   4.744   2.302   0.684 -1.3773  0.9217 -0.8347
  979SOL    MW4 3684   4.699   2.254   0.742  0.3337  0.4549  1.0838
  980SOL     OW 3685   5.845   3.065   1.136 -0.0705 -0.0286  0.7303
  980SOL    HW2 3686   5.813   3.131   1.074  0.6768  0.2552  0.6375
  980SOL    HW3 3687   5.788   3.075   1.212 -1.8780 -1.2676 -0.3675
  980SOL    MW4 3688   5.833   3.075   1.138 -0.2160  0.0061  0.2527
  981SOL     OW 3689   3.738   0.726   5.245  0.0765 -0.1563  0.1668
  981SOL    HW2 3690   3.804   0.725   5.176  0.0708 -0.4030  0.1657
  981SOL    HW3 3691   3.762   0.801   5.299 -0.2245  0.3622 -0.4008
  981SOL    MW4 3692   3.750   0.736   5.243 -0.2011  0.0180 -0.3395
  982SOL     OW 3693   1.516   0.084   5.044  0.2541  0.2420  0.2342
  982SOL    HW2 3694   1.531   0.119   4.956 -0.6700  0.2465  0.0660
  982SOL    HW3 3695   1.493  -0.008   5.031  1.2075 -0.0585  0.5671
  982SOL    MW4 3696   1.515   0.077   5.031  0.5969 -0.2805  0.0121
  983SOL     OW 3697   3.814   3.280   4.087  0.5832 -0.3747 -0.5131
  983SOL    HW2 3698   3.726   3.299   4.118  0.0523 -2.1917 -0.7961
  983SOL    HW3 3699   3.868   3.277   4.166  0.6050  1.5778 -0.4062
  983SOL    MW4 3700   3.810   3.282   4.101 -0.1469 -0.6063 -0.4929
  984SOL     OW 3701   3.529   1.269   3.785 -0.0780  0.2825 -0.4237
  984SOL    HW2 3702   3.460   1.220   3.739  0.0230 -1.7644  1.4639
  984SOL    HW3 3703   3.604   1.265   3.727 -0.7163  0.1041 -1.2590
  984SOL    MW4 3704   3.529   1.262   3.771  0.1391  0.0961 -0.2638
  985SOL     OW 3705   5.314   5.855   5.177 -0.5220 -0.2350  0.3190
  985SOL    HW2 3706   5.338   5.785   5.239 -3.1433 -1.0051  0.5692
  985SOL    HW3 3707   5.363   5.834   5.097 -1.3702 -2.5042  0.3336
  985SOL    MW4 3708   5.324   5.843   5.175  0.3632  0.4075  0.3930
  986SOL     OW 3709   3.304   0.944   0.445 -0.3613 -0.4190  0.2920
  986SOL    HW2 3710   3.315   0.884   0.372  1.5223 -0.2819  0.4100
  986SOL    HW3 3711   3.390   0.985   0.456 -0.1966 -1.3250  3.3207
  986SOL    MW4 3712   3.317   0.941   0.437  0.4357  0.0429  0.0652
  987SOL     OW 3713   0.477   4.896   1.989  0.8774 -0.5289 -0.5159
  987SOL    HW2 3714   0.519   4.970   1.944  3.1435 -2.7281 -2.3453
  987SOL    HW3 3715   0.391   4.888   1.947  1.2101  0.1530 -1.3690
  987SOL    MW4 3716   0.471   4.905   1.977 -0.4888 -0.1425  0.1292
  988SOL     OW 3717   0.893   1.481   2.015 -0.6730  0.0811  0.2317
  988SOL    HW2 3718   0.960   1.449   1.955  0.0199 -0.4689  1.2470
  988SOL    HW3 3719   0.942   1.520   2.087 -1.4136 -0.5986  1.1443
  988SOL    MW4 3720   0.908   1.482   2.017  0.0745  0.0985  0.0589
  989SOL     OW 3721   0.172   5.828   5.824 -0.0139 -0.1244  0.3432
  989SOL    HW2 3722   0.139   5.865   5.907  1.0457  0.8097  0.3775
  989SOL    HW3 3723   0.249   5.881   5.804  1.9608 -2.7160  0.6780
  989SOL    MW4 3724   0.177   5.840   5.832  0.1975  0.5406  0.2366
  990SOL     OW 3725   2.712   3.241   1.198  0.0327  0.4164  0.1343
  990SOL    HW2 3726   2.675   3.287   1.122  0.1746  1.6443  0.7931
  990SOL    HW3 3727   2.654   3.263   1.270  1.1120  1.0410  0.8393
  990SOL    MW4 3728   2.700   3.250   1.197  0.3636 -0.6282  0.5197
  991SOL     OW 3729   5.074   0.335   3.271  0.1029  0.2125 -0.0464
  991SOL    HW2 3730   5.014   0.262   3.289 -0.0949  0.3003 -0.3227
  991SOL    HW3 3731   5.135   0.300   3.206  0.5475  0.0261  0.4742
  991SOL    MW4 3732   5.074   0.321   3.265 -0.4476  0.1040 -0.7583
  992SOL     OW 3733   3.458   1.595   1.269 -0.2746 -0.0531  0.0280
  992SOL    HW2 3734   3.368   1.564   1.261  0.4860 -2.6381  0.4008
  992SOL    HW3 3735   3.473   1.600   1.364  0.6093 -1.9676  0.0469
  992SOL    MW4 3736   3.448   1.592   1.281 -0.3249  0.3150 -0.3466
  993SOL     OW 3737   3.416   1.426   1.730  0.1941  0.2890 -0.2037
  993SOL    HW2 3738   3.322   1.439   1.740  0.4193  1.5703  0.4164
  993SOL    HW3 3739   3.453   1.451   1.815  1.2481  1.6007 -1.0050
  993SOL    MW4 3740   3.409   1.431   1.743 -0.1185  0.1978 -0.4962
  994SOL     OW 3741   0.852   0.458   5.337 -0.3420 -0.7688  0.0230
  994SOL    HW2 3742   0.930   0.441   5.285 -0.5133 -1.2994 -0.0622
  994SOL    HW3 3743   0.787   0.395   5.305 -1.3354  0.7364 -1.0678
  994SOL    MW4 3744   0.854   0.448   5.326  0.4214 -0.2518  0.3754
  995SOL     OW 3745   2.866   5.775   5.546  0.0731  0.0354 -0.1946
  995SOL    HW2 3746   2.796   5.780   5.611  0.3440 -0.5100  0.1481
  995SOL    HW3 3747   2.833   5.824   5.471 -0.5759 -0.0072  0.0572
  995SOL    MW4 3748   2.853   5.782   5.544 -0.5545  0.1180 -0.0994
  996SOL     OW 3749   2.584   2.263   4.259  0.2702 -0.3879 -0.6142
  996SOL    HW2 3750   2.493   2.266   4.287  0.2633  0.1185 -0.6706
  996SOL    HW3 3751   2.614   2.354   4.266  0.5662 -0.4313 -1.2480
  996SOL    MW4 3752   2.576   2.275   4.263  0.2263  0.5315 -0.1337
  997SOL     OW 3753   6.135   4.792   6.307  0.6169  0.6001  0.2475
  997SOL    HW2 3754   6.127   4.770   6.214  1.7257 -1.2025  0.5456
  997SOL    HW3 3755   6.195   4.727   6.342 -0.2681  0.8653  2.3848
  997SOL    MW4 3756   6.142   4.781   6.299  0.6396 -0.5170  0.2392
  998SOL     OW 3757   0.721   3.820   6.133  0.3997  0.3773 -0.0429
  998SOL    HW2 3758   0.689   3.906   6.104 -0.1020  0.0457 -0.4874
  998SOL    HW3 3759   0.641   3.773   6.159  0.7300  0.2677  0.8065
  998SOL    MW4 3760   0.706   3.825   6.133 -0.6484  0.3841 -0.4833
  999SOL     OW 3761   1.517   6.255   1.666  0.0986 -0.3193 -0.3365
  999SOL    HW2 3762   1.485   6.319   1.602  0.5787 -0.8525 -1.1162
  999SOL    HW3 3763   1.469   6.277   1.746 -1.4731 -0.4427 -1.1965
  999SOL    MW4 3764   1.506   6.267   1.668 -0.1393 -0.3230 -0.2745
 1000SOL     OW 3765   5.896   5.098   4.226 -0.2770  0.1161 -0.0730
 1000SOL    HW2 3766   5.971   5.038   4.228 -0.4249 -0.0610  1.6863
 1000SOL    HW3 3767   5.832   5.055   4.170 -0.1064 -1.0354  0.5968
 1000SOL    MW4 3768   5.898   5.084   4.219 -0.0123  0.0318  0.6917
 1001SOL     OW 3769   2.758   5.330   1.703 -0.0681 -0.6119 -0.1051
 1001SOL    HW2 3770   2.811   5.255   1.729 -2.4413 -1.3062  3.4253
 1001SOL    HW3 3771   2.677   5.321   1.752 -1.6716  2.7870 -1.7391
 1001SOL    MW4 3772   2.755   5.319   1.713  0.1749  0.0185  0.3439
 1002SOL     OW 3773   2.818   6.299   2.313  0.0058 -0.1322  0.4670
 1002SOL    HW2 3774   2.724   6.281   2.311  0.2068 -1.3260  0.9073
 1002SOL    HW3 3775   2.845   6.299   2.221 -0.4121  0.1458  0.3428
 1002SOL    MW4 3776   2.809   6.296   2.301  0.3395  0.0311 -0.2975
 1003SOL     OW 3777   6.284   3.246   0.867  0.2414  0.8852  0.0800
 1003SOL    HW2 3778   6.290   3.186   0.941  1.0590  2.1574  1.0988
 1003SOL    HW3 3779   6.356   3.220   0.809 -0.1365  0.1491 -0.0581
 1003SOL    MW4 3780   6.294   3.235   0.869  1.1426  0.3230 -0.1400
 1004SOL     OW 3781   0.108   1.815   0.171 -0.1081  0.2218 -0.0883
 1004SOL    HW2 3782   0.053   1.738   0.157  1.1091 -1.4821  3.3220
 1004SOL    HW3 3783   0.196   1.779   0.181  0.4695  1.9807  1.7584
 1004SOL    MW4 3784   0.112   1.800   0.171  0.7846 -0.3219  0.1399
 1005SOL     OW 3785   1.059   5.186   3.222  0.4845 -0.3241 -0.2933
 1005SOL    HW2 3786   1.046   5.257   3.159  0.6960  0.4475  0.5185
 1005SOL    HW3 3787   0.986   5.126   3.206  0.2131  0.1553 -0.8805
 1005SOL    MW4 3788   1.048   5.187   3.212  0.2696  0.3577 -0.1907
 1006SOL     OW 3789   3.122   0.302   0.037 -0.3171  0.1958  0.6809
 1006SOL    HW2 3790   3.158   0.390   0.040  1.2079 -0.2726 -1.3353
 1006SOL    HW3 3791   3.072   0.298  -0.045 -0.6618 -0.7084  0.9156
 1006SOL    MW4 3792   3.120   0.313   0.027  0.1414  0.2067  0.4315
 1007SOL     OW 3793   4.697   0.648   0.648 -0.4325 -0.1033 -0.0913
 1007SOL    HW2 3794   4.668   0.637   0.557 -5.7679 -1.1455  1.3838
 1007SOL    HW3 3795   4.744   0.568   0.668  0.4796 -0.0319 -1.7866
 1007SOL    MW4 3796   4.699   0.636   0.638  0.3129 -0.1060 -0.8310
 1008SOL     OW 3797   6.232   5.598   0.132 -0.0526  0.4314 -0.2424
 1008SOL    HW2 3798   6.150   5.597   0.181 -0.1620 -0.5703 -0.4277
 1008SOL    HW3 3799   6.206   5.622   0.043 -0.3315 -1.0417 -0.5845
 1008SOL    MW4 3800   6.218   5.601   0.126 -0.0198 -0.6920 -0.1321
 1009SOL     OW 3801   3.935   2.705   1.857 -0.3306 -0.2426 -0.3021
 1009SOL    HW2 3802   3.991   2.738   1.927 -0.6682 -0.7665  0.2202
 1009SOL    HW3 3803   3.846   2.717   1.889 -0.5003 -0.1944 -0.7769
 1009SOL    MW4 3804   3.931   2.711   1.870  0.4516 -0.3531 -0.4014
 1010SOL     OW 3805   0.582   5.301   6.045 -0.1060  0.0465  0.2258
 1010SOL    HW2 3806   0.670   5.328   6.021  1.0270 -2.6113  1.0124
 1010SOL    HW3 3807   0.563   5.348   6.127  0.7772  0.2939  0.2886
 1010SOL    MW4 3808   0.591   5.310   6.053 -0.0852  0.0537 -0.3284
 1011SOL     OW 3809   3.486   5.334   1.237 -0.1227  0.5143 -0.3742
 1011SOL    HW2 3810   3.556   5.394   1.261  0.5655 -0.8910  1.2786
 1011SOL    HW3 3811   3.430   5.386   1.178  0.5490  2.6850  0.7845
 1011SOL    MW4 3812   3.488   5.349   1.232  0.0927 -0.4678  0.1853
 1012SOL     OW 3813   2.283   6.176   4.190 -0.2681  0.5240  0.0329
 1012SOL    HW2 3814   2.272   6.207   4.280 -1.3370  1.1017 -0.2825
 1012SOL    HW3 3815   2.371   6.205   4.165  0.4623 -0.5453  1.2184
 1012SOL    MW4 3816   2.293   6.184   4.198 -0.7369  0.2708 -0.1284
 1013SOL     OW 3817   5.644   4.074   2.867 -0.3108  0.1005  0.1214
 1013SOL    HW2 3818   5.624   4.127   2.790 -0.7393  2.3324  1.6901
 1013SOL    HW3 3819   5.559   4.038   2.894 -0.3303  0.1547  0.1333
 1013SOL    MW4 3820   5.630   4.076   2.861 -0.3100 -0.5311  0.1062
 1014SOL     OW 3821   3.385   1.972   5.368 -0.1397  0.3348 -0.2879
 1014SOL    HW2 3822   3.374   2.065   5.350 -1.2416  0.5811  1.3798
 1014SOL    HW3 3823   3.297   1.935   5.361  0.0584 -0.3101  0.3987
 1014SOL    MW4 3824   3.372   1.979   5.365 -0.0951  0.0136 -0.7355
 1015SOL     OW 3825   5.641   1.686   4.917  0.1443  0.6516  0.0461
 1015SOL    HW2 3826   5.584   1.647   4.851  0.4000  0.3869 -0.0161
 1015SOL    HW3 3827   5.729   1.655   4.895  0.0974 -0.3539  1.1653
 1015SOL    MW4 3828   5.645   1.677   4.905  0.5999 -0.3786  0.2617
 1016SOL     OW 3829   3.230   0.627   1.679  0.2336 -0.5941 -0.3702
 1016SOL    HW2 3830   3.162   0.561   1.665 -0.1315 -0.1526 -0.7142
 1016SOL    HW3 3831   3.288   0.617   1.604  0.0708 -0.3909 -0.5217
 1016SOL    MW4 3832   3.229   0.617   1.667 -0.0371 -0.3880 -0.6032
 1017SOL     OW 3833   3.297   5.221   2.148 -0.0475 -0.3845  0.5024
 1017SOL    HW2 3834   3.337   5.273   2.079 -0.3169  1.1237  1.4517
 1017SOL    HW3 3835   3.235   5.280   2.190  0.5980 -1.0409  2.4876
 1017SOL    MW4 3836   3.294   5.235   2.145 -0.4054 -0.1830  0.6713
 1018SOL     OW 3837   5.062   3.236   1.122  0.0695 -0.2689 -0.0871
 1018SOL    HW2 3838   5.012   3.232   1.203  0.7432 -2.8063  0.2837
 1018SOL    HW3 3839   5.153   3.223   1.150  0.5139  0.5137 -1.1101
 1018SOL    MW4 3840   5.068   3.234   1.137  0.0864 -0.6819 -0.2349
 1019SOL     OW 3841   2.339   3.486   0.437  0.1275  0.0108 -0.5826
 1019SOL    HW2 3842   2.263   3.530   0.399  1.5084  0.8720 -2.4789
 1019SOL    HW3 3843   2.337   3.398   0.400 -1.0575 -0.6861  1.0148
 1019SOL    MW4 3844   2.329   3.480   0.427  0.1887  0.0528 -0.1864
 1020SOL     OW 3845   5.322   4.938   1.568  0.8934 -0.5503  0.5263
 1020SOL    HW2 3846   5.247   4.959   1.513  0.7403 -1.5042  0.3602
 1020SOL    HW3 3847   5.316   4.998   1.642 -0.8829 -1.5968  1.2904
 1020SOL    MW4 3848   5.312   4.949   1.570  0.0991 -0.1511  0.7379
 1021SOL     OW 3849   5.937   4.220   6.094  0.0176 -0.0417  0.5100
 1021SOL    HW2 3850   6.016   4.254   6.137 -0.4478 -0.7448  1.9923
 1021SOL    HW3 3851   5.885   4.298   6.075  2.1941  0.7548 -3.0592
 1021SOL    MW4 3852   5.940   4.235   6.097  0.6449 -0.0632  0.5918
 1022SOL     OW 3853   5.070   2.962   6.235 -0.1122  0.1231 -0.5223
 1022SOL    HW2 3854   5.072   2.893   6.301  0.1324 -1.3798 -2.0510
 1022SOL    HW3 3855   5.083   2.917   6.152  2.3595  2.2413 -1.4051
 1022SOL    MW4 3856   5.072   2.947   6.233  0.1183 -0.2370 -0.0973
 1023SOL     OW 3857   3.678   5.519   1.303  0.6657  0.2401 -0.1498
 1023SOL    HW2 3858   3.609   5.573   1.341  0.8359 -0.6527  1.5211
 1023SOL    HW3 3859   3.710   5.465   1.376  3.2741  0.7616 -0.7878
 1023SOL    MW4 3860   3.673   5.519   1.318  0.4578  0.3297 -0.2909
 1024SOL     OW 3861   0.349   1.085   4.931 -0.4302 -0.0407 -0.4660
 1024SOL    HW2 3862   0.370   1.178   4.923 -0.6626  0.0953  0.3215
 1024SOL    HW3 3863   0.274   1.072   4.874 -1.1314  0.5285  0.2967
 1024SOL    MW4 3864   0.342   1.096   4.923 -0.6094 -0.3702 -0.2839
 1025SOL     OW 3865   0.982   2.681   2.619  0.0877 -0.5466  0.4517
 1025SOL    HW2 3866   0.932   2.737   2.559  1.7427 -1.9568 -2.4955
 1025SOL    HW3 3867   1.024   2.742   2.679  1.1794  1.4350 -2.1023
 1025SOL    MW4 3868   0.981   2.696   2.619 -0.9445  0.0893 -0.0432
 1026SOL     OW 3869   1.355   0.352   2.352  0.3233 -0.0480 -0.1659
 1026SOL    HW2 3870   1.412   0.426   2.332 -1.0349  0.7098 -1.4268
 1026SOL    HW3 3871   1.381   0.285   2.289  1.3185 -0.5567  0.7500
 1026SOL    MW4 3872   1.366   0.353   2.341  0.3284  0.3508  0.6625
 1027SOL     OW 3873   5.301   2.863   5.240  0.4820 -0.2135 -0.4819
 1027SOL    HW2 3874   5.321   2.774   5.213 -0.3951  0.0205 -2.0288
 1027SOL    HW3 3875   5.333   2.918   5.168  1.2418  0.7737  0.5519
 1027SOL    MW4 3876   5.308   2.859   5.227 -0.2403 -0.2283 -0.5906
 1028SOL     OW 3877   4.356   5.566   5.350  0.0429  0.1622 -0.2609
 1028SOL    HW2 3878   4.396   5.653   5.343  0.9333 -0.3529 -2.1000
 1028SOL    HW3 3879   4.424   5.506   5.321 -0.8461 -1.0871  0.1794
 1028SOL    MW4 3880   4.370   5.570   5.345 -0.2975 -0.4587 -0.0236
 1029SOL     OW 3881   5.270   6.066   6.402  0.1022  0.3017  0.1522
 1029SOL    HW2 3882   5.245   6.010   6.476 -0.0980 -0.4011 -0.4335
 1029SOL    HW3 3883   5.356   6.034   6.376 -1.0319 -1.4613 -1.7670
 1029SOL    MW4 3884   5.278   6.054   6.409  0.3091 -0.1296  0.0453
 1030SOL     OW 3885   5.143   4.298   2.894  0.4406 -0.1385  0.1852
 1030SOL    HW2 3886   5.061   4.274   2.938  0.1695 -0.6010 -0.5644
 1030SOL    HW3 3887   5.208   4.295   2.964 -0.1264 -0.0395  0.7338
 1030SOL    MW4 3888   5.140   4.295   2.909 -0.1074  0.2956  0.0027
 1031SOL     OW 3889   5.863   1.483   1.291  0.2987  0.0371  0.4725
 1031SOL    HW2 3890   5.785   1.451   1.246 -0.4989  0.8231  1.2325
 1031SOL    HW3 3891   5.874   1.573   1.260  0.7923 -0.0065  0.5129
 1031SOL    MW4 3892   5.854   1.491   1.281  0.2149 -0.3514 -0.3181
 1032SOL     OW 3893   3.513   2.149   4.901 -0.0056  0.1807 -0.1395
 1032SOL    HW2 3894   3.446   2.080   4.899 -0.6060  0.7575 -0.4053
 1032SOL    HW3 3895   3.532   2.161   4.994 -0.2308 -0.0325 -0.0654
 1032SOL    MW4 3896   3.506   2.141   4.913 -0.1913  0.6957 -0.2479
 1033SOL     OW 3897   2.063   1.034   4.668 -0.3426  0.1513 -0.7414
 1033SOL    HW2 3898   2.011   1.044   4.588  1.0462 -0.3253 -1.7637
 1033SOL    HW3 3899   2.152   1.058   4.641  0.1679 -0.1080  0.6479
 1033SOL    MW4 3900   2.068   1.038   4.654  0.1301 -0.2840 -0.4573
 1034SOL     OW 3901   5.487   1.135   1.713  0.0924 -0.3795  0.2133
 1034SOL    HW2 3902   5.528   1.155   1.629  2.4313 -0.4624  1.2866
 1034SOL    HW3 3903   5.503   1.212   1.767  0.9270 -1.3680  1.4031
 1034SOL    MW4 3904   5.494   1.148   1.709  0.2756  0.1464  0.1007
 1035SOL     OW 3905   2.454   1.816   0.822 -0.6028 -0.0039  0.0492
 1035SOL    HW2 3906   2.501   1.773   0.894 -1.3554 -2.1606 -0.6781
 1035SOL    HW3 3907   2.518   1.876   0.784  0.5722 -0.6319  0.9700
 1035SOL    MW4 3908   2.469   1.818   0.827 -0.3312  0.2097 -0.1861
 1036SOL     OW 3909   6.031   3.623   0.232  0.0189 -0.1954 -0.3701
 1036SOL    HW2 3910   6.007   3.553   0.293  0.5270  0.9959  1.2660
 1036SOL    HW3 3911   6.018   3.585   0.145  2.6622 -3.1960  0.3740
 1036SOL    MW4 3912   6.026   3.609   0.229 -0.4905 -0.3396 -0.1280
 1037SOL     OW 3913   2.123   5.925   0.446  0.2482  0.6956 -0.1836
 1037SOL    HW2 3914   2.076   5.853   0.402  0.4341  0.2137  0.3924
 1037SOL    HW3 3915   2.174   5.882   0.514 -0.2925  1.4597  0.7363
 1037SOL    MW4 3916   2.124   5.910   0.449 -0.0148 -0.1499  0.4856
 1038SOL     OW 3917   2.235   6.349   3.510 -0.0102 -0.0412  0.0749
 1038SOL    HW2 3918   2.241   6.431   3.460 -1.5734 -0.7775 -1.4353
 1038SOL    HW3 3919   2.299   6.359   3.580  1.3291  1.6147 -1.2824
 1038SOL    MW4 3920   2.244   6.361   3.512 -0.4949 -0.0381 -0.1470
 1039SOL     OW 3921   5.613   2.443   4.450  0.3521  0.1995 -0.7034
 1039SOL    HW2 3922   5.698   2.466   4.489  1.1726 -1.3664 -1.4737
 1039SOL    HW3 3923   5.549   2.460   4.519  1.6436 -1.5606  1.0350
 1039SOL    MW4 3924   5.616   2.448   4.464 -0.9208 -0.2349  0.2481
 1040SOL     OW 3925   1.867   1.375   5.757  0.5734  0.5413  0.1066
 1040SOL    HW2 3926   1.845   1.285   5.781  2.3461 -0.0412 -0.2355
 1040SOL    HW3 3927   1.803   1.429   5.802  0.9642 -0.7554  2.3504
 1040SOL    MW4 3928   1.856   1.370   5.766  0.5261  0.6003 -0.0002
 1041SOL     OW 3929   4.149   2.947   1.413 -0.9334 -0.6643  0.2681
 1041SOL    HW2 3930   4.222   2.893   1.383 -0.8317 -1.7334  2.2505
 1041SOL    HW3 3931   4.105   2.892   1.478 -0.2649  1.9356  3.1379
 1041SOL    MW4 3932   4.153   2.933   1.417  0.0507  0.2966  0.2563
 1042SOL     OW 3933   4.371   3.546   3.262  0.1275 -0.7219 -0.1348
 1042SOL    HW2 3934   4.292   3.572   3.310 -1.1209 -1.0981 -1.9038
 1042SOL    HW3 3935   4.420   3.627   3.251  0.5690 -0.6425  1.8800
 1042SOL    MW4 3936   4.367   3.560   3.267  0.2914 -0.1801  0.2805
 1043SOL     OW 3937   5.684   2.886   2.672  0.0576 -0.0032  0.2086
 1043SOL    HW2 3938   5.675   2.928   2.758 -0.9980  0.1789  0.0172
 1043SOL    HW3 3939   5.616   2.819   2.671 -0.5964  0.6581 -0.8688
 1043SOL    MW4 3940   5.674   2.883   2.683  0.2108  0.1914 -0.1463
 1044SOL     OW 3941   4.490   1.818   4.503 -0.3231 -0.0800  1.0050
 1044SOL    HW2 3942   4.405   1.777   4.519 -0.3891 -0.4593 -0.2199
 1044SOL    HW3 3943   4.468   1.905   4.470 -0.2606 -0.3657  0.1875
 1044SOL    MW4 3944   4.476   1.824   4.501  0.2786  0.3124 -0.3804
 1045SOL     OW 3945   0.072   3.845   0.921 -0.1349  0.2085 -0.1964
 1045SOL    HW2 3946   0.108   3.921   0.968 -0.3580 -0.5057  1.1788
 1045SOL    HW3 3947   0.069   3.873   0.829  3.0846  0.6398 -0.2794
 1045SOL    MW4 3948   0.076   3.859   0.915 -0.3953 -0.0366 -0.0082
 1046SOL     OW 3949   5.826   5.991   4.981 -0.8445 -0.1055  0.1082
 1046SOL    HW2 3950   5.783   6.012   4.898 -0.8839  0.8317  0.3595
 1046SOL    HW3 3951   5.912   6.033   4.975 -0.7986 -0.1395  0.4947
 1046SOL    MW4 3952   5.832   5.999   4.969  0.2068 -0.1712 -0.1241
 1047SOL     OW 3953   1.800   3.742   5.776 -0.0333  0.1797  0.0831
 1047SOL    HW2 3954   1.760   3.657   5.759 -1.7831  0.8336  0.6949
 1047SOL    HW3 3955   1.803   3.785   5.690  1.9978 -0.9128 -0.4484
 1047SOL    MW4 3956   1.795   3.737   5.762  0.0967 -0.0963 -0.2224
 1048SOL     OW 3957   2.997   0.015   0.975 -0.0728  0.6226 -0.0037
 1048SOL    HW2 3958   2.979   0.062   0.894 -0.5879  1.7995  0.7660
 1048SOL    HW3 3959   2.937  -0.059   0.973 -0.2652  0.7890 -0.5756
 1048SOL    MW4 3960   2.987   0.011   0.964  0.2869  0.5218 -0.0282
 1049SOL     OW 3961   1.161   3.736   3.147  0.0811 -0.0719  0.8854
 1049SOL    HW2 3962   1.069   3.729   3.123  0.1292 -0.4555  0.8056
 1049SOL    HW3 3963   1.181   3.830   3.142 -0.1295 -0.0604  0.2570
 1049SOL    MW4 3964   1.152   3.747   3.143  0.0740 -0.1872  0.0359
 1050SOL     OW 3965   0.572   0.595   5.397 -0.1844 -0.5596 -0.2788
 1050SOL    HW2 3966   0.494   0.639   5.361 -0.7766 -0.5987  0.9207
 1050SOL    HW3 3967   0.627   0.578   5.320 -0.5761  0.9951 -0.9440
 1050SOL    MW4 3968   0.569   0.598   5.382  0.3937  0.1041  0.2272
 1051SOL     OW 3969   2.920   4.833   5.197  0.1445 -0.1393  0.2929
 1051SOL    HW2 3970   3.006   4.794   5.211  0.5247  0.6946  0.3570
 1051SOL    HW3 3971   2.939   4.921   5.163 -0.6671  0.2507  0.8236
 1051SOL    MW4 3972   2.934   4.840   5.194  0.2370 -0.1358 -0.3400
 1052SOL     OW 3973   5.432   3.504   5.823  0.0256 -0.7057 -0.5575
 1052SOL    HW2 3974   5.519   3.500   5.862 -0.1490  0.9879  0.0743
 1052SOL    HW3 3975   5.379   3.445   5.877  0.5408 -0.9864 -0.3493
 1052SOL    MW4 3976   5.436   3.495   5.835  0.2169 -0.3254  0.1490
 1053SOL     OW 3977   1.128   4.976   5.173 -0.6983  0.0091 -0.1509
 1053SOL    HW2 3978   1.116   4.909   5.106  0.2702  0.9126 -1.2518
 1053SOL    HW3 3979   1.122   4.928   5.256 -1.4905 -1.1863 -0.8787
 1053SOL    MW4 3980   1.126   4.961   5.175 -0.0112  0.5536  0.3385
 1054SOL     OW 3981   1.444   4.369   3.430 -0.1460  0.1706  0.6877
 1054SOL    HW2 3982   1.408   4.290   3.472  0.8514 -0.8777 -0.3435
 1054SOL    HW3 3983   1.521   4.390   3.482  0.3446 -0.3458  0.1819
 1054SOL    MW4 3984   1.449   4.361   3.442  0.3451 -0.1276 -0.0123
 1055SOL     OW 3985   1.442   3.497   5.575 -0.4747 -0.5290  0.0542
 1055SOL    HW2 3986   1.350   3.482   5.598  0.1195 -1.2752  2.1839
 1055SOL    HW3 3987   1.461   3.431   5.508 -1.3807 -0.6153 -0.1354
 1055SOL    MW4 3988   1.432   3.486   5.569  0.2995  0.0579  0.2019
 1056SOL     OW 3989   2.288   4.181   1.654  0.4315 -0.4145 -0.3585
 1056SOL    HW2 3990   2.266   4.116   1.719  2.2885 -2.6268 -1.7845
 1056SOL    HW3 3991   2.361   4.230   1.692  2.3705 -2.5354 -1.1307
 1056SOL    MW4 3992   2.295   4.179   1.667  0.1753  0.8119 -0.1713
 1057SOL     OW 3993   3.257   1.956   2.350  0.4980 -0.2391  0.0587
 1057SOL    HW2 3994   3.233   2.045   2.375  0.3933 -0.5483  1.1467
 1057SOL    HW3 3995   3.253   1.955   2.255  0.5374  0.9249  0.0308
 1057SOL    MW4 3996   3.253   1.968   2.341  0.6502 -0.3423 -0.9051
 1058SOL     OW 3997   1.173   3.817   5.156 -0.4284 -0.4598  0.3662
 1058SOL    HW2 3998   1.190   3.727   5.183 -1.3392 -0.5490  0.7009
 1058SOL    HW3 3999   1.201   3.870   5.230 -1.4168 -0.5975  0.8692
 1058SOL    MW4 4000   1.179   3.812   5.169  0.5374 -0.1077 -0.0658
 1059SOL     OW 4001   1.335   0.520   3.289  0.0235 -0.1973 -0.1092
 1059SOL    HW2 4002   1.399   0.451   3.270  0.8885  1.0541 -2.0042
 1059SOL    HW3 4003   1.310   0.554   3.204 -1.1152  1.2116  0.7391
 1059SOL    MW4 4004   1.340   0.515   3.275 -0.3687  0.4064  0.0139
 1060SOL     OW 4005   1.547   3.296   2.313  0.2307  0.2774  0.7334
 1060SOL    HW2 4006   1.495   3.231   2.360 -0.0226  0.9837  1.4469
 1060SOL    HW3 4007   1.619   3.317   2.372 -0.7978  2.1259  1.3962
 1060SOL    MW4 4008   1.550   3.290   2.327 -0.0717  0.1123 -0.1757
 1061SOL     OW 4009   5.024   1.491   1.442  0.5978  0.0303 -0.1064
 1061SOL    HW2 4010   4.958   1.444   1.391 -0.4234  1.5319 -0.2408
 1061SOL    HW3 4011   4.990   1.492   1.531  1.3518 -0.7691  0.1993
 1061SOL    MW4 4012   5.010   1.485   1.447 -0.1123  0.3769 -0.4082
 1062SOL     OW 4013   4.759   5.244   2.402  0.3790  0.1266 -0.4731
 1062SOL    HW2 4014   4.694   5.231   2.333 -0.3735 -0.1411  0.2761
 1062SOL    HW3 4015   4.709   5.277   2.476  1.1107 -0.0263  0.0969
 1062SOL    MW4 4016   4.744   5.247   2.403 -0.1951 -0.3746 -0.0295
 1063SOL     OW 4017   0.198   6.361   4.006 -0.6706 -0.0559 -0.0365
 1063SOL    HW2 4018   0.259   6.409   4.062 -2.5056  2.9162 -0.3479
 1063SOL    HW3 4019   0.251   6.329   3.933  0.8293  0.7477  0.6707
 1063SOL    MW4 4020   0.213   6.363   4.004  0.6690  0.6092 -0.3651
 1064SOL     OW 4021   4.866   5.019   1.151  0.2934 -0.1546 -0.2813
 1064SOL    HW2 4022   4.923   4.942   1.145  0.4294 -0.2716  1.8081
 1064SOL    HW3 4023   4.799   4.995   1.214  0.1494  1.3354  0.1773
 1064SOL    MW4 4024   4.865   5.006   1.158 -0.2927 -0.1435  0.2918
 1065SOL     OW 4025   3.724   5.220   3.611 -0.4418  0.0159 -0.2614
 1065SOL    HW2 4026   3.640   5.224   3.564 -0.8733 -0.5574  0.4449
 1065SOL    HW3 4027   3.701   5.190   3.699  0.6804 -1.8779 -0.5593
 1065SOL    MW4 4028   3.710   5.216   3.616 -0.6942  0.5808 -0.3180
 1066SOL     OW 4029   3.664   5.132   3.862  0.3505 -0.3368  0.2343
 1066SOL    HW2 4030   3.628   5.216   3.889 -0.9966 -0.7282 -0.2596
 1066SOL    HW3 4031   3.648   5.074   3.936  0.7338 -0.3138  0.3376
 1066SOL    MW4 4032   3.657   5.136   3.875 -0.1271  0.2623  0.0828
 1067SOL     OW 4033   5.110   1.258   1.905 -0.2471  0.2374  0.3242
 1067SOL    HW2 4034   5.025   1.215   1.895 -0.8041  1.5082 -0.8459
 1067SOL    HW3 4035   5.108   1.328   1.840  2.4795 -0.8696 -1.1100
 1067SOL    MW4 4036   5.098   1.262   1.895 -0.4823 -0.3937  0.0752
 1068SOL     OW 4037   5.241   5.531   1.189 -0.1389  0.0380  0.2045
 1068SOL    HW2 4038   5.233   5.450   1.138  1.9840 -0.0079 -0.1618
 1068SOL    HW3 4039   5.189   5.515   1.267 -2.2080 -0.4989 -1.1939
 1068SOL    MW4 4040   5.233   5.518   1.192 -0.2295  0.8361  0.5522
 1069SOL     OW 4041   4.000   3.723   0.974 -0.1173 -0.2341  0.3638
 1069SOL    HW2 4042   4.047   3.793   1.019  3.1118 -0.3980 -2.3914
 1069SOL    HW3 4043   3.925   3.767   0.933 -0.1386  0.8777  1.5489
 1069SOL    MW4 4044   3.996   3.738   0.974  0.1150  0.6556  0.6799
 1070SOL     OW 4045   0.632   1.074   0.929 -0.2405  0.0681  0.5465
 1070SOL    HW2 4046   0.636   1.102   0.838  0.4240 -0.6828  0.3312
 1070SOL    HW3 4047   0.708   1.116   0.970  0.0550 -0.4082  0.5024
 1070SOL    MW4 4048   0.643   1.083   0.922  0.2390 -0.0984 -0.3830
 1071SOL     OW 4049   5.501   5.848   4.293 -0.1931  0.2983 -0.1019
 1071SOL    HW2 4050   5.573   5.785   4.291 -1.1340 -0.8310 -2.5178
 1071SOL    HW3 4051   5.518   5.908   4.221 -1.1028  0.6733 -0.0237
 1071SOL    MW4 4052   5.512   5.847   4.284 -0.5460  0.0847  0.2693
 1072SOL     OW 4053   2.163   0.118   5.344  0.2871 -0.3338 -0.1054
 1072SOL    HW2 4054   2.090   0.146   5.288 -0.0983 -3.0376 -1.0922
 1072SOL    HW3 4055   2.200   0.200   5.378 -1.3690  1.2550 -1.8970
 1072SOL    MW4 4056   2.158   0.133   5.341 -0.7761 -0.2895 -0.0164
 1073SOL     OW 4057   4.782   0.950   0.986  0.3057 -0.9833  0.3079
 1073SOL    HW2 4058   4.852   0.889   1.011  1.7017  0.8833  1.2305
 1073SOL    HW3 4059   4.826   1.017   0.934 -1.1448 -0.6170 -0.5114
 1073SOL    MW4 4060   4.797   0.951   0.983 -0.0471  0.1178 -0.1855
 1074SOL     OW 4061   1.605   3.698   3.484  0.4701 -0.3270 -0.3886
 1074SOL    HW2 4062   1.548   3.774   3.478 -0.1648 -0.7314  0.2576
 1074SOL    HW3 4063   1.592   3.651   3.402 -2.3857 -1.9247  0.8279
 1074SOL    MW4 4064   1.596   3.701   3.472  0.3057 -0.0543 -0.6343
 1075SOL     OW 4065   4.999   1.815   5.391  0.8129  0.2316  0.5771
 1075SOL    HW2 4066   4.907   1.802   5.369  1.2119 -0.8621 -0.5750
 1075SOL    HW3 4067   5.032   1.727   5.408  2.3715  0.1832 -2.1450
 1075SOL    MW4 4068   4.991   1.802   5.391  0.0789  0.1064  0.0820
 1076SOL     OW 4069   1.673   6.208   1.101  0.2401  0.1333  0.0372
 1076SOL    HW2 4070   1.667   6.112   1.101  0.7304  0.0856  0.9968
 1076SOL    HW3 4071   1.767   6.226   1.113  0.5010  0.7570 -2.4241
 1076SOL    MW4 4072   1.685   6.198   1.103  0.5571 -0.0871  0.4672
 1077SOL     OW 4073   5.991   3.339   3.024 -0.2356 -0.7975  0.3665
 1077SOL    HW2 4074   5.982   3.432   3.043 -2.4238 -1.1552  1.3493
 1077SOL    HW3 4075   6.022   3.300   3.105  0.4257 -0.9617  0.0371
 1077SOL    MW4 4076   5.994   3.346   3.037  0.1062  0.7141 -0.2956
 1078SOL     OW 4077   5.345   0.652   5.683  0.1031  0.0747  0.4425
 1078SOL    HW2 4078   5.290   0.622   5.610 -0.5309 -1.2403  1.4240
 1078SOL    HW3 4079   5.332   0.747   5.684  1.9748  0.5244 -2.5968
 1078SOL    MW4 4080   5.336   0.660   5.673  1.1011  0.1044  0.6266
 1079SOL     OW 4081   3.572   0.542   3.209  0.0907  0.4252 -0.5549
 1079SOL    HW2 4082   3.540   0.470   3.154  1.4388  0.8444 -1.9610
 1079SOL    HW3 4083   3.637   0.502   3.266  0.8953  0.5205 -1.3885
 1079SOL    MW4 4084   3.576   0.527   3.209 -0.5244  0.3934 -0.2784
 1080SOL     OW 4085   4.277   1.089   4.858  0.0954 -0.8305  0.4031
 1080SOL    HW2 4086   4.342   1.154   4.883 -0.4514  0.0346 -0.3921
 1080SOL    HW3 4087   4.193   1.132   4.870 -0.3147 -1.6535  0.5924
 1080SOL    MW4 4088   4.274   1.103   4.863 -0.5205  0.2236 -0.2116
 1081SOL     OW 4089   3.008   0.811   4.038 -0.2679 -0.2657 -0.0830
 1081SOL    HW2 4090   2.950   0.776   3.970  0.1529  1.1263 -1.1992
 1081SOL    HW3 4091   3.076   0.858   3.990  0.9446 -0.5819  1.2634
 1081SOL    MW4 4092   3.009   0.813   4.022 -0.0983  0.0551 -0.0980
 1082SOL     OW 4093   5.463   3.337   0.267  0.4847 -0.0297 -0.3124
 1082SOL    HW2 4094   5.406   3.392   0.213  0.8872  0.1742 -0.5291
 1082SOL    HW3 4095   5.527   3.397   0.304  1.6728 -0.5097 -1.5175
 1082SOL    MW4 4096   5.464   3.352   0.265  0.6711  0.2054 -0.0360
 1083SOL     OW 4097   3.288   4.818   4.066  0.4254  0.3162 -0.4641
 1083SOL    HW2 4098   3.332   4.823   4.151  3.4273 -1.7111 -1.7150
 1083SOL    HW3 4099   3.308   4.902   4.024 -0.0552  0.8517  0.3447
 1083SOL    MW4 4100   3.297   4.830   4.072 -0.4788  0.8922 -0.1314
 1084SOL     OW 4101   3.197   2.861   3.958 -0.2021 -0.1068  0.0584
 1084SOL    HW2 4102   3.271   2.806   3.986  0.4093  0.8979  0.4560
 1084SOL    HW3 4103   3.136   2.799   3.918  0.9427 -0.9355 -0.4737
 1084SOL    MW4 4104   3.198   2.845   3.956 -0.2841  0.0789  0.4498
 1085SOL     OW 4105   3.482   3.717   1.474  0.5500 -0.3428  0.1374
 1085SOL    HW2 4106   3.487   3.624   1.499  1.2235 -0.9149 -1.8956
 1085SOL    HW3 4107   3.398   3.725   1.429  0.0589  0.2932  1.1285
 1085SOL    MW4 4108   3.471   3.705   1.471 -0.3470  0.0425  0.6291
 1086SOL     OW 4109   0.258   5.785   4.175  0.2010  0.1515  0.2498
 1086SOL    HW2 4110   0.246   5.818   4.087 -0.6199 -0.9171 -0.0721
 1086SOL    HW3 4111   0.255   5.689   4.165 -1.9259 -0.0131  1.6367
 1086SOL    MW4 4112   0.256   5.777   4.162 -0.0593 -0.3480 -0.3279
 1087SOL     OW 4113   3.301   3.100   5.660 -0.0184 -0.3071  0.3818
 1087SOL    HW2 4114   3.352   3.023   5.634 -1.2534  0.3026 -5.1185
 1087SOL    HW3 4115   3.307   3.158   5.584 -2.6392  3.1851  2.5835
 1087SOL    MW4 4116   3.309   3.097   5.646  0.2014 -0.0718  0.2125
 1088SOL     OW 4117   6.433   4.925   1.621  0.1340 -0.0747  0.3150
 1088SOL    HW2 4118   6.362   4.885   1.571 -0.7984  1.9992 -0.1007
 1088SOL    HW3 4119   6.503   4.936   1.558  0.3234 -0.8162  0.3836
 1088SOL    MW4 4120   6.433   4.921   1.606 -0.8358  0.2591  0.2773
 1089SOL     OW 4121   4.654   5.365   1.690 -0.4261 -0.5192  0.1751
 1089SOL    HW2 4122   4.690   5.438   1.640 -0.8086 -1.0703 -0.9377
 1089SOL    HW3 4123   4.628   5.404   1.774  0.9712  0.2629  0.2764
 1089SOL    MW4 4124   4.655   5.380   1.695  0.1965 -0.4864  0.1782
 1090SOL     OW 4125   4.363   5.338   4.289  0.1111  0.0417 -0.3856
 1090SOL    HW2 4126   4.324   5.425   4.300 -0.1820 -0.1300 -0.0100
 1090SOL    HW3 4127   4.385   5.333   4.196 -0.7738  0.1479 -0.6107
 1090SOL    MW4 4128   4.361   5.349   4.278  0.2059  0.2605  0.0831
 1091SOL     OW 4129   5.213   0.892   4.631 -0.4721  0.0737  0.1968
 1091SOL    HW2 4130   5.234   0.970   4.682 -0.7134  0.5255 -0.3850
 1091SOL    HW3 4131   5.267   0.823   4.669 -0.1279  0.5618  0.6062
 1091SOL    MW4 4132   5.223   0.893   4.643 -0.9426 -0.5653 -0.1130
 1092SOL     OW 4133   1.101   4.762   2.723 -0.0112  0.1867 -0.4106
 1092SOL    HW2 4134   1.194   4.742   2.714  0.2503  1.5184 -0.8348
 1092SOL    HW3 4135   1.092   4.799   2.810  0.4399  2.9237 -1.4458
 1092SOL    MW4 4136   1.112   4.764   2.733  0.0292 -0.6879 -0.3536
 1093SOL     OW 4137   4.563   1.139   3.351  0.0480 -0.0543  0.5461
 1093SOL    HW2 4138   4.541   1.127   3.443 -0.2158  0.3346  0.5376
 1093SOL    HW3 4139   4.606   1.225   3.348 -1.8526  0.9524  0.0110
 1093SOL    MW4 4140   4.566   1.149   3.362 -0.6746 -0.2121 -0.4384
 1094SOL     OW 4141   5.238   5.766   3.878  0.4194  0.3245  0.4740
 1094SOL    HW2 4142   5.193   5.829   3.822  0.8980  0.8346  0.6579
 1094SOL    HW3 4143   5.295   5.820   3.934 -1.2855  0.0137  2.6502
 1094SOL    MW4 4144   5.239   5.782   3.878 -0.3825  0.6567  0.1971
 1095SOL     OW 4145   0.068   0.116   4.809  0.1685  0.2036 -0.1202
 1095SOL    HW2 4146   0.019   0.060   4.870  0.3697  0.9360  0.7337
 1095SOL    HW3 4147   0.158   0.085   4.816  0.1497  0.1218 -0.2389
 1095SOL    MW4 4148   0.073   0.104   4.818  0.0636 -0.5873  0.5140
 1096SOL     OW 4149   4.542   4.192   1.502 -0.3703 -0.2293 -0.0559
 1096SOL    HW2 4150   4.478   4.187   1.431  0.8404  1.6118 -1.3399
 1096SOL    HW3 4151   4.528   4.278   1.542  1.1696  0.1655 -0.2854
 1096SOL    MW4 4152   4.532   4.202   1.498 -0.1861 -0.2637 -0.5705
 1097SOL     OW 4153   4.924   2.144   4.205 -0.3044 -0.0441 -0.4460
 1097SOL    HW2 4154   4.957   2.136   4.116  0.1833 -1.7482 -0.1425
 1097SOL    HW3 4155   4.917   2.239   4.219  1.4860  0.3153 -1.6025
 1097SOL    MW4 4156   4.927   2.156   4.195 -0.0039 -0.1947 -0.2736
 1098SOL     OW 4157   2.821   4.628   5.039 -0.2739 -0.1914  0.1955
 1098SOL    HW2 4158   2.762   4.571   5.089 -1.5202  0.3293 -0.6208
 1098SOL    HW3 4159   2.840   4.701   5.097 -3.3670  1.4729 -0.6551
 1098SOL    MW4 4160   2.816   4.630   5.053 -0.2264 -0.0146 -0.3891
 1099SOL     OW 4161   1.763   6.096   0.277 -0.5924 -0.3660  0.2956
 1099SOL    HW2 4162   1.671   6.125   0.273 -1.6207 -3.1152  1.4072
 1099SOL    HW3 4163   1.757   6.002   0.293  2.4617 -0.5016  1.1560
 1099SOL    MW4 4164   1.750   6.087   0.278 -0.1648  0.5673 -0.1628
 1100SOL     OW 4165   6.287   0.067   2.442  0.2531  0.0982  0.0063
 1100SOL    HW2 4166   6.222   0.105   2.382  0.6628 -0.3868 -0.7647
 1100SOL    HW3 4167   6.261  -0.025   2.449  0.0842  0.2020  0.7497
 1100SOL    MW4 4168   6.275   0.060   2.435 -0.1183 -0.0825 -0.0898
 1101SOL     OW 4169   0.978   5.323   2.492  0.4157  0.8300  0.1572
 1101SOL    HW2 4170   0.921   5.297   2.565  1.0713  0.8441  0.6798
 1101SOL    HW3 4171   0.968   5.252   2.428 -0.9565  1.3175 -0.2043
 1101SOL    MW4 4172   0.969   5.310   2.494 -0.3195  0.2664 -0.4541
 1102SOL     OW 4173   2.336  -0.010   0.380  0.0883 -0.2342 -0.2299
 1102SOL    HW2 4174   2.302  -0.090   0.339  0.7928 -0.4387 -0.4217
 1102SOL    HW3 4175   2.412   0.014   0.327 -0.9468  1.3995 -1.0816
 1102SOL    MW4 4176   2.341  -0.017   0.367 -0.0032 -0.0178 -0.0749
 1103SOL     OW 4177   5.490   3.774   5.803 -0.0823  0.0185  0.1088
 1103SOL    HW2 4178   5.402   3.789   5.771 -0.7244 -1.4323  1.0713
 1103SOL    HW3 4179   5.493   3.680   5.821  2.6733 -0.6463 -2.8531
 1103SOL    MW4 4180   5.479   3.764   5.801 -0.2155  0.6892 -0.4403
 1104SOL     OW 4181   2.338   0.879   0.688 -1.1830  0.3716  0.7826
 1104SOL    HW2 4182   2.388   0.833   0.621 -2.0520 -0.2086  0.5199
 1104SOL    HW3 4183   2.404   0.931   0.735 -0.3326 -0.4092  0.4875
 1104SOL    MW4 4184   2.354   0.880   0.685  0.2727  0.2338  0.5110
 1105SOL     OW 4185   2.817   6.064   6.379 -0.7505 -0.7458  0.6978
 1105SOL    HW2 4186   2.824   6.114   6.298 -1.2069 -2.0291 -0.1595
 1105SOL    HW3 4187   2.908   6.044   6.402 -0.6770 -1.9289 -0.5149
 1105SOL    MW4 4188   2.830   6.068   6.372 -0.0195  0.1285  0.2092
 1106SOL     OW 4189   1.840   2.968   0.579 -0.5885  0.3574 -0.0424
 1106SOL    HW2 4190   1.832   3.039   0.516  0.3463 -0.9782 -1.7668
 1106SOL    HW3 4191   1.769   2.908   0.556  0.2509 -0.5290 -0.3570
 1106SOL    MW4 4192   1.829   2.969   0.568  0.4807 -0.0432 -0.4347
 1107SOL     OW 4193   2.579   3.352   1.644  0.6158 -0.2084  0.1796
 1107SOL    HW2 4194   2.668   3.372   1.672  1.9831 -2.6174 -1.9491
 1107SOL    HW3 4195   2.577   3.375   1.551 -1.5285  1.2048  0.5022
 1107SOL    MW4 4196   2.591   3.357   1.636 -0.1749  0.2778 -0.1959
 1108SOL     OW 4197   1.367   3.484   2.207  0.5337  0.0747 -0.0548
 1108SOL    HW2 4198   1.430   3.411   2.210  0.1777 -0.2236  0.3558
 1108SOL    HW3 4199   1.347   3.501   2.299  3.1448  2.9250  0.1433
 1108SOL    MW4 4200   1.373   3.477   2.220  0.1072  0.1578  0.7090
 1109SOL     OW 4201   0.279   6.249   5.891  0.0974 -0.2780 -0.5160
 1109SOL    HW2 4202   0.326   6.237   5.809 -0.4212 -1.2141 -0.6940
 1109SOL    HW3 4203   0.267   6.343   5.899  0.7061 -0.1386 -1.1959
 1109SOL    MW4 4204   0.284   6.260   5.881  0.3656 -0.9375 -0.8762
 1110SOL     OW 4205   0.860   3.932   2.749 -0.4147  0.2491  0.3398
 1110SOL    HW2 4206   0.851   3.998   2.680 -0.7178 -2.3880 -2.3627
 1110SOL    HW3 4207   0.784   3.874   2.737 -0.3194 -0.5056  2.7768
 1110SOL    MW4 4208   0.849   3.933   2.738 -0.5663 -0.0975 -0.0943
 1111SOL     OW 4209   5.481   2.062   1.198 -1.0522  0.1790  0.0666
 1111SOL    HW2 4210   5.572   2.083   1.223 -0.6269  0.0922 -1.3261
 1111SOL    HW3 4211   5.430   2.086   1.275  0.2180 -0.4135  1.1506
 1111SOL    MW4 4212   5.487   2.068   1.212 -0.0043 -0.3155  0.5588
 1112SOL     OW 4213   0.727   1.805   2.941  0.1515 -0.1772 -0.7389
 1112SOL    HW2 4214   0.659   1.741   2.959 -0.3794  0.3089 -0.9922
 1112SOL    HW3 4215   0.695   1.854   2.865 -0.4889  1.7970  0.7157
 1112SOL    MW4 4216   0.714   1.803   2.933 -0.4698  0.0870 -0.3318
 1113SOL     OW 4217   1.012   2.368   0.666  0.1880 -0.5168 -0.4194
 1113SOL    HW2 4218   0.946   2.418   0.617  0.8209  0.5666 -0.2110
 1113SOL    HW3 4219   0.973   2.357   0.753  1.4557  2.9833  0.8045
 1113SOL    MW4 4220   0.998   2.373   0.671 -0.3771 -0.0405  0.4270
 1114SOL     OW 4221   0.041   4.161   3.263  0.2103 -0.1905 -0.1347
 1114SOL    HW2 4222  -0.031   4.193   3.317  1.5010 -0.1501  1.6791
 1114SOL    HW3 4223   0.088   4.100   3.320  3.9300  2.7554  0.3743
 1114SOL    MW4 4224   0.038   4.158   3.278 -0.0768  0.1455 -0.0453
 1115SOL     OW 4225   0.287   2.095   0.995 -0.4500 -0.1426 -0.2335
 1115SOL    HW2 4226   0.365   2.041   0.979 -0.9277 -0.6754 -0.8193
 1115SOL    HW3 4227   0.214   2.039   0.970 -0.9701  0.7380 -0.7299
 1115SOL    MW4 4228   0.287   2.080   0.990  0.2934 -0.3487 -0.2773
 1116SOL     OW 4229   1.730   4.730   2.628 -0.0832 -0.0947  0.2379
 1116SOL    HW2 4230   1.815   4.712   2.586 -0.7690 -0.5255 -1.0176
 1116SOL    HW3 4231   1.725   4.825   2.633  0.5908 -0.0703  0.5827
 1116SOL    MW4 4232   1.741   4.740   2.623 -0.2562 -0.5683 -0.1609
 1117SOL     OW 4233   3.251   5.394   1.072 -0.0941  0.3817  0.8341
 1117SOL    HW2 4234   3.244   5.471   1.015  0.7169 -0.1097  0.0303
 1117SOL    HW3 4235   3.166   5.388   1.115 -0.0001  2.0553  1.3633
 1117SOL    MW4 4236   3.239   5.404   1.070 -0.2519  0.9712  0.0206
 1118SOL     OW 4237   3.337   2.777   4.559 -0.2488 -0.3180  0.1855
 1118SOL    HW2 4238   3.257   2.733   4.589  0.2184 -0.6691  0.9332
 1118SOL    HW3 4239   3.329   2.866   4.593 -0.0011 -0.5491  0.8642
 1118SOL    MW4 4240   3.325   2.783   4.568  0.2041 -0.3650  0.1136
 1119SOL     OW 4241   3.793   5.694   3.847  0.3257 -0.2515  0.2079
 1119SOL    HW2 4242   3.755   5.641   3.778  1.0654 -0.1610 -0.2836
 1119SOL    HW3 4243   3.841   5.763   3.801  1.6408 -0.7474  0.7636
 1119SOL    MW4 4244   3.794   5.696   3.832 -0.0474  0.1373 -0.2587
 1120SOL     OW 4245   0.900   4.159   1.657 -0.0795  0.2201  0.2038
 1120SOL    HW2 4246   0.975   4.170   1.598 -0.7031 -1.4677 -0.9977
 1120SOL    HW3 4247   0.928   4.090   1.718  0.3914  1.6430  1.6887
 1120SOL    MW4 4248   0.914   4.151   1.657  0.0167 -0.2677 -0.0459
 1121SOL     OW 4249   3.472   0.583   4.573 -0.0194  0.0744  0.5907
 1121SOL    HW2 4250   3.520   0.519   4.625 -0.3401  0.0792  0.8966
 1121SOL    HW3 4251   3.381   0.552   4.575 -0.3863  1.1195  1.6662
 1121SOL    MW4 4252   3.466   0.570   4.580  0.6379  0.0855 -0.7621
 1122SOL     OW 4253   3.634   5.420   3.891 -0.6143 -0.3895 -0.5095
 1122SOL    HW2 4254   3.715   5.412   3.941 -1.6313  1.1421  1.5167
 1122SOL    HW3 4255   3.655   5.481   3.821  0.3415 -1.0985 -0.8568
 1122SOL    MW4 4256   3.647   5.427   3.888  0.2582  0.4081  0.3841
 1123SOL     OW 4257   3.589   4.853   4.802 -0.2540  0.2396  0.0600
 1123SOL    HW2 4258   3.606   4.946   4.784  1.6603  0.0505  0.7139
 1123SOL    HW3 4259   3.672   4.809   4.785 -0.8167 -1.1937  0.8549
 1123SOL    MW4 4260   3.602   4.860   4.798 -0.4110 -0.0791  0.1729
 1124SOL     OW 4261   3.649   2.584   5.651 -0.2309 -0.3724 -0.1080
 1124SOL    HW2 4262   3.646   2.519   5.580 -1.2283  1.5982 -1.9912
 1124SOL    HW3 4263   3.635   2.667   5.607 -0.3645  1.0096  2.3997
 1124SOL    MW4 4264   3.647   2.586   5.636  0.0220 -0.2146 -0.1510
 1125SOL     OW 4265   1.583   5.907   4.656  0.6952 -0.3766 -0.2015
 1125SOL    HW2 4266   1.638   5.834   4.627 -0.2168 -1.0168 -0.3735
 1125SOL    HW3 4267   1.542   5.876   4.736  0.2989 -0.0476 -0.2756
 1125SOL    MW4 4268   1.585   5.894   4.663 -0.0973 -0.2928  0.0025
 1126SOL     OW 4269   2.133   5.812   5.214 -0.3394  0.1495  0.3952
 1126SOL    HW2 4270   2.190   5.736   5.232 -1.9430 -1.0780  0.5314
 1126SOL    HW3 4271   2.045   5.774   5.206 -0.8768  1.6997 -1.9735
 1126SOL    MW4 4272   2.129   5.797   5.216 -0.0339  0.2230  0.2495
 1127SOL     OW 4273   1.627   4.641   2.940  0.0271  0.5866 -0.1397
 1127SOL    HW2 4274   1.706   4.614   2.893 -0.2294  0.7373 -0.6580
 1127SOL    HW3 4275   1.644   4.615   3.031 -0.6298 -2.2756 -0.7513
 1127SOL    MW4 4276   1.640   4.634   2.946 -0.2768  0.6171 -0.3467
 1128SOL     OW 4277   4.479   5.975   6.187  0.1659 -0.3681 -0.3005
 1128SOL    HW2 4278   4.490   5.977   6.092  0.3790  1.1237 -0.2624
 1128SOL    HW3 4279   4.518   6.057   6.217 -0.5329 -0.4993  1.0096
 1128SOL    MW4 4280   4.486   5.986   6.178 -0.0641 -0.0189  0.2019
 1129SOL     OW 4281   5.886   0.589   2.348  0.3599  0.6056  0.0227
 1129SOL    HW2 4282   5.840   0.550   2.422 -0.7538  0.4239 -0.7397
 1129SOL    HW3 4283   5.979   0.579   2.369  0.0683  0.6501  1.4310
 1129SOL    MW4 4284   5.892   0.583   2.361 -0.1584 -0.4943 -0.7957
 1130SOL     OW 4285   4.997   6.308   0.808 -0.8190  0.3617 -0.0264
 1130SOL    HW2 4286   5.022   6.401   0.807 -0.2652  0.2311  0.8072
 1130SOL    HW3 4287   4.953   6.295   0.724 -0.3568  1.2304 -0.4257
 1130SOL    MW4 4288   4.995   6.319   0.797  0.1846  0.6360  0.1623
 1131SOL     OW 4289   2.532   2.522   4.864  0.4146  0.0710 -0.6748
 1131SOL    HW2 4290   2.513   2.473   4.784  0.6488 -1.4066  0.1289
 1131SOL    HW3 4291   2.554   2.610   4.834  1.1571 -0.6210 -2.2958
 1131SOL    MW4 4292   2.533   2.527   4.850  0.4180  0.6861 -0.2778
 1132SOL     OW 4293   4.941   3.198   3.375 -0.6907 -0.5311  0.8037
 1132SOL    HW2 4294   4.868   3.153   3.417 -0.7232 -0.4519  0.8320
 1132SOL    HW3 4295   5.003   3.215   3.446 -1.0489  0.2157  0.9562
 1132SOL    MW4 4296   4.940   3.194   3.390  0.3215 -0.4183 -0.2047
 1133SOL     OW 4297   3.850   2.046   1.202 -0.2879  0.0366 -0.0502
 1133SOL    HW2 4298   3.775   1.999   1.166  0.9593 -0.1368 -2.6406
 1133SOL    HW3 4299   3.819   2.136   1.212 -0.4087  0.4290 -2.9746
 1133SOL    MW4 4300   3.836   2.052   1.199 -0.7235  0.1333 -0.5811
 1134SOL     OW 4301   5.502   0.994   3.564  0.1876  0.1431 -0.3697
 1134SOL    HW2 4302   5.424   1.043   3.591  1.4516  1.6640  0.7706
 1134SOL    HW3 4303   5.484   0.905   3.592 -0.4084  0.8208  1.6237
 1134SOL    MW4 4304   5.489   0.989   3.572 -0.7119  0.3158  0.2817
 1135SOL     OW 4305   2.582   0.162   4.797  0.3146 -0.2123 -0.4453
 1135SOL    HW2 4306   2.609   0.072   4.780  1.0133  0.0335 -0.6707
 1135SOL    HW3 4307   2.663   0.207   4.820 -0.1050  0.2425  0.1805
 1135SOL    MW4 4308   2.596   0.156   4.798  0.0968  1.1871  0.1190
 1136SOL     OW 4309   1.890   2.564   5.522  0.0289  0.1226  0.3370
 1136SOL    HW2 4310   1.917   2.646   5.479 -0.4126  0.8278  1.3777
 1136SOL    HW3 4311   1.880   2.587   5.614 -1.4376 -0.7856  0.4320
 1136SOL    MW4 4312   1.892   2.578   5.528  0.6925  0.2594  0.5238
 1137SOL     OW 4313   3.392   1.247   2.036 -0.1765 -0.1033 -0.9949
 1137SOL    HW2 4314   3.303   1.283   2.030 -0.4517 -0.4394  0.5654
 1137SOL    HW3 4315   3.390   1.193   2.116  0.8876 -1.6602 -1.9689
 1137SOL    MW4 4316   3.380   1.245   2.046 -0.4820  0.5236 -0.1908
 1138SOL     OW 4317   1.672   0.408   3.045  0.1897  0.0334 -0.0048
 1138SOL    HW2 4318   1.745   0.346   3.045  0.0363 -0.1515 -0.1001
 1138SOL    HW3 4319   1.594   0.352   3.035  0.0207  0.2072  0.3057
 1138SOL    MW4 4320   1.671   0.392   3.044  0.7936 -0.0673  0.4356
 1139SOL     OW 4321   3.724   5.636   6.429  0.1140 -0.5709  0.2227
 1139SOL    HW2 4322   3.782   5.651   6.354  0.3027 -1.7842  0.1082
 1139SOL    HW3 4323   3.647   5.690   6.411  0.5781 -0.0888 -0.3555
 1139SOL    MW4 4324   3.721   5.645   6.417  0.3649  0.4534 -0.6282
 1140SOL     OW 4325   6.094   0.882   5.156  0.3652  0.8511 -0.3211
 1140SOL    HW2 4326   6.160   0.886   5.225 -0.4347  0.8527  0.4612
 1140SOL    HW3 4327   6.100   0.968   5.114  0.2995  1.1638  0.2872
 1140SOL    MW4 4328   6.104   0.894   5.160  0.4772  0.2198  0.3478
 1141SOL     OW 4329   5.072   5.520   1.768  0.6697  0.4905  0.2657
 1141SOL    HW2 4330   5.152   5.510   1.820  1.6265  0.4896 -1.1425
 1141SOL    HW3 4331   5.077   5.450   1.702  1.0108  2.2215 -1.6653
 1141SOL    MW4 4332   5.083   5.510   1.766 -0.3455 -0.1049  0.3639
 1142SOL     OW 4333   4.641   5.231   6.388  0.0689  0.6436  0.2818
 1142SOL    HW2 4334   4.616   5.143   6.417  1.3441  0.9567  2.5024
 1142SOL    HW3 4335   4.668   5.219   6.297 -0.7349 -1.0577  0.2192
 1142SOL    MW4 4336   4.641   5.218   6.380 -0.3645  0.4815  0.1397
 1143SOL     OW 4337   0.378   0.922   3.687  0.5712 -0.1453 -0.6054
 1143SOL    HW2 4338   0.317   0.963   3.626 -0.6151 -0.6746  0.1915
 1143SOL    HW3 4339   0.375   0.829   3.665  0.4386 -0.2877 -0.0069
 1143SOL    MW4 4340   0.370   0.915   3.676 -0.8425 -0.0250 -0.0621
 1144SOL     OW 4341   4.287   0.210   3.610  0.8420  0.2182 -0.2207
 1144SOL    HW2 4342   4.199   0.231   3.578 -0.2780 -0.9979  1.8195
 1144SOL    HW3 4343   4.324   0.294   3.637 -0.1757  0.6184 -0.0266
 1144SOL    MW4 4344   4.280   0.224   3.610 -0.6983  0.0320  0.6533
 1145SOL     OW 4345   3.564   4.523   1.686  0.1910  0.3112  1.2433
 1145SOL    HW2 4346   3.643   4.525   1.632 -0.7112 -1.6379 -0.2722
 1145SOL    HW3 4347   3.494   4.549   1.626 -0.5776  0.1732  2.0679
 1145SOL    MW4 4348   3.565   4.527   1.671 -0.0894 -0.1074  0.3559
 1146SOL     OW 4349   2.223   5.895   4.193  0.1139  0.3831 -0.6140
 1146SOL    HW2 4350   2.250   5.983   4.218  0.0152  0.3865 -0.5157
 1146SOL    HW3 4351   2.128   5.902   4.182  0.1325  0.3369 -0.8056
 1146SOL    MW4 4352   2.214   5.908   4.195  0.4064  0.2871 -0.3550
 1147SOL     OW 4353   0.650   2.868   1.634  0.2955  0.3345  0.2189
 1147SOL    HW2 4354   0.597   2.856   1.713  0.7856  0.0602  0.5118
 1147SOL    HW3 4355   0.712   2.936   1.658  0.0440  0.6935 -0.1420
 1147SOL    MW4 4356   0.651   2.875   1.648 -0.2571 -0.0747 -0.0950
 1148SOL     OW 4357   2.747   2.853   5.746  0.7820 -0.5728 -0.2381
 1148SOL    HW2 4358   2.839   2.877   5.754  0.7900 -1.1361  2.4040
 1148SOL    HW3 4359   2.705   2.897   5.820 -0.3368 -3.2760  0.8890
 1148SOL    MW4 4360   2.754   2.862   5.757  0.8068 -0.3683 -0.3055
 1149SOL     OW 4361   2.297   4.579   2.287 -0.3173 -0.4565 -0.3446
 1149SOL    HW2 4362   2.360   4.647   2.261  0.5311 -1.3843 -0.8119
 1149SOL    HW3 4363   2.311   4.569   2.381  1.0190 -1.3862 -0.6135
 1149SOL    MW4 4364   2.307   4.587   2.296  0.0077 -0.2171  0.8717
 1150SOL     OW 4365   0.298   1.164   1.718 -0.4896  0.2978  0.0934
 1150SOL    HW2 4366   0.224   1.168   1.779  0.0474 -1.9903  0.9959
 1150SOL    HW3 4367   0.363   1.223   1.756 -0.9356  0.4455  0.6448
 1150SOL    MW4 4368   0.296   1.172   1.731 -0.2844 -0.6574 -0.1085
 1151SOL     OW 4369   3.452   2.359   0.384 -0.7027  0.3448 -0.4209
 1151SOL    HW2 4370   3.493   2.388   0.466 -1.2632  0.6686 -0.2512
 1151SOL    HW3 4371   3.378   2.419   0.371 -1.8851 -0.9685 -0.0692
 1151SOL    MW4 4372   3.447   2.371   0.393  1.3277  0.3941  0.4242
 1152SOL     OW 4373   1.809   2.385   3.128  0.4954 -0.1766 -0.0351
 1152SOL    HW2 4374   1.851   2.311   3.084  2.1451  0.2139  0.7983
 1152SOL    HW3 4375   1.784   2.350   3.214 -2.7486 -0.9532 -1.1381
 1152SOL    MW4 4376   1.811   2.370   3.134  0.2753  0.5298 -0.3303
 1153SOL     OW 4377   1.095   0.052   1.569  0.2068  0.5305  0.7529
 1153SOL    HW2 4378   1.019   0.095   1.608 -0.4164  0.0913  0.0520
 1153SOL    HW3 4379   1.145   0.123   1.528 -2.2009  0.4419 -2.7835
 1153SOL    MW4 4380   1.092   0.067   1.569 -0.3099 -0.6875  0.2408
 1154SOL     OW 4381   1.853   1.141   2.170 -0.4659 -0.0904  0.4552
 1154SOL    HW2 4382   1.821   1.227   2.141  0.1425 -0.7531 -2.4295
 1154SOL    HW3 4383   1.948   1.150   2.171 -0.3784 -0.8763 -0.3803
 1154SOL    MW4 4384   1.861   1.154   2.166 -0.5905  0.2991  0.0357
 1155SOL     OW 4385   1.105   3.979   3.407 -0.0146  0.3312  0.3595
 1155SOL    HW2 4386   1.162   3.975   3.331  1.8843 -0.1240  1.7208
 1155SOL    HW3 4387   1.090   4.073   3.421 -1.4593  0.3972 -1.2538
 1155SOL    MW4 4388   1.110   3.991   3.399 -0.5050  0.2145 -0.2817
 1156SOL     OW 4389   0.291   1.069   0.604 -0.2509  0.4401 -0.4573
 1156SOL    HW2 4390   0.196   1.065   0.613 -0.1587 -2.1492  0.2412
 1156SOL    HW3 4391   0.324   1.007   0.669  2.0891  2.9382  0.9485
 1156SOL    MW4 4392   0.283   1.060   0.613 -0.0873  0.0038  0.3763
 1157SOL     OW 4393   4.706   1.399   3.382 -0.5875  0.0192 -0.0499
 1157SOL    HW2 4394   4.768   1.470   3.360 -1.0611  0.5528  0.3073
 1157SOL    HW3 4395   4.631   1.414   3.325 -0.9357  0.1620  0.4346
 1157SOL    MW4 4396   4.705   1.410   3.372  0.5083  0.0228 -0.1574
 1158SOL     OW 4397   2.516   1.673   4.784  0.1792  0.4011  0.1332
 1158SOL    HW2 4398   2.459   1.736   4.742  1.1827  1.9356  0.9832
 1158SOL    HW3 4399   2.524   1.602   4.721 -0.3837  1.4484 -1.1629
 1158SOL    MW4 4400   2.510   1.672   4.770 -0.2875  0.4040  0.0544
 1159SOL     OW 4401   1.014   0.491   1.954  0.1158 -0.3375  0.0341
 1159SOL    HW2 4402   0.930   0.466   1.994 -0.3080 -0.9928 -1.2284
 1159SOL    HW3 4403   1.053   0.408   1.927  1.6915 -0.1472  1.5316
 1159SOL    MW4 4404   1.008   0.477   1.956  0.3420 -0.5565  0.0404
 1160SOL     OW 4405   3.723   0.149   3.182  0.0395  0.2930 -0.3555
 1160SOL    HW2 4406   3.678   0.146   3.267 -1.4028  1.2237 -1.0422
 1160SOL    HW3 4407   3.739   0.057   3.160 -0.9505 -0.0346  0.2261
 1160SOL    MW4 4408   3.719   0.137   3.191  0.6224 -0.2766 -0.5000
 1161SOL     OW 4409   1.949   2.593   1.278 -0.5602  0.2138  0.4270
 1161SOL    HW2 4410   1.893   2.523   1.244 -1.0428  0.9858 -0.3979
 1161SOL    HW3 4411   2.011   2.547   1.335 -0.5449 -0.9565 -0.4825
 1161SOL    MW4 4412   1.950   2.577   1.281 -0.4987 -0.3128  0.7836
 1162SOL     OW 4413   5.942   4.380   2.387 -0.8347 -0.1490  0.5272
 1162SOL    HW2 4414   5.902   4.296   2.364 -0.9596  0.5087 -1.9209
 1162SOL    HW3 4415   5.873   4.445   2.369  0.3367  0.7490 -1.0284
 1162SOL    MW4 4416   5.927   4.378   2.381  0.7932 -0.0201  0.6209
 1163SOL     OW 4417   0.444   4.226   3.994  0.0919 -0.0417  0.1005
 1163SOL    HW2 4418   0.399   4.209   3.912  0.1037  0.0213  0.0806
 1163SOL    HW3 4419   0.374   4.241   4.058  0.0240 -2.0696  0.5584
 1163SOL    MW4 4420   0.429   4.226   3.992  0.3486 -0.6392  0.4651
 1164SOL     OW 4421   6.185   0.756   4.700 -0.3113 -0.0225 -0.4155
 1164SOL    HW2 4422   6.120   0.737   4.632 -0.3345 -1.0087 -0.1390
 1164SOL    HW3 4423   6.269   0.748   4.655 -0.2610 -2.1428 -0.0397
 1164SOL    MW4 4424   6.187   0.752   4.685  0.0311 -0.4310  0.3675
 1165SOL     OW 4425   6.408   0.510   3.934 -0.0444 -0.1208  0.2860
 1165SOL    HW2 4426   6.353   0.485   3.860 -0.0505 -1.5115  0.7159
 1165SOL    HW3 4427   6.470   0.574   3.899 -1.0373  0.4117 -0.5323
 1165SOL    MW4 4428   6.409   0.515   3.920  0.4419 -0.2442 -0.3121
 1166SOL     OW 4429   2.811   1.830   1.520  0.2346 -0.1971  0.3794
 1166SOL    HW2 4430   2.815   1.748   1.569  0.8505 -1.7031 -2.0156
 1166SOL    HW3 4431   2.739   1.878   1.560 -0.9373 -2.4267  1.1109
 1166SOL    MW4 4432   2.802   1.826   1.532  0.0086  0.0461 -0.4294
 1167SOL     OW 4433   1.052   1.505   3.434  0.2226 -0.0329  0.4249
 1167SOL    HW2 4434   1.120   1.464   3.381  2.1781 -0.1892  2.8684
 1167SOL    HW3 4435   1.093   1.584   3.469 -1.1061  0.2738  1.3789
 1167SOL    MW4 4436   1.067   1.510   3.432 -0.2976  0.3960  0.2107
 1168SOL     OW 4437   0.900   0.171   5.030 -0.3689  0.4457 -0.4319
 1168SOL    HW2 4438   0.829   0.216   4.984 -1.6017  0.1672  1.1209
 1168SOL    HW3 4439   0.949   0.241   5.072  0.1999  0.6253 -1.3662
 1168SOL    MW4 4440   0.897   0.186   5.029  0.2934 -0.0345  0.0737
 1169SOL     OW 4441   2.829   3.083   6.221  0.0818  0.4275  0.3669
 1169SOL    HW2 4442   2.811   2.994   6.193 -0.2404  0.6199 -0.0549
 1169SOL    HW3 4443   2.923   3.085   6.237 -0.2710 -0.7306  3.0747
 1169SOL    MW4 4444   2.839   3.072   6.219 -0.4562 -0.2559 -0.2657
 1170SOL     OW 4445   5.526   5.395   0.656 -0.2796 -0.1553  0.5086
 1170SOL    HW2 4446   5.471   5.435   0.723 -0.4976 -1.6442  1.2457
 1170SOL    HW3 4447   5.594   5.349   0.704  0.0222 -0.6059 -0.3230
 1170SOL    MW4 4448   5.528   5.394   0.671 -0.0305  0.0341  0.6335
 1171SOL     OW 4449   3.909   4.490   1.111 -0.1457  0.3338 -0.1412
 1171SOL    HW2 4450   3.831   4.536   1.140 -0.1723  0.2562 -0.0872
 1171SOL    HW3 4451   3.977   4.557   1.108  0.1017  0.1712  1.0354
 1171SOL    MW4 4452   3.908   4.505   1.115 -0.5856 -0.0600 -0.1768
 1172SOL     OW 4453   2.037   5.294   1.209 -0.0846  0.7446  0.0130
 1172SOL    HW2 4454   2.082   5.377   1.189  1.6715 -0.2351 -0.2835
 1172SOL    HW3 4455   2.011   5.302   1.300  1.0208  1.2296  0.3051
 1172SOL    MW4 4456   2.040   5.306   1.218  0.1318  0.0085  0.0370
 1173SOL     OW 4457   4.554   2.760   3.962  0.2037  0.2131  0.0371
 1173SOL    HW2 4458   4.541   2.845   4.005 -0.5027 -0.0939  0.4476
 1173SOL    HW3 4459   4.500   2.764   3.884 -1.6995 -0.6913  1.2322
 1173SOL    MW4 4460   4.545   2.772   3.958  0.3147  0.1565  0.2919
 1174SOL     OW 4461   0.999   0.872   0.547  0.2770 -0.1978 -0.4032
 1174SOL    HW2 4462   1.045   0.831   0.620 -1.3162  0.1932  0.8844
 1174SOL    HW3 4463   0.910   0.887   0.580 -0.7863 -0.8929 -2.7657
 1174SOL    MW4 4464   0.993   0.869   0.561  0.0925  0.3993 -0.4271
 1175SOL     OW 4465   5.635   4.552   5.683 -0.5046 -0.0922 -0.0655
 1175SOL    HW2 4466   5.632   4.642   5.716  1.3182  0.1492 -0.4665
 1175SOL    HW3 4467   5.557   4.544   5.628 -2.4701  0.1634  2.5008
 1175SOL    MW4 4468   5.624   4.563   5.680  0.5312  0.8347  0.4143
 1176SOL     OW 4469   2.579   4.830   0.661  0.3710  0.1745  0.5420
 1176SOL    HW2 4470   2.562   4.910   0.611  0.8572  0.4623  0.8240
 1176SOL    HW3 4471   2.548   4.851   0.749 -1.4814 -0.7092  0.1234
 1176SOL    MW4 4472   2.573   4.843   0.666 -0.0201 -0.3627  0.1988
 1177SOL     OW 4473   3.835   1.778   3.858 -0.4275  0.0864 -0.0455
 1177SOL    HW2 4474   3.740   1.787   3.857 -0.6020 -1.1744  1.2145
 1177SOL    HW3 4475   3.863   1.809   3.772 -2.0624 -0.2916 -0.7577
 1177SOL    MW4 4476   3.826   1.783   3.846 -0.2969 -0.5994  0.5518
 1178SOL     OW 4477   5.472   2.624   1.219  0.3687  0.0701  0.0341
 1178SOL    HW2 4478   5.525   2.660   1.290  1.1636  0.0456 -0.5271
 1178SOL    HW3 4479   5.423   2.699   1.185  0.2839  0.1606  0.3559
 1178SOL    MW4 4480   5.473   2.639   1.224 -0.1464 -0.1309 -0.0354
 1179SOL     OW 4481   4.368   4.231   2.306 -0.1103  0.1897  0.4124
 1179SOL    HW2 4482   4.410   4.216   2.391 -2.4317  2.4577  2.1564
 1179SOL    HW3 4483   4.304   4.160   2.298  0.7060 -0.5252  0.0932
 1179SOL    MW4 4484   4.365   4.219   2.316  0.0803 -0.0793 -0.2543
 1180SOL     OW 4485   5.498   2.052   3.021  0.1997 -0.2285 -0.1476
 1180SOL    HW2 4486   5.423   2.057   2.961 -0.7858 -0.5991  1.0094
 1180SOL    HW3 4487   5.533   2.141   3.024 -1.0068  0.2540  0.2802
 1180SOL    MW4 4488   5.493   2.064   3.013  0.0281  0.0818  0.1217
 1181SOL     OW 4489   3.987   4.228   4.466  0.6018 -0.5222  0.0378
 1181SOL    HW2 4490   4.066   4.225   4.520  0.8268  1.9255 -0.0473
 1181SOL    HW3 4491   3.916   4.241   4.528  0.7802  1.5333 -0.1200
 1181SOL    MW4 4492   3.988   4.229   4.481 -0.1559 -0.1795 -0.4661
 1182SOL     OW 4493   0.648   1.475   5.925 -0.3138  0.3019  0.7509
 1182SOL    HW2 4494   0.651   1.384   5.898  2.7320  0.7237 -0.7585
 1182SOL    HW3 4495   0.568   1.509   5.886 -0.6678 -1.3382 -0.0225
 1182SOL    MW4 4496   0.638   1.468   5.917  0.1206  0.0936  0.0395
 1183SOL     OW 4497   5.570   2.366   1.290  0.3509 -0.1026 -0.5306
 1183SOL    HW2 4498   5.482   2.332   1.276 -0.1526  1.2303 -0.7119
 1183SOL    HW3 4499   5.564   2.459   1.268  2.1132 -0.2465 -1.8234
 1183SOL    MW4 4500   5.558   2.373   1.285 -0.0485  0.0408 -0.2327
 1184SOL     OW 4501   5.784   5.102   4.500  0.1479  0.1983  0.4348
 1184SOL    HW2 4502   5.819   5.191   4.504  1.5716 -0.3254  0.2566
 1184SOL    HW3 4503   5.781   5.081   4.407 -0.0474  0.0060  0.4823
 1184SOL    MW4 4504   5.788   5.111   4.489 -0.1489 -0.1543 -0.1733
 1185SOL     OW 4505   6.398   4.180   5.602 -0.0267 -0.0464  0.0738
 1185SOL    HW2 4506   6.382   4.145   5.514  0.9248  0.2840 -0.2466
 1185SOL    HW3 4507   6.441   4.108   5.648 -0.6606 -0.2709  0.3218
 1185SOL    MW4 4508   6.401   4.166   5.596 -0.0031 -0.6384 -0.2117
 1186SOL     OW 4509   6.410   5.741   2.351 -0.1894  0.2909 -0.4735
 1186SOL    HW2 4510   6.345   5.811   2.347 -1.1807 -0.4716  1.1707
 1186SOL    HW3 4511   6.397   5.692   2.270 -0.2329  1.3504 -1.1265
 1186SOL    MW4 4512   6.399   5.744   2.340  0.1159 -0.3921 -0.3424
 1187SOL     OW 4513   2.150   3.751   2.027  0.3287  0.7402 -0.5358
 1187SOL    HW2 4514   2.055   3.754   2.042  0.3002  2.2060 -0.8617
 1187SOL    HW3 4515   2.187   3.735   2.114 -0.2139 -0.2390 -0.4650
 1187SOL    MW4 4516   2.142   3.749   2.041 -0.0979 -0.3238  0.1061
 1188SOL     OW 4517   2.728   0.338   3.128  0.7961  0.5235  0.6519
 1188SOL    HW2 4518   2.808   0.293   3.154 -0.0062 -0.3160  1.7794
 1188SOL    HW3 4519   2.685   0.278   3.067  1.3118  1.2636 -0.4875
 1188SOL    MW4 4520   2.733   0.324   3.123  0.7189  0.4357  0.7078
 1189SOL     OW 4521   2.334   3.806   2.687 -0.7154  0.0975  0.3491
 1189SOL    HW2 4522   2.355   3.854   2.608  1.5372  0.2576  0.9810
 1189SOL    HW3 4523   2.331   3.714   2.660 -0.5727  0.2052 -0.0286
 1189SOL    MW4 4524   2.336   3.800   2.673  0.1836 -0.6698 -0.0789
 1190SOL     OW 4525   2.267   3.444   4.184 -0.8335 -0.4445  0.2147
 1190SOL    HW2 4526   2.266   3.384   4.109 -0.3179  0.1899 -0.3090
 1190SOL    HW3 4527   2.202   3.407   4.244  0.1476 -2.0810  0.3508
 1190SOL    MW4 4528   2.258   3.431   4.182 -0.0141  0.5895  0.4814
 1191SOL     OW 4529   1.404   3.458   1.084  0.3664 -0.2385 -0.4562
 1191SOL    HW2 4530   1.483   3.510   1.097 -0.3638  0.8132 -0.0711
 1191SOL    HW3 4531   1.336   3.505   1.132 -0.6119 -0.8381 -1.2099
 1191SOL    MW4 4532   1.406   3.471   1.092 -0.1001 -0.4691 -0.6425
 1192SOL     OW 4533   5.411   0.707   1.209  0.1842 -0.8308 -0.2955
 1192SOL    HW2 4534   5.369   0.656   1.279 -0.8144 -0.0527 -0.3134
 1192SOL    HW3 4535   5.458   0.777   1.255  0.5965 -1.0718 -0.3412
 1192SOL    MW4 4536   5.412   0.709   1.224  0.1617 -0.4792 -0.2694
 1193SOL     OW 4537   3.550   5.964   3.589 -0.1810 -0.7923  0.6083
 1193SOL    HW2 4538   3.626   6.020   3.607 -1.2382  0.4191  1.4397
 1193SOL    HW3 4539   3.495   5.971   3.666 -1.6701 -0.7710 -0.4101
 1193SOL    MW4 4540   3.553   5.972   3.601 -0.3956 -0.0084 -0.1205
 1194SOL     OW 4541   1.693   3.232   1.661  0.3049  0.1882  0.5475
 1194SOL    HW2 4542   1.605   3.244   1.698  0.9478 -1.7173  2.9704
 1194SOL    HW3 4543   1.746   3.301   1.700 -0.1463  1.7846 -1.4574
 1194SOL    MW4 4544   1.688   3.243   1.671 -0.1919  0.3148  0.2653
 1195SOL     OW 4545   0.872   3.401   3.213 -0.2297 -0.2365  0.6850
 1195SOL    HW2 4546   0.916   3.388   3.297 -0.2573 -1.9543  0.4805
 1195SOL    HW3 4547   0.781   3.376   3.229  0.0871 -2.1897 -0.1701
 1195SOL    MW4 4548   0.866   3.396   3.226 -0.1719  0.2123  0.3631
 1196SOL     OW 4549   5.113   3.985   6.382 -0.2545 -0.1536 -0.1437
 1196SOL    HW2 4550   5.095   4.055   6.320  1.0428  0.0978 -0.2661
 1196SOL    HW3 4551   5.045   3.994   6.449  0.5759  2.0085  0.4941
 1196SOL    MW4 4552   5.102   3.996   6.383 -0.6412  0.2913  0.0956
 1197SOL     OW 4553   4.927   5.301   1.119  0.3730 -0.4990  0.4654
 1197SOL    HW2 4554   4.894   5.329   1.204  1.8044 -0.5523  1.0734
 1197SOL    HW3 4555   4.914   5.206   1.119 -1.3668 -0.2853 -0.1862
 1197SOL    MW4 4556   4.921   5.292   1.130 -0.2834  0.0959  0.4422
 1198SOL     OW 4557   5.511   2.330   5.283  0.5433 -0.6077  0.8855
 1198SOL    HW2 4558   5.559   2.410   5.262  0.6639 -0.4883  1.5845
 1198SOL    HW3 4559   5.463   2.309   5.203 -2.1500  2.0232  1.5940
 1198SOL    MW4 4560   5.511   2.338   5.270  0.1040  0.4574  0.2331
 1199SOL     OW 4561   1.675   5.251   3.884  0.0349  0.6373  0.2933
 1199SOL    HW2 4562   1.692   5.266   3.790 -0.1908 -0.5551  0.0497
 1199SOL    HW3 4563   1.740   5.305   3.929  1.3458 -0.1500 -0.5765
 1199SOL    MW4 4564   1.686   5.260   3.877 -0.4976 -0.0093  0.6366
 1200SOL     OW 4565   5.299   4.359   3.608 -0.1325 -0.7246  0.0934
 1200SOL    HW2 4566   5.232   4.327   3.670 -0.4592 -1.9110 -0.8407
 1200SOL    HW3 4567   5.249   4.393   3.534  0.2757 -0.4758 -0.0688
 1200SOL    MW4 4568   5.283   4.359   3.607  0.3645 -0.1896  0.0682
 1201SOL     OW 4569   1.131   0.732   0.117 -0.4471 -0.1966 -0.3775
 1201SOL    HW2 4570   1.104   0.824   0.110  2.0327  0.6904  0.5933
 1201SOL    HW3 4571   1.098   0.692   0.037 -1.6500  1.5260 -0.8085
 1201SOL    MW4 4572   1.123   0.739   0.106  0.5782  0.2798  0.1047
 1202SOL     OW 4573   4.775   6.178   3.472  0.1792 -0.2201  0.3000
 1202SOL    HW2 4574   4.709   6.131   3.524  0.1431  1.6445  2.0774
 1202SOL    HW3 4575   4.751   6.270   3.481  2.8912  0.5208  0.8883
 1202SOL    MW4 4576   4.763   6.184   3.480  0.3186  0.1065  0.7801
 1203SOL     OW 4577   1.144   5.562   3.982 -0.3612  0.2011  0.4362
 1203SOL    HW2 4578   1.236   5.575   4.001 -0.3306  0.8596 -0.1494
 1203SOL    HW3 4579   1.107   5.650   3.976 -1.0268 -0.0542  0.6561
 1203SOL    MW4 4580   1.151   5.575   3.984  0.2114 -0.0866  0.9102
 1204SOL     OW 4581   1.455   5.905   0.063 -0.4477  0.7958  0.7339
 1204SOL    HW2 4582   1.536   5.873   0.023 -1.3194 -0.5774 -0.0238
 1204SOL    HW3 4583   1.456   5.999   0.048  0.7094  0.7062  0.1680
 1204SOL    MW4 4584   1.465   5.913   0.056  0.0196 -0.3179 -0.2596
 1205SOL     OW 4585   4.508   1.434   3.994  0.0116 -0.2409 -0.0307
 1205SOL    HW2 4586   4.521   1.415   3.901  0.8948 -0.0834  0.0538
 1205SOL    HW3 4587   4.595   1.453   4.027 -0.2206 -0.8495  0.9662
 1205SOL    MW4 4588   4.521   1.434   3.986  0.3256 -0.3464  0.2068
 1206SOL     OW 4589   1.975   5.168   1.737 -0.0727 -0.2431  0.6627
 1206SOL    HW2 4590   1.920   5.226   1.790  2.2798  1.2429  1.6236
 1206SOL    HW3 4591   1.919   5.093   1.718 -1.3833 -0.4907  4.5975
 1206SOL    MW4 4592   1.960   5.166   1.742 -0.3677  0.1710  0.2315
 1207SOL     OW 4593   1.693   3.140   6.157 -0.0876 -0.6639  0.3972
 1207SOL    HW2 4594   1.601   3.123   6.139 -0.2419  0.5647 -0.1102
 1207SOL    HW3 4595   1.692   3.182   6.244 -0.1746  0.5739 -0.1739
 1207SOL    MW4 4596   1.680   3.143   6.166  0.2077 -0.1285 -1.1267
 1208SOL     OW 4597   4.853   6.223   4.177  0.7265  0.0259 -0.1072
 1208SOL    HW2 4598   4.913   6.156   4.145 -0.5288 -0.8809 -0.6517
 1208SOL    HW3 4599   4.783   6.174   4.220  0.2341  1.0360  0.2800
 1208SOL    MW4 4600   4.851   6.207   4.178 -0.5452 -0.0406 -0.7422
 1209SOL     OW 4601   2.197   1.509   0.250  0.8365 -0.5417  0.0454
 1209SOL    HW2 4602   2.219   1.516   0.343 -0.4021 -2.1689  0.4991
 1209SOL    HW3 4603   2.280   1.490   0.207  1.6984  1.7142  0.5775
 1209SOL    MW4 4604   2.211   1.508   0.257 -0.1453  0.0507 -0.0113
 1210SOL     OW 4605   0.729   0.579   6.435 -0.2061  0.0926 -0.3780
 1210SOL    HW2 4606   0.673   0.624   6.372 -0.4059  0.0208 -0.2500
 1210SOL    HW3 4607   0.759   0.500   6.388 -0.5796 -0.1070 -0.2877
 1210SOL    MW4 4608   0.726   0.574   6.420  0.4791  0.4232  0.1137
 1211SOL     OW 4609   1.734   4.460   1.204  0.1997  0.7477  0.4939
 1211SOL    HW2 4610   1.772   4.372   1.218 -1.3149 -0.2304 -1.1581
 1211SOL    HW3 4611   1.692   4.481   1.287 -0.2204 -0.5301  0.6321
 1211SOL    MW4 4612   1.734   4.451   1.217 -0.4404 -0.0075 -0.1482
 1212SOL     OW 4613   4.821   1.945   3.772 -0.2019 -0.0010  0.4168
 1212SOL    HW2 4614   4.790   1.957   3.682  0.6010 -1.1815 -0.0430
 1212SOL    HW3 4615   4.789   2.022   3.819 -1.9943 -0.1288 -0.4935
 1212SOL    MW4 4616   4.813   1.957   3.766  0.1667 -0.2357 -0.1257
 1213SOL     OW 4617   1.384   2.173   4.547 -0.2804 -0.1532 -0.7572
 1213SOL    HW2 4618   1.385   2.179   4.643  0.0826 -1.1550 -0.6923
 1213SOL    HW3 4619   1.313   2.112   4.528 -0.7086  0.4598 -1.1615
 1213SOL    MW4 4620   1.374   2.166   4.557  0.6574 -0.3255  0.6125
 1214SOL     OW 4621   5.484   5.445   3.299  0.0094 -0.0896  0.1199
 1214SOL    HW2 4622   5.399   5.468   3.260 -0.4767  0.2580  1.3413
 1214SOL    HW3 4623   5.549   5.482   3.238 -0.6110 -2.3449 -2.0799
 1214SOL    MW4 4624   5.481   5.453   3.286 -0.1431  0.4903 -0.3333
 1215SOL     OW 4625   4.406   0.243   1.990 -0.4891 -0.2197  0.4112
 1215SOL    HW2 4626   4.463   0.234   1.914 -0.0840 -0.5633  0.7464
 1215SOL    HW3 4627   4.390   0.337   1.998  0.7557 -0.0223  0.8231
 1215SOL    MW4 4628   4.411   0.254   1.981  0.7565 -0.1245 -0.1453
 1216SOL     OW 4629   4.562   3.742   3.193 -0.6521  0.0640 -0.1331
 1216SOL    HW2 4630   4.583   3.759   3.285  2.9738 -2.9314 -0.1650
 1216SOL    HW3 4631   4.557   3.829   3.153  1.8082  1.4059  2.1426
 1216SOL    MW4 4632   4.564   3.756   3.200  0.1266  0.1354  0.0245
 1217SOL     OW 4633   2.633   6.324   3.777 -0.1015 -0.7450  0.3608
 1217SOL    HW2 4634   2.644   6.351   3.868 -0.1170  0.4186  0.0368
 1217SOL    HW3 4635   2.559   6.375   3.746  0.8308  0.0206 -0.7198
 1217SOL    MW4 4636   2.625   6.334   3.785  0.0758 -0.0930 -0.9992
 1218SOL     OW 4637   1.648   6.382   6.326  0.3080 -0.1903  0.3302
 1218SOL    HW2 4638   1.671   6.416   6.413 -1.5461 -0.4399  0.9666
 1218SOL    HW3 4639   1.625   6.460   6.275 -1.1328 -0.2142  0.8982
 1218SOL    MW4 4640   1.648   6.397   6.331 -0.4595  0.2444 -0.3063
 1219SOL     OW 4641   5.629   5.749   5.528 -0.2210 -0.5936  0.6730
 1219SOL    HW2 4642   5.593   5.834   5.553  1.6260  0.5999 -0.4854
 1219SOL    HW3 4643   5.560   5.707   5.476 -1.2128  0.0840  1.3947
 1219SOL    MW4 4644   5.615   5.754   5.525 -0.0670  0.1055  0.6195
 1220SOL     OW 4645   5.942   5.914   5.559  0.0650  0.1409  0.4158
 1220SOL    HW2 4646   5.896   5.942   5.479  0.7002  0.7354  0.2468
 1220SOL    HW3 4647   6.034   5.910   5.533  0.1234 -0.9966  0.7630
 1220SOL    MW4 4648   5.948   5.917   5.545 -0.6319 -0.2723  0.2333
 1221SOL     OW 4649   3.843   2.134   4.833  0.4272 -0.1340 -0.1256
 1221SOL    HW2 4650   3.765   2.188   4.848  0.0749 -0.2930 -1.3297
 1221SOL    HW3 4651   3.868   2.152   4.742  1.0978 -0.9833 -0.1204
 1221SOL    MW4 4652   3.836   2.144   4.823 -0.0139 -0.6101  0.1403
 1222SOL     OW 4653   5.696   3.536   5.353 -0.4090 -0.3201 -0.4439
 1222SOL    HW2 4654   5.727   3.605   5.294 -1.4403 -0.0696 -0.7210
 1222SOL    HW3 4655   5.735   3.456   5.319  0.0130 -0.0019 -0.7122
 1222SOL    MW4 4656   5.705   3.534   5.341  0.0502  0.0790  0.4704
 1223SOL     OW 4657   4.722   3.460   6.382 -0.1860  0.0745 -0.3537
 1223SOL    HW2 4658   4.709   3.409   6.302 -1.6323 -2.3672  1.3017
 1223SOL    HW3 4659   4.795   3.417   6.427  0.2243  1.0540 -0.0406
 1223SOL    MW4 4660   4.730   3.448   6.378 -0.5028  0.2778  0.0280
 1224SOL     OW 4661   2.815   3.756   0.487  0.3450  0.3111  0.1305
 1224SOL    HW2 4662   2.805   3.780   0.579 -0.4293  1.7376 -0.2897
 1224SOL    HW3 4663   2.757   3.681   0.475  0.5136  0.0645  0.8154
 1224SOL    MW4 4664   2.806   3.749   0.498  0.6343 -0.2859  0.5857
 1225SOL     OW 4665   3.201   5.833   1.795  0.0323 -0.7561  0.1390
 1225SOL    HW2 4666   3.228   5.815   1.705  1.2507 -1.0702  0.5432
 1225SOL    HW3 4667   3.143   5.760   1.817 -0.9385 -0.2506 -0.6350
 1225SOL    MW4 4668   3.197   5.821   1.786 -0.4294  0.0543  0.1526
 1226SOL     OW 4669   4.288   5.811   2.983  0.2625  0.1589  0.2699
 1226SOL    HW2 4670   4.210   5.818   2.927  0.5857  1.3346 -0.0581
 1226SOL    HW3 4671   4.361   5.809   2.921  0.4863 -2.8968  0.4525
 1226SOL    MW4 4672   4.287   5.811   2.967 -0.1238  0.1702  0.3579
 1227SOL     OW 4673   4.514   5.927   5.888  0.0154 -0.3999  0.3116
 1227SOL    HW2 4674   4.563   5.949   5.809  0.4972 -0.0728  0.6937
 1227SOL    HW3 4675   4.495   5.834   5.879  0.0386 -0.3543 -0.2061
 1227SOL    MW4 4676   4.518   5.918   5.876 -0.3134  0.0796  0.1531
 1228SOL     OW 4677   4.031   4.294   6.288  0.2347  0.2692 -0.0196
 1228SOL    HW2 4678   4.050   4.387   6.272 -0.2123  0.3308 -0.2235
 1228SOL    HW3 4679   4.012   4.290   6.382 -0.4117  0.5084 -0.1371
 1228SOL    MW4 4680   4.031   4.306   6.299 -0.1329 -0.7146  0.4968
 1229SOL     OW 4681   0.416   0.165   2.235  0.1380 -0.0143  0.0844
 1229SOL    HW2 4682   0.445   0.075   2.220 -1.2454 -0.5926  0.7374
 1229SOL    HW3 4683   0.488   0.206   2.282  1.0803 -0.5646 -0.8480
 1229SOL    MW4 4684   0.429   0.159   2.239  0.7420 -0.1740  0.3159
 1230SOL     OW 4685   5.773   3.388   2.760 -0.0493 -0.4137  0.3939
 1230SOL    HW2 4686   5.847   3.329   2.750  1.2829  0.8179  2.3314
 1230SOL    HW3 4687   5.794   3.463   2.705 -0.8021 -0.8654 -0.5350
 1230SOL    MW4 4688   5.785   3.390   2.751  0.3297 -0.2505  0.2010
 1231SOL     OW 4689   0.618   4.621   4.425  0.0339 -0.2794 -0.2205
 1231SOL    HW2 4690   0.630   4.584   4.512 -0.5507 -0.3527 -0.1691
 1231SOL    HW3 4691   0.565   4.556   4.379 -1.4582  0.7258  0.0362
 1231SOL    MW4 4692   0.613   4.607   4.430 -0.2713  0.4038 -0.1269
 1232SOL     OW 4693   1.088   4.720   4.555  0.0122 -0.0423 -0.2287
 1232SOL    HW2 4694   1.013   4.708   4.497  0.7389 -0.4269 -1.1098
 1232SOL    HW3 4695   1.060   4.679   4.637 -1.2030  0.9254 -0.1289
 1232SOL    MW4 4696   1.074   4.713   4.558  0.0085 -0.3216 -0.7207
 1233SOL     OW 4697   5.869   3.425   4.686 -0.1299  0.5960 -0.6478
 1233SOL    HW2 4698   5.958   3.389   4.683 -0.1992  0.3957 -0.2877
 1233SOL    HW3 4699   5.812   3.349   4.674 -0.2772  0.5734  0.1640
 1233SOL    MW4 4700   5.873   3.410   4.684 -0.0543 -0.0432 -0.0202
 1234SOL     OW 4701   4.285   2.338   3.794 -0.3036  0.5796 -0.1897
 1234SOL    HW2 4702   4.370   2.363   3.759 -0.1374  0.0416 -0.1701
 1234SOL    HW3 4703   4.232   2.317   3.717 -0.1128 -0.0452 -0.1578
 1234SOL    MW4 4704   4.289   2.339   3.780 -0.4228  0.1290 -0.4163
 1235SOL     OW 4705   2.410   4.586   1.607 -0.7325  0.0385  0.0015
 1235SOL    HW2 4706   2.490   4.571   1.556 -0.5583  1.4930 -0.2072
 1235SOL    HW3 4707   2.412   4.519   1.675 -2.2609 -3.6696 -3.2587
 1235SOL    MW4 4708   2.421   4.576   1.609 -0.1835  0.2947  0.3558
 1236SOL     OW 4709   4.618   3.959   4.237 -0.3794  0.2980  0.0039
 1236SOL    HW2 4710   4.555   3.957   4.309  0.3541  0.2373  0.6595
 1236SOL    HW3 4711   4.596   3.882   4.184  0.6169 -1.1428  1.5415
 1236SOL    MW4 4712   4.607   3.948   4.240  0.0829  0.3217  0.8075
 1237SOL     OW 4713   1.751   3.474   1.426  0.4698 -0.2646  0.3930
 1237SOL    HW2 4714   1.816   3.414   1.388  0.2466 -1.1844  1.4201
 1237SOL    HW3 4715   1.671   3.421   1.433 -1.0727  1.3487 -2.6221
 1237SOL    MW4 4716   1.749   3.459   1.422 -0.2734  0.7145  0.0851
 1238SOL     OW 4717   1.230   1.347   0.582  0.7754  0.0513  0.1273
 1238SOL    HW2 4718   1.168   1.366   0.652  0.1954  0.3509 -0.4553
 1238SOL    HW3 4719   1.282   1.274   0.615  0.2287 -0.0866  0.6986
 1238SOL    MW4 4720   1.228   1.340   0.595  0.1628  0.7796 -0.6661
 1239SOL     OW 4721   0.649   5.323   5.360 -0.8371 -0.4462 -0.3259
 1239SOL    HW2 4722   0.670   5.230   5.360  1.3765 -0.0063 -0.7848
 1239SOL    HW3 4723   0.663   5.351   5.450 -0.0955 -0.3088 -0.4731
 1239SOL    MW4 4724   0.654   5.315   5.372  0.2270 -0.5117 -0.4119
 1240SOL     OW 4725   4.103   0.043   6.055 -0.6603  0.7371  0.0999
 1240SOL    HW2 4726   4.127   0.110   5.991  0.3412  0.0962 -0.2044
 1240SOL    HW3 4727   4.186   0.009   6.087 -1.1594  0.4376  1.1040
 1240SOL    MW4 4728   4.117   0.047   6.051 -0.0504 -0.4355  0.1018
 1241SOL     OW 4729   0.881   2.263   2.034 -0.2988  0.1105  0.2668
 1241SOL    HW2 4730   0.877   2.168   2.020  2.2470 -0.1800  1.0235
 1241SOL    HW3 4731   0.923   2.296   1.954  1.3840  0.2091  1.1616
 1241SOL    MW4 4732   0.886   2.255   2.021 -0.0855 -0.3717 -0.4141
 1242SOL     OW 4733   3.441   2.543   3.295  0.1354 -0.1756  0.4964
 1242SOL    HW2 4734   3.398   2.626   3.274  1.4126  0.8101  1.5848
 1242SOL    HW3 4735   3.461   2.504   3.210  1.4009  1.6649 -0.1183
 1242SOL    MW4 4736   3.438   2.548   3.281 -0.3805  0.1119 -0.1363
 1243SOL     OW 4737   5.008   3.866   0.988 -0.0491 -0.2707 -0.2681
 1243SOL    HW2 4738   5.001   3.858   0.893  0.7810  0.9972 -0.4583
 1243SOL    HW3 4739   5.100   3.853   1.007 -0.0041  0.7064  0.2247
 1243SOL    MW4 4740   5.019   3.863   0.978 -0.2789 -0.0816  0.1551
 1244SOL     OW 4741   1.217   2.650   5.844  0.0059  0.0901 -0.3584
 1244SOL    HW2 4742   1.278   2.715   5.880  0.4672 -1.0514  1.0203
 1244SOL    HW3 4743   1.262   2.616   5.767  0.8722 -0.3272  0.3147
 1244SOL    MW4 4744   1.231   2.654   5.839 -0.1334  0.2853  0.2196
 1245SOL     OW 4745   4.338   1.839   2.329 -0.3051  0.6656  0.1541
 1245SOL    HW2 4746   4.363   1.763   2.276  0.6286  0.6948  0.5521
 1245SOL    HW3 4747   4.411   1.852   2.389  0.6647  3.3213 -1.4498
 1245SOL    MW4 4748   4.351   1.830   2.330  0.0440  1.0589 -0.7131
 1246SOL     OW 4749   2.434   4.582   3.218  0.0295 -0.1716  0.3161
 1246SOL    HW2 4750   2.488   4.518   3.263 -0.0956 -0.9440 -0.5861
 1246SOL    HW3 4751   2.374   4.529   3.165 -0.4793  0.6871  0.0099
 1246SOL    MW4 4752   2.433   4.566   3.217 -0.0189  0.2815  0.8773
 1247SOL     OW 4753   3.179   4.602   2.886 -0.2430 -0.0557  0.6443
 1247SOL    HW2 4754   3.228   4.544   2.945  1.6098  1.2299  0.4570
 1247SOL    HW3 4755   3.219   4.688   2.899 -0.5792  0.4955 -1.6315
 1247SOL    MW4 4756   3.190   4.606   2.895 -0.3810  0.2484 -0.1636
 1248SOL     OW 4757   2.412   0.086   6.072 -0.4313 -0.3585  0.8929
 1248SOL    HW2 4758   2.480   0.025   6.102 -1.4049 -1.1214  1.6368
 1248SOL    HW3 4759   2.459   0.154   6.025  0.6942 -1.7551 -0.0689
 1248SOL    MW4 4760   2.427   0.087   6.070  0.2217 -0.0314  0.4948
 1249SOL     OW 4761   4.348   2.024   3.623 -0.1874 -0.0374  0.5447
 1249SOL    HW2 4762   4.263   2.068   3.630  0.6222  1.8150 -0.3972
 1249SOL    HW3 4763   4.357   1.975   3.705 -1.3528  1.2484  1.4881
 1249SOL    MW4 4764   4.338   2.023   3.635  0.4266  0.1450 -0.5054
 1250SOL     OW 4765   5.643   4.357   6.280 -0.1923 -0.0468 -0.2640
 1250SOL    HW2 4766   5.689   4.397   6.207  0.3607 -0.2276 -0.0223
 1250SOL    HW3 4767   5.711   4.309   6.328 -0.4397  0.4816  0.6519
 1250SOL    MW4 4768   5.658   4.356   6.277 -0.1559  0.1325  0.1152
 1251SOL     OW 4769   4.928   0.855   0.394 -0.1596 -0.0581  0.3154
 1251SOL    HW2 4770   4.897   0.899   0.473  0.5020  1.1312 -0.0589
 1251SOL    HW3 4771   4.868   0.884   0.325  0.6463  0.7820 -0.0523
 1251SOL    MW4 4772   4.916   0.865   0.395 -0.3379 -0.0995  0.1210
 1252SOL     OW 4773   4.421   5.848   4.694 -0.1090 -0.0966  0.6001
 1252SOL    HW2 4774   4.484   5.858   4.622  0.4891  0.5950  1.2076
 1252SOL    HW3 4775   4.369   5.927   4.691  1.1080  0.8028  2.0455
 1252SOL    MW4 4776   4.423   5.859   4.684 -0.9238  0.1102 -0.1110
 1253SOL     OW 4777   3.278   5.979   3.433 -0.4433  0.0157 -0.1360
 1253SOL    HW2 4778   3.206   5.966   3.493 -0.5271 -0.3058 -0.3051
 1253SOL    HW3 4779   3.357   5.976   3.488 -0.5926  1.2900  0.1915
 1253SOL    MW4 4780   3.279   5.977   3.448 -0.2567  0.7039  0.7319
 1254SOL     OW 4781   3.634   5.617   1.943 -0.1717  0.1977 -0.0207
 1254SOL    HW2 4782   3.567   5.685   1.949  0.3742  0.6437  1.3980
 1254SOL    HW3 4783   3.695   5.638   2.013  0.6673 -1.0562 -0.3541
 1254SOL    MW4 4784   3.633   5.629   1.953  0.1644 -0.5638 -0.2556
 1255SOL     OW 4785   6.331   3.090   3.887 -0.8431  0.2147  0.5352
 1255SOL    HW2 4786   6.346   3.110   3.794 -0.2672 -0.0302  0.5730
 1255SOL    HW3 4787   6.418   3.072   3.922 -1.0691  0.2357  1.1101
 1255SOL    MW4 4788   6.344   3.090   3.879 -0.6012 -0.5314  0.2743
 1256SOL     OW 4789   2.105   0.373   2.414  0.0990 -0.4326 -0.5611
 1256SOL    HW2 4790   2.026   0.387   2.466  1.2968  1.1996  0.9794
 1256SOL    HW3 4791   2.117   0.455   2.366  0.3443 -1.0186 -1.5158
 1256SOL    MW4 4792   2.096   0.386   2.415  0.1392 -0.5863 -0.0139
 1257SOL     OW 4793   5.899   0.557   5.656  0.2464 -0.2888 -0.3969
 1257SOL    HW2 4794   5.844   0.479   5.651  1.0276 -0.8910  0.2073
 1257SOL    HW3 4795   5.884   0.602   5.573 -0.2996 -1.0213 -0.7079
 1257SOL    MW4 4796   5.890   0.552   5.644 -0.1914  0.4865 -0.0323
 1258SOL     OW 4797   2.478   1.130   5.140 -0.0530  0.9560  0.5019
 1258SOL    HW2 4798   2.483   1.212   5.091  0.1781  0.9239  0.4729
 1258SOL    HW3 4799   2.538   1.142   5.213 -0.0348  0.8206  0.5096
 1258SOL    MW4 4800   2.487   1.142   5.143  0.2936 -0.6015  0.0579
 1259SOL     OW 4801   1.116   6.313   5.641  0.1364  0.1976 -0.3269
 1259SOL    HW2 4802   1.196   6.264   5.620  0.6199  1.4012 -1.4327
 1259SOL    HW3 4803   1.046   6.265   5.598  0.5124  0.1039 -0.8417
 1259SOL    MW4 4804   1.118   6.300   5.633 -0.0744 -0.1904 -0.5571
 1260SOL     OW 4805   4.358   3.475   5.997 -0.1900 -0.2572  0.3190
 1260SOL    HW2 4806   4.294   3.512   5.937 -0.2115 -0.6063  0.1254
 1260SOL    HW3 4807   4.374   3.386   5.965  0.6326 -0.0684  0.1699
 1260SOL    MW4 4808   4.352   3.468   5.985  0.2351 -0.8424 -0.3955
 1261SOL     OW 4809   3.717   2.972   5.943 -0.1696 -0.1227  0.4805
 1261SOL    HW2 4810   3.695   3.046   6.001  0.1346  0.1031  0.3089
 1261SOL    HW3 4811   3.686   2.999   5.857  0.4730  0.0542  0.3033
 1261SOL    MW4 4812   3.710   2.986   5.940 -0.1730 -0.1466 -0.8166
 1262SOL     OW 4813   1.366   0.905   3.896 -0.2345  0.4210  0.0711
 1262SOL    HW2 4814   1.429   0.973   3.874 -0.6437  0.5541 -0.7478
 1262SOL    HW3 4815   1.291   0.923   3.839 -0.3860 -0.6521 -0.0832
 1262SOL    MW4 4816   1.364   0.916   3.886 -0.5804  0.7111  0.0443
 1263SOL     OW 4817   5.985   3.153   3.658 -0.3347  0.1802 -0.3416
 1263SOL    HW2 4818   5.947   3.126   3.741  0.2880  0.0424 -0.0955
 1263SOL    HW3 4819   5.916   3.204   3.615 -0.9770 -0.5022 -0.1368
 1263SOL    MW4 4820   5.971   3.156   3.663  0.3136 -0.0084  0.0666
 1264SOL     OW 4821   2.086   4.944   2.598 -0.0327 -0.2584  0.2946
 1264SOL    HW2 4822   2.029   4.961   2.673  0.4420  0.3500  0.5311
 1264SOL    HW3 4823   2.037   4.884   2.543 -1.5464  1.4195 -0.2706
 1264SOL    MW4 4824   2.072   4.938   2.601  0.4007  0.3627  0.2067
 1265SOL     OW 4825   5.743   3.301   6.139 -0.1484 -0.6246 -0.6069
 1265SOL    HW2 4826   5.732   3.388   6.177  1.0908 -0.1280 -1.3336
 1265SOL    HW3 4827   5.721   3.241   6.210 -0.0161  0.2695  0.2147
 1265SOL    MW4 4828   5.738   3.305   6.153 -0.1826 -0.0554 -0.0143
 1266SOL     OW 4829   0.855   5.606   6.191  0.1871  0.2245 -0.2679
 1266SOL    HW2 4830   0.770   5.597   6.148  0.4214 -1.0262 -0.5154
 1266SOL    HW3 4831   0.840   5.577   6.281  0.3250  0.0892 -0.2877
 1266SOL    MW4 4832   0.842   5.601   6.197  0.2933  0.6725 -0.2269
 1267SOL     OW 4833   5.815   5.643   1.347  0.3601  0.5257  0.5151
 1267SOL    HW2 4834   5.855   5.570   1.395 -1.2495 -0.8413 -0.1561
 1267SOL    HW3 4835   5.725   5.616   1.332  0.2745  1.7743 -1.5651
 1267SOL    MW4 4836   5.809   5.630   1.351  0.0339 -0.1805  0.5647
 1268SOL     OW 4837   1.143   0.656   5.136  0.2444  0.5819  0.5454
 1268SOL    HW2 4838   1.153   0.659   5.041  0.1263  0.3624  0.5257
 1268SOL    HW3 4839   1.113   0.744   5.160  2.4591  1.3825  0.6412
 1268SOL    MW4 4840   1.141   0.668   5.127 -0.5457  0.1603 -0.2797
 1269SOL     OW 4841   2.350   4.554   5.321  0.1158  0.3346  0.5151
 1269SOL    HW2 4842   2.310   4.634   5.286  2.6007  1.6263  0.4029
 1269SOL    HW3 4843   2.387   4.581   5.405 -0.3583 -1.1314  1.2129
 1269SOL    MW4 4844   2.350   4.568   5.327 -0.0151  0.4094 -0.5785
 1270SOL     OW 4845   3.162   4.138   2.927 -0.7119 -0.0283 -0.8712
 1270SOL    HW2 4846   3.197   4.056   2.962  0.0289 -0.3042 -2.2124
 1270SOL    HW3 4847   3.069   4.137   2.952 -0.2079 -0.0917  1.2387
 1270SOL    MW4 4848   3.154   4.127   2.935  0.3118  0.3809  0.3504
 1271SOL     OW 4849   6.274   4.808   0.900 -0.0878  0.1405 -0.4352
 1271SOL    HW2 4850   6.195   4.822   0.848 -0.6972  1.1198  0.6956
 1271SOL    HW3 4851   6.310   4.896   0.912 -0.9161  0.1886  2.2093
 1271SOL    MW4 4852   6.268   4.822   0.894 -0.1531 -0.2029  0.9180
 1272SOL     OW 4853   2.355   3.214   5.384 -0.0992  0.0784  0.2010
 1272SOL    HW2 4854   2.352   3.299   5.430 -0.1481  0.4143 -0.4129
 1272SOL    HW3 4855   2.442   3.212   5.345  0.2641 -0.5925  1.0121
 1272SOL    MW4 4856   2.366   3.225   5.385 -0.0590 -0.5409 -0.1971
 1273SOL     OW 4857   3.906   5.169   4.312  0.5057  0.4031 -0.3844
 1273SOL    HW2 4858   3.958   5.151   4.390  0.5139 -0.0219 -0.4849
 1273SOL    HW3 4859   3.902   5.265   4.306 -0.3183  0.4543  0.6883
 1273SOL    MW4 4860   3.912   5.179   4.321 -0.0250 -0.2366  0.4079
 1274SOL     OW 4861   0.526   4.893   3.955  0.4884 -0.1395  0.0027
 1274SOL    HW2 4862   0.454   4.939   3.911  0.8125  0.8093  0.4456
 1274SOL    HW3 4863   0.605   4.921   3.909  0.6503 -0.6075 -0.0110
 1274SOL    MW4 4864   0.527   4.903   3.943  0.5426  0.3850  0.3378
 1275SOL     OW 4865   6.410   1.293   1.629 -0.2915  0.0065 -0.1084
 1275SOL    HW2 4866   6.381   1.232   1.561  1.8443  0.4900 -1.5498
 1275SOL    HW3 4867   6.331   1.344   1.650 -1.6177 -1.8390 -0.3373
 1275SOL    MW4 4868   6.396   1.292   1.623  0.3784  0.0201  0.1601
 1276SOL     OW 4869   6.184   5.832   5.817 -0.0215 -0.0562 -0.1593
 1276SOL    HW2 4870   6.133   5.782   5.754  1.3417 -1.3637 -0.2823
 1276SOL    HW3 4871   6.265   5.854   5.770 -0.2404  1.6034  0.1611
 1276SOL    MW4 4872   6.188   5.828   5.802 -0.4946 -0.2050  0.0820
 1277SOL     OW 4873   2.327   4.980   3.732 -0.2803  0.0125 -0.0919
 1277SOL    HW2 4874   2.390   5.028   3.678  0.3526 -1.1629 -0.4457
 1277SOL    HW3 4875   2.245   5.028   3.723  0.4910  1.4230  0.1548
 1277SOL    MW4 4876   2.325   4.993   3.724 -0.5177 -0.0204 -0.1015
 1278SOL     OW 4877   1.546   5.578   1.533 -0.0659  0.4199  0.1763
 1278SOL    HW2 4878   1.506   5.501   1.574  0.6977 -0.3117 -0.4095
 1278SOL    HW3 4879   1.486   5.600   1.461  0.8844 -1.1130 -1.1519
 1278SOL    MW4 4880   1.532   5.571   1.529 -0.5042 -0.0727  0.4768
 1279SOL     OW 4881   1.755   6.076   0.590  0.2278 -0.6318  0.2677
 1279SOL    HW2 4882   1.678   6.129   0.611 -1.0102 -2.2289 -0.0415
 1279SOL    HW3 4883   1.774   6.097   0.498 -2.2868 -2.9865 -0.9412
 1279SOL    MW4 4884   1.747   6.086   0.580 -0.1706  0.0253 -0.0678
 1280SOL     OW 4885   0.343   0.889   1.755  0.0988  0.3474  0.3003
 1280SOL    HW2 4886   0.411   0.845   1.704 -0.2094  0.6406 -0.3834
 1280SOL    HW3 4887   0.344   0.980   1.723 -0.1672  0.5122  0.7503
 1280SOL    MW4 4888   0.352   0.895   1.744  0.1384 -0.4028 -0.0246
 1281SOL     OW 4889   4.662   4.696   0.256  0.0416 -0.1171  0.1779
 1281SOL    HW2 4890   4.567   4.701   0.270 -0.1429  0.0984 -1.0494
 1281SOL    HW3 4891   4.679   4.602   0.243 -0.0659 -0.1127  0.0002
 1281SOL    MW4 4892   4.652   4.684   0.256 -0.8509  0.4879  0.2094
 1282SOL     OW 4893   6.263   1.812   4.256  0.3721  0.1597 -0.3563
 1282SOL    HW2 4894   6.225   1.823   4.343  0.5031  0.6526 -0.3610
 1282SOL    HW3 4895   6.201   1.756   4.209  1.2753 -1.8676  0.7102
 1282SOL    MW4 4896   6.250   1.806   4.261  0.6826 -0.0298 -0.8684
 1283SOL     OW 4897   1.000   4.147   4.794 -0.0318 -0.0083 -0.1183
 1283SOL    HW2 4898   0.990   4.064   4.840  3.1710 -1.2175 -1.2571
 1283SOL    HW3 4899   1.087   4.141   4.754 -1.0208  2.5331 -3.0503
 1283SOL    MW4 4900   1.010   4.136   4.794  0.4950  0.0693 -0.3218
 1284SOL     OW 4901   3.563   0.849   0.613  0.2869  0.2378  0.3598
 1284SOL    HW2 4902   3.492   0.837   0.676  0.2476  0.2345  0.3158
 1284SOL    HW3 4903   3.595   0.760   0.597 -1.2038 -0.0661 -1.3371
 1284SOL    MW4 4904   3.558   0.836   0.619 -0.2139  0.5968 -0.9799
 1285SOL     OW 4905   4.457   0.771   4.506 -0.0193 -0.6201 -0.8348
 1285SOL    HW2 4906   4.422   0.856   4.530  0.3028 -1.1377  1.7316
 1285SOL    HW3 4907   4.529   0.791   4.445 -0.8567  0.8057 -1.4026
 1285SOL    MW4 4908   4.462   0.785   4.501  0.1132 -0.6732 -0.1791
 1286SOL     OW 4909   2.633   3.809   2.397 -0.3124  0.0039  0.2060
 1286SOL    HW2 4910   2.556   3.847   2.439  0.2222 -0.9322  2.1687
 1286SOL    HW3 4911   2.602   3.730   2.355 -0.5367 -0.0466  0.4657
 1286SOL    MW4 4912   2.619   3.804   2.397  0.0186  0.0167  0.3030
 1287SOL     OW 4913   2.569   6.216   4.095  0.0090 -0.3701 -0.0821
 1287SOL    HW2 4914   2.606   6.304   4.089 -1.5346  0.2186 -3.8039
 1287SOL    HW3 4915   2.603   6.170   4.018 -0.0552 -2.7392  1.2169
 1287SOL    MW4 4916   2.578   6.222   4.084 -0.1706 -0.4207 -0.0321
 1288SOL     OW 4917   5.327   0.870   1.534 -0.2680  0.8874 -0.7976
 1288SOL    HW2 4918   5.270   0.929   1.484 -2.1609 -0.1852  0.0157
 1288SOL    HW3 4919   5.323   0.903   1.624 -0.4802  0.1763 -0.5396
 1288SOL    MW4 4920   5.319   0.883   1.539  0.4963 -0.5664 -0.4029
 1289SOL     OW 4921   1.896   0.992   1.922  0.0087 -0.6739 -0.0886
 1289SOL    HW2 4922   1.891   0.896   1.921  2.6481 -0.9388  1.5795
 1289SOL    HW3 4923   1.876   1.015   2.013  1.7555  0.1104  0.1327
 1289SOL    MW4 4924   1.892   0.982   1.934  0.3989 -0.3128 -0.0905
 1290SOL     OW 4925   0.890   5.938   5.687  0.3560  0.5480 -0.3917
 1290SOL    HW2 4926   0.959   5.938   5.753 -1.5006  0.0337  1.6720
 1290SOL    HW3 4927   0.908   5.861   5.634  1.6158  0.6813 -0.1884
 1290SOL    MW4 4928   0.902   5.928   5.689  0.1246  0.0950 -0.0400
 1291SOL     OW 4929   5.894   4.958   3.516 -0.1116 -0.0396 -0.5684
 1291SOL    HW2 4930   5.973   5.012   3.522 -1.2335  1.6279 -0.0209
 1291SOL    HW3 4931   5.923   4.870   3.540  1.4360  0.6731  0.3531
 1291SOL    MW4 4932   5.908   4.954   3.520  0.2027  0.3022  0.4019
 1292SOL     OW 4933   4.130   2.828   0.928 -0.2633  0.3164 -0.3394
 1292SOL    HW2 4934   4.052   2.869   0.891 -0.7721 -0.1478  0.1992
 1292SOL    HW3 4935   4.104   2.801   1.016  0.6546  0.5919  0.0298
 1292SOL    MW4 4936   4.116   2.830   0.934 -0.3539  0.1539  0.1976
 1293SOL     OW 4937   5.187   4.244   1.747 -0.6212 -0.1963 -0.7977
 1293SOL    HW2 4938   5.135   4.193   1.810  0.1727 -1.3426 -1.0331
 1293SOL    HW3 4939   5.196   4.187   1.671  1.7165 -0.4384 -0.4288
 1293SOL    MW4 4940   5.182   4.230   1.745 -0.0157  0.2703 -0.4954
 1294SOL     OW 4941   0.161   1.856   2.404 -0.6362 -0.7248 -0.5344
 1294SOL    HW2 4942   0.256   1.864   2.401 -0.7553  1.7862  0.0623
 1294SOL    HW3 4943   0.141   1.825   2.492 -0.3580 -2.6763 -1.1146
 1294SOL    MW4 4944   0.171   1.853   2.415  0.2460 -0.4639  0.2034
 1295SOL     OW 4945   1.304   3.558   4.830 -0.1908 -0.1394 -0.0634
 1295SOL    HW2 4946   1.269   3.644   4.807 -0.6560 -0.5090 -0.7725
 1295SOL    HW3 4947   1.377   3.576   4.888  0.2687  0.7761 -0.9092
 1295SOL    MW4 4948   1.309   3.571   4.835 -0.0264 -0.2188  0.3829
 1296SOL     OW 4949   1.483   6.008   2.354  1.0680 -0.3319  0.1852
 1296SOL    HW2 4950   1.392   6.030   2.375  0.9240 -0.2680 -0.4975
 1296SOL    HW3 4951   1.477   5.953   2.276  1.5603 -1.1319  0.6986
 1296SOL    MW4 4952   1.470   6.004   2.347 -0.3203 -0.3306  0.2032
 1297SOL     OW 4953   2.678   4.045   0.621  0.0774  0.3392 -0.1773
 1297SOL    HW2 4954   2.618   4.097   0.674  1.3573  1.3595  0.3296
 1297SOL    HW3 4955   2.682   3.960   0.665 -2.4540 -0.4466 -1.3216
 1297SOL    MW4 4956   2.671   4.041   0.634  0.1072  0.9470 -0.0597
 1298SOL     OW 4957   0.861   5.938   4.307  0.2812  0.4922 -0.0035
 1298SOL    HW2 4958   0.854   5.989   4.226 -0.5823  0.1606 -0.1498
 1298SOL    HW3 4959   0.875   6.003   4.375 -1.8368  1.0782 -0.0441
 1298SOL    MW4 4960   0.862   5.953   4.305  0.7565  0.7194  0.4932
 1299SOL     OW 4961   5.918   0.629   0.022  1.0850  0.2215  0.6443
 1299SOL    HW2 4962   5.870   0.711   0.015  0.2596 -0.2600  0.5212
 1299SOL    HW3 4963   6.010   0.654   0.016  0.8042  0.8750 -2.2288
 1299SOL    MW4 4964   5.924   0.643   0.020  0.4609 -0.5100 -0.2385
 1300SOL     OW 4965   5.093   2.946   3.522  0.1098  0.1007 -1.3836
 1300SOL    HW2 4966   5.127   2.987   3.442  1.2185  0.0662 -0.9572
 1300SOL    HW3 4967   5.172   2.923   3.572 -0.5333  1.7632  0.5384
 1300SOL    MW4 4968   5.108   2.949   3.518 -0.5493  0.5218 -0.2721
 1301SOL     OW 4969   4.923   5.312   0.818  0.2568  0.4160 -0.1016
 1301SOL    HW2 4970   4.959   5.401   0.813  0.3938  0.4512  1.0901
 1301SOL    HW3 4971   4.889   5.306   0.908  1.6478 -1.2610  0.3666
 1301SOL    MW4 4972   4.923   5.323   0.829 -0.4118  0.7923  0.1032
 1302SOL     OW 4973   4.702   1.605   2.599  0.1364  0.0856 -0.0164
 1302SOL    HW2 4974   4.793   1.610   2.569  1.2201 -1.7356  2.5841
 1302SOL    HW3 4975   4.666   1.692   2.582  2.6171  1.1276 -0.3784
 1302SOL    MW4 4976   4.709   1.617   2.593 -0.0685 -0.1886  0.6111
 1303SOL     OW 4977   2.117   2.707   0.107  0.3663  0.6514 -0.2176
 1303SOL    HW2 4978   2.097   2.626   0.155 -1.0936  0.8563 -0.4250
 1303SOL    HW3 4979   2.102   2.776   0.172 -1.3961  0.9160 -0.8476
 1303SOL    MW4 4980   2.112   2.705   0.122  0.2374 -0.1003  0.0454
 1304SOL     OW 4981   0.446   3.947   0.491  0.4940 -0.1507  0.1484
 1304SOL    HW2 4982   0.395   3.867   0.501  0.8338 -0.0721  3.4336
 1304SOL    HW3 4983   0.530   3.917   0.457  0.6726 -1.2688  1.4792
 1304SOL    MW4 4984   0.450   3.933   0.488 -0.4688 -0.1967  0.0595
 1305SOL     OW 4985   4.818   2.136   3.214  0.6767  0.2331  0.1555
 1305SOL    HW2 4986   4.807   2.047   3.247  2.4412 -0.6909 -1.5611
 1305SOL    HW3 4987   4.905   2.136   3.174  0.1489  2.3333 -1.1244
 1305SOL    MW4 4988   4.828   2.124   3.213  0.6211 -0.4783 -0.5018
 1306SOL     OW 4989   4.615   5.734   6.136 -0.2970  0.5174 -0.2228
 1306SOL    HW2 4990   4.645   5.693   6.217 -1.6484 -0.3996 -0.1563
 1306SOL    HW3 4991   4.563   5.809   6.165 -2.5474 -0.9956 -0.0924
 1306SOL    MW4 4992   4.612   5.738   6.151 -0.0156  0.0419 -0.0375
 1307SOL     OW 4993   2.778   0.138   5.847 -0.5908 -0.4573  0.0537
 1307SOL    HW2 4994   2.782   0.048   5.877  0.7788 -0.3916  0.1373
 1307SOL    HW3 4995   2.788   0.191   5.926  2.2841 -0.2837 -0.3387
 1307SOL    MW4 4996   2.780   0.133   5.861 -0.0764  0.3322 -0.1872
 1308SOL     OW 4997   0.809   4.825   2.412  0.2800  0.0614 -0.1064
 1308SOL    HW2 4998   0.826   4.888   2.482 -0.3332 -1.2664  1.3010
 1308SOL    HW3 4999   0.730   4.858   2.369 -1.3884 -0.7952  2.0530
 1308SOL    MW4 5000   0.801   4.837   2.416 -0.0401  0.3080  0.0383
 1309SOL     OW 5001   0.722   5.557   3.018 -0.6395 -0.1355  0.7864
 1309SOL    HW2 5002   0.775   5.593   3.089  0.5251 -0.7540  0.2546
 1309SOL    HW3 5003   0.744   5.610   2.942 -0.8755 -0.3179  0.5884
 1309SOL    MW4 5004   0.732   5.569   3.017  0.3292 -0.6929  0.0834
 1310SOL     OW 5005   6.158   1.554   5.669  0.1929 -0.1941 -0.2956
 1310SOL    HW2 5006   6.087   1.540   5.606 -1.3988  1.8675  0.9349
 1310SOL    HW3 5007   6.183   1.645   5.658  0.3517  0.0203  1.5849
 1310SOL    MW4 5008   6.152   1.564   5.659  0.3142  0.0325 -0.3449
 1311SOL     OW 5009   2.740   1.782   4.054  0.2459 -0.0976  0.5609
 1311SOL    HW2 5010   2.809   1.792   4.121 -0.4268  1.5378  1.0512
 1311SOL    HW3 5011   2.659   1.799   4.101 -0.4620 -1.3594 -0.1633
 1311SOL    MW4 5012   2.739   1.785   4.069  0.2822  0.5426 -0.2301
 1312SOL     OW 5013   4.584   0.765   1.057 -0.5989  0.1189 -0.3367
 1312SOL    HW2 5014   4.581   0.698   0.989  1.0438  0.4379 -0.7598
 1312SOL    HW3 5015   4.636   0.836   1.019  0.1385  0.4056  1.1399
 1312SOL    MW4 5016   4.591   0.766   1.043  0.7818  0.6342 -0.3863
 1313SOL     OW 5017   2.809   3.338   2.327 -0.2084  0.4860 -0.4106
 1313SOL    HW2 5018   2.887   3.305   2.283 -1.2844  1.7989 -3.6026
 1313SOL    HW3 5019   2.843   3.383   2.404  1.8590 -1.5328 -0.0273
 1313SOL    MW4 5020   2.824   3.340   2.331 -0.6581 -0.0138 -0.1691
 1314SOL     OW 5021   3.829   2.145   4.266 -0.1091 -0.0229 -0.0558
 1314SOL    HW2 5022   3.739   2.158   4.296 -1.1352 -3.9007 -0.8476
 1314SOL    HW3 5023   3.874   2.109   4.343  0.1341 -0.1365 -0.2521
 1314SOL    MW4 5024   3.823   2.142   4.280  0.3084  0.3229  0.1037
 1315SOL     OW 5025   3.508   0.362   4.043  0.3606 -0.2319  0.0487
 1315SOL    HW2 5026   3.554   0.306   4.104 -0.1776  0.8632  1.5131
 1315SOL    HW3 5027   3.575   0.421   4.009  0.3964  0.1355  0.7447
 1315SOL    MW4 5028   3.523   0.363   4.046  0.8487 -0.1781  0.1349
 1316SOL     OW 5029   6.204   1.180   2.359  0.2885 -0.5127  0.3673
 1316SOL    HW2 5030   6.175   1.193   2.450 -2.4912 -1.0319 -0.3556
 1316SOL    HW3 5031   6.295   1.210   2.359  0.9704 -2.0368  3.6950
 1316SOL    MW4 5032   6.212   1.186   2.371 -0.1460 -0.0140 -0.3938
 1317SOL     OW 5033   4.637   4.775   6.013  0.1439  0.4440 -0.0273
 1317SOL    HW2 5034   4.665   4.865   5.998  0.6896  0.2872  0.0322
 1317SOL    HW3 5035   4.612   4.773   6.105  1.6704  0.1478  0.4107
 1317SOL    MW4 5036   4.637   4.787   6.023  0.0614 -0.3866 -0.6042
 1318SOL     OW 5037   4.837   4.403   3.283 -0.1352  0.2581  0.0341
 1318SOL    HW2 5038   4.775   4.330   3.282 -0.0736  0.2020 -0.8022
 1318SOL    HW3 5039   4.920   4.366   3.253 -0.1126  0.6676 -0.4381
 1318SOL    MW4 5040   4.840   4.389   3.279  0.0963  0.2607 -0.0925
 1319SOL     OW 5041   3.606   6.304   5.719 -0.0090  0.4607 -0.1425
 1319SOL    HW2 5042   3.535   6.264   5.668  0.1770 -1.2318  0.8531
 1319SOL    HW3 5043   3.634   6.378   5.666 -1.6870  0.4393 -1.1493
 1319SOL    MW4 5044   3.600   6.308   5.705  0.8018 -0.2517 -0.5018
 1320SOL     OW 5045   5.522   5.774   0.409  0.1448  0.2901 -0.4982
 1320SOL    HW2 5046   5.439   5.728   0.393  0.3418 -0.4442  0.4945
 1320SOL    HW3 5047   5.529   5.837   0.337 -1.1997  0.2634 -0.6752
 1320SOL    MW4 5048   5.512   5.776   0.397  0.6064  0.3774  0.1934
 1321SOL     OW 5049   2.613   3.222   5.263  0.1790 -0.2385 -0.0528
 1321SOL    HW2 5050   2.683   3.168   5.301  1.0168  1.3545  0.7652
 1321SOL    HW3 5051   2.650   3.255   5.181 -0.0121 -0.2319 -0.1349
 1321SOL    MW4 5052   2.627   3.219   5.258  0.0620  0.3636  0.6283
 1322SOL     OW 5053   5.098   2.645   2.600 -0.1417  0.2720  0.3931
 1322SOL    HW2 5054   5.136   2.619   2.517 -0.3802 -0.6329  0.5596
 1322SOL    HW3 5055   5.045   2.722   2.579 -0.6358 -0.2754 -0.3897
 1322SOL    MW4 5056   5.096   2.652   2.586 -0.2628 -0.4598 -0.0621
 1323SOL     OW 5057   5.180   5.213   5.875  0.0046 -0.0788 -0.1560
 1323SOL    HW2 5058   5.087   5.200   5.860 -0.3059  1.5925  0.1736
 1323SOL    HW3 5059   5.206   5.279   5.811  0.6170  0.5563  0.7228
 1323SOL    MW4 5060   5.171   5.220   5.865  0.4779 -0.0298 -0.3484
 1324SOL     OW 5061   2.217   4.660   0.549  0.4500 -0.2551 -0.2571
 1324SOL    HW2 5062   2.197   4.749   0.579  1.4708 -0.8267  2.4394
 1324SOL    HW3 5063   2.145   4.638   0.490 -0.3519  1.9800 -0.2282
 1324SOL    MW4 5064   2.205   4.669   0.545 -0.3469  0.0657 -0.7230
 1325SOL     OW 5065   2.535   5.995   6.403 -0.5706 -0.3705  0.3154
 1325SOL    HW2 5066   2.624   6.027   6.385 -1.3320  2.5396  1.1931
 1325SOL    HW3 5067   2.540   5.961   6.492 -0.4168  0.1610  0.5136
 1325SOL    MW4 5068   2.548   5.995   6.412 -0.1189 -0.0677  0.1142
 1326SOL     OW 5069   3.949   4.347   5.267 -0.7988 -0.7320 -0.0018
 1326SOL    HW2 5070   4.006   4.287   5.218 -0.3528 -0.8871  0.7007
 1326SOL    HW3 5071   3.931   4.419   5.206  0.2174 -0.6378 -0.1988
 1326SOL    MW4 5072   3.954   4.348   5.253 -0.4489  0.2608 -0.1871
 1327SOL     OW 5073   0.709   2.007   5.114  0.2158  0.3963  0.6807
 1327SOL    HW2 5074   0.801   1.986   5.097  0.2949  1.0536  0.2828
 1327SOL    HW3 5075   0.666   1.994   5.030  0.3197  2.0795  0.3358
 1327SOL    MW4 5076   0.716   2.003   5.101  0.3395  0.2844 -0.4101
 1328SOL     OW 5077   4.922   3.342   4.619 -0.1829  0.2406 -0.8280
 1328SOL    HW2 5078   4.930   3.270   4.556 -0.6070 -1.0980  0.5765
 1328SOL    HW3 5079   5.012   3.360   4.647 -0.0279  0.6005 -1.5647
 1328SOL    MW4 5080   4.935   3.335   4.615 -0.0209 -0.3786  0.0278
 1329SOL     OW 5081   5.968   2.376   0.634  0.4794 -0.1080  0.0028
 1329SOL    HW2 5082   5.960   2.281   0.626 -0.9812 -0.0525  0.5196
 1329SOL    HW3 5083   5.993   2.390   0.725  0.5035  0.0225 -0.0237
 1329SOL    MW4 5084   5.971   2.366   0.645  0.1104 -0.1471 -0.2379
 1330SOL     OW 5085   5.728   5.389   5.139  0.4234  0.5054 -0.7884
 1330SOL    HW2 5086   5.687   5.320   5.086 -1.6705  1.1392 -0.0888
 1330SOL    HW3 5087   5.749   5.345   5.222 -1.0832  0.7101 -0.2734
 1330SOL    MW4 5088   5.726   5.374   5.143  0.6457  0.1130  0.4996
 1331SOL     OW 5089   3.926   0.292   0.078 -0.4035  0.3525  0.1506
 1331SOL    HW2 5090   3.884   0.316  -0.005 -0.9062 -0.1619  0.2549
 1331SOL    HW3 5091   3.870   0.331   0.145  0.2779  1.2074  0.2538
 1331SOL    MW4 5092   3.913   0.301   0.076  0.2179  0.2195 -0.1448
 1332SOL     OW 5093   5.558   3.303   4.089  0.5980  0.2084 -0.1747
 1332SOL    HW2 5094   5.537   3.390   4.055 -0.9468 -0.5972 -1.4619
 1332SOL    HW3 5095   5.589   3.254   4.013  1.8035 -0.2786  0.6023
 1332SOL    MW4 5096   5.559   3.308   4.075  0.2936 -0.1628  0.2735
 1333SOL     OW 5097   1.597   4.501   2.535 -0.3785 -0.0295  0.1711
 1333SOL    HW2 5098   1.635   4.586   2.556  1.4133 -0.9222  0.7294
 1333SOL    HW3 5099   1.640   4.474   2.454 -0.8806 -0.4402  0.0324
 1333SOL    MW4 5100   1.607   4.508   2.527 -0.0236  0.5109 -0.6587
 1334SOL     OW 5101   3.645   1.769   2.259 -0.2061  0.5176 -0.1441
 1334SOL    HW2 5102   3.608   1.826   2.193  0.7342 -0.4483 -1.5674
 1334SOL    HW3 5103   3.584   1.695   2.265  0.2044  0.1307 -0.6653
 1334SOL    MW4 5104   3.632   1.766   2.251  0.0701  0.6021  0.1988
 1335SOL     OW 5105   6.035   1.742   1.979 -0.8356 -0.6041  0.5884
 1335SOL    HW2 5106   6.026   1.830   2.015 -1.6206  0.2427 -1.4976
 1335SOL    HW3 5107   6.122   1.742   1.938 -0.9507 -0.6817  0.3390
 1335SOL    MW4 5108   6.045   1.754   1.978 -0.5940 -0.0182 -0.2171
 1336SOL     OW 5109   1.081   4.245   2.100  0.1088  0.0849  0.2800
 1336SOL    HW2 5110   1.055   4.159   2.132  1.3604 -0.2140  0.5734
 1336SOL    HW3 5111   1.003   4.281   2.059 -0.0479 -1.8501 -1.2726
 1336SOL    MW4 5112   1.068   4.239   2.099  0.1135 -0.0250 -1.2233
 1337SOL     OW 5113   0.046   2.582   5.514  0.0814  0.4789 -0.0550
 1337SOL    HW2 5114   0.036   2.638   5.437  0.6361  0.6632  0.0006
 1337SOL    HW3 5115   0.098   2.634   5.575  1.2889 -0.3795 -0.3183
 1337SOL    MW4 5116   0.052   2.596   5.512  0.6480 -0.9248 -0.1497
 1338SOL     OW 5117   0.398   2.696   0.142 -0.3633  0.6055 -0.1839
 1338SOL    HW2 5118   0.344   2.663   0.214  0.9198  1.1282  1.0639
 1338SOL    HW3 5119   0.485   2.659   0.158  0.3637  2.1246 -0.4577
 1338SOL    MW4 5120   0.402   2.687   0.154  0.0621  0.1977  0.1846
 1339SOL     OW 5121   4.497   4.527   3.618  0.3262  0.4129 -0.0162
 1339SOL    HW2 5122   4.410   4.496   3.643  0.4299 -3.1013 -3.1839
 1339SOL    HW3 5123   4.481   4.607   3.567 -0.7754  1.0006  1.1888
 1339SOL    MW4 5124   4.484   4.534   3.615 -0.0918  0.6593 -0.9617
 1340SOL     OW 5125   6.341   2.955   3.160 -0.7620 -0.2363 -0.2045
 1340SOL    HW2 5126   6.309   2.995   3.079 -0.4026 -0.1904 -0.3251
 1340SOL    HW3 5127   6.263   2.946   3.215 -0.6282  2.0732  0.4605
 1340SOL    MW4 5128   6.326   2.959   3.157 -0.0428 -0.0654  0.2788
 1341SOL     OW 5129   0.221   4.117   1.310  0.2366 -0.0489  0.0863
 1341SOL    HW2 5130   0.132   4.084   1.319  0.0831  0.5694  1.0935
 1341SOL    HW3 5131   0.219   4.174   1.233  0.3505 -1.8063 -1.2779
 1341SOL    MW4 5132   0.209   4.120   1.301  0.0249  1.0123 -1.0050
 1342SOL     OW 5133   4.566   6.256   2.707  0.3864 -0.1840 -0.3319
 1342SOL    HW2 5134   4.499   6.229   2.770  1.2731 -1.2589  0.1858
 1342SOL    HW3 5135   4.643   6.275   2.760  1.0874 -0.8987 -1.0625
 1342SOL    MW4 5136   4.567   6.255   2.722 -0.0617  0.5954 -0.5976
 1343SOL     OW 5137   1.495   2.273   4.183 -0.2376  0.2809  0.0936
 1343SOL    HW2 5138   1.469   2.199   4.238 -1.5772 -0.2340 -1.1590
 1343SOL    HW3 5139   1.416   2.297   4.136  0.9817  0.2556 -2.1085
 1343SOL    MW4 5140   1.481   2.266   4.184 -0.0339 -0.2921  0.9399
 1344SOL     OW 5141   5.555   2.340   1.571 -0.1052 -0.0309 -0.4642
 1344SOL    HW2 5142   5.550   2.326   1.477  1.6958  0.8723 -0.7415
 1344SOL    HW3 5143   5.559   2.435   1.581 -2.6162  0.0486  0.7275
 1344SOL    MW4 5144   5.555   2.351   1.560  0.0486  0.1342 -0.6003
 1345SOL     OW 5145   1.612   4.124   3.702  0.5346  0.1563 -0.0059
 1345SOL    HW2 5146   1.695   4.078   3.716  1.3594  0.9611 -1.9357
 1345SOL    HW3 5147   1.634   4.216   3.714 -0.1192  0.3693 -0.4397
 1345SOL    MW4 5148   1.626   4.130   3.706  0.1681  0.0060 -0.8014
 1346SOL     OW 5149   1.726   0.650   1.698  0.4522 -0.3397 -0.4724
 1346SOL    HW2 5150   1.676   0.705   1.638 -2.3749 -0.0123  1.9510
 1346SOL    HW3 5151   1.667   0.577   1.718  1.0084 -0.1414  2.2835
 1346SOL    MW4 5152   1.712   0.647   1.693 -0.0469 -0.3547 -0.2637
 1347SOL     OW 5153   5.526   0.227   5.779  0.0163 -0.1665  0.0441
 1347SOL    HW2 5154   5.503   0.162   5.845  1.8554  0.4166  1.3401
 1347SOL    HW3 5155   5.516   0.311   5.822  0.5220  0.2647 -0.6497
 1347SOL    MW4 5156   5.522   0.229   5.793  0.7097  1.2111  0.3521
 1348SOL     OW 5157   4.898   3.633   4.179 -0.3765  0.1740 -0.6464
 1348SOL    HW2 5158   4.877   3.661   4.090  0.1500  0.6632 -0.6207
 1348SOL    HW3 5159   4.961   3.562   4.167 -0.0558  0.4554 -0.6656
 1348SOL    MW4 5160   4.904   3.627   4.166 -0.0017 -0.5859  0.1853
 1349SOL     OW 5161   4.804   1.591   5.839 -0.0499  0.2314  0.5407
 1349SOL    HW2 5162   4.836   1.505   5.867 -0.1702  0.1171  0.3295
 1349SOL    HW3 5163   4.816   1.591   5.744 -0.8913  0.0952  0.4260
 1349SOL    MW4 5164   4.810   1.580   5.830 -0.2984 -0.2466  0.3647
 1350SOL     OW 5165   3.396   1.627   2.942  0.6409  0.2155 -0.1233
 1350SOL    HW2 5166   3.344   1.549   2.959  0.5070  0.2425 -0.3936
 1350SOL    HW3 5167   3.336   1.700   2.959  1.2760  0.3356  1.9209
 1350SOL    MW4 5168   3.381   1.626   2.947  1.1696 -0.7864 -0.4326
 1351SOL     OW 5169   0.604   2.688   0.375 -0.5912  0.4145 -0.1481
 1351SOL    HW2 5170   0.695   2.694   0.402 -0.3039 -0.4276 -0.8706
 1351SOL    HW3 5171   0.565   2.625   0.435 -0.9309  1.4009  0.7006
 1351SOL    MW4 5172   0.611   2.681   0.387  0.9307 -0.5814 -0.7077
 1352SOL     OW 5173   4.008   3.853   3.925 -0.4992 -0.2871  0.6854
 1352SOL    HW2 5174   3.997   3.917   3.995  0.4422 -0.2176  0.7882
 1352SOL    HW3 5175   3.971   3.772   3.960 -0.8762 -0.0227  0.8991
 1352SOL    MW4 5176   4.002   3.851   3.939 -0.0448  0.2071  0.3897
 1353SOL     OW 5177   4.706   1.788   5.313 -0.2412  0.1533  0.2474
 1353SOL    HW2 5178   4.626   1.839   5.304 -1.5297 -1.4352  1.9021
 1353SOL    HW3 5179   4.707   1.730   5.237 -0.2663  0.6438 -0.1347
 1353SOL    MW4 5180   4.696   1.787   5.302  0.0165 -0.3088 -0.2153
 1354SOL     OW 5181   3.578   5.008   0.599  0.0457 -0.1045 -0.0498
 1354SOL    HW2 5182   3.598   5.028   0.690 -1.7752  0.7978  0.2038
 1354SOL    HW3 5183   3.599   5.089   0.552  0.2119 -0.2969 -0.3096
 1354SOL    MW4 5184   3.584   5.021   0.604  0.0204  0.5209 -0.5688
 1355SOL     OW 5185   3.112   4.102   0.268  0.2313 -0.4973 -0.0560
 1355SOL    HW2 5186   3.080   4.044   0.337 -0.1496  0.0036  0.1930
 1355SOL    HW3 5187   3.043   4.099   0.201 -0.1499  0.2444  0.2899
 1355SOL    MW4 5188   3.098   4.094   0.268  0.0086  0.2987  0.6182
 1356SOL     OW 5189   2.188   4.862   1.806  0.1757  0.2124 -0.1916
 1356SOL    HW2 5190   2.188   4.766   1.796 -2.1241  0.1459  0.0215
 1356SOL    HW3 5191   2.281   4.885   1.808  0.8128 -1.7933 -2.2075
 1356SOL    MW4 5192   2.201   4.852   1.805  0.1985  0.0082  0.4685
 1357SOL     OW 5193   4.904   3.304   0.068 -0.1179  0.1827  0.1270
 1357SOL    HW2 5194   4.976   3.256   0.028 -0.1910  0.6277 -0.5694
 1357SOL    HW3 5195   4.868   3.244   0.134  0.9169 -0.0143  0.5265
 1357SOL    MW4 5196   4.909   3.290   0.071 -0.2466 -0.1953  0.0759
 1358SOL     OW 5197   3.873  -0.029   0.607 -0.2405 -0.3729 -0.6313
 1358SOL    HW2 5198   3.952  -0.014   0.555 -0.4504  1.7890 -0.4308
 1358SOL    HW3 5199   3.877   0.037   0.677 -3.2370  1.3548 -1.8877
 1358SOL    MW4 5200   3.884  -0.019   0.609  0.4870  0.5336  0.3029
 1359SOL     OW 5201   1.785   3.924   3.014 -0.2459 -0.0748 -0.6736
 1359SOL    HW2 5202   1.693   3.896   3.017 -0.8869  1.8847 -0.5052
 1359SOL    HW3 5203   1.820   3.901   3.099 -0.5944 -0.8241 -0.7310
 1359SOL    MW4 5204   1.777   3.918   3.026 -0.5861 -0.1085 -0.2189
 1360SOL     OW 5205   4.246   1.913   1.811 -0.4165 -0.1240  0.2035
 1360SOL    HW2 5206   4.244   1.834   1.866  0.0792 -0.8469 -0.7741
 1360SOL    HW3 5207   4.215   1.883   1.726  0.0409  0.6837 -0.2547
 1360SOL    MW4 5208   4.242   1.898   1.807 -0.7480  0.0535  0.1074
 1361SOL     OW 5209   3.791   4.200   2.224  0.5583 -0.5030 -0.4096
 1361SOL    HW2 5210   3.787   4.185   2.130 -0.0144  0.4660 -0.5488
 1361SOL    HW3 5211   3.783   4.295   2.234  0.6755 -0.5884  0.6133
 1361SOL    MW4 5212   3.790   4.210   2.213 -0.2599 -0.8177 -0.1182
 1362SOL     OW 5213   0.957   3.691   0.915 -0.2392  0.7607  0.0173
 1362SOL    HW2 5214   0.881   3.691   0.856  0.2400  1.0225 -0.6216
 1362SOL    HW3 5215   0.981   3.599   0.924  0.0991  0.7578 -0.7699
 1362SOL    MW4 5216   0.950   3.679   0.908  0.0037 -0.3064  0.1064
 1363SOL     OW 5217   4.638   3.108   1.203  0.1855  0.7090  0.3905
 1363SOL    HW2 5218   4.676   3.196   1.201 -0.3443  1.0057  2.0437
 1363SOL    HW3 5219   4.550   3.120   1.169  0.1187  0.8160  0.6000
 1363SOL    MW4 5220   4.632   3.121   1.198  0.4137 -0.3696 -0.0363
 1364SOL     OW 5221   4.574   5.602   2.806 -0.4937 -0.3887  0.2948
 1364SOL    HW2 5222   4.549   5.690   2.778 -1.0571 -0.2963  1.0331
 1364SOL    HW3 5223   4.492   5.562   2.833 -0.1415 -0.8895  0.6377
 1364SOL    MW4 5224   4.560   5.608   2.806  0.1356  0.1259 -0.2708
 1365SOL     OW 5225   4.730   3.538   0.817  0.0061 -0.1062 -0.0457
 1365SOL    HW2 5226   4.680   3.565   0.739 -0.2202  0.4011  0.2701
 1365SOL    HW3 5227   4.725   3.442   0.815  1.4324 -0.1995 -1.5748
 1365SOL    MW4 5228   4.722   3.528   0.806  0.2401 -0.0777  0.0695
 1366SOL     OW 5229   4.498   1.940   0.997  0.0052 -0.5693 -0.3218
 1366SOL    HW2 5230   4.573   1.986   1.036 -0.4474 -0.8099  0.8583
 1366SOL    HW3 5231   4.442   2.010   0.964  0.2297 -0.3486 -0.2409
 1366SOL    MW4 5232   4.501   1.955   0.998 -0.5795  0.8115 -0.2989
 1367SOL     OW 5233   0.060   3.061   2.254 -0.5283  0.2329 -0.5907
 1367SOL    HW2 5234   0.133   3.103   2.300 -1.1295  0.0442  0.5692
 1367SOL    HW3 5235   0.007   3.133   2.222 -0.2208  0.3656 -0.8111
 1367SOL    MW4 5236   0.063   3.076   2.256  0.1249  0.0693  0.1896
 1368SOL     OW 5237   5.447   2.040   0.775 -0.4006  0.4803 -0.6332
 1368SOL    HW2 5238   5.402   1.958   0.753 -0.6239 -0.2493  2.0711
 1368SOL    HW3 5239   5.506   2.056   0.701 -0.6676 -1.9098 -1.4647
 1368SOL    MW4 5240   5.449   2.031   0.763  0.4112  0.2052  0.2049
 1369SOL     OW 5241   2.472   2.345   4.625 -0.5719 -0.3097  0.3803
 1369SOL    HW2 5242   2.419   2.276   4.666 -1.1075 -0.7982 -1.0612
 1369SOL    HW3 5243   2.419   2.374   4.550 -0.1474  1.3752  0.7018
 1369SOL    MW4 5244   2.458   2.340   4.621 -0.4958  0.3785  0.1153
 1370SOL     OW 5245   6.228   0.927   3.311 -0.4109  0.2333  0.5554
 1370SOL    HW2 5246   6.200   1.011   3.275  2.6308  1.6028  1.0487
 1370SOL    HW3 5247   6.213   0.935   3.406 -0.5468  0.0139  0.5542
 1370SOL    MW4 5248   6.222   0.939   3.319  0.2346 -0.1338  0.3507
 1371SOL     OW 5249   5.100   0.604   3.164  0.0628 -0.3295  0.7019
 1371SOL    HW2 5250   5.059   0.584   3.080 -0.9586  0.8021  0.9124
 1371SOL    HW3 5251   5.095   0.522   3.213 -1.4434 -0.3674  0.5148
 1371SOL    MW4 5252   5.094   0.590   3.159 -0.0428 -0.6615  0.0035
 1372SOL     OW 5253   2.017   5.330   0.851 -0.5497  0.2220  0.2071
 1372SOL    HW2 5254   1.934   5.309   0.893 -2.0122 -1.2977 -3.0846
 1372SOL    HW3 5255   2.074   5.257   0.873 -0.7758  0.2128  0.7720
 1372SOL    MW4 5256   2.014   5.317   0.859  0.0950 -0.0063 -0.1812
 1373SOL     OW 5257   2.705   4.857   1.128  0.0696  0.2651  0.1751
 1373SOL    HW2 5258   2.679   4.773   1.089 -3.4054  1.9140 -1.5321
 1373SOL    HW3 5259   2.790   4.877   1.087 -0.1698 -1.3314 -1.2198
 1373SOL    MW4 5260   2.713   4.848   1.117 -0.4251 -0.7092 -0.2600
 1374SOL     OW 5261   3.881   1.591   2.765  0.3586  0.5096 -0.5178
 1374SOL    HW2 5262   3.854   1.570   2.676  1.8767  1.5117 -1.2503
 1374SOL    HW3 5263   3.941   1.665   2.756  0.4624  0.7143  1.3503
 1374SOL    MW4 5264   3.885   1.598   2.752 -0.0884  0.2544  0.1846
 1375SOL     OW 5265   1.090   1.048   3.518  0.4088 -0.9954 -0.7599
 1375SOL    HW2 5266   1.156   1.102   3.474  0.5964 -2.4689 -2.3806
 1375SOL    HW3 5267   1.009   1.098   3.510  0.7564 -0.5260 -1.4236
 1375SOL    MW4 5268   1.088   1.062   3.511 -0.6175  0.1056 -0.2506
 1376SOL     OW 5269   3.516   2.777   4.307  0.1592  0.8233  0.3374
 1376SOL    HW2 5270   3.455   2.780   4.381 -1.0409  0.2916 -0.5811
 1376SOL    HW3 5271   3.523   2.868   4.278 -0.4742  0.8530  0.2543
 1376SOL    MW4 5272   3.509   2.790   4.313 -0.1229 -0.5863 -0.3898
 1377SOL     OW 5273   3.338   5.495   4.669 -0.4277  0.3852  0.1765
 1377SOL    HW2 5274   3.403   5.490   4.599 -2.0777 -1.3880 -1.3503
 1377SOL    HW3 5275   3.382   5.457   4.746  0.9336  1.0194 -0.2629
 1377SOL    MW4 5276   3.352   5.489   4.670 -0.1078  0.2733 -0.2555
 1378SOL     OW 5277   5.133   3.650   6.278 -0.1427  0.5773 -0.1345
 1378SOL    HW2 5278   5.105   3.576   6.224 -0.1816 -0.2924  1.0238
 1378SOL    HW3 5279   5.105   3.626   6.367 -1.4616  2.6364  0.0693
 1378SOL    MW4 5280   5.125   3.637   6.283  0.0520 -0.2344  0.5584
 1379SOL     OW 5281   0.643   6.073   4.867  0.0485 -0.3410 -0.0982
 1379SOL    HW2 5282   0.725   6.047   4.908 -0.2772 -2.4138 -0.6357
 1379SOL    HW3 5283   0.647   6.169   4.862  2.0758 -0.3575  0.5558
 1379SOL    MW4 5284   0.654   6.082   4.872 -0.2766  0.5218  0.4308
 1380SOL     OW 5285   3.142   5.915   0.342  0.4470  0.0776 -0.2830
 1380SOL    HW2 5286   3.230   5.879   0.350  1.1195  1.2092 -1.9260
 1380SOL    HW3 5287   3.106   5.910   0.430  1.9125 -0.9997  0.2999
 1380SOL    MW4 5288   3.149   5.909   0.355  0.5787 -0.3307  0.0089
 1381SOL     OW 5289   1.482   4.095   3.253  0.5564 -0.1019  0.3087
 1381SOL    HW2 5290   1.487   4.182   3.292  0.3977  0.4010 -0.7398
 1381SOL    HW3 5291   1.527   4.103   3.169 -0.5552 -0.6747 -0.3829
 1381SOL    MW4 5292   1.488   4.107   3.247  0.1523 -0.3594  0.0564
 1382SOL     OW 5293   5.650   1.438   3.719  0.0959 -0.5021  0.2948
 1382SOL    HW2 5294   5.680   1.529   3.726  0.6765 -0.6575 -0.1219
 1382SOL    HW3 5295   5.566   1.437   3.766 -0.5163  0.5268 -0.7285
 1382SOL    MW4 5296   5.643   1.450   3.726  0.4832  0.2342  0.0716
 1383SOL     OW 5297   3.327   5.759   5.603 -0.0601 -0.9798  0.1935
 1383SOL    HW2 5298   3.300   5.717   5.521  1.1456 -0.7544 -0.3537
 1383SOL    HW3 5299   3.265   5.831   5.615 -1.2606 -2.0233  0.3786
 1383SOL    MW4 5300   3.315   5.763   5.594  0.0625  0.1921  0.2624
 1384SOL     OW 5301   1.576   2.689   1.173  0.1196 -0.1485  0.4068
 1384SOL    HW2 5302   1.611   2.662   1.258 -0.9311  0.5674  1.0867
 1384SOL    HW3 5303   1.644   2.747   1.137  0.1047  0.4144  1.2488
 1384SOL    MW4 5304   1.590   2.693   1.180  0.1495 -0.4702 -0.4480
 1385SOL     OW 5305   1.962   3.028   6.135  0.6076  0.1486 -0.8539
 1385SOL    HW2 5306   1.950   2.946   6.184  2.2897 -0.2556 -1.0687
 1385SOL    HW3 5307   1.873   3.064   6.127  0.1719 -0.0424  2.0034
 1385SOL    MW4 5308   1.949   3.022   6.140  0.9031 -0.6922 -0.0736
 1386SOL     OW 5309   1.641   0.674   3.509 -0.1736  0.1735 -0.1457
 1386SOL    HW2 5310   1.556   0.651   3.548 -1.9041  1.7981 -2.6498
 1386SOL    HW3 5311   1.657   0.605   3.445  0.6242 -0.3254  0.5741
 1386SOL    MW4 5312   1.632   0.661   3.506 -0.2934  0.0147 -0.0805
 1387SOL     OW 5313   4.077   0.035   2.126 -0.3847  0.3402 -0.7339
 1387SOL    HW2 5314   4.042   0.022   2.214  2.3500 -0.5959  0.3514
 1387SOL    HW3 5315   4.055  -0.044   2.079 -1.4020  0.6152 -0.7317
 1387SOL    MW4 5316   4.070   0.023   2.132 -0.1134  0.0788  0.9432
 1388SOL     OW 5317   0.567   2.663   5.223  0.1363  0.1618 -0.1230
 1388SOL    HW2 5318   0.480   2.695   5.248 -1.0468 -2.0667 -1.1343
 1388SOL    HW3 5319   0.568   2.669   5.128  0.6708 -0.8213 -0.1858
 1388SOL    MW4 5320   0.555   2.668   5.214 -0.4928 -0.3788  0.0826
 1389SOL     OW 5321   0.705   6.056   0.209  0.3130  0.1465 -0.2460
 1389SOL    HW2 5322   0.649   6.063   0.287  0.2074  0.5151 -0.3525
 1389SOL    HW3 5323   0.716   6.147   0.180  0.1655 -0.0091 -0.7909
 1389SOL    MW4 5324   0.699   6.069   0.216  0.2928 -0.0954 -0.0600
 1390SOL     OW 5325   1.987   2.150   0.408 -0.3961 -0.0713 -0.0737
 1390SOL    HW2 5326   2.078   2.173   0.394 -0.5732 -0.2374 -1.7271
 1390SOL    HW3 5327   1.975   2.070   0.357 -1.8859  0.9080 -1.3491
 1390SOL    MW4 5328   1.997   2.142   0.400  0.6802  0.3444  0.6402
 1391SOL     OW 5329   2.004   0.176   5.750 -0.0949  0.5554 -0.3583
 1391SOL    HW2 5330   1.985   0.209   5.838  0.8498 -0.7056  0.3394
 1391SOL    HW3 5331   1.996   0.081   5.757 -0.7732  0.4726 -1.8443
 1391SOL    MW4 5332   2.000   0.168   5.763  0.1681  0.0089  0.2745
 1392SOL     OW 5333   2.391   1.425   3.286 -0.7439  0.1834 -0.6002
 1392SOL    HW2 5334   2.334   1.355   3.252 -3.0061  2.6786 -2.3516
 1392SOL    HW3 5335   2.371   1.429   3.379  1.6428 -3.3012  0.2525
 1392SOL    MW4 5336   2.381   1.416   3.294  0.3188 -0.4207 -0.2487
 1393SOL     OW 5337   2.530   0.211   3.332  0.1488 -0.6615 -0.1975
 1393SOL    HW2 5338   2.532   0.306   3.318  0.8757 -0.8827 -1.9565
 1393SOL    HW3 5339   2.438   0.191   3.350 -0.6139  0.0507 -2.8731
 1393SOL    MW4 5340   2.518   0.221   3.332  0.2325  0.1161  0.1141
 1394SOL     OW 5341   6.119   4.781   4.605 -0.0761 -0.1327 -0.2214
 1394SOL    HW2 5342   6.114   4.741   4.692  0.2370  0.4890  0.0875
 1394SOL    HW3 5343   6.091   4.872   4.619 -0.9269 -0.2638 -0.9402
 1394SOL    MW4 5344   6.114   4.788   4.619 -0.1794 -0.0840 -0.4829
 1395SOL     OW 5345   4.209   3.996   2.225  0.0277  0.4507 -0.1177
 1395SOL    HW2 5346   4.130   4.004   2.171 -0.4054  0.5661  0.5227
 1395SOL    HW3 5347   4.270   3.946   2.171 -0.9226 -0.6997 -0.1441
 1395SOL    MW4 5348   4.206   3.991   2.211 -0.0567 -0.0698 -0.6806
 1396SOL     OW 5349   0.977   2.926   2.048 -0.1462  0.0368  0.4197
 1396SOL    HW2 5350   0.888   2.930   2.081 -0.6376 -1.7854 -0.5570
 1396SOL    HW3 5351   1.020   2.860   2.103 -0.1192 -0.8451 -0.6331
 1396SOL    MW4 5352   0.971   2.917   2.060 -0.2976  0.2292  0.3138
 1397SOL     OW 5353   4.809   0.157   1.695  0.1154  0.2446 -0.1097
 1397SOL    HW2 5354   4.848   0.090   1.751 -0.1513 -1.0598 -1.3920
 1397SOL    HW3 5355   4.798   0.112   1.610 -0.4801  1.7962 -0.8830
 1397SOL    MW4 5356   4.813   0.142   1.691  0.1438  0.3088 -0.3721
 1398SOL     OW 5357   5.135   6.186   1.472  0.2466  0.0097 -0.3552
 1398SOL    HW2 5358   5.080   6.149   1.402  0.3699 -1.9773  0.5385
 1398SOL    HW3 5359   5.141   6.116   1.537  2.0464  0.9792  0.5845
 1398SOL    MW4 5360   5.128   6.172   1.471 -0.1456 -1.4638 -0.0087
 1399SOL     OW 5361   2.275   2.994   1.673  0.3501 -0.5440 -0.1536
 1399SOL    HW2 5362   2.353   3.041   1.646 -0.9186  1.3882 -0.6573
 1399SOL    HW3 5363   2.299   2.902   1.668  2.7154 -0.0043  0.1670
 1399SOL    MW4 5364   2.288   2.988   1.669 -0.5046 -0.6438 -0.3591
 1400SOL     OW 5365   0.670   0.054   2.961 -0.2810 -0.3539 -0.2618
 1400SOL    HW2 5366   0.578   0.036   2.981  0.0954 -0.7384  1.2919
 1400SOL    HW3 5367   0.683   0.145   2.987 -0.1766 -0.3578 -0.2995
 1400SOL    MW4 5368   0.659   0.063   2.967 -0.6687  0.3245  0.4116
 1401SOL     OW 5369   0.961   2.634   5.512 -0.0597  0.1711 -0.5313
 1401SOL    HW2 5370   0.994   2.585   5.436 -0.5759 -1.4038  0.2206
 1401SOL    HW3 5371   0.911   2.570   5.562  1.3757  0.7808  1.8760
 1401SOL    MW4 5372   0.959   2.619   5.508 -0.0004  0.0661 -0.5332
 1402SOL     OW 5373   5.861   0.079   3.483  0.3930 -0.5645  0.4102
 1402SOL    HW2 5374   5.771   0.104   3.506  0.1755 -1.8643  1.0574
 1402SOL    HW3 5375   5.877   0.121   3.399 -0.0865  1.3595  1.2340
 1402SOL    MW4 5376   5.851   0.088   3.475  0.0144 -0.3848 -0.1366
 1403SOL     OW 5377   3.008   5.164   0.841  0.2844 -0.0924  0.5512
 1403SOL    HW2 5378   2.977   5.236   0.895  0.1383  0.1724  0.1213
 1403SOL    HW3 5379   2.994   5.194   0.751  0.7180 -0.4377  0.3645
 1403SOL    MW4 5380   3.002   5.177   0.836 -0.3162  0.3306 -0.4854
 1404SOL     OW 5381   2.348   4.572   2.568 -0.1667 -1.0966 -0.4779
 1404SOL    HW2 5382   2.295   4.507   2.615 -0.8709 -0.4319 -0.3456
 1404SOL    HW3 5383   2.439   4.545   2.587 -0.4349 -1.3108  0.6178
 1404SOL    MW4 5384   2.353   4.560   2.577  0.4120 -0.2262 -0.1121
 1405SOL     OW 5385   4.015   6.155   0.030 -0.0744  0.2941 -0.6047
 1405SOL    HW2 5386   4.019   6.068  -0.010 -0.6141  0.8354 -1.8994
 1405SOL    HW3 5387   3.990   6.213  -0.041 -0.7576  1.3635  0.4566
 1405SOL    MW4 5388   4.012   6.151   0.016  0.7389  0.0219 -0.2747
 1406SOL     OW 5389   3.162   5.409   3.764 -0.5181 -0.1550  0.0338
 1406SOL    HW2 5390   3.112   5.405   3.682 -0.1730 -0.5106 -0.1652
 1406SOL    HW3 5391   3.213   5.490   3.757 -2.2943  1.0975  0.9732
 1406SOL    MW4 5392   3.163   5.419   3.752  0.1065 -0.6194 -0.2636
 1407SOL     OW 5393   5.315   3.559   0.182  0.4710 -0.6389  0.1523
 1407SOL    HW2 5394   5.315   3.592   0.271  0.2727 -0.8708  0.2401
 1407SOL    HW3 5395   5.223   3.542   0.162  0.6159 -1.7297  0.3382
 1407SOL    MW4 5396   5.303   3.561   0.191 -0.6488  0.3030 -0.9232
 1408SOL     OW 5397   1.809   6.285   3.397 -0.6323 -0.9157  0.4807
 1408SOL    HW2 5398   1.869   6.246   3.334  1.0065 -0.5660  1.7485
 1408SOL    HW3 5399   1.811   6.379   3.379 -2.2528 -1.0479 -0.6265
 1408SOL    MW4 5400   1.817   6.292   3.386  0.2333 -0.5836 -0.5038
 1409SOL     OW 5401   0.156   5.077   5.251  0.0561 -0.3636  0.3834
 1409SOL    HW2 5402   0.181   5.120   5.332  3.2341  1.0948 -1.1637
 1409SOL    HW3 5403   0.193   4.989   5.258  0.0467 -0.3439  0.6730
 1409SOL    MW4 5404   0.165   5.071   5.262 -0.4458 -0.4642  0.0701
 1410SOL     OW 5405   5.905   5.931   4.214  0.2177  0.5232  0.3767
 1410SOL    HW2 5406   5.931   5.978   4.293 -0.9956  0.1515  1.0192
 1410SOL    HW3 5407   5.952   5.975   4.143  2.3885  0.0136  1.4293
 1410SOL    MW4 5408   5.915   5.943   4.215  0.4714 -0.0400 -0.1434
 1411SOL     OW 5409   4.738   0.565   4.899 -0.2504  0.1730  0.2116
 1411SOL    HW2 5410   4.735   0.612   4.983 -0.0517 -1.7263  1.3378
 1411SOL    HW3 5411   4.677   0.612   4.843 -1.4725  0.6605  1.8852
 1411SOL    MW4 5412   4.730   0.577   4.903  0.4815  0.7684  0.3021
 1412SOL     OW 5413   4.944   0.043   2.294  0.2294  0.0273  0.0999
 1412SOL    HW2 5414   4.983   0.123   2.327  1.4728 -0.1920 -0.7518
 1412SOL    HW3 5415   4.901   0.068   2.213 -0.3519  0.0315  0.4029
 1412SOL    MW4 5416   4.944   0.057   2.288 -0.0997 -0.0357 -0.2052
 1413SOL     OW 5417   1.798   0.164   3.322  0.0990 -0.5260  0.5690
 1413SOL    HW2 5418   1.827   0.222   3.252  0.1634 -0.3498  0.7416
 1413SOL    HW3 5419   1.833   0.203   3.402  0.1264 -0.7906  0.6881
 1413SOL    MW4 5420   1.806   0.177   3.324 -0.0669 -0.4053  0.0998
 1414SOL     OW 5421   0.090   0.792   1.687  0.1250  0.2197 -0.6738
 1414SOL    HW2 5422   0.039   0.783   1.768 -0.7388  1.6034 -1.0411
 1414SOL    HW3 5423   0.179   0.808   1.717 -0.1022  0.2805  0.0011
 1414SOL    MW4 5424   0.095   0.793   1.702 -0.1831 -0.2922  0.6736
 1415SOL     OW 5425   3.484   4.229   1.636  0.1315 -0.4029 -0.0249
 1415SOL    HW2 5426   3.429   4.158   1.605  0.5996 -1.2270  0.9699
 1415SOL    HW3 5427   3.435   4.309   1.616 -0.5137 -1.0151 -0.9258
 1415SOL    MW4 5428   3.471   4.230   1.629 -0.1620 -0.2641  0.2869
 1416SOL     OW 5429   0.653   0.333   4.929  0.1080 -0.0735  0.0536
 1416SOL    HW2 5430   0.578   0.293   4.973 -0.3986 -0.5375 -1.1921
 1416SOL    HW3 5431   0.684   0.399   4.991 -3.1758  2.3065 -0.5048
 1416SOL    MW4 5432   0.647   0.336   4.943  0.0513 -0.4871 -0.2963
 1417SOL     OW 5433   2.734   3.594   3.177 -1.1808 -0.3157  0.0817
 1417SOL    HW2 5434   2.723   3.642   3.259 -2.7700 -1.1287  0.3676
 1417SOL    HW3 5435   2.763   3.507   3.204 -1.9841 -0.6734 -0.1796
 1417SOL    MW4 5436   2.736   3.589   3.191 -0.1808 -0.7923  0.3010
 1418SOL     OW 5437   5.325   0.761   0.366  0.2298 -0.6462 -0.6312
 1418SOL    HW2 5438   5.261   0.757   0.295 -0.4955  2.1626 -0.2723
 1418SOL    HW3 5439   5.280   0.808   0.436  1.8770 -0.7979  0.5864
 1418SOL    MW4 5440   5.311   0.767   0.366 -0.5525  0.3525  1.3702
 1419SOL     OW 5441   4.499   0.291   0.494  0.6794 -0.2025  0.0687
 1419SOL    HW2 5442   4.448   0.272   0.415 -0.7429 -0.1657  0.9658
 1419SOL    HW3 5443   4.504   0.207   0.540  1.6088 -0.2486 -0.0854
 1419SOL    MW4 5444   4.493   0.277   0.489 -0.2261  0.6353  0.1904
 1420SOL     OW 5445   3.281   4.893   5.404 -0.6205  0.1395 -0.0917
 1420SOL    HW2 5446   3.246   4.977   5.375 -2.0487 -0.1574  0.7151
 1420SOL    HW3 5447   3.242   4.828   5.345 -2.2459 -0.2929  1.4004
 1420SOL    MW4 5448   3.271   4.895   5.392 -0.4260  0.0676  0.3120
 1421SOL     OW 5449   3.004   2.588   6.076 -0.0110  0.2172  0.1754
 1421SOL    HW2 5450   3.055   2.507   6.085  0.6474  0.7305  1.2731
 1421SOL    HW3 5451   2.980   2.591   5.984  0.8563 -0.6983 -0.0951
 1421SOL    MW4 5452   3.007   2.577   6.065  0.1121  0.4672 -0.2413
 1422SOL     OW 5453   1.991   2.286   1.331  0.5696 -0.6072 -0.6325
 1422SOL    HW2 5454   1.903   2.270   1.296 -0.3628 -0.6636  1.6082
 1422SOL    HW3 5455   1.984   2.270   1.425  2.1737  2.5105  0.1548
 1422SOL    MW4 5456   1.979   2.282   1.339 -0.5537 -0.2140  0.0835
 1423SOL     OW 5457   1.898   1.202   3.136 -0.4134  0.4208  0.0741
 1423SOL    HW2 5458   1.956   1.278   3.129 -0.7040  0.5846 -0.6645
 1423SOL    HW3 5459   1.908   1.156   3.053 -0.6988 -0.0118  0.2766
 1423SOL    MW4 5460   1.907   1.206   3.124 -0.1014  0.0301 -0.2709
 1424SOL     OW 5461   4.950   0.719   1.059  0.1390  0.3408 -0.0853
 1424SOL    HW2 5462   4.988   0.669   1.131 -0.2104  0.6981  0.3542
 1424SOL    HW3 5463   5.009   0.703   0.985  0.4512 -0.1014  0.2532
 1424SOL    MW4 5464   4.963   0.711   1.058 -0.3563 -0.6228 -0.3061
 1425SOL     OW 5465   4.178   1.967   6.303  0.0907 -0.0215 -0.1848
 1425SOL    HW2 5466   4.132   1.885   6.287  0.7113 -0.2741 -0.7007
 1425SOL    HW3 5467   4.193   1.968   6.398 -0.9323  0.0517 -0.0116
 1425SOL    MW4 5468   4.174   1.956   6.313 -0.6338  0.1232  0.0340
 1426SOL     OW 5469   3.756   2.076   1.720 -0.4544 -0.3962  0.0238
 1426SOL    HW2 5470   3.733   1.999   1.668 -2.1232  1.2217 -1.8066
 1426SOL    HW3 5471   3.672   2.118   1.740  0.4280  1.3878  0.2247
 1426SOL    MW4 5472   3.742   2.071   1.716  0.0111 -0.4866 -0.9380
 1427SOL     OW 5473   2.700   6.326   4.834 -0.4242  0.2450 -0.7373
 1427SOL    HW2 5474   2.667   6.284   4.755 -0.0872 -1.4984 -0.0136
 1427SOL    HW3 5475   2.677   6.265   4.904  2.0597  0.1659  0.0963
 1427SOL    MW4 5476   2.693   6.312   4.833 -0.2284  0.5855 -0.3147
 1428SOL     OW 5477   5.520   4.123   1.602 -0.3148 -0.9636 -0.2130
 1428SOL    HW2 5478   5.486   4.034   1.589 -1.8793 -0.4303  0.0523
 1428SOL    HW3 5479   5.482   4.174   1.530 -0.2621 -0.2793  0.2369
 1428SOL    MW4 5480   5.511   4.118   1.591 -0.1407 -0.2378 -0.0303
 1429SOL     OW 5481   6.272   5.698   6.033  0.2958 -0.2902 -0.1263
 1429SOL    HW2 5482   6.338   5.762   6.061 -0.1575  0.1168  0.0278
 1429SOL    HW3 5483   6.245   5.728   5.946 -1.7492  1.2326  0.9455
 1429SOL    MW4 5484   6.277   5.711   6.025 -0.2169  0.0834 -0.6623
 1430SOL     OW 5485   0.665   0.257   4.200  0.2549  0.0409  0.3113
 1430SOL    HW2 5486   0.570   0.259   4.192  0.2506  1.8873  0.4016
 1430SOL    HW3 5487   0.692   0.180   4.150 -1.2854 -0.5951  0.4061
 1430SOL    MW4 5488   0.656   0.247   4.193 -0.2604  0.0767  0.0259
 1431SOL     OW 5489   0.582   4.312   1.323 -0.1186 -0.1211 -0.4089
 1431SOL    HW2 5490   0.545   4.348   1.403 -1.7016 -1.9854 -0.2296
 1431SOL    HW3 5491   0.674   4.295   1.345 -0.6644 -1.1489  1.2240
 1431SOL    MW4 5492   0.590   4.315   1.336  0.2341  0.1092 -0.1635
 1432SOL     OW 5493   3.624   4.344   0.457 -0.4239  0.2224 -0.5929
 1432SOL    HW2 5494   3.692   4.396   0.415  1.8697 -2.1922 -0.1280
 1432SOL    HW3 5495   3.542   4.383   0.427  1.0908  3.4410 -0.9567
 1432SOL    MW4 5496   3.622   4.356   0.448 -0.5384  0.1818  0.2890
 1433SOL     OW 5497   1.278   5.886   3.223 -0.2525 -0.1190 -0.6648
 1433SOL    HW2 5498   1.361   5.861   3.183  0.3977  0.6090  0.1937
 1433SOL    HW3 5499   1.295   5.971   3.264 -0.8293 -0.8728  1.2632
 1433SOL    MW4 5500   1.291   5.894   3.223 -0.0370  0.2013  0.0961
 1434SOL     OW 5501   3.509   4.262   1.920 -0.3987  0.2453 -0.1025
 1434SOL    HW2 5502   3.498   4.281   1.827  0.8164 -1.6924 -0.7023
 1434SOL    HW3 5503   3.593   4.216   1.926 -1.6565 -2.1019  1.5001
 1434SOL    MW4 5504   3.519   4.258   1.908  0.0696  0.3179  0.5906
 1435SOL     OW 5505   4.768   4.477   4.839 -0.1815 -0.2756  0.1450
 1435SOL    HW2 5506   4.788   4.523   4.757  2.1192  1.0994  1.3736
 1435SOL    HW3 5507   4.851   4.438   4.865 -1.4240 -2.7822  0.6545
 1435SOL    MW4 5508   4.782   4.478   4.831  0.5852  0.0537  0.2840
 1436SOL     OW 5509   2.599   1.615   2.993 -0.2776  0.1942  0.1081
 1436SOL    HW2 5510   2.518   1.647   3.033  0.6656  0.8055  1.6049
 1436SOL    HW3 5511   2.629   1.545   3.051  1.1521  1.1239  0.5306
 1436SOL    MW4 5512   2.592   1.610   3.006  0.4486  0.1112  0.1064
 1437SOL     OW 5513   4.583   6.224   6.271  0.2329 -0.7418 -0.2425
 1437SOL    HW2 5514   4.671   6.209   6.237  1.0475  0.1950  1.3350
 1437SOL    HW3 5515   4.595   6.290   6.340 -1.4633 -1.7831  1.1374
 1437SOL    MW4 5516   4.596   6.231   6.276 -0.3638  0.1608 -0.6177
 1438SOL     OW 5517   4.190   4.031   0.792 -0.3314 -0.1225 -0.2496
 1438SOL    HW2 5518   4.139   4.105   0.824  0.2999 -0.4327  1.5642
 1438SOL    HW3 5519   4.276   4.068   0.771 -0.4653 -0.0850 -0.7390
 1438SOL    MW4 5520   4.195   4.045   0.793 -0.4921 -0.7219  0.6573
 1439SOL     OW 5521   2.073   4.875   0.935 -0.0291  0.1908 -0.2917
 1439SOL    HW2 5522   2.025   4.935   0.878 -0.1978  0.5725  0.2399
 1439SOL    HW3 5523   2.068   4.915   1.022 -0.0349 -0.5335  0.0521
 1439SOL    MW4 5524   2.066   4.888   0.939 -0.2521  0.1156  0.2165
 1440SOL     OW 5525   2.658   5.692   0.667 -0.0942 -0.2094 -0.3327
 1440SOL    HW2 5526   2.641   5.763   0.729 -0.5789 -0.6430  0.0349
 1440SOL    HW3 5527   2.574   5.648   0.657  0.5833 -1.9441  0.9728
 1440SOL    MW4 5528   2.645   5.696   0.674 -0.1482 -0.3840 -0.3209
 1441SOL     OW 5529   1.798   6.147   5.147 -0.4934  0.3319 -0.1553
 1441SOL    HW2 5530   1.768   6.228   5.189  0.0454 -0.2163  1.3704
 1441SOL    HW3 5531   1.834   6.175   5.063 -0.3159  1.6847  0.3459
 1441SOL    MW4 5532   1.799   6.161   5.142 -0.0068  0.2072  0.2760
 1442SOL     OW 5533   5.857   2.674   5.126  0.1318  0.3529  0.5346
 1442SOL    HW2 5534   5.884   2.747   5.182  0.7594 -1.3849  2.6623
 1442SOL    HW3 5535   5.938   2.646   5.083  0.1377  0.2109  0.6341
 1442SOL    MW4 5536   5.871   2.680   5.128 -0.1085 -0.2765 -0.3287
 1443SOL     OW 5537   2.630   4.856   4.767  0.1752 -0.4242  0.0089
 1443SOL    HW2 5538   2.603   4.884   4.680 -0.0141 -1.3963 -0.2483
 1443SOL    HW3 5539   2.561   4.797   4.797  0.9188 -1.1905  0.2465
 1443SOL    MW4 5540   2.618   4.852   4.760 -0.1990  0.0614 -0.4648
 1444SOL     OW 5541   5.807   3.978   3.066  0.5844 -0.2461 -0.0628
 1444SOL    HW2 5542   5.737   3.934   3.113  0.5779 -0.6935 -0.4800
 1444SOL    HW3 5543   5.764   4.019   2.991  0.6358  0.2230  0.1632
 1444SOL    MW4 5544   5.792   3.977   3.062 -0.1864  0.2180 -0.3411
 1445SOL     OW 5545   0.055   2.225   3.720 -0.4554 -0.0159 -0.1909
 1445SOL    HW2 5546  -0.026   2.251   3.764 -0.3552  2.3326 -1.2325
 1445SOL    HW3 5547   0.118   2.215   3.791 -1.6564 -2.0949  0.6590
 1445SOL    MW4 5548   0.052   2.227   3.736 -0.3753 -0.1621  0.0672
 1446SOL     OW 5549   1.377   0.661   0.373 -1.0011  0.3686  0.3650
 1446SOL    HW2 5550   1.283   0.654   0.357 -1.0535  0.7643  0.5071
 1446SOL    HW3 5551   1.405   0.735   0.320 -0.5515 -0.4647 -0.6169
 1446SOL    MW4 5552   1.368   0.670   0.364  0.3029 -0.7976  0.3338
 1447SOL     OW 5553   5.887   0.339   1.101 -0.1698 -0.4887  0.1558
 1447SOL    HW2 5554   5.798   0.305   1.100 -0.1244 -0.6113 -0.8819
 1447SOL    HW3 5555   5.881   0.422   1.055  0.3288 -0.7025 -0.2988
 1447SOL    MW4 5556   5.874   0.346   1.095  0.1639 -0.2002  0.0830
 1448SOL     OW 5557   6.144   5.808   4.037  0.0301 -0.2298  0.2156
 1448SOL    HW2 5558   6.184   5.890   4.068  0.6273 -0.4175 -0.0436
 1448SOL    HW3 5559   6.165   5.744   4.104  1.7698 -0.7572 -0.7782
 1448SOL    MW4 5560   6.152   5.811   4.050 -0.3826  0.2412  0.5571
 1449SOL     OW 5561   5.026   0.314   5.142  0.0568 -0.0819  0.3289
 1449SOL    HW2 5562   5.112   0.271   5.141 -0.6732 -1.6458  1.2897
 1449SOL    HW3 5563   4.964   0.243   5.159 -1.4889  0.9543 -0.7292
 1449SOL    MW4 5564   5.029   0.299   5.144  0.1333 -0.0946  0.0925
 1450SOL     OW 5565   0.359   5.057   3.051 -0.2191 -0.3864  0.7816
 1450SOL    HW2 5566   0.331   5.093   2.967 -0.2407 -1.0338  0.5029
 1450SOL    HW3 5567   0.297   5.093   3.114 -0.7748 -0.6261  0.3829
 1450SOL    MW4 5568   0.347   5.066   3.048  0.4540  0.4071  0.4682
 1451SOL     OW 5569   0.357   3.576   2.719  0.1322 -0.5947  0.1739
 1451SOL    HW2 5570   0.292   3.511   2.692 -0.3920  0.0630 -0.1801
 1451SOL    HW3 5571   0.434   3.558   2.665 -0.6001  0.1450 -1.1383
 1451SOL    MW4 5572   0.359   3.565   2.709  0.7477  0.1366  0.2052
 1452SOL     OW 5573   2.300   4.125   4.848 -0.2184  0.2011  0.1676
 1452SOL    HW2 5574   2.322   4.166   4.764 -0.7734 -1.1067 -0.6485
 1452SOL    HW3 5575   2.225   4.175   4.881 -0.2569  0.4672 -0.3150
 1452SOL    MW4 5576   2.293   4.137   4.841 -0.0748 -0.1868 -0.0523
 1453SOL     OW 5577   4.291   3.338   5.293 -0.0986  0.0785  0.4204
 1453SOL    HW2 5578   4.378   3.347   5.253  0.2433  1.5095  1.4042
 1453SOL    HW3 5579   4.236   3.398   5.243 -0.4193 -0.4530  0.1243
 1453SOL    MW4 5580   4.295   3.347   5.281  0.0533  0.2091  0.3490
 1454SOL     OW 5581   3.842   3.001   0.614  0.3644  0.0978 -0.8775
 1454SOL    HW2 5582   3.795   3.026   0.535 -0.3078 -0.7392 -0.7470
 1454SOL    HW3 5583   3.879   2.914   0.594  1.7105  0.6421 -0.9107
 1454SOL    MW4 5584   3.841   2.993   0.601 -0.7160 -0.4730  0.4045
 1455SOL     OW 5585   4.713   4.901   3.630 -0.5881  0.2822 -0.5669
 1455SOL    HW2 5586   4.631   4.947   3.650 -1.1477 -1.2591  0.9466
 1455SOL    HW3 5587   4.744   4.870   3.715  1.0782  0.0003 -1.2514
 1455SOL    MW4 5588   4.706   4.903   3.644 -0.6241  0.2906  0.0356
 1456SOL     OW 5589   2.768   5.817   1.628  0.1862 -0.8185  0.0412
 1456SOL    HW2 5590   2.725   5.756   1.689 -2.4769  0.2782 -0.5863
 1456SOL    HW3 5591   2.825   5.870   1.683 -1.0623 -0.8045  1.3843
 1456SOL    MW4 5592   2.770   5.816   1.644  0.6750 -0.9865  0.3786
 1457SOL     OW 5593   4.291   4.245   0.205  0.1351 -0.0559  0.0250
 1457SOL    HW2 5594   4.320   4.279   0.120 -0.3991  0.8113  0.1742
 1457SOL    HW3 5595   4.199   4.223   0.190 -0.6326  2.2413  0.9504
 1457SOL    MW4 5596   4.283   4.247   0.192 -0.1112 -0.4433  0.2912
 1458SOL     OW 5597   0.403   1.664   1.450 -0.1279  0.7207  0.2816
 1458SOL    HW2 5598   0.371   1.682   1.362  2.8065  2.3218 -0.6082
 1458SOL    HW3 5599   0.498   1.665   1.442  0.2592 -0.4374  3.2498
 1458SOL    MW4 5600   0.411   1.666   1.437 -0.0033 -0.0671  0.5397
 1459SOL     OW 5601   0.994   4.631   4.003  0.0237 -0.1465  0.2480
 1459SOL    HW2 5602   0.948   4.578   4.068 -1.1098 -0.1972 -0.5886
 1459SOL    HW3 5603   1.060   4.571   3.967 -0.8585 -0.8263 -0.2757
 1459SOL    MW4 5604   0.997   4.616   4.007 -0.4459  0.1504 -0.4588
 1460SOL     OW 5605   4.126   0.469   0.859  0.3439  0.4675  0.3509
 1460SOL    HW2 5606   4.145   0.558   0.888 -0.6771  1.1277 -0.8588
 1460SOL    HW3 5607   4.172   0.461   0.775 -0.3416  0.2094 -0.0094
 1460SOL    MW4 5608   4.135   0.480   0.851  0.4611 -0.3099  0.3238
 1461SOL     OW 5609   3.870   4.115   0.552  0.1991  0.4643 -0.2185
 1461SOL    HW2 5610   3.850   4.022   0.564  0.6878  0.1997 -1.3214
 1461SOL    HW3 5611   3.809   4.161   0.611 -0.7940 -0.4972 -0.4665
 1461SOL    MW4 5612   3.859   4.109   0.562  0.0445  0.3406  0.1556
 1462SOL     OW 5613   5.352   1.933   6.351  0.9800 -0.0994 -0.3364
 1462SOL    HW2 5614   5.334   2.005   6.412  1.8450  1.0982 -1.4314
 1462SOL    HW3 5615   5.279   1.872   6.363  0.7879  0.4127  1.4068
 1462SOL    MW4 5616   5.340   1.934   6.361  0.4038  0.1133 -0.5159
 1463SOL     OW 5617   5.648   1.793   0.221  0.2343  0.2143  0.1617
 1463SOL    HW2 5618   5.686   1.725   0.277  0.6580  1.0123  0.8731
 1463SOL    HW3 5619   5.588   1.746   0.163 -1.6042 -0.4829  2.4588
 1463SOL    MW4 5620   5.645   1.778   0.221  0.1983 -0.2019  0.4711
 1464SOL     OW 5621   4.298   3.650   0.631  0.0989  0.4822 -0.3377
 1464SOL    HW2 5622   4.256   3.616   0.710 -2.5784  0.9831 -1.4352
 1464SOL    HW3 5623   4.272   3.589   0.561 -0.8235  2.0978 -1.4734
 1464SOL    MW4 5624   4.289   3.637   0.632  0.1748 -0.0231  0.2519
 1465SOL     OW 5625   5.976   6.317   5.352  0.3438 -0.2595 -0.2355
 1465SOL    HW2 5626   5.905   6.368   5.390  1.6362  0.4445  1.3321
 1465SOL    HW3 5627   5.932   6.245   5.306 -1.3714  0.2072  0.5974
 1465SOL    MW4 5628   5.961   6.314   5.351  0.0292 -0.3057 -0.0798
 1466SOL     OW 5629   0.689   0.880   4.237 -0.0330 -0.3621  0.0366
 1466SOL    HW2 5630   0.631   0.916   4.169  0.9087  1.1207 -0.0415
 1466SOL    HW3 5631   0.688   0.946   4.306 -0.2583 -1.4310  1.0680
 1466SOL    MW4 5632   0.681   0.894   4.237 -0.0565  0.3139  0.4375
 1467SOL     OW 5633   4.156   4.147   5.880  0.0905 -0.6394  0.0585
 1467SOL    HW2 5634   4.182   4.121   5.791 -1.6873 -2.6319  0.0553
 1467SOL    HW3 5635   4.203   4.087   5.937 -0.7704 -1.0785  0.3095
 1467SOL    MW4 5636   4.166   4.136   5.875 -0.2353 -0.0763  0.2968
 1468SOL     OW 5637   1.236   3.094   0.199 -0.5727 -0.0460  0.1252
 1468SOL    HW2 5638   1.145   3.065   0.188 -0.9383  0.8048  0.7936
 1468SOL    HW3 5639   1.229   3.177   0.246  0.5035  0.6017 -0.8158
 1468SOL    MW4 5640   1.223   3.101   0.204  0.0538 -0.0096 -0.0867
 1469SOL     OW 5641   1.021   0.118   3.624  0.5284  0.3577  0.2954
 1469SOL    HW2 5642   1.040   0.204   3.587 -0.5285  0.6926  0.4981
 1469SOL    HW3 5643   0.928   0.121   3.645  0.2774 -1.1273 -0.4705
 1469SOL    MW4 5644   1.011   0.130   3.622 -0.4291  0.1438 -0.4565
 1470SOL     OW 5645   2.241   1.407   4.241  0.2172 -0.8177 -0.2833
 1470SOL    HW2 5646   2.181   1.407   4.316 -0.0855 -0.4438 -0.5196
 1470SOL    HW3 5647   2.322   1.371   4.276 -0.3679 -2.0538 -0.1474
 1470SOL    MW4 5648   2.243   1.402   4.256  0.1175 -0.4858 -0.5433
 1471SOL     OW 5649   0.732   2.242   2.414  0.1506 -0.3995 -0.1654
 1471SOL    HW2 5650   0.802   2.182   2.440  1.1763  0.8368  0.0394
 1471SOL    HW3 5651   0.767   2.286   2.336 -0.9236 -0.6343 -0.7979
 1471SOL    MW4 5652   0.746   2.240   2.407  0.0827  0.1488 -0.6225
 1472SOL     OW 5653   0.248   1.858   4.000  0.4535 -0.5780  0.4822
 1472SOL    HW2 5654   0.204   1.851   4.084  0.5129 -1.3518  0.4535
 1472SOL    HW3 5655   0.326   1.804   4.009  0.4346 -0.7062 -0.0826
 1472SOL    MW4 5656   0.252   1.850   4.012 -0.9259  0.0118 -0.6909
 1473SOL     OW 5657   2.191   2.988   2.515 -0.3039  0.6427  0.1413
 1473SOL    HW2 5658   2.281   2.986   2.482 -0.4221  3.6747 -0.6135
 1473SOL    HW3 5659   2.145   2.923   2.463  0.9821  0.6238 -1.0392
 1473SOL    MW4 5660   2.197   2.979   2.504  0.6436 -0.0156  0.1371
 1474SOL     OW 5661   6.079   5.119   2.456 -0.2959 -0.2696  0.4500
 1474SOL    HW2 5662   6.091   5.026   2.439  0.0446 -0.1354 -0.0704
 1474SOL    HW3 5663   6.162   5.159   2.430 -0.2202  0.1081  1.2314
 1474SOL    MW4 5664   6.092   5.112   2.450  0.1148 -0.5821  0.7912
 1475SOL     OW 5665   1.749   2.524   3.571  0.1626 -0.2641 -0.0299
 1475SOL    HW2 5666   1.742   2.429   3.567 -0.3241 -0.2648  0.5370
 1475SOL    HW3 5667   1.753   2.552   3.480  2.5813 -0.9550 -0.2004
 1475SOL    MW4 5668   1.748   2.515   3.559 -0.2796  0.2145 -0.1808
 1476SOL     OW 5669   1.506   5.120   2.726 -0.0481  0.3364 -0.0692
 1476SOL    HW2 5670   1.496   5.037   2.772  2.2769  0.5262  0.9207
 1476SOL    HW3 5671   1.426   5.128   2.673 -1.1797 -1.5962  1.2194
 1476SOL    MW4 5672   1.494   5.110   2.725  0.0918  0.5793 -0.4810
 1477SOL     OW 5673   5.027   3.921   4.809  0.4244 -0.7660 -0.1634
 1477SOL    HW2 5674   5.076   4.001   4.791 -0.8605  0.0728 -0.0662
 1477SOL    HW3 5675   5.028   3.874   4.726 -0.9595  0.5800 -1.0015
 1477SOL    MW4 5676   5.034   3.925   4.796  0.0106 -0.1107  0.2059
 1478SOL     OW 5677   5.639   2.877   0.854 -0.5585  0.1821 -0.0164
 1478SOL    HW2 5678   5.612   2.920   0.936  0.3058  0.5420  0.0878
 1478SOL    HW3 5679   5.556   2.854   0.811 -1.0244  0.4091  0.7402
 1478SOL    MW4 5680   5.624   2.880   0.859  0.0573 -0.8721 -0.2499
 1479SOL     OW 5681   6.316   4.078   6.221 -0.1850 -0.2458  0.2778
 1479SOL    HW2 5682   6.388   4.134   6.250 -0.8802  1.3986 -1.0297
 1479SOL    HW3 5683   6.306   4.097   6.128 -0.6661 -2.3528 -0.1539
 1479SOL    MW4 5684   6.324   4.088   6.213 -0.3476 -0.2322  0.0485
 1480SOL     OW 5685   2.544   1.690   5.363 -0.3944  0.4657  0.5830
 1480SOL    HW2 5686   2.561   1.707   5.271  4.2089  1.2116  1.3277
 1480SOL    HW3 5687   2.619   1.638   5.392 -0.5130  2.0734  4.3340
 1480SOL    MW4 5688   2.556   1.685   5.355 -0.5312 -0.1630  0.2818
 1481SOL     OW 5689   4.795   5.612   0.975  0.6645 -0.5239  0.1184
 1481SOL    HW2 5690   4.797   5.599   1.069 -0.9055 -0.1554  0.2341
 1481SOL    HW3 5691   4.806   5.706   0.963  0.4834 -0.5214 -0.0388
 1481SOL    MW4 5692   4.796   5.622   0.985 -0.1946 -0.1744  0.2517
 1482SOL     OW 5693   1.409   3.685   0.124 -0.4256 -0.0800  0.3479
 1482SOL    HW2 5694   1.362   3.651   0.200  0.9380 -2.9202  0.0642
 1482SOL    HW3 5695   1.381   3.629   0.052  0.1478  0.9854 -0.7299
 1482SOL    MW4 5696   1.399   3.673   0.125 -0.0574 -0.5835 -1.0442
 1483SOL     OW 5697   1.092   2.635   0.832  0.1593  0.0522  0.2638
 1483SOL    HW2 5698   1.035   2.628   0.908 -2.2329  0.6125 -1.3682
 1483SOL    HW3 5699   1.080   2.553   0.785  1.0279  0.0108  0.1072
 1483SOL    MW4 5700   1.083   2.624   0.836  0.1269 -0.2178 -0.3200
 1484SOL     OW 5701   0.195   4.458   0.677 -0.4331 -0.2078 -0.4354
 1484SOL    HW2 5702   0.267   4.396   0.691 -0.0993 -0.1557 -1.8533
 1484SOL    HW3 5703   0.119   4.402   0.658 -0.9498 -0.2900  1.5450
 1484SOL    MW4 5704   0.194   4.442   0.677  0.7532 -0.2577  0.3712
 1485SOL     OW 5705   3.747   4.086   3.155  0.1108  0.6291  0.0234
 1485SOL    HW2 5706   3.732   4.144   3.229  0.0937 -1.7454  2.0395
 1485SOL    HW3 5707   3.664   4.088   3.106 -0.6968  0.6241  1.3238
 1485SOL    MW4 5708   3.734   4.094   3.159  0.0070 -0.3776 -0.1842
 1486SOL     OW 5709   0.854   5.280   2.802  0.1563  0.3501 -0.1927
 1486SOL    HW2 5710   0.906   5.307   2.877  1.1094  0.9910 -1.0609
 1486SOL    HW3 5711   0.785   5.346   2.794 -0.2469  0.0140  0.3878
 1486SOL    MW4 5712   0.852   5.292   2.811 -0.9199  0.4479  0.0411
 1487SOL     OW 5713   1.681   1.863   6.401 -0.1478 -0.1183 -0.2467
 1487SOL    HW2 5714   1.634   1.919   6.463 -0.6563  0.2220 -0.9361
 1487SOL    HW3 5715   1.673   1.908   6.317 -0.6818 -1.2951 -0.8420
 1487SOL    MW4 5716   1.674   1.877   6.398 -0.0639 -0.1225  0.0768
 1488SOL     OW 5717   1.650   0.100   2.848 -0.4028 -0.5742  0.0639
 1488SOL    HW2 5718   1.684   0.030   2.904  0.2990 -0.0600  0.2959
 1488SOL    HW3 5719   1.712   0.104   2.775 -1.3207 -1.2507 -0.7774
 1488SOL    MW4 5720   1.663   0.092   2.846  0.6746 -0.5785  0.5544
 1489SOL     OW 5721   2.649   3.696   3.745 -0.1854  0.2154  0.1660
 1489SOL    HW2 5722   2.571   3.659   3.703  0.1442 -0.1397 -0.1405
 1489SOL    HW3 5723   2.652   3.653   3.830  0.9699 -1.5639 -0.7058
 1489SOL    MW4 5724   2.639   3.685   3.750  0.1603 -0.5354 -0.6856
 1490SOL     OW 5725   5.665   3.048   0.441 -0.5551  0.3638  0.2664
 1490SOL    HW2 5726   5.676   3.069   0.348 -1.1767  0.4457  0.2117
 1490SOL    HW3 5727   5.610   2.970   0.441 -0.2217  0.1286  0.5542
 1490SOL    MW4 5728   5.659   3.040   0.429  0.2533  0.1078 -0.3066
 1491SOL     OW 5729   5.710   0.485   3.485  0.3796  0.4967 -0.3248
 1491SOL    HW2 5730   5.667   0.412   3.528  0.2071  1.3183  0.9498
 1491SOL    HW3 5731   5.770   0.520   3.551  0.4840  1.4741 -0.9131
 1491SOL    MW4 5732   5.712   0.480   3.499  0.4144  0.1391 -0.3848
 1492SOL     OW 5733   2.863   5.857   4.029  0.0246 -0.2883 -0.1807
 1492SOL    HW2 5734   2.856   5.898   4.116 -1.0238 -0.8300  0.0095
 1492SOL    HW3 5735   2.798   5.787   4.031 -0.8629  0.4322 -1.8208
 1492SOL    MW4 5736   2.854   5.854   4.041 -0.0285 -0.9315  0.2115
 1493SOL     OW 5737   3.285   5.172   0.868 -0.6910 -0.1105  0.3074
 1493SOL    HW2 5738   3.190   5.169   0.867 -0.6772 -0.7520 -1.0859
 1493SOL    HW3 5739   3.306   5.240   0.932 -2.1214  1.1130 -0.4453
 1493SOL    MW4 5740   3.275   5.181   0.876 -0.3975  0.2430  0.2209
 1494SOL     OW 5741   6.226   2.024   5.424  0.0365 -0.0896  0.3469
 1494SOL    HW2 5742   6.143   2.010   5.378  0.3020 -0.2265 -0.0876
 1494SOL    HW3 5743   6.201   2.074   5.502 -0.1569  2.1329 -1.0400
 1494SOL    MW4 5744   6.212   2.029   5.428 -0.1868  0.0638 -0.6173
 1495SOL     OW 5745   5.585   5.989   2.653 -0.2851 -0.0376  0.2676
 1495SOL    HW2 5746   5.518   5.974   2.720 -1.1473  1.7062 -0.1379
 1495SOL    HW3 5747   5.552   5.942   2.576 -0.1680 -0.6246  0.5775
 1495SOL    MW4 5748   5.571   5.981   2.651  0.1090 -0.3330  0.8686
 1496SOL     OW 5749   4.695   6.310   2.270  0.1020  0.1310  0.0560
 1496SOL    HW2 5750   4.643   6.388   2.249  0.9559  0.5044 -0.7190
 1496SOL    HW3 5751   4.772   6.344   2.315  1.5454 -0.0118 -2.1853
 1496SOL    MW4 5752   4.698   6.325   2.273  0.2324  1.2645  0.0429
 1497SOL     OW 5753   2.897   3.632   6.192  0.3583 -0.2773 -0.1771
 1497SOL    HW2 5754   2.861   3.719   6.211  0.7733 -0.2691  0.6417
 1497SOL    HW3 5755   2.988   3.637   6.222  0.3730 -1.0063 -0.0752
 1497SOL    MW4 5756   2.905   3.644   6.198 -0.0757 -0.7742 -0.3356
 1498SOL     OW 5757   1.408   0.260   2.625 -0.1856  0.0437 -0.1992
 1498SOL    HW2 5758   1.435   0.172   2.599 -1.3983 -0.6909  0.9257
 1498SOL    HW3 5759   1.384   0.303   2.543  1.4609 -0.2688 -0.8880
 1498SOL    MW4 5760   1.408   0.254   2.611 -0.0627 -0.1660 -0.4325
 1499SOL     OW 5761   1.234   5.723   5.143  0.0934  0.1687 -0.2280
 1499SOL    HW2 5762   1.159   5.747   5.197  1.7102  0.5482  2.0050
 1499SOL    HW3 5763   1.306   5.714   5.206  1.9428 -0.0513 -2.2785
 1499SOL    MW4 5764   1.233   5.725   5.159 -0.6276 -0.1691  0.2432
 1500SOL     OW 5765   4.558   1.065   2.121 -0.4876 -0.0569  0.6285
 1500SOL    HW2 5766   4.589   1.079   2.031 -0.9063  2.1614  0.7826
 1500SOL    HW3 5767   4.482   1.008   2.111  0.4732 -1.2511 -0.2359
 1500SOL    MW4 5768   4.552   1.059   2.108  0.3520  0.0421 -0.1302
 1501SOL     OW 5769   6.422   1.354   2.644 -0.1839  0.7546 -0.4566
 1501SOL    HW2 5770   6.457   1.405   2.571  1.1925  1.2359  0.4892
 1501SOL    HW3 5771   6.490   1.359   2.712 -0.6778 -1.0802  0.2417
 1501SOL    MW4 5772   6.436   1.362   2.644 -0.3491 -0.2907 -0.2179
 1502SOL     OW 5773   5.600   0.804   0.371  0.2672 -0.2983 -0.2116
 1502SOL    HW2 5774   5.505   0.799   0.372  0.1014  1.4132 -1.5337
 1502SOL    HW3 5775   5.629   0.720   0.336 -0.5512 -1.8226  2.4516
 1502SOL    MW4 5776   5.591   0.792   0.367 -0.2520 -0.8010 -0.3271
 1503SOL     OW 5777   1.262   4.409   4.929  0.1904 -0.0171  0.1922
 1503SOL    HW2 5778   1.299   4.334   4.977  0.6641  1.0317  1.5573
 1503SOL    HW3 5779   1.309   4.410   4.846 -0.0073 -1.3750  0.0417
 1503SOL    MW4 5780   1.273   4.399   4.925  0.3716 -0.5844 -0.3539
 1504SOL     OW 5781   3.303   1.725   2.689  0.3322 -0.5183  0.0428
 1504SOL    HW2 5782   3.341   1.664   2.752  1.2230  0.1701  0.1942
 1504SOL    HW3 5783   3.210   1.729   2.711  0.6330 -0.2519  1.3476
 1504SOL    MW4 5784   3.296   1.718   2.700  0.1854  0.5940  0.0726
 1505SOL     OW 5785   5.196   4.913   2.480 -0.0862 -0.1228  0.0807
 1505SOL    HW2 5786   5.221   4.833   2.434  0.4212  0.2770 -0.3501
 1505SOL    HW3 5787   5.127   4.951   2.426 -2.2330 -1.5877  1.6293
 1505SOL    MW4 5788   5.190   4.907   2.467 -0.5014 -0.4478  0.2433
 1506SOL     OW 5789   3.568   4.959   3.424  0.4104  0.1948 -0.0366
 1506SOL    HW2 5790   3.491   4.909   3.398  0.2746 -0.4929  1.5287
 1506SOL    HW3 5791   3.642   4.909   3.388  0.1803  0.1090 -0.3926
 1506SOL    MW4 5792   3.568   4.946   3.416 -0.3359  0.5265 -0.1092
 1507SOL     OW 5793   3.417   0.501   2.894 -0.3673 -0.2859 -0.1502
 1507SOL    HW2 5794   3.466   0.429   2.933 -0.3652 -0.6768 -0.8782
 1507SOL    HW3 5795   3.338   0.507   2.949 -0.7908 -1.4156 -0.6065
 1507SOL    MW4 5796   3.413   0.492   2.907 -0.0130  0.3597 -0.1279
 1508SOL     OW 5797   2.477   3.790   3.168 -0.4699  0.7666  0.0449
 1508SOL    HW2 5798   2.551   3.778   3.108 -0.5254 -0.2752  0.1587
 1508SOL    HW3 5799   2.414   3.841   3.118 -0.8907 -0.8235 -1.1491
 1508SOL    MW4 5800   2.479   3.795   3.153  0.3106 -0.4943 -0.4636
 1509SOL     OW 5801   6.435   1.668   4.580  0.1707 -0.0556  0.1932
 1509SOL    HW2 5802   6.498   1.736   4.556  0.0874  0.1922  0.6694
 1509SOL    HW3 5803   6.470   1.588   4.541 -0.0513  0.3566 -0.9183
 1509SOL    MW4 5804   6.448   1.666   4.571  0.1005  0.2467 -0.4875
 1510SOL     OW 5805   2.804   0.361   4.787 -0.0582  0.4230  0.3221
 1510SOL    HW2 5806   2.853   0.304   4.728 -2.7054 -0.0846 -1.5706
 1510SOL    HW3 5807   2.849   0.352   4.871  1.0956 -2.5328 -0.4744
 1510SOL    MW4 5808   2.817   0.352   4.790  0.2009 -0.4023  0.1122
 1511SOL     OW 5809   3.853   0.639   6.280 -0.5577 -0.5177 -0.0287
 1511SOL    HW2 5810   3.822   0.728   6.261  1.3685  0.6988  1.9372
 1511SOL    HW3 5811   3.943   0.638   6.247  0.6437 -0.4709  2.9157
 1511SOL    MW4 5812   3.861   0.651   6.273  0.1160  0.1405  0.7743
 1512SOL     OW 5813   4.065   1.097   0.195  0.2143 -0.5790 -0.5438
 1512SOL    HW2 5814   4.148   1.094   0.147 -0.2602  0.4440 -1.4742
 1512SOL    HW3 5815   4.030   1.184   0.176 -0.7000 -0.7016  0.4863
 1512SOL    MW4 5816   4.071   1.108   0.186  0.4238 -0.1003  0.0994
 1513SOL     OW 5817   3.751   0.462   6.070 -0.4766 -0.3507  0.2020
 1513SOL    HW2 5818   3.790   0.383   6.107  2.0687  0.8693  0.3059
 1513SOL    HW3 5819   3.766   0.530   6.136 -0.3950  0.7556 -0.9145
 1513SOL    MW4 5820   3.758   0.461   6.083  0.0775 -0.3694  0.1950
 1514SOL     OW 5821   5.129   3.412   3.497  0.2640 -0.3164 -0.4145
 1514SOL    HW2 5822   5.056   3.422   3.559  1.5760  0.6436  1.0568
 1514SOL    HW3 5823   5.117   3.483   3.434  0.2413  0.1973  0.1583
 1514SOL    MW4 5824   5.117   3.422   3.497  0.6805 -0.0170  0.3701
 1515SOL     OW 5825   0.308   5.876   2.990 -0.5470  0.0940  0.2093
 1515SOL    HW2 5826   0.397   5.866   2.955 -1.3235  0.8248 -2.1821
 1515SOL    HW3 5827   0.319   5.871   3.085  1.9552 -0.4386 -0.0299
 1515SOL    MW4 5828   0.322   5.874   2.998  0.3209  0.2246  0.5751
 1516SOL     OW 5829   3.321   5.540   3.132  0.2836  0.0591 -0.1946
 1516SOL    HW2 5830   3.330   5.522   3.038 -0.2387  4.4208 -1.3004
 1516SOL    HW3 5831   3.242   5.492   3.157  1.5245 -2.8518 -1.3373
 1516SOL    MW4 5832   3.312   5.531   3.123 -0.2375  0.5966  0.8098
 1517SOL     OW 5833   5.786   2.745   2.122 -0.6206 -0.1386  0.1145
 1517SOL    HW2 5834   5.779   2.685   2.196  1.0684 -0.2586  0.2074
 1517SOL    HW3 5835   5.823   2.692   2.051  2.0611  0.9961  0.5511
 1517SOL    MW4 5836   5.790   2.731   2.122  0.5359 -0.4840  0.8303
 1518SOL     OW 5837   0.741   5.582   0.656 -0.1756  0.1297 -0.2731
 1518SOL    HW2 5838   0.646   5.582   0.644 -0.3000 -4.1908 -0.6728
 1518SOL    HW3 5839   0.773   5.650   0.596 -2.8888  0.9691 -0.9008
 1518SOL    MW4 5840   0.733   5.591   0.647  0.4255 -0.0200 -0.2370
 1519SOL     OW 5841   2.861   3.997   5.719  0.3842  0.1138 -0.3595
 1519SOL    HW2 5842   2.809   4.013   5.798  1.0650 -0.3909  0.2071
 1519SOL    HW3 5843   2.803   4.022   5.647 -1.3064 -1.9919  0.1455
 1519SOL    MW4 5844   2.846   4.002   5.720  0.1086 -0.4051 -0.0044
 1520SOL     OW 5845   6.030   5.708   0.953  0.2623 -0.2681  0.6857
 1520SOL    HW2 5846   5.954   5.707   0.895  0.3780 -0.8421  0.5373
 1520SOL    HW3 5847   6.103   5.733   0.896  0.4674 -1.3259  0.4483
 1520SOL    MW4 5848   6.030   5.711   0.938 -0.7546 -0.3011 -0.0483
 1521SOL     OW 5849   4.413  -0.016   4.453  0.2007 -0.6634 -0.0925
 1521SOL    HW2 5850   4.444  -0.102   4.426  1.3995  0.2425 -1.7493
 1521SOL    HW3 5851   4.478   0.045   4.419 -1.9273  1.1044 -1.2833
 1521SOL    MW4 5852   4.425  -0.019   4.445 -0.0194  0.3171 -0.0114
 1522SOL     OW 5853   0.753   0.470   2.093 -0.1805 -0.3114 -0.0125
 1522SOL    HW2 5854   0.716   0.406   2.154 -0.7109  1.2539  1.3995
 1522SOL    HW3 5855   0.686   0.539   2.088  0.4543  0.2410 -1.3145
 1522SOL    MW4 5856   0.739   0.471   2.100 -0.4430  0.3882  0.0924
 1523SOL     OW 5857   5.857   6.373   2.415  0.3183 -0.2078  0.4100
 1523SOL    HW2 5858   5.891   6.342   2.499  1.7040  0.7621  0.2374
 1523SOL    HW3 5859   5.865   6.468   2.419 -0.4226 -0.0935 -0.4891
 1523SOL    MW4 5860   5.863   6.381   2.427  0.2519 -0.3487 -0.2740
 1524SOL     OW 5861   6.384   3.567   3.513  0.5591  0.6288  0.3904
 1524SOL    HW2 5862   6.355   3.574   3.422 -1.6804  1.4887  1.1082
 1524SOL    HW3 5863   6.303   3.563   3.564  1.7226 -1.4416  2.2786
 1524SOL    MW4 5864   6.369   3.567   3.507 -0.1942  0.6647 -0.4360
 1525SOL     OW 5865   2.404   3.180   2.896 -0.0984  0.2647  0.1097
 1525SOL    HW2 5866   2.389   3.093   2.932  0.4217 -0.1353 -0.6095
 1525SOL    HW3 5867   2.321   3.226   2.907 -0.3523 -0.2947  0.5628
 1525SOL    MW4 5868   2.391   3.175   2.902 -0.6079 -0.3727 -0.3678
 1526SOL     OW 5869   4.567   3.802   2.809  0.1195 -0.1073  0.0538
 1526SOL    HW2 5870   4.496   3.743   2.782 -0.1498  0.6912 -1.0758
 1526SOL    HW3 5871   4.526   3.861   2.872 -0.2650  0.4171 -0.6744
 1526SOL    MW4 5872   4.552   3.802   2.814 -0.4457  0.2905  0.2570
 1527SOL     OW 5873   0.738   0.163   2.005  0.4911 -0.1914  0.2086
 1527SOL    HW2 5874   0.787   0.119   1.935  1.4949 -0.5604  1.1122
 1527SOL    HW3 5875   0.666   0.206   1.960  1.7103  0.4658 -1.2051
 1527SOL    MW4 5876   0.735   0.163   1.990 -0.0454  0.0615 -0.4400
 1528SOL     OW 5877   1.580   4.347   5.753  0.3292  0.4283  0.4735
 1528SOL    HW2 5878   1.559   4.371   5.843 -0.4785  0.2199  0.3522
 1528SOL    HW3 5879   1.495   4.334   5.711  0.6511  1.8000 -0.6887
 1528SOL    MW4 5880   1.566   4.348   5.759  0.4583 -0.4873  0.1717
 1529SOL     OW 5881   6.139   4.705   0.536  0.1090  0.1620 -0.1500
 1529SOL    HW2 5882   6.083   4.689   0.611 -0.0823 -0.9685 -0.5079
 1529SOL    HW3 5883   6.082   4.749   0.472 -0.1305 -0.1760 -0.1725
 1529SOL    MW4 5884   6.124   4.709   0.537  0.1049 -0.3208  0.4573
 1530SOL     OW 5885   4.790   4.035   4.017  0.3666  0.7136  0.2800
 1530SOL    HW2 5886   4.737   4.041   4.096 -0.1533  2.3186 -0.1594
 1530SOL    HW3 5887   4.752   4.100   3.958  1.4720  0.3538 -0.8590
 1530SOL    MW4 5888   4.778   4.044   4.020 -0.0253  0.1749  0.1354
 1531SOL     OW 5889   4.722   3.020   1.458 -0.3849  0.0046 -0.1944
 1531SOL    HW2 5890   4.698   3.068   1.379 -0.8752  1.5360  0.8438
 1531SOL    HW3 5891   4.818   3.020   1.458 -0.3780  0.8532 -0.3117
 1531SOL    MW4 5892   4.732   3.027   1.448  0.2632 -0.6906 -0.1147
 1532SOL     OW 5893   2.050   1.941   1.764 -0.1542 -0.1964 -0.4089
 1532SOL    HW2 5894   2.143   1.931   1.746  0.0041  0.0315  0.2491
 1532SOL    HW3 5895   2.045   2.009   1.831 -1.0565  2.8738 -3.3312
 1532SOL    MW4 5896   2.061   1.948   1.770 -0.1496  0.0476 -0.3188
 1533SOL     OW 5897   4.948   4.612   1.543  0.1333  0.2869  0.5547
 1533SOL    HW2 5898   5.026   4.669   1.543 -0.3109  1.0870  3.7257
 1533SOL    HW3 5899   4.955   4.562   1.625 -1.8510 -0.8512  0.0840
 1533SOL    MW4 5900   4.959   4.613   1.554 -0.1189 -0.2141  0.2055
 1534SOL     OW 5901   5.707   3.545   5.886 -0.7713  0.2995 -0.2790
 1534SOL    HW2 5902   5.792   3.557   5.845 -0.8261  0.4119 -0.3600
 1534SOL    HW3 5903   5.726   3.503   5.970 -0.6800 -0.2476 -0.5638
 1534SOL    MW4 5904   5.720   3.541   5.892  0.4784  0.3040 -0.4002
 1535SOL     OW 5905   2.333   0.647   3.117  0.0673 -0.0440  0.0830
 1535SOL    HW2 5906   2.332   0.578   3.050  2.4958 -1.0693  1.0067
 1535SOL    HW3 5907   2.360   0.726   3.070 -0.8377 -0.1378 -0.6207
 1535SOL    MW4 5908   2.336   0.648   3.102  0.0177 -0.1659  0.5810
 1536SOL     OW 5909   3.829   2.835   3.300  0.5246  0.1006 -0.4873
 1536SOL    HW2 5910   3.779   2.889   3.238 -0.0552 -1.5433 -1.4971
 1536SOL    HW3 5911   3.777   2.836   3.380  0.3848  0.7777 -0.5753
 1536SOL    MW4 5912   3.816   2.842   3.302  0.5806 -0.0391  0.3837
 1537SOL     OW 5913   2.229   1.714   4.522 -0.3972 -0.2531 -0.1577
 1537SOL    HW2 5914   2.193   1.801   4.537 -3.1953 -1.0650 -1.4641
 1537SOL    HW3 5915   2.290   1.726   4.450 -0.3247  0.7247  0.0551
 1537SOL    MW4 5916   2.232   1.727   4.514  0.5935  0.2428 -0.0126
 1538SOL     OW 5917   6.268   3.947   3.656  0.5335 -0.1396  0.2942
 1538SOL    HW2 5918   6.230   3.873   3.704  0.8846  0.9901  2.4010
 1538SOL    HW3 5919   6.360   3.924   3.646 -0.0280 -1.6408 -2.4313
 1538SOL    MW4 5920   6.275   3.934   3.661 -0.5860 -0.1410 -0.0736
 1539SOL     OW 5921   1.055   5.020   6.408  0.2164 -0.0076  0.5592
 1539SOL    HW2 5922   1.106   5.095   6.437 -2.2491  1.0493  2.5106
 1539SOL    HW3 5923   1.017   4.984   6.489 -1.8623 -0.8623 -0.7079
 1539SOL    MW4 5924   1.056   5.025   6.423 -0.1207  0.2487  0.1665
 1540SOL     OW 5925   4.262   6.028   5.832 -0.1039 -0.0537 -0.4777
 1540SOL    HW2 5926   4.217   6.020   5.916 -1.5914 -0.9059 -1.3239
 1540SOL    HW3 5927   4.347   5.985   5.846 -0.7829 -1.1930  0.2927
 1540SOL    MW4 5928   4.268   6.021   5.845 -0.1109  0.0757 -0.1726
 1541SOL     OW 5929   1.376   2.811   2.213 -0.7780  0.6086 -0.1770
 1541SOL    HW2 5930   1.448   2.762   2.254 -0.4090  2.1770  1.1872
 1541SOL    HW3 5931   1.394   2.806   2.119 -0.5050 -1.4130 -0.0612
 1541SOL    MW4 5932   1.388   2.804   2.206  0.3285  0.6002 -0.3643
 1542SOL     OW 5933   1.510   5.389   1.899 -0.3410  0.2026  0.4589
 1542SOL    HW2 5934   1.417   5.397   1.878 -0.0222  1.8960 -0.4507
 1542SOL    HW3 5935   1.513   5.322   1.968 -2.5136  1.9436  2.4125
 1542SOL    MW4 5936   1.498   5.381   1.905 -0.0542  0.5105  0.0973
 1543SOL     OW 5937   3.200   2.221   5.679  0.1658 -0.4799  0.7835
 1543SOL    HW2 5938   3.262   2.237   5.749  1.1863  0.6214 -0.3173
 1543SOL    HW3 5939   3.188   2.125   5.678 -0.6331 -0.4535  3.0242
 1543SOL    MW4 5940   3.207   2.210   5.688  0.4673  0.1782  0.5008
 1544SOL     OW 5941   6.101   3.978   3.063  0.2801  0.1615  0.3458
 1544SOL    HW2 5942   6.012   3.947   3.078  0.5052 -1.5253 -1.4677
 1544SOL    HW3 5943   6.127   3.939   2.980  2.0987  2.0647 -0.0776
 1544SOL    MW4 5944   6.093   3.969   3.054 -0.2268  0.7188 -0.0573
 1545SOL     OW 5945   5.067   3.590   4.864 -0.2194  0.4596  0.4557
 1545SOL    HW2 5946   5.012   3.655   4.819 -1.3668 -1.0040 -0.3322
 1545SOL    HW3 5947   5.076   3.518   4.801  1.7005  0.1606  0.9961
 1545SOL    MW4 5948   5.061   3.589   4.850  0.2796 -0.0493  0.2846
 1546SOL     OW 5949   2.067   1.280   5.109  0.0318  0.6161 -0.2083
 1546SOL    HW2 5950   2.031   1.236   5.032  2.5080 -0.1611 -1.0309
 1546SOL    HW3 5951   2.119   1.352   5.074 -0.9463  1.9391  0.9358
 1546SOL    MW4 5952   2.069   1.284   5.094 -0.1348 -0.0305  0.0005
 1547SOL     OW 5953   5.577   0.377   5.264  0.1672  0.2083 -0.1953
 1547SOL    HW2 5954   5.621   0.449   5.220 -0.1397  1.0275  0.7910
 1547SOL    HW3 5955   5.621   0.298   5.232  0.8472  0.8590 -0.9039
 1547SOL    MW4 5956   5.589   0.376   5.254  0.3029 -0.5715 -0.0054
 1548SOL     OW 5957   0.834   4.872   5.477 -0.0586  0.2970 -0.1565
 1548SOL    HW2 5958   0.753   4.918   5.497  0.1575  1.0102 -0.8557
 1548SOL    HW3 5959   0.899   4.912   5.534 -0.0275  0.3253 -0.2114
 1548SOL    MW4 5960   0.832   4.883   5.487  0.4889 -0.2184 -0.0570
 1549SOL     OW 5961   2.978   1.975   0.158 -0.1712  0.2294 -0.2158
 1549SOL    HW2 5962   2.919   1.903   0.135 -0.4354  0.1733  0.6178
 1549SOL    HW3 5963   3.053   1.932   0.199  0.2178  0.3416 -0.8003
 1549SOL    MW4 5964   2.980   1.960   0.160  0.3212  0.0914  0.2994
 1550SOL     OW 5965   4.240   6.282   5.726  0.0574 -0.0232 -0.0204
 1550SOL    HW2 5966   4.267   6.270   5.635  0.1238  0.9527 -0.1473
 1550SOL    HW3 5967   4.257   6.198   5.768 -0.5513 -0.6838 -1.0506
 1550SOL    MW4 5968   4.246   6.270   5.719  0.0221 -0.4387 -0.1697
 1551SOL     OW 5969   5.910   0.823   0.451 -0.4786 -0.6653 -0.0656
 1551SOL    HW2 5970   5.942   0.815   0.541 -1.4107 -1.1167  0.2381
 1551SOL    HW3 5971   5.815   0.815   0.459 -0.7647  1.3267 -0.8671
 1551SOL    MW4 5972   5.902   0.821   0.464  0.0969  0.0599 -0.4860
 1552SOL     OW 5973   4.923   5.388   4.639  0.1711 -0.2550  0.2123
 1552SOL    HW2 5974   4.999   5.384   4.698  0.1089 -0.5362  0.2725
 1552SOL    HW3 5975   4.911   5.298   4.608 -0.2029 -0.2298  0.2814
 1552SOL    MW4 5976   4.932   5.376   4.643 -0.4208  0.1771 -0.6645
 1553SOL     OW 5977   2.005   4.107   2.100  0.6208  0.2670  0.4897
 1553SOL    HW2 5978   2.068   4.035   2.110 -0.2306 -0.4561  0.8514
 1553SOL    HW3 5979   1.945   4.076   2.031  0.3024  0.6722  0.5850
 1553SOL    MW4 5980   2.005   4.093   2.092 -0.1008 -0.1149 -0.2678
 1554SOL     OW 5981   1.775   3.620   4.770  0.5045  0.0512  0.4508
 1554SOL    HW2 5982   1.780   3.585   4.681 -0.8381 -1.5872  0.9867
 1554SOL    HW3 5983   1.864   3.652   4.788  0.3273  2.3930 -2.1974
 1554SOL    MW4 5984   1.788   3.620   4.761 -0.1460  0.0005  0.3076
 1555SOL     OW 5985   4.612   0.529   2.187 -0.7313  0.5844 -0.2118
 1555SOL    HW2 5986   4.531   0.540   2.137 -1.2795  1.3988  0.8198
 1555SOL    HW3 5987   4.585   0.481   2.265 -0.1670  0.6480  0.0260
 1555SOL    MW4 5988   4.598   0.524   2.190 -0.0020 -0.0165 -0.1705
 1556SOL     OW 5989   1.679   4.403   4.712 -0.1603  0.4584 -0.0545
 1556SOL    HW2 5990   1.676   4.435   4.802  0.5845  0.5563 -0.0609
 1556SOL    HW3 5991   1.641   4.316   4.716 -0.7068  0.7037  0.2446
 1556SOL    MW4 5992   1.674   4.396   4.724 -0.9533  0.0884 -0.1799
 1557SOL     OW 5993   3.593   3.627   0.400 -0.0440 -0.1392  0.1112
 1557SOL    HW2 5994   3.530   3.669   0.458  0.8128  1.2264  0.1073
 1557SOL    HW3 5995   3.603   3.688   0.327 -0.1367 -1.2283 -0.8564
 1557SOL    MW4 5996   3.586   3.640   0.398 -0.2110 -0.0610 -0.7068
 1558SOL     OW 5997   4.597   1.629   6.362  0.2925 -0.4061 -0.4211
 1558SOL    HW2 5998   4.603   1.657   6.453  1.2244 -2.6056  0.2663
 1558SOL    HW3 5999   4.577   1.709   6.313 -1.7708  0.5888  1.8517
 1558SOL    MW4 6000   4.595   1.643   6.368  0.2317  0.1148  0.0566
 1559SOL     OW 6001   5.619   0.729   1.773 -0.0733 -0.5777 -0.5337
 1559SOL    HW2 6002   5.567   0.691   1.843  1.8697 -3.4253 -0.4708
 1559SOL    HW3 6003   5.666   0.801   1.814  0.4549 -1.7085  0.9115
 1559SOL    MW4 6004   5.618   0.733   1.787  0.2656  0.2762 -0.3747
 1560SOL     OW 6005   2.346   3.817   5.416 -0.9055  0.1865  0.0124
 1560SOL    HW2 6006   2.320   3.748   5.355 -2.6136 -0.6742  1.5831
 1560SOL    HW3 6007   2.270   3.876   5.419 -0.5761  0.5932  0.7708
 1560SOL    MW4 6008   2.332   3.816   5.408  0.9440  0.3050 -0.2692
 1561SOL     OW 6009   2.775   0.624   4.371  0.2951  0.3058  0.5007
 1561SOL    HW2 6010   2.786   0.529   4.372 -0.6871  0.1616 -0.3015
 1561SOL    HW3 6011   2.726   0.643   4.452  1.1150  0.2299  1.0237
 1561SOL    MW4 6012   2.770   0.614   4.382  0.3233 -0.0462 -0.1044
 1562SOL     OW 6013   4.489   3.074   4.269  0.1435  0.3951  0.0075
 1562SOL    HW2 6014   4.547   3.015   4.222 -0.8605 -1.4463  0.9549
 1562SOL    HW3 6015   4.412   3.020   4.290 -0.6874  1.9593  1.1878
 1562SOL    MW4 6016   4.486   3.059   4.266  0.6793 -0.3871 -0.1256
 1563SOL     OW 6017   1.531   5.281   0.122  0.5785 -0.0778 -0.2627
 1563SOL    HW2 6018   1.511   5.361   0.170  0.5896 -0.5543  0.5805
 1563SOL    HW3 6019   1.570   5.223   0.189  0.9955 -0.6111 -0.9560
 1563SOL    MW4 6020   1.533   5.284   0.137  0.3694 -0.2433 -0.7985
 1564SOL     OW 6021   5.034   6.188   4.635  0.9213  0.7062 -0.3700
 1564SOL    HW2 6022   4.996   6.223   4.554  0.8555  1.0074 -0.2096
 1564SOL    HW3 6023   5.128   6.202   4.625  0.8603  1.3352 -0.1183
 1564SOL    MW4 6024   5.041   6.194   4.623  0.0564 -0.0211  0.1868
 1565SOL     OW 6025   2.052   5.994   1.884  0.0163 -0.1043  0.3134
 1565SOL    HW2 6026   2.020   6.002   1.974 -0.2712 -0.1273  0.2128
 1565SOL    HW3 6027   1.983   6.031   1.830  0.7858  1.1974  0.1910
 1565SOL    MW4 6028   2.039   6.000   1.889  0.2712 -0.4133  0.3399
 1566SOL     OW 6029   2.260   0.138   1.059 -0.0505  0.2898  0.3515
 1566SOL    HW2 6030   2.350   0.170   1.049 -0.0682 -0.0156 -1.0867
 1566SOL    HW3 6031   2.268   0.060   1.113  0.7251 -0.3652 -0.6538
 1566SOL    MW4 6032   2.273   0.132   1.065  0.7825  0.4244 -0.1336
 1567SOL     OW 6033   5.749   1.500   3.268  0.4739 -0.0731 -0.8084
 1567SOL    HW2 6034   5.743   1.430   3.203 -2.9318  0.6982 -1.5231
 1567SOL    HW3 6035   5.826   1.550   3.243  0.5761 -1.1585 -2.8411
 1567SOL    MW4 6036   5.758   1.498   3.256 -0.3903  0.5873 -0.2209
 1568SOL     OW 6037   4.353   0.103   2.818 -0.0323  0.3910  0.3872
 1568SOL    HW2 6038   4.418   0.096   2.888  0.3472  0.3855  0.0422
 1568SOL    HW3 6039   4.337   0.196   2.809  1.4449  0.5581 -0.8768
 1568SOL    MW4 6040   4.360   0.114   2.826  0.0156 -0.4431  0.0687
 1569SOL     OW 6041   0.671   3.340   5.132  0.6448 -0.1491 -0.0347
 1569SOL    HW2 6042   0.750   3.351   5.184 -0.0159 -0.6484  1.1226
 1569SOL    HW3 6043   0.637   3.429   5.122  0.7716 -0.0418  0.4270
 1569SOL    MW4 6044   0.677   3.353   5.138  0.3351 -0.7869  0.1737
 1570SOL     OW 6045   2.703   3.664   1.168  0.0128  0.2864 -0.1382
 1570SOL    HW2 6046   2.754   3.717   1.230 -0.9230  0.2147  0.7155
 1570SOL    HW3 6047   2.668   3.592   1.221  0.3118 -0.5584 -1.0412
 1570SOL    MW4 6048   2.705   3.661   1.183 -0.5348 -0.4959  0.2782
 1571SOL     OW 6049   1.665   5.332   3.622 -0.5783 -0.3272  0.7122
 1571SOL    HW2 6050   1.616   5.251   3.602  1.4105 -0.9302 -2.4866
 1571SOL    HW3 6051   1.601   5.402   3.606 -1.3289 -1.1773 -0.2097
 1571SOL    MW4 6052   1.650   5.330   3.617 -0.6769  0.4078  0.5645
 1572SOL     OW 6053   5.687   6.247   5.946 -0.1920  0.1235 -0.4265
 1572SOL    HW2 6054   5.709   6.317   5.885 -1.0392 -0.5100 -1.5069
 1572SOL    HW3 6055   5.771   6.212   5.976  0.2281  1.1063 -0.4451
 1572SOL    MW4 6056   5.701   6.251   5.942 -0.1444 -0.1415  0.4788
 1573SOL     OW 6057   5.210   1.329   0.632 -0.2537  0.2258  0.0329
 1573SOL    HW2 6058   5.251   1.311   0.547 -0.4312 -3.2383  0.5576
 1573SOL    HW3 6059   5.117   1.313   0.618 -0.6759  2.1822  0.3222
 1573SOL    MW4 6060   5.203   1.325   0.619 -0.3918 -0.1482  0.2984
 1574SOL     OW 6061   5.109   0.058   1.242 -0.3033 -0.3683 -0.2044
 1574SOL    HW2 6062   5.019   0.026   1.249  0.1502 -1.6095  0.3090
 1574SOL    HW3 6063   5.163  -0.021   1.243  0.8492  0.3803  0.5058
 1574SOL    MW4 6064   5.104   0.043   1.243  0.5023  0.4770 -0.4060
 1575SOL     OW 6065   1.112   1.784   3.192  0.1576 -0.4536 -0.2002
 1575SOL    HW2 6066   1.072   1.738   3.118  1.5985 -1.5254 -0.3529
 1575SOL    HW3 6067   1.041   1.797   3.254 -0.5434 -1.7934 -0.7003
 1575SOL    MW4 6068   1.097   1.780   3.190  0.7307 -0.5654  0.4139
 1576SOL     OW 6069   1.133   5.110   4.885 -0.2790 -0.0681 -0.2858
 1576SOL    HW2 6070   1.062   5.073   4.938 -0.4158  0.7072  0.0882
 1576SOL    HW3 6071   1.125   5.065   4.801  0.0838 -1.4845  0.4070
 1576SOL    MW4 6072   1.122   5.099   4.881  0.3462 -0.4003 -0.3008
 1577SOL     OW 6073   0.430   0.939   5.519 -0.6179  0.3807 -0.0905
 1577SOL    HW2 6074   0.424   0.872   5.588  1.2010 -1.0306 -1.2035
 1577SOL    HW3 6075   0.504   0.994   5.546 -0.3186  0.2254 -0.5937
 1577SOL    MW4 6076   0.439   0.938   5.532 -0.0111  0.4111 -0.6233
 1578SOL     OW 6077   4.306   6.225   1.547 -0.2588  0.0222  0.1554
 1578SOL    HW2 6078   4.222   6.186   1.570  0.4669 -2.0242 -0.4935
 1578SOL    HW3 6079   4.302   6.237   1.453  0.4803 -0.8711  0.0036
 1578SOL    MW4 6080   4.294   6.222   1.538 -0.3630 -0.1220 -0.0946
 1579SOL     OW 6081   2.406   3.129   1.284  0.4741  0.3149 -0.6307
 1579SOL    HW2 6082   2.474   3.062   1.286  1.2332  1.0834 -0.1313
 1579SOL    HW3 6083   2.396   3.157   1.375 -0.4320  0.3069 -0.7122
 1579SOL    MW4 6084   2.413   3.124   1.296 -0.4219  0.0708  0.4496
 1580SOL     OW 6085   4.462   2.165   3.170 -0.1672  0.2871  0.5326
 1580SOL    HW2 6086   4.469   2.119   3.253  0.8297  2.8111  1.9319
 1580SOL    HW3 6087   4.537   2.135   3.119  0.3006  0.1680  1.2893
 1580SOL    MW4 6088   4.473   2.155   3.174 -0.1554 -0.1630  0.4571
 1581SOL     OW 6089   2.806   3.317   3.236 -0.2275  0.1558  0.3136
 1581SOL    HW2 6090   2.897   3.294   3.218 -0.2198 -1.7124  2.3467
 1581SOL    HW3 6091   2.755   3.262   3.176 -0.0554  0.9067 -0.5399
 1581SOL    MW4 6092   2.811   3.307   3.226 -0.1290  0.0338  0.3400
 1582SOL     OW 6093   3.970   3.378   0.666  0.4715 -0.5016  0.0748
 1582SOL    HW2 6094   3.921   3.416   0.593  2.1293 -0.7114 -1.1936
 1582SOL    HW3 6095   3.904   3.331   0.717 -0.6211 -0.9317 -1.6680
 1582SOL    MW4 6096   3.955   3.377   0.663  0.1893 -0.2345 -0.5075
 1583SOL     OW 6097   1.042   5.201   1.562  0.6745 -0.0840  0.0633
 1583SOL    HW2 6098   0.956   5.164   1.541  0.3744 -0.5389  1.9746
 1583SOL    HW3 6099   1.105   5.133   1.534  0.2622 -0.8715  0.9768
 1583SOL    MW4 6100   1.039   5.187   1.555  0.1886 -0.1459  0.4638
 1584SOL     OW 6101   4.782   4.053   4.846  0.2693  0.0926 -0.7094
 1584SOL    HW2 6102   4.873   4.035   4.822 -0.3742 -1.8832 -1.9442
 1584SOL    HW3 6103   4.761   3.987   4.912  0.0819  1.3661  0.5467
 1584SOL    MW4 6104   4.791   4.042   4.852  0.0090 -0.4737  0.8761
 1585SOL     OW 6105   2.939   3.305   5.779 -0.7353  0.1466 -0.2414
 1585SOL    HW2 6106   3.014   3.319   5.837  0.5843 -2.4990 -1.1275
 1585SOL    HW3 6107   2.870   3.273   5.836  0.2243 -1.4421  0.1065
 1585SOL    MW4 6108   2.940   3.302   5.794 -0.3358  0.4437 -0.3809
 1586SOL     OW 6109   4.814   2.414   4.224 -0.2974  0.0894  0.4858
 1586SOL    HW2 6110   4.877   2.477   4.258  1.6085  0.1165 -2.7231
 1586SOL    HW3 6111   4.748   2.468   4.180 -0.1238 -0.0394  0.0583
 1586SOL    MW4 6112   4.814   2.429   4.223 -0.2535  0.1827  0.0645
 1587SOL     OW 6113   1.228   0.733   4.084  0.2544 -0.0966  0.0932
 1587SOL    HW2 6114   1.233   0.642   4.055  2.3240 -0.3730  1.0919
 1587SOL    HW3 6115   1.263   0.784   4.011 -3.2134  0.2676 -1.4989
 1587SOL    MW4 6116   1.233   0.728   4.071 -0.0301 -0.0969  0.6148
 1588SOL     OW 6117   2.888   0.635   6.180 -0.2588 -0.0360 -0.0579
 1588SOL    HW2 6118   2.950   0.653   6.250  0.6654  0.5275 -0.9798
 1588SOL    HW3 6119   2.930   0.671   6.101 -1.2269 -0.7021 -0.9102
 1588SOL    MW4 6120   2.902   0.642   6.179  0.2056  0.0530  0.0266
 1589SOL     OW 6121   4.088   5.054   1.284  0.0996  0.2412  0.0193
 1589SOL    HW2 6122   4.182   5.073   1.290 -0.5176  3.7621  0.6206
 1589SOL    HW3 6123   4.081   4.987   1.216  3.0588 -0.6218  0.4286
 1589SOL    MW4 6124   4.099   5.047   1.276 -0.1122 -0.0855 -0.0783
 1590SOL     OW 6125   5.542   4.701   6.065  0.1215 -0.2222  0.1775
 1590SOL    HW2 6126   5.603   4.709   6.138  0.5451 -0.2620 -0.1689
 1590SOL    HW3 6127   5.479   4.634   6.094 -0.0245  0.1401  0.7139
 1590SOL    MW4 6128   5.542   4.693   6.078 -0.4641  0.2072 -0.8179
 1591SOL     OW 6129   4.052   1.105   0.499 -0.0923  0.0012 -0.8738
 1591SOL    HW2 6130   3.959   1.110   0.517 -0.0533  0.9350 -0.8825
 1591SOL    HW3 6131   4.058   1.073   0.409 -0.4073  0.1149 -0.9342
 1591SOL    MW4 6132   4.041   1.101   0.489  0.1301 -0.0449  0.4456
 1592SOL     OW 6133   2.030   3.012   1.538  0.3335 -0.0779 -0.1378
 1592SOL    HW2 6134   2.034   2.974   1.450 -0.7999  2.5502 -1.4316
 1592SOL    HW3 6135   2.117   2.994   1.575  1.5578  0.3721 -2.5510
 1592SOL    MW4 6136   2.042   3.004   1.531  0.2239  0.8285  0.3243
 1593SOL     OW 6137   4.777   4.675   6.334  0.1585  0.0813 -0.2500
 1593SOL    HW2 6138   4.823   4.730   6.397 -0.0878 -0.6241  0.5568
 1593SOL    HW3 6139   4.791   4.586   6.365 -2.3296 -0.1472  0.4671
 1593SOL    MW4 6140   4.785   4.671   6.346  0.6722  0.1525 -0.1196
 1594SOL     OW 6141   2.343   2.274   6.241 -0.0508 -0.5511 -0.8049
 1594SOL    HW2 6142   2.320   2.204   6.302 -1.0119  0.3091 -0.1504
 1594SOL    HW3 6143   2.412   2.324   6.286 -0.8227  0.1373 -0.3557
 1594SOL    MW4 6144   2.349   2.272   6.255  0.3148 -0.3287 -0.6326
 1595SOL     OW 6145   2.266   3.561   3.885  0.3665 -0.6110  0.0131
 1595SOL    HW2 6146   2.221   3.595   3.963  0.5646 -0.9244  0.2681
 1595SOL    HW3 6147   2.197   3.554   3.819  0.6080  1.8577 -0.5990
 1595SOL    MW4 6148   2.251   3.564   3.887 -0.2389 -0.0023  0.2637
 1596SOL     OW 6149   1.954   3.601   3.396  0.1828  0.4349  0.5584
 1596SOL    HW2 6150   1.983   3.691   3.410 -0.0029  0.3448  1.6079
 1596SOL    HW3 6151   2.028   3.558   3.354  0.2588  1.0765  0.0176
 1596SOL    MW4 6152   1.967   3.607   3.392  0.3054  0.6930 -0.3681
 1597SOL     OW 6153   2.004   2.708   4.751  0.1398 -0.0380 -0.0401
 1597SOL    HW2 6154   2.100   2.707   4.748  0.1402  0.6664 -0.4408
 1597SOL    HW3 6155   1.980   2.798   4.733 -0.5604  0.2236  1.9444
 1597SOL    MW4 6156   2.014   2.719   4.748 -0.0169 -0.2168 -0.4145
 1598SOL     OW 6157   2.701   1.912   4.961  0.7179  0.1525  0.1748
 1598SOL    HW2 6158   2.652   1.962   4.895  0.0546  0.8149  1.1361
 1598SOL    HW3 6159   2.709   1.972   5.035  1.8713 -0.4098  0.5211
 1598SOL    MW4 6160   2.695   1.926   4.962 -0.4816  0.6191  0.3734
 1599SOL     OW 6161   0.909   6.169   5.541 -0.1628 -0.0678  0.0624
 1599SOL    HW2 6162   0.882   6.123   5.461 -1.3879 -0.8490  0.8967
 1599SOL    HW3 6163   0.932   6.099   5.602 -1.3357  0.4201  1.1077
 1599SOL    MW4 6164   0.909   6.154   5.538 -0.1978  0.1573 -0.0018
 1600SOL     OW 6165   2.441   0.251   2.834  0.3597 -0.0449  0.3841
 1600SOL    HW2 6166   2.416   0.343   2.849  0.1510 -0.0260 -0.0617
 1600SOL    HW3 6167   2.383   0.222   2.763 -2.4887 -1.7496  3.1570
 1600SOL    MW4 6168   2.430   0.260   2.826  0.1055 -0.2756 -0.1599
 1601SOL     OW 6169   2.044   2.409   0.040  0.4494 -0.0565  0.2318
 1601SOL    HW2 6170   2.094   2.427   0.119 -0.0728 -2.1078  1.1100
 1601SOL    HW3 6171   1.967   2.361   0.071 -0.7302  0.7310 -1.3465
 1601SOL    MW4 6172   2.041   2.405   0.054 -0.3213 -0.0104 -0.2427
 1602SOL     OW 6173   0.313   2.309   1.708  0.1595 -0.2137  0.0336
 1602SOL    HW2 6174   0.313   2.302   1.612 -1.7941  0.5998 -0.0652
 1602SOL    HW3 6175   0.374   2.380   1.727  0.1251  0.0024 -0.6413
 1602SOL    MW4 6176   0.321   2.317   1.698 -0.0216 -0.3775  0.3761
 1603SOL     OW 6177   5.543   1.577   4.691 -0.4800  0.4262 -0.0565
 1603SOL    HW2 6178   5.628   1.536   4.674 -0.6088 -0.1621  0.6497
 1603SOL    HW3 6179   5.494   1.567   4.610 -0.0376  0.3623 -0.3182
 1603SOL    MW4 6180   5.548   1.571   4.678 -0.2996  0.3789 -0.2208
 1604SOL     OW 6181   1.123   1.450   5.708  0.0023 -0.4796  0.1010
 1604SOL    HW2 6182   1.094   1.412   5.625 -0.7957 -0.2482  0.2654
 1604SOL    HW3 6183   1.043   1.459   5.759  0.5352 -0.9793  1.0529
 1604SOL    MW4 6184   1.109   1.446   5.704  0.5485 -0.1668 -0.3644
 1605SOL     OW 6185   3.547   6.377   4.369  0.1822  0.3416 -0.4713
 1605SOL    HW2 6186   3.544   6.408   4.459 -1.7595  1.1407 -0.7766
 1605SOL    HW3 6187   3.461   6.397   4.333 -0.2688 -2.9018 -1.5581
 1605SOL    MW4 6188   3.536   6.384   4.376 -0.3227  0.3758 -0.0110
 1606SOL     OW 6189   0.125   4.442   5.509  0.2254  0.2632 -0.0837
 1606SOL    HW2 6190   0.061   4.378   5.475 -0.1121 -0.3412  1.6081
 1606SOL    HW3 6191   0.075   4.497   5.569  1.3760 -0.6444  1.8017
 1606SOL    MW4 6192   0.110   4.441   5.512  0.4452 -0.0458 -0.3317
 1607SOL     OW 6193   0.336   4.776   3.067  0.6013  0.0534  0.4099
 1607SOL    HW2 6194   0.354   4.870   3.072 -1.6945  0.5074  1.6013
 1607SOL    HW3 6195   0.310   4.761   2.976 -1.2796  1.0944  0.7319
 1607SOL    MW4 6196   0.335   4.786   3.056  0.0073  0.4338  0.1798
 1608SOL     OW 6197   3.011   1.323   2.682 -0.2376  0.0972  0.4703
 1608SOL    HW2 6198   2.961   1.386   2.734  0.6897 -0.0284  1.5238
 1608SOL    HW3 6199   3.088   1.371   2.653 -0.5194  0.0292 -0.4364
 1608SOL    MW4 6200   3.014   1.338   2.685 -0.3931 -0.2959 -0.4461
 1609SOL     OW 6201   5.853   3.388   3.943 -0.1832 -0.4839 -0.3476
 1609SOL    HW2 6202   5.823   3.441   3.870 -0.8784 -0.0208  0.2633
 1609SOL    HW3 6203   5.926   3.437   3.980 -1.4970  0.6309  0.8768
 1609SOL    MW4 6204   5.859   3.401   3.939  0.0183  0.4584  0.1339
 1610SOL     OW 6205   5.293   3.302   4.206 -0.0517  0.3600 -0.1898
 1610SOL    HW2 6206   5.209   3.343   4.186  0.0229  0.0303 -1.2910
 1610SOL    HW3 6207   5.358   3.361   4.166  0.1815  0.2162 -0.0267
 1610SOL    MW4 6208   5.291   3.315   4.198  0.6880  0.2757  0.4081
 1611SOL     OW 6209   3.718   4.267   3.431  0.5148 -0.2614  0.2144
 1611SOL    HW2 6210   3.775   4.267   3.508 -0.6379 -0.4400  1.1015
 1611SOL    HW3 6211   3.629   4.273   3.467 -0.0956 -1.0343 -1.0678
 1611SOL    MW4 6212   3.714   4.268   3.446  0.1890  0.0977 -0.0998
 1612SOL     OW 6213   4.772   4.229   2.446 -0.5968 -0.1438  0.0540
 1612SOL    HW2 6214   4.861   4.203   2.424 -1.0951 -1.3609 -0.5739
 1612SOL    HW3 6215   4.720   4.149   2.438 -1.5492  0.2792  1.5991
 1612SOL    MW4 6216   4.776   4.215   2.442  0.4452 -0.2069  0.3455
 1613SOL     OW 6217   6.116   6.048   6.007 -0.0216  0.0553 -0.5138
 1613SOL    HW2 6218   6.126   5.972   5.950  1.5382 -1.0243  1.1229
 1613SOL    HW3 6219   6.199   6.096   5.999 -0.0260  0.2227  0.3872
 1613SOL    MW4 6220   6.128   6.045   5.998  0.1303  0.2327 -0.1778
 1614SOL     OW 6221   5.923   5.477   1.538  0.0512 -0.1654 -0.2263
 1614SOL    HW2 6222   5.962   5.397   1.573 -0.1468  0.0188  0.4378
 1614SOL    HW3 6223   5.838   5.483   1.581  1.1715  1.8581  1.9445
 1614SOL    MW4 6224   5.917   5.467   1.548 -0.0322  0.1901 -0.5185
 1615SOL     OW 6225   3.893   5.190   4.828 -0.3080 -0.9318 -0.3691
 1615SOL    HW2 6226   3.915   5.111   4.878  0.4361 -0.0980  0.6747
 1615SOL    HW3 6227   3.977   5.233   4.813 -0.8117  0.3262  0.2549
 1615SOL    MW4 6228   3.907   5.185   4.833  0.5097  0.3671  0.3709
 1616SOL     OW 6229   0.768   5.572   1.953 -0.4643  0.1767 -0.0325
 1616SOL    HW2 6230   0.685   5.612   1.926 -1.1644  0.1770  1.9260
 1616SOL    HW3 6231   0.748   5.479   1.961 -0.0401  0.0564 -0.3584
 1616SOL    MW4 6232   0.754   5.565   1.951  0.0719  0.4637 -0.5345
 1617SOL     OW 6233   5.268   4.100   4.894  0.2287  0.5288  0.3744
 1617SOL    HW2 6234   5.340   4.037   4.895 -1.0356 -0.9556  0.4211
 1617SOL    HW3 6235   5.297   4.170   4.953  1.5309 -0.1479  0.5675
 1617SOL    MW4 6236   5.282   4.101   4.902  0.0997 -0.1744  0.0874
 1618SOL     OW 6237   0.335   1.054   2.732 -0.0127  0.7125 -0.2583
 1618SOL    HW2 6238   0.374   1.083   2.815  2.5687 -0.1539 -1.0497
 1618SOL    HW3 6239   0.290   0.973   2.755 -0.0682  0.9332  0.4577
 1618SOL    MW4 6240   0.335   1.047   2.746  0.0060  0.0270  0.1103
 1619SOL     OW 6241   5.258   4.037   5.507  0.2121 -0.1141  0.1555
 1619SOL    HW2 6242   5.227   3.963   5.559 -1.0357 -1.5712 -2.4355
 1619SOL    HW3 6243   5.179   4.089   5.491  0.1932 -0.6095 -1.5800
 1619SOL    MW4 6244   5.243   4.034   5.512  0.4701  0.4466  0.3794
 1620SOL     OW 6245   2.537   1.516   0.898 -0.1408 -0.6818 -0.2202
 1620SOL    HW2 6246   2.496   1.475   0.974  0.9056  0.6515  1.1137
 1620SOL    HW3 6247   2.631   1.501   0.910  0.5118  3.4513  1.2953
 1620SOL    MW4 6248   2.544   1.508   0.909  0.1145  0.1804  0.0948
 1621SOL     OW 6249   2.614   4.429   3.365 -0.1771  0.1297  0.5948
 1621SOL    HW2 6250   2.631   4.339   3.392  2.1121  0.1120 -0.5899
 1621SOL    HW3 6251   2.643   4.482   3.439 -1.1129 -0.0733  1.1190
 1621SOL    MW4 6252   2.620   4.424   3.378  0.1575  0.0042 -0.0517
 1622SOL     OW 6253   6.285   6.357   6.281  0.0661 -0.0847  0.3632
 1622SOL    HW2 6254   6.201   6.389   6.314 -1.4048 -1.6854 -1.5223
 1622SOL    HW3 6255   6.269   6.264   6.261  2.3107 -0.4533 -0.0123
 1622SOL    MW4 6256   6.272   6.349   6.283  0.0199  0.4647 -0.4054
 1623SOL     OW 6257   0.685   1.847   1.852 -0.2369 -0.4274  0.0408
 1623SOL    HW2 6258   0.657   1.886   1.769 -2.0191  0.2969  0.9372
 1623SOL    HW3 6259   0.727   1.765   1.827  0.0221  0.1776 -1.6263
 1623SOL    MW4 6260   0.687   1.842   1.838 -0.0174 -0.3951 -0.1045
 1624SOL     OW 6261   3.619   1.256   0.160  0.5519  0.1216  0.5339
 1624SOL    HW2 6262   3.684   1.268   0.229  0.9719 -0.0767  0.1825
 1624SOL    HW3 6263   3.665   1.206   0.092  0.6694  1.7695 -0.6432
 1624SOL    MW4 6264   3.634   1.251   0.160  1.1405 -0.0720  0.3696
 1625SOL     OW 6265   3.175   1.193   0.308  0.4092 -0.2791  0.1487
 1625SOL    HW2 6266   3.235   1.172   0.380  1.4511  0.4625 -0.4805
 1625SOL    HW3 6267   3.161   1.287   0.315  1.2023 -0.0476 -1.1155
 1625SOL    MW4 6268   3.181   1.202   0.318 -0.0620  0.9769 -0.6639
 1626SOL     OW 6269   4.063   0.993   1.620 -0.0190 -0.1594  0.1746
 1626SOL    HW2 6270   4.004   1.030   1.686  0.6095 -0.1349  0.7309
 1626SOL    HW3 6271   4.062   0.899   1.637 -3.2375 -0.8131 -2.5323
 1626SOL    MW4 6272   4.055   0.985   1.631  0.0798  0.4498 -0.4552
 1627SOL     OW 6273   3.892   0.404   3.705  0.0443  0.0581 -0.6141
 1627SOL    HW2 6274   3.913   0.343   3.776  2.5364  0.0745 -1.2444
 1627SOL    HW3 6275   3.875   0.488   3.750 -0.5565 -0.4142  0.0668
 1627SOL    MW4 6276   3.892   0.407   3.720 -0.3453 -0.1419  0.4293
 1628SOL     OW 6277   0.262   3.516   0.608  0.1358  0.4335 -0.1574
 1628SOL    HW2 6278   0.284   3.423   0.617  0.0496  0.4070 -0.2184
 1628SOL    HW3 6279   0.249   3.546   0.697 -2.7582 -0.3217 -0.2366
 1628SOL    MW4 6280   0.263   3.508   0.621  0.4509 -0.5404  0.2088
 1629SOL     OW 6281   0.388   0.242   3.930  0.1551 -0.1561 -0.7270
 1629SOL    HW2 6282   0.315   0.233   3.991 -0.0618  0.8677 -0.8053
 1629SOL    HW3 6283   0.439   0.162   3.940 -1.3941 -1.2414 -1.2454
 1629SOL    MW4 6284   0.385   0.231   3.939 -0.0097 -0.6749  0.5086
 1630SOL     OW 6285   5.737   3.846   0.961 -0.4730 -0.0681  0.2967
 1630SOL    HW2 6286   5.694   3.761   0.972  0.2626 -0.4194  0.5749
 1630SOL    HW3 6287   5.746   3.880   1.050  1.0531 -0.6511  0.4132
 1630SOL    MW4 6288   5.733   3.839   0.974  0.7502 -0.0480  0.5184
 1631SOL     OW 6289   0.185   2.723   4.844 -0.0624 -0.5019  0.2599
 1631SOL    HW2 6290   0.251   2.720   4.775  1.5046  0.3229  1.6226
 1631SOL    HW3 6291   0.167   2.817   4.856  1.0211 -0.4732  2.0762
 1631SOL    MW4 6292   0.192   2.735   4.837 -0.5462  0.4737 -0.3526
 1632SOL     OW 6293   1.371   4.661   2.588 -0.2526 -0.2731 -0.3413
 1632SOL    HW2 6294   1.435   4.591   2.581 -0.2434 -0.1587 -1.6242
 1632SOL    HW3 6295   1.349   4.683   2.498 -1.0688  0.6347  0.0563
 1632SOL    MW4 6296   1.376   4.655   2.576  0.1029 -0.4624  0.0666
 1633SOL     OW 6297   1.425   5.205   2.353 -0.2907 -0.6483  0.8062
 1633SOL    HW2 6298   1.487   5.133   2.361  1.7924  1.1096  1.3561
 1633SOL    HW3 6299   1.471   5.281   2.387 -2.1166  1.1360 -0.4314
 1633SOL    MW4 6300   1.439   5.206   2.358  0.1879  0.0714 -0.5423
 1634SOL     OW 6301   1.360   4.994   3.391 -0.0011  0.1450 -0.3163
 1634SOL    HW2 6302   1.370   4.960   3.302 -1.4446 -1.5719  0.1333
 1634SOL    HW3 6303   1.337   4.918   3.444  3.2098  0.6316  2.0746
 1634SOL    MW4 6304   1.359   4.980   3.386  0.2814  0.3942  0.3128
 1635SOL     OW 6305   2.912   5.159   5.420  0.3105 -0.4059 -0.2158
 1635SOL    HW2 6306   2.916   5.198   5.508  0.6443 -0.3748 -0.2408
 1635SOL    HW3 6307   2.909   5.065   5.436  1.5193 -0.4583 -0.1776
 1635SOL    MW4 6308   2.912   5.152   5.434  0.3233  0.1212  0.3213
 1636SOL     OW 6309   2.357   6.252   6.394  0.3498 -0.2481 -0.5333
 1636SOL    HW2 6310   2.340   6.158   6.391 -0.2434 -0.2039  0.6797
 1636SOL    HW3 6311   2.311   6.287   6.318 -3.9625 -0.3508  1.7214
 1636SOL    MW4 6312   2.349   6.244   6.384 -0.5275 -0.6049  0.1029
 1637SOL     OW 6313   0.959   1.914   5.049  0.0761  0.3237 -0.3063
 1637SOL    HW2 6314   0.944   1.820   5.057 -0.6262  0.4830  0.4043
 1637SOL    HW3 6315   0.992   1.926   4.960 -1.3406 -0.4130 -0.9580
 1637SOL    MW4 6316   0.961   1.903   5.038  1.0858  0.3223  0.6578
 1638SOL     OW 6317   1.341   4.883   5.773  0.1743 -0.4952  0.3339
 1638SOL    HW2 6318   1.403   4.810   5.781  0.0482 -0.6551 -0.1221
 1638SOL    HW3 6319   1.259   4.849   5.809 -0.5783 -1.4411 -2.0331
 1638SOL    MW4 6320   1.338   4.869   5.779 -0.0313  0.0450 -0.3315
 1639SOL     OW 6321   5.848   6.054   5.337  0.1850 -0.0707 -0.0248
 1639SOL    HW2 6322   5.813   6.111   5.406 -0.5638  0.7115 -1.0156
 1639SOL    HW3 6323   5.771   6.029   5.286  0.9656  1.3255 -2.0113
 1639SOL    MW4 6324   5.833   6.058   5.340 -0.0181 -0.1637  0.0189
 1640SOL     OW 6325   0.282   6.151   0.158 -0.3756  0.0445  0.3204
 1640SOL    HW2 6326   0.229   6.209   0.103  0.9324  2.8629  1.7606
 1640SOL    HW3 6327   0.336   6.102   0.096 -1.0944  0.8586 -0.9990
 1640SOL    MW4 6328   0.282   6.152   0.142  0.5852  0.0358  0.3100
 1641SOL     OW 6329   1.646   0.270   1.356  0.2989  0.3042 -0.6415
 1641SOL    HW2 6330   1.711   0.237   1.294  1.1142 -1.5370  1.0958
 1641SOL    HW3 6331   1.663   0.223   1.437 -2.3458  0.7608  0.2942
 1641SOL    MW4 6332   1.657   0.260   1.358 -0.0518 -0.1152  0.2045
 1642SOL     OW 6333   0.993   4.353   5.923  0.2337 -0.2029 -0.3035
 1642SOL    HW2 6334   0.976   4.440   5.885 -1.8790 -0.2339  0.4574
 1642SOL    HW3 6335   1.076   4.363   5.969  0.2206  1.3182 -0.5578
 1642SOL    MW4 6336   1.002   4.366   5.924 -0.7189  0.1565  0.2386
 1643SOL     OW 6337   5.453   3.730   5.121 -0.8603 -0.1570 -0.2125
 1643SOL    HW2 6338   5.421   3.812   5.160 -2.5386  0.8968 -3.4517
 1643SOL    HW3 6339   5.383   3.667   5.137 -3.1864  1.1418 -3.9646
 1643SOL    MW4 6340   5.440   3.733   5.129  0.3034  0.3699 -0.6378
 1644SOL     OW 6341   4.768   1.069   1.290 -0.5039 -0.2181  0.6354
 1644SOL    HW2 6342   4.763   0.975   1.308 -1.8297 -0.1272  0.8833
 1644SOL    HW3 6343   4.748   1.076   1.196 -0.8976 -0.1512  0.7232
 1644SOL    MW4 6344   4.765   1.057   1.280  0.1631  0.2735 -0.2512
 1645SOL     OW 6345   5.798   3.515   3.706 -0.2686 -0.2571 -0.2589
 1645SOL    HW2 6346   5.857   3.589   3.691 -0.0934 -0.8177 -2.8628
 1645SOL    HW3 6347   5.710   3.553   3.702 -0.1485  0.0750  0.2187
 1645SOL    MW4 6348   5.794   3.530   3.703  0.1848  0.1632 -0.6193
 1646SOL     OW 6349   3.754   6.010   6.232  0.2998 -0.4644 -0.1218
 1646SOL    HW2 6350   3.786   6.025   6.143 -3.2410 -0.4418 -1.5454
 1646SOL    HW3 6351   3.742   6.098   6.268 -0.8657 -0.3751 -0.6951
 1646SOL    MW4 6352   3.757   6.024   6.225 -0.3517  0.4846  0.2242
 1647SOL     OW 6353   1.601   6.346   2.093 -0.1201 -0.1322  0.2839
 1647SOL    HW2 6354   1.670   6.382   2.037  0.2335  2.2030  2.1043
 1647SOL    HW3 6355   1.535   6.314   2.031  1.7155 -0.7674 -1.4774
 1647SOL    MW4 6356   1.601   6.346   2.077 -0.0009 -0.5812 -0.4189
 1648SOL     OW 6357   3.755   1.172   6.371  0.0413  0.4740  0.8090
 1648SOL    HW2 6358   3.814   1.248   6.366 -0.1545  0.5492 -0.9928
 1648SOL    HW3 6359   3.676   1.200   6.326 -0.3031 -0.5600  0.7402
 1648SOL    MW4 6360   3.753   1.186   6.364 -0.2694 -0.0094  0.2783
 1649SOL     OW 6361   3.567   3.279   3.789 -0.1727 -0.8388  0.3219
 1649SOL    HW2 6362   3.477   3.274   3.758  0.4232 -4.3227 -1.3442
 1649SOL    HW3 6363   3.583   3.194   3.830  2.5902 -0.6667 -0.1976
 1649SOL    MW4 6364   3.557   3.267   3.790  0.2169  0.2662  0.3031
 1650SOL     OW 6365   0.328   3.637   5.508 -0.2215  0.2051  0.3705
 1650SOL    HW2 6366   0.289   3.722   5.487  0.9163 -0.0365 -3.4026
 1650SOL    HW3 6367   0.253   3.577   5.514 -0.8659  1.0162  0.6351
 1650SOL    MW4 6368   0.313   3.640   5.506  0.0093 -0.0091  0.6923
 1651SOL     OW 6369   5.118   3.397   0.466 -0.2279  0.4802 -0.0610
 1651SOL    HW2 6370   5.161   3.482   0.480 -0.0610  0.2458  0.9602
 1651SOL    HW3 6371   5.034   3.406   0.511  0.2990 -0.2885  1.1313
 1651SOL    MW4 6372   5.113   3.410   0.474 -0.3978 -0.5654 -0.4016
 1652SOL     OW 6373   3.753   4.284   4.026 -0.6287 -0.2316 -0.1050
 1652SOL    HW2 6374   3.686   4.240   4.077  0.9121 -1.9316  0.5946
 1652SOL    HW3 6375   3.807   4.329   4.091 -0.6106  0.4334 -0.5718
 1652SOL    MW4 6376   3.752   4.284   4.042 -0.1978  0.0686  0.1167
 1653SOL     OW 6377   4.026   0.956   3.549  0.5647 -0.0510 -0.3307
 1653SOL    HW2 6378   3.965   0.967   3.623  0.4669 -0.0797 -0.4076
 1653SOL    HW3 6379   3.991   1.014   3.481 -0.0345 -0.9323 -0.7963
 1653SOL    MW4 6380   4.014   0.965   3.550  0.2637 -0.1052 -0.1132
 1654SOL     OW 6381   3.940   0.870   5.966  0.3968 -0.0637 -0.0222
 1654SOL    HW2 6382   3.847   0.876   5.945  0.7743  0.7008 -1.6375
 1654SOL    HW3 6383   3.961   0.777   5.959 -0.2127 -0.2271  0.2746
 1654SOL    MW4 6384   3.931   0.859   5.963  0.1798 -0.4531 -0.5656
 1655SOL     OW 6385   1.220   0.835   1.342 -0.2616  0.1413 -0.7312
 1655SOL    HW2 6386   1.155   0.825   1.412 -0.1529  2.0220 -0.3079
 1655SOL    HW3 6387   1.168   0.847   1.262 -0.3857 -2.0244 -1.0178
 1655SOL    MW4 6388   1.205   0.836   1.341 -0.4727  0.1145 -0.3898
 1656SOL     OW 6389   4.897   1.981   0.241 -0.8030 -0.0017 -0.2378
 1656SOL    HW2 6390   4.898   1.961   0.335  2.1111  2.1766  0.3286
 1656SOL    HW3 6391   4.946   2.062   0.233 -2.6143  0.9669 -3.5052
 1656SOL    MW4 6392   4.904   1.989   0.252  0.2161  0.0357  0.3138
 1657SOL     OW 6393   4.681   1.152   5.162 -0.5210 -0.2604  0.3584
 1657SOL    HW2 6394   4.751   1.125   5.221 -1.4691 -2.0433  0.7564
 1657SOL    HW3 6395   4.631   1.217   5.210  0.0164 -0.0471  0.6308
 1657SOL    MW4 6396   4.684   1.157   5.176  0.0353 -0.3463  0.4596
 1658SOL     OW 6397   6.177   1.165   3.136 -0.6618 -0.0841 -0.2809
 1658SOL    HW2 6398   6.241   1.189   3.070  0.1178 -0.7458  0.2117
 1658SOL    HW3 6399   6.122   1.099   3.094  1.1919 -2.1719  0.3431
 1658SOL    MW4 6400   6.178   1.159   3.122  0.4471  0.5373 -0.0586
 1659SOL     OW 6401   2.844   5.378   0.972 -0.7027 -0.2483  0.4174
 1659SOL    HW2 6402   2.866   5.447   0.909  1.2387 -0.7014  0.5480
 1659SOL    HW3 6403   2.755   5.399   0.999 -0.5647  1.5913 -0.3599
 1659SOL    MW4 6404   2.835   5.390   0.967  0.6890 -0.2698 -0.6304
 1660SOL     OW 6405   4.605   0.518   0.403 -0.0423 -0.2446  0.1819
 1660SOL    HW2 6406   4.530   0.535   0.346 -0.7647 -0.0957  1.1623
 1660SOL    HW3 6407   4.583   0.436   0.448 -0.8776  1.1502  2.4703
 1660SOL    MW4 6408   4.593   0.509   0.401  0.4040 -0.7596  0.1302
 1661SOL     OW 6409   5.584   2.118   2.359 -0.5116  0.6037  0.3336
 1661SOL    HW2 6410   5.621   2.030   2.348 -0.1972  0.7514  0.1953
 1661SOL    HW3 6411   5.577   2.130   2.454  1.8096  1.3964  0.4560
 1661SOL    MW4 6412   5.588   2.108   2.370  0.1069  0.0924 -0.7703
 1662SOL     OW 6413   3.072   0.995   3.052 -0.2153  0.3480  0.3453
 1662SOL    HW2 6414   3.029   1.022   2.971  1.1195  1.7880  0.0613
 1662SOL    HW3 6415   3.163   0.981   3.028 -0.2575 -1.6232  1.1397
 1662SOL    MW4 6416   3.078   0.997   3.039  0.3297  0.7462  0.1183
 1663SOL     OW 6417   2.060   2.006   0.835 -0.3456  0.0987 -0.1551
 1663SOL    HW2 6418   2.113   1.926   0.830 -0.3757 -0.1411  2.1531
 1663SOL    HW3 6419   1.982   1.987   0.784  0.4336 -0.6782 -1.0858
 1663SOL    MW4 6420   2.057   1.993   0.828  0.3731  0.0523  0.2174
 1664SOL     OW 6421   0.997   5.369   6.120  0.0389  0.0549  0.2593
 1664SOL    HW2 6422   0.965   5.281   6.098  1.2574  0.1720 -2.4765
 1664SOL    HW3 6423   0.917   5.423   6.125 -0.5629 -0.4513 -2.3015
 1664SOL    MW4 6424   0.982   5.365   6.117  0.0079  0.0788 -0.0306
 1665SOL     OW 6425   4.662   2.646   2.523  0.3936  0.5770  0.2724
 1665SOL    HW2 6426   4.708   2.692   2.452 -0.9224  1.0166 -0.3417
 1665SOL    HW3 6427   4.655   2.556   2.493  1.0544  0.4549  0.4777
 1665SOL    MW4 6428   4.667   2.640   2.509 -0.1035  0.2979 -0.7421
 1666SOL     OW 6429   1.434   2.442   2.135  0.2175  0.4737 -0.6545
 1666SOL    HW2 6430   1.350   2.437   2.090  0.1615  0.2326 -0.5268
 1666SOL    HW3 6431   1.442   2.358   2.179  1.0554  0.0398 -1.5954
 1666SOL    MW4 6432   1.424   2.430   2.135 -0.0300  0.1267 -0.7429
 1667SOL     OW 6433   3.169   4.068   5.132 -0.0600 -0.0045  0.4843
 1667SOL    HW2 6434   3.090   4.119   5.112  0.4387  0.5862 -0.0155
 1667SOL    HW3 6435   3.240   4.118   5.093  0.6684 -0.0806  1.6984
 1667SOL    MW4 6436   3.168   4.081   5.124  0.6166 -0.1308  0.0487
 1668SOL     OW 6437   2.868   1.697   4.309 -0.1496 -0.0579  0.0425
 1668SOL    HW2 6438   2.950   1.746   4.303  1.1021 -1.9681  0.4814
 1668SOL    HW3 6439   2.882   1.620   4.253 -1.2118 -0.9698  0.9766
 1668SOL    MW4 6440   2.881   1.693   4.301 -0.1035 -0.1561 -0.1291
 1669SOL     OW 6441   5.991   1.895   5.013 -0.2387 -0.1651 -0.6998
 1669SOL    HW2 6442   5.964   1.817   4.963 -0.3575  0.1967 -1.2081
 1669SOL    HW3 6443   6.074   1.921   4.974  0.0848 -0.3567 -0.1583
 1669SOL    MW4 6444   5.998   1.888   5.001 -0.0527 -0.1178 -0.5620
 1670SOL     OW 6445   5.424   3.777   3.507  0.0891 -0.0480 -0.1736
 1670SOL    HW2 6446   5.343   3.756   3.555  0.7282 -0.7652  0.6268
 1670SOL    HW3 6447   5.401   3.851   3.452 -1.4452 -0.9550 -0.8208
 1670SOL    MW4 6448   5.410   3.784   3.506  0.0438  0.2142 -0.2196
 1671SOL     OW 6449   6.376   3.221   3.307  0.1049 -0.5938 -0.3887
 1671SOL    HW2 6450   6.371   3.200   3.400  0.2662  0.9449  0.0003
 1671SOL    HW3 6451   6.397   3.138   3.264 -2.3687 -1.8615  0.6628
 1671SOL    MW4 6452   6.378   3.207   3.313  0.1458  0.3264  0.4096
 1672SOL     OW 6453   2.638   5.713   2.000 -0.2674  0.3011  0.5607
 1672SOL    HW2 6454   2.655   5.790   2.055 -1.4071  1.0640 -0.1269
 1672SOL    HW3 6455   2.581   5.745   1.930 -1.8853 -1.4424  1.0045
 1672SOL    MW4 6456   2.633   5.727   1.998  0.2194 -0.1232  0.5374
 1673SOL     OW 6457   5.362   5.294   3.507  0.4865 -0.1921  0.0478
 1673SOL    HW2 6458   5.416   5.307   3.585  0.9971  0.9851 -0.4810
 1673SOL    HW3 6459   5.414   5.328   3.435 -0.5345  0.0093 -0.6242
 1673SOL    MW4 6460   5.376   5.300   3.508 -0.0146  0.4573  0.7899
 1674SOL     OW 6461   1.125   2.291   6.349 -0.0990  0.2805 -0.2440
 1674SOL    HW2 6462   1.061   2.311   6.281 -0.3426  0.8939  0.1513
 1674SOL    HW3 6463   1.142   2.375   6.391  2.0078  0.3816 -1.2219
 1674SOL    MW4 6464   1.118   2.305   6.346 -0.2891  0.1077  0.0814
 1675SOL     OW 6465   2.187   6.055   4.975  0.6617  0.0392 -0.1168
 1675SOL    HW2 6466   2.142   6.053   5.060  0.7484 -0.1063 -0.0738
 1675SOL    HW3 6467   2.227   6.142   4.970  2.4657 -0.6845  0.9263
 1675SOL    MW4 6468   2.186   6.066   4.986 -0.0981  0.2830  0.9557
 1676SOL     OW 6469   5.872   0.512   4.316  0.2873 -0.5411 -0.1539
 1676SOL    HW2 6470   5.778   0.512   4.332  0.1243 -1.6463 -0.9761
 1676SOL    HW3 6471   5.893   0.420   4.296  1.3366 -0.1140 -1.1147
 1676SOL    MW4 6472   5.862   0.500   4.315  0.6560 -0.0529 -0.4915
 1677SOL     OW 6473   0.023   0.841   0.341  0.6228  0.7505 -0.0020
 1677SOL    HW2 6474   0.031   0.931   0.372 -1.6257  0.4345  1.8367
 1677SOL    HW3 6475  -0.030   0.797   0.408 -3.7650 -0.3558 -3.6356
 1677SOL    MW4 6476   0.017   0.847   0.354  0.0134 -0.1722  0.1275
 1678SOL     OW 6477   3.429   2.147   3.058  0.2182 -0.3335  0.2976
 1678SOL    HW2 6478   3.457   2.238   3.050 -1.2432  0.0421 -1.0640
 1678SOL    HW3 6479   3.372   2.133   2.983  0.4477 -2.4043  0.4491
 1678SOL    MW4 6480   3.426   2.157   3.047 -0.2189  0.5465  0.0620
 1679SOL     OW 6481   4.640   2.817   0.290 -0.5076  0.0576 -0.2944
 1679SOL    HW2 6482   4.595   2.889   0.245 -0.9110 -0.6336 -1.0144
 1679SOL    HW3 6483   4.575   2.746   0.292  0.5311 -0.9461 -1.3024
 1679SOL    MW4 6484   4.625   2.817   0.285 -0.3346 -0.1948  0.1488
 1680SOL     OW 6485   5.407   3.498   1.816 -0.1883 -0.1841 -0.2832
 1680SOL    HW2 6486   5.320   3.487   1.855 -0.0961 -0.3278 -0.1152
 1680SOL    HW3 6487   5.407   3.588   1.783  0.1756  0.3728  1.1647
 1680SOL    MW4 6488   5.395   3.508   1.816 -0.0254  0.1215  0.2929
 1681SOL     OW 6489   0.109   3.730   5.044 -0.3335 -0.7244 -0.1486
 1681SOL    HW2 6490   0.086   3.805   5.099  1.0445 -0.7751  0.5307
 1681SOL    HW3 6491   0.112   3.656   5.104  0.9336 -0.8296 -0.3287
 1681SOL    MW4 6492   0.106   3.730   5.059 -0.1005  0.0918  0.2043
 1682SOL     OW 6493   3.370   5.811   0.462 -0.3876  0.0148 -0.0795
 1682SOL    HW2 6494   3.308   5.739   0.463  0.8954 -1.3577 -3.6555
 1682SOL    HW3 6495   3.437   5.787   0.526 -1.1235 -0.7958  0.4018
 1682SOL    MW4 6496   3.370   5.799   0.471 -0.4175 -0.5285  0.0317
 1683SOL     OW 6497   4.327   0.029   6.376 -0.0058  0.3111 -0.0913
 1683SOL    HW2 6498   4.240   0.041   6.414  0.9130  1.2622  1.8771
 1683SOL    HW3 6499   4.334   0.095   6.308 -0.8435  0.1625 -0.3224
 1683SOL    MW4 6500   4.317   0.039   6.372 -0.1971  0.0139  0.4339
 1684SOL     OW 6501   0.506   2.602   3.657  0.7165  0.0975  0.0504
 1684SOL    HW2 6502   0.552   2.683   3.633  0.8630 -0.7894 -3.0743
 1684SOL    HW3 6503   0.514   2.546   3.580 -3.6459 -1.0089  0.1469
 1684SOL    MW4 6504   0.513   2.606   3.644  0.3024 -0.1330 -0.0174
 1685SOL     OW 6505   3.733   0.536   3.984  0.4914  0.3673 -0.2730
 1685SOL    HW2 6506   3.795   0.529   4.057 -0.8095  3.2417  1.3231
 1685SOL    HW3 6507   3.779   0.588   3.918  1.0475 -0.7048 -0.7439
 1685SOL    MW4 6508   3.747   0.542   3.985 -0.6572 -0.0546 -0.1826
 1686SOL     OW 6509   0.210   6.359   5.117  0.2821 -0.0086 -0.3963
 1686SOL    HW2 6510   0.292   6.326   5.154  0.4423 -0.1521 -0.8770
 1686SOL    HW3 6511   0.143   6.299   5.148 -0.0213  1.4194  1.9754
 1686SOL    MW4 6512   0.212   6.347   5.126  0.3002 -0.4910  0.4334
 1687SOL     OW 6513   1.645   2.135   0.655 -0.0755 -0.7275  0.4034
 1687SOL    HW2 6514   1.630   2.157   0.747  1.8740  0.5066  0.4744
 1687SOL    HW3 6515   1.728   2.088   0.654  0.7105  0.6119 -0.8733
 1687SOL    MW4 6516   1.654   2.132   0.667 -0.5202 -0.3974 -0.2780
 1688SOL     OW 6517   0.415   0.242   4.398 -0.6639  0.2083  0.5366
 1688SOL    HW2 6518   0.417   0.326   4.352  0.7243  0.2427  0.6230
 1688SOL    HW3 6519   0.475   0.254   4.471  0.4882 -1.2209 -0.1268
 1688SOL    MW4 6520   0.423   0.255   4.401  0.9651 -0.6954  0.4694
 1689SOL     OW 6521   4.189   0.418   0.043 -0.3253 -0.1264 -0.5359
 1689SOL    HW2 6522   4.182   0.383  -0.046 -0.1471 -0.9817 -0.2238
 1689SOL    HW3 6523   4.131   0.493   0.043 -0.1435  0.0355 -1.4468
 1689SOL    MW4 6524   4.181   0.423   0.031 -0.1276  0.0669  0.3706
 1690SOL     OW 6525   5.614   1.708   3.385  0.1055  0.1098  0.0212
 1690SOL    HW2 6526   5.535   1.685   3.433 -2.0596 -0.1779 -3.3279
 1690SOL    HW3 6527   5.646   1.624   3.351  1.9806  0.2118  1.3832
 1690SOL    MW4 6528   5.608   1.694   3.387 -0.2054 -0.0178 -0.3632
 1691SOL     OW 6529   0.580   3.323   2.870  0.5401  0.5321  0.5788
 1691SOL    HW2 6530   0.584   3.371   2.787 -1.0026  0.3564  0.3737
 1691SOL    HW3 6531   0.498   3.273   2.864  1.8831 -1.8352  0.9404
 1691SOL    MW4 6532   0.569   3.323   2.858  0.0273  0.1303  0.9636
 1692SOL     OW 6533   2.309   0.322   3.750 -0.0966  0.2534  0.0588
 1692SOL    HW2 6534   2.268   0.346   3.667  0.1748  0.9873  0.1324
 1692SOL    HW3 6535   2.403   0.334   3.735  0.1110 -1.3985 -0.1019
 1692SOL    MW4 6536   2.316   0.327   3.737 -0.0655 -0.1079 -0.4884
 1693SOL     OW 6537   4.550   2.760   6.344  0.1435  0.2459  0.5753
 1693SOL    HW2 6538   4.503   2.838   6.375  0.9125  1.1558 -0.4688
 1693SOL    HW3 6539   4.591   2.788   6.262  0.7721 -1.1486  0.3927
 1693SOL    MW4 6540   4.549   2.774   6.338 -0.5109 -0.0666 -0.1301
 1694SOL     OW 6541   0.579   3.161   6.132 -0.4408 -0.6039  0.2656
 1694SOL    HW2 6542   0.660   3.173   6.081 -0.0857  0.1622  0.9817
 1694SOL    HW3 6543   0.549   3.250   6.150 -0.3958 -0.8433  1.6386
 1694SOL    MW4 6544   0.586   3.175   6.127  0.0241 -0.4117  0.0540
 1695SOL     OW 6545   4.693   4.948   5.203 -0.0777 -0.1508  0.2646
 1695SOL    HW2 6546   4.732   4.916   5.121  0.2466  1.1765 -0.1419
 1695SOL    HW3 6547   4.621   5.005   5.174  0.6793  1.1459  0.8312
 1695SOL    MW4 6548   4.689   4.952   5.188 -0.2443 -0.5813 -0.0491
 1696SOL     OW 6549   4.330   5.517   2.854 -0.1052 -0.2641  0.2829
 1696SOL    HW2 6550   4.326   5.423   2.836 -1.1712 -0.2319  0.3218
 1696SOL    HW3 6551   4.261   5.532   2.918  0.5021  0.4379  0.7779
 1696SOL    MW4 6552   4.321   5.507   2.860  0.3941 -0.4499 -0.0877
 1697SOL     OW 6553   5.197   1.057   1.741  0.2299  0.4632 -0.0515
 1697SOL    HW2 6554   5.286   1.084   1.720 -0.1508  1.2446 -0.6918
 1697SOL    HW3 6555   5.162   1.129   1.794 -0.3497  0.6228 -0.6458
 1697SOL    MW4 6556   5.204   1.070   1.745 -0.3828 -0.1770  0.3824
 1698SOL     OW 6557   3.437   0.866   3.272 -0.7997 -0.2991  0.4035
 1698SOL    HW2 6558   3.495   0.830   3.204  0.5565  1.2713  0.6677
 1698SOL    HW3 6559   3.355   0.818   3.261 -0.2076 -0.9757 -1.5241
 1698SOL    MW4 6560   3.434   0.855   3.262  0.1627 -0.1186 -0.5116
 1699SOL     OW 6561   0.631   0.570   2.501 -0.1469 -0.0457  0.7950
 1699SOL    HW2 6562   0.567   0.506   2.533  1.1248 -1.9053 -0.1751
 1699SOL    HW3 6563   0.687   0.586   2.577 -0.1422 -0.5472  0.9051
 1699SOL    MW4 6564   0.630   0.564   2.516 -0.4617  0.0138 -0.2071
 1700SOL     OW 6565   3.786   6.177   4.205  0.2754  0.2211 -0.7302
 1700SOL    HW2 6566   3.794   6.153   4.297  1.2900 -0.1280 -0.8895
 1700SOL    HW3 6567   3.804   6.095   4.158 -0.0290  0.4414 -1.2380
 1700SOL    MW4 6568   3.789   6.163   4.211  0.7327 -0.3921  0.3370
 1701SOL     OW 6569   4.883   5.902   4.528 -0.3370 -0.4641 -0.6903
 1701SOL    HW2 6570   4.927   5.842   4.588  1.2166 -1.0986 -2.3886
 1701SOL    HW3 6571   4.881   5.985   4.576  2.4235 -0.4995 -0.3425
 1701SOL    MW4 6572   4.888   5.905   4.542 -0.0001  0.7337 -0.1874
 1702SOL     OW 6573   5.020   4.203   4.132 -0.1504 -0.1317  0.3253
 1702SOL    HW2 6574   5.044   4.273   4.071  2.3863 -0.8653  0.3428
 1702SOL    HW3 6575   4.985   4.133   4.076 -0.8597  0.3954  0.0983
 1702SOL    MW4 6576   5.019   4.203   4.116  0.5244 -0.1571  0.2899
 1703SOL     OW 6577   0.481   2.279   4.592 -0.1691 -0.0748 -0.1558
 1703SOL    HW2 6578   0.577   2.277   4.587 -0.1800 -1.7259 -0.1681
 1703SOL    HW3 6579   0.461   2.246   4.680 -0.7311  0.4975 -0.0604
 1703SOL    MW4 6580   0.491   2.274   4.603  0.2109 -0.4324  0.0640
 1704SOL     OW 6581   6.279   3.298   2.374 -0.3123  0.1428  0.5841
 1704SOL    HW2 6582   6.260   3.297   2.280  0.3840 -0.2461  0.4414
 1704SOL    HW3 6583   6.251   3.212   2.405 -1.9006  0.7865  1.0268
 1704SOL    MW4 6584   6.273   3.287   2.365 -0.0675  1.0615  0.0457
 1705SOL     OW 6585   1.253   6.301   0.202 -0.2777 -0.7845  0.1994
 1705SOL    HW2 6586   1.343   6.278   0.225  0.6375  1.5384 -0.7102
 1705SOL    HW3 6587   1.208   6.309   0.286  0.3550 -1.9564  0.6678
 1705SOL    MW4 6588   1.259   6.299   0.216 -0.1250  0.5599  0.2957
 1706SOL     OW 6589   6.342   2.457   4.033  0.3497  0.0566  0.6181
 1706SOL    HW2 6590   6.284   2.393   3.992  0.5789 -0.6843  1.4056
 1706SOL    HW3 6591   6.309   2.542   4.005  0.8698 -0.4036 -1.6059
 1706SOL    MW4 6592   6.330   2.460   4.024 -0.3066 -1.0819  0.3632
 1707SOL     OW 6593   5.641   6.170   0.791  0.3045 -0.5182  0.8343
 1707SOL    HW2 6594   5.718   6.115   0.801  0.4562 -0.6769 -0.8914
 1707SOL    HW3 6595   5.606   6.148   0.705 -2.2626 -1.1467  1.9392
 1707SOL    MW4 6596   5.647   6.160   0.781  0.3147  0.2676 -0.0882
 1708SOL     OW 6597   5.398   3.923   1.981 -0.2826  0.2304  0.5860
 1708SOL    HW2 6598   5.305   3.903   1.966 -0.0008 -0.4862 -0.2419
 1708SOL    HW3 6599   5.405   4.017   1.963 -0.6724  0.1065 -0.2622
 1708SOL    MW4 6600   5.387   3.933   1.977 -0.1688 -0.6965  0.5392
 1709SOL     OW 6601   2.919   2.866   4.551  0.8415 -0.2567  0.4415
 1709SOL    HW2 6602   2.853   2.796   4.550  2.0423 -1.4133  0.1243
 1709SOL    HW3 6603   2.924   2.896   4.461 -0.7057  1.3052  0.8037
 1709SOL    MW4 6604   2.911   2.860   4.539 -0.1315 -0.2460 -0.4480
 1710SOL     OW 6605   2.133   1.802   3.059  0.2454  0.0943  0.3437
 1710SOL    HW2 6606   2.098   1.747   2.989 -0.6371  1.0410 -0.0021
 1710SOL    HW3 6607   2.181   1.871   3.013 -0.2206  0.6408  0.6675
 1710SOL    MW4 6608   2.135   1.804   3.044 -0.0172 -0.1420  0.5965
 1711SOL     OW 6609   5.437   1.811   1.079  0.3263  0.1577  0.2742
 1711SOL    HW2 6610   5.451   1.895   1.125 -1.1813  0.0401  1.0242
 1711SOL    HW3 6611   5.489   1.819   0.999  1.5309  1.1428  1.0964
 1711SOL    MW4 6612   5.446   1.823   1.075  0.5683 -0.4724  0.7175
 1712SOL     OW 6613   5.907   1.782   5.635 -0.3626  0.2636  0.5849
 1712SOL    HW2 6614   5.866   1.785   5.549 -2.2091 -1.6270  1.2971
 1712SOL    HW3 6615   5.901   1.872   5.668  0.3601  1.0087 -1.2082
 1712SOL    MW4 6616   5.900   1.794   5.628 -0.6520  0.2897 -0.0400
 1713SOL     OW 6617   2.972   0.730   0.908 -0.2989  0.1363  0.1494
 1713SOL    HW2 6618   3.051   0.737   0.961 -1.0396  1.5469  1.1636
 1713SOL    HW3 6619   2.904   0.703   0.970 -0.9182  0.5290 -0.3413
 1713SOL    MW4 6620   2.973   0.728   0.923 -0.3225  0.5924 -0.1942
 1714SOL     OW 6621   5.654   2.300   3.940 -0.0879 -0.1591 -0.1481
 1714SOL    HW2 6622   5.647   2.335   3.851 -0.9405 -1.7720 -0.7546
 1714SOL    HW3 6623   5.745   2.319   3.965 -0.0949  1.1381 -0.9786
 1714SOL    MW4 6624   5.665   2.307   3.932  0.3012  0.7400 -0.2101
 1715SOL     OW 6625   1.277   1.929   0.502 -0.2609 -0.2269  0.1624
 1715SOL    HW2 6626   1.342   1.919   0.572 -0.0074 -0.3459 -0.0879
 1715SOL    HW3 6627   1.236   2.014   0.520 -1.1003 -0.8207  1.1994
 1715SOL    MW4 6628   1.280   1.939   0.514 -0.1145 -0.5732 -0.8890
 1716SOL     OW 6629   1.780   2.359   0.461 -0.9096  0.5151  0.4381
 1716SOL    HW2 6630   1.690   2.329   0.476 -1.9234  0.9939 -3.5022
 1716SOL    HW3 6631   1.828   2.279   0.439 -0.9323  0.4916  0.4730
 1716SOL    MW4 6632   1.774   2.344   0.460 -0.3244 -0.5287  0.2766
 1717SOL     OW 6633   4.218   2.854   4.608 -0.2598 -0.1014  0.3065
 1717SOL    HW2 6634   4.237   2.879   4.517  0.0407 -0.3548  0.2983
 1717SOL    HW3 6635   4.199   2.936   4.652 -1.0718 -0.0368 -0.1427
 1717SOL    MW4 6636   4.218   2.868   4.602  0.2196  0.2182  0.3376
 1718SOL     OW 6637   6.253   6.054   4.158  0.6438 -0.4033 -0.4378
 1718SOL    HW2 6638   6.297   6.009   4.230 -0.4506  1.6119  1.6186
 1718SOL    HW3 6639   6.307   6.131   4.141 -0.0210  0.0524 -0.5441
 1718SOL    MW4 6640   6.266   6.058   4.166 -0.4061 -0.2167  0.2604
 1719SOL     OW 6641   5.584   5.794   0.679  0.0961 -0.2737  0.5325
 1719SOL    HW2 6642   5.555   5.791   0.588 -0.5613 -0.5452  0.7492
 1719SOL    HW3 6643   5.628   5.879   0.687  1.0152 -0.6498 -0.2863
 1719SOL    MW4 6644   5.586   5.805   0.668  0.5467 -0.1841 -0.0995
 1720SOL     OW 6645   0.940   2.527   4.032  0.9525  0.0695 -0.0606
 1720SOL    HW2 6646   0.918   2.615   4.062 -0.8729 -0.5543  0.5431
 1720SOL    HW3 6647   0.975   2.482   4.109 -0.0943 -0.3509  0.1867
 1720SOL    MW4 6648   0.942   2.532   4.046 -0.4425 -0.1609 -0.7435
 1721SOL     OW 6649   0.422   5.579   3.607 -0.5035  0.3908 -0.7037
 1721SOL    HW2 6650   0.505   5.605   3.568  1.3541 -1.4149  1.7174
 1721SOL    HW3 6651   0.404   5.493   3.569  2.1352 -2.1409  2.9865
 1721SOL    MW4 6652   0.430   5.571   3.597 -0.1193 -0.0964  0.2620
 1722SOL     OW 6653   5.073   1.307   4.286 -0.0125 -0.3065 -0.0008
 1722SOL    HW2 6654   5.099   1.215   4.294  0.7993 -0.2920 -1.8866
 1722SOL    HW3 6655   5.144   1.356   4.326  1.1069 -0.4276 -1.7163
 1722SOL    MW4 6656   5.086   1.301   4.292 -0.4977  0.1703  0.0057
 1723SOL     OW 6657   3.489   3.493   0.655 -0.0464 -0.5968  0.1330
 1723SOL    HW2 6658   3.499   3.464   0.564  2.9196 -0.7742  0.3972
 1723SOL    HW3 6659   3.463   3.584   0.649  1.5659 -0.1550 -1.0022
 1723SOL    MW4 6660   3.487   3.501   0.642 -0.4778 -0.0164 -0.3868
 1724SOL     OW 6661   1.807   0.890   6.121  0.2100 -0.4498 -0.2780
 1724SOL    HW2 6662   1.771   0.819   6.174 -0.0372 -0.0437  0.1027
 1724SOL    HW3 6663   1.899   0.893   6.145  0.2405 -0.6887 -0.3552
 1724SOL    MW4 6664   1.814   0.881   6.131  0.3137 -0.4892 -0.0637
 1725SOL     OW 6665   3.709   3.854   2.253 -0.0494 -0.2826 -0.8588
 1725SOL    HW2 6666   3.686   3.766   2.283 -2.0985  0.5585  0.1446
 1725SOL    HW3 6667   3.627   3.902   2.252  1.2539  2.1465  0.3099
 1725SOL    MW4 6668   3.695   3.849   2.257  0.1885 -0.0731  0.1466
 1726SOL     OW 6669   2.163   4.156   6.082  0.3741 -0.4047 -0.5898
 1726SOL    HW2 6670   2.244   4.121   6.120  1.4250 -0.4397 -2.6907
 1726SOL    HW3 6671   2.147   4.237   6.130  0.4725 -1.3982  1.2370
 1726SOL    MW4 6672   2.172   4.162   6.093  0.2414 -0.3656  0.0488
 1727SOL     OW 6673   3.343   1.077   3.693  0.6887 -0.0498  0.1255
 1727SOL    HW2 6674   3.375   0.990   3.716  1.5904  0.1474 -0.3105
 1727SOL    HW3 6675   3.330   1.075   3.599 -1.2634 -0.3095  0.3583
 1727SOL    MW4 6676   3.346   1.065   3.684 -0.7772  0.6459  0.0090
 1728SOL     OW 6677   2.302   2.694   4.104 -0.4432  0.8321 -0.2409
 1728SOL    HW2 6678   2.390   2.657   4.098 -0.3958  0.7311  0.8297
 1728SOL    HW3 6679   2.248   2.637   4.049 -0.0557  0.1781  0.0384
 1728SOL    MW4 6680   2.307   2.682   4.096  0.3356 -0.1119 -0.2132
 1729SOL     OW 6681   4.848   4.080   0.826  0.2398  0.6517 -0.0408
 1729SOL    HW2 6682   4.938   4.054   0.806  0.5420  1.0163  0.7685
 1729SOL    HW3 6683   4.808   4.100   0.742 -0.0077 -2.3474 -0.7459
 1729SOL    MW4 6684   4.854   4.079   0.812 -0.3297 -0.0383 -0.2007
 1730SOL     OW 6685   3.583   5.038   1.978  0.2846 -0.3250 -0.1334
 1730SOL    HW2 6686   3.638   4.960   1.980 -0.2298 -0.7297 -1.1772
 1730SOL    HW3 6687   3.600   5.081   2.062 -0.5436 -2.3304  1.1415
 1730SOL    MW4 6688   3.592   5.033   1.989  0.2687 -0.0741 -0.5156
 1731SOL     OW 6689   1.607   3.898   2.730 -0.8502  0.0673  0.3580
 1731SOL    HW2 6690   1.694   3.859   2.728 -1.4473 -1.2866  0.0677
 1731SOL    HW3 6691   1.622   3.990   2.709  0.1878 -0.7449 -3.0535
 1731SOL    MW4 6692   1.621   3.905   2.727  0.1070 -0.1534  0.1779
 1732SOL     OW 6693   4.643   3.498   6.004  0.3712 -0.0556 -0.3622
 1732SOL    HW2 6694   4.645   3.416   6.054  1.0200  0.9409  1.3262
 1732SOL    HW3 6695   4.549   3.515   5.991  0.2335 -1.1570 -0.9221
 1732SOL    MW4 6696   4.631   3.489   6.009  0.0218  0.4026 -0.4105
 1733SOL     OW 6697   4.808   0.188   0.264  0.2365 -0.2869 -0.2346
 1733SOL    HW2 6698   4.785   0.274   0.231 -0.9061 -0.0314  1.1506
 1733SOL    HW3 6699   4.724   0.145   0.280  0.7448 -0.8898  0.9926
 1733SOL    MW4 6700   4.794   0.193   0.262  0.1117 -0.1566  0.3058
 1734SOL     OW 6701   0.926   4.240   0.314 -0.5677 -0.6189 -0.1545
 1734SOL    HW2 6702   0.984   4.177   0.356 -0.4259 -1.0178 -0.9453
 1734SOL    HW3 6703   0.980   4.282   0.247 -1.5670 -2.0221 -1.8994
 1734SOL    MW4 6704   0.941   4.238   0.311 -0.1468 -0.2801 -0.2458
 1735SOL     OW 6705   2.674   6.142   0.679  0.1273 -0.2264 -0.0207
 1735SOL    HW2 6706   2.734   6.217   0.672 -1.8384  1.3171 -1.4837
 1735SOL    HW3 6707   2.601   6.175   0.731 -1.2045 -0.8134 -1.4547
 1735SOL    MW4 6708   2.673   6.156   0.685 -0.3849  0.6234  0.0564
 1736SOL     OW 6709   0.386   5.836   3.700 -0.6810  0.3083 -0.0715
 1736SOL    HW2 6710   0.478   5.860   3.700 -0.9696  1.5265 -0.7357
 1736SOL    HW3 6711   0.385   5.741   3.683  0.4599  0.0862  1.0212
 1736SOL    MW4 6712   0.398   5.826   3.697 -0.4216 -0.0376  0.6591
 1737SOL     OW 6713   4.798   4.672   4.626  0.0233 -0.2204  0.1395
 1737SOL    HW2 6714   4.861   4.671   4.554  1.2210  1.5082  1.0736
 1737SOL    HW3 6715   4.734   4.739   4.601  1.0198  1.1451  1.0573
 1737SOL    MW4 6716   4.798   4.681   4.613 -0.8096 -0.2586  0.0640
 1738SOL     OW 6717   6.115   2.645   2.308  0.4121  0.4169  0.2069
 1738SOL    HW2 6718   6.205   2.631   2.338 -0.2219 -1.9039  1.1869
 1738SOL    HW3 6719   6.102   2.581   2.239 -0.6471  0.3637  0.4411
 1738SOL    MW4 6720   6.125   2.635   2.303 -0.0101  0.1113  0.1193
 1739SOL     OW 6721   4.989   1.632   3.865  0.0985 -0.5243  0.3362
 1739SOL    HW2 6722   5.078   1.653   3.838 -0.4071  2.8292  0.8414
 1739SOL    HW3 6723   4.935   1.652   3.788 -0.2818 -2.7972 -0.0678
 1739SOL    MW4 6724   4.993   1.637   3.851  0.5529 -0.5658  0.8619
 1740SOL     OW 6725   5.998   1.784   3.869  0.3204  0.2585 -0.7497
 1740SOL    HW2 6726   6.020   1.746   3.954 -0.0988  0.6368 -0.4650
 1740SOL    HW3 6727   5.997   1.710   3.809  2.0362  0.1716 -0.7276
 1740SOL    MW4 6728   6.001   1.770   3.872 -0.2294 -0.6761  0.0390
 1741SOL     OW 6729   3.615   0.484   1.914 -0.5222  0.1965  0.1778
 1741SOL    HW2 6730   3.675   0.555   1.893 -0.8898  0.2138 -0.8875
 1741SOL    HW3 6731   3.580   0.456   1.829 -1.0406 -0.6744  0.6568
 1741SOL    MW4 6732   3.619   0.489   1.900 -0.3941  0.4420 -0.1792
 1742SOL     OW 6733   2.677   3.106   4.366 -0.5150 -0.2541  0.1298
 1742SOL    HW2 6734   2.622   3.053   4.423 -1.4216 -0.2983 -0.7533
 1742SOL    HW3 6735   2.616   3.159   4.315  0.1500 -1.0514 -1.6230
 1742SOL    MW4 6736   2.662   3.106   4.367 -0.1336  0.2751  0.5353
 1743SOL     OW 6737   3.655   0.212   0.670 -0.1783  0.1452  0.5518
 1743SOL    HW2 6738   3.706   0.199   0.750  1.2442 -0.3202 -0.3976
 1743SOL    HW3 6739   3.623   0.302   0.676  1.7299  0.8508  0.6626
 1743SOL    MW4 6740   3.657   0.222   0.681 -0.2597 -0.2474 -0.5013
 1744SOL     OW 6741   2.129   2.263   4.026  0.2371 -0.4806  0.5975
 1744SOL    HW2 6742   2.133   2.335   3.963  1.3995  0.5738  1.8276
 1744SOL    HW3 6743   2.127   2.184   3.972  1.5181  0.3759 -0.7611
 1744SOL    MW4 6744   2.129   2.262   4.011 -0.5619  0.2264 -0.4975
 1745SOL     OW 6745   6.247   4.812   1.475 -0.1809 -0.2506 -0.2527
 1745SOL    HW2 6746   6.193   4.739   1.506  1.2593 -0.9698  0.6781
 1745SOL    HW3 6747   6.251   4.801   1.380 -0.0847 -1.3271 -0.1336
 1745SOL    MW4 6748   6.240   4.801   1.467 -0.3045 -0.0502  0.5323
 1746SOL     OW 6749   1.951   2.826   4.485 -1.0283 -0.4274 -0.5403
 1746SOL    HW2 6750   1.894   2.828   4.408 -1.5520 -0.6331 -0.1659
 1746SOL    HW3 6751   1.957   2.733   4.509 -2.1928 -0.2437  0.6101
 1746SOL    MW4 6752   1.944   2.814   4.478  0.5154  0.5375  0.1856
 1747SOL     OW 6753   0.595   5.627   5.385  0.2182 -0.2352  0.2530
 1747SOL    HW2 6754   0.643   5.554   5.424  1.4748  0.9939  1.0879
 1747SOL    HW3 6755   0.506   5.594   5.376  0.0667 -0.9625  3.2447
 1747SOL    MW4 6756   0.590   5.613   5.389  0.3609  0.5435 -0.3428
 1748SOL     OW 6757   5.266   1.006   2.022  0.0508  0.4528 -0.4964
 1748SOL    HW2 6758   5.243   0.999   1.929 -1.2348  2.8879 -0.4479
 1748SOL    HW3 6759   5.350   1.052   2.022  0.0841  0.3910 -0.4436
 1748SOL    MW4 6760   5.274   1.011   2.009  0.0060 -0.5600 -0.3412
 1749SOL     OW 6761   4.161   0.182   0.451  0.1817  0.0648 -0.0397
 1749SOL    HW2 6762   4.205   0.264   0.432  1.9700 -0.5921  1.0084
 1749SOL    HW3 6763   4.195   0.155   0.536 -2.4139 -0.4316  0.9314
 1749SOL    MW4 6764   4.172   0.189   0.459 -0.0419  0.2171  0.8359
 1750SOL     OW 6765   6.404   1.793   3.604 -0.5439  0.2916  0.2568
 1750SOL    HW2 6766   6.396   1.708   3.560 -0.9572  0.6321 -0.3305
 1750SOL    HW3 6767   6.381   1.775   3.695 -0.2192 -0.3085  0.2268
 1750SOL    MW4 6768   6.400   1.779   3.610  0.2466 -0.6279  0.1118
 1751SOL     OW 6769   4.035   2.277   2.711 -0.2282 -0.4164  0.0593
 1751SOL    HW2 6770   3.953   2.227   2.719  0.5258 -1.6700  0.3229
 1751SOL    HW3 6771   4.055   2.303   2.801 -0.2520 -0.2382  0.0139
 1751SOL    MW4 6772   4.027   2.274   2.724 -0.3057  0.0642  0.2311
 1752SOL     OW 6773   0.020   6.131   0.576 -0.6677  0.3325 -0.5479
 1752SOL    HW2 6774   0.081   6.071   0.619  0.4230  0.7930 -1.3826
 1752SOL    HW3 6775   0.042   6.124   0.483 -3.4266 -1.1759 -1.1900
 1752SOL    MW4 6776   0.031   6.122   0.569  0.3377  0.2338 -0.4067
 1753SOL     OW 6777   0.374   4.455   4.868  0.3206  0.0302 -0.8918
 1753SOL    HW2 6778   0.297   4.466   4.925  1.2081  0.5764  0.2451
 1753SOL    HW3 6779   0.419   4.539   4.873  0.6134 -0.0418 -2.1385
 1753SOL    MW4 6780   0.369   4.468   4.877 -0.0071  0.3110 -0.3641
 1754SOL     OW 6781   0.520   5.150   1.828  0.8230 -0.1310  0.6951
 1754SOL    HW2 6782   0.591   5.201   1.865 -0.5979  1.7037  1.0321
 1754SOL    HW3 6783   0.445   5.209   1.829 -0.6899 -1.9503  0.2555
 1754SOL    MW4 6784   0.519   5.164   1.833 -0.1985  0.0678 -0.2966
 1755SOL     OW 6785   3.742   3.155   1.712 -0.1640 -0.1349  0.1173
 1755SOL    HW2 6786   3.725   3.248   1.699 -1.2156 -0.5045 -1.3874
 1755SOL    HW3 6787   3.796   3.129   1.638  1.5508 -0.4204  1.3882
 1755SOL    MW4 6788   3.747   3.164   1.701 -0.0870 -0.1927  0.8550
 1756SOL     OW 6789   0.900   3.800   3.395 -0.1134  0.1002  0.8135
 1756SOL    HW2 6790   0.828   3.859   3.418 -1.5232 -0.6901 -1.2599
 1756SOL    HW3 6791   0.979   3.854   3.400 -1.1817  1.7393  0.5089
 1756SOL    MW4 6792   0.901   3.815   3.399 -0.0236 -0.0371 -0.2968
 1757SOL     OW 6793   5.430   6.096   5.225 -0.2669  0.3202 -0.0095
 1757SOL    HW2 6794   5.372   6.025   5.197 -0.5667  0.6950 -0.3333
 1757SOL    HW3 6795   5.416   6.103   5.319 -0.8141  0.4695 -0.0999
 1757SOL    MW4 6796   5.421   6.087   5.234  0.2805  0.0379 -0.3364
 1758SOL     OW 6797   2.069   0.865   1.607  0.6266  0.6326  0.1689
 1758SOL    HW2 6798   2.100   0.813   1.681  1.2487  0.6724 -0.0566
 1758SOL    HW3 6799   2.143   0.868   1.547  0.0847  0.4960 -0.5153
 1758SOL    MW4 6800   2.083   0.859   1.609  0.2252  0.0590 -0.1539
 1759SOL     OW 6801   1.256   3.624   1.260  0.0777 -0.3652 -0.1960
 1759SOL    HW2 6802   1.321   3.682   1.301 -0.1878 -1.0952  1.3258
 1759SOL    HW3 6803   1.222   3.675   1.187  2.2129  0.1202 -0.9330
 1759SOL    MW4 6804   1.260   3.638   1.256  0.1287  0.2670  0.1972
 1760SOL     OW 6805   4.892   1.319   4.083 -0.0695 -0.3487 -0.4463
 1760SOL    HW2 6806   4.962   1.333   4.146 -1.8855 -1.0569  1.9013
 1760SOL    HW3 6807   4.850   1.405   4.075  0.6203 -0.0785 -1.3454
 1760SOL    MW4 6808   4.895   1.332   4.090  0.3484  0.5105  0.2368
 1761SOL     OW 6809   1.939   1.061   0.447  0.0776 -0.1599  0.0206
 1761SOL    HW2 6810   2.031   1.036   0.455  0.1457  0.3884  1.1084
 1761SOL    HW3 6811   1.940   1.156   0.452 -0.7214 -0.2172  2.3105
 1761SOL    MW4 6812   1.951   1.070   0.449  0.2833 -0.3708  0.0060
 1762SOL     OW 6813   0.413   5.781   5.534 -0.1517 -0.9467  0.2520
 1762SOL    HW2 6814   0.334   5.766   5.481  1.0296 -0.8807 -1.6268
 1762SOL    HW3 6815   0.484   5.749   5.479  1.1017 -1.6051  2.1751
 1762SOL    MW4 6816   0.412   5.775   5.519 -0.1098 -0.0731 -0.5072
 1763SOL     OW 6817   2.430   3.609   3.596  0.4321  0.0578 -0.9250
 1763SOL    HW2 6818   2.382   3.527   3.608 -0.5656  0.5523 -1.4138
 1763SOL    HW3 6819   2.376   3.675   3.640  0.5143  0.6701 -1.7130
 1763SOL    MW4 6820   2.416   3.607   3.603 -0.1150 -0.2591  0.2690
 1764SOL     OW 6821   5.466   3.473   2.304 -0.1414 -0.6044 -0.6211
 1764SOL    HW2 6822   5.502   3.386   2.286 -1.6222 -1.2031 -0.8387
 1764SOL    HW3 6823   5.448   3.510   2.217 -0.4958 -0.5160 -0.5120
 1764SOL    MW4 6824   5.468   3.466   2.290 -0.5557  0.5848  0.3494
 1765SOL     OW 6825   0.428   3.926   0.775 -0.4243  0.1685  0.2093
 1765SOL    HW2 6826   0.453   3.940   0.684 -1.9071 -1.4356 -0.5014
 1765SOL    HW3 6827   0.510   3.935   0.824  0.1698  2.3798 -1.0742
 1765SOL    MW4 6828   0.442   3.929   0.770 -0.6447 -0.4017  0.5221
 1766SOL     OW 6829   4.723   3.955   3.397  0.1260 -0.2490 -0.0343
 1766SOL    HW2 6830   4.741   3.922   3.485 -1.1164  0.0465  0.3576
 1766SOL    HW3 6831   4.792   3.918   3.343  1.5150  0.3875  1.2322
 1766SOL    MW4 6832   4.735   3.946   3.402  0.2009  0.3683  0.1817
 1767SOL     OW 6833   1.137   0.977   0.916  0.0054 -0.0226 -0.1681
 1767SOL    HW2 6834   1.173   1.038   0.981 -1.6317  0.7667  0.0530
 1767SOL    HW3 6835   1.213   0.930   0.883  1.2610  1.6935  0.1163
 1767SOL    MW4 6836   1.152   0.979   0.920 -0.1143 -0.0289 -0.8748
 1768SOL     OW 6837   5.008   4.149   5.134 -0.0931 -0.2714 -0.3813
 1768SOL    HW2 6838   4.913   4.144   5.141 -0.1959 -0.6208 -1.7309
 1768SOL    HW3 6839   5.038   4.159   5.225 -1.5233  2.4885 -0.1120
 1768SOL    MW4 6840   4.999   4.150   5.147 -0.0316 -0.7957 -0.3169
 1769SOL     OW 6841   0.216   5.385   1.367  0.5049 -0.1226 -0.1392
 1769SOL    HW2 6842   0.217   5.338   1.451  1.2490 -0.1553 -0.1605
 1769SOL    HW3 6843   0.298   5.434   1.366 -1.0929  2.8077  0.7619
 1769SOL    MW4 6844   0.227   5.385   1.378 -0.1336  0.2844 -0.2305
 1770SOL     OW 6845   5.069   0.678   4.081  0.1454 -0.3226 -0.0238
 1770SOL    HW2 6846   5.040   0.654   3.994 -0.6922 -1.3365  0.5091
 1770SOL    HW3 6847   5.011   0.629   4.140  1.3894 -0.5088  1.0906
 1770SOL    MW4 6848   5.057   0.669   4.078 -0.1296 -1.3078  0.7991
 1771SOL     OW 6849   1.251   1.222   5.823 -0.0665  0.2732 -0.2122
 1771SOL    HW2 6850   1.195   1.191   5.894 -0.5339 -0.7294 -0.9994
 1771SOL    HW3 6851   1.208   1.302   5.792  1.4523  2.1891  2.2085
 1771SOL    MW4 6852   1.238   1.228   5.829 -0.5380  0.0654 -0.2038
 1772SOL     OW 6853   2.018  -0.012   1.280 -0.0439  0.3860 -0.0708
 1772SOL    HW2 6854   2.114  -0.004   1.279  0.0401 -0.3376  0.7917
 1772SOL    HW3 6855   2.001  -0.093   1.231 -0.4720  2.2327 -3.2419
 1772SOL    MW4 6856   2.028  -0.022   1.273  0.0010  0.4455  0.0793
 1773SOL     OW 6857   5.435   5.355   3.780 -0.1569  0.9417  0.3076
 1773SOL    HW2 6858   5.432   5.272   3.826 -0.8861  1.2984  0.9266
 1773SOL    HW3 6859   5.343   5.382   3.771  0.0424  1.4817 -0.2432
 1773SOL    MW4 6860   5.422   5.348   3.784 -0.2991 -0.3027 -0.5029
 1774SOL     OW 6861   3.640   4.695   0.946 -0.1437 -0.7432  0.1346
 1774SOL    HW2 6862   3.725   4.723   0.911 -0.6502  0.3803 -0.2282
 1774SOL    HW3 6863   3.653   4.693   1.041 -0.2705  1.4608  0.2434
 1774SOL    MW4 6864   3.653   4.698   0.954  1.3423 -0.0828  0.0137
 1775SOL     OW 6865   3.205   4.822   0.573 -0.2918 -0.0732  0.8996
 1775SOL    HW2 6866   3.243   4.909   0.581 -2.9640  1.1212  1.7852
 1775SOL    HW3 6867   3.182   4.798   0.663 -0.0307 -1.4934  0.6103
 1775SOL    MW4 6868   3.207   4.830   0.586  0.3621 -0.4084  1.1005
 1776SOL     OW 6869   4.173   0.896   2.995  0.7752  0.3925 -0.3493
 1776SOL    HW2 6870   4.212   0.961   3.054  2.4096 -2.1844  1.6352
 1776SOL    HW3 6871   4.246   0.863   2.944  0.4010 -1.3076  0.1574
 1776SOL    MW4 6872   4.187   0.900   2.996 -0.2055 -0.3504  0.7224
 1777SOL     OW 6873   1.007   5.449   4.656 -0.0612  1.0336  0.2817
 1777SOL    HW2 6874   0.981   5.419   4.569  0.6405  1.4935 -0.0970
 1777SOL    HW3 6875   1.015   5.544   4.647  1.4079  0.9533  0.4512
 1777SOL    MW4 6876   1.005   5.458   4.643 -0.4727  0.5965  0.5976
 1778SOL     OW 6877   0.609   0.061   3.874 -0.4180  0.0573 -0.1083
 1778SOL    HW2 6878   0.672   0.037   3.942 -1.6956  0.4616  1.2731
 1778SOL    HW3 6879   0.558  -0.019   3.860 -1.2191  0.4414  0.6080
 1778SOL    MW4 6880   0.611   0.047   3.881 -0.5557  0.4690 -0.1534
 1779SOL     OW 6881   2.827   0.341   5.467 -0.5999 -0.0585  0.4102
 1779SOL    HW2 6882   2.799   0.391   5.544 -0.0813  1.2107 -0.1928
 1779SOL    HW3 6883   2.840   0.407   5.399  2.3587 -0.7221  0.1997
 1779SOL    MW4 6884   2.825   0.356   5.468 -0.4311 -0.2145  0.0004
 1780SOL     OW 6885   5.780   2.886   1.685 -0.3297 -0.3225 -0.0119
 1780SOL    HW2 6886   5.690   2.863   1.707  0.0830 -2.7229 -0.5086
 1780SOL    HW3 6887   5.796   2.969   1.730 -2.3991 -0.4480  1.0520
 1780SOL    MW4 6888   5.770   2.893   1.694 -0.0861 -0.3315  0.2271
 1781SOL     OW 6889   4.471   6.369   5.843  0.1156 -0.1410 -0.4314
 1781SOL    HW2 6890   4.384   6.356   5.807  0.2694 -0.3741 -0.7236
 1781SOL    HW3 6891   4.468   6.456   5.883 -0.1153  0.0401 -0.8378
 1781SOL    MW4 6892   4.459   6.379   5.843 -0.5327 -0.0853  0.4220
 1782SOL     OW 6893   6.030   4.171   2.752  0.0268  0.4342  0.2164
 1782SOL    HW2 6894   6.106   4.192   2.805 -0.8102  0.8747  1.2864
 1782SOL    HW3 6895   5.969   4.243   2.767 -1.3005 -0.7546  0.7853
 1782SOL    MW4 6896   6.032   4.183   2.761 -0.2233 -0.3956  0.2286
 1783SOL     OW 6897   4.063   2.406   5.570  0.6489 -0.3027 -0.3294
 1783SOL    HW2 6898   4.007   2.420   5.647  0.6397 -1.0413 -0.1923
 1783SOL    HW3 6899   4.003   2.371   5.503  0.5540  0.8010 -0.8512
 1783SOL    MW4 6900   4.048   2.403   5.571  0.7106  0.7400 -0.7356
 1784SOL     OW 6901   2.234   6.169   3.278  0.1708 -0.1629  0.0542
 1784SOL    HW2 6902   2.313   6.194   3.230  0.4421 -0.5655  0.2845
 1784SOL    HW3 6903   2.223   6.236   3.345  0.5127 -0.2990  0.2439
 1784SOL    MW4 6904   2.243   6.181   3.280  0.0388  0.8293 -0.3156
 1785SOL     OW 6905   6.176   0.563   2.366 -0.0950 -0.3020  0.1119
 1785SOL    HW2 6906   6.172   0.468   2.379  0.6802 -0.3213  0.2250
 1785SOL    HW3 6907   6.195   0.574   2.273  0.4870 -0.2692  0.2346
 1785SOL    MW4 6908   6.178   0.552   2.355 -0.5299  0.3144 -0.3428
 1786SOL     OW 6909   3.087   5.898   0.639 -0.5044 -0.2166 -0.2065
 1786SOL    HW2 6910   3.093   5.809   0.602 -0.3667 -0.2836 -0.0273
 1786SOL    HW3 6911   2.994   5.920   0.634 -0.4992 -0.2556 -0.5202
 1786SOL    MW4 6912   3.076   5.889   0.633 -0.1360 -0.4389 -0.4848
 1787SOL     OW 6913   3.897   5.903   4.123  0.4340 -0.3142 -0.1782
 1787SOL    HW2 6914   3.854   5.818   4.127  0.8482 -0.4571  2.2255
 1787SOL    HW3 6915   3.932   5.917   4.211  2.1598  1.4238 -1.0687
 1787SOL    MW4 6916   3.896   5.894   4.135 -0.2903 -0.3033  0.4684
 1788SOL     OW 6917   6.407   4.056   0.453  0.1838  1.1406 -0.1422
 1788SOL    HW2 6918   6.427   4.140   0.412  0.5318  0.9633 -0.3443
 1788SOL    HW3 6919   6.401   3.994   0.380 -1.5808  1.2533 -0.1427
 1788SOL    MW4 6920   6.409   4.059   0.438  0.2470  0.0152 -0.0203
 1789SOL     OW 6921   5.261   3.804   4.267  0.0052 -0.3348 -0.3960
 1789SOL    HW2 6922   5.355   3.813   4.284  0.1402 -0.3896 -1.0965
 1789SOL    HW3 6923   5.223   3.888   4.294  0.2028 -0.4389  0.2186
 1789SOL    MW4 6924   5.268   3.816   4.273 -0.5913 -0.4803  0.6485
 1790SOL     OW 6925   2.993   5.384   3.511 -0.0368  0.2225  0.6547
 1790SOL    HW2 6926   2.940   5.304   3.513  1.1330 -0.5470  2.0883
 1790SOL    HW3 6927   2.948   5.444   3.570 -0.6958  0.4950 -0.1116
 1790SOL    MW4 6928   2.980   5.381   3.519 -0.2669 -0.1121  0.2238
 1791SOL     OW 6929   5.586   2.364   3.671 -0.2937 -0.0571  0.0896
 1791SOL    HW2 6930   5.616   2.352   3.581  0.9502 -0.7165  0.5641
 1791SOL    HW3 6931   5.491   2.377   3.664 -0.4766 -1.8039 -1.1859
 1791SOL    MW4 6932   5.577   2.364   3.658 -0.5951 -0.1616 -0.2748
 1792SOL     OW 6933   5.917   4.784   1.517  0.5208 -0.1147 -0.5313
 1792SOL    HW2 6934   5.879   4.757   1.600  0.9241 -0.1032 -0.3376
 1792SOL    HW3 6935   5.843   4.794   1.458  0.2124  0.0664 -0.1181
 1792SOL    MW4 6936   5.902   4.782   1.520 -0.1469  0.1624 -0.0053
 1793SOL     OW 6937   2.811   1.246   2.488 -0.4678 -0.1370  0.0753
 1793SOL    HW2 6938   2.837   1.184   2.421 -0.7212 -1.0151  0.7701
 1793SOL    HW3 6939   2.887   1.252   2.546 -0.0589  1.0103 -0.5540
 1793SOL    MW4 6940   2.824   1.239   2.487  0.7350 -0.0547 -0.2434
 1794SOL     OW 6941   1.671   1.418   0.630  0.6245  0.1275 -0.5693
 1794SOL    HW2 6942   1.608   1.377   0.689  0.9538 -0.9863 -0.9640
 1794SOL    HW3 6943   1.647   1.387   0.543  0.5249  1.2621 -0.9680
 1794SOL    MW4 6944   1.660   1.409   0.627  0.2738  0.7126 -0.0609
 1795SOL     OW 6945   3.171   2.097   0.989 -0.2850  0.0674 -0.0300
 1795SOL    HW2 6946   3.250   2.142   0.958 -1.0696  0.7422 -1.1085
 1795SOL    HW3 6947   3.130   2.158   1.049  0.6328 -0.7829  1.5163
 1795SOL    MW4 6948   3.176   2.111   0.993 -0.5604 -0.2703  0.4624
 1796SOL     OW 6949   4.670   1.980   0.062 -0.3903  0.0606 -0.2017
 1796SOL    HW2 6950   4.637   2.066   0.088  1.1345  1.3393 -2.1835
 1796SOL    HW3 6951   4.755   1.972   0.106 -0.7712 -0.6996  0.4137
 1796SOL    MW4 6952   4.677   1.991   0.071  0.0132  0.2986 -0.3909
 1797SOL     OW 6953   3.302   0.978   4.555 -0.9500 -0.4793 -0.0574
 1797SOL    HW2 6954   3.217   0.936   4.563 -1.1096 -0.1349  0.0435
 1797SOL    HW3 6955   3.323   1.008   4.643 -0.2737 -1.4337  0.1199
 1797SOL    MW4 6956   3.294   0.976   4.567 -0.2236  0.0367  0.1659
 1798SOL     OW 6957   6.431   1.995   1.755 -0.3409  0.1562  0.4036
 1798SOL    HW2 6958   6.524   2.012   1.770 -0.1256 -1.3259  0.9430
 1798SOL    HW3 6959   6.386   2.040   1.825 -0.0754  1.2432 -0.1052
 1798SOL    MW4 6960   6.437   2.003   1.766 -0.3890 -0.8059 -0.4535
 1799SOL     OW 6961   3.493   2.088   0.377 -0.1416 -0.2982  0.3988
 1799SOL    HW2 6962   3.444   2.063   0.299 -0.0421  0.7394 -0.0132
 1799SOL    HW3 6963   3.470   2.180   0.391  1.0443 -0.0317  0.6787
 1799SOL    MW4 6964   3.483   2.097   0.369  0.2456  0.7791 -0.0028
 1800SOL     OW 6965   1.720   2.559   0.667  0.2952  0.3493  0.0135
 1800SOL    HW2 6966   1.793   2.602   0.712  0.5685 -1.0309  0.9469
 1800SOL    HW3 6967   1.759   2.480   0.629 -0.3750  0.4444 -0.8987
 1800SOL    MW4 6968   1.735   2.554   0.668  0.0078 -0.1633  0.3711
 1801SOL     OW 6969   2.507   2.742   0.685 -0.5966 -0.3855  0.0815
 1801SOL    HW2 6970   2.492   2.837   0.689 -1.3827 -0.4927 -0.3023
 1801SOL    HW3 6971   2.467   2.708   0.765  0.0905 -0.3493  0.4507
 1801SOL    MW4 6972   2.500   2.750   0.696  0.2726  0.5004 -0.3082
 1802SOL     OW 6973   3.541   1.923   2.042 -0.3018  0.4948 -0.1927
 1802SOL    HW2 6974   3.560   2.011   2.076 -0.4229  0.1090  0.9219
 1802SOL    HW3 6975   3.446   1.916   2.045 -0.2292 -0.2028  1.1646
 1802SOL    MW4 6976   3.531   1.934   2.047 -0.8017 -0.0049  0.4239
 1803SOL     OW 6977   2.361   0.580   2.267 -0.1015 -0.2226  0.0530
 1803SOL    HW2 6978   2.334   0.524   2.194 -2.3551  1.0561 -0.1939
 1803SOL    HW3 6979   2.400   0.656   2.225 -0.6089  0.1204  0.1933
 1803SOL    MW4 6980   2.362   0.582   2.252  0.2759 -0.6771  0.1282
 1804SOL     OW 6981   4.956   4.837   5.789 -0.0229 -0.0591 -0.3195
 1804SOL    HW2 6982   4.907   4.758   5.766  1.2254 -1.4991  1.6217
 1804SOL    HW3 6983   4.968   4.831   5.884  1.3008  1.7693 -0.3198
 1804SOL    MW4 6984   4.952   4.826   5.798  0.5367 -0.3827 -0.0334
 1805SOL     OW 6985   4.937   0.851   1.991 -0.2098  0.3303  0.0525
 1805SOL    HW2 6986   4.883   0.824   2.065 -0.5080  1.0444  0.1030
 1805SOL    HW3 6987   4.971   0.769   1.955 -0.7262 -0.0771  0.4729
 1805SOL    MW4 6988   4.934   0.837   1.996 -0.2115 -0.3644 -0.2430
 1806SOL     OW 6989   0.399   5.929   2.297  0.8374 -0.2441 -0.1595
 1806SOL    HW2 6990   0.312   5.946   2.261  0.6973 -0.4217  0.0905
 1806SOL    HW3 6991   0.410   5.834   2.290  0.6318 -0.3363  0.6567
 1806SOL    MW4 6992   0.389   5.918   2.291 -0.0531 -0.1788 -0.0381
 1807SOL     OW 6993   3.475   1.408   4.959 -0.1989 -0.2917 -0.4281
 1807SOL    HW2 6994   3.564   1.397   4.991 -0.4511 -0.3993  0.2474
 1807SOL    HW3 6995   3.457   1.502   4.971  0.1150 -0.0987 -1.3573
 1807SOL    MW4 6996   3.484   1.419   4.965  0.4068 -0.2342  0.2089
 1808SOL     OW 6997   1.385   4.130   4.723 -0.1201 -0.1651 -0.6753
 1808SOL    HW2 6998   1.437   4.189   4.668  1.7553 -1.2615 -0.1972
 1808SOL    HW3 6999   1.433   4.047   4.720 -0.7923 -0.6940  1.3957
 1808SOL    MW4 7000   1.398   4.127   4.715  0.2044 -0.3110 -0.1475
 1809SOL     OW 7001   2.709   5.243   2.088 -0.2294  0.1913  0.0263
 1809SOL    HW2 7002   2.720   5.175   2.022  2.9313  0.4573  0.1031
 1809SOL    HW3 7003   2.740   5.323   2.045 -1.0255  0.9802  0.8826
 1809SOL    MW4 7004   2.715   5.245   2.074  0.4870 -0.0275  0.4240
 1810SOL     OW 7005   1.080   3.441   2.351  0.3106 -0.1609  0.1968
 1810SOL    HW2 7006   1.081   3.370   2.287 -0.5041  0.9601 -1.1385
 1810SOL    HW3 7007   1.137   3.411   2.422  2.0462 -1.0675 -1.4828
 1810SOL    MW4 7008   1.088   3.428   2.352  0.5951 -0.2318 -0.2889
 1811SOL     OW 7009   5.334   6.092   1.325 -0.1487  0.4145  0.0568
 1811SOL    HW2 7010   5.261   6.136   1.369 -0.4244 -0.3052  0.3368
 1811SOL    HW3 7011   5.292   6.033   1.262  0.2504  2.0031 -1.7783
 1811SOL    MW4 7012   5.319   6.090   1.323 -0.6224  0.1728  0.2213
 1812SOL     OW 7013   4.513   4.003   1.697  0.0129  0.5887  0.0017
 1812SOL    HW2 7014   4.460   4.058   1.755 -1.9324 -0.1538 -0.9892
 1812SOL    HW3 7015   4.539   4.060   1.626  0.6130  0.9606  0.5034
 1812SOL    MW4 7016   4.510   4.018   1.696  0.2562 -0.4860 -0.4752
 1813SOL     OW 7017   1.817   3.808   3.286  0.4678  0.4315 -0.1027
 1813SOL    HW2 7018   1.812   3.862   3.365  0.4883 -0.7445  0.7322
 1813SOL    HW3 7019   1.846   3.722   3.318 -0.7877 -0.4435 -1.2060
 1813SOL    MW4 7020   1.820   3.804   3.301  0.1923 -0.6482 -0.2086
 1814SOL     OW 7021   0.122   6.067   3.520 -0.2688  0.1399  0.6671
 1814SOL    HW2 7022   0.099   6.056   3.612 -0.1688 -0.3566  0.6363
 1814SOL    HW3 7023   0.039   6.085   3.476 -0.6347 -1.6036  0.5581
 1814SOL    MW4 7024   0.108   6.068   3.527 -0.1614 -0.2035  0.0024
 1815SOL     OW 7025   0.326   2.051   1.276 -0.1421 -0.0251  0.2697
 1815SOL    HW2 7026   0.321   1.960   1.305  1.2199  0.3163  1.7070
 1815SOL    HW3 7027   0.320   2.046   1.181 -0.6765 -1.5526  0.3554
 1815SOL    MW4 7028   0.324   2.038   1.267 -0.2078  0.5718 -0.0626
 1816SOL     OW 7029   1.888   2.161   6.176 -0.8777  0.0788  0.0098
 1816SOL    HW2 7030   1.945   2.119   6.241 -1.3862 -0.0673  0.3621
 1816SOL    HW3 7031   1.932   2.145   6.092 -0.9085 -0.9003  0.1662
 1816SOL    MW4 7032   1.902   2.153   6.173 -0.2006 -0.0940 -0.1868
 1817SOL     OW 7033   0.570   4.679   2.603  0.3381  0.1424  0.1140
 1817SOL    HW2 7034   0.658   4.665   2.640  0.0157 -0.5296  0.6366
 1817SOL    HW3 7035   0.553   4.772   2.618  1.7184  0.7305 -1.6781
 1817SOL    MW4 7036   0.580   4.690   2.610  0.2566 -0.6442  0.2029
 1818SOL     OW 7037   5.182   1.346   3.650 -0.1774 -0.8193  0.0516
 1818SOL    HW2 7038   5.256   1.370   3.705  0.4461 -2.4958  0.0207
 1818SOL    HW3 7039   5.106   1.351   3.708  0.0268  0.3151  0.2456
 1818SOL    MW4 7040   5.182   1.350   3.665  0.6603  0.6106  0.0870
 1819SOL     OW 7041   6.143   2.889   5.845 -0.1348  0.2974  0.2735
 1819SOL    HW2 7042   6.135   2.867   5.938  1.7083 -0.6986  0.2272
 1819SOL    HW3 7043   6.184   2.975   5.844  1.5092 -0.4580  0.3992
 1819SOL    MW4 7044   6.147   2.898   5.857  0.1955 -0.1288  0.2063
 1820SOL     OW 7045   5.022   3.866   2.988 -0.2478  0.2260 -0.2921
 1820SOL    HW2 7046   4.978   3.793   2.944 -0.7254  1.1293 -1.3537
 1820SOL    HW3 7047   5.115   3.843   2.983 -0.4074 -0.4242 -0.4045
 1820SOL    MW4 7048   5.029   3.853   2.982  0.5697 -0.4371 -0.0328
 1821SOL     OW 7049   5.269   3.092   0.855 -0.2391 -0.1380  0.2506
 1821SOL    HW2 7050   5.220   3.047   0.925 -0.4460  0.2674  0.3678
 1821SOL    HW3 7051   5.341   3.032   0.835 -0.1390 -0.2266  0.8595
 1821SOL    MW4 7052   5.272   3.078   0.862 -0.1586  0.2785 -0.2263
 1822SOL     OW 7053   2.565   2.642   4.014 -0.2830 -0.2636  0.3910
 1822SOL    HW2 7054   2.599   2.564   4.056 -1.1209  0.0876  1.7663
 1822SOL    HW3 7055   2.594   2.714   4.070 -0.6485  0.3065 -0.1380
 1822SOL    MW4 7056   2.574   2.642   4.027  0.5147  0.2464  0.5446
 1823SOL     OW 7057   1.936   5.279   2.341  0.3751  0.4064  0.0541
 1823SOL    HW2 7058   1.934   5.288   2.436  1.6243 -1.4365  0.2959
 1823SOL    HW3 7059   2.029   5.269   2.320  0.6276  4.4973 -1.8211
 1823SOL    MW4 7060   1.948   5.279   2.350 -0.1460 -0.3116 -1.0093
 1824SOL     OW 7061   3.824   1.087   1.744  0.1400  0.3513  0.6103
 1824SOL    HW2 7062   3.815   1.089   1.648 -1.0316 -0.1936  0.6969
 1824SOL    HW3 7063   3.745   1.131   1.776  1.2510  1.9319  1.3321
 1824SOL    MW4 7064   3.813   1.093   1.735 -0.3140 -0.4469 -0.1611
 1825SOL     OW 7065   2.900   4.507   0.500  0.1101 -0.0281 -0.0267
 1825SOL    HW2 7066   2.955   4.570   0.454  1.4400 -1.0932  0.0280
 1825SOL    HW3 7067   2.920   4.423   0.459 -0.6649 -0.6070  0.7382
 1825SOL    MW4 7068   2.910   4.504   0.489  0.1808  0.0925 -0.2208
 1826SOL     OW 7069   4.620   3.500   2.797 -0.0144  0.2502 -0.0671
 1826SOL    HW2 7070   4.558   3.505   2.870  0.7728 -1.3180  0.7519
 1826SOL    HW3 7071   4.689   3.562   2.821 -1.0583  1.7879 -0.8444
 1826SOL    MW4 7072   4.621   3.509   2.810  0.7431  0.2807 -0.4678
 1827SOL     OW 7073   5.734   1.859   1.013 -0.0522  0.2752 -0.1572
 1827SOL    HW2 7074   5.798   1.818   1.071 -0.2805  1.1024  0.7188
 1827SOL    HW3 7075   5.769   1.946   0.995 -0.3485  0.2973 -0.6546
 1827SOL    MW4 7076   5.747   1.865   1.019 -0.0610  0.2687 -0.5238
 1828SOL     OW 7077   5.309   4.727   5.727  0.1680  0.4253  0.3483
 1828SOL    HW2 7078   5.393   4.752   5.764 -0.0568  0.9986  0.4759
 1828SOL    HW3 7079   5.272   4.808   5.693 -0.4624  0.2309  0.5524
 1828SOL    MW4 7080   5.315   4.741   5.728  0.5340 -0.2577  0.9198
 1829SOL     OW 7081   2.945   6.196   4.790 -0.2386 -0.6593  0.1956
 1829SOL    HW2 7082   2.876   6.259   4.812  0.4669 -0.3023  1.5231
 1829SOL    HW3 7083   2.898   6.121   4.753 -1.2247  0.0476 -0.0468
 1829SOL    MW4 7084   2.929   6.194   4.788 -0.3679  0.1736  0.5214
 1830SOL     OW 7085   4.431   0.388   3.150 -0.7408  0.3782  0.0399
 1830SOL    HW2 7086   4.515   0.384   3.195 -0.9370  0.9624  0.4714
 1830SOL    HW3 7087   4.424   0.478   3.120 -1.6838  0.6294  0.9498
 1830SOL    MW4 7088   4.441   0.399   3.152  0.5940 -0.2759  0.0764
 1831SOL     OW 7089   0.847   0.617   2.686 -0.0514 -0.1923 -0.3005
 1831SOL    HW2 7090   0.860   0.523   2.677  1.7147  0.0176 -0.2660
 1831SOL    HW3 7091   0.911   0.656   2.628  0.4965  1.0018  1.0416
 1831SOL    MW4 7092   0.857   0.610   2.677  0.2625 -0.5718 -0.0961
 1832SOL     OW 7093   5.654   2.514   5.717  0.2175  0.7524  0.8430
 1832SOL    HW2 7094   5.675   2.577   5.648  1.8362 -0.6397  0.0014
 1832SOL    HW3 7095   5.655   2.429   5.673  0.0638 -0.0608  2.3551
 1832SOL    MW4 7096   5.657   2.511   5.702  0.1394 -0.0034 -0.6470
 1833SOL     OW 7097   4.845   4.049   1.224 -0.5808  0.2474  0.8467
 1833SOL    HW2 7098   4.893   4.098   1.156 -1.5912 -0.5381 -0.4784
 1833SOL    HW3 7099   4.828   4.114   1.292  0.7034  0.9974  0.4941
 1833SOL    MW4 7100   4.849   4.064   1.224  0.2945  0.2660 -0.0435
 1834SOL     OW 7101   1.015   3.050   3.494 -0.3170  0.2335 -0.1505
 1834SOL    HW2 7102   1.083   3.079   3.434 -0.1921 -0.6167 -0.4304
 1834SOL    HW3 7103   1.027   3.104   3.572  0.5049  0.2786 -0.3017
 1834SOL    MW4 7104   1.026   3.061   3.496  0.2341 -0.1319 -0.4552
 1835SOL     OW 7105   6.017   3.384   4.380  0.6705  0.1742  0.0726
 1835SOL    HW2 7106   6.032   3.343   4.465  1.1812  1.9793  0.8996
 1835SOL    HW3 7107   5.931   3.351   4.352  0.3298 -0.1761  1.4561
 1835SOL    MW4 7108   6.007   3.374   4.387 -0.7555  0.1337 -0.2952
 1836SOL     OW 7109   1.657   0.926   3.409  0.2960  0.2068 -0.0932
 1836SOL    HW2 7110   1.602   0.926   3.331 -0.0978 -0.8027  0.1684
 1836SOL    HW3 7111   1.653   0.836   3.441  3.3884 -0.3923 -0.9953
 1836SOL    MW4 7112   1.649   0.914   3.403  0.0627 -0.8530  0.6174
 1837SOL     OW 7113   2.554   5.705   1.026  0.0542  1.2298 -0.3375
 1837SOL    HW2 7114   2.590   5.764   0.960 -0.3171  2.3572  0.4289
 1837SOL    HW3 7115   2.631   5.674   1.075  0.2470  1.1020 -0.7185
 1837SOL    MW4 7116   2.569   5.709   1.024 -0.0585 -0.2782  0.0956
 1838SOL     OW 7117   1.945   0.552   1.014  0.0654 -0.8026 -0.0362
 1838SOL    HW2 7118   1.877   0.531   0.951 -1.0565  0.9999  0.4964
 1838SOL    HW3 7119   1.996   0.472   1.023  0.2215 -1.1395 -3.1430
 1838SOL    MW4 7120   1.943   0.539   1.007 -0.1348  0.7311  0.0766
 1839SOL     OW 7121   3.672   3.237   0.430 -0.2249 -0.0962 -0.1165
 1839SOL    HW2 7122   3.704   3.178   0.362 -2.0536 -1.6143  0.2591
 1839SOL    HW3 7123   3.725   3.316   0.420 -0.6532 -0.0922 -3.5452
 1839SOL    MW4 7124   3.684   3.239   0.420  0.0818 -0.3031  0.0475
 1840SOL     OW 7125   4.367   3.878   2.032 -0.4273  0.2104 -1.2924
 1840SOL    HW2 7126   4.377   3.968   2.002 -0.2749  0.3475 -0.8474
 1840SOL    HW3 7127   4.311   3.836   1.967 -0.8632  0.7491 -1.2653
 1840SOL    MW4 7128   4.361   3.884   2.019 -0.1284 -0.7530  0.3129
 1841SOL     OW 7129   2.900   0.020   5.400 -0.0538 -0.1840  0.2854
 1841SOL    HW2 7130   2.979   0.004   5.349 -0.9430  1.6243 -1.8029
 1841SOL    HW3 7131   2.893   0.115   5.405 -0.6454 -0.2900  2.8465
 1841SOL    MW4 7132   2.909   0.030   5.394  0.4137 -0.2460  0.0625
 1842SOL     OW 7133   3.200   1.692   6.387  0.3156 -0.2629 -0.3066
 1842SOL    HW2 7134   3.204   1.601   6.415 -1.8141 -0.3992 -0.3058
 1842SOL    HW3 7135   3.142   1.691   6.311 -1.6429  1.3723  1.0774
 1842SOL    MW4 7136   3.193   1.680   6.380  0.1356  0.0210  0.1891
 1843SOL     OW 7137   3.713   3.644   1.338 -0.0516  0.0686  0.5111
 1843SOL    HW2 7138   3.712   3.562   1.387  0.7152 -0.0434  0.3444
 1843SOL    HW3 7139   3.648   3.699   1.383 -1.9551 -1.2520 -0.4796
 1843SOL    MW4 7140   3.704   3.640   1.351 -0.3595 -0.3357  0.1141
 1844SOL     OW 7141   4.437   1.741   6.135  0.2267 -0.0402 -0.1327
 1844SOL    HW2 7142   4.506   1.805   6.151  0.5377 -0.3689 -0.1312
 1844SOL    HW3 7143   4.470   1.688   6.062  0.7890 -1.3141  0.9979
 1844SOL    MW4 7144   4.450   1.742   6.128  0.2705 -0.1790 -0.0294
 1845SOL     OW 7145   2.505   2.266   0.739 -0.5647 -0.6562  0.3974
 1845SOL    HW2 7146   2.534   2.175   0.736 -0.4510 -0.5989 -0.8584
 1845SOL    HW3 7147   2.517   2.298   0.650 -3.4507 -0.2901  0.0480
 1845SOL    MW4 7148   2.511   2.258   0.727  0.2973 -0.0231  0.1331
 1846SOL     OW 7149   2.728   3.834   1.873  0.3066 -0.2031 -0.4949
 1846SOL    HW2 7150   2.664   3.813   1.804  1.4117  0.0380 -1.6222
 1846SOL    HW3 7151   2.786   3.758   1.876  0.0854 -0.3402  0.3936
 1846SOL    MW4 7152   2.727   3.821   1.864 -0.2532 -0.1655 -0.2473
 1847SOL     OW 7153   6.163   5.760   2.895  0.4491  0.3195 -0.0048
 1847SOL    HW2 7154   6.147   5.853   2.882  1.2750  0.3798 -0.7269
 1847SOL    HW3 7155   6.234   5.757   2.959 -0.1966  0.1579  0.7079
 1847SOL    MW4 7156   6.170   5.772   2.901  0.6122 -0.2658 -0.1704
 1848SOL     OW 7157   1.246   5.880   1.554 -0.0962 -0.0961 -0.2130
 1848SOL    HW2 7158   1.273   5.950   1.495 -1.1532  0.1293 -0.4470
 1848SOL    HW3 7159   1.288   5.902   1.638 -0.9932  1.2344 -0.0816
 1848SOL    MW4 7160   1.255   5.892   1.557  0.5988  0.6589  0.1652
 1849SOL     OW 7161   0.133   2.965   4.570 -0.3079 -0.1948 -0.1614
 1849SOL    HW2 7162   0.201   2.898   4.573 -1.0831 -1.0701 -1.1514
 1849SOL    HW3 7163   0.057   2.925   4.612 -0.2330  0.7685  0.9337
 1849SOL    MW4 7164   0.132   2.951   4.576  0.5196 -0.3117 -0.4574
 1850SOL     OW 7165   1.940   2.212   1.602 -0.7463  0.3995  0.5635
 1850SOL    HW2 7166   2.001   2.186   1.672 -1.1633 -0.7746  0.5150
 1850SOL    HW3 7167   1.871   2.146   1.604  0.7890 -1.5843 -2.9520
 1850SOL    MW4 7168   1.939   2.200   1.612  0.5825  0.3326  0.3723
 1851SOL     OW 7169   4.735   2.477   3.878  0.2896  0.0681  0.5226
 1851SOL    HW2 7170   4.671   2.509   3.942  1.6658  1.2845  1.3574
 1851SOL    HW3 7171   4.684   2.463   3.799 -1.3539 -0.8658  1.6727
 1851SOL    MW4 7172   4.720   2.479   3.876 -0.0757  0.5296  0.0222
 1852SOL     OW 7173   5.723   5.300   6.079  0.2929 -0.4902 -0.0599
 1852SOL    HW2 7174   5.726   5.318   6.173 -0.1301 -0.9109  0.0362
 1852SOL    HW3 7175   5.634   5.269   6.063 -0.3241  1.5859 -0.9621
 1852SOL    MW4 7176   5.712   5.298   6.089 -0.3163  0.1171  0.0126
 1853SOL     OW 7177   4.782   3.754   3.945  0.4829  0.2605 -0.3138
 1853SOL    HW2 7178   4.790   3.849   3.954 -0.2209  0.2951 -0.0019
 1853SOL    HW3 7179   4.708   3.731   4.000  2.3076 -0.8531  1.8144
 1853SOL    MW4 7180   4.774   3.764   3.953  0.0604 -0.7546  0.2262
 1854SOL     OW 7181   3.079   4.943   5.612  0.5201  0.7460 -0.1629
 1854SOL    HW2 7182   3.038   4.861   5.640  0.5302  1.1397  1.0721
 1854SOL    HW3 7183   3.159   4.916   5.568 -0.3205  0.0304 -1.3294
 1854SOL    MW4 7184   3.084   4.929   5.610  0.2431  0.2277 -0.4087
 1855SOL     OW 7185   0.610   5.698   0.291  0.1067 -0.0308  0.6843
 1855SOL    HW2 7186   0.663   5.759   0.342 -0.0410  0.3881  0.3509
 1855SOL    HW3 7187   0.533   5.750   0.265 -0.1867 -0.4609  0.6832
 1855SOL    MW4 7188   0.607   5.713   0.294  0.2272  0.8243 -0.6741
 1856SOL     OW 7189   1.650   1.969   4.833 -0.0534 -0.6923  0.2246
 1856SOL    HW2 7190   1.715   1.954   4.902 -0.9466 -0.5780  1.1053
 1856SOL    HW3 7191   1.700   2.013   4.763  0.6191  0.2581  1.2647
 1856SOL    MW4 7192   1.665   1.973   4.833  1.3715  0.2581 -0.2406
 1857SOL     OW 7193   1.552   1.332   2.332  0.2783  0.3616  0.2817
 1857SOL    HW2 7194   1.579   1.340   2.240 -0.3530  2.4799  0.2056
 1857SOL    HW3 7195   1.457   1.347   2.330  0.2284  0.2492  1.2612
 1857SOL    MW4 7196   1.543   1.335   2.320 -0.2024 -0.2363 -0.5848
 1858SOL     OW 7197   3.122   5.268   4.097 -0.1696 -0.1131  0.3341
 1858SOL    HW2 7198   3.160   5.266   4.185 -1.2164 -0.4782  0.7844
 1858SOL    HW3 7199   3.030   5.249   4.109 -0.4910  0.6197 -0.7737
 1858SOL    MW4 7200   3.115   5.265   4.110 -0.2237  0.3762 -0.0085
 1859SOL     OW 7201   2.421   1.241   3.791 -0.0555  0.7356  0.3447
 1859SOL    HW2 7202   2.512   1.266   3.775  0.4273 -1.1785 -0.0853
 1859SOL    HW3 7203   2.425   1.184   3.868 -0.6212 -0.8265 -0.7400
 1859SOL    MW4 7204   2.434   1.237   3.799 -0.4498 -0.3995 -0.2154
 1860SOL     OW 7205   1.717   5.204   5.312 -0.1490  0.6040 -0.4032
 1860SOL    HW2 7206   1.750   5.126   5.357  1.0316  0.0704 -2.0816
 1860SOL    HW3 7207   1.666   5.251   5.379  0.4688 -0.7601  1.0939
 1860SOL    MW4 7208   1.714   5.200   5.327 -0.5905  0.0951 -0.5109
 1861SOL     OW 7209   5.762   4.632   0.467  0.1369  0.7855 -0.2902
 1861SOL    HW2 7210   5.676   4.673   0.479 -0.5497 -1.1531  2.3980
 1861SOL    HW3 7211   5.742   4.541   0.443  1.3061 -0.0613  1.6571
 1861SOL    MW4 7212   5.748   4.625   0.465  0.1521  0.7691 -0.2176
 1862SOL     OW 7213   1.445   4.363   4.049  0.0815 -0.3080  0.3197
 1862SOL    HW2 7214   1.375   4.398   4.104  0.5626  0.6101  0.3733
 1862SOL    HW3 7215   1.511   4.332   4.111  0.1051 -0.3589  0.2689
 1862SOL    MW4 7216   1.444   4.364   4.064  0.1864 -0.3490  0.2608
 1863SOL     OW 7217   5.514   1.701   6.202 -0.4767 -0.1852  0.1852
 1863SOL    HW2 7218   5.439   1.750   6.169 -1.0532 -0.6453  0.7719
 1863SOL    HW3 7219   5.511   1.618   6.156  0.3646  0.2259 -0.6397
 1863SOL    MW4 7220   5.504   1.697   6.192 -0.5723 -0.3897  0.1321
 1864SOL     OW 7221   6.388   4.464   2.237  0.7623  0.1975 -0.8341
 1864SOL    HW2 7222   6.366   4.421   2.320 -0.7136 -0.2829 -1.4623
 1864SOL    HW3 7223   6.317   4.442   2.178  1.1047  1.6744 -1.8470
 1864SOL    MW4 7224   6.376   4.456   2.240 -0.0141 -0.2203  0.1386
 1865SOL     OW 7225   4.015   2.670   4.598  0.3735  0.3557  0.5414
 1865SOL    HW2 7226   4.088   2.732   4.593  0.6297 -0.0179 -0.7789
 1865SOL    HW3 7227   4.022   2.618   4.518  0.6344 -1.9380  1.9892
 1865SOL    MW4 7228   4.025   2.672   4.586 -0.6329  0.4747  0.3432
 1866SOL     OW 7229   4.763   3.723   1.019 -0.0127  0.4956 -0.0322
 1866SOL    HW2 7230   4.842   3.775   1.005  0.9873 -0.9833 -0.1954
 1866SOL    HW3 7231   4.771   3.651   0.956 -0.6381 -0.5941  1.0821
 1866SOL    MW4 7232   4.775   3.720   1.009  0.6901 -0.9797  0.1931
 1867SOL     OW 7233   5.285   4.364   1.058  0.0441 -0.3049  0.2729
 1867SOL    HW2 7234   5.346   4.427   1.020 -0.5669  1.3519  1.9245
 1867SOL    HW3 7235   5.217   4.417   1.099 -1.1419 -2.0669  0.7225
 1867SOL    MW4 7236   5.284   4.379   1.058  0.3045 -0.0201 -0.3334
 1868SOL     OW 7237   3.993   3.571   0.020  0.6044  0.0042  0.0760
 1868SOL    HW2 7238   4.026   3.553  -0.068 -1.7548 -0.5308 -0.7912
 1868SOL    HW3 7239   3.913   3.518   0.026  0.8795 -0.2424  2.6873
 1868SOL    MW4 7240   3.987   3.561   0.009  0.4928  0.0514 -0.5579
 1869SOL     OW 7241   5.292   0.619   5.257  0.6393 -0.0039  0.5815
 1869SOL    HW2 7242   5.383   0.593   5.246  0.4890 -0.0680 -0.6465
 1869SOL    HW3 7243   5.265   0.651   5.171 -0.0257  1.5570  1.3310
 1869SOL    MW4 7244   5.300   0.620   5.244 -0.1122  0.2663  0.3839
 1870SOL     OW 7245   6.174   1.644   6.284  0.4838  0.1968 -0.0883
 1870SOL    HW2 7246   6.146   1.697   6.209 -1.8645 -0.5251  0.2131
 1870SOL    HW3 7247   6.129   1.682   6.359  1.6474 -0.0067  0.7349
 1870SOL    MW4 7248   6.164   1.656   6.284  0.1553  0.2666  0.0180
 1871SOL     OW 7249   2.331   4.205   4.589 -0.0659 -0.0492 -0.5782
 1871SOL    HW2 7250   2.316   4.169   4.501 -0.2895  0.1378 -0.6189
 1871SOL    HW3 7251   2.275   4.283   4.592  0.8918  0.6559 -0.7145
 1871SOL    MW4 7252   2.322   4.211   4.577 -0.1255 -0.1093  0.2781
 1872SOL     OW 7253   4.840   3.388   2.173  0.4141  0.4121 -0.0976
 1872SOL    HW2 7254   4.750   3.364   2.193  0.3341  0.1241 -0.7823
 1872SOL    HW3 7255   4.836   3.425   2.085  0.9512  0.4970 -0.0912
 1872SOL    MW4 7256   4.828   3.390   2.164  0.2976 -0.4264 -0.5242
 1873SOL     OW 7257   1.877   2.099   5.368 -0.4732  0.2969  0.0008
 1873SOL    HW2 7258   1.935   2.168   5.336  1.2996 -0.5906  1.1692
 1873SOL    HW3 7259   1.856   2.125   5.458 -0.2255 -0.4111  0.2683
 1873SOL    MW4 7260   1.882   2.112   5.376  0.2807 -0.2937 -0.1266
 1874SOL     OW 7261   1.294   3.195   5.405 -0.0591 -0.0851  0.0142
 1874SOL    HW2 7262   1.282   3.136   5.331 -1.2039  0.4945 -0.2754
 1874SOL    HW3 7263   1.253   3.149   5.479 -1.4759  0.5769 -0.3350
 1874SOL    MW4 7264   1.287   3.181   5.405  0.2888 -0.1435 -0.1725
 1875SOL     OW 7265   1.173   2.789   4.576  0.2623 -0.7077  0.7196
 1875SOL    HW2 7266   1.104   2.834   4.527  1.2909 -0.3380 -0.4473
 1875SOL    HW3 7267   1.219   2.860   4.622 -0.6148 -1.0371  2.1592
 1875SOL    MW4 7268   1.170   2.805   4.576 -0.5148  0.0119  0.4097
 1876SOL     OW 7269   2.013   3.753   3.775 -0.4828 -1.1325  0.1992
 1876SOL    HW2 7270   1.985   3.747   3.867 -0.5534 -0.5326  0.2155
 1876SOL    HW3 7271   1.938   3.793   3.730 -0.1182 -0.6323  0.0312
 1876SOL    MW4 7272   1.999   3.757   3.782 -0.2945 -0.2323  0.6429
 1877SOL     OW 7273   1.891   4.025   2.511 -0.0395 -0.4824 -0.0514
 1877SOL    HW2 7274   1.921   4.062   2.594  1.4426 -0.0710 -0.7269
 1877SOL    HW3 7275   1.918   4.090   2.445 -1.0796 -0.8540 -0.8725
 1877SOL    MW4 7276   1.899   4.039   2.513  0.3201  0.3425  0.1945
 1878SOL     OW 7277   1.948   4.041   0.234 -0.3235 -0.8757 -0.4856
 1878SOL    HW2 7278   1.999   3.990   0.171 -0.8441 -0.4582 -1.2567
 1878SOL    HW3 7279   1.875   4.076   0.183  0.3175  1.1034 -0.1131
 1878SOL    MW4 7280   1.945   4.039   0.219  0.2854 -0.4465 -0.0446
 1879SOL     OW 7281   0.476   0.230   0.915  0.2354 -0.4636 -0.0016
 1879SOL    HW2 7282   0.569   0.205   0.921  1.5593  3.8150  1.4636
 1879SOL    HW3 7283   0.474   0.295   0.844 -1.6936 -0.5750 -0.0960
 1879SOL    MW4 7284   0.488   0.235   0.907 -0.6388 -0.0333 -0.0835
 1880SOL     OW 7285   1.881   3.044   4.989 -0.3572  0.4252  0.4301
 1880SOL    HW2 7286   1.940   3.094   5.045  0.5551  0.4089 -0.5009
 1880SOL    HW3 7287   1.921   3.045   4.903  0.6722 -3.3645  0.6541
 1880SOL    MW4 7288   1.894   3.050   4.985 -0.2568 -0.8268  0.6242
 1881SOL     OW 7289   4.723   4.900   0.464  0.5552 -0.3531  0.0388
 1881SOL    HW2 7290   4.770   4.962   0.408  0.3665 -0.6369 -0.4436
 1881SOL    HW3 7291   4.718   4.820   0.411 -2.7459  0.4182 -1.0267
 1881SOL    MW4 7292   4.729   4.897   0.449  0.0761 -0.7365  0.1346
 1882SOL     OW 7293   3.697   4.259   2.813 -0.0394  0.0158  0.4914
 1882SOL    HW2 7294   3.751   4.193   2.768  0.0212  0.4254 -0.0342
 1882SOL    HW3 7295   3.739   4.269   2.899  0.6154  0.1971  0.1535
 1882SOL    MW4 7296   3.710   4.251   2.819  0.5484  0.1332  0.2412
 1883SOL     OW 7297   0.658   5.843   1.688 -0.6929 -0.3652  0.4698
 1883SOL    HW2 7298   0.605   5.792   1.749 -0.1061 -0.0207  1.2898
 1883SOL    HW3 7299   0.747   5.811   1.701 -0.6175 -0.6023 -0.5456
 1883SOL    MW4 7300   0.663   5.832   1.698 -0.6628  0.0748 -0.5741
 1884SOL     OW 7301   1.644   1.513   2.971  0.5224 -0.0623  0.2417
 1884SOL    HW2 7302   1.705   1.516   2.898  1.1632 -1.3901  0.6907
 1884SOL    HW3 7303   1.574   1.574   2.947  1.2760  0.3589 -0.9543
 1884SOL    MW4 7304   1.643   1.522   2.958 -0.1090 -0.1829 -0.0106
 1885SOL     OW 7305   6.037   3.623   2.032 -0.1401  0.1036  0.3773
 1885SOL    HW2 7306   6.080   3.538   2.042  2.1563  0.9032 -1.5443
 1885SOL    HW3 7307   6.081   3.680   2.095  1.4696  0.8207 -1.2918
 1885SOL    MW4 7308   6.049   3.620   2.042  0.0456 -0.0068 -0.3817
 1886SOL     OW 7309   2.575   2.381   0.486  0.3842 -0.4487 -0.7757
 1886SOL    HW2 7310   2.553   2.328   0.409 -1.4122 -0.9946  0.0622
 1886SOL    HW3 7311   2.511   2.452   0.485  0.1297 -0.6416  0.3605
 1886SOL    MW4 7312   2.564   2.383   0.475 -0.2504 -0.7321  0.1283
 1887SOL     OW 7313   4.153   4.913   6.056  0.7342  0.0190 -0.7924
 1887SOL    HW2 7314   4.093   4.864   6.113  0.0257  0.6234 -0.9950
 1887SOL    HW3 7315   4.140   4.876   5.969  0.0029  0.7123 -0.9956
 1887SOL    MW4 7316   4.143   4.902   6.052 -0.1032 -0.5495  0.3518
 1888SOL     OW 7317   4.432   4.768   1.987  0.7714 -0.3536 -0.2722
 1888SOL    HW2 7318   4.487   4.826   1.935  2.1933 -1.3292  0.0654
 1888SOL    HW3 7319   4.342   4.789   1.962  1.2314  1.9025 -0.2245
 1888SOL    MW4 7320   4.427   4.778   1.977  0.4399 -0.0972  0.5989
 1889SOL     OW 7321   0.447   4.241   3.079 -0.7642  0.0220 -0.4717
 1889SOL    HW2 7322   0.531   4.282   3.100 -0.4220 -0.1395 -1.4778
 1889SOL    HW3 7323   0.382   4.297   3.121 -0.3768  2.2085 -2.5624
 1889SOL    MW4 7324   0.450   4.254   3.087 -0.5685  0.2511  0.7453
 1890SOL     OW 7325   3.125   3.546   4.309 -0.3477  0.2563  0.5380
 1890SOL    HW2 7326   3.191   3.612   4.333  0.3071  0.0556 -0.6353
 1890SOL    HW3 7327   3.048   3.572   4.359  0.7078  0.2634  2.2684
 1890SOL    MW4 7328   3.124   3.558   4.319 -0.6799 -0.0971  0.2501
 1891SOL     OW 7329   3.215   3.286   4.214  0.3014 -0.0192  0.1226
 1891SOL    HW2 7330   3.145   3.244   4.164  2.2096 -0.5428 -2.3253
 1891SOL    HW3 7331   3.180   3.372   4.237 -1.6941 -0.8572  0.4610
 1891SOL    MW4 7332   3.201   3.292   4.211 -0.0082  0.6291  0.1690
 1892SOL     OW 7333   5.432   6.124   1.671  0.0112 -0.2046  0.1739
 1892SOL    HW2 7334   5.346   6.083   1.665 -1.6006  2.7807  0.7238
 1892SOL    HW3 7335   5.430   6.193   1.604  1.5167  0.6519  0.9639
 1892SOL    MW4 7336   5.420   6.128   1.661 -0.0225  0.1494 -0.3409
 1893SOL     OW 7337   4.276   3.491   2.489 -0.2905 -0.1593  0.0972
 1893SOL    HW2 7338   4.217   3.440   2.434 -0.3441  1.0402 -0.9823
 1893SOL    HW3 7339   4.352   3.433   2.502  0.0771 -0.1807 -1.8944
 1893SOL    MW4 7340   4.278   3.476   2.484 -0.0686  0.7918  0.1772
 1894SOL     OW 7341   4.529   4.244   2.963  0.1409 -0.5702  0.2213
 1894SOL    HW2 7342   4.465   4.269   2.897  2.4423  0.8555 -1.6600
 1894SOL    HW3 7343   4.542   4.323   3.015  0.6339 -0.7124  0.3256
 1894SOL    MW4 7344   4.522   4.258   2.962  0.2324  0.1592 -0.4582
 1895SOL     OW 7345   3.082   1.359   4.598 -0.7665 -0.4967  0.1342
 1895SOL    HW2 7346   3.121   1.331   4.680  0.0180 -0.2396 -0.1379
 1895SOL    HW3 7347   3.054   1.450   4.614 -2.7009 -1.1616  0.8072
 1895SOL    MW4 7348   3.083   1.368   4.611 -0.9509 -0.5454  0.2903
 1896SOL     OW 7349   6.194   5.877   5.469  0.0551 -0.6187 -0.2933
 1896SOL    HW2 7350   6.271   5.888   5.525  0.4192  0.8036 -1.0391
 1896SOL    HW3 7351   6.199   5.786   5.441  2.4042 -0.1649 -1.6224
 1896SOL    MW4 7352   6.205   5.866   5.473 -0.2113 -0.7165  0.2244
 1897SOL     OW 7353   2.968   0.767   0.477  0.3330  0.5234 -0.0664
 1897SOL    HW2 7354   2.998   0.711   0.406  1.4766  1.2625 -0.1860
 1897SOL    HW3 7355   2.971   0.855   0.441 -2.0934  0.6541 -0.1043
 1897SOL    MW4 7356   2.972   0.771   0.463  0.0401  0.1592 -0.1069
 1898SOL     OW 7357   5.562   2.411   0.102  0.4794  0.2306  0.0074
 1898SOL    HW2 7358   5.481   2.400   0.052  0.0113 -0.1677  0.8200
 1898SOL    HW3 7359   5.593   2.321   0.116  2.8181  0.4240 -2.9984
 1898SOL    MW4 7360   5.555   2.398   0.097  0.3840 -0.3895  0.8188
 1899SOL     OW 7361   0.728   1.011   3.922  0.1231 -0.2894  0.1196
 1899SOL    HW2 7362   0.774   0.927   3.924 -0.4731 -0.6336 -0.2145
 1899SOL    HW3 7363   0.647   0.994   3.969  0.4595  0.3886  0.9542
 1899SOL    MW4 7364   0.723   0.998   3.928  0.4832 -0.2602 -0.2470
 1900SOL     OW 7365   3.339   2.252   0.056 -0.3809 -0.4360  0.1394
 1900SOL    HW2 7366   3.429   2.273   0.080 -0.2013 -1.0201 -0.0114
 1900SOL    HW3 7367   3.343   2.230  -0.037 -0.7793  0.1089 -0.0091
 1900SOL    MW4 7368   3.352   2.252   0.047  0.3175  0.4238 -0.1377
 1901SOL     OW 7369   2.849   3.080   1.548  0.1777 -0.5317  0.1358
 1901SOL    HW2 7370   2.918   3.075   1.614  2.1293  0.2763 -1.7081
 1901SOL    HW3 7371   2.888   3.131   1.477 -2.1159 -0.6322 -1.2991
 1901SOL    MW4 7372   2.863   3.086   1.547 -1.2049  0.1079 -0.2472
 1902SOL     OW 7373   4.596   5.999   0.070  0.2212  0.3603 -0.2276
 1902SOL    HW2 7374   4.555   6.067   0.017  1.0051  0.4505 -0.7300
 1902SOL    HW3 7375   4.550   5.918   0.046 -0.2346  0.5923 -0.1501
 1902SOL    MW4 7376   4.585   5.997   0.060 -0.5810 -0.1135  0.4109
 1903SOL     OW 7377   0.823   3.668   4.907 -0.4001  0.2936  0.0491
 1903SOL    HW2 7378   0.880   3.725   4.855 -0.9834  0.7424 -0.1161
 1903SOL    HW3 7379   0.762   3.729   4.949 -0.8122 -0.1853  0.1436
 1903SOL    MW4 7380   0.822   3.684   4.905  0.6157  0.2286  0.5043
 1904SOL     OW 7381   5.528   4.174   1.101 -0.2084  0.0985  0.2233
 1904SOL    HW2 7382   5.572   4.225   1.033  0.1391  0.0402  0.4073
 1904SOL    HW3 7383   5.593   4.112   1.132 -0.8736 -1.0465 -0.5821
 1904SOL    MW4 7384   5.542   4.173   1.096 -0.5002 -0.6565 -0.4532
 1905SOL     OW 7385   5.993   0.017   0.195  0.2145 -0.3248  0.0782
 1905SOL    HW2 7386   5.915   0.067   0.169  0.5446 -0.6520 -1.6564
 1905SOL    HW3 7387   6.062   0.083   0.202 -0.2236  0.0044  1.8716
 1905SOL    MW4 7388   5.992   0.032   0.193 -0.1498 -0.2310 -0.5862
 1906SOL     OW 7389   5.635   5.022   1.336  0.0883  1.0133 -0.1283
 1906SOL    HW2 7390   5.676   4.943   1.370  0.8405  1.7065  0.6084
 1906SOL    HW3 7391   5.671   5.031   1.247  1.6725  1.6628  0.5318
 1906SOL    MW4 7392   5.645   5.013   1.328 -0.2795 -0.1605 -0.2895
 1907SOL     OW 7393   1.426   4.528   3.183 -0.4721 -0.3052  0.4774
 1907SOL    HW2 7394   1.414   4.459   3.249 -2.5501 -0.1906  0.2778
 1907SOL    HW3 7395   1.416   4.483   3.100  2.3959 -0.4960  0.1314
 1907SOL    MW4 7396   1.423   4.513   3.181  0.2986  0.2428  0.0319
 1908SOL     OW 7397   3.311   5.775   4.576 -0.0136 -0.0457  0.0622
 1908SOL    HW2 7398   3.310   5.698   4.633  2.1055 -0.1047  0.1049
 1908SOL    HW3 7399   3.400   5.778   4.541 -0.6601  1.1779 -1.6326
 1908SOL    MW4 7400   3.323   5.765   4.579 -0.3446 -0.2761  0.2654
 1909SOL     OW 7401   1.537   2.246   0.269 -0.4457 -0.4181 -0.2452
 1909SOL    HW2 7402   1.536   2.338   0.241 -0.3553 -0.0064  1.0304
 1909SOL    HW3 7403   1.515   2.197   0.190  0.8690  0.6036 -1.3089
 1909SOL    MW4 7404   1.534   2.252   0.255  0.5965  0.1834 -0.1297
 1910SOL     OW 7405   0.666   5.053   4.129 -0.0060  0.2904  0.2340
 1910SOL    HW2 7406   0.637   5.138   4.094 -1.9977 -0.0145  0.9938
 1910SOL    HW3 7407   0.596   4.992   4.104  0.4328 -0.7174  1.3838
 1910SOL    MW4 7408   0.653   5.056   4.121 -0.5377  0.6225 -0.1372
 1911SOL     OW 7409   4.969   2.673   2.981  0.2203 -0.6053 -0.0240
 1911SOL    HW2 7410   4.895   2.725   3.012 -1.7856 -2.9721 -0.5028
 1911SOL    HW3 7411   4.938   2.632   2.901  1.7534 -2.3356  0.1901
 1911SOL    MW4 7412   4.955   2.674   2.975 -0.1281 -0.1688 -0.5593
 1912SOL     OW 7413   3.553   4.188   2.364  0.1387  0.6401  0.0414
 1912SOL    HW2 7414   3.635   4.179   2.314  1.2422 -1.1202  2.0163
 1912SOL    HW3 7415   3.484   4.176   2.298  1.4267  2.1073 -1.6731
 1912SOL    MW4 7416   3.555   4.185   2.349 -0.3717  0.0886 -0.4657
 1913SOL     OW 7417   5.409   3.222   0.515  0.0351 -0.1225  0.1202
 1913SOL    HW2 7418   5.444   3.259   0.433 -1.1338 -1.4272 -1.0241
 1913SOL    HW3 7419   5.475   3.159   0.542 -0.4731 -1.1490 -0.9533
 1913SOL    MW4 7420   5.422   3.219   0.507  0.4837  0.1199  0.4659
 1914SOL     OW 7421   1.294   5.214   0.343 -0.6174 -0.2897 -0.1432
 1914SOL    HW2 7422   1.281   5.267   0.421 -0.3364  0.2516 -0.4593
 1914SOL    HW3 7423   1.248   5.132   0.361 -0.1341 -0.3637  0.7878
 1914SOL    MW4 7424   1.286   5.210   0.356  0.4402 -0.6926 -0.2926
 1915SOL     OW 7425   5.585   1.503   1.106  0.1510  0.5577  0.0468
 1915SOL    HW2 7426   5.573   1.445   1.031  1.2664 -0.1244  0.3766
 1915SOL    HW3 7427   5.536   1.582   1.083 -0.6075 -0.1389 -0.8187
 1915SOL    MW4 7428   5.577   1.506   1.093  0.8232  0.3636 -0.1608
 1916SOL     OW 7429   1.772   0.767   3.743 -0.2590  0.1148 -0.0351
 1916SOL    HW2 7430   1.759   0.732   3.655  0.3410  0.3386 -0.2199
 1916SOL    HW3 7431   1.763   0.862   3.733  1.3869  0.2904 -0.1789
 1916SOL    MW4 7432   1.769   0.775   3.730 -0.2723 -0.2426 -0.2818
 1917SOL     OW 7433   1.662   0.292   6.324  0.5280  0.6658  0.4628
 1917SOL    HW2 7434   1.647   0.315   6.232  1.3106  1.9463  0.6333
 1917SOL    HW3 7435   1.728   0.355   6.354 -0.2963  0.7761  2.1320
 1917SOL    MW4 7436   1.669   0.303   6.316 -0.3173  0.0781 -0.5385
 1918SOL     OW 7437   2.267   0.558   0.527 -0.3790  0.3566  0.3014
 1918SOL    HW2 7438   2.259   0.512   0.444 -2.3248  2.8559 -1.0223
 1918SOL    HW3 7439   2.183   0.545   0.571 -0.1300  0.7756  0.9334
 1918SOL    MW4 7440   2.255   0.550   0.522 -0.1205 -0.5102 -0.1269
 1919SOL     OW 7441   1.246   0.264   4.890  0.4201  0.5797  0.1028
 1919SOL    HW2 7442   1.226   0.171   4.875 -3.3596  1.0775  1.1841
 1919SOL    HW3 7443   1.329   0.262   4.938  1.1515 -2.1261 -1.0617
 1919SOL    MW4 7444   1.255   0.251   4.895 -0.3736  0.3191 -0.3168
 1920SOL     OW 7445   4.103   2.022   1.090  0.0227  0.4903 -1.1002
 1920SOL    HW2 7446   4.108   1.927   1.095  1.0449  0.5558 -0.7013
 1920SOL    HW3 7447   4.018   2.043   1.129 -0.0241 -0.2319 -0.7930
 1920SOL    MW4 7448   4.092   2.012   1.096  0.1292  0.3557 -0.5769
 1921SOL     OW 7449   2.922   4.726   5.734 -0.5603 -0.2761  0.2232
 1921SOL    HW2 7450   2.885   4.671   5.666  1.1217 -1.0092 -0.1626
 1921SOL    HW3 7451   2.848   4.752   5.788 -1.7028 -1.0015 -0.9478
 1921SOL    MW4 7452   2.907   4.722   5.732 -0.4413 -0.9886 -0.2893
 1922SOL     OW 7453   2.696   1.491   6.280 -0.0126  0.3061 -0.3823
 1922SOL    HW2 7454   2.660   1.402   6.284  0.9321 -0.1755 -1.8011
 1922SOL    HW3 7455   2.790   1.479   6.295 -0.2279  1.4851  2.8476
 1922SOL    MW4 7456   2.704   1.478   6.283  0.0879 -0.0252  0.4493
 1923SOL     OW 7457   3.223   2.946   4.982 -0.4379 -0.9912  0.2257
 1923SOL    HW2 7458   3.218   3.029   4.936  0.0461 -1.1055 -0.0361
 1923SOL    HW3 7459   3.164   2.957   5.057  0.6397  0.0669  0.9470
 1923SOL    MW4 7460   3.214   2.958   4.986  0.0672  0.1671 -0.3311
 1924SOL     OW 7461   5.485   1.445   1.351 -0.4000 -0.5009 -0.1769
 1924SOL    HW2 7462   5.409   1.503   1.356 -0.0360 -0.1250  1.3077
 1924SOL    HW3 7463   5.520   1.460   1.263 -1.9049 -0.5243 -0.8078
 1924SOL    MW4 7464   5.479   1.455   1.340 -0.2048  0.0421  0.1602
 1925SOL     OW 7465   1.640   2.584   4.061 -0.2249 -0.6873  0.2026
 1925SOL    HW2 7466   1.685   2.628   4.133  0.5325  0.0388 -0.6860
 1925SOL    HW3 7467   1.686   2.613   3.983  0.5515 -3.3573 -0.4364
 1925SOL    MW4 7468   1.652   2.593   4.060  0.0071 -0.3298  0.2112
 1926SOL     OW 7469   0.101   0.886   1.261  0.1846 -0.8289  0.1578
 1926SOL    HW2 7470   0.129   0.897   1.170 -0.9269 -1.5436 -0.2881
 1926SOL    HW3 7471   0.173   0.838   1.302  1.1629  0.4138 -0.0579
 1926SOL    MW4 7472   0.114   0.881   1.255 -0.2870 -0.3635 -0.6911
 1927SOL     OW 7473   0.988   2.364   1.824 -0.4074  0.1759  0.4919
 1927SOL    HW2 7474   1.058   2.305   1.798 -1.2991 -0.6480 -0.1041
 1927SOL    HW3 7475   0.952   2.396   1.742 -1.4913 -0.3278  0.7558
 1927SOL    MW4 7476   0.992   2.361   1.810 -0.1670  0.6027 -0.2526
 1928SOL     OW 7477   2.792   5.406   0.393 -0.0550  0.2276  0.4266
 1928SOL    HW2 7478   2.809   5.330   0.336 -2.0212 -0.9175  1.2488
 1928SOL    HW3 7479   2.847   5.476   0.357 -1.1123 -0.4549 -2.8418
 1928SOL    MW4 7480   2.801   5.405   0.381  0.1806  0.4870 -0.3245
 1929SOL     OW 7481   2.595   3.742   2.901 -0.2080 -0.2867 -0.2545
 1929SOL    HW2 7482   2.545   3.823   2.912 -0.4996 -0.7048  1.9994
 1929SOL    HW3 7483   2.529   3.673   2.907  0.0467 -0.7214 -2.1160
 1929SOL    MW4 7484   2.580   3.744   2.904 -0.4234  0.3832  0.4139
 1930SOL     OW 7485   0.237   3.561   5.951  0.0296  0.0800 -0.3823
 1930SOL    HW2 7486   0.159   3.532   5.903 -0.5676  2.6561 -1.1444
 1930SOL    HW3 7487   0.209   3.642   5.993  1.9840  0.4228  0.3413
 1930SOL    MW4 7488   0.223   3.568   5.951  0.0546 -0.3179  0.2213
 1931SOL     OW 7489   0.843   4.205   4.396 -0.2525 -0.4046 -0.2310
 1931SOL    HW2 7490   0.829   4.228   4.487 -0.5031 -1.7638  0.0967
 1931SOL    HW3 7491   0.807   4.278   4.346  0.5703  0.7048  0.7479
 1931SOL    MW4 7492   0.837   4.218   4.401 -0.1426  0.4160  0.0962
 1932SOL     OW 7493   5.614   3.190   3.835 -0.9350 -0.1724  0.1337
 1932SOL    HW2 7494   5.581   3.280   3.823  1.3813  0.7028 -0.1634
 1932SOL    HW3 7495   5.535   3.138   3.851 -2.5285  1.6253 -1.2998
 1932SOL    MW4 7496   5.599   3.195   3.836  0.1788  0.1086 -0.4371
 1933SOL     OW 7497   2.313   2.360   0.933  0.0099  0.0316 -0.4426
 1933SOL    HW2 7498   2.387   2.312   0.896  0.1993  1.2496 -1.7003
 1933SOL    HW3 7499   2.276   2.300   0.998  2.2245 -0.5148  0.3846
 1933SOL    MW4 7500   2.318   2.345   0.937 -0.6385 -0.6069 -0.5172
 1934SOL     OW 7501   4.988   4.251   3.538 -0.0369 -0.0319 -0.1058
 1934SOL    HW2 7502   4.940   4.180   3.581 -0.5507  0.4817  0.1804
 1934SOL    HW3 7503   4.920   4.302   3.493  0.3415  0.2260 -0.3904
 1934SOL    MW4 7504   4.973   4.248   3.537 -0.1481 -0.1396 -0.0278
 1935SOL     OW 7505   0.152   0.397   5.372 -0.1251 -0.3904 -0.7607
 1935SOL    HW2 7506   0.103   0.352   5.442 -1.1677 -0.4932 -1.5414
 1935SOL    HW3 7507   0.134   0.346   5.294 -1.0590  1.1753 -1.6116
 1935SOL    MW4 7508   0.143   0.384   5.371  0.7798  0.5192  0.0019
 1936SOL     OW 7509   3.079   2.445   0.929 -0.3276  0.0798 -0.4164
 1936SOL    HW2 7510   3.058   2.438   0.835  1.2839 -3.1738 -0.6992
 1936SOL    HW3 7511   2.993   2.448   0.972 -1.1660 -0.4098 -1.9533
 1936SOL    MW4 7512   3.065   2.444   0.922 -0.0358 -0.2547 -0.2122
 1937SOL     OW 7513   3.049   4.031   5.402  0.5083  0.3571  0.0334
 1937SOL    HW2 7514   3.032   3.956   5.459 -0.7829 -1.0336 -2.0201
 1937SOL    HW3 7515   3.139   4.020   5.373  0.4285 -0.2691 -0.0021
 1937SOL    MW4 7516   3.058   4.020   5.405 -0.7035 -0.1904  0.3916
 1938SOL     OW 7517   6.359   2.745   3.847 -0.5191  0.1195  1.0117
 1938SOL    HW2 7518   6.426   2.813   3.838 -1.8062  1.2910 -0.2083
 1938SOL    HW3 7519   6.349   2.710   3.759  1.8579 -3.5069  1.9615
 1938SOL    MW4 7520   6.367   2.749   3.834  0.3186 -0.2999  0.0144
 1939SOL     OW 7521   3.049   2.923   5.902  0.0171  0.0509  0.3305
 1939SOL    HW2 7522   3.038   2.979   5.979 -2.1208  0.3242 -0.1047
 1939SOL    HW3 7523   3.068   2.984   5.831 -0.5061  0.0514  0.1897
 1939SOL    MW4 7524   3.050   2.939   5.903 -0.3277  0.3382 -0.3928
 1940SOL     OW 7525   4.224   4.739   2.224 -0.1276  0.3822  0.6326
 1940SOL    HW2 7526   4.172   4.690   2.161 -1.9141  3.4143 -0.4741
 1940SOL    HW3 7527   4.300   4.769   2.174  0.0590  0.1988  0.8048
 1940SOL    MW4 7528   4.228   4.737   2.209  0.8059  0.8561  0.0298
 1941SOL     OW 7529   4.979   0.470   2.131  0.7242  0.7816 -0.3408
 1941SOL    HW2 7530   5.006   0.522   2.056 -0.2239  1.1113 -0.4711
 1941SOL    HW3 7531   4.888   0.447   2.112  1.0129 -0.6308 -0.1165
 1941SOL    MW4 7532   4.971   0.474   2.119 -0.4292 -0.0405  0.0748
 1942SOL     OW 7533   1.666   0.098   5.500 -0.1710  0.2649 -0.1340
 1942SOL    HW2 7534   1.740   0.158   5.498 -0.3146  0.4159 -0.9112
 1942SOL    HW3 7535   1.706   0.011   5.509  0.2491  0.1330 -2.5595
 1942SOL    MW4 7536   1.681   0.094   5.501 -0.4100  0.4720  0.2311
 1943SOL     OW 7537   4.794   1.206   5.567 -0.1657  0.0690  0.4104
 1943SOL    HW2 7538   4.805   1.121   5.610  1.1190  0.3888  0.7689
 1943SOL    HW3 7539   4.858   1.263   5.610  0.1409  0.7794 -0.9278
 1943SOL    MW4 7540   4.804   1.202   5.578  1.1211 -0.3290 -0.0917
 1944SOL     OW 7541   5.015   4.581   6.104 -0.1509  0.3048 -0.1896
 1944SOL    HW2 7542   5.071   4.552   6.032  0.5415  1.7363 -0.2655
 1944SOL    HW3 7543   4.928   4.550   6.080  0.2813 -0.2883 -1.0363
 1944SOL    MW4 7544   5.011   4.573   6.091  0.0759  0.4244 -0.2315
 1945SOL     OW 7545   2.631   1.670   5.755 -0.4386  0.4289  0.1634
 1945SOL    HW2 7546   2.633   1.726   5.678  0.2376 -0.2790 -0.3476
 1945SOL    HW3 7547   2.704   1.700   5.809 -1.0410  1.0655  0.6498
 1945SOL    MW4 7548   2.641   1.682   5.752  0.0515  0.4654  0.4100
 1946SOL     OW 7549   4.300   5.664   3.479  0.3692  0.0482  0.0109
 1946SOL    HW2 7550   4.297   5.702   3.391 -1.2154  0.1751  0.0952
 1946SOL    HW3 7551   4.255   5.728   3.534 -2.0046 -1.7109  0.2263
 1946SOL    MW4 7552   4.294   5.678   3.474  0.7439 -0.3017 -0.4055
 1947SOL     OW 7553   5.255   0.475   2.281 -0.3366 -0.1628  0.2906
 1947SOL    HW2 7554   5.197   0.541   2.243 -1.3144 -0.4083  1.3051
 1947SOL    HW3 7555   5.227   0.393   2.240  0.6091 -0.0351 -0.6660
 1947SOL    MW4 7556   5.244   0.473   2.271  0.2736 -0.1296 -0.1414
 1948SOL     OW 7557   3.516   1.312   4.696 -0.0849  0.9119 -0.1781
 1948SOL    HW2 7558   3.489   1.353   4.779 -0.5224 -0.8529  0.6021
 1948SOL    HW3 7559   3.458   1.350   4.630 -1.1731  0.7737  0.6778
 1948SOL    MW4 7560   3.505   1.323   4.699  0.2281  0.5486 -0.1265
 1949SOL     OW 7561   6.160   4.932   5.054 -0.3234 -0.1045 -0.3457
 1949SOL    HW2 7562   6.202   4.926   5.141 -0.8391 -0.0325 -0.0897
 1949SOL    HW3 7563   6.232   4.955   4.995  0.2213 -1.1072 -0.0992
 1949SOL    MW4 7564   6.175   4.934   5.058 -0.1918 -0.5274  0.0157
 1950SOL     OW 7565   2.850   2.590   2.430  0.5242 -0.2441  0.0775
 1950SOL    HW2 7566   2.764   2.604   2.470  0.1662  0.1701 -0.8042
 1950SOL    HW3 7567   2.835   2.604   2.336  1.2081 -1.7525 -0.2976
 1950SOL    MW4 7568   2.837   2.594   2.423  0.2487 -0.6915  0.1829
 1951SOL     OW 7569   0.420   4.512   4.169 -0.4176 -0.1218 -0.0939
 1951SOL    HW2 7570   0.344   4.454   4.167 -0.6466  0.1680 -2.6520
 1951SOL    HW3 7571   0.493   4.455   4.193 -1.3356 -0.4277  2.2715
 1951SOL    MW4 7572   0.420   4.497   4.172  0.2528 -0.1100  0.4072
 1952SOL     OW 7573   3.879   3.191   2.973 -0.1446 -0.0996  0.3405
 1952SOL    HW2 7574   3.951   3.153   2.924 -0.3717 -1.2422  0.8519
 1952SOL    HW3 7575   3.814   3.214   2.907  1.2719  2.4062 -0.2881
 1952SOL    MW4 7576   3.880   3.189   2.958 -0.1286 -0.0588 -0.3737
 1953SOL     OW 7577   2.239   1.425   2.574 -0.0343  0.2654 -0.1207
 1953SOL    HW2 7578   2.314   1.484   2.571  0.0948  0.0855 -2.7236
 1953SOL    HW3 7579   2.249   1.378   2.657  0.6005  2.8675  1.3771
 1953SOL    MW4 7580   2.250   1.426   2.585  0.6374 -1.1274  0.1856
 1954SOL     OW 7581   2.296   2.488   5.004  0.1275 -0.0715  0.0000
 1954SOL    HW2 7582   2.338   2.497   5.090  1.4554  0.4303 -0.6780
 1954SOL    HW3 7583   2.360   2.522   4.942 -1.7635  1.9362 -0.9987
 1954SOL    MW4 7584   2.310   2.494   5.007  0.1973  0.0515  0.4225
 1955SOL     OW 7585   1.704   0.035   0.155 -0.7867  0.2058  0.0718
 1955SOL    HW2 7586   1.711   0.127   0.180  0.7333 -0.0943  0.8844
 1955SOL    HW3 7587   1.792  -0.000   0.168 -0.6886 -0.7988 -2.6259
 1955SOL    MW4 7588   1.717   0.043   0.160 -0.2723 -0.5836  0.1151
 1956SOL     OW 7589   1.913   5.462   0.027  0.0570 -0.0818 -0.5839
 1956SOL    HW2 7590   2.002   5.491   0.008  0.1192  0.3788  0.3927
 1956SOL    HW3 7591   1.916   5.434   0.118 -0.8886  0.2868 -0.4325
 1956SOL    MW4 7592   1.925   5.462   0.036 -0.3156  0.6760 -0.1805
 1957SOL     OW 7593   0.796   1.362   0.822 -0.6203  0.4155  0.1280
 1957SOL    HW2 7594   0.725   1.417   0.855 -1.4900 -0.2903 -0.5229
 1957SOL    HW3 7595   0.812   1.298   0.891 -1.5732 -0.2734 -0.2649
 1957SOL    MW4 7596   0.789   1.361   0.835  0.1628 -0.2868  0.0266
 1958SOL     OW 7597   3.388   2.700   0.027  0.1372  0.6459 -0.1922
 1958SOL    HW2 7598   3.401   2.760  -0.047 -0.3242  1.5152  0.4100
 1958SOL    HW3 7599   3.456   2.634   0.016 -0.1919  0.5129 -1.6260
 1958SOL    MW4 7600   3.399   2.699   0.016  0.2457 -0.0245  0.1249
 1959SOL     OW 7601   3.442   1.523   4.492  0.5278 -0.3350  0.1618
 1959SOL    HW2 7602   3.369   1.544   4.434 -0.9910 -0.4923  1.9197
 1959SOL    HW3 7603   3.462   1.606   4.535  1.7461 -0.1818 -0.6679
 1959SOL    MW4 7604   3.435   1.537   4.490  0.2396 -0.3862  0.0300
 1960SOL     OW 7605   1.688   1.831   2.728 -0.2549  0.1120  0.0085
 1960SOL    HW2 7606   1.680   1.890   2.654  0.6472  1.3512  0.8605
 1960SOL    HW3 7607   1.615   1.854   2.785 -1.2944 -1.2325 -0.7113
 1960SOL    MW4 7608   1.677   1.842   2.726  0.3936 -0.1356  0.0615
 1961SOL     OW 7609   4.978   0.018   4.816  0.2206 -0.3364 -0.4788
 1961SOL    HW2 7610   4.924  -0.039   4.871  0.1381 -0.0547 -0.2586
 1961SOL    HW3 7611   4.978  -0.023   4.730 -0.5260 -0.2373 -0.5374
 1961SOL    MW4 7612   4.971   0.005   4.812 -0.0308  0.5262 -0.4240
 1962SOL     OW 7613   1.120   4.251   3.466  0.0231  0.8545 -0.5516
 1962SOL    HW2 7614   1.031   4.282   3.453 -1.5440 -2.5904  0.6763
 1962SOL    HW3 7615   1.143   4.282   3.554 -0.6404  0.3957 -0.2053
 1962SOL    MW4 7616   1.111   4.259   3.476 -0.0558  0.1655  0.3703
 1963SOL     OW 7617   5.752   4.375   4.625  0.3203  0.3081  0.1060
 1963SOL    HW2 7618   5.811   4.350   4.696  0.6588  0.5510 -0.0890
 1963SOL    HW3 7619   5.723   4.463   4.649 -0.9255 -0.2625  0.8305
 1963SOL    MW4 7620   5.756   4.383   4.638 -0.5730 -0.5750 -0.1517
 1964SOL     OW 7621   0.926   2.336   2.694  0.6700 -0.1641 -0.1245
 1964SOL    HW2 7622   0.982   2.266   2.728  1.2553  0.6454  0.6371
 1964SOL    HW3 7623   0.963   2.356   2.608  1.6860  0.4665  0.4354
 1964SOL    MW4 7624   0.939   2.329   2.687  0.3843 -0.3930  0.6309
 1965SOL     OW 7625   1.980   4.505   4.770  0.3349 -0.2392  0.0581
 1965SOL    HW2 7626   1.921   4.525   4.697 -0.0420 -0.9028  0.1785
 1965SOL    HW3 7627   1.977   4.583   4.825 -0.3156 -0.2088 -0.0136
 1965SOL    MW4 7628   1.972   4.518   4.768  0.3291 -0.2335  0.4965
 1966SOL     OW 7629   0.371   1.415   0.098  0.1121  0.2166 -0.2997
 1966SOL    HW2 7630   0.336   1.329   0.073 -0.5845  0.7365 -1.1826
 1966SOL    HW3 7631   0.465   1.406   0.087  0.1329 -0.7115  0.5108
 1966SOL    MW4 7632   0.378   1.403   0.093 -0.2805  0.0618  0.1296
 1967SOL     OW 7633   3.924   1.361   4.306 -0.2298 -0.5137  0.0019
 1967SOL    HW2 7634   3.895   1.278   4.268 -0.6617  0.3863 -1.7052
 1967SOL    HW3 7635   3.847   1.393   4.353 -1.9469  1.4347 -3.7819
 1967SOL    MW4 7636   3.910   1.354   4.307  0.4711  0.1468  0.0179
 1968SOL     OW 7637   0.148   4.515   4.486 -0.2629  0.5675 -0.2906
 1968SOL    HW2 7638   0.114   4.583   4.544  0.9488  2.6157 -1.8235
 1968SOL    HW3 7639   0.144   4.554   4.399  1.2547 -1.0086 -1.1389
 1968SOL    MW4 7640   0.143   4.529   4.482  0.4923  0.1826  0.0720
 1969SOL     OW 7641   5.576   1.535   3.002 -0.0621  0.1654  0.4639
 1969SOL    HW2 7642   5.668   1.517   2.986  0.6420  1.9662  2.0699
 1969SOL    HW3 7643   5.561   1.620   2.961 -0.9936 -0.0583  0.3146
 1969SOL    MW4 7644   5.586   1.544   2.995  0.1325 -0.5659  0.4432
 1970SOL     OW 7645   4.934   0.357   6.235  0.1777  0.6116 -0.5057
 1970SOL    HW2 7646   4.934   0.448   6.266  2.7945  1.1447 -1.7571
 1970SOL    HW3 7647   4.922   0.364   6.141 -1.7302 -0.5481 -0.3848
 1970SOL    MW4 7648   4.933   0.370   6.227 -0.1421 -0.0947 -0.2521
 1971SOL     OW 7649   3.618   1.980   0.045 -0.1358 -0.6164  0.1454
 1971SOL    HW2 7650   3.704   1.973   0.087 -0.7331  2.8972  2.2734
 1971SOL    HW3 7651   3.633   2.038  -0.030 -0.4781 -0.9778 -0.2113
 1971SOL    MW4 7652   3.631   1.987   0.040  0.1870 -0.1154 -1.0945
 1972SOL     OW 7653   4.365   1.264   0.821 -0.3193 -0.3135  0.3265
 1972SOL    HW2 7654   4.388   1.263   0.728  0.0653 -0.5940  0.4186
 1972SOL    HW3 7655   4.273   1.239   0.823 -0.5959  0.6163 -0.0402
 1972SOL    MW4 7656   4.356   1.261   0.809 -0.1028  0.2163 -0.1750
 1973SOL     OW 7657   2.682   4.544   2.798  0.6783  0.0405  0.1290
 1973SOL    HW2 7658   2.777   4.543   2.785  0.9024 -1.2858  1.4992
 1973SOL    HW3 7659   2.655   4.633   2.775  1.9579 -0.0563 -2.0232
 1973SOL    MW4 7660   2.691   4.556   2.793  0.6187 -0.8906 -0.2228
 1974SOL     OW 7661   4.299   2.011   0.809  0.1828 -0.4173 -0.3604
 1974SOL    HW2 7662   4.281   1.919   0.828  0.0896 -0.6786 -1.6521
 1974SOL    HW3 7663   4.219   2.057   0.833  0.2780 -0.6356  0.4249
 1974SOL    MW4 7664   4.286   2.005   0.815 -0.3133 -0.7405 -0.3412
 1975SOL     OW 7665   0.113   1.932   1.454  0.5911 -0.0248  1.0919
 1975SOL    HW2 7666   0.111   2.021   1.420 -1.2570 -0.1125  0.8968
 1975SOL    HW3 7667   0.071   1.936   1.539 -1.0167 -0.9523  0.3866
 1975SOL    MW4 7668   0.107   1.944   1.461  0.0872  0.4461  0.1206
 1976SOL     OW 7669   4.813   5.649   5.473  0.3963  0.1468  0.4005
 1976SOL    HW2 7670   4.871   5.605   5.535 -0.4755  0.1551  1.2473
 1976SOL    HW3 7671   4.798   5.585   5.404  0.2478 -0.3875  0.9214
 1976SOL    MW4 7672   4.818   5.635   5.472 -0.1225 -0.3537  0.3014
 1977SOL     OW 7673   4.670   6.298   0.824  0.3325  0.0421 -0.1316
 1977SOL    HW2 7674   4.748   6.309   0.878  0.0498  0.2839  0.2329
 1977SOL    HW3 7675   4.699   6.316   0.735  1.1520 -1.8004 -0.2736
 1977SOL    MW4 7676   4.684   6.302   0.820 -0.7433  0.2774  0.1708
 1978SOL     OW 7677   1.565   2.324   3.671 -0.1374  0.0197 -0.1848
 1978SOL    HW2 7678   1.550   2.419   3.673  1.8606  0.3659  0.0175
 1978SOL    HW3 7679   1.638   2.310   3.731  0.8489 -1.3884 -1.6469
 1978SOL    MW4 7680   1.573   2.335   3.679 -0.2367 -1.1224 -0.3050
 1979SOL     OW 7681   6.226   3.447   5.574 -0.5875 -0.0192  0.2406
 1979SOL    HW2 7682   6.195   3.389   5.505  0.2186  0.6686 -0.7396
 1979SOL    HW3 7683   6.189   3.533   5.552  1.7625  0.7974 -0.8991
 1979SOL    MW4 7684   6.217   3.451   5.562  0.2944  0.0593  0.2571
 1980SOL     OW 7685   0.019   5.197   0.699 -1.1496 -0.1088 -0.7759
 1980SOL    HW2 7686   0.009   5.156   0.613 -2.5553 -2.1884  0.2804
 1980SOL    HW3 7687   0.093   5.151   0.739 -0.0160  1.3707 -1.1227
 1980SOL    MW4 7688   0.027   5.185   0.693 -0.9133 -0.6351 -0.2657
 1981SOL     OW 7689   1.006   6.059   1.912  0.0788  0.0489 -0.3879
 1981SOL    HW2 7690   0.918   6.058   1.950  1.0796 -0.4534  2.0646
 1981SOL    HW3 7691   1.008   5.983   1.854 -1.1439  0.1831 -0.6288
 1981SOL    MW4 7692   0.995   6.049   1.909 -0.3286 -0.2131 -0.1335
 1982SOL     OW 7693   2.868   0.575   3.164 -0.1501  0.1133 -0.2911
 1982SOL    HW2 7694   2.806   0.503   3.157 -1.8745  1.6223 -1.5304
 1982SOL    HW3 7695   2.918   0.556   3.244 -1.0014 -2.0572 -0.2061
 1982SOL    MW4 7696   2.866   0.563   3.174 -0.1332 -0.6354 -0.3350
 1983SOL     OW 7697   0.842   2.683   2.960  0.0695  0.2826  0.2570
 1983SOL    HW2 7698   0.782   2.614   2.933  1.8445 -1.2287 -0.0069
 1983SOL    HW3 7699   0.803   2.719   3.039 -1.0393 -0.8350  0.2506
 1983SOL    MW4 7700   0.829   2.679   2.967 -0.3435  0.5772 -0.6677
 1984SOL     OW 7701   5.048  -0.003   3.073 -0.0324  0.3928  0.4109
 1984SOL    HW2 7702   5.074  -0.078   3.019 -0.8916  0.7097 -0.4734
 1984SOL    HW3 7703   5.042  -0.038   3.162  0.7570 -0.2945  0.2079
 1984SOL    MW4 7704   5.051  -0.017   3.078  0.7533  0.1932 -0.2453
 1985SOL     OW 7705   6.294   0.157   5.073 -0.0862  0.6416  0.1682
 1985SOL    HW2 7706   6.323   0.078   5.026  0.3556  0.3047  0.9879
 1985SOL    HW3 7707   6.198   0.149   5.077 -0.0905  0.4513 -0.2782
 1985SOL    MW4 7708   6.285   0.146   5.067  0.0380 -0.0648  0.0366
 1986SOL     OW 7709   6.433   1.067   0.097 -0.3320 -0.4919  0.4862
 1986SOL    HW2 7710   6.445   1.098   0.187  0.7207 -0.1039  0.2182
 1986SOL    HW3 7711   6.504   1.106   0.048 -1.7072  0.4740 -0.8367
 1986SOL    MW4 7712   6.444   1.076   0.103  0.6257  0.3285  0.0414
 1987SOL     OW 7713   4.592   2.449   4.755  0.1421 -0.0537  0.2264
 1987SOL    HW2 7714   4.644   2.446   4.675  1.3692 -0.8385  1.0296
 1987SOL    HW3 7715   4.516   2.394   4.736 -0.2834  0.8440 -0.8446
 1987SOL    MW4 7716   4.589   2.442   4.742  0.6756 -0.5642 -0.2347
 1988SOL     OW 7717   5.147   4.258   1.354 -0.6899  0.0763  0.4554
 1988SOL    HW2 7718   5.113   4.334   1.307 -1.7377 -0.2672  0.6253
 1988SOL    HW3 7719   5.168   4.195   1.285 -0.9986  0.0615  0.3698
 1988SOL    MW4 7720   5.145   4.260   1.339 -0.5120 -0.1831  0.1192
 1989SOL     OW 7721   5.519   4.148   5.233  0.1656 -0.3808  0.2602
 1989SOL    HW2 7722   5.570   4.169   5.155  0.7802 -0.4551  0.6343
 1989SOL    HW3 7723   5.459   4.079   5.204 -1.2599  1.2088 -0.7485
 1989SOL    MW4 7724   5.518   4.142   5.219 -0.0157 -0.0521  0.4066
 1990SOL     OW 7725   3.926   2.549   3.920  0.4892 -0.6376  0.0092
 1990SOL    HW2 7726   3.892   2.490   3.988 -1.2770 -0.8402 -0.9979
 1990SOL    HW3 7727   3.858   2.551   3.853  0.4109  2.6660  0.0445
 1990SOL    MW4 7728   3.913   2.541   3.920 -1.0690  0.5211 -0.4165
 1991SOL     OW 7729   5.588   4.834   1.619  0.2696 -0.0097  0.3642
 1991SOL    HW2 7730   5.620   4.900   1.680 -0.3016  0.5325  0.0873
 1991SOL    HW3 7731   5.493   4.845   1.620  0.2909  0.4566 -1.1169
 1991SOL    MW4 7732   5.580   4.844   1.627  0.1008 -0.1710  0.1536
 1992SOL     OW 7733   5.581   1.388   0.835 -0.1574  0.3287 -0.3071
 1992SOL    HW2 7734   5.642   1.440   0.783  0.8935  0.6063  1.1318
 1992SOL    HW3 7735   5.587   1.300   0.799  1.4426  0.2534  0.0546
 1992SOL    MW4 7736   5.590   1.383   0.823 -0.1491  0.1557  0.4244
 1993SOL     OW 7737   3.784   6.312   3.104 -0.0327  0.3227  0.0519
 1993SOL    HW2 7738   3.755   6.285   3.017  1.4278 -0.0444 -0.3479
 1993SOL    HW3 7739   3.880   6.319   3.097 -0.0836  3.2924  0.7811
 1993SOL    MW4 7740   3.793   6.309   3.092  0.0544 -0.0223 -0.4205
 1994SOL     OW 7741   5.656   2.923   2.341  0.1911  0.4753  0.5540
 1994SOL    HW2 7742   5.591   2.858   2.368  1.7780 -1.1200  0.7135
 1994SOL    HW3 7743   5.695   2.886   2.262  2.0828  0.4856  1.4147
 1994SOL    MW4 7744   5.653   2.909   2.334  0.4065 -0.0276  0.1915
 1995SOL     OW 7745   6.381   1.174   2.954  0.3514 -0.1988 -0.1225
 1995SOL    HW2 7746   6.351   1.098   2.903  0.6399 -0.1801 -0.3209
 1995SOL    HW3 7747   6.435   1.224   2.893 -0.3065  0.4742 -0.1682
 1995SOL    MW4 7748   6.384   1.171   2.939 -0.0611  0.2654 -0.0697
 1996SOL     OW 7749   2.071   1.544   1.308  0.3217 -0.2758 -0.3375
 1996SOL    HW2 7750   2.154   1.537   1.262  1.3653 -2.3088  1.6922
 1996SOL    HW3 7751   2.038   1.454   1.313 -1.2148  0.2765  0.3029
 1996SOL    MW4 7752   2.077   1.531   1.303 -0.0576  0.0539  0.1485
 1997SOL     OW 7753   2.511   6.208   5.857 -0.2354 -0.8628 -0.0959
 1997SOL    HW2 7754   2.507   6.161   5.774  2.1498 -1.7797  0.2462
 1997SOL    HW3 7755   2.447   6.279   5.847 -1.2948 -1.9990 -2.0069
 1997SOL    MW4 7756   2.502   6.211   5.845 -0.2979 -0.0995  0.0447
 1998SOL     OW 7757   2.584   0.046   0.251 -0.3088  0.1731 -0.1629
 1998SOL    HW2 7758   2.566   0.131   0.212 -2.9683  0.1654  0.8423
 1998SOL    HW3 7759   2.602   0.065   0.343 -0.6148 -0.3142  0.0016
 1998SOL    MW4 7760   2.584   0.060   0.258 -0.5478 -0.2159 -0.0890
 1999SOL     OW 7761   3.746   1.828   1.558  0.0851  0.3193 -0.4250
 1999SOL    HW2 7762   3.769   1.793   1.644  0.9217 -0.2114 -0.8471
 1999SOL    HW3 7763   3.823   1.879   1.532  0.0096  0.1271 -1.0396
 1999SOL    MW4 7764   3.759   1.830   1.566 -0.3171 -0.2260 -0.0102
 2000SOL     OW 7765   3.195   4.715   5.222  0.2383  0.0063 -0.3665
 2000SOL    HW2 7766   3.228   4.746   5.138  2.2607 -0.0560  0.3374
 2000SOL    HW3 7767   3.206   4.620   5.218 -0.6357 -0.0975 -0.4126
 2000SOL    MW4 7768   3.201   4.706   5.211  0.8207 -0.5368 -0.0861
 2001SOL     OW 7769   4.976   1.929   4.374  0.0062 -0.3769 -0.2103
 2001SOL    HW2 7770   4.900   1.914   4.431 -1.9105 -0.6906 -2.6378
 2001SOL    HW3 7771   4.948   2.001   4.317  1.2439 -0.9807 -1.6399
 2001SOL    MW4 7772   4.962   1.936   4.374 -0.4907 -0.4710 -0.1795
 2002SOL     OW 7773   0.896   5.501   2.298  0.2669 -0.1542 -0.1883
 2002SOL    HW2 7774   0.932   5.444   2.367  2.1256 -0.0674 -1.0110
 2002SOL    HW3 7775   0.912   5.452   2.217 -0.6152  0.3551 -0.6787
 2002SOL    MW4 7776   0.903   5.487   2.297  0.7280 -0.4561 -0.0812
 2003SOL     OW 7777   3.811   0.969   0.295 -0.2373  0.3402  0.4133
 2003SOL    HW2 7778   3.880   1.029   0.265 -0.6191  0.8645  0.5535
 2003SOL    HW3 7779   3.857   0.893   0.329  0.2656  0.6026  0.3210
 2003SOL    MW4 7780   3.826   0.967   0.296  0.5780 -0.4755 -1.3093
 2004SOL     OW 7781   2.640   6.300   2.642  0.1723  0.2929 -0.1066
 2004SOL    HW2 7782   2.547   6.294   2.662  0.0945  0.6081 -0.3738
 2004SOL    HW3 7783   2.677   6.350   2.715  0.0223  0.7461 -0.3424
 2004SOL    MW4 7784   2.633   6.306   2.654 -0.1842  0.2415  0.0757
 2005SOL     OW 7785   2.161   0.580   4.076  0.1922  0.1600 -0.1416
 2005SOL    HW2 7786   2.129   0.498   4.039  0.3559  0.5308 -1.1472
 2005SOL    HW3 7787   2.243   0.596   4.030  1.0145  0.0520  1.2336
 2005SOL    MW4 7788   2.168   0.571   4.065 -0.2253  0.1914  0.3053
 2006SOL     OW 7789   4.342   4.250   4.849  0.0399  0.0718  0.0212
 2006SOL    HW2 7790   4.411   4.280   4.791 -0.5689 -0.6229 -1.1021
 2006SOL    HW3 7791   4.274   4.317   4.841 -0.4388 -0.4958 -0.8378
 2006SOL    MW4 7792   4.342   4.263   4.840  0.1102 -0.2114  1.0440
 2007SOL     OW 7793   0.283   5.586   2.049  0.0541  0.3157 -0.1661
 2007SOL    HW2 7794   0.201   5.558   2.090  0.3005  0.9951  0.8505
 2007SOL    HW3 7795   0.270   5.680   2.032  0.4391  0.3201 -0.4403
 2007SOL    MW4 7796   0.270   5.595   2.052  0.6626 -0.5722 -0.4537
 2008SOL     OW 7797   5.393   5.982   3.990 -0.4386  0.5477  0.4995
 2008SOL    HW2 7798   5.486   5.992   4.009 -0.0519  0.5129 -1.2172
 2008SOL    HW3 7799   5.349   6.022   4.066  0.9592  0.9262  1.1513
 2008SOL    MW4 7800   5.399   5.989   4.003  0.4152  0.2251 -0.0998
 2009SOL     OW 7801   2.999   2.557   2.006  0.3458  0.0934 -0.3359
 2009SOL    HW2 7802   3.039   2.485   2.055  1.0686  1.1372  0.6724
 2009SOL    HW3 7803   3.064   2.580   1.940  0.5736  0.4874  0.0184
 2009SOL    MW4 7804   3.013   2.550   2.004 -0.4939 -0.0055 -0.0240
 2010SOL     OW 7805   0.527   6.233   1.482 -0.4354  0.0515  0.1831
 2010SOL    HW2 7806   0.490   6.180   1.411 -2.0953 -1.6528  2.1807
 2010SOL    HW3 7807   0.618   6.248   1.456 -0.8861 -0.7522 -2.1182
 2010SOL    MW4 7808   0.534   6.228   1.469  0.0083 -0.4714 -0.2867
 2011SOL     OW 7809   0.615   1.810   5.555  0.1667 -0.1778  0.1181
 2011SOL    HW2 7810   0.567   1.749   5.612 -1.3167  2.0091  1.3423
 2011SOL    HW3 7811   0.582   1.792   5.467 -0.3150 -1.0410  0.4586
 2011SOL    MW4 7812   0.604   1.799   5.551 -0.1723  0.7067  0.5245
 2012SOL     OW 7813   3.264   1.724   5.825  0.4843  0.2019  0.4600
 2012SOL    HW2 7814   3.314   1.736   5.905  0.8160 -0.2502  0.3213
 2012SOL    HW3 7815   3.302   1.647   5.783  1.1559  1.1605 -0.7743
 2012SOL    MW4 7816   3.275   1.715   5.830 -0.3761 -0.5005  0.1452
 2013SOL     OW 7817   5.503   2.131   2.635 -0.1664  0.1956 -0.2390
 2013SOL    HW2 7818   5.442   2.060   2.652  0.0250  0.3424  1.1331
 2013SOL    HW3 7819   5.454   2.211   2.656  0.1788  0.3716 -0.0958
 2013SOL    MW4 7820   5.488   2.132   2.640  0.1091  0.5600 -0.1219
 2014SOL     OW 7821   0.550   3.189   4.376  0.3727  0.4725 -0.0634
 2014SOL    HW2 7822   0.521   3.165   4.465 -0.2485 -1.0034 -0.6321
 2014SOL    HW3 7823   0.645   3.180   4.378  0.4609  1.3597  0.6891
 2014SOL    MW4 7824   0.558   3.185   4.388 -0.6731 -0.6156 -0.7788
 2015SOL     OW 7825   3.384   5.586   3.739  0.1648 -0.8200 -0.2575
 2015SOL    HW2 7826   3.432   5.545   3.811 -0.5073 -1.0962  0.0423
 2015SOL    HW3 7827   3.356   5.671   3.775  2.6158  0.5163 -1.2758
 2015SOL    MW4 7828   3.387   5.592   3.753  0.0169 -0.1795 -0.0808
 2016SOL     OW 7829   2.285   0.927   4.094 -0.2075 -0.2749 -0.5272
 2016SOL    HW2 7830   2.349   0.856   4.106 -0.1521 -0.2406 -0.6165
 2016SOL    HW3 7831   2.267   0.927   4.000  0.5325  0.4599 -0.6908
 2016SOL    MW4 7832   2.291   0.918   4.083  0.0603 -0.3178  0.0167
 2017SOL     OW 7833   5.857   1.181   1.620  0.1711  0.0349  0.3338
 2017SOL    HW2 7834   5.867   1.148   1.531 -1.0257 -0.5511  0.4001
 2017SOL    HW3 7835   5.851   1.276   1.611 -1.2916 -0.1001 -0.3605
 2017SOL    MW4 7836   5.858   1.189   1.607  0.2117 -0.4877 -0.1215
 2018SOL     OW 7837   3.723   2.406   4.932 -0.7242 -0.4007  0.4840
 2018SOL    HW2 7838   3.815   2.420   4.909 -1.1868 -0.6167 -1.6985
 2018SOL    HW3 7839   3.685   2.494   4.935 -0.8821 -0.4087 -0.7422
 2018SOL    MW4 7840   3.730   2.420   4.930  0.3004 -0.2136  0.4830
 2019SOL     OW 7841   4.678   3.195   5.884  0.0884  0.1998  0.2468
 2019SOL    HW2 7842   4.652   3.244   5.806  0.6472 -1.4373 -1.0106
 2019SOL    HW3 7843   4.772   3.179   5.873  0.4821  1.0854  1.9399
 2019SOL    MW4 7844   4.687   3.200   5.872 -0.1241  0.1961  0.7849
 2020SOL     OW 7845   3.804   1.207   5.942  0.3793  0.4969  0.5295
 2020SOL    HW2 7846   3.718   1.173   5.966 -0.0769 -0.3213 -2.0275
 2020SOL    HW3 7847   3.862   1.174   6.011 -1.1234 -0.0117  1.6092
 2020SOL    MW4 7848   3.800   1.198   5.954  0.5810 -0.8477  0.1251
 2021SOL     OW 7849   5.558   1.635   1.545  0.0279  0.5872  0.2827
 2021SOL    HW2 7850   5.539   1.572   1.476  0.5324  1.4818 -0.7016
 2021SOL    HW3 7851   5.645   1.610   1.577 -0.4382 -0.1676  1.0055
 2021SOL    MW4 7852   5.567   1.624   1.540 -0.0835 -0.4375  0.0146
 2022SOL     OW 7853   6.151   4.856   2.386  0.0955 -0.2452 -0.1453
 2022SOL    HW2 7854   6.211   4.821   2.451  1.3340  1.0429 -0.5348
 2022SOL    HW3 7855   6.205   4.868   2.308 -1.2236 -1.2284 -1.2508
 2022SOL    MW4 7856   6.166   4.853   2.384 -0.2002 -0.2541 -0.2801
 2023SOL     OW 7857   0.691   5.831   5.214  0.4746 -0.1460  0.3321
 2023SOL    HW2 7858   0.615   5.886   5.197  1.5724  1.3042 -0.0505
 2023SOL    HW3 7859   0.665   5.776   5.288 -1.1604 -0.1517 -0.2016
 2023SOL    MW4 7860   0.678   5.831   5.222  0.3337  0.0499  0.1312
 2024SOL     OW 7861   0.549   1.289   5.119  0.2557  0.1877 -0.4269
 2024SOL    HW2 7862   0.479   1.271   5.181  1.7882  0.9108  1.6295
 2024SOL    HW3 7863   0.571   1.204   5.082  0.3696 -0.5518  1.2506
 2024SOL    MW4 7864   0.543   1.275   5.122  0.2337  0.0979  0.1927
 2025SOL     OW 7865   5.759   0.138   0.090 -0.2230 -0.0912 -0.0673
 2025SOL    HW2 7866   5.705   0.182   0.157  1.2941  0.1418  1.0515
 2025SOL    HW3 7867   5.793   0.209   0.036 -0.5312 -0.1955 -0.4081
 2025SOL    MW4 7868   5.756   0.153   0.092 -0.6906  0.4424  0.0229
 2026SOL     OW 7869   4.102   0.673   0.106  0.6041  0.4043 -0.3775
 2026SOL    HW2 7870   4.056   0.738   0.054 -0.0078  0.0231 -0.3249
 2026SOL    HW3 7871   4.181   0.718   0.136 -0.6235  1.6988  1.0839
 2026SOL    MW4 7872   4.106   0.687   0.103 -0.4907  0.3034  0.1759
 2027SOL     OW 7873   3.285   4.038   0.919 -0.0791 -0.4116  0.4915
 2027SOL    HW2 7874   3.255   4.129   0.924  0.9410 -0.0395  0.0942
 2027SOL    HW3 7875   3.301   4.013   1.010 -2.0263 -0.7936  0.7696
 2027SOL    MW4 7876   3.283   4.047   0.931 -0.7815  0.5751 -0.3191
 2028SOL     OW 7877   2.614   1.947   6.067 -0.2225  0.0593 -0.4091
 2028SOL    HW2 7878   2.610   1.938   6.162  0.1022  1.4444 -0.2394
 2028SOL    HW3 7879   2.550   1.884   6.034  0.7074 -1.5230  0.6425
 2028SOL    MW4 7880   2.605   1.937   6.075 -0.0143  0.4809  0.2024
 2029SOL     OW 7881   6.240   3.852   2.830  0.0649 -0.1386  0.5805
 2029SOL    HW2 7882   6.217   3.854   2.738 -0.5687 -1.1573  0.6958
 2029SOL    HW3 7883   6.328   3.815   2.832  0.1582  0.0755  0.3669
 2029SOL    MW4 7884   6.248   3.847   2.818 -0.3740 -0.6600  0.3880
 2030SOL     OW 7885   1.420   4.691   1.204  0.2465  0.6267  0.1341
 2030SOL    HW2 7886   1.355   4.709   1.136  0.9431 -1.6818 -1.2431
 2030SOL    HW3 7887   1.383   4.618   1.254  0.8147  0.7489  0.7576
 2030SOL    MW4 7888   1.406   4.684   1.202  0.3525 -0.1028 -0.4254
 2031SOL     OW 7889   0.510   4.509   5.746  0.1415 -0.3854 -0.3207
 2031SOL    HW2 7890   0.547   4.456   5.676  0.0164  1.2007 -1.6721
 2031SOL    HW3 7891   0.426   4.468   5.766  0.5201 -1.2891 -0.5540
 2031SOL    MW4 7892   0.504   4.497   5.740 -0.3456 -0.1955  0.6169
 2032SOL     OW 7893   5.187   4.069   4.307  0.0586 -0.3527  0.3388
 2032SOL    HW2 7894   5.106   4.111   4.277  0.2095  1.0942  1.8209
 2032SOL    HW3 7895   5.247   4.077   4.233 -0.1321  1.5137  0.3412
 2032SOL    MW4 7896   5.184   4.076   4.294 -0.0759 -0.2175  0.0741
 2033SOL     OW 7897   0.585   2.230   1.052 -0.3558 -0.4642 -0.2233
 2033SOL    HW2 7898   0.564   2.323   1.059 -0.7141 -0.4895 -0.8577
 2033SOL    HW3 7899   0.591   2.199   1.142  0.2280  0.2763 -0.0056
 2033SOL    MW4 7900   0.583   2.238   1.065 -0.0402  0.3045  0.0549
 2034SOL     OW 7901   6.169   5.123   3.041 -0.0784 -0.2123  0.3414
 2034SOL    HW2 7902   6.232   5.105   3.111 -0.1247 -1.8050 -0.0033
 2034SOL    HW3 7903   6.168   5.219   3.035 -0.5362  0.0330  2.9227
 2034SOL    MW4 7904   6.177   5.134   3.050 -0.3745 -0.4594  0.3479
 2035SOL     OW 7905   1.284   3.878   0.503  0.0656  0.0780  0.1327
 2035SOL    HW2 7906   1.224   3.844   0.569  0.0017 -0.1752 -0.0541
 2035SOL    HW3 7907   1.236   3.950   0.462  0.5539  1.0096  1.1563
 2035SOL    MW4 7908   1.270   3.883   0.506 -0.6385  0.6888  0.8027
 2036SOL     OW 7909   1.089   0.648   0.389  0.1270 -0.1333  0.0136
 2036SOL    HW2 7910   1.060   0.665   0.299  0.9669  1.5349 -0.0012
 2036SOL    HW3 7911   1.045   0.715   0.441  1.5662  0.5489  0.4189
 2036SOL    MW4 7912   1.080   0.659   0.384 -0.1962 -0.2795  0.0402
 2037SOL     OW 7913   6.040   6.297   3.765  0.3535  0.5779  0.3848
 2037SOL    HW2 7914   6.062   6.324   3.676  1.5715  1.7092  0.9995
 2037SOL    HW3 7915   6.037   6.378   3.815  0.3244 -0.0930  1.5151
 2037SOL    MW4 7916   6.043   6.311   3.760  0.4233 -0.2320 -0.4259
 2038SOL     OW 7917   1.344   2.451   4.748  0.1429 -0.4172  0.3305
 2038SOL    HW2 7918   1.388   2.518   4.800  0.4280 -1.5044  1.5159
 2038SOL    HW3 7919   1.267   2.428   4.799  0.2004 -1.2061  0.0727
 2038SOL    MW4 7920   1.339   2.457   4.761 -0.3919 -0.6335 -0.3122
 2039SOL     OW 7921   4.560   5.691   5.584 -0.8692  0.2123 -0.0930
 2039SOL    HW2 7922   4.549   5.785   5.598  0.2438  0.1977  1.0552
 2039SOL    HW3 7923   4.650   5.681   5.554 -1.0425 -0.4789 -0.4065
 2039SOL    MW4 7924   4.570   5.702   5.582 -0.2826 -0.1122  0.0270
 2040SOL     OW 7925   0.603   6.019   3.976 -0.4390 -0.1037  0.2455
 2040SOL    HW2 7926   0.691   6.010   4.011 -0.2838  1.6759  0.3763
 2040SOL    HW3 7927   0.554   5.947   4.017  0.9880 -1.3131 -0.0754
 2040SOL    MW4 7928   0.608   6.008   3.986  0.3695  0.0151  0.0114
 2041SOL     OW 7929   6.355   0.421   5.016  0.3554 -0.2244 -0.1553
 2041SOL    HW2 7930   6.297   0.449   4.945  0.0159 -0.1313  0.1596
 2041SOL    HW3 7931   6.336   0.327   5.025  1.2538 -0.5048 -0.9852
 2041SOL    MW4 7932   6.345   0.412   5.008  0.4185 -0.0187 -0.0297
 2042SOL     OW 7933   2.744   2.093   3.710  0.3903 -0.3220 -0.6818
 2042SOL    HW2 7934   2.796   2.037   3.653 -0.2784 -1.1087 -0.5369
 2042SOL    HW3 7935   2.762   2.061   3.799  1.2228  0.7210 -0.4515
 2042SOL    MW4 7936   2.753   2.081   3.714 -0.2059  0.4613 -0.5703
 2043SOL     OW 7937   3.043   3.067   5.669  0.3256  0.1759 -0.2284
 2043SOL    HW2 7938   3.137   3.083   5.666  0.2579  0.5166 -0.5324
 2043SOL    HW3 7939   3.006   3.149   5.702  0.0937  0.2136 -0.5826
 2043SOL    MW4 7940   3.051   3.080   5.673 -0.0961  0.5052  0.0413
 2044SOL     OW 7941   0.389   4.144   0.251  0.0347 -0.2793  0.0920
 2044SOL    HW2 7942   0.384   4.082   0.324 -0.0558 -2.4460 -1.6750
 2044SOL    HW3 7943   0.483   4.153   0.234  0.0752  0.4912  0.6291
 2044SOL    MW4 7944   0.401   4.137   0.258 -0.1643 -0.4967 -1.0661
 2045SOL     OW 7945   4.759   5.818   4.903 -0.1040 -0.0334 -0.1604
 2045SOL    HW2 7946   4.803   5.740   4.936 -2.9449 -0.5007  3.0652
 2045SOL    HW3 7947   4.729   5.794   4.816 -0.8402 -2.5837  0.7062
 2045SOL    MW4 7948   4.761   5.805   4.896 -0.2468 -0.2313 -0.2780
 2046SOL     OW 7949   3.249   6.348   3.361  0.2222  0.4273 -0.1376
 2046SOL    HW2 7950   3.326   6.351   3.416  0.3142  0.5073 -0.2688
 2046SOL    HW3 7951   3.184   6.300   3.412 -0.0057  1.3293  0.4395
 2046SOL    MW4 7952   3.250   6.342   3.375  0.4048 -0.0647  0.3179
 2047SOL     OW 7953   0.876   2.818   2.399  0.0130  0.1110  0.4359
 2047SOL    HW2 7954   0.796   2.864   2.373  0.5632  0.2110 -1.1677
 2047SOL    HW3 7955   0.888   2.751   2.332  1.4022  0.2700  0.4980
 2047SOL    MW4 7956   0.867   2.815   2.387  0.5887  0.0858 -0.4018
 2048SOL     OW 7957   1.288   4.692   4.359 -0.1139 -0.1549  0.2719
 2048SOL    HW2 7958   1.214   4.713   4.417 -0.0643  2.0024 -0.3718
 2048SOL    HW3 7959   1.287   4.762   4.294  2.7499  0.1726  0.4837
 2048SOL    MW4 7960   1.278   4.704   4.358  0.6344  0.0637  0.1059
 2049SOL     OW 7961   3.856   4.576   4.832  0.5554 -0.1078  0.6218
 2049SOL    HW2 7962   3.772   4.529   4.837  0.9334 -0.7380  1.4006
 2049SOL    HW3 7963   3.892   4.551   4.747 -0.1933  0.4364  0.1351
 2049SOL    MW4 7964   3.850   4.566   4.821  0.7022  0.0368  0.3386
 2050SOL     OW 7965   4.204   4.847   3.963 -0.4295  0.1779 -0.4504
 2050SOL    HW2 7966   4.117   4.848   3.923 -0.9332  1.9452  0.5851
 2050SOL    HW3 7967   4.213   4.759   4.000 -1.1008 -0.5392 -1.9277
 2050SOL    MW4 7968   4.194   4.836   3.962  0.5600  0.7281  0.5026
 2051SOL     OW 7969   0.613   0.746   6.237 -0.0727 -0.5221  0.0143
 2051SOL    HW2 7970   0.595   0.782   6.150 -0.2439 -0.8671 -0.0952
 2051SOL    HW3 7971   0.568   0.806   6.297  0.1797 -0.1947 -0.1239
 2051SOL    MW4 7972   0.604   0.759   6.234 -0.3222 -0.2423  0.8891
 2052SOL     OW 7973   2.826   1.344   4.457  0.1028 -0.2605 -0.1747
 2052SOL    HW2 7974   2.815   1.251   4.440  1.2175 -0.3653 -0.4421
 2052SOL    HW3 7975   2.919   1.353   4.481  0.0822  0.8133 -0.4474
 2052SOL    MW4 7976   2.837   1.333   4.458  0.0679 -0.0337  0.1476
 2053SOL     OW 7977   5.353   1.168   0.439 -0.0537  0.5988  0.2867
 2053SOL    HW2 7978   5.284   1.113   0.403 -0.1560  1.3813 -0.7417
 2053SOL    HW3 7979   5.434   1.121   0.418 -0.1513  0.7375 -0.4095
 2053SOL    MW4 7980   5.355   1.155   0.431  0.5785  0.4316  0.0366
 2054SOL     OW 7981   1.484   2.039   0.099  0.2089  0.0008 -0.2504
 2054SOL    HW2 7982   1.395   2.050   0.067  0.0378  2.2732  0.7682
 2054SOL    HW3 7983   1.474   1.990   0.180  0.2521 -2.3582 -1.5975
 2054SOL    MW4 7984   1.471   2.034   0.106  0.6552 -0.0633  0.5009
 2055SOL     OW 7985   5.631   6.069   4.787 -0.0123  0.2958  0.1862
 2055SOL    HW2 7986   5.618   6.051   4.694  0.2790  1.8330 -0.1708
 2055SOL    HW3 7987   5.585   6.151   4.803  0.5349  0.4221  1.2338
 2055SOL    MW4 7988   5.623   6.077   4.777  0.5787  0.2744  0.0060
 2056SOL     OW 7989   4.964   5.295   5.140  0.1239 -0.1002 -0.6432
 2056SOL    HW2 7990   4.937   5.260   5.054 -0.8571  2.4263 -1.4485
 2056SOL    HW3 7991   4.910   5.248   5.203 -1.8743  0.5905 -1.7615
 2056SOL    MW4 7992   4.954   5.284   5.137  0.1327 -0.1373  0.2712
 2057SOL     OW 7993   1.346   2.963   3.740  0.0526  0.1572  0.1686
 2057SOL    HW2 7994   1.290   2.905   3.792 -2.1474  2.4754  0.5883
 2057SOL    HW3 7995   1.341   2.929   3.651 -1.0979 -0.3695  0.4258
 2057SOL    MW4 7996   1.338   2.951   3.735 -0.5519 -0.5660 -0.5900
 2058SOL     OW 7997   4.031   5.084   2.532  0.2069  0.0944 -0.1078
 2058SOL    HW2 7998   3.975   5.136   2.474 -0.0281 -0.9731 -0.8691
 2058SOL    HW3 7999   4.107   5.061   2.478  0.5500  0.0578  0.3796
 2058SOL    MW4 8000   4.034   5.088   2.517  0.6185 -0.3789  0.1095
 2059SOL     OW 8001   1.831   4.359   4.469  0.0124 -0.3812 -0.0058
 2059SOL    HW2 8002   1.908   4.302   4.469 -0.2351 -0.7246  0.6638
 2059SOL    HW3 8003   1.810   4.372   4.562 -1.1620 -0.8775 -0.1905
 2059SOL    MW4 8004   1.839   4.353   4.481  0.8339  0.4048 -0.1009
 2060SOL     OW 8005   5.231   5.378   0.581  0.4495  0.0755 -0.3830
 2060SOL    HW2 8006   5.228   5.368   0.676 -0.9730 -0.6884 -0.4875
 2060SOL    HW3 8007   5.213   5.291   0.546  1.3431  0.2629 -1.3746
 2060SOL    MW4 8008   5.228   5.365   0.589 -0.2638 -0.3102  0.1336
 2061SOL     OW 8009   2.253   1.113   1.411  0.6046  0.2344  0.1655
 2061SOL    HW2 8010   2.321   1.136   1.348  1.0658 -1.3395  0.0504
 2061SOL    HW3 8011   2.192   1.058   1.362 -1.3530  2.3987 -0.0127
 2061SOL    MW4 8012   2.254   1.108   1.397  0.0166  0.3836  0.0003
 2062SOL     OW 8013   3.595   5.481   5.856 -0.0414  0.2236 -0.0007
 2062SOL    HW2 8014   3.635   5.464   5.941 -0.9696 -0.2911  0.3410
 2062SOL    HW3 8015   3.560   5.397   5.827 -0.9656  0.6701 -0.2401
 2062SOL    MW4 8016   3.596   5.468   5.863 -0.2959 -0.4417 -0.6829
 2063SOL     OW 8017   1.898   1.227   0.914  0.1481 -0.0658 -1.0849
 2063SOL    HW2 8018   1.832   1.168   0.879 -0.5430  0.3699 -0.5370
 2063SOL    HW3 8019   1.907   1.296   0.847 -1.3249  0.8812 -0.3587
 2063SOL    MW4 8020   1.891   1.229   0.901  0.1332 -0.6846  0.2378
 2064SOL     OW 8021   4.453   2.490   0.649 -0.0395  0.6146 -0.5408
 2064SOL    HW2 8022   4.472   2.408   0.601 -0.4706  0.5830 -0.6557
 2064SOL    HW3 8023   4.536   2.510   0.693 -0.7810 -1.6147  2.1294
 2064SOL    MW4 8024   4.467   2.482   0.648 -0.1016 -0.5101 -0.0999
 2065SOL     OW 8025   2.043   4.485   1.256  0.2770 -0.4797 -0.2569
 2065SOL    HW2 8026   2.112   4.480   1.322  0.5653 -0.5160 -0.5631
 2065SOL    HW3 8027   2.087   4.512   1.176 -0.1409 -0.0337 -0.3387
 2065SOL    MW4 8028   2.058   4.488   1.255 -0.0128  0.2052  0.0268
 2066SOL     OW 8029   3.083   4.992   5.894  0.8632  0.0065 -0.1637
 2066SOL    HW2 8030   3.149   4.935   5.934  1.4596 -0.0932 -1.2438
 2066SOL    HW3 8031   3.098   4.983   5.800 -1.1349 -0.5203 -0.4820
 2066SOL    MW4 8032   3.094   4.983   5.887  0.4685 -0.2668 -0.8704
 2067SOL     OW 8033   1.865   5.021   5.879 -0.5495  0.5368 -0.0776
 2067SOL    HW2 8034   1.911   4.963   5.818  0.2193  1.7077 -0.6355
 2067SOL    HW3 8035   1.817   5.082   5.823 -0.2253  1.3169  0.4806
 2067SOL    MW4 8036   1.865   5.021   5.864  0.1555 -0.1206 -0.5461
 2068SOL     OW 8037   3.492   4.537   2.939 -0.1454  0.0432 -0.0904
 2068SOL    HW2 8038   3.466   4.445   2.930  1.2462 -0.2248 -2.3079
 2068SOL    HW3 8039   3.581   4.539   2.903  0.0674  2.1727  0.4552
 2068SOL    MW4 8040   3.501   4.525   2.933 -0.2814 -0.2052 -0.1320
 2069SOL     OW 8041   0.607   5.235   1.450 -0.1571  0.4982  0.1520
 2069SOL    HW2 8042   0.685   5.179   1.449  0.8229  1.8134 -1.1489
 2069SOL    HW3 8043   0.637   5.318   1.413 -1.5943  1.8648  1.8636
 2069SOL    MW4 8044   0.622   5.238   1.445 -0.2342  0.1437  0.3132
 2070SOL     OW 8045   1.033   2.231   4.584  0.6987 -0.0594  0.4957
 2070SOL    HW2 8046   1.069   2.180   4.511  0.8116  0.5187  0.1387
 2070SOL    HW3 8047   1.052   2.179   4.661 -1.7303 -1.9694 -0.1084
 2070SOL    MW4 8048   1.041   2.218   4.584 -0.2816 -0.0652 -0.2408
 2071SOL     OW 8049   3.799   5.394   2.689  0.3617 -0.0010  0.3373
 2071SOL    HW2 8050   3.806   5.490   2.690 -1.1101  0.1325  1.2804
 2071SOL    HW3 8051   3.764   5.372   2.775 -1.7858 -1.1576 -0.7626
 2071SOL    MW4 8052   3.795   5.404   2.700  0.1821 -0.3969 -0.0710
 2072SOL     OW 8053   2.785   2.035   3.980 -0.0102  0.3618  0.2439
 2072SOL    HW2 8054   2.700   2.075   4.000 -0.0878 -0.1223  0.9239
 2072SOL    HW3 8055   2.774   1.943   4.003  1.1889  0.5833  1.9435
 2072SOL    MW4 8056   2.772   2.028   3.986 -0.3542 -0.1987  0.1016
 2073SOL     OW 8057   2.545   4.676   2.143 -0.1151 -0.0810  0.2425
 2073SOL    HW2 8058   2.559   4.581   2.144 -1.0938 -0.2616 -1.1437
 2073SOL    HW3 8059   2.542   4.699   2.051 -0.9885  1.1436  0.5572
 2073SOL    MW4 8060   2.547   4.666   2.131 -0.0799  0.0207 -0.2457
 2074SOL     OW 8061   4.501   0.795   6.318 -0.0664 -0.4939  0.1923
 2074SOL    HW2 8062   4.429   0.801   6.255 -1.3040 -0.9772  1.5004
 2074SOL    HW3 8063   4.545   0.713   6.297  0.1627 -0.1536 -0.6708
 2074SOL    MW4 8064   4.497   0.785   6.307  0.3331 -0.6204 -0.1475
 2075SOL     OW 8065   2.471   4.108   0.209  0.5265 -0.1112  0.8728
 2075SOL    HW2 8066   2.480   4.167   0.284  1.3854  0.7143  0.1500
 2075SOL    HW3 8067   2.533   4.142   0.144  0.1433 -1.0851 -0.0366
 2075SOL    MW4 8068   2.481   4.120   0.210 -0.0461  0.8123 -0.8583
 2076SOL     OW 8069   2.363   2.753   3.381  0.3148  0.0853  0.8170
 2076SOL    HW2 8070   2.387   2.667   3.415 -1.8198 -0.5298  0.9177
 2076SOL    HW3 8071   2.357   2.809   3.458 -2.0157 -0.6834  1.2897
 2076SOL    MW4 8072   2.365   2.749   3.395 -0.5783  0.5261 -0.5747
 2077SOL     OW 8073   5.615   0.348   1.108  0.4235 -0.3317 -0.3638
 2077SOL    HW2 8074   5.598   0.376   1.198 -0.9846 -2.4086  0.0803
 2077SOL    HW3 8075   5.593   0.424   1.055  0.9208  0.8196  0.9997
 2077SOL    MW4 8076   5.610   0.362   1.113  0.2275 -0.1385 -0.3912
 2078SOL     OW 8077   3.265   0.414   6.032 -0.0626 -0.1868  0.1968
 2078SOL    HW2 8078   3.218   0.443   5.953 -1.7385  0.8607  1.5144
 2078SOL    HW3 8079   3.200   0.368   6.083  0.6271  0.3366  1.5977
 2078SOL    MW4 8080   3.250   0.412   6.028  0.0796 -0.3980 -0.7763
 2079SOL     OW 8081   6.430   2.735   0.301  0.1269 -0.1660 -0.3255
 2079SOL    HW2 8082   6.412   2.683   0.222 -0.7611 -1.5518  0.7356
 2079SOL    HW3 8083   6.348   2.733   0.350  1.0099 -0.4208  1.2239
 2079SOL    MW4 8084   6.417   2.728   0.297 -0.2187 -0.0036  0.1812
 2080SOL     OW 8085   0.943   2.704   5.895 -0.1757 -0.7561 -0.1890
 2080SOL    HW2 8086   1.031   2.681   5.867 -0.4443 -0.9791 -0.8689
 2080SOL    HW3 8087   0.952   2.791   5.933  0.3589 -0.8306 -0.1442
 2080SOL    MW4 8088   0.955   2.713   5.896 -0.1057 -0.3419  0.4152
 2081SOL     OW 8089   1.043   2.448   3.004 -0.0103 -0.5698  0.3527
 2081SOL    HW2 8090   1.061   2.471   3.095  1.2438  0.1013 -0.0373
 2081SOL    HW3 8091   0.982   2.514   2.974 -1.2305 -1.3801  0.9737
 2081SOL    MW4 8092   1.038   2.459   3.012 -0.1974 -0.4802 -0.0288
 2082SOL     OW 8093   0.284   5.508   4.168  0.3477 -0.1865  0.0726
 2082SOL    HW2 8094   0.368   5.496   4.212 -0.0539 -0.5234  0.7612
 2082SOL    HW3 8095   0.299   5.476   4.079  1.7488  2.3761 -0.7240
 2082SOL    MW4 8096   0.297   5.502   4.162  0.3256 -0.7092  0.3280
 2083SOL     OW 8097   2.848   4.915   2.541  0.5092  0.2835  0.1143
 2083SOL    HW2 8098   2.786   4.975   2.499 -3.5138 -1.2564  3.1501
 2083SOL    HW3 8099   2.840   4.935   2.635  2.3836 -2.0660  0.8729
 2083SOL    MW4 8100   2.839   4.926   2.548  0.4658  0.5250 -0.8238
 2084SOL     OW 8101   0.698   1.082   5.010 -0.1806  0.4060 -0.7451
 2084SOL    HW2 8102   0.742   1.001   5.036  0.7603  1.5507  1.5887
 2084SOL    HW3 8103   0.769   1.137   4.977  0.3471  2.1796  2.8211
 2084SOL    MW4 8104   0.714   1.078   5.009  0.1217 -0.0184 -0.1319
 2085SOL     OW 8105   0.408   4.774   4.354  0.3171 -0.2198  0.7731
 2085SOL    HW2 8106   0.399   4.724   4.273  2.0522 -1.3423  1.2126
 2085SOL    HW3 8107   0.484   4.735   4.398  2.2516  3.2555  0.8373
 2085SOL    MW4 8108   0.416   4.762   4.349 -0.1351 -0.1336 -0.5173
 2086SOL     OW 8109   5.626   5.990   1.287 -0.4445  0.0286  0.1918
 2086SOL    HW2 8110   5.546   6.043   1.288 -0.1107  0.6376 -1.7021
 2086SOL    HW3 8111   5.595   5.900   1.284 -1.0577  0.2412 -0.0228
 2086SOL    MW4 8112   5.611   5.985   1.287  0.0750 -0.1380  0.4592
 2087SOL     OW 8113   5.256   6.383   5.306  0.0619  0.2604 -0.1190
 2087SOL    HW2 8114   5.265   6.347   5.394 -0.0688 -1.4254 -0.7544
 2087SOL    HW3 8115   5.164   6.409   5.301  0.0999  0.4822  0.2755
 2087SOL    MW4 8116   5.245   6.381   5.317  0.1969 -0.0860  0.1775
 2088SOL     OW 8117   5.711   3.826   1.986  0.3297  0.6465  0.0838
 2088SOL    HW2 8118   5.709   3.733   2.006  0.8637  0.6392  0.1253
 2088SOL    HW3 8119   5.619   3.853   1.985  0.0175 -0.2749 -1.8287
 2088SOL    MW4 8120   5.699   3.817   1.988 -0.0322  0.5952  0.1139
 2089SOL     OW 8121   1.302  -0.032   2.813  0.3424 -0.3335 -0.2658
 2089SOL    HW2 8122   1.381  -0.077   2.842 -0.4737 -1.0508  0.9222
 2089SOL    HW3 8123   1.313   0.058   2.844  1.7578  0.2234 -2.2264
 2089SOL    MW4 8124   1.314  -0.026   2.821 -0.1026  0.2521 -0.0232
 2090SOL     OW 8125   3.180   4.742   0.841  0.3305 -0.3144 -0.0805
 2090SOL    HW2 8126   3.171   4.818   0.898 -1.2422  0.4069 -1.1964
 2090SOL    HW3 8127   3.267   4.707   0.860  0.8522  1.4004  0.8965
 2090SOL    MW4 8128   3.190   4.747   0.851  0.6907 -0.0410  0.3017
 2091SOL     OW 8129   3.387   0.841   4.294  0.3063 -0.4962 -0.2294
 2091SOL    HW2 8130   3.452   0.772   4.305  0.3309 -0.6692 -1.3277
 2091SOL    HW3 8131   3.355   0.858   4.383  0.9241 -1.3022  0.1646
 2091SOL    MW4 8132   3.391   0.834   4.307  0.1538 -0.1381  0.0520
 2092SOL     OW 8133   4.454   1.300   4.936  0.4099  0.1490  0.0533
 2092SOL    HW2 8134   4.437   1.362   4.865  2.2403 -0.8857 -1.3740
 2092SOL    HW3 8135   4.541   1.325   4.969 -0.6614  1.0261  2.4597
 2092SOL    MW4 8136   4.463   1.311   4.931  0.0454 -0.4416 -0.3655
 2093SOL     OW 8137   4.436   0.174   5.382  0.1242 -0.9843 -0.5003
 2093SOL    HW2 8138   4.478   0.118   5.447 -0.1940  1.5998  2.1614
 2093SOL    HW3 8139   4.502   0.240   5.361 -1.6418  1.8828  2.1355
 2093SOL    MW4 8140   4.450   0.176   5.388  0.3272  0.1495  0.2521
 2094SOL     OW 8141   1.438   6.359   5.413 -0.0699 -0.2164 -0.0886
 2094SOL    HW2 8142   1.502   6.427   5.434  0.6910 -1.1451  0.7485
 2094SOL    HW3 8143   1.362   6.406   5.379 -0.6070  1.3144  2.8798
 2094SOL    MW4 8144   1.436   6.374   5.411 -0.2454 -0.6451  0.5282
 2095SOL     OW 8145   0.090   5.485   3.865 -0.3451  0.0938  0.1456
 2095SOL    HW2 8146   0.095   5.441   3.780  1.0648 -0.1267  0.3189
 2095SOL    HW3 8147   0.021   5.550   3.854  0.8675  1.1561 -1.6930
 2095SOL    MW4 8148   0.082   5.488   3.852 -0.5625  0.0802  0.5149
 2096SOL     OW 8149   5.721   0.010   5.440  0.0424 -0.0866  0.3847
 2096SOL    HW2 8150   5.733   0.046   5.352 -1.1339 -2.6595 -0.9347
 2096SOL    HW3 8151   5.737   0.084   5.499  1.0695  1.6703 -1.9602
 2096SOL    MW4 8152   5.725   0.025   5.436  0.1296 -0.2078 -0.4592
 2097SOL     OW 8153   6.083   4.101   1.545 -0.1356 -0.0539 -0.1952
 2097SOL    HW2 8154   5.998   4.062   1.565 -1.0867  2.5098  1.1854
 2097SOL    HW3 8155   6.146   4.046   1.591 -1.2625 -0.7183  0.5967
 2097SOL    MW4 8156   6.081   4.089   1.553 -0.7329  0.6250 -0.0963
 2098SOL     OW 8157   5.253   2.400   0.372 -0.5859 -0.8423 -0.3180
 2098SOL    HW2 8158   5.208   2.439   0.297 -0.8562 -2.3026 -0.9375
 2098SOL    HW3 8159   5.344   2.392   0.345 -0.4406 -0.2826 -0.0258
 2098SOL    MW4 8160   5.259   2.404   0.359 -0.5384  0.1210 -0.2998
 2099SOL     OW 8161   0.152   3.029   4.007  0.2361 -0.0692 -0.6294
 2099SOL    HW2 8162   0.154   2.933   4.011  0.4782 -0.0423  0.0550
 2099SOL    HW3 8163   0.232   3.056   4.053 -0.2548  0.4747 -0.0852
 2099SOL    MW4 8164   0.163   3.020   4.013  0.1527 -0.1886 -0.5500
 2100SOL     OW 8165   5.401   0.142   0.039  0.5932 -0.9225  0.1016
 2100SOL    HW2 8166   5.384   0.048   0.029  1.6383 -1.1279  0.1915
 2100SOL    HW3 8167   5.431   0.170  -0.047  1.0208 -0.8322  0.2802
 2100SOL    MW4 8168   5.402   0.133   0.026 -0.0896  0.1888  0.1158
 2101SOL     OW 8169   0.467   4.503   2.856 -0.3484 -0.1261 -0.0971
 2101SOL    HW2 8170   0.379   4.471   2.874 -0.9701 -0.5102 -3.2701
 2101SOL    HW3 8171   0.471   4.512   2.761  3.0829 -0.2368 -0.1147
 2101SOL    MW4 8172   0.456   4.500   2.846 -0.1407  0.3997 -0.3836
 2102SOL     OW 8173   3.909   5.970   4.415 -0.1236  0.2017 -0.0684
 2102SOL    HW2 8174   3.921   5.899   4.477  2.1988  0.7198  0.1418
 2102SOL    HW3 8175   3.912   6.050   4.468  0.8647  0.6050 -0.7040
 2102SOL    MW4 8176   3.911   5.971   4.430 -0.1709 -0.1624 -0.6868
 2103SOL     OW 8177   0.495   1.723   4.018  0.0241  0.2190 -0.0449
 2103SOL    HW2 8178   0.542   1.778   3.955 -1.0476  0.1606 -0.9192
 2103SOL    HW3 8179   0.474   1.643   3.969 -0.5538  0.0397  0.4870
 2103SOL    MW4 8180   0.499   1.720   4.004 -0.5071 -0.1419 -0.0017
 2104SOL     OW 8181   4.540   0.759   1.764  0.2045 -0.1053  0.0543
 2104SOL    HW2 8182   4.539   0.832   1.703 -1.2830 -0.1392 -0.0040
 2104SOL    HW3 8183   4.469   0.778   1.826  2.1960  0.3720  2.3645
 2104SOL    MW4 8184   4.530   0.771   1.764 -0.5834 -0.4683 -0.5858
 2105SOL     OW 8185   0.176   4.623   1.765  0.7162 -0.4273 -0.1569
 2105SOL    HW2 8186   0.169   4.717   1.782 -1.0399 -0.7831  1.3767
 2105SOL    HW3 8187   0.232   4.590   1.835  3.5893 -0.2399 -2.1765
 2105SOL    MW4 8188   0.182   4.631   1.776 -0.1051 -0.4503 -0.0023
 2106SOL     OW 8189   0.056   0.830   2.539  0.2996 -0.4380  0.0911
 2106SOL    HW2 8190   0.093   0.905   2.491  0.7911 -1.3586 -1.0145
 2106SOL    HW3 8191  -0.037   0.832   2.518 -0.4383  1.8684  2.8544
 2106SOL    MW4 8192   0.049   0.840   2.530  0.4073  0.0682  0.3816
 2107SOL     OW 8193   3.772   0.095   5.926 -0.4036 -0.3364 -0.5203
 2107SOL    HW2 8194   3.835   0.051   5.868  0.6666  0.5710 -0.0876
 2107SOL    HW3 8195   3.705   0.030   5.942 -0.0282 -1.0558 -1.7038
 2107SOL    MW4 8196   3.772   0.081   5.920 -0.3333 -0.2467 -0.3468
 2108SOL     OW 8197   5.074   1.529   1.734  0.3909  0.1600 -0.0445
 2108SOL    HW2 8198   5.162   1.492   1.727  0.9022  0.5761  2.9746
 2108SOL    HW3 8199   5.080   1.612   1.686  1.8190  0.4183  0.5049
 2108SOL    MW4 8200   5.087   1.535   1.727 -0.0659 -0.0435  0.3041
 2109SOL     OW 8201   1.172   2.623   1.434 -0.4228  0.3065 -0.0601
 2109SOL    HW2 8202   1.124   2.703   1.414 -0.1407  0.4026 -0.3543
 2109SOL    HW3 8203   1.235   2.649   1.502 -1.6862 -0.1187  1.3459
 2109SOL    MW4 8204   1.174   2.637   1.440 -0.0333  0.6839 -0.1748
 2110SOL     OW 8205   0.389   2.233   3.682  0.2600 -0.3455  0.1059
 2110SOL    HW2 8206   0.371   2.222   3.588 -1.0966 -2.0925  0.5290
 2110SOL    HW3 8207   0.475   2.275   3.684  0.2168 -0.0337 -1.9224
 2110SOL    MW4 8208   0.398   2.237   3.670  0.1832 -0.2776 -0.8820
 2111SOL     OW 8209   6.164   2.556   5.413 -0.0738 -0.2696  0.0833
 2111SOL    HW2 8210   6.235   2.540   5.475  0.5820  0.4200 -0.4663
 2111SOL    HW3 8211   6.131   2.643   5.437  0.2184  0.0221 -0.5459
 2111SOL    MW4 8212   6.169   2.566   5.425 -0.8084  0.2616 -0.1834
 2112SOL     OW 8213   0.309   5.838   1.267 -0.2943  0.0949  0.4320
 2112SOL    HW2 8214   0.363   5.808   1.340 -0.6662 -3.6815 -0.6242
 2112SOL    HW3 8215   0.220   5.835   1.300 -0.3288  0.0257  0.3343
 2112SOL    MW4 8216   0.305   5.833   1.281 -0.0755  0.1307 -0.2980
 2113SOL     OW 8217   0.742   4.819   1.210  0.5428 -0.2204 -0.3958
 2113SOL    HW2 8218   0.753   4.770   1.291  0.1386  0.2430 -0.0596
 2113SOL    HW3 8219   0.650   4.807   1.186 -0.0444  1.8270  0.6534
 2113SOL    MW4 8220   0.732   4.811   1.217 -1.1102  0.5280  0.2511
 2114SOL     OW 8221   1.807   1.619   3.809 -0.3190  0.0603 -0.1882
 2114SOL    HW2 8222   1.900   1.599   3.817 -0.6840 -1.0931  1.9148
 2114SOL    HW3 8223   1.789   1.616   3.715  1.4319 -1.2661 -0.5240
 2114SOL    MW4 8224   1.817   1.616   3.798  0.0932 -0.5606  0.0491
 2115SOL     OW 8225   3.606   4.978   0.917 -0.5695  0.0369  0.5261
 2115SOL    HW2 8226   3.524   5.007   0.958 -1.8771 -1.4914 -0.8265
 2115SOL    HW3 8227   3.596   4.883   0.909  1.8070 -0.3228  1.2249
 2115SOL    MW4 8228   3.594   4.969   0.921  0.8464  0.0112 -0.1879
 2116SOL     OW 8229   4.241   4.989   2.387  0.0730 -0.1031  0.7516
 2116SOL    HW2 8230   4.313   4.940   2.426 -0.0195 -0.0337  1.0104
 2116SOL    HW3 8231   4.196   4.925   2.330  0.2466 -0.1853  0.7056
 2116SOL    MW4 8232   4.245   4.974   2.384  0.5670  0.7754 -0.2562
 2117SOL     OW 8233   4.536   3.323   5.672  0.1985 -0.4529 -0.1202
 2117SOL    HW2 8234   4.579   3.377   5.606  0.5730 -0.6481 -0.0400
 2117SOL    HW3 8235   4.443   3.326   5.650  0.2391  0.0893 -0.2126
 2117SOL    MW4 8236   4.529   3.330   5.661 -0.9790  0.3672  0.1842
 2118SOL     OW 8237   4.435   4.117   0.723 -0.2111  0.2620 -0.7777
 2118SOL    HW2 8238   4.492   4.192   0.704 -1.8042  1.1682 -2.2393
 2118SOL    HW3 8239   4.491   4.057   0.774  1.5103  1.8250 -0.7133
 2118SOL    MW4 8240   4.450   4.119   0.727  0.0181 -0.5025 -0.7374
 2119SOL     OW 8241   4.903   3.697   5.166 -0.0515  0.9361  0.6361
 2119SOL    HW2 8242   4.913   3.609   5.131 -2.4127  1.3485 -1.3553
 2119SOL    HW3 8243   4.985   3.742   5.144  0.0770  0.0188 -0.8381
 2119SOL    MW4 8244   4.915   3.691   5.158 -0.5734  0.6139 -0.3567
 2120SOL     OW 8245   1.213   2.910   0.442  0.2168  0.2480  0.2974
 2120SOL    HW2 8246   1.262   2.967   0.383  1.0167 -0.3111  0.3984
 2120SOL    HW3 8247   1.275   2.891   0.513  1.2393 -3.3895 -1.3250
 2120SOL    MW4 8248   1.228   2.915   0.444  0.9831  0.1706 -0.4103
 2121SOL     OW 8249   2.208   5.543   5.254  0.0214 -0.0390 -0.0005
 2121SOL    HW2 8250   2.268   5.513   5.186 -1.9365 -0.5712 -1.6100
 2121SOL    HW3 8251   2.159   5.464   5.279 -1.0146  0.6376  0.1708
 2121SOL    MW4 8252   2.209   5.528   5.249  0.1125  0.0881  0.1013
 2122SOL     OW 8253   2.095   0.234   0.447  0.8883  0.0241 -0.2705
 2122SOL    HW2 8254   2.129   0.258   0.533  1.9236 -0.3425 -0.5706
 2122SOL    HW3 8255   2.055   0.148   0.460  0.0051  0.4662  0.0852
 2122SOL    MW4 8256   2.094   0.226   0.460 -0.4652  0.0479 -0.3909
 2123SOL     OW 8257   4.954   3.883   5.500 -0.9428 -0.3862  0.5875
 2123SOL    HW2 8258   4.928   3.918   5.414  1.8227 -0.1498 -0.2643
 2123SOL    HW3 8259   4.976   3.792   5.483  1.9174  0.2493  0.4077
 2123SOL    MW4 8260   4.953   3.876   5.486  0.1419 -0.3242 -0.1501
 2124SOL     OW 8261   1.965   3.149   3.337 -0.5310 -0.5723  0.4325
 2124SOL    HW2 8262   1.942   3.165   3.246  1.9792 -0.0038 -0.1814
 2124SOL    HW3 8263   1.993   3.058   3.339 -2.3138 -1.1352  1.0705
 2124SOL    MW4 8264   1.966   3.139   3.325 -0.1971  0.0186  0.0964
 2125SOL     OW 8265   4.020   1.826   2.769 -0.0135  0.2333  0.3278
 2125SOL    HW2 8266   4.043   1.806   2.678 -1.9331 -0.6178 -0.0273
 2125SOL    HW3 8267   3.925   1.840   2.767  0.0681  1.3446  2.0255
 2125SOL    MW4 8268   4.011   1.826   2.757 -0.0688  0.6342  0.0677
 2126SOL     OW 8269   4.571   6.074   2.503  0.2605 -0.0672  0.4275
 2126SOL    HW2 8270   4.570   6.137   2.575  0.1177  2.1643 -1.4161
 2126SOL    HW3 8271   4.644   6.103   2.448 -2.0728  0.9127 -2.4133
 2126SOL    MW4 8272   4.581   6.086   2.505 -0.2787 -0.2236  0.7017
 2127SOL     OW 8273   1.556   0.856   0.147 -0.3071 -0.2479  0.1875
 2127SOL    HW2 8274   1.644   0.886   0.167  0.0063  0.1002 -1.5871
 2127SOL    HW3 8275   1.499   0.926   0.179  0.0130 -0.5542  1.4981
 2127SOL    MW4 8276   1.560   0.869   0.154 -0.6252 -0.3592  0.0723
 2128SOL     OW 8277   2.033   0.584   5.124 -0.4848 -0.1264  0.1898
 2128SOL    HW2 8278   2.114   0.543   5.092 -1.0523  0.2624 -1.8792
 2128SOL    HW3 8279   2.019   0.546   5.210  0.3460 -2.4114 -0.6243
 2128SOL    MW4 8280   2.042   0.574   5.131  0.1664 -0.6066  0.3538
 2129SOL     OW 8281   0.980   0.516   1.505 -0.2416 -0.0937  0.5006
 2129SOL    HW2 8282   0.933   0.480   1.580  0.1860  1.1169  1.3863
 2129SOL    HW3 8283   0.912   0.536   1.441 -0.9213  1.2381  1.5942
 2129SOL    MW4 8284   0.965   0.514   1.507 -0.2174  0.0112 -0.0555
 2130SOL     OW 8285   1.521   1.100   5.786  0.1772  0.2068 -0.3917
 2130SOL    HW2 8286   1.431   1.133   5.783 -0.5573 -1.5476  1.0043
 2130SOL    HW3 8287   1.523   1.032   5.719 -0.4336 -1.7211  1.4487
 2130SOL    MW4 8288   1.509   1.096   5.776  0.1670 -0.2314 -0.1835
 2131SOL     OW 8289   3.047   6.221   3.505  0.9223 -0.0278 -0.0046
 2131SOL    HW2 8290   3.057   6.129   3.478 -4.4430 -0.9436  0.0025
 2131SOL    HW3 8291   3.008   6.216   3.592 -0.0585  2.2262 -0.2456
 2131SOL    MW4 8292   3.043   6.208   3.513  0.0323  0.1533 -0.2826
 2132SOL     OW 8293   3.153   1.825   1.035  0.2581  0.1241 -0.0404
 2132SOL    HW2 8294   3.157   1.920   1.051  0.9705 -0.1610  1.6671
 2132SOL    HW3 8295   3.131   1.818   0.942  0.0410  1.9629 -0.1773
 2132SOL    MW4 8296   3.150   1.837   1.025 -0.5105  0.4190 -0.6110
 2133SOL     OW 8297   2.773   5.384   4.515 -0.2019 -0.0742  0.3108
 2133SOL    HW2 8298   2.733   5.347   4.436 -0.2586  0.8641 -0.1122
 2133SOL    HW3 8299   2.813   5.466   4.485 -0.8003  0.6258  1.3875
 2133SOL    MW4 8300   2.773   5.390   4.500 -0.0969  0.0643 -0.7684
 2134SOL     OW 8301   3.671   2.549   4.297 -0.0173  0.0813  0.0045
 2134SOL    HW2 8302   3.650   2.514   4.384 -0.2940 -0.3609 -0.2351
 2134SOL    HW3 8303   3.651   2.642   4.303  0.4438  0.1467  0.5648
 2134SOL    MW4 8304   3.666   2.557   4.309  0.2224  0.1798  0.4628
 2135SOL     OW 8305   1.693   2.709   3.078 -0.4859 -0.2244  1.0032
 2135SOL    HW2 8306   1.752   2.716   3.153 -1.1509  1.5769  1.4083
 2135SOL    HW3 8307   1.742   2.658   3.014  0.2880 -1.3948  2.4591
 2135SOL    MW4 8308   1.707   2.703   3.080 -0.0805 -0.2006  0.0412
 2136SOL     OW 8309   3.825   6.344   2.581  0.1409 -0.0430 -0.4069
 2136SOL    HW2 8310   3.861   6.259   2.610 -1.3552 -0.6783 -0.3328
 2136SOL    HW3 8311   3.744   6.353   2.631 -0.3584  0.8427 -1.3631
 2136SOL    MW4 8312   3.819   6.334   2.592  0.0986  0.1612  0.0728
 2137SOL     OW 8313   3.188   3.555   3.393 -0.5441 -0.4888 -0.3738
 2137SOL    HW2 8314   3.267   3.590   3.433 -1.0090  0.6160 -0.3927
 2137SOL    HW3 8315   3.131   3.534   3.467  0.2542 -2.6102 -0.2779
 2137SOL    MW4 8316   3.191   3.556   3.408 -0.1665 -0.1536  0.0379
 2138SOL     OW 8317   2.746   0.318   0.044 -0.1318 -0.2608  0.4725
 2138SOL    HW2 8318   2.657   0.326   0.079 -0.1884  0.4728  0.1805
 2138SOL    HW3 8319   2.750   0.229   0.009 -1.9011  0.6865 -2.5353
 2138SOL    MW4 8320   2.734   0.307   0.044  0.9793 -0.7122 -0.1634
 2139SOL     OW 8321   4.104   6.365   4.656 -0.4062  0.0489 -0.7163
 2139SOL    HW2 8322   4.148   6.448   4.633  2.0269 -0.8019  0.5302
 2139SOL    HW3 8323   4.047   6.388   4.729  2.0941  0.3330  1.3277
 2139SOL    MW4 8324   4.103   6.379   4.662  0.2836 -0.4506  0.0742
 2140SOL     OW 8325   3.778   1.689   5.838 -0.0640  0.0755 -0.0847
 2140SOL    HW2 8326   3.752   1.599   5.857  0.2684  0.2009  1.0362
 2140SOL    HW3 8327   3.873   1.690   5.850 -0.0782  0.6052  0.0245
 2140SOL    MW4 8328   3.787   1.678   5.842  0.3118  0.1286 -0.8710
 2141SOL     OW 8329   3.040   3.339   6.231 -0.0890  0.2797 -0.0793
 2141SOL    HW2 8330   3.025   3.332   6.326 -2.0111  1.6270 -0.2148
 2141SOL    HW3 8331   3.135   3.346   6.223  0.0637  1.8657  1.9503
 2141SOL    MW4 8332   3.050   3.339   6.243  0.3136  0.0372 -0.6098
 2142SOL     OW 8333   6.099   5.550   2.671 -0.0957  0.4383  0.0313
 2142SOL    HW2 8334   6.150   5.604   2.731  3.6968 -1.3294 -1.2529
 2142SOL    HW3 8335   6.070   5.476   2.724 -0.0302  0.7373  0.4920
 2142SOL    MW4 8336   6.102   5.547   2.686 -0.0028  0.2647 -0.1194
 2143SOL     OW 8337   0.065   3.248   5.840  0.1545 -0.1187 -0.6588
 2143SOL    HW2 8338   0.025   3.232   5.925  0.3754  0.2462 -0.4832
 2143SOL    HW3 8339   0.028   3.331   5.811  1.7674  0.9365  0.1244
 2143SOL    MW4 8340   0.055   3.257   5.847  0.2922 -0.2921 -0.6844
 2144SOL     OW 8341   2.625   5.128   1.128 -0.1952  0.7158 -0.1783
 2144SOL    HW2 8342   2.537   5.119   1.164  0.6049 -1.2111  1.4853
 2144SOL    HW3 8343   2.655   5.038   1.114  1.4376  1.3311 -0.8921
 2144SOL    MW4 8344   2.617   5.115   1.131 -0.8448 -0.0911  0.0952
 2145SOL     OW 8345   4.363   4.242   4.241 -0.2185  0.1855 -0.6519
 2145SOL    HW2 8346   4.453   4.272   4.251 -0.4934  0.5396  1.1621
 2145SOL    HW3 8347   4.340   4.264   4.151  1.0528  1.3504 -0.7304
 2145SOL    MW4 8348   4.372   4.249   4.230 -0.1931 -0.8885  0.0703
 2146SOL     OW 8349   5.271   3.679   4.029  0.1039  0.1907  0.1920
 2146SOL    HW2 8350   5.269   3.724   4.114 -0.0371  0.0478  0.2653
 2146SOL    HW3 8351   5.179   3.662   4.009  0.1581 -0.1071  0.1894
 2146SOL    MW4 8352   5.259   3.682   4.038  0.2217 -0.0929  0.3915
 2147SOL     OW 8353   6.030   1.424   1.901 -0.1627  0.0777 -0.4642
 2147SOL    HW2 8354   6.035   1.329   1.913 -0.2171  0.2278  0.9801
 2147SOL    HW3 8355   6.077   1.460   1.976  2.0964  1.2195 -2.2891
 2147SOL    MW4 8356   6.037   1.417   1.912  0.1639 -0.7157  0.4568
 2148SOL     OW 8357   3.963   0.531   0.541  0.5298 -0.1309  0.0506
 2148SOL    HW2 8358   3.874   0.529   0.577 -0.1065  1.0039 -1.3434
 2148SOL    HW3 8359   4.020   0.521   0.618 -0.7808  0.3944  1.1410
 2148SOL    MW4 8360   3.959   0.530   0.556 -0.2384  0.1796 -0.2408
 2149SOL     OW 8361   4.439   5.576   0.527  0.1458  0.3768  0.3347
 2149SOL    HW2 8362   4.472   5.521   0.597  1.3225  2.3773  1.4293
 2149SOL    HW3 8363   4.518   5.608   0.482 -0.5485  0.2056 -1.0716
 2149SOL    MW4 8364   4.454   5.573   0.530 -0.3685  0.7605  0.0225
 2150SOL     OW 8365   0.088   5.679   0.202  0.5916  0.4317  0.3529
 2150SOL    HW2 8366   0.097   5.714   0.291 -0.3845  1.1080  0.1971
 2150SOL    HW3 8367  -0.002   5.647   0.197  1.0615 -0.9368  0.0556
 2150SOL    MW4 8368   0.078   5.679   0.213 -0.2466  0.0290  0.2757
 2151SOL     OW 8369   4.775   2.571   5.476 -0.0715 -0.4866  0.0576
 2151SOL    HW2 8370   4.688   2.569   5.435 -0.4751  0.6799  0.8103
 2151SOL    HW3 8371   4.834   2.596   5.405 -0.2906 -1.5719 -0.5288
 2151SOL    MW4 8372   4.771   2.574   5.461  0.0740 -1.0189  0.6096
 2152SOL     OW 8373   4.678   4.608   1.015 -0.4122  0.4572  0.0074
 2152SOL    HW2 8374   4.638   4.532   0.973 -0.8178  0.9296 -0.4765
 2152SOL    HW3 8375   4.769   4.608   0.984 -0.3485  0.0456  0.1878
 2152SOL    MW4 8376   4.685   4.598   1.006  0.0880  0.1648 -0.3673
 2153SOL     OW 8377   0.792   1.148   0.031  0.3048  0.2535 -0.2916
 2153SOL    HW2 8378   0.804   1.137  -0.064 -1.6382  0.6591 -0.6378
 2153SOL    HW3 8379   0.758   1.237   0.040  0.0393  0.0591  0.7454
 2153SOL    MW4 8380   0.789   1.159   0.019  0.3257 -0.4388  0.3471
 2154SOL     OW 8381   3.600   4.227   4.459  0.0961 -0.8346  0.0971
 2154SOL    HW2 8382   3.661   4.223   4.533 -0.1744 -0.5977  0.3345
 2154SOL    HW3 8383   3.514   4.220   4.499 -0.1766  1.4208  0.0345
 2154SOL    MW4 8384   3.597   4.226   4.474 -0.8526 -0.6903  0.2474
 2155SOL     OW 8385   3.556   5.732   4.470  0.1134 -0.0428 -0.1192
 2155SOL    HW2 8386   3.571   5.640   4.495  1.3536  0.4736  1.1800
 2155SOL    HW3 8387   3.581   5.782   4.548 -2.1943  1.3373 -0.1844
 2155SOL    MW4 8388   3.561   5.726   4.484  0.2635 -0.2568 -0.5449
 2156SOL     OW 8389   1.548   3.791   0.972  0.3948  0.5250 -0.3761
 2156SOL    HW2 8390   1.619   3.742   0.931 -0.7026 -1.5001  0.0051
 2156SOL    HW3 8391   1.592   3.858   1.024  2.0739 -0.9047  0.1518
 2156SOL    MW4 8392   1.563   3.793   0.974  0.0783 -0.6375 -0.3190
 2157SOL     OW 8393   5.014   4.746   2.009  0.0477 -0.1185 -0.0589
 2157SOL    HW2 8394   5.029   4.711   1.921  2.5067 -1.2286  0.7196
 2157SOL    HW3 8395   4.921   4.731   2.025  0.0187 -1.9878 -1.5873
 2157SOL    MW4 8396   5.004   4.740   1.999 -0.3559  0.1908  0.1296
 2158SOL     OW 8397   0.147   5.458   1.099  0.2797  0.2501  0.2329
 2158SOL    HW2 8398   0.059   5.424   1.084  0.2121 -0.1164  1.4261
 2158SOL    HW3 8399   0.152   5.474   1.193  0.0266  4.3165 -0.2653
 2158SOL    MW4 8400   0.136   5.456   1.109  0.5110  0.6212  0.4447
 2159SOL     OW 8401   2.114   3.807   1.344 -0.2881 -0.6510 -0.3825
 2159SOL    HW2 8402   2.059   3.776   1.416 -0.9518 -0.3501 -0.7560
 2159SOL    HW3 8403   2.175   3.868   1.385 -1.6001  0.6443 -0.2909
 2159SOL    MW4 8404   2.115   3.811   1.359  0.1449  0.2044 -0.6609
 2160SOL     OW 8405   5.956   5.443   4.774  0.1976  0.5542 -0.1833
 2160SOL    HW2 8406   5.870   5.482   4.790 -1.1286 -1.9367 -0.7599
 2160SOL    HW3 8407   6.002   5.450   4.858 -0.2035  2.5958 -0.0731
 2160SOL    MW4 8408   5.951   5.449   4.787 -0.2170  0.1387 -0.0024
 2161SOL     OW 8409   1.684   3.997   4.122  0.0045 -0.2750 -0.0271
 2161SOL    HW2 8410   1.605   4.029   4.165  0.1158 -1.2635  0.9437
 2161SOL    HW3 8411   1.716   4.072   4.071 -1.6247  0.0899 -0.5596
 2161SOL    MW4 8412   1.678   4.011   4.121 -0.1694  0.8833  0.6305
 2162SOL     OW 8413   1.618   3.044   3.426 -0.2176  0.0797 -0.0961
 2162SOL    HW2 8414   1.537   2.995   3.440  0.1695 -0.5818 -0.1159
 2162SOL    HW3 8415   1.609   3.080   3.338 -0.6587  0.3411  0.0515
 2162SOL    MW4 8416   1.606   3.042   3.417 -0.1428  0.0504 -0.7611
 2163SOL     OW 8417   0.692   4.083   5.165 -0.2872 -0.0375  0.1911
 2163SOL    HW2 8418   0.644   4.055   5.242 -0.8593  0.6024  0.0752
 2163SOL    HW3 8419   0.626   4.123   5.109 -0.0671 -1.3152 -1.0492
 2163SOL    MW4 8420   0.677   4.084   5.167  0.3501 -0.1939  0.0004
 2164SOL     OW 8421   3.475   1.271   0.809  0.6375 -0.4292  0.1770
 2164SOL    HW2 8422   3.556   1.222   0.820  1.1033  0.4412  0.8233
 2164SOL    HW3 8423   3.503   1.363   0.810 -0.4056 -0.0987  0.9361
 2164SOL    MW4 8424   3.490   1.277   0.811  0.2940  0.1357  0.0654
 2165SOL     OW 8425   2.215   2.946   0.646 -0.2812 -0.2757 -0.0127
 2165SOL    HW2 8426   2.174   2.889   0.581 -1.6020  1.2272 -0.5707
 2165SOL    HW3 8427   2.152   2.951   0.718 -0.0077  0.1393  0.2035
 2165SOL    MW4 8428   2.201   2.939   0.647  0.3979  0.9779  0.7403
 2166SOL     OW 8429   1.897   5.659   2.973  0.0297 -0.1314 -0.2467
 2166SOL    HW2 8430   1.966   5.672   3.038  1.0486 -1.9970 -0.8875
 2166SOL    HW3 8431   1.830   5.609   3.019 -0.6865  1.1959  0.2108
 2166SOL    MW4 8432   1.897   5.654   2.988 -0.0095  0.2555 -0.0321
 2167SOL     OW 8433   3.095   2.777   2.744  0.1761 -0.5826  0.3792
 2167SOL    HW2 8434   3.005   2.793   2.714  0.9971  0.3380 -1.8285
 2167SOL    HW3 8435   3.142   2.858   2.722  1.6951 -1.3068  0.8450
 2167SOL    MW4 8436   3.089   2.790   2.737 -0.0992  0.3452  0.0030
 2168SOL     OW 8437   1.085   2.812   3.293 -0.0555  0.2219  0.1798
 2168SOL    HW2 8438   1.075   2.875   3.221 -0.4826 -0.4178 -0.3273
 2168SOL    HW3 8439   1.011   2.832   3.351 -0.4977 -0.1445 -0.2452
 2168SOL    MW4 8440   1.074   2.823   3.291  0.2807 -0.6495  0.0863
 2169SOL     OW 8441   5.468   5.791   3.241  0.0134 -0.0530 -0.5854
 2169SOL    HW2 8442   5.538   5.781   3.177  0.9511  0.8377  0.2542
 2169SOL    HW3 8443   5.472   5.883   3.266  1.2312 -0.7977  2.4117
 2169SOL    MW4 8444   5.478   5.802   3.236 -0.0258 -0.1946  0.1095
 2170SOL     OW 8445   3.225   2.374   1.756  0.2408  0.4069  0.1477
 2170SOL    HW2 8446   3.279   2.389   1.834 -0.2501 -3.3105  1.4124
 2170SOL    HW3 8447   3.278   2.405   1.683  2.6492  0.0094  1.6160
 2170SOL    MW4 8448   3.239   2.380   1.757  0.8358  0.4237 -0.6143
 2171SOL     OW 8449   6.241   0.325   4.404  0.6041 -0.4530 -0.1638
 2171SOL    HW2 8450   6.329   0.354   4.380  0.7159 -0.4343  0.2638
 2171SOL    HW3 8451   6.251   0.290   4.493 -0.0686  0.7241  0.3953
 2171SOL    MW4 8452   6.254   0.324   4.412  0.4578  0.3198 -0.5217
 2172SOL     OW 8453   0.679   5.625   3.489  0.3128 -0.2892 -0.0758
 2172SOL    HW2 8454   0.736   5.559   3.529  2.7235  1.4048 -0.5210
 2172SOL    HW3 8455   0.697   5.705   3.538 -1.2604  0.4624 -0.6526
 2172SOL    MW4 8456   0.689   5.627   3.501 -0.2785 -0.9177 -0.8277
 2173SOL     OW 8457   1.481   3.998   5.761  0.2177 -0.3277  0.0643
 2173SOL    HW2 8458   1.441   3.922   5.717 -1.4515  2.0659 -2.9494
 2173SOL    HW3 8459   1.538   4.036   5.694  1.2457  0.9099  1.5967
 2173SOL    MW4 8460   1.483   3.993   5.746 -0.0804  0.1141  0.8023
 2174SOL     OW 8461   4.358   6.136   2.831  0.8317  0.0617  0.3506
 2174SOL    HW2 8462   4.306   6.119   2.910 -2.2036 -2.6941 -1.9797
 2174SOL    HW3 8463   4.302   6.192   2.777  1.1611 -1.1531 -1.3266
 2174SOL    MW4 8464   4.344   6.141   2.835 -0.1039 -0.5425  0.2340
 2175SOL     OW 8465   5.554   4.826   4.352 -0.5691  0.2947 -0.1566
 2175SOL    HW2 8466   5.579   4.911   4.317  3.4148  0.5592  2.6272
 2175SOL    HW3 8467   5.515   4.846   4.438  2.1406 -0.5884  1.3774
 2175SOL    MW4 8468   5.552   4.840   4.359  0.4882 -0.0922 -0.4042
 2176SOL     OW 8469   0.843   3.567   2.470 -0.2772  0.1687 -0.2374
 2176SOL    HW2 8470   0.867   3.552   2.561 -0.9070 -0.3712 -0.1520
 2176SOL    HW3 8471   0.907   3.516   2.420 -0.3822 -0.1412 -0.0631
 2176SOL    MW4 8472   0.855   3.558   2.475 -0.0503 -0.1206 -0.6425
 2177SOL     OW 8473   1.964   3.292   1.385 -0.1806  0.1404 -0.3268
 2177SOL    HW2 8474   1.988   3.204   1.412 -0.6158 -0.2460 -1.1528
 2177SOL    HW3 8475   1.926   3.281   1.298  1.1360  1.3303 -1.0952
 2177SOL    MW4 8476   1.962   3.279   1.377 -0.1145  0.2009 -0.3814
 2178SOL     OW 8477   0.671   1.611   3.361 -0.5362  0.0937  0.6968
 2178SOL    HW2 8478   0.622   1.609   3.443 -2.3932  1.7163 -0.2705
 2178SOL    HW3 8479   0.737   1.680   3.374  0.6868 -1.1947  1.5530
 2178SOL    MW4 8480   0.673   1.620   3.373  0.3281 -0.5961  0.1445
 2179SOL     OW 8481   1.513   3.696   1.600 -0.0598  0.5747 -0.0549
 2179SOL    HW2 8482   1.469   3.718   1.683 -1.1786 -0.4275 -0.3624
 2179SOL    HW3 8483   1.605   3.685   1.625 -0.4565 -0.2064  1.1630
 2179SOL    MW4 8484   1.520   3.698   1.615  0.2752  0.0605 -0.7291
 2180SOL     OW 8485   1.914   0.266   3.034 -0.4086 -0.1058  0.4355
 2180SOL    HW2 8486   1.941   0.306   2.952 -1.5309 -0.6239 -0.2143
 2180SOL    HW3 8487   1.933   0.173   3.024 -1.3863 -0.3148  0.3765
 2180SOL    MW4 8488   1.920   0.259   3.022  0.0701 -0.0172 -0.0568
 2181SOL     OW 8489   3.971   0.896   1.940 -0.2375  0.7294  0.1150
 2181SOL    HW2 8490   3.892   0.924   1.894  1.1411  0.4581 -2.6806
 2181SOL    HW3 8491   4.014   0.977   1.965  0.2966  1.0359 -1.6285
 2181SOL    MW4 8492   3.966   0.910   1.937 -0.1777 -0.2253 -0.0012
 2182SOL     OW 8493   1.337   5.552   3.313  0.1292  0.0643 -0.3325
 2182SOL    HW2 8494   1.354   5.464   3.347 -1.4498 -0.3614 -0.5673
 2182SOL    HW3 8495   1.323   5.605   3.391  2.0353  0.3757 -0.1370
 2182SOL    MW4 8496   1.338   5.547   3.328 -0.4258  0.2885 -0.0305
 2183SOL     OW 8497   4.374   1.781   4.215  0.2303  0.1891  0.9582
 2183SOL    HW2 8498   4.457   1.802   4.172  0.2876 -3.6627 -1.2364
 2183SOL    HW3 8499   4.400   1.745   4.300  0.6933  0.3456  0.8887
 2183SOL    MW4 8500   4.388   1.779   4.220 -0.0747  0.3257 -0.2249
 2184SOL     OW 8501   4.569   5.453   3.409  0.1782  0.0581  0.1134
 2184SOL    HW2 8502   4.566   5.547   3.390  3.0066  0.1937 -0.1436
 2184SOL    HW3 8503   4.504   5.414   3.352  0.3155  1.6818 -1.2192
 2184SOL    MW4 8504   4.560   5.460   3.399 -0.5260 -0.1704 -0.2824
 2185SOL     OW 8505   1.350   5.908   2.083  0.2632  0.2593  0.2376
 2185SOL    HW2 8506   1.321   5.969   2.015  1.8029  1.9062  0.9587
 2185SOL    HW3 8507   1.385   5.833   2.035 -3.9271 -1.3557 -0.6586
 2185SOL    MW4 8508   1.351   5.906   2.068 -0.0636 -0.4082 -0.2591
 2186SOL     OW 8509   2.999   4.503   2.696 -0.3317  0.2125 -0.2218
 2186SOL    HW2 8510   3.054   4.543   2.764  0.6164 -0.5469 -0.5232
 2186SOL    HW3 8511   3.000   4.566   2.624 -0.1345  0.3548 -0.0959
 2186SOL    MW4 8512   3.006   4.517   2.696 -0.1127  0.4272 -0.3905
 2187SOL     OW 8513   1.006   5.452   5.775 -0.2521  0.5573  0.4733
 2187SOL    HW2 8514   1.059   5.378   5.744 -2.4041  0.2592 -3.1357
 2187SOL    HW3 8515   1.058   5.530   5.754  0.9585  0.1859  1.9743
 2187SOL    MW4 8516   1.020   5.453   5.768  0.4435 -0.4146  0.1799
 2188SOL     OW 8517   5.250   1.612   1.315  0.2565  0.1097  0.6366
 2188SOL    HW2 8518   5.164   1.588   1.348  0.9897 -1.2353  1.6666
 2188SOL    HW3 8519   5.245   1.593   1.221 -0.5737  0.0998  0.6707
 2188SOL    MW4 8520   5.238   1.606   1.307  0.4308  0.1544  0.1663
 2189SOL     OW 8521   1.759   4.971   5.453 -0.1752 -0.0448 -0.3633
 2189SOL    HW2 8522   1.836   4.978   5.510 -0.3883  1.6129 -0.2248
 2189SOL    HW3 8523   1.686   5.000   5.508 -0.3795  1.6337 -1.4377
 2189SOL    MW4 8524   1.759   4.976   5.468  0.5540  0.1301  0.5916
 2190SOL     OW 8525   5.254   4.838   0.941  0.3963  0.0963 -0.1593
 2190SOL    HW2 8526   5.345   4.813   0.955 -0.1130 -1.4719  0.5777
 2190SOL    HW3 8527   5.223   4.778   0.874 -0.5211 -0.4347  0.7278
 2190SOL    MW4 8528   5.262   4.827   0.934  0.1455 -0.0338 -0.1186
 2191SOL     OW 8529   2.624   4.190   2.299 -0.1868  0.1765 -0.2747
 2191SOL    HW2 8530   2.679   4.208   2.375 -1.0415  0.8955  0.1814
 2191SOL    HW3 8531   2.535   4.201   2.330 -0.5700 -0.1530 -1.2217
 2191SOL    MW4 8532   2.620   4.194   2.313  0.5516  0.2066 -0.4212
 2192SOL     OW 8533   3.420   3.523   5.607  0.1172 -0.4780  0.5025
 2192SOL    HW2 8534   3.397   3.432   5.587  0.3083 -1.0184  2.5446
 2192SOL    HW3 8535   3.385   3.573   5.533 -1.6461 -2.0092  0.2159
 2192SOL    MW4 8536   3.412   3.518   5.595  0.5340  0.1289  0.0123
 2193SOL     OW 8537   5.088   2.100   3.121 -0.0888  0.0849 -0.0754
 2193SOL    HW2 8538   5.152   2.144   3.177  0.5923  1.0098 -1.5014
 2193SOL    HW3 8539   5.092   2.008   3.147  1.4926  0.2053  0.1838
 2193SOL    MW4 8540   5.097   2.094   3.132 -0.3235  0.3058 -0.2250
 2194SOL     OW 8541   0.318   2.191   0.674 -0.0689  0.1614  0.2433
 2194SOL    HW2 8542   0.407   2.216   0.697 -0.8548  1.5074  2.0607
 2194SOL    HW3 8543   0.263   2.231   0.742 -2.3502  2.0353 -2.4503
 2194SOL    MW4 8544   0.322   2.200   0.686 -0.0514 -0.9351  0.1278
 2195SOL     OW 8545   0.656   6.253   0.654  0.4244 -0.0852  0.2890
 2195SOL    HW2 8546   0.628   6.341   0.629 -0.5760 -0.6762 -0.7868
 2195SOL    HW3 8547   0.744   6.244   0.617 -0.6829 -0.6198 -2.4087
 2195SOL    MW4 8548   0.664   6.263   0.646 -0.7154 -0.1664  0.3007
 2196SOL     OW 8549   5.040   5.176   0.439 -0.0760 -0.2247  0.1221
 2196SOL    HW2 8550   5.009   5.165   0.528  0.2556 -1.5303  0.0933
 2196SOL    HW3 8551   4.986   5.117   0.387 -2.6575  2.9559 -1.1657
 2196SOL    MW4 8552   5.029   5.167   0.444 -1.0199  0.4895  0.0083
 2197SOL     OW 8553   2.974   3.495   0.604 -0.2062  0.5459 -0.0078
 2197SOL    HW2 8554   3.027   3.433   0.655  0.3660 -0.3750 -1.6603
 2197SOL    HW3 8555   3.013   3.580   0.623 -1.2104  0.5360  2.5655
 2197SOL    MW4 8556   2.986   3.498   0.613  0.4921 -0.2455  0.8493
 2198SOL     OW 8557   0.821   5.915   3.490  0.4451  0.2582  0.2124
 2198SOL    HW2 8558   0.857   5.989   3.442  0.7944  0.5449  0.8968
 2198SOL    HW3 8559   0.897   5.858   3.507 -0.1871 -1.6143 -2.5872
 2198SOL    MW4 8560   0.836   5.917   3.486 -0.4674  0.2468 -0.1348
 2199SOL     OW 8561   5.424   2.239   4.320  0.4467  0.4968  0.2709
 2199SOL    HW2 8562   5.399   2.231   4.412  0.3416 -0.3406  0.1793
 2199SOL    HW3 8563   5.479   2.317   4.316  1.2363 -0.0027  1.2110
 2199SOL    MW4 8564   5.428   2.248   4.332  0.5797 -0.1571  0.3123
 2200SOL     OW 8565   4.339   4.835   5.305  0.4541  0.3203  0.1162
 2200SOL    HW2 8566   4.380   4.816   5.220  2.5477 -1.0865  1.3370
 2200SOL    HW3 8567   4.362   4.926   5.323  0.5110  0.4427 -0.5450
 2200SOL    MW4 8568   4.347   4.844   5.296  0.0863 -0.2507  0.1210
 2201SOL     OW 8569   3.736   2.750   1.620 -0.3269 -0.1459 -0.3051
 2201SOL    HW2 8570   3.701   2.730   1.533  1.2103 -1.8343 -0.5782
 2201SOL    HW3 8571   3.829   2.768   1.604  0.2035 -1.4946  1.0929
 2201SOL    MW4 8572   3.744   2.750   1.606  0.5258 -0.1807 -0.6320
 2202SOL     OW 8573   3.951   3.361   6.106  0.0296  0.7090 -0.1387
 2202SOL    HW2 8574   3.957   3.387   6.014 -2.2246 -2.2848 -1.2794
 2202SOL    HW3 8575   3.876   3.409   6.140 -1.3092 -0.7519 -0.9309
 2202SOL    MW4 8576   3.942   3.371   6.098  0.0160 -0.9889 -0.0774
 2203SOL     OW 8577   5.571   1.052   2.087  0.1300  0.1373  0.3783
 2203SOL    HW2 8578   5.611   1.026   2.004  0.3142  1.4681  0.0217
 2203SOL    HW3 8579   5.552   0.969   2.132  0.5818 -0.5852 -0.7211
 2203SOL    MW4 8580   5.574   1.038   2.082 -0.4924 -0.2186  0.0952
 2204SOL     OW 8581   5.237   5.398   6.316  0.3532 -0.3204  0.1136
 2204SOL    HW2 8582   5.275   5.444   6.240  0.0529 -0.1123  0.0879
 2204SOL    HW3 8583   5.288   5.317   6.322 -0.4559 -0.9683 -1.1235
 2204SOL    MW4 8584   5.249   5.393   6.307 -0.4922 -0.1474  0.4569
 2205SOL     OW 8585   0.933   4.840   0.176  0.0975 -0.2253  0.8303
 2205SOL    HW2 8586   0.934   4.747   0.155 -0.5165 -0.4756  1.8357
 2205SOL    HW3 8587   0.845   4.870   0.153  0.8537  0.5588 -1.2371
 2205SOL    MW4 8588   0.922   4.832   0.171 -0.0747  0.0970  0.5410
 2206SOL     OW 8589   6.278   2.157   0.610 -0.2310 -0.0587 -0.5607
 2206SOL    HW2 8590   6.350   2.099   0.586  2.1327  1.8957  1.2453
 2206SOL    HW3 8591   6.303   2.242   0.573  0.2185  1.4598  2.8566
 2206SOL    MW4 8592   6.291   2.161   0.602  0.5701 -0.5474 -0.2391
 2207SOL     OW 8593   5.883   2.371   1.322 -0.0078  0.0301 -0.5008
 2207SOL    HW2 8594   5.833   2.291   1.340 -0.5054  0.2454 -0.9309
 2207SOL    HW3 8595   5.840   2.411   1.247 -0.4438  1.2794  0.3872
 2207SOL    MW4 8596   5.871   2.366   1.315  0.0845 -0.1878  0.0974
 2208SOL     OW 8597   3.406   2.358   2.311  0.5059 -0.0697  0.4197
 2208SOL    HW2 8598   3.469   2.293   2.341  0.3431 -1.0174 -1.2076
 2208SOL    HW3 8599   3.322   2.327   2.343  0.5465 -0.1038  0.4954
 2208SOL    MW4 8600   3.404   2.346   2.320 -0.0616 -0.2123  0.0614
 2209SOL     OW 8601   2.303   4.919   6.439  0.3626  0.4430 -0.6366
 2209SOL    HW2 8602   2.339   4.837   6.405 -0.7356 -0.5663  0.5432
 2209SOL    HW3 8603   2.229   4.939   6.381 -1.2428 -1.0515  0.7833
 2209SOL    MW4 8604   2.298   4.911   6.427 -0.3195 -0.2761 -0.4069
 2210SOL     OW 8605   0.698   4.529   5.187  0.3131  0.0493 -0.1379
 2210SOL    HW2 8606   0.760   4.462   5.160 -0.0545 -1.2060  1.9351
 2210SOL    HW3 8607   0.749   4.586   5.245 -0.3877 -1.0080  1.6054
 2210SOL    MW4 8608   0.713   4.528   5.191 -0.6903 -0.0251  0.5487
 2211SOL     OW 8609   5.542   2.394   0.377  0.3982  0.0805  0.0721
 2211SOL    HW2 8610   5.548   2.429   0.288  0.3818 -0.7238 -0.2539
 2211SOL    HW3 8611   5.588   2.459   0.431 -2.7059  2.5426  0.1029
 2211SOL    MW4 8612   5.549   2.408   0.372 -0.1534 -0.6190  0.2313
 2212SOL     OW 8613   2.620   2.859   3.279  0.6657 -0.7355 -0.2352
 2212SOL    HW2 8614   2.658   2.915   3.347  0.2235  0.9097 -1.2755
 2212SOL    HW3 8615   2.536   2.829   3.316 -0.2304  1.2690 -0.5183
 2212SOL    MW4 8616   2.614   2.862   3.293 -0.2449  0.4307 -0.0826
 2213SOL     OW 8617   0.881   0.756   5.539  0.0960  0.5153  0.6233
 2213SOL    HW2 8618   0.924   0.826   5.489  1.1890 -0.0258  0.7686
 2213SOL    HW3 8619   0.840   0.700   5.472  1.7217 -0.3142  0.2695
 2213SOL    MW4 8620   0.881   0.758   5.523  0.2617 -0.2633  0.1847
 2214SOL     OW 8621   3.902   1.949   5.532 -0.4629 -0.4803 -0.4891
 2214SOL    HW2 8622   3.932   1.936   5.622 -0.0978 -0.8079 -0.6539
 2214SOL    HW3 8623   3.852   1.870   5.512 -1.3385 -0.0008 -0.2664
 2214SOL    MW4 8624   3.899   1.937   5.541  0.0293  0.2353  0.4893
 2215SOL     OW 8625   2.256   0.332   5.729 -0.0809 -0.2821 -0.2205
 2215SOL    HW2 8626   2.236   0.413   5.777  0.7086 -0.4838  0.4846
 2215SOL    HW3 8627   2.174   0.283   5.730 -0.1404 -0.1947  0.7858
 2215SOL    MW4 8628   2.243   0.336   5.735  0.1030  0.0384 -0.3555
 2216SOL     OW 8629   3.822   5.684   6.166 -0.2199 -0.4583 -0.2365
 2216SOL    HW2 8630   3.752   5.730   6.121  0.0320  0.8159  0.6097
 2216SOL    HW3 8631   3.845   5.612   6.108 -2.5725 -1.2403 -0.2959
 2216SOL    MW4 8632   3.816   5.681   6.152 -0.0389  0.2322  0.4945
 2217SOL     OW 8633   2.797   1.906   0.902  0.0906  0.5997  0.5849
 2217SOL    HW2 8634   2.788   1.810   0.902 -2.8213  0.7557 -0.9833
 2217SOL    HW3 8635   2.806   1.929   0.994  4.3271 -1.2862  0.8758
 2217SOL    MW4 8636   2.797   1.896   0.914  0.6708 -0.2994 -0.0824
 2218SOL     OW 8637   2.525   6.372   4.593  0.2516  0.0495  0.1208
 2218SOL    HW2 8638   2.556   6.450   4.548 -0.4050 -0.4882 -1.3391
 2218SOL    HW3 8639   2.447   6.400   4.641 -2.1944 -0.3118 -3.2700
 2218SOL    MW4 8640   2.519   6.386   4.593  0.4972 -0.2042 -0.5753
 2219SOL     OW 8641   5.305   0.037   0.686  0.0225  0.2464  0.5993
 2219SOL    HW2 8642   5.297   0.054   0.592 -0.9803 -0.7806  0.4675
 2219SOL    HW3 8643   5.296  -0.058   0.693  0.4517  0.2780  1.7059
 2219SOL    MW4 8644   5.302   0.026   0.675 -0.0039 -0.3606  0.3954
 2220SOL     OW 8645   0.349   0.960   5.874 -0.1823 -0.0670  0.5203
 2220SOL    HW2 8646   0.301   0.883   5.840 -1.1389  1.1192 -0.9425
 2220SOL    HW3 8647   0.294   0.991   5.946 -0.0279 -0.4695  0.8192
 2220SOL    MW4 8648   0.335   0.954   5.879  0.1420 -0.0795 -0.2047
 2221SOL     OW 8649   2.269   0.542   4.649 -0.1684 -0.7854 -0.2185
 2221SOL    HW2 8650   2.319   0.578   4.722  1.2251  2.2499 -2.4536
 2221SOL    HW3 8651   2.187   0.591   4.649  0.3704  0.1836 -1.3495
 2221SOL    MW4 8652   2.264   0.553   4.658  0.2572 -0.2677 -0.3269
 2222SOL     OW 8653   3.108   1.883   5.076  0.7198  0.4413  0.6045
 2222SOL    HW2 8654   3.072   1.959   5.030  1.2656  1.1295  1.2974
 2222SOL    HW3 8655   3.057   1.809   5.042  0.3757  1.0645 -0.2951
 2222SOL    MW4 8656   3.097   1.883   5.065 -0.7222 -0.2762  0.3863
 2223SOL     OW 8657   3.791   2.281   2.364  0.0340  0.1692  0.1002
 2223SOL    HW2 8658   3.886   2.280   2.351 -0.0313 -0.9912 -0.4353
 2223SOL    HW3 8659   3.779   2.264   2.457  0.3472  0.1200  0.1340
 2223SOL    MW4 8660   3.802   2.279   2.374 -0.0807 -0.9445  0.1407
 2224SOL     OW 8661   0.593   2.050   3.989  0.0267 -0.6728  0.6177
 2224SOL    HW2 8662   0.631   2.138   3.981  1.2256 -1.1533  0.7528
 2224SOL    HW3 8663   0.555   2.047   4.076  0.5224 -0.4797  0.8433
 2224SOL    MW4 8664   0.593   2.061   3.999 -0.2541 -0.3213  0.0558
 2225SOL     OW 8665   5.149   1.863   2.477 -0.6910 -0.0384 -0.3016
 2225SOL    HW2 8666   5.148   1.886   2.384 -0.7895 -0.6094 -0.4440
 2225SOL    HW3 8667   5.090   1.927   2.518  1.2903  1.8723 -0.2236
 2225SOL    MW4 8668   5.141   1.875   2.470 -0.1787  0.5337 -0.0419
 2226SOL     OW 8669   3.615   0.151   3.446  0.8679 -0.1737 -0.0861
 2226SOL    HW2 8670   3.537   0.104   3.475 -0.3558  1.6868 -0.1976
 2226SOL    HW3 8671   3.688   0.102   3.485 -0.5026  0.2548  3.4172
 2226SOL    MW4 8672   3.614   0.138   3.455 -0.1804  0.3159 -0.2594
 2227SOL     OW 8673   2.093   4.845   3.886  0.1073  0.2854  0.1657
 2227SOL    HW2 8674   2.000   4.861   3.868 -0.1176 -0.2155  0.8519
 2227SOL    HW3 8675   2.131   4.932   3.893  0.2091  0.5763 -2.5882
 2227SOL    MW4 8676   2.085   4.859   3.884 -0.3238  0.4639 -0.2058
 2228SOL     OW 8677   5.806   0.833   2.438 -0.4460 -0.3871  0.3069
 2228SOL    HW2 8678   5.832   0.748   2.404  0.1955 -0.2990  0.5585
 2228SOL    HW3 8679   5.712   0.838   2.422 -0.2190 -0.4454 -1.2389
 2228SOL    MW4 8680   5.797   0.822   2.431 -0.1358  0.6114 -0.6536
 2229SOL     OW 8681   5.680   3.509   0.378 -0.3039  0.9901 -0.1636
 2229SOL    HW2 8682   5.646   3.524   0.466  2.5203  3.7068  0.6688
 2229SOL    HW3 8683   5.767   3.473   0.392 -0.6819 -0.7922 -1.9816
 2229SOL    MW4 8684   5.687   3.507   0.392 -1.0033 -0.8064  0.4329
 2230SOL     OW 8685   3.112   5.342   4.748 -0.2180  0.1303  0.3456
 2230SOL    HW2 8686   3.174   5.388   4.693 -1.3510  0.2210 -0.9030
 2230SOL    HW3 8687   3.092   5.403   4.819  1.1540  0.0577  0.8246
 2230SOL    MW4 8688   3.118   5.356   4.750  0.6391  0.1435  0.2346
 2231SOL     OW 8689   3.175   6.143   4.302 -0.8354  0.2221  0.4277
 2231SOL    HW2 8690   3.220   6.060   4.314 -1.2750 -0.5754 -2.6982
 2231SOL    HW3 8691   3.170   6.180   4.391  2.7345 -1.2417  1.4386
 2231SOL    MW4 8692   3.180   6.137   4.316  0.3420 -0.0342  0.0034
 2232SOL     OW 8693   4.001   1.375   0.158  0.4289 -0.9208 -0.4197
 2232SOL    HW2 8694   4.092   1.404   0.149 -0.0296  1.0779  0.8249
 2232SOL    HW3 8695   3.949   1.453   0.140 -1.0337 -1.7863 -0.1008
 2232SOL    MW4 8696   4.006   1.389   0.154 -0.0875  0.2097 -0.5332
 2233SOL     OW 8697   2.466   3.787   1.129  0.5454  0.5884 -0.2541
 2233SOL    HW2 8698   2.440   3.783   1.037  0.0790 -0.3577 -0.0940
 2233SOL    HW3 8699   2.558   3.760   1.130  0.5474  0.5913 -0.4422
 2233SOL    MW4 8700   2.475   3.783   1.117 -0.4086  0.2693 -0.3393
 2234SOL     OW 8701   0.362   4.085   5.209  0.2411 -0.5468 -0.3629
 2234SOL    HW2 8702   0.357   4.007   5.154 -0.3051 -1.6880  1.2335
 2234SOL    HW3 8703   0.401   4.054   5.291 -1.7934  0.3880  1.0424
 2234SOL    MW4 8704   0.366   4.071   5.213  0.3278 -0.0069 -0.2637
 2235SOL     OW 8705   2.576   2.762   4.767 -0.0593  0.0021  0.3056
 2235SOL    HW2 8706   2.611   2.722   4.687  0.6354 -1.1388  1.1418
 2235SOL    HW3 8707   2.652   2.799   4.811 -0.2473 -0.3826  0.9787
 2235SOL    MW4 8708   2.591   2.761   4.763 -0.2424  0.3449  0.2849
 2236SOL     OW 8709   1.059   1.614   5.322 -0.3728 -0.4600  0.2079
 2236SOL    HW2 8710   1.054   1.527   5.363 -0.6514 -0.9854 -0.9048
 2236SOL    HW3 8711   1.020   1.673   5.386  1.7086 -0.7838  1.9189
 2236SOL    MW4 8712   1.053   1.610   5.336 -0.8195  0.6019 -0.2901
 2237SOL     OW 8713   5.942   4.062   4.371  0.3696  0.6017 -0.0005
 2237SOL    HW2 8714   5.958   4.066   4.277  0.5183 -2.4596 -0.1984
 2237SOL    HW3 8715   5.885   3.986   4.383  0.7687  0.6087  2.4211
 2237SOL    MW4 8716   5.937   4.052   4.360 -0.4588  0.3006 -0.5766
 2238SOL     OW 8717   0.826   3.538   1.526 -0.5266  0.0931 -0.0326
 2238SOL    HW2 8718   0.863   3.613   1.572  1.1082  0.1400 -1.3420
 2238SOL    HW3 8719   0.873   3.534   1.443 -1.5152 -1.5861 -0.5810
 2238SOL    MW4 8720   0.837   3.547   1.521 -0.3353 -0.1841 -0.0764
 2239SOL     OW 8721   4.367   3.303   3.904  0.0903 -0.3241 -0.1857
 2239SOL    HW2 8722   4.275   3.292   3.926 -0.3036  1.9747 -0.4338
 2239SOL    HW3 8723   4.410   3.321   3.988  0.2679 -1.0936 -0.1088
 2239SOL    MW4 8724   4.361   3.304   3.918  0.1132 -0.5362 -0.4820
 2240SOL     OW 8725   2.309   1.964   2.910  0.4230  0.1520  0.6004
 2240SOL    HW2 8726   2.270   1.942   2.826 -0.7293  2.2637  0.5180
 2240SOL    HW3 8727   2.401   1.942   2.901 -0.1114 -1.9548 -0.3178
 2240SOL    MW4 8728   2.316   1.958   2.898 -0.4419  0.0137  0.0981
 2241SOL     OW 8729   0.919   6.103   2.258  0.6325  0.4862 -0.2845
 2241SOL    HW2 8730   0.870   6.097   2.340 -2.0965  1.4560 -1.6975
 2241SOL    HW3 8731   0.926   6.012   2.228  3.4712 -0.1410  1.8593
 2241SOL    MW4 8732   0.913   6.090   2.265  0.5375 -0.1799 -0.1278
 2242SOL     OW 8733   1.479   3.942   3.498 -0.1300  0.2451  0.3147
 2242SOL    HW2 8734   1.493   3.992   3.417  1.4266  0.3161  0.5989
 2242SOL    HW3 8735   1.507   4.002   3.568  0.0353 -0.3782  0.7897
 2242SOL    MW4 8736   1.484   3.957   3.497 -0.9177  0.0801  0.0562
 2243SOL     OW 8737   2.534   5.176   5.121  0.0233 -0.2166 -0.0332
 2243SOL    HW2 8738   2.464   5.158   5.059 -1.1925  1.0808  0.8970
 2243SOL    HW3 8739   2.614   5.160   5.072 -0.9087 -0.4499 -1.5399
 2243SOL    MW4 8740   2.535   5.171   5.107  0.3224 -0.1052 -0.4404
 2244SOL     OW 8741   1.293   0.540   5.324 -0.3785 -0.2683 -0.1798
 2244SOL    HW2 8742   1.302   0.596   5.402  0.8930 -0.2253 -0.3481
 2244SOL    HW3 8743   1.245   0.595   5.262  1.4349  0.9412 -0.5904
 2244SOL    MW4 8744   1.288   0.555   5.326  0.3963  0.1956 -0.4244
 2245SOL     OW 8745   4.244   2.684   5.144 -0.5276 -0.4068 -0.1434
 2245SOL    HW2 8746   4.311   2.751   5.156 -3.3309  2.6102  0.4879
 2245SOL    HW3 8747   4.250   2.661   5.051  0.9030  0.3392 -0.2567
 2245SOL    MW4 8748   4.253   2.690   5.133  0.9987 -0.1540  0.6605
 2246SOL     OW 8749   6.129   1.888   3.537 -0.3441 -0.2641 -0.1276
 2246SOL    HW2 8750   6.108   1.804   3.578  1.3348 -0.3896  0.5583
 2246SOL    HW3 8751   6.218   1.908   3.567 -0.5360  1.5451 -0.6395
 2246SOL    MW4 8752   6.138   1.880   3.546 -0.5340 -0.1907 -0.5315
 2247SOL     OW 8753   2.661   6.058   3.032  0.3047  0.0727 -0.1069
 2247SOL    HW2 8754   2.628   5.988   3.089  0.5963  0.4879  0.5920
 2247SOL    HW3 8755   2.756   6.058   3.046  0.1415  1.9235  1.5083
 2247SOL    MW4 8756   2.669   6.049   3.042  0.0223 -0.2231 -0.1098
 2248SOL     OW 8757   6.171   5.987   1.848  0.5464 -0.1001 -0.0096
 2248SOL    HW2 8758   6.085   6.000   1.888  0.1678  0.4755 -0.9976
 2248SOL    HW3 8759   6.155   5.985   1.754  1.9432  3.2045 -0.4471
 2248SOL    MW4 8760   6.158   5.989   1.841 -0.0118  0.0465 -0.3028
 2249SOL     OW 8761   4.421   1.658   5.176  0.7285  0.9070  0.4052
 2249SOL    HW2 8762   4.474   1.580   5.192  3.2945  1.9387 -2.2385
 2249SOL    HW3 8763   4.332   1.630   5.195  1.6646 -2.2906  0.7331
 2249SOL    MW4 8764   4.417   1.644   5.181  0.2765  0.8303  0.0127
 2250SOL     OW 8765   0.593   5.853   2.913  0.1196  0.0037 -0.6369
 2250SOL    HW2 8766   0.681   5.832   2.944  0.1600 -0.7359 -1.1941
 2250SOL    HW3 8767   0.601   5.851   2.817 -0.7538 -1.3003 -0.7113
 2250SOL    MW4 8768   0.605   5.850   2.904  0.4480 -0.1794  0.4816
 2251SOL     OW 8769   3.585   3.953   4.396 -0.2046 -0.4807  0.7550
 2251SOL    HW2 8770   3.600   4.048   4.397 -0.9479 -0.3386 -0.1350
 2251SOL    HW3 8771   3.593   3.926   4.487 -0.0865  0.4531  1.0302
 2251SOL    MW4 8772   3.588   3.962   4.408  0.3866  0.1819  0.1258
 2252SOL     OW 8773   3.830   3.135   6.390 -0.0941  0.4862  0.0414
 2252SOL    HW2 8774   3.898   3.153   6.454 -0.0679 -2.2645  0.9116
 2252SOL    HW3 8775   3.789   3.054   6.421  0.0079 -1.0778 -3.4494
 2252SOL    MW4 8776   3.833   3.126   6.402  0.4854  0.2581  0.0193
 2253SOL     OW 8777   0.912   3.178   5.576  0.2477  0.0391 -0.2918
 2253SOL    HW2 8778   0.911   3.270   5.603  0.2024  0.1017 -0.5016
 2253SOL    HW3 8779   0.826   3.144   5.602  0.8641 -0.3967  1.3028
 2253SOL    MW4 8780   0.900   3.186   5.583  0.3357  0.3123 -0.7341
 2254SOL     OW 8781   1.095   3.783   5.512 -0.2445 -0.2555 -0.4021
 2254SOL    HW2 8782   1.041   3.768   5.435 -1.6226  0.4262  0.3915
 2254SOL    HW3 8783   1.162   3.846   5.484 -0.8817  0.1687 -0.9817
 2254SOL    MW4 8784   1.097   3.790   5.498  0.4046 -0.0554 -0.0949
 2255SOL     OW 8785   3.903   4.718   0.081 -0.1054 -0.0751  0.2813
 2255SOL    HW2 8786   3.910   4.800   0.033 -1.1522 -0.7828 -1.1607
 2255SOL    HW3 8787   3.993   4.686   0.087  0.0509 -0.0189 -1.3394
 2255SOL    MW4 8788   3.916   4.725   0.075  0.2567 -0.2103 -1.2027
 2256SOL     OW 8789   0.107   0.448   6.274  0.1217 -0.2796 -0.1678
 2256SOL    HW2 8790   0.089   0.526   6.222 -0.6971 -0.7765 -0.6547
 2256SOL    HW3 8791   0.032   0.439   6.333  0.5385 -0.3150  0.3639
 2256SOL    MW4 8792   0.095   0.457   6.275 -0.5713 -0.0414 -0.3786
 2257SOL     OW 8793   6.202   5.392   3.806  0.3141 -0.0757  0.8078
 2257SOL    HW2 8794   6.147   5.420   3.734  1.6111 -1.0435 -0.6299
 2257SOL    HW3 8795   6.141   5.370   3.876 -0.9773  0.8923  0.0307
 2257SOL    MW4 8796   6.187   5.393   3.806 -0.3375  0.4523  0.1042
 2258SOL     OW 8797   4.793   1.098   6.085  0.1834 -0.0627 -0.2719
 2258SOL    HW2 8798   4.888   1.084   6.091  0.1240 -0.3841 -0.0554
 2258SOL    HW3 8799   4.784   1.189   6.058  0.5329  0.1846  0.4398
 2258SOL    MW4 8800   4.805   1.108   6.082  0.2211 -0.7678  0.4823
 2259SOL     OW 8801   0.400   4.296   0.760  0.0799 -0.3051 -0.0267
 2259SOL    HW2 8802   0.434   4.298   0.849 -0.8931  1.3825  0.3596
 2259SOL    HW3 8803   0.460   4.239   0.712  1.1915 -0.4538  1.4802
 2259SOL    MW4 8804   0.413   4.289   0.765  0.8191 -0.1687 -0.1269
 2260SOL     OW 8805   3.514   0.629   2.618 -0.5305 -0.1256  0.5756
 2260SOL    HW2 8806   3.456   0.703   2.600 -1.5696 -1.5532 -2.7366
 2260SOL    HW3 8807   3.502   0.611   2.711 -4.2028  0.7029  0.4318
 2260SOL    MW4 8808   3.505   0.636   2.628  0.1290  0.3188 -0.2239
 2261SOL     OW 8809   0.412   6.122   0.750  0.2152  0.7041 -0.0851
 2261SOL    HW2 8810   0.480   6.070   0.795 -0.2115  0.7747  0.6576
 2261SOL    HW3 8811   0.451   6.209   0.741  1.4789 -0.0331 -2.5668
 2261SOL    MW4 8812   0.426   6.127   0.755 -0.1383  0.6472  0.1627
 2262SOL     OW 8813   3.426   3.374   0.405  0.4856  0.3159 -0.3503
 2262SOL    HW2 8814   3.504   3.320   0.422 -0.0616 -0.6161 -0.7262
 2262SOL    HW3 8815   3.353   3.314   0.414 -0.1230  0.9177 -1.1195
 2262SOL    MW4 8816   3.427   3.359   0.408  0.5406  0.2494  0.0448
 2263SOL     OW 8817   0.873   2.484   4.821  0.1322 -0.2286 -0.3301
 2263SOL    HW2 8818   0.808   2.544   4.857 -0.7111 -0.9361 -0.6352
 2263SOL    HW3 8819   0.947   2.539   4.796 -0.0025  0.4932  0.7918
 2263SOL    MW4 8820   0.875   2.499   4.823  0.4074  0.2611  0.9748
 2264SOL     OW 8821   4.439   6.231   4.129  0.2023 -0.2187  0.1963
 2264SOL    HW2 8822   4.369   6.283   4.168  0.8763 -0.3812  1.7004
 2264SOL    HW3 8823   4.394   6.157   4.089 -0.7029  1.0982 -1.3445
 2264SOL    MW4 8824   4.423   6.228   4.129  0.1261  0.0412  0.2274
 2265SOL     OW 8825   3.539   1.738   1.850  0.4099 -0.1668 -0.0456
 2265SOL    HW2 8826   3.497   1.673   1.906 -0.4923  0.7419  0.3641
 2265SOL    HW3 8827   3.547   1.816   1.906 -0.0233  0.5876 -1.0021
 2265SOL    MW4 8828   3.535   1.740   1.865 -0.4194  0.5004  0.0462
 2266SOL     OW 8829   3.847   5.564   2.132  0.1608  0.2723  0.2502
 2266SOL    HW2 8830   3.815   5.564   2.222  0.1811 -2.1505  0.3143
 2266SOL    HW3 8831   3.938   5.592   2.139  0.6192 -1.3367  1.2181
 2266SOL    MW4 8832   3.855   5.568   2.145  0.2774 -0.3071 -0.3987
 2267SOL     OW 8833   2.248   3.706   2.288 -0.1293 -0.1523 -0.2093
 2267SOL    HW2 8834   2.197   3.734   2.363  0.1850  0.2064 -0.1282
 2267SOL    HW3 8835   2.270   3.614   2.308 -2.0487 -0.8305 -0.9707
 2267SOL    MW4 8836   2.245   3.697   2.301 -0.3137 -0.1591 -0.3577
 2268SOL     OW 8837   4.954   1.357   3.816 -0.0259 -0.1295 -0.1344
 2268SOL    HW2 8838   4.937   1.331   3.907 -1.8620 -0.0053 -0.3910
 2268SOL    HW3 8839   4.959   1.452   3.819  0.3069 -0.1482 -0.1059
 2268SOL    MW4 8840   4.952   1.366   3.829  0.0371  0.0559 -0.6373
 2269SOL     OW 8841   5.916   2.798   3.819 -0.7068 -0.1107 -0.2440
 2269SOL    HW2 8842   5.989   2.834   3.869 -1.0803  1.5708 -0.8408
 2269SOL    HW3 8843   5.838   2.829   3.864 -1.0510  1.4057 -1.7784
 2269SOL    MW4 8844   5.915   2.807   3.831 -0.1026 -0.1825 -0.1031
 2270SOL     OW 8845   1.520   2.938   4.780 -0.3752  0.5050 -0.2476
 2270SOL    HW2 8846   1.426   2.950   4.771 -0.2622 -0.1098 -3.0272
 2270SOL    HW3 8847   1.531   2.897   4.866 -2.7431 -0.4945 -0.3460
 2270SOL    MW4 8848   1.509   2.934   4.791 -0.0474 -0.1155 -0.1054
 2271SOL     OW 8849   5.999   5.333   3.997 -0.0855 -0.1782  0.0949
 2271SOL    HW2 8850   5.961   5.339   4.085 -0.9517  0.0581 -0.2895
 2271SOL    HW3 8851   5.924   5.330   3.938  0.4895  0.5489 -0.6999
 2271SOL    MW4 8852   5.984   5.333   4.001 -0.8669 -0.0208 -1.0490
 2272SOL     OW 8853   5.300   0.219   3.156 -0.9071  0.5176 -0.3658
 2272SOL    HW2 8854   5.355   0.290   3.123  1.4027 -0.4983  1.0712
 2272SOL    HW3 8855   5.285   0.163   3.079  0.4828  0.5955 -0.7295
 2272SOL    MW4 8856   5.306   0.221   3.141  0.0095 -0.1777 -0.7399
 2273SOL     OW 8857   1.127   2.181   2.212  0.1816  0.0365 -0.6994
 2273SOL    HW2 8858   1.206   2.132   2.188  0.7894  0.7907 -0.2863
 2273SOL    HW3 8859   1.059   2.114   2.221  1.1472 -0.8367  0.5280
 2273SOL    MW4 8860   1.129   2.165   2.210 -0.2893  0.1984 -0.0257
 2274SOL     OW 8861   2.654   4.153   4.942 -0.2295 -0.5930 -0.9920
 2274SOL    HW2 8862   2.625   4.179   4.855 -1.1221  0.2188 -0.4759
 2274SOL    HW3 8863   2.603   4.075   4.963  2.2961 -2.7862 -2.4555
 2274SOL    MW4 8864   2.643   4.146   4.933  0.0690 -0.1073  0.2212
 2275SOL     OW 8865   2.964   0.172   0.733  0.1452 -0.4236  0.0774
 2275SOL    HW2 8866   2.957   0.232   0.808 -0.1876 -0.0011 -0.2863
 2275SOL    HW3 8867   2.888   0.193   0.678 -1.8033 -3.3089  1.4314
 2275SOL    MW4 8868   2.953   0.183   0.736  0.0633 -0.6238 -0.3308
 2276SOL     OW 8869   4.097   0.635   6.173 -0.5139  0.1700  0.5612
 2276SOL    HW2 8870   4.055   0.637   6.087 -3.1063  1.5816  1.7551
 2276SOL    HW3 8871   4.133   0.546   6.180 -2.1711 -0.6912 -1.0986
 2276SOL    MW4 8872   4.096   0.624   6.163 -0.0497  0.2190  0.1324
 2277SOL     OW 8873   3.924   5.777   0.147 -0.0173 -0.1018 -0.6871
 2277SOL    HW2 8874   3.849   5.750   0.094 -0.4260  0.7694 -0.5789
 2277SOL    HW3 8875   3.933   5.707   0.212 -1.3108  0.2031 -0.1428
 2277SOL    MW4 8876   3.915   5.764   0.149 -0.6875  0.2857  1.2268
 2278SOL     OW 8877   2.236   5.448   5.948  0.5715  0.0506  0.0518
 2278SOL    HW2 8878   2.323   5.458   5.988  1.1000  1.3010 -1.3154
 2278SOL    HW3 8879   2.206   5.362   5.979  1.7806  0.0864  1.4806
 2278SOL    MW4 8880   2.244   5.438   5.958  0.0308 -0.2264  0.2331
 2279SOL     OW 8881   1.291   2.720   3.022  0.0160 -0.2333  0.1788
 2279SOL    HW2 8882   1.315   2.657   3.089  2.4950 -0.9246 -1.2434
 2279SOL    HW3 8883   1.335   2.801   3.048  2.4364 -0.9432 -1.3366
 2279SOL    MW4 8884   1.300   2.722   3.034  0.1337  0.8497  0.4039
 2280SOL     OW 8885   0.242   2.565   6.143  0.0379  0.2679  0.1284
 2280SOL    HW2 8886   0.252   2.508   6.219 -1.4026 -0.5009 -0.2328
 2280SOL    HW3 8887   0.186   2.516   6.083  1.1545  0.8449 -1.4557
 2280SOL    MW4 8888   0.236   2.551   6.145  0.1611  0.4564 -0.2829
 2281SOL     OW 8889   5.982   5.743   2.509  0.1071  0.2243 -0.9352
 2281SOL    HW2 8890   5.917   5.704   2.450 -0.6114 -0.6787  0.4120
 2281SOL    HW3 8891   6.014   5.670   2.562  2.4944  0.5821 -1.7603
 2281SOL    MW4 8892   5.978   5.728   2.508 -0.0204 -0.3694  0.2382
 2282SOL     OW 8893   3.255   5.010   5.097  0.9285 -1.0538 -0.2991
 2282SOL    HW2 8894   3.165   5.017   5.066  1.2198 -0.6324 -1.1006
 2282SOL    HW3 8895   3.256   5.060   5.178  0.7836  0.3382 -1.1121
 2282SOL    MW4 8896   3.244   5.018   5.103  0.0058  0.4820  1.1666
 2283SOL     OW 8897   1.044   0.217   2.983  0.4221 -0.2300  0.0865
 2283SOL    HW2 8898   1.119   0.180   3.030 -0.4414 -3.0918 -0.5899
 2283SOL    HW3 8899   0.990   0.141   2.961 -2.2603  1.6423 -0.2145
 2283SOL    MW4 8900   1.047   0.202   2.987  0.5561  0.7845 -0.0747
 2284SOL     OW 8901   3.249   0.294   5.403 -0.0075  0.6287 -0.1682
 2284SOL    HW2 8902   3.213   0.297   5.492  0.5617 -0.0951  0.1011
 2284SOL    HW3 8903   3.338   0.260   5.415 -0.6856 -1.6806 -1.2267
 2284SOL    MW4 8904   3.256   0.290   5.416 -0.5809 -0.1838 -0.0518
 2285SOL     OW 8905   5.183   4.054   1.540  0.1649 -0.1785 -0.5889
 2285SOL    HW2 8906   5.241   3.997   1.489 -0.2024  0.1261 -1.3509
 2285SOL    HW3 8907   5.151   4.118   1.477 -0.0718  0.3739  0.0909
 2285SOL    MW4 8908   5.186   4.055   1.525  0.5275 -0.4777 -0.2706
 2286SOL     OW 8909   2.299   6.086   1.991 -0.5645 -0.2315 -0.3333
 2286SOL    HW2 8910   2.208   6.069   1.968 -0.6010 -1.9323  0.8969
 2286SOL    HW3 8911   2.294   6.143   2.068 -0.5634  0.1912 -0.6419
 2286SOL    MW4 8912   2.286   6.091   1.998 -0.4619 -0.3373  0.1895
 2287SOL     OW 8913   4.012   0.189   2.742  0.0739 -0.1889 -0.2563
 2287SOL    HW2 8914   4.059   0.106   2.750 -0.4305 -0.4616 -0.0923
 2287SOL    HW3 8915   4.001   0.220   2.832 -1.3714 -0.8779 -0.1633
 2287SOL    MW4 8916   4.017   0.182   2.755  0.6588  0.2355  0.3753
 2288SOL     OW 8917   0.481   6.161   3.258  0.1597 -0.9422 -0.5991
 2288SOL    HW2 8918   0.387   6.178   3.254  0.1258 -1.0818 -0.4038
 2288SOL    HW3 8919   0.520   6.243   3.287  0.1851 -0.6088 -1.5532
 2288SOL    MW4 8920   0.473   6.174   3.261  0.1526  0.5246 -0.2269
 2289SOL     OW 8921   1.469   4.706   0.098  0.1098 -0.5033 -0.1261
 2289SOL    HW2 8922   1.436   4.696   0.009 -0.6483  1.6686 -0.1512
 2289SOL    HW3 8923   1.455   4.621   0.139 -0.6018 -1.1891 -1.7200
 2289SOL    MW4 8924   1.463   4.694   0.091  0.3363 -0.7656  0.1694
 2290SOL     OW 8925   4.496   6.223   1.106 -0.2168 -0.0346  0.4135
 2290SOL    HW2 8926   4.522   6.314   1.096  2.3189 -0.8514 -1.6838
 2290SOL    HW3 8927   4.572   6.180   1.144 -0.9490 -1.4702  0.3483
 2290SOL    MW4 8928   4.509   6.229   1.110  0.1878  0.2862  0.2823
 2291SOL     OW 8929   3.508   2.547   2.494  0.4141 -0.3658 -0.6660
 2291SOL    HW2 8930   3.431   2.538   2.551 -0.0245 -2.3830 -1.4820
 2291SOL    HW3 8931   3.486   2.497   2.416  2.4606 -0.7932 -1.0345
 2291SOL    MW4 8932   3.495   2.539   2.491 -0.6524 -0.0866 -0.0143
 2292SOL     OW 8933   3.706   4.698   1.213 -0.0295  0.1679  0.8667
 2292SOL    HW2 8934   3.633   4.681   1.273 -0.2433 -0.4587  0.4285
 2292SOL    HW3 8935   3.771   4.742   1.268 -0.7137  0.7144  1.2744
 2292SOL    MW4 8936   3.705   4.702   1.228  0.3852 -0.1805 -0.3810
 2293SOL     OW 8937   4.138   1.541   4.961  0.1803  0.4302  0.1438
 2293SOL    HW2 8938   4.182   1.615   4.919  0.0860  1.4193  1.7148
 2293SOL    HW3 8939   4.047   1.569   4.969 -0.6803 -1.2807 -2.3416
 2293SOL    MW4 8940   4.132   1.554   4.956 -0.0377 -0.2367  0.2868
 2294SOL     OW 8941   4.860   0.886   0.678 -1.0685  0.6480  0.6040
 2294SOL    HW2 8942   4.781   0.940   0.688 -1.8745 -0.1952 -0.7764
 2294SOL    HW3 8943   4.831   0.797   0.696 -0.8752  0.0997 -1.5049
 2294SOL    MW4 8944   4.846   0.881   0.682 -0.4130  0.0980 -0.0728
 2295SOL     OW 8945   3.693   2.132   6.224 -0.1577 -0.1178 -0.1456
 2295SOL    HW2 8946   3.683   2.226   6.211 -1.1703  0.2421  2.6119
 2295SOL    HW3 8947   3.635   2.093   6.158 -0.9668  1.2531 -0.2860
 2295SOL    MW4 8948   3.684   2.139   6.214 -0.2039  0.0422 -0.4610
 2296SOL     OW 8949   0.693   2.794   3.180  0.1935  0.2715  0.0480
 2296SOL    HW2 8950   0.649   2.877   3.164 -1.2879 -0.7797 -1.8112
 2296SOL    HW3 8951   0.622   2.734   3.207  1.0922 -0.6004  0.5454
 2296SOL    MW4 8952   0.678   2.797   3.182 -0.1917  0.1973  0.3000
 2297SOL     OW 8953   2.446   1.422   5.059 -0.4158  0.2013  0.2007
 2297SOL    HW2 8954   2.457   1.424   5.154  0.0210  1.5682  0.1402
 2297SOL    HW3 8955   2.366   1.473   5.043 -2.5326 -2.9018  0.0429
 2297SOL    MW4 8956   2.437   1.429   5.069  0.1791 -0.2114  0.1369
 2298SOL     OW 8957   4.116   1.436   2.731  0.3472 -0.3738  0.4714
 2298SOL    HW2 8958   4.022   1.455   2.735  0.2791 -0.7095  0.5456
 2298SOL    HW3 8959   4.137   1.406   2.820 -0.0069 -2.6835 -0.1538
 2298SOL    MW4 8960   4.106   1.434   2.743 -0.8633  0.0603  0.2073
 2299SOL     OW 8961   2.497   0.787   4.267 -0.4386  0.0764  0.9414
 2299SOL    HW2 8962   2.423   0.731   4.291 -0.8423  0.2600  0.1812
 2299SOL    HW3 8963   2.570   0.727   4.253 -0.5151 -0.1324  1.4391
 2299SOL    MW4 8964   2.497   0.772   4.268 -0.1930 -0.1202  0.3241
 2300SOL     OW 8965   3.507   4.762   5.329  0.5457 -0.6671 -0.3852
 2300SOL    HW2 8966   3.422   4.787   5.365  0.5327 -0.3915 -0.6121
 2300SOL    HW3 8967   3.503   4.786   5.237  1.2405  0.2792 -0.1796
 2300SOL    MW4 8968   3.496   4.768   5.322 -0.0342  0.0720 -0.4305
 2301SOL     OW 8969   2.843   0.431   4.009 -0.1554 -0.1421 -0.6821
 2301SOL    HW2 8970   2.862   0.358   3.949  0.3535 -1.2293  0.7393
 2301SOL    HW3 8971   2.750   0.421   4.031  0.2766 -1.3681  0.7411
 2301SOL    MW4 8972   2.833   0.420   4.004  0.2523 -0.2838  0.6399
 2302SOL     OW 8973   5.589   0.490   4.639  0.1335  0.1610 -0.1998
 2302SOL    HW2 8974   5.565   0.482   4.731  0.9110  1.0809  0.1112
 2302SOL    HW3 8975   5.680   0.460   4.636  0.0248 -0.1194 -0.7196
 2302SOL    MW4 8976   5.598   0.485   4.651 -0.1485  0.5348 -0.5281
 2303SOL     OW 8977   0.942   2.835   3.698  0.6213 -0.2958  0.8228
 2303SOL    HW2 8978   0.966   2.876   3.615  2.7327 -0.1255  1.4620
 2303SOL    HW3 8979   1.006   2.764   3.709  0.0061 -0.6911  2.0217
 2303SOL    MW4 8980   0.954   2.831   3.689  0.1370  0.1139 -0.0803
 2304SOL     OW 8981   0.692   1.402   0.052  0.3219  0.3127 -0.0569
 2304SOL    HW2 8982   0.659   1.432  -0.033  0.5589 -0.7270 -0.5248
 2304SOL    HW3 8983   0.778   1.444   0.060  1.2844 -1.3172 -1.3596
 2304SOL    MW4 8984   0.699   1.412   0.042 -0.2170 -0.1176  0.0031
 2305SOL     OW 8985   1.324   6.031   1.296 -0.2380  0.0255 -0.2397
 2305SOL    HW2 8986   1.297   6.123   1.304 -0.0063  0.0340  0.5906
 2305SOL    HW3 8987   1.413   6.030   1.333  0.4529 -0.2210 -1.8152
 2305SOL    MW4 8988   1.333   6.043   1.302  0.0053  0.0660  0.1355
 2306SOL     OW 8989   2.890   5.265   2.598  0.1856 -0.1301 -0.1855
 2306SOL    HW2 8990   2.972   5.230   2.564 -0.6317 -0.6479 -1.7637
 2306SOL    HW3 8991   2.824   5.235   2.535 -1.0239  1.4097  0.2913
 2306SOL    MW4 8992   2.892   5.256   2.585 -0.1671 -0.0752  0.2876
 2307SOL     OW 8993   2.130   6.327   5.518 -0.0149 -0.3268 -0.1171
 2307SOL    HW2 8994   2.192   6.263   5.481  0.6491 -0.0439  0.4740
 2307SOL    HW3 8995   2.146   6.407   5.469  0.2666 -0.1866  0.1986
 2307SOL    MW4 8996   2.140   6.329   5.507  0.4139 -0.2226 -0.2631
 2308SOL     OW 8997   0.091   2.076   0.292 -0.9932 -0.0292 -0.3593
 2308SOL    HW2 8998   0.106   2.058   0.384  1.5502  0.4074 -0.6126
 2308SOL    HW3 8999   0.110   1.993   0.247 -0.6295  0.1860 -0.6098
 2308SOL    MW4 9000   0.095   2.063   0.298  0.6668  0.4723 -0.2080
 2309SOL     OW 9001   1.564   1.224   1.105  0.0598  0.1036 -0.1150
 2309SOL    HW2 9002   1.632   1.160   1.125 -0.5261 -0.6401 -0.4443
 2309SOL    HW3 9003   1.544   1.265   1.189  0.7114  0.1278  0.0298
 2309SOL    MW4 9004   1.570   1.221   1.119 -0.7550  0.0045 -0.3282
 2310SOL     OW 9005   5.377   2.188   1.981 -0.2531  0.3432 -0.4050
 2310SOL    HW2 9006   5.470   2.168   1.973  0.1925  1.9413  0.4914
 2310SOL    HW3 9007   5.357   2.177   2.074 -0.3775  2.2678 -0.1648
 2310SOL    MW4 9008   5.386   2.184   1.992 -0.0942  0.4604 -0.4892
 2311SOL     OW 9009   2.750   5.936   3.654  0.3471 -0.1963  0.2617
 2311SOL    HW2 9010   2.712   5.947   3.567  0.7888  2.3139  0.2979
 2311SOL    HW3 9011   2.844   5.925   3.638  0.1612 -2.2512  0.3570
 2311SOL    MW4 9012   2.758   5.936   3.640  0.7205  0.0181  0.1414
 2312SOL     OW 9013   3.626   2.511   1.171  0.1261  0.0559 -0.4582
 2312SOL    HW2 9014   3.708   2.489   1.127 -0.9051  0.0477 -2.4895
 2312SOL    HW3 9015   3.637   2.475   1.260  1.5731 -1.6512 -1.2428
 2312SOL    MW4 9016   3.639   2.503   1.177 -0.3157 -0.1265  0.1484
 2313SOL     OW 9017   2.376  -0.011   5.230  0.3465 -0.0432 -0.5094
 2313SOL    HW2 9018   2.421  -0.035   5.312  0.5235  1.1606 -0.2330
 2313SOL    HW3 9019   2.297   0.035   5.259 -0.0587 -0.4002 -1.0229
 2313SOL    MW4 9020   2.371  -0.008   5.245  0.4286 -0.1478 -0.5923
 2314SOL     OW 9021   0.631   5.005   3.398  0.2158 -0.1750  0.2611
 2314SOL    HW2 9022   0.701   5.068   3.413  0.4911 -0.2257 -0.7432
 2314SOL    HW3 9023   0.675   4.929   3.360 -0.3865 -0.1674 -0.4722
 2314SOL    MW4 9024   0.646   5.003   3.395  0.4373 -0.1460  0.0305
 2315SOL     OW 9025   6.186   3.757   4.101  0.2008 -0.1569  0.1838
 2315SOL    HW2 9026   6.185   3.673   4.055  0.1732  0.5086 -1.0715
 2315SOL    HW3 9027   6.113   3.807   4.064  0.4446  0.5679  0.6396
 2315SOL    MW4 9028   6.176   3.753   4.090 -0.5081 -0.1269 -0.4870
 2316SOL     OW 9029   0.668   5.910   2.367 -0.1748 -0.2187 -0.2336
 2316SOL    HW2 9030   0.711   5.865   2.294 -1.7846 -1.0603 -0.7084
 2316SOL    HW3 9031   0.595   5.957   2.328  1.9996  3.8982  0.0588
 2316SOL    MW4 9032   0.664   5.910   2.352 -0.2363  0.2409  0.0775
 2317SOL     OW 9033   3.036   5.525   0.306  0.2977  0.9979 -0.1332
 2317SOL    HW2 9034   3.044   5.590   0.236  0.6090 -0.4041 -1.4597
 2317SOL    HW3 9035   3.085   5.449   0.274 -0.1207  0.0709  1.3246
 2317SOL    MW4 9036   3.043   5.523   0.292  0.1739  0.5717  0.4104
 2318SOL     OW 9037   1.708   5.849   6.336 -0.9163  0.0578 -0.1990
 2318SOL    HW2 9038   1.721   5.777   6.275  1.7646  0.8595 -0.7025
 2318SOL    HW3 9039   1.729   5.927   6.285 -0.9743  0.9476  1.1054
 2318SOL    MW4 9040   1.713   5.850   6.321 -0.1059 -0.0943 -0.1230
 2319SOL     OW 9041   2.588   3.305   3.474 -0.5681  0.1112 -0.3236
 2319SOL    HW2 9042   2.654   3.340   3.534  1.2925 -2.7762 -0.5242
 2319SOL    HW3 9043   2.628   3.311   3.388 -1.5777  0.5052 -0.7769
 2319SOL    MW4 9044   2.602   3.310   3.471 -0.1929  0.5612  0.1213
 2320SOL     OW 9045   0.675   3.804   5.672 -0.0943  0.1726  0.3008
 2320SOL    HW2 9046   0.605   3.766   5.726 -1.3024  2.2829  0.3018
 2320SOL    HW3 9047   0.667   3.898   5.685  1.5914  0.5660 -1.1630
 2320SOL    MW4 9048   0.665   3.811   5.681  0.0274  0.2866 -0.5647
 2321SOL     OW 9049   0.408   3.566   1.972 -0.7970 -0.4262 -0.4265
 2321SOL    HW2 9050   0.316   3.590   1.985 -0.8441 -0.7002 -0.2228
 2321SOL    HW3 9051   0.449   3.584   2.057 -0.1195  1.9920 -1.1849
 2321SOL    MW4 9052   0.401   3.571   1.985 -0.8239  0.0126  0.3332
 2322SOL     OW 9053   5.049   0.055   2.651 -0.0760  0.2464 -0.4985
 2322SOL    HW2 9054   5.037   0.126   2.588  0.1617  0.9455  0.2282
 2322SOL    HW3 9055   4.982  -0.010   2.626  0.2525  0.3331 -1.6834
 2322SOL    MW4 9056   5.038   0.055   2.639 -0.8546 -0.1516  0.1624
 2323SOL     OW 9057   4.527   4.627   5.423  0.1337  0.1136 -0.3486
 2323SOL    HW2 9058   4.621   4.624   5.408 -0.0764 -0.3586 -1.7806
 2323SOL    HW3 9059   4.495   4.692   5.361 -0.6532 -0.8657 -1.0077
 2323SOL    MW4 9060   4.535   4.635   5.413 -0.5443 -0.1351 -0.0143
 2324SOL     OW 9061   3.796   0.920   5.415  0.6484 -0.1053 -0.4372
 2324SOL    HW2 9062   3.750   0.985   5.362  0.1684 -0.7944 -0.8964
 2324SOL    HW3 9063   3.889   0.941   5.405  0.4872  0.6659 -0.3524
 2324SOL    MW4 9064   3.802   0.931   5.407 -0.8630 -0.1519  0.6365
 2325SOL     OW 9065   0.616   2.446   1.404 -0.9572 -0.0927 -0.5764
 2325SOL    HW2 9066   0.635   2.353   1.389 -1.5010 -0.1644 -0.8514
 2325SOL    HW3 9067   0.633   2.460   1.497 -2.2154 -0.8041 -0.2166
 2325SOL    MW4 9068   0.621   2.435   1.414 -0.2534  0.4011 -0.0503
 2326SOL     OW 9069   2.802   3.155   0.674 -0.5647 -0.2059  0.6785
 2326SOL    HW2 9070   2.716   3.175   0.639 -0.4477  0.1864  0.6139
 2326SOL    HW3 9071   2.859   3.148   0.598 -0.2322  1.0293  0.8053
 2326SOL    MW4 9072   2.798   3.156   0.660  0.6367 -0.3773  0.0297
 2327SOL     OW 9073   1.936   6.268   0.825 -0.1751 -0.6789 -0.6605
 2327SOL    HW2 9074   1.955   6.229   0.739 -3.4429 -1.1382 -1.3392
 2327SOL    HW3 9075   1.849   6.306   0.814 -0.2904  0.0809  2.2213
 2327SOL    MW4 9076   1.927   6.268   0.812  0.0794 -0.0998 -0.0360
 2328SOL     OW 9077   3.251   5.587   5.936 -0.1698 -0.1453  0.2371
 2328SOL    HW2 9078   3.253   5.642   5.857 -0.7829 -0.0854  0.2618
 2328SOL    HW3 9079   3.268   5.499   5.904 -0.0540 -0.0686  0.0844
 2328SOL    MW4 9080   3.254   5.583   5.922 -0.2107 -0.0697  0.4921
 2329SOL     OW 9081   2.823   5.927   0.583 -0.3955 -0.3013 -0.1934
 2329SOL    HW2 9082   2.778   6.009   0.603 -0.7656  0.2795 -3.0219
 2329SOL    HW3 9083   2.771   5.859   0.627 -1.0440  0.7918  0.7875
 2329SOL    MW4 9084   2.810   5.929   0.592 -0.5319  0.4587  0.1732
 2330SOL     OW 9085   1.062   3.328   1.640 -0.1996 -0.5606 -0.7102
 2330SOL    HW2 9086   0.988   3.386   1.627  0.0524  0.3208  1.3709
 2330SOL    HW3 9087   1.138   3.377   1.609 -0.1921 -0.4483 -0.5163
 2330SOL    MW4 9088   1.062   3.342   1.634 -0.1569 -0.5477  0.1664
 2331SOL     OW 9089   2.742   4.323   1.881 -0.2460 -0.2543 -0.3690
 2331SOL    HW2 9090   2.795   4.243   1.879 -0.3402 -0.3118 -0.6374
 2331SOL    HW3 9091   2.805   4.393   1.895 -0.2414 -0.4433  0.6075
 2331SOL    MW4 9092   2.757   4.322   1.882  0.2867  0.4879  0.0896
 2332SOL     OW 9093   1.542   5.989   3.382 -0.1292  0.0723 -0.0253
 2332SOL    HW2 9094   1.603   6.015   3.451  0.7818  0.0027 -0.7805
 2332SOL    HW3 9095   1.559   6.051   3.311 -0.1346 -0.6429 -0.6706
 2332SOL    MW4 9096   1.553   6.001   3.382 -0.0560 -0.0177 -0.1693
 2333SOL     OW 9097   1.170   4.081   0.351  0.2656 -0.3443  0.2875
 2333SOL    HW2 9098   1.198   4.023   0.280  0.0906  0.1159 -0.1703
 2333SOL    HW3 9099   1.213   4.164   0.331 -0.7924  0.1530  0.0071
 2333SOL    MW4 9100   1.179   4.085   0.339  0.0054  0.5965 -0.7338
 2334SOL     OW 9101   1.596   2.029   4.452  0.1387  0.1020  0.3803
 2334SOL    HW2 9102   1.533   2.086   4.496  0.9987  0.4292  1.2380
 2334SOL    HW3 9103   1.668   2.087   4.427  0.3557 -0.3528 -0.0826
 2334SOL    MW4 9104   1.597   2.044   4.455 -0.0159  0.0352  0.5168
 2335SOL     OW 9105   1.300   0.103   3.974  0.7303  0.0446  0.7207
 2335SOL    HW2 9106   1.287   0.161   3.899 -0.3513  0.2908  1.0880
 2335SOL    HW3 9107   1.373   0.143   4.022  1.2384  0.0448 -0.0220
 2335SOL    MW4 9108   1.308   0.116   3.970 -0.6344  0.2859  0.1818
 2336SOL     OW 9109   5.196   0.159   4.842 -0.0746 -0.6414 -0.1075
 2336SOL    HW2 9110   5.208   0.167   4.747  0.8015 -0.7599 -0.0172
 2336SOL    HW3 9111   5.130   0.091   4.852  0.8280 -1.6287 -0.6209
 2336SOL    MW4 9112   5.189   0.151   4.831 -0.3839 -0.1299 -0.9687
 2337SOL     OW 9113   3.068   0.601   0.275  0.4476 -0.2047 -0.3947
 2337SOL    HW2 9114   3.010   0.525   0.281  0.0469  0.1552  0.4528
 2337SOL    HW3 9115   3.089   0.607   0.182 -2.0018  0.4680 -0.9931
 2337SOL    MW4 9116   3.063   0.591   0.263  0.3977 -0.2967  0.8975
 2338SOL     OW 9117   4.905   4.112   4.464 -0.0716  0.7048 -0.3150
 2338SOL    HW2 9118   4.821   4.109   4.510  0.7045  0.8068  1.1592
 2338SOL    HW3 9119   4.910   4.029   4.416 -2.1579  1.7752 -2.6207
 2338SOL    MW4 9120   4.895   4.101   4.463 -0.1122 -0.1123  0.1484
 2339SOL     OW 9121   5.811   2.151   4.231  0.2159 -0.4895  0.1052
 2339SOL    HW2 9122   5.843   2.209   4.301  4.1148 -1.9747 -0.1961
 2339SOL    HW3 9123   5.856   2.181   4.152 -0.8197 -1.4754 -0.8971
 2339SOL    MW4 9124   5.821   2.163   4.230 -0.3772  0.1033  0.0742
 2340SOL     OW 9125   5.533   4.781   0.535  0.3708 -0.3577  0.0648
 2340SOL    HW2 9126   5.593   4.845   0.573  0.7629  0.2685 -1.4927
 2340SOL    HW3 9127   5.489   4.828   0.464 -1.5002 -0.9985  0.7243
 2340SOL    MW4 9128   5.535   4.795   0.530  0.1624 -0.0056  0.7733
 2341SOL     OW 9129   4.355   5.020   1.031  0.0163 -0.0920  0.5309
 2341SOL    HW2 9130   4.428   4.972   0.991 -0.2674 -0.6864  0.7157
 2341SOL    HW3 9131   4.390   5.052   1.114 -0.0819 -0.8062  0.8525
 2341SOL    MW4 9132   4.369   5.018   1.036 -0.4268 -0.6127 -0.1250
 2342SOL     OW 9133   5.258   1.543   4.230 -0.0377  0.4030 -0.0031
 2342SOL    HW2 9134   5.348   1.571   4.212  0.5144 -1.9619 -1.4882
 2342SOL    HW3 9135   5.203   1.608   4.187  1.0444  0.8872 -0.6958
 2342SOL    MW4 9136   5.263   1.555   4.222  0.2116 -0.3813 -0.4432
 2343SOL     OW 9137   1.873   4.007   4.987 -0.5063 -0.2013  0.3547
 2343SOL    HW2 9138   1.891   4.085   4.935  0.8974 -1.5870 -1.3571
 2343SOL    HW3 9139   1.940   4.007   5.055 -2.4899  1.7440  2.5141
 2343SOL    MW4 9140   1.884   4.017   4.989  0.3779  0.8886  0.0974
 2344SOL     OW 9141   5.632   1.929   4.786 -0.4049  0.2547  0.1490
 2344SOL    HW2 9142   5.660   1.843   4.818  0.0820  0.5023  0.4061
 2344SOL    HW3 9143   5.554   1.911   4.734  0.4610 -0.5317 -0.9490
 2344SOL    MW4 9144   5.626   1.915   4.783  0.4997 -0.4418 -0.3576
 2345SOL     OW 9145   5.784   5.329   0.779  0.6898  0.5528 -0.6626
 2345SOL    HW2 9146   5.842   5.381   0.724  1.5771  0.0944 -0.1727
 2345SOL    HW3 9147   5.818   5.340   0.868 -0.2621  0.6635 -0.2985
 2345SOL    MW4 9148   5.796   5.338   0.784  0.0824  0.8692 -0.3044
 2346SOL     OW 9149   4.325   5.548   2.575 -0.5637  0.5986  0.3635
 2346SOL    HW2 9150   4.330   5.552   2.671 -0.2782  1.7594  0.3172
 2346SOL    HW3 9151   4.396   5.605   2.546  1.8339 -2.5423 -0.6134
 2346SOL    MW4 9152   4.335   5.556   2.584  0.5058  0.3093  0.3509
 2347SOL     OW 9153   4.712   1.328   2.570 -0.0885  0.1455 -0.0725
 2347SOL    HW2 9154   4.647   1.395   2.588  0.2690  0.2945  0.6974
 2347SOL    HW3 9155   4.668   1.267   2.510 -0.9718  0.1684  0.5411
 2347SOL    MW4 9156   4.698   1.329   2.564  0.0009  0.4559  0.5687
 2348SOL     OW 9157   1.241   2.725   5.028  0.0996  0.2640  0.8801
 2348SOL    HW2 9158   1.308   2.725   4.960 -0.4912  0.7875  0.2822
 2348SOL    HW3 9159   1.285   2.691   5.106  0.5223 -1.3572 -0.0209
 2348SOL    MW4 9160   1.256   2.721   5.030 -0.0155  0.7496 -0.3884
 2349SOL     OW 9161   1.485   1.030   4.508 -0.1519 -1.0797  0.6670
 2349SOL    HW2 9162   1.409   1.088   4.500  0.6858  0.0871  0.8639
 2349SOL    HW3 9163   1.511   1.011   4.418  0.1840 -0.2773  0.5812
 2349SOL    MW4 9164   1.479   1.035   4.495  0.4469 -0.0265 -0.6472
 2350SOL     OW 9165   0.770   4.238   4.692  0.2234 -0.5079 -0.5273
 2350SOL    HW2 9166   0.723   4.154   4.686  0.9365 -0.9143 -0.5283
 2350SOL    HW3 9167   0.857   4.214   4.722  0.6983  0.1476 -1.3433
 2350SOL    MW4 9168   0.775   4.223   4.695  0.1337  0.1825  0.7783
 2351SOL     OW 9169   4.137   6.055   6.118  0.3855  0.1423 -0.9299
 2351SOL    HW2 9170   4.205   6.114   6.150  0.7310 -0.5156 -0.4302
 2351SOL    HW3 9171   4.128   5.988   6.186  0.0201 -0.4002 -1.4905
 2351SOL    MW4 9172   4.145   6.054   6.131 -0.1015 -0.0463  0.2994
 2352SOL     OW 9173   1.384   5.336   1.584 -0.0213  1.2455 -0.0566
 2352SOL    HW2 9174   1.370   5.345   1.490  0.1817  1.2552 -0.0863
 2352SOL    HW3 9175   1.382   5.241   1.599 -1.0581  1.2786  0.0867
 2352SOL    MW4 9176   1.382   5.324   1.573  0.0972  0.3605  0.4310
 2353SOL     OW 9177   5.742   3.493   3.270 -0.1264  0.5109  0.2072
 2353SOL    HW2 9178   5.788   3.526   3.193 -0.5341  1.8925  0.5203
 2353SOL    HW3 9179   5.653   3.527   3.261 -1.1883 -2.2588 -0.4672
 2353SOL    MW4 9180   5.736   3.502   3.259 -0.2227  0.0757  0.8839
 2354SOL     OW 9181   3.248   0.935   0.738  0.3269 -0.2379  0.0216
 2354SOL    HW2 9182   3.323   0.891   0.778  1.0179  0.3599 -0.5858
 2354SOL    HW3 9183   3.233   0.886   0.656  1.5814  1.0585 -1.0398
 2354SOL    MW4 9184   3.256   0.923   0.732  0.0903 -0.0091 -0.1095
 2355SOL     OW 9185   6.242   5.770   0.769  0.8344 -0.2222 -0.6469
 2355SOL    HW2 9186   6.212   5.750   0.680 -0.4446 -1.3162  0.0078
 2355SOL    HW3 9187   6.320   5.716   0.780 -0.0067 -1.4466 -0.5052
 2355SOL    MW4 9188   6.248   5.760   0.758  0.6483  0.3497 -0.3024
 2356SOL     OW 9189   3.452   1.168   4.030 -0.3299  0.1860 -0.4693
 2356SOL    HW2 9190   3.400   1.246   4.048  2.2755  2.0148 -0.2938
 2356SOL    HW3 9191   3.478   1.176   3.939 -0.3350 -0.6930 -0.5620
 2356SOL    MW4 9192   3.449   1.179   4.021 -0.3032  0.3352 -0.0346
 2357SOL     OW 9193   5.486   1.594   0.439  0.3179  0.0342 -0.0675
 2357SOL    HW2 9194   5.455   1.639   0.360 -0.3590 -0.7516 -0.2659
 2357SOL    HW3 9195   5.581   1.598   0.433  0.2711  0.5865 -0.5659
 2357SOL    MW4 9196   5.494   1.601   0.428 -0.3402 -0.3719 -0.1487
 2358SOL     OW 9197   3.003   3.248   2.160 -0.3047  0.0291 -0.0887
 2358SOL    HW2 9198   3.026   3.166   2.205 -0.0058  0.1069 -0.0931
 2358SOL    HW3 9199   3.073   3.309   2.185 -2.1285  1.2496  2.4202
 2358SOL    MW4 9200   3.016   3.245   2.170  0.0905 -0.1098  0.4816
 2359SOL     OW 9201   5.702   0.142   5.199  0.1366  0.1176  0.0226
 2359SOL    HW2 9202   5.754   0.118   5.122 -0.1241  0.2503 -0.1976
 2359SOL    HW3 9203   5.619   0.096   5.186  0.5724 -0.9482  0.8969
 2359SOL    MW4 9204   5.698   0.133   5.187  0.4126  0.7297 -0.0283
 2360SOL     OW 9205   0.693   2.556   2.651 -0.2894 -0.0292 -0.1226
 2360SOL    HW2 9206   0.784   2.531   2.669 -0.3831 -0.1264  0.2352
 2360SOL    HW3 9207   0.689   2.649   2.675 -0.4627 -0.2070  0.5714
 2360SOL    MW4 9208   0.705   2.565   2.657  0.3624 -0.4474  0.4262
 2361SOL     OW 9209   2.115   4.608   5.103  0.0041 -0.5479  0.4666
 2361SOL    HW2 9210   2.041   4.615   5.043 -0.0264 -2.5032  0.1944
 2361SOL    HW3 9211   2.077   4.578   5.186  0.1033  1.7153  1.3939
 2361SOL    MW4 9212   2.100   4.605   5.106 -0.3939  0.1082 -0.2041
 2362SOL     OW 9213   0.232   5.837   3.457  0.5228  0.1957  0.4621
 2362SOL    HW2 9214   0.174   5.913   3.463  2.1423  1.6036 -0.5897
 2362SOL    HW3 9215   0.293   5.848   3.530  0.2398 -0.5851  0.8229
 2362SOL    MW4 9216   0.233   5.849   3.468  0.2484 -0.0410  0.0331
 2363SOL     OW 9217   1.071   2.052   4.814  0.1856 -0.0188  0.0282
 2363SOL    HW2 9218   1.037   1.978   4.764 -2.0310  0.9589 -0.0167
 2363SOL    HW3 9219   1.166   2.043   4.808  0.0040 -2.8289  0.0201
 2363SOL    MW4 9220   1.079   2.041   4.807 -0.1227 -0.2533  0.1543
 2364SOL     OW 9221   3.018   1.634   4.986 -0.0637  0.5405  0.3914
 2364SOL    HW2 9222   3.091   1.635   4.924  0.2490 -1.0355  0.6692
 2364SOL    HW3 9223   2.942   1.660   4.934  0.3160 -0.0403 -0.4986
 2364SOL    MW4 9224   3.018   1.637   4.971  0.1207  0.0271 -0.1485
 2365SOL     OW 9225   1.217   4.096   2.786  0.0022 -0.1742  0.3298
 2365SOL    HW2 9226   1.309   4.079   2.805 -0.0213  0.3018  0.9133
 2365SOL    HW3 9227   1.183   4.136   2.867 -1.2934 -2.4200  0.9741
 2365SOL    MW4 9228   1.225   4.099   2.799  0.4945 -0.0018 -0.0586
 2366SOL     OW 9229   2.150   0.754   1.052  0.0717 -0.0529 -0.1809
 2366SOL    HW2 9230   2.095   0.675   1.046  1.6118 -1.1747  0.0051
 2366SOL    HW3 9231   2.153   0.788   0.963 -0.3767 -0.3452 -0.3113
 2366SOL    MW4 9232   2.143   0.748   1.040 -0.2350  0.4252  0.6955
 2367SOL     OW 9233   0.719   4.222   3.606 -0.3062 -0.1707 -0.1965
 2367SOL    HW2 9234   0.643   4.266   3.644 -0.4254 -0.6916  0.1926
 2367SOL    HW3 9235   0.704   4.129   3.625  0.0471 -0.3551 -0.8002
 2367SOL    MW4 9236   0.707   4.215   3.614  0.4965 -0.3994 -0.3710
 2368SOL     OW 9237   3.812   2.409   2.937  0.1179  0.7089 -0.4167
 2368SOL    HW2 9238   3.815   2.431   2.844  1.7345 -0.4822 -0.7001
 2368SOL    HW3 9239   3.823   2.492   2.982  1.0217  1.1079 -1.3315
 2368SOL    MW4 9240   3.814   2.423   2.931  0.2386  0.0037  0.0364
 2369SOL     OW 9241   6.311   5.389   1.065  0.2845  0.1882 -0.1406
 2369SOL    HW2 9242   6.284   5.318   1.123 -0.7470 -0.5461 -1.4605
 2369SOL    HW3 9243   6.255   5.462   1.090 -1.6672 -0.7472 -1.5483
 2369SOL    MW4 9244   6.300   5.389   1.076 -0.3384  0.0932 -0.9757
 2370SOL     OW 9245   4.931   1.180   0.852 -0.0311  0.0151  0.7511
 2370SOL    HW2 9246   4.935   1.208   0.760  0.9438 -1.1185  0.4243
 2370SOL    HW3 9247   5.012   1.132   0.866 -0.8995 -1.2340  1.7302
 2370SOL    MW4 9248   4.942   1.178   0.842  0.5242 -0.0121 -0.0936
 2371SOL     OW 9249   1.626   0.534   4.732 -0.0464  0.2394  0.3419
 2371SOL    HW2 9250   1.554   0.525   4.670  0.2273 -1.1700  0.2018
 2371SOL    HW3 9251   1.583   0.540   4.818 -0.3747 -2.5433  0.4791
 2371SOL    MW4 9252   1.611   0.533   4.735  0.4863 -0.4012  0.1500
 2372SOL     OW 9253   0.908   4.606   1.753  0.5860  0.3848  0.3175
 2372SOL    HW2 9254   0.878   4.568   1.836  0.0413 -1.4893 -0.6671
 2372SOL    HW3 9255   1.000   4.580   1.746  0.6899  0.7240  0.4421
 2372SOL    MW4 9256   0.916   4.597   1.763  0.0452 -0.6991  0.7434
 2373SOL     OW 9257   4.485   5.742   2.465  0.0292 -0.2329  0.1362
 2373SOL    HW2 9258   4.475   5.795   2.385 -0.3550  1.2136  1.1031
 2373SOL    HW3 9259   4.579   5.746   2.485  0.4070 -1.9452 -1.0937
 2373SOL    MW4 9260   4.496   5.750   2.457  0.5004 -0.2025 -0.0699
 2374SOL     OW 9261   2.741   1.592   3.843  0.2456  0.2474 -0.5730
 2374SOL    HW2 9262   2.652   1.626   3.830  0.5307  1.0529 -0.4503
 2374SOL    HW3 9263   2.782   1.654   3.902  0.9133 -0.0957 -0.6680
 2374SOL    MW4 9264   2.734   1.605   3.849 -0.1830  0.0706  0.1854
 2375SOL     OW 9265   3.881   3.278   5.245  0.7492  0.2779  0.2650
 2375SOL    HW2 9266   3.818   3.347   5.267 -0.3271  0.2558 -2.4085
 2375SOL    HW3 9267   3.865   3.209   5.310  0.9592  1.9434  2.1867
 2375SOL    MW4 9268   3.871   3.278   5.256 -0.7590 -0.3350  0.4464
 2376SOL     OW 9269   3.808   5.789   1.380 -0.0785  0.6558  0.4273
 2376SOL    HW2 9270   3.803   5.695   1.362 -1.3293  0.4964  1.4313
 2376SOL    HW3 9271   3.746   5.802   1.452 -0.7070  2.4152 -0.3837
 2376SOL    MW4 9272   3.799   5.778   1.387 -0.5115  0.3347  0.0362
 2377SOL     OW 9273   6.364   0.268   5.934  0.4720 -0.3910 -0.0575
 2377SOL    HW2 9274   6.416   0.342   5.966  2.0365 -1.0672 -0.9465
 2377SOL    HW3 9275   6.382   0.198   5.997 -0.7583 -0.1396  0.6033
 2377SOL    MW4 9276   6.373   0.269   5.947 -0.1926 -0.0100  0.6867
 2378SOL     OW 9277   6.438   5.095   2.924  0.8098 -0.0294  0.3205
 2378SOL    HW2 9278   6.483   5.176   2.950  0.4838  0.3885 -0.3871
 2378SOL    HW3 9279   6.345   5.119   2.923  0.5534 -0.8406  1.6216
 2378SOL    MW4 9280   6.432   5.109   2.928  0.0559  0.0171 -0.2754
 2379SOL     OW 9281   0.220   1.853   5.443  0.3917  0.2289 -0.2134
 2379SOL    HW2 9282   0.148   1.883   5.388 -1.3655 -0.9596  1.3121
 2379SOL    HW3 9283   0.277   1.930   5.453 -0.2775  1.0013 -2.0099
 2379SOL    MW4 9284   0.218   1.867   5.437  0.4249 -0.4914 -0.1360
 2380SOL     OW 9285   5.805   4.140   2.368  0.5372 -0.0153  0.0565
 2380SOL    HW2 9286   5.804   4.142   2.464  1.3406  0.5517  0.0623
 2380SOL    HW3 9287   5.851   4.060   2.346  0.3544 -0.1449  0.1481
 2380SOL    MW4 9288   5.811   4.130   2.378  0.0676  0.0127  0.3163
 2381SOL     OW 9289   1.990   3.134   3.039 -0.0724  0.2314 -0.1391
 2381SOL    HW2 9290   2.018   3.044   3.023 -2.0109 -0.2835 -0.8680
 2381SOL    HW3 9291   2.060   3.188   3.002  0.1451 -0.9772 -1.5645
 2381SOL    MW4 9292   2.003   3.129   3.032 -0.5448  0.6648  0.6675
 2382SOL     OW 9293   0.419   1.070   4.521  0.0693  0.5200  0.5647
 2382SOL    HW2 9294   0.381   1.157   4.510  0.9256  0.8100 -0.2481
 2382SOL    HW3 9295   0.474   1.077   4.599  0.3190  0.7691  0.3642
 2382SOL    MW4 9296   0.421   1.082   4.530 -0.5270  0.0350  0.3676
 2383SOL     OW 9297   5.281   4.517   0.355  0.3230  0.3476  0.2306
 2383SOL    HW2 9298   5.367   4.530   0.315  0.3981  1.5580  0.7356
 2383SOL    HW3 9299   5.226   4.482   0.285  1.6556 -2.1895  0.3525
 2383SOL    MW4 9300   5.285   4.514   0.341 -0.5194 -0.2050 -0.3619
 2384SOL     OW 9301   4.347   3.158   0.815 -0.6820  0.1619 -0.0775
 2384SOL    HW2 9302   4.291   3.167   0.738 -0.0428 -1.8591 -0.8492
 2384SOL    HW3 9303   4.340   3.066   0.839  0.1473  0.4804  1.5094
 2384SOL    MW4 9304   4.339   3.147   0.808  0.1072  0.1133  0.0499
 2385SOL     OW 9305   4.348   2.378   5.026 -0.3893  0.0273  1.0316
 2385SOL    HW2 9306   4.425   2.426   5.057 -0.5987  0.5494  0.7487
 2385SOL    HW3 9307   4.326   2.419   4.943 -0.2020 -0.9650  0.4735
 2385SOL    MW4 9308   4.355   2.390   5.019 -0.3647 -0.0704  0.1964
 2386SOL     OW 9309   5.306   0.493   3.494  0.2169  0.0685  0.1079
 2386SOL    HW2 9310   5.263   0.533   3.570 -1.9998 -0.9221 -0.5799
 2386SOL    HW3 9311   5.328   0.567   3.437  0.1075  0.6420  0.7963
 2386SOL    MW4 9312   5.303   0.508   3.497 -0.6224  0.1281 -0.1070
 2387SOL     OW 9313   1.214   3.847   1.560  0.1921  0.1010  0.6933
 2387SOL    HW2 9314   1.203   3.896   1.642 -0.7304 -1.5436  1.6120
 2387SOL    HW3 9315   1.131   3.802   1.547  0.2095  0.5638 -1.3585
 2387SOL    MW4 9316   1.202   3.848   1.569  0.0267  0.1876  0.4703
 2388SOL     OW 9317   3.634   0.789   4.016  0.0242 -0.1764 -0.0519
 2388SOL    HW2 9318   3.565   0.777   4.081  0.0459 -1.5388 -0.2543
 2388SOL    HW3 9319   3.660   0.700   3.992 -0.0817  0.2858 -2.0431
 2388SOL    MW4 9320   3.628   0.776   4.021 -0.1477 -0.5822  0.7473
 2389SOL     OW 9321   2.249   5.203   4.476  0.0722 -0.3955  0.5396
 2389SOL    HW2 9322   2.227   5.122   4.429 -0.8325 -0.9121  1.7934
 2389SOL    HW3 9323   2.326   5.180   4.528  2.2219  0.6876 -1.9155
 2389SOL    MW4 9324   2.256   5.189   4.477  0.1599  0.3278  0.3500
 2390SOL     OW 9325   1.815   1.252   1.674  0.7085 -0.0431 -0.5799
 2390SOL    HW2 9326   1.761   1.215   1.744 -0.0150 -0.3964 -1.3044
 2390SOL    HW3 9327   1.794   1.199   1.597  2.6857 -0.6791 -0.7157
 2390SOL    MW4 9328   1.805   1.240   1.673  0.1164  0.0211 -0.3158
 2391SOL     OW 9329   2.041   0.646   3.170 -0.1385  0.2262 -0.3124
 2391SOL    HW2 9330   2.018   0.721   3.226  1.1353  0.0589  0.4852
 2391SOL    HW3 9331   2.136   0.652   3.161 -0.1295 -0.7717 -1.0147
 2391SOL    MW4 9332   2.050   0.657   3.176 -0.3052  0.3794  0.8880
 2392SOL     OW 9333   3.350   2.774   1.190  0.1858 -0.7479  0.4838
 2392SOL    HW2 9334   3.333   2.680   1.182 -2.5696 -0.3029 -0.0083
 2392SOL    HW3 9335   3.294   2.814   1.123  2.8998  1.1757 -0.8317
 2392SOL    MW4 9336   3.340   2.767   1.180  0.3642 -0.2766 -0.1462
 2393SOL     OW 9337   1.141   6.001   3.565  0.1055  0.0393 -0.2187
 2393SOL    HW2 9338   1.178   6.029   3.649  1.5613 -2.1456 -0.0619
 2393SOL    HW3 9339   1.204   6.030   3.500 -1.1022  1.8764 -0.6554
 2393SOL    MW4 9340   1.154   6.008   3.568 -0.1734 -1.0992  0.4179
 2394SOL     OW 9341   4.637   1.804   3.524 -0.3251  0.0819 -0.2513
 2394SOL    HW2 9342   4.625   1.877   3.463 -1.0911  0.8719  0.8114
 2394SOL    HW3 9343   4.550   1.768   3.537 -0.0176 -0.7513 -0.4063
 2394SOL    MW4 9344   4.624   1.809   3.518  0.2732 -0.4218 -0.3917
 2395SOL     OW 9345   1.041   1.130   2.155  0.4963  0.3383  0.1318
 2395SOL    HW2 9346   0.972   1.163   2.098  0.3766  1.6165  0.9528
 2395SOL    HW3 9347   1.121   1.142   2.105  0.5761  2.8616  0.7058
 2395SOL    MW4 9348   1.042   1.136   2.141 -0.0501 -0.6239  0.0940
 2396SOL     OW 9349   0.799   3.616   2.169 -0.1667 -0.2691  0.0967
 2396SOL    HW2 9350   0.725   3.676   2.181  0.3679  0.1519  1.3942
 2396SOL    HW3 9351   0.875   3.666   2.198  0.4698 -1.1149 -0.0903
 2396SOL    MW4 9352   0.799   3.631   2.174 -0.1391 -0.6301 -0.3194
 2397SOL     OW 9353   0.590   0.833   1.620  0.3840 -0.0357  0.2268
 2397SOL    HW2 9354   0.616   0.765   1.682 -1.4201  0.4059  1.5483
 2397SOL    HW3 9355   0.632   0.912   1.653  0.8343 -0.1141 -0.1442
 2397SOL    MW4 9356   0.599   0.834   1.633 -0.2545  0.1883 -0.4229
 2398SOL     OW 9357   0.880   1.172   6.199  0.4049  0.4474 -0.1177
 2398SOL    HW2 9358   0.915   1.257   6.173  0.6905  0.0542 -1.0984
 2398SOL    HW3 9359   0.851   1.133   6.116  2.0985 -1.2090 -0.0044
 2398SOL    MW4 9360   0.881   1.178   6.184  0.0087  0.2026  0.1127
 2399SOL     OW 9361   3.838   0.159   0.899  0.1726 -0.1996 -0.1521
 2399SOL    HW2 9362   3.845   0.240   0.949  0.5458 -1.1696  1.4665
 2399SOL    HW3 9363   3.796   0.098   0.960 -0.5542 -1.0938 -1.5040
 2399SOL    MW4 9364   3.833   0.162   0.914 -0.5634  0.2572 -0.3968
 2400SOL     OW 9365   1.184   1.290   1.641  0.0200  0.1655 -0.0134
 2400SOL    HW2 9366   1.264   1.341   1.650 -0.9087  1.4348  1.8608
 2400SOL    HW3 9367   1.141   1.325   1.564  0.3732  0.8162  0.0805
 2400SOL    MW4 9368   1.188   1.301   1.632  0.2287 -0.4541 -0.2035
 2401SOL     OW 9369   1.399   5.558   4.449  0.4657 -0.2621  0.0387
 2401SOL    HW2 9370   1.307   5.543   4.425  0.5858  0.0442 -0.6427
 2401SOL    HW3 9371   1.395   5.595   4.537 -0.2647  2.3977 -1.0035
 2401SOL    MW4 9372   1.386   5.561   4.457  0.0985  0.4056  0.3464
 2402SOL     OW 9373   4.336   3.070   1.666 -0.7284  0.5433 -0.0332
 2402SOL    HW2 9374   4.298   3.085   1.579 -1.9939 -1.7375  0.0461
 2402SOL    HW3 9375   4.288   3.130   1.724 -1.7181  0.2242 -0.5050
 2402SOL    MW4 9376   4.325   3.080   1.662  0.6633  0.1157  0.4089
 2403SOL     OW 9377   3.801   0.439   5.233 -0.1850 -0.4401  0.4647
 2403SOL    HW2 9378   3.726   0.381   5.224 -0.5147 -0.1494  1.2382
 2403SOL    HW3 9379   3.764   0.524   5.256  0.3927 -0.3637  1.1639
 2403SOL    MW4 9380   3.787   0.442   5.235 -0.0531 -0.2444  0.2158
 2404SOL     OW 9381   3.616   2.261   2.663  0.2789 -0.0040 -1.0250
 2404SOL    HW2 9382   3.533   2.235   2.701 -0.0494 -0.5136 -2.0561
 2404SOL    HW3 9383   3.627   2.352   2.688 -1.1205  0.3899 -1.7905
 2404SOL    MW4 9384   3.607   2.269   2.671  0.4567  0.2364 -0.3391
 2405SOL     OW 9385   0.414   5.294   3.542  0.2850  0.3051 -0.3291
 2405SOL    HW2 9386   0.449   5.302   3.453 -0.2655 -1.0289 -0.6892
 2405SOL    HW3 9387   0.479   5.239   3.588  0.2886  0.5266 -0.0696
 2405SOL    MW4 9388   0.427   5.287   3.536 -0.0871 -0.1384 -0.1598
 2406SOL     OW 9389   6.015   4.294   3.934 -0.5989  0.3737 -0.4714
 2406SOL    HW2 9390   5.948   4.326   3.873 -0.8404 -0.3902 -0.6153
 2406SOL    HW3 9391   6.076   4.245   3.879 -1.9970 -2.2371  0.1350
 2406SOL    MW4 9392   6.014   4.292   3.918 -0.1065 -0.1617  0.2849
 2407SOL     OW 9393   3.450   0.535   6.271  0.1221  0.3654  0.4042
 2407SOL    HW2 9394   3.395   0.458   6.258  0.4022  0.6431 -3.7783
 2407SOL    HW3 9395   3.528   0.502   6.316  0.3631 -1.9517 -1.5226
 2407SOL    MW4 9396   3.453   0.520   6.275 -0.0408  0.3590  0.0803
 2408SOL     OW 9397   2.313   4.376   1.169  0.1311  0.0037  0.7754
 2408SOL    HW2 9398   2.288   4.373   1.261  0.8655  0.1619  0.9856
 2408SOL    HW3 9399   2.293   4.465   1.141 -2.0747 -0.6302  0.1964
 2408SOL    MW4 9400   2.307   4.387   1.177  0.0064  0.4742  0.0139
 2409SOL     OW 9401   6.038   1.729   0.407 -0.4742 -0.3898  0.3270
 2409SOL    HW2 9402   6.083   1.810   0.433 -1.0871  0.0678 -0.0197
 2409SOL    HW3 9403   6.108   1.674   0.371 -0.4044  0.9985 -1.8851
 2409SOL    MW4 9404   6.053   1.733   0.406  0.0371  0.3434 -0.4768
 2410SOL     OW 9405   6.024   1.602   3.638 -0.1383 -0.3930 -0.4796
 2410SOL    HW2 9406   6.106   1.553   3.631  1.2240  1.6775  0.0307
 2410SOL    HW3 9407   5.960   1.549   3.591  1.1504 -2.7546  0.2548
 2410SOL    MW4 9408   6.026   1.588   3.631 -0.1453  0.0292  0.3626
 2411SOL     OW 9409   3.921   5.605   3.256 -0.6043 -0.0907  0.5223
 2411SOL    HW2 9410   3.916   5.511   3.238 -0.6942 -0.2596  1.3935
 2411SOL    HW3 9411   3.938   5.611   3.350  2.5179  0.6788  0.0507
 2411SOL    MW4 9412   3.923   5.594   3.266  0.7752 -0.2924  0.0603
 2412SOL     OW 9413   5.775   1.789   1.440  0.0677  0.4011  0.3160
 2412SOL    HW2 9414   5.786   1.763   1.531  0.1629  0.2802  0.2716
 2412SOL    HW3 9415   5.688   1.759   1.416  0.9432 -1.8379 -0.3628
 2412SOL    MW4 9416   5.765   1.781   1.449  0.4855 -0.1541  0.3609
 2413SOL     OW 9417   1.226   0.351   2.801  0.3501  0.2258  0.1990
 2413SOL    HW2 9418   1.141   0.318   2.829  0.1945 -0.0655 -0.5864
 2413SOL    HW3 9419   1.246   0.302   2.721  0.0117  2.1433 -1.1465
 2413SOL    MW4 9420   1.218   0.340   2.794  0.4376 -0.7631 -0.5912
 2414SOL     OW 9421   4.387   1.137   5.860  0.2504  0.0963 -0.2792
 2414SOL    HW2 9422   4.348   1.166   5.943  0.1066 -0.6313 -0.0856
 2414SOL    HW3 9423   4.313   1.106   5.808  0.3404  0.5434 -0.6847
 2414SOL    MW4 9424   4.372   1.136   5.864  0.2057 -0.8699 -0.4832
 2415SOL     OW 9425   5.501   6.313   0.998  0.3198 -0.1516  0.3507
 2415SOL    HW2 9426   5.535   6.257   0.929  1.4399  0.0299  0.7317
 2415SOL    HW3 9427   5.411   6.282   1.012 -0.4325  0.7369 -2.1232
 2415SOL    MW4 9428   5.494   6.302   0.991 -0.1678  0.0888  0.3807
 2416SOL     OW 9429   5.630   4.566   1.680  0.2708 -0.1645 -0.0830
 2416SOL    HW2 9430   5.548   4.521   1.700 -0.3885  0.4923 -1.2297
 2416SOL    HW3 9431   5.605   4.657   1.669  1.1241  0.0095 -0.6511
 2416SOL    MW4 9432   5.616   4.572   1.681 -0.1643  0.0227 -0.0352
 2417SOL     OW 9433   3.384   3.585   2.164 -0.2725 -0.6131  0.5101
 2417SOL    HW2 9434   3.327   3.642   2.113  1.6874  0.6733 -0.3743
 2417SOL    HW3 9435   3.358   3.599   2.255 -1.0993  0.2271  0.1551
 2417SOL    MW4 9436   3.373   3.594   2.169 -0.5008 -0.0164 -0.4001
 2418SOL     OW 9437   3.015   5.942   3.581 -0.4262 -0.3831 -0.6833
 2418SOL    HW2 9438   3.039   5.903   3.665  2.1524  0.8769 -0.7383
 2418SOL    HW3 9439   3.005   5.868   3.522  0.3306 -1.1607  0.1350
 2418SOL    MW4 9440   3.017   5.927   3.584 -0.4123 -0.0425 -0.1059
 2419SOL     OW 9441   4.275   1.492   1.698  0.5477  0.3640 -0.3016
 2419SOL    HW2 9442   4.221   1.518   1.624  0.6426  0.8128 -0.2205
 2419SOL    HW3 9443   4.225   1.425   1.744 -1.5059  3.0217  1.6752
 2419SOL    MW4 9444   4.261   1.487   1.694  0.0874 -0.4461  0.1960
 2420SOL     OW 9445   4.726   2.440   5.867  0.3830  0.5460  0.2322
 2420SOL    HW2 9446   4.668   2.409   5.797  0.2087  0.0874  0.5787
 2420SOL    HW3 9447   4.814   2.432   5.830  0.3228 -0.1316  0.2267
 2420SOL    MW4 9448   4.730   2.435   5.853 -0.3951  0.3950  0.2357
 2421SOL     OW 9449   4.939   5.022   3.963 -0.4400  0.2207 -0.1506
 2421SOL    HW2 9450   5.015   4.985   4.008 -0.9149  1.5122  1.8161
 2421SOL    HW3 9451   4.867   4.963   3.984 -0.3901  0.0819 -0.3650
 2421SOL    MW4 9452   4.940   5.009   3.972 -0.2763  0.7209  0.4110
 2422SOL     OW 9453   4.752   2.035   4.780  0.0310 -0.2557  0.6720
 2422SOL    HW2 9454   4.680   2.071   4.728 -2.0634 -0.7152  3.0407
 2422SOL    HW3 9455   4.787   2.111   4.828  0.4209 -0.2126  0.3236
 2422SOL    MW4 9456   4.747   2.050   4.780 -0.1163 -1.1307 -0.0336
 2423SOL     OW 9457   4.281   6.361   2.418  0.2912 -0.6519 -0.0357
 2423SOL    HW2 9458   4.344   6.416   2.464  1.1577 -1.9992  0.4368
 2423SOL    HW3 9459   4.204   6.417   2.407  1.6634  1.1605 -0.9780
 2423SOL    MW4 9460   4.279   6.376   2.422  0.1376  0.4303 -0.3980
 2424SOL     OW 9461   3.252   0.255   0.829 -0.4243  0.0466 -0.3054
 2424SOL    HW2 9462   3.264   0.162   0.851  0.7048  0.1244 -0.5198
 2424SOL    HW3 9463   3.267   0.301   0.912 -0.4554  0.0704 -0.3132
 2424SOL    MW4 9464   3.256   0.249   0.843 -0.7874 -0.6643 -0.1808
 2425SOL     OW 9465   2.315   0.880   4.525  0.5224 -0.5129 -0.0783
 2425SOL    HW2 9466   2.345   0.913   4.610 -0.4151  0.3572 -0.0736
 2425SOL    HW3 9467   2.231   0.839   4.544  1.3767 -2.4455 -0.1911
 2425SOL    MW4 9468   2.308   0.879   4.539  0.0168 -0.3474  0.5193
 2426SOL     OW 9469   5.933   3.356   5.237 -0.5200  0.1162  0.3340
 2426SOL    HW2 9470   5.978   3.310   5.308  0.5946 -1.5264 -1.2991
 2426SOL    HW3 9471   5.989   3.431   5.218  1.5903 -1.7360 -1.4710
 2426SOL    MW4 9472   5.946   3.360   5.243 -0.5246 -0.4407 -0.1428
 2427SOL     OW 9473   4.776   1.539   4.905 -0.1003 -0.2230  0.3614
 2427SOL    HW2 9474   4.732   1.470   4.855  1.4402 -0.4021 -0.8079
 2427SOL    HW3 9475   4.864   1.542   4.869 -0.3250  2.9124 -0.2218
 2427SOL    MW4 9476   4.782   1.530   4.893  0.4864 -0.0841  0.3390
 2428SOL     OW 9477   1.452   1.491   1.975  0.1806  0.6549 -0.1823
 2428SOL    HW2 9478   1.463   1.503   1.881 -1.5472  0.1720 -0.4839
 2428SOL    HW3 9479   1.541   1.487   2.010  0.8644  2.4330 -1.5733
 2428SOL    MW4 9480   1.465   1.492   1.967  0.5870  0.0112  0.2116
 2429SOL     OW 9481   2.376   0.659   5.630  0.0121  0.4410  0.7013
 2429SOL    HW2 9482   2.281   0.661   5.633  0.0180  0.0199  1.7281
 2429SOL    HW3 9483   2.397   0.591   5.565 -0.4011 -0.2618  1.2903
 2429SOL    MW4 9484   2.366   0.650   5.622 -0.2552 -0.2636  0.3863
 2430SOL     OW 9485   3.576   2.170   4.382  0.2889  0.5439  0.0526
 2430SOL    HW2 9486   3.535   2.117   4.451  0.3050 -0.0040 -0.3476
 2430SOL    HW3 9487   3.597   2.253   4.425 -1.3356  0.8932  0.2568
 2430SOL    MW4 9488   3.573   2.174   4.397  0.4977  0.2079 -0.4358
 2431SOL     OW 9489   2.242   0.422   2.043 -0.3841  0.1945 -0.3488
 2431SOL    HW2 9490   2.274   0.333   2.057  0.1375  0.1199 -1.8467
 2431SOL    HW3 9491   2.155   0.423   2.083  0.0551 -0.6415  0.6804
 2431SOL    MW4 9492   2.235   0.410   2.050  0.1102 -0.0086 -0.3302
 2432SOL     OW 9493   4.839   5.820   3.265 -0.0271 -0.1500 -0.1376
 2432SOL    HW2 9494   4.895   5.746   3.240 -0.3194 -1.4977  2.7517
 2432SOL    HW3 9495   4.891   5.897   3.245  3.0151 -1.3207  2.3190
 2432SOL    MW4 9496   4.853   5.820   3.259 -0.0616 -0.0091  0.0151
 2433SOL     OW 9497   2.125   6.000   5.429  0.1341 -0.3133 -0.0731
 2433SOL    HW2 9498   2.128   5.932   5.361  1.5081 -0.2825 -0.0707
 2433SOL    HW3 9499   2.081   5.959   5.503 -0.3196 -0.7352 -0.5762
 2433SOL    MW4 9500   2.120   5.986   5.430 -0.0649 -0.2493 -1.1225
 2434SOL     OW 9501   3.169   4.653   0.082 -0.2696  0.2007  0.0852
 2434SOL    HW2 9502   3.151   4.673   0.174 -0.1754  0.6554  0.0065
 2434SOL    HW3 9503   3.238   4.587   0.086 -2.2924 -2.0123  0.4035
 2434SOL    MW4 9504   3.176   4.647   0.095 -0.1791  0.6356 -0.7383
 2435SOL     OW 9505   0.446   1.106   2.981 -0.0056 -0.4313  0.3339
 2435SOL    HW2 9506   0.520   1.046   2.992 -0.5869 -1.3959 -0.8142
 2435SOL    HW3 9507   0.374   1.064   3.029 -0.0117  0.1503  0.8497
 2435SOL    MW4 9508   0.446   1.093   2.989 -0.1425  0.2899 -0.2628
 2436SOL     OW 9509   2.735   2.337   0.895  0.3549  0.5532  0.2190
 2436SOL    HW2 9510   2.662   2.319   0.835  0.9568 -0.1405 -0.3196
 2436SOL    HW3 9511   2.722   2.276   0.967  1.9716 -1.6762 -1.2462
 2436SOL    MW4 9512   2.723   2.327   0.897 -0.2278  0.4679  0.0409
 2437SOL     OW 9513   5.922   4.078   4.068 -0.0864  0.0443  0.2209
 2437SOL    HW2 9514   5.828   4.091   4.060  0.0328 -0.3004 -4.0751
 2437SOL    HW3 9515   5.961   4.155   4.027  1.3674 -1.0798 -0.6323
 2437SOL    MW4 9516   5.915   4.090   4.062 -0.1002  0.7279  0.3317
 2438SOL     OW 9517   5.573   3.102   2.538  0.2327 -0.0780 -0.1226
 2438SOL    HW2 9518   5.599   3.123   2.448  0.9659  2.2260  0.5660
 2438SOL    HW3 9519   5.632   3.030   2.562 -1.1763 -1.9958 -2.0117
 2438SOL    MW4 9520   5.584   3.095   2.529  0.2088  0.0380 -0.2629
 2439SOL     OW 9521   1.314   4.309   2.253  0.0265 -0.4033 -0.4744
 2439SOL    HW2 9522   1.297   4.308   2.347 -0.0750  1.7340 -0.4149
 2439SOL    HW3 9523   1.228   4.298   2.213 -0.1386  0.1784 -0.2876
 2439SOL    MW4 9524   1.301   4.308   2.260 -0.5337  0.0685  0.1121
 2440SOL     OW 9525   4.530   5.867   3.494  0.5122 -0.3674  0.5819
 2440SOL    HW2 9526   4.456   5.818   3.457 -0.3156 -0.8182  2.6601
 2440SOL    HW3 9527   4.506   5.959   3.483  0.1367 -0.5005  0.2836
 2440SOL    MW4 9528   4.517   5.873   3.488  0.5019  0.2364  0.0576
 2441SOL     OW 9529   6.099   4.461   2.193 -0.3427 -0.0567 -0.6990
 2441SOL    HW2 9530   6.040   4.429   2.261  1.0945  0.3272  0.8042
 2441SOL    HW3 9531   6.073   4.552   2.179  0.1091  0.2299  0.2423
 2441SOL    MW4 9532   6.088   4.469   2.200  0.9146 -0.1236 -0.3649
 2442SOL     OW 9533   3.570   6.350   2.684 -0.1130  0.5273 -0.7333
 2442SOL    HW2 9534   3.507   6.290   2.644  0.1071 -0.8613  0.8700
 2442SOL    HW3 9535   3.616   6.296   2.748  0.6193  2.2499  0.2457
 2442SOL    MW4 9536   3.568   6.335   2.687  0.0769 -0.6502  0.3881
 2443SOL     OW 9537   1.917   3.097   5.335 -0.8803  0.8541 -0.4391
 2443SOL    HW2 9538   1.941   3.006   5.353 -2.2791  0.4240 -0.6233
 2443SOL    HW3 9539   1.944   3.145   5.413 -2.0498 -0.0968  0.6071
 2443SOL    MW4 9540   1.923   3.091   5.348  0.7956  0.0397 -0.3835
 2444SOL     OW 9541   6.112   2.080   5.982  0.1972 -0.2837 -0.3125
 2444SOL    HW2 9542   6.177   2.103   5.915  1.8613 -0.3937  1.1876
 2444SOL    HW3 9543   6.112   1.985   5.984 -1.1630 -0.3342 -1.3334
 2444SOL    MW4 9544   6.121   2.071   5.974 -0.1818 -0.5875 -0.4302
 2445SOL     OW 9545   2.546   0.459   5.183 -0.1736 -0.1915 -0.1596
 2445SOL    HW2 9546   2.580   0.534   5.136  0.4403  0.5101  1.3264
 2445SOL    HW3 9547   2.560   0.385   5.124 -0.0420  0.7385 -1.3185
 2445SOL    MW4 9548   2.553   0.459   5.169  0.2473  0.1953  0.2189
 2446SOL     OW 9549   3.324   5.233   5.599 -0.2415  0.4540  0.0434
 2446SOL    HW2 9550   3.394   5.280   5.554  0.6343 -0.3076  0.5900
 2446SOL    HW3 9551   3.364   5.151   5.629 -1.8386 -0.9272 -1.3422
 2446SOL    MW4 9552   3.338   5.228   5.597 -0.1005 -0.1492  0.2559
 2447SOL     OW 9553   4.010   4.019   2.045 -0.1316  0.0873 -0.2957
 2447SOL    HW2 9554   4.023   4.009   1.951  0.1215 -2.0938 -0.0967
 2447SOL    HW3 9555   3.918   3.996   2.059 -0.1619  0.3754  0.0007
 2447SOL    MW4 9556   4.000   4.014   2.034 -0.3075  0.2581 -0.3248
 2448SOL     OW 9557   3.561   1.539   0.057  0.0509 -0.2295  0.1278
 2448SOL    HW2 9558   3.597   1.458   0.093  0.8312  0.0716  0.0477
 2448SOL    HW3 9559   3.468   1.537   0.081 -0.1825 -1.6266 -0.7385
 2448SOL    MW4 9560   3.553   1.528   0.065  0.2551 -0.0902  0.2730
 2449SOL     OW 9561   5.838   0.367   4.659  0.3389 -0.3981  0.1329
 2449SOL    HW2 9562   5.921   0.397   4.620  1.3047 -1.1354  1.5260
 2449SOL    HW3 9563   5.838   0.272   4.645 -0.2764 -0.4034  0.1530
 2449SOL    MW4 9564   5.849   0.359   4.652 -0.4272 -0.4006  0.1028
 2450SOL     OW 9565   3.930   2.659   5.505  0.1967 -0.5928  0.1976
 2450SOL    HW2 9566   3.970   2.727   5.559  0.0105 -0.7863  0.5812
 2450SOL    HW3 9567   3.945   2.578   5.553 -1.4470 -0.5618  0.8004
 2450SOL    MW4 9568   3.938   2.657   5.518  0.1753 -0.5305 -0.3460
 2451SOL     OW 9569   0.966   2.075   5.394  0.3801  0.8259 -0.6355
 2451SOL    HW2 9570   1.047   2.106   5.435 -1.1452  1.8636  1.7724
 2451SOL    HW3 9571   0.944   1.995   5.441  0.1239  0.3797 -1.4860
 2451SOL    MW4 9572   0.974   2.069   5.405 -0.0803  0.4755 -0.4140
 2452SOL     OW 9573   1.474   1.916   0.681 -0.3374 -0.5703 -0.2086
 2452SOL    HW2 9574   1.421   1.915   0.761 -0.0397  1.1567  0.0387
 2452SOL    HW3 9575   1.535   1.989   0.694 -0.5036 -0.0378 -2.1674
 2452SOL    MW4 9576   1.475   1.925   0.694 -0.2335  0.2873 -0.1158
 2453SOL     OW 9577   4.069   5.853   0.673  0.5192 -0.2900  0.5230
 2453SOL    HW2 9578   4.120   5.796   0.615 -0.6971 -0.0570 -0.8186
 2453SOL    HW3 9579   3.979   5.844   0.643 -0.1450 -0.0850  2.3466
 2453SOL    MW4 9580   4.064   5.844   0.661  0.0510  0.0352 -0.3501
 2454SOL     OW 9581   3.541   0.432   1.629  0.1601 -0.4193 -0.7829
 2454SOL    HW2 9582   3.488   0.470   1.559  0.8859  0.3867 -0.9235
 2454SOL    HW3 9583   3.629   0.426   1.592  0.7602  0.8923  0.3328
 2454SOL    MW4 9584   3.546   0.436   1.615  0.2826 -0.3911  0.0158
 2455SOL     OW 9585   4.087   2.202   5.958 -0.3969  0.7067  0.3728
 2455SOL    HW2 9586   4.125   2.170   5.876  3.9981  0.2206  2.2815
 2455SOL    HW3 9587   4.061   2.123   6.006  0.2241  0.7189  0.7453
 2455SOL    MW4 9588   4.089   2.187   5.954 -0.7631 -0.6327  0.3537
 2456SOL     OW 9589   3.129   0.857   1.536 -0.1284  0.3082 -0.4595
 2456SOL    HW2 9590   3.165   0.786   1.589 -0.2440 -1.7685 -2.9740
 2456SOL    HW3 9591   3.034   0.847   1.544 -0.1451  0.3315 -0.6316
 2456SOL    MW4 9592   3.121   0.847   1.544 -0.1805 -0.5123 -0.0699
 2457SOL     OW 9593   3.548   5.331   5.448  0.2924  0.0364  0.3075
 2457SOL    HW2 9594   3.625   5.352   5.501  0.0707 -1.1729  1.1485
 2457SOL    HW3 9595   3.561   5.379   5.366  1.4987  0.5581  0.7882
 2457SOL    MW4 9596   3.560   5.340   5.444  0.0353  0.3743 -0.7787
 2458SOL     OW 9597   6.234   3.353   0.191 -0.0308 -0.2023 -0.2602
 2458SOL    HW2 9598   6.309   3.294   0.196 -0.4735 -0.6847  1.2157
 2458SOL    HW3 9599   6.207   3.365   0.282 -1.9492 -0.2940 -0.7909
 2458SOL    MW4 9600   6.240   3.347   0.203  0.0898 -0.5174  0.2679
 2459SOL     OW 9601   5.991   6.309   2.690  0.2608  0.0528  0.7129
 2459SOL    HW2 9602   6.034   6.355   2.763 -2.4346  1.2001  1.7263
 2459SOL    HW3 9603   5.904   6.289   2.723 -1.2239  0.9869 -2.3284
 2459SOL    MW4 9604   5.985   6.313   2.704  0.3384  0.1447  0.1205
 2460SOL     OW 9605   1.358   3.639   4.044 -0.3088 -0.0286  0.0403
 2460SOL    HW2 9606   1.384   3.677   4.128 -1.4995  2.5032 -0.6351
 2460SOL    HW3 9607   1.344   3.546   4.063  1.5940  0.0307  2.0976
 2460SOL    MW4 9608   1.359   3.631   4.058 -0.2489 -0.4229 -0.0576
 2461SOL     OW 9609   0.849   4.476   0.463  0.0177 -0.3707 -0.6245
 2461SOL    HW2 9610   0.849   4.532   0.385 -1.4133 -0.7417 -0.9163
 2461SOL    HW3 9611   0.906   4.403   0.441 -1.6990 -1.3770 -2.0426
 2461SOL    MW4 9612   0.856   4.474   0.450 -0.1723 -0.1013  0.3555
 2462SOL     OW 9613   1.430   4.131   6.214 -0.1782  0.1458 -0.0110
 2462SOL    HW2 9614   1.522   4.130   6.188 -0.2021 -1.3488 -0.1245
 2462SOL    HW3 9615   1.390   4.061   6.162 -1.7229  1.7482 -1.1109
 2462SOL    MW4 9616   1.437   4.122   6.204  0.6938 -0.1751  0.5776
 2463SOL     OW 9617   4.429   2.345   3.369 -0.0425 -0.4175  0.1735
 2463SOL    HW2 9618   4.456   2.309   3.284  0.7241  0.9403 -0.1980
 2463SOL    HW3 9619   4.348   2.392   3.350  2.3514  3.7901 -0.9657
 2463SOL    MW4 9620   4.422   2.346   3.355  0.0830 -0.6429  0.1001
 2464SOL     OW 9621   5.817   3.822   2.486  0.5233  0.4365  0.4470
 2464SOL    HW2 9622   5.724   3.840   2.474  0.3299 -0.7451  0.1077
 2464SOL    HW3 9623   5.841   3.872   2.564 -0.8248 -0.6831  1.6129
 2464SOL    MW4 9624   5.808   3.831   2.495 -0.7840  0.1999  0.6092
 2465SOL     OW 9625   4.415   2.776   2.053 -0.5306 -0.1290  0.2985
 2465SOL    HW2 9626   4.325   2.747   2.065 -0.2724 -1.9976 -1.6856
 2465SOL    HW3 9627   4.421   2.797   1.960  0.2758  3.1948  0.9696
 2465SOL    MW4 9628   4.404   2.775   2.043  0.4298 -0.2363 -0.4467
 2466SOL     OW 9629   2.971   5.554   5.933 -0.0908  0.0191 -0.1409
 2466SOL    HW2 9630   2.954   5.649   5.935 -2.2520 -0.3098 -1.0327
 2466SOL    HW3 9631   3.061   5.546   5.966 -0.8508  2.1258  2.8811
 2466SOL    MW4 9632   2.981   5.566   5.938 -0.2487 -0.1063  0.3319
 2467SOL     OW 9633   3.060   2.738   1.458  0.4435 -0.0991  0.3169
 2467SOL    HW2 9634   2.989   2.774   1.405  0.1458  1.2365  1.5565
 2467SOL    HW3 9635   3.132   2.799   1.448  1.6834 -1.7200 -1.3507
 2467SOL    MW4 9636   3.060   2.751   1.450 -0.0355 -0.7581  0.7608
 2468SOL     OW 9637   2.042   5.805   4.921  0.3323  0.2343  0.0649
 2468SOL    HW2 9638   2.101   5.881   4.923  0.4366  0.2920 -2.3466
 2468SOL    HW3 9639   1.954   5.842   4.916  0.2353  0.1536  0.9512
 2468SOL    MW4 9640   2.038   5.820   4.921 -0.0775  0.3383 -0.9496
 2469SOL     OW 9641   1.197   0.046   2.153  0.5197 -0.2833 -0.3811
 2469SOL    HW2 9642   1.282   0.067   2.191  0.0252  0.8376  0.1442
 2469SOL    HW3 9643   1.209  -0.040   2.113  1.3810 -0.9684  1.2808
 2469SOL    MW4 9644   1.210   0.037   2.153 -0.2654 -0.0358 -0.1504
 2470SOL     OW 9645   4.908   4.366   4.371  0.0783 -0.1905 -0.4551
 2470SOL    HW2 9646   4.945   4.289   4.414  0.4409 -0.7544 -1.7174
 2470SOL    HW3 9647   4.948   4.366   4.283 -0.2225  1.2060 -0.6212
 2470SOL    MW4 9648   4.918   4.356   4.365 -0.5824 -0.4281  0.5046
 2471SOL     OW 9649   0.892   6.045   5.001 -0.2733  0.5571 -0.5716
 2471SOL    HW2 9650   0.951   6.098   4.947  1.8357  0.7194  1.7408
 2471SOL    HW3 9651   0.925   5.955   4.992 -0.7620  0.3778 -0.6103
 2471SOL    MW4 9652   0.904   6.040   4.993  0.0327 -0.0461  0.0182
 2472SOL     OW 9653   4.233   0.205   4.639 -0.1878 -0.1382  0.0115
 2472SOL    HW2 9654   4.289   0.135   4.671  0.2390  0.1256 -0.1583
 2472SOL    HW3 9655   4.293   0.276   4.617 -0.8385  1.7686  3.7243
 2472SOL    MW4 9656   4.248   0.205   4.640 -0.3401 -0.0483  0.2150
 2473SOL     OW 9657   1.052   1.969   1.791 -0.0191 -0.0249 -0.5680
 2473SOL    HW2 9658   1.005   2.010   1.718 -1.3817  0.0871  0.3407
 2473SOL    HW3 9659   0.992   1.975   1.865  0.0904 -2.8188 -0.1536
 2473SOL    MW4 9660   1.038   1.975   1.791 -0.3982 -0.6354 -0.1254
 2474SOL     OW 9661   1.271   2.344   2.866  0.3904 -0.5683 -0.4209
 2474SOL    HW2 9662   1.322   2.411   2.821  1.5407  0.3341  2.0305
 2474SOL    HW3 9663   1.192   2.390   2.895  0.1629 -0.8527 -0.5858
 2474SOL    MW4 9664   1.267   2.359   2.864 -0.0556 -0.4590  0.2483
 2475SOL     OW 9665   4.790   2.335   3.028 -0.0372 -0.4004  0.4353
 2475SOL    HW2 9666   4.781   2.422   3.067 -0.2294 -0.4614  0.5331
 2475SOL    HW3 9667   4.801   2.276   3.103  1.0566 -0.3513  0.3221
 2475SOL    MW4 9668   4.790   2.339   3.043  0.0775 -0.0421  0.4497
 2476SOL     OW 9669   0.488   1.330   1.814  0.8875 -0.4895  0.1510
 2476SOL    HW2 9670   0.433   1.407   1.830 -0.0620 -1.1333  0.0801
 2476SOL    HW3 9671   0.551   1.330   1.885  0.7627  0.2316  0.2726
 2476SOL    MW4 9672   0.489   1.340   1.825 -0.7383  0.0167 -0.2939
 2477SOL     OW 9673   3.515   3.997   5.118  0.0303  0.2837  0.3403
 2477SOL    HW2 9674   3.597   4.046   5.111  0.8725 -0.9700  1.1839
 2477SOL    HW3 9675   3.476   4.004   5.030  0.8088  1.2473  0.0504
 2477SOL    MW4 9676   3.520   4.005   5.105  0.2929 -0.5551  1.2594
 2478SOL     OW 9677   0.765   6.343   1.399 -0.1160 -0.2370 -0.5214
 2478SOL    HW2 9678   0.846   6.301   1.369  0.9802  0.5910  1.1555
 2478SOL    HW3 9679   0.788   6.435   1.407 -1.2552  0.0154 -0.0360
 2478SOL    MW4 9680   0.778   6.349   1.396  0.1169 -1.2538  0.0306
 2479SOL     OW 9681   2.853   0.189   3.853 -0.1243  0.6482 -0.0742
 2479SOL    HW2 9682   2.840   0.137   3.774  0.1234 -0.4303  0.5776
 2479SOL    HW3 9683   2.929   0.150   3.895 -1.2200  0.1618  1.5305
 2479SOL    MW4 9684   2.861   0.177   3.848 -0.2611  0.2151  0.3834
 2480SOL     OW 9685   1.450   5.646   6.314  1.0234 -0.1286  0.0746
 2480SOL    HW2 9686   1.534   5.605   6.336 -0.0568 -2.8777 -0.5630
 2480SOL    HW3 9687   1.386   5.576   6.323 -1.1183  1.6816 -0.3004
 2480SOL    MW4 9688   1.453   5.631   6.318 -1.0448  0.8965  0.0722
 2481SOL     OW 9689   4.975   2.663   5.298 -0.2679  0.2231 -0.3555
 2481SOL    HW2 9690   5.037   2.593   5.281  0.0982  0.9162 -2.0918
 2481SOL    HW3 9691   5.025   2.727   5.348 -0.6880 -0.8320  1.4934
 2481SOL    MW4 9692   4.989   2.663   5.302  0.1205 -0.1156 -0.2056
 2482SOL     OW 9693   4.479   5.087   5.111 -0.0764 -0.2249 -0.1768
 2482SOL    HW2 9694   4.454   5.145   5.183 -0.5087  0.5290 -0.9082
 2482SOL    HW3 9695   4.400   5.079   5.058  0.4229 -0.1733 -0.9569
 2482SOL    MW4 9696   4.465   5.094   5.113  0.1758 -0.2533  0.1456
 2483SOL     OW 9697   0.559   2.421   6.270  1.2146 -0.0888 -0.4215
 2483SOL    HW2 9698   0.605   2.497   6.305 -0.4648  0.7226  0.1501
 2483SOL    HW3 9699   0.557   2.435   6.176  1.8569  0.0003 -0.4301
 2483SOL    MW4 9700   0.565   2.433   6.262 -0.1374  0.0170 -0.3278
 2484SOL     OW 9701   0.370   0.802   2.028  0.0310 -0.9679 -0.2109
 2484SOL    HW2 9702   0.343   0.842   1.945  0.1536  0.7816  0.5430
 2484SOL    HW3 9703   0.290   0.801   2.081  0.1627 -1.1744 -0.0151
 2484SOL    MW4 9704   0.356   0.807   2.024  0.1450 -0.1056 -0.3359
 2485SOL     OW 9705   0.528   5.494   6.243  0.0817  0.3405  0.6280
 2485SOL    HW2 9706   0.571   5.498   6.329  0.6493 -1.4373  0.4671
 2485SOL    HW3 9707   0.434   5.503   6.263  0.0996 -1.2041  1.5985
 2485SOL    MW4 9708   0.521   5.496   6.257  0.1452 -0.0877  0.0445
 2486SOL     OW 9709   2.610   5.718   5.704 -0.1459 -0.2853 -0.4013
 2486SOL    HW2 9710   2.535   5.729   5.762  1.0969 -2.7474  1.8806
 2486SOL    HW3 9711   2.599   5.629   5.668  1.8159 -0.8546  0.2931
 2486SOL    MW4 9712   2.599   5.707   5.707 -0.5029  0.7309 -0.2923
 2487SOL     OW 9713   4.817   3.937   2.697 -0.5790  0.1212 -0.2014
 2487SOL    HW2 9714   4.763   4.017   2.701 -2.1397 -0.8424 -0.8853
 2487SOL    HW3 9715   4.761   3.870   2.736 -0.0158 -1.0161 -1.3117
 2487SOL    MW4 9716   4.802   3.939   2.703 -0.6330 -0.4176 -0.1996
 2488SOL     OW 9717   3.967   0.233   3.929 -0.3366 -0.1793  0.0797
 2488SOL    HW2 9718   3.958   0.293   4.002  0.2334  1.8951 -1.4562
 2488SOL    HW3 9719   4.061   0.223   3.918 -0.4251 -1.0749  0.0723
 2488SOL    MW4 9720   3.978   0.239   3.937  0.7883 -0.1937 -0.3748
 2489SOL     OW 9721   0.393   5.991   5.726 -0.3518 -0.1590 -0.0259
 2489SOL    HW2 9722   0.424   5.943   5.649 -2.2283 -3.0249  0.8548
 2489SOL    HW3 9723   0.470   5.997   5.783  0.8090  1.1407 -1.6258
 2489SOL    MW4 9724   0.407   5.986   5.723  0.3291 -0.3157  0.0562
 2490SOL     OW 9725   5.396   0.012   5.958 -0.1361  0.2769  0.6036
 2490SOL    HW2 9726   5.301   0.012   5.956 -0.1502 -0.4377  1.0689
 2490SOL    HW3 9727   5.420  -0.077   5.983  0.5978  0.9240  2.4307
 2490SOL    MW4 9728   5.387  -0.000   5.961  0.1953  0.4577  0.1632
 2491SOL     OW 9729   0.832   2.395   4.290 -0.2948  0.1714 -0.1885
 2491SOL    HW2 9730   0.849   2.477   4.337 -0.7973  0.2463 -0.1308
 2491SOL    HW3 9731   0.745   2.407   4.251 -0.6807 -0.5975  0.4030
 2491SOL    MW4 9732   0.823   2.407   4.291  0.1109  0.4472 -0.6415
 2492SOL     OW 9733   2.904   1.304   0.492  0.3646 -0.0655  0.0395
 2492SOL    HW2 9734   2.831   1.259   0.450  0.2270 -1.6717  1.9076
 2492SOL    HW3 9735   2.904   1.391   0.451 -1.7774 -0.4388 -0.9083
 2492SOL    MW4 9736   2.894   1.310   0.481  0.1464 -0.5650  0.3815
 2493SOL     OW 9737   0.280   3.082   1.861  0.3257  0.0917 -0.4682
 2493SOL    HW2 9738   0.234   3.037   1.931 -0.2127  3.4340  1.5278
 2493SOL    HW3 9739   0.211   3.107   1.799  0.1379  0.8075  0.0149
 2493SOL    MW4 9740   0.265   3.079   1.862 -0.0571 -0.2067 -0.6465
 2494SOL     OW 9741   1.921   6.134   0.021  0.1435  0.0486  0.2641
 2494SOL    HW2 9742   1.874   6.136  -0.062  0.5275 -0.4616  0.0272
 2494SOL    HW3 9743   1.853   6.125   0.088 -0.2515  1.4428  0.0954
 2494SOL    MW4 9744   1.906   6.133   0.019 -0.1111  0.5391 -0.3557
 2495SOL     OW 9745   1.251   1.342   4.751 -0.4472 -0.0164 -0.1149
 2495SOL    HW2 9746   1.345   1.344   4.770 -0.4368 -0.2360 -0.1389
 2495SOL    HW3 9747   1.212   1.400   4.816 -0.2715  0.2424 -0.2401
 2495SOL    MW4 9748   1.259   1.350   4.762 -0.2362  0.1634 -0.1284
 2496SOL     OW 9749   5.031   0.594   5.066 -0.4224  0.5163 -0.2814
 2496SOL    HW2 9750   5.021   0.501   5.086 -0.9188  0.1602 -2.0259
 2496SOL    HW3 9751   4.951   0.634   5.101 -0.0247  0.3753  0.8299
 2496SOL    MW4 9752   5.019   0.587   5.073 -0.0708 -0.0299 -0.1189
 2497SOL     OW 9753   0.115   0.247   0.838 -0.0795  0.1322 -0.2597
 2497SOL    HW2 9754   0.198   0.247   0.790 -0.7569  0.9844 -1.4798
 2497SOL    HW3 9755   0.057   0.191   0.786 -0.5507  0.3115  0.0692
 2497SOL    MW4 9756   0.119   0.239   0.825 -0.0779  0.5404 -0.5170
 2498SOL     OW 9757   4.063   1.662   5.857 -0.2474  0.0141  0.8287
 2498SOL    HW2 9758   4.104   1.746   5.881 -2.0408  0.6771  1.7196
 2498SOL    HW3 9759   4.075   1.607   5.934 -1.8800  0.5660  1.5158
 2498SOL    MW4 9760   4.070   1.666   5.870  0.0122 -0.2170  0.2131
 2499SOL     OW 9761   0.054   1.133   4.425  0.0738  0.3364  0.0046
 2499SOL    HW2 9762   0.106   1.103   4.351 -0.7311  0.6227 -0.6894
 2499SOL    HW3 9763  -0.033   1.098   4.410  0.4019 -1.6283  2.0633
 2499SOL    MW4 9764   0.050   1.125   4.414  0.4527 -0.4065  0.0200
 2500SOL     OW 9765   4.587   1.428   0.200 -0.0141 -0.2888 -0.2719
 2500SOL    HW2 9766   4.655   1.495   0.193 -0.6521  0.2983 -1.2672
 2500SOL    HW3 9767   4.615   1.358   0.141  0.2913 -0.5724  0.2059
 2500SOL    MW4 9768   4.599   1.428   0.191  0.0524  0.3299 -0.2255
 2501SOL     OW 9769   4.696   2.676   4.921 -0.0710  0.0137  0.5904
 2501SOL    HW2 9770   4.673   2.616   4.992 -0.0609  0.2725  0.8138
 2501SOL    HW3 9771   4.661   2.635   4.842  1.6158 -1.2747  0.4413
 2501SOL    MW4 9772   4.689   2.663   4.920 -0.5700  0.0542  0.0517
 2502SOL     OW 9773   4.939   2.589   3.734  0.2109  0.8974 -0.5412
 2502SOL    HW2 9774   4.930   2.551   3.647  0.4557 -0.6158  0.0651
 2502SOL    HW3 9775   4.863   2.558   3.782  0.4723  1.0920  0.0059
 2502SOL    MW4 9776   4.928   2.580   3.729 -0.2358 -0.3460 -0.0055
 2503SOL     OW 9777   1.926   3.909   4.269  0.1720  0.3546  0.4352
 2503SOL    HW2 9778   1.948   3.830   4.219 -0.0419 -0.3562  1.4311
 2503SOL    HW3 9779   1.845   3.941   4.229  0.1289 -0.0659  0.1761
 2503SOL    MW4 9780   1.918   3.903   4.257  0.9744 -0.6612 -0.3220
 2504SOL     OW 9781   4.871   3.643   0.277 -0.4727 -0.0089  0.0952
 2504SOL    HW2 9782   4.793   3.698   0.268  0.3060  1.0877 -0.2546
 2504SOL    HW3 9783   4.843   3.570   0.332 -1.8017  0.2341 -0.2181
 2504SOL    MW4 9784   4.857   3.641   0.283  0.4751 -0.4547 -0.2642
 2505SOL     OW 9785   2.367   5.719   5.881 -0.5124 -0.1057 -0.1291
 2505SOL    HW2 9786   2.309   5.679   5.816 -1.4150 -0.2105  0.7066
 2505SOL    HW3 9787   2.307   5.749   5.950  0.5634 -2.5027  2.0036
 2505SOL    MW4 9788   2.351   5.717   5.882  0.0606  0.1256  0.4890
 2506SOL     OW 9789   2.910   5.585   3.703  0.0193 -0.5544 -0.3044
 2506SOL    HW2 9790   2.958   5.651   3.753 -2.0143  0.3064  0.6231
 2506SOL    HW3 9791   2.889   5.517   3.767  0.2886 -1.0974 -0.7841
 2506SOL    MW4 9792   2.914   5.585   3.718 -0.5500 -0.1609 -0.1583
 2507SOL     OW 9793   4.602   2.902   4.621  0.3331  0.0892  0.4099
 2507SOL    HW2 9794   4.563   2.861   4.698  1.5779 -2.1805 -0.0549
 2507SOL    HW3 9795   4.557   2.985   4.612 -1.1453 -0.4065  2.4863
 2507SOL    MW4 9796   4.591   2.907   4.630  0.2642  0.4166  0.1264
 2508SOL     OW 9797   2.220   4.892   4.993 -0.5365 -0.3031  0.1357
 2508SOL    HW2 9798   2.245   4.836   4.920 -0.5598 -0.7472  0.4637
 2508SOL    HW3 9799   2.124   4.896   4.989 -0.5002  0.1669 -0.2211
 2508SOL    MW4 9800   2.211   4.885   4.983 -0.3218  0.0057  0.3052
 2509SOL     OW 9801   0.595   3.473   2.635  0.0522 -0.0636 -0.0337
 2509SOL    HW2 9802   0.659   3.540   2.609 -0.0363 -0.1276 -0.4248
 2509SOL    HW3 9803   0.603   3.405   2.568  1.6846 -1.4917  1.4784
 2509SOL    MW4 9804   0.605   3.473   2.623 -0.0394 -0.3458 -0.6329
 2510SOL     OW 9805   4.847   6.266   1.049  0.0909  0.7035  0.5009
 2510SOL    HW2 9806   4.849   6.171   1.041  1.9724  0.7638 -0.3043
 2510SOL    HW3 9807   4.874   6.283   1.139  0.3674  0.4908  0.4586
 2510SOL    MW4 9808   4.851   6.256   1.059  0.3627  0.4105  0.2744
 2511SOL     OW 9809   5.609   4.316   3.822  0.4898  0.0726 -0.3184
 2511SOL    HW2 9810   5.564   4.400   3.816 -0.0970 -0.0259  1.8286
 2511SOL    HW3 9811   5.537   4.251   3.824  0.6333 -0.1385  2.3434
 2511SOL    MW4 9812   5.593   4.318   3.822 -0.9990  0.1656 -0.7780
 2512SOL     OW 9813   0.967   3.253   2.971  0.0012 -0.0326 -0.5221
 2512SOL    HW2 9814   1.033   3.302   2.923  1.0193 -1.3706 -0.5280
 2512SOL    HW3 9815   0.934   3.315   3.036  1.0426  0.7558 -0.7186
 2512SOL    MW4 9816   0.971   3.268   2.974  0.3110 -0.1966 -1.2802
 2513SOL     OW 9817   1.226   3.647   6.027  0.2561  0.1671  0.6242
 2513SOL    HW2 9818   1.134   3.661   6.004  0.6395  0.6030 -0.7333
 2513SOL    HW3 9819   1.223   3.611   6.115 -1.3574 -2.2706 -0.3268
 2513SOL    MW4 9820   1.213   3.644   6.035  0.3285  0.4487  0.5535
 2514SOL     OW 9821   1.701   4.587   3.214  0.0210 -0.0454  0.0508
 2514SOL    HW2 9822   1.719   4.672   3.253 -0.2588 -0.5225  1.2736
 2514SOL    HW3 9823   1.608   4.571   3.232  0.0341 -0.5401 -0.3008
 2514SOL    MW4 9824   1.691   4.596   3.221  0.3533 -0.3920  0.2181
 2515SOL     OW 9825   1.026   1.847   1.125  0.0785  0.3335 -0.2919
 2515SOL    HW2 9826   1.039   1.847   1.219 -0.2922  1.0518 -0.2347
 2515SOL    HW3 9827   1.022   1.940   1.100  2.1739  0.2001 -1.3080
 2515SOL    MW4 9828   1.027   1.859   1.134  0.5822 -0.0204  0.8166
 2516SOL     OW 9829   4.453   2.584   3.083  0.1152 -0.4333 -0.2098
 2516SOL    HW2 9830   4.422   2.674   3.071 -0.3296 -0.5441  0.0744
 2516SOL    HW3 9831   4.390   2.545   3.143  0.5747 -0.7956  0.0467
 2516SOL    MW4 9832   4.441   2.591   3.090 -0.3529 -0.1103 -0.7702
 2517SOL     OW 9833   3.613   2.375   3.804 -0.1888 -0.0248 -0.1242
 2517SOL    HW2 9834   3.642   2.359   3.714 -0.1834 -0.9060  0.0207
 2517SOL    HW3 9835   3.673   2.322   3.858 -0.6089 -0.0351  0.3431
 2517SOL    MW4 9836   3.625   2.366   3.800  0.5231  0.1932  0.0573
 2518SOL     OW 9837   0.592   1.991   4.846  0.1816 -0.2112 -0.0991
 2518SOL    HW2 9838   0.669   2.045   4.824  0.7943 -0.7630  0.6831
 2518SOL    HW3 9839   0.599   1.915   4.788  0.8901 -0.8494  0.8058
 2518SOL    MW4 9840   0.603   1.988   4.835 -1.4207 -0.2075 -0.1537
 2519SOL     OW 9841   0.768   1.479   2.733 -0.5012 -0.0324  0.1385
 2519SOL    HW2 9842   0.825   1.421   2.682  0.7752 -0.5996  2.0846
 2519SOL    HW3 9843   0.794   1.464   2.824 -1.4470  2.2356  0.8536
 2519SOL    MW4 9844   0.779   1.470   2.738 -0.1393  0.1772  0.4312
 2520SOL     OW 9845   5.767   5.995   2.320 -0.5739 -0.2306  0.4333
 2520SOL    HW2 9846   5.689   5.947   2.347 -2.2213  2.6027  1.1443
 2520SOL    HW3 9847   5.811   5.937   2.258 -2.0539 -2.8216  1.6382
 2520SOL    MW4 9848   5.763   5.981   2.316  0.4614  0.4174  0.0015
 2521SOL     OW 9849   2.107   1.234   1.083  0.2010 -0.1262 -0.2841
 2521SOL    HW2 9850   2.117   1.147   1.123  1.1250 -0.3300 -0.9299
 2521SOL    HW3 9851   2.041   1.221   1.015  0.7839 -0.4801 -0.7942
 2521SOL    MW4 9852   2.099   1.221   1.079  0.2271 -0.4641  0.2204
 2522SOL     OW 9853   1.459   0.107   2.254 -0.1328  0.6779  0.5696
 2522SOL    HW2 9854   1.493   0.053   2.326  0.3020  0.0254 -0.1101
 2522SOL    HW3 9855   1.494   0.066   2.175 -0.8695  1.1962 -0.0381
 2522SOL    MW4 9856   1.468   0.094   2.253 -0.0892  0.5606  0.2269
 2523SOL     OW 9857   4.323   5.355   3.279 -0.1779 -0.3380  0.1587
 2523SOL    HW2 9858   4.301   5.385   3.367  0.7928  0.3754  0.1889
 2523SOL    HW3 9859   4.283   5.420   3.221  2.2076  1.3757  0.2340
 2523SOL    MW4 9860   4.315   5.368   3.283  0.0219 -0.4202 -0.2031
 2524SOL     OW 9861   5.681   3.750   3.961 -0.1954 -0.2287 -0.0535
 2524SOL    HW2 9862   5.651   3.778   4.047 -2.3234 -1.8876 -0.1636
 2524SOL    HW3 9863   5.659   3.823   3.903 -1.2549 -0.1781  0.3899
 2524SOL    MW4 9864   5.674   3.763   3.965  0.5667  0.4427  0.5321
 2525SOL     OW 9865   0.621   1.100   1.940  0.3149  0.2304  0.2935
 2525SOL    HW2 9866   0.627   1.059   2.027  2.2851 -1.7253 -0.6510
 2525SOL    HW3 9867   0.695   1.161   1.938 -0.1125  0.7445  0.2157
 2525SOL    MW4 9868   0.632   1.102   1.951  0.2326 -0.0751  0.4509
 2526SOL     OW 9869   1.012   4.445   4.999  0.0929 -0.1579  0.3397
 2526SOL    HW2 9870   0.967   4.377   5.049 -0.7874 -0.1850 -0.4546
 2526SOL    HW3 9871   1.100   4.412   4.986 -0.1512 -0.8780  0.4794
 2526SOL    MW4 9872   1.017   4.432   5.004 -0.1687  0.0997  0.5664
 2527SOL     OW 9873   3.267   1.614   4.296 -0.0767  0.0469  0.0782
 2527SOL    HW2 9874   3.211   1.679   4.339  0.8742  0.4957  0.6870
 2527SOL    HW3 9875   3.342   1.665   4.263  0.4268 -0.6624  0.0986
 2527SOL    MW4 9876   3.270   1.629   4.297 -0.2006 -0.5026  0.3306
 2528SOL     OW 9877   5.413   4.378   4.920 -0.7428  0.3177 -0.1888
 2528SOL    HW2 9878   5.451   4.466   4.919  0.1117  0.0097  1.4949
 2528SOL    HW3 9879   5.402   4.356   4.827  0.5244  1.5667 -0.6820
 2528SOL    MW4 9880   5.417   4.387   4.907  0.3812  0.4635 -0.0042
 2529SOL     OW 9881   5.409   6.372   1.519 -0.0056  0.3505  0.5084
 2529SOL    HW2 9882   5.469   6.435   1.559  0.6191 -0.7599  1.3718
 2529SOL    HW3 9883   5.323   6.399   1.551  0.3432  0.2668  1.5848
 2529SOL    MW4 9884   5.406   6.384   1.529 -0.3192  0.0394 -0.5053
 2530SOL     OW 9885   4.905   1.539   4.373  0.0323 -0.3441 -0.0048
 2530SOL    HW2 9886   4.812   1.561   4.370  0.0905  0.1692  1.2923
 2530SOL    HW3 9887   4.944   1.590   4.301 -0.5497  0.1335  0.0084
 2530SOL    MW4 9888   4.898   1.549   4.363  0.0735 -0.1500  0.6224
 2531SOL     OW 9889   5.458   1.262   5.027  0.4371 -0.4408 -0.1465
 2531SOL    HW2 9890   5.441   1.177   4.987 -0.9027 -0.4179  0.3259
 2531SOL    HW3 9891   5.553   1.263   5.043  0.4389 -1.9311  0.0414
 2531SOL    MW4 9892   5.468   1.251   5.024  0.0996 -0.5044 -0.0940
 2532SOL     OW 9893   2.995   0.328   2.483 -0.0470 -0.4088  0.0174
 2532SOL    HW2 9894   2.978   0.238   2.511 -1.8240  0.1233  0.8132
 2532SOL    HW3 9895   2.924   0.348   2.422  0.0025  0.6197  0.2792
 2532SOL    MW4 9896   2.983   0.319   2.479 -0.1498  0.3122 -0.1757
 2533SOL     OW 9897   2.452   6.312   5.502  0.1732  0.0514 -0.0368
 2533SOL    HW2 9898   2.451   6.379   5.570  0.0663  0.9260 -0.8841
 2533SOL    HW3 9899   2.447   6.229   5.550 -1.7946  0.6862  0.9608
 2533SOL    MW4 9900   2.451   6.310   5.518  0.2669  0.0751  0.3849
 2534SOL     OW 9901   2.747   1.272   1.600  0.2196  0.2864 -0.1088
 2534SOL    HW2 9902   2.841   1.263   1.586  0.1543  0.0046 -0.3753
 2534SOL    HW3 9903   2.710   1.282   1.512 -0.3266 -2.7387 -0.3312
 2534SOL    MW4 9904   2.754   1.272   1.586 -0.1500  0.0212 -0.0600
 2535SOL     OW 9905   3.873   3.170   0.821  0.0583 -0.0025 -0.2924
 2535SOL    HW2 9906   3.858   3.127   0.737  0.1896  0.2704 -0.4552
 2535SOL    HW3 9907   3.788   3.164   0.866  0.0865 -0.4670 -0.2943
 2535SOL    MW4 9908   3.860   3.163   0.816  0.1966 -0.1922 -0.1350
 2536SOL     OW 9909   0.829   1.026   3.232  0.2655 -0.4349  1.0113
 2536SOL    HW2 9910   0.756   1.024   3.170 -1.1400  0.4254  2.5573
 2536SOL    HW3 9911   0.828   0.939   3.272  0.8075 -0.7946  0.2624
 2536SOL    MW4 9912   0.820   1.014   3.230  0.1920  0.2238 -0.8614
 2537SOL     OW 9913   0.950   2.444   1.557  0.0938  0.1993  0.3177
 2537SOL    HW2 9914   1.020   2.475   1.499  0.2009 -1.2879 -0.3895
 2537SOL    HW3 9915   0.903   2.524   1.582  1.9581  1.2077  0.7290
 2537SOL    MW4 9916   0.953   2.459   1.552  0.2274  0.3170 -0.5241
 2538SOL     OW 9917   4.075   0.376   5.269  0.0094 -0.4396 -0.3996
 2538SOL    HW2 9918   4.122   0.354   5.188 -1.2236 -0.2136 -1.2122
 2538SOL    HW3 9919   3.985   0.393   5.240 -0.3292  0.1869  0.9586
 2538SOL    MW4 9920   4.069   0.375   5.254  0.4372  0.0088  0.2148
 2539SOL     OW 9921   3.177   1.090   1.685  0.0713 -0.5032 -0.1766
 2539SOL    HW2 9922   3.170   1.012   1.630 -1.0361 -0.5302 -0.0256
 2539SOL    HW3 9923   3.170   1.057   1.775 -3.0028 -0.0738 -0.1375
 2539SOL    MW4 9924   3.175   1.075   1.690  0.1332  0.3392 -0.1524
 2540SOL     OW 9925   0.818   2.261   2.980  0.4358  0.2017 -0.4037
 2540SOL    HW2 9926   0.908   2.291   2.986  0.6959 -0.6999  0.3954
 2540SOL    HW3 9927   0.816   2.179   3.030 -0.7748  0.1064 -0.5734
 2540SOL    MW4 9928   0.829   2.254   2.987  0.4796  0.3580 -0.0924
 2541SOL     OW 9929   0.104   0.166   5.201 -0.4477  0.1445 -0.4698
 2541SOL    HW2 9930   0.146   0.081   5.184  1.2493  1.2026 -1.8526
 2541SOL    HW3 9931   0.034   0.171   5.137  1.3660  1.0138 -2.4901
 2541SOL    MW4 9932   0.100   0.155   5.191  0.8406 -0.0101  0.2179
 2542SOL     OW 9933   3.666   2.902   6.359 -0.1845  0.6196 -0.4387
 2542SOL    HW2 9934   3.625   2.893   6.273 -0.0440 -2.9067 -0.2903
 2542SOL    HW3 9935   3.739   2.840   6.357 -0.8830 -0.4806  2.5559
 2542SOL    MW4 9936   3.670   2.893   6.348  0.7027 -0.2604 -0.2709
 2543SOL     OW 9937   4.089   1.801   2.494  0.4678  0.3876  0.5749
 2543SOL    HW2 9938   4.162   1.804   2.432 -0.7904 -1.9819 -1.1756
 2543SOL    HW3 9939   4.011   1.809   2.439 -0.6843 -1.2695  1.8673
 2543SOL    MW4 9940   4.088   1.802   2.479  1.0197  0.3034  0.1651
 2544SOL     OW 9941   1.169   0.310   1.443  0.1875  0.0305 -0.2945
 2544SOL    HW2 9942   1.104   0.374   1.471  0.4083 -0.2778  0.9998
 2544SOL    HW3 9943   1.253   0.354   1.455  0.3260 -0.3835  0.3390
 2544SOL    MW4 9944   1.171   0.324   1.449 -0.1605 -0.3658  0.4775
 2545SOL     OW 9945   2.069   3.885   5.729 -0.4933  0.6605  0.4205
 2545SOL    HW2 9946   2.014   3.813   5.700 -0.5540 -0.3997  2.9357
 2545SOL    HW3 9947   2.042   3.902   5.819  1.6189  1.7354  0.9301
 2545SOL    MW4 9948   2.058   3.878   5.737  0.2210  0.0888  0.6846
 2546SOL     OW 9949   0.479   0.476   1.398 -0.1691  0.5110 -0.6930
 2546SOL    HW2 9950   0.406   0.473   1.337  0.6274 -0.6048 -1.6252
 2546SOL    HW3 9951   0.439   0.498   1.483 -1.9161 -2.2099 -0.7236
 2546SOL    MW4 9952   0.464   0.479   1.401  0.1802 -0.1022 -0.1588
 2547SOL     OW 9953   4.262   5.253   0.841  0.2277 -0.2188  0.5375
 2547SOL    HW2 9954   4.321   5.287   0.773 -0.5711  0.0059 -0.0551
 2547SOL    HW3 9955   4.282   5.159   0.845 -0.5572 -0.4802 -0.8910
 2547SOL    MW4 9956   4.273   5.245   0.832  0.2353 -0.1767 -0.1009
 2548SOL     OW 9957   5.390   1.971   4.653 -0.5331  0.2584  0.0719
 2548SOL    HW2 9958   5.310   1.937   4.694 -0.2194 -1.1367 -0.4418
 2548SOL    HW3 9959   5.390   1.934   4.565 -0.1907  1.6518 -0.5460
 2548SOL    MW4 9960   5.379   1.962   4.647 -0.0385 -0.3082 -0.1855
 2549SOL     OW 9961   1.380   5.138   4.772 -0.5126 -0.3309 -0.1385
 2549SOL    HW2 9962   1.461   5.107   4.811  0.1422 -1.0398 -1.9656
 2549SOL    HW3 9963   1.311   5.107   4.832  0.4334 -1.2634  0.5086
 2549SOL    MW4 9964   1.381   5.130   4.785  0.0739 -0.6203 -0.2675
 2550SOL     OW 9965   2.987   5.846   4.551  0.0325 -0.0651 -0.6794
 2550SOL    HW2 9966   3.051   5.842   4.622 -0.2144 -0.2612 -0.4670
 2550SOL    HW3 9967   2.911   5.888   4.590 -0.0264  0.0246 -0.8887
 2550SOL    MW4 9968   2.986   5.851   4.565 -0.1662  0.3371 -0.0914
 2551SOL     OW 9969   2.165   0.964   4.967 -0.0693  0.6469  0.3931
 2551SOL    HW2 9970   2.137   1.053   4.941  0.0525  0.1583 -1.6095
 2551SOL    HW3 9971   2.084   0.913   4.963  0.2581  0.1822 -0.9382
 2551SOL    MW4 9972   2.150   0.969   4.963 -0.6292 -0.5126 -0.0279
 2552SOL     OW 9973   1.564   5.764   3.771  0.6941  0.1167 -0.2474
 2552SOL    HW2 9974   1.568   5.711   3.692  1.0651  0.4385 -0.4524
 2552SOL    HW3 9975   1.649   5.810   3.773  1.1544 -0.7259  0.9214
 2552SOL    MW4 9976   1.576   5.763   3.761  0.0877 -0.2405  0.9794
 2553SOL     OW 9977   4.247   5.057   3.620 -0.0602  0.0400  0.0086
 2553SOL    HW2 9978   4.222   5.093   3.536 -1.5858 -0.1396  0.3655
 2553SOL    HW3 9979   4.200   5.109   3.685  0.4290 -0.3582  0.7076
 2553SOL    MW4 9980   4.238   5.068   3.618 -0.0592  0.2268  0.2326
 2554SOL     OW 9981   1.527   2.189   3.440  0.6984 -0.0562  0.0994
 2554SOL    HW2 9982   1.499   2.104   3.475  2.0567  0.0015  1.4501
 2554SOL    HW3 9983   1.559   2.237   3.517  2.2832  0.7251 -0.9925
 2554SOL    MW4 9984   1.528   2.184   3.455  0.3051  0.3457  0.8038
 2555SOL     OW 9985   1.677   3.850   4.557  0.2016  0.0709 -0.0996
 2555SOL    HW2 9986   1.592   3.829   4.595  0.4391  1.0957  1.0614
 2555SOL    HW3 9987   1.695   3.778   4.496 -1.0940 -0.5936  0.2713
 2555SOL    MW4 9988   1.669   3.838   4.554  0.0636 -0.1854  0.0478
 2556SOL     OW 9989   0.608   3.685   5.379  0.3393  0.0892 -0.1397
 2556SOL    HW2 9990   0.568   3.649   5.300 -1.1244 -1.0165  1.0516
 2556SOL    HW3 9991   0.545   3.668   5.448  2.0172  0.1129  1.4752
 2556SOL    MW4 9992   0.594   3.678   5.378 -0.0449  0.6929  0.2564
 2557SOL     OW 9993   1.459   3.183   1.809  0.3306  0.0348 -0.2517
 2557SOL    HW2 9994   1.512   3.245   1.858  0.3041 -0.7257  0.7609
 2557SOL    HW3 9995   1.369   3.209   1.825  0.3290 -0.0764 -0.0800
 2557SOL    MW4 9996   1.454   3.194   1.817 -0.7457  0.1940 -0.0129
 2558SOL     OW 9997   3.911   3.717   3.437 -0.0431 -0.0109  0.0175
 2558SOL    HW2 9998   3.901   3.805   3.474 -1.7057  2.0940 -4.6415
 2558SOL    HW3 9999   4.006   3.703   3.433  0.2422  1.3312  1.2311
 2558SOL    MW410000   3.922   3.727   3.441 -0.0287 -0.2776  0.2044
 2559SOL     OW10001   0.810   2.340   3.294  0.2592 -0.4242  0.4212
 2559SOL    HW210002   0.802   2.317   3.202 -1.3976 -2.5130  1.0059
 2559SOL    HW310003   0.901   2.319   3.316  0.6033 -0.1337 -0.6642
 2559SOL    MW410004   0.821   2.334   3.285 -0.0882 -0.4493  0.6219
 2560SOL     OW10005   5.589   4.647   3.580  0.2704 -0.1806  0.2398
 2560SOL    HW210006   5.615   4.737   3.602  0.1948 -0.6635  2.5869
 2560SOL    HW310007   5.537   4.656   3.500 -0.2597  1.9521  0.7530
 2560SOL    MW410008   5.586   4.660   3.573 -0.1758  0.2146  0.0201
 2561SOL     OW10009   5.613   2.171   0.967  0.2895 -0.0218 -0.8821
 2561SOL    HW210010   5.556   2.131   0.902 -0.9408  2.6628 -1.5780
 2561SOL    HW310011   5.575   2.146   1.051  0.4182 -1.4359 -1.2207
 2561SOL    MW410012   5.601   2.162   0.970 -0.1123  0.1865 -0.3524
 2562SOL     OW10013   3.380   5.239   3.776  0.2555  0.4800 -0.0834
 2562SOL    HW210014   3.293   5.275   3.758  0.3661 -0.3178 -2.5695
 2562SOL    HW310015   3.434   5.268   3.702  2.0077  0.5182  1.1279
 2562SOL    MW410016   3.376   5.248   3.764 -0.3332  0.0796  0.2614
 2563SOL     OW10017   3.716   0.894   6.264  0.0632 -0.1184 -0.4798
 2563SOL    HW210018   3.643   0.892   6.202  0.3245 -2.1828 -0.8180
 2563SOL    HW310019   3.675   0.906   6.349 -0.6967 -1.0546 -0.6921
 2563SOL    MW410020   3.701   0.895   6.267  0.2316  0.0020 -0.6916
 2564SOL     OW10021   0.698   5.631   5.040  0.1713 -0.4635 -0.2342
 2564SOL    HW210022   0.666   5.666   4.957 -0.5430 -1.4971 -0.4103
 2564SOL    HW310023   0.676   5.697   5.104 -0.5564 -0.2846 -0.6615
 2564SOL    MW410024   0.691   5.644   5.037  0.1637 -0.0123 -0.3520
 2565SOL     OW10025   5.935   4.800   3.944  0.4357 -0.0829  0.2267
 2565SOL    HW210026   5.842   4.815   3.961  0.2883 -0.8062  0.1327
 2565SOL    HW310027   5.953   4.714   3.982  1.3545  0.5453  1.2693
 2565SOL    MW410028   5.925   4.790   3.951 -0.0876  0.5396  0.3069
 2566SOL     OW10029   6.337   1.538   3.512  0.2743 -0.0944  0.1694
 2566SOL    HW210030   6.310   1.509   3.425  1.1987 -0.9461  0.1526
 2566SOL    HW310031   6.302   1.472   3.572 -0.1258  0.3430  0.4263
 2566SOL    MW410032   6.329   1.525   3.509 -0.5297  0.3791  0.8200
 2567SOL     OW10033   4.885   5.983   2.441 -0.0980 -0.5578  0.0078
 2567SOL    HW210034   4.823   5.915   2.469  0.1538 -0.9752 -0.4537
 2567SOL    HW310035   4.971   5.944   2.454  0.0401 -0.4406 -0.5598
 2567SOL    MW410036   4.888   5.969   2.447 -0.7327  0.1225  0.2397
 2568SOL     OW10037   0.210   4.380   3.125 -0.5826 -0.5733 -0.0195
 2568SOL    HW210038   0.214   4.456   3.182 -0.7836 -0.1608 -0.5527
 2568SOL    HW310039   0.144   4.324   3.164 -2.4791  0.7862 -1.1275
 2568SOL    MW410040   0.202   4.382   3.137  0.3504 -0.6285  1.0272
 2569SOL     OW10041   3.750   1.836   2.514  0.1242 -0.0305 -0.2118
 2569SOL    HW210042   3.680   1.843   2.579  1.4375 -0.1775  1.2801
 2569SOL    HW310043   3.711   1.868   2.433 -1.5275  0.3062  0.6807
 2569SOL    MW410044   3.736   1.841   2.512  0.1817 -0.8126 -0.2907
 2570SOL     OW10045   4.454   5.119   1.794  0.4224  0.1645  0.0307
 2570SOL    HW210046   4.371   5.166   1.789 -0.0637 -0.5585  1.1622
 2570SOL    HW310047   4.488   5.123   1.704 -2.4229 -2.3988 -1.3559
 2570SOL    MW410048   4.448   5.126   1.781 -0.8051  0.3259  0.1586
 2571SOL     OW10049   4.096   4.708   5.389  0.1421  0.3338  0.3666
 2571SOL    HW210050   4.132   4.620   5.379  1.2814  0.7749  0.4486
 2571SOL    HW310051   4.170   4.767   5.375 -0.6517  1.2975  0.0623
 2571SOL    MW410052   4.110   4.704   5.386 -0.1878 -0.2166  0.2629
 2572SOL     OW10053   3.169   3.311   5.954 -0.4074  0.3188 -0.2152
 2572SOL    HW210054   3.113   3.322   6.030  1.6604  0.1942  1.4016
 2572SOL    HW310055   3.218   3.393   5.947 -0.3744  0.2298 -1.2523
 2572SOL    MW410056   3.168   3.323   5.963 -0.0633 -0.0448  0.1665
 2573SOL     OW10057   2.198   2.994   6.362 -0.1360 -0.2952 -0.2900
 2573SOL    HW210058   2.188   2.931   6.433  2.1965 -0.3859  0.0225
 2573SOL    HW310059   2.240   3.069   6.402  0.5264 -0.0479 -1.4130
 2573SOL    MW410060   2.202   2.995   6.376  0.0038  0.2467 -0.0850
 2574SOL     OW10061   5.587   1.009   4.680 -0.0438 -0.4361 -0.3275
 2574SOL    HW210062   5.555   1.090   4.640 -1.9207 -0.4620  0.9617
 2574SOL    HW310063   5.640   0.968   4.612 -1.2279  0.5986 -1.9698
 2574SOL    MW410064   5.589   1.015   4.666  0.5937 -0.1336 -0.2519
 2575SOL     OW10065   1.359   1.991   1.213  0.3921  0.4878  0.2693
 2575SOL    HW210066   1.450   2.011   1.189  0.8719 -0.5369  1.1503
 2575SOL    HW310067   1.366   1.925   1.282 -1.0513 -0.7062 -0.6557
 2575SOL    MW410068   1.372   1.985   1.219 -0.0897 -0.1075 -0.2920
 2576SOL     OW10069   1.216   2.109   4.140 -0.1359 -0.1744 -0.3660
 2576SOL    HW210070   1.231   2.194   4.099 -0.1720  0.2742  0.5169
 2576SOL    HW310071   1.274   2.049   4.094  1.4467  0.7387  0.3604
 2576SOL    MW410072   1.226   2.113   4.129 -0.0365 -0.1447  0.2784
 2577SOL     OW10073   5.286   3.317   5.025 -0.1288 -0.2835 -0.2586
 2577SOL    HW210074   5.338   3.339   4.948  0.0926  1.6467  0.3919
 2577SOL    HW310075   5.322   3.233   5.055 -1.4531 -2.0999 -3.2542
 2577SOL    MW410076   5.298   3.309   5.019 -0.5228 -0.8475 -0.3297
 2578SOL     OW10077   4.723   5.368   3.811 -0.1131  0.2025 -0.0423
 2578SOL    HW210078   4.805   5.334   3.774  1.5105 -1.1278  4.1981
 2578SOL    HW310079   4.739   5.462   3.821 -0.9603  0.7893 -3.2080
 2578SOL    MW410080   4.736   5.376   3.807  0.4549 -0.0906  0.2946
 2579SOL     OW10081   5.918   4.653   0.698 -0.3874 -0.4385  0.5362
 2579SOL    HW210082   5.925   4.565   0.735 -0.5380 -0.8114 -0.3097
 2579SOL    HW310083   5.840   4.649   0.642 -1.2028  0.6234  1.5497
 2579SOL    MW410084   5.908   4.641   0.696  0.7776  0.4486  0.5211
 2580SOL     OW10085   1.214   3.395   5.701  0.5494 -0.2891  0.3764
 2580SOL    HW210086   1.284   3.416   5.763 -1.1068  1.5494  1.7319
 2580SOL    HW310087   1.202   3.300   5.710  2.5506 -0.5827  0.3898
 2580SOL    MW410088   1.221   3.385   5.710  0.0945  0.7377  0.4185
 2581SOL     OW10089   0.244   0.339   3.363 -0.5313 -0.9078  0.0184
 2581SOL    HW210090   0.271   0.258   3.406 -0.0622  0.8836  3.3916
 2581SOL    HW310091   0.327   0.382   3.339 -0.2984  1.2785  3.9160
 2581SOL    MW410092   0.259   0.334   3.365 -0.1240 -0.7242 -0.0730
 2582SOL     OW10093   3.592   3.402   5.988  0.2646 -0.1352  1.0040
 2582SOL    HW210094   3.505   3.439   5.973  0.6318  0.3310 -0.1422
 2582SOL    HW310095   3.576   3.321   6.036 -1.0625 -1.4631 -1.4958
 2582SOL    MW410096   3.579   3.396   5.992 -0.5320 -0.3894  0.0549
 2583SOL     OW10097   5.722   6.313   6.383  0.5147 -0.0139  0.4456
 2583SOL    HW210098   5.676   6.273   6.456 -1.0267  0.8742  0.0243
 2583SOL    HW310099   5.726   6.406   6.405 -1.0940  0.4711 -1.1095
 2583SOL    MW410100   5.717   6.320   6.395  0.2727  0.2643  0.2706
 2584SOL     OW10101   2.024   1.392   4.406 -0.0189  0.2032  0.2738
 2584SOL    HW210102   2.054   1.437   4.485 -0.9733  0.3280  0.5842
 2584SOL    HW310103   1.944   1.439   4.381  0.5319  0.4709 -1.0560
 2584SOL    MW410104   2.017   1.404   4.413 -0.2385  0.1617  0.1806
 2585SOL     OW10105   3.601   3.589   4.511 -0.3604  0.6586 -0.4276
 2585SOL    HW210106   3.534   3.529   4.543  0.6741  0.2735  1.1397
 2585SOL    HW310107   3.556   3.643   4.446 -1.9460 -0.1529 -0.0603
 2585SOL    MW410108   3.586   3.588   4.507  0.9111 -0.1957 -0.5263
 2586SOL     OW10109   5.707   4.552   2.283 -1.1907  0.0656  0.5052
 2586SOL    HW210110   5.713   4.547   2.187 -1.9962 -1.3089  0.5122
 2586SOL    HW310111   5.635   4.493   2.306 -1.1205  0.5182  1.9515
 2586SOL    MW410112   5.699   4.544   2.273  0.5738  0.2922 -0.1266
 2587SOL     OW10113   0.741   1.797   0.502  0.0153  0.3086 -0.1664
 2587SOL    HW210114   0.761   1.765   0.414 -1.5946 -0.2844 -0.3572
 2587SOL    HW310115   0.824   1.790   0.549  0.7083 -0.1635 -1.3904
 2587SOL    MW410116   0.755   1.792   0.496 -0.5073  0.0308  0.2922
 2588SOL     OW10117   2.137   4.153   1.100 -0.2249 -0.0862  0.3567
 2588SOL    HW210118   2.138   4.180   1.008  1.5455 -1.8207 -0.1841
 2588SOL    HW310119   2.169   4.230   1.147 -0.6175  0.6338 -0.5175
 2588SOL    MW410120   2.141   4.167   1.094  0.1941  0.8054 -0.5635
 2589SOL     OW10121   5.133   5.477   4.498  0.6888 -0.7082 -0.1509
 2589SOL    HW210122   5.046   5.463   4.537  1.0371  0.1202  0.9994
 2589SOL    HW310123   5.117   5.533   4.422  0.3030  0.3538  0.6852
 2589SOL    MW410124   5.119   5.483   4.493  0.2773  0.1461 -0.2094
 2590SOL     OW10125   1.557   0.328   5.421  0.3263  0.2402  0.3924
 2590SOL    HW210126   1.596   0.243   5.440  0.4126  0.3439  0.6697
 2590SOL    HW310127   1.611   0.363   5.350 -1.0250 -0.8981 -1.3184
 2590SOL    MW410128   1.569   0.321   5.414  0.4078 -0.7136  0.3965
 2591SOL     OW10129   0.852   0.502   4.247  0.3894 -0.1685  0.1227
 2591SOL    HW210130   0.891   0.589   4.234 -0.9203  0.6297  1.2549
 2591SOL    HW310131   0.828   0.500   4.339 -1.7709 -0.7807 -0.3988
 2591SOL    MW410132   0.854   0.513   4.257 -0.1058  0.0216  0.1411
 2592SOL     OW10133   2.363   3.482   5.456 -0.1548  0.2359 -0.2703
 2592SOL    HW210134   2.452   3.488   5.490 -0.8599  1.9058  1.5083
 2592SOL    HW310135   2.365   3.533   5.374  0.4327  0.6624  0.0046
 2592SOL    MW410136   2.375   3.490   5.450 -0.2614 -0.0710  1.2232
 2593SOL     OW10137   4.907   1.286   6.395 -0.0791  0.3826  0.5557
 2593SOL    HW210138   4.989   1.248   6.424  0.1242  0.2472 -0.1984
 2593SOL    HW310139   4.932   1.352   6.330 -0.6465 -0.7493 -0.8514
 2593SOL    MW410140   4.921   1.290   6.390 -0.1517  0.1319 -0.8954
 2594SOL     OW10141   1.587   4.517   0.376 -0.1055  0.1153  0.2164
 2594SOL    HW210142   1.676   4.483   0.366 -0.1078  0.3266 -0.6389
 2594SOL    HW310143   1.542   4.452   0.430  0.3630 -0.3827  0.0143
 2594SOL    MW410144   1.592   4.504   0.381 -0.5341 -0.0168  0.3397
 2595SOL     OW10145   3.378   0.204   0.468 -0.1642  0.1723  0.2222
 2595SOL    HW210146   3.420   0.132   0.515 -0.1112  0.4567  0.6233
 2595SOL    HW310147   3.363   0.171   0.380 -0.3381 -0.4039  0.4652
 2595SOL    MW410148   3.382   0.190   0.463 -0.5900 -0.1849 -0.1979
 2596SOL     OW10149   1.427   1.138   5.343  0.5582 -0.1197  0.6659
 2596SOL    HW210150   1.374   1.108   5.417 -0.5844 -0.5184 -0.2932
 2596SOL    HW310151   1.418   1.069   5.277 -0.3542  1.2828 -0.7423
 2596SOL    MW410152   1.419   1.125   5.344 -0.2354  0.5027 -0.2384
 2597SOL     OW10153   6.210   1.051   4.364  0.1988 -0.1535  0.7089
 2597SOL    HW210154   6.186   1.123   4.422 -0.9762  0.6954 -0.7688
 2597SOL    HW310155   6.140   0.987   4.375 -1.0089  0.7946 -1.0270
 2597SOL    MW410156   6.198   1.052   4.374 -0.1672  0.5464  0.1504
 2598SOL     OW10157   1.863   1.332   4.130 -0.6936  0.1129 -0.1964
 2598SOL    HW210158   1.794   1.349   4.066  1.0887  0.0262 -2.2390
 2598SOL    HW310159   1.870   1.413   4.180 -1.6605  0.4302 -0.5624
 2598SOL    MW410160   1.855   1.345   4.128 -0.2400  0.3563  0.0285
 2599SOL     OW10161   2.347   5.731   3.106  0.0161 -0.1550  0.7137
 2599SOL    HW210162   2.265   5.701   3.144  0.1773 -1.5926  0.0234
 2599SOL    HW310163   2.349   5.691   3.019  0.4466  1.6341 -0.1366
 2599SOL    MW410164   2.336   5.722   3.099 -0.4580  0.2355 -0.8271
 2600SOL     OW10165   5.177   2.412   2.913  0.5873  0.8287 -0.2269
 2600SOL    HW210166   5.217   2.327   2.895 -0.0321  0.5863 -0.4877
 2600SOL    HW310167   5.086   2.402   2.886 -0.6241  0.2541  3.4454
 2600SOL    MW410168   5.170   2.399   2.907 -0.2184  0.5650  0.5040
 2601SOL     OW10169   4.096   0.293   5.909 -0.2576  0.2190 -0.1662
 2601SOL    HW210170   4.019   0.271   5.858  0.0842  1.2633 -1.1881
 2601SOL    HW310171   4.161   0.321   5.844  0.6646  0.2674  0.7384
 2601SOL    MW410172   4.095   0.294   5.894  0.1986 -0.3190  0.3541
 2602SOL     OW10173   1.947   5.530   4.226  0.2184 -0.0772  0.1052
 2602SOL    HW210174   1.922   5.612   4.268  0.8117  0.6042 -0.8421
 2602SOL    HW310175   1.974   5.473   4.298 -0.7562  0.3361  0.8283
 2602SOL    MW410176   1.947   5.533   4.241  0.0616 -0.2675  0.4510
 2603SOL     OW10177   2.794   3.027   1.838 -0.1105 -0.4749  0.1212
 2603SOL    HW210178   2.876   2.979   1.825  0.6258  0.1869  1.9485
 2603SOL    HW310179   2.738   2.999   1.766  0.8656 -2.7866  0.1690
 2603SOL    MW410180   2.798   3.017   1.827  0.3981 -0.3066 -0.8389
 2604SOL     OW10181   4.357   1.985   1.434 -0.5793  0.6045 -0.0098
 2604SOL    HW210182   4.303   1.925   1.485  0.4726 -0.4828 -0.1140
 2604SOL    HW310183   4.447   1.954   1.448 -0.0548  1.8025 -0.5516
 2604SOL    MW410184   4.362   1.973   1.443 -0.0172  0.4721 -0.0784
 2605SOL     OW10185   6.303   0.737   3.559  1.0769 -0.0568  0.4940
 2605SOL    HW210186   6.383   0.703   3.520  0.1661 -1.8372  0.0471
 2605SOL    HW310187   6.233   0.692   3.512 -0.1657  0.5770  1.6683
 2605SOL    MW410188   6.304   0.727   3.547  0.1134  0.6211 -0.2687
 2606SOL     OW10189   5.769   0.934   1.915 -0.0661  0.0769 -0.4130
 2606SOL    HW210190   5.810   0.983   1.844 -0.8493 -0.9960 -1.6587
 2606SOL    HW310191   5.828   0.946   1.989  0.7492  1.2898 -1.2046
 2606SOL    MW410192   5.782   0.942   1.915 -0.0722  0.6968  0.0632
 2607SOL     OW10193   6.010   1.765   0.086 -0.2967 -0.1509 -0.3036
 2607SOL    HW210194   5.943   1.699   0.103 -1.8016  0.8560 -1.9911
 2607SOL    HW310195   6.020   1.811   0.169 -0.3966 -1.4076  0.4426
 2607SOL    MW410196   6.003   1.762   0.099  0.1616 -0.0603  0.0077
 2608SOL     OW10197   3.897   5.212   5.418 -0.1797  0.0548 -0.4593
 2608SOL    HW210198   3.929   5.141   5.473  1.1455 -0.3576 -1.7257
 2608SOL    HW310199   3.875   5.282   5.480  1.1208 -0.4430  0.6045
 2608SOL    MW410200   3.898   5.212   5.433  0.8138  0.3475  0.4490
 2609SOL     OW10201   1.712   2.457   4.308 -0.2047  0.3086 -0.2970
 2609SOL    HW210202   1.683   2.431   4.221 -0.9651 -2.0076  0.5781
 2609SOL    HW310203   1.767   2.534   4.293 -1.4258  0.8118 -2.6571
 2609SOL    MW410204   1.716   2.464   4.294 -0.9154  0.4239  0.1813
 2610SOL     OW10205   1.458   1.919   3.016  0.4312  0.2288  0.0069
 2610SOL    HW210206   1.509   1.990   2.978  0.5259  0.7492  1.0788
 2610SOL    HW310207   1.369   1.954   3.025  0.8094  0.8183  2.0031
 2610SOL    MW410208   1.453   1.933   3.012 -0.1141 -0.2439 -0.3959
 2611SOL     OW10209   0.927   5.174   3.928 -0.9962 -0.3543  0.0280
 2611SOL    HW210210   0.886   5.206   4.009  0.4496  0.6872  0.3958
 2611SOL    HW310211   0.961   5.253   3.887  3.4938 -1.3012  1.3696
 2611SOL    MW410212   0.926   5.189   3.933  0.1775 -0.2888 -0.4301
 2612SOL     OW10213   5.873   1.971   3.592 -0.0278 -0.2440  0.3672
 2612SOL    HW210214   5.849   1.927   3.673 -0.5779  0.3455  0.5307
 2612SOL    HW310215   5.963   1.944   3.576  0.1753 -0.1629  1.3102
 2612SOL    MW410216   5.882   1.962   3.600 -0.3341 -0.0656 -0.8862
 2613SOL     OW10217   1.125   4.992   0.310 -0.1232 -0.1667 -0.1862
 2613SOL    HW210218   1.189   4.922   0.297  1.2514  1.1871 -0.9655
 2613SOL    HW310219   1.046   4.960   0.266  0.6020 -1.0537 -0.8924
 2613SOL    MW410220   1.123   4.978   0.303  0.0278  0.2498  0.0268
 2614SOL     OW10221   4.564   4.948   5.638  0.1988  0.1244  0.2382
 2614SOL    HW210222   4.473   4.953   5.610  0.2537 -0.4529 -0.0726
 2614SOL    HW310223   4.580   4.854   5.651  0.9661  0.1516 -0.4535
 2614SOL    MW410224   4.554   4.936   5.636  0.3121 -0.2657 -0.2481
 2615SOL     OW10225   5.795   6.087   3.308  0.2106  0.0035 -0.5375
 2615SOL    HW210226   5.812   6.076   3.402 -1.5823 -1.1562 -0.2947
 2615SOL    HW310227   5.815   6.003   3.269  0.7860  0.4294 -1.1807
 2615SOL    MW410228   5.800   6.075   3.316 -0.0768  0.5300 -0.0417
 2616SOL     OW10229   2.621   4.249   1.409 -0.2799  0.0875  0.1303
 2616SOL    HW210230   2.654   4.227   1.322 -1.1558  0.2334 -0.2539
 2616SOL    HW310231   2.587   4.167   1.444  0.5642 -0.0838  0.5655
 2616SOL    MW410232   2.621   4.236   1.402 -0.2014 -0.0748 -0.2437
 2617SOL     OW10233   2.379   2.688   0.070 -0.0442 -0.2190  0.4975
 2617SOL    HW210234   2.284   2.691   0.071 -0.0491 -0.2782  1.3878
 2617SOL    HW310235   2.402   2.633  -0.004 -0.7088 -0.3739  0.4082
 2617SOL    MW410236   2.370   2.681   0.061 -0.0518  0.4207  0.0663
 2618SOL     OW10237   1.599   1.272   0.372 -0.3384 -0.0777  0.1550
 2618SOL    HW210238   1.543   1.348   0.356  0.0770 -0.0475 -1.3731
 2618SOL    HW310239   1.677   1.288   0.318  0.1824 -1.1335  0.5567
 2618SOL    MW410240   1.602   1.284   0.363  0.4708  0.2729  0.2953
 2619SOL     OW10241   0.639   5.961   5.832  0.0334 -0.0245  0.3255
 2619SOL    HW210242   0.671   6.015   5.905  0.4458  0.2603 -0.0563
 2619SOL    HW310243   0.710   5.964   5.768  0.7617 -2.3147  0.9381
 2619SOL    MW410244   0.653   5.968   5.833 -0.3450 -0.0308  0.4955
 2620SOL     OW10245   5.785   1.473   6.014  0.4615  0.4400  0.5760
 2620SOL    HW210246   5.866   1.434   5.982 -0.6900 -0.2297 -1.7532
 2620SOL    HW310247   5.731   1.398   6.041 -0.1366  0.7061  0.1542
 2620SOL    MW410248   5.788   1.458   6.014  0.3337 -0.0917  0.4971
 2621SOL     OW10249   4.900   1.435   2.386 -0.6050  0.2448  0.6140
 2621SOL    HW210250   4.954   1.500   2.432  1.4824 -2.5378  2.3968
 2621SOL    HW310251   4.833   1.411   2.450 -0.5048 -0.3594  0.4923
 2621SOL    MW410252   4.898   1.441   2.400  0.7812  0.5935 -0.4852
 2622SOL     OW10253   4.323   3.020   6.144 -0.5392 -0.4189  0.3194
 2622SOL    HW210254   4.258   2.988   6.208 -1.2444 -0.7131 -0.5305
 2622SOL    HW310255   4.327   2.951   6.078 -0.8943  0.5326 -0.7171
 2622SOL    MW410256   4.315   3.006   6.144  0.3145  0.1955 -0.3671
 2623SOL     OW10257   5.307   0.596   1.669 -0.2214  0.2977 -0.1398
 2623SOL    HW210258   5.372   0.532   1.638 -2.1393 -0.7841 -2.2149
 2623SOL    HW310259   5.309   0.665   1.604 -2.2459 -0.5610 -1.1957
 2623SOL    MW410260   5.316   0.596   1.656 -0.3538  0.2725  0.2574
 2624SOL     OW10261   3.543   1.140   4.321  1.2151  0.1687  0.3118
 2624SOL    HW210262   3.522   1.113   4.232 -0.7925 -0.3629  0.8859
 2624SOL    HW310263   3.519   1.065   4.375 -0.3489  1.4595  1.5241
 2624SOL    MW410264   3.537   1.127   4.316 -0.4680 -0.2366  0.2561
 2625SOL     OW10265   1.393   0.942   2.789 -0.1997 -0.1363 -0.1190
 2625SOL    HW210266   1.372   0.910   2.876  0.5539 -2.9029 -0.8454
 2625SOL    HW310267   1.465   0.885   2.759  0.3110  1.4337 -2.1218
 2625SOL    MW410268   1.400   0.930   2.796 -0.1011  0.1629 -0.4099
 2626SOL     OW10269   1.674   1.408   3.931  0.7299 -0.0458 -0.0395
 2626SOL    HW210270   1.733   1.452   3.869  0.2672  1.9396  0.8645
 2626SOL    HW310271   1.617   1.478   3.964  0.3838 -1.2009  1.9645
 2626SOL    MW410272   1.674   1.423   3.927  0.3881 -0.0716  0.5639
 2627SOL     OW10273   5.061   4.870   2.710  0.3680 -0.4174 -0.5675
 2627SOL    HW210274   5.111   4.850   2.631 -1.1903 -1.4333 -1.3562
 2627SOL    HW310275   5.009   4.791   2.726  1.5942 -0.7867  2.2644
 2627SOL    MW410276   5.061   4.857   2.702  0.4136 -0.5539 -0.0744
 2628SOL     OW10277   3.436   2.189   1.500  0.0551  0.1286  0.0712
 2628SOL    HW210278   3.459   2.195   1.593 -0.8314 -0.0986  0.3108
 2628SOL    HW310279   3.447   2.097   1.478 -0.8592 -0.0324  0.2566
 2628SOL    MW410280   3.441   2.178   1.509  0.0790 -0.3842 -0.2357
 2629SOL     OW10281   5.343   5.166   4.959  0.3104  0.4231 -0.0143
 2629SOL    HW210282   5.377   5.079   4.978  2.2462  1.5320  2.1791
 2629SOL    HW310283   5.417   5.213   4.921 -0.6319  1.1942 -0.9661
 2629SOL    MW410284   5.357   5.161   4.957  0.5778 -0.1669 -0.4607
 2630SOL     OW10285   2.204   3.060   5.806  0.3753  0.0147  0.4034
 2630SOL    HW210286   2.230   3.102   5.888 -1.2506 -1.0720  1.5450
 2630SOL    HW310287   2.108   3.063   5.807  0.1367 -3.2688  0.3996
 2630SOL    MW410288   2.194   3.066   5.817  0.4573 -0.4437 -0.4871
 2631SOL     OW10289   0.239   3.462   6.239  0.0724  0.4752 -0.1064
 2631SOL    HW210290   0.169   3.520   6.271 -0.1911 -0.0187  0.2206
 2631SOL    HW310291   0.253   3.489   6.149  0.2567  1.3511  0.1721
 2631SOL    MW410292   0.231   3.473   6.231 -0.8000  0.4638 -0.0195
 2632SOL     OW10293   3.813   2.012   5.217 -0.1484  0.2975 -0.0206
 2632SOL    HW210294   3.819   1.986   5.125  1.8633  0.5891 -0.0185
 2632SOL    HW310295   3.866   1.948   5.264 -1.3256  0.0198  1.0055
 2632SOL    MW410296   3.821   2.000   5.211  0.4019  0.4677  0.2024
 2633SOL     OW10297   4.835   5.892   0.500  0.3078 -0.0668 -0.1079
 2633SOL    HW210298   4.808   5.935   0.581 -1.1633 -0.8628 -0.1355
 2633SOL    HW310299   4.930   5.903   0.497  0.1334  2.0317  0.5245
 2633SOL    MW410300   4.844   5.899   0.510  0.6076  0.2367  0.0770
 2634SOL     OW10301   5.206   0.623   3.737 -0.0064  0.1361  0.0712
 2634SOL    HW210302   5.240   0.557   3.797  0.6359 -0.4955 -0.9522
 2634SOL    HW310303   5.112   0.623   3.752  0.1731  0.2435  1.3075
 2634SOL    MW410304   5.198   0.614   3.747 -0.3937  0.0092  0.1652
 2635SOL     OW10305   3.308   3.332   2.113  0.3773 -0.1386  0.0704
 2635SOL    HW210306   3.344   3.421   2.109  3.0923 -1.1457  0.2384
 2635SOL    HW310307   3.381   3.276   2.088 -1.1996 -2.3657  0.2451
 2635SOL    MW410308   3.322   3.337   2.109  0.6338 -0.3919  0.1814
 2636SOL     OW10309   0.089   5.341   0.409 -0.6419  0.3916  0.3845
 2636SOL    HW210310   0.041   5.411   0.455  1.3663  1.8893  0.3292
 2636SOL    HW310311   0.180   5.356   0.432 -0.0418 -1.6526 -0.4616
 2636SOL    MW410312   0.094   5.352   0.418 -0.4122  0.6993  0.0014
 2637SOL     OW10313   0.279   4.272   5.696  0.2754  0.0512  0.2154
 2637SOL    HW210314   0.210   4.320   5.650  1.3645  1.8092  0.3060
 2637SOL    HW310315   0.262   4.288   5.789  0.1913 -0.4207  0.2842
 2637SOL    MW410316   0.268   4.281   5.702 -0.2210  0.3023 -0.9739
 2638SOL     OW10317   1.333   1.647   0.192 -0.3555 -0.8278  0.0899
 2638SOL    HW210318   1.385   1.586   0.245  2.2006  0.2568 -1.0437
 2638SOL    HW310319   1.354   1.624   0.102 -2.1757 -0.5540 -0.4402
 2638SOL    MW410320   1.343   1.636   0.187 -0.6179 -0.0435  0.6234
 2639SOL     OW10321   1.793   5.464   2.558  0.3222  0.0459  0.0035
 2639SOL    HW210322   1.812   5.554   2.583  1.1533 -0.4031  1.0792
 2639SOL    HW310323   1.732   5.433   2.625  0.8596 -0.5005  0.2521
 2639SOL    MW410324   1.787   5.471   2.570 -0.2792 -0.2193 -0.6303
 2640SOL     OW10325   5.200   6.125   2.019 -0.0263 -0.1571 -0.0364
 2640SOL    HW210326   5.125   6.115   1.961  0.0519 -0.1719 -0.1369
 2640SOL    HW310327   5.163   6.149   2.103 -0.2585 -1.6336  0.3180
 2640SOL    MW410328   5.185   6.127   2.022  0.0221 -0.1029 -0.8309
 2641SOL     OW10329   3.435   5.813   1.958 -0.7305  0.3120 -0.1448
 2641SOL    HW210330   3.371   5.818   1.887 -0.5008 -1.3620 -0.5124
 2641SOL    HW310331   3.478   5.898   1.958 -1.6651  0.8046 -1.1177
 2641SOL    MW410332   3.432   5.824   1.949 -0.2271 -0.6531  0.2500
 2642SOL     OW10333   0.268   1.761   0.490  0.7471  0.3369 -0.3327
 2642SOL    HW210334   0.270   1.678   0.537  1.1107  1.0700  1.0080
 2642SOL    HW310335   0.289   1.738   0.400 -0.3145 -1.1643 -0.2311
 2642SOL    MW410336   0.271   1.747   0.485  0.7976  0.0833  0.1456
 2643SOL     OW10337   1.167   3.074   5.659  0.4728  0.2146  0.6116
 2643SOL    HW210338   1.077   3.100   5.640  0.3002 -0.1731  0.8817
 2643SOL    HW310339   1.178   2.991   5.612  1.2329  1.0735 -0.7947
 2643SOL    MW410340   1.156   3.067   5.650 -0.0105  0.9369 -0.3272
 2644SOL     OW10341   1.705   4.176   3.072 -0.0813  0.2139  0.2402
 2644SOL    HW210342   1.788   4.222   3.079 -1.6446  3.1194  1.1557
 2644SOL    HW310343   1.729   4.084   3.061  3.2092  0.9907  0.1193
 2644SOL    MW410344   1.719   4.170   3.072 -0.1719 -0.6604  0.1969
 2645SOL     OW10345   0.900   4.148   2.576 -0.1727  0.0205  0.1595
 2645SOL    HW210346   0.872   4.168   2.487 -0.7813 -1.7252 -0.0911
 2645SOL    HW310347   0.996   4.145   2.571 -0.1110  1.5463 -0.0309
 2645SOL    MW410348   0.909   4.150   2.563 -0.2907  0.6932 -0.0322
 2646SOL     OW10349   1.912   5.055   3.467  0.2790 -0.6558  0.0580
 2646SOL    HW210350   1.932   5.045   3.560  1.1494  0.2480 -0.0069
 2646SOL    HW310351   1.982   5.112   3.434 -0.1815 -0.7309 -1.0855
 2646SOL    MW410352   1.924   5.061   3.475 -0.2128 -0.3042 -0.0383
 2647SOL     OW10353   5.369   1.500   1.702  0.3965  0.0211 -0.5060
 2647SOL    HW210354   5.406   1.468   1.783 -0.8560  0.5933  0.3312
 2647SOL    HW310355   5.439   1.552   1.662  0.2876  1.8445  1.4608
 2647SOL    MW410356   5.383   1.503   1.707 -0.4565 -0.7816  0.1779
 2648SOL     OW10357   2.999   3.771   5.549  0.4826  0.0266  0.1298
 2648SOL    HW210358   2.944   3.694   5.541  0.0908  0.3896 -0.7639
 2648SOL    HW310359   2.956   3.826   5.614  0.7419 -0.4818  0.7364
 2648SOL    MW410360   2.986   3.768   5.556 -0.1686 -0.4771 -0.6850
 2649SOL     OW10361   3.037   0.523   5.858  0.5876 -0.6899 -0.1209
 2649SOL    HW210362   3.050   0.618   5.856  0.2849 -0.5311  2.1638
 2649SOL    HW310363   2.944   0.511   5.838  0.3681 -0.3934  0.6834
 2649SOL    MW410364   3.026   0.534   5.855 -0.1486 -0.5414  0.0856
 2650SOL     OW10365   5.202   2.494   5.276 -0.5360 -0.1902  0.0186
 2650SOL    HW210366   5.254   2.522   5.351 -1.9271  0.8872  0.6006
 2650SOL    HW310367   5.201   2.398   5.283 -0.9884 -0.0956  1.6221
 2650SOL    MW410368   5.209   2.485   5.287  0.1323  0.3357 -0.2323
 2651SOL     OW10369   5.505   4.852   3.176 -0.0397  0.4929  0.0506
 2651SOL    HW210370   5.592   4.864   3.213  1.0609  0.5654 -2.3411
 2651SOL    HW310371   5.467   4.779   3.224  1.6491 -0.0441  0.6219
 2651SOL    MW410372   5.511   4.844   3.187 -0.6351  0.0359  0.0571
 2652SOL     OW10373   3.248   3.726   1.976 -0.1298 -0.2018 -0.2834
 2652SOL    HW210374   3.266   3.673   1.898 -0.0323  0.3747 -0.6598
 2652SOL    HW310375   3.156   3.749   1.969 -0.3713 -0.9772  0.2917
 2652SOL    MW410376   3.239   3.722   1.964  0.0543 -0.3097 -0.6188
 2653SOL     OW10377   3.584   5.053   2.559  0.3515 -0.1050 -0.6150
 2653SOL    HW210378   3.635   5.011   2.490  0.5182  0.6913 -0.9929
 2653SOL    HW310379   3.524   5.111   2.512 -3.3083 -3.3944 -0.4079
 2653SOL    MW410380   3.583   5.055   2.544  0.1992 -0.1850  0.6241
 2654SOL     OW10381   1.919   0.816   5.602  0.4978 -0.3423 -0.1337
 2654SOL    HW210382   1.863   0.856   5.535  1.2969  0.0420 -0.5812
 2654SOL    HW310383   1.986   0.770   5.552 -0.0874 -1.8114  0.3785
 2654SOL    MW410384   1.920   0.815   5.586  0.9983  0.0083 -0.1879
 2655SOL     OW10385   5.527   1.692   3.914 -0.4897 -0.2431 -0.5022
 2655SOL    HW210386   5.453   1.750   3.894  0.3741  1.3456  0.6530
 2655SOL    HW310387   5.529   1.689   4.010  1.5793  0.6854 -0.4737
 2655SOL    MW410388   5.517   1.700   3.924  0.4233 -0.3984 -0.2233
 2656SOL     OW10389   4.932   0.588   3.833 -0.3120 -0.1143  0.3810
 2656SOL    HW210390   4.849   0.572   3.878 -0.9662 -1.2429 -1.1340
 2656SOL    HW310391   4.912   0.572   3.741  1.5125 -0.0506 -0.0575
 2656SOL    MW410392   4.919   0.584   3.827  0.3080 -1.4987 -0.1522
 2657SOL     OW10393   4.972   2.852   4.706  0.1116 -0.3242  0.1818
 2657SOL    HW210394   5.055   2.898   4.722  0.1222 -0.1401 -0.3606
 2657SOL    HW310395   4.911   2.889   4.770 -0.2198  1.3873 -1.0406
 2657SOL    MW410396   4.975   2.863   4.716  0.4476  0.0474 -0.4695
 2658SOL     OW10397   1.752   0.965   4.558 -0.1710  0.0343  0.0028
 2658SOL    HW210398   1.764   0.892   4.497 -0.1881  1.2107 -1.4743
 2658SOL    HW310399   1.668   1.004   4.532  1.0459  2.1411 -1.0066
 2658SOL    MW410400   1.742   0.961   4.546 -0.2373  0.1416  0.3957
 2659SOL     OW10401   5.365   0.703   3.059 -0.2036  0.1456 -0.0547
 2659SOL    HW210402   5.358   0.749   2.975  0.4053  0.7538  0.2203
 2659SOL    HW310403   5.276   0.676   3.079 -0.3826  0.1538 -0.8103
 2659SOL    MW410404   5.353   0.705   3.051  0.8409 -0.0132 -0.0137
 2660SOL     OW10405   5.901   1.957   0.738  0.6829  0.3028 -0.1849
 2660SOL    HW210406   5.974   1.898   0.759  0.9154  0.6926  0.0940
 2660SOL    HW310407   5.884   2.005   0.819 -0.3087 -0.2372 -0.0531
 2660SOL    MW410408   5.909   1.955   0.751  0.6047  0.4265  0.0095
 2661SOL     OW10409   5.420   4.873   1.231  0.0068 -0.4901  0.0593
 2661SOL    HW210410   5.490   4.912   1.283  0.8898  0.4425 -1.7438
 2661SOL    HW310411   5.350   4.938   1.232  1.0368  0.7199 -2.0040
 2661SOL    MW410412   5.420   4.886   1.238 -0.3870 -0.3284 -0.0964
 2662SOL     OW10413   2.878   1.457   4.188 -0.3028  0.3581 -0.1900
 2662SOL    HW210414   2.842   1.431   4.273 -1.3273  2.3265  0.0484
 2662SOL    HW310415   2.807   1.440   4.126 -0.5804  1.4591 -0.1938
 2662SOL    MW410416   2.864   1.452   4.191  0.1935 -0.2927  0.4660
 2663SOL     OW10417   1.208   3.973   1.260  0.3991  0.3806 -0.1360
 2663SOL    HW210418   1.206   3.948   1.352  1.3972  1.3281  0.1638
 2663SOL    HW310419   1.158   3.904   1.215 -0.0512 -0.1186  1.0945
 2663SOL    MW410420   1.201   3.960   1.266  0.2805 -0.3381 -0.0041
 2664SOL     OW10421   0.682   3.157   3.831 -0.5006 -0.0522  0.0612
 2664SOL    HW210422   0.639   3.072   3.828  0.4884 -0.5430 -0.6207
 2664SOL    HW310423   0.775   3.137   3.841 -0.3902  0.9853  1.4944
 2664SOL    MW410424   0.688   3.143   3.832  0.7719 -0.6325  0.0675
 2665SOL     OW10425   3.095   4.832   4.879 -0.1014  0.2388 -0.0376
 2665SOL    HW210426   3.137   4.913   4.850 -0.2850  0.2801 -0.1917
 2665SOL    HW310427   3.024   4.818   4.816 -1.8779  1.4576  1.5697
 2665SOL    MW410428   3.091   4.841   4.866 -0.1578  0.2814  0.2869
 2666SOL     OW10429   1.851   5.319   2.882 -0.3494 -0.1323  0.2391
 2666SOL    HW210430   1.914   5.343   2.814 -1.5489  1.5998 -0.3504
 2666SOL    HW310431   1.887   5.358   2.962 -1.3398  2.2106 -0.3716
 2666SOL    MW410432   1.864   5.328   2.884 -0.3056  0.0913  0.1163
 2667SOL     OW10433   0.096   0.020   0.315 -0.1015  0.1655 -0.3275
 2667SOL    HW210434   0.137   0.004   0.400  0.6363 -0.2666 -0.7452
 2667SOL    HW310435   0.143   0.096   0.279 -1.5943  1.4612  0.3817
 2667SOL    MW410436   0.108   0.028   0.321  0.7571  0.4000 -0.0154
 2668SOL     OW10437   5.350   4.252   5.792  0.1021  0.4703 -0.6144
 2668SOL    HW210438   5.314   4.194   5.858 -1.6318  1.3287 -0.7335
 2668SOL    HW310439   5.293   4.239   5.715  3.4794 -2.3661 -2.9615
 2668SOL    MW410440   5.338   4.243   5.790  0.3527 -0.6519  0.6021
 2669SOL     OW10441   3.000   5.421   1.576  0.0514  0.4944  0.0556
 2669SOL    HW210442   2.992   5.358   1.504  1.5159  2.0304 -1.5185
 2669SOL    HW310443   2.922   5.404   1.630  0.0597 -2.2053 -0.6234
 2669SOL    MW410444   2.988   5.410   1.574 -0.6448  0.8320 -0.4217
 2670SOL     OW10445   4.573   2.750   2.841 -0.0359  0.3715  0.2272
 2670SOL    HW210446   4.538   2.669   2.803 -3.1087  0.5821  2.1814
 2670SOL    HW310447   4.546   2.818   2.780  1.4151  0.0849 -0.7679
 2670SOL    MW410448   4.565   2.748   2.828  0.4445  0.2012  0.0595
 2671SOL     OW10449   1.534   3.555   3.720 -0.0287 -0.2702  0.1365
 2671SOL    HW210450   1.454   3.512   3.687  0.4613 -0.0310 -1.4428
 2671SOL    HW310451   1.572   3.597   3.643  0.2839  1.8019  1.3584
 2671SOL    MW410452   1.528   3.555   3.705  0.0051  0.2902  0.4683
 2672SOL     OW10453   2.085   3.877   2.800  0.6357 -0.2863 -0.3754
 2672SOL    HW210454   2.150   3.870   2.731  1.8369  0.7688  0.6055
 2672SOL    HW310455   2.088   3.969   2.827  0.2442 -0.6787  1.1241
 2672SOL    MW410456   2.094   3.888   2.794  0.1724 -0.0095  0.2836
 2673SOL     OW10457   2.594   0.574   5.442 -0.0916  0.4001 -0.7087
 2673SOL    HW210458   2.565   0.659   5.411  1.7517  0.7397 -1.6385
 2673SOL    HW310459   2.562   0.512   5.377 -3.5067 -0.0414  1.1589
 2673SOL    MW410460   2.586   0.577   5.430 -0.2512  0.1938  0.1935
 2674SOL     OW10461   2.832   4.279   5.929 -0.3641  0.3815 -0.2482
 2674SOL    HW210462   2.859   4.369   5.949 -0.4888  0.4307 -0.3015
 2674SOL    HW310463   2.904   4.243   5.877 -1.3606  1.2329 -2.3186
 2674SOL    MW410464   2.845   4.286   5.925  0.1168  0.0945  0.1776
 2675SOL     OW10465   0.890   4.671   4.343 -0.0917  0.3309  0.6817
 2675SOL    HW210466   0.798   4.647   4.355  0.0889  0.4012  2.6071
 2675SOL    HW310467   0.888   4.763   4.318 -0.5379  0.8140  2.3497
 2675SOL    MW410468   0.877   4.680   4.342  0.4458  0.4539 -0.1113
 2676SOL     OW10469   3.266   3.521   0.821  0.2624 -0.1721  0.3889
 2676SOL    HW210470   3.241   3.613   0.810 -1.6203 -0.3403  2.5875
 2676SOL    HW310471   3.343   3.511   0.765  0.4723  2.6949 -0.0066
 2676SOL    MW410472   3.273   3.532   0.812 -0.5095 -0.0341 -0.4078
 2677SOL     OW10473   1.278   3.128   1.348 -0.3957  0.2714  0.3055
 2677SOL    HW210474   1.297   3.103   1.439 -0.1960  0.6857  0.3797
 2677SOL    HW310475   1.302   3.051   1.297 -0.2910  0.1164  0.5831
 2677SOL    MW410476   1.284   3.115   1.353  0.2353  0.1354  0.1772
 2678SOL     OW10477   2.813   2.832   4.878  0.7566 -0.2107 -0.2308
 2678SOL    HW210478   2.857   2.749   4.863  0.2101 -0.7037  0.7864
 2678SOL    HW310479   2.798   2.835   4.972 -3.1557 -1.0568 -0.6559
 2678SOL    MW410480   2.817   2.822   4.888  0.5916  0.5866 -0.0534
 2679SOL     OW10481   3.768   6.092   5.662 -0.3036 -0.3669  0.1271
 2679SOL    HW210482   3.698   6.031   5.638 -0.6520 -0.7526  1.9570
 2679SOL    HW310483   3.723   6.176   5.674  0.0200  0.0574 -1.4043
 2679SOL    MW410484   3.753   6.095   5.661  0.1587  0.2297  0.2749
 2680SOL     OW10485   4.459   1.157   2.918  0.1797 -0.1941  0.3898
 2680SOL    HW210486   4.426   1.157   2.829 -1.1777 -1.0471  0.8672
 2680SOL    HW310487   4.493   1.246   2.931 -0.2360  0.1415 -0.7299
 2680SOL    MW410488   4.459   1.169   2.908 -0.1638 -0.5796  0.4127
 2681SOL     OW10489   1.345   2.933   3.454 -0.5943  0.1304  0.1850
 2681SOL    HW210490   1.296   3.006   3.418 -0.9278 -0.1220  0.1198
 2681SOL    HW310491   1.302   2.855   3.417  0.9381 -0.0702 -1.2720
 2681SOL    MW410492   1.333   2.932   3.444 -0.0766 -0.1439 -0.3325
 2682SOL     OW10493   0.384   0.029   1.575  0.2119  0.5216 -0.1529
 2682SOL    HW210494   0.396   0.031   1.670 -1.8224  0.5799  0.1595
 2682SOL    HW310495   0.438  -0.044   1.546 -0.9205 -1.0494  1.4063
 2682SOL    MW410496   0.392   0.020   1.584  0.3523  0.3578  0.3924
 2683SOL     OW10497   3.511   2.626   0.932 -0.7910  0.1104  0.4479
 2683SOL    HW210498   3.521   2.720   0.943 -0.3079 -0.1102  2.2379
 2683SOL    HW310499   3.558   2.588   1.006  1.0097 -1.6390 -1.4525
 2683SOL    MW410500   3.518   2.633   0.943 -0.3412  0.1919  0.6469
 2684SOL     OW10501   2.614   5.258   4.317  0.4055  0.5475 -0.3608
 2684SOL    HW210502   2.550   5.329   4.319  0.8265  0.9891  3.0983
 2684SOL    HW310503   2.568   5.186   4.273 -1.3585  1.7949 -0.6729
 2684SOL    MW410504   2.600   5.258   4.311 -0.2751 -0.6298 -0.5694
 2685SOL     OW10505   5.302   3.785   3.021  0.0300 -0.4959  0.1280
 2685SOL    HW210506   5.282   3.697   3.053 -0.3726 -0.9078 -1.1942
 2685SOL    HW310507   5.363   3.771   2.949  0.6862  0.3883  0.4794
 2685SOL    MW410508   5.308   3.772   3.016  0.3094  0.0884 -0.1847
 2686SOL     OW10509   2.266   5.606   2.194  0.3824  0.3634 -0.3228
 2686SOL    HW210510   2.224   5.588   2.110  0.2109  1.2624 -0.4355
 2686SOL    HW310511   2.201   5.582   2.259 -0.1854  1.3843 -0.4904
 2686SOL    MW410512   2.252   5.600   2.191  0.7362  0.0355 -0.3152
 2687SOL     OW10513   3.290   4.968   6.313  0.0378  0.0643  0.1004
 2687SOL    HW210514   3.339   4.926   6.242 -1.1798 -0.9294 -0.2063
 2687SOL    HW310515   3.333   4.939   6.393 -0.5235 -1.5133 -0.1222
 2687SOL    MW410516   3.302   4.959   6.314 -0.4073 -0.0934  0.7835
 2688SOL     OW10517   6.146   0.489   4.842 -0.3121  0.4223  0.1410
 2688SOL    HW210518   6.091   0.417   4.812 -0.2935  0.1932  0.6564
 2688SOL    HW310519   6.166   0.538   4.762 -1.0990  0.3971 -0.0773
 2688SOL    MW410520   6.142   0.486   4.828 -0.3620  1.0024 -0.1639
 2689SOL     OW10521   6.264   0.722   1.529 -0.0573 -0.1291 -0.2308
 2689SOL    HW210522   6.321   0.795   1.553 -0.5246  0.2055 -0.1198
 2689SOL    HW310523   6.195   0.723   1.596  0.5526 -1.3904  0.4478
 2689SOL    MW410524   6.262   0.732   1.541  0.0854  0.3245 -0.0701
 2690SOL     OW10525   4.564   3.336   2.209 -0.1103 -0.5981 -0.1884
 2690SOL    HW210526   4.504   3.408   2.189  0.6615  0.2311  0.3497
 2690SOL    HW310527   4.524   3.259   2.170 -0.4697  0.2987 -1.6838
 2690SOL    MW410528   4.551   3.336   2.201 -0.2890  0.1286  0.1071
 2691SOL     OW10529   2.406   0.627   3.968  0.8990 -0.4828 -0.6518
 2691SOL    HW210530   2.476   0.566   3.989  1.7875  0.5155 -0.6620
 2691SOL    HW310531   2.445   0.689   3.907  0.1062  0.3099 -0.3764
 2691SOL    MW410532   2.420   0.627   3.963 -0.0434 -0.2242  0.3122
 2692SOL     OW10533   6.282   0.679   4.339  0.1771  0.2972 -0.6406
 2692SOL    HW210534   6.236   0.726   4.409 -0.6054 -1.0160 -0.2369
 2692SOL    HW310535   6.337   0.745   4.298 -0.6469  1.4900  0.1061
 2692SOL    MW410536   6.283   0.694   4.343  0.4771 -0.4773 -0.2640
 2693SOL     OW10537   0.337   3.174   2.825 -0.7391 -0.1549  0.7295
 2693SOL    HW210538   0.282   3.171   2.747 -1.0151 -0.4852  0.9319
 2693SOL    HW310539   0.343   3.083   2.854 -0.3916 -0.0745  0.9242
 2693SOL    MW410540   0.330   3.162   2.819  0.5810 -0.5372  0.0901
 2694SOL     OW10541   2.839   4.682   0.711 -0.5608 -0.4648  0.3804
 2694SOL    HW210542   2.885   4.634   0.643  1.4906  0.4586  1.0457
 2694SOL    HW310543   2.759   4.712   0.669  0.6011  0.0313 -1.6177
 2694SOL    MW410544   2.834   4.679   0.697  0.4813 -0.7278  0.2254
 2695SOL     OW10545   0.944   4.644   3.141  0.4600 -0.2537  1.0425
 2695SOL    HW210546   1.022   4.625   3.193 -0.4624 -2.0439  1.8487
 2695SOL    HW310547   0.938   4.571   3.079 -0.4423 -0.0253  0.8406
 2695SOL    MW410548   0.954   4.632   3.139 -0.3436  0.6995  0.5492
 2696SOL     OW10549   4.354   5.573   3.899  0.3008  0.3821 -0.1871
 2696SOL    HW210550   4.367   5.487   3.939  1.4011  0.6877  0.1402
 2696SOL    HW310551   4.413   5.574   3.824 -0.4287  0.4930 -0.7626
 2696SOL    MW410552   4.363   5.562   3.894  0.0652  0.0610 -0.4646
 2697SOL     OW10553   5.093   0.638   1.917  0.1740  0.1518  0.5071
 2697SOL    HW210554   5.148   0.587   1.857  0.6296 -0.1593  1.1899
 2697SOL    HW310555   5.154   0.676   1.980 -0.2694  0.7681  0.5760
 2697SOL    MW410556   5.108   0.637   1.917 -0.5435 -0.5499  0.3644
 2698SOL     OW10557   6.433   0.544   5.870 -0.0514  0.1766  0.4396
 2698SOL    HW210558   6.452   0.591   5.951 -0.9262  1.2791  0.0220
 2698SOL    HW310559   6.338   0.551   5.859 -0.0590 -0.7092 -0.2385
 2698SOL    MW410560   6.423   0.551   5.879  0.1262  0.4586 -0.8536
 2699SOL     OW10561   0.482   2.917   0.768 -0.3378  0.1427 -0.4074
 2699SOL    HW210562   0.412   2.942   0.829  0.3505 -1.0624  0.9483
 2699SOL    HW310563   0.440   2.853   0.710 -0.5316 -0.1631  0.0551
 2699SOL    MW410564   0.467   2.912   0.769 -0.2981 -0.0595  0.1473
 2700SOL     OW10565   6.198   6.153   0.704 -0.2322 -0.3646 -0.7866
 2700SOL    HW210566   6.202   6.121   0.794  0.0745  2.2009  0.1968
 2700SOL    HW310567   6.289   6.156   0.676 -0.1746  0.4176 -0.5444
 2700SOL    MW410568   6.211   6.150   0.712 -0.0066  0.2171 -1.0531
 2701SOL     OW10569   3.076   1.707   6.128 -0.1391 -0.3374 -0.6289
 2701SOL    HW210570   2.982   1.722   6.130 -0.1012  0.6799 -2.9492
 2701SOL    HW310571   3.089   1.645   6.056  0.9476 -0.7195 -0.1275
 2701SOL    MW410572   3.065   1.701   6.119  0.6230 -0.0530  0.7124
 2702SOL     OW10573   2.686   5.007   1.942 -0.4351 -0.2377 -0.0226
 2702SOL    HW210574   2.713   5.018   1.851  0.9917  0.3737  0.4495
 2702SOL    HW310575   2.732   4.928   1.971 -2.4079 -1.5940 -0.3496
 2702SOL    MW410576   2.696   4.998   1.934 -0.6452 -0.8177 -0.1100
 2703SOL     OW10577   2.382   0.389   1.218 -0.2608  0.7038 -0.0200
 2703SOL    HW210578   2.435   0.310   1.223 -0.7600  0.3967  0.5655
 2703SOL    HW310579   2.387   0.427   1.305 -1.5481  0.2912  0.2674
 2703SOL    MW410580   2.390   0.383   1.230  0.1431  0.1751  0.0540
 2704SOL     OW10581   1.151   3.438   5.419 -0.1118  0.4759 -0.0048
 2704SOL    HW210582   1.179   3.352   5.389 -3.3915 -1.0469  0.7999
 2704SOL    HW310583   1.144   3.429   5.514  0.2334  1.9027  0.1800
 2704SOL    MW410584   1.154   3.426   5.428  0.0991  0.7023 -0.2836
 2705SOL     OW10585   5.016   3.821   0.495  0.0387 -0.2093 -0.3363
 2705SOL    HW210586   4.968   3.776   0.426  0.1138  0.6861 -0.9940
 2705SOL    HW310587   4.999   3.769   0.574 -1.5282 -0.2505 -0.6579
 2705SOL    MW410588   5.007   3.808   0.496  0.5252 -0.1269 -0.2244
 2706SOL     OW10589   4.049   6.154   5.252  0.1483  0.7988  0.1117
 2706SOL    HW210590   3.972   6.138   5.307  0.7975 -0.0407  0.7975
 2706SOL    HW310591   4.088   6.068   5.240  1.0813  1.2404 -0.0973
 2706SOL    MW410592   4.044   6.141   5.258 -0.3296  0.0674  0.4807
 2707SOL     OW10593   4.364   6.332   0.811  0.5390 -0.4400 -0.2263
 2707SOL    HW210594   4.446   6.322   0.858  0.8546  1.2641 -0.3560
 2707SOL    HW310595   4.304   6.371   0.875  0.7256  1.1033 -0.9455
 2707SOL    MW410596   4.367   6.336   0.826 -0.0103  0.0711 -0.3735
 2708SOL     OW10597   1.273   5.731   0.200  0.3153  0.1288  0.1300
 2708SOL    HW210598   1.285   5.636   0.200 -1.5747 -0.2328 -3.0771
 2708SOL    HW310599   1.334   5.763   0.134  1.1627  1.2673  1.4048
 2708SOL    MW410600   1.283   5.722   0.192 -0.3499  0.2969 -0.1111
 2709SOL     OW10601   2.705   5.712   4.265  0.1095  0.0973  0.7533
 2709SOL    HW210602   2.686   5.783   4.326 -2.2894 -0.8532  1.1931
 2709SOL    HW310603   2.628   5.706   4.209  1.4598 -0.3267 -1.1982
 2709SOL    MW410604   2.693   5.721   4.265 -0.5315  0.2081  0.9709
 2710SOL     OW10605   3.718   4.212   5.111 -0.2932  0.4806  0.3044
 2710SOL    HW210606   3.672   4.296   5.109  0.2445  0.7779 -1.3416
 2710SOL    HW310607   3.783   4.221   5.181 -0.9581  1.0263  0.8618
 2710SOL    MW410608   3.721   4.224   5.120 -0.0974 -0.2993  0.2634
 2711SOL     OW10609   0.248   1.749   1.697 -0.4325 -0.0799  0.9936
 2711SOL    HW210610   0.283   1.832   1.731  2.3418 -1.5585  2.1453
 2711SOL    HW310611   0.294   1.736   1.614  0.0155 -0.9495  1.3590
 2711SOL    MW410612   0.259   1.758   1.690 -0.2494 -0.1692 -1.1639
 2712SOL     OW10613   0.084   2.108   2.348  0.4778 -0.0346  0.0030
 2712SOL    HW210614   0.114   2.039   2.407  0.7696  1.8367  2.1740
 2712SOL    HW310615  -0.010   2.115   2.364  0.5563  0.4769  0.2724
 2712SOL    MW410616   0.075   2.100   2.357  0.1131 -0.3158 -0.2044
 2713SOL     OW10617   6.374   2.401   0.531 -0.3862 -0.1705  0.3488
 2713SOL    HW210618   6.377   2.473   0.594 -0.3780 -1.0952  1.4402
 2713SOL    HW310619   6.464   2.392   0.501  0.3760 -1.8821  2.7937
 2713SOL    MW410620   6.386   2.410   0.535  0.1149 -0.9660 -0.2766
 2714SOL     OW10621   1.152   5.633   2.805  0.2815  0.9126 -0.3369
 2714SOL    HW210622   1.057   5.626   2.809  0.3337  0.4339  0.2262
 2714SOL    HW310623   1.181   5.619   2.895  0.9722 -0.5159 -0.7498
 2714SOL    MW410624   1.144   5.630   2.817  0.5000 -0.2594 -0.4840
 2715SOL     OW10625   1.368   4.432   2.894 -0.5916 -0.4254 -0.4020
 2715SOL    HW210626   1.283   4.461   2.860  0.0464  0.1184 -1.5555
 2715SOL    HW310627   1.432   4.488   2.851  0.3604 -0.7049  0.6023
 2715SOL    MW410628   1.365   4.443   2.884 -0.3138  0.3484 -0.2604
 2716SOL     OW10629   5.942   3.744   3.631  0.3032 -0.0622  0.1989
 2716SOL    HW210630   5.917   3.806   3.699 -1.1422 -0.6784  0.2787
 2716SOL    HW310631   6.036   3.730   3.644 -0.1702 -1.3597  3.1197
 2716SOL    MW410632   5.951   3.750   3.642 -0.4325  0.0081  0.1421
 2717SOL     OW10633   3.162   3.360   1.891 -0.4431  0.4668  0.2443
 2717SOL    HW210634   3.218   3.333   1.964 -1.6621  1.3781  1.5648
 2717SOL    HW310635   3.109   3.432   1.927  0.4510  2.4727 -2.1700
 2717SOL    MW410636   3.163   3.366   1.906 -0.2838 -0.6007 -0.3193
 2718SOL     OW10637   3.099   4.488   0.727 -0.0571  0.0030 -0.2667
 2718SOL    HW210638   3.050   4.499   0.646  1.6321 -0.7909 -1.4463
 2718SOL    HW310639   3.110   4.577   0.760 -1.2898  0.2826 -0.5506
 2718SOL    MW410640   3.094   4.501   0.721 -0.2265 -0.0893 -0.1839
 2719SOL     OW10641   2.650   0.517   6.157 -0.2497 -0.2771 -0.1111
 2719SOL    HW210642   2.734   0.557   6.179 -0.1990 -0.2378 -0.3773
 2719SOL    HW310643   2.586   0.566   6.209 -0.2029  0.2443 -0.5425
 2719SOL    MW410644   2.653   0.529   6.167 -0.0679  0.2197  0.6124
 2720SOL     OW10645   1.416   2.763   5.483  0.0496  0.6040 -0.4382
 2720SOL    HW210646   1.454   2.826   5.422 -0.6644  0.8814 -0.6032
 2720SOL    HW310647   1.334   2.803   5.512 -0.1641 -0.0174 -0.1552
 2720SOL    MW410648   1.410   2.776   5.479 -0.1818  0.2509 -0.0586
 2721SOL     OW10649   3.361   3.218   0.927 -0.2642 -0.1019  0.2529
 2721SOL    HW210650   3.353   3.129   0.959 -0.3794 -0.7738 -1.5494
 2721SOL    HW310651   3.289   3.229   0.866  1.0652  0.4306 -1.2875
 2721SOL    MW410652   3.350   3.208   0.923 -0.2118  0.5511 -0.0737
 2722SOL     OW10653   4.054   3.167   1.091 -0.3036 -0.1213  0.3766
 2722SOL    HW210654   4.018   3.138   1.007 -0.3154 -1.2192  0.7515
 2722SOL    HW310655   4.106   3.245   1.069  1.7077 -1.7668 -1.0432
 2722SOL    MW410656   4.056   3.174   1.077  0.5978  0.3807 -0.1392
 2723SOL     OW10657   4.272   5.824   0.252 -0.0540 -0.0566  0.1139
 2723SOL    HW210658   4.296   5.848   0.163 -0.6811  1.6978  0.3817
 2723SOL    HW310659   4.344   5.858   0.306  0.5800 -1.5565  0.2776
 2723SOL    MW410660   4.285   5.832   0.248 -0.4524  0.7247  0.4902
 2724SOL     OW10661   6.298   3.493   6.147  0.3855 -0.4831 -0.8256
 2724SOL    HW210662   6.259   3.441   6.217  0.1662  0.0490 -0.5491
 2724SOL    HW310663   6.330   3.572   6.190 -0.9426  0.4630 -1.5193
 2724SOL    MW410664   6.297   3.496   6.162 -0.1652  0.4752 -0.6066
 2725SOL     OW10665   5.437   4.283   1.359  0.6644 -0.1050  0.1266
 2725SOL    HW210666   5.341   4.286   1.359  0.6768  1.2563  1.3026
 2725SOL    HW310667   5.460   4.262   1.268 -0.7338 -0.9117 -0.0786
 2725SOL    MW410668   5.427   4.280   1.347  0.0754  0.0366  0.0098
 2726SOL     OW10669   2.487   6.066   5.598  0.1576 -0.4255 -0.4342
 2726SOL    HW210670   2.414   6.022   5.642  1.2363 -0.4938  1.3930
 2726SOL    HW310671   2.518   6.004   5.533 -0.9506 -0.6770 -0.7431
 2726SOL    MW410672   2.481   6.052   5.595  0.4993 -0.7004 -0.2938
 2727SOL     OW10673   5.569   5.313   4.889 -0.3802 -0.0455 -0.3414
 2727SOL    HW210674   5.592   5.401   4.860 -1.2163  0.3229  0.0869
 2727SOL    HW310675   5.649   5.262   4.878 -0.3063  0.3861 -2.0710
 2727SOL    MW410676   5.582   5.318   4.884 -0.5711 -0.0627 -0.1074
 2728SOL     OW10677   0.881   6.103   6.230 -0.7371 -0.3577  0.3462
 2728SOL    HW210678   0.917   6.019   6.200  0.0980  0.4210 -0.9278
 2728SOL    HW310679   0.835   6.138   6.154 -0.4492  0.6813  0.6346
 2728SOL    MW410680   0.879   6.096   6.216  0.0867 -0.0314  0.3282
 2729SOL     OW10681   5.541   4.469   3.191 -0.1233 -0.1639 -0.1070
 2729SOL    HW210682   5.490   4.435   3.117 -0.5696 -0.6766  0.4333
 2729SOL    HW310683   5.633   4.454   3.165 -0.2802 -0.5459 -0.4544
 2729SOL    MW410684   5.547   4.463   3.178 -0.1730 -0.1313 -0.0326
 2730SOL     OW10685   4.930   4.895   5.011  0.0118 -0.1136  0.2414
 2730SOL    HW210686   4.932   4.889   4.916  0.0985 -1.6161  0.3172
 2730SOL    HW310687   4.953   4.807   5.041  1.7108  0.7528  1.6616
 2730SOL    MW410688   4.934   4.883   5.002  0.2848  0.3287  0.2383
 2731SOL     OW10689   1.872   0.453   2.026 -0.3250 -0.5450  0.1036
 2731SOL    HW210690   1.838   0.371   2.064  0.9299 -1.3743 -0.4819
 2731SOL    HW310691   1.907   0.426   1.941 -0.0521  0.6477 -0.1720
 2731SOL    MW410692   1.872   0.438   2.020 -0.5529  0.6554 -0.3117
 2732SOL     OW10693   4.785   1.349   2.125  0.0733 -0.0001  0.1460
 2732SOL    HW210694   4.823   1.396   2.199  1.1580  0.0964 -0.4558
 2732SOL    HW310695   4.839   1.271   2.115  0.1814  0.1792 -0.7780
 2732SOL    MW410696   4.797   1.345   2.133  0.1924 -0.4012  0.8310
 2733SOL     OW10697   3.759   1.661   0.778 -0.0158  0.3378  0.5234
 2733SOL    HW210698   3.811   1.582   0.795 -0.5146  0.0846  0.8975
 2733SOL    HW310699   3.757   1.707   0.861  1.2004  1.3220  0.0408
 2733SOL    MW410700   3.765   1.657   0.791 -0.0322 -0.6242  0.0995
 2734SOL     OW10701   6.229   1.539   2.925  0.6285  0.3680  0.0507
 2734SOL    HW210702   6.259   1.615   2.874 -3.1341  0.4388 -2.4212
 2734SOL    HW310703   6.202   1.475   2.859  0.4886 -1.7803  2.0686
 2734SOL    MW410704   6.230   1.541   2.909  0.5251 -0.4878  0.0326
 2735SOL     OW10705   0.402   0.051   2.707  0.0460 -0.2852 -0.3416
 2735SOL    HW210706   0.354   0.073   2.787  1.0714 -1.2686  0.5662
 2735SOL    HW310707   0.335   0.053   2.638 -0.9541  0.0728  0.6115
 2735SOL    MW410708   0.387   0.054   2.708  0.2388  0.0872 -0.0983
 2736SOL     OW10709   1.627   4.261   5.351 -0.2352  0.3374  0.6892
 2736SOL    HW210710   1.535   4.285   5.337 -0.1295  0.2746 -0.1891
 2736SOL    HW310711   1.666   4.263   5.263  0.6808  0.6650  1.0924
 2736SOL    MW410712   1.620   4.264   5.338 -0.7353  0.1043  0.2258
 2737SOL     OW10713   4.741   2.327   0.998  0.5110 -0.0073 -0.4741
 2737SOL    HW210714   4.829   2.363   1.006  0.6232 -0.1370 -1.0430
 2737SOL    HW310715   4.752   2.233   1.014  0.5956 -0.1309 -1.2113
 2737SOL    MW410716   4.754   2.319   1.001 -0.0174  0.2273 -0.2273
 2738SOL     OW10717   2.276   6.004   5.786  0.5883 -0.2878 -0.0106
 2738SOL    HW210718   2.272   5.919   5.830  2.1226 -0.0981  0.5429
 2738SOL    HW310719   2.263   6.067   5.856 -2.8937 -0.0037 -0.7179
 2738SOL    MW410720   2.273   6.001   5.801 -0.1775 -0.0475  0.0122
 2739SOL     OW10721   4.184   2.014   4.284 -0.8113 -0.1168 -0.8423
 2739SOL    HW210722   4.164   2.096   4.238  1.5600 -0.0103 -1.8139
 2739SOL    HW310723   4.198   1.950   4.214 -0.3274 -0.7734 -0.1634
 2739SOL    MW410724   4.183   2.016   4.269 -0.2092 -0.1001 -0.5973
 2740SOL     OW10725   4.251   3.484   1.901 -0.1923 -0.4289 -0.0520
 2740SOL    HW210726   4.285   3.495   1.989 -0.4024  0.2976 -0.0499
 2740SOL    HW310727   4.311   3.534   1.846  0.8489 -2.1497 -0.5480
 2740SOL    MW410728   4.263   3.492   1.905 -0.1612  0.4312 -0.2344
 2741SOL     OW10729   0.189   6.289   5.511 -0.2656 -0.1498  0.0448
 2741SOL    HW210730   0.272   6.294   5.558  0.6393  1.0139 -1.5675
 2741SOL    HW310731   0.131   6.349   5.558  0.0219 -0.4102  0.7453
 2741SOL    MW410732   0.192   6.297   5.523 -0.1908  0.3957  0.1386
 2742SOL     OW10733   2.197   0.257   0.704 -0.0746  0.0228 -0.3314
 2742SOL    HW210734   2.195   0.174   0.752  0.8611  0.1119 -0.1296
 2742SOL    HW310735   2.289   0.282   0.703 -0.4554  1.5387  0.4192
 2742SOL    MW410736   2.209   0.249   0.710 -0.4357 -0.4816 -0.0701
 2743SOL     OW10737   0.316   1.637   2.147 -0.2567 -0.3635 -0.2143
 2743SOL    HW210738   0.240   1.695   2.152 -0.5216 -0.5569 -1.7191
 2743SOL    HW310739   0.391   1.695   2.137 -0.3359 -0.2209  0.0103
 2743SOL    MW410740   0.316   1.652   2.147  0.5061  0.8521 -0.2804
 2744SOL     OW10741   2.193   0.262   2.656  0.1794  0.0219 -0.0449
 2744SOL    HW210742   2.174   0.168   2.652  1.2067 -0.1960 -0.0537
 2744SOL    HW310743   2.191   0.290   2.564  3.5873 -0.8019 -0.5061
 2744SOL    MW410744   2.190   0.253   2.643 -0.1150 -0.1069 -0.0689
 2745SOL     OW10745   4.774   0.362   2.558  0.1339 -0.1423  0.0481
 2745SOL    HW210746   4.771   0.349   2.653  0.5184  2.8513  0.5769
 2745SOL    HW310747   4.683   0.358   2.530 -0.4604  2.5124  1.2434
 2745SOL    MW410748   4.762   0.360   2.567  0.4860  0.4126  0.2230
 2746SOL     OW10749   1.355   0.653   5.569  0.1377 -0.0752 -0.4060
 2746SOL    HW210750   1.270   0.636   5.608  0.4447  2.8630  1.8325
 2746SOL    HW310751   1.412   0.584   5.604 -0.6028 -0.1232  0.7328
 2746SOL    MW410752   1.352   0.642   5.579 -0.6697  0.5594 -0.3775
 2747SOL     OW10753   3.128   2.339   6.074 -0.1489  0.9153  0.2804
 2747SOL    HW210754   3.155   2.295   6.154  1.9476 -0.4503 -1.0587
 2747SOL    HW310755   3.047   2.294   6.048  0.4567 -0.3250  0.4214
 2747SOL    MW410756   3.121   2.327   6.081 -0.4419  0.3461  0.2149
 2748SOL     OW10757   5.503   2.447   1.991  0.2947  0.0225  0.4301
 2748SOL    HW210758   5.445   2.373   2.007  1.5358 -0.4040  3.8501
 2748SOL    HW310759   5.586   2.407   1.965  1.1224  0.0220  2.7849
 2748SOL    MW410760   5.506   2.432   1.990  0.6740  0.2337 -0.0073
 2749SOL     OW10761   2.029   0.016   3.018 -0.3249 -0.4282  0.3669
 2749SOL    HW210762   1.952  -0.041   3.006 -0.2685 -0.5430  0.5331
 2749SOL    HW310763   2.101  -0.032   2.978  0.1526 -1.4892  2.3497
 2749SOL    MW410764   2.028   0.002   3.011  0.0283  0.2638  0.3734
 2750SOL     OW10765   2.308   1.185   0.316  0.0760  0.0455  0.0474
 2750SOL    HW210766   2.378   1.243   0.346 -1.9559  1.4546  2.4838
 2750SOL    HW310767   2.322   1.103   0.363  0.3375  0.1475  0.1495
 2750SOL    MW410768   2.319   1.182   0.326 -0.8054  0.0468  0.1456
 2751SOL     OW10769   5.328   6.195   4.585  0.1130 -0.2061 -0.2168
 2751SOL    HW210770   5.315   6.255   4.511 -0.9056 -0.9683 -0.6894
 2751SOL    HW310771   5.351   6.252   4.658 -0.3335  0.7186 -0.7656
 2751SOL    MW410772   5.329   6.211   4.585  0.0812  0.3006 -0.9858
 2752SOL     OW10773   5.110   3.872   2.264 -0.0871  0.3072  0.3594
 2752SOL    HW210774   5.203   3.873   2.288 -0.2032  1.7448  0.8458
 2752SOL    HW310775   5.064   3.877   2.348 -0.6022 -0.0808  0.1028
 2752SOL    MW410776   5.116   3.873   2.278  0.6985 -0.0990  0.4391
 2753SOL     OW10777   5.790   2.611   2.832  0.0406  0.4606 -0.1995
 2753SOL    HW210778   5.814   2.654   2.749 -1.6111  0.1256 -0.8766
 2753SOL    HW310779   5.874   2.595   2.875  0.8159  3.6327 -0.2562
 2753SOL    MW410780   5.805   2.615   2.827  0.1669  0.0646  0.1725
 2754SOL     OW10781   2.601   4.432   4.272  0.1016  0.0486 -0.1008
 2754SOL    HW210782   2.636   4.511   4.230  2.1932 -0.6253  0.2477
 2754SOL    HW310783   2.585   4.372   4.200  0.1114  0.2049 -0.2342
 2754SOL    MW410784   2.603   4.435   4.257 -0.1495  0.9607 -0.1969
 2755SOL     OW10785   2.612   3.566   2.256 -0.4461  0.0312 -0.1335
 2755SOL    HW210786   2.666   3.495   2.292 -0.6077  0.0517  0.1528
 2755SOL    HW310787   2.525   3.527   2.246  0.0112 -0.5691 -2.3275
 2755SOL    MW410788   2.607   3.551   2.259  0.4027  0.4932  0.2299
 2756SOL     OW10789   0.558   2.079   0.143 -0.2294  0.2212 -0.7930
 2756SOL    HW210790   0.463   2.079   0.134 -0.2286 -0.2386 -0.8335
 2756SOL    HW310791   0.590   2.088   0.053 -0.2336 -1.6724 -1.0192
 2756SOL    MW410792   0.550   2.081   0.130  0.1381  0.3751 -0.1993
 2757SOL     OW10793   1.848   0.992   2.402 -0.5367  0.5391 -0.1491
 2757SOL    HW210794   1.841   1.039   2.318  0.2154 -3.5573 -2.7904
 2757SOL    HW310795   1.939   1.003   2.428 -1.0157  2.7228  0.8624
 2757SOL    MW410796   1.859   1.000   2.394  0.1210  0.1342  0.6685
 2758SOL     OW10797   1.936   0.508   2.591  0.0621  0.5475  0.6184
 2758SOL    HW210798   1.950   0.583   2.534  1.3913 -1.0236 -1.2698
 2758SOL    HW310799   1.843   0.488   2.583 -0.4553  2.3641  1.7073
 2758SOL    MW410800   1.926   0.515   2.582  0.0907 -0.0340 -0.2097
 2759SOL     OW10801   4.654   3.046   5.208 -0.0197 -0.7008  0.0352
 2759SOL    HW210802   4.652   3.118   5.146 -1.6053 -1.1803 -0.5159
 2759SOL    HW310803   4.668   3.088   5.293  1.1787  0.0437 -0.4955
 2759SOL    MW410804   4.656   3.061   5.211 -0.0110 -0.2432 -0.0932
 2760SOL     OW10805   2.313   2.977   4.128 -0.4028 -0.1874  0.1657
 2760SOL    HW210806   2.395   2.981   4.079  0.3988 -1.7964  1.2856
 2760SOL    HW310807   2.277   2.891   4.108 -1.2943  0.0852  0.5252
 2760SOL    MW410808   2.319   2.967   4.119  0.5704  0.8250  0.3433
 2761SOL     OW10809   0.564   3.646   4.565  0.2037 -0.2201 -0.5697
 2761SOL    HW210810   0.565   3.741   4.569 -0.0664 -0.1867 -1.1948
 2761SOL    HW310811   0.599   3.625   4.479 -1.1872 -0.6235 -1.0740
 2761SOL    MW410812   0.569   3.655   4.555 -0.4938  0.0596  0.1767
 2762SOL     OW10813   0.422   0.937   5.157  0.0134 -0.0341 -0.1059
 2762SOL    HW210814   0.421   0.987   5.075 -1.2298 -0.4923 -0.3889
 2762SOL    HW310815   0.410   1.003   5.226 -0.4942  0.1927 -0.4048
 2762SOL    MW410816   0.420   0.952   5.155  0.1558 -0.6777  0.5810
 2763SOL     OW10817   1.532   1.333   3.440  0.0521  0.5465  0.5125
 2763SOL    HW210818   1.556   1.419   3.406  2.7927  0.0134  0.9262
 2763SOL    HW310819   1.614   1.284   3.442 -1.4289 -2.1078  0.2676
 2763SOL    MW410820   1.546   1.338   3.436 -0.6506  0.7034 -0.4570
 2764SOL     OW10821   6.410   0.064   3.887 -0.0688  0.3674 -0.3140
 2764SOL    HW210822   6.353   0.120   3.939 -1.1734  0.0408 -1.1157
 2764SOL    HW310823   6.488   0.052   3.940 -1.3057 -0.2995  1.4570
 2764SOL    MW410824   6.413   0.070   3.901 -0.4718 -0.1534  0.2784
 2765SOL     OW10825   1.954   5.437   3.559 -0.4641 -0.1423 -0.2130
 2765SOL    HW210826   1.974   5.514   3.507  0.3759  0.0282  0.3511
 2765SOL    HW310827   1.860   5.423   3.545 -0.0828 -0.7380 -2.5835
 2765SOL    MW410828   1.944   5.445   3.551 -0.3694  0.0414  0.5567
 2766SOL     OW10829   4.698   2.433   0.336 -0.0464 -0.0984  0.0792
 2766SOL    HW210830   4.620   2.489   0.328 -1.1841 -1.6510 -0.2557
 2766SOL    HW310831   4.743   2.441   0.252  0.3101  1.0123  0.3673
 2766SOL    MW410832   4.693   2.441   0.324  0.1102  0.7910  0.0903
 2767SOL     OW10833   3.738   1.526   3.516  0.2425  0.3386 -0.4973
 2767SOL    HW210834   3.683   1.452   3.491 -1.6451  1.5581 -0.1507
 2767SOL    HW310835   3.756   1.513   3.609 -0.3618  0.4692 -0.3577
 2767SOL    MW410836   3.733   1.514   3.525 -0.1955 -0.4241 -0.3124
 2768SOL     OW10837   3.412   4.141   6.067 -0.5628 -0.1619  0.2345
 2768SOL    HW210838   3.329   4.182   6.093 -1.3578 -2.6713  2.0262
 2768SOL    HW310839   3.388   4.076   6.002 -0.0082 -0.8590  0.7104
 2768SOL    MW410840   3.398   4.138   6.062 -0.1411  0.2247  0.3256
 2769SOL     OW10841   4.901   2.360   1.293  0.1789 -0.0483 -0.1034
 2769SOL    HW210842   4.935   2.413   1.365 -0.1530 -0.0345  0.0498
 2769SOL    HW310843   4.937   2.400   1.214 -0.9044  1.0747 -0.0643
 2769SOL    MW410844   4.910   2.372   1.292 -0.4319 -0.2784 -0.1515
 2770SOL     OW10845   3.056   1.612   3.706 -1.0334 -0.2474  0.2227
 2770SOL    HW210846   2.979   1.599   3.651  0.3047 -0.8543 -1.6269
 2770SOL    HW310847   3.116   1.543   3.679  1.4934  2.2161 -0.8965
 2770SOL    MW410848   3.054   1.601   3.695 -0.1947  0.2085  0.2410
 2771SOL     OW10849   5.478   1.343   1.915  0.8348 -0.8876 -0.2795
 2771SOL    HW210850   5.562   1.385   1.897  0.2122  0.0215 -1.1688
 2771SOL    HW310851   5.480   1.324   2.009  1.7982 -0.3600 -0.1833
 2771SOL    MW410852   5.489   1.346   1.925  0.6401 -0.2884 -0.0029
 2772SOL     OW10853   5.996   1.366   3.189  0.2572 -0.6797 -0.7654
 2772SOL    HW210854   6.065   1.301   3.204  1.3447  0.6871  0.4837
 2772SOL    HW310855   6.039   1.450   3.203 -1.5906  0.2348 -0.2891
 2772SOL    MW410856   6.011   1.368   3.193  0.0564 -0.8564  0.2619
 2773SOL     OW10857   5.009   0.043   5.944 -0.4825  0.3810  0.2690
 2773SOL    HW210858   4.917   0.060   5.965 -0.4443 -0.1022  0.8623
 2773SOL    HW310859   5.053   0.046   6.029  0.2905  2.0284 -0.1657
 2773SOL    MW410860   5.002   0.045   5.958 -0.3729  0.7275 -0.7475
 2774SOL     OW10861   5.952   5.681   4.312 -0.2617  0.4646 -0.0408
 2774SOL    HW210862   5.928   5.763   4.269  0.4876  0.2248 -0.9591
 2774SOL    HW310863   6.046   5.689   4.328 -0.6872  0.9971  2.5967
 2774SOL    MW410864   5.961   5.693   4.308 -0.1917 -0.3226  0.4076
 2775SOL     OW10865   3.701   0.094   5.558 -0.0729  0.0929  0.3804
 2775SOL    HW210866   3.740   0.159   5.616  0.0311 -0.1956  0.6398
 2775SOL    HW310867   3.775   0.039   5.532 -0.4124 -0.9790  1.5521
 2775SOL    MW410868   3.716   0.095   5.562  0.1829 -0.3051  0.2290
 2776SOL     OW10869   2.311   2.208   3.055  0.0695  0.4860 -0.0379
 2776SOL    HW210870   2.306   2.129   3.002 -1.3381  1.3420 -1.2650
 2776SOL    HW310871   2.393   2.249   3.029  0.6429 -0.3892  0.3607
 2776SOL    MW410872   2.321   2.203   3.045  0.1315 -0.1269 -0.0100
 2777SOL     OW10873   1.498   5.217   0.742 -0.5929 -0.0290 -0.2514
 2777SOL    HW210874   1.546   5.286   0.788 -3.0555  2.5867 -1.2756
 2777SOL    HW310875   1.561   5.183   0.678  0.7857  1.0947  0.4518
 2777SOL    MW410876   1.513   5.222   0.739  0.2505 -0.2390 -0.8384
 2778SOL     OW10877   6.042   6.356   4.932 -0.3747  0.2847  0.0939
 2778SOL    HW210878   6.099   6.280   4.946 -0.1210  0.5937  0.7568
 2778SOL    HW310879   6.040   6.400   5.016 -0.1224  1.2921 -0.4114
 2778SOL    MW410880   6.050   6.352   4.945 -0.1518  0.0363 -0.1467
 2779SOL     OW10881   5.592   0.049   4.451 -0.4491  0.5001 -0.3455
 2779SOL    HW210882   5.606   0.132   4.404 -0.1109  0.5806 -0.0979
 2779SOL    HW310883   5.623  -0.018   4.390 -0.9638  0.5291 -0.6551
 2779SOL    MW410884   5.598   0.051   4.436  0.4219  0.0194 -0.2023
 2780SOL     OW10885   0.746   6.333   0.900 -0.0194  0.2856  0.6395
 2780SOL    HW210886   0.699   6.308   0.820 -1.1360  0.4598  1.2277
 2780SOL    HW310887   0.693   6.298   0.971 -0.5668  2.5963  1.4243
 2780SOL    MW410888   0.733   6.325   0.898  0.2710 -0.5860  1.0651
 2781SOL     OW10889   4.146   3.751   6.196  0.0934 -0.1950  0.0731
 2781SOL    HW210890   4.110   3.807   6.264  0.8339 -0.4164  0.6660
 2781SOL    HW310891   4.220   3.706   6.238  2.3989  1.7470 -1.6105
 2781SOL    MW410892   4.151   3.752   6.210 -0.3024  0.2409  0.0896
 2782SOL     OW10893   5.979   5.375   2.842  0.3851  0.0112  0.2567
 2782SOL    HW210894   6.036   5.377   2.918 -0.2327  2.7232  0.7311
 2782SOL    HW310895   5.902   5.426   2.867 -1.4594 -1.9482 -1.0095
 2782SOL    MW410896   5.976   5.382   2.855  0.3132  0.2263 -0.1282
 2783SOL     OW10897   2.963   2.589   5.808  0.2356  0.0006 -0.4452
 2783SOL    HW210898   3.019   2.633   5.743 -2.5710  2.5072 -1.3934
 2783SOL    HW310899   2.883   2.569   5.760 -1.0715 -0.1796  1.7038
 2783SOL    MW410900   2.960   2.592   5.793  0.2023  0.0287  0.2802
 2784SOL     OW10901   3.460   5.639   2.639 -0.4917  0.4679 -0.0501
 2784SOL    HW210902   3.460   5.723   2.685  1.2916  0.0884  0.7067
 2784SOL    HW310903   3.454   5.663   2.546  1.1446  1.5093  0.0791
 2784SOL    MW410904   3.459   5.653   2.632 -0.2650 -0.1732  0.6989
 2785SOL     OW10905   4.684   4.039   6.343  0.3660 -0.1789  0.0742
 2785SOL    HW210906   4.592   4.011   6.335  0.6648 -1.5611  1.0933
 2785SOL    HW310907   4.705   4.077   6.258 -1.1331  0.1081 -0.1949
 2785SOL    MW410908   4.674   4.040   6.331  0.1017  0.0943  0.1074
 2786SOL     OW10909   5.574   3.517   0.656 -0.3042  0.1900 -0.2744
 2786SOL    HW210910   5.539   3.606   0.655  1.3985  1.0586  3.0070
 2786SOL    HW310911   5.497   3.461   0.646 -1.4733  1.9588 -2.0021
 2786SOL    MW410912   5.559   3.522   0.654  0.2873 -0.6220 -0.8224
 2787SOL     OW10913   1.773   0.149   1.617  0.2142 -0.0636 -0.1424
 2787SOL    HW210914   1.785   0.054   1.621  0.1986 -0.0302  1.0020
 2787SOL    HW310915   1.852   0.181   1.573  0.8880 -0.4922  0.7354
 2787SOL    MW410916   1.785   0.141   1.612 -0.0437 -0.5375 -0.3055
 2788SOL     OW10917   2.322   4.895   1.167 -0.6167  0.2739  0.2655
 2788SOL    HW210918   2.377   4.867   1.094  0.4032  1.0016  0.7274
 2788SOL    HW310919   2.352   4.841   1.241  0.1796  1.3472  0.7522
 2788SOL    MW410920   2.334   4.884   1.167 -0.1843 -0.3964 -0.3854
 2789SOL     OW10921   2.697   2.923   0.420 -0.2294  0.5314 -0.2819
 2789SOL    HW210922   2.720   2.844   0.469 -0.1982  0.7474  0.0538
 2789SOL    HW310923   2.627   2.895   0.362  0.6676 -0.0728 -1.1186
 2789SOL    MW410924   2.691   2.909   0.419 -0.5000  0.0407 -0.3666
 2790SOL     OW10925   2.817   4.589   4.521  0.4233 -0.7623  0.0459
 2790SOL    HW210926   2.722   4.590   4.537  0.1178 -0.3763 -1.6536
 2790SOL    HW310927   2.855   4.622   4.603 -1.0772  1.7534 -0.1784
 2790SOL    MW410928   2.809   4.593   4.534 -0.0106 -0.1838  0.3683
 2791SOL     OW10929   5.791   1.470   4.609  0.2512 -0.0392  0.0539
 2791SOL    HW210930   5.797   1.510   4.523 -0.6582 -0.3010 -0.1379
 2791SOL    HW310931   5.825   1.537   4.669 -0.6675  0.7972 -0.3314
 2791SOL    MW410932   5.796   1.484   4.606 -0.0644  0.3197 -0.0950
 2792SOL     OW10933   4.898   5.503   2.385 -0.5534 -0.3038  0.1396
 2792SOL    HW210934   4.846   5.424   2.397  0.5472 -1.1235 -0.2958
 2792SOL    HW310935   4.977   5.474   2.338 -0.0739  1.0292  0.0504
 2792SOL    MW410936   4.902   5.489   2.380 -0.2616  0.2183  0.0250
 2793SOL     OW10937   0.496   5.227   5.131 -0.1433  0.3567 -0.4991
 2793SOL    HW210938   0.546   5.271   5.062  0.6322 -2.4741 -1.8679
 2793SOL    HW310939   0.545   5.243   5.211  0.8018  0.8775 -1.1693
 2793SOL    MW410940   0.509   5.235   5.133  0.3974  0.0942  0.0493
 2794SOL     OW10941   3.809   1.728   1.810  0.5441  0.4226  0.6164
 2794SOL    HW210942   3.844   1.642   1.833 -0.8572 -0.1933  0.5146
 2794SOL    HW310943   3.716   1.723   1.831  0.2490  1.5908 -0.2861
 2794SOL    MW410944   3.801   1.716   1.816 -0.1348  0.6160 -0.1187
 2795SOL     OW10945   6.125   2.804   2.634 -0.5288 -0.1134  0.0956
 2795SOL    HW210946   6.054   2.768   2.580  0.1565 -1.6583  0.1590
 2795SOL    HW310947   6.082   2.835   2.713 -1.3013  0.2742 -0.4724
 2795SOL    MW410948   6.110   2.803   2.638 -0.0206  0.5301  0.1863
 2796SOL     OW10949   0.650   3.440   5.561 -0.7933 -0.0676  0.2071
 2796SOL    HW210950   0.606   3.390   5.492 -2.3931 -0.3222  1.3588
 2796SOL    HW310951   0.677   3.521   5.518 -1.7473 -0.2201 -0.7235
 2796SOL    MW410952   0.648   3.444   5.546 -0.1910  0.4490  0.0236
 2797SOL     OW10953   1.450   5.936   4.407  0.5542 -0.1506 -0.2332
 2797SOL    HW210954   1.491   5.915   4.491  1.8961  0.2260 -0.7677
 2797SOL    HW310955   1.360   5.905   4.416  1.3216 -2.4198  0.4700
 2797SOL    MW410956   1.443   5.929   4.419 -0.0904 -0.2374  0.2521
 2798SOL     OW10957   5.011   6.043   0.960 -0.1652  1.0221  0.0757
 2798SOL    HW210958   4.950   5.973   0.937 -0.7137  1.7505 -0.7578
 2798SOL    HW310959   5.000   6.108   0.890  3.0608  0.2606 -1.3177
 2798SOL    MW410960   5.002   6.043   0.948  1.0102  0.7806 -0.7592
 2799SOL     OW10961   0.548   3.934   1.896  0.2813  0.7872  0.4363
 2799SOL    HW210962   0.582   3.846   1.880 -0.8217  0.3904  0.1586
 2799SOL    HW310963   0.578   3.957   1.983 -1.0223 -0.6731  1.3230
 2799SOL    MW410964   0.556   3.925   1.905  0.0742 -0.1673 -0.6755
 2800SOL     OW10965   6.058   0.679   2.831 -0.2529  0.2312  0.5095
 2800SOL    HW210966   5.990   0.641   2.776 -1.4261  1.2765  1.1927
 2800SOL    HW310967   6.139   0.661   2.784 -0.9091 -1.6467  0.0098
 2800SOL    MW410968   6.060   0.672   2.818 -0.0554 -0.3020  0.9405
 2801SOL     OW10969   4.747   2.806   3.589 -0.2092  0.6124  0.0218
 2801SOL    HW210970   4.766   2.816   3.682 -3.4099 -0.8558  0.9613
 2801SOL    HW310971   4.828   2.771   3.551  0.7367 -0.0820  2.5131
 2801SOL    MW410972   4.760   2.803   3.596 -0.1367 -0.0497  0.1879
 2802SOL     OW10973   1.941   2.712   0.729 -0.8175  0.1561 -0.0877
 2802SOL    HW210974   1.929   2.801   0.695 -2.5145 -0.7500 -2.0741
 2802SOL    HW310975   1.931   2.722   0.824  0.6311  2.2913 -0.0912
 2802SOL    MW410976   1.938   2.725   0.737 -0.2302 -0.4767 -0.5802
 2803SOL     OW10977   5.202   3.062   4.730  0.3188 -0.3145 -0.3332
 2803SOL    HW210978   5.201   3.031   4.821  0.3540 -0.0852 -0.2556
 2803SOL    HW310979   5.283   3.027   4.694 -1.0274 -2.8698 -1.1255
 2803SOL    MW410980   5.213   3.053   4.737 -0.5331 -0.2685 -0.0965
 2804SOL     OW10981   2.752   1.381   4.772 -0.0214  0.4334 -0.2803
 2804SOL    HW210982   2.835   1.338   4.787  1.1908  2.4880 -0.7141
 2804SOL    HW310983   2.768   1.473   4.792 -2.0835  0.9615 -0.7569
 2804SOL    MW410984   2.765   1.388   4.777 -0.3913  0.3810  0.2028
 2805SOL     OW10985   0.531   4.211   2.360  0.0289 -0.8225 -0.0090
 2805SOL    HW210986   0.513   4.271   2.432  2.2967 -0.4693  0.3404
 2805SOL    HW310987   0.531   4.124   2.399  0.1354 -0.7408  0.1688
 2805SOL    MW410988   0.529   4.208   2.374  0.7634  0.2672 -0.3283
 2806SOL     OW10989   3.810   4.772   4.437 -0.0222  0.5492 -0.3710
 2806SOL    HW210990   3.874   4.809   4.497 -0.9301  1.1407  0.2627
 2806SOL    HW310991   3.861   4.747   4.360  0.9481  1.0783  0.0815
 2806SOL    MW410992   3.825   4.774   4.435 -0.3652 -0.2207  0.1407
 2807SOL     OW10993   3.739   5.113   3.204  0.2804 -0.2904 -0.4356
 2807SOL    HW210994   3.775   5.116   3.293  0.6977  0.3367 -0.6189
 2807SOL    HW310995   3.658   5.163   3.208  0.3773 -0.1341 -0.4450
 2807SOL    MW410996   3.733   5.120   3.216  0.1468  0.2079 -0.3513
 2808SOL     OW10997   0.624   2.170   1.751  0.0637 -0.2517 -0.1856
 2808SOL    HW210998   0.583   2.099   1.702 -0.9927  0.1045  0.1544
 2808SOL    HW310999   0.590   2.161   1.840 -1.5326  1.6999 -0.5006
 2808SOL    MW411000   0.614   2.160   1.756  0.4427  0.0180  0.3011
 2809SOL     OW11001   5.372   1.680   3.177 -0.0295  0.7474 -0.7543
 2809SOL    HW211002   5.466   1.668   3.178 -0.0881  0.2632 -0.9483
 2809SOL    HW311003   5.338   1.607   3.229 -0.2801  1.0947 -0.4216
 2809SOL    MW411004   5.380   1.669   3.184 -0.1684  0.0749 -0.2142
 2810SOL     OW11005   4.048   5.805   1.830 -0.4598  0.2217 -0.2487
 2810SOL    HW211006   4.014   5.717   1.851 -0.9367  0.2608 -0.8557
 2810SOL    HW311007   4.134   5.807   1.872 -0.3021 -0.6599 -0.5056
 2810SOL    MW411008   4.055   5.793   1.839  0.2108 -0.3466 -0.1978
 2811SOL     OW11009   0.037   0.434   0.277  0.0177 -0.7805 -0.4662
 2811SOL    HW211010   0.034   0.364   0.212 -0.6438 -2.0304  0.8443
 2811SOL    HW311011  -0.021   0.502   0.242 -0.8536 -1.7126 -0.8733
 2811SOL    MW411012   0.029   0.434   0.264  0.1097 -0.1582 -0.4235
 2812SOL     OW11013   3.694   2.783   5.458  0.3302  0.3290  0.0287
 2812SOL    HW211014   3.670   2.744   5.374 -1.2672 -0.9910  1.0449
 2812SOL    HW311015   3.775   2.740   5.483 -1.6571 -2.9787  1.3867
 2812SOL    MW411016   3.701   2.772   5.450 -0.2043  0.1731 -0.5563
 2813SOL     OW11017   3.990   5.238   1.111  0.7980 -0.1980 -0.4110
 2813SOL    HW211018   4.023   5.175   1.174 -0.1812 -2.5441 -2.1141
 2813SOL    HW311019   4.022   5.208   1.026  0.0778  1.4569 -1.3329
 2813SOL    MW411020   3.998   5.226   1.108  0.0983  0.5635  0.4361
 2814SOL     OW11021   4.842   1.564   6.254  0.3713 -0.3159 -0.6135
 2814SOL    HW211022   4.756   1.576   6.294  0.9597 -0.3919  0.7331
 2814SOL    HW311023   4.849   1.635   6.190 -0.3174  0.2437 -0.0846
 2814SOL    MW411024   4.831   1.575   6.251 -0.2764  0.0058 -0.3894
 2815SOL     OW11025   6.258   5.393   0.781  0.0166 -0.1740  0.4808
 2815SOL    HW211026   6.238   5.397   0.874 -1.0936 -1.2885  0.3254
 2815SOL    HW311027   6.323   5.323   0.773  0.6686  0.4250  0.4935
 2815SOL    MW411028   6.264   5.384   0.792  0.3005 -0.0286 -0.0012
 2816SOL     OW11029   1.480   4.525   3.834  0.1156  0.2915 -0.1057
 2816SOL    HW211030   1.477   4.451   3.895  0.9866  0.6055  0.3320
 2816SOL    HW311031   1.544   4.500   3.768 -1.4921 -0.4399 -1.4546
 2816SOL    MW411032   1.488   4.512   3.833  0.0417 -0.0907  0.0424
 2817SOL     OW11033   0.744   2.803   5.406  0.5133  0.1792 -0.1389
 2817SOL    HW211034   0.810   2.736   5.423  0.4955  0.1123 -0.3216
 2817SOL    HW311035   0.684   2.761   5.344 -0.6296 -0.3346  1.2856
 2817SOL    MW411036   0.745   2.789   5.400  0.2513  0.1751  0.2245
 2818SOL     OW11037   1.482   4.667   5.073  0.4594  0.4604  0.1160
 2818SOL    HW211038   1.432   4.680   4.992  1.4884 -0.1302 -0.6408
 2818SOL    HW311039   1.420   4.626   5.133 -0.9682  2.7800  0.3993
 2818SOL    MW411040   1.467   4.664   5.070  0.2828 -0.0844  0.2701
 2819SOL     OW11041   0.368   1.627   5.424  0.1308 -0.6921 -0.3210
 2819SOL    HW211042   0.328   1.712   5.402  1.9150 -0.2482 -2.1149
 2819SOL    HW311043   0.361   1.576   5.343 -0.3349 -2.0585  0.5490
 2819SOL    MW411044   0.362   1.632   5.410  0.2786 -0.1221 -0.5802
 2820SOL     OW11045   2.262   5.143   4.040  0.0413  0.0930 -0.3784
 2820SOL    HW211046   2.339   5.129   3.984  1.7863  1.0769  1.6524
 2820SOL    HW311047   2.273   5.081   4.112  0.0894  1.6687  1.0237
 2820SOL    MW411048   2.274   5.133   4.042  0.0475  0.2091 -0.4218
 2821SOL     OW11049   3.778   3.372   1.095 -0.5268  0.2377  0.0577
 2821SOL    HW211050   3.873   3.376   1.087 -0.4764  1.2374  0.9501
 2821SOL    HW311051   3.745   3.429   1.025 -0.4810 -0.3008 -0.4048
 2821SOL    MW411052   3.786   3.380   1.084 -0.0949 -0.0959  0.3367
 2822SOL     OW11053   5.168   3.774   3.634 -0.1171 -0.6532  0.0582
 2822SOL    HW211054   5.124   3.728   3.563 -0.7979  0.1671 -0.0841
 2822SOL    HW311055   5.123   3.745   3.713  0.4810 -1.3852  0.1340
 2822SOL    MW411056   5.156   3.764   3.635  0.6095  0.3407  0.4567
 2823SOL     OW11057   2.131   1.494   5.838 -0.4944  0.3956  0.0769
 2823SOL    HW211058   2.122   1.551   5.915  0.4022  1.4115 -0.5321
 2823SOL    HW311059   2.041   1.476   5.811 -0.8980 -1.3296  2.2886
 2823SOL    MW411060   2.118   1.499   5.845  0.6816  0.0401  0.0431
 2824SOL     OW11061   4.568   1.287   4.485  0.3176  0.5386  0.2266
 2824SOL    HW211062   4.554   1.334   4.568  1.9400 -1.6351  1.8352
 2824SOL    HW311063   4.518   1.206   4.495 -0.8097  0.9291 -1.6767
 2824SOL    MW411064   4.560   1.283   4.498 -0.2307  0.3949  0.3145
 2825SOL     OW11065   1.996   3.315   2.705 -0.0907 -0.0510 -0.1498
 2825SOL    HW211066   2.006   3.305   2.610  1.1144  0.5895 -0.1099
 2825SOL    HW311067   1.906   3.345   2.717  0.3867  2.0007 -1.2741
 2825SOL    MW411068   1.986   3.317   2.694 -0.3307 -0.6518 -0.5764
 2826SOL     OW11069   1.243   1.930   5.588 -0.5645 -0.6653 -0.5214
 2826SOL    HW211070   1.288   1.909   5.669  0.2642 -0.4215 -0.9049
 2826SOL    HW311071   1.271   1.862   5.526 -2.8729 -2.1515 -0.0639
 2826SOL    MW411072   1.253   1.918   5.590 -0.6202  0.6992 -0.3792
 2827SOL     OW11073   1.937   4.800   1.410  0.1927  0.1580 -0.2544
 2827SOL    HW211074   2.030   4.822   1.405 -0.0116  1.0353 -0.3332
 2827SOL    HW311075   1.914   4.771   1.321  0.0811  1.2645 -0.6048
 2827SOL    MW411076   1.946   4.799   1.397  0.6132  0.4736 -0.6327
 2828SOL     OW11077   0.477   1.184   6.264  0.4803 -0.0862  0.1082
 2828SOL    HW211078   0.416   1.251   6.233  0.2008 -0.8517 -1.0405
 2828SOL    HW311079   0.564   1.224   6.252  0.3624 -0.2453 -1.4000
 2828SOL    MW411080   0.481   1.198   6.258  0.2854 -0.3928  0.0743
 2829SOL     OW11081   5.318   2.251   6.168  0.0116 -0.4177 -0.0080
 2829SOL    HW211082   5.383   2.181   6.164  1.3549  0.7430  0.7533
 2829SOL    HW311083   5.236   2.206   6.186  0.3811 -2.0309 -1.9264
 2829SOL    MW411084   5.316   2.236   6.170 -0.0323  0.0031 -0.0221
 2830SOL     OW11085   2.193   2.833   5.965  0.3335 -0.2791 -0.1062
 2830SOL    HW211086   2.107   2.793   5.977 -0.1478  0.8898  0.4014
 2830SOL    HW311087   2.182   2.894   5.893  0.9953 -0.7980 -0.6692
 2830SOL    MW411088   2.180   2.836   5.957 -0.5572  0.5202  0.0905
 2831SOL     OW11089   4.094   4.267   0.488  0.4627 -0.0141 -0.4978
 2831SOL    HW211090   4.027   4.215   0.533  2.2701  1.3602  4.4062
 2831SOL    HW311091   4.138   4.204   0.431 -1.2079 -2.3541  0.6234
 2831SOL    MW411092   4.091   4.252   0.487  0.1244  0.5348  0.3261
 2832SOL     OW11093   0.243   0.338   6.070 -0.4354  0.9290  0.3539
 2832SOL    HW211094   0.189   0.353   6.148 -0.7502  2.2568 -0.0886
 2832SOL    HW311095   0.258   0.426   6.035 -0.8343  0.3131 -1.4321
 2832SOL    MW411096   0.238   0.352   6.076 -0.0452  0.1844 -0.5807
 2833SOL     OW11097   0.212   2.894   0.083 -0.1090 -0.0532  0.1418
 2833SOL    HW211098   0.280   2.829   0.102  2.2835  1.8132 -1.4916
 2833SOL    HW311099   0.171   2.863   0.002  1.5367  0.7437 -1.0536
 2833SOL    MW411100   0.216   2.881   0.075 -0.6475  0.6698  0.2321
 2834SOL     OW11101   5.447   1.658   0.079  0.5773  0.2695 -0.1027
 2834SOL    HW211102   5.430   1.567   0.055  0.7522  0.6897 -2.0529
 2834SOL    HW311103   5.456   1.703  -0.005  1.0896  1.9818  0.8197
 2834SOL    MW411104   5.446   1.652   0.064 -0.8025 -0.0789 -0.1440
 2835SOL     OW11105   0.860   0.163   1.670  0.7425 -0.5566 -0.7949
 2835SOL    HW211106   0.833   0.200   1.585 -0.0906 -2.2643 -1.3267
 2835SOL    HW311107   0.805   0.086   1.680  2.4690 -1.7174  0.2061
 2835SOL    MW411108   0.849   0.158   1.660 -0.3817  0.0742  0.1646
 2836SOL     OW11109   3.975   2.286   4.574  0.4065  0.3737  0.4113
 2836SOL    HW211110   3.960   2.196   4.546 -1.1289  0.5168  0.7072
 2836SOL    HW311111   3.984   2.335   4.492  1.0455 -0.0049  0.2489
 2836SOL    MW411112   3.974   2.281   4.559  0.0948 -0.1106  0.1479
 2837SOL     OW11113   3.859   0.048   4.788  0.2863 -0.6539  0.0449
 2837SOL    HW211114   3.835   0.106   4.860  0.6917  0.0668 -0.3888
 2837SOL    HW311115   3.822  -0.037   4.812 -0.5931 -0.1473  0.5430
 2837SOL    MW411116   3.851   0.045   4.801 -0.8404 -0.2454 -0.7786
 2838SOL     OW11117   2.336   3.228   0.370 -0.3659  0.1378  0.2989
 2838SOL    HW211118   2.268   3.220   0.437  0.3904  0.2076  1.0882
 2838SOL    HW311119   2.416   3.199   0.413 -0.1289 -1.4457 -1.0632
 2838SOL    MW411120   2.338   3.223   0.384 -0.2053 -0.4859 -1.0161
 2839SOL     OW11121   2.863   4.700   4.780  0.1108 -0.2754  0.1383
 2839SOL    HW211122   2.781   4.749   4.787  0.2940 -0.0877  1.1771
 2839SOL    HW311123   2.874   4.660   4.866 -0.1743 -2.3951 -0.7635
 2839SOL    MW411124   2.853   4.702   4.793  0.3023 -0.1705  0.4122
 2840SOL     OW11125   0.341   1.905   2.836  0.3933  0.2544  0.4424
 2840SOL    HW211126   0.425   1.938   2.804  0.3043 -1.7024 -2.1592
 2840SOL    HW311127   0.361   1.817   2.868 -0.7150 -0.4091 -0.6392
 2840SOL    MW411128   0.355   1.898   2.836 -0.2203  0.4094  0.3401
 2841SOL     OW11129   4.197   3.313   3.211  0.1552  0.0230  0.0773
 2841SOL    HW211130   4.227   3.254   3.143 -0.6716 -0.3212 -0.0079
 2841SOL    HW311131   4.276   3.357   3.242  0.4465  0.8179 -1.6719
 2841SOL    MW411132   4.211   3.311   3.206 -0.2636  0.5052  0.6540
 2842SOL     OW11133   0.798   5.820   0.446  0.3049 -0.4137 -0.6691
 2842SOL    HW211134   0.821   5.845   0.536 -0.8655  2.3183 -0.9981
 2842SOL    HW311135   0.878   5.833   0.396 -0.0496  2.5822 -0.6922
 2842SOL    MW411136   0.812   5.825   0.452  0.5903 -0.5789  0.2776
 2843SOL     OW11137   2.476   4.152   1.070  0.1027  0.3746  0.4171
 2843SOL    HW211138   2.432   4.228   1.110  0.5428  0.5080  0.6603
 2843SOL    HW311139   2.473   4.084   1.138 -0.0710  0.2578  0.2918
 2843SOL    MW411140   2.470   4.153   1.085 -0.0361  0.0226  0.0727
 2844SOL     OW11141   5.786   4.294   3.496 -0.6513 -0.7318  0.8972
 2844SOL    HW211142   5.692   4.290   3.481 -0.2011 -0.0765 -3.2730
 2844SOL    HW311143   5.825   4.264   3.414  2.7874 -0.1358  2.1364
 2844SOL    MW411144   5.779   4.290   3.484  0.4079 -0.1528 -0.1351
 2845SOL     OW11145   6.044   5.658   1.715 -0.4221  0.4383  0.0738
 2845SOL    HW211146   6.013   5.591   1.654  0.7862 -1.0513  1.0313
 2845SOL    HW311147   5.964   5.706   1.740 -1.7346 -2.0272  0.9882
 2845SOL    MW411148   6.029   5.656   1.711 -0.4869 -0.2663  0.4130
 2846SOL     OW11149   0.222   2.605   3.681  0.3160  0.2486  0.0894
 2846SOL    HW211150   0.212   2.568   3.769 -1.9580 -0.2154 -0.2946
 2846SOL    HW311151   0.313   2.589   3.658  0.1244 -2.8656  1.0006
 2846SOL    MW411152   0.232   2.598   3.689 -0.1949  0.1659 -0.9040
 2847SOL     OW11153   4.661   1.447   0.848  0.3414 -0.3448 -0.3755
 2847SOL    HW211154   4.581   1.497   0.837  1.6284  2.0837  0.5052
 2847SOL    HW311155   4.660   1.383   0.777 -3.1714 -1.6467  0.6540
 2847SOL    MW411156   4.651   1.445   0.837  0.8692 -0.2803  0.3577
 2848SOL     OW11157   2.045   1.987   2.761 -0.1414  0.4232 -0.0243
 2848SOL    HW211158   2.056   1.903   2.717  0.7170  1.1772 -1.3232
 2848SOL    HW311159   2.012   2.046   2.693  0.4764  1.4357  0.5199
 2848SOL    MW411160   2.042   1.984   2.747  0.4636  0.2726  0.5434
 2849SOL     OW11161   4.995   3.656   3.430  0.0368  0.3485 -0.2968
 2849SOL    HW211162   4.970   3.722   3.366 -0.5101 -0.1931 -0.6520
 2849SOL    HW311163   4.915   3.606   3.445 -0.3748  1.5838  2.1906
 2849SOL    MW411164   4.981   3.658   3.424 -0.4732  0.1743  0.0953
 2850SOL     OW11165   4.549   6.358   3.909  0.2671  0.1016 -0.1685
 2850SOL    HW211166   4.486   6.363   3.837  0.0563  1.5151  0.0887
 2850SOL    HW311167   4.502   6.314   3.980  0.4101 -1.1112 -0.8009
 2850SOL    MW411168   4.535   6.353   3.909  0.0920 -0.3337 -0.2425
 2851SOL     OW11169   3.564   1.751   6.283  0.3890  1.1879  0.1992
 2851SOL    HW211170   3.571   1.821   6.348  0.9633  0.0655  1.4041
 2851SOL    HW311171   3.564   1.670   6.335  0.2915  0.2704 -1.1723
 2851SOL    MW411172   3.565   1.750   6.298  0.0343 -0.1672  0.1733
 2852SOL     OW11173   3.275   0.373   4.204 -0.0964 -0.3237 -0.0388
 2852SOL    HW211174   3.259   0.467   4.197 -0.7463 -0.4003  0.3601
 2852SOL    HW311175   3.353   0.358   4.151 -0.7613  0.2327 -1.2294
 2852SOL    MW411176   3.283   0.383   4.196 -0.4800  0.2146 -0.0772
 2853SOL     OW11177   0.699   0.337   2.987  0.3104  0.5420  0.2348
 2853SOL    HW211178   0.732   0.350   3.076  2.2365  1.6656 -0.5800
 2853SOL    HW311179   0.614   0.380   2.987 -0.6564 -1.2217  2.0409
 2853SOL    MW411180   0.692   0.345   2.999 -0.0553  0.5913 -0.1581
 2854SOL     OW11181   0.382   5.636   0.597  1.1622 -0.3021  0.3740
 2854SOL    HW211182   0.412   5.576   0.528  0.9463 -1.3070  1.1276
 2854SOL    HW311183   0.349   5.578   0.666  0.4515  0.7071  0.9025
 2854SOL    MW411184   0.382   5.620   0.597 -0.3932  0.3361 -0.4714
 2855SOL     OW11185   0.502   1.509   3.598 -0.1177  0.0056  0.2265
 2855SOL    HW211186   0.581   1.518   3.651  0.2596  0.6023 -0.4255
 2855SOL    HW311187   0.517   1.429   3.547 -0.1439 -0.1420  0.4486
 2855SOL    MW411188   0.515   1.499   3.599 -0.0105 -0.4482  0.2054
 2856SOL     OW11189   0.051   0.092   2.641 -0.1882 -0.3545 -0.4449
 2856SOL    HW211190  -0.022   0.076   2.582  0.1129 -0.0376 -0.9084
 2856SOL    HW311191   0.114   0.141   2.589  0.4433 -0.7907 -0.1043
 2856SOL    MW411192   0.049   0.096   2.626 -0.1038  0.3181  1.0724
 2857SOL     OW11193   2.872   4.613   1.024  0.0251  0.2656  0.6282
 2857SOL    HW211194   2.844   4.535   0.977  1.8464  0.2961 -0.6040
 2857SOL    HW311195   2.907   4.671   0.956  0.5082  1.3317  1.7496
 2857SOL    MW411196   2.873   4.610   1.009 -0.0756  0.0892  0.0850
 2858SOL     OW11197   2.766   2.563   1.553 -0.0162 -0.0463 -0.4300
 2858SOL    HW211198   2.851   2.557   1.596 -0.9873 -2.0959  1.3989
 2858SOL    HW311199   2.755   2.479   1.509 -2.0156 -0.8039  1.3493
 2858SOL    MW411200   2.776   2.551   1.553  0.5991  0.4466  0.2971
 2859SOL     OW11201   6.149   3.979   5.394  0.2988  0.1390  0.0192
 2859SOL    HW211202   6.078   4.012   5.448  0.9239 -0.8275  1.4960
 2859SOL    HW311203   6.214   3.945   5.457  2.0849  1.0094 -1.2604
 2859SOL    MW411204   6.148   3.979   5.409  0.1659  0.0310 -0.2961
 2860SOL     OW11205   6.216   4.265   3.368 -0.6163  0.0159  0.5489
 2860SOL    HW211206   6.244   4.309   3.449 -2.3747  2.3011 -0.0042
 2860SOL    HW311207   6.172   4.186   3.399 -0.2692  0.2683  1.7594
 2860SOL    MW411208   6.214   4.260   3.383 -0.0161  0.6832 -0.2227
 2861SOL     OW11209   0.304   3.874   2.312 -0.3439  0.1040 -0.1212
 2861SOL    HW211210   0.226   3.873   2.368 -0.9052  1.2894 -0.8411
 2861SOL    HW311211   0.279   3.929   2.238  0.4416 -1.3130 -1.4769
 2861SOL    MW411212   0.290   3.881   2.310  0.0387  0.1513  0.3665
 2862SOL     OW11213   3.931   2.293   1.738 -0.0196 -0.3156 -0.2160
 2862SOL    HW211214   3.874   2.365   1.712 -0.8064 -0.0147  2.1557
 2862SOL    HW311215   3.888   2.215   1.703  0.2092  0.2159 -1.7722
 2862SOL    MW411216   3.918   2.292   1.730 -0.5671 -0.6544 -0.1804
 2863SOL     OW11217   0.317   1.772   1.203 -0.8446  0.5627  0.1156
 2863SOL    HW211218   0.335   1.723   1.123 -1.8485 -3.0838  1.8592
 2863SOL    HW311219   0.225   1.797   1.196 -0.8360  0.5564 -0.0187
 2863SOL    MW411220   0.307   1.769   1.192 -0.5293  0.2591  0.2587
 2864SOL     OW11221   1.419   4.755   5.444 -0.5220 -0.1205  0.3348
 2864SOL    HW211222   1.486   4.735   5.510  1.7943  0.3971 -1.7316
 2864SOL    HW311223   1.446   4.840   5.408 -1.4454 -0.5845 -1.5562
 2864SOL    MW411224   1.432   4.763   5.448  0.2210  0.1017 -0.5417
 2865SOL     OW11225   4.733   5.496   0.706  0.1834  0.5206  0.5130
 2865SOL    HW211226   4.814   5.449   0.689 -1.0592 -1.3301 -0.6540
 2865SOL    HW311227   4.745   5.536   0.793  2.2712  0.2308  0.3883
 2865SOL    MW411228   4.745   5.495   0.716 -0.4244 -0.6557 -0.0885
 2866SOL     OW11229   5.321   6.325   2.640  0.2246  0.1940 -0.1836
 2866SOL    HW211230   5.297   6.380   2.565  1.3389  2.4115  0.9622
 2866SOL    HW311231   5.249   6.335   2.702  0.2472  0.0313 -0.1303
 2866SOL    MW411232   5.309   6.334   2.638 -0.1788  0.3810  0.1841
 2867SOL     OW11233   1.121   1.735   3.603  0.0582  0.3365 -0.1133
 2867SOL    HW211234   1.205   1.705   3.638 -0.1713 -1.4038 -0.9398
 2867SOL    HW311235   1.063   1.736   3.678  0.8061  1.5735  0.4721
 2867SOL    MW411236   1.125   1.731   3.617 -0.5515  0.2220 -0.2342
 2868SOL     OW11237   0.891   5.860   4.733 -0.1233  0.1823  0.4067
 2868SOL    HW211238   0.935   5.824   4.810  0.3907 -1.3108 -0.5408
 2868SOL    HW311239   0.801   5.829   4.741 -0.4025  1.1254  1.0557
 2868SOL    MW411240   0.885   5.851   4.744 -0.4673 -0.0594 -0.4012
 2869SOL     OW11241   6.192   0.214   5.690  0.5141 -0.4740  0.2284
 2869SOL    HW211242   6.249   0.243   5.761  0.2917  0.7149 -0.0597
 2869SOL    HW311243   6.246   0.221   5.611 -0.2744  1.5758 -0.1797
 2869SOL    MW411244   6.207   0.219   5.689 -0.0981 -0.2394  0.4288
 2870SOL     OW11245   0.503   4.448   3.597 -0.1564  0.4190 -0.2847
 2870SOL    HW211246   0.451   4.529   3.599 -0.5762  0.1765 -0.9571
 2870SOL    HW311247   0.443   4.383   3.560 -1.1121 -1.1771  3.6201
 2870SOL    MW411248   0.488   4.450   3.592 -0.0252 -0.0213  0.1198
 2871SOL     OW11249   5.924   5.692   3.914  0.8554  0.4043  0.5752
 2871SOL    HW211250   5.893   5.777   3.882 -0.4764  0.1617  1.1600
 2871SOL    HW311251   6.005   5.712   3.962  1.2573  1.1539 -0.3790
 2871SOL    MW411252   5.931   5.706   3.916  0.4597 -0.2335  0.0460
 2872SOL     OW11253   2.985   5.347   1.198 -0.2406  0.0801 -0.5940
 2872SOL    HW211254   2.935   5.369   1.120  2.2675 -0.0205 -2.3471
 2872SOL    HW311255   2.977   5.252   1.206 -2.3116  0.3022  0.6676
 2872SOL    MW411256   2.978   5.337   1.189 -0.1713 -0.4099 -0.0970
 2873SOL     OW11257   2.373   5.435   4.346  0.0593  0.3495 -0.0125
 2873SOL    HW211258   2.334   5.361   4.392  2.1550 -1.5376 -1.0795
 2873SOL    HW311259   2.322   5.444   4.266  0.4705 -0.7056 -0.4047
 2873SOL    MW411260   2.361   5.427   4.341  1.0638 -0.2433 -0.1273
 2874SOL     OW11261   6.293   6.173   2.089  0.2924  0.0343 -0.6597
 2874SOL    HW211262   6.279   6.212   2.003 -0.3998 -0.4111 -0.7491
 2874SOL    HW311263   6.282   6.079   2.075 -1.3674  0.0722  0.2096
 2874SOL    MW411264   6.290   6.166   2.076  0.6167  0.0856  0.0454
 2875SOL     OW11265   4.733   1.599   2.868 -0.2710  0.2539  0.5696
 2875SOL    HW211266   4.712   1.605   2.774  2.1917 -1.9495 -0.2249
 2875SOL    HW311267   4.757   1.689   2.892  0.5134  0.6123 -1.3255
 2875SOL    MW411268   4.733   1.612   2.858  0.5028 -0.4124  0.2899
 2876SOL     OW11269   5.419   3.554   2.565  0.2446  0.1446  0.0940
 2876SOL    HW211270   5.461   3.479   2.608 -0.6238 -1.1126 -1.1484
 2876SOL    HW311271   5.424   3.533   2.472 -2.3555  0.3452 -0.1508
 2876SOL    MW411272   5.425   3.541   2.559  0.3147  0.4682  1.1762
 2877SOL     OW11273   2.466   3.204   4.233  0.1655 -0.3582 -0.2568
 2877SOL    HW211274   2.423   3.129   4.191 -0.8134  0.0246  0.0337
 2877SOL    HW311275   2.400   3.239   4.292  1.3602 -0.6484  1.3346
 2877SOL    MW411276   2.452   3.199   4.236 -0.6613  0.0376  0.1024
 2878SOL     OW11277   3.240   3.762   2.748  0.0813  0.3587 -0.2920
 2878SOL    HW211278   3.269   3.674   2.772 -0.7458 -0.0075 -0.6032
 2878SOL    HW311279   3.145   3.760   2.760 -0.0980  0.8211 -1.4882
 2878SOL    MW411280   3.231   3.750   2.753  0.5011  0.7769 -0.5678
 2879SOL     OW11281   5.477   3.483   5.541  0.2124 -0.0694  0.1253
 2879SOL    HW211282   5.558   3.499   5.493 -1.4520  0.8562 -2.6557
 2879SOL    HW311283   5.500   3.498   5.632  2.6775  2.4359 -0.7408
 2879SOL    MW411284   5.491   3.487   5.546  0.2038  0.1749  0.1690
 2880SOL     OW11285   1.075   0.352   5.129 -0.5210 -0.3382  0.0988
 2880SOL    HW211286   1.058   0.445   5.117  0.4554  0.0163  1.2887
 2880SOL    HW311287   1.148   0.333   5.070 -0.5666 -0.2942  0.0287
 2880SOL    MW411288   1.082   0.362   5.120  0.3236  0.0575  0.1795
 2881SOL     OW11289   0.526   2.398   3.427  0.3823 -0.0879 -0.8226
 2881SOL    HW211290   0.604   2.343   3.429 -0.6886 -1.6584  0.7491
 2881SOL    HW311291   0.532   2.446   3.344  3.7186  0.9929 -0.0941
 2881SOL    MW411292   0.537   2.397   3.417 -0.0087 -0.2064 -0.2660
 2882SOL     OW11293   6.130   0.521   5.811 -0.4229  0.4915  0.3317
 2882SOL    HW211294   6.046   0.525   5.765 -0.7226 -1.5436  0.6378
 2882SOL    HW311295   6.108   0.523   5.904 -0.0739  0.7621  0.4124
 2882SOL    MW411296   6.116   0.522   5.817 -0.6696  0.2251 -0.4011
 2883SOL     OW11297   5.902   3.917   2.217  0.2586  0.2686 -0.3695
 2883SOL    HW211298   5.878   3.866   2.294  1.3174  0.9502  0.4358
 2883SOL    HW311299   5.820   3.926   2.168 -0.4132 -0.2400  0.6283
 2883SOL    MW411300   5.888   3.912   2.221 -0.0706 -0.1388  0.0864
 2884SOL     OW11301   4.125   0.536   1.851 -0.7330 -0.0437  0.4545
 2884SOL    HW211302   4.177   0.487   1.788  0.2011  0.8729  0.4875
 2884SOL    HW311303   4.106   0.473   1.921  0.4346 -0.3699  0.4999
 2884SOL    MW411304   4.129   0.521   1.852  0.2356 -0.1532 -0.1706
 2885SOL     OW11305   2.808   1.639   4.805  0.9158  0.2804  0.6904
 2885SOL    HW211306   2.720   1.671   4.787  0.2403 -1.9437 -0.2824
 2885SOL    HW311307   2.855   1.650   4.723  0.4732 -1.7235  0.1301
 2885SOL    MW411308   2.802   1.645   4.792  0.9817  0.1036  0.1517
 2886SOL     OW11309   0.724   4.952   5.739  0.1124 -0.1547 -0.8689
 2886SOL    HW211310   0.690   4.875   5.785  1.4023  0.5348  1.4151
 2886SOL    HW311311   0.648   5.009   5.728 -0.3806 -0.6842 -0.2914
 2886SOL    MW411312   0.710   4.949   5.744 -0.6523  0.1477  0.0847
 2887SOL     OW11313   4.259   5.529   1.797 -0.3458  0.2763  0.0621
 2887SOL    HW211314   4.279   5.598   1.859 -1.3982  1.6942 -1.0996
 2887SOL    HW311315   4.166   5.511   1.808 -0.7088  1.0106 -1.4885
 2887SOL    MW411316   4.249   5.535   1.806  0.4633 -0.0745  0.5165
 2888SOL     OW11317   0.621   1.442   1.315 -0.9263  0.0241 -0.2827
 2888SOL    HW211318   0.570   1.362   1.317  2.3272 -2.3835 -2.6586
 2888SOL    HW311319   0.636   1.460   1.222  0.5571  1.9237  0.2407
 2888SOL    MW411320   0.617   1.434   1.303  0.0462 -0.1145 -0.3153
 2889SOL     OW11321   1.705   5.020   1.211  0.2140  0.1585  0.0935
 2889SOL    HW211322   1.646   4.971   1.268  1.0047  0.3658  1.1271
 2889SOL    HW311323   1.680   5.111   1.223 -0.5843  0.1053 -1.0458
 2889SOL    MW411324   1.694   5.025   1.220 -0.1402 -0.5173 -0.2069
 2890SOL     OW11325   0.337   2.225   5.946 -0.2391 -0.4737  0.0477
 2890SOL    HW211326   0.386   2.220   5.864  0.5255  0.3820  0.4402
 2890SOL    HW311327   0.259   2.171   5.930  0.0517 -0.5785 -1.1255
 2890SOL    MW411328   0.333   2.217   5.933 -0.2602  0.1660 -0.0924
 2891SOL     OW11329   4.852   5.899   6.091 -1.0015  0.0554 -0.1860
 2891SOL    HW211330   4.851   5.904   5.996 -0.0800  0.6390 -0.1742
 2891SOL    HW311331   4.774   5.847   6.113 -0.1176 -1.8509 -1.3503
 2891SOL    MW411332   4.841   5.893   6.082  0.1059  0.1839 -0.0557
 2892SOL     OW11333   4.722   3.269   0.918  0.2316  0.1016 -0.7183
 2892SOL    HW211334   4.780   3.193   0.926 -1.0604 -0.8571 -0.0902
 2892SOL    HW311335   4.651   3.238   0.861 -0.0871  0.9823 -0.8029
 2892SOL    MW411336   4.720   3.255   0.911 -0.7208 -0.8207 -0.1916
 2893SOL     OW11337   6.376   2.370   2.029  0.3245  0.1370 -0.3693
 2893SOL    HW211338   6.414   2.408   1.950  0.4777 -0.3251 -0.5223
 2893SOL    HW311339   6.420   2.416   2.101 -0.4421  1.1700 -0.5433
 2893SOL    MW411340   6.387   2.381   2.028 -0.1051 -0.0080 -0.1891
 2894SOL     OW11341   0.975   5.757   3.891 -0.7383 -0.4277 -0.2950
 2894SOL    HW211342   0.975   5.752   3.795 -0.9135  0.6605 -0.3653
 2894SOL    HW311343   0.918   5.686   3.919 -1.6778  0.0050 -1.0526
 2894SOL    MW411344   0.968   5.747   3.882  0.2453 -0.3307  0.0762
 2895SOL     OW11345   5.059   5.552   0.274 -0.4874  0.0432  0.3781
 2895SOL    HW211346   5.009   5.632   0.287 -0.0245  0.0336  2.4432
 2895SOL    HW311347   5.016   5.487   0.329  0.4772 -0.5453  0.4697
 2895SOL    MW411348   5.047   5.554   0.283 -0.0021 -0.3330  0.2004
 2896SOL     OW11349   5.535   3.903   2.515  0.3721  0.1563  0.7697
 2896SOL    HW211350   5.478   3.910   2.592 -0.7895 -1.4734  0.1100
 2896SOL    HW311351   5.475   3.887   2.442  1.6016 -0.7723 -0.0757
 2896SOL    MW411352   5.519   3.902   2.516 -0.0449 -0.1818 -0.3607
 2897SOL     OW11353   1.473   2.658   4.870 -0.0318 -0.4302  0.1417
 2897SOL    HW211354   1.548   2.606   4.900 -0.3882 -0.9688  0.1116
 2897SOL    HW311355   1.496   2.683   4.780  1.1262  1.3519  0.8805
 2897SOL    MW411356   1.486   2.654   4.862 -0.1457  0.0933 -0.1468
 2898SOL     OW11357   0.035   0.216   2.166 -0.5160 -0.4598  0.0474
 2898SOL    HW211358   0.027   0.158   2.242  1.5209  0.3713  0.9725
 2898SOL    HW311359   0.101   0.174   2.110 -1.2206 -0.5192 -0.7571
 2898SOL    MW411360   0.043   0.203   2.169  0.1557 -0.2164 -0.0212
 2899SOL     OW11361   2.669   3.667   1.454 -0.5781 -0.7834  0.4766
 2899SOL    HW211362   2.624   3.707   1.529 -0.2113  2.9979 -1.1094
 2899SOL    HW311363   2.757   3.648   1.487 -0.6190  0.2063  1.2274
 2899SOL    MW411364   2.674   3.670   1.468  0.0013 -1.0336 -0.4066
 2900SOL     OW11365   4.281   0.849   6.142 -0.1876 -0.0072  0.1299
 2900SOL    HW211366   4.210   0.786   6.154  0.7987 -0.8033  2.5484
 2900SOL    HW311367   4.249   0.930   6.181 -0.3392  0.0878 -0.1931
 2900SOL    MW411368   4.268   0.851   6.149  0.6604 -0.1648  0.0903
 2901SOL     OW11369   1.844   3.972   0.491 -0.9349 -0.6603  0.0930
 2901SOL    HW211370   1.907   3.905   0.516 -0.1772 -0.2790 -0.7656
 2901SOL    HW311371   1.874   4.003   0.406 -0.4996  1.7180  1.0410
 2901SOL    MW411372   1.856   3.967   0.483  0.7456 -0.3284 -0.1605
 2902SOL     OW11373   5.858   1.545   0.015  1.3498  0.4546  0.0826
 2902SOL    HW211374   5.790   1.478   0.023  0.4494  1.4392  1.0853
 2902SOL    HW311375   5.830   1.599  -0.058  1.8624 -0.0064 -0.4647
 2902SOL    MW411376   5.845   1.543   0.007  0.2965 -0.1534 -0.0257
 2903SOL     OW11377   5.319   1.410   5.833 -0.8654 -0.1256 -0.0479
 2903SOL    HW211378   5.389   1.437   5.774 -0.4997  0.2071  0.5301
 2903SOL    HW311379   5.328   1.315   5.841 -1.1943 -0.2335 -0.8733
 2903SOL    MW411380   5.329   1.401   5.826  0.0256 -0.0686  0.1694
 2904SOL     OW11381   4.210   3.833   2.453 -0.0309  0.0436 -0.2397
 2904SOL    HW211382   4.128   3.783   2.454 -0.8045  1.2812 -0.5575
 2904SOL    HW311383   4.205   3.887   2.375  0.7898  0.6452  0.1061
 2904SOL    MW411384   4.199   3.833   2.443 -0.5216  0.2799  0.2031
 2905SOL     OW11385   1.358   0.364   5.876 -0.1291  0.5686  0.1804
 2905SOL    HW211386   1.404   0.429   5.822 -0.0751  0.3286 -0.0684
 2905SOL    HW311387   1.266   0.376   5.854  0.0515 -1.9950 -2.8976
 2905SOL    MW411388   1.352   0.374   5.866 -0.5750 -0.7044  0.1601
 2906SOL     OW11389   2.307   4.587   0.806  0.2090  0.2634  0.2632
 2906SOL    HW211390   2.400   4.593   0.828  0.3585 -1.7388  0.2723
 2906SOL    HW311391   2.302   4.612   0.714  0.9052 -0.5592 -0.0089
 2906SOL    MW411392   2.318   4.591   0.797  0.5221  0.7755 -0.6377
 2907SOL     OW11393   5.250   4.650   4.771 -0.0898  0.1137 -0.3351
 2907SOL    HW211394   5.228   4.742   4.759  2.0401  0.9684  1.4850
 2907SOL    HW311395   5.270   4.618   4.682 -2.7136  0.7976 -1.2430
 2907SOL    MW411396   5.250   4.658   4.757  0.2547 -0.8044 -0.1536
 2908SOL     OW11397   6.161   0.922   5.600 -0.6053 -0.2690  0.3436
 2908SOL    HW211398   6.196   0.965   5.678 -0.1856 -0.1526  0.0921
 2908SOL    HW311399   6.094   0.982   5.568 -1.6796 -0.8878  1.3197
 2908SOL    MW411400   6.157   0.936   5.606 -0.1597  0.3990  0.1590
 2909SOL     OW11401   3.377   6.360   3.986 -0.4033  0.2574 -0.6335
 2909SOL    HW211402   3.372   6.454   3.973  0.4994  0.6719  1.5034
 2909SOL    HW311403   3.469   6.339   3.973  0.1614  0.3827  2.4888
 2909SOL    MW411404   3.388   6.369   3.983 -0.0847 -0.1779 -0.0876
 2910SOL     OW11405   1.825   4.876   4.369  0.1527 -0.1626 -0.7836
 2910SOL    HW211406   1.858   4.787   4.357  0.2688 -0.4439  1.3347
 2910SOL    HW311407   1.899   4.933   4.347  0.1722 -0.5828 -1.8442
 2910SOL    MW411408   1.839   4.872   4.364 -0.3457  0.3774 -0.1337
 2911SOL     OW11409   5.633   4.020   6.362  0.6435  0.1647 -0.2960
 2911SOL    HW211410   5.670   4.063   6.439 -0.1379  3.2327 -1.4779
 2911SOL    HW311411   5.540   4.011   6.381  0.3275  1.5314 -1.0580
 2911SOL    MW411412   5.626   4.025   6.374 -0.0669 -0.1785  0.3896
 2912SOL     OW11413   5.689   5.051   5.428  0.1685 -0.1207 -0.1368
 2912SOL    HW211414   5.713   4.965   5.460  2.8177 -0.0333 -1.6359
 2912SOL    HW311415   5.593   5.049   5.424  0.1412 -2.8384  0.1583
 2912SOL    MW411416   5.679   5.040   5.432 -0.0549 -0.1167  0.5109
 2913SOL     OW11417   2.427   3.967   2.488 -0.7759  0.0077  0.4268
 2913SOL    HW211418   2.373   4.011   2.422  0.9672  1.0715 -0.3665
 2913SOL    HW311419   2.491   4.033   2.514 -0.9751 -0.6308  2.6995
 2913SOL    MW411420   2.428   3.981   2.483 -0.5927 -0.1533 -0.2303
 2914SOL     OW11421   1.294   4.329   0.322 -0.4881 -0.3041  0.3543
 2914SOL    HW211422   1.234   4.381   0.375 -0.1903 -1.2389  1.6425
 2914SOL    HW311423   1.366   4.307   0.381 -0.3285 -1.6934 -0.3189
 2914SOL    MW411424   1.296   4.333   0.337 -0.1354 -0.4604 -0.3280
 2915SOL     OW11425   3.829   3.480   0.442  0.3436 -0.0041 -0.1265
 2915SOL    HW211426   3.891   3.550   0.424 -0.8159  1.3749  0.9310
 2915SOL    HW311427   3.743   3.521   0.432 -0.4200 -1.7185 -1.0801
 2915SOL    MW411428   3.826   3.494   0.438  0.2681 -0.1763  0.4078
 2916SOL     OW11429   5.709   4.247   0.601 -0.7309  0.2512  0.4201
 2916SOL    HW211430   5.732   4.158   0.576 -3.0418 -0.3430  0.1741
 2916SOL    HW311431   5.793   4.291   0.614  0.4666 -1.7921  0.0129
 2916SOL    MW411432   5.723   4.241   0.600  0.7774  0.2975  0.0219
 2917SOL     OW11433   3.650   5.391   6.140 -0.0416 -0.1992  0.0838
 2917SOL    HW211434   3.719   5.386   6.207 -0.6845  4.0953  1.3877
 2917SOL    HW311435   3.579   5.337   6.175  0.9944 -1.0280  1.0019
 2917SOL    MW411436   3.650   5.383   6.154  0.4875  0.1218 -0.0388
 2918SOL     OW11437   1.341   4.295   5.338 -0.2906  0.3133  0.2090
 2918SOL    HW211438   1.310   4.253   5.419  0.9455  1.2869  1.2227
 2918SOL    HW311439   1.273   4.275   5.274 -1.8612  0.4426  1.7586
 2918SOL    MW411440   1.328   4.287   5.340  0.6977  0.5559 -0.0013
 2919SOL     OW11441   2.632   1.378   4.073  0.4923  0.0295  0.2773
 2919SOL    HW211442   2.570   1.304   4.076 -0.4145  0.7123 -0.9822
 2919SOL    HW311443   2.576   1.456   4.071  1.4209  0.6978 -0.0332
 2919SOL    MW411444   2.616   1.378   4.073 -0.2597 -0.3257 -0.0983
 2920SOL     OW11445   3.155   2.242   2.382 -0.1226 -0.1259  0.2588
 2920SOL    HW211446   3.124   2.256   2.292 -0.9317 -1.6148  0.2628
 2920SOL    HW311447   3.098   2.297   2.435 -0.9014 -0.6669  0.0065
 2920SOL    MW411448   3.143   2.251   2.377 -0.0256 -0.5865 -0.3859
 2921SOL     OW11449   0.217   2.372   0.457 -0.0254  0.2977 -0.1402
 2921SOL    HW211450   0.276   2.322   0.513 -0.6149  0.6407  0.8139
 2921SOL    HW311451   0.257   2.369   0.370  1.5992  0.8709  0.5608
 2921SOL    MW411452   0.230   2.365   0.453 -0.3814 -0.8506 -0.2734
 2922SOL     OW11453   2.387   3.692   4.223 -0.0801 -0.0581 -0.0004
 2922SOL    HW211454   2.328   3.743   4.168 -0.4418 -0.5325 -0.0588
 2922SOL    HW311455   2.350   3.604   4.222  0.7529 -0.4163 -0.2349
 2922SOL    MW411456   2.375   3.687   4.215 -0.4383  0.2465  0.0891
 2923SOL     OW11457   2.259   0.755   6.297 -0.3775  0.8351 -0.0524
 2923SOL    HW211458   2.317   0.750   6.373 -0.9271  3.1296  0.5981
 2923SOL    HW311459   2.256   0.665   6.264 -0.3562 -0.3393  2.7971
 2923SOL    MW411460   2.267   0.742   6.303 -0.3290  0.0280  0.0048
 2924SOL     OW11461   2.214   1.711   2.338 -0.0863 -0.3866 -0.0949
 2924SOL    HW211462   2.310   1.715   2.343 -0.0828 -1.8051  1.5503
 2924SOL    HW311463   2.192   1.770   2.265  2.0506 -0.3707 -0.7929
 2924SOL    MW411464   2.224   1.720   2.329  0.3891  0.1394 -0.7015
 2925SOL     OW11465   5.084   2.888   1.654 -0.2986  0.0557  0.3447
 2925SOL    HW211466   5.003   2.874   1.703 -0.0726 -3.4417 -0.0540
 2925SOL    HW311467   5.055   2.905   1.564 -0.5865  1.7763  0.7247
 2925SOL    MW411468   5.069   2.889   1.649 -1.0440  0.6145  0.5055
 2926SOL     OW11469   6.094   2.283   4.954  0.2482  0.4381 -0.2042
 2926SOL    HW211470   6.137   2.198   4.960 -2.3028 -0.8803  0.7382
 2926SOL    HW311471   6.118   2.329   5.034  2.6056  1.1847 -1.2516
 2926SOL    MW411472   6.103   2.278   4.965 -0.0996 -0.3860 -0.3724
 2927SOL     OW11473   3.346   1.796   6.083 -0.9501 -0.7408  0.0196
 2927SOL    HW211474   3.257   1.792   6.117 -0.7855  0.3103  0.6194
 2927SOL    HW311475   3.401   1.767   6.156 -0.6401  0.9346  0.4935
 2927SOL    MW411476   3.342   1.791   6.097  0.5615 -0.1092 -0.7453
 2928SOL     OW11477   1.376   0.857   0.857 -0.2326 -0.1456  0.0966
 2928SOL    HW211478   1.450   0.820   0.906  0.1095 -0.8518 -0.9297
 2928SOL    HW311479   1.353   0.789   0.793 -0.5913  0.8031 -0.8047
 2928SOL    MW411480   1.383   0.843   0.855  0.2613  0.5318 -0.2347
 2929SOL     OW11481   5.271   1.126   2.407 -0.2248 -0.4808  0.3792
 2929SOL    HW211482   5.267   1.165   2.320  0.3818 -1.0081  0.1063
 2929SOL    HW311483   5.184   1.140   2.444 -0.7019 -0.8534 -0.5716
 2929SOL    MW411484   5.259   1.133   2.401 -0.6600  0.4761  0.0219
 2930SOL     OW11485   4.497   3.735   4.861 -0.2283 -0.0897  0.1511
 2930SOL    HW211486   4.571   3.690   4.822 -0.0210  0.9357 -0.6662
 2930SOL    HW311487   4.535   3.787   4.931 -0.0843  0.8472 -0.6082
 2930SOL    MW411488   4.512   3.736   4.865  0.4053 -0.4267  0.0966
 2931SOL     OW11489   3.935   3.193   1.899  0.3617  0.3678 -0.5455
 2931SOL    HW211490   3.934   3.124   1.966 -0.1781 -0.3658 -1.2940
 2931SOL    HW311491   3.868   3.167   1.837 -0.1113  1.7790 -0.6544
 2931SOL    MW411492   3.926   3.181   1.900  0.2779  0.0330  0.2699
 2932SOL     OW11493   2.702   2.948   1.023  0.0829 -0.1232 -0.4366
 2932SOL    HW211494   2.755   3.020   1.054  0.8515 -1.2566  0.9709
 2932SOL    HW311495   2.732   2.872   1.073 -0.2139 -1.5749 -2.3459
 2932SOL    MW411496   2.713   2.947   1.033 -0.4313  0.1066 -0.9077
 2933SOL     OW11497   1.722   3.136   2.974  0.3326 -0.1934  0.1142
 2933SOL    HW211498   1.814   3.111   2.985  0.7576  1.0275 -0.4412
 2933SOL    HW311499   1.691   3.152   3.063  0.7066 -0.4379  0.2915
 2933SOL    MW411500   1.730   3.135   2.987 -0.0699  0.6374 -0.1521
 2934SOL     OW11501   2.420   1.683   4.337 -0.0480  0.3049  0.2714
 2934SOL    HW211502   2.396   1.632   4.260  1.3545  0.3286 -0.2195
 2934SOL    HW311503   2.469   1.622   4.392  0.0080  0.6168  0.5724
 2934SOL    MW411504   2.423   1.668   4.334 -0.1368  0.2878 -0.8847
 2935SOL     OW11505   4.109   6.173   2.533  0.4330 -0.0281  0.4857
 2935SOL    HW211506   4.176   6.223   2.486  1.0673 -0.6406  0.7148
 2935SOL    HW311507   4.084   6.230   2.606  1.0389  0.0259  0.6577
 2935SOL    MW411508   4.115   6.187   2.537 -0.3663 -0.2827  0.4160
 2936SOL     OW11509   5.717   3.391   4.948 -0.3462 -0.1071 -0.1799
 2936SOL    HW211510   5.773   3.440   4.888 -0.3614  1.3952  0.9584
 2936SOL    HW311511   5.754   3.303   4.950  0.1022  0.0221 -1.7759
 2936SOL    MW411512   5.729   3.386   4.941 -0.2380 -0.0594  0.3096
 2937SOL     OW11513   0.284   6.301   2.484  0.0843  0.4330  0.3779
 2937SOL    HW211514   0.196   6.272   2.458  0.8815 -0.1232 -1.9463
 2937SOL    HW311515   0.321   6.226   2.531  0.0950 -0.2230 -0.6349
 2937SOL    MW411516   0.277   6.287   2.486 -0.2408 -0.4458  0.4024
 2938SOL     OW11517   0.190   4.791   1.140 -0.0913  0.0197  0.0771
 2938SOL    HW211518   0.204   4.707   1.097 -2.5843 -0.3303 -0.2058
 2938SOL    HW311519   0.172   4.768   1.232  0.3402  0.3474  0.2460
 2938SOL    MW411520   0.190   4.777   1.147 -0.4172  0.3828 -0.1129
 2939SOL     OW11521   1.206   6.305   5.071 -0.1861  0.0697 -0.2813
 2939SOL    HW211522   1.209   6.371   5.140  1.4353 -0.0797 -0.1595
 2939SOL    HW311523   1.298   6.280   5.058 -0.5572 -0.6367 -1.7877
 2939SOL    MW411524   1.219   6.310   5.079 -0.6323 -0.4293 -0.2809
 2940SOL     OW11525   0.170   0.600   1.141  0.1221 -0.2017  0.3757
 2940SOL    HW211526   0.212   0.518   1.115  1.0062 -0.0776  1.3649
 2940SOL    HW311527   0.242   0.661   1.154 -0.5036  0.6139  0.0672
 2940SOL    MW411528   0.185   0.597   1.139 -0.0787 -0.2553  0.8388
 2941SOL     OW11529   4.004   5.524   6.014  0.8240  0.9592 -0.0718
 2941SOL    HW211530   4.013   5.596   5.952 -0.0855  0.5752 -0.6568
 2941SOL    HW311531   4.020   5.445   5.962 -0.5640  0.5974  0.0340
 2941SOL    MW411532   4.008   5.523   5.999  0.0379  0.6751  0.5675
 2942SOL     OW11533   3.898   5.337   3.156  0.0597 -0.0567  0.3553
 2942SOL    HW211534   3.850   5.257   3.175  0.0159 -0.1016  0.0686
 2942SOL    HW311535   3.980   5.308   3.117 -0.7278  0.0600 -1.4866
 2942SOL    MW411536   3.902   5.323   3.153  0.5794  0.4650  0.1321
 2943SOL     OW11537   5.076   3.886   2.558  0.0264 -0.3354  0.4909
 2943SOL    HW211538   5.003   3.910   2.615 -0.8250  0.4362 -0.8778
 2943SOL    HW311539   5.095   3.795   2.581 -1.2763 -0.5092  0.9782
 2943SOL    MW411540   5.069   3.877   2.569  0.6628  0.0234  0.5800
 2944SOL     OW11541   6.072   5.477   3.592 -0.0001 -0.4111  0.0800
 2944SOL    HW211542   6.117   5.560   3.574 -0.6662 -0.1739 -0.5485
 2944SOL    HW311543   6.113   5.414   3.532  0.3619 -0.4972  0.4105
 2944SOL    MW411544   6.083   5.480   3.582 -0.4694 -0.1072 -0.2525
 2945SOL     OW11545   3.769   4.178   1.951 -0.1066 -0.0577  0.4838
 2945SOL    HW211546   3.821   4.229   1.889  0.1158 -1.1802 -0.2751
 2945SOL    HW311547   3.786   4.087   1.928 -2.6934 -0.4769 -0.0443
 2945SOL    MW411548   3.778   4.173   1.940  0.1168 -0.2537  0.3742
 2946SOL     OW11549   5.273   3.853   1.351 -0.3513 -0.5896  0.3855
 2946SOL    HW211550   5.302   3.893   1.268 -1.0695 -0.3915  0.2181
 2946SOL    HW311551   5.315   3.768   1.353  0.1614 -0.3463  0.1073
 2946SOL    MW411552   5.282   3.847   1.340  0.3097 -0.5065  0.7996
 2947SOL     OW11553   0.936   2.102   4.171 -0.1915  0.2472  0.1902
 2947SOL    HW211554   0.883   2.168   4.127  0.9024 -0.1911 -1.9321
 2947SOL    HW311555   1.025   2.137   4.167  0.3116 -1.0194 -0.3857
 2947SOL    MW411556   0.941   2.115   4.165  0.9876 -0.2288  0.3068
 2948SOL     OW11557   1.003   0.792   3.395 -0.0417  0.1054  0.4136
 2948SOL    HW211558   0.914   0.800   3.429  0.1849  0.3979  0.9548
 2948SOL    HW311559   1.050   0.866   3.433 -0.2920  1.8214 -2.3136
 2948SOL    MW411560   0.998   0.803   3.404 -0.2164 -0.0625  0.7874
 2949SOL     OW11561   0.668   1.082   1.663 -0.2424 -0.4249 -0.6217
 2949SOL    HW211562   0.628   1.087   1.750  0.5213 -2.6278 -0.0901
 2949SOL    HW311563   0.664   1.172   1.630 -2.0690  0.1525  0.9785
 2949SOL    MW411564   0.662   1.095   1.670  0.1651 -0.0068  0.3800
 2950SOL     OW11565   4.378   1.788   5.706  0.2159 -0.0913 -0.2559
 2950SOL    HW211566   4.313   1.726   5.674 -0.1653  0.3148 -0.2797
 2950SOL    HW311567   4.460   1.738   5.709 -0.2943 -0.8866  0.7275
 2950SOL    MW411568   4.380   1.774   5.702 -0.4265 -0.3430 -0.3543
 2951SOL     OW11569   3.250   1.924   2.070 -0.1916  0.1812  0.9312
 2951SOL    HW211570   3.253   1.832   2.044  1.9938  0.2131  0.9004
 2951SOL    HW311571   3.226   1.971   1.990  0.8235 -0.2081  0.3776
 2951SOL    MW411572   3.247   1.918   2.056 -0.0749 -0.6428  0.1580
 2952SOL     OW11573   0.601   5.186   3.068  0.1806 -0.0094  0.5128
 2952SOL    HW211574   0.518   5.140   3.058  0.8684 -1.0908 -0.5712
 2952SOL    HW311575   0.607   5.205   3.161  0.2093 -2.8858  1.2089
 2952SOL    MW411576   0.591   5.182   3.079 -0.0102  0.5322 -0.2446
 2953SOL     OW11577   4.922   0.405   5.959  0.1613  0.0930  0.1583
 2953SOL    HW211578   4.979   0.358   5.898  1.0206 -0.5531  1.4151
 2953SOL    HW311579   4.937   0.498   5.939  1.7570 -0.0635  0.5183
 2953SOL    MW411580   4.932   0.411   5.948  0.0984 -0.0687  0.2431
 2954SOL     OW11581   4.188   6.064   4.642  0.1165  0.1358  0.0728
 2954SOL    HW211582   4.166   6.157   4.638  2.6829  0.8422  0.6663
 2954SOL    HW311583   4.145   6.033   4.721  0.9275  1.3640  1.0343
 2954SOL    MW411584   4.180   6.072   4.652  0.3889 -0.5244  0.0212
 2955SOL     OW11585   2.334   3.516   0.715 -0.1823  0.3324 -0.0442
 2955SOL    HW211586   2.330   3.427   0.751 -0.2430  0.6286  0.7115
 2955SOL    HW311587   2.341   3.504   0.621 -0.8104 -0.4690  0.0018
 2955SOL    MW411588   2.334   3.502   0.707 -0.1894  0.1060 -0.0856
 2956SOL     OW11589   5.025   1.378   5.867 -0.0191  0.3244  0.8816
 2956SOL    HW211590   5.018   1.283   5.855  0.3486  0.4174 -0.1177
 2956SOL    HW311591   5.067   1.387   5.953  0.1209 -0.4257  0.9043
 2956SOL    MW411592   5.030   1.366   5.877 -0.6744 -0.6904  0.1542
 2957SOL     OW11593   1.523   1.041   2.413  0.1039  0.2279  0.4297
 2957SOL    HW211594   1.561   1.053   2.500 -0.0082 -2.3184  0.9034
 2957SOL    HW311595   1.533   1.127   2.370  2.0185  0.9737  2.2069
 2957SOL    MW411596   1.530   1.054   2.418  0.0510 -0.7005  0.1391
 2958SOL     OW11597   5.158   5.397   3.733 -0.0584 -0.4093 -0.4304
 2958SOL    HW211598   5.117   5.477   3.702  0.4682  0.6551  1.4171
 2958SOL    HW311599   5.088   5.331   3.732 -0.3704 -0.1022 -2.4432
 2958SOL    MW411600   5.143   5.398   3.729 -0.5556 -0.1176  0.4672
 2959SOL     OW11601   6.157   6.280   4.414 -0.2805 -0.0130 -0.3302
 2959SOL    HW211602   6.118   6.366   4.400  0.2698  0.2098 -0.4890
 2959SOL    HW311603   6.197   6.257   4.331 -0.8913 -0.6690 -0.4562
 2959SOL    MW411604   6.157   6.288   4.401  0.0127  0.0666 -0.1206
 2960SOL     OW11605   0.046   0.042   3.162  0.4367 -0.4036 -0.5112
 2960SOL    HW211606   0.067   0.014   3.073 -0.4352  0.8716 -1.1371
 2960SOL    HW311607   0.025   0.135   3.155  0.6179 -0.2042  1.0787
 2960SOL    MW411608   0.046   0.050   3.150  0.3612 -0.3796 -0.2545
 2961SOL     OW11609   4.177   5.391   2.252  0.0386 -0.5281  0.2324
 2961SOL    HW211610   4.149   5.318   2.198  0.5161  0.1400 -0.9444
 2961SOL    HW311611   4.159   5.469   2.200  2.6749  0.0192 -0.0101
 2961SOL    MW411612   4.171   5.392   2.238  0.4351 -0.0788 -0.2088
 2962SOL     OW11613   2.228   5.246   1.839  0.1398  0.0560 -0.0114
 2962SOL    HW211614   2.184   5.324   1.874  0.8444  0.1493  0.7091
 2962SOL    HW311615   2.162   5.204   1.785 -0.2269  1.2167 -0.5124
 2962SOL    MW411616   2.213   5.251   1.837 -0.6634  0.9831 -0.1303
 2963SOL     OW11617   0.841   0.738   4.842 -0.3245  0.1082  0.2408
 2963SOL    HW211618   0.897   0.692   4.780  0.4911  1.5566 -0.1541
 2963SOL    HW311619   0.765   0.766   4.790 -0.5193 -0.2553  0.3308
 2963SOL    MW411620   0.838   0.736   4.826  0.4507  0.3557 -0.2697
 2964SOL     OW11621   3.936   0.913   4.024 -0.0844  0.3218  0.6680
 2964SOL    HW211622   3.905   0.927   3.935 -0.2023 -2.0102  0.2716
 2964SOL    HW311623   3.857   0.924   4.079 -0.3260  0.3230  0.3230
 2964SOL    MW411624   3.921   0.916   4.020 -0.1452  0.1944  0.1282
 2965SOL     OW11625   4.156   0.755   3.793  0.0793 -0.7655  0.3544
 2965SOL    HW211626   4.194   0.696   3.727  0.4869 -1.0382  0.8302
 2965SOL    HW311627   4.228   0.811   3.820 -0.1198 -0.5645  0.4753
 2965SOL    MW411628   4.170   0.754   3.787 -0.1039 -0.0306 -0.3805
 2966SOL     OW11629   4.802   3.203   3.994 -0.3338  0.2699  0.1418
 2966SOL    HW211630   4.771   3.175   3.908  0.2249  0.1231 -0.0205
 2966SOL    HW311631   4.743   3.273   4.019 -0.1763  0.6852 -0.6073
 2966SOL    MW411632   4.790   3.208   3.986 -0.3227 -0.6646 -0.1390
 2967SOL     OW11633   3.525   0.333   5.190  0.3194  0.6349 -0.1150
 2967SOL    HW211634   3.461   0.402   5.172 -0.2036  0.6282  1.5435
 2967SOL    HW311635   3.486   0.253   5.155 -0.7662  0.5782  1.1541
 2967SOL    MW411636   3.512   0.331   5.183  0.1963  0.1945  0.5429
 2968SOL     OW11637   5.929   2.925   6.325 -0.1859 -0.9326  0.0216
 2968SOL    HW211638   5.961   2.883   6.405  1.2464  1.1815  0.6471
 2968SOL    HW311639   6.000   2.983   6.298 -1.2768 -0.3960 -1.9062
 2968SOL    MW411640   5.943   2.927   6.332  0.1680  0.2164 -0.2657
 2969SOL     OW11641   2.608   2.322   1.913  0.0012  0.7072  0.7182
 2969SOL    HW211642   2.552   2.244   1.912  1.0086 -0.0347  1.1430
 2969SOL    HW311643   2.586   2.367   1.831 -0.1919 -0.3191  0.1789
 2969SOL    MW411644   2.598   2.318   1.902  0.0809 -0.2929  0.1973
 2970SOL     OW11645   2.754   4.112   0.374  0.0291 -0.3652 -0.1277
 2970SOL    HW211646   2.739   4.058   0.452 -2.2392  1.8884  1.1569
 2970SOL    HW311647   2.829   4.167   0.397  0.4111 -0.8378 -0.2239
 2970SOL    MW411648   2.762   4.112   0.388 -0.2226  0.7039  0.3960
 2971SOL     OW11649   5.303   2.499   0.613  0.0332  0.0227  0.2571
 2971SOL    HW211650   5.315   2.426   0.674  0.3378 -0.2453 -0.1192
 2971SOL    HW311651   5.288   2.458   0.528  0.5117  0.3963 -0.0146
 2971SOL    MW411652   5.303   2.484   0.610  0.4272 -0.0879  0.3200
 2972SOL     OW11653   1.959   4.330   0.869  0.9895 -0.5097 -0.5123
 2972SOL    HW211654   1.924   4.295   0.952  1.6183 -0.5297 -0.2509
 2972SOL    HW311655   1.947   4.424   0.876 -0.0837 -0.6066 -0.9258
 2972SOL    MW411656   1.953   4.338   0.881 -0.2059  0.0514 -0.4761
 2973SOL     OW11657   3.146   5.700   0.103  0.0267 -0.1533  0.5442
 2973SOL    HW211658   3.214   5.767   0.110 -0.2425  0.3071 -1.0400
 2973SOL    HW311659   3.177   5.641   0.035 -1.5079  0.5286 -0.8158
 2973SOL    MW411660   3.159   5.701   0.095  0.6866  0.4615  0.0676
 2974SOL     OW11661   5.872   0.877   2.718  0.2024 -0.2686  0.2871
 2974SOL    HW211662   5.941   0.817   2.746  2.6378  1.3308 -1.8092
 2974SOL    HW311663   5.858   0.857   2.626 -0.5124  0.9146  0.1109
 2974SOL    MW411664   5.880   0.867   2.710  0.0950 -0.1531  0.6085
 2975SOL     OW11665   3.431   5.778   1.103 -0.4499 -0.0571  0.4334
 2975SOL    HW211666   3.516   5.800   1.065 -0.3061 -0.3106  0.6040
 2975SOL    HW311667   3.450   5.760   1.195 -1.1125  2.8377  1.2663
 2975SOL    MW411668   3.445   5.779   1.110  0.9774  0.2340  0.1800
 2976SOL     OW11669   0.891   4.317   1.343  0.2502  0.6181 -0.6311
 2976SOL    HW211670   0.867   4.405   1.370  0.8006  0.1852  1.4427
 2976SOL    HW311671   0.964   4.293   1.400  1.6322 -0.3562 -2.6803
 2976SOL    MW411672   0.897   4.325   1.354 -0.3524 -0.2741  0.3017
 2977SOL     OW11673   2.850   1.386   1.160  1.2526 -0.1912  0.5978
 2977SOL    HW211674   2.769   1.388   1.212  0.6493 -0.5672 -0.2983
 2977SOL    HW311675   2.894   1.468   1.181  1.0825 -0.3839  1.7767
 2977SOL    MW411676   2.845   1.397   1.169 -0.2757  0.3629  0.4827
 2978SOL     OW11677   2.206   4.425   5.858 -0.6771  0.3668 -0.2988
 2978SOL    HW211678   2.143   4.473   5.804  0.3406  1.0103 -0.9617
 2978SOL    HW311679   2.200   4.335   5.829  0.0286  0.7477 -1.6966
 2978SOL    MW411680   2.197   4.420   5.847 -0.1389 -0.1057  0.0648
 2979SOL     OW11681   3.801   5.049   5.188  0.5552 -0.5810 -0.0382
 2979SOL    HW211682   3.833   5.119   5.245  0.0114 -0.6593  0.3767
 2979SOL    HW311683   3.806   4.971   5.242 -2.6621 -0.2330  0.9858
 2979SOL    MW411684   3.806   5.048   5.202 -0.0966 -0.0438 -0.2431
 2980SOL     OW11685   3.310   5.324   4.313 -0.3195 -0.5166  0.2410
 2980SOL    HW211686   3.364   5.322   4.391  0.1431  1.6194  0.0352
 2980SOL    HW311687   3.373   5.324   4.240 -0.7211 -1.5840 -0.1282
 2980SOL    MW411688   3.325   5.324   4.313 -0.4473 -0.6071  0.3978
 2981SOL     OW11689   3.190   0.250   1.457  0.1545 -0.4975 -0.3924
 2981SOL    HW211690   3.150   0.336   1.446  0.4594 -0.0834  1.3825
 2981SOL    HW311691   3.243   0.258   1.537  1.2916 -1.9278 -0.9546
 2981SOL    MW411692   3.192   0.262   1.466  0.0796 -0.7416  0.6551
 2982SOL     OW11693   0.987   6.067   4.553 -0.7216 -0.6505  0.2769
 2982SOL    HW211694   0.956   5.989   4.599 -0.9796 -0.1281  1.0022
 2982SOL    HW311695   1.002   6.132   4.622  1.3776 -0.6609 -0.0958
 2982SOL    MW411696   0.985   6.066   4.568  0.0901  0.4159 -0.2439
 2983SOL     OW11697   2.442   5.156   4.686 -0.2085 -0.5379 -0.3757
 2983SOL    HW211698   2.506   5.109   4.634 -0.0978 -0.5946 -0.1889
 2983SOL    HW311699   2.484   5.240   4.706  0.2264 -0.9736  0.6149
 2983SOL    MW411700   2.456   5.161   4.682  0.0345  0.5630  0.2371
 2984SOL     OW11701   6.092   5.033   3.923  0.4028  0.6514 -0.4879
 2984SOL    HW211702   6.043   4.951   3.923  0.7861  0.4223 -1.0522
 2984SOL    HW311703   6.026   5.099   3.947  0.1582  0.1545  0.2448
 2984SOL    MW411704   6.077   5.031   3.926 -0.1880  0.6471 -0.0528
 2985SOL     OW11705   6.364   4.819   3.556 -0.1755  0.8184  0.2926
 2985SOL    HW211706   6.405   4.846   3.474  0.6753  1.2345  0.8430
 2985SOL    HW311707   6.413   4.866   3.624 -0.8585  0.4709  1.0385
 2985SOL    MW411708   6.376   4.829   3.554  0.5138  0.1030 -0.4798
 2986SOL     OW11709   5.401   1.030   5.269  0.3275 -0.1383 -0.4603
 2986SOL    HW211710   5.484   1.063   5.233  0.1021  1.1638  0.1601
 2986SOL    HW311711   5.341   1.032   5.194 -0.4070  3.4788  0.0415
 2986SOL    MW411712   5.404   1.035   5.254 -0.0643 -0.2601 -0.2290
 2987SOL     OW11713   6.166   5.730   0.489  0.1582  0.1396 -0.1985
 2987SOL    HW211714   6.204   5.813   0.460 -3.6950  1.8707 -0.8117
 2987SOL    HW311715   6.137   5.688   0.409 -1.2423  0.0040  0.3597
 2987SOL    MW411716   6.167   5.736   0.475  0.0944 -0.4348  0.3169
 2988SOL     OW11717   0.908   3.168   6.317 -0.3325  0.1140 -0.6989
 2988SOL    HW211718   0.995   3.205   6.334 -0.3733  0.0329 -0.3200
 2988SOL    HW311719   0.861   3.238   6.272  0.2702 -0.2005 -1.8626
 2988SOL    MW411720   0.914   3.182   6.313  0.0773 -0.1574 -0.3422
 2989SOL     OW11721   5.555   4.575   5.307  0.3211 -0.0658 -0.5225
 2989SOL    HW211722   5.524   4.652   5.356  1.4652  0.8127 -1.1205
 2989SOL    HW311723   5.476   4.522   5.293 -0.5988  1.2677 -0.5805
 2989SOL    MW411724   5.540   4.578   5.312  0.1225 -0.5790  0.3539
 2990SOL     OW11725   5.431   0.360   2.071  0.1078  0.2465 -0.5707
 2990SOL    HW211726   5.350   0.311   2.086 -0.0521  0.9583  1.0488
 2990SOL    HW311727   5.501   0.299   2.095  0.1593 -0.6514 -2.7204
 2990SOL    MW411728   5.429   0.345   2.076 -0.8212 -0.2033  0.2924
 2991SOL     OW11729   4.885   6.098   3.229  0.3029 -0.5328 -0.6093
 2991SOL    HW211730   4.846   6.106   3.142  1.1440 -1.0213 -1.0376
 2991SOL    HW311731   4.814   6.121   3.289 -1.0722 -2.6986 -1.2926
 2991SOL    MW411732   4.871   6.102   3.225 -0.0348 -0.2912  0.0262
 2992SOL     OW11733   0.694   0.794   0.907 -0.5989  0.0303  0.2412
 2992SOL    HW211734   0.688   0.871   0.964 -0.9502  0.2389 -0.0730
 2992SOL    HW311735   0.712   0.830   0.821 -1.1891 -0.2127  0.0138
 2992SOL    MW411736   0.695   0.809   0.903  0.0660  0.7282  0.3449
 2993SOL     OW11737   4.842   6.007   5.559  0.2897 -0.3170  0.3282
 2993SOL    HW211738   4.854   6.078   5.623 -0.2281 -0.6440  0.7983
 2993SOL    HW311739   4.907   6.025   5.491 -1.3854  2.0152 -0.8225
 2993SOL    MW411740   4.852   6.019   5.559  0.0758  0.2272 -0.5930
 2994SOL     OW11741   2.536   3.133   0.518 -0.1112  0.7675  0.0367
 2994SOL    HW211742   2.577   3.054   0.483  0.5664  1.5837 -1.0905
 2994SOL    HW311743   2.489   3.104   0.596 -1.9620 -1.2320 -1.6787
 2994SOL    MW411744   2.535   3.119   0.524 -0.0680 -0.0749  0.4802
 2995SOL     OW11745   0.177   5.277   4.299 -0.2089 -0.1632  0.2316
 2995SOL    HW211746   0.234   5.216   4.347  0.6194 -0.1037 -0.6535
 2995SOL    HW311747   0.236   5.345   4.268 -0.8668  0.2139 -0.2034
 2995SOL    MW411748   0.192   5.278   4.301  0.1140 -0.1396 -0.3041
 2996SOL     OW11749   3.371   5.870   0.127 -0.2645 -0.1168  0.0942
 2996SOL    HW211750   3.358   5.964   0.127 -0.5333 -0.1520  0.3702
 2996SOL    HW311751   3.425   5.853   0.049 -1.3469  0.1133 -0.7351
 2996SOL    MW411752   3.376   5.880   0.116 -0.5782 -0.2395  0.1422
 2997SOL     OW11753   5.756   5.271   6.361 -0.0647 -0.2321 -0.2104
 2997SOL    HW211754   5.759   5.182   6.395 -0.4652 -1.0744 -2.2121
 2997SOL    HW311755   5.843   5.306   6.377  0.0162 -0.8570  0.8457
 2997SOL    MW411756   5.768   5.264   6.368 -0.0664  0.4421  0.0462
 2998SOL     OW11757   0.571   2.885   4.566 -0.3739 -0.0046  0.3813
 2998SOL    HW211758   0.591   2.867   4.474 -1.7834  0.6035 -0.0691
 2998SOL    HW311759   0.635   2.833   4.615  2.5280  2.0249 -0.8926
 2998SOL    MW411760   0.582   2.876   4.561 -0.8945 -0.1200 -0.8955
 2999SOL     OW11761   0.165   3.184   5.470 -0.8812 -0.0273  0.0735
 2999SOL    HW211762   0.183   3.272   5.504  2.2634  0.2993 -1.9852
 2999SOL    HW311763   0.102   3.197   5.400 -0.1050  0.6797 -0.5050
 2999SOL    MW411764   0.159   3.197   5.466  0.2850 -0.7948 -0.1477
 3000SOL     OW11765   1.190   5.505   6.274 -0.1557 -0.1871  0.1558
 3000SOL    HW211766   1.125   5.465   6.216 -0.1410 -2.6529  1.6759
 3000SOL    HW311767   1.140   5.565   6.328 -0.7813 -0.4392 -0.1306
 3000SOL    MW411768   1.175   5.507   6.273 -0.0925  0.7252  0.1376
 3001SOL     OW11769   4.608   4.373   6.218  0.3592 -0.7613 -0.0863
 3001SOL    HW211770   4.636   4.416   6.137  1.8471 -2.4359 -0.5226
 3001SOL    HW311771   4.688   4.369   6.271  0.1098 -2.2917  0.2149
 3001SOL    MW411772   4.622   4.378   6.214 -0.0377 -0.0084  0.4624
 3002SOL     OW11773   6.363   1.377   5.716  0.2563  0.5640 -0.2643
 3002SOL    HW211774   6.311   1.439   5.665 -3.2352 -1.2618  0.7437
 3002SOL    HW311775   6.381   1.423   5.798 -0.0487  1.1376 -0.5116
 3002SOL    MW411776   6.359   1.391   5.720 -0.1415 -0.2046 -0.4124
 3003SOL     OW11777   2.670   5.184   3.261  0.5030 -0.2627 -0.4016
 3003SOL    HW211778   2.734   5.172   3.331  0.6878  2.1137 -0.1019
 3003SOL    HW311779   2.715   5.238   3.196 -0.6925  0.1669 -0.8971
 3003SOL    MW411780   2.684   5.189   3.262 -0.5319 -0.7848 -0.5997
 3004SOL     OW11781   0.337   1.670   0.217  0.4081  0.1764 -0.4502
 3004SOL    HW211782   0.352   1.580   0.189  1.1432  0.1462 -0.0008
 3004SOL    HW311783   0.420   1.715   0.198  0.3752  0.5311  0.1936
 3004SOL    MW411784   0.350   1.664   0.211  0.3884  0.0255  0.1526
 3005SOL     OW11785   2.600   5.177   5.406 -0.4906 -0.4009  0.1766
 3005SOL    HW211786   2.695   5.175   5.410 -0.3209  1.3895 -1.5861
 3005SOL    HW311787   2.580   5.173   5.312 -2.1510 -0.4835  0.5095
 3005SOL    MW411788   2.610   5.176   5.394  0.2334  0.8337  0.8410
 3006SOL     OW11789   3.226   5.387   0.673 -0.6914 -0.1939  0.3139
 3006SOL    HW211790   3.152   5.352   0.625 -1.2654 -1.6285  2.1301
 3006SOL    HW311791   3.188   5.422   0.754  0.4837  0.0297  0.7969
 3006SOL    MW411792   3.212   5.387   0.677 -0.2102 -0.1979  0.6851
 3007SOL     OW11793   2.048   2.833   0.461  0.6325  0.0217  0.4038
 3007SOL    HW211794   1.965   2.876   0.479  0.9305  0.5390  0.5410
 3007SOL    HW311795   2.022   2.747   0.426  0.0292  0.5447 -0.4804
 3007SOL    MW411796   2.033   2.827   0.459 -0.4410 -0.6080  0.7063
 3008SOL     OW11797   1.984   5.551   3.847 -0.0534  0.1204 -0.6889
 3008SOL    HW211798   1.896   5.540   3.884 -1.0734  2.8730 -2.0299
 3008SOL    HW311799   1.978   5.509   3.760  0.4207 -0.8918 -0.2476
 3008SOL    MW411800   1.971   5.544   3.840  0.2081  0.3512  1.0288
 3009SOL     OW11801   6.301   0.278   4.673 -0.3829 -0.5009  0.3801
 3009SOL    HW211802   6.367   0.215   4.700 -1.6849 -1.8061  0.6763
 3009SOL    HW311803   6.225   0.257   4.728 -1.1422  0.7314 -0.1671
 3009SOL    MW411804   6.299   0.267   4.684  0.2867 -0.8645  0.1255
 3010SOL     OW11805   2.780   1.245   0.745  0.0345  0.1791  0.6091
 3010SOL    HW211806   2.826   1.245   0.661 -2.2446 -1.8512 -0.7678
 3010SOL    HW311807   2.823   1.176   0.795  1.1909  1.1810  1.0643
 3010SOL    MW411808   2.792   1.236   0.740  0.5809  0.2755 -0.2359
 3011SOL     OW11809   6.284   5.831   4.815  0.5280  0.1926  0.0233
 3011SOL    HW211810   6.335   5.847   4.736 -1.2700  1.8259 -0.9117
 3011SOL    HW311811   6.228   5.909   4.823 -1.1858 -1.1033  1.4208
 3011SOL    MW411812   6.283   5.844   4.805 -0.3634  0.7418 -0.2012
 3012SOL     OW11813   3.486   1.559   0.806  0.3888  0.5119 -0.1292
 3012SOL    HW211814   3.491   1.530   0.897 -0.6229  1.8953  0.3923
 3012SOL    HW311815   3.574   1.591   0.786  0.6455  0.1031  0.3173
 3012SOL    MW411816   3.498   1.559   0.815  0.1200 -0.6224  0.1177
 3013SOL     OW11817   1.635   2.222   1.832  0.0553  0.0857 -0.1015
 3013SOL    HW211818   1.696   2.286   1.868 -0.3148 -0.1338  0.9724
 3013SOL    HW311819   1.689   2.147   1.810  0.5192  0.8189 -1.5522
 3013SOL    MW411820   1.650   2.221   1.834  0.0120 -0.1809 -0.6975
 3014SOL     OW11821   0.872   5.979   4.040  0.2170 -0.1399  0.2108
 3014SOL    HW211822   0.913   6.064   4.023 -0.5040  0.1434 -0.1221
 3014SOL    HW311823   0.915   5.919   3.980 -0.8271  0.4375 -1.1531
 3014SOL    MW411824   0.883   5.982   4.030 -0.1992  0.0609 -0.4746
 3015SOL     OW11825   3.991   2.586   5.250  0.5811  0.3622  0.0451
 3015SOL    HW211826   3.984   2.608   5.343  0.7938 -0.1869  0.2004
 3015SOL    HW311827   4.057   2.645   5.216  0.7268  0.3581  0.3167
 3015SOL    MW411828   3.998   2.596   5.258 -0.1107 -0.4894  0.5698
 3016SOL     OW11829   2.824   4.536   5.527 -0.7054 -0.0531 -0.5945
 3016SOL    HW211830   2.778   4.577   5.453  0.0433 -1.1387 -1.7094
 3016SOL    HW311831   2.824   4.442   5.506 -1.7379 -0.6009  1.5192
 3016SOL    MW411832   2.818   4.529   5.514 -0.1685 -0.3236 -0.8215
 3017SOL     OW11833   1.123   2.487   4.577 -0.2797 -0.0442  0.7878
 3017SOL    HW211834   1.205   2.488   4.627  1.8262 -0.7861 -2.3845
 3017SOL    HW311835   1.087   2.400   4.591 -0.5438  0.2486  2.1107
 3017SOL    MW411836   1.129   2.476   4.586 -0.7800  0.2669 -0.3138
 3018SOL     OW11837   1.326   2.211   5.285 -0.3388 -0.6457  0.8888
 3018SOL    HW211838   1.295   2.131   5.242 -0.0666 -0.8309  1.0348
 3018SOL    HW311839   1.416   2.190   5.311 -0.3835 -0.4080  1.2253
 3018SOL    MW411840   1.334   2.197   5.282  0.3595  0.0425 -0.0873
 3019SOL     OW11841   1.134   4.157   5.185  0.0320  0.6346 -0.3063
 3019SOL    HW211842   1.109   4.104   5.110  0.6526 -1.1514  0.6957
 3019SOL    HW311843   1.052   4.176   5.230 -0.3079  1.4743 -1.2406
 3019SOL    MW411844   1.120   4.153   5.181 -0.4313  0.0734 -0.3436
 3020SOL     OW11845   1.182   4.566   0.469 -0.4533  0.0953  0.3015
 3020SOL    HW211846   1.120   4.635   0.492 -0.3746  0.6527 -1.0700
 3020SOL    HW311847   1.157   4.492   0.525 -2.3004  0.3420 -0.1195
 3020SOL    MW411848   1.170   4.565   0.479 -0.3476  0.4998 -0.8464
 3021SOL     OW11849   0.693   3.638   0.734 -0.2715 -0.0231  0.3084
 3021SOL    HW211850   0.706   3.713   0.676 -2.1793  0.0305 -0.1229
 3021SOL    HW311851   0.720   3.562   0.683  0.0021  0.2069  0.1105
 3021SOL    MW411852   0.698   3.638   0.720  0.1307 -0.0256 -0.1259
 3022SOL     OW11853   0.784   4.410   1.595  0.0748 -0.2401  1.0177
 3022SOL    HW211854   0.802   4.331   1.647  0.5263  0.3920  1.8489
 3022SOL    HW311855   0.822   4.481   1.646 -1.6202  0.7091  1.0128
 3022SOL    MW411856   0.792   4.409   1.609  0.3595  0.5669  0.5313
 3023SOL     OW11857   3.253   5.205   1.441  0.6354 -0.8965 -0.5007
 3023SOL    HW211858   3.319   5.263   1.402 -0.1185  0.2865 -0.0702
 3023SOL    HW311859   3.263   5.217   1.535 -1.6836  1.1567 -0.3992
 3023SOL    MW411860   3.263   5.214   1.448  0.0229  0.1831  0.4584
 3024SOL     OW11861   1.373   1.302   3.926  0.2634  0.0355 -0.0965
 3024SOL    HW211862   1.373   1.391   3.963  1.0770 -0.5004  1.2671
 3024SOL    HW311863   1.372   1.316   3.831 -1.6884  1.4634  0.0800
 3024SOL    MW411864   1.373   1.316   3.918 -0.4831 -0.8100  0.2920
 3025SOL     OW11865   2.043   0.151   4.769  0.1292  0.5238  0.2051
 3025SOL    HW211866   1.960   0.126   4.808 -0.7723  1.4208 -1.0610
 3025SOL    HW311867   2.073   0.225   4.822  1.1908 -1.0819  1.9397
 3025SOL    MW411868   2.036   0.157   4.781  0.1178  0.0869  1.1420
 3026SOL     OW11869   3.999   3.646   1.286  0.3719 -0.2745 -0.4554
 3026SOL    HW211870   4.020   3.644   1.193  0.5694  0.4721 -0.4294
 3026SOL    HW311871   3.903   3.639   1.289  0.2695  0.9065 -0.7702
 3026SOL    MW411872   3.989   3.645   1.274  0.1860 -0.5981 -0.2614
 3027SOL     OW11873   1.432   1.456   1.664  0.0854  0.2658 -0.0006
 3027SOL    HW211874   1.517   1.460   1.708  0.1235  1.1474 -0.1369
 3027SOL    HW311875   1.453   1.436   1.573  0.2737  1.7802 -0.3266
 3027SOL    MW411876   1.446   1.454   1.658  0.8446  0.2214  0.4178
 3028SOL     OW11877   3.931   3.879   5.080 -0.0764  0.3595  0.0004
 3028SOL    HW211878   3.871   3.910   5.012  1.0626 -0.2670 -1.3404
 3028SOL    HW311879   4.005   3.842   5.032  1.1719  0.6628  1.5968
 3028SOL    MW411880   3.933   3.878   5.065  0.0713 -0.1855  0.1989
 3029SOL     OW11881   5.945   0.856   3.664 -0.5513 -0.0180 -0.1578
 3029SOL    HW211882   5.997   0.885   3.739 -1.2940 -0.2182  0.4493
 3029SOL    HW311883   5.855   0.875   3.689 -1.1574 -3.1933  0.4858
 3029SOL    MW411884   5.940   0.862   3.677 -0.2411  0.5860 -0.5915
 3030SOL     OW11885   4.769   1.045   4.218  0.2876 -0.2170  0.3163
 3030SOL    HW211886   4.713   1.119   4.242  2.3238  1.0930  1.4099
 3030SOL    HW311887   4.809   1.072   4.135  1.8882  0.5171  1.2633
 3030SOL    MW411888   4.767   1.059   4.210 -0.1126 -0.2735  0.0367
 3031SOL     OW11889   1.259   3.582   0.774 -0.0196 -0.1423 -0.1983
 3031SOL    HW211890   1.275   3.649   0.840  4.7122 -1.8221  0.8046
 3031SOL    HW311891   1.205   3.517   0.818  1.8303 -0.5292  1.6738
 3031SOL    MW411892   1.254   3.582   0.788  0.1547 -0.0960  0.1461
 3032SOL     OW11893   3.880   1.409   6.202  0.7152  0.1338  0.6140
 3032SOL    HW211894   3.824   1.482   6.177  2.4910  1.6744  0.9501
 3032SOL    HW311895   3.845   1.334   6.153 -0.7660  1.3245 -0.2248
 3032SOL    MW411896   3.868   1.409   6.192  0.2103  0.5737  0.2726
 3033SOL     OW11897   2.010   5.227   3.957 -0.3290 -0.6496  0.0452
 3033SOL    HW211898   2.096   5.192   3.979 -0.3021  0.1477  1.2971
 3033SOL    HW311899   2.018   5.321   3.971 -1.1733 -0.4666 -0.6324
 3033SOL    MW411900   2.022   5.235   3.962  0.2486  0.1578  0.5495
 3034SOL     OW11901   3.896   6.388   3.820 -0.0036 -0.4296  0.2063
 3034SOL    HW211902   3.967   6.330   3.846  0.8503  1.1699  1.5884
 3034SOL    HW311903   3.927   6.476   3.841 -1.6469  0.4725 -0.9144
 3034SOL    MW411904   3.909   6.392   3.826 -0.2123 -0.2011 -0.0429
 3035SOL     OW11905   2.714   3.503   0.761  0.2096 -0.0443 -0.4570
 3035SOL    HW211906   2.799   3.478   0.723  0.8116  0.0634  0.7858
 3035SOL    HW311907   2.656   3.511   0.685  0.7290 -2.2662 -1.1665
 3035SOL    MW411908   2.718   3.501   0.746 -0.0603  0.2597 -0.7928
 3036SOL     OW11909   1.425   5.069   5.396 -0.1933  0.0980 -0.1859
 3036SOL    HW211910   1.354   5.134   5.395 -0.2618  0.0264 -0.0683
 3036SOL    HW311911   1.430   5.038   5.306 -0.9018 -0.5302 -0.0224
 3036SOL    MW411912   1.416   5.073   5.384 -0.0027 -0.7576 -0.4879
 3037SOL     OW11913   5.088   5.864   2.212  0.2014  0.1905 -0.0832
 3037SOL    HW211914   5.017   5.925   2.193 -0.9690 -1.0386  0.1686
 3037SOL    HW311915   5.162   5.919   2.235 -0.5307  1.5238 -0.8085
 3037SOL    MW411916   5.088   5.879   2.212 -0.5601 -0.1916  0.1398
 3038SOL     OW11917   2.396   0.323   4.254  0.2786  1.1007 -0.0741
 3038SOL    HW211918   2.428   0.265   4.323 -2.5685 -0.1178  0.3669
 3038SOL    HW311919   2.367   0.402   4.300  2.2905  2.1361 -0.4543
 3038SOL    MW411920   2.396   0.326   4.269  0.0003 -0.1564 -0.4150
 3039SOL     OW11921   1.581   2.167   5.671  0.2573 -0.1769  0.2158
 3039SOL    HW211922   1.589   2.230   5.599  0.2539  0.5599  0.8451
 3039SOL    HW311923   1.557   2.085   5.628 -2.6030  0.8590 -0.4543
 3039SOL    MW411924   1.579   2.165   5.656  0.0081 -0.2242  0.4933
 3040SOL     OW11925   3.342   2.470   0.722 -0.1387 -0.7819  0.2670
 3040SOL    HW211926   3.320   2.386   0.761  2.1365 -2.2424 -1.3315
 3040SOL    HW311927   3.355   2.529   0.796 -0.6774 -2.1228  1.4611
 3040SOL    MW411928   3.341   2.467   0.737 -0.0231 -0.3996 -0.1793
 3041SOL     OW11929   3.244   4.387   1.562  0.4098 -0.1911 -0.2098
 3041SOL    HW211930   3.238   4.435   1.645  1.8386 -2.1990  1.1311
 3041SOL    HW311931   3.158   4.399   1.522 -1.0039 -0.7065  2.4632
 3041SOL    MW411932   3.232   4.395   1.567  0.3616  0.7685 -0.1066
 3042SOL     OW11933   4.203   4.419   5.994 -0.1593  0.2137 -0.0978
 3042SOL    HW211934   4.290   4.447   6.021 -0.5805  0.9804  0.5217
 3042SOL    HW311935   4.204   4.324   6.004  0.3695  0.2838  0.6492
 3042SOL    MW411936   4.215   4.411   5.999  0.3077  0.3779 -0.1821
 3043SOL     OW11937   5.494   5.010   2.921 -0.1444  0.0342 -0.0183
 3043SOL    HW211938   5.502   5.062   3.001 -1.5873  0.1336  0.1018
 3043SOL    HW311939   5.478   4.921   2.953  0.1746 -0.0943 -0.2102
 3043SOL    MW411940   5.493   5.005   2.936 -0.2763 -0.0295  0.2456
 3044SOL     OW11941   5.497   3.318   2.690  0.2126 -0.6376  0.8876
 3044SOL    HW211942   5.518   3.247   2.630  1.9352  0.8550 -0.4292
 3044SOL    HW311943   5.580   3.338   2.733 -0.5701 -0.3698  2.3267
 3044SOL    MW411944   5.511   3.312   2.688 -0.0107  0.2080 -0.0106
 3045SOL     OW11945   4.038   2.255   0.615 -0.2284 -0.1647 -0.0248
 3045SOL    HW211946   4.093   2.185   0.579 -0.0079 -0.0383  0.0638
 3045SOL    HW311947   4.051   2.249   0.710 -1.2109 -0.8328  0.0810
 3045SOL    MW411948   4.047   2.245   0.623 -0.8997 -0.0310 -0.0307
 3046SOL     OW11949   5.797   2.630   6.132  0.1975 -0.4028 -0.5428
 3046SOL    HW211950   5.749   2.553   6.101 -2.1193  0.2187  1.2636
 3046SOL    HW311951   5.811   2.614   6.225  0.0212  1.1871 -0.2143
 3046SOL    MW411952   5.793   2.618   6.140  0.0131  0.6897 -0.3188
 3047SOL     OW11953   3.165   4.675   4.504  0.0273  0.5475 -0.5002
 3047SOL    HW211954   3.214   4.710   4.579  1.0423 -1.5152 -0.1182
 3047SOL    HW311955   3.190   4.583   4.500 -3.1633 -0.4283 -0.8832
 3047SOL    MW411956   3.175   4.668   4.513  0.1301  0.4054  0.6922
 3048SOL     OW11957   1.071   0.797   1.106 -0.0273  0.8493  0.2686
 3048SOL    HW211958   1.088   0.857   1.033  1.6938  0.5942  0.3990
 3048SOL    HW311959   1.124   0.720   1.086 -0.1744  0.4367  1.3796
 3048SOL    MW411960   1.081   0.795   1.094 -0.2327  0.1282  0.4662
 3049SOL     OW11961   0.677   3.153   0.500 -0.0644  0.5347  0.2736
 3049SOL    HW211962   0.736   3.227   0.484 -0.3375  0.6259 -0.3517
 3049SOL    HW311963   0.680   3.140   0.595 -0.6012  1.8465  0.4944
 3049SOL    MW411964   0.685   3.161   0.510 -0.1845 -0.0228  0.6324
 3050SOL     OW11965   6.194   5.718   3.529  0.7679  0.6519  0.0620
 3050SOL    HW211966   6.168   5.800   3.487  1.7796  0.6471 -0.6213
 3050SOL    HW311967   6.290   5.715   3.520  0.7683 -0.5347  0.1972
 3050SOL    MW411968   6.203   5.728   3.522  0.0943 -0.2478 -0.1245
 3051SOL     OW11969   5.132   3.498   2.138 -0.3109  0.0646 -0.7745
 3051SOL    HW211970   5.077   3.527   2.211  0.0845  1.4991 -1.0283
 3051SOL    HW311971   5.140   3.403   2.152 -1.8568 -0.0037 -0.0801
 3051SOL    MW411972   5.126   3.489   2.150 -0.2090  0.1839  0.3044
 3052SOL     OW11973   3.525   5.476   5.210 -0.6545 -0.0576  0.2574
 3052SOL    HW211974   3.534   5.570   5.196 -0.0341 -0.2033 -0.3492
 3052SOL    HW311975   3.434   5.458   5.189 -0.1286 -0.0369 -2.3810
 3052SOL    MW411976   3.514   5.486   5.205 -0.2609 -0.5046  0.4543
 3053SOL     OW11977   5.526   3.634   4.587  0.1113 -0.1434  0.1116
 3053SOL    HW211978   5.554   3.545   4.565 -0.6366 -0.4596  0.4055
 3053SOL    HW311979   5.430   3.630   4.585  0.0675  0.7953 -0.4222
 3053SOL    MW411980   5.517   3.621   4.583 -0.2392 -0.3590  0.3296
 3054SOL     OW11981   4.719   0.983   6.337  0.0076  0.5183  0.0183
 3054SOL    HW211982   4.757   1.019   6.257 -0.0047  0.0709 -0.1929
 3054SOL    HW311983   4.649   0.925   6.306 -0.7136  1.1666  0.3885
 3054SOL    MW411984   4.714   0.980   6.322 -0.5200 -0.2313  0.8281
 3055SOL     OW11985   1.454   5.456   2.984 -0.0341  0.5384 -0.0116
 3055SOL    HW211986   1.492   5.424   2.902  2.2539 -0.3741  1.3055
 3055SOL    HW311987   1.423   5.377   3.028 -0.8123  0.9662  0.2235
 3055SOL    MW411988   1.455   5.441   2.979  0.1005  0.3435 -0.0626
 3056SOL     OW11989   0.298   5.001   6.283  0.4859  0.6703 -0.1347
 3056SOL    HW211990   0.223   5.042   6.240  0.4696  0.9085  0.1199
 3056SOL    HW311991   0.373   5.021   6.227  0.6050  1.6962  0.3813
 3056SOL    MW411992   0.298   5.009   6.270 -0.1822  0.0158 -0.0728
 3057SOL     OW11993   2.107   4.745   0.110 -0.3828  0.0566  0.1613
 3057SOL    HW211994   2.086   4.716   0.021  0.5931  1.3976 -0.5330
 3057SOL    HW311995   2.174   4.812   0.099 -1.6440  1.7006  1.7617
 3057SOL    MW411996   2.113   4.750   0.097 -0.0110 -0.2833  0.5143
 3058SOL     OW11997   4.176   5.538   1.193  0.2197  0.1160  0.4159
 3058SOL    HW211998   4.100   5.523   1.249 -0.1414  0.5591  0.0505
 3058SOL    HW311999   4.160   5.624   1.153  0.0693 -0.5510 -1.0001
 3058SOL    MW412000   4.164   5.548   1.195 -0.1548 -0.4354  0.1956
 3059SOL     OW12001   3.744   3.543   6.172  0.4024  0.3021  0.1305
 3059SOL    HW212002   3.703   3.547   6.258  1.8911  0.8837  0.8608
 3059SOL    HW312003   3.673   3.521   6.112 -0.8578  0.8181  1.3738
 3059SOL    MW412004   3.729   3.540   6.176 -0.2640  0.3855 -0.1057
 3060SOL     OW12005   2.273   3.208   6.032 -0.0377  0.5959  0.4391
 3060SOL    HW212006   2.332   3.146   6.076 -0.7163  0.1411  0.7243
 3060SOL    HW312007   2.204   3.224   6.095 -0.2199  1.1311  0.1073
 3060SOL    MW412008   2.272   3.202   6.046  0.5469  0.7743  0.0466
 3061SOL     OW12009   0.609   0.656   3.647 -0.3648  0.5721  0.4177
 3061SOL    HW212010   0.645   0.573   3.678 -1.0312  0.0075 -0.2707
 3061SOL    HW312011   0.515   0.640   3.638 -0.4636  1.3119  0.0170
 3061SOL    MW412012   0.601   0.643   3.650 -0.2128  0.0527 -0.1673
 3062SOL     OW12013   0.605   2.427   1.686  0.1931  0.1472  0.5168
 3062SOL    HW212014   0.625   2.484   1.760 -1.7425 -1.0414  2.0552
 3062SOL    HW312015   0.632   2.340   1.715 -0.4926 -0.3300 -0.2324
 3062SOL    MW412016   0.611   2.423   1.700 -0.1708 -0.6037  0.0370
 3063SOL     OW12017   0.753   0.436   0.648  0.5230  0.3613  0.6168
 3063SOL    HW212018   0.725   0.493   0.576 -0.4465 -0.6570  0.1680
 3063SOL    HW312019   0.802   0.366   0.606 -1.2371 -1.0122  0.7302
 3063SOL    MW412020   0.756   0.434   0.633 -0.0509 -0.7172 -0.3735
 3064SOL     OW12021   0.463   2.166   2.462 -0.0464 -0.0823  0.6792
 3064SOL    HW212022   0.549   2.206   2.449 -0.6623  1.1348  0.0770
 3064SOL    HW312023   0.432   2.201   2.545 -0.8596  1.2971 -0.1546
 3064SOL    MW412024   0.470   2.176   2.471 -0.6200 -0.3569  0.0883
 3065SOL     OW12025   1.513   0.993   0.442 -0.2275 -0.4765 -0.0110
 3065SOL    HW212026   1.441   0.988   0.378 -0.4457  0.6088  0.1344
 3065SOL    HW312027   1.560   1.073   0.419  0.7064 -0.9655  0.1546
 3065SOL    MW412028   1.509   1.003   0.430 -0.2321  0.3946 -0.1281
 3066SOL     OW12029   3.829   4.063   5.509 -0.2819 -0.3018  0.4654
 3066SOL    HW212030   3.846   3.997   5.442  1.2709  1.8059 -1.3872
 3066SOL    HW312031   3.734   4.073   5.511 -0.4412 -1.5751 -0.2294
 3066SOL    MW412032   3.819   4.056   5.500 -0.0651  0.0957 -0.4779
 3067SOL     OW12033   5.542   3.838   4.233  0.5617 -0.5742 -0.1094
 3067SOL    HW212034   5.513   3.924   4.264  0.6638 -0.8567  0.8174
 3067SOL    HW312035   5.632   3.831   4.264  0.7992 -0.7219 -0.8146
 3067SOL    MW412036   5.550   3.848   4.241 -0.1262 -0.6056 -0.1025
 3068SOL     OW12037   3.342   1.469   5.703  0.3271 -0.1975 -0.2664
 3068SOL    HW212038   3.429   1.428   5.695  0.8432  1.0610 -1.8081
 3068SOL    HW312039   3.280   1.398   5.686  1.1431 -0.6495 -1.4714
 3068SOL    MW412040   3.346   1.454   5.700  0.5713 -0.5807  0.3629
 3069SOL     OW12041   1.019   0.131   5.489 -0.0567 -0.2484 -0.8562
 3069SOL    HW212042   1.055   0.065   5.548  0.2316 -0.5567 -1.3683
 3069SOL    HW312043   1.063   0.212   5.513  0.6146 -0.5239 -1.1454
 3069SOL    MW412044   1.029   0.133   5.500 -0.3787  0.3727  0.2901
 3070SOL     OW12045   1.965   6.372   0.166 -0.3035 -0.0978  0.4414
 3070SOL    HW212046   2.050   6.406   0.137  0.1611 -0.0869  1.7476
 3070SOL    HW312047   1.951   6.294   0.112 -0.1734  0.7114 -0.8055
 3070SOL    MW412048   1.974   6.367   0.155  0.1743 -0.6169  0.7225
 3071SOL     OW12049   4.947   1.743   6.020 -0.4808  0.2667  0.2448
 3071SOL    HW212050   4.965   1.836   6.011 -0.5429  0.0931 -2.4594
 3071SOL    HW312051   4.885   1.723   5.950  1.2712 -2.1987 -0.7453
 3071SOL    MW412052   4.941   1.752   6.010  0.1386  0.4489  0.2969
 3072SOL     OW12053   3.324   1.908   4.903 -0.0664  1.1130 -0.1887
 3072SOL    HW212054   3.255   1.907   4.970  0.5541 -0.7279  0.4839
 3072SOL    HW312055   3.277   1.921   4.821 -1.0177  1.7256  0.4328
 3072SOL    MW412056   3.309   1.909   4.901 -0.2731  0.0890 -0.3269
 3073SOL     OW12057   2.544   6.011   6.100 -0.1540  0.0449 -0.2958
 3073SOL    HW212058   2.517   6.050   6.017 -0.2224 -0.6799 -0.6172
 3073SOL    HW312059   2.602   5.940   6.075 -0.1008 -0.1165  0.2831
 3073SOL    MW412060   2.548   6.007   6.086  0.5161 -0.2199  0.1965
 3074SOL     OW12061   4.696   3.924   5.879  0.1974  0.3172  0.5059
 3074SOL    HW212062   4.659   3.865   5.944 -0.3965  0.0286 -0.0731
 3074SOL    HW312063   4.729   3.867   5.810 -1.5842  0.6336 -0.7010
 3074SOL    MW412064   4.695   3.909   5.878  0.4440  0.1293  0.2515
 3075SOL     OW12065   5.600   3.879   0.407  0.2125 -0.0461 -0.2009
 3075SOL    HW212066   5.683   3.919   0.432  0.4457 -0.6954  0.1012
 3075SOL    HW312067   5.624   3.819   0.336  0.7363 -3.0646  2.2787
 3075SOL    MW412068   5.614   3.876   0.401 -0.6183 -0.6109 -1.2180
 3076SOL     OW12069   0.133   1.554   5.548  0.1441 -0.5749 -0.1497
 3076SOL    HW212070   0.216   1.596   5.522 -0.4453  1.1549  0.6420
 3076SOL    HW312071   0.151   1.518   5.635 -0.7092  2.4890  1.4372
 3076SOL    MW412072   0.147   1.555   5.556 -0.0939  0.2651  0.6356
 3077SOL     OW12073   3.036   1.001   0.086 -0.4112 -0.0021 -0.2715
 3077SOL    HW212074   3.126   1.016   0.054 -0.6602  2.7669  0.0904
 3077SOL    HW312075   3.044   1.004   0.181 -0.2111 -4.9240  0.1475
 3077SOL    MW412076   3.049   1.003   0.094 -0.2062  0.0617 -0.3265
 3078SOL     OW12077   1.712   5.519   3.122 -0.2237 -0.1487  0.0274
 3078SOL    HW212078   1.634   5.505   3.068 -0.8010 -0.3890  0.9108
 3078SOL    HW312079   1.722   5.438   3.172 -0.8562  0.7711  1.7277
 3078SOL    MW412080   1.703   5.507   3.122  0.0211  0.1872 -0.3919
 3079SOL     OW12081   0.748   2.793   5.695 -0.5924 -0.8800 -0.2046
 3079SOL    HW212082   0.807   2.725   5.726  0.3506  0.1283  0.2944
 3079SOL    HW312083   0.760   2.795   5.600  2.0907  0.9493  0.0813
 3079SOL    MW412084   0.757   2.784   5.687  0.4226  0.2813 -0.0006
 3080SOL     OW12085   0.163   4.980   4.147 -0.0529 -0.1892  0.0173
 3080SOL    HW212086   0.166   4.999   4.241 -1.1565  1.5454 -0.2529
 3080SOL    HW312087   0.086   5.028   4.116  1.2084  0.5711 -2.0594
 3080SOL    MW412088   0.153   4.989   4.156 -0.0256 -0.3682 -0.2335
 3081SOL     OW12089   0.695   1.737   1.418 -0.4299  0.6230 -0.3884
 3081SOL    HW212090   0.697   1.706   1.328 -2.8146  0.5086 -0.4839
 3081SOL    HW312091   0.772   1.699   1.459 -0.1968 -0.6925 -1.9524
 3081SOL    MW412092   0.705   1.728   1.411 -0.2564  0.1233 -0.0246
 3082SOL     OW12093   0.296   3.365   5.669 -0.4410  0.3802 -0.1889
 3082SOL    HW212094   0.244   3.324   5.739 -1.8756  1.3746 -0.6156
 3082SOL    HW312095   0.387   3.350   5.695 -0.9258 -0.5829  1.1004
 3082SOL    MW412096   0.301   3.357   5.682  0.6314  0.2029  0.3490
 3083SOL     OW12097   5.080   1.411   6.150 -0.8257  0.3941  0.1972
 3083SOL    HW212098   5.165   1.436   6.184 -1.4899 -0.2571  2.5271
 3083SOL    HW312099   5.021   1.480   6.180 -1.7114 -1.0217  1.8939
 3083SOL    MW412100   5.083   1.423   6.159  0.4780 -0.0282 -0.0100
 3084SOL     OW12101   1.106   1.530   2.194  0.2011 -0.3014 -0.0360
 3084SOL    HW212102   1.163   1.587   2.142  0.2907  0.2124  0.6225
 3084SOL    HW312103   1.076   1.585   2.266  0.3531 -1.1124  0.6536
 3084SOL    MW412104   1.109   1.545   2.196  0.0079 -0.0620 -0.4097
 3085SOL     OW12105   0.168   1.356   5.062 -0.6174  0.2687  0.5008
 3085SOL    HW212106   0.119   1.310   4.994 -0.5483  0.8009  0.0854
 3085SOL    HW312107   0.101   1.395   5.118 -0.6811 -0.6528  1.0834
 3085SOL    MW412108   0.153   1.355   5.060 -0.5264 -0.4324  0.1037
 3086SOL     OW12109   4.805   2.080   3.528 -0.0681  0.6880  0.5153
 3086SOL    HW212110   4.879   2.020   3.514 -0.2867  0.5510 -0.0374
 3086SOL    HW312111   4.840   2.166   3.504  0.1467  0.7444  1.0037
 3086SOL    MW412112   4.820   2.084   3.523  0.1513  0.3296  0.0707
 3087SOL     OW12113   5.380   3.579   6.170 -0.6074 -0.4464  0.5351
 3087SOL    HW212114   5.447   3.638   6.206  0.3542 -0.2344 -1.4012
 3087SOL    HW312115   5.299   3.631   6.172 -0.4975 -0.3007  1.9074
 3087SOL    MW412116   5.378   3.594   6.175  0.0778  0.2486  0.1173
 3088SOL     OW12117   1.698   4.396   2.290  0.4772 -0.0231  0.2740
 3088SOL    HW212118   1.687   4.456   2.216  1.6193  0.4620  0.4925
 3088SOL    HW312119   1.644   4.321   2.266  0.7830  0.1399 -1.0437
 3088SOL    MW412120   1.689   4.394   2.277  0.5688  0.0734  0.1141
 3089SOL     OW12121   0.510   2.036   2.188  0.1902 -0.3931 -0.4672
 3089SOL    HW212122   0.561   2.093   2.131 -1.1134  0.3700 -0.9140
 3089SOL    HW312123   0.501   2.085   2.269 -1.4673  0.3579 -1.0686
 3089SOL    MW412124   0.516   2.050   2.191  0.6930 -0.3719 -0.3283
 3090SOL     OW12125   2.216   4.284   0.789  0.8970  0.3198  0.5369
 3090SOL    HW212126   2.275   4.357   0.769  1.0971  0.8174  2.7555
 3090SOL    HW312127   2.137   4.325   0.823  0.2412 -0.4471 -0.0319
 3090SOL    MW412128   2.213   4.299   0.791  0.1453 -0.1796  0.2699
 3091SOL     OW12129   4.458   5.237   0.392  0.3778 -0.5470 -0.0629
 3091SOL    HW212130   4.467   5.315   0.338  0.8627  0.5012  1.4633
 3091SOL    HW312131   4.368   5.241   0.426  1.7121  2.1837  3.9597
 3091SOL    MW412132   4.447   5.248   0.390  0.1319 -0.0432  0.3197
 3092SOL     OW12133   4.724   2.157   3.922 -0.1896 -0.6288 -0.5720
 3092SOL    HW212134   4.754   2.246   3.939 -0.4815 -0.8992  1.5149
 3092SOL    HW312135   4.661   2.167   3.850 -1.0968  1.0255  0.3876
 3092SOL    MW412136   4.720   2.170   3.914 -0.2116 -0.1857  0.2549
 3093SOL     OW12137   3.668   0.371   2.249 -0.4167  0.7107 -0.2148
 3093SOL    HW212138   3.573   0.380   2.237 -0.6711  0.5361  1.4482
 3093SOL    HW312139   3.704   0.454   2.219 -0.8451  0.0358 -2.8416
 3093SOL    MW412140   3.660   0.383   2.244 -0.1669  1.1484  0.0689
 3094SOL     OW12141   2.736   0.251   1.311 -0.3841 -0.1735  0.0383
 3094SOL    HW212142   2.729   0.294   1.396 -2.4846 -0.9643  0.3311
 3094SOL    HW312143   2.729   0.157   1.331 -0.3288 -0.4003 -0.9471
 3094SOL    MW412144   2.734   0.244   1.325 -0.2095 -0.1337 -0.5326
 3095SOL     OW12145   5.086   4.415   0.831  0.2136 -0.1952  0.0090
 3095SOL    HW212146   5.161   4.363   0.860 -0.2881 -1.0890 -0.2506
 3095SOL    HW312147   5.038   4.435   0.911  0.3079 -0.2881  0.0883
 3095SOL    MW412148   5.089   4.411   0.845 -0.4371 -0.1826 -0.4724
 3096SOL     OW12149   5.816   5.912   5.888  0.4897  0.2781  0.2367
 3096SOL    HW212150   5.824   5.838   5.828 -0.4000  0.4467 -0.0988
 3096SOL    HW312151   5.861   5.984   5.843  1.2573 -0.0117  0.5138
 3096SOL    MW412152   5.823   5.912   5.874  0.5284  0.3347 -0.3662
 3097SOL     OW12153   5.242   3.532   3.150  0.3183 -0.5640  0.8728
 3097SOL    HW212154   5.158   3.512   3.191  0.1600 -1.4502  0.1428
 3097SOL    HW312155   5.255   3.462   3.086 -0.3855  1.7657 -2.0281
 3097SOL    MW412156   5.232   3.520   3.147 -0.2218  0.2438  0.1659
 3098SOL     OW12157   3.688   2.394   6.150  0.1151 -0.2680 -0.1170
 3098SOL    HW212158   3.782   2.395   6.132  0.0590 -0.7599 -0.4653
 3098SOL    HW312159   3.649   2.432   6.071  0.0445  0.3585  0.2129
 3098SOL    MW412160   3.695   2.399   6.137 -0.2734  0.3473 -0.7168
 3099SOL     OW12161   3.106   5.931   1.321 -0.0621 -0.4173 -0.1325
 3099SOL    HW212162   3.121   5.846   1.280  0.1705 -0.2325 -0.4337
 3099SOL    HW312163   3.020   5.958   1.287  0.1469 -0.2476 -0.5302
 3099SOL    MW412164   3.096   5.923   1.311 -0.1450 -0.0195  0.6378
 3100SOL     OW12165   5.513   1.536   5.656 -0.7957  0.0038 -0.0815
 3100SOL    HW212166   5.576   1.584   5.710  0.0928  0.1512 -1.2171
 3100SOL    HW312167   5.475   1.603   5.599  1.1219 -0.7033 -2.3267
 3100SOL    MW412168   5.516   1.552   5.655  0.1935  0.0090 -0.3262
 3101SOL     OW12169   5.464   4.648   4.938  0.2543 -0.1042  0.1581
 3101SOL    HW212170   5.406   4.663   5.012  0.6080 -2.3089  0.9591
 3101SOL    HW312171   5.406   4.648   4.862 -0.0612  2.5404  0.3159
 3101SOL    MW412172   5.449   4.650   4.938 -0.2489  0.2302 -0.2875
 3102SOL     OW12173   0.428   4.748   6.394  0.6548  0.0593 -0.0071
 3102SOL    HW212174   0.376   4.818   6.354  1.8636  2.4312  2.2324
 3102SOL    HW312175   0.369   4.707   6.457  0.4347  0.3016 -0.0536
 3102SOL    MW412176   0.414   4.752   6.397  0.2767  0.1680 -0.3856
 3103SOL     OW12177   3.703   5.603   0.401  0.4649 -0.2476 -0.5308
 3103SOL    HW212178   3.732   5.553   0.477 -0.8221 -0.9304 -0.4618
 3103SOL    HW312179   3.622   5.560   0.373  0.1892  0.8204 -1.4658
 3103SOL    MW412180   3.696   5.590   0.407 -0.8539 -0.0724  0.0933
 3104SOL     OW12181   0.877   2.013   5.840 -0.2915 -0.2768 -0.0640
 3104SOL    HW212182   0.921   2.089   5.801  0.5471 -1.7038 -2.0841
 3104SOL    HW312183   0.904   2.014   5.932  1.1828  0.8324 -0.4651
 3104SOL    MW412184   0.887   2.023   5.847  0.5694  0.0794  0.4742
 3105SOL     OW12185   4.294   3.956   4.278  0.0515  0.3765 -0.3313
 3105SOL    HW212186   4.300   4.049   4.300  1.1627  0.0679  0.8163
 3105SOL    HW312187   4.318   3.952   4.186  1.1660  1.1213 -0.0968
 3105SOL    MW412188   4.298   3.968   4.269 -0.0585  0.2643 -0.1967
 3106SOL     OW12189   1.710   3.398   0.303  0.5175 -0.0410  0.1073
 3106SOL    HW212190   1.725   3.490   0.327  0.7279 -0.7229  2.9559
 3106SOL    HW312191   1.771   3.349   0.358  0.4916 -1.9117 -1.4406
 3106SOL    MW412192   1.720   3.404   0.313 -0.0537 -1.2241  0.4524
 3107SOL     OW12193   5.508   0.467   4.933 -0.2367  0.2749 -0.2787
 3107SOL    HW212194   5.525   0.558   4.958 -0.2468  0.2926 -0.3371
 3107SOL    HW312195   5.585   0.419   4.963 -1.1074 -0.0462  1.6608
 3107SOL    MW412196   5.520   0.473   4.940  0.7182  0.3625  0.9174
 3108SOL     OW12197   4.522   4.881   4.348 -0.2087  0.0031  0.1544
 3108SOL    HW212198   4.595   4.937   4.323  0.9212 -1.2927  0.4111
 3108SOL    HW312199   4.443   4.931   4.325  0.7572  1.0835 -0.9261
 3108SOL    MW412200   4.521   4.895   4.341 -0.4629  0.8773 -0.3886
 3109SOL     OW12201   4.533   4.163   2.107 -0.5682 -0.5617 -0.0893
 3109SOL    HW212202   4.476   4.182   2.181  0.3308 -1.5050  0.9020
 3109SOL    HW312203   4.594   4.236   2.104 -0.6987 -0.4483  0.0133
 3109SOL    MW412204   4.534   4.175   2.117 -0.1030 -0.4341  0.2147
 3110SOL     OW12205   1.494   3.839   2.466 -0.3772 -0.1565 -0.4223
 3110SOL    HW212206   1.536   3.862   2.549  0.3653 -2.9745  0.0742
 3110SOL    HW312207   1.559   3.862   2.399  0.4383 -0.9609  0.0659
 3110SOL    MW412208   1.509   3.845   2.468  0.4914 -0.2267 -0.2259
 3111SOL     OW12209   5.575   5.811   2.447 -0.3954  0.1740  0.3662
 3111SOL    HW212210   5.649   5.750   2.436 -1.0938 -0.5378 -0.5641
 3111SOL    HW312211   5.501   5.755   2.470 -1.2021  0.5759 -1.1379
 3111SOL    MW412212   5.575   5.796   2.449  0.2693 -0.0426 -0.3130
 3112SOL     OW12213   1.391   0.195   1.740  0.1158  0.3928 -0.1610
 3112SOL    HW212214   1.439   0.276   1.727  1.2596 -0.3458 -0.6727
 3112SOL    HW312215   1.394   0.151   1.656  1.4418 -1.1913  0.6576
 3112SOL    MW412216   1.398   0.200   1.727  0.4615 -0.5586  0.0553
 3113SOL     OW12217   1.732   3.366   2.794  0.0727  0.0318 -0.4425
 3113SOL    HW212218   1.725   3.275   2.823  0.7215 -0.1041 -0.6985
 3113SOL    HW312219   1.749   3.416   2.874 -1.9865  0.1682 -0.0362
 3113SOL    MW412220   1.733   3.361   2.808  0.3873 -0.1284  0.3851
 3114SOL     OW12221   3.371   2.225   5.270  0.0862  0.2461 -0.4299
 3114SOL    HW212222   3.371   2.267   5.356  1.1514  1.1720 -0.8520
 3114SOL    HW312223   3.456   2.248   5.232 -0.4830  0.1295 -1.8594
 3114SOL    MW412224   3.382   2.233   5.276 -0.0392 -0.3252  0.5284
 3115SOL     OW12225   0.819   5.012   2.737  0.1988  0.5896  0.3303
 3115SOL    HW212226   0.904   4.997   2.696  0.7166 -2.1265  2.1281
 3115SOL    HW312227   0.827   5.098   2.778  0.9949  1.6510 -1.8929
 3115SOL    MW412228   0.831   5.021   2.737  0.3802 -0.2573 -0.1098
 3116SOL     OW12229   1.384   1.015   1.964  0.2741  0.1407  0.4994
 3116SOL    HW212230   1.432   0.996   2.045 -1.4948  0.3800  1.6415
 3116SOL    HW312231   1.335   1.095   1.984 -3.0117 -1.7279  0.5055
 3116SOL    MW412232   1.384   1.023   1.977  0.2503  0.8979  0.3901
 3117SOL     OW12233   2.853   2.706   0.122 -0.2552  0.2302  0.9666
 3117SOL    HW212234   2.777   2.760   0.101  0.8158  1.1035 -1.0344
 3117SOL    HW312235   2.896   2.692   0.037  1.0753 -1.3698  1.8469
 3117SOL    MW412236   2.849   2.711   0.108 -0.2916  0.2876 -0.3357
 3118SOL     OW12237   6.287   5.506   2.455 -0.7174 -0.0475 -0.3406
 3118SOL    HW212238   6.346   5.581   2.446  1.4498 -1.1951  2.7027
 3118SOL    HW312239   6.225   5.532   2.523 -1.5477 -0.1746 -1.0219
 3118SOL    MW412240   6.286   5.519   2.462  0.0353  0.1290 -0.2641
 3119SOL     OW12241   3.892   3.515   4.842 -0.3780 -0.3287 -0.7421
 3119SOL    HW212242   3.901   3.514   4.937 -1.6474 -0.0073 -0.6093
 3119SOL    HW312243   3.893   3.422   4.817  0.5311 -0.3991 -0.4952
 3119SOL    MW412244   3.893   3.503   4.851  0.1550 -0.0288  0.1018
 3120SOL     OW12245   4.523   2.003   0.425  0.3796 -0.9333 -0.4419
 3120SOL    HW212246   4.532   2.063   0.351 -0.1585 -0.8742 -0.4615
 3120SOL    HW312247   4.509   2.060   0.501  1.8106 -0.9520 -0.1407
 3120SOL    MW412248   4.522   2.019   0.425 -0.5055  0.1592  0.4141
 3121SOL     OW12249   0.575   4.167   0.586 -0.7599 -0.0793  0.2371
 3121SOL    HW212250   0.602   4.236   0.525 -2.2057 -0.0742 -0.4494
 3121SOL    HW312251   0.518   4.110   0.534 -0.7005 -1.0062  1.1619
 3121SOL    MW412252   0.571   4.169   0.571 -0.0967 -0.2616 -0.0338
 3122SOL     OW12253   2.188   5.753   3.785 -0.2084 -0.6501 -0.5932
 3122SOL    HW212254   2.147   5.669   3.805 -0.7194  0.0470  1.5198
 3122SOL    HW312255   2.250   5.733   3.715 -0.2903 -2.7995 -0.1246
 3122SOL    MW412256   2.191   5.739   3.779  0.1659 -0.0594 -0.0764
 3123SOL     OW12257   3.085   1.197   3.754 -0.0674  0.5153 -0.0835
 3123SOL    HW212258   3.175   1.166   3.750  0.5148  2.2448 -1.1053
 3123SOL    HW312259   3.058   1.180   3.845  0.8857 -1.0031 -0.0516
 3123SOL    MW412260   3.093   1.190   3.766  0.2892  0.5436 -0.4664
 3124SOL     OW12261   5.349   5.679   2.917 -0.0770  0.1358  0.3276
 3124SOL    HW212262   5.443   5.676   2.937 -0.2431  1.1416  1.4116
 3124SOL    HW312263   5.326   5.771   2.926 -0.8896  0.1217 -1.3968
 3124SOL    MW412264   5.359   5.691   2.921 -0.3215 -0.3916 -0.3330
 3125SOL     OW12265   5.014   1.694   4.144 -0.1824  0.6939 -0.1841
 3125SOL    HW212266   5.036   1.785   4.124 -2.7332  1.3857 -0.1471
 3125SOL    HW312267   4.992   1.655   4.059 -0.1234  0.4061 -0.0692
 3125SOL    MW412268   5.014   1.700   4.130  0.2910  0.5569 -0.1558
 3126SOL     OW12269   2.892   4.845   4.470  0.7318  1.0467 -0.1229
 3126SOL    HW212270   2.837   4.768   4.477  0.4975  1.1661 -0.6439
 3126SOL    HW312271   2.970   4.823   4.522  0.9596  0.2054 -0.7899
 3126SOL    MW412272   2.895   4.832   4.478 -0.0584 -0.5055 -0.2931
 3127SOL     OW12273   4.924   4.951   4.742  0.6185 -0.3407 -0.0136
 3127SOL    HW212274   4.891   4.869   4.705 -0.2977 -0.0795  0.1948
 3127SOL    HW312275   5.018   4.936   4.752  0.3978 -1.5337  0.4679
 3127SOL    MW412276   4.932   4.938   4.738  0.4694 -0.5776  0.5533
 3128SOL     OW12277   0.202   0.002   1.011  0.5988  0.1063 -0.0712
 3128SOL    HW212278   0.134   0.065   0.984 -1.6842 -1.9883  0.3876
 3128SOL    HW312279   0.261  -0.003   0.936 -0.2538  1.3615 -0.8706
 3128SOL    MW412280   0.201   0.009   0.997  0.3370  0.2814 -0.7534
 3129SOL     OW12281   2.149   2.097   3.790  0.6762 -0.0367 -0.1407
 3129SOL    HW212282   2.079   2.113   3.727  0.5618 -0.6154 -0.1630
 3129SOL    HW312283   2.219   2.158   3.764  0.5777 -0.1762 -0.7476
 3129SOL    MW412284   2.149   2.107   3.778  0.0938 -0.3103 -0.0481
 3130SOL     OW12285   5.546   4.536   1.407 -0.7974  0.2114  0.4604
 3130SOL    HW212286   5.594   4.523   1.489  0.1260  0.5681 -0.0103
 3130SOL    HW312287   5.503   4.452   1.392 -2.5768  0.7286  2.2951
 3130SOL    MW412288   5.547   4.523   1.416 -0.0666 -0.2697  0.0218
 3131SOL     OW12289   3.652   2.078   3.189 -0.0272 -0.6662  0.4935
 3131SOL    HW212290   3.572   2.114   3.151 -0.3172  1.8736  3.1613
 3131SOL    HW312291   3.721   2.135   3.157  0.5057 -1.7079 -0.2831
 3131SOL    MW412292   3.650   2.090   3.180 -0.3958  0.0236  0.4075
 3132SOL     OW12293   0.319   0.214   0.336  0.6070 -0.2413  0.2316
 3132SOL    HW212294   0.372   0.134   0.330  1.0147  0.1226 -1.5056
 3132SOL    HW312295   0.383   0.284   0.344  0.2492 -0.0453  1.6825
 3132SOL    MW412296   0.335   0.213   0.336  0.0104 -0.2208  0.1800
 3133SOL     OW12297   5.282   0.218   3.446 -0.1139  0.1818  0.3801
 3133SOL    HW212298   5.281   0.309   3.478 -0.0005 -0.1260  1.2873
 3133SOL    HW312299   5.293   0.226   3.351  0.0349  1.1113  0.4656
 3133SOL    MW412300   5.283   0.231   3.438 -0.1809 -0.0526  0.4194
 3134SOL     OW12301   2.336   0.324   4.837 -0.0496  0.0729  0.3292
 3134SOL    HW212302   2.404   0.267   4.803  1.3222  0.6666  1.9621
 3134SOL    HW312303   2.312   0.380   4.763  1.4520  0.0544 -0.1970
 3134SOL    MW412304   2.342   0.324   4.823 -0.1987  0.3540  0.7415
 3135SOL     OW12305   6.055   0.395   0.363  0.1901 -0.1399 -0.4180
 3135SOL    HW212306   5.967   0.386   0.399  1.1616 -2.5012  1.6338
 3135SOL    HW312307   6.060   0.486   0.334 -2.5188  0.3612  0.4471
 3135SOL    MW412308   6.044   0.406   0.364 -0.2230 -0.3013  0.5028
 3136SOL     OW12309   6.044   3.755   1.776 -0.2635 -0.1508 -0.3871
 3136SOL    HW212310   6.040   3.724   1.866 -0.7455 -0.2219 -0.4348
 3136SOL    HW312311   6.131   3.795   1.769 -0.5987  0.7733  0.4121
 3136SOL    MW412312   6.055   3.756   1.787 -0.3109  0.2313 -0.2382
 3137SOL     OW12313   2.173   5.486   1.962 -0.1475 -0.1394  0.2156
 3137SOL    HW212314   2.192   5.532   1.880  1.0574  2.1236  1.6669
 3137SOL    HW312315   2.082   5.509   1.982 -0.7829 -1.5304 -0.9502
 3137SOL    MW412316   2.164   5.495   1.954  0.1590 -0.6212 -0.2056
 3138SOL     OW12317   4.692   2.075   5.555 -0.1339 -0.1573  0.2368
 3138SOL    HW212318   4.679   2.016   5.629  0.9194  0.6961  1.1431
 3138SOL    HW312319   4.611   2.067   5.503 -1.5363  0.2698  2.2267
 3138SOL    MW412320   4.679   2.066   5.558 -0.0239 -0.2117  0.8601
 3139SOL     OW12321   1.921   1.928   0.242 -0.3966 -0.8866 -0.1529
 3139SOL    HW212322   1.860   1.860   0.272 -0.4579 -0.7409  0.0529
 3139SOL    HW312323   2.003   1.907   0.286 -0.6338 -0.3404  0.5835
 3139SOL    MW412324   1.923   1.916   0.252  0.1186 -0.5394  0.3490
 3140SOL     OW12325   6.253   3.696   5.196  0.0803  0.1846  0.0960
 3140SOL    HW212326   6.265   3.787   5.170  0.1881  0.1634  0.0714
 3140SOL    HW312327   6.160   3.678   5.179 -0.3192  0.7410  1.5289
 3140SOL    MW412328   6.242   3.705   5.190  0.5533  0.0847 -0.0870
 3141SOL     OW12329   2.587   5.306   5.887 -0.4936 -0.4815 -0.0253
 3141SOL    HW212330   2.502   5.269   5.865 -0.3840 -0.9168  0.2722
 3141SOL    HW312331   2.632   5.236   5.934  0.2355 -0.4478 -0.6508
 3141SOL    MW412332   2.582   5.292   5.890 -0.4301  0.4986 -0.1587
 3142SOL     OW12333   1.145   2.645   0.385 -0.0749 -0.2386 -0.6331
 3142SOL    HW212334   1.209   2.603   0.442  2.4016 -0.5209 -3.3981
 3142SOL    HW312335   1.147   2.737   0.409 -1.7420 -0.7405  1.9708
 3142SOL    MW412336   1.153   2.651   0.396 -0.8317  0.3915 -0.5122
 3143SOL     OW12337   4.681   2.797   1.607 -0.3386  0.2571  0.5227
 3143SOL    HW212338   4.691   2.717   1.555 -0.4247  0.2539  0.5110
 3143SOL    HW312339   4.684   2.868   1.543  0.2369  0.2917  0.5859
 3143SOL    MW412340   4.683   2.796   1.592 -0.0459  0.3827 -0.3137
 3144SOL     OW12341   5.128   0.403   1.738  0.6880 -0.3449  0.7673
 3144SOL    HW212342   5.190   0.456   1.688  1.0761 -0.5953  0.9810
 3144SOL    HW312343   5.052   0.394   1.680  1.4798 -1.3748 -0.1509
 3144SOL    MW412344   5.126   0.409   1.724  0.0561 -0.8433 -0.0726
 3145SOL     OW12345   5.485   6.015   5.619 -0.4201 -1.0049 -0.0983
 3145SOL    HW212346   5.499   5.979   5.707  0.9616  0.0790  0.1674
 3145SOL    HW312347   5.564   6.067   5.602 -0.3343 -1.7442 -2.2664
 3145SOL    MW412348   5.497   6.017   5.628  0.2633  0.3633 -0.1675
 3146SOL     OW12349   1.753   4.730   1.754  0.3183  0.7074 -0.1710
 3146SOL    HW212350   1.790   4.694   1.835  0.0889  1.2017  0.1603
 3146SOL    HW312351   1.787   4.673   1.685  0.0045 -0.1100  0.3329
 3146SOL    MW412352   1.763   4.718   1.756 -0.1734  0.2478  0.5324
 3147SOL     OW12353   5.854   5.874   1.492  0.1508 -0.3482 -0.6967
 3147SOL    HW212354   5.791   5.941   1.466 -0.0612 -0.4270 -0.3875
 3147SOL    HW312355   5.849   5.808   1.424  2.0606  1.0418 -2.2944
 3147SOL    MW412356   5.845   5.874   1.480 -0.1293 -0.4054 -0.4797
 3148SOL     OW12357   5.089   6.252   6.245 -0.1453  0.2640  0.1322
 3148SOL    HW212358   5.123   6.192   6.312 -0.2334  0.4374  0.3338
 3148SOL    HW312359   4.997   6.226   6.234  0.0272 -0.1516 -0.3543
 3148SOL    MW412360   5.081   6.241   6.252 -0.0543  0.4452  0.1625
 3149SOL     OW12361   2.670   5.772   6.056  0.1757 -0.8420  0.8807
 3149SOL    HW212362   2.766   5.781   6.056  0.0996  0.0604  1.0710
 3149SOL    HW312363   2.647   5.764   6.148  0.0565 -0.9856  0.8388
 3149SOL    MW412364   2.680   5.772   6.068 -0.0388 -0.2302 -0.5755
 3150SOL     OW12365   1.314   3.141   2.886  0.5687 -0.3336  0.1704
 3150SOL    HW212366   1.322   3.091   2.967 -1.2704 -0.0517  0.5680
 3150SOL    HW312367   1.315   3.233   2.915 -0.5099 -0.2357 -0.0467
 3150SOL    MW412368   1.315   3.147   2.901 -0.2397  0.0446 -0.3361
 3151SOL     OW12369   4.931   4.350   0.607 -0.0947  0.1452 -0.3530
 3151SOL    HW212370   4.851   4.317   0.649 -0.3258 -1.1422 -1.7297
 3151SOL    HW312371   4.996   4.350   0.677 -0.4740 -1.9139  0.0523
 3151SOL    MW412372   4.929   4.346   0.622 -0.7128 -0.0213 -0.6139
 3152SOL     OW12373   1.094   1.854   6.354  0.0102 -0.2532 -0.6559
 3152SOL    HW212374   1.004   1.881   6.373  0.7641  2.1448 -0.2035
 3152SOL    HW312375   1.108   1.778   6.411 -0.8652  1.0443  1.4118
 3152SOL    MW412376   1.084   1.848   6.364 -0.2682  0.2299  0.3228
 3153SOL     OW12377   5.653   1.916   4.311 -0.3674 -0.1501 -0.6392
 3153SOL    HW212378   5.564   1.933   4.281 -0.2434  2.4329  0.2578
 3153SOL    HW312379   5.703   1.994   4.288  1.1744 -0.6392  0.7831
 3153SOL    MW412380   5.648   1.928   4.304  0.2238  0.3345 -0.1072
 3154SOL     OW12381   0.232   0.356   3.731  0.3371 -0.4898 -0.4142
 3154SOL    HW212382   0.197   0.276   3.692 -0.8193  0.6143 -1.7574
 3154SOL    HW312383   0.273   0.328   3.813 -0.6656 -2.3395 -0.5115
 3154SOL    MW412384   0.233   0.342   3.737 -0.6330  0.8448 -0.2139
 3155SOL     OW12385   4.320   1.293   6.107 -0.2825 -0.0467  0.0725
 3155SOL    HW212386   4.246   1.353   6.097 -0.7310 -0.2111  1.9610
 3155SOL    HW312387   4.393   1.350   6.133  0.5912  0.2536 -2.7698
 3155SOL    MW412388   4.320   1.309   6.109  0.6011  0.3461  0.1846
 3156SOL     OW12389   2.475   2.994   2.464 -0.6290  0.3350 -0.3719
 3156SOL    HW212390   2.515   2.908   2.476  0.4251  0.9557  0.7540
 3156SOL    HW312391   2.496   3.019   2.374 -0.5119 -0.3701 -0.5399
 3156SOL    MW412392   2.483   2.986   2.453 -1.0236 -0.5969 -0.2659
 3157SOL     OW12393   1.791   3.650   1.633  0.5258 -0.1749 -0.2808
 3157SOL    HW212394   1.786   3.588   1.706 -0.0985 -0.7173 -0.7749
 3157SOL    HW312395   1.782   3.596   1.555 -1.7604  0.6973 -0.6814
 3157SOL    MW412396   1.790   3.635   1.633 -0.8453 -0.1129 -0.3929
 3158SOL     OW12397   6.170   5.340   3.367 -0.4886  0.2807 -0.2269
 3158SOL    HW212398   6.216   5.266   3.328 -0.5452 -1.1151  2.1583
 3158SOL    HW312399   6.080   5.333   3.333 -0.5283 -0.8391  0.0615
 3158SOL    MW412400   6.164   5.329   3.357  0.4027 -0.1583 -0.0776
 3159SOL     OW12401   6.236   4.790   1.204  0.1703 -0.3815 -0.3768
 3159SOL    HW212402   6.175   4.838   1.149  0.8023 -0.6415 -1.3132
 3159SOL    HW312403   6.321   4.800   1.162  0.9083  0.4509  1.2164
 3159SOL    MW412404   6.239   4.797   1.191  0.2382 -0.6759  0.1746
 3160SOL     OW12405   0.096   2.179   3.119  0.4945 -0.2702  0.1128
 3160SOL    HW212406   0.065   2.095   3.154  0.4922  0.4064  1.8465
 3160SOL    HW312407   0.152   2.213   3.188  1.5870  0.5546 -1.1416
 3160SOL    MW412408   0.099   2.172   3.133 -0.1469  0.1334 -0.0983
 3161SOL     OW12409   4.607   3.077   0.726  0.4732  0.4670 -0.5017
 3161SOL    HW212410   4.622   2.988   0.695  3.0939  0.6257  0.0835
 3161SOL    HW312411   4.511   3.085   0.730  0.1514 -2.0004 -1.3846
 3161SOL    MW412412   4.596   3.066   0.722  0.5477  0.1360 -0.1737
 3162SOL     OW12413   1.209   2.199   1.806 -0.0986  0.0832  0.3402
 3162SOL    HW212414   1.237   2.214   1.716  0.4713  0.8928  0.6364
 3162SOL    HW312415   1.177   2.109   1.807  1.4487 -0.5113 -0.3045
 3162SOL    MW412416   1.209   2.189   1.795  0.8949  0.2750 -0.3354
 3163SOL     OW12417   4.335   4.858   4.802 -0.2886  0.5310 -0.6976
 3163SOL    HW212418   4.285   4.781   4.776 -0.4382  0.6728 -0.8318
 3163SOL    HW312419   4.408   4.861   4.740 -0.2941  0.5096 -0.7058
 3163SOL    MW412420   4.338   4.848   4.790 -0.1167  0.1009 -0.6279
 3164SOL     OW12421   0.884   4.593   0.720  0.3768  0.3897 -0.5839
 3164SOL    HW212422   0.882   4.553   0.633  0.2106  0.2456 -0.5147
 3164SOL    HW312423   0.812   4.657   0.718  0.5230  0.5551 -0.6311
 3164SOL    MW412424   0.874   4.596   0.708 -0.9113  0.8759  0.0508
 3165SOL     OW12425   2.739   2.508   4.207 -0.2724  0.1228  0.1954
 3165SOL    HW212426   2.811   2.474   4.154 -1.4662 -0.5865 -1.0308
 3165SOL    HW312427   2.756   2.602   4.215  1.5162 -0.2383  1.1486
 3165SOL    MW412428   2.751   2.516   4.201  0.3054 -0.2477 -0.0541
 3166SOL     OW12429   3.602   3.832   5.689 -0.2911  0.2994 -0.2837
 3166SOL    HW212430   3.595   3.923   5.662 -1.6616 -0.3990 -2.5864
 3166SOL    HW312431   3.575   3.831   5.781  1.0120  2.3464  0.1725
 3166SOL    MW412432   3.597   3.844   5.697 -0.0044  0.0245 -0.0500
 3167SOL     OW12433   0.906   0.013   3.317  0.0950  0.3554 -0.7450
 3167SOL    HW212434   0.952  -0.005   3.235 -1.2172  0.8374 -1.6195
 3167SOL    HW312435   0.884   0.106   3.313  0.5058  0.5138  0.4209
 3167SOL    MW412436   0.909   0.023   3.306 -0.7405  0.7033  0.5011
 3168SOL     OW12437   3.824   2.409   0.777  0.0650  0.4519  0.4777
 3168SOL    HW212438   3.896   2.454   0.734 -0.3761  1.6234  0.9285
 3168SOL    HW312439   3.860   2.324   0.802  0.9023  0.5267 -0.4152
 3168SOL    MW412440   3.838   2.403   0.774  0.4169  0.0984  0.1979
 3169SOL     OW12441   2.071   6.240   1.671  0.3877  0.6755  0.1396
 3169SOL    HW212442   2.074   6.215   1.578 -1.8797 -0.4324  0.2890
 3169SOL    HW312443   1.986   6.284   1.681  0.1150 -0.1352  1.8594
 3169SOL    MW412444   2.060   6.242   1.660  0.1782 -0.1783 -0.0496
 3170SOL     OW12445   2.682   5.125   6.101 -0.1098  0.4550  0.5918
 3170SOL    HW212446   2.628   5.049   6.080  0.4348  0.5505 -1.3343
 3170SOL    HW312447   2.750   5.091   6.159  0.6671 -0.7646 -0.9636
 3170SOL    MW412448   2.684   5.111   6.106  0.1978 -0.0663 -0.4829
 3171SOL     OW12449   0.962   0.650   3.713 -0.0197  0.0926  0.3529
 3171SOL    HW212450   0.908   0.593   3.658  0.0473  1.1489 -0.8775
 3171SOL    HW312451   1.045   0.603   3.723  0.3779  0.3026 -1.4220
 3171SOL    MW412452   0.966   0.636   3.707 -0.2771  0.4234 -0.0937
 3172SOL     OW12453   0.515   4.814   4.683 -0.3381  0.6690 -0.2045
 3172SOL    HW212454   0.455   4.767   4.625 -1.4353  0.6435  0.9064
 3172SOL    HW312455   0.466   4.827   4.764  0.5860  2.1066  0.1816
 3172SOL    MW412456   0.501   4.810   4.686 -0.1397  0.5079  0.1501
 3173SOL     OW12457   5.724   1.896   3.118 -0.0687  0.0294  0.0955
 3173SOL    HW212458   5.792   1.888   3.185 -0.2841  0.6674  0.3970
 3173SOL    HW312459   5.687   1.983   3.131 -2.3036 -1.0142  1.2452
 3173SOL    MW412460   5.728   1.907   3.128  0.9493 -0.8025 -0.0348
 3174SOL     OW12461   4.601   3.153   1.678 -0.3011 -0.1290  0.5719
 3174SOL    HW212462   4.512   3.120   1.666  0.1595 -1.2545  0.1465
 3174SOL    HW312463   4.652   3.110   1.610  0.4403  1.0553  0.3613
 3174SOL    MW412464   4.596   3.143   1.668 -0.1367 -0.1412  0.1375
 3175SOL     OW12465   4.333   2.761   0.560  0.8495  0.0883 -0.1887
 3175SOL    HW212466   4.241   2.742   0.542  0.1228  1.6118  1.6072
 3175SOL    HW312467   4.374   2.675   0.570 -0.6322 -0.6106  0.1602
 3175SOL    MW412468   4.326   2.747   0.559 -0.1676  0.4858 -0.6620
 3176SOL     OW12469   1.876   0.297   5.521 -0.0077 -0.0693 -0.1246
 3176SOL    HW212470   1.899   0.258   5.605  1.0827 -0.1442 -0.4343
 3176SOL    HW312471   1.830   0.378   5.543 -1.4953 -1.0487  0.5224
 3176SOL    MW412472   1.873   0.303   5.535 -0.2233  0.1610  0.2272
 3177SOL     OW12473   0.876   4.609   2.578 -0.2062  0.4011  0.4138
 3177SOL    HW212474   0.850   4.672   2.511  0.9802  0.4187 -0.0635
 3177SOL    HW312475   0.940   4.656   2.631 -0.4051  0.0698  0.9469
 3177SOL    MW412476   0.881   4.623   2.576  0.7184  0.1922 -0.3842
 3178SOL     OW12477   1.159   4.951   6.169  0.3752  0.1305  0.5489
 3178SOL    HW212478   1.249   4.985   6.171  2.1853 -4.1019  2.2404
 3178SOL    HW312479   1.125   4.969   6.257  0.5067 -0.4334  0.7175
 3178SOL    MW412480   1.166   4.958   6.181  0.3077  0.3144 -0.4838
 3179SOL     OW12481   4.528   0.313   0.875  0.8157  0.4091  0.3397
 3179SOL    HW212482   4.552   0.406   0.881  1.2667  0.2521  1.2129
 3179SOL    HW312483   4.449   0.305   0.928  0.3000  0.4460 -0.4209
 3179SOL    MW412484   4.521   0.324   0.883  0.2373 -0.5743 -0.1790
 3180SOL     OW12485   1.914   2.654   0.993 -0.4440  0.1253 -0.1142
 3180SOL    HW212486   1.894   2.561   1.005  2.1836 -0.5527 -0.3282
 3180SOL    HW312487   1.935   2.685   1.081 -0.4391  0.2707 -0.1670
 3180SOL    MW412488   1.915   2.645   1.006  0.2278 -0.5321  0.4972
 3181SOL     OW12489   6.083   1.529   2.147  0.0841 -0.0006  0.0793
 3181SOL    HW212490   6.069   1.606   2.092 -0.4784 -1.1712 -1.5251
 3181SOL    HW312491   6.178   1.519   2.151  0.1418  0.3350 -0.3591
 3181SOL    MW412492   6.093   1.538   2.140 -0.1385  0.9303 -0.2714
 3182SOL     OW12493   2.922   0.084   2.521  0.1372  0.8891 -0.6876
 3182SOL    HW212494   2.896   0.013   2.462 -0.4826  0.6978 -0.1990
 3182SOL    HW312495   2.839   0.119   2.553  0.4578 -0.1386  1.4113
 3182SOL    MW412496   2.907   0.079   2.517 -0.1344  0.1048 -1.1355
 3183SOL     OW12497   2.677   4.091   5.494 -0.5473 -0.1968 -0.0382
 3183SOL    HW212498   2.619   4.168   5.490 -1.1426 -0.6128  0.4784
 3183SOL    HW312499   2.627   4.026   5.542  0.4784 -0.4610  0.6927
 3183SOL    MW412500   2.662   4.093   5.500 -0.1635  1.1661 -0.6302
 3184SOL     OW12501   2.746   4.286   5.235  0.4506 -0.0446 -0.5196
 3184SOL    HW212502   2.805   4.281   5.311  0.7128  0.9526 -0.6434
 3184SOL    HW312503   2.798   4.250   5.163  1.8213  2.8485 -1.1302
 3184SOL    MW412504   2.761   4.281   5.236  0.2494 -0.4628  0.4318
 3185SOL     OW12505   4.614   1.277   1.072 -0.1143 -0.5003 -0.0861
 3185SOL    HW212506   4.595   1.351   1.130 -0.3370  0.8752 -1.8247
 3185SOL    HW312507   4.653   1.317   0.994  0.5792 -2.3165 -0.7281
 3185SOL    MW412508   4.617   1.292   1.069  0.6809  0.0987 -0.1240
 3186SOL     OW12509   2.916   5.595   4.397  0.0398  0.6970 -0.1271
 3186SOL    HW212510   2.947   5.674   4.442  0.2103  1.3245 -1.2881
 3186SOL    HW312511   2.840   5.625   4.347 -1.0473 -0.3099  0.8737
 3186SOL    MW412512   2.910   5.610   4.396  0.1548  0.2056  0.1113
 3187SOL     OW12513   3.223   4.438   2.296  0.2047 -0.3240 -0.2270
 3187SOL    HW212514   3.242   4.524   2.260 -0.5820 -0.4337 -0.9208
 3187SOL    HW312515   3.277   4.378   2.244  1.1622 -0.2203  0.6036
 3187SOL    MW412516   3.233   4.441   2.284 -0.4552 -0.1116  0.0856
 3188SOL     OW12517   1.283   0.848   3.047 -0.2913 -0.0212 -0.2271
 3188SOL    HW212518   1.368   0.868   3.086 -0.0800  0.2226 -0.7962
 3188SOL    HW312519   1.223   0.913   3.085  0.0977  0.7905 -0.9743
 3188SOL    MW412520   1.286   0.859   3.057 -0.1208  0.4653 -0.4032
 3189SOL     OW12521   5.097   1.067   2.771 -0.3209  0.2976  0.1397
 3189SOL    HW212522   5.037   1.005   2.730 -0.7612  0.1528  0.9835
 3189SOL    HW312523   5.042   1.116   2.832  0.2209  0.8644  0.1801
 3189SOL    MW412524   5.082   1.065   2.773  0.5020  0.4856 -0.1713
 3190SOL     OW12525   3.580   2.141   2.191 -0.0527  0.4267  0.0924
 3190SOL    HW212526   3.549   2.079   2.257 -0.2738 -1.2141 -1.4702
 3190SOL    HW312527   3.673   2.153   2.211 -0.4228  1.0605  1.5133
 3190SOL    MW412528   3.588   2.134   2.202  0.4005  0.0432  0.1532
 3191SOL     OW12529   1.485   5.091   1.724  0.3694  0.7968  0.4488
 3191SOL    HW212530   1.487   5.095   1.820 -0.3539  0.0208  0.5128
 3191SOL    HW312531   1.568   5.130   1.696  1.6119 -1.0097  1.4533
 3191SOL    MW412532   1.496   5.097   1.733 -0.0331 -0.7708  0.0904
 3192SOL     OW12533   4.557   0.140   2.206 -0.1550  0.1791 -0.1038
 3192SOL    HW212534   4.512   0.182   2.133 -0.3248 -1.0784 -0.7386
 3192SOL    HW312535   4.557   0.207   2.275  0.2451  1.4861 -1.3137
 3192SOL    MW412536   4.551   0.155   2.206  0.3766  0.2760 -0.0511
 3193SOL     OW12537   3.771   3.892   1.955 -0.5355  0.3517  0.1216
 3193SOL    HW212538   3.701   3.873   1.893  0.5833  1.1850 -1.4716
 3193SOL    HW312539   3.742   3.853   2.037 -1.5571 -1.8598 -1.2017
 3193SOL    MW412540   3.758   3.884   1.957 -0.3949  0.5419 -0.4197
 3194SOL     OW12541   1.821   5.919   2.434 -0.3800  0.5921  0.3111
 3194SOL    HW212542   1.807   5.874   2.517 -0.1081  0.1599  0.1266
 3194SOL    HW312543   1.799   5.854   2.367  0.3107  0.6264  0.0407
 3194SOL    MW412544   1.816   5.904   2.436 -0.2762  0.0443  0.0894
 3195SOL     OW12545   2.412   5.961   5.198 -0.6237 -0.7589 -0.1112
 3195SOL    HW212546   2.444   6.013   5.124 -2.2054 -1.6071 -1.4793
 3195SOL    HW312547   2.334   5.917   5.164 -1.3072 -1.3378  2.0356
 3195SOL    MW412548   2.406   5.962   5.184 -0.6416 -0.6338 -0.2167
 3196SOL     OW12549   5.445   1.374   0.222 -0.1566  0.6836  0.0285
 3196SOL    HW212550   5.377   1.311   0.244  0.0149  0.4642 -0.0656
 3196SOL    HW312551   5.465   1.418   0.304  1.0512 -0.6856  0.5118
 3196SOL    MW412552   5.439   1.371   0.235 -0.2400 -0.2276 -0.3463
 3197SOL     OW12553   4.465   3.730   2.339 -0.3420 -0.5744 -0.4626
 3197SOL    HW212554   4.502   3.818   2.349 -1.8532  0.0023  0.5277
 3197SOL    HW312555   4.375   3.739   2.370 -0.8961 -2.2108 -1.4902
 3197SOL    MW412556   4.458   3.743   2.345  0.3565 -0.6791 -0.2919
 3198SOL     OW12557   2.471   5.739   4.805 -0.2044  0.6128  0.0723
 3198SOL    HW212558   2.398   5.690   4.842  0.1405 -0.2582 -0.3703
 3198SOL    HW312559   2.431   5.798   4.742 -0.5283  0.0468 -0.2617
 3198SOL    MW412560   2.456   5.740   4.801  0.0362  0.2288  0.3194
 3199SOL     OW12561   6.275   3.095   2.922 -0.2926  0.2290 -0.4065
 3199SOL    HW212562   6.262   3.181   2.881  0.5723  0.4513 -0.2465
 3199SOL    HW312563   6.347   3.056   2.873  1.7377  1.0785  1.6866
 3199SOL    MW412564   6.283   3.101   2.910  0.3058 -0.3886  0.3777
 3200SOL     OW12565   4.993   6.335   4.379 -0.7196  0.6337 -0.4215
 3200SOL    HW212566   4.924   6.317   4.315 -1.8705  0.7064  0.7616
 3200SOL    HW312567   4.967   6.417   4.420  0.8176  1.3930 -0.8990
 3200SOL    MW412568   4.981   6.343   4.376 -0.1766  0.7575 -0.4347
 3201SOL     OW12569   2.789   4.383   1.577  0.0464  0.2912 -0.0935
 3201SOL    HW212570   2.841   4.326   1.632  0.1573 -1.0831 -1.5592
 3201SOL    HW312571   2.741   4.324   1.519 -2.3837  1.5275  0.4874
 3201SOL    MW412572   2.789   4.368   1.577  0.2564 -0.2246 -0.1546
 3202SOL     OW12573   5.343   5.408   4.659 -0.1234 -0.3886 -0.1272
 3202SOL    HW212574   5.349   5.455   4.742 -2.3987  0.7781 -0.5503
 3202SOL    HW312575   5.286   5.462   4.604  0.0693 -1.8910 -1.9198
 3202SOL    MW412576   5.337   5.421   4.663 -0.4098  0.1005  0.3906
 3203SOL     OW12577   0.124   4.759   6.057 -0.0490 -0.5674  0.1585
 3203SOL    HW212578   0.086   4.844   6.037  0.5709  0.3160  2.4461
 3203SOL    HW312579   0.217   4.768   6.033 -0.3986 -1.3920 -1.6762
 3203SOL    MW412580   0.132   4.772   6.051  0.2463  0.0189  0.2358
 3204SOL     OW12581   6.209   1.209   5.867  0.2798  0.4027  0.3947
 3204SOL    HW212582   6.274   1.251   5.810  0.5569  0.4553  0.7421
 3204SOL    HW312583   6.137   1.271   5.871 -1.6725 -1.3510 -3.2975
 3204SOL    MW412584   6.208   1.222   5.860  0.0153  0.3054 -0.4704
 3205SOL     OW12585   0.988   3.804   0.169  0.0193  0.5335 -0.2347
 3205SOL    HW212586   1.074   3.826   0.133 -0.1990  0.3838 -0.8724
 3205SOL    HW312587   0.926   3.828   0.100 -0.3206 -0.9636 -0.5006
 3205SOL    MW412588   0.991   3.810   0.155 -0.3002  0.3260  0.7221
 3206SOL     OW12589   2.164   3.813   1.058 -0.0124  0.2672  0.4625
 3206SOL    HW212590   2.225   3.750   1.019  0.4679  1.3843 -0.6498
 3206SOL    HW312591   2.155   3.785   1.149  1.3272 -0.5508  0.3623
 3206SOL    MW412592   2.171   3.801   1.065  0.7100  0.0937 -0.2160
 3207SOL     OW12593   4.425   2.876   5.255 -0.7208 -0.3705 -0.0478
 3207SOL    HW212594   4.370   2.930   5.312 -0.7870 -1.4761  0.9781
 3207SOL    HW312595   4.494   2.935   5.226 -1.2084  0.4599  0.4318
 3207SOL    MW412596   4.427   2.891   5.259  0.4599 -0.1518  0.4463
 3208SOL     OW12597   0.167   6.214   4.410 -0.1786 -0.4693 -0.0599
 3208SOL    HW212598   0.181   6.306   4.432 -0.0979 -1.0146  2.5136
 3208SOL    HW312599   0.234   6.194   4.346  0.4359  1.0153  0.0706
 3208SOL    MW412600   0.177   6.224   4.405 -0.3190  0.1010  0.3683
 3209SOL     OW12601   6.033   0.728   1.711 -0.7579 -0.1364  0.4014
 3209SOL    HW212602   5.975   0.725   1.634  1.7855  1.3752 -1.7176
 3209SOL    HW312603   6.039   0.821   1.733  0.8685 -0.2590  0.5586
 3209SOL    MW412604   6.026   0.740   1.704 -0.1556 -0.5251  0.2720
 3210SOL     OW12605   5.016   6.324   3.322  0.0851  0.4291  0.2522
 3210SOL    HW212606   4.985   6.238   3.294  0.4419  1.1158 -2.5306
 3210SOL    HW312607   5.094   6.305   3.374  0.4173 -0.9290 -0.6871
 3210SOL    MW412608   5.022   6.310   3.325  0.4052  0.2346 -0.9043
 3211SOL     OW12609   4.661   5.853   2.069 -0.1399  0.8434 -0.0880
 3211SOL    HW212610   4.724   5.923   2.051  2.4128 -1.4598 -0.7808
 3211SOL    HW312611   4.632   5.825   1.982  0.2355 -0.0776  0.0715
 3211SOL    MW412612   4.666   5.859   2.055 -0.4090 -0.6611 -0.2385
 3212SOL     OW12613   2.597   4.166   4.669  0.0666  0.0558  0.3055
 3212SOL    HW212614   2.654   4.227   4.623  0.2042 -0.4181 -0.1620
 3212SOL    HW312615   2.509   4.186   4.637  0.2202 -0.6042 -0.5461
 3212SOL    MW412616   2.593   4.176   4.659  0.1515  0.0116  0.1507
 3213SOL     OW12617   4.871   3.244   1.909 -0.2482 -0.4623  0.0002
 3213SOL    HW212618   4.810   3.175   1.935 -0.9272  0.2537  0.3596
 3213SOL    HW312619   4.816   3.321   1.898  0.8119  0.6682  2.1363
 3213SOL    MW412620   4.856   3.245   1.911 -0.0240 -0.0239  0.4897
 3214SOL     OW12621   4.723   4.911   2.852  0.3892 -0.1493  0.4201
 3214SOL    HW212622   4.772   4.839   2.812 -0.7277 -0.9330  0.4226
 3214SOL    HW312623   4.783   4.949   2.916  2.1865  1.0634 -1.8674
 3214SOL    MW412624   4.737   4.906   2.855  0.2401  0.8155 -0.4441
 3215SOL     OW12625   0.996   1.321   0.388 -0.6221 -0.3814 -0.9375
 3215SOL    HW212626   1.058   1.319   0.461 -0.1317 -0.3631 -1.3446
 3215SOL    HW312627   1.034   1.384   0.327 -0.2529 -1.4766 -1.8722
 3215SOL    MW412628   1.010   1.329   0.389 -0.3896  0.1180  0.4511
 3216SOL     OW12629   2.654   3.456   2.869 -0.0737 -0.3780 -0.4023
 3216SOL    HW212630   2.692   3.373   2.895  0.0064 -0.2105  0.0179
 3216SOL    HW312631   2.695   3.521   2.926 -1.7596 -0.3195  0.8184
 3216SOL    MW412632   2.664   3.454   2.880 -0.0931 -0.4694  0.5299
 3217SOL     OW12633   4.600   0.370   5.258 -0.3117 -0.2508  0.5282
 3217SOL    HW212634   4.540   0.428   5.305  0.5768  1.0631  0.0798
 3217SOL    HW312635   4.688   0.398   5.285  0.2682  0.7965 -2.1285
 3217SOL    MW412636   4.604   0.381   5.268  0.1782  0.7976 -0.7012
 3218SOL     OW12637   4.830   0.947   2.456 -0.2833 -0.1390  0.3067
 3218SOL    HW212638   4.894   1.016   2.439  0.8537 -1.3536 -0.5712
 3218SOL    HW312639   4.832   0.892   2.377 -2.1422 -0.4388  0.4222
 3218SOL    MW412640   4.839   0.949   2.443 -0.4737  0.5515  0.1107
 3219SOL     OW12641   6.139   0.310   0.992 -0.1312  0.0433 -0.1400
 3219SOL    HW212642   6.170   0.220   1.006  0.5427  0.1654 -0.7859
 3219SOL    HW312643   6.051   0.310   1.029 -0.0608 -0.8252  0.0691
 3219SOL    MW412644   6.132   0.298   0.999 -0.5077 -0.1319 -0.7335
 3220SOL     OW12645   0.231   0.966   3.442 -0.4286 -0.0059 -0.5438
 3220SOL    HW212646   0.170   0.911   3.394 -0.5809  0.8568 -1.3839
 3220SOL    HW312647   0.177   1.036   3.478 -0.2170 -0.3016  0.3681
 3220SOL    MW412648   0.216   0.968   3.440 -0.5237 -0.6093  0.4954
 3221SOL     OW12649   5.624   1.054   3.311 -0.2958 -0.2746 -0.6748
 3221SOL    HW212650   5.577   1.039   3.393  2.9658 -0.0059  1.4254
 3221SOL    HW312651   5.618   0.970   3.264 -2.0132 -0.5090 -0.1154
 3221SOL    MW412652   5.617   1.041   3.316  0.5522  0.3706  0.1144
 3222SOL     OW12653   6.374   0.709   0.995  1.0522 -0.3540  0.3378
 3222SOL    HW212654   6.449   0.681   1.048  2.0725 -3.4140 -2.4043
 3222SOL    HW312655   6.410   0.721   0.907 -1.5162 -0.9479 -0.8648
 3222SOL    MW412656   6.389   0.707   0.991  0.1193 -0.5549 -0.0173
 3223SOL     OW12657   0.862   1.295   4.922  0.0891  0.3310  0.0982
 3223SOL    HW212658   0.920   1.260   4.854  0.2147  0.2466  0.2490
 3223SOL    HW312659   0.914   1.292   5.002 -0.2849 -0.1970  0.3274
 3223SOL    MW412660   0.876   1.290   4.924 -0.0438  0.1892 -0.2279
 3224SOL     OW12661   0.932  -0.006   4.465 -0.5611 -0.2747  0.9699
 3224SOL    HW212662   0.881   0.074   4.476  0.7395  0.4655  1.7873
 3224SOL    HW312663   1.022   0.024   4.450 -0.1280 -1.5748  0.8049
 3224SOL    MW412664   0.937   0.008   4.464 -0.0684  0.0181  0.0894
 3225SOL     OW12665   3.358   0.568   1.424  1.0664  0.1892 -0.5155
 3225SOL    HW212666   3.404   0.645   1.391 -0.6889  0.8118 -1.5927
 3225SOL    HW312667   3.300   0.542   1.353  1.3977 -1.9865 -0.0685
 3225SOL    MW412668   3.357   0.575   1.410 -0.1654  0.0756  0.1934
 3226SOL     OW12669   3.374   3.722   0.583 -0.5026 -0.5760 -0.1897
 3226SOL    HW212670   3.354   3.815   0.594  0.0570 -0.5609  0.8074
 3226SOL    HW312671   3.328   3.697   0.503  0.8215  0.9937 -1.5312
 3226SOL    MW412672   3.365   3.731   0.574 -0.0014  0.4233 -0.1290
 3227SOL     OW12673   3.484   0.197   2.718 -0.3192 -0.3863  0.0069
 3227SOL    HW212674   3.502   0.103   2.704 -2.3800 -0.5335 -2.4384
 3227SOL    HW312675   3.542   0.241   2.656 -0.1582 -0.1065  0.3555
 3227SOL    MW412676   3.494   0.190   2.708 -0.1659 -0.0987 -0.1937
 3228SOL     OW12677   5.392   3.600   2.073 -0.5702  0.4982 -0.8786
 3228SOL    HW212678   5.317   3.543   2.090 -0.0986  0.5116  1.5607
 3228SOL    HW312679   5.415   3.583   1.981 -2.6718 -0.5180 -1.2724
 3228SOL    MW412680   5.385   3.590   2.063 -0.0506 -0.3128 -0.3138
 3229SOL     OW12681   1.665   5.832   0.799 -0.2263 -0.1747  0.5819
 3229SOL    HW212682   1.592   5.884   0.765 -1.1249 -1.5914  0.2523
 3229SOL    HW312683   1.624   5.749   0.826  1.0086 -0.3739  1.9442
 3229SOL    MW412684   1.650   5.828   0.798  0.3853 -0.1718 -0.6731
 3230SOL     OW12685   2.120   4.730   2.921 -0.2588 -0.0586  0.5143
 3230SOL    HW212686   2.189   4.735   2.854  0.5382 -1.6053  1.1675
 3230SOL    HW312687   2.163   4.758   3.002 -0.6976 -0.0108  0.7327
 3230SOL    MW412688   2.135   4.734   2.923  0.5003  0.3304  0.6071
 3231SOL     OW12689   0.884   3.369   5.327 -0.9885  0.0006  0.1479
 3231SOL    HW212690   0.969   3.402   5.355 -0.4342 -0.2292 -1.2044
 3231SOL    HW312691   0.871   3.289   5.378 -0.8849  0.5836  1.1161
 3231SOL    MW412692   0.893   3.363   5.338  0.1784  0.0039 -0.3045
 3232SOL     OW12693   0.524   3.829   3.571 -0.1904 -0.3713 -0.2853
 3232SOL    HW212694   0.595   3.868   3.623 -2.8267  1.3837  2.2765
 3232SOL    HW312695   0.537   3.866   3.483  1.1235  1.2354  0.5143
 3232SOL    MW412696   0.535   3.839   3.566  0.0611 -0.0525  0.2070
 3233SOL     OW12697   1.768   2.953   1.167 -0.4559  0.0158  0.2875
 3233SOL    HW212698   1.792   2.994   1.084  1.1135  0.6568  1.0195
 3233SOL    HW312699   1.686   2.996   1.192 -1.4791 -0.8704 -1.3679
 3233SOL    MW412700   1.761   2.964   1.159  0.1505 -0.0376 -0.3365
 3234SOL     OW12701   1.046   2.921   6.236  0.2804 -0.2761 -0.1118
 3234SOL    HW212702   0.990   2.985   6.282  0.3658 -1.5560  1.8764
 3234SOL    HW312703   1.029   2.838   6.280  2.3280 -1.0816 -0.7266
 3234SOL    MW412704   1.036   2.919   6.248 -0.5606 -0.3581 -0.0181
 3235SOL     OW12705   0.034   5.653   3.500  0.5470  0.3350 -0.5103
 3235SOL    HW212706   0.100   5.720   3.480  1.1767  0.0282  0.4524
 3235SOL    HW312707   0.085   5.579   3.534 -0.3756  0.6622  1.7724
 3235SOL    MW412708   0.049   5.652   3.502  0.0375 -0.9447 -0.2659
 3236SOL     OW12709   4.650   1.794   0.823 -0.5985  0.8304  0.3244
 3236SOL    HW212710   4.712   1.855   0.783 -3.3695  3.2951 -0.5636
 3236SOL    HW312711   4.584   1.850   0.864 -1.7955 -1.6460  2.0525
 3236SOL    MW412712   4.650   1.810   0.823 -0.1962 -0.7965  0.4082
 3237SOL     OW12713   2.031   1.213   3.624 -0.0843 -0.5227 -0.2082
 3237SOL    HW212714   2.031   1.293   3.571  0.4354 -0.4271 -0.0699
 3237SOL    HW312715   2.075   1.238   3.705  1.5409 -1.3585 -0.7977
 3237SOL    MW412716   2.037   1.227   3.628  0.5639 -0.0028  0.0706
 3238SOL     OW12717   6.251   3.604   4.900 -0.6965 -0.0767  0.2721
 3238SOL    HW212718   6.239   3.643   4.814 -0.6521 -0.7921 -0.0649
 3238SOL    HW312719   6.288   3.675   4.954 -1.0958  0.4854 -0.1842
 3238SOL    MW412720   6.254   3.619   4.896  0.2552  0.0168  0.4459
 3239SOL     OW12721   1.491   0.985   3.183  0.0137  0.4928  0.1749
 3239SOL    HW212722   1.438   1.039   3.241 -1.3687 -0.4988 -0.1214
 3239SOL    HW312723   1.523   1.045   3.116 -1.7447  0.9307 -0.3170
 3239SOL    MW412724   1.489   1.000   3.182  0.7854 -0.2679 -0.7706
 3240SOL     OW12725   1.960   2.683   5.118 -0.1244  0.9349  0.3837
 3240SOL    HW212726   1.989   2.614   5.058 -0.8933  0.1662  0.8768
 3240SOL    HW312727   2.002   2.763   5.084 -0.4066  0.4958 -1.0750
 3240SOL    MW412728   1.970   2.684   5.105 -0.5430 -0.5387 -0.1611
 3241SOL     OW12729   2.341   1.369   1.068  0.0628  0.3096 -0.2514
 3241SOL    HW212730   2.315   1.447   1.117  0.3543  0.3546 -0.1671
 3241SOL    HW312731   2.265   1.312   1.072  0.4217 -0.1069  1.1141
 3241SOL    MW412732   2.328   1.372   1.075  0.4468  0.3445  0.4233
 3242SOL     OW12733   2.109   2.351   3.557  0.2707  1.4915  0.2234
 3242SOL    HW212734   2.139   2.266   3.524  2.2725  1.3277  2.1670
 3242SOL    HW312735   2.075   2.396   3.480  0.2388 -0.6186 -1.0851
 3242SOL    MW412736   2.109   2.346   3.543  0.4480 -0.2979 -0.8116
 3243SOL     OW12737   3.094   3.927   4.416  0.0105  0.7382  0.0383
 3243SOL    HW212738   3.009   3.884   4.429  0.4835 -0.2493 -0.0744
 3243SOL    HW312739   3.109   3.924   4.322  0.7841 -0.3145  0.1819
 3243SOL    MW412740   3.085   3.921   4.406 -0.4204 -0.2876  0.1887
 3244SOL     OW12741   0.528   0.306   1.822 -0.0719  0.1907 -0.0809
 3244SOL    HW212742   0.526   0.402   1.826 -1.1276  0.1520  0.8173
 3244SOL    HW312743   0.521   0.285   1.729 -2.0996  0.9720 -0.1455
 3244SOL    MW412744   0.527   0.316   1.810 -0.2749  0.0109  0.3904
 3245SOL     OW12745   2.537   1.006   0.505  0.2607 -0.0704  0.1632
 3245SOL    HW212746   2.616   0.964   0.541  0.0071  0.4018  1.2934
 3245SOL    HW312747   2.510   1.069   0.571 -1.3543 -0.5597  0.0172
 3245SOL    MW412748   2.544   1.008   0.518  0.4252 -0.2828 -0.0499
 3246SOL     OW12749   3.096   2.617   3.846 -0.3331 -0.2599 -0.2287
 3246SOL    HW212750   3.038   2.632   3.772  0.1633  2.0092 -0.2374
 3246SOL    HW312751   3.179   2.589   3.806 -0.6640 -1.0756 -0.3672
 3246SOL    MW412752   3.100   2.615   3.831  0.4393 -0.1936 -0.2613
 3247SOL     OW12753   4.272   4.007   3.978 -0.0335 -0.3395 -0.5461
 3247SOL    HW212754   4.208   4.069   3.943 -0.2772 -1.6456 -2.5425
 3247SOL    HW312755   4.335   3.994   3.907  0.4500 -1.7939  0.1091
 3247SOL    MW412756   4.272   4.014   3.964 -0.4147  0.3323  0.3157
 3248SOL     OW12757   1.859   1.918   1.178  0.2063 -0.2604  0.1356
 3248SOL    HW212758   1.947   1.881   1.175  0.2823 -0.0326 -0.8418
 3248SOL    HW312759   1.827   1.897   1.266  2.1979  1.9242  1.5240
 3248SOL    MW412760   1.867   1.910   1.189 -0.2251 -0.2295  0.3713
 3249SOL     OW12761   4.268   4.374   3.492  0.1604  0.2301  0.1006
 3249SOL    HW212762   4.209   4.447   3.470 -0.0688 -0.3427 -1.3034
 3249SOL    HW312763   4.219   4.323   3.556  0.1168  1.0261  0.7265
 3249SOL    MW412764   4.254   4.377   3.497  0.6832  0.5256 -0.0793
 3250SOL     OW12765   4.940   6.207   2.632 -0.1936 -0.2837 -0.1331
 3250SOL    HW212766   4.890   6.155   2.568 -1.2135 -1.7165  1.7287
 3250SOL    HW312767   5.031   6.188   2.611 -0.5109 -3.6240  0.9423
 3250SOL    MW412768   4.945   6.197   2.621 -0.3161  0.5168 -0.0394
 3251SOL     OW12769   3.038   5.659   6.195 -0.0082  0.1681  0.1859
 3251SOL    HW212770   2.984   5.610   6.257 -0.3251 -3.7007 -2.7430
 3251SOL    HW312771   3.126   5.624   6.207 -0.0404 -0.5067 -1.3031
 3251SOL    MW412772   3.043   5.648   6.205 -0.8100 -0.4936 -0.4108
 3252SOL     OW12773   5.279   1.138   4.787 -0.0652  0.7610  0.4052
 3252SOL    HW212774   5.250   1.143   4.878 -0.9330 -1.6294  0.3333
 3252SOL    HW312775   5.207   1.177   4.738 -0.7539 -0.2006  0.6128
 3252SOL    MW412776   5.265   1.144   4.793  0.1974  0.0068 -0.0656
 3253SOL     OW12777   1.082   4.540   0.943  0.3400 -0.2895  0.4092
 3253SOL    HW212778   1.138   4.618   0.943 -0.6624  0.5467  2.6354
 3253SOL    HW312779   1.051   4.532   0.853  3.1837 -0.2285 -0.6883
 3253SOL    MW412780   1.085   4.549   0.931 -0.2262 -0.4403  0.3533
 3254SOL     OW12781   3.317   3.133   3.095  0.4970 -0.0362 -0.0644
 3254SOL    HW212782   3.336   3.058   3.039 -0.6003 -1.8611  1.8864
 3254SOL    HW312783   3.403   3.171   3.113  0.9881 -0.2329 -1.8130
 3254SOL    MW412784   3.331   3.128   3.090  0.3793  0.1309  0.5678
 3255SOL     OW12785   1.883   2.219   0.930  0.6435 -0.0178 -0.4675
 3255SOL    HW212786   1.909   2.261   0.847  2.1391  0.5410  0.2451
 3255SOL    HW312787   1.940   2.143   0.937  2.4185  1.3600  1.2405
 3255SOL    MW412788   1.894   2.215   0.920  0.8262  0.0546 -0.4186
 3256SOL     OW12789   0.196   1.130   5.713  0.4564 -0.2727 -0.2338
 3256SOL    HW212790   0.112   1.083   5.712  0.1937  0.1508 -2.0459
 3256SOL    HW312791   0.254   1.074   5.765 -0.6226 -1.1667  0.0554
 3256SOL    MW412792   0.192   1.116   5.720 -0.6236  0.1231  0.5919
 3257SOL     OW12793   6.125   4.010   2.068  0.0426 -0.7213 -0.5192
 3257SOL    HW212794   6.121   4.088   2.013  0.0886  0.1161  0.6243
 3257SOL    HW312795   6.036   3.999   2.101  0.1141 -0.9286 -0.3918
 3257SOL    MW412796   6.113   4.019   2.065  0.5944 -0.1505  0.6931
 3258SOL     OW12797   3.648   0.802   1.729  0.4031  0.1934 -0.0691
 3258SOL    HW212798   3.711   0.742   1.770 -0.9738 -1.4839 -0.2460
 3258SOL    HW312799   3.687   0.825   1.645  0.8789 -0.6511 -0.0914
 3258SOL    MW412800   3.661   0.797   1.723  0.4386  0.1901  0.1671
 3259SOL     OW12801   0.181   6.288   1.439 -0.0167  0.4105  0.2467
 3259SOL    HW212802   0.237   6.362   1.460  0.9806 -0.2055 -0.1139
 3259SOL    HW312803   0.236   6.232   1.384  0.0795 -1.7196  2.3676
 3259SOL    MW412804   0.196   6.290   1.434 -0.0674 -0.3904 -0.0280
 3260SOL     OW12805   1.500   3.341   1.432  0.5136 -0.3454  0.6547
 3260SOL    HW212806   1.413   3.370   1.458  0.4369 -1.4396  1.6958
 3260SOL    HW312807   1.485   3.283   1.357  0.5441  1.0472 -0.4660
 3260SOL    MW412808   1.487   3.337   1.425  0.2561 -0.1563 -0.3504
 3261SOL     OW12809   5.471   3.866   1.555 -0.3212 -0.2434  0.1376
 3261SOL    HW212810   5.407   3.825   1.613 -3.4465  1.9069 -1.4775
 3261SOL    HW312811   5.443   3.841   1.467  2.4589 -0.9588 -0.6489
 3261SOL    MW412812   5.459   3.858   1.551 -0.3547  0.1604 -0.7215
 3262SOL     OW12813   3.438   1.551   0.372 -0.0244  0.0540  0.4182
 3262SOL    HW212814   3.433   1.602   0.453 -3.2387  1.2568 -0.3504
 3262SOL    HW312815   3.486   1.472   0.396  0.6308  1.1239  3.0164
 3262SOL    MW412816   3.443   1.548   0.386  0.1684  0.3189  0.2838
 3263SOL     OW12817   5.679   4.163   0.160 -0.2349  0.1688 -0.6496
 3263SOL    HW212818   5.655   4.234   0.219  0.3325 -0.4254  0.3322
 3263SOL    HW312819   5.763   4.191   0.123 -0.0785  0.0674 -0.3701
 3263SOL    MW412820   5.687   4.176   0.163 -0.1385  0.3636  0.2406
 3264SOL     OW12821   4.189   4.528   3.775 -0.1473 -0.1733 -0.9799
 3264SOL    HW212822   4.095   4.545   3.776 -0.0105  0.6069 -0.9105
 3264SOL    HW312823   4.227   4.606   3.733  0.7539  0.9940  1.7670
 3264SOL    MW412824   4.182   4.541   3.769 -0.1996  0.2603  0.2481
 3265SOL     OW12825   4.233   3.023   3.394  0.1336  0.0264 -0.1653
 3265SOL    HW212826   4.323   3.028   3.361 -0.2921 -0.7938 -1.5425
 3265SOL    HW312827   4.212   3.113   3.418  1.1710  0.3015 -0.2217
 3265SOL    MW412828   4.242   3.036   3.393 -0.9715 -0.3769 -0.2531
 3266SOL     OW12829   2.172   1.451   4.652 -0.4942 -0.6586 -0.1871
 3266SOL    HW212830   2.211   1.534   4.625 -1.7991 -0.2136 -0.7616
 3266SOL    HW312831   2.148   1.464   4.743 -0.4729 -0.4964 -0.2046
 3266SOL    MW412832   2.174   1.464   4.660  0.3376 -0.2201  0.7514
 3267SOL     OW12833   5.979   3.565   5.816 -0.0826  0.3310  0.0214
 3267SOL    HW212834   5.983   3.640   5.874 -4.1279 -0.9554  2.3959
 3267SOL    HW312835   6.052   3.509   5.843 -0.1203  1.1149  1.8515
 3267SOL    MW412836   5.989   3.567   5.827 -0.3096 -0.4651 -0.0309
 3268SOL     OW12837   5.772   0.331   4.925 -0.3420 -0.1965 -0.2340
 3268SOL    HW212838   5.794   0.238   4.934 -1.9894 -0.5431  0.6192
 3268SOL    HW312839   5.799   0.353   4.836  0.5917 -1.3327 -0.2646
 3268SOL    MW412840   5.778   0.322   4.915 -0.1764  0.5968  0.3010
 3269SOL     OW12841   1.625   2.351   6.319 -0.1109  0.1242 -0.0722
 3269SOL    HW212842   1.672   2.341   6.402  1.1840 -0.5042 -0.8491
 3269SOL    HW312843   1.694   2.348   6.252 -1.2845 -1.3718 -1.2926
 3269SOL    MW412844   1.641   2.349   6.321  0.1224 -0.3117 -0.0024
 3270SOL     OW12845   5.354   4.565   4.510 -0.5208  0.1867  0.3058
 3270SOL    HW212846   5.388   4.484   4.548 -0.4685  0.1892  0.2656
 3270SOL    HW312847   5.360   4.551   4.416 -0.5587  0.2178  0.2987
 3270SOL    MW412848   5.359   4.552   4.503 -0.1466  0.3280  0.3193
 3271SOL     OW12849   2.130   5.214   3.315  0.0522  0.2509 -0.2825
 3271SOL    HW212850   2.164   5.144   3.259  0.9964 -0.6351  1.3414
 3271SOL    HW312851   2.206   5.270   3.332 -0.7306  1.8409 -1.7225
 3271SOL    MW412852   2.145   5.213   3.310  0.1297  0.4573  0.4286
 3272SOL     OW12853   2.907   3.829   5.248 -0.6513  0.4947  0.1342
 3272SOL    HW212854   2.896   3.786   5.333  0.4481  0.2806  0.1755
 3272SOL    HW312855   2.988   3.878   5.256 -0.4111  0.2767 -0.8742
 3272SOL    MW412856   2.916   3.830   5.260 -0.1539  0.2038  0.1799
 3273SOL     OW12857   4.733   1.134   2.763 -0.0620  0.6295  0.0478
 3273SOL    HW212858   4.648   1.169   2.791 -0.0587  0.9684 -0.3527
 3273SOL    HW312859   4.766   1.199   2.701 -0.3821 -0.4095 -1.2590
 3273SOL    MW412860   4.726   1.147   2.759  0.4828  0.2231  0.6044
 3274SOL     OW12861   1.213   6.103   2.333  0.1857  0.5725 -0.0956
 3274SOL    HW212862   1.120   6.112   2.312  0.4715  0.6213 -1.3594
 3274SOL    HW312863   1.226   6.159   2.410 -1.0237 -0.1960  0.7037
 3274SOL    MW412864   1.203   6.112   2.341 -0.0669 -0.5037 -0.8243
 3275SOL     OW12865   3.924   1.952   3.281  0.4099  0.8941 -0.0947
 3275SOL    HW212866   3.996   1.958   3.218  0.2246  1.1123 -0.2874
 3275SOL    HW312867   3.845   1.952   3.227  0.2923 -0.6106  0.0324
 3275SOL    MW412868   3.923   1.952   3.265  0.4074 -0.0830 -0.1959
 3276SOL     OW12869   0.213   4.009   0.059  0.1666  0.3255  0.0319
 3276SOL    HW212870   0.264   4.067   0.117 -1.3229  1.5994  0.1307
 3276SOL    HW312871   0.139   3.981   0.113 -1.7016  2.1884 -1.4199
 3276SOL    MW412872   0.210   4.013   0.074  0.0249 -0.0773 -0.2419
 3277SOL     OW12873   4.302   5.781   1.970 -0.0282  0.3990 -0.5265
 3277SOL    HW212874   4.381   5.775   1.917 -0.0551 -0.0367 -0.5221
 3277SOL    HW312875   4.333   5.803   2.057  0.0386  0.8302 -0.6562
 3277SOL    MW412876   4.316   5.783   1.974  0.0420  0.2970 -0.3151
 3278SOL     OW12877   4.158   1.351   3.008 -0.2232 -0.0473 -0.5328
 3278SOL    HW212878   4.129   1.308   3.089 -0.9355  0.5039 -0.4868
 3278SOL    HW312879   4.187   1.437   3.037 -2.0115  0.7736 -1.0504
 3278SOL    MW412880   4.158   1.356   3.023  0.1918  0.1557 -0.2387
 3279SOL     OW12881   6.367   2.616   0.711  0.0127  0.0782 -0.2359
 3279SOL    HW212882   6.434   2.634   0.777 -2.4362  0.4547  2.3330
 3279SOL    HW312883   6.296   2.574   0.759 -1.6100 -0.4124 -2.8427
 3279SOL    MW412884   6.367   2.613   0.726 -0.3956 -0.1768  0.3372
 3280SOL     OW12885   6.054   5.636   5.656  0.4203  0.0891 -0.1253
 3280SOL    HW212886   6.070   5.614   5.564 -2.6114 -2.2995 -0.2552
 3280SOL    HW312887   6.096   5.566   5.705  0.1730  0.1415  0.1643
 3280SOL    MW412888   6.062   5.624   5.650 -0.4009  0.3124  0.1708
 3281SOL     OW12889   3.320   3.875   2.978  0.1292  0.1906 -0.1369
 3281SOL    HW212890   3.286   3.844   2.894  1.0530 -0.4760 -0.2898
 3281SOL    HW312891   3.376   3.803   3.008  2.4423  1.7110 -0.5523
 3281SOL    MW412892   3.323   3.861   2.971 -0.4410  0.7219  0.1224
 3282SOL     OW12893   4.223   4.600   4.146  0.0610 -0.4486  0.4300
 3282SOL    HW212894   4.297   4.608   4.205 -0.4692 -1.0530  1.1895
 3282SOL    HW312895   4.229   4.512   4.110 -0.6953 -0.7823  1.0762
 3282SOL    MW412896   4.233   4.590   4.149  0.2700 -0.5114  0.2454
 3283SOL     OW12897   0.637   4.010   6.420 -0.1030  0.5548  0.4947
 3283SOL    HW212898   0.664   4.025   6.511  0.0073  0.1075  0.5377
 3283SOL    HW312899   0.707   3.958   6.382  0.5664  1.9856 -0.2808
 3283SOL    MW412900   0.649   4.005   6.427  0.0216  0.7430  0.1498
 3284SOL     OW12901   1.903   1.355   5.487 -0.1141 -0.2392 -0.0869
 3284SOL    HW212902   1.826   1.392   5.443 -0.5751 -2.7698 -1.5940
 3284SOL    HW312903   1.884   1.365   5.580 -0.8082  1.9506 -0.3997
 3284SOL    MW412904   1.891   1.361   5.494  0.7104  0.8719 -0.0047
 3285SOL     OW12905   4.535   4.823   0.931 -0.1607 -0.7724 -0.6199
 3285SOL    HW212906   4.572   4.740   0.963  0.1812 -0.8547 -1.2172
 3285SOL    HW312907   4.611   4.877   0.910 -0.3823 -0.5898 -0.9557
 3285SOL    MW412908   4.550   4.819   0.932 -0.1716 -0.0237  0.7726
 3286SOL     OW12909   4.657   3.361   4.708 -0.6029  0.1492 -0.5144
 3286SOL    HW212910   4.608   3.290   4.667 -0.2189 -0.5694  0.2639
 3286SOL    HW312911   4.748   3.344   4.686 -0.2033 -1.1253  1.8797
 3286SOL    MW412912   4.662   3.350   4.700  0.3312 -0.2576  0.2513
 3287SOL     OW12913   4.636   3.284   6.153 -0.2042  0.8764  0.2152
 3287SOL    HW212914   4.724   3.248   6.163 -0.3188  0.0848 -1.4178
 3287SOL    HW312915   4.604   3.249   6.070 -2.6981 -0.1891  1.4973
 3287SOL    MW412916   4.644   3.275   6.143 -0.1519 -0.6512 -0.2392
 3288SOL     OW12917   1.034   3.282   3.652 -0.4797  0.0257 -0.1367
 3288SOL    HW212918   0.962   3.323   3.603  0.7070  0.1892 -1.8626
 3288SOL    HW312919   1.105   3.347   3.649  0.5565 -1.0855 -0.6376
 3288SOL    MW412920   1.034   3.296   3.645 -0.1484  0.1621  0.4013
 3289SOL     OW12921   3.595   2.252   1.035  0.0852 -0.3523 -0.2856
 3289SOL    HW212922   3.580   2.323   1.098 -2.2970 -0.0091 -1.1477
 3289SOL    HW312923   3.581   2.172   1.085 -0.2397 -0.1234 -0.0040
 3289SOL    MW412924   3.591   2.251   1.050 -0.7020  0.6848 -0.2532
 3290SOL     OW12925   3.274   5.513   1.548  0.2466 -0.1404  0.0800
 3290SOL    HW212926   3.251   5.606   1.552  0.5833 -0.0714  0.4646
 3290SOL    HW312927   3.190   5.468   1.541  0.0329  0.1573  0.6127
 3290SOL    MW412928   3.259   5.520   1.548 -0.2443 -0.0954 -0.3215
 3291SOL     OW12929   0.500   2.651   3.922  0.1619  0.0456 -0.4198
 3291SOL    HW212930   0.523   2.613   3.838 -0.8482 -0.8500 -0.3085
 3291SOL    HW312931   0.548   2.598   3.986  0.1399  0.0944 -0.3620
 3291SOL    MW412932   0.510   2.639   3.920  0.0991 -0.0391 -0.4200
 3292SOL     OW12933   5.002   6.218   0.341  0.4105 -0.2251  0.0617
 3292SOL    HW212934   4.955   6.174   0.270 -1.1260  0.3744  0.6641
 3292SOL    HW312935   5.013   6.308   0.310  0.6418 -0.2176  0.1658
 3292SOL    MW412936   4.997   6.224   0.327  0.0995  0.5180 -0.0288
 3293SOL     OW12937   5.326   1.055   0.718 -0.4819 -0.3348 -0.1327
 3293SOL    HW212938   5.364   1.128   0.670 -1.2154  0.0132 -0.1956
 3293SOL    HW312939   5.288   1.094   0.797  0.7650 -0.9058  0.7849
 3293SOL    MW412940   5.326   1.070   0.722 -0.2034 -0.0710  0.7869
 3294SOL     OW12941   5.762   2.084   1.227 -0.0763 -0.0006  0.4401
 3294SOL    HW212942   5.829   2.076   1.159  0.0091  2.0382  0.2189
 3294SOL    HW312943   5.805   2.053   1.307  0.3060 -1.0302 -0.1514
 3294SOL    MW412944   5.777   2.079   1.229  0.2857 -0.0453 -0.1688
 3295SOL     OW12945   4.630   5.857   2.964  0.4853  0.4138  0.3091
 3295SOL    HW212946   4.616   5.809   3.045  0.1587  0.4000  0.2463
 3295SOL    HW312947   4.683   5.799   2.910  0.4615  0.3037  0.4037
 3295SOL    MW412948   4.635   5.843   2.967 -0.4887 -0.1874  0.6796
 3296SOL     OW12949   3.462   4.671   1.402 -0.2261 -0.5182 -0.7067
 3296SOL    HW212950   3.389   4.685   1.341 -0.4411 -0.2808 -0.4032
 3296SOL    HW312951   3.461   4.749   1.458  1.1022  0.1238 -1.5402
 3296SOL    MW412952   3.452   4.683   1.401  0.1752  0.1798  0.3162
 3297SOL     OW12953   3.798   4.918   5.743 -0.1509 -0.2153 -0.1190
 3297SOL    HW212954   3.754   4.853   5.687 -0.0631 -0.3790  0.0022
 3297SOL    HW312955   3.869   4.869   5.785 -0.5953 -0.2460  0.6120
 3297SOL    MW412956   3.801   4.903   5.741  0.5981  0.5827  0.4232
 3298SOL     OW12957   1.837   5.769   1.286  0.3479 -0.0685 -0.1443
 3298SOL    HW212958   1.777   5.824   1.237 -0.5652 -0.6748  0.2753
 3298SOL    HW312959   1.859   5.821   1.364 -0.5572 -0.3072  0.2801
 3298SOL    MW412960   1.832   5.784   1.290  0.1385  0.5371  0.6011
 3299SOL     OW12961   4.596   1.362   1.494 -0.6373 -0.2818 -0.0192
 3299SOL    HW212962   4.689   1.344   1.506 -0.5682 -0.3605 -0.6523
 3299SOL    HW312963   4.576   1.431   1.558 -0.1936 -0.4031  0.2518
 3299SOL    MW412964   4.605   1.369   1.504 -0.5143  0.8487 -0.1645
 3300SOL     OW12965   2.182   3.622   5.644 -0.2111 -0.0931 -0.6855
 3300SOL    HW212966   2.232   3.540   5.653  0.1466  0.2644  1.0165
 3300SOL    HW312967   2.239   3.679   5.592  1.7857  0.6882  2.0981
 3300SOL    MW412968   2.196   3.618   5.638  0.3929  0.0450  0.3247
 3301SOL     OW12969   6.202   3.703   3.762  0.0768  0.2379 -0.2313
 3301SOL    HW212970   6.291   3.677   3.787  0.9870  1.8118 -1.5963
 3301SOL    HW312971   6.154   3.707   3.844  0.5174 -3.0535  0.3200
 3301SOL    MW412972   6.207   3.700   3.776  0.3999 -0.3477 -0.1752
 3302SOL     OW12973   0.531   0.524   0.816 -0.0119 -0.3932  0.2069
 3302SOL    HW212974   0.599   0.499   0.754 -0.5301 -0.3248 -0.3955
 3302SOL    HW312975   0.459   0.557   0.762 -0.6907 -0.8420  0.8087
 3302SOL    MW412976   0.531   0.525   0.801  0.5312  0.4384  0.4002
 3303SOL     OW12977   2.662   4.730   3.323 -0.6135 -0.2419 -0.0456
 3303SOL    HW212978   2.650   4.645   3.282 -0.0985 -0.6564  0.6509
 3303SOL    HW312979   2.614   4.791   3.266  0.1875 -0.7739 -1.3310
 3303SOL    MW412980   2.654   4.727   3.310 -0.0194 -0.0381 -0.3589
 3304SOL     OW12981   4.905   1.074   1.831  0.7786  0.7096 -0.3163
 3304SOL    HW212982   4.901   0.999   1.890  3.7277  0.9568  0.3671
 3304SOL    HW312983   4.901   1.036   1.743  1.9830 -0.2932  0.0234
 3304SOL    MW412984   4.904   1.059   1.827  0.0809 -0.2736  0.1198
 3305SOL     OW12985   1.270   6.230   6.156  0.7899  0.1735  0.0508
 3305SOL    HW212986   1.324   6.185   6.091  1.3519 -1.3157  1.4675
 3305SOL    HW312987   1.233   6.305   6.109  1.3976 -0.6689 -1.8813
 3305SOL    MW412988   1.272   6.234   6.141 -0.1319  0.0092 -0.3382
 3306SOL     OW12989   2.477   6.038   0.464  0.3253  0.2342 -0.0492
 3306SOL    HW212990   2.411   6.084   0.412 -0.6981  1.9587  2.5799
 3306SOL    HW312991   2.544   6.103   0.481 -0.1303  0.2182  2.0191
 3306SOL    MW412992   2.477   6.053   0.459 -0.2486 -0.2834  0.0263
 3307SOL     OW12993   1.461   1.098   4.875  0.0367 -0.0780 -0.2454
 3307SOL    HW212994   1.543   1.114   4.828  2.3233 -3.5366  2.0614
 3307SOL    HW312995   1.413   1.038   4.820  0.4162 -0.2992 -0.3405
 3307SOL    MW412996   1.466   1.092   4.862  0.8638  0.4680 -0.0981
 3308SOL     OW12997   2.660   0.131   0.525  0.0294  0.4691  0.4589
 3308SOL    HW212998   2.716   0.209   0.514  0.4383  0.0994 -0.1155
 3308SOL    HW312999   2.722   0.058   0.533 -0.3484  0.2155  1.1663
 3308SOL    MW413000   2.676   0.132   0.524 -0.4531 -0.4533  0.2982
 3309SOL     OW13001   1.708   6.096   3.121 -0.6847 -0.1941 -0.6284
 3309SOL    HW213002   1.701   6.018   3.066  1.0817  0.4366 -1.8538
 3309SOL    HW313003   1.791   6.086   3.167 -0.0916  1.2052 -1.3100
 3309SOL    MW413004   1.718   6.085   3.120 -0.1633 -0.5217  0.3823
 3310SOL     OW13005   5.766   4.894   3.266 -0.4645 -0.3670 -0.0812
 3310SOL    HW213006   5.823   4.824   3.235  1.8312  1.5519 -0.4570
 3310SOL    HW313007   5.816   4.936   3.335 -2.2313  0.3004  0.8376
 3310SOL    MW413008   5.780   4.890   3.271  0.8349 -0.1866 -0.2724
 3311SOL     OW13009   3.866   2.551   1.011  0.6914  0.2366 -0.6210
 3311SOL    HW213010   3.858   2.489   0.939  0.3643 -0.1787 -0.2381
 3311SOL    HW313011   3.862   2.637   0.969  0.4127  0.0021 -1.0890
 3311SOL    MW413012   3.864   2.555   0.996 -0.4499  0.0351 -0.2842
 3312SOL     OW13013   3.617   2.352   0.152  0.0438  0.0230 -0.3478
 3312SOL    HW213014   3.698   2.310   0.179  0.0618  0.8762  0.9984
 3312SOL    HW313015   3.565   2.359   0.232 -1.6319 -1.0287 -1.2776
 3312SOL    MW413016   3.620   2.347   0.166  0.1258  0.7562  0.3025
 3313SOL     OW13017   5.453   5.303   2.379 -0.4175  1.1069  0.3322
 3313SOL    HW213018   5.368   5.287   2.422 -0.8668 -0.2120 -0.9674
 3313SOL    HW313019   5.518   5.277   2.444 -1.0810 -0.6095  0.3628
 3313SOL    MW413020   5.450   5.298   2.393 -0.4664  0.5239  0.8683
 3314SOL     OW13021   5.731   3.564   6.308 -0.0952 -0.6911 -0.0061
 3314SOL    HW213022   5.789   3.640   6.313  1.8447 -2.1533  2.3983
 3314SOL    HW313023   5.650   3.592   6.350 -1.1657  1.2626 -3.0340
 3314SOL    MW413024   5.728   3.578   6.314  0.4817 -0.3677 -0.0423
 3315SOL     OW13025   3.470   6.162   4.723 -0.3116 -0.1510  0.2900
 3315SOL    HW213026   3.514   6.133   4.643 -0.6626 -0.4796  0.2154
 3315SOL    HW313027   3.519   6.121   4.794  0.2208  0.4278  0.2672
 3315SOL    MW413028   3.482   6.153   4.722 -0.1096  0.4893  0.3467
 3316SOL     OW13029   4.694   3.475   3.696 -0.1852  0.0459 -0.1310
 3316SOL    HW213030   4.610   3.499   3.734  0.7454  1.8055  0.9589
 3316SOL    HW313031   4.688   3.501   3.605 -1.3079 -1.2431 -0.4688
 3316SOL    MW413032   4.682   3.481   3.689 -0.6498  0.2695 -0.8786
 3317SOL     OW13033   0.971   3.568   5.133  0.1607 -0.1381  0.4163
 3317SOL    HW213034   0.931   3.494   5.179  2.7109 -3.3454 -1.9725
 3317SOL    HW313035   0.917   3.580   5.055  0.3661 -0.2817  0.2495
 3317SOL    MW413036   0.959   3.560   5.129 -0.1445  0.1453 -0.3687
 3318SOL     OW13037   5.909   2.313   4.010  0.1564  0.4342  0.5635
 3318SOL    HW213038   5.933   2.292   3.920  2.9052 -0.8115  1.4739
 3318SOL    HW313039   5.932   2.405   4.021  0.4254  0.4110  0.1837
 3318SOL    MW413040   5.915   2.322   4.000  0.7144  0.2185  0.4926
 3319SOL     OW13041   4.838   2.605   2.713 -0.3727  0.4774 -0.4690
 3319SOL    HW213042   4.769   2.632   2.653 -0.0493  2.3396 -0.0491
 3319SOL    HW313043   4.915   2.593   2.658 -0.3339  1.1797 -0.5744
 3319SOL    MW413044   4.839   2.607   2.698  0.6238 -0.0502 -0.1195
 3320SOL     OW13045   4.364   0.554   2.393 -0.2191 -0.0665  0.0834
 3320SOL    HW213046   4.344   0.561   2.486  0.0013  0.5379  0.0926
 3320SOL    HW313047   4.280   0.541   2.351 -0.8225  3.2384  0.0373
 3320SOL    MW413048   4.351   0.553   2.400 -0.7421 -0.1243  1.2414
 3321SOL     OW13049   0.174   1.510   1.430 -0.1436  0.0859 -0.7003
 3321SOL    HW213050   0.187   1.415   1.439 -0.8764  0.0452  0.0075
 3321SOL    HW313051   0.260   1.548   1.450 -0.2473 -0.3412  0.6550
 3321SOL    MW413052   0.187   1.502   1.434 -0.0633 -0.5534  0.5454
 3322SOL     OW13053   1.881   0.407   4.969  0.0450 -0.1267  0.1748
 3322SOL    HW213054   1.903   0.416   4.876  0.2762 -0.0535  0.2372
 3322SOL    HW313055   1.915   0.487   5.010 -1.0568  0.3890  0.1363
 3322SOL    MW413056   1.888   0.419   4.962  0.3241  0.2387  0.1502
 3323SOL     OW13057   0.560   5.145   3.717 -0.5209  0.2651 -0.3158
 3323SOL    HW213058   0.586   5.213   3.778  1.3794  1.2841 -2.1092
 3323SOL    HW313059   0.628   5.078   3.725 -0.4391  0.2517 -1.0370
 3323SOL    MW413060   0.572   5.145   3.726  0.0889  0.6198  0.4091
 3324SOL     OW13061   3.609   3.333   4.256  0.6949  0.5124  0.0379
 3324SOL    HW213062   3.661   3.315   4.334  0.6686  0.5841  0.0714
 3324SOL    HW313063   3.595   3.427   4.256 -2.2864  0.2089  1.8997
 3324SOL    MW413064   3.614   3.343   4.266 -0.6539 -0.0214 -0.3663
 3325SOL     OW13065   4.774   2.724   5.846 -0.1890 -0.2333 -0.1356
 3325SOL    HW213066   4.728   2.769   5.775  1.8133 -0.8079 -1.8836
 3325SOL    HW313067   4.757   2.631   5.830  1.0219 -0.4186 -0.4569
 3325SOL    MW413068   4.766   2.717   5.834 -0.0247 -0.1897  0.6984
 3326SOL     OW13069   1.413   1.794   1.657  0.2020 -0.6350 -0.1513
 3326SOL    HW213070   1.456   1.737   1.593  0.8687  0.2133 -0.4802
 3326SOL    HW313071   1.478   1.805   1.726 -0.3177 -1.1150  0.4233
 3326SOL    MW413072   1.428   1.788   1.657  0.5459  0.1208 -0.0083
 3327SOL     OW13073   4.863   2.237   6.071  0.1300 -0.2335 -0.2352
 3327SOL    HW213074   4.884   2.209   5.982 -1.1875 -0.8628 -0.3809
 3327SOL    HW313075   4.768   2.223   6.078  0.0634  0.6904  0.9564
 3327SOL    MW413076   4.853   2.231   6.060  0.3276 -0.0054 -0.2996
 3328SOL     OW13077   0.531   3.589   5.078 -0.2557 -0.0133 -0.4098
 3328SOL    HW213078   0.534   3.602   4.983 -0.1980  3.1904 -0.0643
 3328SOL    HW313079   0.443   3.556   5.095  0.0626 -1.6212 -1.6275
 3328SOL    MW413080   0.520   3.586   5.068 -0.3902  0.7200  0.3416
 3329SOL     OW13081   4.422   2.241   1.042 -0.2466 -0.2867  0.0453
 3329SOL    HW213082   4.499   2.288   1.073  1.0819 -3.2831  1.7381
 3329SOL    HW313083   4.368   2.227   1.120 -0.1350 -2.2399 -0.1714
 3329SOL    MW413084   4.425   2.245   1.056  0.1385  0.4937 -0.1357
 3330SOL     OW13085   3.214   5.328   5.868  0.1891  0.2223 -0.4494
 3330SOL    HW213086   3.214   5.299   5.776 -1.4218  1.7342 -0.9852
 3330SOL    HW313087   3.140   5.282   5.908  0.1706  0.4572 -0.2135
 3330SOL    MW413088   3.204   5.318   5.861 -0.3691 -0.2378  0.1115
 3331SOL     OW13089   3.056  -0.030   6.202 -0.2138  0.1169 -0.1773
 3331SOL    HW213090   2.986  -0.094   6.191  2.2231 -2.9218  0.4918
 3331SOL    HW313091   3.091  -0.047   6.290  1.7241  1.1048 -0.6970
 3331SOL    MW413092   3.051  -0.040   6.212 -0.0781  0.2052 -0.0001
 3332SOL     OW13093   3.481   5.318   4.086 -0.1858  0.3086 -0.1864
 3332SOL    HW213094   3.535   5.330   4.008  0.7174 -1.5595  0.0957
 3332SOL    HW313095   3.430   5.239   4.068 -0.2086  0.0389  0.9616
 3332SOL    MW413096   3.482   5.309   4.073  0.0497 -0.0543 -0.3130
 3333SOL     OW13097   4.311   2.412   0.873  0.2919  0.5308 -0.3809
 3333SOL    HW213098   4.356   2.353   0.934  0.9003  1.9992  0.6514
 3333SOL    HW313099   4.376   2.429   0.805  0.1225  0.0346 -0.6695
 3333SOL    MW413100   4.326   2.407   0.872  0.8842  0.4288 -0.6016
 3334SOL     OW13101   2.807   0.350   0.522  0.0492 -0.0723  0.0332
 3334SOL    HW213102   2.804   0.367   0.427 -0.8279  0.7491  0.1874
 3334SOL    HW313103   2.818   0.436   0.561  1.2877 -0.5006  0.6680
 3334SOL    MW413104   2.808   0.363   0.514  0.1135  0.1163 -0.1146
 3335SOL     OW13105   5.071   5.753   1.516 -1.0005 -0.1346 -0.3772
 3335SOL    HW213106   5.162   5.779   1.527 -1.1359  0.7269 -1.1522
 3335SOL    HW313107   5.073   5.657   1.518 -0.0123 -0.1380 -0.8933
 3335SOL    MW413108   5.083   5.744   1.518 -0.0020  0.0161 -0.0284
 3336SOL     OW13109   3.031   2.617   3.183  0.2426  0.1686  1.0237
 3336SOL    HW213110   2.938   2.603   3.205  0.9392 -1.2025  3.4967
 3336SOL    HW313111   3.078   2.592   3.263  2.7308  1.5248  0.0766
 3336SOL    MW413112   3.025   2.612   3.197  0.0862 -0.4277  0.3398
 3337SOL     OW13113   0.426   0.478   6.304  0.0142  0.0266 -0.5433
 3337SOL    HW213114   0.369   0.403   6.285 -0.6562  0.5201 -0.4913
 3337SOL    HW313115   0.481   0.486   6.226  1.0151 -1.3355 -0.0248
 3337SOL    MW413116   0.426   0.469   6.291  0.2320  0.7974 -0.1047
 3338SOL     OW13117   5.966   4.228   1.217 -0.2862 -0.0106 -0.1700
 3338SOL    HW213118   6.056   4.215   1.248 -0.4201 -2.3755 -0.5595
 3338SOL    HW313119   5.944   4.317   1.243  2.0344  0.5042  0.2731
 3338SOL    MW413120   5.975   4.238   1.224  0.1647  0.1242 -0.3038
 3339SOL     OW13121   3.790   0.782   1.489 -0.4848 -0.1393  0.4919
 3339SOL    HW213122   3.704   0.768   1.450  0.1052 -1.4571 -0.3927
 3339SOL    HW313123   3.818   0.867   1.455 -2.2027  1.2539  2.3088
 3339SOL    MW413124   3.782   0.791   1.480  0.3957 -0.1565 -0.3096
 3340SOL     OW13125   5.195   4.761   0.438  0.1065 -0.0992  0.1657
 3340SOL    HW213126   5.241   4.679   0.421  0.7021 -0.1020  1.6364
 3340SOL    HW313127   5.116   4.756   0.385  0.5587 -1.2328 -0.4327
 3340SOL    MW413128   5.191   4.750   0.429 -0.5610  0.1170 -0.4905
 3341SOL     OW13129   4.225   1.389   4.728  0.5190 -0.0725 -0.1863
 3341SOL    HW213130   4.194   1.328   4.660  1.2206 -0.6152 -0.0360
 3341SOL    HW313131   4.160   1.383   4.797 -0.2076  0.4861 -0.8076
 3341SOL    MW413132   4.213   1.380   4.728  0.1587 -0.1153  0.0137
 3342SOL     OW13133   4.959   1.906   0.500  0.6271  0.6761  0.3587
 3342SOL    HW213134   4.906   1.938   0.573 -0.5503  0.0252 -0.1808
 3342SOL    HW313135   5.050   1.927   0.524  0.1763  1.2792  1.5743
 3342SOL    MW413136   4.964   1.913   0.513 -0.1709  0.2389 -0.7048
 3343SOL     OW13137   0.023   3.521   5.764 -0.0121  0.1948  0.0128
 3343SOL    HW213138  -0.066   3.555   5.756  0.1431  0.4968 -0.4978
 3343SOL    HW313139   0.054   3.513   5.673 -0.0514 -1.3302  0.1070
 3343SOL    MW413140   0.016   3.524   5.751 -0.0419 -0.7381 -0.2364
 3344SOL     OW13141   4.991   2.688   3.455  0.7491  0.3785  0.6128
 3344SOL    HW213142   5.031   2.770   3.483  0.0805  0.7162  0.5809
 3344SOL    HW313143   5.036   2.665   3.374 -0.4369  1.7558 -0.4650
 3344SOL    MW413144   5.002   2.696   3.448  0.4141 -0.7063 -0.0387
 3345SOL     OW13145   3.316   5.104   4.019  0.2627 -0.1509  0.2126
 3345SOL    HW213146   3.239   5.152   4.048  0.7896  0.5480  0.4875
 3345SOL    HW313147   3.353   5.158   3.948  1.1710  0.1511  0.8981
 3345SOL    MW413148   3.311   5.118   4.013  0.0775 -0.0548 -0.6310
 3346SOL     OW13149   2.994   0.104   5.644  0.2234 -0.7034 -1.1701
 3346SOL    HW213150   2.916   0.122   5.696  0.5197  1.3411 -1.3394
 3346SOL    HW313151   2.965   0.040   5.579 -1.2900 -0.0932 -1.1403
 3346SOL    MW413152   2.980   0.098   5.642  0.7487  0.0397 -0.2838
 3347SOL     OW13153   0.613   3.801   2.714 -0.3339  0.9515  0.3294
 3347SOL    HW213154   0.648   3.725   2.761  0.1950  0.8094 -0.2782
 3347SOL    HW313155   0.552   3.841   2.775  0.1808  0.6470  1.0535
 3347SOL    MW413156   0.609   3.796   2.728  0.1618  0.0989  0.2157
 3348SOL     OW13157   2.463   4.583   4.025 -0.1708 -0.1216 -0.1865
 3348SOL    HW213158   2.394   4.529   4.063  1.1048 -0.9151  1.1367
 3348SOL    HW313159   2.511   4.524   3.967  2.8673 -1.4171  3.2413
 3348SOL    MW413160   2.460   4.568   4.022  0.0525  0.2825  0.2215
 3349SOL     OW13161   4.889   1.602   3.365  0.4059 -0.3252  0.2009
 3349SOL    HW213162   4.961   1.579   3.306  0.2877  0.5896 -0.3294
 3349SOL    HW313163   4.927   1.599   3.452  1.7161  2.1941 -0.1890
 3349SOL    MW413164   4.903   1.599   3.369 -0.1174 -0.0515  0.2524
 3350SOL     OW13165   4.855   0.418   0.754  0.0327 -0.2500  0.4608
 3350SOL    HW213166   4.807   0.335   0.756 -0.1403 -0.1469  0.6590
 3350SOL    HW313167   4.946   0.394   0.766 -0.0530 -0.3864  0.8499
 3350SOL    MW413168   4.861   0.404   0.756  0.3175  0.9675  0.2964
 3351SOL     OW13169   3.605   5.999   3.000 -0.7742 -0.1319 -0.5917
 3351SOL    HW213170   3.560   5.976   2.919 -1.1315 -0.4707 -0.3005
 3351SOL    HW313171   3.681   5.941   3.003 -1.7973 -1.4534  0.2562
 3351SOL    MW413172   3.609   5.989   2.990 -0.5859 -0.0118 -0.0324
 3352SOL     OW13173   0.758   3.124   1.253 -0.2157  0.1942  0.3816
 3352SOL    HW213174   0.833   3.103   1.309 -0.5917  0.3919  0.9690
 3352SOL    HW313175   0.776   3.212   1.221 -0.1139  0.1774  0.3931
 3352SOL    MW413176   0.770   3.133   1.256  0.1858  0.3251  0.3341
 3353SOL     OW13177   2.247   1.366   0.765  0.1019  0.5746  0.4263
 3353SOL    HW213178   2.155   1.377   0.741  0.4658  1.6174 -0.5919
 3353SOL    HW313179   2.255   1.407   0.850 -0.7127 -1.0377  1.3286
 3353SOL    MW413180   2.236   1.373   0.773 -0.2818 -0.2008 -0.0851
 3354SOL     OW13181   4.588   2.158   6.097  0.0264  0.4376 -0.1823
 3354SOL    HW213182   4.549   2.125   6.016 -1.3268  1.6201 -0.0432
 3354SOL    HW313183   4.514   2.175   6.155  0.8732  1.0616  0.7555
 3354SOL    MW413184   4.573   2.156   6.094  0.0819  0.1455 -0.6080
 3355SOL     OW13185   1.211   3.293   1.868 -0.8719  0.2464  0.4830
 3355SOL    HW213186   1.169   3.289   1.954 -2.1544  1.7039 -0.0177
 3355SOL    HW313187   1.141   3.323   1.809 -0.2964 -1.6249 -1.2744
 3355SOL    MW413188   1.196   3.296   1.871 -0.1561 -0.5615 -0.4709
 3356SOL     OW13189   0.503   1.903   0.601  0.2100  0.0879 -0.3713
 3356SOL    HW213190   0.578   1.881   0.545  0.4996  0.6282 -0.2049
 3356SOL    HW313191   0.429   1.858   0.561  1.2257 -4.0247  1.7321
 3356SOL    MW413192   0.503   1.894   0.588 -0.5558  0.2774 -0.1123
 3357SOL     OW13193   5.926   0.262   3.700 -0.1141  0.4031  0.6116
 3357SOL    HW213194   5.911   0.191   3.638  0.4115  1.3871 -0.7095
 3357SOL    HW313195   5.963   0.220   3.777  1.0550 -0.6615 -0.4919
 3357SOL    MW413196   5.929   0.247   3.702  0.0058 -0.3553 -0.1670
 3358SOL     OW13197   1.862   3.439   6.093 -0.0585 -0.4108  0.2666
 3358SOL    HW213198   1.768   3.444   6.112  0.0670  0.3575  0.6981
 3358SOL    HW313199   1.888   3.529   6.075  0.7470 -0.5079  0.8879
 3358SOL    MW413200   1.853   3.451   6.093  0.5319  0.4012  0.3635
 3359SOL     OW13201   5.109   2.218   2.433  0.2528 -0.2082  1.1208
 3359SOL    HW213202   5.068   2.260   2.357  1.1547  0.0230  0.7354
 3359SOL    HW313203   5.038   2.173   2.478 -0.0084 -2.0192 -0.9580
 3359SOL    MW413204   5.095   2.217   2.429  0.2649 -0.8211 -0.0671
 3360SOL     OW13205   0.740   0.766   5.784  0.3631  0.7345  0.3094
 3360SOL    HW213206   0.773   0.683   5.817 -2.2264 -0.5109 -0.0224
 3360SOL    HW313207   0.779   0.774   5.697  0.8399  0.0048  0.4468
 3360SOL    MW413208   0.750   0.756   5.777 -0.4871  0.7031  0.4029
 3361SOL     OW13209   5.025   4.135   2.400 -0.6495 -0.0218  0.9213
 3361SOL    HW213210   4.997   4.081   2.326 -1.6802 -0.0495  1.3164
 3361SOL    HW313211   5.051   4.071   2.467 -1.0393 -0.0179  1.0772
 3361SOL    MW413212   5.025   4.119   2.399  0.0748  0.2228 -0.0422
 3362SOL     OW13213   5.468   5.728   0.906 -0.3758 -0.1346 -0.2821
 3362SOL    HW213214   5.404   5.661   0.883 -2.0622  0.8669  1.2292
 3362SOL    HW313215   5.505   5.756   0.822  0.9629 -3.3923 -0.9460
 3362SOL    MW413216   5.465   5.723   0.892  0.0300  0.1973 -0.0537
 3363SOL     OW13217   0.236   0.936   0.996 -0.1969 -0.0797 -0.2480
 3363SOL    HW213218   0.274   1.024   0.989 -0.4404  0.0835  0.4354
 3363SOL    HW313219   0.309   0.877   0.975 -0.0059  0.2793 -0.6068
 3363SOL    MW413220   0.251   0.940   0.992 -0.0277  0.4402  0.4234
 3364SOL     OW13221   3.102   2.185   5.167 -0.4749 -0.5401 -0.0269
 3364SOL    HW213222   3.187   2.201   5.208 -0.9702  0.6267  0.5690
 3364SOL    HW313223   3.069   2.107   5.211 -1.0273  0.7196  1.9215
 3364SOL    MW413224   3.109   2.177   5.179  0.2978 -0.0080  0.1193
 3365SOL     OW13225   0.285   1.062   0.288 -0.2137  0.7048  0.4679
 3365SOL    HW213226   0.359   1.106   0.330  0.6089  0.6644 -0.9101
 3365SOL    HW313227   0.298   0.969   0.307  0.0756  0.6980  0.2247
 3365SOL    MW413228   0.296   1.056   0.296  0.5102 -0.1752  0.0587
 3366SOL     OW13229   0.384   0.461   5.742 -0.2961  1.0283 -0.1701
 3366SOL    HW213230   0.407   0.547   5.708  0.2057  0.6795 -0.7321
 3366SOL    HW313231   0.299   0.441   5.702  0.9439 -0.0208 -2.5187
 3366SOL    MW413232   0.376   0.469   5.732  0.1935 -0.3787 -0.7688
 3367SOL     OW13233   2.580   3.136   0.131  0.0308  0.1439  0.0964
 3367SOL    HW213234   2.553   3.159   0.042 -0.8995  0.1709  0.3774
 3367SOL    HW313235   2.612   3.218   0.167  2.0114 -0.1890 -0.7383
 3367SOL    MW413236   2.581   3.150   0.124 -0.2804  0.5001  0.4813
 3368SOL     OW13237   6.236   6.357   5.441 -0.0104  0.0821  0.1005
 3368SOL    HW213238   6.223   6.337   5.533  0.4686 -0.6910  0.0180
 3368SOL    HW313239   6.151   6.340   5.400  0.2686 -1.4935  0.1037
 3368SOL    MW413240   6.223   6.352   5.447 -0.0458 -0.7490 -0.1758
 3369SOL     OW13241   4.168   5.499   0.739  0.0357 -0.2161  0.1665
 3369SOL    HW213242   4.099   5.544   0.788 -0.3069  0.5555 -0.9765
 3369SOL    HW313243   4.153   5.406   0.756 -1.5417 -0.0832 -0.3704
 3369SOL    MW413244   4.157   5.493   0.748 -0.1827 -0.1173 -0.0494
 3370SOL     OW13245   3.528   3.602   4.197  0.0140 -1.1307 -0.5913
 3370SOL    HW213246   3.454   3.656   4.225 -0.4937 -2.8713  1.6563
 3370SOL    HW313247   3.492   3.545   4.128 -0.2110 -0.6506 -0.8729
 3370SOL    MW413248   3.514   3.601   4.191  0.6065  0.1088 -0.4471
 3371SOL     OW13249   2.706   2.564   1.093  0.3462 -0.4768 -0.1225
 3371SOL    HW213250   2.681   2.513   1.017 -0.5343  1.0106 -0.8715
 3371SOL    HW313251   2.627   2.612   1.118  1.4207  1.4740 -0.2311
 3371SOL    MW413252   2.693   2.564   1.087  0.0358  0.1348  0.0562
 3372SOL     OW13253   1.545   3.317   5.390 -0.5969  0.2433 -0.1071
 3372SOL    HW213254   1.456   3.283   5.388 -0.9327  1.0934 -0.2460
 3372SOL    HW313255   1.560   3.351   5.302 -0.9296  2.0083  0.4728
 3372SOL    MW413256   1.535   3.317   5.378  0.1724 -1.0200 -0.2421
 3373SOL     OW13257   3.242   2.860   3.391  0.0032  0.2137  0.1097
 3373SOL    HW213258   3.149   2.857   3.416  0.2154  1.5846  1.1610
 3373SOL    HW313259   3.273   2.943   3.425  1.5472 -0.0599 -0.5654
 3373SOL    MW413260   3.234   2.870   3.399 -0.1294  0.4344  0.1012
 3374SOL     OW13261   1.241   1.803   3.918  0.0849 -0.1518  0.4531
 3374SOL    HW213262   1.189   1.742   3.970 -0.7297  0.5089  0.4235
 3374SOL    HW313263   1.287   1.747   3.855 -0.4586 -0.7579  0.5860
 3374SOL    MW413264   1.241   1.788   3.917  0.1970 -0.1728 -0.3450
 3375SOL     OW13265   4.074   2.668   3.674 -0.7306  0.8789  0.6587
 3375SOL    HW213266   4.040   2.631   3.755 -2.1599  1.5567  0.3958
 3375SOL    HW313267   4.087   2.761   3.693  0.2060  0.7919  0.4977
 3375SOL    MW413268   4.071   2.675   3.687 -0.7396  0.6641 -0.0404
 3376SOL     OW13269   6.358   5.209   3.659 -0.1808  0.5947 -0.0873
 3376SOL    HW213270   6.309   5.277   3.705 -0.3634  0.2407  0.2415
 3376SOL    HW313271   6.291   5.151   3.623 -0.0250  0.5624 -0.3299
 3376SOL    MW413272   6.343   5.210   3.660 -0.5357  0.3145 -0.3355
 3377SOL     OW13273   4.524   1.043   0.911  0.3267 -0.1850 -0.3072
 3377SOL    HW213274   4.605   1.061   0.959 -0.2316  1.0006  0.2217
 3377SOL    HW313275   4.485   1.129   0.896 -1.1589 -0.7761 -0.0189
 3377SOL    MW413276   4.530   1.057   0.915 -0.6527  0.1725 -0.3936
 3378SOL     OW13277   1.969   4.676   2.480 -0.0683 -0.4384  0.1721
 3378SOL    HW213278   2.009   4.590   2.488 -0.5391 -0.7156 -0.3414
 3378SOL    HW313279   1.977   4.698   2.387 -1.6785 -0.8003 -0.0842
 3378SOL    MW413280   1.975   4.668   2.469 -0.5606 -0.5106  0.1263
 3379SOL     OW13281   3.027   1.382   5.448  0.6147  0.0959 -0.1688
 3379SOL    HW213282   3.018   1.288   5.432  1.5250 -0.8767  3.9260
 3379SOL    HW313283   3.112   1.404   5.410 -0.2684 -0.2774 -2.5240
 3379SOL    MW413284   3.037   1.373   5.441 -0.3171  0.0082  0.0433
 3380SOL     OW13285   5.414   2.090   3.692 -0.3928 -0.1493 -0.2378
 3380SOL    HW213286   5.483   2.156   3.686 -0.4056 -0.1794 -0.7731
 3380SOL    HW313287   5.420   2.057   3.782 -0.3614  0.5480  0.0227
 3380SOL    MW413288   5.424   2.094   3.703 -0.1673 -0.4787  0.3130
 3381SOL     OW13289   3.593   1.304   5.621  0.4093  0.3581 -0.4305
 3381SOL    HW213290   3.569   1.211   5.625 -0.4848  0.6037  2.2025
 3381SOL    HW313291   3.599   1.323   5.528 -2.6063 -1.5464 -1.1637
 3381SOL    MW413292   3.591   1.294   5.609  0.2938 -0.0632 -0.1980
 3382SOL     OW13293   5.851   6.305   4.739  1.1621  0.1566  1.0780
 3382SOL    HW213294   5.766   6.312   4.783  1.0208 -1.3660  1.0994
 3382SOL    HW313295   5.914   6.331   4.805  0.8895 -1.2986  1.9357
 3382SOL    MW413296   5.848   6.309   4.753 -0.7686  0.2816  0.3159
 3383SOL     OW13297   3.056   5.891   2.669 -0.5739 -0.4003  0.3870
 3383SOL    HW213298   3.096   5.975   2.647  1.9421 -2.1880 -2.9134
 3383SOL    HW313299   2.963   5.902   2.649 -0.2277  1.4603 -0.4029
 3383SOL    MW413300   3.049   5.903   2.664 -0.2318 -0.5878  0.1299
 3384SOL     OW13301   3.120   1.271   2.295  0.1761 -0.4787  0.1358
 3384SOL    HW213302   3.147   1.353   2.336  1.7649 -1.7828  1.8820
 3384SOL    HW313303   3.140   1.283   2.202 -0.6634  1.4612  0.1542
 3384SOL    MW413304   3.126   1.284   2.288  0.6434 -0.2347 -0.3954
 3385SOL     OW13305   4.926   4.438   5.527  0.3139  0.4116  0.3225
 3385SOL    HW213306   4.849   4.436   5.469  2.0168 -0.3437 -2.0745
 3385SOL    HW313307   4.984   4.502   5.487  1.5771 -0.1522  1.1969
 3385SOL    MW413308   4.923   4.446   5.514 -0.3013 -0.7187 -0.1681
 3386SOL     OW13309   1.240   6.062   3.995  0.5063  0.1780  0.3453
 3386SOL    HW213310   1.302   6.117   4.042  0.4686  0.9160 -0.4396
 3386SOL    HW313311   1.292   6.022   3.925  0.0752  0.9207 -0.4119
 3386SOL    MW413312   1.255   6.064   3.992  0.0231 -0.1615 -0.3951
 3387SOL     OW13313   2.060   0.725   3.815  0.3852  0.1287 -0.3059
 3387SOL    HW213314   1.977   0.771   3.821  1.1509  1.3728  2.6789
 3387SOL    HW313315   2.076   0.692   3.904  2.7846 -0.5862 -0.9125
 3387SOL    MW413316   2.051   0.727   3.828 -0.5730 -0.0798 -0.1838
 3388SOL     OW13317   4.886   6.232   5.716 -0.3969 -0.3295  0.5322
 3388SOL    HW213318   4.979   6.218   5.729 -0.3981 -0.4384  0.4366
 3388SOL    HW313319   4.879   6.319   5.676 -0.2337 -0.8324 -0.6482
 3388SOL    MW413320   4.897   6.241   5.712 -0.1386 -0.2166  0.0725
 3389SOL     OW13321   1.546   4.857   1.380  0.1869 -0.4554 -0.0418
 3389SOL    HW213322   1.601   4.791   1.422 -1.6680 -1.0922  1.5107
 3389SOL    HW313323   1.500   4.810   1.311  0.5046 -0.2449 -0.4046
 3389SOL    MW413324   1.547   4.842   1.376  0.2190 -0.2310  0.1143
 3390SOL     OW13325   3.864   6.061   2.672 -0.1343 -0.5443 -0.3128
 3390SOL    HW213326   3.894   6.058   2.581  0.2303  0.8775 -0.2750
 3390SOL    HW313327   3.827   5.974   2.689 -1.6247 -0.3762 -2.3052
 3390SOL    MW413328   3.863   6.049   2.663 -0.1764 -0.3878  0.5977
 3391SOL     OW13329   1.729   5.191   4.359  0.3987 -0.4189  0.2003
 3391SOL    HW213330   1.691   5.147   4.434  0.5129 -0.0144  0.4981
 3391SOL    HW313331   1.654   5.219   4.306  0.3319 -1.2590 -0.1671
 3391SOL    MW413332   1.714   5.189   4.362  0.1571  0.6020  0.3426
 3392SOL     OW13333   2.565   0.190   5.409 -0.3427 -0.4089  0.2111
 3392SOL    HW213334   2.562   0.199   5.314 -0.1182 -0.9811  0.1452
 3392SOL    HW313335   2.655   0.213   5.432 -0.1386 -1.1485  0.1814
 3392SOL    MW413336   2.577   0.194   5.399 -0.1088 -0.0945 -0.1736
 3393SOL     OW13337   0.191   1.558   4.349  0.4657  0.4117  0.1729
 3393SOL    HW213338   0.257   1.511   4.298  1.0100  1.0525  0.2725
 3393SOL    HW313339   0.187   1.644   4.309  0.3334  0.6666  0.7249
 3393SOL    MW413340   0.199   1.563   4.337 -0.4469 -0.2194  0.3015
 3394SOL     OW13341   3.962   5.532   0.302  0.3099 -0.6882  1.3287
 3394SOL    HW213342   3.871   5.545   0.328 -0.1120 -0.2661 -0.2570
 3394SOL    HW313343   4.013   5.574   0.371 -0.7401  0.2077  1.5781
 3394SOL    MW413344   3.957   5.539   0.314 -0.5167 -1.2298  0.3288
 3395SOL     OW13345   5.573   2.748   4.344  0.0765 -0.7942  0.0203
 3395SOL    HW213346   5.495   2.692   4.345 -0.8430  0.4455  1.1764
 3395SOL    HW313347   5.641   2.693   4.306 -1.6776 -1.4630 -2.4291
 3395SOL    MW413348   5.572   2.733   4.339 -0.3900  0.1730  0.5086
 3396SOL     OW13349   4.157   2.105   2.514  0.1131 -0.2532 -0.5489
 3396SOL    HW213350   4.140   2.012   2.527 -0.1755 -0.1747 -0.3578
 3396SOL    HW313351   4.096   2.150   2.573  1.9350 -0.0006  1.2988
 3396SOL    MW413352   4.147   2.099   2.524 -0.0395 -0.1232 -0.2536
 3397SOL     OW13353   2.680   5.504   4.952  0.0844 -0.9020  0.9197
 3397SOL    HW213354   2.711   5.595   4.952 -0.2917 -0.7709  0.7976
 3397SOL    HW313355   2.639   5.494   4.866  1.5465 -1.6793  0.2763
 3397SOL    MW413356   2.679   5.515   4.940 -0.1990  0.1306  0.0173
 3398SOL     OW13357   1.625   1.758   3.580 -0.4639 -0.0311 -0.3768
 3398SOL    HW213358   1.599   1.698   3.511  0.3958 -0.0180 -0.7214
 3398SOL    HW313359   1.680   1.823   3.537 -3.1330  2.3797 -0.4820
 3398SOL    MW413360   1.629   1.759   3.565 -0.1919 -0.3298 -0.3557
 3399SOL     OW13361   1.263   3.045   5.160 -0.3874 -0.4354  0.1374
 3399SOL    HW213362   1.347   3.003   5.179 -0.3403 -0.1425  0.5819
 3399SOL    HW313363   1.207   2.974   5.128  1.1300 -0.0679 -3.8906
 3399SOL    MW413364   1.266   3.030   5.159 -0.0807 -0.2142  0.3564
 3400SOL     OW13365   1.690   1.394   4.549 -0.1640  0.2959  0.0928
 3400SOL    HW213366   1.641   1.448   4.487 -2.6820  0.9016  2.4177
 3400SOL    HW313367   1.702   1.450   4.626 -0.0752 -1.4538  1.4150
 3400SOL    MW413368   1.685   1.409   4.551  0.5326  0.2509 -0.0440
 3401SOL     OW13369   5.268   0.231   1.046 -0.0842  0.1489 -0.4993
 3401SOL    HW213370   5.254   0.164   1.112  2.4722 -0.2848 -0.3133
 3401SOL    HW313371   5.225   0.309   1.082 -0.3035 -0.5504  0.8143
 3401SOL    MW413372   5.260   0.233   1.060  0.2086  0.0537 -0.4314
 3402SOL     OW13373   1.359   1.976   0.924  0.1469  0.1526 -0.3436
 3402SOL    HW213374   1.359   1.979   1.020 -0.4023  1.6396 -0.3578
 3402SOL    HW313375   1.325   2.062   0.898 -0.3632 -0.4908 -1.8700
 3402SOL    MW413376   1.355   1.988   0.933  0.5116 -0.1566 -0.4334
 3403SOL     OW13377   3.304   3.681   1.066  0.3791 -0.7451 -0.5938
 3403SOL    HW213378   3.271   3.603   1.022  1.3027 -1.4066 -0.1589
 3403SOL    HW313379   3.388   3.653   1.103  1.2419  0.7650 -1.3415
 3403SOL    MW413380   3.311   3.667   1.065 -0.0587  0.0176 -0.3636
 3404SOL     OW13381   5.156   0.265   2.124 -0.1204 -0.2073  0.6812
 3404SOL    HW213382   5.138   0.213   2.046  2.2395  0.0210 -0.1142
 3404SOL    HW313383   5.094   0.338   2.119  0.9077  0.6159 -1.8691
 3404SOL    MW413384   5.146   0.268   2.113 -0.5664 -0.2815  0.1961
 3405SOL     OW13385   3.014   0.636   5.556  0.4311  0.5121 -0.3764
 3405SOL    HW213386   2.927   0.669   5.580  0.4959  1.6911 -1.6630
 3405SOL    HW313387   3.075   0.691   5.606  0.4817  0.9400 -0.9039
 3405SOL    MW413388   3.011   0.648   5.566 -0.1952  0.2357  0.5224
 3406SOL     OW13389   4.589   1.842   1.511  0.2037  0.0667 -0.1318
 3406SOL    HW213390   4.602   1.762   1.562 -1.9914 -0.9087 -1.0307
 3406SOL    HW313391   4.672   1.855   1.465  1.0733 -0.8710  1.1108
 3406SOL    MW413392   4.602   1.833   1.512 -0.1439  0.1179 -0.0355
 3407SOL     OW13393   2.748   3.317   5.039  0.3549  0.5736  0.0098
 3407SOL    HW213394   2.844   3.319   5.030  0.4951  0.6715  1.3627
 3407SOL    HW313395   2.720   3.407   5.021  0.5742  0.6816  0.2087
 3407SOL    MW413396   2.757   3.329   5.035  0.1906  0.2208 -0.0695
 3408SOL     OW13397   1.637   3.347   5.129 -0.4820  0.3074 -0.7159
 3408SOL    HW213398   1.593   3.278   5.079  0.5001  0.0605 -1.2700
 3408SOL    HW313399   1.728   3.317   5.136 -0.4060  0.7757  0.4510
 3408SOL    MW413400   1.643   3.334   5.123  0.6427 -0.5692  0.5731
 3409SOL     OW13401   2.824   1.134   6.372  0.0298 -0.1459 -0.5022
 3409SOL    HW213402   2.893   1.104   6.431 -1.2906 -0.0241  1.1783
 3409SOL    HW313403   2.743   1.126   6.423 -1.1686  0.0930 -2.2633
 3409SOL    MW413404   2.822   1.129   6.387 -0.1522 -0.3557  0.0100
 3410SOL     OW13405   4.000   2.793   1.200 -0.1285  0.2045 -0.4610
 3410SOL    HW213406   4.036   2.861   1.257 -0.9101  0.2692 -0.0376
 3410SOL    HW313407   3.910   2.821   1.183 -0.2456 -0.3851 -0.8281
 3410SOL    MW413408   3.993   2.806   1.206 -0.5143 -0.6680  0.0085
 3411SOL     OW13409   6.006   4.926   1.066 -0.3455 -0.4208  0.4458
 3411SOL    HW213410   6.055   5.003   1.093 -1.3576 -0.1890  1.6798
 3411SOL    HW313411   6.023   4.919   0.972  0.0204  1.1134  0.3770
 3411SOL    MW413412   6.015   4.935   1.057 -0.1286 -0.5037  0.0131
 3412SOL     OW13413   1.622   4.417   6.320 -0.4360  0.3273 -0.3402
 3412SOL    HW213414   1.553   4.388   6.380  1.1839 -0.3468  1.3089
 3412SOL    HW313415   1.655   4.336   6.281 -1.1608  0.7230 -1.8656
 3412SOL    MW413416   1.617   4.402   6.323  0.4147  0.0137 -0.1458
 3413SOL     OW13417   0.049   1.377   3.821  0.0996  0.3302  0.4810
 3413SOL    HW213418   0.121   1.411   3.767  0.0463 -0.5519 -0.1563
 3413SOL    HW313419   0.074   1.288   3.841 -0.2514  0.4093  1.2857
 3413SOL    MW413420   0.062   1.370   3.816 -0.0749 -0.0526 -0.0583
 3414SOL     OW13421   1.556   4.584   4.304 -0.4258  0.1044  0.1679
 3414SOL    HW213422   1.535   4.656   4.244  1.3223  1.4565  1.0960
 3414SOL    HW313423   1.475   4.571   4.355 -0.4924  2.1421  0.6863
 3414SOL    MW413424   1.542   4.592   4.303 -0.7141  0.1609  0.2070
 3415SOL     OW13425   2.511   0.116   5.662  0.3022 -0.4059 -0.0012
 3415SOL    HW213426   2.547   0.133   5.575 -1.7851  3.2578 -0.3676
 3415SOL    HW313427   2.564   0.172   5.720  0.2707 -1.1241  0.7287
 3415SOL    MW413428   2.523   0.126   5.658  0.0878  0.8807  0.1409
 3416SOL     OW13429   2.290   3.109   4.641 -0.6706 -0.4272  0.2868
 3416SOL    HW213430   2.271   3.066   4.558  1.3759 -1.4650  0.3079
 3416SOL    HW313431   2.301   3.201   4.618 -1.4844 -0.4741 -0.3428
 3416SOL    MW413432   2.289   3.116   4.627  0.5551  0.3396  0.0123
 3417SOL     OW13433   6.128   4.545   4.788 -0.1796  0.1204 -0.0410
 3417SOL    HW213434   6.061   4.533   4.856 -1.7486  2.2426 -1.1051
 3417SOL    HW313435   6.096   4.494   4.714  1.5781 -2.2702  0.7296
 3417SOL    MW413436   6.115   4.537   4.788  0.3167 -0.7267  0.0994
 3418SOL     OW13437   3.313   3.962   5.413 -0.6170 -0.4531  0.0492
 3418SOL    HW213438   3.306   3.871   5.442 -0.6134 -0.3020  0.5403
 3418SOL    HW313439   3.354   3.957   5.327 -1.6555 -0.9778 -0.4175
 3418SOL    MW413440   3.318   3.950   5.406 -0.6808  0.5826 -0.5403
 3419SOL     OW13441   1.340   0.655   0.670  0.3313 -0.3752  0.2548
 3419SOL    HW213442   1.247   0.633   0.676 -0.6820  3.0608 -0.5731
 3419SOL    HW313443   1.355   0.668   0.577  1.3548  0.2418  0.4948
 3419SOL    MW413444   1.330   0.654   0.659 -0.1038  0.4625  0.2519
 3420SOL     OW13445   2.812   1.882   3.532  0.3235  0.0409  0.3365
 3420SOL    HW213446   2.908   1.888   3.526  0.3051 -0.6642 -1.2341
 3420SOL    HW313447   2.781   1.897   3.443 -1.1459  1.4684  1.0294
 3420SOL    MW413448   2.821   1.885   3.519  0.2114  0.2288 -0.3536
 3421SOL     OW13449   0.374   1.466   3.958  0.4207 -0.1030 -0.0972
 3421SOL    HW213450   0.397   1.374   3.950 -0.9359 -0.6434  1.5949
 3421SOL    HW313451   0.317   1.484   3.883  0.0637 -0.8593 -0.0168
 3421SOL    MW413452   0.370   1.457   3.947 -0.2690  0.0793 -0.4613
 3422SOL     OW13453   2.270   5.988   3.038  0.3752 -0.5937 -1.0656
 3422SOL    HW213454   2.222   6.031   3.109 -2.2139 -1.2903 -2.2545
 3422SOL    HW313455   2.302   5.906   3.076 -0.0797 -0.4864 -0.4335
 3422SOL    MW413456   2.268   5.983   3.052 -0.0649 -0.1592  0.2309
 3423SOL     OW13457   0.461   0.153   5.081 -0.0398 -0.9167  0.0030
 3423SOL    HW213458   0.422   0.240   5.095 -0.1013 -1.1795  1.6923
 3423SOL    HW313459   0.418   0.120   5.002  0.6122  0.9227 -1.1905
 3423SOL    MW413460   0.450   0.160   5.072  0.2473  0.1929 -0.0575
 3424SOL     OW13461   5.360   2.343   5.570  0.0295  0.0052 -0.0391
 3424SOL    HW213462   5.297   2.282   5.532 -0.8152  1.3282 -0.8078
 3424SOL    HW313463   5.444   2.315   5.534 -0.3447 -0.6751 -0.4109
 3424SOL    MW413464   5.363   2.331   5.560  0.0445 -0.5646 -0.1214
 3425SOL     OW13465   1.009   1.768   0.606  0.0461  0.6586  0.3721
 3425SOL    HW213466   1.063   1.834   0.651  1.6356  0.0980 -0.6046
 3425SOL    HW313467   1.041   1.684   0.639  0.7701  0.2663 -1.2197
 3425SOL    MW413468   1.021   1.766   0.616 -0.3897 -0.0095  0.4564
 3426SOL     OW13469   0.015   5.239   4.531 -0.0071 -0.4219  0.0367
 3426SOL    HW213470   0.066   5.240   4.449  1.2143  1.2974  0.7753
 3426SOL    HW313471   0.001   5.331   4.552 -1.1081 -0.8549  1.2979
 3426SOL    MW413472   0.020   5.251   4.523 -0.3136 -0.0412  0.5710
 3427SOL     OW13473   3.850   0.419   0.310 -0.3221  0.2541 -0.2377
 3427SOL    HW213474   3.812   0.340   0.346 -0.3429 -0.3355 -1.5047
 3427SOL    HW313475   3.892   0.462   0.385  0.6038 -1.4816  0.2896
 3427SOL    MW413476   3.851   0.415   0.325 -0.0175 -0.5089  0.0191
 3428SOL     OW13477   4.052   4.080   2.825  0.0715 -0.2304  0.1428
 3428SOL    HW213478   3.978   4.059   2.767  0.1525  1.8197 -0.7779
 3428SOL    HW313479   4.128   4.042   2.782 -0.2316 -1.0625  0.3260
 3428SOL    MW413480   4.052   4.072   2.811  0.1181  0.4646  0.1756
 3429SOL     OW13481   2.447   6.016   2.288  0.1282  0.2716 -0.0399
 3429SOL    HW213482   2.465   6.104   2.321 -1.3119  0.9147 -0.8531
 3429SOL    HW313483   2.516   5.999   2.224  2.1952 -0.4723  2.2375
 3429SOL    MW413484   2.459   6.025   2.284 -0.0411  0.1147 -0.2974
 3430SOL     OW13485   2.975   2.593   0.358 -0.1307  0.4475  0.1234
 3430SOL    HW213486   3.007   2.677   0.391 -1.8497  0.8871  0.7661
 3430SOL    HW313487   2.942   2.613   0.270 -0.1291  0.3406  0.0984
 3430SOL    MW413488   2.975   2.607   0.351  0.2597  0.2621 -0.3572
 3431SOL     OW13489   2.549   5.011   5.637 -0.4616  0.8869  0.6958
 3431SOL    HW213490   2.576   5.074   5.570 -0.9027  1.7939  1.3544
 3431SOL    HW313491   2.510   5.065   5.706 -2.6013 -0.2494  0.4404
 3431SOL    MW413492   2.547   5.027   5.637 -0.2855  0.1066  0.3166
 3432SOL     OW13493   0.740   3.227   1.924  0.1106  0.0607  0.4798
 3432SOL    HW213494   0.781   3.314   1.926  1.0464 -0.3693  2.1348
 3432SOL    HW313495   0.646   3.245   1.926  0.2899  1.0523  1.0810
 3432SOL    MW413496   0.733   3.241   1.925  0.0851 -0.5130 -0.5097
 3433SOL     OW13497   1.376   5.126   1.137 -0.2349 -0.3103  0.4825
 3433SOL    HW213498   1.323   5.205   1.128 -1.7293 -1.3076  0.1042
 3433SOL    HW313499   1.396   5.120   1.230 -0.4220  0.3044  0.5662
 3433SOL    MW413500   1.372   5.136   1.148  0.3595  0.1928 -0.3403
 3434SOL     OW13501   1.673   3.079   2.148 -0.3165 -0.4768  0.0274
 3434SOL    HW213502   1.593   3.126   2.171  0.4918  1.6518 -1.1979
 3434SOL    HW313503   1.728   3.084   2.226 -0.6393 -0.2495  0.2405
 3434SOL    MW413504   1.670   3.086   2.161 -0.1373 -0.0607 -0.2425
 3435SOL     OW13505   5.853   1.124   0.830 -0.3718  0.3299  0.2235
 3435SOL    HW213506   5.834   1.148   0.921 -4.7711 -0.7007 -0.1713
 3435SOL    HW313507   5.767   1.126   0.787  1.0450 -2.2799 -3.1405
 3435SOL    MW413508   5.839   1.127   0.837  0.2615  0.2331  0.9270
 3436SOL     OW13509   4.052   4.956   0.368  0.5364 -0.1102  0.1368
 3436SOL    HW213510   4.083   4.972   0.279  0.3050 -0.2129  0.0359
 3436SOL    HW313511   3.960   4.929   0.357  0.6659 -0.6722  0.3586
 3436SOL    MW413512   4.044   4.954   0.354  0.1302  0.4687 -0.1722
 3437SOL     OW13513   3.581   3.840   6.256  0.4098  0.8863 -0.6500
 3437SOL    HW213514   3.671   3.825   6.283  0.1168 -0.8715 -0.5298
 3437SOL    HW313515   3.539   3.879   6.333  0.4815 -0.6369  0.1958
 3437SOL    MW413516   3.587   3.843   6.270  0.1814 -0.3383 -0.2713
 3438SOL     OW13517   0.075   2.329   5.060 -0.1635  0.1977 -0.1867
 3438SOL    HW213518   0.007   2.390   5.030  1.4166  2.3444  0.3201
 3438SOL    HW313519   0.052   2.312   5.152 -1.7970 -1.7866 -0.8894
 3438SOL    MW413520   0.063   2.335   5.068  0.1205  0.1891 -0.1033
 3439SOL     OW13521   1.020   2.077   2.802  0.3178 -0.3358 -0.2071
 3439SOL    HW213522   0.982   1.989   2.792 -0.1167 -0.1055 -0.6013
 3439SOL    HW313523   1.067   2.073   2.885 -1.4402 -0.3304  0.8388
 3439SOL    MW413524   1.021   2.065   2.812  0.1372 -0.0323 -0.4033
 3440SOL     OW13525   6.310   5.760   3.810  0.4216 -0.2212  0.0178
 3440SOL    HW213526   6.247   5.746   3.881 -0.7442 -0.3670 -1.0094
 3440SOL    HW313527   6.259   5.747   3.730  2.0264 -1.5314 -0.8532
 3440SOL    MW413528   6.295   5.756   3.808 -0.0881  0.0749 -0.4705
 3441SOL     OW13529   5.517   2.044   3.960 -0.9255  0.5576  0.2158
 3441SOL    HW213530   5.541   2.137   3.960 -2.2393  0.9111  0.0953
 3441SOL    HW313531   5.585   2.002   3.907 -0.0416  1.3623  0.6715
 3441SOL    MW413532   5.529   2.051   3.953 -0.3642  0.1047 -0.1864
 3442SOL     OW13533   1.893   4.606   4.333 -0.0881 -0.4586 -0.2121
 3442SOL    HW213534   1.874   4.565   4.248  0.5905 -0.9669 -0.1283
 3442SOL    HW313535   1.870   4.540   4.398 -1.9315  0.4326  0.0881
 3442SOL    MW413536   1.888   4.592   4.330 -0.2708 -0.0275 -0.7221
 3443SOL     OW13537   0.995   3.797   3.719 -0.2485 -0.0806  0.1412
 3443SOL    HW213538   1.065   3.804   3.655 -0.5256  1.4318 -0.0342
 3443SOL    HW313539   0.954   3.712   3.701 -0.0594  0.1266 -1.4144
 3443SOL    MW413540   0.998   3.787   3.708 -0.3094 -0.5425 -0.2576
 3444SOL     OW13541   1.052   3.160   4.901 -0.2283 -0.0988  0.2938
 3444SOL    HW213542   0.988   3.137   4.834  0.6554 -0.9779 -0.2943
 3444SOL    HW313543   1.068   3.253   4.889 -1.5878  0.1892  0.6411
 3444SOL    MW413544   1.046   3.169   4.891 -0.2557 -0.1205 -0.5514
 3445SOL     OW13545   1.088   5.713   4.578  0.1709  0.3280 -0.3499
 3445SOL    HW213546   1.150   5.673   4.638  2.3580  3.1769 -0.4550
 3445SOL    HW313547   1.028   5.761   4.634  0.5612  0.8048 -0.3299
 3445SOL    MW413548   1.089   5.714   4.593  0.0512  0.7843 -0.5685
 3446SOL     OW13549   4.420   5.845   2.206  0.3558 -0.1483 -0.0637
 3446SOL    HW213550   4.508   5.856   2.170 -0.0749  0.7154 -0.8778
 3446SOL    HW313551   4.390   5.934   2.226 -0.7576 -0.3376 -0.8271
 3446SOL    MW413552   4.428   5.858   2.204  0.3225  0.0992  0.5911
 3447SOL     OW13553   0.161   0.073   4.491  0.1829 -0.0304  0.0217
 3447SOL    HW213554   0.250   0.107   4.484  0.7080 -1.0823  1.2018
 3447SOL    HW313555   0.126   0.114   4.571  0.2648 -1.0106  0.5707
 3447SOL    MW413556   0.168   0.083   4.501 -0.4375  0.1770 -0.0876
 3448SOL     OW13557   2.608   5.731   6.323 -0.0286 -0.0607  0.8823
 3448SOL    HW213558   2.697   5.737   6.355 -0.4198  0.8615  1.8709
 3448SOL    HW313559   2.569   5.816   6.344 -0.4141  0.5031 -1.7803
 3448SOL    MW413560   2.614   5.743   6.330 -0.5817  0.9693  0.1282
 3449SOL     OW13561   2.572   0.599   5.842  0.0671  0.0195 -0.1182
 3449SOL    HW213562   2.581   0.667   5.909 -1.9506 -1.3091  1.6554
 3449SOL    HW313563   2.507   0.634   5.781  0.3983  0.4126 -0.2491
 3449SOL    MW413564   2.564   0.613   5.843  0.0320  0.5914  0.1739
 3450SOL     OW13565   4.493   2.293   5.725  0.0497 -0.1359  0.2106
 3450SOL    HW213566   4.498   2.288   5.629  0.2227  0.1873  0.2021
 3450SOL    HW313567   4.414   2.343   5.743 -0.0739 -0.3423  0.2401
 3450SOL    MW413568   4.483   2.299   5.715  0.2302 -0.4546  0.3432
 3451SOL     OW13569   0.739   4.819   3.221 -0.4235  0.1955 -0.4562
 3451SOL    HW213570   0.674   4.787   3.159  0.5108 -0.9780 -0.8800
 3451SOL    HW313571   0.816   4.764   3.206 -0.4603 -0.7969  2.4103
 3451SOL    MW413572   0.741   4.808   3.210 -0.2138  0.1179 -0.3047
 3452SOL     OW13573   5.622   4.258   2.038 -0.1698 -0.0355 -0.1129
 3452SOL    HW213574   5.556   4.247   1.970  0.9951 -0.0771 -1.2604
 3452SOL    HW313575   5.705   4.258   1.992  0.5492  3.0886  0.9170
 3452SOL    MW413576   5.624   4.257   2.023 -0.0768  0.2777 -0.2434
 3453SOL     OW13577   1.704   4.196   6.201  0.0419  0.8827  0.3094
 3453SOL    HW213578   1.749   4.126   6.247 -0.2086  0.2911 -0.3285
 3453SOL    HW313579   1.772   4.237   6.148 -0.0733  0.2288 -0.3678
 3453SOL    MW413580   1.719   4.192   6.200  0.0828  0.2395  1.4755
 3454SOL     OW13581   5.650   6.008   4.105  0.7805 -0.4439 -0.1883
 3454SOL    HW213582   5.636   6.054   4.187 -0.5687 -1.5463  0.2414
 3454SOL    HW313583   5.698   5.929   4.129  1.8984  0.0461 -0.7296
 3454SOL    MW413584   5.655   6.004   4.119  0.0555  0.5731  0.1032
 3455SOL     OW13585   4.917   0.705   5.581  0.5269  0.2197 -0.3290
 3455SOL    HW213586   4.999   0.660   5.562  0.0588 -0.4959 -0.7161
 3455SOL    HW313587   4.857   0.635   5.607  0.1463  0.7817  0.3155
 3455SOL    MW413588   4.920   0.689   5.582  0.0651 -0.0467  0.4550
 3456SOL     OW13589   3.629   4.925   4.062 -0.1541 -0.3157  0.0384
 3456SOL    HW213590   3.574   4.848   4.054  0.0371 -0.4802  0.2862
 3456SOL    HW313591   3.617   4.955   4.152  0.5243 -0.6316  0.2382
 3456SOL    MW413592   3.621   4.919   4.073  0.0418  0.2605 -0.1814
 3457SOL     OW13593   2.501   3.116   1.531  0.0801 -0.2134  0.0064
 3457SOL    HW213594   2.518   3.193   1.585  0.0858 -1.5220  1.9733
 3457SOL    HW313595   2.566   3.052   1.560 -1.7236 -1.9216  0.5012
 3457SOL    MW413596   2.512   3.117   1.542 -0.0768 -0.0372 -0.5964
 3458SOL     OW13597   6.126   3.290   4.649  0.2283 -0.2782  0.3780
 3458SOL    HW213598   6.125   3.210   4.596 -1.3194 -0.6642  0.9535
 3458SOL    HW313599   6.214   3.326   4.635  0.1353 -0.7626 -1.8262
 3458SOL    MW413600   6.138   3.284   4.640 -0.2796 -0.2674 -0.4851
 3459SOL     OW13601   5.525   0.929   0.928  0.4820  0.3958  0.1417
 3459SOL    HW213602   5.433   0.902   0.929  0.5326  0.1710 -0.8067
 3459SOL    HW313603   5.573   0.852   0.956  0.6980 -0.8929 -3.3554
 3459SOL    MW413604   5.519   0.915   0.932 -0.9150  0.0828 -0.2074
 3460SOL     OW13605   1.147   0.543   2.236  0.3033 -0.0956 -0.0958
 3460SOL    HW213606   1.191   0.458   2.245  0.5280  0.0595  0.2796
 3460SOL    HW313607   1.071   0.525   2.181 -0.6366 -0.8872  1.3966
 3460SOL    MW413608   1.143   0.529   2.230  0.7915 -0.1100  0.4139
 3461SOL     OW13609   0.483   6.004   0.024 -0.0097  0.6081  0.2070
 3461SOL    HW213610   0.548   6.043   0.083 -0.0311  1.1239 -0.1062
 3461SOL    HW313611   0.464   5.918   0.063  1.7866 -0.0842 -0.3586
 3461SOL    MW413612   0.489   5.998   0.037  0.0143  0.2223 -0.0854
 3462SOL     OW13613   4.432   3.535   3.780 -0.1627 -0.1297 -0.4323
 3462SOL    HW213614   4.416   3.456   3.831  1.4416 -0.4136 -0.3213
 3462SOL    HW313615   4.409   3.607   3.839  0.8392 -0.4723  0.4031
 3462SOL    MW413616   4.427   3.534   3.795  0.1366 -0.1862  0.0905
 3463SOL     OW13617   0.287   1.318   0.799  0.2268 -0.2252  0.0267
 3463SOL    HW213618   0.294   1.251   0.731 -1.4743 -0.4628  0.0598
 3463SOL    HW313619   0.332   1.280   0.874  1.4952 -0.2541 -0.7166
 3463SOL    MW413620   0.294   1.304   0.800  0.1256  0.1942  0.6859
 3464SOL     OW13621   0.185   3.423   1.681  0.0692  0.3285  0.0179
 3464SOL    HW213622   0.280   3.410   1.673  0.2645 -0.0905  2.4865
 3464SOL    HW313623   0.175   3.517   1.692  0.3688  0.2104  1.4094
 3464SOL    MW413624   0.197   3.434   1.681 -0.3546  0.0277 -0.2530
 3465SOL     OW13625   0.965   5.166   1.104  0.0668  0.3086  0.0529
 3465SOL    HW213626   1.004   5.223   1.170 -0.2263  1.0950 -0.4363
 3465SOL    HW313627   1.014   5.185   1.024  0.3721 -0.5825  0.0215
 3465SOL    MW413628   0.977   5.176   1.102 -0.0244 -0.0910 -0.1002
 3466SOL     OW13629   5.627   0.421   2.453  0.2257 -0.0140 -0.3369
 3466SOL    HW213630   5.592   0.468   2.529  0.5986  0.4618 -0.4552
 3466SOL    HW313631   5.570   0.344   2.444 -0.7543  0.7113 -0.4909
 3466SOL    MW413632   5.615   0.417   2.462  0.0740  0.4216 -0.3316
 3467SOL     OW13633   5.494   5.363   4.231 -0.0714 -0.1561  0.4122
 3467SOL    HW213634   5.471   5.273   4.254 -0.3891  0.5208  3.0954
 3467SOL    HW313635   5.410   5.404   4.207  0.1514 -0.6730 -1.3538
 3467SOL    MW413636   5.480   5.357   4.231  0.5686  0.6250  0.2918
 3468SOL     OW13637   5.324   5.135   3.917  0.0938 -0.5602 -0.1470
 3468SOL    HW213638   5.291   5.113   3.830 -0.2161 -1.1585  0.1155
 3468SOL    HW313639   5.271   5.209   3.945  1.0925  0.5133 -1.0129
 3468SOL    MW413640   5.313   5.142   3.909  0.1788 -0.5474 -0.0676
 3469SOL     OW13641   2.857   5.505   2.288 -1.0856 -0.1561 -0.5595
 3469SOL    HW213642   2.787   5.453   2.327 -0.9775  0.4785  0.5246
 3469SOL    HW313643   2.876   5.572   2.354  0.8437 -0.5908 -0.6273
 3469SOL    MW413644   2.850   5.507   2.302 -0.6733  0.1358 -0.4218
 3470SOL     OW13645   0.856   1.729   2.658  0.4625  0.8081  0.3059
 3470SOL    HW213646   0.923   1.708   2.593  0.9638  0.5513  0.8963
 3470SOL    HW313647   0.823   1.644   2.687 -0.2357  0.9339 -0.0922
 3470SOL    MW413648   0.860   1.715   2.653  0.0539  0.4921  0.0238
 3471SOL     OW13649   5.007   3.804   1.317  1.1543  0.2303 -0.6140
 3471SOL    HW213650   5.001   3.880   1.259 -2.6236 -0.0254 -0.8094
 3471SOL    HW313651   5.089   3.817   1.365  0.5925  4.6155 -0.4173
 3471SOL    MW413652   5.017   3.816   1.316 -0.2232  0.1922 -1.0670
 3472SOL     OW13653   5.243   3.134   1.809 -0.5235  0.7603  0.3328
 3472SOL    HW213654   5.198   3.062   1.854 -0.3990  0.8984  0.6840
 3472SOL    HW313655   5.290   3.179   1.879 -0.0903  0.8024  0.0169
 3472SOL    MW413656   5.243   3.130   1.824  0.1838  0.2592 -0.3984
 3473SOL     OW13657   3.048   5.143   3.153 -0.2319 -0.5027 -0.1908
 3473SOL    HW213658   3.075   5.077   3.218 -1.0664 -0.7858 -0.1254
 3473SOL    HW313659   2.972   5.104   3.110  1.6156 -1.3573 -2.9780
 3473SOL    MW413660   3.042   5.129   3.156 -0.1305 -0.0643 -0.0512
 3474SOL     OW13661   6.427   2.374   2.679  0.7020 -0.1361 -0.1380
 3474SOL    HW213662   6.469   2.384   2.764 -1.8405 -0.4642  1.2701
 3474SOL    HW313663   6.345   2.423   2.687  0.3404 -0.2897 -2.3616
 3474SOL    MW413664   6.421   2.382   2.691  0.9706 -0.3084  0.5233
 3475SOL     OW13665   4.627   1.679   5.591  0.3640 -0.1445 -0.4550
 3475SOL    HW213666   4.623   1.585   5.571  0.9529 -0.0250 -1.1627
 3475SOL    HW313667   4.659   1.720   5.511  1.0709  0.5475  0.1586
 3475SOL    MW413668   4.631   1.672   5.578 -0.1937 -0.0322  0.5667
 3476SOL     OW13669   5.784   5.027   5.756 -0.6635  0.0317 -0.0654
 3476SOL    HW213670   5.780   5.115   5.718  2.0616  0.6527  0.8198
 3476SOL    HW313671   5.831   4.975   5.691  0.3570  0.0327  0.6471
 3476SOL    MW413672   5.790   5.032   5.743  0.2496 -0.1222  0.5341
 3477SOL     OW13673   2.316   0.327   5.454  0.9787 -0.3438  0.4842
 3477SOL    HW213674   2.309   0.308   5.548  1.2379 -1.3396  0.3126
 3477SOL    HW313675   2.401   0.290   5.428  1.0058  0.1157 -0.0951
 3477SOL    MW413676   2.327   0.319   5.463  0.1343  0.2127 -0.0828
 3478SOL     OW13677   3.972   1.839   0.136  0.2152  0.2085 -0.1166
 3478SOL    HW213678   3.927   1.843   0.221  0.3326 -2.1753  0.1345
 3478SOL    HW313679   3.940   1.758   0.096  2.2918 -0.1970 -1.0977
 3478SOL    MW413680   3.962   1.828   0.142 -0.0469 -0.4043  0.2189
 3479SOL     OW13681   3.468   0.660   6.021 -0.2663  0.0710 -0.0386
 3479SOL    HW213682   3.461   0.610   6.102 -0.6330 -0.7373 -0.5588
 3479SOL    HW313683   3.450   0.596   5.951  0.8248  0.5720 -0.8015
 3479SOL    MW413684   3.465   0.645   6.022 -0.3224 -0.8324 -0.4332
 3480SOL     OW13685   3.137   2.709   0.967  0.1179 -0.3121 -0.2894
 3480SOL    HW213686   3.150   2.732   0.875 -1.6043  1.3773 -0.1786
 3480SOL    HW313687   3.124   2.615   0.967  1.0095 -0.4662 -1.6519
 3480SOL    MW413688   3.137   2.700   0.955  0.3306  0.6922  0.4721
 3481SOL     OW13689   1.378   6.386   4.661 -0.1851  0.3218 -0.8950
 3481SOL    HW213690   1.338   6.467   4.630 -2.4780 -0.8726 -1.2107
 3481SOL    HW313691   1.306   6.323   4.667  0.9572 -0.8985  2.2191
 3481SOL    MW413692   1.363   6.388   4.658  0.4672  0.4237  0.1754
 3482SOL     OW13693   5.060   0.705   1.370  1.1648  0.9563 -0.5232
 3482SOL    HW213694   5.078   0.797   1.353 -0.3615  1.6895  1.4249
 3482SOL    HW313695   5.087   0.691   1.461 -1.1084  0.2469  0.1162
 3482SOL    MW413696   5.066   0.715   1.379  0.0475  0.2846 -0.1353
 3483SOL     OW13697   4.066   2.503   2.537  0.6367 -0.4608 -0.3941
 3483SOL    HW213698   4.070   2.414   2.571 -0.4310 -0.2488  0.3141
 3483SOL    HW313699   4.141   2.548   2.576  0.9190 -0.9182 -0.4056
 3483SOL    MW413700   4.076   2.497   2.546  0.1225 -0.4131  0.2673
 3484SOL     OW13701   2.164   2.320   2.867 -0.3173  0.6097  0.5264
 3484SOL    HW213702   2.071   2.305   2.884 -0.0956 -0.5116  0.7635
 3484SOL    HW313703   2.210   2.281   2.941  0.5021 -1.6044 -1.0390
 3484SOL    MW413704   2.158   2.313   2.879 -0.1503 -0.1574 -0.0692
 3485SOL     OW13705   4.686   1.495   1.898  0.4169  0.3609 -0.0924
 3485SOL    HW213706   4.737   1.574   1.916  0.9330  0.0122 -0.0149
 3485SOL    HW313707   4.715   1.432   1.964  2.1901 -0.8780 -1.9538
 3485SOL    MW413708   4.696   1.497   1.909 -0.1278 -0.2084  0.2715
 3486SOL     OW13709   0.449   0.462   2.934 -0.8378  0.3556  0.3268
 3486SOL    HW213710   0.458   0.461   2.839  0.3795  1.8940  0.3862
 3486SOL    HW313711   0.470   0.552   2.959  0.1581 -0.3384  2.1579
 3486SOL    MW413712   0.453   0.474   2.925 -0.0207 -0.2214 -0.3647
 3487SOL     OW13713   6.029   1.010   1.724  0.3194  0.0348 -0.5196
 3487SOL    HW213714   6.121   1.021   1.698  1.0850 -1.3006  1.3636
 3487SOL    HW313715   5.982   1.075   1.674  2.3246  0.8493 -1.4629
 3487SOL    MW413716   6.035   1.020   1.714 -0.1004  0.1945 -0.0489
 3488SOL     OW13717   3.961   3.473   2.635 -0.2405  0.2134  0.6493
 3488SOL    HW213718   4.045   3.433   2.657  0.5328  1.5151  0.2306
 3488SOL    HW313719   3.985   3.548   2.581 -1.7712 -0.1508 -0.5928
 3488SOL    MW413720   3.975   3.478   2.631 -0.0812  0.1012 -0.4401
 3489SOL     OW13721   0.577   0.495   1.088 -0.2095  0.4165 -0.7286
 3489SOL    HW213722   0.495   0.453   1.112  0.3717 -1.0949 -1.2884
 3489SOL    HW313723   0.579   0.490   0.992  2.1621 -2.9620 -0.6812
 3489SOL    MW413724   0.566   0.489   1.078  0.3038  0.2911  0.3646
 3490SOL     OW13725   1.521   5.680   2.242  0.5268 -0.1338 -0.9804
 3490SOL    HW213726   1.452   5.658   2.304  1.3745 -2.0857 -0.6547
 3490SOL    HW313727   1.477   5.683   2.157 -0.1351 -0.3285 -0.6518
 3490SOL    MW413728   1.506   5.677   2.239 -0.2941  0.1259 -0.0300
 3491SOL     OW13729   0.732   2.056   3.520 -0.3588 -0.0314 -0.1069
 3491SOL    HW213730   0.745   1.970   3.558  0.0609 -0.5696 -1.4095
 3491SOL    HW313731   0.785   2.115   3.573 -0.4916 -0.6017  0.6686
 3491SOL    MW413732   0.740   2.053   3.532  0.2613  0.0174  0.5690
 3492SOL     OW13733   4.527   5.180   1.517 -0.4629 -0.3733  0.3010
 3492SOL    HW213734   4.554   5.256   1.568 -0.7095 -1.2323  1.7496
 3492SOL    HW313735   4.605   5.152   1.470 -0.1921  0.3247  0.3322
 3492SOL    MW413736   4.541   5.186   1.517 -0.3405 -0.3709  0.2866
 3493SOL     OW13737   4.266   1.257   5.154  0.8547  0.1444  0.0250
 3493SOL    HW213738   4.321   1.299   5.089  0.7843  1.5927  0.8636
 3493SOL    HW313739   4.302   1.285   5.238 -1.1545  1.1680  0.6096
 3493SOL    MW413740   4.278   1.266   5.157  0.4116 -0.1178 -0.8272
 3494SOL     OW13741   0.024   1.027   0.697  0.9469  0.0244  0.3845
 3494SOL    HW213742   0.044   0.935   0.713  0.5519 -0.0870  0.2562
 3494SOL    HW313743  -0.071   1.028   0.682  0.7728  0.5996  1.4629
 3494SOL    MW413744   0.014   1.015   0.697  0.4969  0.4673 -0.4502
 3495SOL     OW13745   3.898   3.077   1.488  0.1869  0.4152  0.2045
 3495SOL    HW213746   3.910   3.165   1.451  1.7662  0.2873  0.3350
 3495SOL    HW313747   3.986   3.040   1.489 -0.5002 -1.2792 -0.0773
 3495SOL    MW413748   3.912   3.084   1.483 -0.1050  0.0866 -0.4059
 3496SOL     OW13749   5.823   2.270   2.351  0.0504 -0.0608  0.1391
 3496SOL    HW213750   5.741   2.220   2.353 -0.4945  0.8114  1.9189
 3496SOL    HW313751   5.877   2.230   2.420  0.6784  0.0899 -0.2589
 3496SOL    MW413752   5.819   2.258   2.361  0.2039  0.0533 -0.1847
 3497SOL     OW13753   5.043   1.117   5.762  0.0459  0.0258 -0.4383
 3497SOL    HW213754   5.067   1.163   5.682 -0.8727 -0.6055 -1.0863
 3497SOL    HW313755   4.981   1.050   5.735 -0.5826  0.0431  0.8457
 3497SOL    MW413756   5.038   1.114   5.748 -0.0817  0.3133 -0.6609
 3498SOL     OW13757   0.027   3.671   2.270 -0.1883  0.5743 -0.3103
 3498SOL    HW213758   0.054   3.598   2.326 -0.0146  1.4803  0.8340
 3498SOL    HW313759   0.044   3.749   2.323 -0.4811  1.4419 -1.4603
 3498SOL    MW413760   0.033   3.671   2.285  0.2487  0.0302  0.0644
 3499SOL     OW13761   3.695   0.192   4.571 -0.4040 -0.0100 -0.0783
 3499SOL    HW213762   3.745   0.151   4.642 -0.6570 -0.4440 -0.1487
 3499SOL    HW313763   3.604   0.168   4.589 -0.6588  1.1991  0.3358
 3499SOL    MW413764   3.690   0.183   4.583  0.9036 -0.7482 -0.5015
 3500SOL     OW13765   0.817   4.233   2.325 -0.2714 -0.1224  0.3800
 3500SOL    HW213766   0.723   4.222   2.340 -0.2430  0.2542  0.8570
 3500SOL    HW313767   0.832   4.328   2.331  0.1681 -0.1951  0.4857
 3500SOL    MW413768   0.806   4.244   2.328  0.4094  0.1712  0.2107
 3501SOL     OW13769   3.313   2.138   3.460 -0.0280  0.5879 -0.3338
 3501SOL    HW213770   3.374   2.066   3.471 -0.8091 -0.3022 -1.5180
 3501SOL    HW313771   3.242   2.120   3.522  0.3837  1.0569  0.2902
 3501SOL    MW413772   3.311   2.126   3.470  0.7814 -0.0428  0.4925
 3502SOL     OW13773   2.272   3.986   2.236  0.2968  0.1270 -0.3402
 3502SOL    HW213774   2.329   4.004   2.161 -0.0828  0.6583 -0.5085
 3502SOL    HW313775   2.273   3.891   2.245 -0.2599 -0.0089 -1.5017
 3502SOL    MW413776   2.280   3.976   2.228  0.2057  0.2056 -0.3713
 3503SOL     OW13777   0.320   2.185   4.377 -0.0008  0.4512  0.0944
 3503SOL    HW213778   0.398   2.144   4.338 -0.2264 -0.3600  0.4744
 3503SOL    HW313779   0.353   2.230   4.454  0.0375 -0.2800  0.5177
 3503SOL    MW413780   0.335   2.185   4.382  0.0861 -0.1302 -0.0453
 3504SOL     OW13781   6.252   2.067   0.181 -0.3165  0.1656 -0.1729
 3504SOL    HW213782   6.278   2.091   0.093 -1.1560  1.2900 -0.1479
 3504SOL    HW313783   6.334   2.059   0.230  0.1023  2.4892 -0.3547
 3504SOL    MW413784   6.266   2.069   0.176  0.2981  0.1163  0.2704
 3505SOL     OW13785   1.838   3.366   4.117 -0.4875 -0.1016  0.2200
 3505SOL    HW213786   1.764   3.379   4.057  1.0291 -0.6434 -1.9197
 3505SOL    HW313787   1.874   3.453   4.130  1.2352 -0.2459 -2.6244
 3505SOL    MW413788   1.833   3.379   4.111  0.2597  0.3034 -0.4205
 3506SOL     OW13789   2.188   6.380   6.225  0.6244 -0.0631 -0.5217
 3506SOL    HW213790   2.227   6.437   6.159 -0.6066  1.1867 -0.2296
 3506SOL    HW313791   2.115   6.431   6.261  0.4333 -1.2277  0.8647
 3506SOL    MW413792   2.183   6.394   6.221 -0.0710  0.2146 -0.1563
 3507SOL     OW13793   5.523   1.571   4.170 -0.4440 -0.2946  0.6793
 3507SOL    HW213794   5.567   1.496   4.131 -0.0735  1.1481 -1.8931
 3507SOL    HW313795   5.583   1.601   4.239  1.5440  0.1953 -1.1591
 3507SOL    MW413796   5.537   1.565   4.174  0.1589 -0.0609 -0.1187
 3508SOL     OW13797   1.729   3.879   2.318 -0.7067 -0.0127 -0.4323
 3508SOL    HW213798   1.772   3.921   2.392 -2.1299  0.1428  0.3432
 3508SOL    HW313799   1.801   3.851   2.261  0.4195 -0.0431  0.9454
 3508SOL    MW413800   1.744   3.881   2.320  0.4308  0.1824  0.0894
 3509SOL     OW13801   3.784   2.026   4.001  0.8243  0.1674  0.0975
 3509SOL    HW213802   3.781   1.933   3.978 -1.5669 -0.1047  1.1470
 3509SOL    HW313803   3.795   2.026   4.096 -2.0407  0.7694  0.5238
 3509SOL    MW413804   3.785   2.014   4.011 -0.1755  0.6006 -0.5361
 3510SOL     OW13805   1.939   6.150   2.507  0.3096 -0.0701 -0.7942
 3510SOL    HW213806   1.952   6.127   2.599 -0.6410  2.1560 -0.0386
 3510SOL    HW313807   1.912   6.069   2.465  0.2399 -1.0119  1.0005
 3510SOL    MW413808   1.937   6.137   2.513  0.5984  0.1899  0.0398
 3511SOL     OW13809   1.929   4.267   1.593  0.1267 -0.2924 -0.4038
 3511SOL    HW213810   1.930   4.362   1.604 -0.5609 -0.4316  1.0731
 3511SOL    HW313811   1.918   4.254   1.498  0.4986  1.0823 -0.6515
 3511SOL    MW413812   1.927   4.278   1.582  0.1260 -0.1710  0.4329
 3512SOL     OW13813   2.272   2.674   4.711 -0.0560 -0.4594 -0.9428
 3512SOL    HW213814   2.284   2.681   4.616 -0.3547 -1.1906 -1.0388
 3512SOL    HW313815   2.354   2.708   4.748  0.1498 -0.3844 -1.4619
 3512SOL    MW413816   2.285   2.680   4.703  0.1515 -0.0850 -0.0771
 3513SOL     OW13817   4.817   1.993   0.702  0.0840 -0.4345  0.2112
 3513SOL    HW213818   4.773   2.078   0.702  0.3362 -0.3028  0.1754
 3513SOL    HW313819   4.897   2.007   0.753  1.0876 -0.1411 -1.3486
 3513SOL    MW413820   4.822   2.006   0.709  0.0514 -0.1418 -0.3517
 3514SOL     OW13821   4.987   4.132   0.285  0.1383  0.7266  0.1590
 3514SOL    HW213822   4.945   4.094   0.208 -0.7950  0.1949  0.9145
 3514SOL    HW313823   4.996   4.225   0.263 -1.6876  0.9158  0.0661
 3514SOL    MW413824   4.983   4.139   0.272  0.0198 -0.1308 -0.1276
 3515SOL     OW13825   0.604   5.676   5.832  0.0607  0.5215 -0.2767
 3515SOL    HW213826   0.583   5.674   5.926  0.8245  1.2324 -0.0785
 3515SOL    HW313827   0.641   5.763   5.818  0.2521  0.3018 -1.1734
 3515SOL    MW413828   0.606   5.687   5.843  0.1282 -0.4137  0.6334
 3516SOL     OW13829   5.018   4.638   3.609  0.3292  0.3135  0.2224
 3516SOL    HW213830   4.924   4.618   3.615  0.3533  0.1760  0.1307
 3516SOL    HW313831   5.021   4.723   3.564  0.1789  1.0508  1.5321
 3516SOL    MW413832   5.006   4.647   3.604 -0.2475  0.8245 -0.1134
 3517SOL     OW13833   4.320   6.234   4.896  0.2879 -0.4372 -0.4007
 3517SOL    HW213834   4.232   6.238   4.932  0.3460 -1.1449 -0.1628
 3517SOL    HW313835   4.362   6.162   4.943  1.4117  0.7025  0.4219
 3517SOL    MW413836   4.314   6.225   4.907 -0.4051 -0.0696  0.3179
 3518SOL     OW13837   1.079   3.431   4.895  0.6979 -0.0309  0.2359
 3518SOL    HW213838   1.160   3.480   4.883 -0.7635  2.6107  0.1870
 3518SOL    HW313839   1.052   3.450   4.985 -1.1247  1.4167 -0.5302
 3518SOL    MW413840   1.086   3.440   4.905 -0.1676  0.6569 -0.6312
 3519SOL     OW13841   1.375   2.874   0.103 -0.5227 -0.0365 -0.4095
 3519SOL    HW213842   1.339   2.950   0.148  3.6308  1.5325  0.7226
 3519SOL    HW313843   1.367   2.894   0.010  1.2863  2.3979 -0.1503
 3519SOL    MW413844   1.369   2.887   0.097 -0.4081  0.5005  0.5866
 3520SOL     OW13845   0.854   2.399   0.206  0.2012 -0.3917  0.6004
 3520SOL    HW213846   0.861   2.451   0.286  0.5885  0.6279 -0.0707
 3520SOL    HW313847   0.897   2.316   0.227  1.6407  0.4160  1.0070
 3520SOL    MW413848   0.861   2.395   0.220 -0.2212  0.1199 -0.0082
 3521SOL     OW13849   1.442   0.642   1.871 -0.5459  0.4387 -0.2644
 3521SOL    HW213850   1.358   0.676   1.901 -1.1927 -1.5984  0.3781
 3521SOL    HW313851   1.503   0.660   1.942 -0.5566  1.3438 -0.4670
 3521SOL    MW413852   1.439   0.649   1.884 -0.0613  0.4302 -0.1925
 3522SOL     OW13853   5.944   4.336   1.640 -0.0244  0.4108  0.3263
 3522SOL    HW213854   5.910   4.377   1.561  1.5532 -1.0335 -1.1667
 3522SOL    HW313855   6.002   4.267   1.609  0.3403 -0.4719  2.7555
 3522SOL    MW413856   5.947   4.332   1.626 -0.3958 -0.2046 -0.4357
 3523SOL     OW13857   5.614   5.444   3.994 -0.0651 -0.0481 -0.0231
 3523SOL    HW213858   5.569   5.416   4.073  2.0080 -3.3515  0.1922
 3523SOL    HW313859   5.557   5.417   3.922 -1.0247  1.1734  0.2340
 3523SOL    MW413860   5.601   5.437   3.995 -0.2389  0.0070 -0.1010
 3524SOL     OW13861   0.796   1.124   2.487 -0.0358 -0.1611 -0.0524
 3524SOL    HW213862   0.847   1.118   2.567  1.2767 -0.6236 -0.8884
 3524SOL    HW313863   0.719   1.070   2.503  0.0746 -0.0206  0.9877
 3524SOL    MW413864   0.793   1.116   2.500  0.3517  0.4710  0.1439
 3525SOL     OW13865   3.580   3.861   1.750 -0.6226 -0.3305  0.4838
 3525SOL    HW213866   3.525   3.923   1.797  0.1590  0.2360  0.6835
 3525SOL    HW313867   3.584   3.896   1.661  0.9903  0.7691  0.9303
 3525SOL    MW413868   3.573   3.874   1.744  0.5211  0.2224  0.4506
 3526SOL     OW13869   6.306   4.242   1.112 -0.3710 -0.0844  0.7013
 3526SOL    HW213870   6.314   4.147   1.117 -0.7270 -0.0982  1.0665
 3526SOL    HW313871   6.323   4.273   1.201 -2.6277 -0.0090  1.1728
 3526SOL    MW413872   6.309   4.234   1.124 -0.7517 -0.5913  0.3611
 3527SOL     OW13873   2.584   6.127   5.037 -0.0856 -0.1622  0.0394
 3527SOL    HW213874   2.608   6.141   5.128  1.2119  0.1309 -0.3234
 3527SOL    HW313875   2.507   6.182   5.023 -0.9402 -1.0126  1.2100
 3527SOL    MW413876   2.577   6.136   5.047  0.8197  0.1289 -0.0224
 3528SOL     OW13877   1.721   2.513   2.873 -0.4096 -0.5617  0.4835
 3528SOL    HW213878   1.627   2.529   2.880 -0.7467 -1.4102 -1.5147
 3528SOL    HW313879   1.744   2.470   2.955 -1.6653  0.0380  1.1822
 3528SOL    MW413880   1.711   2.510   2.884 -0.8244  0.3475  0.1177
 3529SOL     OW13881   1.950   4.244   2.322  0.2229  0.4338  0.2562
 3529SOL    HW213882   1.988   4.192   2.251 -0.4939 -0.6297  0.6432
 3529SOL    HW313883   1.869   4.279   2.285 -0.6966 -0.9805  0.8482
 3529SOL    MW413884   1.944   4.242   2.308 -0.7675  0.2301 -0.2494
 3530SOL     OW13885   2.179   5.218   6.341  0.2119  0.7515 -0.1681
 3530SOL    HW213886   2.136   5.303   6.332  0.2059  0.6115 -1.6537
 3530SOL    HW313887   2.222   5.222   6.427  0.2868  2.2857 -0.2506
 3530SOL    MW413888   2.179   5.229   6.351 -0.2672 -0.2008 -0.0791
 3531SOL     OW13889   3.659   3.530   0.895 -0.0632  0.6636  0.2396
 3531SOL    HW213890   3.702   3.614   0.881  1.3862 -0.2786 -1.2811
 3531SOL    HW313891   3.606   3.517   0.816 -0.7663  0.4185  0.7390
 3531SOL    MW413892   3.657   3.539   0.883  0.5500 -0.3717  0.0292
 3532SOL     OW13893   6.181   2.701   1.571  0.2358  0.5222 -0.5064
 3532SOL    HW213894   6.166   2.706   1.665  0.8119 -1.6452 -0.2488
 3532SOL    HW313895   6.221   2.785   1.548  0.5669  0.8817  1.2746
 3532SOL    MW413896   6.184   2.712   1.580 -0.5347 -0.1206 -0.5028
 3533SOL     OW13897   2.072   2.863   3.357 -0.3354  0.4015 -0.1936
 3533SOL    HW213898   2.057   2.861   3.451 -1.9662 -0.9657 -0.4377
 3533SOL    HW313899   2.156   2.818   3.345 -0.7289 -0.5656  0.5269
 3533SOL    MW413900   2.081   2.857   3.368  0.3529 -0.4948 -0.3795
 3534SOL     OW13901   2.102   1.636   6.102  0.0225 -0.5207  0.3830
 3534SOL    HW213902   2.044   1.708   6.076  0.7279  0.4405  1.3572
 3534SOL    HW313903   2.169   1.678   6.157 -0.5617 -2.1791  2.5139
 3534SOL    MW413904   2.103   1.651   6.106  0.1118 -0.1062 -0.6547
 3535SOL     OW13905   2.185   1.730   0.822  0.2498 -0.0767  0.4228
 3535SOL    HW213906   2.280   1.743   0.822  0.5613 -1.9849  1.4850
 3535SOL    HW313907   2.164   1.708   0.731  0.5906  1.6205 -0.0964
 3535SOL    MW413908   2.195   1.728   0.810 -0.5912  0.9911  0.2011
 3536SOL     OW13909   4.209   2.665   6.123 -0.3416  0.1843  0.3922
 3536SOL    HW213910   4.247   2.581   6.096  1.4214  1.1464 -0.2975
 3536SOL    HW313911   4.120   2.663   6.090 -0.3394 -1.4139  0.3984
 3536SOL    MW413912   4.202   2.654   6.115  0.2968  0.4727  0.2457
 3537SOL     OW13913   0.441   4.794   5.503  0.1301 -0.4802  0.0691
 3537SOL    HW213914   0.393   4.726   5.455 -0.1475 -0.8512  0.8526
 3537SOL    HW313915   0.469   4.856   5.436 -2.1295  0.1656 -0.3515
 3537SOL    MW413916   0.438   4.793   5.488 -0.4353 -0.3985 -0.3182
 3538SOL     OW13917   1.708   1.514   5.350 -0.4983 -0.3813 -0.5617
 3538SOL    HW213918   1.676   1.603   5.337 -1.7065 -0.4646  1.4487
 3538SOL    HW313919   1.630   1.462   5.370  0.3536 -1.5557 -0.1424
 3538SOL    MW413920   1.694   1.519   5.351  0.4332 -0.5147  0.5316
 3539SOL     OW13921   2.044   5.616   6.095 -0.1463 -0.5349 -0.0859
 3539SOL    HW213922   2.093   5.572   6.024 -0.3720 -0.9584  0.0173
 3539SOL    HW313923   2.081   5.580   6.175 -2.1588 -2.6294  0.0013
 3539SOL    MW413924   2.055   5.605   6.096 -0.0043  0.4712 -0.3118
 3540SOL     OW13925   0.021   3.973   5.792  0.2567  0.1204  0.1811
 3540SOL    HW213926  -0.066   3.977   5.832  0.0020 -2.7790  0.1528
 3540SOL    HW313927   0.073   3.919   5.852  1.7606  0.9738 -0.2895
 3540SOL    MW413928   0.017   3.966   5.805 -0.2863  0.2971  0.0808
 3541SOL     OW13929   6.104   1.040   3.848 -0.0100 -0.2088 -0.0403
 3541SOL    HW213930   6.141   0.984   3.916 -0.5235 -0.3487  0.1290
 3541SOL    HW313931   6.050   1.104   3.895 -0.1695 -0.1526 -0.2930
 3541SOL    MW413932   6.102   1.041   3.863  0.2409 -0.2104  0.1884
 3542SOL     OW13933   6.194   2.579   0.975 -0.0153  0.4275  0.1282
 3542SOL    HW213934   6.165   2.663   0.940 -0.8050  0.6975  1.3791
 3542SOL    HW313935   6.275   2.599   1.021  0.0486  0.4114  0.0235
 3542SOL    MW413936   6.200   2.593   0.976  0.7623  0.6339  0.7026
 3543SOL     OW13937   2.580   4.055   3.240 -0.2864  0.1284 -0.6755
 3543SOL    HW213938   2.564   3.965   3.268  0.9573 -0.1445 -0.8009
 3543SOL    HW313939   2.656   4.050   3.182  1.7990  1.5970  1.6962
 3543SOL    MW413940   2.588   4.043   3.236  0.1569 -0.4097  0.3686
 3544SOL     OW13941   3.361   3.310   1.193  0.3211 -0.7890  0.2365
 3544SOL    HW213942   3.415   3.389   1.201  0.0955 -0.6798  0.7299
 3544SOL    HW313943   3.363   3.289   1.100  3.1352 -2.1419  0.4780
 3544SOL    MW413944   3.369   3.318   1.182  0.0704 -0.2633  0.3812
 3545SOL     OW13945   6.368   4.394   4.018  0.1224 -0.3210  0.0759
 3545SOL    HW213946   6.334   4.481   4.040  0.1172  0.0892 -1.4805
 3545SOL    HW313947   6.298   4.334   4.046 -0.4502  0.2666 -0.0695
 3545SOL    MW413948   6.354   4.398   4.025 -0.4541 -0.1159 -0.3937
 3546SOL     OW13949   1.086   1.865   1.387 -0.6165  0.2702  0.4500
 3546SOL    HW213950   1.144   1.929   1.430  0.4902 -0.2659 -0.2028
 3546SOL    HW313951   1.069   1.799   1.454  0.1212  0.0649  0.4413
 3546SOL    MW413952   1.091   1.865   1.402  0.6741 -0.0238  0.0156
 3547SOL     OW13953   0.956   3.477   1.280 -0.0156  0.0422 -0.0394
 3547SOL    HW213954   0.986   3.561   1.244 -0.4624 -0.6484 -2.1768
 3547SOL    HW313955   0.885   3.450   1.221 -1.8700 -0.4863  2.3013
 3547SOL    MW413956   0.950   3.485   1.267 -0.2654  0.2896  0.0412
 3548SOL     OW13957   5.968   3.173   5.631 -0.3385 -0.2244 -0.1372
 3548SOL    HW213958   6.048   3.167   5.684 -0.4373 -0.1499  0.0208
 3548SOL    HW313959   5.897   3.166   5.694 -0.4604 -0.5378 -0.3032
 3548SOL    MW413960   5.969   3.171   5.646 -0.7180 -0.1387  0.1251
 3549SOL     OW13961   3.742   3.866   3.805  0.2879 -0.3436 -0.6829
 3549SOL    HW213962   3.836   3.861   3.822  0.4443 -0.4726 -1.5455
 3549SOL    HW313963   3.701   3.854   3.891  0.9921 -2.8430 -0.6255
 3549SOL    MW413964   3.749   3.863   3.819  0.0423 -0.0225  0.4845
 3550SOL     OW13965   0.073   2.522   2.232 -0.2315 -0.3272  0.1318
 3550SOL    HW213966   0.139   2.471   2.278 -0.3561 -0.3031  0.3363
 3550SOL    HW313967   0.064   2.602   2.284 -1.7933 -1.1326  1.1628
 3550SOL    MW413968   0.080   2.526   2.245  0.6253 -0.2270 -0.3365
 3551SOL     OW13969   1.886   5.512   5.050  0.1113  0.3351  0.2350
 3551SOL    HW213970   1.973   5.509   5.011 -0.5272 -2.0090 -1.2051
 3551SOL    HW313971   1.827   5.527   4.976 -0.7845  1.2225  1.0918
 3551SOL    MW413972   1.890   5.514   5.035  0.7027  0.1743 -0.3814
 3552SOL     OW13973   0.153   5.955   0.745  0.0397  0.6707  0.3559
 3552SOL    HW213974   0.122   5.865   0.755 -1.1776  0.7304 -2.0212
 3552SOL    HW313975   0.223   5.948   0.680 -0.8462  1.5343 -0.7279
 3552SOL    MW413976   0.158   5.942   0.737  0.1607  0.3573  0.3857
 3553SOL     OW13977   5.676   6.220   5.113  0.0205  0.0706 -0.4377
 3553SOL    HW213978   5.719   6.141   5.081  0.1503  0.0168 -0.1345
 3553SOL    HW313979   5.612   6.189   5.177 -0.0440  0.1968 -0.4396
 3553SOL    MW413980   5.674   6.206   5.117 -0.0823 -0.2522  0.1736
 3554SOL     OW13981   2.344   3.396   2.268  0.1800  0.3356 -0.2230
 3554SOL    HW213982   2.380   3.371   2.353  0.7966 -0.7503 -0.7838
 3554SOL    HW313983   2.342   3.315   2.218 -2.7928  0.3723 -0.3528
 3554SOL    MW413984   2.348   3.382   2.273 -0.1169  0.1175 -0.3729
 3555SOL     OW13985   5.507   2.985   1.103 -0.2253 -0.2539  0.0120
 3555SOL    HW213986   5.431   2.929   1.120 -2.9204  2.8319 -0.7353
 3555SOL    HW313987   5.562   2.975   1.181 -2.4997 -1.0210  1.6344
 3555SOL    MW413988   5.504   2.976   1.116 -0.3726  0.2775  0.6852
 3556SOL     OW13989   4.842   1.357   1.289  0.2328 -0.3399 -0.0747
 3556SOL    HW213990   4.797   1.272   1.283 -1.3955  0.5001 -0.1776
 3556SOL    HW313991   4.866   1.377   1.199 -1.8643  0.5615 -0.4916
 3556SOL    MW413992   4.839   1.348   1.276  0.2331  0.2396  0.1353
 3557SOL     OW13993   2.492   4.320   6.167  0.7040  0.2082 -0.5552
 3557SOL    HW213994   2.504   4.266   6.245  0.1865  0.5987 -0.2044
 3557SOL    HW313995   2.567   4.380   6.167  0.0112  1.1022  0.3800
 3557SOL    MW413996   2.504   4.321   6.177 -0.1294 -0.2986 -0.1994
 3558SOL     OW13997   2.887   5.855   1.095 -0.1708 -0.1634  0.2331
 3558SOL    HW213998   2.878   5.759   1.099 -2.4593 -0.1778 -2.3341
 3558SOL    HW313999   2.966   5.870   1.044 -0.6955 -0.7759 -0.8022
 3558SOL    MW414000   2.896   5.844   1.089  0.1228  0.7383 -0.2720
 3559SOL     OW14001   1.979   3.721   6.079  0.2517  0.2798 -0.6329
 3559SOL    HW214002   2.072   3.721   6.056  0.2419 -0.7456 -0.6835
 3559SOL    HW314003   1.943   3.796   6.031  0.9948  0.5123 -0.8397
 3559SOL    MW414004   1.986   3.731   6.069  0.6643  0.1870 -0.4641
 3560SOL     OW14005   6.155   1.340   2.739  0.2085  0.0544  0.0079
 3560SOL    HW214006   6.111   1.255   2.744  0.2878 -0.1317 -1.6688
 3560SOL    HW314007   6.244   1.318   2.712  0.3401  0.6432 -0.0387
 3560SOL    MW414008   6.161   1.326   2.736  0.3564  0.2427  0.1267
 3561SOL     OW14009   0.442   0.172   5.704  0.1737 -0.1476  0.3983
 3561SOL    HW214010   0.484   0.135   5.627  0.5155 -1.3009  1.1063
 3561SOL    HW314011   0.451   0.267   5.694  0.8930 -0.3111 -0.5963
 3561SOL    MW414012   0.449   0.180   5.693 -0.2902  0.5364  0.2929
 3562SOL     OW14013   5.476   1.645   2.215  0.0209 -0.5305  0.0583
 3562SOL    HW214014   5.487   1.690   2.299 -0.4360 -2.4030  1.1945
 3562SOL    HW314015   5.561   1.607   2.196  0.3431  0.5533 -0.7805
 3562SOL    MW414016   5.489   1.646   2.224 -0.1349  0.1569 -0.3843
 3563SOL     OW14017   2.037   3.805   0.568  0.2471 -0.1285 -0.5058
 3563SOL    HW214018   2.028   3.745   0.643 -1.6490  1.0715  0.2821
 3563SOL    HW314019   2.067   3.887   0.607 -1.2751  0.6677 -0.9529
 3563SOL    MW414020   2.040   3.808   0.583  0.9523  0.1777  0.1617
 3564SOL     OW14021   1.884   4.657   1.990 -0.0829 -0.5163  0.0084
 3564SOL    HW214022   1.939   4.684   2.063 -1.5494  2.4520  0.1608
 3564SOL    HW314023   1.804   4.624   2.031 -0.3492 -0.2008 -0.2535
 3564SOL    MW414024   1.880   4.656   2.005 -0.2072  0.0589  0.1214
 3565SOL     OW14025   1.239   4.665   1.946 -0.7633 -0.2489 -0.4926
 3565SOL    HW214026   1.308   4.717   1.905 -1.5003  1.8740  0.8010
 3565SOL    HW314027   1.212   4.603   1.878  3.6283 -2.5818 -0.5334
 3565SOL    MW414028   1.245   4.664   1.932 -0.1638 -0.2260  0.3460
 3566SOL     OW14029   5.845   0.755   6.121  0.1950  0.0792  0.6086
 3566SOL    HW214030   5.809   0.812   6.053  0.7752  2.2559  2.0418
 3566SOL    HW314031   5.771   0.701   6.148 -0.3682  0.1020 -0.8064
 3566SOL    MW414032   5.830   0.755   6.115 -0.7417 -0.0113 -0.1043
 3567SOL     OW14033   6.152   5.377   5.691  0.4829  1.0531 -0.0264
 3567SOL    HW214034   6.160   5.334   5.776  3.5445  1.0497 -0.2209
 3567SOL    HW314035   6.210   5.327   5.633 -2.8795 -0.1047 -2.7132
 3567SOL    MW414036   6.161   5.365   5.695  0.4147 -0.1888 -0.1789
 3568SOL     OW14037   2.199   0.124   4.155  0.0517  0.2302  0.3257
 3568SOL    HW214038   2.170   0.060   4.220 -4.0324  1.1718 -0.2822
 3568SOL    HW314039   2.239   0.194   4.207 -0.1185 -0.4953  1.4866
 3568SOL    MW414040   2.200   0.125   4.171  0.2887  0.1949 -0.3182
 3569SOL     OW14041   4.288   4.372   3.978 -0.2761  0.6945 -0.0207
 3569SOL    HW214042   4.381   4.352   3.984 -0.5150 -0.4292  0.2564
 3569SOL    HW314043   4.281   4.437   3.909  0.8695  1.9061  0.9720
 3569SOL    MW414044   4.299   4.378   3.970 -0.3788 -0.0241  0.7199
 3570SOL     OW14045   2.168   5.510   6.319 -0.1073  0.4623 -0.2013
 3570SOL    HW214046   2.194   5.573   6.386 -0.4227  0.4381 -0.0581
 3570SOL    HW314047   2.251   5.472   6.289 -0.0583 -0.7837  1.4064
 3570SOL    MW414048   2.183   5.513   6.324 -0.5145 -0.1489 -0.1005
 3571SOL     OW14049   1.759   0.242   2.186  0.4750 -0.2755  0.3777
 3571SOL    HW214050   1.683   0.204   2.141  1.3344 -0.1026 -1.3197
 3571SOL    HW314051   1.721   0.298   2.254 -0.8890 -0.8593  0.1307
 3571SOL    MW414052   1.744   0.245   2.189  0.2063  0.1366  0.8322
 3572SOL     OW14053   4.993   1.649   2.548 -0.2527 -0.0766 -0.5409
 3572SOL    HW214054   5.049   1.592   2.601 -3.9164 -2.6049  1.0855
 3572SOL    HW314055   5.052   1.716   2.513  3.5310 -2.0250  1.4868
 3572SOL    MW414056   5.008   1.650   2.550  0.0890 -0.1559 -0.0985
 3573SOL     OW14057   3.161   2.201   4.570  0.0812  0.3258  0.7106
 3573SOL    HW214058   3.187   2.170   4.483 -0.1756  1.4505  0.2106
 3573SOL    HW314059   3.070   2.173   4.580 -0.4932  1.7663 -0.1806
 3573SOL    MW414060   3.153   2.193   4.560  0.2108 -0.0753  0.3164
 3574SOL     OW14061   5.275   4.976   3.207 -0.3079  0.2997 -0.3055
 3574SOL    HW214062   5.232   4.936   3.132  0.2252  0.1835 -0.5559
 3574SOL    HW314063   5.364   4.942   3.205 -0.3510  0.1066  0.5230
 3574SOL    MW414064   5.281   4.966   3.197 -0.3839  0.2587 -0.6411
 3575SOL     OW14065   1.632   2.784   0.261  0.2758  0.6473  0.3819
 3575SOL    HW214066   1.705   2.839   0.231  1.1198 -0.2985  0.6814
 3575SOL    HW314067   1.554   2.832   0.233  0.9729  2.3129  1.1595
 3575SOL    MW414068   1.631   2.798   0.254  0.3955  0.4645  0.4088
 3576SOL     OW14069   4.552   5.750   1.849 -0.6468  0.2222  0.1011
 3576SOL    HW214070   4.579   5.658   1.857  0.9952  0.7532  1.3135
 3576SOL    HW314071   4.593   5.780   1.767 -0.3803  0.1284  0.2011
 3576SOL    MW414072   4.561   5.742   1.839  0.2577  0.3638 -0.3019
 3577SOL     OW14073   1.425   5.274   3.311 -0.3147 -0.4034  0.3409
 3577SOL    HW214074   1.387   5.196   3.351  1.0893 -0.8080  0.9572
 3577SOL    HW314075   1.419   5.258   3.217 -0.6143 -0.9663  0.4502
 3577SOL    MW414076   1.419   5.262   3.304  0.1996 -0.2067 -0.3014
 3578SOL     OW14077   5.717   1.226   2.240 -0.1379  0.6674  0.5094
 3578SOL    HW214078   5.799   1.176   2.237 -0.2689  0.4755  0.2025
 3578SOL    HW314079   5.661   1.185   2.175 -1.2930 -0.6096  2.2326
 3578SOL    MW414080   5.721   1.214   2.231  0.2011  0.0090 -0.2368
 3579SOL     OW14081   3.376   2.352   5.506  0.5701  0.0651 -0.6697
 3579SOL    HW214082   3.307   2.307   5.555  0.1431 -1.9404 -2.9080
 3579SOL    HW314083   3.332   2.426   5.465 -0.1737 -0.8389 -1.5646
 3579SOL    MW414084   3.361   2.356   5.507  0.1641 -0.1733  0.0278
 3580SOL     OW14085   1.140   2.846   5.510 -0.0002  0.0492 -0.6498
 3580SOL    HW214086   1.083   2.778   5.545  1.8978 -0.1533  2.3955
 3580SOL    HW314087   1.098   2.872   5.427 -2.0852 -3.0461 -0.7380
 3580SOL    MW414088   1.127   2.840   5.503 -0.1126 -0.3919 -0.1287
 3581SOL     OW14089   3.668   5.842   4.691  0.2145  0.1887 -0.1064
 3581SOL    HW214090   3.763   5.830   4.698  0.3744  1.8450  0.9773
 3581SOL    HW314091   3.634   5.815   4.777 -0.2235  0.3544 -0.2232
 3581SOL    MW414092   3.676   5.837   4.703 -0.0300 -0.2363  0.4764
 3582SOL     OW14093   4.527   3.747   3.503  0.0584  0.2319  0.1528
 3582SOL    HW214094   4.461   3.811   3.477  0.1095  0.5470  0.7756
 3582SOL    HW314095   4.574   3.789   3.576  1.8303  0.5663 -1.1099
 3582SOL    MW414096   4.524   3.761   3.509  0.1685 -0.1391 -0.8034
 3583SOL     OW14097   4.498   1.097   3.643 -0.2635 -0.2410 -0.2192
 3583SOL    HW214098   4.437   1.071   3.711 -1.1942  0.8267 -0.6220
 3583SOL    HW314099   4.584   1.074   3.678 -0.6531  0.9232  1.6250
 3583SOL    MW414100   4.502   1.090   3.656  0.1984 -0.6134  0.3671
 3584SOL     OW14101   0.961   6.231   4.784 -0.5417 -0.2542 -0.3294
 3584SOL    HW214102   0.868   6.249   4.769 -0.9010 -0.4921  1.4319
 3584SOL    HW314103   0.997   6.315   4.813 -1.1602 -0.9824  3.0152
 3584SOL    MW414104   0.953   6.244   4.786 -0.2999 -0.7239 -0.2418
 3585SOL     OW14105   1.422   0.385   5.138 -0.5626 -0.6120  0.4552
 3585SOL    HW214106   1.389   0.426   5.218 -1.7030 -0.6385  0.0110
 3585SOL    HW314107   1.482   0.317   5.168  2.8205  2.4379  1.2242
 3585SOL    MW414108   1.426   0.381   5.152  0.0958  0.3205 -0.3017
 3586SOL     OW14109   5.656   4.135   4.016 -0.5827  0.0861  0.0598
 3586SOL    HW214110   5.643   4.220   3.972 -1.6044 -0.9652 -1.8105
 3586SOL    HW314111   5.587   4.132   4.082 -1.5987  0.0886 -0.9478
 3586SOL    MW414112   5.645   4.146   4.019 -0.1515  0.2849  0.1516
 3587SOL     OW14113   0.143   0.294   4.057 -0.0899  0.4945 -0.6960
 3587SOL    HW214114   0.060   0.328   4.024  0.4454  0.3442 -2.3169
 3587SOL    HW314115   0.119   0.230   4.123 -1.2697  0.3533 -1.2407
 3587SOL    MW414116   0.129   0.290   4.061 -0.2584  0.1315 -0.2249
 3588SOL     OW14117   3.866   4.283   3.666  0.3913 -0.2981 -0.1256
 3588SOL    HW214118   3.938   4.232   3.702  0.8471  0.6085  0.2753
 3588SOL    HW314119   3.881   4.372   3.698 -0.5144  0.0454 -0.6168
 3588SOL    MW414120   3.877   4.288   3.675  0.3483  0.1414  0.1901
 3589SOL     OW14121   2.357   5.152   5.802 -0.0926 -0.5157  0.2504
 3589SOL    HW214122   2.342   5.127   5.893 -0.9256  0.5808  0.4377
 3589SOL    HW314123   2.272   5.185   5.772  0.5065  0.3940 -0.5026
 3589SOL    MW414124   2.344   5.153   5.810  0.3463  0.0767 -0.3208
 3590SOL     OW14125   3.843   5.474   1.088 -0.3970  0.1614  0.5091
 3590SOL    HW214126   3.792   5.484   1.168  0.1583  0.6339  0.8088
 3590SOL    HW314127   3.886   5.388   1.096 -0.7406 -0.0158  0.4793
 3590SOL    MW414128   3.842   5.464   1.099 -0.0171 -0.2173  0.2256
 3591SOL     OW14129   1.479   4.839   6.093  0.0522 -0.1716  0.5118
 3591SOL    HW214130   1.574   4.837   6.088  0.0598  1.4319 -1.3673
 3591SOL    HW314131   1.451   4.866   6.005 -2.2015 -1.7791  0.6561
 3591SOL    MW414132   1.488   4.843   6.081 -0.5374 -0.1025 -0.1504
 3592SOL     OW14133   0.590   2.462   4.103  0.1597 -0.4209  0.4200
 3592SOL    HW214134   0.578   2.526   4.174  1.2632  0.2341  0.0411
 3592SOL    HW314135   0.508   2.413   4.101  0.0340 -0.3363  2.0299
 3592SOL    MW414136   0.578   2.464   4.112  0.2482 -0.3857  0.0325
 3593SOL     OW14137   1.185   2.226   1.219  0.3142  0.5505  0.1674
 3593SOL    HW214138   1.248   2.158   1.241  0.2285  0.7022  0.8989
 3593SOL    HW314139   1.234   2.308   1.227  0.8236  0.5282 -2.1189
 3593SOL    MW414140   1.199   2.228   1.223 -0.4066 -0.5376  0.0779
 3594SOL     OW14141   0.351   1.572   5.142  0.1191  0.3829 -0.0208
 3594SOL    HW214142   0.444   1.583   5.126 -0.0689  1.2614 -0.5899
 3594SOL    HW314143   0.329   1.488   5.101  0.7933 -0.1778  0.7573
 3594SOL    MW414144   0.360   1.562   5.134  0.1501 -0.3566 -0.4730
 3595SOL     OW14145   1.374   1.413   3.653  0.0890 -0.1588 -0.1828
 3595SOL    HW214146   1.434   1.370   3.592 -1.2697 -0.2524 -1.5322
 3595SOL    HW314147   1.290   1.371   3.636 -0.6610  0.9981  0.5695
 3595SOL    MW414148   1.371   1.402   3.642  0.1537 -0.0284  0.7565
 3596SOL     OW14149   4.974   2.474   5.714 -0.3949 -0.1773  0.2805
 3596SOL    HW214150   4.989   2.381   5.731 -0.0000 -0.1891 -0.1245
 3596SOL    HW314151   4.932   2.477   5.628  0.3426  0.0696 -0.0736
 3596SOL    MW414152   4.970   2.462   5.705  0.1304 -0.0227  0.0467
 3597SOL     OW14153   6.431   6.287   4.171 -0.1589 -0.1528 -0.1508
 3597SOL    HW214154   6.477   6.243   4.243 -0.7553 -0.1384  0.2462
 3597SOL    HW314155   6.499   6.304   4.106  0.1421 -1.4366 -0.2096
 3597SOL    MW414156   6.446   6.283   4.172 -0.3316 -0.2712  0.1301
 3598SOL     OW14157   2.150   1.252   5.993  0.3105 -0.9355 -0.7761
 3598SOL    HW214158   2.064   1.211   5.988 -1.2090  1.7728  0.7195
 3598SOL    HW314159   2.138   1.337   5.949  1.9505 -0.1469  0.2235
 3598SOL    MW414160   2.137   1.258   5.986 -0.2814  0.1905  0.1182
 3599SOL     OW14161   3.225   3.498   3.819  0.3237  0.1026 -0.0886
 3599SOL    HW214162   3.249   3.421   3.767  1.8693  0.9894 -0.7860
 3599SOL    HW314163   3.246   3.475   3.909 -0.3609 -0.7016 -0.1301
 3599SOL    MW414164   3.231   3.485   3.824  0.1018  0.1835  0.4159
 3600SOL     OW14165   5.860   4.706   5.981 -0.1646 -0.0008 -0.1217
 3600SOL    HW214166   5.816   4.771   6.037 -1.1891 -0.1969 -0.6770
 3600SOL    HW314167   5.874   4.752   5.899 -2.2094 -0.8694 -1.0279
 3600SOL    MW414168   5.856   4.721   5.978 -0.0375 -0.0698  0.2615
 3601SOL     OW14169   3.284   5.873   4.303 -0.5187 -0.0942  0.1453
 3601SOL    HW214170   3.227   5.800   4.281 -0.8498  0.0148  0.6083
 3601SOL    HW314171   3.327   5.847   4.385 -0.4066  0.1000  0.1509
 3601SOL    MW414172   3.282   5.860   4.311  0.1170 -0.3551  0.4062
 3602SOL     OW14173   4.222   2.584   3.284 -0.4884 -0.1276 -0.7033
 3602SOL    HW214174   4.231   2.589   3.379  0.0338  0.6733 -0.7847
 3602SOL    HW314175   4.166   2.658   3.261 -0.6414 -0.3381 -1.0204
 3602SOL    MW414176   4.216   2.594   3.293 -0.6542 -0.2488 -0.5524
 3603SOL     OW14177   5.192   6.033   5.998 -0.0168 -0.4202  0.1508
 3603SOL    HW214178   5.201   5.976   6.074  0.7989 -0.1088  0.2955
 3603SOL    HW314179   5.274   6.083   5.995 -0.4582  0.3018 -0.3279
 3603SOL    MW414180   5.204   6.032   6.008  1.1824  0.1148  0.3076
 3604SOL     OW14181   3.956   0.015   5.442 -0.2468  0.4915  0.8714
 3604SOL    HW214182   4.000   0.099   5.454 -1.4069  1.1965  0.3938
 3604SOL    HW314183   3.945   0.007   5.347 -2.3353  1.0091  1.0257
 3604SOL    MW414184   3.960   0.025   5.431  0.9730 -0.2576 -0.5552
 3605SOL     OW14185   5.019   1.305   0.301 -0.3303 -0.0648 -0.1559
 3605SOL    HW214186   4.959   1.350   0.242  0.0352  0.2028 -0.3268
 3605SOL    HW314187   5.085   1.371   0.324 -0.0879 -0.3592  0.0103
 3605SOL    MW414188   5.020   1.319   0.296 -0.0483 -0.0904  0.5549
 3606SOL     OW14189   5.511   4.933   5.016  0.1112  0.3669 -0.0717
 3606SOL    HW214190   5.575   4.920   5.086 -0.5243 -1.5252  0.2060
 3606SOL    HW314191   5.559   4.913   4.935 -0.0422 -0.8468  0.1208
 3606SOL    MW414192   5.526   4.929   5.014 -0.1599 -0.3633  0.0454
 3607SOL     OW14193   3.865   2.176   1.982 -0.5014  0.3317  0.1420
 3607SOL    HW214194   3.893   2.207   1.896 -1.1261 -1.1587 -0.6159
 3607SOL    HW314195   3.876   2.081   1.979 -0.9471  0.2064  1.5556
 3607SOL    MW414196   3.870   2.168   1.971 -0.5762  0.2728 -0.4284
 3608SOL     OW14197   5.049   3.561   0.093  0.1073 -0.8535  0.4028
 3608SOL    HW214198   5.010   3.615   0.162  1.3952 -1.0078  1.2894
 3608SOL    HW314199   5.000   3.478   0.098 -0.0555 -0.7336  0.8886
 3608SOL    MW414200   5.037   3.557   0.103 -0.5104 -0.5479 -0.0795
 3609SOL     OW14201   1.600   4.860   3.703 -0.3266 -0.0036 -0.3417
 3609SOL    HW214202   1.601   4.808   3.623 -1.3256 -1.4044  0.5024
 3609SOL    HW314203   1.515   4.840   3.743 -0.9602  2.6590 -0.1834
 3609SOL    MW414204   1.589   4.850   3.698  0.1337  0.2474 -0.6157
 3610SOL     OW14205   1.246   6.151   4.640  0.2767 -0.1903 -0.1725
 3610SOL    HW214206   1.159   6.113   4.625 -0.0229  0.4856 -0.1917
 3610SOL    HW314207   1.280   6.166   4.552  0.1081  0.2053 -0.1766
 3610SOL    MW414208   1.239   6.148   4.626  0.5792  0.0356  0.6990
 3611SOL     OW14209   3.624   3.165   0.989  0.0263  0.0771 -0.5348
 3611SOL    HW214210   3.554   3.221   0.956 -0.7924  0.5658  1.8199
 3611SOL    HW314211   3.679   3.223   1.041 -0.1560 -1.0477  0.9825
 3611SOL    MW414212   3.622   3.180   0.991  0.3246 -0.3464 -0.6399
 3612SOL     OW14213   3.906   2.160   3.000 -0.2269 -0.0869 -0.0980
 3612SOL    HW214214   3.889   2.253   2.985  0.8784  0.0283 -0.8233
 3612SOL    HW314215   3.991   2.159   3.045  0.2553 -0.7637 -0.9957
 3612SOL    MW414216   3.915   2.172   3.004 -0.0093 -0.5498  0.4815
 3613SOL     OW14217   1.972   3.198   0.120  0.0050  0.2241  0.2999
 3613SOL    HW214218   1.915   3.267   0.088  0.8701 -0.1063 -2.1347
 3613SOL    HW314219   2.058   3.217   0.082  1.3052  0.0652  2.9333
 3613SOL    MW414220   1.976   3.209   0.111 -0.4789  0.1118  0.1639
 3614SOL     OW14221   0.235   0.256   1.442  0.4233  0.3827 -0.0894
 3614SOL    HW214222   0.278   0.188   1.390 -0.4229 -0.9466  0.9078
 3614SOL    HW314223   0.253   0.232   1.533 -1.6574  0.2624  0.3380
 3614SOL    MW414224   0.243   0.244   1.447  0.1640 -0.1042  0.1692
 3615SOL     OW14225   3.749   3.808   0.834  0.0930  0.0527 -0.8758
 3615SOL    HW214226   3.794   3.811   0.749  0.7139  0.4791 -0.5364
 3615SOL    HW314227   3.674   3.866   0.823  0.6320  0.7617 -0.8787
 3615SOL    MW414228   3.745   3.816   0.821  0.1316  0.0583 -0.0455
 3616SOL     OW14229   5.317   4.762   4.199 -0.4161 -0.2361 -0.0049
 3616SOL    HW214230   5.264   4.810   4.135 -0.6241 -1.4462 -0.7593
 3616SOL    HW314231   5.352   4.831   4.257 -2.0994  0.6614  0.0002
 3616SOL    MW414232   5.315   4.778   4.198  0.1591  0.1257 -0.3141
 3617SOL     OW14233   0.022   3.417   4.454  0.3527 -0.1485 -0.3873
 3617SOL    HW214234  -0.049   3.465   4.411  1.7005  1.1715 -1.2344
 3617SOL    HW314235   0.006   3.429   4.547 -1.0179 -0.6291 -0.5416
 3617SOL    MW414236   0.010   3.425   4.460  0.2525 -0.3628  0.1228
 3618SOL     OW14237   5.484   0.217   0.799  0.0743 -0.9063  0.4800
 3618SOL    HW214238   5.435   0.148   0.753  3.0795 -0.7435 -3.5952
 3618SOL    HW314239   5.454   0.299   0.759  1.1040 -0.5002  0.5054
 3618SOL    MW414240   5.474   0.219   0.787 -0.3659  0.0887 -0.2819
 3619SOL     OW14241   5.121   5.308   1.602  0.2206  0.2283  0.0050
 3619SOL    HW214242   5.083   5.241   1.660 -0.2419 -0.3907 -0.9911
 3619SOL    HW314243   5.199   5.266   1.566  0.4129  0.5533  0.0387
 3619SOL    MW414244   5.127   5.293   1.605  0.0072  0.1874 -0.3951
 3620SOL     OW14245   1.901   3.930   4.705  0.4764 -0.3142  0.3338
 3620SOL    HW214246   1.829   3.887   4.659 -0.5963  0.5387  1.1584
 3620SOL    HW314247   1.916   3.876   4.782  0.1517 -0.0716  0.5762
 3620SOL    MW414248   1.893   3.918   4.709 -0.2107  0.0118 -1.0672
 3621SOL     OW14249   1.680   5.057   2.322  0.1998  0.0603 -0.3377
 3621SOL    HW214250   1.741   5.112   2.272 -1.2669  1.3599 -0.7798
 3621SOL    HW314251   1.713   5.061   2.412  1.0225  0.3712 -0.6415
 3621SOL    MW414252   1.692   5.065   2.327 -0.1813 -0.0311  0.1061
 3622SOL     OW14253   0.231   3.057   3.427  0.3133 -0.1921  0.4636
 3622SOL    HW214254   0.327   3.055   3.436  0.3123  1.1740  0.9812
 3622SOL    HW314255   0.213   3.139   3.382 -0.5643 -0.9655 -0.6497
 3622SOL    MW414256   0.242   3.068   3.422  0.1348 -0.5031  0.8307
 3623SOL     OW14257   1.878   6.216   4.847  0.6830 -0.2885 -0.5872
 3623SOL    HW214258   1.818   6.291   4.854 -0.4895 -1.1436 -1.0822
 3623SOL    HW314259   1.959   6.246   4.888  0.0726  1.0718 -0.3170
 3623SOL    MW414260   1.881   6.230   4.853 -0.5770 -0.4124 -0.2845
 3624SOL     OW14261   4.648   0.114   4.316 -0.3426  0.0662 -0.1515
 3624SOL    HW214262   4.618   0.101   4.226 -1.5978  0.2412  0.2211
 3624SOL    HW314263   4.670   0.208   4.320  0.8384 -0.1813 -0.5841
 3624SOL    MW414264   4.647   0.125   4.304 -0.2171 -0.5646  0.0367
 3625SOL     OW14265   0.915   4.443   5.470  0.0859 -0.2740 -0.2867
 3625SOL    HW214266   0.968   4.503   5.419 -0.3312 -0.2566 -0.7078
 3625SOL    HW314267   0.830   4.487   5.479  0.2530 -0.1393  0.6935
 3625SOL    MW414268   0.911   4.456   5.464 -0.1712  0.6895 -0.3972
 3626SOL     OW14269   6.007   6.106   4.028 -0.0889 -0.0205  0.2599
 3626SOL    HW214270   5.996   6.074   3.938 -0.0153  0.0490  0.2253
 3626SOL    HW314271   6.101   6.101   4.044 -0.1933 -0.8454  0.6442
 3626SOL    MW414272   6.018   6.101   4.018  0.4255  0.1584  0.3749
 3627SOL     OW14273   1.780   6.309   2.976  0.4306  0.2528  0.1312
 3627SOL    HW214274   1.751   6.246   3.041  0.9381 -0.0529  0.0720
 3627SOL    HW314275   1.818   6.255   2.906 -0.1058  0.5759 -0.4188
 3627SOL    MW414276   1.781   6.293   2.975  0.0489  0.6534 -0.2690
 3628SOL     OW14277   3.594   4.422   4.238 -0.4996 -0.2592  0.3805
 3628SOL    HW214278   3.501   4.431   4.219 -0.5419 -0.1422  0.6376
 3628SOL    HW314279   3.606   4.330   4.261 -0.5331 -0.2964  0.2486
 3628SOL    MW414280   3.583   4.411   4.238  0.2626  0.0558  0.4023
 3629SOL     OW14281   5.369   1.348   2.983 -0.0280 -0.1104 -0.4393
 3629SOL    HW214282   5.423   1.427   2.980 -1.7111  1.1187  0.2501
 3629SOL    HW314283   5.363   1.320   2.892  1.8234 -0.3636 -0.5285
 3629SOL    MW414284   5.376   1.355   2.971 -0.3941 -0.2050 -0.1872
 3630SOL     OW14285   1.893   3.189   0.406  0.0018 -0.0045  0.4137
 3630SOL    HW214286   1.978   3.202   0.448 -0.4979  1.4878  1.0312
 3630SOL    HW314287   1.909   3.205   0.313  0.5047 -0.3323  0.4403
 3630SOL    MW414288   1.906   3.192   0.399 -0.0939 -0.3484 -0.3471
 3631SOL     OW14289   3.177   3.179   0.492  0.7375  0.0757 -0.1393
 3631SOL    HW214290   3.147   3.235   0.564  0.1406  0.1890 -0.4721
 3631SOL    HW314291   3.097   3.146   0.451  1.0842 -0.8084 -0.1246
 3631SOL    MW414292   3.162   3.182   0.496 -0.0111 -0.0112  0.3295
 3632SOL     OW14293   3.743   4.250   1.592  0.1001  0.3550  0.3934
 3632SOL    HW214294   3.649   4.260   1.607  0.0133  0.6749 -0.3423
 3632SOL    HW314295   3.758   4.286   1.505  0.8210 -0.1850  0.2808
 3632SOL    MW414296   3.733   4.256   1.582 -0.3451  0.3803 -0.4236
 3633SOL     OW14297   3.415   2.918   6.218 -0.0440  1.1582  0.3958
 3633SOL    HW214298   3.373   2.849   6.166  0.3945 -0.3586  1.9437
 3633SOL    HW314299   3.438   2.986   6.155 -0.3878 -0.1757 -1.2198
 3633SOL    MW414300   3.413   2.918   6.203  0.0166 -0.5658 -0.3982
 3634SOL     OW14301   0.718   3.076   2.867 -0.1203  0.6453 -0.8599
 3634SOL    HW214302   0.670   3.159   2.869 -1.1297  0.0902 -1.6851
 3634SOL    HW314303   0.810   3.102   2.874 -0.4923  1.7361  0.5382
 3634SOL    MW414304   0.724   3.090   2.868 -0.8911  0.7460 -0.1802
 3635SOL     OW14305   2.762   1.116   4.704  0.0493 -0.0817  0.0153
 3635SOL    HW214306   2.803   1.134   4.620  0.8177 -0.2392  0.3467
 3635SOL    HW314307   2.717   1.198   4.727 -1.2944 -0.4500 -1.1469
 3635SOL    MW414308   2.761   1.129   4.696 -0.2903 -0.4083 -0.3456
 3636SOL     OW14309   5.930   1.771   1.177 -0.0252  0.0037  0.0760
 3636SOL    HW214310   6.024   1.758   1.192 -0.3735 -2.3864  0.5332
 3636SOL    HW314311   5.893   1.779   1.265 -0.3858 -0.1832 -0.0569
 3636SOL    MW414312   5.937   1.770   1.191  0.3584 -0.0978  0.1145
 3637SOL     OW14313   4.115   1.864   5.001 -0.0614  0.0462  0.1750
 3637SOL    HW214314   4.125   1.830   5.089 -0.0005 -0.8055 -0.1557
 3637SOL    HW314315   4.123   1.959   5.011  1.9313 -0.1420  0.8075
 3637SOL    MW414316   4.117   1.872   5.014  0.6746  0.2109  0.1493
 3638SOL     OW14317   5.676   0.233   2.934 -0.1949  0.0044 -0.3785
 3638SOL    HW214318   5.661   0.234   3.028 -0.7214 -0.7847 -0.4468
 3638SOL    HW314319   5.601   0.280   2.897 -1.4051 -1.9510 -0.5605
 3638SOL    MW414320   5.664   0.240   2.941  0.3955  0.1486 -0.3874
 3639SOL     OW14321   3.643   0.857   5.881 -0.1897 -0.5487 -0.6689
 3639SOL    HW214322   3.629   0.836   5.788  0.6232 -0.4085 -0.8299
 3639SOL    HW314323   3.604   0.783   5.928 -0.8269 -0.5034 -1.1062
 3639SOL    MW414324   3.636   0.844   5.875 -0.2890 -0.5484  0.3039
 3640SOL     OW14325   3.183   3.663   1.492 -0.4551  0.0372 -0.4519
 3640SOL    HW214326   3.219   3.642   1.578 -2.0987 -1.4741 -0.0750
 3640SOL    HW314327   3.141   3.749   1.503 -0.5723 -0.1047  0.2362
 3640SOL    MW414328   3.182   3.672   1.505  0.3744  0.0979 -0.3856
 3641SOL     OW14329   2.404   0.940   5.604 -0.3504 -0.2840  0.1249
 3641SOL    HW214330   2.423   0.952   5.511 -1.0787 -1.9909 -0.2978
 3641SOL    HW314331   2.405   0.845   5.616  2.5523 -0.1138  2.4935
 3641SOL    MW414332   2.406   0.929   5.593  0.1219  0.1004  0.1237
 3642SOL     OW14333   1.101   5.306   1.300  0.2767 -0.2676  0.0190
 3642SOL    HW214334   1.063   5.296   1.387  0.8792  1.8218  0.5617
 3642SOL    HW314335   1.194   5.320   1.315  0.3506  0.3892 -0.9477
 3642SOL    MW414336   1.108   5.306   1.313  0.0394  0.0515  0.1891
 3643SOL     OW14337   4.361   3.509   2.160 -0.0420  0.0831 -0.1273
 3643SOL    HW214338   4.289   3.471   2.210  0.9942 -0.7623  0.7726
 3643SOL    HW314339   4.393   3.580   2.215 -0.5460  0.8346 -0.7903
 3643SOL    MW414340   4.356   3.513   2.174  0.0403  0.0704  0.0516
 3644SOL     OW14341   1.612   0.759   3.967 -0.0206  0.2886 -0.2970
 3644SOL    HW214342   1.536   0.806   3.932  0.0219  0.5934  0.0160
 3644SOL    HW314343   1.674   0.757   3.894  0.4816  1.8203  0.0429
 3644SOL    MW414344   1.610   0.765   3.953 -0.0474 -0.0798 -0.2212
 3645SOL     OW14345   3.134   2.697   2.448  0.1583  0.2944 -0.2202
 3645SOL    HW214346   3.043   2.675   2.428  0.0786 -0.2671  0.7060
 3645SOL    HW314347   3.139   2.694   2.544  0.7400  1.9733 -0.1586
 3645SOL    MW414348   3.123   2.694   2.458 -0.1280  0.0411  0.1189
 3646SOL     OW14349   4.961   1.138   5.334 -0.4815 -0.4266  0.0260
 3646SOL    HW214350   4.902   1.175   5.399 -1.1213  0.9854 -1.2862
 3646SOL    HW314351   4.985   1.052   5.369 -0.2058  0.5571  2.4459
 3646SOL    MW414352   4.957   1.131   5.347  0.3501 -0.4482  0.0244
 3647SOL     OW14353   2.900   2.320   3.413 -0.2447  0.1417  0.3590
 3647SOL    HW214354   2.910   2.278   3.498 -0.1680 -0.2693  0.1471
 3647SOL    HW314355   2.974   2.381   3.408  0.4816 -0.7411  0.0590
 3647SOL    MW414356   2.911   2.323   3.423  0.0147 -0.3115  0.2304
 3648SOL     OW14357   2.145   0.176   2.140 -0.0155 -0.5910  0.4334
 3648SOL    HW214358   2.217   0.136   2.189  0.8421  0.6548  0.2403
 3648SOL    HW314359   2.070   0.170   2.199  1.1860  1.6552  2.3449
 3648SOL    MW414360   2.144   0.170   2.155  0.1962 -0.7217 -0.4114
 3649SOL     OW14361   3.206   1.463   0.743 -0.2090  0.3523  0.3138
 3649SOL    HW214362   3.222   1.377   0.703 -2.2514  0.4077 -0.7555
 3649SOL    HW314363   3.280   1.517   0.714 -0.9365  0.0182 -2.4794
 3649SOL    MW414364   3.218   1.459   0.734 -0.3689 -0.5605 -0.8129
 3650SOL     OW14365   5.347   5.584   4.931  0.0803 -0.0777 -0.6797
 3650SOL    HW214366   5.383   5.667   4.899 -0.9214  0.2236 -1.0795
 3650SOL    HW314367   5.417   5.546   4.983  0.2085  1.5177  0.3840
 3650SOL    MW414368   5.361   5.590   4.933  0.2885  0.3941  0.2977
 3651SOL     OW14369   4.403   4.375   6.397  0.3790 -0.1133  0.0146
 3651SOL    HW214370   4.343   4.449   6.387  0.3870 -0.1268 -0.1348
 3651SOL    HW314371   4.472   4.390   6.332  0.7170  0.0737  0.4131
 3651SOL    MW414372   4.404   4.387   6.387 -0.4376  0.0803  0.2118
 3652SOL     OW14373   1.610   0.256   1.929  1.2107 -0.6072  0.0040
 3652SOL    HW214374   1.544   0.211   1.876  2.0303 -1.2540 -0.4912
 3652SOL    HW314375   1.608   0.346   1.898  0.9439 -0.7479 -0.4015
 3652SOL    MW414376   1.601   0.262   1.918 -0.3263 -0.3473  0.2402
 3653SOL     OW14377   0.395   6.075   2.640 -0.2964 -0.3235  0.5869
 3653SOL    HW214378   0.441   5.992   2.626  0.8563  0.2969  0.6765
 3653SOL    HW314379   0.464   6.139   2.655 -1.1257  0.8871 -0.5980
 3653SOL    MW414380   0.410   6.072   2.640  0.1700 -0.0445 -0.2371
 3654SOL     OW14381   3.958   3.931   4.769 -0.0303  0.0535 -0.1257
 3654SOL    HW214382   4.033   3.980   4.736  0.4110 -0.5140 -0.0011
 3654SOL    HW314383   3.972   3.842   4.735  0.7868 -0.7219  2.0584
 3654SOL    MW414384   3.970   3.925   4.760  0.2283  0.7543 -1.0255
 3655SOL     OW14385   6.385   3.625   3.239  0.2956  0.4195  0.2510
 3655SOL    HW214386   6.335   3.592   3.164 -0.9037  1.5875  0.4907
 3655SOL    HW314387   6.476   3.623   3.210  0.3013 -2.6763  0.1336
 3655SOL    MW414388   6.390   3.621   3.225  0.6141 -0.0583 -0.2739
 3656SOL     OW14389   6.363   2.982   4.870 -0.0985  0.3463  0.1451
 3656SOL    HW214390   6.353   2.934   4.788 -1.2343  1.2037 -0.2462
 3656SOL    HW314391   6.450   3.021   4.865 -0.0755  0.2148 -0.5550
 3656SOL    MW414392   6.373   2.981   4.859 -0.6479 -0.0970  0.0936
 3657SOL     OW14393   3.363   3.508   5.900 -0.1544 -0.0872 -0.5271
 3657SOL    HW214394   3.370   3.545   5.812 -1.2101  0.4831 -0.3887
 3657SOL    HW314395   3.331   3.580   5.954  1.0818 -0.2491  0.4761
 3657SOL    MW414396   3.360   3.522   5.896 -0.3094  0.4522  0.4038
 3658SOL     OW14397   3.520   5.186   4.520  0.0387  0.4362  0.1319
 3658SOL    HW214398   3.562   5.141   4.447  0.7186  0.8293  0.2732
 3658SOL    HW314399   3.553   5.142   4.599 -0.5372  0.1429  0.2158
 3658SOL    MW414400   3.530   5.174   4.521  0.1874 -0.1538  0.2589
 3659SOL     OW14401   0.905   2.741   1.832  0.5728  0.9583 -0.0325
 3659SOL    HW214402   0.884   2.817   1.886  1.0698  0.9878  0.1220
 3659SOL    HW314403   0.911   2.775   1.743  0.1804  0.9851 -0.0528
 3659SOL    MW414404   0.903   2.755   1.828  0.0478  0.3862  0.5705
 3660SOL     OW14405   0.177   6.069   2.847  0.0032 -0.0634 -0.3322
 3660SOL    HW214406   0.248   6.063   2.783 -0.2634  2.8656 -1.0456
 3660SOL    HW314407   0.199   6.004   2.914  0.6313 -2.8072 -2.9991
 3660SOL    MW414408   0.189   6.060   2.847 -0.0843  0.0033  0.2068
 3661SOL     OW14409   2.276   6.332   2.935 -0.1990  0.0274 -0.4349
 3661SOL    HW214410   2.262   6.252   2.885  2.2752 -1.7084  1.4036
 3661SOL    HW314411   2.345   6.310   2.997 -1.0189  2.9302  1.7363
 3661SOL    MW414412   2.283   6.319   2.936  0.3580 -0.1453  0.1592
 3662SOL     OW14413   3.054   5.602   1.819  0.8477 -0.4567 -0.0854
 3662SOL    HW214414   3.066   5.535   1.752  1.5407 -0.1324 -0.3008
 3662SOL    HW314415   2.967   5.587   1.854 -0.6629  0.9701 -2.8675
 3662SOL    MW414416   3.044   5.591   1.815  1.1050  0.0368 -0.3683
 3663SOL     OW14417   2.925   6.066   2.449  0.4141  0.0900 -0.0463
 3663SOL    HW214418   2.886   6.079   2.535  0.7204 -1.3453  0.3192
 3663SOL    HW314419   2.900   6.145   2.400  1.9241  1.9188  1.9320
 3663SOL    MW414420   2.917   6.078   2.454 -0.1250 -0.0831 -0.2689
 3664SOL     OW14421   0.684   2.618   0.112  0.8058 -0.1121 -0.0483
 3664SOL    HW214422   0.722   2.530   0.117  2.0713  0.4639  0.7542
 3664SOL    HW314423   0.665   2.642   0.202  1.8859  1.0189 -0.0889
 3664SOL    MW414424   0.686   2.609   0.124  0.4907  0.3302  0.2638
 3665SOL     OW14425   3.002   1.747   1.892 -0.1406  0.0292 -0.1084
 3665SOL    HW214426   2.970   1.826   1.848 -0.1136  0.3232  0.3930
 3665SOL    HW314427   2.950   1.742   1.972 -1.0727 -1.1980 -0.7658
 3665SOL    MW414428   2.991   1.757   1.897 -0.4204  0.0041 -0.0300
 3666SOL     OW14429   1.371   4.154   3.876 -0.0815 -0.1321  0.8199
 3666SOL    HW214430   1.428   4.151   3.799 -2.5883  0.7677 -1.2234
 3666SOL    HW314431   1.421   4.204   3.941  0.8823  2.0024 -1.4240
 3666SOL    MW414432   1.385   4.160   3.875 -0.7659 -0.0319 -0.1640
 3667SOL     OW14433   2.983   4.304   5.391  0.5244 -0.2729 -0.3070
 3667SOL    HW214434   3.031   4.332   5.314 -0.2222 -0.4690 -0.8472
 3667SOL    HW314435   2.995   4.209   5.394  1.8755 -0.1019  0.7291
 3667SOL    MW414436   2.991   4.295   5.382  0.4953  0.6364  0.1011
 3668SOL     OW14437   6.009   2.280   3.760  0.5461 -0.8079 -0.0229
 3668SOL    HW214438   6.023   2.236   3.676  0.4971 -1.1113  0.1282
 3668SOL    HW314439   6.001   2.372   3.737 -0.7038 -1.0109 -0.5093
 3668SOL    MW414440   6.010   2.286   3.746  0.0101  0.1604 -0.9251
 3669SOL     OW14441   3.460   0.004   4.651  0.1174  0.2290  0.6680
 3669SOL    HW214442   3.374   0.042   4.665 -1.1063 -1.0912 -2.4240
 3669SOL    HW314443   3.450  -0.088   4.676  0.6901  0.1113  0.4780
 3669SOL    MW414444   3.448  -0.003   4.656  0.6941  0.5771  0.5115
 3670SOL     OW14445   0.352   5.550   5.798  0.0967  0.0729  0.4956
 3670SOL    HW214446   0.297   5.624   5.823  0.8797  0.1309  2.1450
 3670SOL    HW314447   0.440   5.588   5.789  0.4874 -0.6187  1.2663
 3670SOL    MW414448   0.356   5.565   5.800 -0.4759  0.0121 -0.1632
 3671SOL     OW14449   0.352   0.584   3.601 -0.0829 -0.3452  0.0148
 3671SOL    HW214450   0.334   0.495   3.631 -1.5231 -0.1093 -0.1042
 3671SOL    HW314451   0.290   0.599   3.530  0.4879  0.5850 -0.3076
 3671SOL    MW414452   0.342   0.574   3.596 -0.2429  0.5120 -0.5778
 3672SOL     OW14453   4.171   3.919   1.083  0.0999  0.0436 -0.3358
 3672SOL    HW214454   4.193   3.959   0.999  0.0754 -0.3773 -0.5447
 3672SOL    HW314455   4.255   3.914   1.129  0.0180  0.8347 -0.0871
 3672SOL    MW414456   4.185   3.923   1.078 -0.1939  0.3344 -0.1430
 3673SOL     OW14457   5.221   3.555   5.123  0.0035  0.1577  0.0738
 3673SOL    HW214458   5.243   3.467   5.093 -0.6207  0.4524 -1.3462
 3673SOL    HW314459   5.132   3.569   5.090 -0.1902  1.0411  0.9415
 3673SOL    MW414460   5.212   3.545   5.115  0.3835  0.0676 -0.7355
 3674SOL     OW14461   0.640   4.740   0.654  0.5767 -0.0866 -0.4926
 3674SOL    HW214462   0.601   4.656   0.629  0.6642 -0.0031 -0.9163
 3674SOL    HW314463   0.653   4.786   0.571  1.7179 -0.1752 -0.3897
 3674SOL    MW414464   0.637   4.735   0.640  0.2895  0.0309  0.5614
 3675SOL     OW14465   2.223   6.258   2.452  0.6532 -0.0418 -0.1063
 3675SOL    HW214466   2.243   6.290   2.364  0.8168  0.1905  0.0126
 3675SOL    HW314467   2.136   6.219   2.445  1.9846 -3.2022 -1.2059
 3675SOL    MW414468   2.214   6.257   2.440  0.0087  0.2339  0.2721
 3676SOL     OW14469   2.119   2.422   4.701 -0.3087 -0.0655 -0.5296
 3676SOL    HW214470   2.108   2.516   4.687  1.0081  0.0864 -0.6715
 3676SOL    HW314471   2.068   2.403   4.779 -0.6873  0.7404 -0.5736
 3676SOL    MW414472   2.111   2.432   4.709 -0.0547  0.2563  0.5647
 3677SOL     OW14473   3.185   5.151   5.353 -0.1405 -0.2636 -0.0789
 3677SOL    HW214474   3.224   5.173   5.438  0.3449  1.0655 -0.6214
 3677SOL    HW314475   3.092   5.173   5.363 -0.2267 -0.7616  0.3065
 3677SOL    MW414476   3.178   5.157   5.366  0.3597  0.1550  0.1197
 3678SOL     OW14477   1.807   5.332   6.200  0.4383 -0.1611  0.3969
 3678SOL    HW214478   1.846   5.374   6.276  4.3494 -4.3310  1.1117
 3678SOL    HW314479   1.720   5.306   6.229  0.1984  1.9440  1.8487
 3678SOL    MW414480   1.801   5.334   6.214  0.3900 -0.3497  0.2809
 3679SOL     OW14481   3.860   0.812   0.755 -0.1581  0.4919  0.1932
 3679SOL    HW214482   3.946   0.789   0.721 -0.6190 -1.0703 -0.0079
 3679SOL    HW314483   3.829   0.883   0.699  0.2690 -0.1414 -0.8553
 3679SOL    MW414484   3.867   0.818   0.743  0.5744 -0.2693 -0.7501
 3680SOL     OW14485   2.897   0.785   5.131 -0.6808 -0.1896 -0.5810
 3680SOL    HW214486   2.826   0.843   5.103  0.6614  1.1199 -1.4622
 3680SOL    HW314487   2.961   0.791   5.060  0.8310 -0.3874  0.7103
 3680SOL    MW414488   2.896   0.794   5.118 -0.2911 -0.0878 -0.7355
 3681SOL     OW14489   1.662   3.069   5.437 -0.1293  0.5390  0.0707
 3681SOL    HW214490   1.741   3.062   5.384  2.0152  0.9856  2.9796
 3681SOL    HW314491   1.638   3.162   5.431 -1.9142  0.0340 -2.5860
 3681SOL    MW414492   1.669   3.081   5.429  0.3923 -0.0303 -0.7415
 3682SOL     OW14493   0.113   4.207   6.329  0.2025 -0.4743  0.3730
 3682SOL    HW214494   0.145   4.140   6.389 -0.9352 -1.1677  0.2429
 3682SOL    HW314495   0.047   4.255   6.379  0.2699 -0.1314  0.1352
 3682SOL    MW414496   0.108   4.205   6.343  0.1144  0.1790  0.1764
 3683SOL     OW14497   1.833   4.096   1.059  0.4846  0.0393  0.4407
 3683SOL    HW214498   1.764   4.135   1.005  1.0342 -0.6299 -0.7870
 3683SOL    HW314499   1.875   4.032   1.001  1.3060 -0.4705  1.5748
 3683SOL    MW414500   1.829   4.093   1.044  0.0256  0.6010 -0.4750
 3684SOL     OW14501   5.096   4.617   6.382  0.2400 -0.5675  0.7690
 3684SOL    HW214502   5.154   4.549   6.416 -2.8637 -2.4539  2.7931
 3684SOL    HW314503   5.074   4.588   6.294  1.5695 -0.3518  0.3572
 3684SOL    MW414504   5.101   4.604   6.375  0.1927 -0.0846 -0.7323
 3685SOL     OW14505   0.178   0.036   2.004  0.1577  0.5800  0.1253
 3685SOL    HW214506   0.262   0.051   1.961 -0.8582 -1.2156 -2.7619
 3685SOL    HW314507   0.186  -0.052   2.041 -0.2845  0.5923  0.2533
 3685SOL    MW414508   0.190   0.027   2.003 -0.0815  0.2533 -0.1819
 3686SOL     OW14509   3.719   5.208   5.792  0.5935  0.0068 -0.1459
 3686SOL    HW214510   3.699   5.172   5.878 -0.9955  0.1888 -0.4019
 3686SOL    HW314511   3.763   5.137   5.745 -1.3332 -1.2273 -0.2084
 3686SOL    MW414512   3.722   5.194   5.797 -0.2855  0.8126  0.6784
 3687SOL     OW14513   3.130   4.964   3.364 -0.1137  0.3431  0.2115
 3687SOL    HW214514   3.204   4.909   3.341  0.5142  1.4978 -0.6414
 3687SOL    HW314515   3.056   4.904   3.370  0.8017 -0.7684  0.6765
 3687SOL    MW414516   3.130   4.949   3.362  0.4701  0.4713  0.0255
 3688SOL     OW14517   4.089   2.313   3.243  0.8878 -0.2884  0.2669
 3688SOL    HW214518   4.097   2.402   3.276  0.6364 -0.3290  0.4412
 3688SOL    HW314519   4.038   2.267   3.310 -0.8017 -0.0318 -0.7723
 3688SOL    MW414520   4.083   2.318   3.256  0.0786 -0.5416  0.4808
 3689SOL     OW14521   3.506   5.013   5.713  0.1461  0.2452 -0.2032
 3689SOL    HW214522   3.457   4.931   5.718 -1.2054  1.0078 -0.5184
 3689SOL    HW314523   3.593   4.990   5.745 -0.4067 -1.1465  0.4072
 3689SOL    MW414524   3.511   4.999   5.718 -0.3957  0.4536 -0.4450
 3690SOL     OW14525   6.179   5.593   3.232  0.1862 -1.0667 -0.1815
 3690SOL    HW214526   6.187   5.519   3.293 -0.4251 -0.0483  1.1776
 3690SOL    HW314527   6.254   5.649   3.253 -0.9266  0.1008  0.8134
 3690SOL    MW414528   6.190   5.590   3.243 -0.1257 -0.1437  0.8856
 3691SOL     OW14529   1.798   2.213   4.419 -0.1518 -0.6950  0.2190
 3691SOL    HW214530   1.792   2.229   4.513  1.0122 -0.0870  0.2069
 3691SOL    HW314531   1.767   2.295   4.379  0.9495 -0.3113  0.1086
 3691SOL    MW414532   1.793   2.226   4.426 -0.4135 -0.1278  0.0091
 3692SOL     OW14533   1.188   2.079   0.083  0.1202 -0.1478  0.1016
 3692SOL    HW214534   1.176   2.153   0.022 -1.7286  0.2790  0.8974
 3692SOL    HW314535   1.150   2.004   0.037 -0.2922 -0.0570  0.2914
 3692SOL    MW414536   1.181   2.079   0.069  0.3075 -0.0591  0.1401
 3693SOL     OW14537   4.640   2.183   2.174 -0.6781  0.2785  0.2453
 3693SOL    HW214538   4.640   2.258   2.234  0.8731 -0.2953  1.0184
 3693SOL    HW314539   4.732   2.172   2.150 -1.0081 -0.8041 -0.6084
 3693SOL    MW414540   4.652   2.192   2.179  0.5287 -0.6105  0.1683
 3694SOL     OW14541   5.982   2.962   1.461  0.6213  0.1564 -0.4490
 3694SOL    HW214542   5.940   2.920   1.536  0.2525  1.0282 -0.1627
 3694SOL    HW314543   6.075   2.943   1.472  0.7695  1.5616  1.0845
 3694SOL    MW414544   5.989   2.954   1.472 -0.7377  0.7680  0.2318
 3695SOL     OW14545   3.462   0.551   3.526  0.2936  0.1273  0.5658
 3695SOL    HW214546   3.531   0.487   3.544  0.4081  0.0918  0.0053
 3695SOL    HW314547   3.509   0.630   3.499  0.0968 -0.3684 -1.3618
 3695SOL    MW414548   3.477   0.553   3.525 -0.1958  0.4534 -0.3029
 3696SOL     OW14549   6.023   2.758   0.111  0.4674 -0.6027  0.2069
 3696SOL    HW214550   5.972   2.757   0.192 -0.2398 -1.2959 -0.2213
 3696SOL    HW314551   6.045   2.666   0.096  1.4597 -0.3598  0.1355
 3696SOL    MW414552   6.019   2.745   0.119  0.4593 -0.1807  0.4037
 3697SOL     OW14553   3.002   6.174   3.785  0.1445 -0.3445  0.1268
 3697SOL    HW214554   3.004   6.262   3.823  3.2875 -0.6537  0.9696
 3697SOL    HW314555   2.920   6.136   3.817  1.1459  0.4506  4.3039
 3697SOL    MW414556   2.992   6.181   3.794 -0.0224  0.2182  0.2072
 3698SOL     OW14557   2.818   2.422   1.291  0.6003 -0.3798 -0.0841
 3698SOL    HW214558   2.907   2.452   1.276  0.9711 -2.0660 -1.6585
 3698SOL    HW314559   2.765   2.470   1.227  0.9525 -1.8055 -1.5121
 3698SOL    MW414560   2.822   2.432   1.280  0.2401 -0.6029  0.1159
 3699SOL     OW14561   5.946   2.845   0.575  0.0021 -0.1522 -0.1424
 3699SOL    HW214562   5.890   2.840   0.497 -0.7281  0.3119  0.3394
 3699SOL    HW314563   5.968   2.937   0.583  1.8206 -0.4652 -0.9754
 3699SOL    MW414564   5.942   2.856   0.566 -0.1724 -0.1447  0.6354
 3700SOL     OW14565   4.305   5.714   4.182 -0.2529 -0.5374 -0.1791
 3700SOL    HW214566   4.271   5.718   4.093 -1.2811  0.7411  0.2263
 3700SOL    HW314567   4.271   5.794   4.224  0.5380 -0.9030  1.2367
 3700SOL    MW414568   4.296   5.725   4.176 -0.4962 -0.4159  0.2888
 3701SOL     OW14569   0.317   4.549   1.997 -1.0764 -0.1999  0.1272
 3701SOL    HW214570   0.403   4.575   1.965 -1.6462  0.7815 -0.6999
 3701SOL    HW314571   0.325   4.456   2.017 -0.3801 -0.6204 -1.8937
 3701SOL    MW414572   0.329   4.540   1.996 -0.2996 -0.2691 -0.1378
 3702SOL     OW14573   4.025   0.093   1.285 -0.2326 -0.3872 -0.4167
 3702SOL    HW214574   4.011   0.010   1.330  0.6910 -1.3200 -1.7671
 3702SOL    HW314575   3.936   0.127   1.270 -0.6037 -0.8777  0.5918
 3702SOL    MW414576   4.011   0.086   1.289  0.3249 -0.4975 -0.6475
 3703SOL     OW14577   0.033   6.008   3.780 -0.2029 -0.3064  0.3338
 3703SOL    HW214578  -0.020   5.931   3.800  0.2910 -0.5642  0.6831
 3703SOL    HW314579  -0.017   6.082   3.816 -1.6125 -0.2098 -1.6658
 3703SOL    MW414580   0.020   6.008   3.787  0.2793 -0.0069  0.1239
 3704SOL     OW14581   0.837   4.238   3.856  0.2917 -0.0825 -0.2606
 3704SOL    HW214582   0.808   4.220   3.766  1.7723  0.1745 -0.8205
 3704SOL    HW314583   0.811   4.328   3.872 -0.5858 -0.3379 -0.1573
 3704SOL    MW414584   0.830   4.247   3.846  0.6035 -0.1425  0.0994
 3705SOL     OW14585   0.546   3.089   1.462  0.8267  0.0200  0.1127
 3705SOL    HW214586   0.577   3.143   1.535  0.5616  0.9415 -0.4348
 3705SOL    HW314587   0.615   3.096   1.396 -0.1605  1.5259 -0.8378
 3705SOL    MW414588   0.559   3.097   1.463  0.2820  0.3451  0.4090
 3706SOL     OW14589   5.697   5.378   3.534 -0.3273  1.1987 -0.3394
 3706SOL    HW214590   5.737   5.403   3.618 -0.6052  0.3222  0.0638
 3706SOL    HW314591   5.646   5.454   3.508 -2.0178  0.7163  1.3910
 3706SOL    MW414592   5.696   5.391   3.542  0.1561 -0.0693 -0.3394
 3707SOL     OW14593   3.117   4.614   3.356 -0.1846  0.1930 -0.3963
 3707SOL    HW214594   3.062   4.605   3.278 -1.5991  0.6124  0.5109
 3707SOL    HW314595   3.064   4.665   3.417 -0.1369 -2.1703  1.7797
 3707SOL    MW414596   3.103   4.620   3.353  0.0203 -0.1388 -0.2836
 3708SOL     OW14597   6.332   4.528   1.726  0.4321 -0.5189 -0.3912
 3708SOL    HW214598   6.320   4.518   1.632  0.5277  0.9234 -0.5866
 3708SOL    HW314599   6.423   4.557   1.736  0.7432 -1.6712  0.2409
 3708SOL    MW414600   6.343   4.531   1.715 -0.2566 -0.5752  0.0372
 3709SOL     OW14601   0.256   1.329   0.470 -0.4669 -0.5402  0.0739
 3709SOL    HW214602   0.305   1.325   0.389 -1.1657 -2.0313 -0.3107
 3709SOL    HW314603   0.282   1.251   0.519 -0.5427 -0.0101  1.0015
 3709SOL    MW414604   0.266   1.318   0.466  0.2139 -0.3096 -0.1908
 3710SOL     OW14605   6.309   3.200   3.571  0.0382  0.2265 -0.2146
 3710SOL    HW214606   6.371   3.240   3.632 -1.9672  0.7428  1.5725
 3710SOL    HW314607   6.234   3.259   3.570 -0.2565 -0.0572 -2.8141
 3710SOL    MW414608   6.307   3.213   3.579 -0.0499 -0.6233  0.2178
 3711SOL     OW14609   0.057   1.846   1.191 -0.1269  0.1696 -0.4946
 3711SOL    HW214610   0.039   1.753   1.203 -0.5242  0.1076 -1.4707
 3711SOL    HW314611   0.048   1.884   1.279  0.8667 -0.8297  0.0662
 3711SOL    MW414612   0.054   1.839   1.204  0.3875  0.0562 -0.3822
 3712SOL     OW14613   1.615   4.720   0.990 -0.2722  0.1925  0.0730
 3712SOL    HW214614   1.534   4.706   1.039 -0.5994 -0.9734 -0.7508
 3712SOL    HW314615   1.684   4.719   1.057 -0.8865  0.7492  0.7267
 3712SOL    MW414616   1.613   4.718   1.005 -0.4175 -0.3681 -0.3882
 3713SOL     OW14617   5.245   0.168   0.446 -0.1104  0.0987  0.4708
 3713SOL    HW214618   5.207   0.256   0.439  0.2233  0.1993 -0.1195
 3713SOL    HW314619   5.334   0.177   0.413 -0.0586 -0.4547  0.4511
 3713SOL    MW414620   5.251   0.181   0.441 -0.5230  0.3529  0.4121
 3714SOL     OW14621   1.511   5.102   3.602  0.5823 -0.7432 -0.2073
 3714SOL    HW214622   1.546   5.024   3.644 -0.1266 -0.8781  0.1457
 3714SOL    HW314623   1.459   5.069   3.528  0.5976 -0.5842 -0.2915
 3714SOL    MW414624   1.509   5.087   3.597 -0.6620 -0.0325  0.2334
 3715SOL     OW14625   4.441   3.368   3.463  0.8763 -0.7969 -0.6849
 3715SOL    HW214626   4.364   3.359   3.520  0.6652 -3.4265 -1.2497
 3715SOL    HW314627   4.422   3.445   3.410 -0.2325  0.0367  0.8601
 3715SOL    MW414628   4.428   3.377   3.464  0.3895  0.2864  0.2085
 3716SOL     OW14629   6.283   2.133   6.324  0.0933  0.1825 -0.2460
 3716SOL    HW214630   6.192   2.112   6.305 -0.0331  0.7741 -0.3270
 3716SOL    HW314631   6.303   2.207   6.267  1.0093 -0.7119 -1.1301
 3716SOL    MW414632   6.274   2.140   6.314 -0.0240  0.6355 -0.1421
 3717SOL     OW14633   2.711   2.348   4.995  0.1837  0.1995 -0.1737
 3717SOL    HW214634   2.644   2.414   5.014 -0.4593 -0.1638 -1.1083
 3717SOL    HW314635   2.785   2.399   4.961  0.2999  0.5821  0.6281
 3717SOL    MW414636   2.712   2.364   4.993  0.1052  0.2894 -0.2631
 3718SOL     OW14637   1.630   4.040   5.519 -0.1402 -0.2595  0.7121
 3718SOL    HW214638   1.644   4.123   5.473  0.0088 -0.8694 -0.3854
 3718SOL    HW314639   1.717   4.001   5.523 -0.5619 -1.5019 -1.0721
 3718SOL    MW414640   1.643   4.046   5.514  0.5299 -0.3329 -0.1509
 3719SOL     OW14641   3.218   6.039   4.630 -0.0703 -0.0533 -0.0723
 3719SOL    HW214642   3.250   5.960   4.585 -1.3259  0.3935 -1.8678
 3719SOL    HW314643   3.298   6.083   4.659  0.7787 -0.8334 -1.1135
 3719SOL    MW414644   3.233   6.035   4.628  0.6894  0.0027 -0.2242
 3720SOL     OW14645   4.150   0.570   2.196 -0.0385  0.3709 -0.1493
 3720SOL    HW214646   4.085   0.499   2.196 -0.3780  0.6439 -1.6611
 3720SOL    HW314647   4.098   0.650   2.190  0.3919  0.6327 -0.4919
 3720SOL    MW414648   4.135   0.571   2.195 -0.4883 -0.4311 -0.0812
 3721SOL     OW14649   6.163   3.378   6.358 -0.3820  0.2071 -0.0236
 3721SOL    HW214650   6.078   3.421   6.356 -0.2507  0.5352  0.7588
 3721SOL    HW314651   6.187   3.378   6.451  0.5296  0.2458 -0.2510
 3721SOL    MW414652   6.155   3.384   6.370  0.7110 -0.2992  0.1324
 3722SOL     OW14653   5.051   3.271   5.276  0.2413 -0.4424 -0.0055
 3722SOL    HW214654   5.124   3.265   5.339  0.3858 -0.2715 -0.1550
 3722SOL    HW314655   5.024   3.180   5.263  3.2217 -1.0759 -3.2127
 3722SOL    MW414656   5.057   3.258   5.283  0.8049  0.1796 -0.1333
 3723SOL     OW14657   2.593   1.309   2.631  0.1050  0.0428 -0.2335
 3723SOL    HW214658   2.661   1.268   2.577  1.0378 -0.3657  1.1817
 3723SOL    HW314659   2.526   1.242   2.640  0.0722  0.0174 -0.6737
 3723SOL    MW414660   2.593   1.295   2.625 -0.5813 -0.4817  0.0292
 3724SOL     OW14661   6.293   2.446   1.559  0.3112  0.0760  0.3743
 3724SOL    HW214662   6.243   2.527   1.568  0.0569  0.0223 -0.5424
 3724SOL    HW314663   6.245   2.394   1.495  0.8187 -0.5382  0.4785
 3724SOL    MW414664   6.280   2.449   1.552  0.3136 -0.0930  0.3988
 3725SOL     OW14665   2.206   4.989   4.258 -0.2288 -0.3821 -0.2570
 3725SOL    HW214666   2.199   4.894   4.271  0.3522 -0.2965  0.7839
 3725SOL    HW314667   2.116   5.018   4.242 -0.5493 -0.9751  0.4141
 3725SOL    MW414668   2.193   4.980   4.258  0.1394  0.0814 -0.0275
 3726SOL     OW14669   3.302   3.928   2.523 -0.4498  0.1905  0.4493
 3726SOL    HW214670   3.305   3.849   2.577  2.8873  0.0543  0.2665
 3726SOL    HW314671   3.380   3.978   2.547 -1.1067  2.2155 -1.2443
 3726SOL    MW414672   3.313   3.924   2.533 -0.0108 -0.1019  0.2521
 3727SOL     OW14673   2.740   5.574   3.402  0.3773 -0.4562 -0.1021
 3727SOL    HW214674   2.818   5.617   3.438  1.8402 -1.1172 -2.2859
 3727SOL    HW314675   2.774   5.511   3.339 -1.9852  0.2130 -2.2151
 3727SOL    MW414676   2.755   5.571   3.398 -0.0002 -0.2910  0.3283
 3728SOL     OW14677   1.471   3.175   6.347  0.1959  0.6437  0.0104
 3728SOL    HW214678   1.427   3.100   6.307 -2.2844  0.7318  2.2980
 3728SOL    HW314679   1.508   3.140   6.429 -0.0056  1.6535  0.5466
 3728SOL    MW414680   1.470   3.160   6.353  0.2074 -0.1908  0.1794
 3729SOL     OW14681   2.795   1.015   4.095 -0.0463  0.3411 -0.0885
 3729SOL    HW214682   2.869   0.955   4.084 -0.8452 -0.4826 -1.1779
 3729SOL    HW314683   2.822   1.095   4.049  0.0295 -0.0916 -0.8072
 3729SOL    MW414684   2.808   1.018   4.087  0.2123  0.4295  0.0182
 3730SOL     OW14685   2.607   1.066   4.297 -0.1469  0.7107  0.3739
 3730SOL    HW214686   2.661   1.080   4.220 -1.5595  2.1923 -0.4192
 3730SOL    HW314687   2.571   0.978   4.285  2.2514 -0.4377  1.0896
 3730SOL    MW414688   2.609   1.056   4.285  0.2349  0.2436  0.4316
 3731SOL     OW14689   4.984   5.029   2.345  0.4273 -0.1304 -0.1206
 3731SOL    HW214690   4.913   5.076   2.390  0.0191 -0.1075 -0.7783
 3731SOL    HW314691   4.949   4.941   2.330  0.6139 -0.1807 -0.2655
 3731SOL    MW414692   4.970   5.023   2.349 -0.3194  0.3890 -0.4365
 3732SOL     OW14693   0.944   6.259   4.216 -0.3487  0.0369  0.0040
 3732SOL    HW214694   1.035   6.255   4.186 -0.0123 -2.1822  1.0749
 3732SOL    HW314695   0.948   6.311   4.297 -0.1283  0.3371 -0.1959
 3732SOL    MW414696   0.957   6.266   4.223 -0.3434 -0.7962 -0.0661
 3733SOL     OW14697   3.877   3.633   4.048 -0.0578 -0.7130  0.2255
 3733SOL    HW214698   3.792   3.596   4.024 -0.7612  0.9160  0.0367
 3733SOL    HW314699   3.859   3.686   4.125 -0.0951  2.6003 -1.8497
 3733SOL    MW414700   3.863   3.635   4.055  0.2061 -0.1361  0.0464
 3734SOL     OW14701   5.228   1.533   2.246  0.0995  0.4458  0.3038
 3734SOL    HW214702   5.303   1.584   2.216 -0.5718  0.6830 -1.0026
 3734SOL    HW314703   5.158   1.552   2.184 -0.5586 -1.0660  0.5267
 3734SOL    MW414704   5.229   1.542   2.234  0.2180 -0.1720  0.6314
 3735SOL     OW14705   0.848   5.317   4.439  0.4790  0.4327 -0.3546
 3735SOL    HW214706   0.929   5.265   4.441  0.8407  1.0031  1.3095
 3735SOL    HW314707   0.798   5.287   4.515 -0.4159  0.8104 -0.7792
 3735SOL    MW414708   0.852   5.306   4.449  0.0852  0.3538 -0.0212
 3736SOL     OW14709   3.234   0.069   3.726 -0.1710 -0.2915  0.1570
 3736SOL    HW214710   3.197   0.116   3.651  0.1922 -1.2748 -0.6654
 3736SOL    HW314711   3.318   0.110   3.742 -0.4366  0.2020  0.3131
 3736SOL    MW414712   3.240   0.080   3.718 -0.0677 -0.2092  0.2282
 3737SOL     OW14713   4.004   1.520   0.940  0.2971 -0.0892  0.0210
 3737SOL    HW214714   3.995   1.439   0.989 -1.7634  0.8541  1.3266
 3737SOL    HW314715   4.007   1.492   0.848  1.2021 -1.6984  0.5058
 3737SOL    MW414716   4.003   1.505   0.934  0.1968  0.2367  0.6812
 3738SOL     OW14717   2.153   6.180   6.031  0.8145  0.1213 -0.2386
 3738SOL    HW214718   2.135   6.265   6.073 -0.4926 -0.2886  0.0947
 3738SOL    HW314719   2.066   6.143   6.015  1.3400 -0.6342 -1.4931
 3738SOL    MW414720   2.139   6.186   6.035  0.4561  0.2257 -0.6656
 3739SOL     OW14721   1.926   3.038   5.863 -0.4112  0.0357 -0.0293
 3739SOL    HW214722   1.899   3.129   5.856 -2.0646 -0.3977  0.3663
 3739SOL    HW314723   1.947   3.026   5.955 -0.4964 -0.0605 -0.0222
 3739SOL    MW414724   1.925   3.048   5.874  0.1692  0.5244 -0.2481
 3740SOL     OW14725   3.571   5.448   4.491  0.1033 -0.0315  0.3095
 3740SOL    HW214726   3.571   5.353   4.497  0.9005 -0.0495  0.1202
 3740SOL    HW314727   3.569   5.466   4.397 -1.8747  0.1671  0.3419
 3740SOL    MW414728   3.570   5.438   4.479  0.0471 -0.4426  0.2539
 3741SOL     OW14729   4.673   3.096   3.479  0.5181 -0.7346 -0.1922
 3741SOL    HW214730   4.631   3.010   3.479  0.4539 -0.7018  0.1150
 3741SOL    HW314731   4.619   3.150   3.537  0.9699 -0.6866  0.1865
 3741SOL    MW414732   4.661   3.092   3.486  0.5437 -0.5004 -0.4025
 3742SOL     OW14733   1.852   4.704   1.155 -0.4047 -0.2184 -0.0655
 3742SOL    HW214734   1.829   4.617   1.185  1.1005 -0.8038 -0.4999
 3742SOL    HW314735   1.893   4.690   1.069 -0.6930  0.9717 -0.4189
 3742SOL    MW414736   1.854   4.691   1.148  0.0281  0.0309  0.5568
 3743SOL     OW14737   3.355   0.285   4.820  0.5917  0.0943 -0.0881
 3743SOL    HW214738   3.314   0.346   4.882 -0.1344  1.1131 -1.5041
 3743SOL    HW314739   3.283   0.229   4.790  0.8367 -0.0647 -0.3874
 3743SOL    MW414740   3.340   0.286   4.824 -0.4275  0.5636  0.1918
 3744SOL     OW14741   4.985   4.234   6.050  0.2380 -0.4129  0.0871
 3744SOL    HW214742   4.891   4.232   6.068  0.2627 -1.9587  0.1925
 3744SOL    HW314743   4.993   4.282   5.968 -0.5730  0.3160  0.4178
 3744SOL    MW414744   4.974   4.240   6.041 -0.0932  0.1553  0.1421
 3745SOL     OW14745   1.547   1.437   0.088  0.2579  0.5287 -0.2942
 3745SOL    HW214746   1.600   1.361   0.062  0.7941  0.7798  0.0639
 3745SOL    HW314747   1.610   1.501   0.120 -0.2591  0.8399  0.1217
 3745SOL    MW414748   1.563   1.435   0.089  0.4092 -0.0001 -0.2427
 3746SOL     OW14749   2.015   0.985   5.784  0.6863 -0.0843  0.4974
 3746SOL    HW214750   1.974   0.930   5.717  0.9625 -0.6974  0.8164
 3746SOL    HW314751   2.083   1.033   5.738  0.3624  0.0840  0.1897
 3746SOL    MW414752   2.019   0.984   5.769  0.1662  0.1445 -0.1868
 3747SOL     OW14753   2.051   2.246   4.297  0.5158 -0.2060 -0.3021
 3747SOL    HW214754   2.051   2.257   4.202  0.7108 -1.0733 -0.4061
 3747SOL    HW314755   1.962   2.218   4.319  0.5675 -0.3457 -0.2690
 3747SOL    MW414756   2.039   2.244   4.288 -0.0641 -0.3775  0.3359
 3748SOL     OW14757   4.694   0.690   5.849  0.2212  0.0315 -0.0147
 3748SOL    HW214758   4.646   0.638   5.913 -0.4382 -1.3280 -1.5261
 3748SOL    HW314759   4.659   0.779   5.859 -1.8445 -0.6915 -0.2840
 3748SOL    MW414760   4.683   0.695   5.859  0.0819  0.5095  0.0929
 3749SOL     OW14761   2.928   4.103   1.433 -0.6533 -0.0836 -0.0522
 3749SOL    HW214762   2.892   4.120   1.520 -2.1505  2.6076 -1.0668
 3749SOL    HW314763   2.967   4.186   1.406  0.6384 -1.1181 -1.6071
 3749SOL    MW414764   2.928   4.116   1.441  0.7481  0.1514 -0.1622
 3750SOL     OW14765   4.099   2.839   3.228  0.1294 -0.5615 -0.7199
 3750SOL    HW214766   4.148   2.897   3.286 -0.6974  0.2291 -0.7867
 3750SOL    HW314767   4.007   2.858   3.248 -0.2402  0.9439 -3.4149
 3750SOL    MW414768   4.093   2.849   3.238 -0.4178  1.1455 -0.2110
 3751SOL     OW14769   3.711   1.437   5.113 -0.3579 -0.0908  0.1580
 3751SOL    HW214770   3.729   1.506   5.049  1.6683 -1.2643 -0.6423
 3751SOL    HW314771   3.794   1.426   5.160 -1.2379 -0.6055  1.6437
 3751SOL    MW414772   3.725   1.445   5.111 -0.0542  0.2174 -0.1761
 3752SOL     OW14773   2.974   4.244   0.464  0.1216 -0.1781 -0.0941
 3752SOL    HW214774   3.020   4.239   0.548 -0.8413 -0.3248  0.4463
 3752SOL    HW314775   3.039   4.219   0.399  1.3659  1.5404  0.4255
 3752SOL    MW414776   2.989   4.240   0.467  0.1916  0.2249 -0.0376
 3753SOL     OW14777   3.717   0.818   1.139  0.0833 -0.1004 -0.5935
 3753SOL    HW214778   3.809   0.820   1.167  0.0611 -0.5884 -0.4695
 3753SOL    HW314779   3.715   0.752   1.070  0.2757  1.5984 -2.3004
 3753SOL    MW414780   3.729   0.809   1.134 -0.3507 -0.6051  0.6198
 3754SOL     OW14781   3.065   5.499   5.015 -0.0275 -0.0596  0.1143
 3754SOL    HW214782   2.985   5.456   5.045  0.1638 -1.4524 -1.2526
 3754SOL    HW314783   3.131   5.476   5.080 -0.1309 -1.1665 -0.1494
 3754SOL    MW414784   3.063   5.490   5.027 -0.6856 -0.2429 -0.1740
 3755SOL     OW14785   5.094   0.260   1.421  0.0958 -0.4574 -0.2688
 3755SOL    HW214786   5.006   0.281   1.453  0.6699 -1.1546  1.9742
 3755SOL    HW314787   5.079   0.197   1.350 -1.2298 -0.3008 -0.1601
 3755SOL    MW414788   5.080   0.254   1.416  0.0453 -0.2916 -0.0629
 3756SOL     OW14789   5.795   1.676   6.198  0.1919  0.1560  0.3743
 3756SOL    HW214790   5.703   1.704   6.198  0.2382  0.5494 -2.3659
 3756SOL    HW314791   5.793   1.589   6.159  0.9876  0.2836  0.0314
 3756SOL    MW414792   5.783   1.668   6.193 -0.4338 -0.4611 -0.0021
 3757SOL     OW14793   3.094   2.385   3.029  0.1025  0.0995 -0.1071
 3757SOL    HW214794   3.118   2.314   3.088  1.5820  1.4035  0.9073
 3757SOL    HW314795   3.068   2.457   3.086  0.2160  0.9230 -1.0653
 3757SOL    MW414796   3.094   2.385   3.044  0.1163  0.1282  0.3949
 3758SOL     OW14797   4.842   0.919   4.632  0.2917  0.1127  0.1063
 3758SOL    HW214798   4.871   0.834   4.665 -1.5845 -0.5355  0.1533
 3758SOL    HW314799   4.851   0.911   4.537 -0.0222 -0.2033  0.0997
 3758SOL    MW414800   4.847   0.907   4.624  0.2363  0.1830 -0.5347
 3759SOL     OW14801   5.651   2.268   5.531 -0.0168 -0.1463 -0.3899
 3759SOL    HW214802   5.741   2.298   5.521 -0.1920 -0.0550 -2.0102
 3759SOL    HW314803   5.618   2.261   5.441 -1.2053 -1.4761  0.1098
 3759SOL    MW414804   5.658   2.271   5.517 -0.1451 -0.1318  0.0355
 3760SOL     OW14805   3.599   0.900   4.485  0.3996 -0.3187  0.0513
 3760SOL    HW214806   3.521   0.863   4.526 -0.0200  0.1153 -0.3526
 3760SOL    HW314807   3.627   0.834   4.422  0.6231 -0.6695  0.5119
 3760SOL    MW414808   3.592   0.887   4.482  0.6260  0.3735  0.2301
 3761SOL     OW14809   3.460   1.679   4.977 -0.0308  0.8919  0.5703
 3761SOL    HW214810   3.383   1.730   4.950  0.3877  0.8720 -0.7696
 3761SOL    HW314811   3.493   1.725   5.054 -0.7165  1.5935  0.4619
 3761SOL    MW414812   3.454   1.692   4.983  0.8480  0.1331 -0.4962
 3762SOL     OW14813   3.500   0.139   5.387  0.7124 -0.2650  0.0178
 3762SOL    HW214814   3.513   0.216   5.332 -1.0214  1.6784  2.1184
 3762SOL    HW314815   3.579   0.136   5.442  0.3160  0.7512  0.6853
 3762SOL    MW414816   3.512   0.149   5.387  0.1698  0.1780 -0.2556
 3763SOL     OW14817   4.407   2.806   2.560  0.0827 -0.2955  0.4269
 3763SOL    HW214818   4.433   2.742   2.494 -1.4979  0.8744 -1.4376
 3763SOL    HW314819   4.487   2.858   2.575  0.4944 -0.6426 -0.4905
 3763SOL    MW414820   4.421   2.805   2.553  0.0713  0.0713  0.3683
 3764SOL     OW14821   0.326   1.593   2.603 -0.2187 -0.3138 -0.3267
 3764SOL    HW214822   0.397   1.538   2.637 -0.5968 -0.1370  0.8185
 3764SOL    HW314823   0.369   1.654   2.544  0.6653  0.0344  0.6338
 3764SOL    MW414824   0.341   1.594   2.600 -0.2163  0.3873  0.4187
 3765SOL     OW14825   5.278   2.680   2.860 -0.1533  0.0754  0.0914
 3765SOL    HW214826   5.240   2.592   2.857  0.0726  0.0106 -1.4457
 3765SOL    HW314827   5.239   2.725   2.786 -0.6673  1.4658  1.1681
 3765SOL    MW414828   5.267   2.674   2.850 -0.1730  0.5357  0.0308
 3766SOL     OW14829   4.100   1.135   3.945  0.1305  0.4657  0.0037
 3766SOL    HW214830   4.138   1.147   4.032  0.9104 -0.6121 -0.1748
 3766SOL    HW314831   4.039   1.062   3.955  1.6807 -1.0149 -0.7497
 3766SOL    MW414832   4.097   1.127   3.958  0.2033  0.1829 -0.6833
 3767SOL     OW14833   3.722   1.151   0.879 -0.2892 -0.1242  0.2012
 3767SOL    HW214834   3.667   1.089   0.927  0.2888 -2.4224 -1.8901
 3767SOL    HW314835   3.774   1.194   0.947 -2.6076  0.0689  1.9708
 3767SOL    MW414836   3.722   1.148   0.895  0.1498 -0.4666 -0.3342
 3768SOL     OW14837   4.955   1.066   3.205  0.0777  0.0092  0.1083
 3768SOL    HW214838   5.021   1.059   3.273 -0.6537 -2.5280  0.6444
 3768SOL    HW314839   4.897   0.991   3.219 -0.9649  0.2327 -2.3946
 3768SOL    MW414840   4.956   1.055   3.215 -0.4940 -0.2705  0.2059
 3769SOL     OW14841   3.756   1.413   0.579 -0.6062 -0.7102 -0.2340
 3769SOL    HW214842   3.666   1.386   0.559 -0.4729 -0.4578 -1.2447
 3769SOL    HW314843   3.756   1.508   0.570  0.1269 -0.8278 -1.9377
 3769SOL    MW414844   3.744   1.422   0.575 -0.2372 -0.3951  0.4229
 3770SOL     OW14845   3.222   6.200   0.387  0.3462  0.1944 -0.2538
 3770SOL    HW214846   3.178   6.116   0.377  0.4795 -0.0234  0.8752
 3770SOL    HW314847   3.304   6.179   0.432  0.7446  0.8315 -0.6737
 3770SOL    MW414848   3.227   6.186   0.392 -0.0355  0.0379 -0.1596
 3771SOL     OW14849   5.278   4.423   0.053 -0.3883  0.2295  0.0232
 3771SOL    HW214850   5.276   4.328   0.067 -1.2153  0.5317  2.4222
 3771SOL    HW314851   5.368   4.449   0.072  0.4826 -0.2677 -2.8841
 3771SOL    MW414852   5.290   4.414   0.058  0.5722  0.2921  0.0505
 3772SOL     OW14853   4.201   3.794   4.988  0.0044 -0.2182  0.3967
 3772SOL    HW214854   4.216   3.837   4.904 -1.0154 -0.3861  0.1102
 3772SOL    HW314855   4.281   3.811   5.039  1.1428 -1.1247 -1.0199
 3772SOL    MW414856   4.213   3.802   4.984  0.4260  0.0471 -0.2768
 3773SOL     OW14857   4.785   3.948   5.293  0.2435  0.2710  0.3102
 3773SOL    HW214858   4.754   4.010   5.226 -1.4201 -1.5797 -0.7537
 3773SOL    HW314859   4.745   3.979   5.374 -0.3651  0.7591 -0.1587
 3773SOL    MW414860   4.775   3.960   5.295  0.1381  0.3016 -0.8626
 3774SOL     OW14861   0.233   0.556   4.144  0.2524 -0.5126 -0.5124
 3774SOL    HW214862   0.217   0.482   4.085 -1.3557 -0.3695 -0.3096
 3774SOL    HW314863   0.225   0.633   4.089  2.4601 -0.4511 -0.8352
 3774SOL    MW414864   0.230   0.556   4.129  0.8653 -0.1651 -0.2455
 3775SOL     OW14865   3.870   2.994   3.749  0.7065 -0.2008 -0.8748
 3775SOL    HW214866   3.839   2.958   3.833  2.0966  1.0589  0.2446
 3775SOL    HW314867   3.853   3.088   3.757 -0.1184 -0.1826 -2.4950
 3775SOL    MW414868   3.863   3.002   3.761 -0.6015 -0.3842  0.3150
 3776SOL     OW14869   5.130   0.221   2.883  0.0474 -0.0141 -0.1372
 3776SOL    HW214870   5.121   0.183   2.796  1.0441  0.5400 -0.5023
 3776SOL    HW314871   5.076   0.165   2.939 -0.2133 -0.6769 -1.0182
 3776SOL    MW414872   5.122   0.209   2.879 -0.4145  0.1013  0.7736
 3777SOL     OW14873   5.385   1.429   3.831 -0.3712 -0.0267 -0.0867
 3777SOL    HW214874   5.372   1.522   3.848  1.4777 -0.0195  1.6015
 3777SOL    HW314875   5.353   1.385   3.910 -0.4891 -0.7652 -0.5359
 3777SOL    MW414876   5.379   1.435   3.844 -0.1167  0.5354  0.5748
 3778SOL     OW14877   0.041   3.630   6.407  0.5061 -0.3017  0.1743
 3778SOL    HW214878  -0.017   3.649   6.481  0.3714 -0.9714  0.2425
 3778SOL    HW314879   0.033   3.707   6.351 -0.3590 -0.3365  0.2416
 3778SOL    MW414880   0.032   3.643   6.410  0.2422  0.9154  0.5277
 3779SOL     OW14881   0.245   4.989   0.512 -0.2468 -0.0473  0.0685
 3779SOL    HW214882   0.291   5.042   0.578 -1.9261  0.8665  0.5599
 3779SOL    HW314883   0.193   4.928   0.563 -0.8100  0.0063 -0.4378
 3779SOL    MW414884   0.244   4.988   0.527 -0.2812 -0.3849  0.5085
 3780SOL     OW14885   5.517   4.918   3.726 -0.1853  0.3675  0.1151
 3780SOL    HW214886   5.431   4.954   3.705  0.1887  1.2405  0.0610
 3780SOL    HW314887   5.578   4.988   3.705  0.5473 -0.2594  0.1211
 3780SOL    MW414888   5.514   4.932   3.720 -0.4107 -0.1114  0.8315
 3781SOL     OW14889   1.190   5.706   5.618 -0.3555  0.2168  0.2632
 3781SOL    HW214890   1.275   5.718   5.662  0.4163  1.0689 -1.3971
 3781SOL    HW314891   1.180   5.783   5.562 -1.4501 -0.6742 -0.8203
 3781SOL    MW414892   1.200   5.718   5.617 -0.0580  0.0495  0.1741
 3782SOL     OW14893   3.312   3.267   3.705  0.4749 -0.3104  0.1103
 3782SOL    HW214894   3.265   3.206   3.760  0.4343  1.0056  1.6135
 3782SOL    HW314895   3.300   3.234   3.616 -1.9525 -0.8688  0.5910
 3782SOL    MW414896   3.304   3.255   3.700 -0.0686 -0.4424  0.1769
 3783SOL     OW14897   4.621   5.303   4.443  0.2849  0.9624 -0.6185
 3783SOL    HW214898   4.554   5.316   4.376  0.6395 -0.2988 -1.2512
 3783SOL    HW314899   4.695   5.356   4.413  0.2280  0.8815 -0.9129
 3783SOL    MW414900   4.622   5.312   4.430 -0.2370  0.0237 -0.3332
 3784SOL     OW14901   3.825   1.599   0.149 -0.6212  0.1633  0.4638
 3784SOL    HW214902   3.743   1.615   0.102  0.5709  0.7528 -1.5637
 3784SOL    HW314903   3.806   1.619   0.240 -2.6540  0.5035 -0.0039
 3784SOL    MW414904   3.812   1.604   0.154 -0.2168  0.6841 -1.1539
 3785SOL     OW14905   6.304   1.792   2.819  0.0492 -0.4025 -0.0534
 3785SOL    HW214906   6.249   1.816   2.744 -0.5412  1.5881  0.9404
 3785SOL    HW314907   6.393   1.815   2.792 -0.1539  0.2584 -0.1927
 3785SOL    MW414908   6.308   1.798   2.805 -0.0116 -0.4493  0.4481
 3786SOL     OW14909   5.775   0.341   0.363  0.5449  0.0989  0.3324
 3786SOL    HW214910   5.689   0.308   0.337  0.2948  0.7664  0.2794
 3786SOL    HW314911   5.769   0.350   0.458  0.0402  1.5155  0.1896
 3786SOL    MW414912   5.763   0.338   0.372  0.6998 -0.0483  0.3440
 3787SOL     OW14913   2.082   5.647   3.202 -0.6346 -0.2020  0.1223
 3787SOL    HW214914   2.074   5.652   3.297  2.4628 -2.3180  0.6309
 3787SOL    HW314915   2.058   5.557   3.180  1.1507 -0.5328 -0.6829
 3787SOL    MW414916   2.078   5.636   3.211  0.6071  0.5772  0.5960
 3788SOL     OW14917   4.978   3.614   5.437  0.8062 -0.1976 -0.2788
 3788SOL    HW214918   4.955   3.657   5.355  0.2822 -0.5248 -0.3028
 3788SOL    HW314919   5.074   3.614   5.437  0.8332  1.2855 -0.1092
 3788SOL    MW414920   4.988   3.620   5.426 -0.0548  0.6283  0.1303
 3789SOL     OW14921   4.871   3.094   5.609  0.4751  0.0429  0.2938
 3789SOL    HW214922   4.888   3.181   5.572 -0.4535 -0.3594 -1.1824
 3789SOL    HW314923   4.910   3.097   5.696  1.1330  1.6812 -0.0138
 3789SOL    MW414924   4.878   3.106   5.616  0.5312 -0.0720  0.4733
 3790SOL     OW14925   5.809   5.167   3.150 -0.0835  0.1443 -0.2782
 3790SOL    HW214926   5.831   5.231   3.217 -0.6551 -0.3208  0.3568
 3790SOL    HW314927   5.837   5.083   3.187 -2.9390 -0.5081  0.6201
 3790SOL    MW414928   5.816   5.164   3.163 -0.0391 -0.1105  0.0226
 3791SOL     OW14929   5.842   4.477   5.493  0.4180  0.1147 -0.3198
 3791SOL    HW214930   5.819   4.542   5.426 -1.1625  0.2412  0.3157
 3791SOL    HW314931   5.791   4.501   5.570  1.3150 -0.7261  0.5772
 3791SOL    MW414932   5.832   4.488   5.494 -0.1587  0.8773  0.5524
 3792SOL     OW14933   3.578   4.353   1.176 -0.3885 -0.5040 -0.2021
 3792SOL    HW214934   3.646   4.373   1.239 -0.3475  0.7669 -0.6257
 3792SOL    HW314935   3.496   4.361   1.225 -0.5581  3.1844 -0.8361
 3792SOL    MW414936   3.576   4.356   1.190  0.0751  0.0650 -0.4838
 3793SOL     OW14937   2.737   2.115   5.150  0.1789 -0.1422  0.2872
 3793SOL    HW214938   2.744   2.196   5.099  0.5251  0.6094  1.5049
 3793SOL    HW314939   2.819   2.109   5.199  0.3637 -1.4935 -0.1425
 3793SOL    MW414940   2.748   2.125   5.150  0.1255 -0.1970 -0.2681
 3794SOL     OW14941   1.000   1.663   2.415  0.0111  0.6258 -0.0492
 3794SOL    HW214942   1.093   1.682   2.432  0.8494 -0.8959 -2.4310
 3794SOL    HW314943   0.969   1.740   2.367  0.8415  0.0268 -1.6223
 3794SOL    MW414944   1.008   1.676   2.411  0.0597 -0.3146 -0.0649
 3795SOL     OW14945   1.838   2.714   4.267  0.3035  0.1058 -0.3259
 3795SOL    HW214946   1.906   2.746   4.207  0.2881  0.8940  0.0682
 3795SOL    HW314947   1.775   2.786   4.272  0.1374 -0.0819  0.3827
 3795SOL    MW414948   1.839   2.727   4.259 -0.2975 -0.1055 -0.1364
 3796SOL     OW14949   2.242   3.832   3.650  0.0918 -0.4072  0.0493
 3796SOL    HW214950   2.169   3.804   3.704  0.2160 -0.8022  0.0133
 3796SOL    HW314951   2.309   3.861   3.712  0.0793 -0.4787  0.0954
 3796SOL    MW414952   2.241   3.832   3.665  0.1050 -0.6057  0.6209
 3797SOL     OW14953   5.593   2.295   3.389 -0.2500 -0.5648  0.4198
 3797SOL    HW214954   5.631   2.208   3.401 -1.8812 -0.9688  3.4537
 3797SOL    HW314955   5.498   2.280   3.388 -0.5251  1.0392 -0.6827
 3797SOL    MW414956   5.586   2.281   3.390 -0.2852  0.1192  0.2340
 3798SOL     OW14957   4.411   3.302   0.357  0.3361  0.2461  0.4850
 3798SOL    HW214958   4.481   3.332   0.299  0.2072 -0.5019 -0.0686
 3798SOL    HW314959   4.402   3.209   0.338  1.0789 -0.2998  2.5511
 3798SOL    MW414960   4.419   3.294   0.346 -0.2834  0.0049 -0.3776
 3799SOL     OW14961   3.531   4.074   5.537  0.1956 -0.4353 -0.3628
 3799SOL    HW214962   3.499   4.121   5.614  2.5560 -1.2232  1.2031
 3799SOL    HW314963   3.452   4.054   5.486 -1.2463  1.7275  0.8707
 3799SOL    MW414964   3.516   4.077   5.540 -0.3069  0.5918  0.0581
 3800SOL     OW14965   3.324   0.923   2.949  0.2422 -0.2157  0.0525
 3800SOL    HW214966   3.394   0.874   2.993 -0.9495 -1.0940  1.0423
 3800SOL    HW314967   3.278   0.858   2.897 -0.8040  0.0205  0.6623
 3800SOL    MW414968   3.327   0.908   2.948 -0.6234 -0.1591 -0.0542
 3801SOL     OW14969   0.838   1.547   5.739  0.4608  0.3063  0.2962
 3801SOL    HW214970   0.780   1.530   5.812  1.4715 -0.6645  0.9049
 3801SOL    HW314971   0.878   1.632   5.759  1.9136 -0.6571  1.7204
 3801SOL    MW414972   0.836   1.556   5.751 -0.3584  0.5656  0.1654
 3802SOL     OW14973   0.569   3.455   6.068 -0.0798 -0.2707  0.3982
 3802SOL    HW214974   0.566   3.412   5.982 -1.8770 -1.3507  0.9636
 3802SOL    HW314975   0.497   3.517   6.066  0.0682 -0.0766  1.0323
 3802SOL    MW414976   0.559   3.457   6.056  0.2175 -0.0921 -0.3189
 3803SOL     OW14977   2.462   5.614   3.372 -0.6558 -0.5544 -0.2397
 3803SOL    HW214978   2.461   5.632   3.277  2.1622  0.6688 -0.1730
 3803SOL    HW314979   2.555   5.603   3.392 -1.0543  0.4305  2.5795
 3803SOL    MW414980   2.474   5.615   3.362 -0.7690 -0.0458 -0.0493
 3804SOL     OW14981   1.903   4.135   2.760 -0.0970 -0.8784  0.1079
 3804SOL    HW214982   1.871   4.101   2.843 -3.1386 -2.8291 -1.6898
 3804SOL    HW314983   1.857   4.218   2.747  0.0293 -0.8014  0.1446
 3804SOL    MW414984   1.893   4.141   2.769  0.1213 -0.0443 -0.4142
 3805SOL     OW14985   2.593   0.675   2.877  0.0750  0.1141  0.4158
 3805SOL    HW214986   2.506   0.644   2.851 -0.6758  2.1300  0.3320
 3805SOL    HW314987   2.653   0.607   2.846 -1.3281 -0.5369 -1.0167
 3805SOL    MW414988   2.589   0.662   2.869 -0.0329 -0.1557 -0.1449
 3806SOL     OW14989   4.917   0.152   0.538 -0.2413 -0.4547 -0.4283
 3806SOL    HW214990   4.892   0.179   0.450 -0.1162  0.2669 -0.2492
 3806SOL    HW314991   4.859   0.201   0.596  0.5107  0.0256 -0.0683
 3806SOL    MW414992   4.906   0.162   0.534 -0.4944  0.0479  0.2755
 3807SOL     OW14993   3.759   2.918   3.996 -0.1208 -0.4522 -0.0420
 3807SOL    HW214994   3.767   2.952   4.085  0.1241  3.0992 -1.2593
 3807SOL    HW314995   3.672   2.945   3.967 -0.4001 -2.0046 -0.7523
 3807SOL    MW414996   3.749   2.926   4.004 -0.6697 -0.2590 -0.5190
 3808SOL     OW14997   5.148   5.257   4.752 -0.5219 -0.1556 -0.2504
 3808SOL    HW214998   5.206   5.221   4.819  0.4468  1.2690 -0.2878
 3808SOL    HW314999   5.202   5.317   4.703 -1.6013 -0.1009 -1.4221
 3808SOL    MW415000   5.163   5.260   4.755  0.2699 -0.3711 -0.1452
 3809SOL     OW15001   2.311   1.595   1.206 -0.5973  0.1837 -0.2387
 3809SOL    HW215002   2.339   1.604   1.297 -0.2763  0.3656 -0.3542
 3809SOL    HW315003   2.373   1.649   1.156 -0.7437  0.0489 -0.5693
 3809SOL    MW415004   2.323   1.603   1.211  0.4602  0.0622  0.0003
 3810SOL     OW15005   5.796   0.879   6.367 -0.4187 -0.3750 -0.5177
 3810SOL    HW215006   5.817   0.860   6.275  0.3236 -1.4579 -0.1426
 3810SOL    HW315007   5.858   0.948   6.391  0.2944 -1.0293 -0.4552
 3810SOL    MW415008   5.807   0.886   6.358 -0.5729  0.7394 -0.1604
 3811SOL     OW15009   5.572   2.443   2.907 -0.3969 -0.0109 -0.1962
 3811SOL    HW215010   5.621   2.388   2.968 -0.6762 -1.1887 -0.9919
 3811SOL    HW315011   5.635   2.507   2.875 -0.2529  0.6269  1.3159
 3811SOL    MW415012   5.587   2.444   2.910  0.2665 -0.1268 -0.2252
 3812SOL     OW15013   6.205   3.496   0.820  0.0166 -0.2104  1.1553
 3812SOL    HW215014   6.239   3.406   0.824 -0.3097 -0.5454 -1.6493
 3812SOL    HW315015   6.249   3.541   0.892  0.9076 -2.3711  2.0635
 3812SOL    MW415016   6.215   3.490   0.830  0.5236  0.5364 -0.0648
 3813SOL     OW15017   2.069   1.309   2.373  0.2979 -0.2259 -0.4575
 3813SOL    HW215018   2.140   1.350   2.424  0.7625 -0.6372 -0.7610
 3813SOL    HW315019   1.990   1.356   2.399  0.4710 -0.6454  0.9114
 3813SOL    MW415020   2.068   1.321   2.383  0.2289  0.4246  0.2576
 3814SOL     OW15021   3.760   5.334   1.477  0.5525  0.2298 -0.1393
 3814SOL    HW215022   3.787   5.300   1.562  1.9296  0.4098 -0.4842
 3814SOL    HW315023   3.768   5.258   1.418  0.9918  0.4673 -0.3853
 3814SOL    MW415024   3.764   5.319   1.480  0.3312 -0.0426  0.2484
 3815SOL     OW15025   5.538   6.057   6.305 -0.2162 -0.0727  0.3448
 3815SOL    HW215026   5.579   6.074   6.389 -1.9272 -2.4594  1.7931
 3815SOL    HW315027   5.597   5.996   6.261 -0.2902 -0.4419  0.7452
 3815SOL    MW415028   5.551   6.051   6.310  0.2080  0.3774  0.0574
 3816SOL     OW15029   4.868   3.984   0.102 -0.6013 -0.4152  0.4231
 3816SOL    HW215030   4.811   3.990   0.026 -2.6486 -0.2686  1.8903
 3816SOL    HW315031   4.813   3.949   0.172  0.8403  0.5868  2.1721
 3816SOL    MW415032   4.853   3.981   0.101  0.2081 -0.3029 -0.3067
 3817SOL     OW15033   1.627   2.109   2.923  0.3801  0.0235 -0.0621
 3817SOL    HW215034   1.574   2.173   2.970  0.2673  0.5582 -0.8857
 3817SOL    HW315035   1.632   2.143   2.833  0.2322 -1.1680 -0.5505
 3817SOL    MW415036   1.621   2.122   2.917  0.5119 -0.6119 -0.1496
 3818SOL     OW15037   4.444   4.572   6.005 -0.1970 -0.0698 -0.3376
 3818SOL    HW215038   4.515   4.633   5.982  0.5488 -1.0189 -0.6057
 3818SOL    HW315039   4.449   4.504   5.938  0.3530 -1.5479  1.1489
 3818SOL    MW415040   4.454   4.571   5.993 -0.1380  0.0588 -0.3806
 3819SOL     OW15041   1.409   2.122   1.962  0.5336 -0.2328 -0.2707
 3819SOL    HW215042   1.332   2.144   1.910  0.4399  0.4127  0.1296
 3819SOL    HW315043   1.482   2.163   1.915  0.4087  0.6309  0.2610
 3819SOL    MW415044   1.408   2.130   1.949  0.5641 -0.1123 -0.3189
 3820SOL     OW15045   2.955   1.076   3.519  0.2614  0.1913 -0.5845
 3820SOL    HW215046   2.992   1.134   3.585 -1.9446 -0.5012  1.3991
 3820SOL    HW315047   2.862   1.071   3.541 -0.0805 -2.1512 -2.1744
 3820SOL    MW415048   2.948   1.083   3.530 -0.8425  0.5895 -0.1650
 3821SOL     OW15049   4.378   2.487   1.725 -0.5738 -0.0951 -0.3968
 3821SOL    HW215050   4.381   2.583   1.725 -1.1744  0.0171 -3.1782
 3821SOL    HW315051   4.293   2.465   1.763 -0.2704  0.4347  0.6203
 3821SOL    MW415052   4.367   2.497   1.730  0.2319  0.3880 -0.2331
 3822SOL     OW15053   6.188   4.678   3.717  0.2997  0.3025 -0.2961
 3822SOL    HW215054   6.102   4.684   3.674  0.3918 -1.2609 -0.7343
 3822SOL    HW315055   6.249   4.714   3.653 -0.0324  1.7611  0.1552
 3822SOL    MW415056   6.185   4.684   3.703  0.1998 -0.1320 -0.1691
 3823SOL     OW15057   3.139  -0.024   0.559  0.4122  0.0125 -0.2487
 3823SOL    HW215058   3.175  -0.076   0.487  0.7183  0.4284 -0.3956
 3823SOL    HW315059   3.112  -0.089   0.624  0.1109 -0.3642 -0.7485
 3823SOL    MW415060   3.140  -0.040   0.558 -0.0383 -0.1115  0.1594
 3824SOL     OW15061   4.225   1.653   1.940  0.2627  0.2263  0.5916
 3824SOL    HW215062   4.237   1.585   1.874 -1.9609  1.3748 -1.1774
 3824SOL    HW315063   4.173   1.612   2.009  0.8027 -0.4359  0.6068
 3824SOL    MW415064   4.220   1.639   1.940 -0.1897 -0.0090 -0.0398
 3825SOL     OW15065   5.172   4.870   4.008  0.6658 -0.2990 -0.5864
 3825SOL    HW215066   5.236   4.929   3.970  1.6388 -0.5452  0.5994
 3825SOL    HW315067   5.164   4.799   3.944 -0.7362  1.1837 -2.1659
 3825SOL    MW415068   5.179   4.868   3.995 -0.5791 -0.2072  0.2335
 3826SOL     OW15069   2.369   3.426   1.815  0.0501 -0.3679 -0.3067
 3826SOL    HW215070   2.450   3.421   1.765  1.0617 -1.1460  1.3183
 3826SOL    HW315071   2.383   3.498   1.876 -0.8465  0.0711 -0.6132
 3826SOL    MW415072   2.382   3.435   1.816  0.1689  0.0915  0.3030
 3827SOL     OW15073   1.320   5.984   4.893 -0.1345 -0.0701  0.0920
 3827SOL    HW215074   1.347   6.059   4.947 -2.3138 -0.3657  1.6914
 3827SOL    HW315075   1.297   6.023   4.809 -2.8506  1.4147  1.4038
 3827SOL    MW415076   1.321   5.999   4.889  0.2340  0.5432  0.4837
 3828SOL     OW15077   2.261   3.220   0.066  0.3846  0.1633 -0.6998
 3828SOL    HW215078   2.266   3.314   0.045 -1.2158  0.1910 -1.1475
 3828SOL    HW315079   2.307   3.211   0.149  0.3945  1.3865 -0.5525
 3828SOL    MW415080   2.267   3.232   0.074 -0.9757  0.1280  0.2508
 3829SOL     OW15081   4.167   4.102   4.673 -0.2929  0.1856  0.2194
 3829SOL    HW215082   4.211   4.018   4.661  0.2073  0.1823  1.8538
 3829SOL    HW315083   4.220   4.148   4.737 -1.5348  1.0181  0.6907
 3829SOL    MW415084   4.180   4.097   4.680  0.5692  0.2740 -0.7087
 3830SOL     OW15085   1.337   5.772   3.488  0.4580  0.0634  0.2386
 3830SOL    HW215086   1.366   5.834   3.555 -1.3624  0.2520  0.9091
 3830SOL    HW315087   1.380   5.801   3.408  2.1103  0.2718  1.1644
 3830SOL    MW415088   1.346   5.784   3.486  0.0516  0.4870 -0.1194
 3831SOL     OW15089   0.100   6.162   4.666  0.4091  0.5807  0.0892
 3831SOL    HW215090   0.121   6.168   4.573  0.2937 -0.9283 -0.0611
 3831SOL    HW315091   0.006   6.182   4.671  0.6339  1.7277  0.0420
 3831SOL    MW415092   0.090   6.166   4.654  0.2741 -0.6533  0.2107
 3832SOL     OW15093   6.025   5.976   6.254  0.1302  0.1606 -0.8135
 3832SOL    HW215094   6.006   6.063   6.289  0.6184  0.4586 -1.2790
 3832SOL    HW315095   6.050   5.991   6.163  0.9557 -0.3773 -0.6916
 3832SOL    MW415096   6.026   5.990   6.247  0.1009  0.4074  0.6691
 3833SOL     OW15097   2.957   3.781   2.792 -0.0395 -0.2112  0.0580
 3833SOL    HW215098   2.950   3.771   2.887 -2.0786 -1.9853 -0.1985
 3833SOL    HW315099   2.882   3.836   2.768  1.5819  1.9564 -0.3986
 3833SOL    MW415100   2.946   3.787   2.802  0.6680 -0.1164 -0.1531
 3834SOL     OW15101   0.742   0.184   0.852 -0.2627  0.1326  0.3585
 3834SOL    HW215102   0.825   0.227   0.831 -0.5809  0.1065 -1.0773
 3834SOL    HW315103   0.763   0.091   0.856  0.1976  0.2753  2.3067
 3834SOL    MW415104   0.756   0.177   0.849 -0.2534  0.3657 -0.1744
 3835SOL     OW15105   3.806   1.063   1.439 -0.0473  0.4393 -0.4608
 3835SOL    HW215106   3.715   1.055   1.409  0.1566 -1.5554 -0.6693
 3835SOL    HW315107   3.855   1.088   1.360 -0.2423  0.3444 -0.6135
 3835SOL    MW415108   3.800   1.065   1.424  0.6009  0.1982 -0.6662
 3836SOL     OW15109   2.989   4.676   2.491 -0.0839  0.2379  0.5018
 3836SOL    HW215110   2.932   4.752   2.505 -0.8419 -0.2370  0.0624
 3836SOL    HW315111   2.948   4.628   2.419  0.1290 -0.8363  1.0719
 3836SOL    MW415112   2.976   4.680   2.483 -0.5132  0.1141 -0.1324
 3837SOL     OW15113   5.697   2.749   0.113  0.3704  0.0191 -0.1875
 3837SOL    HW215114   5.708   2.813   0.043  0.3372 -0.9658 -1.1106
 3837SOL    HW315115   5.736   2.669   0.079 -0.5278 -0.7444  0.5270
 3837SOL    MW415116   5.703   2.747   0.099  0.1480  0.2419 -0.1940
 3838SOL     OW15117   6.065   3.889   0.359  0.2395 -0.1903  0.4107
 3838SOL    HW215118   6.108   3.866   0.441  0.3642 -1.7267 -0.0536
 3838SOL    HW315119   6.040   3.805   0.320  1.3276  0.4102 -1.7364
 3838SOL    MW415120   6.067   3.874   0.364  0.9378  0.0709  0.4911
 3839SOL     OW15121   5.793   3.043   4.428 -0.0932  0.6729 -1.0035
 3839SOL    HW215122   5.839   3.103   4.371 -0.4602  1.3921 -0.5573
 3839SOL    HW315123   5.711   3.023   4.382 -0.5487  1.5275 -0.5884
 3839SOL    MW415124   5.788   3.048   4.415 -0.5098  0.0877  0.1001
 3840SOL     OW15125   3.723   4.880   0.309  0.4217 -0.1815 -0.5361
 3840SOL    HW215126   3.764   4.804   0.269  0.0492  0.7106 -2.7519
 3840SOL    HW315127   3.630   4.869   0.291  0.0748 -0.3298  1.1831
 3840SOL    MW415128   3.716   4.868   0.302  0.8539 -0.3589  0.4205
 3841SOL     OW15129   5.244   6.263   1.086  0.1364 -0.3373 -0.1951
 3841SOL    HW215130   5.256   6.193   1.149  0.4996 -0.7300 -0.6866
 3841SOL    HW315131   5.201   6.221   1.011 -3.5394  0.7799  1.0437
 3841SOL    MW415132   5.240   6.248   1.084 -0.1691 -0.3634  0.2276
 3842SOL     OW15133   3.175   0.890   5.967 -0.1748  0.1455 -0.4430
 3842SOL    HW215134   3.081   0.869   5.961 -0.0978 -0.4673  0.2915
 3842SOL    HW315135   3.177   0.984   5.988 -0.6837 -0.1291  0.9597
 3842SOL    MW415136   3.163   0.900   5.969  0.2296 -0.2239 -0.4909
 3843SOL     OW15137   3.682   1.965   5.875  0.1833 -0.1480  0.0932
 3843SOL    HW215138   3.720   1.877   5.869  3.2904  1.1406 -1.2520
 3843SOL    HW315139   3.639   1.978   5.790  2.0121  0.4847 -0.7987
 3843SOL    MW415140   3.681   1.955   5.863  0.2375 -0.2026  0.4818
 3844SOL     OW15141   4.523   5.139   4.646  0.3893 -0.4214  0.1545
 3844SOL    HW215142   4.573   5.190   4.583  0.8922  1.2581  1.7919
 3844SOL    HW315143   4.526   5.192   4.726 -0.1961 -2.4457  1.5887
 3844SOL    MW415144   4.530   5.153   4.649 -0.0047  0.1841  0.2468
 3845SOL     OW15145   2.046   0.441   4.445  0.2783  0.1986 -0.6106
 3845SOL    HW215146   1.983   0.463   4.375 -0.4585  0.8438  0.2362
 3845SOL    HW315147   2.036   0.347   4.457 -0.8655  0.3603 -0.1893
 3845SOL    MW415148   2.036   0.432   4.437  0.2934  0.1706  0.0361
 3846SOL     OW15149   5.869   3.248   2.232 -0.0484 -0.7696 -0.5023
 3846SOL    HW215150   5.901   3.190   2.302  2.3524  1.4442  0.4519
 3846SOL    HW315151   5.839   3.326   2.279 -0.6743 -0.1766 -1.8538
 3846SOL    MW415152   5.870   3.251   2.248  0.2480 -0.3471 -0.1301
 3847SOL     OW15153   0.649   5.465   1.226 -0.2712  0.1100 -0.0202
 3847SOL    HW215154   0.651   5.393   1.164  1.0947  0.6479 -0.6441
 3847SOL    HW315155   0.738   5.499   1.226 -1.0322  2.2249 -0.2504
 3847SOL    MW415156   0.661   5.460   1.218 -0.2458 -0.5529 -0.2103
 3848SOL     OW15157   1.578   1.410   6.105  0.1332  0.5066  0.4057
 3848SOL    HW215158   1.644   1.460   6.154  1.6411 -0.4336 -0.5572
 3848SOL    HW315159   1.593   1.435   6.014 -1.2352  0.6746  0.2146
 3848SOL    MW415160   1.589   1.420   6.100  0.4727  0.0536 -0.3622
 3849SOL     OW15161   3.386   2.219   0.848  0.2883 -0.1422  0.1828
 3849SOL    HW215162   3.411   2.136   0.806 -0.3885  0.2034 -0.9303
 3849SOL    HW315163   3.460   2.240   0.905  1.8709  0.0508 -1.8364
 3849SOL    MW415164   3.399   2.211   0.850 -0.1100 -0.3074  0.3157
 3850SOL     OW15165   0.055   0.438   4.359 -0.3845 -0.5291  0.3280
 3850SOL    HW215166  -0.003   0.507   4.391  2.1430  0.6827  2.7199
 3850SOL    HW315167   0.110   0.481   4.294  1.1614 -0.2117  1.7847
 3850SOL    MW415168   0.054   0.453   4.354  0.1485  0.3135 -0.1690
 3851SOL     OW15169   6.015   4.898   0.155 -0.9202  0.3858 -0.1685
 3851SOL    HW215170   5.966   4.860   0.228 -1.8200  1.7618 -0.0219
 3851SOL    HW315171   5.994   4.842   0.081  1.2427 -2.0015  0.8535
 3851SOL    MW415172   6.005   4.886   0.155 -0.4376  0.3174 -0.3322
 3852SOL     OW15173   0.685   5.479   2.685 -0.0514 -0.2269  0.5276
 3852SOL    HW215174   0.672   5.490   2.591 -1.7774  1.2715  0.8853
 3852SOL    HW315175   0.597   5.474   2.721  0.5706 -0.3702  2.1155
 3852SOL    MW415176   0.672   5.480   2.678 -0.2704  0.6125  0.1826
 3853SOL     OW15177   5.064   1.026   4.283  0.1352 -0.2168  0.5836
 3853SOL    HW215178   4.968   1.035   4.279  0.2455  0.6013 -0.4215
 3853SOL    HW315179   5.092   1.025   4.192  1.0067 -1.6072  0.8278
 3853SOL    MW415180   5.055   1.027   4.271  0.4104 -0.8667  0.1287
 3854SOL     OW15181   0.673   0.996   2.215  0.0911  0.0495 -0.3407
 3854SOL    HW215182   0.639   0.910   2.238 -1.8648  1.0388  0.7575
 3854SOL    HW315183   0.749   1.008   2.272  0.6453 -1.0927 -0.8158
 3854SOL    MW415184   0.678   0.987   2.226 -0.1281  0.0226  0.8394
 3855SOL     OW15185   0.178   3.892   5.469  0.0760 -0.3467  0.1141
 3855SOL    HW215186   0.245   3.945   5.513  1.0292 -1.5621  0.1991
 3855SOL    HW315187   0.166   3.935   5.384  0.3117  0.3972  0.4469
 3855SOL    MW415188   0.185   3.905   5.463  0.4694  0.5958 -0.2976
 3856SOL     OW15189   2.115   4.575   1.802  0.0287 -0.1884 -0.4464
 3856SOL    HW215190   2.040   4.596   1.857  1.1201  0.0835  0.9936
 3856SOL    HW315191   2.131   4.482   1.817  0.4244 -0.0785 -0.1792
 3856SOL    MW415192   2.108   4.566   1.811 -0.3318 -0.5600 -0.5833
 3857SOL     OW15193   3.292   3.567   1.735 -0.7692 -0.0941 -0.5854
 3857SOL    HW215194   3.246   3.492   1.770 -0.8653  0.1713 -0.1430
 3857SOL    HW315195   3.385   3.548   1.750 -0.8458  0.4816  0.7766
 3857SOL    MW415196   3.298   3.555   1.741  0.2424  0.2211 -0.2977
 3858SOL     OW15197   6.068   0.357   0.718 -0.4848 -0.5012  0.2160
 3858SOL    HW215198   6.078   0.334   0.811 -1.2584 -0.4257  0.3176
 3858SOL    HW315199   6.006   0.293   0.684  0.1589 -0.8283 -0.3715
 3858SOL    MW415200   6.061   0.345   0.726 -0.3576 -0.2252 -0.2405
 3859SOL     OW15201   0.869   0.426   3.561 -0.2717 -0.5122 -0.3113
 3859SOL    HW215202   0.933   0.403   3.493  0.4933 -1.6342  0.7628
 3859SOL    HW315203   0.812   0.349   3.567  0.0149 -0.6603  0.6974
 3859SOL    MW415204   0.870   0.413   3.553  0.0846  0.2453  0.3074
 3860SOL     OW15205   3.024   0.490   1.496 -0.9631  0.7320  0.0710
 3860SOL    HW215206   3.053   0.545   1.423 -2.6221  1.1346 -0.3091
 3860SOL    HW315207   2.929   0.496   1.495 -1.0446  0.5879  2.1538
 3860SOL    MW415208   3.016   0.498   1.486  0.1508 -0.4197  0.1513
 3861SOL     OW15209   4.867   1.354   1.669 -0.8149 -0.2653 -0.8567
 3861SOL    HW215210   4.934   1.403   1.718  1.0232 -3.2853 -0.0508
 3861SOL    HW315211   4.789   1.359   1.724 -0.3105  0.6429 -0.1803
 3861SOL    MW415212   4.866   1.362   1.683  0.6022 -0.4103  0.2446
 3862SOL     OW15213   4.098   4.365   1.462 -0.9334 -0.0649  0.0184
 3862SOL    HW215214   4.124   4.330   1.547 -0.6685  0.2852  0.0829
 3862SOL    HW315215   4.114   4.459   1.468 -2.1428  0.1530  0.0289
 3862SOL    MW415216   4.104   4.373   1.474  0.0371 -0.1666 -0.1462
 3863SOL     OW15217   0.223   0.664   4.536 -0.0338  0.3643 -0.7140
 3863SOL    HW215218   0.288   0.606   4.575  0.6122  1.0197 -0.8031
 3863SOL    HW315219   0.274   0.725   4.483 -0.2963  3.3333  2.1505
 3863SOL    MW415220   0.238   0.664   4.534  0.2042 -0.2743  0.2409
 3864SOL     OW15221   4.283   2.482   5.383  0.4150 -0.1898  0.8473
 3864SOL    HW215222   4.229   2.547   5.338  0.5726 -0.8935 -0.4079
 3864SOL    HW315223   4.220   2.422   5.422  0.1769 -1.8108 -1.7836
 3864SOL    MW415224   4.268   2.483   5.382 -0.1108  0.4638 -0.0574
 3865SOL     OW15225   2.760   6.120   1.917 -0.5871 -0.1538  0.3635
 3865SOL    HW215226   2.818   6.053   1.883 -1.4267 -0.7780  0.1279
 3865SOL    HW315227   2.799   6.203   1.888  0.8579 -0.4736  1.2931
 3865SOL    MW415228   2.773   6.122   1.909 -0.0873 -0.0336 -0.6484
 3866SOL     OW15229   4.357   1.838   3.857  0.0789 -0.1672  0.2404
 3866SOL    HW215230   4.443   1.801   3.880 -0.3798 -1.0881  0.5379
 3866SOL    HW315231   4.352   1.919   3.908  1.2318  0.4911 -0.6481
 3866SOL    MW415232   4.368   1.844   3.867  0.0248  0.2755  0.9364
 3867SOL     OW15233   5.853   5.907   3.064  0.7041  0.3251  0.0393
 3867SOL    HW215234   5.892   5.821   3.072 -0.5232 -0.5391 -2.3004
 3867SOL    HW315235   5.906   5.952   2.998 -0.3753  0.2436 -0.9181
 3867SOL    MW415236   5.865   5.902   3.056 -0.5404 -0.4595 -0.4972
 3868SOL     OW15237   6.317   2.665   4.411 -0.1560 -0.1241 -0.1139
 3868SOL    HW215238   6.252   2.665   4.341  0.5247 -1.1473 -0.7724
 3868SOL    HW315239   6.383   2.602   4.382  1.4995  1.3872  0.1848
 3868SOL    MW415240   6.318   2.656   4.398  0.3142 -0.4543  0.3466
 3869SOL     OW15241   1.235   4.280   1.199  0.8380 -0.4143  0.3368
 3869SOL    HW215242   1.187   4.202   1.225 -0.6095  0.7493  1.3567
 3869SOL    HW315243   1.226   4.283   1.104 -2.0781  0.2566  0.5314
 3869SOL    MW415244   1.227   4.270   1.190  0.0427 -0.2149 -0.3904
 3870SOL     OW15245   0.187   1.331   2.861  0.2172 -0.4715  0.4204
 3870SOL    HW215246   0.266   1.344   2.808 -1.0454  0.2339 -1.3971
 3870SOL    HW315247   0.219   1.331   2.951  2.2453  0.2347 -0.2273
 3870SOL    MW415248   0.202   1.333   2.865  0.9983  0.0737  0.2601
 3871SOL     OW15249   3.317   4.486   4.189  0.1466 -0.3774 -0.1887
 3871SOL    HW215250   3.326   4.575   4.156 -2.2128  0.3877  0.9831
 3871SOL    HW315251   3.258   4.443   4.127  1.8626 -1.4301 -1.1712
 3871SOL    MW415252   3.310   4.492   4.176 -0.7695  0.3534  0.0749
 3872SOL     OW15253   5.385   4.239   6.234  0.1779 -0.5111 -0.1803
 3872SOL    HW215254   5.474   4.272   6.249 -0.0868  0.3075 -0.3635
 3872SOL    HW315255   5.365   4.188   6.312  1.7327 -2.8208 -1.1784
 3872SOL    MW415256   5.394   4.237   6.246  0.0032  0.2809 -0.3410
 3873SOL     OW15257   2.099   3.376   4.883  0.0323 -0.4532  0.0604
 3873SOL    HW215258   2.083   3.470   4.869 -2.2044 -0.7943 -0.1571
 3873SOL    HW315259   2.018   3.345   4.924  0.9365 -2.2103  0.5771
 3873SOL    MW415260   2.086   3.384   4.886 -0.2659  0.8292  0.6186
 3874SOL     OW15261   5.064   3.224   2.167 -0.0642  0.5372 -0.3010
 3874SOL    HW215262   5.082   3.196   2.257  0.2148  0.0396 -0.5074
 3874SOL    HW315263   4.989   3.282   2.175  1.6250  2.7245  0.5965
 3874SOL    MW415264   5.057   3.228   2.180 -0.4284 -0.1482  0.2264
 3875SOL     OW15265   3.535   0.759   1.346 -0.1377 -0.1772  0.3194
 3875SOL    HW215266   3.578   0.746   1.261  0.6364  1.3463  0.4497
 3875SOL    HW315267   3.532   0.854   1.357 -0.7776 -0.3381  1.7388
 3875SOL    MW415268   3.540   0.770   1.336  0.6717 -0.0891 -0.3641
 3876SOL     OW15269   6.007   2.198   2.553 -0.0904  0.2196  0.1173
 3876SOL    HW215270   5.951   2.257   2.604 -0.1483  0.8799 -0.6842
 3876SOL    HW315271   5.961   2.114   2.554 -2.5952  1.3694 -2.7741
 3876SOL    MW415272   5.994   2.195   2.560  0.1725 -0.4509 -0.6955
 3877SOL     OW15273   5.769   2.782   3.452  0.1780  0.2505 -0.0882
 3877SOL    HW215274   5.788   2.868   3.415 -0.1931  0.1563 -0.4944
 3877SOL    HW315275   5.826   2.722   3.404 -0.0911  0.1685 -0.3061
 3877SOL    MW415276   5.779   2.786   3.441  0.5013 -0.3255 -0.3472
 3878SOL     OW15277   0.670   3.091   5.677  0.0337 -0.1098 -1.3072
 3878SOL    HW215278   0.605   3.061   5.612 -1.9974  1.5760 -0.1739
 3878SOL    HW315279   0.693   3.012   5.726 -0.0354 -1.0056 -2.6645
 3878SOL    MW415280   0.664   3.076   5.675 -0.9259  0.0895  0.1251
 3879SOL     OW15281   4.519   3.332   4.135 -0.2083 -0.0429  0.5917
 3879SOL    HW215282   4.525   3.400   4.201  0.2544 -0.1767  0.6891
 3879SOL    HW315283   4.513   3.250   4.185  2.4436 -0.3722  0.5165
 3879SOL    MW415284   4.519   3.330   4.150 -0.8934  0.2008  0.2991
 3880SOL     OW15285   0.850   1.190   3.490 -0.2416  0.5288  0.2700
 3880SOL    HW215286   0.784   1.141   3.539 -0.6222  0.4220 -0.3505
 3880SOL    HW315287   0.840   1.162   3.399 -0.0791  1.3194 -0.0036
 3880SOL    MW415288   0.840   1.180   3.485 -0.2101  0.0361 -0.0205
 3881SOL     OW15289   2.767   5.756   2.791 -0.0358  0.0202  0.7122
 3881SOL    HW215290   2.807   5.687   2.737 -0.0306 -0.1817  0.9735
 3881SOL    HW315291   2.753   5.715   2.876  0.9961  0.6693  1.2207
 3881SOL    MW415292   2.770   5.741   2.795  0.2681 -0.1985 -0.3309
 3882SOL     OW15293   6.123   2.863   3.987  0.6368  0.2103  0.0702
 3882SOL    HW215294   6.203   2.823   3.954  0.7550  0.4728  0.0362
 3882SOL    HW315295   6.132   2.956   3.965 -0.3478  0.0085 -1.2611
 3882SOL    MW415296   6.135   2.870   3.980 -0.3728  0.2978 -0.0964
 3883SOL     OW15297   3.351   4.003   1.526  0.4310 -0.0109  0.6962
 3883SOL    HW215298   3.341   4.028   1.434 -0.4428  0.1258  0.8206
 3883SOL    HW315299   3.430   3.950   1.528  1.2427  1.1436  0.0984
 3883SOL    MW415300   3.360   4.000   1.514  0.3555  0.0350  0.2841
 3884SOL     OW15301   1.778   1.042   3.679  0.0460  0.0390  0.5960
 3884SOL    HW215302   1.726   1.080   3.748 -0.8559  0.2055 -0.1539
 3884SOL    HW315303   1.863   1.085   3.686  0.1681 -0.3735  1.9511
 3884SOL    MW415304   1.783   1.052   3.689 -0.1463  0.1693  0.2604
 3885SOL     OW15305   1.289   5.380   0.581 -0.2383 -0.3774  0.4822
 3885SOL    HW215306   1.202   5.375   0.621 -0.6295 -1.0698 -0.4241
 3885SOL    HW315307   1.345   5.328   0.639  0.1440  1.9609  2.3929
 3885SOL    MW415308   1.285   5.372   0.594 -0.3628  0.2688  0.0306
 3886SOL     OW15309   2.323   1.989   6.106  0.0049 -0.1174 -0.1463
 3886SOL    HW215310   2.281   2.019   6.025  1.1463 -0.4553 -0.8813
 3886SOL    HW315311   2.396   2.049   6.119  0.8358 -1.0837 -0.2948
 3886SOL    MW415312   2.327   2.001   6.097 -0.0903  0.0929  0.0741
 3887SOL     OW15313   5.578   6.362   0.390  0.3591 -0.1642 -0.4934
 3887SOL    HW215314   5.549   6.304   0.461 -0.6412 -2.0690 -2.3312
 3887SOL    HW315315   5.673   6.368   0.401  0.0437  1.6369  2.3769
 3887SOL    MW415316   5.587   6.355   0.401  0.0573 -0.5155 -0.8291
 3888SOL     OW15317   5.200   5.621   2.324  0.3370 -0.4633 -0.2482
 3888SOL    HW215318   5.280   5.614   2.270  0.5301  1.8604 -0.3826
 3888SOL    HW315319   5.162   5.705   2.298 -1.1260 -0.6369  1.2105
 3888SOL    MW415320   5.206   5.631   2.313  0.1456 -0.2534  0.3322
 3889SOL     OW15321   5.939   3.562   1.082  0.0808  0.8375  0.1586
 3889SOL    HW215322   5.907   3.558   0.992  0.5597 -2.2913 -0.0086
 3889SOL    HW315323   5.859   3.563   1.135 -0.2769 -0.2853 -0.3157
 3889SOL    MW415324   5.924   3.561   1.077  0.1962  0.0212  0.5995
 3890SOL     OW15325   2.470   5.470   5.152  0.2093  0.2391  0.4170
 3890SOL    HW215326   2.501   5.380   5.142  2.0804  1.0123 -1.2265
 3890SOL    HW315327   2.498   5.515   5.073 -2.8593  1.7396  0.0263
 3890SOL    MW415328   2.477   5.464   5.140 -0.3098  0.2675 -0.5588
 3891SOL     OW15329   0.197   3.687   4.003  0.3205  0.0140  0.2840
 3891SOL    HW215330   0.130   3.634   3.960 -0.6837  1.6981 -0.3197
 3891SOL    HW315331   0.248   3.724   3.931  0.6790  0.2813  0.6683
 3891SOL    MW415332   0.195   3.685   3.988  0.1034 -0.1265  0.0733
 3892SOL     OW15333   4.803   0.607   1.746  0.3150  0.3019  0.4467
 3892SOL    HW215334   4.725   0.662   1.756 -0.6813 -0.9969  0.0972
 3892SOL    HW315335   4.868   0.666   1.708 -0.9301  1.0794 -0.6056
 3892SOL    MW415336   4.801   0.622   1.742 -0.2208 -0.2127  0.5158
 3893SOL     OW15337   1.443   3.106   0.419 -0.3099 -0.4171  0.0134
 3893SOL    HW215338   1.488   3.134   0.339  2.0648  2.8295  2.2401
 3893SOL    HW315339   1.369   3.166   0.427 -0.3270 -0.4897  0.4123
 3893SOL    MW415340   1.439   3.118   0.409  0.1011  0.2392 -0.0953
 3894SOL     OW15341   5.140   2.581   2.318 -0.5894 -0.2753 -0.2559
 3894SOL    HW215342   5.089   2.507   2.284 -1.7201  0.4264 -0.1462
 3894SOL    HW315343   5.087   2.657   2.298  1.1343  0.6650 -1.5003
 3894SOL    MW415344   5.126   2.581   2.311 -0.3058  0.8164  0.1081
 3895SOL     OW15345   3.479   0.202   3.819 -0.3973 -0.1397  0.8404
 3895SOL    HW215346   3.504   0.266   3.886  0.6920  3.3893 -2.5597
 3895SOL    HW315347   3.544   0.212   3.751 -2.4402 -2.1524 -1.6173
 3895SOL    MW415348   3.491   0.212   3.819  0.5887 -0.3411  0.5303
 3896SOL     OW15349   1.563  -0.029   4.284  0.0155 -0.5988 -0.3778
 3896SOL    HW215350   1.643  -0.072   4.314  0.8207  0.9746 -0.1280
 3896SOL    HW315351   1.493  -0.077   4.327  1.0056  0.0347  2.1624
 3896SOL    MW415352   1.565  -0.041   4.294 -0.3937 -0.1140  0.2312
 3897SOL     OW15353   1.748   0.565   2.833 -0.3153  0.0338 -0.2527
 3897SOL    HW215354   1.725   0.509   2.907 -2.4104 -0.8724 -1.4978
 3897SOL    HW315355   1.833   0.603   2.857 -0.4158 -1.0529  2.1030
 3897SOL    MW415356   1.756   0.563   2.846  0.5213 -0.0749 -0.0667
 3898SOL     OW15357   4.188   2.420   1.340  0.6376 -0.1376 -0.4567
 3898SOL    HW215358   4.177   2.444   1.249  1.9961 -0.4424 -0.7154
 3898SOL    HW315359   4.226   2.332   1.338  0.5463 -0.2130  0.4103
 3898SOL    MW415360   4.191   2.411   1.328  0.4753 -0.1061 -0.0422
 3899SOL     OW15361   1.665   2.878   5.023  0.2168 -0.9035 -0.2164
 3899SOL    HW215362   1.696   2.788   5.012 -0.6924 -1.0218 -2.0338
 3899SOL    HW315363   1.741   2.932   5.000  0.2654 -1.2054 -0.7819
 3899SOL    MW415364   1.679   2.874   5.019  0.3124 -0.2443 -0.1984
 3900SOL     OW15365   3.356   0.233   1.667  0.0202  0.5233 -0.2798
 3900SOL    HW215366   3.421   0.302   1.652 -0.3269  0.5946 -1.6073
 3900SOL    HW315367   3.396   0.155   1.629 -0.1105  0.2595  0.1200
 3900SOL    MW415368   3.370   0.232   1.660  0.2607  0.5952 -0.2615
 3901SOL     OW15369   4.391   0.019   0.548 -0.1254 -0.0359 -0.3128
 3901SOL    HW215370   4.401  -0.068   0.510  1.6399 -0.0926  0.1902
 3901SOL    HW315371   4.383   0.004   0.642  0.3746  0.3451 -0.2046
 3901SOL    MW415372   4.391   0.006   0.555  0.5877 -0.6803 -0.4959
 3902SOL     OW15373   3.817   6.030   3.417  0.1082  0.1784 -0.4114
 3902SOL    HW215374   3.858   5.979   3.347 -1.2600  0.6431 -1.5990
 3902SOL    HW315375   3.742   6.072   3.376  0.3637  2.0210  0.8879
 3902SOL    MW415376   3.813   6.028   3.403  0.0738 -0.1673 -0.3279
 3903SOL     OW15377   4.517   5.068   3.696  0.0276 -0.1222 -0.0636
 3903SOL    HW215378   4.427   5.073   3.664  0.3684  0.8808 -0.9386
 3903SOL    HW315379   4.549   5.158   3.690  1.4520 -0.6562 -0.8952
 3903SOL    MW415380   4.509   5.081   3.691 -0.2528  0.8553  0.0803
 3904SOL     OW15381   5.530   0.173   1.828 -0.1391  0.1096 -0.0789
 3904SOL    HW215382   5.489   0.247   1.783 -2.4699 -0.6825  0.6097
 3904SOL    HW315383   5.495   0.177   1.917  0.5878 -1.1787  0.2844
 3904SOL    MW415384   5.520   0.183   1.834  0.4434 -0.0161 -0.1409
 3905SOL     OW15385   0.479   0.752   3.909  0.5966 -0.0821 -0.0006
 3905SOL    HW215386   0.518   0.788   3.830  0.3896 -0.1813 -0.1505
 3905SOL    HW315387   0.550   0.704   3.951  0.7275  0.0333 -0.0879
 3905SOL    MW415388   0.493   0.750   3.904  0.2319  0.3383 -0.0527
 3906SOL     OW15389   2.401   0.739   0.306  0.3212  0.3139 -0.0571
 3906SOL    HW215390   2.383   0.646   0.320 -0.2096  0.6465  1.6618
 3906SOL    HW315391   2.492   0.751   0.332 -0.5594  0.8616  3.2152
 3906SOL    MW415392   2.411   0.729   0.311 -0.2458  0.3407  0.0897
 3907SOL     OW15393   5.103   4.536   1.199  0.1388  0.0799  0.4999
 3907SOL    HW215394   5.133   4.568   1.285 -0.1030 -1.2305  1.0962
 3907SOL    HW315395   5.009   4.550   1.201  0.3502  1.9930 -0.4272
 3907SOL    MW415396   5.095   4.542   1.211 -0.1629 -0.4552  0.5078
 3908SOL     OW15397   2.515   1.282   5.531  0.4609 -0.1219  0.2740
 3908SOL    HW215398   2.458   1.306   5.604 -0.9193 -2.0098 -0.0914
 3908SOL    HW315399   2.483   1.335   5.457  0.9778  0.7968  0.6930
 3908SOL    MW415400   2.503   1.292   5.531  0.2355 -0.1665 -0.2760
 3909SOL     OW15401   0.351   5.519   5.350 -0.6212 -0.2047 -0.1077
 3909SOL    HW215402   0.278   5.579   5.339 -0.8373 -0.5628 -0.6605
 3909SOL    HW315403   0.371   5.489   5.261 -0.4628 -0.8868  0.1529
 3909SOL    MW415404   0.344   5.523   5.337 -0.1077  0.2514  0.0319
 3910SOL     OW15405   1.751   1.932   3.121 -0.1369 -0.1036 -0.0901
 3910SOL    HW215406   1.815   1.996   3.090  1.0421 -0.7936  0.8086
 3910SOL    HW315407   1.666   1.970   3.098  0.5601  1.2352 -0.5911
 3910SOL    MW415408   1.748   1.946   3.114  0.4510 -0.1568 -0.3863
 3911SOL     OW15409   0.424   6.259   3.534 -0.3507  0.5605  0.4994
 3911SOL    HW215410   0.518   6.257   3.517 -0.2534  1.3063  0.9175
 3911SOL    HW315411   0.391   6.180   3.492  0.3373  0.7304 -0.4017
 3911SOL    MW415412   0.432   6.249   3.526 -0.0219 -0.5759 -0.0903
 3912SOL     OW15413   0.191   5.452   3.241 -0.7410  0.3266 -0.1361
 3912SOL    HW215414   0.125   5.506   3.284 -0.7140  1.8362 -1.8670
 3912SOL    HW315415   0.237   5.512   3.182 -0.2035 -1.4166 -1.5881
 3912SOL    MW415416   0.188   5.467   3.239  0.0988  0.0754 -0.3276
 3913SOL     OW15417   0.858   3.819   4.187 -0.7651 -0.3153 -0.3834
 3913SOL    HW215418   0.827   3.883   4.124  1.5621  2.8476  1.3744
 3913SOL    HW315419   0.936   3.781   4.147  1.1658  2.2437  0.5959
 3913SOL    MW415420   0.865   3.822   4.174  0.2413  0.4844  0.2282
 3914SOL     OW15421   0.880   1.082   1.477 -0.0923  0.4731 -0.4494
 3914SOL    HW215422   0.815   1.066   1.545 -0.0963  0.0807 -0.5402
 3914SOL    HW315423   0.882   1.001   1.427  0.3326  0.5480 -0.5597
 3914SOL    MW415424   0.872   1.069   1.480 -0.2787  0.3138  0.2804
 3915SOL     OW15425   5.710   3.822   1.421 -0.3689  0.2877 -0.0314
 3915SOL    HW215426   5.640   3.844   1.482  0.2764  0.8661  0.5145
 3915SOL    HW315427   5.786   3.807   1.477 -0.2073 -1.0201 -0.5588
 3915SOL    MW415428   5.711   3.823   1.437 -0.0817 -0.4589  0.0031
 3916SOL     OW15429   1.103   0.794   4.442  0.3503  0.0740 -0.5404
 3916SOL    HW215430   1.054   0.773   4.362  1.7520  0.6549 -1.6133
 3916SOL    HW315431   1.190   0.757   4.426  0.1546 -1.4183  1.5419
 3916SOL    MW415432   1.108   0.786   4.429  0.0230 -0.4213  0.6794
 3917SOL     OW15433   2.426   2.857   0.331  0.5121  0.5689 -0.2028
 3917SOL    HW215434   2.437   2.805   0.252  1.6281  0.2248  0.1680
 3917SOL    HW315435   2.358   2.921   0.308 -1.1439 -1.2122 -0.5587
 3917SOL    MW415436   2.418   2.859   0.317  0.1533 -0.2975 -0.5090
 3918SOL     OW15437   1.867   4.836   3.031  0.2673  0.1109  0.3640
 3918SOL    HW215438   1.821   4.756   3.058  2.3190 -0.8616  1.1893
 3918SOL    HW315439   1.954   4.806   3.006  0.5927  1.9195 -0.8805
 3918SOL    MW415440   1.872   4.821   3.031 -0.0993 -0.5280 -0.5900
 3919SOL     OW15441   3.016   2.384   2.576 -0.0674 -0.3741  0.2854
 3919SOL    HW215442   2.965   2.346   2.648 -1.0393 -0.7376 -0.5699
 3919SOL    HW315443   2.957   2.447   2.535 -0.0261 -1.1424 -1.0186
 3919SOL    MW415444   3.002   2.387   2.580 -0.1547  0.2793 -0.2256
 3920SOL     OW15445   6.044   1.344   0.077 -0.2035 -0.1420  0.5354
 3920SOL    HW215446   5.999   1.416   0.034 -2.3428 -1.1598  0.8854
 3920SOL    HW315447   6.037   1.364   0.170  1.7109  0.5526  0.5634
 3920SOL    MW415448   6.037   1.356   0.084  0.5576 -0.3181  0.6599
 3921SOL     OW15449   4.633   1.776   3.895 -0.2002 -0.4526  0.1573
 3921SOL    HW215450   4.703   1.819   3.844  0.4773 -0.6796  0.8717
 3921SOL    HW315451   4.637   1.819   3.981 -0.5620 -0.8646  0.3808
 3921SOL    MW415452   4.643   1.788   3.900 -0.6198  0.3973  0.0980
 3922SOL     OW15453   0.914   1.571   0.024  0.0266 -0.0183  0.4704
 3922SOL    HW215454   0.998   1.531   0.045  1.1261  1.1220 -1.5803
 3922SOL    HW315455   0.904   1.560  -0.070 -0.9755  2.0274  0.2937
 3922SOL    MW415456   0.923   1.564   0.015 -0.0420  0.7019  0.3313
 3923SOL     OW15457   5.427   3.091   5.685  0.1964  0.5596  0.1243
 3923SOL    HW215458   5.437   3.153   5.757  1.4470  0.7236 -0.1560
 3923SOL    HW315459   5.352   3.036   5.710  0.6789  0.5240  1.6123
 3923SOL    MW415460   5.418   3.092   5.698 -0.0360  0.2397 -0.1012
 3924SOL     OW15461   2.247   6.206   1.004  0.3006 -0.0291 -0.0782
 3924SOL    HW215462   2.300   6.255   1.067 -1.0472 -3.2055  4.0711
 3924SOL    HW315463   2.157   6.218   1.034 -0.5672 -0.7590 -2.2261
 3924SOL    MW415464   2.242   6.214   1.017 -0.2399  0.0258 -0.2245
 3925SOL     OW15465   6.075   0.108   4.370 -0.1554 -0.0362  0.3146
 3925SOL    HW215466   6.019   0.113   4.292  0.3064 -0.8503 -0.0882
 3925SOL    HW315467   6.131   0.184   4.364 -2.4181  1.8873  1.7208
 3925SOL    MW415468   6.075   0.119   4.359 -0.1320  0.1023 -0.1273
 3926SOL     OW15469   5.909   4.833   4.951 -0.0851 -0.4084  0.2133
 3926SOL    HW215470   5.987   4.886   4.972 -0.0588 -0.2774 -0.2001
 3926SOL    HW315471   5.932   4.745   4.981 -0.4861 -0.0224  1.7528
 3926SOL    MW415472   5.923   4.829   4.958 -0.7758  0.2379  0.4383
 3927SOL     OW15473   4.974   0.687   5.907  0.0498  0.2118  0.2351
 3927SOL    HW215474   4.878   0.690   5.908  0.0016 -0.9027  0.1796
 3927SOL    HW315475   4.997   0.712   5.817 -0.2064  0.1113  0.1392
 3927SOL    MW415476   4.964   0.691   5.895 -0.0286  0.0160 -0.0004
 3928SOL     OW15477   5.578   1.101   1.134 -0.2284 -0.3794  0.2874
 3928SOL    HW215478   5.549   1.050   1.059 -0.7702  1.0179 -0.4993
 3928SOL    HW315479   5.503   1.156   1.156 -0.5170 -1.5946  2.6484
 3928SOL    MW415480   5.565   1.102   1.127  0.2778  0.6837  0.3590
 3929SOL     OW15481   2.693   0.948   5.042 -0.8152 -0.1966 -0.4658
 3929SOL    HW215482   2.608   0.984   5.066  0.0701  0.9273  1.2234
 3929SOL    HW315483   2.690   0.937   4.947 -2.2213  1.4383 -0.6364
 3929SOL    MW415484   2.682   0.951   5.033 -0.6613 -0.8683  0.6768
 3930SOL     OW15485   4.420   5.467   4.850  0.6050  0.3548 -0.4297
 3930SOL    HW215486   4.477   5.390   4.857  0.9965  0.6654 -0.1446
 3930SOL    HW315487   4.429   5.510   4.935 -1.0654 -0.2870  0.1069
 3930SOL    MW415488   4.429   5.462   4.862 -0.2721  0.3478  0.8240
 3931SOL     OW15489   3.793   5.543   0.664  0.2088 -0.6047  0.0502
 3931SOL    HW215490   3.840   5.574   0.742 -1.0703  0.6144  0.3711
 3931SOL    HW315491   3.810   5.449   0.662  0.9190 -0.5282  1.3378
 3931SOL    MW415492   3.802   5.535   0.674 -0.4959 -0.7945  0.0242
 3932SOL     OW15493   5.312   1.263   2.165 -0.0889 -0.9201  0.0711
 3932SOL    HW215494   5.276   1.348   2.188 -1.0341 -2.0031  3.0183
 3932SOL    HW315495   5.271   1.241   2.081 -1.3756  0.6416  0.2563
 3932SOL    MW415496   5.302   1.271   2.157  0.2319 -0.1925  0.1392
 3933SOL     OW15497   2.745   0.845   4.768 -0.7182  0.6454 -0.2421
 3933SOL    HW215498   2.834   0.825   4.797 -0.7773  0.6682 -0.0472
 3933SOL    HW315499   2.750   0.936   4.737 -0.5472  0.4718 -0.7420
 3933SOL    MW415500   2.758   0.855   4.768 -0.7684  0.6957  0.1457
 3934SOL     OW15501   1.028   5.738   2.402  0.3286  0.0238 -0.5479
 3934SOL    HW215502   0.985   5.657   2.376  0.4040 -0.2530  0.1915
 3934SOL    HW315503   1.120   5.714   2.413 -0.0162 -0.3659  2.0127
 3934SOL    MW415504   1.035   5.725   2.400 -0.5450  0.3296  0.6839
 3935SOL     OW15505   0.245   0.853   4.111 -0.2279  0.1883  0.5033
 3935SOL    HW215506   0.287   0.854   4.197  0.9899  2.5724 -0.0372
 3935SOL    HW315507   0.314   0.826   4.051 -0.6286  0.0878  0.0863
 3935SOL    MW415508   0.259   0.849   4.115  0.8668  0.5509 -0.2900
 3936SOL     OW15509   4.685   5.556   0.187 -0.6281  0.2305  0.0382
 3936SOL    HW215510   4.738   5.476   0.188  1.1497  1.3755  0.3037
 3936SOL    HW315511   4.688   5.588   0.277 -0.9976  0.8309 -0.1588
 3936SOL    MW415512   4.692   5.550   0.199  0.2211 -0.3877  0.2245
 3937SOL     OW15513   0.328   6.165   6.164  0.0067 -0.2418 -0.2784
 3937SOL    HW215514   0.320   6.197   6.074  2.0058  0.2984 -0.3199
 3937SOL    HW315515   0.318   6.071   6.157  1.2118 -0.3279 -1.2758
 3937SOL    MW415516   0.326   6.157   6.151  0.3407 -0.2366 -0.1999
 3938SOL     OW15517   3.053   3.241   2.694 -0.1398 -0.0363 -0.3840
 3938SOL    HW215518   2.999   3.301   2.642  0.4576  1.5851  0.7798
 3938SOL    HW315519   3.080   3.293   2.770  0.2716 -1.8481  0.7823
 3938SOL    MW415520   3.049   3.256   2.698 -1.0461  0.3803  0.0226
 3939SOL     OW15521   1.299   4.379   6.163 -0.0146 -0.5702 -0.2931
 3939SOL    HW215522   1.374   4.321   6.177  0.0978 -0.6643 -1.2536
 3939SOL    HW315523   1.316   4.422   6.080 -1.2799 -0.9847 -0.7897
 3939SOL    MW415524   1.311   4.377   6.154  0.5429 -0.2922 -0.1542
 3940SOL     OW15525   2.818   6.081   2.709  0.3087 -0.3824 -0.0716
 3940SOL    HW215526   2.731   6.120   2.708  0.4849  0.0454 -2.2351
 3940SOL    HW315527   2.815   6.018   2.781 -1.7419 -0.3161 -0.0399
 3940SOL    MW415528   2.806   6.078   2.719  0.2555  0.0938  0.4224
 3941SOL     OW15529   1.839   1.589   2.780  0.5637 -0.0290  0.2890
 3941SOL    HW215530   1.824   1.521   2.715  1.5245  0.6734 -0.6930
 3941SOL    HW315531   1.785   1.662   2.753 -0.0575 -0.1936  1.0442
 3941SOL    MW415532   1.830   1.589   2.768  0.2089  0.2556 -0.4445
 3942SOL     OW15533   2.261   4.278   0.108 -0.1796 -0.3212 -0.0400
 3942SOL    HW215534   2.332   4.215   0.127  0.0344 -0.1436 -0.2410
 3942SOL    HW315535   2.304   4.364   0.112 -0.7886 -0.0627  1.7811
 3942SOL    MW415536   2.276   4.281   0.111 -0.0950  0.2168  0.5710
 3943SOL     OW15537   4.793   5.177   2.073 -0.2901 -0.4231 -0.4674
 3943SOL    HW215538   4.865   5.122   2.043  0.6215  0.1651  0.5805
 3943SOL    HW315539   4.828   5.266   2.074  0.0125 -0.4501  2.8992
 3943SOL    MW415540   4.807   5.181   2.069 -0.2054 -0.5828  0.2876
 3944SOL     OW15541   2.870   4.836   6.036 -0.1078 -0.3314 -0.7742
 3944SOL    HW215542   2.803   4.842   5.968 -0.0370  0.3553 -0.7915
 3944SOL    HW315543   2.947   4.878   5.998  0.1129 -0.4776 -0.4930
 3944SOL    MW415544   2.871   4.842   6.022  0.1165  1.6556  0.0235
 3945SOL     OW15545   0.623   6.131   2.985  0.2066  0.3921  0.0418
 3945SOL    HW215546   0.567   6.140   3.063  1.7973  0.8440  1.1801
 3945SOL    HW315547   0.602   6.045   2.951  0.5812 -0.4966  1.9086
 3945SOL    MW415548   0.613   6.121   2.991 -0.1251  0.4054 -0.1068
 3946SOL     OW15549   0.311   0.778   0.294 -0.0329  0.6986  1.0485
 3946SOL    HW215550   0.316   0.694   0.248  0.4351 -0.0200  2.3670
 3946SOL    HW315551   0.220   0.784   0.323 -0.2271  0.9605  0.3993
 3946SOL    MW415552   0.300   0.767   0.292  0.5346 -0.4732  0.2328
 3947SOL     OW15553   5.893   0.118   4.594 -0.3673  0.4760  0.1795
 3947SOL    HW215554   5.912   0.111   4.501 -1.6228  0.5752 -0.1124
 3947SOL    HW315555   5.886   0.027   4.624 -0.2564  0.4433  0.1050
 3947SOL    MW415556   5.894   0.105   4.586 -0.9347 -0.0996 -0.8013
 3948SOL     OW15557   1.846   6.136   1.452  0.1173  0.4160  0.2611
 3948SOL    HW215558   1.813   6.204   1.392  0.4818 -0.8982 -1.5082
 3948SOL    HW315559   1.935   6.120   1.422 -0.0650 -1.0413  0.4628
 3948SOL    MW415560   1.853   6.143   1.440  0.2953 -0.5618 -0.6591
 3949SOL     OW15561   1.407   3.219   4.262 -0.2284  0.1653 -0.2076
 3949SOL    HW215562   1.502   3.225   4.274 -0.1646  0.6708 -0.9268
 3949SOL    HW315563   1.392   3.131   4.228  0.2298  0.8197 -2.2154
 3949SOL    MW415564   1.417   3.208   4.259  0.0194  0.1361  0.5971
 3950SOL     OW15565   1.763   5.502   4.031  0.1625 -0.0447 -0.1584
 3950SOL    HW215566   1.829   5.505   4.101  1.5790  1.5238 -1.4824
 3950SOL    HW315567   1.700   5.570   4.054 -1.0110 -1.4773  1.0563
 3950SOL    MW415568   1.764   5.511   4.043 -0.0789  0.3541 -0.7926
 3951SOL     OW15569   0.890   4.876   1.785 -0.0758 -0.0576  0.7657
 3951SOL    HW215570   0.810   4.912   1.746  1.3044  1.2712 -1.0092
 3951SOL    HW315571   0.880   4.782   1.777 -1.1138  0.1056 -0.2019
 3951SOL    MW415572   0.878   4.869   1.779 -0.0731  0.1516 -0.3278
 3952SOL     OW15573   6.269   3.932   1.734  0.4650  0.0346  0.0588
 3952SOL    HW215574   6.314   3.942   1.818  0.2321  1.1717  0.0585
 3952SOL    HW315575   6.336   3.896   1.675  1.4712  1.9029  0.0056
 3952SOL    MW415576   6.284   3.928   1.737 -0.0125 -0.5798 -0.1401
 3953SOL     OW15577   2.628   3.661   4.385 -0.4193  0.1587  0.0265
 3953SOL    HW215578   2.542   3.704   4.380 -0.8876 -0.8364 -1.2141
 3953SOL    HW315579   2.627   3.599   4.313  1.6139  0.5571 -0.3973
 3953SOL    MW415580   2.616   3.659   4.375 -0.1609 -0.2518  0.2453
 3954SOL     OW15581   5.296   0.508   4.461  0.5009 -0.0544  0.3154
 3954SOL    HW215582   5.272   0.430   4.511  0.9513 -0.1044  0.4567
 3954SOL    HW315583   5.237   0.576   4.493  0.0037 -0.3681  0.0879
 3954SOL    MW415584   5.285   0.507   4.472 -0.1725 -0.0155  0.0402
 3955SOL     OW15585   6.078   5.040   1.427  0.1756 -0.1849  0.2373
 3955SOL    HW215586   6.141   4.968   1.436 -0.6983 -1.0331 -0.3098
 3955SOL    HW315587   5.993   5.000   1.445 -0.4153  0.5237 -0.9090
 3955SOL    MW415588   6.075   5.025   1.431  0.4416 -0.3222  0.0807
 3956SOL     OW15589   3.888   1.751   4.242  0.4133 -0.1881  0.4496
 3956SOL    HW215590   3.971   1.787   4.211  1.1518 -1.4216  0.8909
 3956SOL    HW315591   3.889   1.660   4.211 -0.7080 -0.2485  0.5807
 3956SOL    MW415592   3.899   1.744   4.234  0.2695  0.2804  0.0801
 3957SOL     OW15593   3.845   0.424   0.964  0.1644  0.2225 -0.0729
 3957SOL    HW215594   3.933   0.452   0.939  1.2544 -1.8396  1.2024
 3957SOL    HW315595   3.854   0.394   1.055 -2.1176  0.9994  0.4597
 3957SOL    MW415596   3.858   0.424   0.973 -0.0369  0.2051  0.4065
 3958SOL     OW15597   3.839   4.403   0.841  0.2694  0.3522  0.0380
 3958SOL    HW215598   3.819   4.428   0.931  0.2825  0.6825 -0.0517
 3958SOL    HW315599   3.859   4.485   0.797  2.3639  0.0068  0.2528
 3958SOL    MW415600   3.839   4.417   0.847 -0.0999 -0.8759 -0.0280
 3959SOL     OW15601   4.760   1.224   3.615 -0.6090  0.1308  0.1906
 3959SOL    HW215602   4.807   1.270   3.684 -2.5397  0.3291  1.4513
 3959SOL    HW315603   4.773   1.278   3.537  0.8745  0.3804  0.5853
 3959SOL    MW415604   4.768   1.237   3.614 -0.3085 -0.5824  0.7700
 3960SOL     OW15605   4.159   1.904   4.537  0.4776 -0.3191  0.1408
 3960SOL    HW215606   4.173   1.926   4.445 -0.6858  0.0485  0.0331
 3960SOL    HW315607   4.209   1.969   4.586  0.4000  0.0163 -0.2280
 3960SOL    MW415608   4.167   1.915   4.532 -0.0057 -0.0298  0.6096
 3961SOL     OW15609   3.096   4.669   0.365 -0.3201 -0.0236 -0.3364
 3961SOL    HW215610   3.041   4.741   0.337 -0.3252 -0.0261 -0.3333
 3961SOL    HW315611   3.163   4.709   0.421 -0.9232 -0.1586  0.5066
 3961SOL    MW415612   3.098   4.683   0.369 -0.8612 -0.4295  0.2464
 3962SOL     OW15613   6.306   1.098   2.086  0.7878 -0.8425  0.5463
 3962SOL    HW215614   6.375   1.096   2.020  1.4337 -0.9837  1.2123
 3962SOL    HW315615   6.347   1.141   2.162  0.1279 -0.8821  0.9310
 3962SOL    MW415616   6.321   1.104   2.087 -0.0514  0.5863  0.0751
 3963SOL     OW15617   0.746   0.179   3.630 -0.3843  0.3184 -0.0596
 3963SOL    HW215618   0.698   0.137   3.701 -0.6718  1.0827  0.2112
 3963SOL    HW315619   0.695   0.158   3.551 -2.4532  2.8569  0.4576
 3963SOL    MW415620   0.733   0.170   3.629  0.5636  0.3148  0.0769
 3964SOL     OW15621   5.939   2.350   5.582  0.2278  0.0064  0.0858
 3964SOL    HW215622   6.009   2.359   5.518 -2.0820  1.2527 -2.4829
 3964SOL    HW315623   5.942   2.431   5.633  0.1748  0.4320 -0.5737
 3964SOL    MW415624   5.949   2.362   5.581 -0.2653 -0.0911  0.2905
 3965SOL     OW15625   2.319   0.246   6.363 -0.7165  0.1838 -0.3134
 3965SOL    HW215626   2.278   0.193   6.431 -2.0266  0.6578 -0.7135
 3965SOL    HW315627   2.353   0.183   6.300 -0.4180 -0.2282  0.2570
 3965SOL    MW415628   2.318   0.231   6.364  0.1631 -0.0634 -0.6554
 3966SOL     OW15629   3.958   1.927   3.627  0.0407  0.4871 -0.1482
 3966SOL    HW215630   3.935   1.950   3.536  2.0710  0.5866 -0.6929
 3966SOL    HW315631   4.029   1.864   3.618  0.9825  1.2779  1.3664
 3966SOL    MW415632   3.964   1.922   3.614 -0.2421  0.0681 -0.1577
 3967SOL     OW15633   4.010   1.478   3.468  0.0387 -0.1808 -0.0753
 3967SOL    HW215634   4.017   1.396   3.517 -1.5254 -0.7526 -0.7434
 3967SOL    HW315635   3.918   1.503   3.476  0.1937  0.7819 -1.0601
 3967SOL    MW415636   3.999   1.471   3.476 -0.3136 -0.0169  0.4083
 3968SOL     OW15637   5.841   1.858   2.865  0.0202  0.2046  0.3073
 3968SOL    HW215638   5.812   1.884   2.952  0.8740 -0.6826  0.8754
 3968SOL    HW315639   5.932   1.889   2.859  0.5691 -1.2864  0.4425
 3968SOL    MW415640   5.849   1.866   2.876  0.0819 -0.0146  0.4943
 3969SOL     OW15641   6.378   3.157   6.067 -0.1635 -0.0200 -0.1230
 3969SOL    HW215642   6.333   3.073   6.076 -0.3018 -0.0613 -1.0808
 3969SOL    HW315643   6.412   3.175   6.154 -2.6693  0.3544  0.8797
 3969SOL    MW415644   6.376   3.148   6.080  0.2932  0.1490  0.2785
 3970SOL     OW15645   3.356   6.198   5.633 -0.6327  0.2044  0.4291
 3970SOL    HW215646   3.338   6.228   5.544 -2.9404  2.1935  1.4609
 3970SOL    HW315647   3.322   6.268   5.689 -0.3065 -1.5217  2.9205
 3970SOL    MW415648   3.349   6.212   5.628  0.2800 -0.1828 -0.3836
 3971SOL     OW15649   0.021   5.055   2.565 -0.0617  0.1349 -0.2075
 3971SOL    HW215650   0.055   5.125   2.620  2.1124 -1.3267  0.4572
 3971SOL    HW315651  -0.053   5.019   2.613 -0.6668  1.3893 -0.1656
 3971SOL    MW415652   0.016   5.059   2.578  0.4521 -0.0489 -0.0147
 3972SOL     OW15653   1.247   1.837   5.869  0.5255  0.1535 -0.0440
 3972SOL    HW215654   1.268   1.879   5.952 -0.8103  1.1709 -0.1894
 3972SOL    HW315655   1.258   1.743   5.886  1.0825  0.4035  1.0251
 3972SOL    MW415656   1.251   1.830   5.882 -0.0993 -0.0698  0.0186
 3973SOL     OW15657   5.161   4.057   0.488  0.2425  0.2626  1.3320
 3973SOL    HW215658   5.122   3.970   0.480  2.2821 -0.5543 -0.7836
 3973SOL    HW315659   5.107   4.113   0.431  1.9827 -0.8724 -1.6462
 3973SOL    MW415660   5.148   4.053   0.479  0.1815  0.5150  0.3091
 3974SOL     OW15661   4.291   5.009   5.529 -0.2062  0.8834 -0.4348
 3974SOL    HW215662   4.292   5.087   5.585 -1.4254 -1.5317  3.3689
 3974SOL    HW315663   4.210   4.964   5.554  0.8516 -2.0136 -1.8562
 3974SOL    MW415664   4.280   5.014   5.540  0.2283  0.5853 -0.1329
 3975SOL     OW15665   1.729   4.754   0.338  0.3823  0.2437 -0.0389
 3975SOL    HW215666   1.724   4.816   0.411  1.2045  1.0812 -0.6731
 3975SOL    HW315667   1.648   4.703   0.345  0.4282  0.3133  1.4299
 3975SOL    MW415668   1.718   4.755   0.349  0.0056  0.2295  0.1695
 3976SOL     OW15669   0.745   0.770   0.212 -0.2579  0.2742 -0.0172
 3976SOL    HW215670   0.729   0.714   0.136 -0.8336  0.5064 -0.0763
 3976SOL    HW315671   0.827   0.815   0.192 -0.9242  1.1218 -0.9926
 3976SOL    MW415672   0.754   0.769   0.199 -0.4059 -0.2746  0.5647
 3977SOL     OW15673   2.678   4.833   5.847  0.6203 -0.4338  0.2160
 3977SOL    HW215674   2.649   4.901   5.785  1.0372  0.3840  0.9040
 3977SOL    HW315675   2.644   4.751   5.810 -1.2057  0.3002  0.1616
 3977SOL    MW415676   2.669   4.831   5.834  0.1233  0.0440 -0.0937
 3978SOL     OW15677   0.830   1.524   4.764  0.0080  0.2708  0.0349
 3978SOL    HW215678   0.862   1.488   4.682  0.2555  1.4465 -0.3988
 3978SOL    HW315679   0.837   1.452   4.827  0.0538 -0.5552 -0.9097
 3978SOL    MW415680   0.835   1.510   4.762  0.2212 -0.3267  0.1825
 3979SOL     OW15681   0.166   6.354   0.597  0.0064 -0.1214  0.4063
 3979SOL    HW215682   0.097   6.419   0.605  0.5530  0.8071 -1.7805
 3979SOL    HW315683   0.120   6.270   0.591 -0.7223  0.0628  2.6620
 3979SOL    MW415684   0.151   6.351   0.597 -1.1796  0.3644  0.0162
 3980SOL     OW15685   5.652   0.656   4.097  0.0699  0.6917 -0.4811
 3980SOL    HW215686   5.610   0.611   4.024  1.0392  0.3340 -0.8284
 3980SOL    HW315687   5.590   0.646   4.169 -0.2328 -0.2394 -0.8469
 3980SOL    MW415688   5.638   0.649   4.097 -0.3755  0.0309 -0.4126
 3981SOL     OW15689   4.140   5.261   5.277 -0.0590  0.5172  0.1469
 3981SOL    HW215690   4.112   5.320   5.207  0.2770  2.0105  1.2162
 3981SOL    HW315691   4.067   5.261   5.339 -1.6545 -3.0964 -1.4286
 3981SOL    MW415692   4.127   5.269   5.276  0.4038  0.2372 -0.3197
 3982SOL     OW15693   0.528   5.163   5.631  0.4603  0.0600  0.4706
 3982SOL    HW215694   0.581   5.241   5.646  0.0202  0.6628 -0.9571
 3982SOL    HW315695   0.455   5.171   5.691  0.5618  0.6173  0.5264
 3982SOL    MW415696   0.525   5.174   5.641 -0.3385  0.2784  0.2377
 3983SOL     OW15697   2.768   4.250   2.978 -0.4701  0.6684  0.0948
 3983SOL    HW215698   2.792   4.167   3.020  0.7916  1.4838  1.0374
 3983SOL    HW315699   2.825   4.257   2.902  0.2135  1.1891  0.6471
 3983SOL    MW415700   2.778   4.240   2.974 -0.1821 -0.4683 -0.2748
 3984SOL     OW15701   0.356   3.892   4.999  0.2669 -0.1220 -0.2919
 3984SOL    HW215702   0.330   3.894   4.907 -0.3881 -1.2607 -0.1502
 3984SOL    HW315703   0.292   3.835   5.041 -0.2786  1.4962  1.1594
 3984SOL    MW415704   0.344   3.885   4.992 -0.3857 -0.3512 -0.4360
 3985SOL     OW15705   3.422   3.936   0.020  0.8617 -0.1579  0.6967
 3985SOL    HW215706   3.451   3.981   0.100 -0.0660  0.5151  0.6711
 3985SOL    HW315707   3.338   3.977  -0.002  1.0797 -0.3591 -0.6079
 3985SOL    MW415708   3.415   3.947   0.028  0.8156  0.2859 -0.0578
 3986SOL     OW15709   3.176   3.834   4.991  0.4059 -0.1374 -0.4360
 3986SOL    HW215710   3.243   3.854   4.925 -0.3529  1.7731 -0.6870
 3986SOL    HW315711   3.165   3.916   5.040 -0.3561 -0.9929  0.8791
 3986SOL    MW415712   3.183   3.847   4.988 -0.2682  0.6775 -0.0287
 3987SOL     OW15713   2.969   1.830   0.515  0.6683 -0.0679  0.1158
 3987SOL    HW215714   3.002   1.774   0.585  1.5990  0.2929 -0.0130
 3987SOL    HW315715   3.039   1.829   0.449  0.7808  1.3584  0.1827
 3987SOL    MW415716   2.983   1.823   0.515 -0.2205  0.2823 -0.1540
 3988SOL     OW15717   1.006   0.241   2.166 -0.0142 -0.7013  0.4025
 3988SOL    HW215718   0.918   0.243   2.127  0.0835 -1.2648  0.1403
 3988SOL    HW315719   1.039   0.154   2.144  0.3396 -0.7488  1.1062
 3988SOL    MW415720   0.998   0.230   2.158 -0.5364  0.4202  0.2420
 3989SOL     OW15721   0.549   0.225   4.669  0.1449  0.4966  0.1268
 3989SOL    HW215722   0.575   0.270   4.750  0.7799  1.9891 -0.8579
 3989SOL    HW315723   0.625   0.234   4.611 -0.4565 -0.1794 -0.7950
 3989SOL    MW415724   0.562   0.232   4.672 -0.1453  0.3318  0.2434
 3990SOL     OW15725   2.121   2.456   3.819  0.1694  0.3287  0.8944
 3990SOL    HW215726   2.203   2.504   3.822  0.2680  0.2453 -0.3003
 3990SOL    HW315727   2.116   2.420   3.731 -1.2506  0.5129  0.8708
 3990SOL    MW415728   2.131   2.458   3.808 -0.2938 -0.1294 -0.1638
 3991SOL     OW15729   3.806   4.532   5.122  0.5757  0.0041  0.0472
 3991SOL    HW215730   3.828   4.515   5.031 -0.6412 -0.0177 -0.2648
 3991SOL    HW315731   3.715   4.504   5.130  0.4387  0.6743  1.0830
 3991SOL    MW415732   3.797   4.526   5.111  0.0394 -0.2583  0.0669
 3992SOL     OW15733   1.682   1.988   6.145 -0.1967 -0.6895 -0.2640
 3992SOL    HW215734   1.597   2.030   6.130 -0.4386 -0.6705  1.0351
 3992SOL    HW315735   1.744   2.060   6.154 -0.1766 -0.6790 -0.5000
 3992SOL    MW415736   1.679   2.003   6.145  0.3343  0.3548  0.2156
 3993SOL     OW15737   0.201   5.445   6.048  0.3990  0.3465  0.2062
 3993SOL    HW215738   0.273   5.458   5.985 -0.1856 -2.4541 -1.2183
 3993SOL    HW315739   0.127   5.493   6.010  0.2972 -0.5985 -0.8423
 3993SOL    MW415740   0.201   5.453   6.034  0.1276  0.8877  0.4541
 3994SOL     OW15741   1.396   1.692   1.113  0.4049  0.0196  0.0624
 3994SOL    HW215742   1.364   1.756   1.049 -0.1102  1.1534  1.3879
 3994SOL    HW315743   1.484   1.669   1.082  0.7821  1.7061 -0.2572
 3994SOL    MW415744   1.404   1.697   1.101 -0.2952 -0.3013 -0.5162
 3995SOL     OW15745   3.235   4.434   5.230  0.3534 -0.1962 -0.5089
 3995SOL    HW215746   3.162   4.442   5.168 -0.3517 -1.0999  0.1661
 3995SOL    HW315747   3.305   4.394   5.179  0.2391  0.2922 -1.0579
 3995SOL    MW415748   3.234   4.430   5.215  0.6095 -0.2157  0.2156
 3996SOL     OW15749   4.034   3.027   2.527 -0.3385  0.0824  0.3062
 3996SOL    HW215750   4.118   3.048   2.488  0.0153  2.8249  2.2159
 3996SOL    HW315751   3.971   3.079   2.477 -1.0321 -2.1256 -1.2591
 3996SOL    MW415752   4.036   3.037   2.515  0.6149 -0.3476  0.4258
 3997SOL     OW15753   4.192   5.111   3.348 -0.1030  0.1450 -0.0148
 3997SOL    HW215754   4.238   5.184   3.306  0.4128 -1.2203 -1.9489
 3997SOL    HW315755   4.190   5.042   3.282 -1.0806 -1.4191  1.5486
 3997SOL    MW415756   4.198   5.112   3.334 -0.2666  0.2034 -1.0085
 3998SOL     OW15757   6.079   2.562   2.932 -0.4939  0.4668 -0.4886
 3998SOL    HW215758   6.067   2.511   3.011 -1.0515  2.3394  0.7033
 3998SOL    HW315759   6.103   2.498   2.865  0.0281 -1.1631  1.1815
 3998SOL    MW415760   6.081   2.547   2.933 -0.3163 -0.7247 -0.1370
 3999SOL     OW15761   1.085   6.054   0.727 -0.1752  0.0478  0.7401
 3999SOL    HW215762   1.181   6.053   0.728 -0.1458 -2.3246  0.6983
 3999SOL    HW315763   1.061   6.112   0.798  1.2804  1.1381  0.3977
 3999SOL    MW415764   1.095   6.061   0.736  0.1904  0.4647  0.7878
 4000SOL     OW15765   0.888   1.407   4.519  0.2225 -0.0890  0.2097
 4000SOL    HW215766   0.836   1.457   4.456  0.3148  0.5256  0.6147
 4000SOL    HW315767   0.979   1.427   4.497  0.2494  0.7545  1.0189
 4000SOL    MW415768   0.893   1.416   4.508  0.0839 -0.1406  0.2498
 4001SOL     OW15769   1.099  -0.005   0.515  0.7070 -0.1787 -0.7425
 4001SOL    HW215770   1.036  -0.068   0.548  0.9172 -1.0045 -1.8432
 4001SOL    HW315771   1.070   0.014   0.426  0.9341  0.9080 -0.6056
 4001SOL    MW415772   1.087  -0.011   0.508 -0.3783  0.2409  0.6039
 4002SOL     OW15773   6.131   1.982   1.051 -0.0481 -0.7412  0.1573
 4002SOL    HW215774   6.056   2.036   1.023 -0.4611 -0.5363  1.5799
 4002SOL    HW315775   6.200   2.002   0.988 -0.8629 -0.1419 -0.5674
 4002SOL    MW415776   6.130   1.992   1.039 -0.1962 -0.1665  0.0254
 4003SOL     OW15777   1.144   1.398   2.751 -0.0911  0.4919 -0.1828
 4003SOL    HW215778   1.232   1.395   2.713  1.1082  4.2904  1.7524
 4003SOL    HW315779   1.085   1.396   2.676  1.3954 -3.4638 -1.4988
 4003SOL    MW415780   1.148   1.397   2.736 -0.0760 -0.0331 -0.0751
 4004SOL     OW15781   2.426   2.557   5.562  0.2852 -0.3722 -0.2566
 4004SOL    HW215782   2.394   2.608   5.488 -1.1386  0.5829  0.9579
 4004SOL    HW315783   2.470   2.482   5.522 -1.7204 -0.6677 -2.0714
 4004SOL    MW415784   2.428   2.554   5.547 -0.3141 -0.5406 -0.1094
 4005SOL     OW15785   4.270   1.851   5.941 -0.1282  0.5918 -0.1200
 4005SOL    HW215786   4.308   1.806   6.016  0.2690  0.5612 -0.3353
 4005SOL    HW315787   4.320   1.818   5.866  0.2007  1.4159 -0.2754
 4005SOL    MW415788   4.282   1.841   5.941  0.6708 -0.2663  0.2315
 4006SOL     OW15789   4.612   1.132   2.401  0.1808  0.1088  0.0426
 4006SOL    HW215790   4.667   1.062   2.436 -0.7578 -0.2257  0.8851
 4006SOL    HW315791   4.586   1.100   2.314  1.3459  0.3030 -0.3967
 4006SOL    MW415792   4.616   1.118   2.394 -0.1421 -0.2297  0.7751
 4007SOL     OW15793   5.783   2.510   1.111  0.3103  0.2086 -0.3479
 4007SOL    HW215794   5.771   2.605   1.110 -1.2485  0.0359 -1.1491
 4007SOL    HW315795   5.699   2.475   1.080  1.3074 -1.3847 -1.3624
 4007SOL    MW415796   5.770   2.518   1.107  0.1966 -0.1501 -0.0593
 4008SOL     OW15797   3.650   4.985   5.465 -0.2196 -0.1681 -0.1344
 4008SOL    HW215798   3.597   5.035   5.527 -1.8293 -1.4545 -0.4059
 4008SOL    HW315799   3.586   4.940   5.410  1.1561 -2.0939 -0.2479
 4008SOL    MW415800   3.635   4.986   5.466 -0.8984 -0.5210  0.1446
 4009SOL     OW15801   4.996   2.214   5.839  0.5285  0.4511 -0.2770
 4009SOL    HW215802   5.092   2.208   5.837  0.4348 -1.3689 -1.4416
 4009SOL    HW315803   4.967   2.156   5.769 -1.4240  1.9575 -0.7977
 4009SOL    MW415804   5.005   2.205   5.830  0.1944 -0.4089  0.4086
 4010SOL     OW15805   5.902   4.356   4.284 -0.0347  0.0759 -0.6203
 4010SOL    HW215806   5.867   4.417   4.219  0.4336  1.0647  0.0141
 4010SOL    HW315807   5.833   4.292   4.297 -1.1596  1.3059 -0.2619
 4010SOL    MW415808   5.888   4.356   4.277  0.1790  0.1132 -0.4486
 4011SOL     OW15809   3.479   6.334   3.526  0.2323  0.2655 -0.4831
 4011SOL    HW215810   3.472   6.290   3.611  0.5016  0.2307 -0.4798
 4011SOL    HW315811   3.522   6.271   3.469  2.0775  1.0774 -0.0693
 4011SOL    MW415812   3.484   6.320   3.530  1.0446  0.0996  0.1619
 4012SOL     OW15813   1.764   4.634   5.276  0.7749 -0.2039 -0.3931
 4012SOL    HW215814   1.705   4.584   5.332 -0.7146  1.8756 -0.0091
 4012SOL    HW315815   1.840   4.652   5.331  0.1802  0.1556  0.3339
 4012SOL    MW415816   1.766   4.630   5.290 -0.2468  0.6727 -0.1065
 4013SOL     OW15817   5.334   3.344   2.941  0.4056  0.2150 -0.1467
 4013SOL    HW215818   5.406   3.313   2.996 -0.5306 -1.4582  0.1722
 4013SOL    HW315819   5.367   3.335   2.851  0.6724 -0.3575  0.0046
 4013SOL    MW415820   5.348   3.339   2.936 -0.2200 -0.2003  0.4298
 4014SOL     OW15821   4.183   5.540   4.359  0.1127 -0.5798 -0.1152
 4014SOL    HW215822   4.218   5.568   4.444  0.1972 -0.8687 -0.0530
 4014SOL    HW315823   4.212   5.608   4.298  0.9604 -0.9134 -0.0980
 4014SOL    MW415824   4.192   5.552   4.362 -0.3659 -0.4138 -0.3978
 4015SOL     OW15825   3.768   1.507   3.799  0.0827 -0.1554 -0.1777
 4015SOL    HW215826   3.787   1.599   3.815 -1.4077  0.3497 -1.0647
 4015SOL    HW315827   3.752   1.470   3.885  0.3637  0.5000  0.1607
 4015SOL    MW415828   3.768   1.514   3.812  0.1823 -0.3217 -0.4462
 4016SOL     OW15829   5.975   3.265   1.519  0.0182 -0.1357  0.2541
 4016SOL    HW215830   5.994   3.277   1.426  0.0988 -0.8164  0.1744
 4016SOL    HW315831   5.949   3.173   1.526  0.4860 -0.2209  0.9822
 4016SOL    MW415832   5.974   3.254   1.508  0.6524 -0.4386  1.1196
 4017SOL     OW15833   4.745   0.272   4.962 -0.0944 -0.3616  0.6415
 4017SOL    HW215834   4.786   0.220   5.031 -0.0134 -1.3877 -0.1480
 4017SOL    HW315835   4.740   0.361   4.998 -0.7221 -1.0130  2.2319
 4017SOL    MW415836   4.750   0.277   4.975  0.1238 -0.0886 -0.1128
 4018SOL     OW15837   4.533   1.740   0.569 -0.7909 -0.4441 -0.1140
 4018SOL    HW215838   4.571   1.740   0.657  0.2707 -2.1861 -0.5019
 4018SOL    HW315839   4.554   1.826   0.534  1.4788 -0.7441  0.3036
 4018SOL    MW415840   4.541   1.751   0.576  0.4579 -0.5209 -0.2314
 4019SOL     OW15841   0.974   0.391   0.293 -0.0583 -0.2431  0.0096
 4019SOL    HW215842   1.034   0.378   0.219 -0.5131  2.3759 -0.9313
 4019SOL    HW315843   1.014   0.462   0.343 -0.3494 -1.2203  1.6881
 4019SOL    MW415844   0.988   0.399   0.290 -0.8005 -0.5420 -0.3019
 4020SOL     OW15845   4.177   0.393   4.277  0.0856  0.0891  0.3318
 4020SOL    HW215846   4.194   0.299   4.285 -0.4477 -0.0094  0.3125
 4020SOL    HW315847   4.210   0.430   4.358 -0.4691 -0.2255  0.7123
 4020SOL    MW415848   4.184   0.385   4.288 -0.5018  0.2016 -0.0248
 4021SOL     OW15849   2.426   0.611   2.620  0.2821  0.3484 -0.1482
 4021SOL    HW215850   2.483   0.548   2.576  0.3546 -0.5658  1.2114
 4021SOL    HW315851   2.483   0.685   2.641  1.0198 -0.5498  1.1892
 4021SOL    MW415852   2.441   0.612   2.617 -0.8122 -0.2380  0.0621
 4022SOL     OW15853   2.043   2.782   2.400 -0.5951 -0.5203  0.1233
 4022SOL    HW215854   2.083   2.698   2.423  0.9167  0.3640  0.9122
 4022SOL    HW315855   1.960   2.783   2.447 -0.9845 -1.8792 -0.5006
 4022SOL    MW415856   2.038   2.771   2.409  0.8778  0.2791  0.2108
 4023SOL     OW15857   4.228   1.616   3.095 -0.8131 -0.2298  0.1226
 4023SOL    HW215858   4.153   1.638   3.150  0.6542  0.9440  1.7616
 4023SOL    HW315859   4.235   1.690   3.034 -0.9560 -0.3165  0.0005
 4023SOL    MW415860   4.219   1.629   3.094  0.7392  0.2507  0.6205
 4024SOL     OW15861   3.044   0.278   6.184  0.1295  0.5513 -0.4964
 4024SOL    HW215862   3.062   0.184   6.189 -2.6019  0.0100  1.8016
 4024SOL    HW315863   2.956   0.284   6.149  0.8543  2.4270 -2.1930
 4024SOL    MW415864   3.035   0.266   6.180 -0.5436 -0.8709 -0.1532
 4025SOL     OW15865   2.895   4.813   1.968  0.4160  0.3711 -0.2383
 4025SOL    HW215866   2.971   4.828   1.911 -0.4728 -0.0299 -1.5536
 4025SOL    HW315867   2.906   4.877   2.039  1.3782  1.1047 -1.0181
 4025SOL    MW415868   2.907   4.824   1.970  0.7600  0.5313 -0.4750
 4026SOL     OW15869   5.825   1.246   1.089  0.2102  0.0301 -0.4006
 4026SOL    HW215870   5.883   1.198   1.148 -1.3419 -2.8537 -0.9911
 4026SOL    HW315871   5.740   1.202   1.098 -0.6313  0.8746 -3.1230
 4026SOL    MW415872   5.821   1.234   1.098 -0.1330 -0.6767  0.1182
 4027SOL     OW15873   3.979   1.734   1.125  0.9512  0.1799 -0.3671
 4027SOL    HW215874   3.989   1.647   1.087  0.2841  0.3774 -1.0181
 4027SOL    HW315875   3.901   1.770   1.083  0.7743  0.7971  0.4637
 4027SOL    MW415876   3.970   1.727   1.114 -0.3013 -0.3145  0.1479
 4028SOL     OW15877   1.439   2.170   6.186  0.4527  0.2655 -0.2973
 4028SOL    HW215878   1.428   2.205   6.098 -1.0233  2.5185  0.6921
 4028SOL    HW315879   1.498   2.233   6.229  3.8076 -2.4526 -0.4621
 4028SOL    MW415880   1.446   2.183   6.180 -0.0574  0.1665  0.0453
 4029SOL     OW15881   3.338   6.017   0.737 -0.0435  0.7179 -0.2605
 4029SOL    HW215882   3.392   6.048   0.664  0.2604 -0.1073 -0.3986
 4029SOL    HW315883   3.281   5.950   0.699  0.3644  0.0245  0.3091
 4029SOL    MW415884   3.338   6.012   0.723  0.0621 -0.5031 -0.5294
 4030SOL     OW15885   2.951   1.014   0.834 -0.1498 -0.6549 -0.1468
 4030SOL    HW215886   3.046   1.023   0.830 -0.0498 -0.6955  1.5812
 4030SOL    HW315887   2.936   0.929   0.875 -0.8808  0.1982  1.4537
 4030SOL    MW415888   2.961   1.004   0.839 -0.3615 -0.0069  0.1519
 4031SOL     OW15889   2.781   5.965   4.704 -0.8432  0.6835  0.0945
 4031SOL    HW215890   2.760   5.926   4.789  0.5436 -1.2571 -0.3542
 4031SOL    HW315891   2.718   5.926   4.643  0.0912 -0.4037 -0.2322
 4031SOL    MW415892   2.770   5.954   4.707 -0.1547 -0.0813 -0.3763
 4032SOL     OW15893   3.434   4.068   0.292 -0.6194 -0.0190 -0.0066
 4032SOL    HW215894   3.414   4.026   0.376  0.2744  1.4562  0.9796
 4032SOL    HW315895   3.366   4.134   0.280 -2.5540 -2.1514 -1.9939
 4032SOL    MW415896   3.423   4.071   0.301 -0.3214 -0.0326 -0.0110
 4033SOL     OW15897   0.087   3.966   5.207 -0.4281  0.2001 -0.3379
 4033SOL    HW215898  -0.006   3.976   5.187  0.0048  0.4313 -2.5542
 4033SOL    HW315899   0.129   4.044   5.169  0.7000 -0.0443  0.3486
 4033SOL    MW415900   0.080   3.978   5.199  0.4161  0.2258 -0.3461
 4034SOL     OW15901   1.081   0.327   5.821 -0.1235  0.7308 -0.1695
 4034SOL    HW215902   1.054   0.237   5.804  1.6377  0.0942  0.2003
 4034SOL    HW315903   1.001   0.379   5.812 -1.4116 -1.0059  0.7737
 4034SOL    MW415904   1.067   0.322   5.818  0.0216 -0.5131 -0.0671
 4035SOL     OW15905   0.189   5.101   4.971 -0.2488  0.0411  0.0991
 4035SOL    HW215906   0.236   5.020   4.952 -0.3732  0.0289 -0.1568
 4035SOL    HW315907   0.176   5.099   5.066 -1.1934 -0.7688 -0.0208
 4035SOL    MW415908   0.193   5.090   4.981  0.6046  0.0297  0.5022
 4036SOL     OW15909   0.264   2.487   2.621 -0.2746  0.5442  0.0071
 4036SOL    HW215910   0.191   2.438   2.584  0.2813  0.4295 -0.9696
 4036SOL    HW315911   0.320   2.420   2.660 -1.4187  0.7446  2.1757
 4036SOL    MW415912   0.262   2.472   2.622 -0.1648 -0.1403  0.3418
 4037SOL     OW15913   3.923   4.636   0.664  0.9352  0.3512  0.5180
 4037SOL    HW215914   3.837   4.674   0.644  1.3800  1.5796  0.8697
 4037SOL    HW315915   3.970   4.637   0.581  0.6244 -0.3172  0.3263
 4037SOL    MW415916   3.918   4.641   0.650 -0.1568  0.5607  0.0183
 4038SOL     OW15917   0.192   2.897   3.195  0.2694 -0.0663  0.7333
 4038SOL    HW215918   0.220   2.910   3.286  1.3170  0.4323  0.3570
 4038SOL    HW315919   0.098   2.914   3.197  0.6427  2.4135  1.3214
 4038SOL    MW415920   0.183   2.901   3.207  0.3331  0.0194  0.1038
 4039SOL     OW15921   1.716   0.998   2.636 -0.0538  0.0334 -0.5065
 4039SOL    HW215922   1.760   0.982   2.552  2.0719 -0.7162  0.6841
 4039SOL    HW315923   1.688   0.911   2.665 -0.4903  0.2468 -0.2871
 4039SOL    MW415924   1.718   0.984   2.628 -0.0481 -0.1237  0.0852
 4040SOL     OW15925   2.391   3.868   4.629 -0.3221  0.2743  0.1252
 4040SOL    HW215926   2.320   3.913   4.675  1.2177  2.0261  0.9278
 4040SOL    HW315927   2.397   3.913   4.545  0.8762  1.2852  0.7189
 4040SOL    MW415928   2.382   3.880   4.624 -0.1680 -0.3079 -0.1934
 4041SOL     OW15929   6.250   4.911   2.714  0.3441  0.6741 -0.2261
 4041SOL    HW215930   6.326   4.875   2.760  1.1423  2.5284 -0.0269
 4041SOL    HW315931   6.185   4.926   2.783 -0.8159 -2.1810 -0.5581
 4041SOL    MW415932   6.252   4.908   2.729  0.1504 -0.1479 -0.2647
 4042SOL     OW15933   4.749   5.628   4.674 -0.5796  0.0737  0.3508
 4042SOL    HW215934   4.672   5.600   4.624 -1.2533 -0.8371  1.8273
 4042SOL    HW315935   4.819   5.572   4.642 -0.4427  1.0191 -1.1251
 4042SOL    MW415936   4.748   5.617   4.663 -0.5978 -0.1000 -0.0831
 4043SOL     OW15937   4.437   2.825   1.764  0.1363  0.3251  0.0319
 4043SOL    HW215938   4.394   2.909   1.747 -0.7494 -0.4832 -2.0889
 4043SOL    HW315939   4.518   2.829   1.713  1.1112  0.6366  1.5520
 4043SOL    MW415940   4.442   2.837   1.755  0.8605  0.3144 -0.4357
 4044SOL     OW15941   0.699   1.837   4.612 -0.1241  0.6907  0.3721
 4044SOL    HW215942   0.728   1.900   4.546 -0.1471 -0.1451 -0.4440
 4044SOL    HW315943   0.617   1.802   4.578  0.0023  0.0502  0.7133
 4044SOL    MW415944   0.692   1.841   4.599  0.6220 -0.7405  0.1242
 4045SOL     OW15945   4.773   2.453   2.280  0.4085 -0.4380  0.3960
 4045SOL    HW215946   4.713   2.416   2.345 -0.2574  0.4887  0.3236
 4045SOL    HW315947   4.716   2.498   2.218  1.1773  0.3678  0.2619
 4045SOL    MW415948   4.757   2.454   2.280  0.5478 -0.7296  0.3546
 4046SOL     OW15949   3.872   2.973   4.743  0.1948  0.0738  0.2666
 4046SOL    HW215950   3.808   2.926   4.689 -0.7683  1.5138  0.1094
 4046SOL    HW315951   3.887   2.914   4.818 -1.1072 -0.4343  0.1685
 4046SOL    MW415952   3.865   2.959   4.746  0.2507  0.7384 -0.3253
 4047SOL     OW15953   2.316   4.010   4.373  0.4296 -0.4766  0.0892
 4047SOL    HW215954   2.231   3.988   4.410 -0.0152  1.3886  0.2963
 4047SOL    HW315955   2.317   3.968   4.287 -1.9277  1.6804 -1.1488
 4047SOL    MW415956   2.305   4.002   4.366 -0.1066 -0.0471  0.0146
 4048SOL     OW15957   4.546   2.086   4.990 -0.0531  0.3371 -0.5582
 4048SOL    HW215958   4.535   2.047   4.903  0.4346 -1.9532  0.3198
 4048SOL    HW315959   4.467   2.138   5.003 -1.7228 -1.8763 -1.1443
 4048SOL    MW415960   4.534   2.088   4.980 -0.4098  0.0822 -0.6625
 4049SOL     OW15961   5.036   6.137   3.543  0.3391 -0.4934 -0.4915
 4049SOL    HW215962   4.945   6.157   3.524  0.7977  1.0279 -1.2364
 4049SOL    HW315963   5.033   6.058   3.597 -1.5270  0.6594  1.2129
 4049SOL    MW415964   5.024   6.129   3.548 -0.5254 -0.0644 -0.3824
 4050SOL     OW15965   2.137   1.885   4.143 -0.2102 -0.6756  0.2000
 4050SOL    HW215966   2.192   1.959   4.170 -0.1810 -1.4027  2.3330
 4050SOL    HW315967   2.169   1.862   4.056 -0.1452  1.7117 -0.4742
 4050SOL    MW415968   2.149   1.892   4.135 -0.0936  0.0466  0.2204
 4051SOL     OW15969   6.278   4.974   5.741  0.2459 -0.0141  0.2464
 4051SOL    HW215970   6.344   4.917   5.701  1.6115  1.8521 -0.2849
 4051SOL    HW315971   6.312   4.993   5.828 -0.8114 -0.9567  0.8844
 4051SOL    MW415972   6.291   4.969   5.747 -0.2237  0.1833  0.0735
 4052SOL     OW15973   0.320   2.846   5.266 -0.1390 -1.1259 -0.1400
 4052SOL    HW215974   0.231   2.812   5.279  1.1190 -4.8234  0.0717
 4052SOL    HW315975   0.356   2.852   5.354 -0.0349 -0.0573 -0.2517
 4052SOL    MW415976   0.313   2.842   5.279 -0.3061 -0.3509  0.5805
 4053SOL     OW15977   0.712   5.297   1.962  0.1585 -0.2565  0.0869
 4053SOL    HW215978   0.706   5.228   2.027 -0.2923  0.1411  0.4731
 4053SOL    HW315979   0.798   5.284   1.921  0.4914 -0.4540  0.8265
 4053SOL    MW415980   0.723   5.286   1.965  0.3092 -0.6262 -0.1026
 4054SOL     OW15981   5.206   5.888   5.538 -0.2201  0.2801 -0.0511
 4054SOL    HW215982   5.290   5.892   5.585 -1.3774  0.2952  2.1574
 4054SOL    HW315983   5.145   5.851   5.602 -1.5518 -1.4403 -2.1844
 4054SOL    MW415984   5.209   5.884   5.553  0.5719  0.0676 -0.2451
 4055SOL     OW15985   3.182   2.879   0.706  0.5650 -0.2010 -0.2818
 4055SOL    HW215986   3.186   2.905   0.614  1.1346  0.7124 -0.0223
 4055SOL    HW315987   3.273   2.863   0.730  1.0178  3.4640  1.1159
 4055SOL    MW415988   3.195   2.881   0.697 -0.4017  0.8247  0.1426
 4056SOL     OW15989   2.013   3.234   3.622 -0.5606 -0.3764 -0.1011
 4056SOL    HW215990   2.060   3.231   3.539 -0.9093  0.0835 -0.3203
 4056SOL    HW315991   2.021   3.325   3.651 -0.3802 -0.5508  0.4066
 4056SOL    MW415992   2.020   3.246   3.615  0.2813 -0.2195 -0.0564
 4057SOL     OW15993   5.844   5.435   4.221 -0.0205 -0.4794 -0.6691
 4057SOL    HW215994   5.885   5.518   4.197 -1.4158  0.5001  0.2119
 4057SOL    HW315995   5.874   5.418   4.310 -1.3613  0.1775 -0.0663
 4057SOL    MW415996   5.853   5.444   4.230 -0.0167  0.1268 -0.3791
 4058SOL     OW15997   5.159   2.220   1.645 -0.2726 -0.9281 -0.2186
 4058SOL    HW215998   5.177   2.150   1.709  1.6088 -2.2252 -2.0275
 4058SOL    HW315999   5.213   2.293   1.674 -1.5234 -0.5000  1.1532
 4058SOL    MW416000   5.169   2.220   1.657 -0.2627 -0.7696  0.2626
 4059SOL     OW16001   5.917   2.041   5.741  0.6508 -0.0165  0.0485
 4059SOL    HW216002   5.968   2.102   5.689  2.2408 -1.6387 -0.3780
 4059SOL    HW316003   5.970   2.026   5.819 -0.5236  0.4276  0.9603
 4059SOL    MW416004   5.931   2.047   5.745  0.7888 -0.1262 -0.0116
 4060SOL     OW16005   4.352   0.208   0.234 -0.2923 -0.0554  0.0374
 4060SOL    HW216006   4.351   0.212   0.138 -0.9926 -1.8845 -0.0769
 4060SOL    HW316007   4.286   0.142   0.255  0.1923 -0.0210  1.7591
 4060SOL    MW416008   4.343   0.200   0.224 -0.4563  0.1986  0.1479
 4061SOL     OW16009   3.468   5.166   4.968  0.2505  0.5607 -0.1969
 4061SOL    HW216010   3.473   5.185   5.061 -0.4183 -0.8334  0.1536
 4061SOL    HW316011   3.385   5.120   4.957  0.1739  0.9764 -1.5396
 4061SOL    MW416012   3.458   5.162   4.978  0.0690 -0.2633 -0.2657
 4062SOL     OW16013   5.110   5.283   2.336 -0.0152  0.5979 -0.4365
 4062SOL    HW216014   5.082   5.192   2.346 -3.0922  1.3425 -1.1134
 4062SOL    HW316015   5.153   5.304   2.419  1.5727 -1.6579 -0.5921
 4062SOL    MW416016   5.112   5.274   2.348 -0.2087 -0.3940 -0.2945
 4063SOL     OW16017   2.878   5.322   5.651  0.1710  0.2702  0.6915
 4063SOL    HW216018   2.890   5.292   5.742  3.3156  0.7855  0.5529
 4063SOL    HW316019   2.916   5.410   5.649  0.5835  0.0958 -1.2054
 4063SOL    MW416020   2.885   5.329   5.663 -0.3596  0.4900 -0.0641
 4064SOL     OW16021   4.616   6.364   5.191 -0.1249 -0.2801  0.4287
 4064SOL    HW216022   4.566   6.436   5.152  0.4011 -0.5014 -0.6871
 4064SOL    HW316023   4.557   6.289   5.187 -0.2206 -0.2054  0.4329
 4064SOL    MW416024   4.602   6.364   5.185 -0.1641 -0.0234  0.9785
 4065SOL     OW16025   2.955   1.604   4.562 -0.5060  0.0101 -0.0224
 4065SOL    HW216026   2.909   1.628   4.482  0.0279  0.3532 -0.2365
 4065SOL    HW316027   3.030   1.663   4.564  1.4697 -2.2791 -1.1159
 4065SOL    MW416028   2.959   1.615   4.552 -0.1933  0.0103 -0.2225
 4066SOL     OW16029   1.945   0.223   5.192  0.0376  0.2124  0.2062
 4066SOL    HW216030   1.947   0.307   5.239 -0.2650  1.0046 -1.1417
 4066SOL    HW316031   1.931   0.247   5.101 -1.0556 -1.3625 -0.0838
 4066SOL    MW416032   1.943   0.237   5.186  0.2200  0.0413  0.5577
 4067SOL     OW16033   5.340   4.482   1.718 -0.3609  0.2585 -0.6388
 4067SOL    HW216034   5.358   4.506   1.809 -2.1727  2.5776 -0.7843
 4067SOL    HW316035   5.284   4.405   1.723  0.1213 -0.0528  0.1637
 4067SOL    MW416036   5.335   4.475   1.730 -0.2396  0.1682 -0.6264
 4068SOL     OW16037   3.553   4.707   6.331 -0.0921  0.1111  0.1421
 4068SOL    HW216038   3.570   4.799   6.347  0.0735  0.1112 -0.0354
 4068SOL    HW316039   3.639   4.665   6.335 -0.3318 -0.3184  1.9974
 4068SOL    MW416040   3.567   4.713   6.334 -0.2057  0.4054 -0.3716
 4069SOL     OW16041   5.539   2.153   0.541  0.2353 -0.4851  0.3587
 4069SOL    HW216042   5.569   2.221   0.481  0.6510 -1.2811 -0.3585
 4069SOL    HW316043   5.612   2.090   0.545  0.2968 -0.3525  1.8548
 4069SOL    MW416044   5.553   2.153   0.534  0.4677 -0.1768 -0.2723
 4070SOL     OW16045   3.912   6.226   1.404 -0.1191 -0.1495  0.3899
 4070SOL    HW216046   3.957   6.226   1.489 -0.9531  0.3160  0.8418
 4070SOL    HW316047   3.819   6.221   1.426 -0.3176 -0.7725 -0.5230
 4070SOL    MW416048   3.906   6.225   1.418  0.4844 -0.0556  0.0425
 4071SOL     OW16049   5.322   3.065   6.026  0.5877  0.1265  0.3576
 4071SOL    HW216050   5.405   3.027   6.055  0.3846  1.2206  2.5774
 4071SOL    HW316051   5.261   3.045   6.097 -0.4380  1.3292 -0.1522
 4071SOL    MW416052   5.325   3.057   6.039  0.7161  0.2462  0.2987
 4072SOL     OW16053   2.095   3.474   1.038  0.0699 -0.0039  0.1635
 4072SOL    HW216054   2.034   3.511   1.101 -0.4801  0.8516 -0.8464
 4072SOL    HW316055   2.181   3.506   1.067  0.1439 -1.5519  1.8274
 4072SOL    MW416056   2.098   3.483   1.050 -0.8458  0.0771  0.1096
 4073SOL     OW16057   5.555   0.833   2.274 -0.7394 -0.6201 -0.5230
 4073SOL    HW216058   5.496   0.825   2.349 -0.6110  0.3983 -0.2991
 4073SOL    HW316059   5.549   0.748   2.230 -0.1773 -1.5365  1.0971
 4073SOL    MW416060   5.546   0.821   2.278 -0.2606  0.2522  0.1852
 4074SOL     OW16061   3.038   2.175   4.105 -0.1402 -0.3836 -0.2329
 4074SOL    HW216062   3.084   2.127   4.036  0.3964 -1.0417  0.5571
 4074SOL    HW316063   2.946   2.150   4.094  0.0280 -0.9933 -0.3184
 4074SOL    MW416064   3.032   2.165   4.095  0.8712  0.3775 -0.0795
 4075SOL     OW16065   6.159   3.160   4.893  0.3355 -0.0462 -0.3230
 4075SOL    HW216066   6.235   3.103   4.885  2.1281  2.1891 -0.5582
 4075SOL    HW316067   6.155   3.207   4.809  0.4129  1.7809  0.6308
 4075SOL    MW416068   6.169   3.159   4.881  0.1770 -0.0538 -0.1803
 4076SOL     OW16069   4.719   2.278   5.260 -0.8291  0.1882 -0.0221
 4076SOL    HW216070   4.800   2.269   5.311  0.0066 -1.1097 -1.5023
 4076SOL    HW316071   4.649   2.268   5.325  0.1578  1.2419  1.2754
 4076SOL    MW416072   4.720   2.276   5.275 -0.5461  0.4597 -0.5604
 4077SOL     OW16073   2.745   2.606   3.260  0.7009  0.1517 -0.0618
 4077SOL    HW216074   2.729   2.589   3.168 -0.0919 -0.2363  0.1398
 4077SOL    HW316075   2.712   2.695   3.274  2.2735  0.8230 -0.4928
 4077SOL    MW416076   2.738   2.616   3.250  0.2170 -0.0265  0.2346
 4078SOL     OW16077   5.320   0.297   5.075  0.5038 -0.7759  0.6178
 4078SOL    HW216078   5.282   0.280   4.989 -0.1442  1.7517  0.3287
 4078SOL    HW316079   5.372   0.376   5.064 -1.1550  0.7884  2.9055
 4078SOL    MW416080   5.322   0.305   5.062 -0.1090 -0.4449  0.3551
 4079SOL     OW16081   3.707   1.650   0.406 -0.4136  0.3846  0.1576
 4079SOL    HW216082   3.623   1.658   0.361 -1.0293  0.6864  1.3017
 4079SOL    HW316083   3.707   1.722   0.469  1.0454  0.8439 -0.3253
 4079SOL    MW416084   3.696   1.661   0.409  0.0278 -0.0311 -0.2676
 4080SOL     OW16085   2.701   1.933   3.274  0.5799 -0.7017 -0.5212
 4080SOL    HW216086   2.721   1.890   3.190  1.0616 -0.7236 -0.3971
 4080SOL    HW316087   2.622   1.888   3.305  0.1096 -0.3627 -1.1951
 4080SOL    MW416088   2.693   1.921   3.267 -0.1174 -0.5441  0.0282
 4081SOL     OW16089   3.841   0.497   3.353  0.2580 -0.4495 -0.5681
 4081SOL    HW216090   3.841   0.584   3.395 -2.0687  0.2267 -1.7982
 4081SOL    HW316091   3.907   0.504   3.284 -2.3305  1.7404 -3.0811
 4081SOL    MW416092   3.850   0.510   3.350 -0.3440  0.1989 -0.1691
 4082SOL     OW16093   2.143   6.084   2.799  0.2691 -0.0037 -0.2149
 4082SOL    HW216094   2.168   6.036   2.721 -1.7908 -0.9116 -0.3562
 4082SOL    HW316095   2.182   6.035   2.871 -1.7861 -1.9802 -0.3540
 4082SOL    MW416096   2.152   6.071   2.798 -0.0709  0.3556 -0.1307
 4083SOL     OW16097   4.534   0.681   4.754 -0.1463  0.0331 -0.5517
 4083SOL    HW216098   4.521   0.711   4.664 -2.7309 -2.6126 -1.1987
 4083SOL    HW316099   4.484   0.744   4.807  2.2208  2.2164 -0.6930
 4083SOL    MW416100   4.525   0.693   4.749  0.4407 -0.3670 -0.3808
 4084SOL     OW16101   6.427   4.742   2.845 -0.1299  0.6351  0.4742
 4084SOL    HW216102   6.394   4.726   2.933  0.6364  0.2638  0.6999
 4084SOL    HW316103   6.508   4.791   2.858 -0.6121  1.5970 -0.0770
 4084SOL    MW416104   6.433   4.746   2.858  0.5415 -0.3266  0.1866
 4085SOL     OW16105   4.010   4.108   1.763  0.6194 -0.3111  0.2262
 4085SOL    HW216106   4.086   4.135   1.711 -0.5150  3.7637  0.3291
 4085SOL    HW316107   3.958   4.053   1.705  2.0878 -0.5084 -0.9389
 4085SOL    MW416108   4.013   4.104   1.749  0.8469  0.0246  0.0436
 4086SOL     OW16109   1.785   1.632   0.088  0.1089 -0.0883 -0.0008
 4086SOL    HW216110   1.738   1.710   0.059 -0.4395 -0.1335  0.7345
 4086SOL    HW316111   1.873   1.641   0.051 -0.1209  0.5957 -0.3872
 4086SOL    MW416112   1.790   1.644   0.079  0.2266  0.3334  0.2930
 4087SOL     OW16113   0.705   1.530   4.353 -0.6966 -0.3200 -0.5418
 4087SOL    HW216114   0.761   1.581   4.294  0.9046 -0.7038  0.6035
 4087SOL    HW316115   0.666   1.595   4.411  1.3141 -0.3055  0.8948
 4087SOL    MW416116   0.707   1.546   4.353  0.2153  0.6876  0.5522
 4088SOL     OW16117   0.420   3.089   4.063 -0.5933  0.5178  0.1796
 4088SOL    HW216118   0.498   3.113   4.112 -0.4546 -2.8168  1.8223
 4088SOL    HW316119   0.445   3.011   4.014 -2.4430  0.3730 -0.6142
 4088SOL    MW416120   0.433   3.082   4.063  0.0916 -0.8940  0.3220
 4089SOL     OW16121   4.990   5.592   3.650  0.0237  0.0330  0.4927
 4089SOL    HW216122   4.949   5.562   3.569  1.2093  0.1464 -0.1811
 4089SOL    HW316123   5.044   5.666   3.622 -0.2784  0.6763  1.5616
 4089SOL    MW416124   4.992   5.598   3.635  0.5151  0.1751  0.1322
 4090SOL     OW16125   2.862   4.187   2.461 -0.0448  0.6841  0.3778
 4090SOL    HW216126   2.914   4.245   2.405  1.8311 -0.9511  0.2932
 4090SOL    HW316127   2.908   4.188   2.545  1.0308 -1.7830 -0.0730
 4090SOL    MW416128   2.875   4.195   2.465  0.0647 -0.3396  0.1643
 4091SOL     OW16129   4.833   1.729   1.956  0.4058  0.1414 -0.5842
 4091SOL    HW216130   4.836   1.799   1.891 -1.2324 -0.9847 -1.9485
 4091SOL    HW316131   4.785   1.766   2.030  0.2233  0.6899 -0.9745
 4091SOL    MW416132   4.827   1.743   1.957  0.1192 -0.2478  0.4004
 4092SOL     OW16133   4.027   0.102   5.140 -0.1089  0.0603  0.1066
 4092SOL    HW216134   3.935   0.121   5.119 -0.0366  0.0694 -0.2097
 4092SOL    HW316135   4.048   0.026   5.087  0.0778  0.0775  0.1549
 4092SOL    MW416136   4.018   0.095   5.130  0.3269 -0.3922 -0.1293
 4093SOL     OW16137   5.303   4.747   5.149  0.3193  0.2049  0.5086
 4093SOL    HW216138   5.323   4.756   5.242  1.0136  1.6858  0.2504
 4093SOL    HW316139   5.319   4.834   5.113 -0.9709 -0.0681 -0.8103
 4093SOL    MW416140   5.308   4.760   5.157  0.0904 -0.0781  0.0845
 4094SOL     OW16141   0.338   5.275   2.245  0.0454 -0.4161  0.0906
 4094SOL    HW216142   0.272   5.210   2.269 -0.7845  0.1176 -0.6943
 4094SOL    HW316143   0.337   5.276   2.149  1.5473 -0.7434  0.0399
 4094SOL    MW416144   0.329   5.267   2.235 -0.2146  0.2528  0.8886
 4095SOL     OW16145   0.215   4.334   4.154 -0.4612 -0.2992 -0.2044
 4095SOL    HW216146   0.130   4.364   4.120 -1.3347  0.1318  2.1296
 4095SOL    HW316147   0.203   4.241   4.171  0.3062 -0.7473 -1.9036
 4095SOL    MW416148   0.202   4.326   4.152  0.5004 -0.2831  0.6234
 4096SOL     OW16149   3.536   2.038   4.625 -0.2195 -0.0537  0.5604
 4096SOL    HW216150   3.552   2.106   4.691 -0.6823 -0.7325  1.3986
 4096SOL    HW316151   3.593   1.966   4.651  1.8565  0.7210 -1.5263
 4096SOL    MW416152   3.546   2.038   4.637  0.2519 -0.5916  0.3261
 4097SOL     OW16153   4.337   4.767   3.686  0.0919 -0.2556  0.2470
 4097SOL    HW216154   4.384   4.808   3.613 -1.2904  0.0979 -0.4648
 4097SOL    HW316155   4.314   4.840   3.744 -1.3551 -0.1320 -0.4426
 4097SOL    MW416156   4.340   4.782   3.684  0.4348  0.1237  0.1260
 4098SOL     OW16157   0.985   4.990   5.676 -0.2258  0.0178 -0.2028
 4098SOL    HW216158   0.953   5.065   5.625 -0.6861 -1.9952 -3.1267
 4098SOL    HW316159   0.910   4.965   5.730 -0.7252  0.4734 -0.6672
 4098SOL    MW416160   0.971   4.997   5.676  0.2103  0.4056  0.8962
 4099SOL     OW16161   5.679   3.379   1.877 -0.7410  0.8786 -0.1793
 4099SOL    HW216162   5.698   3.450   1.938  0.5504  1.3905 -1.1275
 4099SOL    HW316163   5.616   3.417   1.816 -0.8303  0.8696 -0.0944
 4099SOL    MW416164   5.673   3.394   1.877 -0.1166 -0.2242  0.0753
 4100SOL     OW16165   0.652   2.906   1.120 -0.0657  0.1882  0.9846
 4100SOL    HW216166   0.683   2.826   1.163 -0.4415  1.0397  2.9722
 4100SOL    HW316167   0.677   2.976   1.180 -1.3942  1.3790  0.2092
 4100SOL    MW416168   0.659   2.904   1.134 -0.4562 -0.2080 -0.2643
 4101SOL     OW16169   3.216   1.201   5.668 -0.3630  0.1257  0.4829
 4101SOL    HW216170   3.237   1.185   5.576  0.0333  2.5381  0.0705
 4101SOL    HW316171   3.134   1.154   5.683  0.7704 -2.2865 -0.3775
 4101SOL    MW416172   3.208   1.193   5.658  0.1942  0.3897 -0.1936
 4102SOL     OW16173   0.058   0.223   0.089 -0.1644 -0.1681  0.1706
 4102SOL    HW216174  -0.006   0.217   0.018 -1.3143  1.6728  0.9721
 4102SOL    HW316175   0.143   0.216   0.046 -0.8454 -2.1454 -0.9936
 4102SOL    MW416176   0.061   0.221   0.074 -0.0998 -0.4414 -0.0458
 4103SOL     OW16177   5.302   0.830   5.442 -0.4095  0.2800  0.4042
 4103SOL    HW216178   5.327   0.901   5.383 -0.3975  0.1071  0.1967
 4103SOL    HW316179   5.321   0.750   5.392  1.6810  0.0595  1.4157
 4103SOL    MW416180   5.308   0.829   5.428 -0.1954 -0.0215  0.2858
 4104SOL     OW16181   6.313   6.065   3.348  0.2809 -0.0046 -0.1769
 4104SOL    HW216182   6.222   6.039   3.364  1.4479 -2.9973  2.4539
 4104SOL    HW316183   6.331   6.035   3.259 -1.3974  1.2881 -1.0360
 4104SOL    MW416184   6.303   6.058   3.338  0.5412 -0.2846  0.0947
 4105SOL     OW16185   4.005   4.955   2.126  0.1067 -0.3085  0.5611
 4105SOL    HW216186   3.915   4.928   2.108 -0.0417 -0.9695  2.1502
 4105SOL    HW316187   4.057   4.902   2.065 -0.4818 -1.1036  0.7239
 4105SOL    MW416188   4.000   4.944   2.115  0.2763  0.1907 -0.4236
 4106SOL     OW16189   2.717   5.545   5.304  0.7996 -0.2760  0.6700
 4106SOL    HW216190   2.710   5.532   5.399 -0.5592  1.0775  0.7909
 4106SOL    HW316191   2.633   5.514   5.270  1.6719 -1.7406 -0.2490
 4106SOL    MW416192   2.705   5.539   5.312 -0.2752 -0.5362 -0.2359
 4107SOL     OW16193   0.030   0.213   1.146 -0.5933  0.0370  0.0894
 4107SOL    HW216194   0.046   0.224   1.052  1.0782  0.8815  0.4267
 4107SOL    HW316195  -0.059   0.178   1.151 -1.4674  1.7659 -1.7125
 4107SOL    MW416196   0.021   0.210   1.134  0.0632 -0.0383  0.3986
 4108SOL     OW16197   1.312   3.560   5.230  0.5209  0.1841 -0.0834
 4108SOL    HW216198   1.249   3.556   5.301 -0.4051  1.9439 -0.7471
 4108SOL    HW316199   1.314   3.470   5.195  1.0298 -0.7326  2.1042
 4108SOL    MW416200   1.304   3.547   5.235  0.1885  0.7865  0.5602
 4109SOL     OW16201   6.286   2.346   0.250  0.1567  0.5984  0.3248
 4109SOL    HW216202   6.296   2.337   0.345  0.0983  0.0649  0.2837
 4109SOL    HW316203   6.270   2.257   0.219  0.4870  0.7292 -0.2270
 4109SOL    MW416204   6.285   2.333   0.258  0.2170 -0.1767 -0.0505
 4110SOL     OW16205   5.125   0.241   6.387  0.5718  0.1826  0.5202
 4110SOL    HW216206   5.099   0.194   6.467 -0.0281 -1.4729 -0.5998
 4110SOL    HW316207   5.043   0.271   6.349  0.9343  2.0587  1.1105
 4110SOL    MW416208   5.111   0.239   6.393 -0.7105 -0.7497 -0.3351
 4111SOL     OW16209   5.964   2.591   4.011 -0.0592 -0.2346 -0.2764
 4111SOL    HW216210   5.947   2.655   3.941 -0.1027 -0.1131 -0.1541
 4111SOL    HW316211   6.028   2.633   4.067  0.6366 -0.6787 -0.7178
 4111SOL    MW416212   5.970   2.605   4.009 -0.0557 -0.0685  0.2081
 4112SOL     OW16213   0.720   5.882   1.259  0.0351  0.2294  0.0802
 4112SOL    HW216214   0.792   5.910   1.315  0.7770 -0.7342 -0.3789
 4112SOL    HW316215   0.642   5.895   1.313  0.3988  2.3696  0.1873
 4112SOL    MW416216   0.719   5.888   1.273 -0.4851  0.4283 -0.1978
 4113SOL     OW16217   1.590   5.428   5.446  0.0712  0.5087 -0.5877
 4113SOL    HW216218   1.656   5.495   5.462  2.0013 -1.1354 -1.2884
 4113SOL    HW316219   1.579   5.427   5.351 -0.3158  0.1735 -0.5423
 4113SOL    MW416220   1.597   5.437   5.436  0.0527  0.5293 -0.2010
 4114SOL     OW16221   1.567   6.273   2.761 -0.8344  0.2090  0.2653
 4114SOL    HW216222   1.583   6.367   2.768 -1.4700  0.5045 -1.5881
 4114SOL    HW316223   1.638   6.240   2.705 -0.5338 -0.4557  1.0123
 4114SOL    MW416224   1.578   6.281   2.755 -0.2693  0.0752  0.4927
 4115SOL     OW16225   0.563   5.011   2.596  0.0948  0.3451 -0.1609
 4115SOL    HW216226   0.651   5.023   2.632 -0.0588  0.9721  0.0219
 4115SOL    HW316227   0.566   5.055   2.511 -0.3079  1.2219  0.2621
 4115SOL    MW416228   0.575   5.018   2.590 -0.0991 -0.3818  0.0544
 4116SOL     OW16229   3.395   3.998   3.218 -0.3476 -0.0307  0.4488
 4116SOL    HW216230   3.356   3.952   3.145 -0.6469 -1.9612  1.7535
 4116SOL    HW316231   3.456   3.936   3.256 -0.8242  0.5873  2.3489
 4116SOL    MW416232   3.398   3.984   3.214 -0.3680 -0.5639  0.2119
 4117SOL     OW16233   0.072   3.487   5.474 -0.5461  0.0630 -0.0275
 4117SOL    HW216234  -0.020   3.468   5.490 -0.2698 -1.3772  0.0509
 4117SOL    HW316235   0.081   3.483   5.379 -0.3175 -1.1946  0.0306
 4117SOL    MW416236   0.061   3.484   5.464  0.0946  0.5176 -0.0154
 4118SOL     OW16237   4.521   0.073   1.085 -0.3497  0.2110  0.3561
 4118SOL    HW216238   4.583   0.114   1.024 -1.4422 -0.7085 -1.4537
 4118SOL    HW316239   4.533   0.122   1.167  2.4668  0.3120 -0.0037
 4118SOL    MW416240   4.531   0.085   1.088  0.3848 -0.6814 -0.4470
 4119SOL     OW16241   5.914   6.004   2.573  0.2753 -0.1960 -0.1453
 4119SOL    HW216242   5.953   5.917   2.579 -0.6184 -0.5242  1.4461
 4119SOL    HW316243   5.848   5.996   2.503 -1.0828 -1.3642  1.1960
 4119SOL    MW416244   5.910   5.992   2.564  0.2456  0.0885  0.5459
 4120SOL     OW16245   5.961   0.625   1.958 -0.0515 -0.3434  0.0760
 4120SOL    HW216246   5.934   0.696   2.016  2.0946  0.5374  0.0643
 4120SOL    HW316247   5.965   0.664   1.871  2.8519  0.0939  0.3186
 4120SOL    MW416248   5.958   0.639   1.954  0.3023  0.0275  0.0839
 4121SOL     OW16249   6.225   2.858   5.087  0.2847  0.0598 -0.1183
 4121SOL    HW216250   6.192   2.794   5.023 -1.8944  0.8373  0.1728
 4121SOL    HW316251   6.274   2.921   5.034 -1.2815  0.5579 -1.0375
 4121SOL    MW416252   6.227   2.858   5.071 -0.1589  0.0655  0.3627
 4122SOL     OW16253   6.261   3.973   1.029  0.7225 -0.3180 -0.2405
 4122SOL    HW216254   6.330   3.918   0.992  0.6204 -0.8692  0.3781
 4122SOL    HW316255   6.210   3.914   1.084  0.4370  0.3282  0.2026
 4122SOL    MW416256   6.264   3.958   1.032 -0.3207 -0.4031 -0.2255
 4123SOL     OW16257   4.556   0.508   2.844 -0.6171 -0.0313 -0.0043
 4123SOL    HW216258   4.607   0.569   2.791  2.6847 -1.4804  1.2442
 4123SOL    HW316259   4.531   0.558   2.921 -0.9852  0.6650 -0.5642
 4123SOL    MW416260   4.559   0.523   2.847  0.0845  0.0481 -0.1535
 4124SOL     OW16261   5.396   2.123   0.134 -0.0713 -0.5498 -0.9382
 4124SOL    HW216262   5.485   2.088   0.147 -0.3546 -0.8421  0.4049
 4124SOL    HW316263   5.354   2.113   0.219 -1.3766 -0.3236 -1.5306
 4124SOL    MW416264   5.403   2.117   0.147 -0.5464 -0.8685 -0.6165
 4125SOL     OW16265   3.195   4.051   6.352  0.1709  0.5232  0.3529
 4125SOL    HW216266   3.118   4.079   6.402 -0.6699  0.7185 -1.0053
 4125SOL    HW316267   3.191   4.101   6.270  1.0996 -0.3182 -0.2331
 4125SOL    MW416268   3.184   4.061   6.348 -0.7764 -0.2049 -0.3123
 4126SOL     OW16269   4.581   1.520   1.234 -0.4343  0.3775 -0.5138
 4126SOL    HW216270   4.631   1.588   1.187  0.2570  0.1851 -0.0713
 4126SOL    HW316271   4.619   1.519   1.322 -1.5666  0.5678 -0.0133
 4126SOL    MW416272   4.593   1.529   1.239  0.2312  0.9845 -0.6460
 4127SOL     OW16273   6.317   4.679   5.159  0.0071 -0.7826 -0.2859
 4127SOL    HW216274   6.267   4.614   5.208 -1.1628 -1.3447 -2.0908
 4127SOL    HW316275   6.250   4.734   5.117  0.9570  0.3181 -0.3951
 4127SOL    MW416276   6.301   4.678   5.160 -0.0744  0.6779  0.3337
 4128SOL     OW16277   4.604   5.871   4.494 -0.3019  0.2915 -0.0584
 4128SOL    HW216278   4.699   5.880   4.495 -0.1717  0.6215 -3.2073
 4128SOL    HW316279   4.589   5.777   4.480 -0.4248  0.2652  0.2548
 4128SOL    MW416280   4.614   5.859   4.492 -0.0401 -0.0612 -0.2314
 4129SOL     OW16281   0.298   1.926   3.377 -0.1248  0.4790  0.3366
 4129SOL    HW216282   0.363   1.874   3.329 -0.4942  0.6252 -0.3171
 4129SOL    HW316283   0.321   2.017   3.358 -0.1045  0.5444  0.6620
 4129SOL    MW416284   0.310   1.931   3.368 -0.6189  0.0430 -0.3958
 4130SOL     OW16285   3.361   1.605   3.997 -0.2382 -0.3258 -0.3541
 4130SOL    HW216286   3.379   1.609   3.903  0.8927 -0.4249 -0.1530
 4130SOL    HW316287   3.343   1.512   4.014  1.1838 -0.5925 -0.2040
 4130SOL    MW416288   3.361   1.593   3.987  0.1638  0.0806  0.0773
 4131SOL     OW16289   3.101   1.817   3.518 -0.2105  0.0315 -0.1809
 4131SOL    HW216290   3.159   1.793   3.446  0.1814  3.4087 -1.1498
 4131SOL    HW316291   3.108   1.744   3.580  3.3504 -0.7270 -1.2558
 4131SOL    MW416292   3.110   1.804   3.517  0.1732 -0.0387  0.0107
 4132SOL     OW16293   1.049   2.220   3.409  0.1257  0.1382 -0.2471
 4132SOL    HW216294   1.068   2.137   3.453 -1.7497 -0.5038 -0.5745
 4132SOL    HW316295   1.055   2.286   3.478 -1.4697 -0.6929  0.7416
 4132SOL    MW416296   1.052   2.218   3.424  0.4289 -0.0793 -0.7729
 4133SOL     OW16297   4.516   5.557   4.557  0.8243 -1.0317  0.2556
 4133SOL    HW216298   4.536   5.471   4.519 -2.4564 -1.6190 -0.4179
 4133SOL    HW316299   4.483   5.536   4.645  2.3436 -0.2025  1.0504
 4133SOL    MW416300   4.514   5.543   4.564 -0.0186 -0.5341  0.3131
 4134SOL     OW16301   0.331   5.319   1.963 -0.7565 -0.2607  0.0106
 4134SOL    HW216302   0.240   5.290   1.964 -1.0482  0.5691 -0.8693
 4134SOL    HW316303   0.327   5.412   1.983  0.0190 -0.4547  1.1883
 4134SOL    MW416304   0.319   5.327   1.966 -0.1378 -0.1328 -0.2577
 4135SOL     OW16305   0.348   3.227   0.609 -0.1358  0.4552 -0.2888
 4135SOL    HW216306   0.392   3.187   0.684 -1.0448  0.8970  0.5056
 4135SOL    HW316307   0.418   3.249   0.549  0.4164 -2.6900 -0.9810
 4135SOL    MW416308   0.363   3.224   0.611 -0.3739 -0.6077  0.1807
 4136SOL     OW16309   3.580   1.410   5.360 -0.0690  0.2538 -0.1550
 4136SOL    HW216310   3.570   1.502   5.385  0.6474  0.7112 -1.4695
 4136SOL    HW316311   3.636   1.412   5.283 -0.6010 -1.2477 -0.6159
 4136SOL    MW416312   3.586   1.422   5.353  0.3109 -0.2342  0.0578
 4137SOL     OW16313   0.312   0.084   1.243 -0.1425 -0.0411 -0.3106
 4137SOL    HW216314   0.280   0.056   1.157  0.6092 -0.5039 -0.4500
 4137SOL    HW316315   0.402   0.053   1.246  0.4181  1.5277 -0.0684
 4137SOL    MW416316   0.320   0.076   1.232 -0.5954  0.3433  0.4798
 4138SOL     OW16317   5.745   5.521   3.160  0.1264  1.1922  0.2879
 4138SOL    HW216318   5.727   5.448   3.099  0.2352  0.6149  0.9382
 4138SOL    HW316319   5.826   5.560   3.127  0.6385  0.3663  0.5202
 4138SOL    MW416320   5.753   5.516   3.147 -0.2449  0.4616  0.5968
 4139SOL     OW16321   4.184   5.039   0.121  0.1854 -0.3878 -0.0935
 4139SOL    HW216322   4.112   5.075   0.069  0.2405 -1.0295 -0.6320
 4139SOL    HW316323   4.259   5.095   0.099 -0.1860  0.4312  0.6525
 4139SOL    MW416324   4.184   5.051   0.111 -0.1462 -0.3691 -0.0687
 4140SOL     OW16325   1.809   5.317   4.634 -0.4307 -0.2152 -0.7429
 4140SOL    HW216326   1.875   5.323   4.565 -0.4442 -0.2682 -0.7601
 4140SOL    HW316327   1.725   5.319   4.587 -0.6186  3.7404 -0.5666
 4140SOL    MW416328   1.806   5.318   4.619  0.1816  0.5410 -0.2785
 4141SOL     OW16329   2.593   5.805   3.175  0.2430 -0.4529 -0.2231
 4141SOL    HW216330   2.639   5.744   3.117 -0.1234 -1.3880  0.4600
 4141SOL    HW316331   2.501   5.781   3.167  0.1080 -0.0650  0.1502
 4141SOL    MW416332   2.587   5.794   3.166 -0.0067  1.0270 -0.3298
 4142SOL     OW16333   5.654   0.269   4.276  0.7192 -0.4239  0.5383
 4142SOL    HW216334   5.624   0.355   4.306 -0.9945  0.4804 -3.1168
 4142SOL    HW316335   5.673   0.282   4.183  0.1933 -4.0224 -0.2128
 4142SOL    MW416336   5.652   0.282   4.267 -1.1137  0.1237  0.1667
 4143SOL     OW16337   3.164   4.211   6.132  0.4154 -0.1390 -0.2326
 4143SOL    HW216338   3.158   4.188   6.040 -1.0827 -0.6981 -0.0179
 4143SOL    HW316339   3.139   4.304   6.136  1.7881  0.2666 -0.5233
 4143SOL    MW416340   3.160   4.221   6.121 -0.3361  0.8282  0.3093
 4144SOL     OW16341   1.004   1.784   4.771  0.1634 -0.1136 -0.0416
 4144SOL    HW216342   1.069   1.723   4.738  1.1231  0.7118  0.2732
 4144SOL    HW316343   0.921   1.737   4.763  0.9758 -1.8670  1.1496
 4144SOL    MW416344   1.002   1.769   4.766 -0.0317  0.2865 -0.4944
 4145SOL     OW16345   4.976   1.480   2.928 -0.4524  0.0256 -0.0901
 4145SOL    HW216346   4.888   1.509   2.904 -0.7646 -0.7733  0.0540
 4145SOL    HW316347   4.967   1.385   2.942  0.4660 -0.0918 -0.2325
 4145SOL    MW416348   4.963   1.471   2.927  0.1114  0.4595 -0.0297
 4146SOL     OW16349   2.386   0.033   3.705 -0.0652  0.3855 -0.2874
 4146SOL    HW216350   2.366   0.127   3.702 -3.1625 -0.0877  1.1459
 4146SOL    HW316351   2.362   0.007   3.794  2.2132 -1.5535 -0.1285
 4146SOL    MW416352   2.381   0.042   3.717 -0.3312 -0.0387 -0.5618
 4147SOL     OW16353   2.610   4.967   2.908 -0.2731  0.0687  0.2823
 4147SOL    HW216354   2.689   4.956   2.962  0.3695  2.3277 -0.0878
 4147SOL    HW316355   2.620   4.902   2.838  0.8252 -0.2637  0.7098
 4147SOL    MW416356   2.622   4.957   2.906  0.1438 -0.2622  0.0535
 4148SOL     OW16357   6.190   3.967   4.457  0.2097 -0.3497  0.5956
 4148SOL    HW216358   6.114   3.985   4.403  0.0293 -0.7860  0.6988
 4148SOL    HW316359   6.173   4.015   4.539  1.0193  1.2696 -0.1385
 4148SOL    MW416360   6.178   3.976   4.461 -0.4056  0.4672  0.3386
 4149SOL     OW16361   6.370   2.094   3.510 -0.6367  0.0561  0.0122
 4149SOL    HW216362   6.411   2.010   3.490  0.4512  0.5159  0.2322
 4149SOL    HW316363   6.412   2.122   3.591 -3.2769 -0.6529  1.7182
 4149SOL    MW416364   6.381   2.087   3.518  0.8919 -0.1492 -0.0388
 4150SOL     OW16365   3.960   5.865   5.632 -0.4362  0.1266  0.4779
 4150SOL    HW216366   3.974   5.812   5.710 -1.7992 -0.1103  0.5871
 4150SOL    HW316367   3.920   5.946   5.665 -0.1649  0.4092  0.1200
 4150SOL    MW416368   3.956   5.869   5.647  0.3917  0.0161 -0.2625
 4151SOL     OW16369   5.777   4.443   5.197 -0.3636 -1.0985 -0.1234
 4151SOL    HW216370   5.815   4.401   5.274  1.9235  2.7277  1.1095
 4151SOL    HW316371   5.712   4.504   5.232  1.2058  1.2236 -1.0307
 4151SOL    MW416372   5.773   4.446   5.212  0.6818  0.1459 -0.0174
 4152SOL     OW16373   6.001   1.976   6.310 -0.2222  0.3502  0.2262
 4152SOL    HW216374   5.971   1.916   6.378 -0.5472 -0.7527 -0.8547
 4152SOL    HW316375   5.926   2.032   6.293 -0.9076 -0.8136 -0.7478
 4152SOL    MW416376   5.987   1.975   6.317 -0.2635 -0.2372  0.0047
 4153SOL     OW16377   0.929   0.922   2.735 -0.6701  0.4417  0.3515
 4153SOL    HW216378   0.949   0.890   2.823  1.8254  0.4062 -0.1478
 4153SOL    HW316379   0.861   0.864   2.703 -1.3174  0.1863  2.0870
 4153SOL    MW416380   0.923   0.910   2.742  0.6245 -0.1856  0.3255
 4154SOL     OW16381   0.044   1.242   4.844 -0.0428  0.1022  0.4210
 4154SOL    HW216382  -0.042   1.259   4.881  0.0410 -0.2658  0.7894
 4154SOL    HW316383   0.034   1.160   4.796  0.0557  0.1594  0.3014
 4154SOL    MW416384   0.031   1.234   4.843  0.1173 -0.2600 -0.2411
 4155SOL     OW16385   5.930   3.842   0.736  0.0826 -0.4447 -0.0724
 4155SOL    HW216386   5.982   3.893   0.797  0.4885  0.1717 -0.9149
 4155SOL    HW316387   5.856   3.811   0.788  0.2296  0.3577  0.6422
 4155SOL    MW416388   5.927   3.844   0.751  0.2658 -0.8582 -0.0494
 4156SOL     OW16389   1.974   3.938   0.890 -0.3797  0.6565  0.2852
 4156SOL    HW216390   2.048   3.909   0.943  0.6894  0.8964 -1.0319
 4156SOL    HW316391   1.918   3.860   0.882 -0.2065  0.4310  1.1490
 4156SOL    MW416392   1.976   3.924   0.896  0.1298 -0.4001 -0.4298
 4157SOL     OW16393   0.603   0.903   5.993 -0.0115 -0.0638 -0.2006
 4157SOL    HW216394   0.656   0.859   5.927  1.0745  0.2133  0.4524
 4157SOL    HW316395   0.521   0.924   5.949  0.6670  0.0634 -1.4321
 4157SOL    MW416396   0.599   0.900   5.979 -0.5409 -0.1130  0.4188
 4158SOL     OW16397   3.561   4.793   1.801  0.4687 -0.1243 -0.5910
 4158SOL    HW216398   3.618   4.833   1.734  2.6975 -0.4759  0.9869
 4158SOL    HW316399   3.566   4.699   1.783  0.7826 -0.1915 -0.1649
 4158SOL    MW416400   3.569   4.786   1.790  0.4736 -0.6096  0.3707
 4159SOL     OW16401   2.916   0.384   0.241 -0.0196  0.5079 -0.1672
 4159SOL    HW216402   2.999   0.336   0.239  0.4732  1.3399 -2.5549
 4159SOL    HW316403   2.863   0.344   0.173 -1.3486  0.4751  0.8371
 4159SOL    MW416404   2.920   0.372   0.232  0.9418  0.7691  0.4559
 4160SOL     OW16405   5.609   5.591   4.372  0.0428 -0.5873 -0.5393
 4160SOL    HW216406   5.572   5.513   4.331  0.2813 -0.2451 -1.4120
 4160SOL    HW316407   5.701   5.590   4.349  0.1740 -0.3595 -0.0482
 4160SOL    MW416408   5.616   5.581   4.364  0.5515  0.4675  0.1460
 4161SOL     OW16409   1.934   5.080   4.191 -0.0646 -0.1468 -0.1516
 4161SOL    HW216410   1.876   5.134   4.245  1.8850  1.2254  0.6868
 4161SOL    HW316411   1.932   5.122   4.104 -2.0415 -1.4804 -0.8269
 4161SOL    MW416412   1.926   5.093   4.186 -0.3839 -0.4733 -0.4696
 4162SOL     OW16413   6.113   2.983   3.303  0.1839 -0.3176 -0.2345
 4162SOL    HW216414   6.121   2.945   3.390 -1.6201  2.2079  1.1587
 4162SOL    HW316415   6.027   2.955   3.272 -0.3733  1.0242  0.0319
 4162SOL    MW416416   6.103   2.974   3.310 -0.4567  0.2897  0.1215
 4163SOL     OW16417   4.895   1.924   1.765  0.7491 -0.2659  0.1382
 4163SOL    HW216418   4.853   1.994   1.714  2.2047 -0.8985 -2.0652
 4163SOL    HW316419   4.944   1.971   1.833 -0.4323  0.6713  0.3798
 4163SOL    MW416420   4.896   1.940   1.767 -0.0936 -0.5039  0.5058
 4164SOL     OW16421   2.380   0.880   2.956 -0.0191  0.1638  0.2532
 4164SOL    HW216422   2.448   0.838   2.903 -3.3717 -1.8042 -3.0183
 4164SOL    HW316423   2.402   0.973   2.954  1.5094 -0.1558 -2.4444
 4164SOL    MW416424   2.392   0.887   2.948  0.4039  0.3926  0.0154
 4165SOL     OW16425   0.048   5.900   0.035  0.5950 -0.0436 -0.2799
 4165SOL    HW216426   0.004   5.891  -0.050 -1.9004 -0.1259  0.9353
 4165SOL    HW316427   0.051   5.812   0.071 -0.8096  0.3141  0.8103
 4165SOL    MW416428   0.043   5.887   0.028  0.5910  0.0230 -0.0262
 4166SOL     OW16429   4.674   3.730   6.368 -0.5010 -0.2819 -0.1713
 4166SOL    HW216430   4.707   3.640   6.374 -0.4307 -0.3168 -0.9579
 4166SOL    HW316431   4.740   3.776   6.315 -0.9251  0.0317 -0.4326
 4166SOL    MW416432   4.687   3.724   6.362  0.1570 -0.4630  0.3269
 4167SOL     OW16433   4.120   4.409   2.429  0.1766  0.0524  0.3104
 4167SOL    HW216434   4.044   4.454   2.467  0.4202  1.9691 -1.3068
 4167SOL    HW316435   4.195   4.444   2.477  0.2913  0.6527 -0.3030
 4167SOL    MW416436   4.120   4.419   2.441  0.5541 -0.1324  0.2653
 4168SOL     OW16437   2.321   4.663   3.726  0.3501 -0.0329  1.0194
 4168SOL    HW216438   2.385   4.720   3.682 -0.5222  0.5018  0.4135
 4168SOL    HW316439   2.254   4.722   3.758  0.0273 -0.6171  1.4486
 4168SOL    MW416440   2.321   4.678   3.724 -0.0448 -0.1099 -0.4995
 4169SOL     OW16441   6.282   3.040   0.394 -0.0728  0.2489 -0.4883
 4169SOL    HW216442   6.255   2.980   0.463 -0.1886  1.2149  0.3254
 4169SOL    HW316443   6.215   3.030   0.326  0.3880 -1.1738 -0.7592
 4169SOL    MW416444   6.269   3.031   0.394  0.3109 -0.6352  0.1621
 4170SOL     OW16445   6.421   6.185   2.358 -0.7352 -0.6090 -0.0302
 4170SOL    HW216446   6.351   6.203   2.422 -0.8348  0.8538 -0.5134
 4170SOL    HW316447   6.375   6.175   2.275 -0.4227 -0.2314 -0.2501
 4170SOL    MW416448   6.406   6.186   2.356 -0.1045  0.2204  0.1960
 4171SOL     OW16449   2.054   3.520   5.238  0.4796 -0.1422  0.4668
 4171SOL    HW216450   2.149   3.532   5.236  0.3439  1.0013 -0.3201
 4171SOL    HW316451   2.019   3.606   5.214 -0.6902 -1.1828 -1.9719
 4171SOL    MW416452   2.062   3.533   5.234  0.1030  0.1541  0.2501
 4172SOL     OW16453   5.005   2.382   6.263 -0.0548 -0.0734  0.4718
 4172SOL    HW216454   5.048   2.459   6.225  3.1781 -2.3783 -1.0457
 4172SOL    HW316455   4.952   2.347   6.191 -1.0644  0.3573  0.9829
 4172SOL    MW416456   5.004   2.387   6.248  0.3847  0.7521  0.7110
 4173SOL     OW16457   2.840   4.014   3.119 -0.2038 -0.0487  0.1416
 4173SOL    HW216458   2.893   4.052   3.189 -0.3705  0.7301 -0.1407
 4173SOL    HW316459   2.868   3.923   3.115 -0.8463 -0.3489  1.8201
 4173SOL    MW416460   2.851   4.007   3.128  0.1851  0.0016  0.2452
 4174SOL     OW16461   5.863   3.108   3.931  0.2594 -0.4586 -0.1976
 4174SOL    HW216462   5.775   3.087   3.900  0.1194  0.4217 -0.4430
 4174SOL    HW316463   5.863   3.204   3.938  0.9748 -0.4999  0.4745
 4174SOL    MW416464   5.852   3.118   3.927 -0.2094  0.4174  0.4084
 4175SOL     OW16465   4.776   0.769   2.204 -0.4549 -0.1691 -0.0702
 4175SOL    HW216466   4.689   0.809   2.211 -0.1600  0.4592  0.0783
 4175SOL    HW316467   4.760   0.675   2.216 -1.4119 -0.3550 -2.3921
 4175SOL    MW416468   4.763   0.762   2.207  0.1398  0.6245  0.0025
 4176SOL     OW16469   4.329   0.833   0.895  0.3888  0.7187 -0.1360
 4176SOL    HW216470   4.389   0.901   0.926  1.8252  0.9784 -3.1303
 4176SOL    HW316471   4.382   0.754   0.888 -0.0613  0.4741 -1.0415
 4176SOL    MW416472   4.344   0.832   0.898 -0.8208 -0.0172  0.3622
 4177SOL     OW16473   1.840   3.317   1.151 -0.6010  0.2415  0.7919
 4177SOL    HW216474   1.746   3.302   1.149 -0.5226 -0.2478  0.5649
 4177SOL    HW316475   1.850   3.411   1.139 -1.0713  0.3311  1.0934
 4177SOL    MW416476   1.829   3.327   1.149 -0.5965 -0.0820 -0.1924
 4178SOL     OW16477   3.843   1.240   5.388 -0.0407  0.2971 -0.2034
 4178SOL    HW216478   3.918   1.193   5.352 -1.1039 -1.8694  0.2405
 4178SOL    HW316479   3.771   1.218   5.329 -0.4643  2.0343 -0.4005
 4178SOL    MW416480   3.843   1.231   5.375 -0.1957  0.1435  0.2876
 4179SOL     OW16481   0.082   2.178   1.271  0.0207 -0.4485  0.2817
 4179SOL    HW216482   0.090   2.273   1.268 -2.2680 -0.1989 -2.2645
 4179SOL    HW316483   0.168   2.146   1.244 -0.0169  1.0829 -2.0294
 4179SOL    MW416484   0.094   2.186   1.267  0.1474 -0.7620 -0.1966
 4180SOL     OW16485   5.120   4.053   0.774 -0.1134  0.6839  0.0194
 4180SOL    HW216486   5.111   4.051   0.679 -0.7340  0.5237  0.0726
 4180SOL    HW316487   5.196   4.109   0.791 -0.2094  0.9913 -0.5592
 4180SOL    MW416488   5.129   4.061   0.764  0.2646 -0.5841  0.2434
 4181SOL     OW16489   0.587   5.013   5.386  0.2011 -0.0717  0.7074
 4181SOL    HW216490   0.514   5.008   5.324  0.9188  0.2197 -0.1740
 4181SOL    HW316491   0.549   5.053   5.464 -0.4670  0.5366  0.0810
 4181SOL    MW416492   0.572   5.018   5.388  0.3241 -0.3632 -0.4307
 4182SOL     OW16493   5.697   1.880   2.239 -0.0533  0.3536  0.0354
 4182SOL    HW216494   5.783   1.849   2.268  0.5870  1.0818 -1.0037
 4182SOL    HW316495   5.635   1.832   2.293  0.9649 -0.9831  0.0722
 4182SOL    MW416496   5.700   1.870   2.250  0.1889 -0.1366 -0.5497
 4183SOL     OW16497   4.646   4.302   0.713 -0.2162 -1.0742 -0.0543
 4183SOL    HW216498   4.607   4.373   0.661 -0.8908 -1.5631 -0.2342
 4183SOL    HW316499   4.630   4.328   0.804  0.2222 -0.6235 -0.1030
 4183SOL    MW416500   4.639   4.315   0.718  0.2200  0.0920  0.5046
 4184SOL     OW16501   4.272   2.149   1.962 -0.7541 -0.6096  0.2725
 4184SOL    HW216502   4.255   2.067   1.917 -2.0856 -1.4318  2.1355
 4184SOL    HW316503   4.297   2.123   2.051  1.2129  0.9521  0.2665
 4184SOL    MW416504   4.273   2.135   1.968  0.4843  0.3521 -0.4659
 4185SOL     OW16505   2.441   5.611   2.480  0.1186  0.1300 -0.2696
 4185SOL    HW216506   2.483   5.697   2.482 -0.2738  0.3426 -0.8636
 4185SOL    HW316507   2.347   5.630   2.483 -0.0286 -0.1899 -2.0278
 4185SOL    MW416508   2.434   5.625   2.481 -0.5568  0.1340 -0.0984
 4186SOL     OW16509   1.740   1.763   0.390 -0.7119  0.2160  0.4459
 4186SOL    HW216510   1.658   1.783   0.346 -0.6476 -0.4170  0.0225
 4186SOL    HW316511   1.713   1.711   0.466 -0.7917  0.9948  0.9633
 4186SOL    MW416512   1.726   1.759   0.395 -0.5394  0.5700 -0.1647
 4187SOL     OW16513   0.255   1.814   4.933  0.0642 -0.3058  0.1363
 4187SOL    HW216514   0.276   1.797   5.025  0.9148 -1.8748 -0.3265
 4187SOL    HW316515   0.241   1.728   4.895  1.7830  0.1624 -1.6919
 4187SOL    MW416516   0.256   1.801   4.940 -0.2522 -0.1356 -0.2515
 4188SOL     OW16517   3.967   0.958   2.817 -0.2565 -0.3211 -0.1305
 4188SOL    HW216518   4.021   1.008   2.755  0.0496  1.4480  1.4671
 4188SOL    HW316519   4.028   0.933   2.886 -1.2076  0.7047  1.1298
 4188SOL    MW416520   3.983   0.962   2.818  0.6178 -0.0251  0.5579
 4189SOL     OW16521   4.278   2.181   1.251 -0.0024 -0.3090  0.0572
 4189SOL    HW216522   4.210   2.134   1.202  0.4385 -0.1024 -0.7626
 4189SOL    HW316523   4.301   2.121   1.322  0.8848 -1.5617 -1.2322
 4189SOL    MW416524   4.272   2.166   1.254  0.0093 -0.6142 -0.1516
 4190SOL     OW16525   2.232   3.506   0.090 -0.3472 -0.1049 -0.2870
 4190SOL    HW216526   2.315   3.550   0.109 -0.5376 -0.5759  2.0008
 4190SOL    HW316527   2.192   3.558   0.021  2.0765 -0.1906 -1.8690
 4190SOL    MW416528   2.238   3.518   0.084 -0.6759 -0.1863  0.1956
 4191SOL     OW16529   2.320  -0.025   5.837  0.1927 -0.3335 -0.0711
 4191SOL    HW216530   2.357   0.013   5.917  0.7182 -2.7839  0.9210
 4191SOL    HW316531   2.329   0.045   5.772  0.3021  1.5420  1.8179
 4191SOL    MW416532   2.326  -0.011   5.839  0.6220 -0.4019 -0.4233
 4192SOL     OW16533   5.852   3.729   5.462  0.4524  0.0276  0.0804
 4192SOL    HW216534   5.945   3.709   5.465  0.6581  1.0403  0.8122
 4192SOL    HW316535   5.810   3.644   5.446  1.4989 -0.3978 -0.5264
 4192SOL    MW416536   5.859   3.715   5.460  0.6876 -0.1416  0.3154
 4193SOL     OW16537   3.512   5.481   0.033  0.0892 -0.4245  0.3132
 4193SOL    HW216538   3.448   5.538  -0.010  0.6918  0.5181  0.6412
 4193SOL    HW316539   3.596   5.524   0.019  0.3416 -0.2182  2.1799
 4193SOL    MW416540   3.515   5.494   0.025 -0.0559 -0.2105 -0.8604
 4194SOL     OW16541   4.431   5.856   0.719  0.2557  0.6599  0.5279
 4194SOL    HW216542   4.419   5.761   0.726  0.7437  0.5853  0.3884
 4194SOL    HW316543   4.432   5.886   0.810  0.7588  0.4421  0.5995
 4194SOL    MW416544   4.430   5.847   0.732 -0.0563 -0.3361 -0.2442
 4195SOL     OW16545   5.281   0.485   6.392  0.4958 -0.2927  0.1965
 4195SOL    HW216546   5.255   0.393   6.403  0.9720 -0.4483  0.0590
 4195SOL    HW316547   5.371   0.488   6.425  0.2079  0.3055  0.9758
 4195SOL    MW416548   5.290   0.473   6.398 -0.1261 -0.5154 -0.3839
 4196SOL     OW16549   6.087   6.365   2.940  0.1088  0.1778  0.2198
 4196SOL    HW216550   6.131   6.438   2.984 -1.1109  0.2384  1.4240
 4196SOL    HW316551   6.150   6.293   2.942  1.5011  1.2817 -1.3784
 4196SOL    MW416552   6.101   6.365   2.946  0.3256 -0.1239  0.0261
 4197SOL     OW16553   2.403   4.111   2.049 -0.0408  0.2913  0.0210
 4197SOL    HW216554   2.381   4.204   2.050 -0.9360  0.0817  1.0181
 4197SOL    HW316555   2.494   4.108   2.081 -0.7513  0.6699  2.2358
 4197SOL    MW416556   2.412   4.123   2.053 -0.3979 -0.1862  0.0671
 4198SOL     OW16557   1.085   3.009   3.065 -0.5582 -0.5109 -0.3287
 4198SOL    HW216558   1.055   2.950   2.996 -0.2007 -0.5902 -0.4191
 4198SOL    HW316559   1.078   3.096   3.027 -0.6783 -0.5293 -0.3471
 4198SOL    MW416560   1.080   3.013   3.051  0.5363  0.2252  0.9951
 4199SOL     OW16561   4.238   6.055   4.055  0.0406 -0.4064  0.1950
 4199SOL    HW216562   4.229   5.969   4.013  1.1632 -1.4065  1.8528
 4199SOL    HW316563   4.193   6.045   4.139 -2.8949  1.8062 -0.9557
 4199SOL    MW416564   4.231   6.042   4.060  0.2847 -0.0512 -0.4190
 4200SOL     OW16565   0.237   5.918   1.681  0.1695 -0.5175  0.1925
 4200SOL    HW216566   0.149   5.955   1.670  0.5681  0.7414  1.0214
 4200SOL    HW316567   0.296   5.991   1.660  1.0093 -1.1300  0.3946
 4200SOL    MW416568   0.233   5.933   1.677  0.1180  0.7697 -0.3207
 4201SOL     OW16569   6.421   3.429   0.538  0.8117 -0.0562  0.9938
 4201SOL    HW216570   6.376   3.513   0.539  0.1027 -0.3315 -1.3837
 4201SOL    HW316571   6.513   3.450   0.554  0.8838  1.4059 -0.9474
 4201SOL    MW416572   6.427   3.443   0.540 -0.7075 -0.5807 -0.3744
 4202SOL     OW16573   2.048   4.606   6.284  0.1762  0.4088  0.5198
 4202SOL    HW216574   2.069   4.513   6.281  0.3946  0.4456  0.8098
 4202SOL    HW316575   1.966   4.611   6.333  0.2273  0.3802  0.6077
 4202SOL    MW416576   2.040   4.595   6.290  0.1163 -0.1976  0.1674
 4203SOL     OW16577   2.705   2.453   3.582  0.0660 -0.0464 -0.5305
 4203SOL    HW216578   2.742   2.414   3.503  0.9455  1.0404 -0.6850
 4203SOL    HW316579   2.622   2.491   3.553  0.9293  1.3965 -1.2671
 4203SOL    MW416580   2.699   2.453   3.568  1.0270  0.2781  0.1830
 4204SOL     OW16581   2.552   4.532   4.577  0.1882  0.4423 -0.2160
 4204SOL    HW216582   2.485   4.598   4.558 -0.6083 -0.5287 -0.9225
 4204SOL    HW316583   2.516   4.483   4.651  0.5028  0.4349 -0.0692
 4204SOL    MW416584   2.538   4.534   4.584 -0.3566  0.0392  0.3981
 4205SOL     OW16585   2.961   2.747   6.286  0.0034 -0.0298 -0.1685
 4205SOL    HW216586   3.026   2.700   6.338 -0.8065  0.4138  1.3077
 4205SOL    HW316587   2.947   2.691   6.210 -0.5221 -1.9705  1.2510
 4205SOL    MW416588   2.968   2.734   6.283  0.6242 -0.6826 -0.1396
 4206SOL     OW16589   4.095   0.353   6.174 -0.6835 -0.0770 -0.6921
 4206SOL    HW216590   4.106   0.334   6.081  0.4069 -1.2290 -0.3494
 4206SOL    HW316591   4.011   0.313   6.197 -0.8129 -0.0456 -1.1097
 4206SOL    MW416592   4.085   0.346   6.165  0.2787  0.2718 -0.5234
 4207SOL     OW16593   3.977   4.852   4.658  0.3751  0.6469 -0.3645
 4207SOL    HW216594   4.034   4.782   4.689  0.4200 -0.3520 -2.5082
 4207SOL    HW316595   3.942   4.891   4.738  2.4207 -0.0548  0.9667
 4207SOL    MW416596   3.980   4.848   4.673 -0.1683  0.1435  0.0838
 4208SOL     OW16597   5.719   1.520   2.185 -0.1420 -0.2901 -0.2012
 4208SOL    HW216598   5.792   1.560   2.232  0.0992 -0.9660  0.0141
 4208SOL    HW316599   5.724   1.428   2.208 -1.1455 -0.3223 -0.0817
 4208SOL    MW416600   5.730   1.513   2.194 -0.2975  0.3182  0.0629
 4209SOL     OW16601   6.106   0.319   0.102 -0.5034  0.0049  0.1535
 4209SOL    HW216602   6.076   0.347   0.189 -0.5884  0.9618 -0.1665
 4209SOL    HW316603   6.030   0.334   0.045  0.1636  1.2734 -0.4377
 4209SOL    MW416604   6.092   0.325   0.106 -0.7598  0.0181 -0.0966
 4210SOL     OW16605   4.427   0.524   0.185  0.0221  0.0478 -0.5254
 4210SOL    HW216606   4.401   0.615   0.173  0.2523  0.2436  0.3536
 4210SOL    HW316607   4.372   0.475   0.124 -1.9455  0.5207  0.7508
 4210SOL    MW416608   4.416   0.529   0.175 -0.4966 -0.1339 -0.3647
 4211SOL     OW16609   3.273   0.191   4.434  0.0385 -0.2928  0.1196
 4211SOL    HW216610   3.240   0.108   4.398 -1.6830  0.4146 -0.0467
 4211SOL    HW316611   3.290   0.245   4.358 -2.2487  0.7037  0.2253
 4211SOL    MW416612   3.271   0.187   4.419 -0.0102  0.0334 -0.7249
 4212SOL     OW16613   1.954   3.288   0.823  0.2005  0.6389  0.1340
 4212SOL    HW216614   1.915   3.207   0.856  2.3276 -0.6807 -0.3702
 4212SOL    HW316615   1.982   3.334   0.902 -2.1201  1.5380  0.4911
 4212SOL    MW416616   1.953   3.283   0.838 -0.3516  0.3189  0.3236
 4213SOL     OW16617   5.174   1.782   0.994  0.0219 -0.6602  0.3719
 4213SOL    HW216618   5.268   1.784   1.012  0.3003 -0.2188 -0.9940
 4213SOL    HW316619   5.166   1.730   0.914 -0.8426 -0.2485  0.1735
 4213SOL    MW416620   5.185   1.775   0.985 -0.0877 -0.1279 -0.0326
 4214SOL     OW16621   0.560   6.246   6.270 -0.1342 -0.0182 -0.0043
 4214SOL    HW216622   0.611   6.239   6.190 -1.0213  0.6775 -0.6502
 4214SOL    HW316623   0.482   6.193   6.254  0.2138 -0.8305  0.8580
 4214SOL    MW416624   0.557   6.238   6.257  0.0945  0.4385 -0.2417
 4215SOL     OW16625   2.929   5.006   2.163 -0.7744 -0.3965 -0.6740
 4215SOL    HW216626   3.009   4.998   2.215  0.0417  1.4139 -1.5621
 4215SOL    HW316627   2.865   5.044   2.223  0.2024  1.8209 -0.9682
 4215SOL    MW416628   2.931   5.010   2.177  0.0252  0.0992 -0.3862
 4216SOL     OW16629   2.025   2.443   4.986  0.0352 -0.5367 -0.9024
 4216SOL    HW216630   2.014   2.381   5.058  0.9093 -0.2570 -0.5131
 4216SOL    HW316631   2.119   2.460   4.983 -0.1778  0.7198 -1.0411
 4216SOL    MW416632   2.036   2.437   4.995 -0.1781  0.1089  0.1352
 4217SOL     OW16633   1.039   2.968   4.143  0.6366  0.1496 -0.3692
 4217SOL    HW216634   0.968   2.907   4.122  0.6267  0.1298 -0.2776
 4217SOL    HW316635   1.007   3.053   4.113  0.3356  0.2387  0.1986
 4217SOL    MW416636   1.025   2.971   4.136  0.1856  0.1735 -0.0224
 4218SOL     OW16637   2.521   4.177   2.672  0.0647 -0.3246 -0.5432
 4218SOL    HW216638   2.541   4.244   2.607  0.8399 -1.3279 -1.3718
 4218SOL    HW316639   2.509   4.225   2.753  1.4666  0.7585 -0.9390
 4218SOL    MW416640   2.522   4.192   2.674  0.1938 -0.0873 -0.1817
 4219SOL     OW16641   4.617   4.585   1.274 -0.1989 -0.7102  0.3717
 4219SOL    HW216642   4.639   4.597   1.182 -0.0926 -0.0977  0.4750
 4219SOL    HW316643   4.681   4.522   1.306 -0.2850 -0.9880  0.0093
 4219SOL    MW416644   4.628   4.578   1.266 -0.0144 -0.2939 -0.5635
 4220SOL     OW16645   1.657   3.909   5.936  0.0694  0.1381  0.2198
 4220SOL    HW216646   1.712   3.854   5.880 -0.6410 -2.3768  1.8129
 4220SOL    HW316647   1.599   3.956   5.876  1.2598 -0.2209 -1.2548
 4220SOL    MW416648   1.657   3.908   5.921 -0.4225  0.6417  0.3269
 4221SOL     OW16649   4.564   4.160   3.514  0.0788  0.5248  0.4547
 4221SOL    HW216650   4.631   4.097   3.487 -0.1671  1.6246 -3.2002
 4221SOL    HW316651   4.487   4.136   3.463 -1.2590  1.4120  1.9958
 4221SOL    MW416652   4.563   4.148   3.504 -0.7820  0.2852 -0.0708
 4222SOL     OW16653   2.631   6.180   5.284 -0.2517 -0.3616 -0.5464
 4222SOL    HW216654   2.668   6.265   5.260 -0.7896 -0.4296 -1.6591
 4222SOL    HW316655   2.561   6.201   5.346 -1.5588  0.1836 -2.1429
 4222SOL    MW416656   2.626   6.194   5.289  0.8110  0.2621 -0.0037
 4223SOL     OW16657   6.440   3.881   4.080 -0.3822 -0.1847  0.3510
 4223SOL    HW216658   6.510   3.821   4.055 -0.7801 -0.0765 -1.0825
 4223SOL    HW316659   6.363   3.825   4.091 -0.8019  0.0473 -1.1851
 4223SOL    MW416660   6.439   3.866   4.078 -0.1408 -0.0832  0.9674
 4224SOL     OW16661   4.415   6.106   4.482  0.2818 -0.2788  0.3307
 4224SOL    HW216662   4.500   6.090   4.523  0.8501  1.2716 -0.1777
 4224SOL    HW316663   4.356   6.122   4.556  0.0775 -2.6917  0.7581
 4224SOL    MW416664   4.419   6.106   4.497  0.2930  0.7064 -0.3230
 4225SOL     OW16665   5.443   3.058   5.078 -0.2968  0.1031 -0.3455
 4225SOL    HW216666   5.475   2.998   5.011 -1.9125 -2.8825  1.3198
 4225SOL    HW316667   5.490   3.032   5.157 -0.8802  1.2264  0.4000
 4225SOL    MW416668   5.454   3.047   5.080  0.1198 -0.6119  0.3585
 4226SOL     OW16669   1.724   6.083   3.571 -0.2568 -0.4225 -0.3395
 4226SOL    HW216670   1.742   6.146   3.501  1.4024 -1.4472 -0.9122
 4226SOL    HW316671   1.720   6.136   3.651 -2.9182  0.8624 -1.2300
 4226SOL    MW416672   1.726   6.098   3.572  0.3639  0.5998 -0.3084
 4227SOL     OW16673   0.046   3.223   0.140  0.4545 -0.2680 -0.0118
 4227SOL    HW216674   0.119   3.280   0.167  0.6273 -0.3720 -0.2528
 4227SOL    HW316675   0.061   3.208   0.046  0.7654 -1.2283  0.1847
 4227SOL    MW416676   0.058   3.229   0.131  0.1986  0.1096  0.2400
 4228SOL     OW16677   1.380   5.982   0.756  0.8219  0.0691  0.2649
 4228SOL    HW216678   1.352   5.982   0.848 -2.0501  1.2949 -0.4960
 4228SOL    HW316679   1.447   6.051   0.751 -0.2889  1.2637  1.1430
 4228SOL    MW416680   1.385   5.991   0.767  0.0388 -0.2606  0.2241
 4229SOL     OW16681   4.836   5.150   1.469  0.3482 -0.2037 -0.4562
 4229SOL    HW216682   4.853   5.159   1.562  1.1795 -0.3823 -0.5873
 4229SOL    HW316683   4.826   5.240   1.437 -0.5533 -0.1663 -0.0916
 4229SOL    MW416684   4.837   5.163   1.477 -0.5796  0.0266  0.7178
 4230SOL     OW16685   0.358   0.809   2.435 -0.0290  0.3672  0.4604
 4230SOL    HW216686   0.326   0.742   2.496 -1.7199 -0.0936 -0.8482
 4230SOL    HW316687   0.431   0.768   2.389 -0.8497 -0.4981 -0.1062
 4230SOL    MW416688   0.363   0.795   2.437  0.0372  0.5025 -0.1771
 4231SOL     OW16689   0.819   4.262   6.403 -0.1442  0.6816  0.4515
 4231SOL    HW216690   0.801   4.278   6.310  0.6895  1.5303  0.4186
 4231SOL    HW316691   0.813   4.167   6.412 -1.0110  0.6485 -0.2980
 4231SOL    MW416692   0.816   4.251   6.392 -0.4820  0.3885 -0.0834
 4232SOL     OW16693   0.711   2.960   2.012  0.0966  0.0465 -0.1859
 4232SOL    HW216694   0.685   2.955   2.104 -0.0649  1.0614 -0.1698
 4232SOL    HW316695   0.720   3.054   1.994 -0.6729 -0.0989 -1.4312
 4232SOL    MW416696   0.709   2.972   2.022 -0.0458  0.4731  0.3728
 4233SOL     OW16697   6.274   1.596   4.996  0.1693 -0.5032  0.8728
 4233SOL    HW216698   6.262   1.652   5.072 -2.0128 -0.0683  0.2596
 4233SOL    HW316699   6.292   1.509   5.034  3.3293  0.4182  1.8182
 4233SOL    MW416700   6.275   1.592   5.011  0.0813 -0.0576 -0.0844
 4234SOL     OW16701   3.259   4.884   2.902 -0.3790 -0.0902 -0.3149
 4234SOL    HW216702   3.307   4.935   2.968 -0.4351 -1.2284  0.6486
 4234SOL    HW316703   3.323   4.870   2.832 -0.2997  1.0982 -0.4972
 4234SOL    MW416704   3.274   4.889   2.902 -0.1774 -0.2470  0.0051
 4235SOL     OW16705   5.118   0.151   0.846  0.4005  0.6953 -0.3750
 4235SOL    HW216706   5.184   0.117   0.785 -0.2312  2.7399 -2.2997
 4235SOL    HW316707   5.168   0.169   0.926  1.2801 -1.8972 -0.2315
 4235SOL    MW416708   5.134   0.149   0.848  0.4597  0.5331  0.6432
 4236SOL     OW16709   0.844   1.995   0.021  1.1646  0.0048 -0.2744
 4236SOL    HW216710   0.826   2.076  -0.026  0.5812 -0.5817 -1.0920
 4236SOL    HW316711   0.853   2.021   0.113  2.0398  1.1324 -0.6622
 4236SOL    MW416712   0.843   2.009   0.027  0.1191  0.1623  0.0863
 4237SOL     OW16713   2.529   1.618   3.571 -0.0341 -0.1680 -0.4501
 4237SOL    HW216714   2.624   1.605   3.566 -0.0022 -0.0608 -0.1443
 4237SOL    HW316715   2.509   1.677   3.499 -0.0921 -1.4262 -1.5103
 4237SOL    MW416716   2.539   1.624   3.561 -0.6550  0.0865 -0.2479
 4238SOL     OW16717   2.770   2.698   0.576  0.1945  0.5202 -0.5892
 4238SOL    HW216718   2.818   2.761   0.630 -0.8804  1.2116 -0.4141
 4238SOL    HW316719   2.681   2.701   0.609 -0.0012 -0.6718 -0.9767
 4238SOL    MW416720   2.765   2.707   0.587 -0.2726  0.0610 -0.0813
 4239SOL     OW16721   4.575   4.780   1.483  0.2202  0.0620 -0.1233
 4239SOL    HW216722   4.648   4.807   1.539  0.5715  1.4644 -1.1935
 4239SOL    HW316723   4.613   4.720   1.420 -0.0391 -0.9881  0.6935
 4239SOL    MW416724   4.590   4.776   1.482 -0.2186 -0.1475 -0.1012
 4240SOL     OW16725   2.503   4.720   5.536 -0.3566  0.0005 -0.0746
 4240SOL    HW216726   2.471   4.810   5.537  0.3469  0.3415 -2.2650
 4240SOL    HW316727   2.566   4.718   5.464 -1.3330 -2.5655 -0.9709
 4240SOL    MW416728   2.507   4.732   5.526 -0.1316  0.2168  0.4724
 4241SOL     OW16729   0.794   2.863   6.427 -0.6118 -0.6350  0.5935
 4241SOL    HW216730   0.873   2.897   6.469  0.1312  0.1900 -1.3354
 4241SOL    HW316731   0.775   2.781   6.472  0.6041 -0.2036  1.9378
 4241SOL    MW416732   0.802   2.857   6.438 -0.2064  0.0552 -0.3853
 4242SOL     OW16733   2.311   2.958   3.027 -0.1724 -0.2012  0.3656
 4242SOL    HW216734   2.346   3.004   3.103  4.1871  0.0209 -1.4292
 4242SOL    HW316735   2.335   2.866   3.042  0.7994 -0.1417 -0.6982
 4242SOL    MW416736   2.319   2.952   3.039  0.5128  1.0234 -0.0707
 4243SOL     OW16737   4.909   2.148   1.571  0.3204 -0.5246 -0.2862
 4243SOL    HW216738   5.002   2.170   1.575  0.0865  0.7010 -0.8949
 4243SOL    HW316739   4.903   2.082   1.501  0.6245  0.1493 -0.9691
 4243SOL    MW416740   4.921   2.142   1.562  0.3891 -0.1979 -0.4300
 4244SOL     OW16741   0.389   2.936   1.178 -0.3409 -0.2127  0.3724
 4244SOL    HW216742   0.342   2.973   1.103  0.2036 -1.7914 -0.7909
 4244SOL    HW316743   0.477   2.919   1.145  0.0945 -0.3375  1.5728
 4244SOL    MW416744   0.394   2.938   1.164 -0.6355  0.1404  0.6787
 4245SOL     OW16745   1.656   5.717   3.325  0.2783 -0.1094  0.2652
 4245SOL    HW216746   1.659   5.636   3.275  1.2839 -0.7071  1.2574
 4245SOL    HW316747   1.618   5.781   3.264  0.9992 -0.9203 -1.0830
 4245SOL    MW416748   1.651   5.715   3.310 -0.1921  0.0371 -0.4277
 4246SOL     OW16749   1.768   1.694   2.157 -0.0427  0.0012  0.1156
 4246SOL    HW216750   1.712   1.770   2.140  1.0358  0.6503 -0.6085
 4246SOL    HW316751   1.764   1.683   2.252 -2.6037 -0.9297 -0.0146
 4246SOL    MW416752   1.760   1.703   2.167  0.1413  0.1480  0.2102
 4247SOL     OW16753   4.974   3.141   3.726  0.0709  0.0774 -0.1777
 4247SOL    HW216754   5.020   3.137   3.810 -0.7993  1.4385  0.3975
 4247SOL    HW316755   5.005   3.064   3.678  1.2221 -0.2650  1.0553
 4247SOL    MW416756   4.984   3.130   3.731  0.6476 -0.1233  0.5450
 4248SOL     OW16757   6.350   3.343   4.975  0.1835 -0.7469  0.0947
 4248SOL    HW216758   6.294   3.419   4.958  2.8402  1.3046 -0.1871
 4248SOL    HW316759   6.294   3.267   4.956 -2.3081  1.1251 -0.6013
 4248SOL    MW416760   6.335   3.343   4.970 -0.1289 -0.1485 -0.4305
 4249SOL     OW16761   5.809   5.959   3.866  0.1632  0.5961  0.3767
 4249SOL    HW216762   5.733   5.927   3.818  0.8938 -0.0798 -0.3797
 4249SOL    HW316763   5.774   6.020   3.930 -0.8740  1.5151 -1.0017
 4249SOL    MW416764   5.794   5.963   3.868 -0.0965 -0.0481 -0.0412
 4250SOL     OW16765   3.521   3.358   2.633  0.5516 -0.1666  0.2782
 4250SOL    HW216766   3.464   3.301   2.580 -1.7972  1.3140  1.0632
 4250SOL    HW316767   3.604   3.360   2.585 -0.7171 -0.7399 -2.0953
 4250SOL    MW416768   3.524   3.351   2.620  0.6323 -0.1138 -0.0940
 4251SOL     OW16769   3.998   0.621   5.916  0.0647  0.1315 -0.6579
 4251SOL    HW216770   3.955   0.544   5.952 -0.1719  0.5177 -0.1110
 4251SOL    HW316771   4.027   0.594   5.829 -1.7288  0.0221 -1.2442
 4251SOL    MW416772   3.996   0.607   5.909  0.0883 -0.7677  0.2758
 4252SOL     OW16773   4.314   3.046   2.451  0.3323  0.8551 -0.2449
 4252SOL    HW216774   4.323   2.963   2.499 -0.6403  0.5916 -0.4814
 4252SOL    HW316775   4.403   3.070   2.426  0.6401 -0.0529 -0.0533
 4252SOL    MW416776   4.327   3.038   2.454  0.0499  0.2619  0.2946
 4253SOL     OW16777   0.276   3.392   4.377  0.0288  0.2786  0.2970
 4253SOL    HW216778   0.312   3.310   4.412  0.3633 -0.8799 -2.5485
 4253SOL    HW316779   0.186   3.394   4.410  0.8279  0.2356  2.6743
 4253SOL    MW416780   0.268   3.381   4.386  0.5273  0.5180  0.0393
 4254SOL     OW16781   0.242   3.052   0.387 -0.8040 -1.0297  0.2015
 4254SOL    HW216782   0.333   3.022   0.380 -0.5994 -0.1088 -2.4420
 4254SOL    HW316783   0.242   3.116   0.457  0.8384 -0.3088 -0.4161
 4254SOL    MW416784   0.254   3.056   0.395  0.0804  0.5000  0.3131
 4255SOL     OW16785   1.647   2.633   1.442  0.5126 -0.1687 -0.0606
 4255SOL    HW216786   1.699   2.713   1.450  1.4339 -0.5949 -1.3260
 4255SOL    HW316787   1.695   2.568   1.492  0.4925 -0.2406 -0.1338
 4255SOL    MW416788   1.660   2.635   1.449 -0.4482  0.0819 -0.1092
 4256SOL     OW16789   3.091   0.184   0.321 -0.1234 -0.2090 -0.3370
 4256SOL    HW216790   3.042   0.112   0.282  0.9944 -0.3875 -1.4727
 4256SOL    HW316791   3.156   0.208   0.255  1.8976 -0.5752  1.3899
 4256SOL    MW416792   3.093   0.178   0.307  0.0540  0.4273  0.5767
 4257SOL     OW16793   0.677   3.957   4.671 -0.1194 -0.0913 -0.1966
 4257SOL    HW216794   0.624   3.923   4.743 -0.3190 -0.3573 -0.4677
 4257SOL    HW316795   0.618   3.957   4.596 -0.0581  0.6552 -0.2485
 4257SOL    MW416796   0.662   3.952   4.671  0.2304  0.2043 -0.0070
 4258SOL     OW16797   0.739   1.804   3.632  0.2691  0.1479 -0.1311
 4258SOL    HW216798   0.804   1.822   3.699 -0.1178  2.0189 -0.2023
 4258SOL    HW316799   0.658   1.842   3.666 -0.0608  0.6167 -1.3737
 4258SOL    MW416800   0.737   1.812   3.645 -0.3268 -0.1536 -0.1469
 4259SOL     OW16801   1.748   2.246   4.699  0.2359  0.0193 -0.2303
 4259SOL    HW216802   1.764   2.340   4.690  0.5302 -0.0578 -0.5118
 4259SOL    HW316803   1.734   2.233   4.793 -2.0041  0.6863 -0.4126
 4259SOL    MW416804   1.748   2.257   4.710 -0.4028  0.1464  0.2071
 4260SOL     OW16805   1.222   2.839   3.952 -0.4419 -0.1735  0.1138
 4260SOL    HW216806   1.244   2.755   3.993  1.3590 -0.4484 -1.2618
 4260SOL    HW316807   1.156   2.877   4.009 -0.3260 -1.9195  1.5143
 4260SOL    MW416808   1.216   2.833   3.965  0.0295 -0.4226  0.8501
 4261SOL     OW16809   6.215   2.654   3.277 -0.0123 -0.2194  0.5453
 4261SOL    HW216810   6.226   2.703   3.358 -2.9555  0.1502  0.8255
 4261SOL    HW316811   6.212   2.720   3.208 -1.3656 -0.1689  0.6240
 4261SOL    MW416812   6.216   2.669   3.278 -0.2887 -0.3038 -0.0965
 4262SOL     OW16813   5.494   4.555   4.194 -0.1686  0.2132 -0.5598
 4262SOL    HW216814   5.584   4.585   4.208 -0.8248  1.6799  0.9227
 4262SOL    HW316815   5.444   4.636   4.181 -1.4793 -0.4872 -0.0767
 4262SOL    MW416816   5.499   4.570   4.194  0.4440 -0.4100  0.6159
 4263SOL     OW16817   1.797   0.766   4.793  0.3620 -0.2164 -0.5699
 4263SOL    HW216818   1.805   0.830   4.723  0.4240 -2.1474 -2.4186
 4263SOL    HW316819   1.739   0.698   4.758  0.1382 -1.1074  1.3737
 4263SOL    MW416820   1.790   0.765   4.779  0.7730  0.3361  0.2133
 4264SOL     OW16821   3.340   4.262   4.997 -0.3533 -0.2309  0.2375
 4264SOL    HW216822   3.322   4.342   4.948 -0.4198  0.1789  0.9204
 4264SOL    HW316823   3.419   4.226   4.956 -0.2216  0.2774  0.0404
 4264SOL    MW416824   3.348   4.268   4.985 -0.0067  0.0984  0.4326
 4265SOL     OW16825   2.219   4.960   0.581 -0.1876  0.0743  0.2391
 4265SOL    HW216826   2.236   4.991   0.492  1.6189 -1.3758 -0.0014
 4265SOL    HW316827   2.292   4.996   0.633  0.0187 -0.8975  0.6450
 4265SOL    MW416828   2.231   4.969   0.576  0.1372 -0.3578  0.1863
 4266SOL     OW16829   5.010   4.415   0.241 -0.2912 -0.4141  0.3686
 4266SOL    HW216830   4.984   4.501   0.275 -2.7520 -0.5082 -1.0675
 4266SOL    HW316831   5.016   4.428   0.146  0.0446 -1.6714  0.2076
 4266SOL    MW416832   5.008   4.428   0.233  0.6641  0.2162 -0.7296
 4267SOL     OW16833   3.242   6.248   6.039  0.9340  0.1829  0.6301
 4267SOL    HW216834   3.185   6.303   6.093  0.8586  0.8086 -0.0717
 4267SOL    HW316835   3.325   6.246   6.087  0.8688  0.7302  0.7761
 4267SOL    MW416836   3.246   6.255   6.053  0.4735 -0.2790  0.3124
 4268SOL     OW16837   5.496   5.810   4.956 -0.2849  0.5628 -0.0504
 4268SOL    HW216838   5.578   5.788   4.999 -1.1943 -0.4234  1.2425
 4268SOL    HW316839   5.518   5.882   4.897  0.8993  2.5015  2.5689
 4268SOL    MW416840   5.510   5.817   4.954  0.1657  0.2017  0.1576
 4269SOL     OW16841   5.096   1.947   3.778 -0.4007 -0.6823 -0.0110
 4269SOL    HW216842   5.000   1.948   3.771 -0.7123 -1.9245  2.8575
 4269SOL    HW316843   5.122   2.034   3.749 -2.2029 -0.7882 -2.3136
 4269SOL    MW416844   5.087   1.959   3.773 -0.2136 -0.0693  0.1128
 4270SOL     OW16845   0.304   2.640   1.864  0.1984  0.3977  0.2606
 4270SOL    HW216846   0.337   2.730   1.859  0.4698  0.2826 -0.0408
 4270SOL    HW316847   0.363   2.596   1.926 -0.3185  0.5905  0.8998
 4270SOL    MW416848   0.316   2.646   1.871  0.4978 -0.5673 -0.1238
 4271SOL     OW16849   6.437   1.516   0.477 -0.1793  0.0081  0.1399
 4271SOL    HW216850   6.506   1.450   0.487  0.6474  0.6509 -1.0687
 4271SOL    HW316851   6.384   1.508   0.556 -0.0908 -2.0835  0.0302
 4271SOL    MW416852   6.439   1.507   0.489  0.2320 -0.3457  0.4163
 4272SOL     OW16853   4.911   5.073   2.984 -0.3386  0.2022  0.2198
 4272SOL    HW216854   4.930   5.116   2.901 -0.2215  1.8074  1.0365
 4272SOL    HW316855   4.911   5.144   3.048  2.1546 -1.2646  2.0520
 4272SOL    MW416856   4.914   5.088   2.982  0.4333  0.2369  0.1881
 4273SOL     OW16857   5.595   0.538   3.829 -0.4362  1.2282 -0.8878
 4273SOL    HW216858   5.629   0.461   3.874 -0.3559  1.3943 -0.6666
 4273SOL    HW316859   5.655   0.551   3.755 -1.7914 -0.3579 -2.3642
 4273SOL    MW416860   5.607   0.530   3.825  0.6850  0.1580 -0.0647
 4274SOL     OW16861   3.176   1.974   3.946  0.0690 -0.0284 -0.3593
 4274SOL    HW216862   3.140   1.886   3.961  0.2860  0.1860  1.8974
 4274SOL    HW316863   3.261   1.972   3.992  0.2746  1.2336 -0.6672
 4274SOL    MW416864   3.183   1.962   3.954 -0.3895 -0.5798 -0.0271
 4275SOL     OW16865   6.179   2.512   2.664  0.3757 -0.7549 -0.4475
 4275SOL    HW216866   6.085   2.498   2.651 -0.2866 -1.0529  3.5186
 4275SOL    HW316867   6.186   2.604   2.689  1.1671 -0.7546 -0.6502
 4275SOL    MW416868   6.167   2.523   2.666 -0.4224 -0.7827  0.4154
 4276SOL     OW16869   6.221   0.305   2.028  0.8771 -0.7460 -0.0820
 4276SOL    HW216870   6.217   0.400   2.021 -1.0410 -0.7346  0.4187
 4276SOL    HW316871   6.305   0.287   2.069  1.1011  0.7656  0.1676
 4276SOL    MW416872   6.232   0.315   2.033 -0.0121  0.3415 -0.4543
 4277SOL     OW16873   1.199   2.203   5.523 -0.4024  0.0513 -0.0490
 4277SOL    HW216874   1.239   2.237   5.443 -0.1562  0.6117  0.2978
 4277SOL    HW316875   1.232   2.114   5.531 -2.0240 -0.7517 -1.6368
 4277SOL    MW416876   1.208   2.196   5.514 -0.4858 -0.3541  0.6764
 4278SOL     OW16877   3.407   0.780   1.896  0.6089  0.1344 -0.0550
 4278SOL    HW216878   3.477   0.762   1.834  0.2385 -2.4300  0.1317
 4278SOL    HW316879   3.341   0.713   1.877 -0.8714  1.1913  1.1141
 4278SOL    MW416880   3.407   0.769   1.885  0.2381 -0.0841 -0.0240
 4279SOL     OW16881   6.088   2.663   4.944 -0.1796 -0.4181  0.4828
 4279SOL    HW216882   6.172   2.617   4.939 -0.7130 -1.3205 -0.7084
 4279SOL    HW316883   6.092   2.726   4.871 -0.0896  0.3410  1.1323
 4279SOL    MW416884   6.099   2.665   4.933 -0.1652  0.2139 -0.0218
 4280SOL     OW16885   3.161   1.451   3.364  0.1530 -0.0472 -0.1585
 4280SOL    HW216886   3.077   1.498   3.364  0.5045  0.5981  0.4033
 4280SOL    HW316887   3.141   1.368   3.321  0.4016  2.1536 -5.2500
 4280SOL    MW416888   3.147   1.447   3.358 -0.1820 -0.5555  0.5036
 4281SOL     OW16889   0.159   3.414   0.307 -0.2034 -0.6975  0.0467
 4281SOL    HW216890   0.158   3.506   0.279 -0.5566  0.1863  2.6891
 4281SOL    HW316891   0.083   3.406   0.364 -0.0696 -2.6175  0.0126
 4281SOL    MW416892   0.149   3.425   0.311 -0.0971 -0.5897 -0.0386
 4282SOL     OW16893   6.125   4.120   2.497  0.2918 -0.1256 -0.6961
 4282SOL    HW216894   6.183   4.195   2.483  0.8236 -0.5513 -0.8078
 4282SOL    HW316895   6.098   4.127   2.589  1.1217 -0.3373 -0.4281
 4282SOL    MW416896   6.129   4.131   2.507  0.3932 -0.2855 -0.0690
 4283SOL     OW16897   1.530   1.677   1.416 -0.5226 -0.1207 -0.7197
 4283SOL    HW216898   1.441   1.641   1.412 -0.2842 -0.8390  0.1465
 4283SOL    HW316899   1.586   1.606   1.387  0.0019 -0.7021  1.5314
 4283SOL    MW416900   1.525   1.663   1.412 -0.2376 -0.7239  0.0152
 4284SOL     OW16901   0.056   2.977   4.291  0.2564 -0.1171  0.0592
 4284SOL    HW216902   0.075   2.976   4.385 -0.4702  1.1316  0.2369
 4284SOL    HW316903  -0.036   2.949   4.285  0.3289 -0.2886 -0.2998
 4284SOL    MW416904   0.046   2.973   4.302  0.4789  0.8944 -0.1289
 4285SOL     OW16905   1.813   6.270   5.518 -0.0046 -0.9560  0.0269
 4285SOL    HW216906   1.820   6.178   5.495  2.7977 -0.8688  0.1435
 4285SOL    HW316907   1.902   6.304   5.509 -1.0124  1.8713 -0.4740
 4285SOL    MW416908   1.826   6.262   5.514  0.0330  0.1485  0.0782
 4286SOL     OW16909   6.259   4.414   0.648 -0.2446 -0.2896  0.2183
 4286SOL    HW216910   6.296   4.458   0.724 -0.0095  0.6264 -0.4045
 4286SOL    HW316911   6.248   4.483   0.583  0.5256 -1.2035 -0.9436
 4286SOL    MW416912   6.263   4.429   0.649  0.3506 -0.6114 -0.1085
 4287SOL     OW16913   4.388   2.201   2.629 -0.1014  0.0827  0.2114
 4287SOL    HW216914   4.356   2.246   2.707  0.6076 -0.5665  0.8929
 4287SOL    HW316915   4.309   2.165   2.588 -0.3008 -1.6275  1.9496
 4287SOL    MW416916   4.374   2.202   2.634 -0.5772 -0.4926 -0.2959
 4288SOL     OW16917   2.357   6.272   4.987 -0.3654 -0.5142  0.2824
 4288SOL    HW216918   2.327   6.327   4.914  0.1526 -1.5264 -0.7293
 4288SOL    HW316919   2.354   6.329   5.063 -0.4321  0.7361 -0.6263
 4288SOL    MW416920   2.353   6.287   4.987 -0.2248 -0.0880  0.0048
 4289SOL     OW16921   5.440   4.999   2.127 -0.3114 -0.4553  0.9633
 4289SOL    HW216922   5.437   4.961   2.215  1.3096 -1.2753  0.6991
 4289SOL    HW316923   5.426   4.925   2.068 -0.5809 -0.0480  0.5100
 4289SOL    MW416924   5.438   4.984   2.131  0.2192  0.0736 -0.3334
 4290SOL     OW16925   4.591   5.309   0.931  0.2757 -0.6318  0.0547
 4290SOL    HW216926   4.641   5.229   0.916  1.1949  0.1834 -1.4807
 4290SOL    HW316927   4.566   5.339   0.844 -1.2233  0.0523  0.6735
 4290SOL    MW416928   4.594   5.303   0.918 -0.4444  0.0042 -0.0717
 4291SOL     OW16929   0.626   2.469   2.982 -0.0840  0.0605 -0.0343
 4291SOL    HW216930   0.585   2.498   2.900 -0.7269 -1.7050 -0.3820
 4291SOL    HW316931   0.701   2.416   2.954 -0.1813 -0.3750  0.5039
 4291SOL    MW416932   0.630   2.466   2.968  0.4611 -0.0829 -0.3046
 4292SOL     OW16933   5.150   1.242   5.018  0.2752  0.7631 -0.1505
 4292SOL    HW216934   5.081   1.216   4.957  0.3218  1.6521 -0.5980
 4292SOL    HW316935   5.126   1.331   5.044 -1.1253 -0.3801  3.0701
 4292SOL    MW416936   5.137   1.250   5.014 -0.1981 -0.1356 -0.0023
 4293SOL     OW16937   1.169   5.854   4.367  0.3536 -0.8468 -0.7020
 4293SOL    HW216938   1.106   5.924   4.348  0.8387 -0.7091 -1.8469
 4293SOL    HW316939   1.125   5.800   4.433 -0.5350 -0.1698 -0.7195
 4293SOL    MW416940   1.155   5.856   4.373  0.4398  0.1243  0.0279
 4294SOL     OW16941   5.185   2.867   4.945  0.1410  0.0655 -0.0231
 4294SOL    HW216942   5.244   2.809   4.993  0.3381  0.8391  0.6858
 4294SOL    HW316943   5.099   2.850   4.983 -0.1379 -1.0906 -1.0827
 4294SOL    MW416944   5.181   2.857   4.956  0.2577 -0.4003 -0.1158
 4295SOL     OW16945   4.611   0.410   1.413 -0.2822  0.1372 -0.0617
 4295SOL    HW216946   4.586   0.501   1.432  1.3605  1.4169 -3.2468
 4295SOL    HW316947   4.696   0.399   1.454 -0.8396 -0.2969  1.0195
 4295SOL    MW416948   4.619   0.421   1.421 -0.0386  0.3020 -0.1686
 4296SOL     OW16949   2.864   1.164   5.137 -0.0058  0.3084  0.6575
 4296SOL    HW216950   2.785   1.112   5.118  0.5861 -0.5890  0.5650
 4296SOL    HW316951   2.834   1.255   5.136 -0.6896  0.1042 -1.1867
 4296SOL    MW416952   2.849   1.169   5.134  0.9463 -0.3351 -0.2719
 4297SOL     OW16953   2.721   0.824   3.477 -0.2211  0.0448 -0.3660
 4297SOL    HW216954   2.787   0.840   3.409 -2.4020  0.9337 -2.3956
 4297SOL    HW316955   2.713   0.907   3.522  0.2170 -0.1388  0.0550
 4297SOL    MW416956   2.729   0.837   3.474 -0.4464 -0.3384 -0.0079
 4298SOL     OW16957   3.397   4.020   0.582 -0.2112 -0.2897 -0.2169
 4298SOL    HW216958   3.326   4.082   0.601  0.5240  0.8804 -1.1224
 4298SOL    HW316959   3.458   4.031   0.654  0.3749  0.7818 -0.8453
 4298SOL    MW416960   3.396   4.029   0.594 -0.3181  0.5401 -0.2356
 4299SOL     OW16961   0.109   4.182   2.548  0.1804 -0.0226  0.4304
 4299SOL    HW216962   0.072   4.195   2.635 -1.7989  2.0719 -0.6059
 4299SOL    HW316963   0.155   4.264   2.529 -0.4469  0.0476 -0.9137
 4299SOL    MW416964   0.110   4.195   2.557 -0.2620  0.2160 -0.2100
 4300SOL     OW16965   2.365   5.917   3.951  0.1675 -0.2258  0.3675
 4300SOL    HW216966   2.319   5.945   4.030 -0.9419  0.6184 -0.5411
 4300SOL    HW316967   2.300   5.869   3.900  0.2793  0.8616 -0.8774
 4300SOL    MW416968   2.351   5.914   3.954  0.1385 -0.0124  0.8815
 4301SOL     OW16969   0.232   5.112   0.247  0.3760 -0.3685  0.2687
 4301SOL    HW216970   0.242   5.066   0.330  1.8111 -0.3894  0.1037
 4301SOL    HW316971   0.169   5.059   0.198 -0.6632 -0.2343  1.3998
 4301SOL    MW416972   0.225   5.099   0.251  0.0416  0.6046 -0.2378
 4302SOL     OW16973   0.582   6.268   4.223  0.6997  0.3479 -0.0859
 4302SOL    HW216974   0.524   6.192   4.234  0.3651  0.7901  1.5195
 4302SOL    HW316975   0.638   6.245   4.149  1.8996 -2.3392  1.4936
 4302SOL    MW416976   0.582   6.255   4.215  0.6645 -0.5777  0.2775
 4303SOL     OW16977   1.326   1.163   3.358  0.0007  0.3460 -1.1166
 4303SOL    HW216978   1.396   1.218   3.392 -0.4130  0.5184 -0.5299
 4303SOL    HW316979   1.289   1.214   3.285 -0.9896  1.2945  0.0062
 4303SOL    MW416980   1.330   1.177   3.353  0.4065  0.5021  0.2599
 4304SOL     OW16981   1.175   3.241   6.374  0.2350  0.6910  0.0025
 4304SOL    HW216982   1.235   3.195   6.434  0.5075  0.3563 -0.5229
 4304SOL    HW316983   1.222   3.243   6.291 -0.3832  0.6571 -0.3463
 4304SOL    MW416984   1.189   3.235   6.371  0.1337 -0.9359 -0.7383
 4305SOL     OW16985   2.158   2.437   5.497  0.1365 -0.6930 -0.1039
 4305SOL    HW216986   2.080   2.489   5.517 -0.1718 -1.1684 -0.0568
 4305SOL    HW316987   2.221   2.461   5.565  0.2410  0.1206 -0.4765
 4305SOL    MW416988   2.156   2.447   5.509  0.0905  0.4415 -0.3218
 4306SOL     OW16989   3.772   5.524   4.674  0.2742  0.8347 -0.2976
 4306SOL    HW216990   3.779   5.443   4.725  0.3335  1.8598  1.4101
 4306SOL    HW316991   3.717   5.501   4.599  1.6372 -1.1753 -0.7470
 4306SOL    MW416992   3.766   5.510   4.671 -0.0221  0.0558  0.9000
 4307SOL     OW16993   6.237   5.563   1.921  0.4100  0.3619 -0.5799
 4307SOL    HW216994   6.229   5.470   1.944  0.0942  0.5432  0.0533
 4307SOL    HW316995   6.183   5.572   1.842  0.0260  0.1089 -0.3532
 4307SOL    MW416996   6.229   5.552   1.914  0.1592 -0.6361  0.2214
 4308SOL     OW16997   2.388   1.111   2.581 -0.3372  0.0580 -0.1423
 4308SOL    HW216998   2.426   1.108   2.493 -0.2352  1.2980 -0.1658
 4308SOL    HW316999   2.425   1.035   2.626  1.3992  0.6479 -0.4922
 4308SOL    MW417000   2.398   1.101   2.575 -0.2432 -0.0878  0.1977
 4309SOL     OW17001   4.043   1.868   5.293 -0.0760  0.2183  0.4766
 4309SOL    HW217002   4.025   1.894   5.383  0.6159  2.2403  0.0722
 4309SOL    HW317003   4.068   1.775   5.300 -1.7005 -0.1625  2.1146
 4309SOL    MW417004   4.044   1.859   5.306  0.2934 -0.1798  0.4086
 4310SOL     OW17005   4.114   2.573   0.769 -0.1505 -0.0921 -0.0833
 4310SOL    HW217006   4.104   2.659   0.810 -1.8107 -1.0317  1.6517
 4310SOL    HW317007   4.189   2.534   0.813  0.8934  0.6070 -1.1970
 4310SOL    MW417008   4.123   2.579   0.780 -0.3324 -0.7125  0.3828
 4311SOL     OW17009   5.190   5.816   0.248 -0.9147  0.3196  0.1672
 4311SOL    HW217010   5.280   5.826   0.217 -0.7941 -2.6331 -0.7467
 4311SOL    HW317011   5.136   5.831   0.169 -1.0158 -0.7029  0.0284
 4311SOL    MW417012   5.194   5.819   0.233 -0.1710 -0.4909 -0.1877
 4312SOL     OW17013   3.268   1.442   5.334  0.2092  0.0380  0.3721
 4312SOL    HW217014   3.341   1.389   5.367 -0.2448 -1.0656 -0.3312
 4312SOL    HW317015   3.273   1.524   5.384 -0.0477 -1.2806  2.6658
 4312SOL    MW417016   3.278   1.446   5.345  0.4793 -0.1866 -0.0948
 4313SOL     OW17017   4.748   1.559   4.086 -0.1674 -0.0019  0.5328
 4313SOL    HW217018   4.724   1.622   4.019  1.1994  1.0365  0.9783
 4313SOL    HW317019   4.708   1.593   4.166 -2.1853 -1.4773  0.2395
 4313SOL    MW417020   4.739   1.572   4.088  0.1970  0.6165 -0.2071
 4314SOL     OW17021   0.580   2.194   0.789 -0.2940  0.4566 -0.0803
 4314SOL    HW217022   0.622   2.109   0.778  0.1946  0.9828 -3.2877
 4314SOL    HW317023   0.594   2.216   0.881 -0.4042 -2.8429  0.8581
 4314SOL    MW417024   0.587   2.186   0.800  0.3689 -0.0922  0.6220
 4315SOL     OW17025   2.444   3.926   3.840 -0.0259 -0.0730 -0.3571
 4315SOL    HW217026   2.504   3.851   3.841 -0.4261 -0.4086 -0.9086
 4315SOL    HW317027   2.490   3.994   3.791  1.3874  0.9626  2.2043
 4315SOL    MW417028   2.458   3.925   3.834  0.0602  0.7597 -0.4128
 4316SOL     OW17029   6.005   2.817   4.666  0.4088 -0.1726 -0.0102
 4316SOL    HW217030   5.965   2.767   4.595 -0.3563  0.1658  0.1709
 4316SOL    HW317031   5.933   2.868   4.703  1.1542  1.0233 -0.1610
 4316SOL    MW417032   5.990   2.817   4.661  0.3389  0.0094 -0.2739
 4317SOL     OW17033   3.097   3.915   0.745 -0.2487 -0.2287  0.4474
 4317SOL    HW217034   3.137   3.964   0.817  0.1386 -1.6922  1.2822
 4317SOL    HW317035   3.051   3.843   0.788 -0.4608 -0.8300 -0.7382
 4317SOL    MW417036   3.096   3.912   0.760 -0.2728 -0.4824 -0.5998
 4318SOL     OW17037   0.477   5.530   1.435 -0.2480  0.2942  0.5545
 4318SOL    HW217038   0.497   5.469   1.506  0.8319  0.6984  0.6154
 4318SOL    HW317039   0.534   5.502   1.363 -0.5213  0.5798  0.2198
 4318SOL    MW417040   0.487   5.518   1.435  0.1037  0.2262  0.0156
 4319SOL     OW17041   5.907   1.191   4.601  0.5465 -0.0209 -0.2021
 4319SOL    HW217042   5.861   1.274   4.612 -4.0767 -2.4340  1.2497
 4319SOL    HW317043   5.898   1.171   4.508 -1.8722 -0.5314  0.0695
 4319SOL    MW417044   5.899   1.199   4.590 -0.4230 -0.3745 -0.0384
 4320SOL     OW17045   5.651   5.214   1.530 -0.5114 -0.3408 -0.1570
 4320SOL    HW217046   5.679   5.182   1.615 -0.8813  1.0314  0.5130
 4320SOL    HW317047   5.670   5.143   1.469 -0.1055 -1.2773  1.0457
 4320SOL    MW417048   5.657   5.201   1.533  0.1205 -0.8084 -0.0020
 4321SOL     OW17049   6.172   2.514   0.052 -0.5249  0.3848  0.1637
 4321SOL    HW217050   6.173   2.470   0.137 -0.7776  1.6367  0.8414
 4321SOL    HW317051   6.260   2.500   0.017 -0.8068 -1.2469  0.0148
 4321SOL    MW417052   6.183   2.507   0.058  0.1467  0.1218 -0.1607
 4322SOL     OW17053   2.382   5.343   3.292 -0.7586 -0.3146  0.3801
 4322SOL    HW217054   2.369   5.412   3.357  3.0105  1.6597 -0.6430
 4322SOL    HW317055   2.451   5.288   3.328 -0.1558 -0.4940 -0.9917
 4322SOL    MW417056   2.389   5.345   3.305 -0.4103  0.5599 -0.3962
 4323SOL     OW17057   5.698   4.676   4.593 -0.0399 -0.0622 -0.2562
 4323SOL    HW217058   5.637   4.671   4.519  1.5828  1.0430 -1.7892
 4323SOL    HW317059   5.660   4.741   4.651 -1.1649 -0.6598 -0.3074
 4323SOL    MW417060   5.685   4.684   4.591 -0.7653 -0.2470  0.5735
 4324SOL     OW17061   6.145   1.974   2.966  0.4405  0.1681 -0.4375
 4324SOL    HW217062   6.202   1.913   2.918  2.4216  0.5646  1.2492
 4324SOL    HW317063   6.149   1.944   3.057  0.9276  2.3578  0.3293
 4324SOL    MW417064   6.153   1.962   2.972  0.0033  0.1309  0.1926
 4325SOL     OW17065   6.126   5.936   1.583 -0.2085 -0.0742  0.1102
 4325SOL    HW217066   6.121   6.030   1.569  1.8718  0.1838  0.8171
 4325SOL    HW317067   6.037   5.905   1.567 -1.8462  2.4400  3.2821
 4325SOL    MW417068   6.114   5.944   1.579  0.1146 -0.4062 -0.6087
 4326SOL     OW17069   2.039   1.981   4.765  0.2327  0.3078  0.2173
 4326SOL    HW217070   1.975   1.932   4.714 -1.0527 -0.0732  2.0937
 4326SOL    HW317071   2.057   2.059   4.713  0.7342 -1.0921 -1.8434
 4326SOL    MW417072   2.033   1.985   4.751 -0.2248  0.3301 -0.2931
 4327SOL     OW17073   0.758   5.802   0.993 -0.1853  0.0468  0.3013
 4327SOL    HW217074   0.712   5.727   0.955  0.6704 -0.1757 -0.3302
 4327SOL    HW317075   0.712   5.820   1.075 -3.4908  1.8993 -1.7582
 4327SOL    MW417076   0.746   5.794   0.999  0.1611  0.1163 -0.0188
 4328SOL     OW17077   0.234   4.622   3.288  0.3524 -0.5262  0.4697
 4328SOL    HW217078   0.298   4.639   3.358  2.1199  0.0261 -1.1993
 4328SOL    HW317079   0.265   4.674   3.214 -1.9253 -0.4615 -0.5037
 4328SOL    MW417080   0.247   4.631   3.288  0.1260 -0.7841 -0.0874
 4329SOL     OW17081   1.751   1.586   4.737 -0.2382  0.7343  0.2196
 4329SOL    HW217082   1.803   1.560   4.814 -2.5026 -0.9347  1.2910
 4329SOL    HW317083   1.790   1.669   4.709  1.1826  0.9893  2.6720
 4329SOL    MW417084   1.763   1.593   4.744 -0.2390 -0.9794  0.0652
 4330SOL     OW17085   3.667   0.642   0.919  0.0752  0.3883  0.3711
 4330SOL    HW217086   3.723   0.565   0.935 -0.5491 -0.5230 -1.5355
 4330SOL    HW317087   3.722   0.701   0.868 -0.5323 -0.3831 -1.2533
 4330SOL    MW417088   3.682   0.640   0.915  0.3505 -0.0674  0.2306
 4331SOL     OW17089   5.715   1.460   2.580  0.6023 -0.2344  0.0170
 4331SOL    HW217090   5.718   1.380   2.631 -0.2762 -1.4925 -1.8060
 4331SOL    HW317091   5.788   1.452   2.518 -1.2029 -1.0936 -2.1280
 4331SOL    MW417092   5.725   1.449   2.579 -0.1009 -0.4572 -0.2934
 4332SOL     OW17093   5.231   2.601   3.780 -0.1203  0.1296 -0.1577
 4332SOL    HW217094   5.246   2.606   3.875 -1.6867  0.7460  0.0778
 4332SOL    HW317095   5.137   2.589   3.771 -0.2355  1.7748 -1.6678
 4332SOL    MW417096   5.221   2.600   3.791  0.0478 -0.5795  0.2481
 4333SOL     OW17097   5.461   2.765   2.408 -0.3657  0.0569  1.1623
 4333SOL    HW217098   5.454   2.750   2.502 -1.8008  1.9127  1.3992
 4333SOL    HW317099   5.436   2.681   2.369 -0.8826 -0.3927  2.4111
 4333SOL    MW417100   5.457   2.752   2.415  0.5446 -0.2990  0.2007
 4334SOL     OW17101   0.690   1.306   2.311  0.4069  0.3655 -0.2259
 4334SOL    HW217102   0.774   1.274   2.343  0.2668 -1.1180 -1.2368
 4334SOL    HW317103   0.626   1.273   2.374  0.3917 -0.3425 -0.5967
 4334SOL    MW417104   0.693   1.297   2.324  0.3782  0.7031  0.7355
 4335SOL     OW17105   1.455   2.865   4.453 -0.4804  0.1175  0.4313
 4335SOL    HW217106   1.522   2.895   4.392 -1.2103  0.1879 -0.3471
 4335SOL    HW317107   1.400   2.807   4.402  0.0856 -1.5008  1.5613
 4335SOL    MW417108   1.457   2.861   4.439 -0.1365 -0.0753  0.1578
 4336SOL     OW17109   2.944   0.218   4.603 -0.3687 -0.4155 -0.1475
 4336SOL    HW217110   2.901   0.139   4.571 -0.4280 -0.1194 -0.8156
 4336SOL    HW317111   3.021   0.185   4.650 -0.5785 -0.8812 -0.1200
 4336SOL    MW417112   2.949   0.203   4.605  0.0277  0.0915 -0.5476
 4337SOL     OW17113   4.681   4.911   1.880  0.0825  0.2711 -0.5236
 4337SOL    HW217114   4.630   4.992   1.875 -0.9559 -0.3898 -1.0076
 4337SOL    HW317115   4.700   4.889   1.788 -0.5064 -0.5598 -0.4522
 4337SOL    MW417116   4.677   4.919   1.867  0.5715 -0.4477 -0.1578
 4338SOL     OW17117   2.558   2.390   6.396  0.5080 -0.2566 -0.0934
 4338SOL    HW217118   2.584   2.436   6.476 -0.3345 -0.7856  0.4987
 4338SOL    HW317119   2.637   2.389   6.342  1.0253  0.3010  0.6397
 4338SOL    MW417120   2.572   2.396   6.399  0.6257 -0.1966  0.6249
 4339SOL     OW17121   2.065   4.007   3.940 -0.1787  0.2807 -0.3427
 4339SOL    HW217122   2.001   4.065   3.981  0.3743  0.4809  0.2589
 4339SOL    HW317123   2.056   4.024   3.847 -0.3058  1.0477 -0.2017
 4339SOL    MW417124   2.056   4.017   3.933 -0.4913  0.3970 -0.3735
 4340SOL     OW17125   1.554   5.031   5.619  0.1643 -0.4479  0.1109
 4340SOL    HW217126   1.505   5.051   5.539 -0.2791  0.6374  0.6209
 4340SOL    HW317127   1.487   5.000   5.680  0.0438  1.1215  0.8391
 4340SOL    MW417128   1.539   5.030   5.616 -0.4587  0.0622 -0.4829
 4341SOL     OW17129   0.999   3.136   1.450 -0.1837  0.4183 -0.3038
 4341SOL    HW217130   1.086   3.135   1.411  0.8114 -0.4126  1.8208
 4341SOL    HW317131   1.008   3.188   1.529 -1.6850  0.4718 -0.1305
 4341SOL    MW417132   1.011   3.143   1.455  0.1645 -0.5206 -0.1626
 4342SOL     OW17133   3.389   1.407   6.053  0.4627 -0.0563 -0.7648
 4342SOL    HW217134   3.313   1.448   6.012 -0.4189 -0.3360  0.5115
 4342SOL    HW317135   3.443   1.377   5.980 -1.2579 -0.9616 -1.7207
 4342SOL    MW417136   3.386   1.409   6.038 -0.1768 -0.0450  0.2483
 4343SOL     OW17137   3.745   6.093   3.806  0.5566 -0.4127  0.6622
 4343SOL    HW217138   3.746   6.184   3.834 -1.8424 -0.1062 -0.0184
 4343SOL    HW317139   3.682   6.050   3.864  0.3762 -1.2349 -0.1103
 4343SOL    MW417140   3.737   6.099   3.817 -0.0862 -0.7302 -0.2536
 4344SOL     OW17141   2.661   0.858   5.981  0.3727 -0.4146 -0.2373
 4344SOL    HW217142   2.655   0.946   5.944  0.7462 -0.8150 -1.2830
 4344SOL    HW317143   2.658   0.872   6.076 -2.2623  0.5192 -0.3691
 4344SOL    MW417144   2.660   0.871   5.989  0.1652  0.0959  0.3814
 4345SOL     OW17145   1.625   3.711   5.191  0.5592 -0.3729 -0.4743
 4345SOL    HW217146   1.597   3.662   5.113  0.0306  0.7142 -0.9839
 4345SOL    HW317147   1.547   3.716   5.246 -0.0014  1.6322 -1.3581
 4345SOL    MW417148   1.611   3.705   5.188  0.6165  0.5923 -0.4880
 4346SOL     OW17149   2.596   4.062   5.241 -0.3972  0.5409  0.1314
 4346SOL    HW217150   2.617   4.056   5.334  1.3062 -0.8934 -0.2884
 4346SOL    HW317151   2.635   4.145   5.213 -1.6687  1.4055  0.8339
 4346SOL    MW417152   2.604   4.072   5.249 -0.3758  0.2365 -0.1486
 4347SOL     OW17153   4.394   3.896   1.255  0.9088 -0.5488  1.0042
 4347SOL    HW217154   4.487   3.872   1.252  1.4432  1.4319 -0.1668
 4347SOL    HW317155   4.379   3.921   1.346  1.5268 -0.8817  1.2051
 4347SOL    MW417156   4.404   3.896   1.266 -0.0580  0.1352  0.0392
 4348SOL     OW17157   2.965   0.087   1.465  0.2878 -0.5736 -0.0099
 4348SOL    HW217158   2.945   0.107   1.557  0.2149 -0.4008 -0.0639
 4348SOL    HW317159   3.022   0.158   1.437  0.3272 -0.6382 -0.0936
 4348SOL    MW417160   2.970   0.099   1.474  0.3348  0.0940  0.1434
 4349SOL     OW17161   4.503   4.309   0.379  0.2055  0.1289 -0.2632
 4349SOL    HW217162   4.432   4.314   0.316  0.2884  2.1851 -0.2755
 4349SOL    HW317163   4.482   4.234   0.435 -3.2313  1.9445  1.1543
 4349SOL    MW417164   4.491   4.300   0.378 -0.0078 -0.0209  0.0050
 4350SOL     OW17165   5.338   4.293   2.685  0.1422  0.0723  0.1344
 4350SOL    HW217166   5.257   4.290   2.736 -0.2703 -1.8702 -0.5473
 4350SOL    HW317167   5.344   4.384   2.656 -2.6344 -0.0208 -1.0805
 4350SOL    MW417168   5.328   4.304   2.688  1.0298  0.1650 -0.1399
 4351SOL     OW17169   2.176   1.030   3.450  0.5195 -0.1880  0.5872
 4351SOL    HW217170   2.133   1.088   3.512 -1.3061  0.6041 -1.2828
 4351SOL    HW317171   2.264   1.018   3.485 -0.5804 -0.3003  3.5728
 4351SOL    MW417172   2.182   1.036   3.463 -0.2104  0.0578  0.1436
 4352SOL     OW17173   0.516   2.954   0.370 -0.5493  0.1763 -0.1551
 4352SOL    HW217174   0.549   2.865   0.361  2.5868  1.2458 -0.6386
 4352SOL    HW317175   0.576   2.996   0.432  0.2996  2.8192 -2.5089
 4352SOL    MW417176   0.529   2.948   0.377 -0.0908 -0.2273  0.1586
 4353SOL     OW17177   2.923   4.805   3.455 -0.2580  0.7170  0.3857
 4353SOL    HW217178   2.836   4.785   3.423 -0.0141 -1.0334  0.7378
 4353SOL    HW317179   2.909   4.837   3.544 -0.5823  1.1536  0.1823
 4353SOL    MW417180   2.910   4.807   3.462 -0.7262 -0.1106  0.4261
 4354SOL     OW17181   4.798   6.209   3.877  0.2666  0.1051  0.0993
 4354SOL    HW217182   4.723   6.268   3.872  0.7120  0.6195 -0.7465
 4354SOL    HW317183   4.821   6.208   3.970 -0.6153  0.1473  0.3247
 4354SOL    MW417184   4.791   6.217   3.889  0.2528 -0.2484  0.7977
 4355SOL     OW17185   4.415   4.737   5.049 -0.4835  0.3515  0.8371
 4355SOL    HW217186   4.359   4.659   5.052 -0.8752  0.6187  0.5121
 4355SOL    HW317187   4.392   4.779   4.966 -0.8639  1.2463  1.3889
 4355SOL    MW417188   4.404   4.732   5.039 -0.0892  0.2482  0.2672
 4356SOL     OW17189   5.095   2.127   6.335  0.1942  0.4171 -0.4370
 4356SOL    HW217190   5.082   2.054   6.275 -0.8676  0.0171  0.2532
 4356SOL    HW317191   5.038   2.196   6.303  1.2859  1.0038 -1.1568
 4356SOL    MW417192   5.086   2.126   6.323  0.2155  0.1972  0.0703
 4357SOL     OW17193   4.190   3.628   3.702  0.1128  0.1351 -0.0675
 4357SOL    HW217194   4.267   3.576   3.727 -0.0237  0.5691  1.2964
 4357SOL    HW317195   4.214   3.717   3.725 -1.4664  0.0638  2.0870
 4357SOL    MW417196   4.204   3.633   3.708 -0.3581 -0.0277 -0.5299
 4358SOL     OW17197   6.067   4.048   6.341  0.1707 -0.1166  0.5780
 4358SOL    HW217198   6.061   3.956   6.316 -1.5866  0.3882 -1.0773
 4358SOL    HW317199   6.151   4.076   6.305  0.2835 -0.8428  0.2484
 4358SOL    MW417200   6.077   4.039   6.333 -0.0109 -0.1646 -0.0433
 4359SOL     OW17201   6.363  -0.030   1.543  0.1640 -0.0419 -0.3370
 4359SOL    HW217202   6.440  -0.073   1.506 -1.1681 -2.1611 -0.7944
 4359SOL    HW317203   6.386  -0.015   1.635  1.0203 -0.8721 -0.4018
 4359SOL    MW417204   6.376  -0.034   1.550 -0.0604  0.0445 -0.0020
 4360SOL     OW17205   0.704   0.785   1.977 -0.3826 -0.5333 -0.3029
 4360SOL    HW217206   0.749   0.796   2.060  1.9241 -0.4683 -1.4771
 4360SOL    HW317207   0.618   0.824   1.991 -0.8418 -2.3035  2.6109
 4360SOL    MW417208   0.699   0.792   1.990 -0.2702  0.6507 -0.3628
 4361SOL     OW17209   4.549   1.626   5.917  0.3067  0.6772 -1.0393
 4361SOL    HW217210   4.642   1.623   5.893  0.6374 -1.2944  0.2675
 4361SOL    HW317211   4.510   1.552   5.872 -0.1813  0.2376  0.0710
 4361SOL    MW417212   4.556   1.616   5.908  0.5361  0.5195  0.1806
 4362SOL     OW17213   2.504   0.406   4.565  0.0800  0.1387 -0.6350
 4362SOL    HW217214   2.421   0.455   4.566  0.0867  0.1470 -0.1531
 4362SOL    HW317215   2.572   0.473   4.560  0.1018  0.2124  0.3593
 4362SOL    MW417216   2.502   0.421   4.564 -0.5886  0.3794  0.2537
 4363SOL     OW17217   4.536   3.807   6.103  0.0527 -0.5491 -0.0668
 4363SOL    HW217218   4.595   3.740   6.139  0.5808  0.7225  1.6137
 4363SOL    HW317219   4.528   3.872   6.174 -1.3784  0.5709 -1.1875
 4363SOL    MW417220   4.543   3.807   6.117 -0.2061 -0.1791  0.0270
 4364SOL     OW17221   1.657   3.745   0.586  0.6888  0.2005 -0.4747
 4364SOL    HW217222   1.591   3.814   0.578  0.0383 -0.2531  0.6937
 4364SOL    HW317223   1.717   3.761   0.513 -1.0518  0.2340 -1.9642
 4364SOL    MW417224   1.656   3.757   0.576 -0.5753  0.6296 -0.0092
 4365SOL     OW17225   4.599   4.110   1.115 -0.0544  0.0593 -0.0345
 4365SOL    HW217226   4.572   4.044   1.051  0.6015  1.0394 -1.3599
 4365SOL    HW317227   4.690   4.090   1.134  0.5523  1.3343 -1.4526
 4365SOL    MW417228   4.607   4.098   1.109 -0.2313  0.7116  0.0328
 4366SOL     OW17229   5.741   5.725   5.053 -0.2172  0.4473 -0.3082
 4366SOL    HW217230   5.776   5.704   5.139 -1.5081  0.8529  0.3468
 4366SOL    HW317231   5.775   5.812   5.033 -0.5952  0.7141  0.1873
 4366SOL    MW417232   5.750   5.734   5.062  0.1562 -0.2213  0.7753
 4367SOL     OW17233   4.657   2.322   4.494 -0.2389  0.8294  0.1879
 4367SOL    HW217234   4.735   2.322   4.551  0.7285 -1.6964 -0.9829
 4367SOL    HW317235   4.678   2.385   4.425 -0.0319  1.4917  0.8377
 4367SOL    MW417236   4.670   2.331   4.493  0.4707  0.3674  0.2906
 4368SOL     OW17237   6.344   3.840   5.560 -0.0443  0.0447  0.0456
 4368SOL    HW217238   6.424   3.819   5.512 -0.2552  0.7124 -0.6229
 4368SOL    HW317239   6.374   3.881   5.641  0.3033 -0.2698  0.0737
 4368SOL    MW417240   6.358   3.843   5.564 -0.0232 -0.0190  0.2492
 4369SOL     OW17241   3.582   1.800   3.792  0.3278 -0.0690 -0.3220
 4369SOL    HW217242   3.511   1.859   3.817  0.2080 -0.1181 -0.5419
 4369SOL    HW317243   3.538   1.723   3.756  0.4988  0.2318 -1.2012
 4369SOL    MW417244   3.567   1.798   3.790  0.0189 -0.1695  0.8411
 4370SOL     OW17245   4.754   5.206   3.283  0.1077  0.2628 -0.1003
 4370SOL    HW217246   4.832   5.243   3.240  0.4416 -1.2148 -0.8653
 4370SOL    HW317247   4.680   5.250   3.241  0.4941  2.0970  1.0285
 4370SOL    MW417248   4.755   5.216   3.272  0.3114 -0.0826 -0.2062
 4371SOL     OW17249   2.009   0.799   4.157 -0.0357  0.1243  0.0209
 4371SOL    HW217250   2.079   0.863   4.158  0.9480 -0.8541  2.7516
 4371SOL    HW317251   2.050   0.718   4.126  0.0341 -0.3935  1.3995
 4371SOL    MW417252   2.023   0.797   4.153 -0.0155  0.3949 -0.4387
 4372SOL     OW17253   4.127   0.852   0.665  0.0034  0.3532 -0.0156
 4372SOL    HW217254   4.125   0.934   0.616  1.2287  0.0180 -0.6795
 4372SOL    HW317255   4.175   0.874   0.745 -1.7389  0.8282  0.9490
 4372SOL    MW417256   4.133   0.866   0.669  0.7015  0.0672 -0.7363
 4373SOL     OW17257   3.341   2.223   2.761  0.3859 -0.3380  0.1853
 4373SOL    HW217258   3.322   2.299   2.706 -0.4285 -1.1822 -0.7581
 4373SOL    HW317259   3.255   2.184   2.779  0.6810 -0.3193  1.7332
 4373SOL    MW417260   3.327   2.228   2.756  0.5808 -0.3293 -0.4208
 4374SOL     OW17261   6.022   4.215   5.822  0.0571  0.1550 -0.0049
 4374SOL    HW217262   5.945   4.209   5.766  0.0744  0.7249 -0.0897
 4374SOL    HW317263   5.986   4.231   5.910  0.0237 -0.8603  0.1834
 4374SOL    MW417264   6.007   4.216   5.826 -0.3512  0.1302  0.1704
 4375SOL     OW17265   1.881   4.611   6.038  0.7551  0.1425  0.6693
 4375SOL    HW217266   1.956   4.619   6.096  0.7337  0.6808  0.6268
 4375SOL    HW317267   1.856   4.701   6.018  1.0639 -0.0241 -0.5508
 4375SOL    MW417268   1.887   4.624   6.043  0.4561 -1.0724  0.7558
 4376SOL     OW17269   5.045   0.263   2.456 -0.9518  0.0971  0.0195
 4376SOL    HW217270   4.966   0.310   2.482 -0.6943 -0.7001  2.5088
 4376SOL    HW317271   5.117   0.317   2.490 -0.4480  0.2716 -1.2744
 4376SOL    MW417272   5.044   0.276   2.464 -0.0181  0.1224 -0.7456
 4377SOL     OW17273   2.443   5.486   1.368 -0.0152 -0.6001  0.1892
 4377SOL    HW217274   2.476   5.573   1.392 -1.4835  0.1409 -0.3815
 4377SOL    HW317275   2.370   5.504   1.309 -1.8192 -2.1449  1.8418
 4377SOL    MW417276   2.438   5.500   1.363  0.2654  0.8694 -0.0526
 4378SOL     OW17277   5.284   4.605   2.535  0.3466  0.0817 -0.2895
 4378SOL    HW217278   5.268   4.626   2.627 -1.1679 -4.2098  0.6488
 4378SOL    HW317279   5.379   4.602   2.528  0.5071  1.3108  0.8569
 4378SOL    MW417280   5.294   4.607   2.547 -0.3371 -0.0124  0.0490
 4379SOL     OW17281   2.277   6.387   4.725 -0.1680  0.4218  0.0355
 4379SOL    HW217282   2.210   6.454   4.738 -0.2518  0.2103  0.7644
 4379SOL    HW317283   2.234   6.319   4.673  0.1338  1.2441 -1.3225
 4379SOL    MW417284   2.263   6.387   4.720  0.0430 -0.3471  0.1469
 4380SOL     OW17285   0.075   4.207   2.844 -0.2681  0.7378  0.4450
 4380SOL    HW217286  -0.012   4.199   2.883 -0.4956  0.0281 -0.1935
 4380SOL    HW317287   0.095   4.300   2.849 -1.8548  1.2185 -1.0754
 4380SOL    MW417288   0.066   4.218   2.850  0.1446 -0.2833 -0.3196
 4381SOL     OW17289   2.224   1.072   0.047  0.4144  0.0116 -0.0151
 4381SOL    HW217290   2.231   1.143  -0.017 -0.8743 -0.0477 -0.2433
 4381SOL    HW317291   2.223   1.115   0.132  1.1397  0.1538 -0.0693
 4381SOL    MW417292   2.225   1.087   0.049  0.6408  0.1604 -0.5865
 4382SOL     OW17293   5.186   5.287   1.037  0.3109  0.7111 -0.1803
 4382SOL    HW217294   5.209   5.230   1.110  0.6692 -2.0416 -2.2620
 4382SOL    HW317295   5.091   5.295   1.042  0.3343  0.5817  0.5883
 4382SOL    MW417296   5.177   5.280   1.047 -0.0452  0.6262 -0.3577
 4383SOL     OW17297   0.901   2.762   0.660  0.3139 -0.2474  1.0295
 4383SOL    HW217298   0.987   2.741   0.696  0.3630 -0.1421  0.9743
 4383SOL    HW317299   0.853   2.800   0.733  0.7244  0.8352  0.7578
 4383SOL    MW417300   0.906   2.765   0.674 -0.2820 -0.1788  0.2648
 4384SOL     OW17301   4.533   5.939   0.356  0.8276  0.0025 -0.2593
 4384SOL    HW217302   4.558   5.939   0.263 -0.3852 -0.8798 -0.6118
 4384SOL    HW317303   4.616   5.933   0.403  1.5077  1.0573 -1.2630
 4384SOL    MW417304   4.548   5.938   0.350  0.4318  0.0470  0.4746
 4385SOL     OW17305   3.685   3.821   2.839  0.1134  0.1769 -0.3353
 4385SOL    HW217306   3.650   3.831   2.928 -2.3975 -0.2577 -1.2086
 4385SOL    HW317307   3.734   3.739   2.842 -0.3125 -0.0564  0.5437
 4385SOL    MW417308   3.687   3.811   2.851 -0.3385  0.1291  0.0253
 4386SOL     OW17309   1.099   1.391   3.694  0.6399 -1.0085  0.2301
 4386SOL    HW217310   1.052   1.455   3.641 -0.6201  0.9568  3.4489
 4386SOL    HW317311   1.055   1.308   3.674 -0.0941 -0.2876 -1.3617
 4386SOL    MW417312   1.087   1.388   3.685  0.1884  0.7476 -0.5308
 4387SOL     OW17313   2.761   4.658   4.198  0.6608 -0.2232  0.3728
 4387SOL    HW217314   2.856   4.649   4.202  0.5736 -0.8282  1.2734
 4387SOL    HW317315   2.741   4.648   4.105  1.5303  0.6515  0.0619
 4387SOL    MW417316   2.771   4.656   4.186  0.0375 -0.1736  0.0094
 4388SOL     OW17317   4.536   3.055   0.203  0.2032 -0.3320  0.1206
 4388SOL    HW217318   4.617   3.104   0.219 -1.5769  2.5751  1.0840
 4388SOL    HW317319   4.527   3.053   0.107 -0.5049  3.0147  0.0007
 4388SOL    MW417320   4.545   3.061   0.192 -0.7385 -0.4381 -0.5782
 4389SOL     OW17321   0.133   3.208   6.297 -0.2782  0.1470 -0.1175
 4389SOL    HW217322   0.208   3.162   6.334  0.2767  0.0776 -1.2870
 4389SOL    HW317323   0.166   3.296   6.277 -0.0676 -0.3011 -1.9360
 4389SOL    MW417324   0.148   3.213   6.299 -0.4341  0.6836 -0.3636
 4390SOL     OW17325   4.404   1.179   2.659 -0.4812 -0.1424  0.2585
 4390SOL    HW217326   4.463   1.173   2.584  0.7443  0.4390  1.1452
 4390SOL    HW317327   4.358   1.262   2.646 -0.5693 -0.2403 -0.0569
 4390SOL    MW417328   4.405   1.189   2.647 -0.1453 -0.1035 -0.2462
 4391SOL     OW17329   2.967   2.844   3.455  0.1519 -0.4585  0.4784
 4391SOL    HW217330   2.931   2.913   3.510  0.8228  0.2616  0.0288
 4391SOL    HW317331   2.939   2.866   3.366 -0.2615 -1.1816  0.4213
 4391SOL    MW417332   2.958   2.856   3.451 -0.4780 -0.1537  0.5908
 4392SOL     OW17333   2.370   2.976   6.142 -0.4911 -0.1292 -0.1495
 4392SOL    HW217334   2.313   2.990   6.218 -0.0748 -0.2350  0.1868
 4392SOL    HW317335   2.314   2.933   6.078 -0.4107 -1.5971  0.7224
 4392SOL    MW417336   2.355   2.972   6.144  0.2082  0.0538 -0.3216
 4393SOL     OW17337   4.808   0.217   4.691 -0.4035 -0.7144 -0.1165
 4393SOL    HW217338   4.784   0.246   4.779  0.5195 -0.2220 -0.0065
 4393SOL    HW317339   4.860   0.138   4.705 -2.3501 -2.1219 -0.3832
 4393SOL    MW417340   4.812   0.211   4.704  0.0144 -0.0958 -0.0599
 4394SOL     OW17341   5.445   5.720   1.209  0.0064  0.3542  0.0486
 4394SOL    HW217342   5.463   5.760   1.124  1.5965  0.6510  0.4825
 4394SOL    HW317343   5.389   5.645   1.189 -0.6206  1.1100 -1.1118
 4394SOL    MW417344   5.440   5.715   1.195 -0.2269  0.1173 -0.1689
 4395SOL     OW17345   3.005   0.273   1.197  0.3534  0.1012  0.5315
 4395SOL    HW217346   3.035   0.182   1.190  1.8820  0.6514 -0.5939
 4395SOL    HW317347   2.925   0.268   1.250  0.5168 -1.8644  0.6614
 4395SOL    MW417348   2.998   0.260   1.203 -0.0583 -0.6396  0.3209
 4396SOL     OW17349   1.063   3.739   0.625  0.7640  0.0326  0.2832
 4396SOL    HW217350   1.022   3.697   0.549 -1.9047  1.1857  0.9940
 4396SOL    HW317351   1.120   3.672   0.661  1.3366 -0.8902 -2.1125
 4396SOL    MW417352   1.065   3.725   0.619 -0.3067 -0.5938  0.4658
 4397SOL     OW17353   0.419   0.065   1.871  0.1103 -0.7718 -0.5838
 4397SOL    HW217354   0.501   0.023   1.897  0.1723 -0.5929 -0.4855
 4397SOL    HW317355   0.442   0.157   1.858  0.1246 -0.8930 -1.4771
 4397SOL    MW417356   0.433   0.072   1.873  0.4855  0.1786  0.2856
 4398SOL     OW17357   1.317   2.592   5.264 -0.1816  0.0893 -0.6159
 4398SOL    HW217358   1.240   2.550   5.302 -0.2752  1.7413  1.1630
 4398SOL    HW317359   1.349   2.651   5.333  2.1479  0.1241 -1.6278
 4398SOL    MW417360   1.311   2.594   5.278  0.0378  0.0485  0.1864
 4399SOL     OW17361   0.786   4.343   6.117 -0.0395  0.0032  0.5335
 4399SOL    HW217362   0.868   4.338   6.068  0.0248  3.0858  0.0956
 4399SOL    HW317363   0.759   4.435   6.109 -2.3921 -0.3983  2.5264
 4399SOL    MW417364   0.793   4.354   6.109  0.3976 -0.1346 -0.4145
 4400SOL     OW17365   1.072   3.658   4.088  0.7726 -0.4495  0.0896
 4400SOL    HW217366   1.144   3.711   4.053  0.6422 -0.5980 -0.4080
 4400SOL    HW317367   1.031   3.620   4.010 -1.2743  1.4377  0.1501
 4400SOL    MW417368   1.076   3.660   4.073 -0.5136 -0.7832 -0.3546
 4401SOL     OW17369   2.907   2.118   4.627 -0.4422  0.5772 -0.1265
 4401SOL    HW217370   2.871   2.086   4.544 -0.4768  0.0237  0.0931
 4401SOL    HW317371   2.830   2.146   4.677 -0.4582  0.5606 -0.1416
 4401SOL    MW417372   2.892   2.117   4.623  0.2122 -0.0351 -0.1818
 4402SOL     OW17373   6.014   5.906   0.164  0.3555  0.0643 -0.5911
 4402SOL    HW217374   5.982   5.871   0.081  2.3373 -0.5829 -1.1506
 4402SOL    HW317375   6.025   6.000   0.147  0.2915  0.0186 -0.9013
 4402SOL    MW417376   6.011   5.914   0.151 -0.2981 -0.0266  0.2984
 4403SOL     OW17377   5.345   4.285   3.100  0.1985  0.7561 -0.1648
 4403SOL    HW217378   5.369   4.199   3.066 -2.1696  0.5801 -1.5797
 4403SOL    HW317379   5.267   4.269   3.153  1.0298  1.7601  1.4370
 4403SOL    MW417380   5.338   4.272   3.102 -0.4152 -0.5198  0.6817
 4404SOL     OW17381   0.256   2.640   3.133  0.3533  0.4212  0.1775
 4404SOL    HW217382   0.187   2.581   3.162 -0.4302  0.6592 -1.1108
 4404SOL    HW317383   0.222   2.728   3.148  0.7599  0.5445  0.3972
 4404SOL    MW417384   0.243   2.644   3.139 -0.1679  0.0637  0.2905
 4405SOL     OW17385   0.957   2.134   0.260 -0.2362 -0.0306  0.0580
 4405SOL    HW217386   1.031   2.142   0.200  0.0064  1.1355  0.4749
 4405SOL    HW317387   0.968   2.049   0.302  0.2422 -0.3452 -0.6926
 4405SOL    MW417388   0.968   2.124   0.258 -0.6534  0.4455 -0.0827
 4406SOL     OW17389   5.622   4.670   6.376  0.1016  0.1703  0.0792
 4406SOL    HW217390   5.618   4.575   6.366  0.4869  0.1683 -0.0976
 4406SOL    HW317391   5.715   4.688   6.394  0.4364  0.6843 -1.8968
 4406SOL    MW417392   5.634   4.660   6.377  0.6393  0.7218 -0.3908
 4407SOL     OW17393   1.674   4.662   4.548  0.2895  0.3303 -0.2900
 4407SOL    HW217394   1.638   4.650   4.459  0.4235  0.5054 -0.3685
 4407SOL    HW317395   1.608   4.623   4.605 -0.2702  1.0747 -0.4023
 4407SOL    MW417396   1.660   4.655   4.544 -0.7098  0.2815  0.7197
 4408SOL     OW17397   1.473   0.498   4.507 -0.0349 -0.4723  0.1297
 4408SOL    HW217398   1.489   0.419   4.454 -0.7339 -0.8625  0.4961
 4408SOL    HW317399   1.417   0.552   4.453 -2.6438 -1.8448  1.2916
 4408SOL    MW417400   1.468   0.495   4.493  0.4461 -0.6339 -0.1776
 4409SOL     OW17401   6.236   3.590   4.334 -0.2143 -0.2419 -0.3203
 4409SOL    HW217402   6.201   3.649   4.267  0.7949  1.4651  0.5680
 4409SOL    HW317403   6.166   3.526   4.349 -0.9520  0.0937 -2.0667
 4409SOL    MW417404   6.222   3.589   4.327  0.4322  0.3064 -0.1380
 4410SOL     OW17405   5.526   0.854   6.426  0.0821  0.1346 -0.0944
 4410SOL    HW217406   5.621   0.854   6.437 -0.1263  0.6765  2.2522
 4410SOL    HW317407   5.501   0.761   6.428  0.8576 -0.5947 -5.8236
 4410SOL    MW417408   5.535   0.841   6.427  0.3313 -0.7652  0.2710
 4411SOL     OW17409   1.146   1.152   1.378  0.2535  0.3295 -0.5161
 4411SOL    HW217410   1.063   1.156   1.424  0.5842 -2.3996  0.4669
 4411SOL    HW317411   1.212   1.140   1.446  1.1387 -0.2876 -1.4389
 4411SOL    MW417412   1.144   1.151   1.393 -0.2402  0.8887  0.3567
 4412SOL     OW17413   6.026   4.881   0.796  0.0784  0.3963  0.5496
 4412SOL    HW217414   5.991   4.951   0.741  1.1171  0.2739 -0.2958
 4412SOL    HW317415   5.974   4.804   0.773 -1.4190  0.9623  1.8562
 4412SOL    MW417416   6.015   4.880   0.786 -0.0624 -0.2801 -0.3024
 4413SOL     OW17417   0.703   2.637   1.204 -0.3242  0.2534  0.3535
 4413SOL    HW217418   0.700   2.615   1.297  1.8264  0.0892  0.4318
 4413SOL    HW317419   0.621   2.603   1.169  0.4791 -3.2249  1.4530
 4413SOL    MW417420   0.692   2.630   1.212 -0.5310  0.0162  0.6480
 4414SOL     OW17421   3.500   5.764   3.184  0.5668  0.5199 -0.1753
 4414SOL    HW217422   3.458   5.840   3.143 -0.6520 -0.8261 -1.5304
 4414SOL    HW317423   3.435   5.694   3.177  1.7189 -0.7081  0.9021
 4414SOL    MW417424   3.486   5.765   3.178 -0.4450 -0.3744  0.3897
 4415SOL     OW17425   5.747   3.166   4.680 -0.2087  0.4097  0.0054
 4415SOL    HW217426   5.789   3.108   4.743 -2.2688 -3.1314 -1.5350
 4415SOL    HW317427   5.767   3.127   4.595 -3.2776  0.7647 -1.0044
 4415SOL    MW417428   5.755   3.153   4.677  0.0546 -0.0965  0.0280
 4416SOL     OW17429   5.879   0.552   0.665  0.3248  0.3881 -0.3252
 4416SOL    HW217430   5.815   0.484   0.643  2.2272 -0.3998 -4.3910
 4416SOL    HW317431   5.960   0.504   0.680  1.4380  1.6344 -2.0718
 4416SOL    MW417432   5.881   0.537   0.664  0.5459  0.3843 -0.1674
 4417SOL     OW17433   3.103   2.694   4.923  0.5330 -0.2254  0.4574
 4417SOL    HW217434   3.135   2.690   4.833  2.5119  0.3698  1.0968
 4417SOL    HW317435   3.135   2.778   4.956 -0.9956  0.0091  1.4418
 4417SOL    MW417436   3.111   2.705   4.915 -0.7091 -0.1800 -0.0058
 4418SOL     OW17437   3.406   0.174   5.964 -0.0800  0.2295  0.7568
 4418SOL    HW217438   3.343   0.125   5.910  0.3314 -0.2875  0.7370
 4418SOL    HW317439   3.369   0.262   5.969 -2.0586 -0.6099  2.7293
 4418SOL    MW417440   3.393   0.179   5.957  0.7890  0.2819  0.0108
 4419SOL     OW17441   2.822   3.361   0.390 -0.4681 -0.3369 -0.1863
 4419SOL    HW217442   2.867   3.405   0.462 -0.2836  1.0254 -1.0942
 4419SOL    HW317443   2.876   3.284   0.371 -1.3552 -1.6396  2.1166
 4419SOL    MW417444   2.835   3.356   0.397  0.1057 -0.3479  0.1029
 4420SOL     OW17445   4.739   0.139   6.277  0.0379 -0.2913 -0.3046
 4420SOL    HW217446   4.804   0.209   6.279 -0.2570 -0.0265  0.6019
 4420SOL    HW317447   4.741   0.106   6.187  0.2646  0.8077 -0.7168
 4420SOL    MW417448   4.748   0.144   6.265 -0.0297  0.2065  0.5551
 4421SOL     OW17449   1.363   3.336   3.165 -0.4684  0.0771 -0.3480
 4421SOL    HW217450   1.373   3.388   3.085  0.3074  1.4072  0.5817
 4421SOL    HW317451   1.296   3.382   3.215  1.2007  1.0302  1.1085
 4421SOL    MW417452   1.355   3.349   3.161 -0.5286  0.0921 -0.6728
 4422SOL     OW17453   1.673   1.797   5.900 -0.0251 -0.2444 -0.1845
 4422SOL    HW217454   1.613   1.810   5.974 -1.2632  1.4765 -1.4217
 4422SOL    HW317455   1.760   1.813   5.937 -0.3979 -1.4140  1.3203
 4422SOL    MW417456   1.677   1.801   5.915  0.3255  0.2316 -0.7903
 4423SOL     OW17457   3.499   1.607   1.537  0.0271 -0.3878 -0.4773
 4423SOL    HW217458   3.561   1.668   1.577 -0.6391  1.1026 -1.5990
 4423SOL    HW317459   3.484   1.541   1.604  1.2362  0.3448  0.5743
 4423SOL    MW417460   3.505   1.606   1.551  0.0578  0.8528 -0.4370
 4424SOL     OW17461   5.055   6.097   5.410 -0.1171 -0.2932 -0.0548
 4424SOL    HW217462   5.105   6.022   5.442 -0.3033 -0.3142  0.1970
 4424SOL    HW317463   5.055   6.088   5.315 -0.2074 -0.6592 -0.0217
 4424SOL    MW417464   5.062   6.086   5.402  0.4241  0.6293 -0.0617
 4425SOL     OW17465   0.655   5.918   6.245  0.4352  0.4724 -0.2586
 4425SOL    HW217466   0.609   5.968   6.311  0.8410 -0.8032  1.0447
 4425SOL    HW317467   0.732   5.971   6.224  0.4873  0.7310  0.5598
 4425SOL    MW417468   0.659   5.931   6.251  0.3123  0.2201 -0.6656
 4426SOL     OW17469   5.888   5.352   1.029  0.2687 -1.0270 -0.3025
 4426SOL    HW217470   5.973   5.372   1.067  0.4613 -0.9878 -0.7448
 4426SOL    HW317471   5.837   5.433   1.038  0.0019 -1.2842  0.6703
 4426SOL    MW417472   5.892   5.365   1.035 -0.3755  0.6337  0.4626
 4427SOL     OW17473   0.719   3.203   4.103 -0.0550  0.6738 -0.1855
 4427SOL    HW217474   0.706   3.206   4.008  0.6800  1.0466 -0.2789
 4427SOL    HW317475   0.676   3.283   4.135 -3.3013 -1.0666  0.2048
 4427SOL    MW417476   0.712   3.214   4.095  0.1288 -0.7793 -0.0870
 4428SOL     OW17477   0.682   5.276   4.688 -0.0825  0.1387 -0.0570
 4428SOL    HW217478   0.672   5.306   4.778 -0.5398  0.6139 -0.2593
 4428SOL    HW317479   0.636   5.192   4.686  1.4306 -0.7282  0.5764
 4428SOL    MW417480   0.674   5.269   4.699  0.1208  0.1925  0.5623
 4429SOL     OW17481   1.576   1.766   4.544  0.1082  0.6238 -0.5613
 4429SOL    HW217482   1.545   1.740   4.631  0.4872 -0.0670 -0.6317
 4429SOL    HW317483   1.546   1.856   4.535  0.0852  0.7131  0.2961
 4429SOL    MW417484   1.568   1.774   4.555  0.1359  0.0560  0.2701
 4430SOL     OW17485   4.450   4.963   0.421 -0.4609 -0.7039  0.1177
 4430SOL    HW217486   4.470   5.056   0.415  0.2047 -0.8762 -0.4293
 4430SOL    HW317487   4.523   4.925   0.470 -0.2016 -1.0946 -0.5572
 4430SOL    MW417488   4.462   4.970   0.426 -0.6283  0.6238 -0.4614
 4431SOL     OW17489   4.913   5.111   4.516 -0.3746  0.3645 -0.4644
 4431SOL    HW217490   5.004   5.117   4.485 -0.2164  0.8626  0.0811
 4431SOL    HW317491   4.919   5.067   4.600 -0.4422  1.8660  0.3561
 4431SOL    MW417492   4.926   5.106   4.523  0.3177 -0.1851 -0.2281
 4432SOL     OW17493   2.512   6.061   1.003 -0.0498 -0.1165  0.5975
 4432SOL    HW217494   2.418   6.081   1.003  0.1269  0.8864 -0.9128
 4432SOL    HW317495   2.539   6.073   1.094 -1.3224 -0.1415  1.0027
 4432SOL    MW417496   2.503   6.065   1.015 -0.2422  0.2268  0.2570
 4433SOL     OW17497   2.940   1.959   4.874  0.0423  0.2787 -0.2975
 4433SOL    HW217498   2.958   1.962   4.780  0.3332  0.0970 -0.2501
 4433SOL    HW317499   2.845   1.946   4.881 -0.3783  2.7942 -0.5497
 4433SOL    MW417500   2.930   1.958   4.863 -0.1745  0.1286  0.5637
 4434SOL     OW17501   0.415   3.850   4.211  0.3668 -0.6212  0.1855
 4434SOL    HW217502   0.396   3.757   4.214 -2.4252 -0.1216  0.9009
 4434SOL    HW317503   0.477   3.865   4.282  1.4413 -2.0041 -0.4291
 4434SOL    MW417504   0.421   3.840   4.221  0.4221 -0.0457  0.5671
 4435SOL     OW17505   4.344   2.821   5.945  0.0951 -0.0849  0.6138
 4435SOL    HW217506   4.286   2.760   5.991  0.8317 -2.4347 -1.3665
 4435SOL    HW317507   4.431   2.800   5.979  0.4170 -0.5219 -0.4602
 4435SOL    MW417508   4.348   2.810   5.956 -0.0107  0.0564 -0.2671
 4436SOL     OW17509   2.165   1.299   3.846  0.7311 -0.9153  0.1234
 4436SOL    HW217510   2.128   1.235   3.907  0.9870 -0.3850  0.8473
 4436SOL    HW317511   2.253   1.268   3.828  0.2547 -1.7182 -0.9333
 4436SOL    MW417512   2.172   1.287   3.852 -0.7422 -0.1619 -0.2368
 4437SOL     OW17513   0.642   5.362   3.860  0.1933 -0.2049 -0.2082
 4437SOL    HW217514   0.720   5.357   3.915 -0.0173 -0.7124  0.0548
 4437SOL    HW317515   0.584   5.423   3.906  0.5518  0.4181 -0.5644
 4437SOL    MW417516   0.645   5.369   3.874  0.4852 -0.2397 -0.2524
 4438SOL     OW17517   3.973   1.603   3.219 -0.0929 -0.0421  0.5119
 4438SOL    HW217518   3.909   1.671   3.241 -0.6918 -0.1794 -0.7054
 4438SOL    HW317519   3.997   1.564   3.303 -1.9189 -0.2590  0.9742
 4438SOL    MW417520   3.968   1.607   3.233  0.2457 -0.3390  0.0483
 4439SOL     OW17521   4.389   5.541   6.339  0.3989 -0.1685  0.5301
 4439SOL    HW217522   4.391   5.531   6.434  2.0736 -0.5206  0.4914
 4439SOL    HW317523   4.296   5.544   6.317 -0.0150  0.2078  2.1960
 4439SOL    MW417524   4.377   5.540   6.348  0.0082  0.3075 -0.3670
 4440SOL     OW17525   2.790   2.026   1.174 -0.2529  0.0782  0.1316
 4440SOL    HW217526   2.714   2.083   1.160  0.8467  0.9999 -2.7763
 4440SOL    HW317527   2.865   2.085   1.171  0.7016 -0.7815  3.1599
 4440SOL    MW417528   2.790   2.042   1.172  0.4950  1.1987  0.1271
 4441SOL     OW17529   5.352   1.502   4.501 -0.1057  0.1955 -0.0122
 4441SOL    HW217530   5.340   1.533   4.412  2.7296  0.2873 -0.4350
 4441SOL    HW317531   5.266   1.465   4.525 -0.7432 -0.5734 -3.0186
 4441SOL    MW417532   5.339   1.501   4.493  1.4112 -0.8236  0.0099
 4442SOL     OW17533   4.441   4.887   2.540  0.3469 -0.2891  0.4582
 4442SOL    HW217534   4.499   4.864   2.468  0.9571 -3.5162  1.7662
 4442SOL    HW317535   4.486   4.957   2.586  1.6225 -0.5122 -0.4079
 4442SOL    MW417536   4.455   4.893   2.537  0.2455  0.0395  0.1577
 4443SOL     OW17537   4.565   0.567   3.542 -0.0771  0.0338 -0.1132
 4443SOL    HW217538   4.540   0.475   3.545  0.4885 -0.1940 -1.5680
 4443SOL    HW317539   4.513   0.604   3.471 -1.0260  1.0885  1.0928
 4443SOL    MW417540   4.555   0.560   3.533  0.1249 -0.4860  0.2424
 4444SOL     OW17541   0.724   4.914   6.225  0.1425 -0.0091  0.4477
 4444SOL    HW217542   0.711   4.939   6.317 -2.5109 -0.1551  0.1742
 4444SOL    HW317543   0.761   4.825   6.229  0.6388  0.2294  1.3621
 4444SOL    MW417544   0.727   4.905   6.238  0.2868  0.0620 -0.1660
 4445SOL     OW17545   4.015   4.336   4.213  0.3515 -0.2449  0.3630
 4445SOL    HW217546   4.012   4.430   4.229  2.3119 -0.1160  0.2118
 4445SOL    HW317547   4.007   4.297   4.300 -0.2667  0.0564  0.4468
 4445SOL    MW417548   4.013   4.343   4.226  0.3290 -0.0419 -0.2736
 4446SOL     OW17549   4.981   2.181   5.112  0.0021 -0.0568  0.0194
 4446SOL    HW217550   5.019   2.195   5.025  0.5819  0.0189  0.2792
 4446SOL    HW317551   4.890   2.209   5.104  0.4369  1.3864 -0.1671
 4446SOL    MW417552   4.974   2.187   5.100 -0.2800  0.3836 -0.6781
 4447SOL     OW17553   0.977   4.012   2.226 -0.3816  0.3538  0.2529
 4447SOL    HW217554   0.981   3.945   2.294 -0.1096 -0.3856 -0.4865
 4447SOL    HW317555   0.924   4.082   2.265 -0.8817 -0.3886  0.9363
 4447SOL    MW417556   0.970   4.013   2.240 -0.4855 -0.2636  0.7207
 4448SOL     OW17557   3.062   5.767   3.835  0.4876 -0.3207  0.5300
 4448SOL    HW217558   3.019   5.809   3.910  0.4959 -0.0960  0.4110
 4448SOL    HW317559   3.117   5.699   3.873  0.0014 -0.6367  0.6839
 4448SOL    MW417560   3.064   5.764   3.850 -0.2383 -0.6649 -0.6497
 4449SOL     OW17561   1.021   5.994   1.139  0.5954 -0.5231 -0.2051
 4449SOL    HW217562   0.933   5.956   1.140 -0.1613  1.1242  0.0712
 4449SOL    HW317563   1.015   6.067   1.077  1.4895  0.1936  0.5103
 4449SOL    MW417564   1.008   5.999   1.131 -0.0515  0.0964  0.1915
 4450SOL     OW17565   1.968   0.809   3.411 -1.1461 -0.1004  0.0061
 4450SOL    HW217566   2.043   0.862   3.439  0.5397 -1.1383 -2.2074
 4450SOL    HW317567   1.900   0.873   3.392  0.4512  1.2805 -1.5292
 4450SOL    MW417568   1.969   0.825   3.412  0.2734 -0.2831 -0.0496
 4451SOL     OW17569   4.015   4.009   4.153 -0.3598 -0.3423  0.0998
 4451SOL    HW217570   4.103   4.019   4.190 -0.4636  0.1541  0.2131
 4451SOL    HW317571   3.966   4.084   4.186 -0.2941  0.4588 -1.5395
 4451SOL    MW417572   4.020   4.020   4.162 -0.0296 -0.5835 -0.1229
 4452SOL     OW17573   0.123   0.349   5.665  0.3001  0.4399 -0.1530
 4452SOL    HW217574   0.045   0.387   5.706  0.5783  1.7960 -0.8018
 4452SOL    HW317575   0.159   0.290   5.731 -0.5680  0.7853  0.6483
 4452SOL    MW417576   0.118   0.346   5.679 -0.2358 -0.2616 -0.0957
 4453SOL     OW17577   0.815   6.179   2.529  0.0617 -0.0147  0.1769
 4453SOL    HW217578   0.870   6.249   2.563  0.1617  0.3434 -0.6916
 4453SOL    HW317579   0.744   6.171   2.593  0.8927 -0.2072  1.0989
 4453SOL    MW417580   0.813   6.187   2.542 -0.1187 -0.5814 -0.3533
 4454SOL     OW17581   6.438   0.061   6.086  0.2293  0.2664 -0.6991
 4454SOL    HW217582   6.380   0.020   6.150  0.2520 -0.2996 -1.0401
 4454SOL    HW317583   6.525   0.052   6.125  0.0032  2.1269  0.3574
 4454SOL    MW417584   6.442   0.055   6.100 -0.0317 -0.1127  0.6270
 4455SOL     OW17585   4.432   3.460   2.998  0.9261 -0.3398  0.4708
 4455SOL    HW217586   4.424   3.484   3.090  1.4741  0.5675  0.2961
 4455SOL    HW317587   4.348   3.484   2.959  0.9783  0.0315  0.5798
 4455SOL    MW417588   4.420   3.467   3.005 -0.1621  0.0688 -0.3265
 4456SOL     OW17589   2.956   5.970   1.775 -0.2373 -0.2303 -0.3455
 4456SOL    HW217590   2.963   6.052   1.727 -0.1260  0.4844  0.8565
 4456SOL    HW317591   3.045   5.936   1.779 -0.1434  0.0465 -0.0733
 4456SOL    MW417592   2.969   5.976   1.769 -0.3868  0.0564  0.0203
 4457SOL     OW17593   1.515   3.978   0.755  0.1173  0.1735 -0.6312
 4457SOL    HW217594   1.521   3.901   0.811  0.1514 -0.3369 -1.3237
 4457SOL    HW317595   1.422   4.000   0.756  0.0476 -0.1104 -0.7392
 4457SOL    MW417596   1.503   3.971   0.763  0.1784 -0.4093  0.6717
 4458SOL     OW17597   5.919   0.473   3.956 -0.6590 -0.1765  0.2814
 4458SOL    HW217598   5.905   0.551   4.008 -0.5016  0.6273 -0.8347
 4458SOL    HW317599   6.014   0.468   3.944 -0.7205 -0.1156 -0.2626
 4458SOL    MW417600   5.930   0.483   3.961  0.9360  0.4510  0.8670
 4459SOL     OW17601   3.420   3.151   6.030  0.0604  0.0816 -0.2195
 4459SOL    HW217602   3.337   3.171   5.988 -0.4541 -1.8120 -0.2027
 4459SOL    HW317603   3.483   3.144   5.958 -0.1621 -0.1469 -0.3905
 4459SOL    MW417604   3.417   3.153   6.015 -0.1062 -0.2320 -0.2948
 4460SOL     OW17605   0.765   2.376   5.168  0.1179 -0.2134 -0.6325
 4460SOL    HW217606   0.689   2.331   5.131 -0.3376 -1.7158  1.8965
 4460SOL    HW317607   0.752   2.372   5.263  2.1845  1.6281 -0.1834
 4460SOL    MW417608   0.753   2.369   5.176  0.1607  0.3531 -0.5523
 4461SOL     OW17609   5.212   1.913   0.600  0.0250 -0.2206 -0.0362
 4461SOL    HW217610   5.153   1.968   0.652 -0.4548  0.4901 -1.2739
 4461SOL    HW317611   5.198   1.824   0.632  0.9072  0.3504  2.1102
 4461SOL    MW417612   5.203   1.909   0.611 -0.4204  0.3407 -0.3517
 4462SOL     OW17613   4.722   2.954   4.162 -0.6343 -0.1983 -0.6122
 4462SOL    HW217614   4.755   3.034   4.121 -2.0174 -0.1510 -1.6910
 4462SOL    HW317615   4.753   2.959   4.253  2.1982 -0.1249 -1.4919
 4462SOL    MW417616   4.730   2.965   4.169  0.4316  0.1856 -0.1943
 4463SOL     OW17617   5.920   2.024   4.462  0.1456  0.5769  0.4399
 4463SOL    HW217618   5.900   2.038   4.369  0.5770  0.1211  0.2745
 4463SOL    HW317619   5.861   2.084   4.508  0.8850  1.8226 -0.1712
 4463SOL    MW417620   5.909   2.034   4.456  0.7839 -0.1026 -0.5267
 4464SOL     OW17621   4.650   5.348   5.957  0.5680  0.4869  0.2129
 4464SOL    HW217622   4.603   5.276   5.915  0.4316 -0.0676  1.2754
 4464SOL    HW317623   4.699   5.306   6.028  2.6005  1.0487 -0.7780
 4464SOL    MW417624   4.651   5.333   5.961  0.2213 -0.2222 -0.4136
 4465SOL     OW17625   4.775   3.648   4.764  0.4449 -0.5142 -0.5274
 4465SOL    HW217626   4.762   3.563   4.722 -0.9557 -0.2521 -0.6648
 4465SOL    HW317627   4.794   3.708   4.692 -1.3351 -0.1883 -0.7694
 4465SOL    MW417628   4.776   3.645   4.749 -0.4191  0.1824  0.4316
 4466SOL     OW17629   0.189   0.779   5.765  0.0364 -0.1663 -0.3425
 4466SOL    HW217630   0.170   0.709   5.828  3.1753 -0.3115  0.6175
 4466SOL    HW317631   0.196   0.734   5.681  1.0062 -0.8965  0.1006
 4466SOL    MW417632   0.188   0.764   5.762 -0.2002  0.7582 -0.0600
 4467SOL     OW17633   4.459   1.990   2.776 -0.2910 -0.2496  0.0249
 4467SOL    HW217634   4.506   2.028   2.851  0.5875  0.6256 -0.9459
 4467SOL    HW317635   4.434   2.065   2.723 -1.0578 -0.8574 -0.4862
 4467SOL    MW417636   4.462   2.005   2.779 -0.1225 -0.1479  0.1496
 4468SOL     OW17637   2.549   6.251   2.394  0.2818 -0.4363 -0.7840
 4468SOL    HW217638   2.585   6.268   2.481  0.0307 -2.5465 -0.2260
 4468SOL    HW317639   2.480   6.317   2.384 -1.4204 -1.6818  1.7025
 4468SOL    MW417640   2.544   6.262   2.404 -0.1390 -0.4801 -0.3129
 4469SOL     OW17641   1.804   0.107   2.605 -0.0669 -0.4478  0.3955
 4469SOL    HW217642   1.832   0.086   2.516  0.0575 -1.3738  0.6399
 4469SOL    HW317643   1.775   0.198   2.600 -0.6069 -0.6554 -0.7206
 4469SOL    MW417644   1.804   0.116   2.592  0.3954  0.2575 -0.4079
 4470SOL     OW17645   2.400   2.758   5.145  0.0870 -0.7658  0.2261
 4470SOL    HW217646   2.459   2.691   5.179  0.5129  0.3438  1.8009
 4470SOL    HW317647   2.458   2.825   5.109 -0.2283 -0.2409  0.6693
 4470SOL    MW417648   2.415   2.758   5.145  0.2286  0.3374 -0.4418
 4471SOL     OW17649   3.821   1.278   0.350 -0.1864  0.2142 -0.0748
 4471SOL    HW217650   3.895   1.310   0.299  1.5296 -1.4888  1.1911
 4471SOL    HW317651   3.812   1.341   0.422 -2.3660  2.4032 -2.0574
 4471SOL    MW417652   3.830   1.291   0.352 -0.3813  0.9818 -0.4660
 4472SOL     OW17653   3.995   3.660   2.398 -0.4616 -0.1605 -0.0808
 4472SOL    HW217654   3.985   3.616   2.314 -0.3549  0.0676 -0.2128
 4472SOL    HW317655   3.951   3.744   2.386 -0.0752  0.0481 -0.0447
 4472SOL    MW417656   3.988   3.665   2.385  0.1276 -0.5461  0.5437
 4473SOL     OW17657   0.942   5.546   5.072 -0.1828  0.1298  0.1776
 4473SOL    HW217658   0.852   5.577   5.076  0.2682  1.6033 -0.3683
 4473SOL    HW317659   0.939   5.471   5.013 -0.7977  1.2967 -1.3623
 4473SOL    MW417660   0.930   5.540   5.065  0.0191 -0.0155 -0.0031
 4474SOL     OW17661   1.922   3.294   5.141 -0.1400  0.1038  0.1088
 4474SOL    HW217662   1.925   3.230   5.212 -3.3050  2.4399  2.6495
 4474SOL    HW317663   1.954   3.375   5.180 -1.6502  1.3894 -1.1613
 4474SOL    MW417664   1.926   3.296   5.155 -0.0346  0.0634  0.1033
 4475SOL     OW17665   4.119   0.704   1.017 -0.4829  0.3028 -0.0607
 4475SOL    HW217666   4.181   0.769   0.982 -1.2965 -0.0186 -2.2357
 4475SOL    HW317667   4.165   0.665   1.091  1.1941  1.3425 -0.4922
 4475SOL    MW417668   4.133   0.708   1.022  0.3671 -0.0721  0.3373
 4476SOL     OW17669   5.232   4.631   1.414  0.1468  0.8451 -0.2318
 4476SOL    HW217670   5.298   4.697   1.390  0.9191  0.0461 -0.3600
 4476SOL    HW317671   5.277   4.574   1.476 -0.5704  0.5363  0.0064
 4476SOL    MW417672   5.247   4.633   1.419 -0.6361  0.2369  0.5573
 4477SOL     OW17673   5.211   5.123   0.088  0.5146 -0.1715  0.1659
 4477SOL    HW217674   5.210   5.190   0.156 -0.9199  0.9626 -0.9221
 4477SOL    HW317675   5.302   5.120   0.058  0.9395  0.0493  1.3768
 4477SOL    MW417676   5.223   5.131   0.093 -0.5402 -0.3032  0.3974
 4478SOL     OW17677   2.746   4.547   3.607 -0.2526 -0.4842  0.4555
 4478SOL    HW217678   2.773   4.636   3.628 -0.5917 -0.6577  1.6753
 4478SOL    HW317679   2.812   4.491   3.647  0.1573 -0.7982 -0.6076
 4478SOL    MW417680   2.758   4.551   3.615  0.7834  0.1392  0.2666
 4479SOL     OW17681   6.206   5.284   5.958  0.7393  0.2259  0.0836
 4479SOL    HW217682   6.142   5.353   5.978  1.4641  0.7954  0.4926
 4479SOL    HW317683   6.173   5.206   6.003 -0.6845 -0.0105 -1.2880
 4479SOL    MW417684   6.193   5.283   5.966 -0.5441 -0.4090 -0.5987
 4480SOL     OW17685   6.129   1.782   0.764 -0.4340 -0.3486 -0.8883
 4480SOL    HW217686   6.188   1.777   0.688 -1.1938 -0.4538 -1.4877
 4480SOL    HW317687   6.186   1.773   0.840  0.2675 -0.8687 -1.4705
 4480SOL    MW417688   6.144   1.780   0.764  0.2185  0.4022 -0.0564
 4481SOL     OW17689   4.713   1.804   2.183  0.0515  0.1101  0.4863
 4481SOL    HW217690   4.647   1.860   2.143 -0.0808 -0.4446 -0.0832
 4481SOL    HW317691   4.667   1.723   2.203  0.6226 -0.3997 -0.1984
 4481SOL    MW417692   4.698   1.800   2.180 -0.0198 -0.2597  1.1085
 4482SOL     OW17693   3.119   4.880   1.835  0.6024 -0.4291  0.4137
 4482SOL    HW217694   3.166   4.957   1.867 -0.9599  0.1125  1.5302
 4482SOL    HW317695   3.101   4.899   1.743  0.1567  0.6030  0.7014
 4482SOL    MW417696   3.123   4.893   1.827  0.3323  0.5745  0.0893
 4483SOL     OW17697   3.815   1.093   0.623 -0.3343  0.2504  0.4490
 4483SOL    HW217698   3.789   1.096   0.715  1.2187  1.2981  0.8903
 4483SOL    HW317699   3.758   1.156   0.580 -0.8566 -0.0120  0.7466
 4483SOL    MW417700   3.804   1.101   0.629  0.1862  0.3821  0.4858
 4484SOL     OW17701   6.267   4.372   3.650 -0.2917 -0.2014 -0.1144
 4484SOL    HW217702   6.360   4.391   3.660  0.1566  0.5977 -4.0876
 4484SOL    HW317703   6.223   4.457   3.653 -0.5843 -0.3366 -0.3585
 4484SOL    MW417704   6.273   4.385   3.651 -0.6907 -0.3099 -0.3004
 4485SOL     OW17705   2.570   4.915   2.319 -0.1533 -0.2025  0.4216
 4485SOL    HW217706   2.592   4.838   2.266 -0.0665 -0.4018  0.7403
 4485SOL    HW317707   2.476   4.928   2.305 -0.1269 -0.2435  0.2082
 4485SOL    MW417708   2.561   4.906   2.310  0.2672 -0.0524  0.1967
 4486SOL     OW17709   6.279   1.001   4.826  0.1299  0.5007  0.3143
 4486SOL    HW217710   6.250   0.917   4.789  0.8543  0.2584  0.2842
 4486SOL    HW317711   6.364   0.982   4.865  0.5533  1.3498 -0.1682
 4486SOL    MW417712   6.286   0.987   4.827 -0.3593  0.0990 -0.2824
 4487SOL     OW17713   1.602   3.628   1.197 -0.0171  0.2734 -0.1482
 4487SOL    HW217714   1.610   3.724   1.195 -0.6580  0.3374  0.2003
 4487SOL    HW317715   1.626   3.604   1.286  0.9015  0.0286 -0.4496
 4487SOL    MW417716   1.606   3.638   1.209  0.5858 -0.0316 -0.0423
 4488SOL     OW17717   3.917   3.773   6.004 -0.0970 -0.0953 -0.0858
 4488SOL    HW217718   3.982   3.750   6.071  0.6681  0.6593 -0.5411
 4488SOL    HW317719   3.840   3.720   6.025 -1.1772  2.5010  3.4607
 4488SOL    MW417720   3.915   3.763   6.016  0.1258 -0.0981  0.2512
 4489SOL     OW17721   1.616   3.210   4.811 -0.9797 -0.5214 -0.3821
 4489SOL    HW217722   1.552   3.140   4.824 -0.8012 -0.7088 -0.5089
 4489SOL    HW317723   1.692   3.167   4.772 -1.6439  0.0887 -2.4596
 4489SOL    MW417724   1.618   3.195   4.807 -0.2331 -0.2953 -0.3590
 4490SOL     OW17725   3.316   2.156   4.314  0.1501 -0.4921  0.2460
 4490SOL    HW217726   3.301   2.235   4.262  0.0299 -1.5530 -1.4003
 4490SOL    HW317727   3.404   2.167   4.350 -0.1996  0.7657  0.7525
 4490SOL    MW417728   3.326   2.168   4.312  0.0335  0.8946 -0.2004
 4491SOL     OW17729   3.552   1.850   5.176  0.2853 -0.2232 -0.1209
 4491SOL    HW217730   3.626   1.909   5.186  0.9193 -0.9976 -0.1319
 4491SOL    HW317731   3.475   1.904   5.192  0.6912  1.1907 -2.4795
 4491SOL    MW417732   3.551   1.865   5.179  0.4203  0.2851 -0.8677
 4492SOL     OW17733   4.313   2.767   1.179  0.1975 -0.2448 -0.3248
 4492SOL    HW217734   4.253   2.703   1.142  1.2008 -1.0253 -0.6532
 4492SOL    HW317735   4.335   2.731   1.265 -0.3551  0.4060  0.0980
 4492SOL    MW417736   4.308   2.754   1.186  0.3484 -0.1023  0.3756
 4493SOL     OW17737   2.303   4.190   3.558 -0.4206 -0.5223  0.1708
 4493SOL    HW217738   2.387   4.192   3.605  0.9955  0.1519 -2.2032
 4493SOL    HW317739   2.270   4.280   3.562 -0.0740 -0.3592 -0.4352
 4493SOL    MW417740   2.310   4.202   3.565 -0.6860  0.3205  0.1774
 4494SOL     OW17741   3.750   4.483   2.316 -0.0349 -0.3741 -0.6233
 4494SOL    HW217742   3.730   4.455   2.406  0.7346 -3.2480 -1.2541
 4494SOL    HW317743   3.664   4.504   2.279 -0.4202  0.3185  0.6020
 4494SOL    MW417744   3.736   4.482   2.323 -0.3580  0.0267  0.1327
 4495SOL     OW17745   2.998   0.802   4.863 -0.3563  0.0808  0.4249
 4495SOL    HW217746   3.039   0.866   4.805  0.0662  1.1042  1.7672
 4495SOL    HW317747   3.000   0.720   4.815  2.6358  0.2260  0.1297
 4495SOL    MW417748   3.003   0.800   4.849 -0.4658 -0.3078 -0.2783
 4496SOL     OW17749   4.450   4.140   2.582 -0.2213  0.6009 -0.1645
 4496SOL    HW217750   4.500   4.085   2.522 -0.2623 -0.7601  1.0094
 4496SOL    HW317751   4.515   4.199   2.621  0.0793  0.3980 -0.3542
 4496SOL    MW417752   4.465   4.141   2.579  0.2032  0.1570 -0.3740
 4497SOL     OW17753   3.731  -0.007   1.100 -0.0661 -0.6617  0.3780
 4497SOL    HW217754   3.649  -0.054   1.085 -0.5269 -0.2062  1.3766
 4497SOL    HW317755   3.799  -0.074   1.091 -0.3832 -0.7336 -2.0847
 4497SOL    MW417756   3.729  -0.022   1.097  0.0739 -0.0911  0.2547
 4498SOL     OW17757   0.140   2.396   3.523  0.4277  0.3155  0.3523
 4498SOL    HW217758   0.129   2.334   3.595 -0.4013 -1.1100 -0.9528
 4498SOL    HW317759   0.166   2.478   3.566  0.2516 -0.5652  2.2348
 4498SOL    MW417760   0.142   2.399   3.538 -0.1474  0.0862  0.1601
 4499SOL     OW17761   1.046   1.067   4.463 -0.3618 -0.0836 -0.4403
 4499SOL    HW217762   1.065   0.975   4.481 -0.2787  0.3481  2.0044
 4499SOL    HW317763   0.953   1.068   4.441 -0.6809 -0.6459  0.7657
 4499SOL    MW417764   1.037   1.055   4.463  0.2578 -0.0215  0.0327
 4500SOL     OW17765   3.725   2.162   5.556  0.2974 -0.2225  0.3737
 4500SOL    HW217766   3.750   2.224   5.625 -0.9414 -0.2075  0.8251
 4500SOL    HW317767   3.794   2.095   5.558  2.2477  1.6380 -0.8356
 4500SOL    MW417768   3.738   2.161   5.565 -0.5224 -0.4443 -1.2151
 4501SOL     OW17769   5.028   3.663   3.840  0.1364 -0.1301 -0.2091
 4501SOL    HW217770   5.011   3.574   3.809  0.8162 -0.0760 -0.7555
 4501SOL    HW317771   4.942   3.695   3.868  0.0456 -1.3199  0.9985
 4501SOL    MW417772   5.014   3.655   3.840 -0.0928 -0.5877  0.2097
 4502SOL     OW17773   6.249   3.006   1.509 -0.2519 -0.0818 -0.1729
 4502SOL    HW217774   6.199   3.075   1.553  1.5426  0.3218  1.3625
 4502SOL    HW317775   6.298   3.052   1.441 -0.4287 -0.1462 -0.3447
 4502SOL    MW417776   6.249   3.021   1.506  0.0313 -0.6084 -0.4726
 4503SOL     OW17777   4.846   2.871   1.804 -0.2690 -0.5085  0.1951
 4503SOL    HW217778   4.844   2.794   1.862  0.8034 -2.0044 -1.6230
 4503SOL    HW317779   4.777   2.854   1.740 -1.1077  0.8711  0.7143
 4503SOL    MW417780   4.837   2.858   1.803 -0.3369 -0.6592 -0.2731
 4504SOL     OW17781   3.631   2.238   5.138 -0.3094  0.1601 -0.0088
 4504SOL    HW217782   3.678   2.294   5.076  1.4060 -1.7053 -0.4891
 4504SOL    HW317783   3.699   2.206   5.197 -1.6724  0.6714  1.9461
 4504SOL    MW417784   3.646   2.241   5.138 -0.7763 -0.1029  0.3768
 4505SOL     OW17785   0.917   3.118   5.140 -0.2338  0.5724 -0.3950
 4505SOL    HW217786   0.972   3.133   5.063  0.8317 -1.5106 -0.0994
 4505SOL    HW317787   0.928   3.025   5.160 -1.7375  0.7162  1.3316
 4505SOL    MW417788   0.926   3.108   5.133  0.3599  0.2314  0.1538
 4506SOL     OW17789   5.469   2.521   4.679  0.6754  0.0185 -0.3839
 4506SOL    HW217790   5.482   2.446   4.738  0.2561 -0.9660 -1.5031
 4506SOL    HW317791   5.386   2.559   4.708  1.4534  0.7759  0.9281
 4506SOL    MW417792   5.460   2.516   4.691 -0.8563  0.1608  0.0093
 4507SOL     OW17793   1.719   3.329   0.673  0.1817  0.2261 -0.0486
 4507SOL    HW217794   1.649   3.375   0.720  0.2319  2.4829 -2.0042
 4507SOL    HW317795   1.794   3.334   0.732 -0.5839  0.1429  0.9644
 4507SOL    MW417796   1.719   3.336   0.687 -0.0962 -0.3150  0.0719
 4508SOL     OW17797   3.592   3.577   1.789 -0.2308  0.1092 -0.2630
 4508SOL    HW217798   3.659   3.547   1.728  0.0260  0.8628 -0.3592
 4508SOL    HW317799   3.572   3.666   1.762 -1.1674 -0.0489 -0.1379
 4508SOL    MW417800   3.598   3.585   1.778 -0.1082 -0.4438  0.0352
 4509SOL     OW17801   0.256   1.861   3.628 -0.0205 -0.2494 -0.2612
 4509SOL    HW217802   0.285   1.890   3.541 -0.0372  0.0672 -0.1642
 4509SOL    HW317803   0.165   1.833   3.614  0.0261 -0.3453 -0.3755
 4509SOL    MW417804   0.248   1.861   3.614  0.9182  0.4191  0.2280
 4510SOL     OW17805   1.810   4.841   4.070 -0.3229  0.1146  0.2034
 4510SOL    HW217806   1.784   4.876   4.156 -0.0276  0.8500  0.0023
 4510SOL    HW317807   1.814   4.918   4.014  0.3836 -0.2422 -0.2494
 4510SOL    MW417808   1.807   4.856   4.074  0.0787 -0.0394  0.0880
 4511SOL     OW17809   1.760   2.800   2.452  0.2592 -0.1544 -0.1833
 4511SOL    HW217810   1.708   2.733   2.407  1.9940 -0.9533 -1.0929
 4511SOL    HW317811   1.727   2.798   2.542 -0.9923 -0.9065 -0.6186
 4511SOL    MW417812   1.748   2.791   2.458  1.0266 -0.0190 -0.0443
 4512SOL     OW17813   4.257   3.673   1.566 -0.7386 -0.6068  0.4015
 4512SOL    HW217814   4.181   3.655   1.511 -2.0271 -0.3411  2.0102
 4512SOL    HW317815   4.331   3.632   1.520 -1.7552 -0.4555 -1.4377
 4512SOL    MW417816   4.257   3.665   1.553 -0.2204  0.1227  0.0847
 4513SOL     OW17817   5.536   0.595   0.993 -0.1325 -0.1335  0.0616
 4513SOL    HW217818   5.482   0.594   1.071 -0.7622 -0.8218 -0.3652
 4513SOL    HW317819   5.612   0.647   1.017 -1.5408  1.9290  0.2932
 4513SOL    MW417820   5.539   0.601   1.006 -0.1258 -0.0972 -0.5695
 4514SOL     OW17821   3.966   3.490   3.064 -0.7427  0.0837 -0.5740
 4514SOL    HW217822   4.022   3.427   3.108 -1.5528  0.1039  0.5254
 4514SOL    HW317823   4.026   3.547   3.016  0.1128 -0.3263 -0.0009
 4514SOL    MW417824   3.981   3.489   3.063  0.0668  0.0131 -0.5954
 4515SOL     OW17825   4.764   3.762   5.663  0.3948 -0.0220  0.3438
 4515SOL    HW217826   4.795   3.832   5.605  0.6266  0.1443  0.6638
 4515SOL    HW317827   4.840   3.704   5.673  0.5900  0.3531  1.0813
 4515SOL    MW417828   4.778   3.764   5.656  0.3043 -0.0327 -0.3055
 4516SOL     OW17829   3.813   5.023   1.480  0.6085  0.0511 -0.0734
 4516SOL    HW217830   3.797   5.046   1.389 -1.0808  2.4607  0.7351
 4516SOL    HW317831   3.726   5.029   1.522  1.6530  1.1983  2.0982
 4516SOL    MW417832   3.799   5.027   1.474  0.0945  0.1427  0.0719
 4517SOL     OW17833   1.678   5.168   0.560  0.6281  0.3476 -0.2264
 4517SOL    HW217834   1.748   5.234   0.569  2.2646 -1.2714 -0.4773
 4517SOL    HW317835   1.669   5.156   0.466  0.6709 -0.1289 -0.1687
 4517SOL    MW417836   1.686   5.175   0.549  0.6424  0.2994  0.5423
 4518SOL     OW17837   0.571   3.779   1.356 -0.0024  0.6970  0.1272
 4518SOL    HW217838   0.493   3.834   1.349 -0.7923 -0.4313 -0.0944
 4518SOL    HW317839   0.538   3.690   1.361  1.2664  0.2185  0.3842
 4518SOL    MW417840   0.557   3.775   1.355  0.1268 -0.5953  0.0242
 4519SOL     OW17841   4.572   3.712   1.713 -0.2858  0.0446 -0.4337
 4519SOL    HW217842   4.556   3.804   1.692  1.8371  0.2582 -1.2852
 4519SOL    HW317843   4.568   3.668   1.628 -0.3655 -0.5132 -0.1411
 4519SOL    MW417844   4.569   3.718   1.699 -0.0802 -0.5168  0.5175
 4520SOL     OW17845   4.501   0.112   2.572  0.2835 -0.3287  0.6076
 4520SOL    HW217846   4.454   0.106   2.656  0.3132 -0.4933  0.6128
 4520SOL    HW317847   4.543   0.027   2.562 -0.6782 -0.7480 -0.1343
 4520SOL    MW417848   4.500   0.100   2.582 -0.1147  0.0720 -0.1442
 4521SOL     OW17849   3.874   5.114   0.066  0.2975 -0.0119 -1.1089
 4521SOL    HW217850   3.872   5.183  -0.000  0.4427 -0.2464 -1.3595
 4521SOL    HW317851   3.906   5.158   0.145 -0.9292  0.5185 -0.8901
 4521SOL    MW417852   3.878   5.129   0.068  0.0379  0.1973 -0.7318
 4522SOL     OW17853   5.767   2.582   4.221  0.2368  0.4157 -0.0520
 4522SOL    HW217854   5.829   2.584   4.148 -0.3724  0.9390 -0.5596
 4522SOL    HW317855   5.789   2.502   4.268  1.0841  0.4204 -0.4137
 4522SOL    MW417856   5.778   2.572   4.218 -0.1253  0.6405 -0.5089
 4523SOL     OW17857   2.446   4.846   5.166  0.7505 -0.1221 -0.2949
 4523SOL    HW217858   2.487   4.932   5.165 -2.2445  1.5768  2.7741
 4523SOL    HW317859   2.362   4.859   5.120 -0.9324 -0.5380  2.4424
 4523SOL    MW417860   2.440   4.859   5.160 -0.3257  0.1911  0.3529
 4524SOL     OW17861   1.380   1.674   3.716 -0.6003  0.0665 -0.1399
 4524SOL    HW217862   1.459   1.718   3.684 -0.3523 -0.6945 -0.5796
 4524SOL    HW317863   1.393   1.582   3.697 -0.9162 -0.2830  1.2223
 4524SOL    MW417864   1.392   1.668   3.709 -0.1539  0.2036  0.7277
 4525SOL     OW17865   2.920   5.993   4.302  0.2575 -0.1929 -0.2047
 4525SOL    HW217866   2.984   6.061   4.280  0.6634 -0.0946  1.1494
 4525SOL    HW317867   2.969   5.931   4.356 -0.4412 -0.8757 -0.3353
 4525SOL    MW417868   2.935   5.994   4.307  0.4492 -0.4051  0.3643
 4526SOL     OW17869   1.622   4.993   4.531 -0.2004  0.0003 -0.5470
 4526SOL    HW217870   1.683   4.939   4.482  0.5400  0.1418  0.1894
 4526SOL    HW317871   1.671   5.019   4.610  0.1264  3.1356 -1.6202
 4526SOL    MW417872   1.637   4.990   4.535  0.1675  0.7270 -0.0928
 4527SOL     OW17873   1.774   5.638   6.160 -0.5626  0.2167 -0.1911
 4527SOL    HW217874   1.729   5.557   6.135 -0.5161  0.2439 -0.3643
 4527SOL    HW317875   1.866   5.622   6.140 -0.4808  0.1313  0.2387
 4527SOL    MW417876   1.780   5.625   6.154 -0.2100  0.2304 -0.3360
 4528SOL     OW17877   2.837   4.686   0.105  0.0289 -0.5098 -0.0332
 4528SOL    HW217878   2.805   4.708   0.018 -1.7353 -0.3689  0.6095
 4528SOL    HW317879   2.884   4.764   0.134  1.2989 -0.8343 -1.1215
 4528SOL    MW417880   2.839   4.699   0.098 -0.5822 -0.4763  0.4330
 4529SOL     OW17881   3.097   2.319   2.098  0.5890 -0.2319  0.3277
 4529SOL    HW217882   3.031   2.279   2.040  0.7725 -0.9519  0.5975
 4529SOL    HW317883   3.173   2.333   2.041 -0.4091  2.4120 -0.4628
 4529SOL    MW417884   3.098   2.315   2.083 -0.3073 -0.2618 -0.3349
 4530SOL     OW17885   0.154   5.986   2.518  0.5225 -0.2255  0.3852
 4530SOL    HW217886   0.248   6.002   2.527  0.2988  1.7239 -0.3823
 4530SOL    HW317887   0.129   6.031   2.437 -1.1392 -0.4576  0.7246
 4530SOL    MW417888   0.163   5.994   2.508  0.2438 -0.0796  0.5694
 4531SOL     OW17889   4.916   4.852   0.070 -0.7269  0.1779 -0.3268
 4531SOL    HW217890   4.929   4.926   0.011  0.9718  1.6941  1.7741
 4531SOL    HW317891   4.997   4.800   0.062 -0.9053 -0.1502 -0.0511
 4531SOL    MW417892   4.928   4.855   0.061 -0.4381 -0.2321  0.2517
 4532SOL     OW17893   4.006   4.763   2.409 -0.2109  0.1084  0.2714
 4532SOL    HW217894   4.030   4.716   2.329 -2.4215  0.0179 -0.4260
 4532SOL    HW317895   3.980   4.695   2.470  0.3067  0.2446  0.6479
 4532SOL    MW417896   4.006   4.748   2.406  0.1325 -0.3816  0.0566
 4533SOL     OW17897   3.121   6.213   0.767 -0.3522 -0.5135  0.2113
 4533SOL    HW217898   3.158   6.288   0.813 -1.0495  0.6696 -1.0722
 4533SOL    HW317899   3.197   6.161   0.740  0.0908 -0.8645  2.0150
 4533SOL    MW417900   3.136   6.216   0.769 -0.3805 -1.0196  0.0757
 4534SOL     OW17901   3.865   1.493   1.925  1.7090  0.1550 -0.1545
 4534SOL    HW217902   3.920   1.503   2.002  1.5931  2.4262 -0.3006
 4534SOL    HW317903   3.782   1.459   1.959  1.1942  2.3349  1.0019
 4534SOL    MW417904   3.861   1.490   1.940 -0.3247  0.2868  0.3430
 4535SOL     OW17905   3.652   2.686   3.837  0.2696  0.2010  0.3057
 4535SOL    HW217906   3.663   2.720   3.748  0.9238  1.5177  0.8653
 4535SOL    HW317907   3.695   2.751   3.893  2.7980 -2.1717  1.3493
 4535SOL    MW417908   3.659   2.699   3.832  0.0158  0.5206  0.3410
 4536SOL     OW17909   2.412   5.096   1.523 -0.1117 -0.3216  0.3458
 4536SOL    HW217910   2.426   5.053   1.608  0.2228  0.0095  0.4650
 4536SOL    HW317911   2.478   5.056   1.466 -0.4348 -0.6504  0.1995
 4536SOL    MW417912   2.423   5.085   1.527 -0.4174 -0.6427 -0.2545
 4537SOL     OW17913   5.086   4.819   1.153  0.4606  0.8729 -0.0206
 4537SOL    HW217914   5.079   4.727   1.177 -4.1184  1.0058 -0.0308
 4537SOL    HW317915   5.154   4.821   1.087  0.1962 -2.6541 -0.6022
 4537SOL    MW417916   5.094   4.807   1.148 -0.0483  0.2500 -0.0001
 4538SOL     OW17917   0.499   4.240   1.045  0.0983 -0.2016 -0.1374
 4538SOL    HW217918   0.530   4.251   1.135  0.8098 -1.2194 -0.2409
 4538SOL    HW317919   0.564   4.182   1.004  0.1741  0.8152 -1.5205
 4538SOL    MW417920   0.512   4.234   1.052 -0.3738 -0.2862  0.1107
 4539SOL     OW17921   0.999   4.074   6.229 -0.0404 -0.0079  0.5477
 4539SOL    HW217922   1.024   4.059   6.138  0.5930  0.2763  0.6653
 4539SOL    HW317923   1.083   4.087   6.274 -0.3387 -0.2900  1.1965
 4539SOL    MW417924   1.014   4.074   6.223  0.1687 -0.3718 -0.1907
 4540SOL     OW17925   0.575   5.883   4.339 -0.8659  0.0308 -0.8758
 4540SOL    HW217926   0.669   5.882   4.321 -0.9671 -2.5129 -1.5415
 4540SOL    HW317927   0.568   5.924   4.426  0.9077 -0.3962 -0.4938
 4540SOL    MW417928   0.586   5.888   4.348 -0.3981  0.4245  0.8257
 4541SOL     OW17929   3.779   4.390   1.351  0.2731  0.1311  0.5200
 4541SOL    HW217930   3.864   4.396   1.307  0.2113  0.8726  0.4872
 4541SOL    HW317931   3.778   4.464   1.411 -0.2256 -0.0607  0.7536
 4541SOL    MW417932   3.790   4.400   1.353 -0.4037 -0.3647 -0.4885
 4542SOL     OW17933   2.688   5.900   0.887  0.4938  0.2025 -0.1470
 4542SOL    HW217934   2.755   5.908   0.955  1.5033 -1.0240 -0.9460
 4542SOL    HW317935   2.614   5.951   0.920  0.7628 -0.7419  2.1064
 4542SOL    MW417936   2.687   5.907   0.900  0.3185 -0.4585  0.3033
 4543SOL     OW17937   2.929  -0.024   0.161 -0.1929 -0.1331 -0.3456
 4543SOL    HW217938   2.908  -0.115   0.183 -0.6121 -0.2568 -1.2030
 4543SOL    HW317939   3.013  -0.030   0.115  1.5188  0.2860  2.4459
 4543SOL    MW417940   2.938  -0.037   0.158 -0.4961 -0.1840  0.0985
 4544SOL     OW17941   1.132   5.678   1.210  0.3164 -0.5695 -0.0265
 4544SOL    HW217942   1.129   5.651   1.118  1.1195  0.5069 -0.3963
 4544SOL    HW317943   1.100   5.768   1.208  1.4243 -0.1447  0.5673
 4544SOL    MW417944   1.128   5.686   1.197 -0.2919  0.3140 -0.3834
 4545SOL     OW17945   3.242   1.793   1.441  0.5879 -0.0860  0.3334
 4545SOL    HW217946   3.222   1.796   1.535 -1.8328  0.2837 -0.1283
 4545SOL    HW317947   3.237   1.700   1.419 -3.2471  0.0585 -0.1445
 4545SOL    MW417948   3.238   1.781   1.450 -0.5922 -0.0371  0.0250
 4546SOL     OW17949   3.802   0.261   4.318 -0.4563  0.6557  0.5748
 4546SOL    HW217950   3.783   0.241   4.409 -2.2534 -1.8209 -0.2305
 4546SOL    HW317951   3.729   0.224   4.269  0.6987  1.4249 -1.9409
 4546SOL    MW417952   3.790   0.254   4.323  0.3629 -0.0831 -0.2928
 4547SOL     OW17953   4.961   2.001   5.675  0.5612 -0.3294 -0.1904
 4547SOL    HW217954   4.887   1.947   5.704  0.0201  0.2608 -0.4331
 4547SOL    HW317955   4.957   1.997   5.579  0.1800  0.5523 -0.2280
 4547SOL    MW417956   4.951   1.994   5.666  0.0809 -0.5489  0.2270
 4548SOL     OW17957   4.965   2.640   0.833  0.3432 -0.0962 -0.4362
 4548SOL    HW217958   4.919   2.721   0.851 -0.4863 -1.0506  2.0465
 4548SOL    HW317959   4.906   2.591   0.776 -0.6946 -0.3181  0.7923
 4548SOL    MW417960   4.951   2.644   0.828 -0.2663 -0.4639 -0.3718
 4549SOL     OW17961   4.267   0.597   1.221  0.4412 -0.0798  0.2380
 4549SOL    HW217962   4.358   0.572   1.203  0.5452  0.0350  0.5950
 4549SOL    HW317963   4.221   0.514   1.234  0.4873 -0.1395  0.0195
 4549SOL    MW417964   4.273   0.583   1.220 -0.6045 -0.7463  0.0039
 4550SOL     OW17965   5.624   0.872   5.645 -0.2163 -0.1859 -0.4730
 4550SOL    HW217966   5.594   0.808   5.581  0.1548  0.6424 -1.5182
 4550SOL    HW317967   5.574   0.952   5.623 -0.4447 -0.0215  0.5942
 4550SOL    MW417968   5.613   0.874   5.634 -0.0320  0.7604  0.0556
 4551SOL     OW17969   0.260   2.322   2.328 -0.1754 -0.3725  0.3269
 4551SOL    HW217970   0.332   2.300   2.388 -0.3042  0.7345  0.9078
 4551SOL    HW317971   0.203   2.245   2.330  1.0622 -1.3324 -0.2730
 4551SOL    MW417972   0.262   2.309   2.337 -0.1873 -0.0353 -0.2423
 4552SOL     OW17973   3.182   4.351   3.982 -0.6879 -0.7211  0.3034
 4552SOL    HW217974   3.105   4.301   4.008 -1.1609 -1.4328 -2.1794
 4552SOL    HW317975   3.147   4.431   3.943 -0.1938 -0.9433 -0.6334
 4552SOL    MW417976   3.167   4.355   3.980  0.5558  0.0586 -0.0561
 4553SOL     OW17977   3.431   4.605   0.811  0.3143  0.1795 -0.0695
 4553SOL    HW217978   3.507   4.645   0.854 -0.4345  0.0210  1.4462
 4553SOL    HW317979   3.431   4.514   0.843 -0.9757  0.4029  0.5953
 4553SOL    MW417980   3.441   4.598   0.821  0.3604  0.7326 -0.1930
 4554SOL     OW17981   5.337   1.478   4.888 -0.6157 -0.3543 -0.2867
 4554SOL    HW217982   5.382   1.502   4.807 -1.9302 -0.2585 -1.0245
 4554SOL    HW317983   5.378   1.396   4.915 -0.0426 -0.2965 -0.9521
 4554SOL    MW417984   5.348   1.471   4.881 -0.1345 -0.4088  0.3609
 4555SOL     OW17985   2.510   5.320   6.248  0.0036  0.6884  0.0481
 4555SOL    HW217986   2.500   5.377   6.172  3.1437  1.8301  0.3706
 4555SOL    HW317987   2.563   5.247   6.218 -1.1924 -0.4181  0.4879
 4555SOL    MW417988   2.515   5.318   6.234 -0.2878  0.7355 -0.6768
 4556SOL     OW17989   4.892   2.279   5.500  0.3159 -0.4334  0.4365
 4556SOL    HW217990   4.823   2.215   5.521  1.3928 -2.5074 -1.8918
 4556SOL    HW317991   4.844   2.361   5.486 -1.4722 -1.3744  0.6905
 4556SOL    MW417992   4.876   2.281   5.501 -0.1424  0.3830  0.5397
 4557SOL     OW17993   3.016   0.275   4.174 -0.2025  0.0103 -0.4043
 4557SOL    HW217994   2.969   0.343   4.126 -0.0470  0.5303  0.1699
 4557SOL    HW317995   3.106   0.307   4.180 -0.4767  0.5737  1.3092
 4557SOL    MW417996   3.022   0.288   4.169  0.5711  0.1518 -0.4194
 4558SOL     OW17997   2.886   2.887   0.752  0.1901 -0.2870  0.4858
 4558SOL    HW217998   2.980   2.902   0.762  0.5047 -1.0003 -1.1659
 4558SOL    HW317999   2.849   2.976   0.749  1.2262  0.1382 -2.1569
 4558SOL    MW418000   2.894   2.901   0.753 -0.0238 -0.7761  0.5307
 4559SOL     OW18001   3.029   1.199   1.259 -0.4718  0.8709 -0.0696
 4559SOL    HW218002   3.031   1.211   1.354 -2.0268  0.4456  0.0464
 4559SOL    HW318003   2.973   1.270   1.228  0.2556  1.1738 -0.7132
 4559SOL    MW418004   3.022   1.210   1.268 -0.1360 -0.7224  0.2577
 4560SOL     OW18005   0.377   3.515   3.005 -0.0887 -0.0967  0.1802
 4560SOL    HW218006   0.421   3.444   3.053  0.4139 -0.0115 -0.1437
 4560SOL    HW318007   0.394   3.494   2.913 -1.7109 -0.7007 -0.0164
 4560SOL    MW418008   0.385   3.503   2.999 -0.2843 -0.1935 -0.0297
 4561SOL     OW18009   5.052   0.245   5.754 -0.3441 -0.0355  0.0967
 4561SOL    HW218010   5.131   0.249   5.699 -0.3110 -0.2289  0.1301
 4561SOL    HW318011   5.071   0.178   5.819  0.1884  1.1823  1.2488
 4561SOL    MW418012   5.065   0.237   5.755  0.1398  0.6220 -0.3293
 4562SOL     OW18013   3.468   2.864   0.728  0.5633 -0.6833  0.0756
 4562SOL    HW218014   3.503   2.909   0.805 -0.0387 -0.7391  0.3876
 4562SOL    HW318015   3.539   2.807   0.699  0.8355 -0.5760  0.5189
 4562SOL    MW418016   3.482   2.863   0.735  0.4060  0.6835 -0.3391
 4563SOL     OW18017   0.038   2.112   5.633  0.4152  0.1977  0.6074
 4563SOL    HW218018   0.101   2.172   5.594  1.3976 -1.1368  0.0767
 4563SOL    HW318019   0.064   2.025   5.602 -2.8805 -0.2668 -1.2952
 4563SOL    MW418020   0.050   2.108   5.624  0.2998 -0.3487  0.0985
 4564SOL     OW18021   5.278   4.117   4.566 -0.0984  0.2464 -0.2445
 4564SOL    HW218022   5.337   4.043   4.577 -0.8115 -0.4072 -0.7079
 4564SOL    HW318023   5.249   4.110   4.475  0.1044  1.3128 -0.4074
 4564SOL    MW418024   5.282   4.107   4.555  0.0386  0.5085  0.7756
 4565SOL     OW18025   6.124   3.413   3.680 -0.2735  0.0469 -0.1748
 4565SOL    HW218026   6.079   3.328   3.685  0.6288 -0.3860  1.1545
 4565SOL    HW318027   6.110   3.443   3.590 -1.3774 -1.0832 -0.3991
 4565SOL    MW418028   6.116   3.406   3.669  0.4064 -0.2169 -0.3000
 4566SOL     OW18029   4.440   2.571   0.311  0.3934 -0.0661  0.0601
 4566SOL    HW218030   4.398   2.501   0.362  2.0081 -1.5849 -0.5623
 4566SOL    HW318031   4.415   2.553   0.221  0.2701  0.5754 -0.0349
 4566SOL    MW418032   4.431   2.559   0.306  0.3340  0.5443 -0.4051
 4567SOL     OW18033   4.206   3.498   4.345 -0.3367 -0.0158  0.1431
 4567SOL    HW218034   4.200   3.502   4.250  0.9039  2.2226  0.0905
 4567SOL    HW318035   4.143   3.431   4.370 -2.3340  0.8737 -2.1127
 4567SOL    MW418036   4.197   3.490   4.336  0.2555 -0.4457  0.1509
 4568SOL     OW18037   5.676   0.334   4.005  0.1082  0.4099 -0.1762
 4568SOL    HW218038   5.647   0.271   3.938  1.1295 -1.4106  1.0121
 4568SOL    HW318039   5.765   0.358   3.978  0.9376 -1.1438  1.0020
 4568SOL    MW418040   5.684   0.329   3.992  0.6554 -0.1557  0.0382
 4569SOL     OW18041   2.625   0.641   1.529 -0.2144 -0.1873  0.1525
 4569SOL    HW218042   2.577   0.685   1.598 -0.0269 -0.0212  0.1795
 4569SOL    HW318043   2.582   0.669   1.448  0.0016  0.1763  0.1581
 4569SOL    MW418044   2.613   0.651   1.527 -0.8959  0.3128 -0.0755
 4570SOL     OW18045   1.554   1.125   6.078 -0.4137  0.1667 -0.1008
 4570SOL    HW218046   1.540   1.123   5.984 -1.4974  0.2799  0.0462
 4570SOL    HW318047   1.569   1.218   6.098  1.4902 -0.0394 -0.3633
 4570SOL    MW418048   1.555   1.137   6.069  0.2270 -0.4202  0.2256
 4571SOL     OW18049   0.364   6.110   1.256  0.4427  0.6894  0.2726
 4571SOL    HW218050   0.335   6.019   1.258 -0.0511  0.7669 -1.6296
 4571SOL    HW318051   0.392   6.124   1.165  0.2239  2.5233  0.4654
 4571SOL    MW418052   0.364   6.100   1.244  0.2408 -0.2235  0.5233
 4572SOL     OW18053   6.081   5.672   4.657  0.1380 -0.0055 -0.0900
 4572SOL    HW218054   6.156   5.684   4.715  0.7610  1.3823 -1.1247
 4572SOL    HW318055   6.031   5.601   4.697  1.1059  0.1799  1.5320
 4572SOL    MW418056   6.084   5.664   4.670  0.0208 -0.2347  0.7775
 4573SOL     OW18057   1.904   3.317   5.853 -0.3238 -0.1263 -0.0924
 4573SOL    HW218058   1.843   3.362   5.794 -2.2758 -2.8326 -0.3099
 4573SOL    HW318059   1.892   3.360   5.938 -0.8857  0.7924 -0.6187
 4573SOL    MW418060   1.895   3.329   5.856  0.4714  0.2456 -0.6715
 4574SOL     OW18061   5.001   5.046   6.305  0.0532 -0.3067 -0.6178
 4574SOL    HW218062   5.037   4.987   6.238 -1.1028 -0.2802 -1.2879
 4574SOL    HW318063   5.078   5.088   6.343  0.7187  0.3495 -2.5569
 4574SOL    MW418064   5.016   5.043   6.301 -0.1845  0.4005 -0.4326
 4575SOL     OW18065   1.960   6.096   3.237  0.3586  0.5607 -0.0473
 4575SOL    HW218066   1.932   6.043   3.311 -0.5681  0.4660 -0.4571
 4575SOL    HW318067   2.048   6.125   3.261  0.4936 -0.3461  0.6165
 4575SOL    MW418068   1.968   6.093   3.250  0.7869  0.0084 -0.0909
 4576SOL     OW18069   3.244   5.231   2.803  0.3519 -0.3009  0.3091
 4576SOL    HW218070   3.244   5.204   2.712  0.3157 -3.1595  1.0598
 4576SOL    HW318071   3.152   5.251   2.822  0.4385  0.8596 -0.3637
 4576SOL    MW418072   3.232   5.230   2.794 -0.2647 -0.7402 -0.0991
 4577SOL     OW18073   4.308   3.352   4.608 -0.0650 -0.0807  0.7121
 4577SOL    HW218074   4.252   3.411   4.557  0.6093 -0.5628 -0.6384
 4577SOL    HW318075   4.269   3.351   4.696 -0.9585  1.1839  0.3538
 4577SOL    MW418076   4.295   3.360   4.613 -0.4191  0.6627  0.8749
 4578SOL     OW18077   0.228   0.607   2.553  0.2048 -0.6537 -0.0531
 4578SOL    HW218078   0.149   0.661   2.553  1.0001  0.5572  1.1723
 4578SOL    HW318079   0.215   0.545   2.625  0.0934 -0.9060 -0.2864
 4578SOL    MW418080   0.216   0.606   2.563 -0.5713  0.3131 -0.0579
 4579SOL     OW18081   0.765   0.206   1.409  0.5180 -0.3051  0.4010
 4579SOL    HW218082   0.682   0.235   1.448  0.3586  0.2688 -0.3325
 4579SOL    HW318083   0.762   0.240   1.320 -0.4224 -3.9715 -1.1592
 4579SOL    MW418084   0.753   0.214   1.402 -0.0638  0.3142 -0.1056
 4580SOL     OW18085   1.170   1.696   1.785  0.1926  0.1792 -0.0959
 4580SOL    HW218086   1.251   1.693   1.735  0.5440 -0.2753  0.4888
 4580SOL    HW318087   1.136   1.784   1.771  1.9373  1.1621  1.4377
 4580SOL    MW418088   1.176   1.707   1.777  0.2343  0.4230  0.1694
 4581SOL     OW18089   3.602   5.749   5.247  0.1195 -0.0474  0.4201
 4581SOL    HW218090   3.603   5.753   5.343  0.9400  0.5431  0.4054
 4581SOL    HW318091   3.694   5.758   5.222 -0.1270  0.2652 -0.4353
 4581SOL    MW418092   3.614   5.751   5.256  0.0476  0.2204  0.3947
 4582SOL     OW18093   2.948   3.515   1.106 -0.0727 -0.0270  0.2072
 4582SOL    HW218094   3.013   3.532   1.174  0.2502  0.5601 -0.2347
 4582SOL    HW318095   2.867   3.554   1.139  0.3577  1.2930 -0.2352
 4582SOL    MW418096   2.946   3.523   1.119  0.2222  0.2134  0.0014
 4583SOL     OW18097   5.891   0.106   4.168  0.2584 -0.3508 -0.1313
 4583SOL    HW218098   5.810   0.138   4.209  1.3681  1.1848  0.9610
 4583SOL    HW318099   5.885   0.011   4.176 -1.8332 -0.3474 -0.8850
 4583SOL    MW418100   5.879   0.098   4.175  0.2377  0.1770  0.3372
 4584SOL     OW18101   6.083   3.285   3.276  0.2949 -0.9183 -0.2542
 4584SOL    HW218102   6.051   3.199   3.303 -0.0497 -0.5094  0.6739
 4584SOL    HW318103   6.178   3.276   3.274  0.3505 -0.9319  1.2891
 4584SOL    MW418104   6.092   3.273   3.279 -0.1430  0.1636  0.7563
 4585SOL     OW18105   1.852   1.024   1.511  0.1020 -0.0570  0.0244
 4585SOL    HW218106   1.779   0.964   1.506  2.0521 -2.5467 -0.7033
 4585SOL    HW318107   1.917   0.979   1.565  1.2756  1.8568  0.3304
 4585SOL    MW418108   1.851   1.010   1.517 -0.1848 -0.1631 -0.1167
 4586SOL     OW18109   2.388   0.632   1.069  0.6228  0.0921  0.4929
 4586SOL    HW218110   2.302   0.671   1.059  0.0570 -1.3519 -0.8439
 4586SOL    HW318111   2.373   0.552   1.120  1.3018  0.2166  0.9108
 4586SOL    MW418112   2.375   0.626   1.074 -0.6626  0.6450 -0.5379
 4587SOL     OW18113   5.017   2.343   3.977 -0.4587 -0.0707  0.0740
 4587SOL    HW218114   5.076   2.351   4.052  0.4891 -1.5562 -0.4783
 4587SOL    HW318115   4.959   2.419   3.984  2.4293  2.3502 -0.1685
 4587SOL    MW418116   5.017   2.354   3.988  0.2366  0.2691  0.3247
 4588SOL     OW18117   0.371   0.015   3.026  0.9246 -0.1234 -0.4030
 4588SOL    HW218118   0.292  -0.031   2.997  0.9955 -1.2899  1.0974
 4588SOL    HW318119   0.346   0.107   3.029 -0.5149 -0.5070  0.4010
 4588SOL    MW418120   0.358   0.021   3.023 -0.2136 -0.0463 -0.0010
 4589SOL     OW18121   4.084   5.382   4.724  0.0952 -0.1406  0.3597
 4589SOL    HW218122   4.030   5.442   4.671  1.9521  2.6976  1.4195
 4589SOL    HW318123   4.161   5.366   4.669  0.8902  0.8066  1.1590
 4589SOL    MW418124   4.087   5.388   4.710  0.5587  0.3540  0.3864
 4590SOL     OW18125   4.791   4.611   5.344 -1.2437  0.3294  0.6234
 4590SOL    HW218126   4.824   4.700   5.351  0.1299 -0.2772  2.3314
 4590SOL    HW318127   4.751   4.608   5.256 -0.5481  2.3348  0.1757
 4590SOL    MW418128   4.790   4.622   5.333  0.7188  0.1849  0.1935
 4591SOL     OW18129   0.076   3.084   2.638 -0.2344  0.7834 -0.0354
 4591SOL    HW218130  -0.006   3.077   2.590  0.7267  0.4136 -1.7184
 4591SOL    HW318131   0.080   3.005   2.691  0.6299 -1.0908 -2.6807
 4591SOL    MW418132   0.066   3.073   2.638 -0.0311  0.2511 -0.1281
 4592SOL     OW18133   3.187   4.174   1.857  0.2459  0.3355  0.3647
 4592SOL    HW218134   3.144   4.191   1.940 -0.0621 -0.0168  0.2797
 4592SOL    HW318135   3.204   4.261   1.821  1.2364  0.5142  1.2202
 4592SOL    MW418136   3.183   4.187   1.863 -0.5304  0.1769  0.1845
 4593SOL     OW18137   1.210   4.010   3.135  0.2579 -0.6770 -0.0391
 4593SOL    HW218138   1.284   4.053   3.178 -0.8258  0.6850  0.5465
 4593SOL    HW318139   1.168   4.079   3.084 -1.7593 -0.8939  1.2064
 4593SOL    MW418140   1.214   4.025   3.134  0.4682  0.0101 -0.4569
 4594SOL     OW18141   4.981   5.609   3.182 -0.1369  0.4703  0.6770
 4594SOL    HW218142   5.075   5.626   3.188  0.0578 -0.3930  0.2761
 4594SOL    HW318143   4.963   5.608   3.088 -0.2444 -0.8254  0.6850
 4594SOL    MW418144   4.991   5.611   3.170  0.3216 -0.1494  0.0922
 4595SOL     OW18145   5.038   4.243   6.324 -0.1910  0.3762  0.5216
 4595SOL    HW218146   5.054   4.259   6.231 -0.5697 -1.1036  0.1793
 4595SOL    HW318147   5.090   4.310   6.369 -0.1250  1.2076 -0.7482
 4595SOL    MW418148   5.047   4.254   6.318  0.1754 -0.1496 -0.2202
 4596SOL     OW18149   3.510   5.380   1.673  0.6487 -0.3261 -0.2964
 4596SOL    HW218150   3.581   5.434   1.639 -0.2458  0.1378 -1.5230
 4596SOL    HW318151   3.431   5.417   1.633 -0.5420  0.3315  2.3715
 4596SOL    MW418152   3.509   5.392   1.664 -0.0894 -0.3766  0.0027
 4597SOL     OW18153   1.841   1.959   0.682 -0.2121 -0.1349  0.1260
 4597SOL    HW218154   1.904   1.919   0.622 -0.1581 -1.4528  1.0122
 4597SOL    HW318155   1.801   1.885   0.727  1.4672  0.7772  3.4727
 4597SOL    MW418156   1.844   1.944   0.680  0.1336  0.0357 -0.2971
 4598SOL     OW18157   2.052   0.406   2.811 -0.0422  0.3750  0.0016
 4598SOL    HW218158   2.008   0.464   2.749  0.5300 -0.8107 -1.5763
 4598SOL    HW318159   2.098   0.342   2.757  2.3725  0.6241  1.6037
 4598SOL    MW418160   2.052   0.405   2.796  0.3437  0.1393 -0.2447
 4599SOL     OW18161   3.591   5.725   5.726  0.0456  0.2878  0.0152
 4599SOL    HW218162   3.608   5.637   5.758 -0.8923  0.2755  0.4963
 4599SOL    HW318163   3.499   5.724   5.700  0.4204  0.6878 -1.4244
 4599SOL    MW418164   3.581   5.713   5.726 -0.0585  0.1189 -0.0298
 4600SOL     OW18165   3.059   1.234   3.211  0.4179  0.4505  0.1341
 4600SOL    HW218166   2.972   1.205   3.239  0.2183  0.7028 -0.2169
 4600SOL    HW318167   3.087   1.168   3.147  1.0748 -0.3871  1.2505
 4600SOL    MW418168   3.051   1.221   3.206 -0.1457  0.0990  1.0120
 4601SOL     OW18169   5.936   1.194   6.179 -0.1401  0.3910  0.1625
 4601SOL    HW218170   5.964   1.152   6.260  1.6674  0.2519 -0.4752
 4601SOL    HW318171   5.992   1.272   6.172 -1.4190  1.3035 -0.1322
 4601SOL    MW418172   5.947   1.199   6.189 -0.0509 -0.4825 -0.2969
 4602SOL     OW18173   4.537   0.252   1.747 -0.4650 -0.3618  1.0698
 4602SOL    HW218174   4.613   0.199   1.721 -1.6392 -1.1243 -1.0968
 4602SOL    HW318175   4.462   0.205   1.710 -1.7744  1.5801  1.1340
 4602SOL    MW418176   4.537   0.239   1.738  0.3745 -0.4473  0.6422
 4603SOL     OW18177   2.903   5.621   1.424  0.0201 -0.3355  0.0634
 4603SOL    HW218178   2.932   5.544   1.474 -1.9805 -1.1701  0.0407
 4603SOL    HW318179   2.862   5.677   1.490 -1.4267 -0.8175 -0.4061
 4603SOL    MW418180   2.902   5.618   1.440  0.1061 -0.5262  0.1345
 4604SOL     OW18181   4.122   4.323   1.890 -0.1392 -0.2834 -0.1265
 4604SOL    HW218182   4.058   4.272   1.840  0.9802 -1.9205  0.0260
 4604SOL    HW318183   4.088   4.322   1.980 -1.0033  0.7569 -0.4194
 4604SOL    MW418184   4.109   4.316   1.896 -0.1998 -0.0969 -0.1745
 4605SOL     OW18185   1.656   3.819   0.151  0.0380  0.0396  0.6672
 4605SOL    HW218186   1.588   3.753   0.155 -0.3864  0.4544  0.3791
 4605SOL    HW318187   1.615   3.898   0.186 -0.1582  0.7198 -1.0167
 4605SOL    MW418188   1.642   3.821   0.156  0.5557 -0.1317  0.1177
 4606SOL     OW18189   2.804   2.912   2.425 -0.7668  0.6899  0.3271
 4606SOL    HW218190   2.745   2.837   2.418 -0.1254  0.2191 -0.2415
 4606SOL    HW318191   2.780   2.954   2.507 -1.8607  0.4888  0.1280
 4606SOL    MW418192   2.793   2.908   2.435 -0.2467  0.6003 -0.4453
 4607SOL     OW18193   0.750   2.270   4.537 -0.0449 -0.2980 -0.7227
 4607SOL    HW218194   0.808   2.273   4.613 -1.1212 -0.5570  0.1469
 4607SOL    HW318195   0.796   2.319   4.469  1.1220 -0.4037 -0.0298
 4607SOL    MW418196   0.764   2.277   4.538  1.1986  0.9226  0.5180
 4608SOL     OW18197   3.837   5.701   2.598 -0.2518  0.1594 -0.1340
 4608SOL    HW218198   3.814   5.741   2.682 -1.2974 -1.5769  0.4663
 4608SOL    HW318199   3.913   5.750   2.568  1.3217 -0.3002  2.7167
 4608SOL    MW418200   3.844   5.713   2.605  0.2699 -0.0486  0.3578
 4609SOL     OW18201   1.047   0.052   3.885  0.1258  0.0909 -0.0348
 4609SOL    HW218202   1.124   0.087   3.931 -0.0195  0.0366  0.2463
 4609SOL    HW318203   1.059   0.081   3.794  1.3166 -1.2709 -0.3617
 4609SOL    MW418204   1.059   0.060   3.879 -0.2948 -0.2803 -0.0304
 4610SOL     OW18205   2.370   4.544   0.069 -0.1143  0.3917 -0.1254
 4610SOL    HW218206   2.353   4.591  -0.013 -1.2764 -1.0206 -0.7346
 4610SOL    HW318207   2.350   4.608   0.137 -0.5486  1.1482 -0.9339
 4610SOL    MW418208   2.365   4.558   0.067  0.5066  0.8044  0.0284
 4611SOL     OW18209   5.042   4.209   4.681  0.2339 -0.5470 -0.1755
 4611SOL    HW218210   4.986   4.170   4.614  0.4336  1.0635 -1.3355
 4611SOL    HW318211   5.129   4.209   4.643  0.6006 -0.8190  0.6361
 4611SOL    MW418212   5.046   4.204   4.667  0.5774 -0.0872 -0.4515
 4612SOL     OW18213   3.403   4.683   4.650 -0.3308 -0.8194  0.6579
 4612SOL    HW218214   3.462   4.621   4.606 -0.2836  0.9435 -1.9933
 4612SOL    HW318215   3.461   4.751   4.684 -0.6904  0.1897 -0.6948
 4612SOL    MW418216   3.418   4.684   4.649 -0.7567  0.1516  0.7427
 4613SOL     OW18217   3.635   4.079   1.233 -0.6470 -0.5027 -0.0705
 4613SOL    HW218218   3.694   4.075   1.157 -0.7021 -0.5307 -0.1119
 4613SOL    HW318219   3.626   4.173   1.251 -1.1869 -0.4635 -0.5329
 4613SOL    MW418220   3.642   4.091   1.225 -0.3609 -0.5978  0.3287
 4614SOL     OW18221   4.151   0.206   1.920  0.3153  0.3960  0.8919
 4614SOL    HW218222   4.120   0.156   1.995 -1.0041  0.9640  0.7471
 4614SOL    HW318223   4.240   0.233   1.944  0.2717 -0.2630  1.8199
 4614SOL    MW418224   4.159   0.203   1.933  0.7031  0.6968 -0.0397
 4615SOL     OW18225   3.822   2.111   0.518  0.2442  0.4342 -0.1506
 4615SOL    HW218226   3.760   2.183   0.516  1.2725  1.4229 -3.5213
 4615SOL    HW318227   3.898   2.145   0.566 -0.8625 -0.0355  2.0704
 4615SOL    MW418228   3.824   2.125   0.524 -0.4859 -0.6103  0.0884
 4616SOL     OW18229   5.157   0.040   1.580 -0.1868  0.1001 -0.2704
 4616SOL    HW218230   5.138   0.117   1.526  0.2315  0.1916 -0.2903
 4616SOL    HW318231   5.133  -0.034   1.524  0.3286  0.1933 -0.6218
 4616SOL    MW418232   5.151   0.040   1.565 -0.0113 -0.2096 -0.0325
 4617SOL     OW18233   2.597   0.834   3.938  0.2176 -0.2769  0.5157
 4617SOL    HW218234   2.677   0.784   3.924  0.5389 -0.1030  1.6365
 4617SOL    HW318235   2.612   0.881   4.021 -0.9121  0.0111  0.5749
 4617SOL    MW418236   2.610   0.834   3.947 -0.0441 -0.0304  0.4991
 4618SOL     OW18237   3.230   0.467   4.998 -0.4751  0.1668 -0.2067
 4618SOL    HW218238   3.187   0.510   5.072 -0.5781  2.5142 -1.5281
 4618SOL    HW318239   3.254   0.539   4.939  0.3657 -1.5395 -2.0684
 4618SOL    MW418240   3.228   0.482   5.000 -0.3948  0.3291 -0.4940
 4619SOL     OW18241   6.273   2.748   3.526 -0.0263  0.2301 -0.4950
 4619SOL    HW218242   6.197   2.800   3.553  0.1360  0.2398 -0.0408
 4619SOL    HW318243   6.347   2.792   3.568  0.0298 -0.8023  0.5463
 4619SOL    MW418244   6.272   2.761   3.535 -0.1187 -0.8123  0.2717
 4620SOL     OW18245   2.585   3.436   5.998 -0.2310  0.7533 -0.0121
 4620SOL    HW218246   2.548   3.393   5.921 -1.4056  1.1871  0.2998
 4620SOL    HW318247   2.531   3.406   6.071  0.5711  0.7289  0.5848
 4620SOL    MW418248   2.573   3.426   5.997 -0.3875 -0.4875  0.6134
 4621SOL     OW18249   2.792   3.350   4.414  0.0626 -0.1449  0.0287
 4621SOL    HW218250   2.775   3.256   4.416 -4.1684  0.4328  0.7018
 4621SOL    HW318251   2.734   3.384   4.345  2.8927  1.8793 -1.5863
 4621SOL    MW418252   2.782   3.342   4.405 -0.2536 -0.2617 -0.3623
 4622SOL     OW18253   5.155   0.077   6.173 -0.3070  0.1991 -0.3145
 4622SOL    HW218254   5.167   0.134   6.249 -0.7592 -0.5656  0.3610
 4622SOL    HW318255   5.126  -0.006   6.211 -0.5701 -0.1902 -1.3374
 4622SOL    MW418256   5.153   0.073   6.188 -0.8801 -0.4641  0.0737
 4623SOL     OW18257   4.568   2.455   1.164  0.2968 -0.1294 -0.0602
 4623SOL    HW218258   4.566   2.539   1.118 -1.0138  0.0225  0.2375
 4623SOL    HW318259   4.641   2.407   1.124  0.4255  0.7559 -0.9224
 4623SOL    MW418260   4.577   2.460   1.153 -0.0538  0.9754  0.4895
 4624SOL     OW18261   3.075   2.507   1.284  0.2162 -0.1223 -0.5302
 4624SOL    HW218262   3.114   2.425   1.313 -0.3047 -0.2488 -0.1968
 4624SOL    HW318263   3.105   2.572   1.348 -0.0135 -0.1950 -0.3498
 4624SOL    MW418264   3.084   2.505   1.296  0.0954 -0.3037  0.0719
 4625SOL     OW18265   2.632   2.571   3.001 -0.0003 -0.5156 -0.0806
 4625SOL    HW218266   2.558   2.627   3.024  1.4390  0.6661  2.0646
 4625SOL    HW318267   2.654   2.595   2.911 -2.2802 -1.0457 -0.8474
 4625SOL    MW418268   2.625   2.582   2.992 -0.3109  0.1465 -0.2172
 4626SOL     OW18269   5.731   5.581   1.012 -0.3873  0.2574  0.4680
 4626SOL    HW218270   5.772   5.653   1.060  1.0806  0.3504 -0.8565
 4626SOL    HW318271   5.662   5.623   0.961 -0.3364  0.5263  0.6174
 4626SOL    MW418272   5.727   5.596   1.012 -0.0423 -0.2025  0.0003
 4627SOL     OW18273   1.112   1.620   4.108  0.0114  0.3648 -0.1497
 4627SOL    HW218274   1.090   1.541   4.059  0.2491 -0.0393  0.3925
 4627SOL    HW318275   1.027   1.659   4.129 -0.2092 -0.9061  1.4623
 4627SOL    MW418276   1.098   1.615   4.104  0.1815  0.0935 -0.5064
 4628SOL     OW18277   1.120   3.949   3.911  0.0909  0.3463 -0.2152
 4628SOL    HW218278   1.055   3.891   3.872  0.1756  1.1040 -1.5289
 4628SOL    HW318279   1.198   3.939   3.856  1.4278 -1.1254  1.7612
 4628SOL    MW418280   1.122   3.940   3.899  0.3352  0.0006  0.3382
 4629SOL     OW18281   2.725   5.932   2.132  0.2096  0.6805  0.2240
 4629SOL    HW218282   2.730   5.998   2.063  0.6519 -0.1461 -0.5550
 4629SOL    HW318283   2.787   5.962   2.198  1.1833  0.5116 -0.5967
 4629SOL    MW418284   2.734   5.945   2.131 -0.0381  0.1441 -0.4750
 4630SOL     OW18285   4.920   4.643   0.878 -0.4538  0.6479 -0.7776
 4630SOL    HW218286   4.900   4.729   0.842  0.4944  0.6856 -1.2498
 4630SOL    HW318287   4.997   4.614   0.830 -0.0912  0.0154  0.1494
 4630SOL    MW418288   4.927   4.651   0.867 -0.5480  0.2698 -0.2748
 4631SOL     OW18289   5.797   5.880   1.103 -0.1264  0.5748  0.1720
 4631SOL    HW218290   5.815   5.923   1.020 -0.6983 -0.0504 -0.2871
 4631SOL    HW318291   5.752   5.946   1.155 -0.6646  0.6529 -0.3850
 4631SOL    MW418292   5.794   5.894   1.099 -0.0100 -0.2896  0.3542
 4632SOL     OW18293   5.914   4.724   3.651  0.1310 -0.5969 -0.8146
 4632SOL    HW218294   5.914   4.777   3.731 -1.3221 -0.4705 -0.8770
 4632SOL    HW318295   5.870   4.643   3.675  0.4786 -0.9272 -1.2635
 4632SOL    MW418296   5.909   4.720   3.664  0.0809 -0.1130  0.3798
 4633SOL     OW18297   4.494   1.751   4.909  0.2602 -0.4991  0.6910
 4633SOL    HW218298   4.581   1.772   4.944  0.4215 -0.0804  0.0448
 4633SOL    HW318299   4.449   1.708   4.982  0.7401 -0.0204  1.2760
 4633SOL    MW418300   4.500   1.748   4.923  0.1860 -0.0541  0.7609
 4634SOL     OW18301   0.448   3.299   3.176 -0.6196 -0.4230 -0.6803
 4634SOL    HW218302   0.491   3.329   3.255  0.3724  1.3266 -1.8146
 4634SOL    HW318303   0.354   3.303   3.196 -0.3850  0.1908  0.3230
 4634SOL    MW418304   0.441   3.304   3.189  0.1689 -0.3819  0.0503
 4635SOL     OW18305   0.508   5.047   6.116 -0.4879  0.1117  0.2306
 4635SOL    HW218306   0.583   4.999   6.151 -1.1272  0.6737  2.5542
 4635SOL    HW318307   0.542   5.134   6.097 -0.5606  0.4276  1.4746
 4635SOL    MW418308   0.522   5.052   6.118  0.6767 -0.3172 -0.0287
 4636SOL     OW18309   0.204   0.654   3.836 -0.0660 -0.3971 -0.9561
 4636SOL    HW218310   0.222   0.605   3.756  0.4890  2.4043 -2.6811
 4636SOL    HW318311   0.282   0.709   3.848 -1.0057  0.7113  0.3298
 4636SOL    MW418312   0.217   0.655   3.827 -0.4258 -0.0410  0.4433
 4637SOL     OW18313   6.307   0.948   2.825 -0.1514  0.6158 -0.3942
 4637SOL    HW218314   6.240   0.985   2.766 -0.0667 -1.8001 -2.1304
 4637SOL    HW318315   6.263   0.876   2.869  0.8554 -0.0101 -0.3855
 4637SOL    MW418316   6.292   0.944   2.823  0.2111  0.4769  0.5865
 4638SOL     OW18317   3.473   0.872   5.299 -0.0552  0.2271  1.0442
 4638SOL    HW218318   3.415   0.869   5.375 -1.1307 -1.1611  0.2203
 4638SOL    HW318319   3.415   0.899   5.227  1.0801  2.1793  0.7915
 4638SOL    MW418320   3.458   0.875   5.299 -0.0523  0.6603  0.3024
 4639SOL     OW18321   0.737   2.275   5.416 -0.1748 -0.1115 -0.5386
 4639SOL    HW218322   0.801   2.209   5.390  0.5177  0.7504 -1.0710
 4639SOL    HW318323   0.782   2.326   5.484  0.2123  1.2842 -1.7821
 4639SOL    MW418324   0.752   2.273   5.422  1.1055 -0.5527 -0.4746
 4640SOL     OW18325   5.608   4.319   5.878 -0.1533 -0.1336  0.4341
 4640SOL    HW218326   5.520   4.284   5.869 -1.1068  2.1510  0.1242
 4640SOL    HW318327   5.608   4.398   5.824  2.0650 -0.0205  0.5070
 4640SOL    MW418328   5.596   4.325   5.870  0.0781  0.0268  0.0036
 4641SOL     OW18329   3.802   2.812   0.894  0.3604  0.0533 -0.3734
 4641SOL    HW218330   3.726   2.861   0.926  0.5543  0.1989 -0.1351
 4641SOL    HW318331   3.779   2.789   0.804  0.6447  1.3820 -0.8154
 4641SOL    MW418332   3.789   2.815   0.887 -0.0349 -0.0930 -0.5532
 4642SOL     OW18333   5.259   5.105   2.769 -0.6409  0.0010 -0.3648
 4642SOL    HW218334   5.346   5.074   2.797 -0.5187  1.0676  0.4956
 4642SOL    HW318335   5.217   5.027   2.733  0.6167 -0.5705 -0.6617
 4642SOL    MW418336   5.265   5.090   2.768  1.0353 -0.3804  0.4210
 4643SOL     OW18337   3.095   3.987   4.743  0.3248 -0.0474 -0.5294
 4643SOL    HW218338   3.016   3.978   4.691  0.5307  0.3680 -0.9193
 4643SOL    HW318339   3.072   3.951   4.829 -0.3081  0.1440 -0.6171
 4643SOL    MW418340   3.082   3.981   4.748 -0.1787  0.1418  0.2259
 4644SOL     OW18341   4.006   0.728   3.177  0.3578 -0.3403 -0.0839
 4644SOL    HW218342   3.980   0.672   3.104 -2.0612  1.3096 -0.6035
 4644SOL    HW318343   4.072   0.787   3.139 -0.2994 -0.0158 -0.7624
 4644SOL    MW418344   4.012   0.729   3.162 -0.3622 -0.1783 -0.9831
 4645SOL     OW18345   5.652   2.035   3.421 -0.3819  0.6678  0.3596
 4645SOL    HW218346   5.726   2.018   3.480 -1.4971  0.7140  1.8304
 4645SOL    HW318347   5.621   1.947   3.397 -1.0198  0.6160  1.3055
 4645SOL    MW418348   5.658   2.021   3.426  0.6821 -0.2877  0.1262
 4646SOL     OW18349   5.968   1.606   5.198 -0.8606 -0.1370 -0.2090
 4646SOL    HW218350   6.045   1.662   5.198 -0.4940 -0.5848 -2.1463
 4646SOL    HW318351   5.965   1.569   5.287 -0.7748  2.4117  0.9401
 4646SOL    MW418352   5.977   1.609   5.210  0.2150 -0.1755  0.4176
 4647SOL     OW18353   5.761   0.051   5.789 -0.7330 -0.4045 -0.2931
 4647SOL    HW218354   5.727   0.132   5.751  0.2355 -1.2548 -3.2197
 4647SOL    HW318355   5.856   0.061   5.784 -0.5389 -0.6480  1.9037
 4647SOL    MW418356   5.769   0.063   5.784  0.1795 -0.3574  0.4467
 4648SOL     OW18357   4.816   0.018   5.530 -0.0659  0.5034  0.2002
 4648SOL    HW218358   4.721   0.009   5.531  0.0425 -0.8870 -0.1608
 4648SOL    HW318359   4.831   0.112   5.529 -1.3972  0.8050  2.3229
 4648SOL    MW418360   4.806   0.029   5.530 -0.0106  0.2977  0.9359
 4649SOL     OW18361   4.209   1.577   1.418  0.0797  0.2390 -0.5204
 4649SOL    HW218362   4.116   1.598   1.409 -0.1065  0.4194  1.2610
 4649SOL    HW318363   4.239   1.560   1.329 -1.9160 -0.9624 -1.0323
 4649SOL    MW418364   4.200   1.578   1.405 -0.3862 -0.1732 -0.2451
 4650SOL     OW18365   3.189   1.543   1.323 -0.2605  0.2493  0.0243
 4650SOL    HW218366   3.115   1.599   1.297  0.7826  2.1343  0.9031
 4650SOL    HW318367   3.166   1.512   1.410  0.1443  1.1477  0.4554
 4650SOL    MW418368   3.176   1.547   1.331  0.2063 -0.0759 -0.1018
 4651SOL     OW18369   0.863   3.887   6.363 -0.2207  0.1743 -0.1887
 4651SOL    HW218370   0.824   3.831   6.295 -0.1295  0.4892 -0.4985
 4651SOL    HW318371   0.930   3.937   6.318  1.0281 -0.8480  0.4732
 4651SOL    MW418372   0.867   3.886   6.349 -0.4698 -0.7956  0.2786
 4652SOL     OW18373   3.570   2.806   0.314 -0.1294  0.1600 -0.1500
 4652SOL    HW218374   3.528   2.869   0.373  1.3129  2.5661 -1.5570
 4652SOL    HW318375   3.512   2.802   0.238  0.9164  1.6780 -1.0759
 4652SOL    MW418376   3.557   2.813   0.312 -0.5936  0.1032  0.1661
 4653SOL     OW18377   2.338   5.857   0.637  0.4356 -0.0077 -0.5604
 4653SOL    HW218378   2.386   5.916   0.579  0.0085 -0.1586 -1.0731
 4653SOL    HW318379   2.293   5.915   0.699 -0.4051  0.2440 -1.3824
 4653SOL    MW418380   2.338   5.872   0.638  0.1004  0.3085  0.0884
 4654SOL     OW18381   0.564   6.260   2.001 -0.1920  0.3927 -0.2831
 4654SOL    HW218382   0.573   6.165   2.002 -0.8802  0.3153 -0.5427
 4654SOL    HW318383   0.531   6.281   2.089 -1.3067  0.2360 -0.6402
 4654SOL    MW418384   0.561   6.251   2.013 -0.6276  0.7000 -0.2498
 4655SOL     OW18385   2.685   1.117   3.555  0.3417 -0.1852 -0.1134
 4655SOL    HW218386   2.695   1.190   3.616 -0.3693 -0.0235 -0.1783
 4655SOL    HW318387   2.591   1.097   3.557 -0.1190  1.2446 -2.7582
 4655SOL    MW418388   2.674   1.124   3.564  0.5444 -0.7629  0.3830
 4656SOL     OW18389   2.490   6.322   0.846  0.8575 -0.3074 -0.0246
 4656SOL    HW218390   2.409   6.311   0.795  0.9799  0.5659 -0.4193
 4656SOL    HW318391   2.460   6.321   0.937  0.4013 -0.0578 -0.1642
 4656SOL    MW418392   2.475   6.321   0.851  0.1378  0.2979 -0.1489
 4657SOL     OW18393   5.328   1.663   3.537  0.2036 -0.2077 -0.7300
 4657SOL    HW218394   5.291   1.591   3.486 -2.3874 -0.2028  0.9871
 4657SOL    HW318395   5.290   1.742   3.497 -0.5034 -0.0994  0.1441
 4657SOL    MW418396   5.318   1.664   3.525  0.0197  0.6236 -0.2941
 4658SOL     OW18397   3.653   2.723   1.348 -0.1446  0.3772 -0.1671
 4658SOL    HW218398   3.667   2.662   1.276 -0.0803  0.1956 -0.0028
 4658SOL    HW318399   3.677   2.809   1.312 -3.0241  0.7972 -1.3302
 4658SOL    MW418400   3.658   2.727   1.334 -0.2667 -0.0731  0.5011
 4659SOL     OW18401   2.451   2.300   3.368 -0.5585 -0.0158  0.1747
 4659SOL    HW218402   2.461   2.216   3.414 -0.4611 -0.5797 -0.8344
 4659SOL    HW318403   2.520   2.299   3.302 -1.0652  0.5033 -0.3718
 4659SOL    MW418404   2.462   2.289   3.366 -0.5633  0.2814  0.3079
 4660SOL     OW18405   2.081   3.831   2.464  0.2830 -0.0885  0.0780
 4660SOL    HW218406   2.037   3.911   2.494  0.4336  0.2120 -0.5005
 4660SOL    HW318407   2.031   3.760   2.505  0.2749  0.3010  0.7686
 4660SOL    MW418408   2.069   3.832   2.474 -0.8283  0.7378 -0.2284
 4661SOL     OW18409   0.161   1.575   4.803 -0.1214  0.8484  0.1540
 4661SOL    HW218410   0.111   1.584   4.722 -0.1059 -0.1820  0.0158
 4661SOL    HW318411   0.096   1.559   4.871 -0.0317 -0.0577  0.0438
 4661SOL    MW418412   0.146   1.574   4.801  0.5213  0.0579  0.6500
 4662SOL     OW18413   0.163   6.014   2.164 -0.8258 -0.0126 -0.5169
 4662SOL    HW218414   0.073   5.980   2.168 -0.3330 -1.3670 -0.4517
 4662SOL    HW318415   0.155   6.098   2.119 -2.2765  0.4399  0.5102
 4662SOL    MW418416   0.150   6.020   2.159 -0.4224  0.1383  0.4372
 4663SOL     OW18417   2.218   0.375   3.479  0.2782 -0.2765 -0.5444
 4663SOL    HW218418   2.126   0.399   3.464  0.7410  2.6075  0.5299
 4663SOL    HW318419   2.268   0.444   3.435  1.8926 -1.0600 -0.0140
 4663SOL    MW418420   2.212   0.387   3.471 -0.0193 -0.7713  0.5678
 4664SOL     OW18421   4.141   3.101   5.807 -0.0120  0.3677  0.3066
 4664SOL    HW218422   4.102   3.055   5.882  1.1874 -0.8097  0.2423
 4664SOL    HW318423   4.231   3.119   5.835 -0.1809  1.8521 -0.0519
 4664SOL    MW418424   4.148   3.097   5.821 -0.6659 -0.6481 -0.1041
 4665SOL     OW18425   3.198   0.669   4.172  0.7907  0.1205 -0.4570
 4665SOL    HW218426   3.133   0.710   4.114  1.0277 -0.3506 -1.0725
 4665SOL    HW318427   3.257   0.740   4.196  0.0553  0.5514  0.0994
 4665SOL    MW418428   3.197   0.684   4.167 -0.3167 -0.1420 -0.5458
 4666SOL     OW18429   0.551   2.541   4.676  0.2913 -0.3905  0.2694
 4666SOL    HW218430   0.645   2.525   4.673  0.0669 -1.8814  0.4399
 4666SOL    HW318431   0.512   2.459   4.647 -0.9377  1.0556 -2.5785
 4666SOL    MW418432   0.558   2.528   4.672 -0.9100 -0.0610  0.3686
 4667SOL     OW18433   5.699   5.366   2.927  0.1831 -0.1755 -0.2930
 4667SOL    HW218434   5.610   5.334   2.941 -0.3559  2.1203  2.3445
 4667SOL    HW318435   5.755   5.289   2.940 -1.2172 -0.8636  2.3819
 4667SOL    MW418436   5.695   5.351   2.930 -0.4345 -0.0541 -0.2250
 4668SOL     OW18437   5.294   4.654   2.821 -0.2986  0.1834 -0.2087
 4668SOL    HW218438   5.239   4.617   2.890  0.3191 -1.9684 -0.8150
 4668SOL    HW318439   5.375   4.678   2.866 -1.0205  1.7390  0.3528
 4668SOL    MW418440   5.297   4.652   2.836 -0.2522  0.1368  0.2004
 4669SOL     OW18441   4.623   3.538   2.520 -0.2851  0.6188 -0.0270
 4669SOL    HW218442   4.556   3.606   2.518 -0.0993  0.8006 -0.0985
 4669SOL    HW318443   4.640   3.524   2.614 -1.5965 -0.5962  0.0619
 4669SOL    MW418444   4.616   3.545   2.532  0.0370 -0.0394  0.3165
 4670SOL     OW18445   5.472   1.189   5.702  0.0257  0.1975  0.5154
 4670SOL    HW218446   5.402   1.124   5.697  1.0862 -1.1769  2.4290
 4670SOL    HW318447   5.473   1.230   5.615 -0.2739 -2.7583 -1.0041
 4670SOL    MW418448   5.462   1.186   5.690  0.3142 -0.2196  0.4644
 4671SOL     OW18449   4.053   3.960   1.335  0.8837 -0.2410  0.3514
 4671SOL    HW218450   4.084   3.923   1.252 -0.6918  0.4951 -0.6115
 4671SOL    HW318451   3.960   3.938   1.338  0.5762  1.0535  1.1762
 4671SOL    MW418452   4.045   3.952   1.324  0.3193  0.2472  0.3339
 4672SOL     OW18453   0.630   2.824   2.718  0.0234 -0.5294 -0.5426
 4672SOL    HW218454   0.665   2.895   2.772 -2.8404  0.0129  0.7680
 4672SOL    HW318455   0.586   2.869   2.646 -0.5939 -1.0193 -0.4779
 4672SOL    MW418456   0.629   2.839   2.716 -0.6050  0.8627 -0.2963
 4673SOL     OW18457   0.923   3.461   2.715 -0.3304  0.5701 -0.0529
 4673SOL    HW218458   1.010   3.433   2.743 -0.4442  0.4240  0.1579
 4673SOL    HW318459   0.870   3.458   2.795 -0.6765  0.0650 -0.2910
 4673SOL    MW418460   0.928   3.457   2.729  0.1447 -0.4288  0.5029
 4674SOL     OW18461   2.102   4.903   6.249  0.2216  0.5546 -0.2080
 4674SOL    HW218462   2.014   4.940   6.248  0.0916  0.2288 -0.8663
 4674SOL    HW318463   2.130   4.903   6.157  1.0032  0.8847  0.0171
 4674SOL    MW418464   2.094   4.908   6.237  0.7188  0.0039 -0.8770
 4675SOL     OW18465   1.548   3.554   4.939  0.0412 -0.8640 -0.1990
 4675SOL    HW218466   1.587   3.489   4.997  0.4138 -0.3617  0.1293
 4675SOL    HW318467   1.614   3.571   4.872 -0.2203 -1.1283 -0.5264
 4675SOL    MW418468   1.562   3.548   4.938  0.4608 -0.2177  0.6188
 4676SOL     OW18469   2.441   1.582   6.217  0.6316  0.6015 -0.0368
 4676SOL    HW218470   2.531   1.551   6.229  0.2881 -0.7874 -0.8515
 4676SOL    HW318471   2.387   1.503   6.228 -0.3804  1.1475 -0.9178
 4676SOL    MW418472   2.446   1.567   6.220  0.6663 -0.4900 -0.1705
 4677SOL     OW18473   2.731   3.265   2.027 -0.2409 -0.3536 -0.0972
 4677SOL    HW218474   2.808   3.262   2.084 -0.4664  2.1277  0.4299
 4677SOL    HW318475   2.744   3.192   1.967  2.9192  0.3768 -0.5111
 4677SOL    MW418476   2.743   3.255   2.027  0.0695 -0.8485  0.1721
 4678SOL     OW18477   4.383   2.650   1.423 -0.7931 -0.3638  0.6102
 4678SOL    HW218478   4.329   2.572   1.412  0.6081 -1.3394  0.3549
 4678SOL    HW318479   4.468   2.617   1.453 -0.1115  1.0391  0.3474
 4678SOL    MW418480   4.387   2.635   1.425 -0.1747  0.4528 -0.2523
 4679SOL     OW18481   1.886   1.686   1.785  0.3595 -0.3741  0.0415
 4679SOL    HW218482   1.943   1.677   1.861 -0.6326  1.8693  1.1538
 4679SOL    HW318483   1.928   1.755   1.732 -0.9384  0.8845  0.5873
 4679SOL    MW418484   1.899   1.694   1.788  0.0663 -0.2312 -0.6210
 4680SOL     OW18485   2.572   5.210   3.994  0.0562 -0.1286  0.4772
 4680SOL    HW218486   2.507   5.276   4.017 -1.4990 -1.9409  1.6445
 4680SOL    HW318487   2.578   5.154   4.072  1.8634 -0.9454 -0.1756
 4680SOL    MW418488   2.564   5.211   4.008  0.2108 -0.0641 -0.2198
 4681SOL     OW18489   1.502   4.060   0.215 -0.4676  0.3791 -0.6085
 4681SOL    HW218490   1.414   4.031   0.193 -0.2557  0.5186 -1.7466
 4681SOL    HW318491   1.507   4.055   0.310 -1.3766 -0.5659 -0.5987
 4681SOL    MW418492   1.491   4.056   0.224 -0.2023  0.0811  0.0899
 4682SOL     OW18493   0.678   6.344   4.805  0.1459  0.1951 -0.2656
 4682SOL    HW218494   0.673   6.416   4.867  0.7682  1.5962 -1.7488
 4682SOL    HW318495   0.643   6.380   4.723  2.2647 -0.5301 -1.5745
 4682SOL    MW418496   0.673   6.358   4.802 -0.4419 -0.1108  0.0430
 4683SOL     OW18497   0.408   1.788   4.702  0.0024  0.2980 -0.3294
 4683SOL    HW218498   0.454   1.706   4.718 -0.2470 -0.2045 -1.9695
 4683SOL    HW318499   0.365   1.809   4.786  1.7139 -0.1462  0.6951
 4683SOL    MW418500   0.408   1.780   4.715 -0.5792  0.0047 -0.7265
 4684SOL     OW18501   1.113   4.233   2.996  0.2726 -0.6581  0.1913
 4684SOL    HW218502   1.084   4.297   2.931 -1.6846 -1.1941  0.4640
 4684SOL    HW318503   1.040   4.227   3.057  1.1069 -1.9234  1.1072
 4684SOL    MW418504   1.099   4.241   2.995 -0.0731  0.0421 -0.2142
 4685SOL     OW18505   6.196   0.658   6.378 -0.0261  0.8160  0.2321
 4685SOL    HW218506   6.219   0.739   6.333  0.4523 -0.1801 -1.4034
 4685SOL    HW318507   6.269   0.644   6.439  1.1669  0.3864 -1.2217
 4685SOL    MW418508   6.209   0.667   6.380  0.3912 -0.3060 -0.2320
 4686SOL     OW18509   1.995   2.719   2.909 -0.8691  0.5681 -0.4059
 4686SOL    HW218510   2.060   2.780   2.873 -0.8238  0.6400 -0.2016
 4686SOL    HW318511   1.970   2.664   2.834 -1.3057  1.1795 -0.7233
 4686SOL    MW418512   2.000   2.720   2.894 -0.0933 -0.8048 -0.3507
 4687SOL     OW18513   5.624   5.448   2.172 -0.1800  1.0325 -0.1633
 4687SOL    HW218514   5.555   5.393   2.209  0.2566  1.4880  1.3841
 4687SOL    HW318515   5.627   5.423   2.079 -0.1035 -1.4521  0.4381
 4687SOL    MW418516   5.615   5.437   2.164 -0.5315  0.3435 -0.1056
 4688SOL     OW18517   2.416   5.495   3.724 -0.2818  0.0273  0.4381
 4688SOL    HW218518   2.482   5.563   3.708  0.3772 -0.2952  1.6471
 4688SOL    HW318519   2.418   5.482   3.819 -1.9295 -0.1641  0.4792
 4688SOL    MW418520   2.425   5.502   3.735  0.9127 -0.2829  0.3625
 4689SOL     OW18521   1.782   3.688   0.850  0.7165 -0.1719 -0.4799
 4689SOL    HW218522   1.751   3.702   0.761  1.8307  0.0120 -0.8643
 4689SOL    HW318523   1.870   3.650   0.839  1.2429  0.6967  0.5126
 4689SOL    MW418524   1.790   3.685   0.837  0.2570  0.3184  0.8628
 4690SOL     OW18525   3.945   2.898   0.109  0.9077 -0.0439 -0.1298
 4690SOL    HW218526   3.977   2.813   0.141  2.3540  0.1928 -0.8469
 4690SOL    HW318527   3.978   2.903   0.019  0.6347  1.1693 -0.1756
 4690SOL    MW418528   3.954   2.887   0.102  0.3866 -0.5449 -0.2226
 4691SOL     OW18529   4.786   5.647   6.353  0.1113 -0.3690 -0.1222
 4691SOL    HW218530   4.825   5.562   6.331 -0.9373 -0.7641 -0.5047
 4691SOL    HW318531   4.748   5.634   6.440  1.6782  0.3230  0.7119
 4691SOL    MW418532   4.786   5.634   6.362  0.1752  0.5133  0.2149
 4692SOL     OW18533   6.165   1.251   4.554 -0.4941 -0.3607 -0.1150
 4692SOL    HW218534   6.173   1.346   4.539 -1.3739 -0.5406 -1.9955
 4692SOL    HW318535   6.080   1.241   4.597 -0.1329 -0.2664  0.6418
 4692SOL    MW418536   6.155   1.263   4.558 -0.3322  0.1430  0.2941
 4693SOL     OW18537   0.998   6.208   3.910  0.4147  0.0575 -0.0485
 4693SOL    HW218538   1.015   6.302   3.911 -0.3689  0.2361  2.3325
 4693SOL    HW318539   1.084   6.167   3.919  0.7526  0.5239 -1.0482
 4693SOL    MW418540   1.012   6.215   3.912  0.5944 -0.3186 -0.1051
 4694SOL     OW18541   4.000   3.236   0.146  0.7383 -0.0030 -0.5054
 4694SOL    HW218542   4.065   3.204   0.209  0.3573  0.6919  0.2581
 4694SOL    HW318543   4.041   3.313   0.106  1.2386 -0.8085 -1.5954
 4694SOL    MW418544   4.014   3.242   0.149 -0.3506  0.3892 -0.1128
 4695SOL     OW18545   0.827   0.876   1.257  0.4624  1.0372  0.7164
 4695SOL    HW218546   0.814   0.789   1.294  0.0526  1.2108  0.9969
 4695SOL    HW318547   0.901   0.867   1.198 -0.3894  0.2004 -0.2571
 4695SOL    MW418548   0.835   0.863   1.254  0.4480 -0.1730 -0.5870
 4696SOL     OW18549   1.872   5.061   6.278  0.1868 -0.0758  0.0177
 4696SOL    HW218550   1.853   5.145   6.236  2.4929  0.5176  0.0251
 4696SOL    HW318551   1.792   5.038   6.325 -0.1963  2.5843  0.8016
 4696SOL    MW418552   1.859   5.069   6.278  0.1025 -0.1716 -0.1902
 4697SOL     OW18553   0.493   4.614   3.917 -0.0054 -0.1258  0.1700
 4697SOL    HW218554   0.463   4.565   3.994  0.1426  2.0344  1.6805
 4697SOL    HW318555   0.514   4.701   3.950  0.0163  0.9175 -2.3531
 4697SOL    MW418556   0.492   4.619   3.932  0.2267 -0.3947  0.4275
 4698SOL     OW18557   3.372   2.571   3.742  0.4976  0.4065  0.1573
 4698SOL    HW218558   3.353   2.522   3.662  2.1153  0.1834 -0.1181
 4698SOL    HW318559   3.455   2.536   3.773  0.1047  0.7711  1.7345
 4698SOL    MW418560   3.380   2.560   3.735  0.5777 -0.2233 -0.7241
 4699SOL     OW18561   3.848   1.039   4.351 -0.7363 -0.0126 -0.5169
 4699SOL    HW218562   3.755   1.058   4.364 -0.5615  0.1431  0.6460
 4699SOL    HW318563   3.887   1.049   4.438  0.5511  0.9186 -1.1736
 4699SOL    MW418564   3.841   1.043   4.364 -0.1564  0.2874  0.1323
 4700SOL     OW18565   5.378   1.208   3.223  0.1439  0.4591  0.5267
 4700SOL    HW218566   5.457   1.161   3.200 -0.2548 -0.0614  0.2020
 4700SOL    HW318567   5.355   1.257   3.145  0.5134  1.1421  0.8382
 4700SOL    MW418568   5.385   1.208   3.210 -0.1878  0.1465 -0.5117
 4701SOL     OW18569   0.462   4.222   6.285 -0.3277 -0.4132  0.3155
 4701SOL    HW218570   0.516   4.145   6.306 -0.0148 -0.3838 -0.3638
 4701SOL    HW318571   0.474   4.281   6.359  0.2632 -0.5762  0.3497
 4701SOL    MW418572   0.471   4.219   6.298 -0.3868  0.7109 -0.0878
 4702SOL     OW18573   3.241   1.003   1.929 -0.3040  0.0119 -0.1817
 4702SOL    HW218574   3.298   0.927   1.940 -0.4074 -0.0323  0.0589
 4702SOL    HW318575   3.297   1.078   1.951 -0.3352 -0.0312  0.0496
 4702SOL    MW418576   3.256   1.003   1.934 -0.0661 -0.3357  0.0555
 4703SOL     OW18577   1.442   5.687   5.401 -0.0932  0.7639  0.3527
 4703SOL    HW218578   1.373   5.631   5.436  0.1274  0.3673  0.1492
 4703SOL    HW318579   1.495   5.630   5.346 -0.1013  1.2554 -0.1794
 4703SOL    MW418580   1.440   5.672   5.399 -0.2354 -0.2721 -0.6424
 4704SOL     OW18581   2.690   0.979   3.057  0.0747  0.1638  0.2524
 4704SOL    HW218582   2.685   0.888   3.087  1.6180 -0.6431 -1.6682
 4704SOL    HW318583   2.724   0.972   2.968 -0.0348  2.6324 -0.0382
 4704SOL    MW418584   2.694   0.966   3.049  0.6649  0.1469 -0.2891
 4705SOL     OW18585   0.830   5.064   1.432 -0.1592  0.1186 -0.4199
 4705SOL    HW218586   0.848   5.021   1.348  0.0716  0.1302 -0.3775
 4705SOL    HW318587   0.796   4.995   1.488  1.1976 -0.2521 -0.0245
 4705SOL    MW418588   0.828   5.049   1.428  0.0747 -0.8507 -0.2166
 4706SOL     OW18589   0.530   1.850   5.964 -0.0629  0.2753  0.2243
 4706SOL    HW218590   0.491   1.775   5.919  0.3302  0.3769 -0.2949
 4706SOL    HW318591   0.556   1.909   5.894  2.6999 -0.6030  0.4038
 4706SOL    MW418592   0.528   1.848   5.949 -0.4005 -0.3337 -0.7015
 4707SOL     OW18593   4.439   0.853   2.871  0.6045  0.3559 -0.1361
 4707SOL    HW218594   4.488   0.933   2.888 -1.9891  2.1858 -0.5680
 4707SOL    HW318595   4.423   0.854   2.776  0.1651 -0.4325 -0.0778
 4707SOL    MW418596   4.443   0.864   2.861  0.0597  0.2283  0.4117
 4708SOL     OW18597   5.898   2.621   1.504  0.2606  0.6695 -0.3920
 4708SOL    HW218598   5.986   2.641   1.535  1.1575 -1.8259 -1.1091
 4708SOL    HW318599   5.907   2.538   1.458 -2.3719  0.6587 -1.0410
 4708SOL    MW418600   5.911   2.613   1.502  0.0082  0.1595  0.0610
 4709SOL     OW18601   0.905   5.641   4.320 -0.2237 -0.0089 -0.0361
 4709SOL    HW218602   0.991   5.612   4.348  0.8902  0.5858 -2.6091
 4709SOL    HW318603   0.909   5.737   4.324 -0.1673  0.0873 -1.6721
 4709SOL    MW418604   0.917   5.650   4.324 -0.0137 -0.4143 -0.0124
 4710SOL     OW18605   1.183   5.961   5.480 -0.1812 -0.0709 -0.6934
 4710SOL    HW218606   1.233   6.037   5.509 -1.1994  0.3210  0.0980
 4710SOL    HW318607   1.213   5.946   5.390 -0.6517  1.9097 -1.2538
 4710SOL    MW418608   1.193   5.969   5.472 -0.8108 -0.1442 -0.4080
 4711SOL     OW18609   2.048   6.296   2.133 -0.4518  0.2133 -0.0919
 4711SOL    HW218610   2.027   6.209   2.167 -0.8986  0.1513 -0.5175
 4711SOL    HW318611   2.144   6.297   2.128 -0.4872 -1.2005 -2.4498
 4711SOL    MW418612   2.058   6.285   2.137 -0.3425 -0.0549  0.3855
 4712SOL     OW18613   5.447   6.157   6.041  0.1346 -0.1958 -0.0910
 4712SOL    HW218614   5.466   6.135   6.132  1.4464  0.9218 -0.0592
 4712SOL    HW318615   5.533   6.178   6.003 -0.4644 -0.0413 -1.4086
 4712SOL    MW418616   5.461   6.157   6.048 -0.4987  0.1617  0.0565
 4713SOL     OW18617   2.043   6.180   4.626  0.5904 -0.1876  0.3159
 4713SOL    HW218618   1.981   6.214   4.691  0.5717 -0.9875  0.7396
 4713SOL    HW318619   2.007   6.094   4.602 -0.0731  0.5968 -1.6893
 4713SOL    MW418620   2.030   6.173   4.631 -0.0004 -0.4631  0.2933
 4714SOL     OW18621   2.827   4.610   1.308 -0.5392 -0.1135  0.0589
 4714SOL    HW218622   2.843   4.645   1.220  0.5322 -1.3530 -0.2737
 4714SOL    HW318623   2.734   4.587   1.308 -0.7159  0.5551 -0.4917
 4714SOL    MW418624   2.817   4.612   1.296 -0.8430  0.5568  0.1598
 4715SOL     OW18625   5.368   0.309   4.170  0.6724 -0.3784  0.0942
 4715SOL    HW218626   5.336   0.339   4.255 -1.8699  0.9227 -1.2101
 4715SOL    HW318627   5.463   0.308   4.179  0.5044  0.2251  2.7595
 4715SOL    MW418628   5.376   0.313   4.182 -0.1876 -0.5829  0.5567
 4716SOL     OW18629   2.935   4.239   2.737 -0.2201 -0.5855 -0.4241
 4716SOL    HW218630   2.959   4.329   2.714 -1.6228 -0.7619 -2.9226
 4716SOL    HW318631   3.014   4.188   2.722  0.2704  0.0363 -0.0473
 4716SOL    MW418632   2.948   4.244   2.732 -0.2343  0.0322 -0.4124
 4717SOL     OW18633   6.343   1.027   1.701  0.1030 -0.1916  0.0497
 4717SOL    HW218634   6.373   1.100   1.756  1.3529  0.7485 -1.7980
 4717SOL    HW318635   6.420   0.972   1.689 -0.7749 -1.7833  1.2429
 4717SOL    MW418636   6.357   1.029   1.707  0.2867  0.9138 -0.0858
 4718SOL     OW18637   2.864   3.961   2.281  0.4456 -0.0716 -0.5341
 4718SOL    HW218638   2.871   4.048   2.320 -0.7977 -0.7420  1.3372
 4718SOL    HW318639   2.794   3.918   2.330  0.8643 -2.0615 -1.5576
 4718SOL    MW418640   2.856   3.967   2.292 -0.4563  0.0462  0.1107
 4719SOL     OW18641   5.427   4.336   4.646 -0.2207  0.1244  0.0118
 4719SOL    HW218642   5.523   4.329   4.638 -0.3062  0.4308 -1.8886
 4719SOL    HW318643   5.396   4.248   4.626 -0.3374 -0.0642  0.9919
 4719SOL    MW418644   5.436   4.323   4.642  0.6955  0.1978  0.2168
 4720SOL     OW18645   1.392   3.441   5.906  0.2373 -0.0607 -0.5114
 4720SOL    HW218646   1.332   3.512   5.931  1.2955  1.2129 -1.4804
 4720SOL    HW318647   1.364   3.367   5.960 -2.6510  0.2491 -1.3669
 4720SOL    MW418648   1.380   3.441   5.916 -0.5561  0.4284 -0.2300
 4721SOL     OW18649   0.774   4.755   2.846 -0.2051  0.3767  0.2474
 4721SOL    HW218650   0.707   4.731   2.909  0.6732  0.2645  1.1720
 4721SOL    HW318651   0.795   4.846   2.866  1.0383 -0.0586  1.0451
 4721SOL    MW418652   0.768   4.764   2.857  0.0956 -0.1616  0.2689
 4722SOL     OW18653   5.295   1.884   1.473  0.2751 -0.9403 -0.6312
 4722SOL    HW218654   5.314   1.814   1.410  1.9062 -0.0215 -1.2171
 4722SOL    HW318655   5.346   1.860   1.551  1.2945 -0.1575 -1.0332
 4722SOL    MW418656   5.304   1.871   1.475 -0.6246 -0.1096  0.1243
 4723SOL     OW18657   3.815   4.027   2.695  0.1914 -0.1183 -0.0279
 4723SOL    HW218658   3.829   3.983   2.611 -1.4307  0.6342 -0.7312
 4723SOL    HW318659   3.752   3.971   2.741 -1.1548  0.9044 -0.5419
 4723SOL    MW418660   3.808   4.014   2.690 -0.4459 -0.1425  0.5880
 4724SOL     OW18661   1.275   1.694   2.054 -0.0578  0.1154 -0.0999
 4724SOL    HW218662   1.343   1.633   2.027  1.5241  2.1688 -0.9489
 4724SOL    HW318663   1.228   1.715   1.973  0.4145  1.2106 -0.0926
 4724SOL    MW418664   1.278   1.688   2.040 -0.0566  0.0340  0.5835
 4725SOL     OW18665   3.827   0.454   4.931  0.0595  0.4653  0.8124
 4725SOL    HW218666   3.760   0.456   4.863  0.1523 -0.7766  0.6566
 4725SOL    HW318667   3.898   0.402   4.893  1.1018  1.7096  0.9914
 4725SOL    MW418668   3.828   0.447   4.917 -0.0435 -0.2635 -0.2318
 4726SOL     OW18669   3.901   5.891   3.667 -0.1297  0.4294 -0.3173
 4726SOL    HW218670   3.863   5.963   3.717 -1.2179 -1.1913  1.2962
 4726SOL    HW318671   3.866   5.902   3.579 -1.1833  1.2234  0.1833
 4726SOL    MW418672   3.891   5.902   3.662  0.2459 -0.0361  0.1093
 4727SOL     OW18673   0.539   3.961   3.984 -0.4917 -0.4680  0.5252
 4727SOL    HW218674   0.498   4.048   3.978 -1.5152 -0.7810  2.2864
 4727SOL    HW318675   0.502   3.923   4.063  0.8044 -2.0857  0.3978
 4727SOL    MW418676   0.528   3.968   3.993  0.1946  0.3829  0.3009
 4728SOL     OW18677   1.004   2.638   6.278 -0.0621 -0.5869 -0.4847
 4728SOL    HW218678   1.007   2.619   6.371 -1.4478 -0.2178 -0.3349
 4728SOL    HW318679   1.094   2.625   6.247  0.6959  0.4829  1.1342
 4728SOL    MW418680   1.016   2.634   6.286 -0.0203 -0.4031  0.6878
 4729SOL     OW18681   1.188   1.374   3.196 -0.1763  0.2863 -0.0434
 4729SOL    HW218682   1.152   1.288   3.176  0.6128 -0.3158  1.0279
 4729SOL    HW318683   1.276   1.372   3.158  0.0733  0.3750  0.5177
 4729SOL    MW418684   1.195   1.362   3.188 -0.2062  0.3716 -0.0945
 4730SOL     OW18685   0.048   4.271   0.892 -0.0287 -0.1918  0.1406
 4730SOL    HW218686  -0.029   4.266   0.949  1.5214 -0.8292  2.3274
 4730SOL    HW318687   0.042   4.193   0.836 -0.1199 -1.1902  1.4891
 4730SOL    MW418688   0.037   4.260   0.892 -0.5115  0.1082  0.4217
 4731SOL     OW18689   5.152   1.231   5.513 -0.6405  0.6509 -0.5219
 4731SOL    HW218690   5.217   1.292   5.479 -0.3648 -0.0557 -1.3002
 4731SOL    HW318691   5.098   1.209   5.436 -0.5051 -0.3662 -0.3358
 4731SOL    MW418692   5.153   1.236   5.498  0.0921 -0.2481  0.1926
 4732SOL     OW18693   6.125   3.048   4.517  0.7047  0.2838  0.5611
 4732SOL    HW218694   6.085   3.051   4.430 -1.3288  1.1551  1.4905
 4732SOL    HW318695   6.065   2.995   4.570 -0.1899  2.9657  2.4111
 4732SOL    MW418696   6.112   3.041   4.512  0.3025  0.3636 -0.0511
 4733SOL     OW18697   2.356   4.708   4.828 -0.0569  0.5028  0.1711
 4733SOL    HW218698   2.379   4.615   4.823  1.2436  0.7783  0.7760
 4733SOL    HW318699   2.306   4.724   4.748  2.2834 -0.0201 -1.4915
 4733SOL    MW418700   2.352   4.698   4.817 -0.2043  0.2879  0.8759
 4734SOL     OW18701   1.431   1.099   0.682  0.1875 -0.1627 -0.2394
 4734SOL    HW218702   1.383   1.033   0.733 -2.6423  1.0286 -1.1754
 4734SOL    HW318703   1.442   1.059   0.596  1.8938 -0.8197  0.2379
 4734SOL    MW418704   1.427   1.085   0.678 -0.0187  0.5531 -0.4298
 4735SOL     OW18705   1.349   5.678   1.384 -0.0198  0.0268  0.4781
 4735SOL    HW218706   1.311   5.746   1.439 -0.6793 -0.5059  0.6865
 4735SOL    HW318707   1.276   5.644   1.334  0.1750 -1.0193  0.8866
 4735SOL    MW418708   1.335   5.683   1.384 -0.0524 -0.5426  0.0007
 4736SOL     OW18709   6.147   4.121   0.197 -0.1715  0.3071 -0.1748
 4736SOL    HW218710   6.111   4.048   0.247 -0.2145  0.1221 -0.4753
 4736SOL    HW318711   6.112   4.110   0.109  0.9208 -0.1107 -0.5833
 4736SOL    MW418712   6.138   4.110   0.192  0.2205 -0.1100 -0.2319
 4737SOL     OW18713   0.110   1.384   6.193 -0.0237  0.5993  0.2943
 4737SOL    HW218714   0.045   1.403   6.261  0.0974  1.3308  0.2134
 4737SOL    HW318715   0.177   1.452   6.203  0.2801  0.3802 -0.1920
 4737SOL    MW418716   0.110   1.396   6.203 -0.2872 -0.1449 -0.4392
 4738SOL     OW18717   0.638   3.726   3.861  0.2117 -0.0916  0.0214
 4738SOL    HW218718   0.565   3.667   3.848 -0.2756  0.7948 -1.5417
 4738SOL    HW318719   0.598   3.808   3.891  0.7251 -0.0375  0.5972
 4738SOL    MW418720   0.623   3.729   3.863 -0.3125 -0.0820 -0.4969
 4739SOL     OW18721   3.112   6.304   4.532 -0.7275 -0.3843 -0.3024
 4739SOL    HW218722   3.086   6.229   4.585 -1.0086  0.8582  1.4347
 4739SOL    HW318723   3.032   6.356   4.524 -0.5485 -0.2763 -1.5019
 4739SOL    MW418724   3.098   6.301   4.538  0.3523 -0.2635 -0.4709
 4740SOL     OW18725   4.558   2.330   1.861  0.5688 -0.3664 -0.0412
 4740SOL    HW218726   4.491   2.379   1.814  1.9699  0.3013 -1.4197
 4740SOL    HW318727   4.519   2.244   1.875 -1.4292  0.6627  1.2508
 4740SOL    MW418728   4.544   2.325   1.857 -0.3638 -0.3792 -0.2170
 4741SOL     OW18729   0.132   3.417   2.388  0.3259  0.6348 -0.3145
 4741SOL    HW218730   0.153   3.411   2.481  2.4232  0.5828 -0.7431
 4741SOL    HW318731   0.049   3.369   2.379  1.1669 -1.2492  1.2085
 4741SOL    MW418732   0.124   3.410   2.399 -0.2385 -0.0835  0.4837
 4742SOL     OW18733   2.994   1.194   4.892 -0.3860 -0.1165  0.0125
 4742SOL    HW218734   2.963   1.127   4.831  1.3914 -0.4264 -0.6258
 4742SOL    HW318735   2.945   1.177   4.973  0.5415 -2.7477  0.1464
 4742SOL    MW418736   2.984   1.183   4.895 -0.4692  0.2096 -0.2397
 4743SOL     OW18737   1.267   4.079   0.788 -0.3508  0.2643 -0.1186
 4743SOL    HW218738   1.241   4.162   0.828 -1.3254  1.1237 -2.3916
 4743SOL    HW318739   1.193   4.021   0.804  0.1412 -0.0716  1.0733
 4743SOL    MW418740   1.254   4.082   0.795  0.0725 -0.3007  0.3614
 4744SOL     OW18741   0.967   1.416   2.557  0.0623  0.2640 -0.3095
 4744SOL    HW218742   0.996   1.339   2.509  2.5593  1.2657 -0.5851
 4744SOL    HW318743   0.957   1.484   2.490 -0.8574  0.5227  0.0752
 4744SOL    MW418744   0.970   1.415   2.542  0.1266 -0.0359 -0.1583
 4745SOL     OW18745   1.240   6.356   0.845  0.3057  0.2338 -0.3700
 4745SOL    HW218746   1.260   6.306   0.765 -2.1494 -0.1274 -0.8563
 4745SOL    HW318747   1.191   6.432   0.814 -2.1560 -0.7592  0.8296
 4745SOL    MW418748   1.236   6.359   0.830  0.0105 -0.2580  0.0197
 4746SOL     OW18749   5.133   4.868   2.996 -0.1027  0.4405 -0.0968
 4746SOL    HW218750   5.153   4.828   2.911 -0.2679  0.5807 -0.2004
 4746SOL    HW318751   5.059   4.925   2.979 -0.4938  0.0445  0.2568
 4746SOL    MW418752   5.126   4.870   2.982  0.0155  0.1929 -0.0292
 4747SOL     OW18753   1.238   4.456   4.223 -0.2418  0.0429  0.4378
 4747SOL    HW218754   1.146   4.445   4.198 -0.1567  1.2973 -0.5959
 4747SOL    HW318755   1.243   4.546   4.256  0.8047  0.3874 -0.5749
 4747SOL    MW418756   1.226   4.467   4.224  0.0918  0.1129  0.2477
 4748SOL     OW18757   4.849   4.989   2.590 -0.0289 -0.0108 -0.6032
 4748SOL    HW218758   4.923   4.959   2.642 -0.6773 -1.9979 -0.7420
 4748SOL    HW318759   4.777   4.998   2.653 -0.7232 -2.0905 -1.0295
 4748SOL    MW418760   4.849   4.987   2.605  0.1247  0.2541 -0.4760
 4749SOL     OW18761   1.891   5.318   5.553 -0.0213  0.4243 -0.0536
 4749SOL    HW218762   1.829   5.292   5.621  1.0454 -1.1428  0.3682
 4749SOL    HW318763   1.857   5.401   5.519 -1.3580  0.4889  1.3786
 4749SOL    MW418764   1.878   5.326   5.557 -0.2777  0.2590 -0.0945
 4750SOL     OW18765   0.459   5.357   0.827  0.1863 -0.1424  0.4114
 4750SOL    HW218766   0.468   5.438   0.877  2.0479 -0.4898  0.7361
 4750SOL    HW318767   0.442   5.289   0.892  1.8690 -0.4779  0.5588
 4750SOL    MW418768   0.458   5.358   0.842 -0.2943 -0.3982 -0.3183
 4751SOL     OW18769   6.079   1.619   3.251 -0.2203  0.3267  0.6576
 4751SOL    HW218770   6.028   1.694   3.281 -0.8160 -0.3679  1.4115
 4751SOL    HW318771   6.164   1.655   3.227 -1.0702  1.5357 -0.7319
 4751SOL    MW418772   6.083   1.633   3.252 -0.0453  0.2732  0.1644
 4752SOL     OW18773   3.265   1.364   4.075 -0.2706 -0.5828 -0.4464
 4752SOL    HW218774   3.178   1.326   4.059  0.1068 -1.2264 -0.9921
 4752SOL    HW318775   3.275   1.362   4.170 -0.6465 -0.9649 -0.4143
 4752SOL    MW418776   3.255   1.359   4.085  0.2492 -0.0480  0.2493
 4753SOL     OW18777   6.122   3.115   6.281  0.4925  0.4851 -0.2859
 4753SOL    HW218778   6.068   3.111   6.202 -1.1641 -2.2469  0.8180
 4753SOL    HW318779   6.141   3.208   6.294 -2.6730  1.4263 -1.6019
 4753SOL    MW418780   6.118   3.126   6.272 -0.0253  0.0344  0.4916
 4754SOL     OW18781   3.520   1.968   5.637  0.3724 -0.0587 -0.2297
 4754SOL    HW218782   3.464   1.940   5.564 -0.6630  1.8653 -0.2316
 4754SOL    HW318783   3.569   2.043   5.602 -0.3008  1.0364  1.0990
 4754SOL    MW418784   3.519   1.974   5.622 -0.4927  0.2517 -0.4551
 4755SOL     OW18785   3.125   5.663   1.241  0.3024  0.3184  0.2139
 4755SOL    HW218786   3.044   5.640   1.286 -0.9210  1.4015 -1.3396
 4755SOL    HW318787   3.190   5.604   1.278 -1.3714 -1.2310  0.8367
 4755SOL    MW418788   3.123   5.652   1.252 -0.4452 -0.7939 -0.2935
 4756SOL     OW18789   5.166   0.977   5.111 -0.7019  0.0151  0.6480
 4756SOL    HW218790   5.101   0.952   5.178 -1.5024 -1.1474 -0.5121
 4756SOL    HW318791   5.137   1.063   5.081 -1.3928 -0.2539  0.5275
 4756SOL    MW418792   5.153   0.985   5.116 -0.1843 -0.2062  0.5319
 4757SOL     OW18793   5.666   2.707   1.377 -0.2139 -0.0535 -0.2810
 4757SOL    HW218794   5.752   2.678   1.408 -0.2352 -0.4679 -0.6074
 4757SOL    HW318795   5.685   2.755   1.296 -0.2896 -0.1018 -0.3268
 4757SOL    MW418796   5.680   2.710   1.371 -0.0540 -0.2939  0.0121
 4758SOL     OW18797   3.258   1.159   6.075 -0.2154 -0.2699  0.4987
 4758SOL    HW218798   3.268   1.125   6.164 -0.5294  0.5615  0.8573
 4758SOL    HW318799   3.301   1.244   6.077 -2.1299  0.7468  0.4695
 4758SOL    MW418800   3.265   1.165   6.087  0.4266  0.8008  0.3983
 4759SOL     OW18801   2.753   0.906   0.670 -0.6962  0.2343 -0.0173
 4759SOL    HW218802   2.749   0.811   0.679 -0.3755  0.2224  0.0124
 4759SOL    HW318803   2.831   0.932   0.719 -1.6035  0.6799  1.2427
 4759SOL    MW418804   2.763   0.897   0.678 -0.0078  0.3879 -0.2260
 4760SOL     OW18805   0.260   1.183   0.025 -0.3828  0.1681  0.0533
 4760SOL    HW218806   0.320   1.152  -0.042 -0.6626 -0.3425  0.0330
 4760SOL    HW318807   0.273   1.124   0.099  0.2852  1.0324  0.6460
 4760SOL    MW418808   0.270   1.171   0.026  0.1008  0.5645  0.3760
 4761SOL     OW18809   3.547   2.898   0.990  0.2072 -0.6251  0.1933
 4761SOL    HW218810   3.567   2.988   1.017  0.6983 -1.0032  1.1063
 4761SOL    HW318811   3.491   2.863   1.059  1.4551 -1.5944  0.7517
 4761SOL    MW418812   3.542   2.905   1.002  0.4859  0.2110  0.3060
 4762SOL     OW18813   0.498   4.603   2.355  0.2227  0.3485 -0.2331
 4762SOL    HW218814   0.572   4.554   2.319 -1.5923 -1.4260 -1.7848
 4762SOL    HW318815   0.529   4.634   2.440  2.2369 -1.6213 -0.1637
 4762SOL    MW418816   0.511   4.600   2.362  0.7531  0.1088 -0.4871
 4763SOL     OW18817   3.776   0.463   1.497  0.5713 -0.1673 -0.5830
 4763SOL    HW218818   3.813   0.403   1.562  3.1180 -0.9791 -2.6272
 4763SOL    HW318819   3.819   0.546   1.514 -0.6633  0.3207  0.3029
 4763SOL    MW418820   3.786   0.466   1.508  0.5976 -0.3643  0.5755
 4764SOL     OW18821   4.583   2.173   3.684  0.4791 -0.3990  0.0014
 4764SOL    HW218822   4.643   2.161   3.610 -0.2850  2.6411 -1.2517
 4764SOL    HW318823   4.500   2.137   3.653 -0.2182  2.1132 -1.3230
 4764SOL    MW418824   4.580   2.167   3.670 -0.1228 -0.2576 -0.2769
 4765SOL     OW18825   4.483   6.074   5.029  0.2971 -0.3059 -0.0547
 4765SOL    HW218826   4.548   6.066   4.959  1.1073 -0.5141  0.7080
 4765SOL    HW318827   4.430   5.995   5.021 -0.6988  0.4571 -1.4809
 4765SOL    MW418828   4.485   6.063   5.019  0.2289 -0.0863  0.1932
 4766SOL     OW18829   4.566   4.961   0.031 -0.0023 -0.1532  0.6294
 4766SOL    HW218830   4.494   4.925   0.082 -0.3391 -1.0090 -0.3982
 4766SOL    HW318831   4.644   4.916   0.063  0.2395  1.3545  2.3023
 4766SOL    MW418832   4.567   4.950   0.042 -0.4995  0.3037 -0.2267
 4767SOL     OW18833   5.752   1.415   0.525 -0.0466 -0.2940  0.2769
 4767SOL    HW218834   5.832   1.397   0.574 -0.9093 -1.2983  1.3888
 4767SOL    HW318835   5.749   1.348   0.457  0.1330 -0.1610  0.1375
 4767SOL    MW418836   5.762   1.404   0.523  0.3000 -0.1732  0.6650
 4768SOL     OW18837   0.041   0.522   1.539 -0.7203  0.1580  0.0786
 4768SOL    HW218838  -0.049   0.545   1.563 -0.7782  1.0392 -0.8950
 4768SOL    HW318839   0.080   0.606   1.515  0.0031 -0.3812 -0.6532
 4768SOL    MW418840   0.034   0.536   1.539  0.6335  0.0196  0.0801
 4769SOL     OW18841   1.930   0.286   1.794 -0.1641  0.6497  0.0131
 4769SOL    HW218842   2.000   0.221   1.789 -0.1937  0.2748  2.7090
 4769SOL    HW318843   1.855   0.244   1.753  0.6274  0.2195 -1.0285
 4769SOL    MW418844   1.930   0.272   1.788  0.1112  0.0070 -0.3674
 4770SOL     OW18845   4.214   4.756   2.618 -0.1272  0.3116 -0.0261
 4770SOL    HW218846   4.167   4.766   2.535 -0.5775  0.4054  0.2386
 4770SOL    HW318847   4.302   4.788   2.599 -0.2922  0.5492 -0.4046
 4770SOL    MW418848   4.220   4.761   2.604 -0.2847 -0.1410 -0.2460
 4771SOL     OW18849   4.137   5.791   3.975  0.0796 -0.1997  0.2560
 4771SOL    HW218850   4.115   5.712   3.926 -0.2351  1.3118 -2.2087
 4771SOL    HW318851   4.053   5.827   4.003 -0.0026  0.5089 -0.8056
 4771SOL    MW418852   4.123   5.786   3.972 -0.3106 -0.0501 -0.0735
 4772SOL     OW18853   1.964   1.904   5.612 -0.1553  0.4138  0.3305
 4772SOL    HW218854   2.000   1.987   5.643 -0.8798  0.1608  1.9442
 4772SOL    HW318855   2.035   1.841   5.625  0.0126  0.5700  0.1703
 4772SOL    MW418856   1.978   1.907   5.618 -0.0016  0.0698 -0.2453
 4773SOL     OW18857   3.184   1.434   3.012  0.0818 -0.1892  0.4641
 4773SOL    HW218858   3.174   1.420   3.106  1.5784 -0.1262  0.6601
 4773SOL    HW318859   3.233   1.357   2.981  0.8424  0.4626  0.0040
 4773SOL    MW418860   3.189   1.422   3.020 -0.3246  0.3346 -0.2613
 4774SOL     OW18861   3.562   2.507   5.902 -0.2698  0.2407  0.2441
 4774SOL    HW218862   3.590   2.537   5.816  1.4058  0.1832  0.7354
 4774SOL    HW318863   3.499   2.437   5.883  0.6037 -0.2653 -0.9570
 4774SOL    MW418864   3.558   2.502   5.888  0.3281 -0.3378  0.0301
 4775SOL     OW18865   2.996   5.555   5.647 -0.0556 -0.1888  0.3572
 4775SOL    HW218866   2.967   5.632   5.598  1.8485 -0.6312 -1.6036
 4775SOL    HW318867   2.971   5.574   5.737 -0.1764  2.4722 -0.1473
 4775SOL    MW418868   2.989   5.568   5.652  0.2262 -0.0460  0.0698
 4776SOL     OW18869   0.788   3.182   3.407 -0.0030 -0.2866  0.1670
 4776SOL    HW218870   0.743   3.138   3.335  0.8124 -0.9832  0.0693
 4776SOL    HW318871   0.860   3.123   3.430 -0.5123 -0.2822  1.8495
 4776SOL    MW418872   0.792   3.169   3.400 -0.2353  0.2229  0.1035
 4777SOL     OW18873   0.114   4.472   3.740 -0.3110  0.1571 -0.3821
 4777SOL    HW218874   0.171   4.548   3.754  1.5634 -1.4108  0.9970
 4777SOL    HW318875   0.110   4.428   3.825 -1.3000 -1.3109 -1.1421
 4777SOL    MW418876   0.121   4.476   3.753 -0.6045 -0.0414  0.5928
 4778SOL     OW18877   1.035   1.212   2.935 -0.0354 -0.3937  0.7570
 4778SOL    HW218878   1.095   1.264   2.881 -0.5886 -0.0729  0.4463
 4778SOL    HW318879   0.959   1.268   2.947  0.0834 -0.4635  1.8848
 4778SOL    MW418880   1.033   1.226   2.929 -0.4277  0.2171 -0.3032
 4779SOL     OW18881   1.538   2.996   0.972 -0.0616  0.1160 -0.1615
 4779SOL    HW218882   1.623   2.993   0.929 -0.2859  2.8466 -1.0305
 4779SOL    HW318883   1.477   2.963   0.905  0.1578 -0.5500 -0.0355
 4779SOL    MW418884   1.541   2.992   0.957  0.3319 -0.1142 -0.4441
 4780SOL     OW18885   1.340   0.239   0.299  0.1119 -0.5439 -0.3069
 4780SOL    HW218886   1.367   0.331   0.293 -1.0187 -0.1120  0.6454
 4780SOL    HW318887   1.257   0.236   0.251 -0.9118 -0.5643  1.3627
 4780SOL    MW418888   1.332   0.251   0.292 -0.3376 -0.1442 -0.2741
 4781SOL     OW18889   5.663   4.266   5.015 -0.3327 -0.6595  0.4737
 4781SOL    HW218890   5.688   4.326   5.085 -0.6861  0.1999 -0.1119
 4781SOL    HW318891   5.576   4.295   4.989  1.4562  2.1122 -3.4113
 4781SOL    MW418892   5.655   4.278   5.021 -0.5616 -0.0994  0.2786
 4782SOL     OW18893   3.852   0.276   2.009 -0.0431  0.2525  0.3534
 4782SOL    HW218894   3.782   0.289   2.073  0.0118  0.0535  0.4545
 4782SOL    HW318895   3.829   0.334   1.936 -0.3509  0.1338  0.3557
 4782SOL    MW418896   3.839   0.285   2.008  0.2833 -0.0083 -0.4562
 4783SOL     OW18897   3.156   4.140   2.584 -0.6761 -0.7280  0.1037
 4783SOL    HW218898   3.196   4.053   2.593  0.1277 -0.3091  0.7661
 4783SOL    HW318899   3.226   4.195   2.550 -1.1243 -0.2860 -0.1175
 4783SOL    MW418900   3.171   4.135   2.581  0.4324  0.0921 -0.5983
 4784SOL     OW18901   3.527   4.594   3.221  0.2722 -0.7930  0.2316
 4784SOL    HW218902   3.511   4.598   3.127 -0.5881  0.6828  0.4035
 4784SOL    HW318903   3.501   4.506   3.246 -0.0405 -1.0145 -0.8343
 4784SOL    MW418904   3.521   4.583   3.212 -0.5603 -0.2097  0.4930
 4785SOL     OW18905   2.241   2.637   4.380  0.1181 -0.0526 -0.0337
 4785SOL    HW218906   2.153   2.599   4.375 -0.5639  1.5543 -1.4544
 4785SOL    HW318907   2.262   2.660   4.290  1.8823 -0.0885  0.3332
 4785SOL    MW418908   2.232   2.635   4.368  0.5062 -0.0658 -0.3299
 4786SOL     OW18909   3.681   5.602   2.951  0.1205  0.5284  0.0399
 4786SOL    HW218910   3.689   5.507   2.944 -1.9499  0.3400 -0.4314
 4786SOL    HW318911   3.624   5.615   3.027 -0.9402  1.2994 -0.8694
 4786SOL    MW418912   3.675   5.591   2.960 -0.1495 -0.4050  0.1382
 4787SOL     OW18913   2.143   1.643   1.930 -0.1400  0.0022 -0.6359
 4787SOL    HW218914   2.183   1.564   1.966 -1.0306 -0.0458  0.2741
 4787SOL    HW318915   2.166   1.712   1.992  0.2545  0.3790 -1.1923
 4787SOL    MW418916   2.152   1.642   1.943  0.3828 -0.5049  0.0011
 4788SOL     OW18917   1.046   3.704   2.250 -0.3896 -0.1234 -0.2413
 4788SOL    HW218918   1.076   3.615   2.267  0.5485 -0.0760 -1.5518
 4788SOL    HW318919   1.099   3.759   2.308 -0.8941 -0.3886  0.4901
 4788SOL    MW418920   1.057   3.700   2.260 -0.2177  0.4384 -0.0910
 4789SOL     OW18921   5.259   6.367   3.460 -0.9324 -0.6012 -0.1434
 4789SOL    HW218922   5.272   6.345   3.552  0.5371 -1.5529 -0.5363
 4789SOL    HW318923   5.274   6.462   3.456  2.6580 -0.9906  0.1369
 4789SOL    MW418924   5.263   6.377   3.471 -0.5573 -0.3410 -0.0129
 4790SOL     OW18925   5.909   4.672   4.431  0.2863 -0.2081 -0.0453
 4790SOL    HW218926   5.979   4.713   4.481  1.7003 -3.0898  0.5535
 4790SOL    HW318927   5.835   4.669   4.491  0.1711  1.2682 -0.0761
 4790SOL    MW418928   5.908   4.677   4.445 -0.6862 -0.1374 -0.4695
 4791SOL     OW18929   2.648   2.575   5.815 -0.0602 -0.0766 -0.2706
 4791SOL    HW218930   2.554   2.593   5.804 -0.0333  0.4183  0.2383
 4791SOL    HW318931   2.690   2.656   5.788  0.2491 -0.4506 -0.9175
 4791SOL    MW418932   2.641   2.588   5.810  0.7768  0.1945 -0.7315
 4792SOL     OW18933   4.203   3.116   0.294  0.3457  0.4394 -0.0403
 4792SOL    HW218934   4.189   3.023   0.313 -0.2344  0.6112  0.4124
 4792SOL    HW318935   4.198   3.159   0.379  2.4753  0.6938  0.0062
 4792SOL    MW418936   4.200   3.109   0.308 -0.6920 -0.6993  0.4514
 4793SOL     OW18937   4.604   4.615   3.859  0.1109 -0.4108 -0.2303
 4793SOL    HW218938   4.548   4.578   3.791 -1.4341  1.2346  0.0661
 4793SOL    HW318939   4.605   4.548   3.928  0.4316 -1.4289 -1.1958
 4793SOL    MW418940   4.597   4.601   3.859  0.5658 -0.3697 -0.4341
 4794SOL     OW18941   6.131   3.526   1.446  0.8268 -0.3639  0.4396
 4794SOL    HW218942   6.146   3.504   1.538 -0.1606  0.3072  0.7695
 4794SOL    HW318943   6.057   3.586   1.447  0.8530 -0.2869 -0.7949
 4794SOL    MW418944   6.123   3.531   1.458 -0.0815 -0.7044  0.1848
 4795SOL     OW18945   2.776   1.145   3.268  0.3541  0.1867  0.7030
 4795SOL    HW218946   2.732   1.117   3.348 -0.5796  1.0429  0.5101
 4795SOL    HW318947   2.729   1.098   3.198  0.3533  0.3903  0.5660
 4795SOL    MW418948   2.764   1.135   3.269  0.0477  0.0719  0.2458
 4796SOL     OW18949   5.063   6.062   4.894  0.1650  0.5442  0.8499
 4796SOL    HW218950   5.041   6.117   4.819 -0.3189 -0.6459  0.0986
 4796SOL    HW318951   5.124   6.115   4.946 -1.8010  2.5953  1.2040
 4796SOL    MW418952   5.068   6.076   4.891  0.5526  0.4456 -0.1774
 4797SOL     OW18953   5.946   5.115   5.988 -0.2043  0.5077  0.5626
 4797SOL    HW218954   5.938   5.099   5.894 -0.4268 -1.9014  0.9123
 4797SOL    HW318955   5.877   5.177   6.008  0.0636  1.3300 -0.9042
 4797SOL    MW418956   5.936   5.121   5.978  0.2810 -0.3755 -0.2488
 4798SOL     OW18957   3.897   0.985   5.032  0.2047  0.3294  0.4961
 4798SOL    HW218958   3.873   0.961   4.942  0.1940 -1.9188  1.0625
 4798SOL    HW318959   3.915   0.902   5.076  0.1029  1.3637  2.6218
 4798SOL    MW418960   3.896   0.971   5.026  0.1516 -0.1140 -0.0108
 4799SOL     OW18961   2.348   5.153   1.240  0.2525 -0.1116 -0.2610
 4799SOL    HW218962   2.358   5.155   1.336 -0.6073  1.1556 -0.1776
 4799SOL    HW318963   2.315   5.065   1.222 -0.3199 -0.1141  0.7039
 4799SOL    MW418964   2.345   5.142   1.251 -0.3095 -0.1407  0.0846
 4800SOL     OW18965   4.586   2.333   2.437  0.3513 -0.2129 -0.2832
 4800SOL    HW218966   4.613   2.262   2.495  0.8060 -0.5368 -0.8744
 4800SOL    HW318967   4.491   2.325   2.431  0.0769  0.8853  1.7648
 4800SOL    MW418968   4.577   2.323   2.444  0.1681 -0.0455  0.0308
 4801SOL     OW18969   0.867   1.815   3.328 -0.1142  0.4257 -0.1371
 4801SOL    HW218970   0.851   1.873   3.254 -1.4975  0.9150  0.5075
 4801SOL    HW318971   0.876   1.874   3.403  1.5024 -0.0434  0.0732
 4801SOL    MW418972   0.866   1.830   3.329  0.1204  0.6251  0.5238
 4802SOL     OW18973   2.299   6.128   3.775 -0.0552  0.0165 -0.4757
 4802SOL    HW218974   2.344   6.063   3.829  0.5290  1.1564  0.4310
 4802SOL    HW318975   2.292   6.205   3.830 -2.2004  0.2414 -0.9570
 4802SOL    MW418976   2.304   6.129   3.789 -0.6875  0.0639  0.5615
 4803SOL     OW18977   1.181   2.026   3.054 -0.5056 -0.0681 -0.2932
 4803SOL    HW218978   1.158   1.946   3.102  0.5803 -0.1075  0.1705
 4803SOL    HW318979   1.203   2.090   3.122  2.5965 -0.5859 -0.6949
 4803SOL    MW418980   1.181   2.024   3.069 -0.0181  0.1411  0.0743
 4804SOL     OW18981   5.843   5.435   3.755  0.6099  0.0189  0.8603
 4804SOL    HW218982   5.903   5.458   3.683  0.1148 -1.6297 -0.1306
 4804SOL    HW318983   5.843   5.513   3.811  2.2059  0.7775 -0.0991
 4804SOL    MW418984   5.851   5.449   3.753  0.2473 -0.2545  0.5183
 4805SOL     OW18985   0.479   2.518   1.058  0.4108  0.4750 -0.2716
 4805SOL    HW218986   0.479   2.580   0.985  0.1970 -0.3421 -0.9977
 4805SOL    HW318987   0.391   2.481   1.057  0.6726 -0.1704 -0.1622
 4805SOL    MW418988   0.468   2.521   1.048 -0.6729  0.1454 -0.0714
 4806SOL     OW18989   4.001   2.982   6.050 -0.2814 -0.0824  0.2823
 4806SOL    HW218990   4.037   2.991   6.139 -1.1696 -0.1747  0.6569
 4806SOL    HW318991   3.914   3.021   6.055 -0.4799 -0.4166 -0.4593
 4806SOL    MW418992   3.994   2.988   6.062  0.1453  0.4152  0.0700
 4807SOL     OW18993   1.642   4.426   3.610  0.8304  0.2531 -0.2285
 4807SOL    HW218994   1.723   4.392   3.648  1.2264  0.5352 -0.8037
 4807SOL    HW318995   1.670   4.504   3.561 -0.1094  1.7082  1.4224
 4807SOL    MW418996   1.657   4.432   3.609 -0.1515 -0.0888 -0.0897
 4808SOL     OW18997   3.712   4.570   0.328 -0.0813  0.1415 -0.0633
 4808SOL    HW218998   3.800   4.548   0.297  0.7533  0.5409  1.8522
 4808SOL    HW318999   3.654   4.544   0.257  1.3994 -2.1084 -0.5531
 4808SOL    MW419000   3.716   4.564   0.314 -0.3383  0.2180  0.1600
 4809SOL     OW19001   1.754   3.023   4.615 -0.1960 -0.0501  0.7570
 4809SOL    HW219002   1.815   2.957   4.580  0.4950  1.7633 -1.7670
 4809SOL    HW319003   1.682   2.972   4.652  0.9728 -2.2242  0.2034
 4809SOL    MW419004   1.753   3.008   4.615 -0.3552  0.0723 -0.2639
 4810SOL     OW19005   6.401   5.753   1.088 -0.1547  0.0904 -0.9083
 4810SOL    HW219006   6.401   5.849   1.083  0.0251  0.0440 -2.2618
 4810SOL    HW319007   6.314   5.731   1.120  0.0484  0.7243  0.1303
 4810SOL    MW419008   6.389   5.763   1.092 -1.3077  0.5236  0.0080
 4811SOL     OW19009   5.325   3.962   5.243 -0.2082  0.5306 -0.1305
 4811SOL    HW219010   5.243   3.935   5.201 -0.7082  0.2002  1.0116
 4811SOL    HW319011   5.300   3.987   5.332  1.0035 -0.1513  0.4416
 4811SOL    MW419012   5.311   3.962   5.249 -0.3121 -0.3354  0.3750
 4812SOL     OW19013   2.162   3.184   4.039 -0.0695 -0.4706 -0.1380
 4812SOL    HW219014   2.198   3.101   4.070 -2.2463 -1.2152  0.5532
 4812SOL    HW319015   2.067   3.174   4.049 -0.4762  1.4862 -1.6086
 4812SOL    MW419016   2.154   3.171   4.045 -0.2320 -0.2585 -0.4617
 4813SOL     OW19017   0.311   5.199   1.083 -0.4589 -0.2417  0.2144
 4813SOL    HW219018   0.286   5.288   1.107 -0.1633 -0.3490  0.9378
 4813SOL    HW319019   0.355   5.165   1.160 -2.1887 -1.6731  0.6180
 4813SOL    MW419020   0.314   5.206   1.096  0.2810 -0.0996  0.2015
 4814SOL     OW19021   0.563   2.612   4.942  0.7444 -0.3794  0.1131
 4814SOL    HW219022   0.550   2.606   4.847 -0.3087  0.0089  0.2239
 4814SOL    HW319023   0.554   2.522   4.973 -0.3837 -0.3072  0.0166
 4814SOL    MW419024   0.560   2.599   4.934 -0.1801 -0.0152 -0.4065
 4815SOL     OW19025   5.986   4.496   0.969  0.2414  0.6020  0.0789
 4815SOL    HW219026   5.933   4.572   0.993  1.8740  1.9069 -0.2826
 4815SOL    HW319027   6.049   4.488   1.040 -0.0392 -0.5704  0.2105
 4815SOL    MW419028   5.987   4.505   0.981 -0.3479 -0.4925 -0.5669
 4816SOL     OW19029   2.261   4.401   1.457 -0.2072  0.5531 -0.1113
 4816SOL    HW219030   2.304   4.472   1.504 -0.5821  0.4713  0.3753
 4816SOL    HW319031   2.270   4.325   1.515 -1.1969  0.5915  0.1140
 4816SOL    MW419032   2.267   4.400   1.471 -0.6398  0.3240 -0.6653
 4817SOL     OW19033   5.894   2.140   0.951  0.5987 -0.3947  0.3338
 4817SOL    HW219034   5.802   2.153   0.972  0.5499 -0.5858  0.2424
 4817SOL    HW319035   5.928   2.228   0.936  0.5304 -0.2929  0.7790
 4817SOL    MW419036   5.887   2.153   0.951  0.4546  0.3297 -0.2619
 4818SOL     OW19037   0.083   1.125   3.899 -0.3825 -0.0564  0.3345
 4818SOL    HW219038   0.013   1.133   3.963 -1.6422 -1.6128 -0.7837
 4818SOL    HW319039   0.065   1.044   3.852  1.1630  0.4090 -1.2047
 4818SOL    MW419040   0.072   1.115   3.901 -0.2318  0.1851 -0.1976
 4819SOL     OW19041   5.708   6.181   5.559  0.3034  0.0984  0.0977
 4819SOL    HW219042   5.674   6.269   5.548 -0.4203 -0.0232  1.1864
 4819SOL    HW319043   5.774   6.189   5.628  2.4087  0.2816 -1.7953
 4819SOL    MW419044   5.713   6.193   5.566  0.4758  0.2885 -0.2437
 4820SOL     OW19045   5.781   3.566   2.064  0.1495  0.4084  0.1221
 4820SOL    HW219046   5.876   3.572   2.052  0.4353 -0.3222  1.7223
 4820SOL    HW319047   5.770   3.552   2.158 -1.6423  2.1745  0.2353
 4820SOL    MW419048   5.792   3.565   2.075  0.1766  0.0574  0.2707
 4821SOL     OW19049   5.856   6.377   0.423  0.4178  0.1795  0.3775
 4821SOL    HW219050   5.902   6.303   0.464 -1.7518 -1.4923 -0.0411
 4821SOL    HW319051   5.905   6.394   0.343  0.8384 -0.9888  0.3605
 4821SOL    MW419052   5.869   6.369   0.418  1.0109 -0.2521  0.6150
 4822SOL     OW19053   4.109   3.315   6.329  0.3531  0.2464 -0.1470
 4822SOL    HW219054   4.092   3.221   6.331 -2.8291  0.6985  1.7522
 4822SOL    HW319055   4.078   3.344   6.244 -0.0157 -0.2508 -0.1856
 4822SOL    MW419056   4.103   3.306   6.318  0.5046  0.3178  0.5617
 4823SOL     OW19057   5.952   4.623   2.597 -0.2796  0.7496 -0.6138
 4823SOL    HW219058   5.913   4.704   2.564  1.0525  1.5656 -0.2617
 4823SOL    HW319059   5.989   4.581   2.519 -0.1184  0.9655 -0.6539
 4823SOL    MW419060   5.952   4.629   2.582  0.2765  0.1546 -0.5015
 4824SOL     OW19061   1.773   0.269   4.352 -0.4902  0.0333 -0.2017
 4824SOL    HW219062   1.799   0.337   4.290  1.1057 -0.2107  0.1549
 4824SOL    HW319063   1.855   0.237   4.389 -1.3755  0.2335  2.1309
 4824SOL    MW419064   1.787   0.273   4.349 -0.3449  0.0412  0.1697
 4825SOL     OW19065   0.477   1.429   5.629  0.6997  1.1006 -0.5603
 4825SOL    HW219066   0.415   1.472   5.570 -0.8685 -0.6793 -0.2856
 4825SOL    HW319067   0.423   1.393   5.699  2.0285 -0.4930 -0.2928
 4825SOL    MW419068   0.462   1.430   5.630 -0.0823  0.5956  0.5971
 4826SOL     OW19069   3.961   0.690   2.718 -0.1106  0.0845  0.1555
 4826SOL    HW219070   3.969   0.778   2.755 -2.1699  0.2988  0.1957
 4826SOL    HW319071   3.962   0.631   2.793  2.5436 -0.1137  0.0697
 4826SOL    MW419072   3.963   0.694   2.733 -0.2193 -0.7695 -0.2462
 4827SOL     OW19073   5.040   3.953   6.005  0.7797  0.1256 -0.1007
 4827SOL    HW219074   5.135   3.961   6.015  0.7768  1.4173 -0.8132
 4827SOL    HW319075   5.007   4.042   6.013 -0.4914 -0.4084  1.0096
 4827SOL    MW419076   5.048   3.966   6.007 -0.2389  0.0067 -0.7027
 4828SOL     OW19077   1.917   5.018   2.821  0.1455  0.7442  0.6322
 4828SOL    HW219078   1.895   5.107   2.849  0.9939  0.8328  1.0262
 4828SOL    HW319079   1.884   4.962   2.891  2.0782  0.9503  1.7725
 4828SOL    MW419080   1.910   5.023   2.834  0.4836  0.4999  0.1117
 4829SOL     OW19081   2.049   4.415   2.536  0.7009  0.9117 -0.4334
 4829SOL    HW219082   2.019   4.359   2.464  1.1845  0.4263 -0.2666
 4829SOL    HW319083   2.124   4.369   2.572  0.2020  0.9264  0.6681
 4829SOL    MW419084   2.055   4.401   2.532  0.1607  0.6562  0.7777
 4830SOL     OW19085   1.556   2.656   4.600 -0.1430 -0.7634 -0.0936
 4830SOL    HW219086   1.542   2.744   4.566 -0.3513 -0.4502  0.7818
 4830SOL    HW319087   1.489   2.602   4.557  0.6661 -0.7392 -1.4689
 4830SOL    MW419088   1.545   2.660   4.590 -0.9545  0.1581 -0.2718
 4831SOL     OW19089   5.633   5.644   3.497 -0.4068 -0.2740 -0.0394
 4831SOL    HW219090   5.639   5.701   3.573 -1.5412 -2.6361  1.9887
 4831SOL    HW319091   5.540   5.641   3.475 -0.0662  0.6628 -1.8412
 4831SOL    MW419092   5.622   5.651   3.504  0.1185 -0.2673 -0.1342
 4832SOL     OW19093   3.059   1.808   2.891 -0.1745 -0.2683 -0.1439
 4832SOL    HW219094   3.123   1.793   2.960 -0.8136  0.5688  0.6554
 4832SOL    HW319095   3.059   1.903   2.878 -2.3034 -0.0576  0.9356
 4832SOL    MW419096   3.068   1.819   2.898  0.0278  0.5413 -1.0638
 4833SOL     OW19097   5.391   4.779   5.421 -0.2800 -0.7029  0.3291
 4833SOL    HW219098   5.395   4.873   5.405  0.0490 -0.9304 -1.0501
 4833SOL    HW319099   5.383   4.771   5.516  1.1119  0.6789  0.6109
 4833SOL    MW419100   5.391   4.791   5.431 -0.3651  0.1643 -0.9121
 4834SOL     OW19101   2.926   6.158   1.210  0.8049 -0.1343 -0.1846
 4834SOL    HW219102   2.895   6.246   1.232 -0.5949 -0.4728 -0.7332
 4834SOL    HW319103   2.909   6.149   1.117  2.5156 -0.3847 -0.5023
 4834SOL    MW419104   2.920   6.168   1.201 -0.0658  0.0037  0.3154
 4835SOL     OW19105   0.057   1.363   4.594 -0.3583  0.2332  0.2674
 4835SOL    HW219106   0.050   1.277   4.552 -0.3026 -0.1724  1.0719
 4835SOL    HW319107   0.047   1.345   4.687 -3.0131  1.3962  0.2869
 4835SOL    MW419108   0.055   1.349   4.601 -0.1258 -0.3458 -0.1272
 4836SOL     OW19109   6.388   4.324   5.321 -0.4916  0.2599 -0.2477
 4836SOL    HW219110   6.444   4.288   5.253 -1.8803 -0.7043 -0.9282
 4836SOL    HW319111   6.301   4.286   5.304 -0.8097 -0.3568  2.2971
 4836SOL    MW419112   6.384   4.315   5.310 -0.3460  0.5432 -0.3044
 4837SOL     OW19113   5.853   1.697   1.765 -0.9919  0.0091 -0.4732
 4837SOL    HW219114   5.781   1.661   1.817 -0.4975 -1.8612 -1.0030
 4837SOL    HW319115   5.925   1.707   1.827 -0.7834 -1.0491 -0.5288
 4837SOL    MW419116   5.853   1.694   1.780 -0.3552 -0.4446  0.1398
 4838SOL     OW19117   5.214   4.107   1.125 -0.1408 -0.1043 -0.2658
 4838SOL    HW219118   5.266   4.182   1.094  0.6043  0.4730  2.1303
 4838SOL    HW319119   5.242   4.034   1.070 -1.5257  1.4790 -3.2751
 4838SOL    MW419120   5.225   4.108   1.114  0.0660  0.1503 -0.3308
 4839SOL     OW19121   0.921   2.630   4.460  0.0527  0.3052  0.0775
 4839SOL    HW219122   0.925   2.725   4.451  0.1603  0.5558  2.2589
 4839SOL    HW319123   1.007   2.606   4.495 -0.7584 -0.2698  1.7917
 4839SOL    MW419124   0.933   2.639   4.463  0.1532  0.8110 -0.2057
 4840SOL     OW19125   1.861   1.474   1.076 -0.6180  0.1261  0.0449
 4840SOL    HW219126   1.905   1.388   1.081  0.6099  0.6139 -1.5344
 4840SOL    HW319127   1.885   1.517   1.158  0.9437 -0.0655 -0.2802
 4840SOL    MW419128   1.870   1.468   1.088 -0.1548  0.0745  0.8453
 4841SOL     OW19129   3.073   5.809   5.279  0.5287  0.0845 -0.1405
 4841SOL    HW219130   3.033   5.798   5.193 -1.7638 -0.4556  0.9277
 4841SOL    HW319131   3.046   5.897   5.307  2.4970  0.8667 -0.5263
 4841SOL    MW419132   3.064   5.820   5.272  0.2773  0.6369 -0.1328
 4842SOL     OW19133   4.985   1.140   4.772  0.3521 -0.1467  0.0030
 4842SOL    HW219134   4.956   1.204   4.708  1.1595  0.3217  0.0881
 4842SOL    HW319135   4.989   1.058   4.724  0.6412  0.1362 -0.4706
 4842SOL    MW419136   4.982   1.138   4.758 -0.4162 -0.0387  0.0640
 4843SOL     OW19137   0.595   1.028   0.179  0.2279  0.1484  0.0064
 4843SOL    HW219138   0.626   0.942   0.206  2.0646  0.0619 -2.1174
 4843SOL    HW319139   0.664   1.062   0.122 -1.9904  1.5315 -2.0552
 4843SOL    MW419140   0.608   1.022   0.175 -0.2556  0.1626 -0.4401
 4844SOL     OW19141   1.052   6.174   1.659  0.3889  0.3093  0.0440
 4844SOL    HW219142   1.006   6.149   1.739  0.8525  0.9227  0.5054
 4844SOL    HW319143   1.070   6.267   1.669  0.5081  0.3796 -0.7498
 4844SOL    MW419144   1.048   6.183   1.670 -0.1379 -0.1130  0.4300
 4845SOL     OW19145   3.175   5.588   4.271 -0.3547 -0.0700  0.0072
 4845SOL    HW219146   3.088   5.599   4.310  0.6285  0.1751  2.3047
 4845SOL    HW319147   3.205   5.503   4.304  1.4926  1.2314  1.9507
 4845SOL    MW419148   3.168   5.578   4.281  0.7006  0.4699 -0.0013
 4846SOL     OW19149   2.640   1.075   5.381 -0.0842  0.2011 -0.0129
 4846SOL    HW219150   2.607   1.151   5.428  3.1254  1.5330  0.3547
 4846SOL    HW319151   2.681   1.020   5.448 -0.8877 -1.0656 -0.5054
 4846SOL    MW419152   2.641   1.077   5.396 -0.3712  0.4060 -0.3754
 4847SOL     OW19153   0.236   0.108   5.876 -0.1029 -0.2261  0.2512
 4847SOL    HW219154   0.315   0.128   5.825 -1.4891  1.0367 -1.5303
 4847SOL    HW319155   0.227   0.181   5.937 -0.5853  0.3464 -0.4791
 4847SOL    MW419156   0.245   0.120   5.877 -0.0290 -1.3720  0.2256
 4848SOL     OW19157   4.437   2.183   0.643 -0.1592  0.2127 -0.2153
 4848SOL    HW219158   4.522   2.213   0.678 -1.4232  4.6291 -0.2456
 4848SOL    HW319159   4.404   2.123   0.709  1.9587  0.2800  0.9988
 4848SOL    MW419160   4.444   2.179   0.656  0.3693  0.0520 -0.3628
 4849SOL     OW19161   5.744   3.989   5.366  0.9453  0.7168  0.0839
 4849SOL    HW219162   5.798   3.915   5.393 -1.1129 -3.2418 -4.9702
 4849SOL    HW319163   5.663   3.980   5.416  1.4069  0.8263  0.8661
 4849SOL    MW419164   5.740   3.978   5.376 -0.7696 -0.1189  0.2836
 4850SOL     OW19165   5.030   2.534   1.500  0.4821 -0.7538  0.0114
 4850SOL    HW219166   5.123   2.516   1.517  0.5895 -0.1747  0.0558
 4850SOL    HW319167   4.994   2.554   1.587  0.1799 -1.5348  0.0809
 4850SOL    MW419168   5.037   2.534   1.514  0.2375 -0.0462 -0.1798
 4851SOL     OW19169   3.628   0.787   5.613  0.6533  0.1537 -0.2940
 4851SOL    HW219170   3.697   0.808   5.550 -1.2272  1.4311 -2.0685
 4851SOL    HW319171   3.591   0.704   5.582  0.2431  0.3846 -0.4384
 4851SOL    MW419172   3.632   0.779   5.600  0.8400  0.9306 -0.1633
 4852SOL     OW19173   5.554   3.213   5.917 -0.1030 -0.3600  0.1653
 4852SOL    HW219174   5.616   3.267   5.967  0.5767 -1.0078  0.0433
 4852SOL    HW319175   5.479   3.202   5.976  0.1301 -0.0197  0.5334
 4852SOL    MW419176   5.553   3.219   5.931 -0.0687  0.3512 -0.6138
 4853SOL     OW19177   0.723   6.300   0.047 -0.0881 -0.0821  0.4967
 4853SOL    HW219178   0.653   6.273  -0.012  0.0005 -0.4285  0.5514
 4853SOL    HW319179   0.798   6.317  -0.009 -0.5177  1.3755  0.3072
 4853SOL    MW419180   0.724   6.299   0.032  0.4703  0.3876 -0.0334
 4854SOL     OW19181   4.109   5.209   4.124  0.3524 -0.5088  0.1048
 4854SOL    HW219182   4.194   5.234   4.162  0.4285  2.3839 -1.6209
 4854SOL    HW319183   4.053   5.193   4.199  1.5275  1.0882  1.4035
 4854SOL    MW419184   4.113   5.211   4.139  0.5931 -0.3034  0.1337
 4855SOL     OW19185   2.194   4.440   4.587  0.1164 -0.5336 -0.0261
 4855SOL    HW219186   2.128   4.383   4.548  1.4885 -1.9975 -0.3053
 4855SOL    HW319187   2.159   4.462   4.673 -0.9607 -0.8604 -0.3723
 4855SOL    MW419188   2.181   4.436   4.593 -0.1036  0.1275  0.0191
 4856SOL     OW19189   0.177   0.976   4.725 -0.0551  0.4981  0.1954
 4856SOL    HW219190   0.227   0.899   4.752 -1.0727  0.0650  0.9060
 4856SOL    HW319191   0.240   1.029   4.676  0.6781 -0.7622 -0.2918
 4856SOL    MW419192   0.192   0.973   4.722 -0.4381 -0.2311 -0.0355
 4857SOL     OW19193   5.313   2.625   5.522 -0.9516  0.5727 -0.0121
 4857SOL    HW219194   5.352   2.552   5.570 -2.1766 -0.0837  0.0130
 4857SOL    HW319195   5.236   2.649   5.574 -1.7703  0.4578 -1.1415
 4857SOL    MW419196   5.308   2.618   5.536 -0.2604 -0.1734  0.1257
 4858SOL     OW19197   4.144   2.565   0.493  0.4085  0.0858  0.0938
 4858SOL    HW219198   4.133   2.549   0.587 -2.0252  0.8861  0.0040
 4858SOL    HW319199   4.185   2.485   0.460 -2.2467 -1.9086  1.2636
 4858SOL    MW419200   4.148   2.552   0.501  0.1318 -0.0058 -0.3953
 4859SOL     OW19201   2.403   3.352   4.488  0.0743 -0.2648  0.7372
 4859SOL    HW219202   2.462   3.347   4.563 -0.4284  0.8484  1.2408
 4859SOL    HW319203   2.356   3.435   4.501  0.6545  0.4368 -1.3279
 4859SOL    MW419204   2.404   3.362   4.500 -0.5776 -0.5370 -0.3597
 4860SOL     OW19205   6.077   5.957   3.425 -0.2481  0.6887 -0.7165
 4860SOL    HW219206   6.041   6.018   3.490 -0.3293 -0.7416  0.6487
 4860SOL    HW319207   6.005   5.898   3.404 -0.0423  0.7596 -1.6667
 4860SOL    MW419208   6.063   5.957   3.431  0.0349 -0.8163  0.3066
 4861SOL     OW19209   3.123   1.814   4.442  0.6214  0.2724  0.5793
 4861SOL    HW219210   3.177   1.861   4.505 -0.0944  1.6473  0.2053
 4861SOL    HW319211   3.087   1.882   4.385  1.5569 -0.9410 -1.5970
 4861SOL    MW419212   3.125   1.829   4.443  0.0393  0.7830 -0.8758
 4862SOL     OW19213   1.813   4.401   2.701 -0.6698 -0.6970 -0.0376
 4862SOL    HW219214   1.737   4.427   2.648 -1.4064 -1.7853  0.4588
 4862SOL    HW319215   1.889   4.419   2.644 -1.3776 -0.9311 -1.0864
 4862SOL    MW419216   1.813   4.407   2.686  0.5283  0.2963 -0.0263
 4863SOL     OW19217   5.773   2.517   3.368 -0.5682 -0.0505  0.1866
 4863SOL    HW219218   5.709   2.446   3.379 -0.5604  0.0975  1.2728
 4863SOL    HW319219   5.853   2.483   3.409  0.1064 -0.2710 -1.2424
 4863SOL    MW419220   5.775   2.503   3.375  0.2249  0.3361  0.6973
 4864SOL     OW19221   4.304   2.902   0.046 -0.6509  0.2558  0.6300
 4864SOL    HW219222   4.268   2.908   0.134 -3.4221  3.3269 -0.5270
 4864SOL    HW319223   4.365   2.976   0.040  1.2653 -1.2367  0.5497
 4864SOL    MW419224   4.307   2.912   0.057 -0.0755  0.1494  0.1175
 4865SOL     OW19225   3.237   1.261   4.361  0.0507 -0.1512 -0.1283
 4865SOL    HW219226   3.292   1.195   4.402 -1.0844 -0.1164  1.5320
 4865SOL    HW319227   3.190   1.302   4.433  1.3676  3.1606 -0.9560
 4865SOL    MW419228   3.238   1.258   4.376 -0.5900 -0.1957 -0.3343
 4866SOL     OW19229   6.299   0.515   3.209 -0.0374  0.0840  0.3955
 4866SOL    HW219230   6.240   0.545   3.278 -0.4126 -0.0703  0.1479
 4866SOL    HW319231   6.285   0.577   3.137 -0.8143 -0.6518 -0.1175
 4866SOL    MW419232   6.289   0.527   3.208  0.3216 -0.4816  0.5052
 4867SOL     OW19233   5.883   4.188   3.255  0.2747 -0.5569  0.0899
 4867SOL    HW219234   5.844   4.129   3.192 -1.5488 -0.1249  0.7674
 4867SOL    HW319235   5.952   4.136   3.297 -1.3251 -2.2371  0.7352
 4867SOL    MW419236   5.887   4.174   3.252 -0.3099 -0.1470 -0.0139
 4868SOL     OW19237   4.745   0.694   5.147  0.6530  0.2274  0.4401
 4868SOL    HW219238   4.759   0.778   5.101  1.6291  0.9272  1.9485
 4868SOL    HW319239   4.696   0.718   5.225  1.9276 -0.4038  1.4728
 4868SOL    MW419240   4.741   0.708   5.151  0.0207 -0.0917 -0.2950
 4869SOL     OW19241   4.833   0.961   5.678  0.1726 -0.3147 -0.6007
 4869SOL    HW219242   4.784   0.957   5.761  2.1235  1.1706  0.7219
 4869SOL    HW319243   4.858   0.870   5.661  1.4112 -0.4415  1.5498
 4869SOL    MW419244   4.829   0.948   5.687 -0.3333 -0.0616  0.6864
 4870SOL     OW19245   0.287   5.465   4.635 -0.0954 -0.1460 -0.2112
 4870SOL    HW219246   0.280   5.373   4.661 -0.5647 -0.3873 -1.1515
 4870SOL    HW319247   0.380   5.485   4.645 -0.2412 -0.2035  1.6465
 4870SOL    MW419248   0.299   5.456   4.639 -1.0822 -0.3841  0.2726
 4871SOL     OW19249   0.551   5.426   1.686 -0.1084 -0.2971  0.1430
 4871SOL    HW219250   0.642   5.426   1.654 -0.1838  1.2645 -0.1407
 4871SOL    HW319251   0.522   5.336   1.674  1.0588 -0.5817 -0.7770
 4871SOL    MW419252   0.559   5.414   1.680 -0.3066 -0.6377  0.0664
 4872SOL     OW19253   0.428   2.300   2.729 -0.3124  0.4977 -0.4411
 4872SOL    HW219254   0.513   2.257   2.737 -0.2124  0.7201 -0.2791
 4872SOL    HW319255   0.375   2.263   2.800  0.2072  1.6254  0.5931
 4872SOL    MW419256   0.433   2.290   2.740 -0.2395  0.2936 -0.0365
 4873SOL     OW19257   4.503   3.162   4.539 -0.3109  0.6607 -0.0713
 4873SOL    HW219258   4.418   3.204   4.547  0.3576  2.0962 -0.1850
 4873SOL    HW319259   4.510   3.139   4.446 -1.4213 -1.3911  0.3110
 4873SOL    MW419260   4.493   3.165   4.528 -0.7956  0.3900  0.4222
 4874SOL     OW19261   0.363   4.963   3.418 -0.1844 -0.4526 -0.3624
 4874SOL    HW219262   0.449   4.994   3.447  0.2984 -0.5639 -1.6360
 4874SOL    HW319263   0.304   4.991   3.488  0.5598  1.4648 -0.4225
 4874SOL    MW419264   0.367   4.971   3.431  0.2586  0.6636 -0.5275
 4875SOL     OW19265   3.216   5.572   4.002 -0.0233 -0.4213 -0.2801
 4875SOL    HW219266   3.202   5.483   3.968 -0.6862 -0.4086 -0.0545
 4875SOL    HW319267   3.177   5.571   4.089  0.3642 -0.0328 -0.0975
 4875SOL    MW419268   3.209   5.560   4.009  0.0331 -0.2996  0.2891
 4876SOL     OW19269   0.157   2.803   6.254  0.1769 -0.7753  0.2712
 4876SOL    HW219270   0.216   2.873   6.228 -2.0346  0.8832 -0.5884
 4876SOL    HW319271   0.193   2.724   6.213  1.7881  0.1362 -0.1436
 4876SOL    MW419272   0.170   2.802   6.245  0.1174 -0.0534  0.2810
 4877SOL     OW19273   3.107   2.988   6.204 -0.2316  0.3244  0.6675
 4877SOL    HW219274   3.062   2.904   6.213 -0.3695  0.2574 -0.4589
 4877SOL    HW319275   3.199   2.967   6.220 -0.3492  0.0885  1.0510
 4877SOL    MW419276   3.113   2.974   6.207 -0.2936 -0.1580  0.1282
 4878SOL     OW19277   6.168   2.325   4.293  0.1470 -0.3954 -0.2010
 4878SOL    HW219278   6.209   2.396   4.242 -1.7397  0.5475 -0.5121
 4878SOL    HW319279   6.199   2.245   4.251  0.1822  0.3251 -1.6403
 4878SOL    MW419280   6.178   2.324   4.281  0.5280 -0.2389  0.2938
 4879SOL     OW19281   0.892   3.926   1.946  0.1527  0.8253 -0.4252
 4879SOL    HW219282   0.917   3.961   2.032  0.2552  0.8811 -0.4776
 4879SOL    HW319283   0.803   3.894   1.958  0.6912 -0.5734  0.1389
 4879SOL    MW419284   0.884   3.926   1.959  0.0766 -0.2518  0.0164
 4880SOL     OW19285   0.783   1.377   3.270  0.4884  0.3960  1.0363
 4880SOL    HW219286   0.739   1.459   3.292  0.6244  0.8638 -0.3354
 4880SOL    HW319287   0.870   1.385   3.310  1.0257  1.5794 -0.2729
 4880SOL    MW419288   0.789   1.389   3.278 -0.2541  0.3942 -0.0677
 4881SOL     OW19289   1.288   1.198   6.205 -0.5295 -0.1812 -0.3326
 4881SOL    HW219290   1.354   1.154   6.152 -1.1039 -0.6206 -0.7062
 4881SOL    HW319291   1.229   1.128   6.233  0.0984 -0.0504  1.4261
 4881SOL    MW419292   1.289   1.183   6.202 -0.1684  0.0529  0.0145
 4882SOL     OW19293   0.593   4.352   0.114  0.0426  0.2894  0.0933
 4882SOL    HW219294   0.662   4.295   0.080 -0.3424  0.1091 -0.4021
 4882SOL    HW319295   0.621   4.372   0.203  0.4129 -0.3076  0.1230
 4882SOL    MW419296   0.606   4.347   0.121 -0.0707  0.5517  0.5657
 4883SOL     OW19297   5.870   4.444   3.752  0.1144  0.6071  0.2408
 4883SOL    HW219298   5.854   4.403   3.667 -0.0036 -0.6440  0.8517
 4883SOL    HW319299   5.786   4.440   3.797  0.1614  1.3182  0.4155
 4883SOL    MW419300   5.857   4.438   3.747 -0.0225 -0.1874 -0.0706
 4884SOL     OW19301   1.438   0.150   0.782  0.1732  0.5323 -0.4305
 4884SOL    HW219302   1.455   0.236   0.743  0.6487  0.9468  0.6400
 4884SOL    HW319303   1.346   0.153   0.808 -0.0995  0.3131 -1.3587
 4884SOL    MW419304   1.428   0.162   0.780 -0.1840  0.2219 -0.1827
 4885SOL     OW19305   5.428   3.241   1.990 -0.3452 -0.1820  0.3351
 4885SOL    HW219306   5.476   3.190   2.055  0.6350  0.8699  0.4788
 4885SOL    HW319307   5.492   3.305   1.958 -0.8398 -0.5798 -1.5700
 4885SOL    MW419308   5.443   3.243   1.995  0.3556  0.2343  1.0928
 4886SOL     OW19309   4.516   1.490   4.721 -0.4424  0.0342 -0.1185
 4886SOL    HW219310   4.537   1.581   4.743 -1.1186  0.1989 -0.1530
 4886SOL    HW319311   4.421   1.488   4.712 -0.3864 -0.5600 -0.6589
 4886SOL    MW419312   4.507   1.502   4.723  0.4719  0.3042  0.2782
 4887SOL     OW19313   3.979   6.335   5.856  0.1681 -0.3351 -0.0824
 4887SOL    HW219314   4.029   6.375   5.926 -0.0800  1.7308 -1.0058
 4887SOL    HW319315   4.044   6.307   5.792  0.2572  0.5521 -0.3879
 4887SOL    MW419316   3.994   6.336   5.856 -0.0352  0.1889 -0.1164
 4888SOL     OW19317   5.064   4.405   2.499  0.0553 -0.0551 -0.4358
 4888SOL    HW219318   5.145   4.455   2.504  1.4456 -2.1297 -0.6950
 4888SOL    HW319319   5.089   4.323   2.455 -1.7543 -1.5259  1.0785
 4888SOL    MW419320   5.078   4.401   2.494  0.0689  0.3865 -0.1702
 4889SOL     OW19321   2.233   2.150   0.681 -0.2437  0.4176  0.3428
 4889SOL    HW219322   2.167   2.112   0.739  0.4392 -1.0996  0.1938
 4889SOL    HW319323   2.274   2.219   0.732 -0.3565 -0.2146  1.3088
 4889SOL    MW419324   2.230   2.154   0.695 -0.4874 -0.1371  0.0053
 4890SOL     OW19325   2.087   0.985   1.219 -0.8876  0.6884 -0.4942
 4890SOL    HW219326   1.997   0.973   1.251 -0.7352  2.3568  0.7377
 4890SOL    HW319327   2.096   0.921   1.148 -2.8058 -0.0031 -0.1927
 4890SOL    MW419328   2.076   0.975   1.214 -0.3878  0.0914 -0.1170
 4891SOL     OW19329   1.636   2.800   0.531  0.0863  0.2205  0.0816
 4891SOL    HW219330   1.665   2.712   0.555 -1.5582 -0.8750 -1.7049
 4891SOL    HW319331   1.635   2.800   0.436 -0.4575  2.0257  0.0565
 4891SOL    MW419332   1.640   2.788   0.522 -0.0290 -0.5237  0.0955
 4892SOL     OW19333   4.003   1.743   6.247 -0.0569 -0.3325 -0.2981
 4892SOL    HW219334   3.923   1.704   6.212 -0.0114 -0.6828 -0.0172
 4892SOL    HW319335   4.051   1.669   6.284  0.5032 -0.1622 -0.6708
 4892SOL    MW419336   3.999   1.728   6.247 -0.2042 -0.0275 -0.6100
 4893SOL     OW19337   4.188   1.611   5.613 -0.5878 -0.2214 -0.4160
 4893SOL    HW219338   4.135   1.615   5.693  0.7541 -0.0194  0.4867
 4893SOL    HW319339   4.190   1.517   5.591 -1.9363 -0.1606 -0.9160
 4893SOL    MW419340   4.181   1.599   5.621  0.2586  0.4649 -0.1940
 4894SOL     OW19341   5.486   2.471   6.097 -0.3695 -0.1714 -0.0146
 4894SOL    HW219342   5.569   2.425   6.084 -0.6631 -0.1320 -2.4560
 4894SOL    HW319343   5.422   2.402   6.111  0.0005 -0.2036  1.8524
 4894SOL    MW419344   5.489   2.456   6.097  0.3261  0.7492 -0.6802
 4895SOL     OW19345   5.749   1.636   0.803  0.3790 -0.3068  0.6080
 4895SOL    HW219346   5.764   1.717   0.853  0.0377 -1.3580  2.4723
 4895SOL    HW319347   5.672   1.655   0.750  2.5560  1.9509 -2.0972
 4895SOL    MW419348   5.741   1.649   0.802  0.0878 -0.5576 -0.3939
 4896SOL     OW19349   1.153   0.115   4.325 -0.0151 -0.1077 -0.0542
 4896SOL    HW219350   1.192   0.164   4.398 -3.9232  0.1055  2.1449
 4896SOL    HW319351   1.102   0.180   4.277  0.3891 -0.7807 -1.4492
 4896SOL    MW419352   1.151   0.130   4.328 -0.1063 -0.0331  0.5105
 4897SOL     OW19353   2.783   0.983   5.591 -0.4435  0.2085 -0.7481
 4897SOL    HW219354   2.778   0.888   5.605  0.5022  0.2838  0.2003
 4897SOL    HW319355   2.726   1.020   5.658  0.7804  0.3873  0.2200
 4897SOL    MW419356   2.774   0.975   5.602  0.1519  0.3680 -0.1700
 4898SOL     OW19357   4.495   3.595   1.445  0.2526  0.0767 -0.2530
 4898SOL    HW219358   4.452   3.546   1.375  2.7003 -1.1979 -0.9861
 4898SOL    HW319359   4.546   3.662   1.400  0.0879  0.7095  0.4836
 4898SOL    MW419360   4.496   3.598   1.430 -0.3239 -0.3130  0.3138
 4899SOL     OW19361   2.835   6.158   5.610 -0.3387 -0.2653 -0.2816
 4899SOL    HW219362   2.747   6.175   5.574 -0.8288  1.4695  1.5161
 4899SOL    HW319363   2.825   6.078   5.661 -0.6284 -0.6049 -0.8660
 4899SOL    MW419364   2.822   6.150   5.612  0.4074 -0.0914 -0.4726
 4900SOL     OW19365   3.479   3.376   4.972 -0.5577 -0.3847  0.1760
 4900SOL    HW219366   3.473   3.343   5.062  2.4825  1.8554  1.3845
 4900SOL    HW319367   3.486   3.297   4.918 -3.0202 -1.8171  1.7542
 4900SOL    MW419368   3.479   3.361   4.977 -0.0155 -0.4841  0.6872
 4901SOL     OW19369   1.732   0.349   3.990 -0.5161  0.6933 -0.3984
 4901SOL    HW219370   1.658   0.383   3.940 -2.2023 -2.3426 -0.2167
 4901SOL    HW319371   1.776   0.290   3.930  0.7206  1.0945  0.0815
 4901SOL    MW419372   1.728   0.346   3.975  0.6985 -0.3654  0.4312
 4902SOL     OW19373   4.691   4.862   3.949  0.3984 -0.9891 -0.2022
 4902SOL    HW219374   4.655   4.777   3.925 -0.6299 -0.4970 -0.4620
 4902SOL    HW319375   4.615   4.921   3.950  1.3227  0.3382 -1.9109
 4902SOL    MW419376   4.676   4.858   3.946  0.2923 -0.3009  0.2379
 4903SOL     OW19377   6.437   1.281   0.823 -0.1880  0.1265 -0.0148
 4903SOL    HW219378   6.435   1.193   0.787 -1.6405  0.8499 -1.9221
 4903SOL    HW319379   6.530   1.305   0.823 -0.0186 -0.1631 -2.9042
 4903SOL    MW419380   6.449   1.273   0.818 -0.4701  0.1144 -0.3102
 4904SOL     OW19381   2.580   2.302   3.008 -0.4588 -0.4411  0.4556
 4904SOL    HW219382   2.641   2.282   3.078  1.0334 -1.0940 -0.9614
 4904SOL    HW319383   2.591   2.396   2.993 -0.3440 -0.4191  0.6778
 4904SOL    MW419384   2.589   2.312   3.015  0.2064  0.8091  0.6939
 4905SOL     OW19385   0.995   4.793   3.763  0.1789  0.0837  0.1717
 4905SOL    HW219386   1.045   4.724   3.719  0.7245  0.7165 -0.2132
 4905SOL    HW319387   0.982   4.759   3.852  0.2914 -0.5875 -0.0562
 4905SOL    MW419388   1.000   4.779   3.769  0.0386  0.4718 -0.4561
 4906SOL     OW19389   3.804   4.579   1.550  0.1721 -0.1585 -0.1108
 4906SOL    HW219390   3.876   4.547   1.605  0.9676 -2.8354 -2.4619
 4906SOL    HW319391   3.846   4.645   1.493  0.0009  0.5748  0.6018
 4906SOL    MW419392   3.819   4.584   1.550  0.3844 -0.2744  0.2121
 4907SOL     OW19393   0.882   1.180   1.013 -0.1599 -0.4276 -0.4530
 4907SOL    HW219394   0.976   1.161   1.001 -0.1078 -0.9604  0.6790
 4907SOL    HW319395   0.876   1.212   1.103 -1.1405 -0.9162 -0.3376
 4907SOL    MW419396   0.894   1.182   1.023  0.1099 -0.1547 -0.5726
 4908SOL     OW19397   1.142   1.245   5.191  0.4832 -0.3232  0.0529
 4908SOL    HW219398   1.213   1.306   5.170  1.5415 -2.2259 -2.3784
 4908SOL    HW319399   1.185   1.160   5.200 -1.4260 -1.5634 -1.6254
 4908SOL    MW419400   1.157   1.242   5.189  0.0480 -0.4885  0.0210
 4909SOL     OW19401   1.411   4.106   4.230  0.4462  0.2544  0.2069
 4909SOL    HW219402   1.328   4.100   4.184  1.3013  1.8545 -1.6885
 4909SOL    HW319403   1.387   4.131   4.319 -1.0803  2.0026 -0.6306
 4909SOL    MW419404   1.397   4.108   4.236 -0.3510  0.2128 -0.0287
 4910SOL     OW19405   4.297   0.287   1.012 -0.1868  0.4102 -0.2760
 4910SOL    HW219406   4.332   0.327   1.092  2.5749 -0.7716 -0.7792
 4910SOL    HW319407   4.241   0.355   0.974  0.2641  1.8456  1.4748
 4910SOL    MW419408   4.294   0.302   1.018 -0.3777 -0.2836 -0.2132
 4911SOL     OW19409   2.561   1.881   4.508 -0.1811 -0.0678  0.2405
 4911SOL    HW219410   2.481   1.921   4.474  0.3186  0.6988 -0.0512
 4911SOL    HW319411   2.558   1.791   4.477 -0.3472  0.2791 -0.7750
 4911SOL    MW419412   2.550   1.875   4.500  0.7327  0.3117 -0.4127
 4912SOL     OW19413   5.955   4.674   1.810 -0.3213  0.5701 -0.0601
 4912SOL    HW219414   6.039   4.672   1.857 -0.6120 -0.0597  0.4598
 4912SOL    HW319415   5.898   4.615   1.861 -0.9602  0.6862 -0.6253
 4912SOL    MW419416   5.959   4.666   1.823 -0.4010 -0.1150  0.1809
 4913SOL     OW19417   3.166   6.157   2.556  0.0034 -0.0848  0.5660
 4913SOL    HW219418   3.141   6.234   2.608  0.9952  0.2733  0.5321
 4913SOL    HW319419   3.094   6.146   2.494  0.8110  2.1930 -0.9242
 4913SOL    MW419420   3.153   6.166   2.555 -1.0987 -0.2280  0.0215
 4914SOL     OW19421   5.537   4.763   0.998  0.0795 -0.6870  0.5772
 4914SOL    HW219422   5.506   4.800   1.081  0.0857 -0.0327  0.2997
 4914SOL    HW319423   5.518   4.670   1.004 -1.6731 -0.3812  0.5603
 4914SOL    MW419424   5.530   4.756   1.009  0.4479  0.1205 -0.0799
 4915SOL     OW19425   4.641   0.979   5.904  0.0991 -0.2837  0.1525
 4915SOL    HW219426   4.550   1.009   5.904 -1.0310 -2.9492  3.6061
 4915SOL    HW319427   4.682   1.027   5.976  0.9253 -0.3249 -0.2812
 4915SOL    MW419428   4.634   0.989   5.913 -0.3817 -0.2540 -0.0208
 4916SOL     OW19429   3.422   5.751   4.096  0.7886 -0.0350  0.6658
 4916SOL    HW219430   3.388   5.804   4.168  0.3003 -1.2916  1.3968
 4916SOL    HW319431   3.345   5.706   4.061  0.5982  2.1979 -2.1476
 4916SOL    MW419432   3.407   5.752   4.101  0.4407  0.5089  0.3396
 4917SOL     OW19433   0.652   4.082   6.024  0.0434  0.1326 -0.4316
 4917SOL    HW219434   0.713   4.151   6.048  0.1268 -0.3366  0.7583
 4917SOL    HW319435   0.641   4.091   5.929 -0.0616  1.8508 -0.2793
 4917SOL    MW419436   0.659   4.092   6.014 -0.6134 -0.5607 -0.7260
 4918SOL     OW19437   6.191   2.181   5.698  0.0271  0.4974 -0.5121
 4918SOL    HW219438   6.186   2.276   5.693  2.4925  0.6311 -1.5343
 4918SOL    HW319439   6.281   2.160   5.673 -0.6543 -2.1564 -1.0215
 4918SOL    MW419440   6.202   2.191   5.694 -0.2540 -0.5669  0.3228
 4919SOL     OW19441   5.849   2.966   4.855  0.1085  0.7447 -0.6509
 4919SOL    HW219442   5.761   2.936   4.879  1.2744 -1.1856  1.6404
 4919SOL    HW319443   5.871   3.032   4.920  1.4714 -1.0427  0.8080
 4919SOL    MW419444   5.840   2.971   4.867 -0.3201  0.3431 -0.0803
 4920SOL     OW19445   3.843   0.962   3.767  0.1612  0.2813  0.0371
 4920SOL    HW219446   3.792   0.881   3.765  0.9905 -0.3044  1.4576
 4920SOL    HW319447   3.783   1.028   3.732 -1.1218 -0.6240  0.4281
 4920SOL    MW419448   3.828   0.960   3.762 -0.0172 -0.5864  0.3081
 4921SOL     OW19449   3.636   4.982   6.406 -0.1721  0.4829 -0.2216
 4921SOL    HW219450   3.589   5.056   6.367 -0.6466  0.7524  0.8012
 4921SOL    HW319451   3.703   5.023   6.461  0.3772  0.1231 -0.6202
 4921SOL    MW419452   3.638   4.997   6.408 -0.5765 -0.3984  0.9323
 4922SOL     OW19453   4.204   3.467   0.459 -0.2067 -0.1534  0.2116
 4922SOL    HW219454   4.173   3.506   0.377  0.5106  3.1172  1.3481
 4922SOL    HW319455   4.275   3.409   0.432 -0.7498 -0.0824 -1.5471
 4922SOL    MW419456   4.209   3.464   0.444  0.3295  0.5454  0.4438
 4923SOL     OW19457   0.605   0.678   4.412 -1.1685  0.4190 -0.3169
 4923SOL    HW219458   0.570   0.608   4.357 -4.4488  2.7245 -1.4848
 4923SOL    HW319459   0.645   0.739   4.351  0.0853  0.4635  0.5058
 4923SOL    MW419460   0.605   0.677   4.397  0.2874  0.4154  0.7444
 4924SOL     OW19461   5.747   0.532   5.910  0.6769 -0.0442 -0.0567
 4924SOL    HW219462   5.801   0.558   5.835  1.5728  0.0475  0.5988
 4924SOL    HW319463   5.658   0.532   5.877  0.8561  1.8444 -0.6383
 4924SOL    MW419464   5.743   0.535   5.896  0.2030 -0.1735 -0.4595
 4925SOL     OW19465   3.507   1.051   5.642 -0.4006  0.5393 -0.5486
 4925SOL    HW219466   3.416   1.065   5.615 -0.3163 -1.0632 -1.7832
 4925SOL    HW319467   3.522   0.957   5.628  1.2242  0.6236  0.3715
 4925SOL    MW419468   3.497   1.040   5.637  0.3914  0.3831  0.1337
 4926SOL     OW19469   3.957   5.967   0.377  0.4023 -0.0737  0.7042
 4926SOL    HW219470   3.951   5.889   0.323 -1.0748  0.4131  0.1131
 4926SOL    HW319471   4.050   5.978   0.394  0.8839 -0.4126 -1.5196
 4926SOL    MW419472   3.968   5.958   0.372  0.0152  0.5203 -0.0799
 4927SOL     OW19473   2.967   0.567   4.706 -0.1138  0.2724 -0.4465
 4927SOL    HW219474   2.899   0.505   4.733  0.0632  0.5484  0.6981
 4927SOL    HW319475   3.036   0.512   4.669  0.6481 -0.4109  1.8038
 4927SOL    MW419476   2.967   0.552   4.705  0.0295 -0.2312  0.0705
 4928SOL     OW19477   1.593   3.515   6.096  0.3075  0.1390 -0.0123
 4928SOL    HW219478   1.556   3.479   6.177  1.8489 -2.4705 -0.3406
 4928SOL    HW319479   1.527   3.499   6.029  0.3611 -0.7449  0.1404
 4928SOL    MW419480   1.580   3.508   6.098 -0.1565 -0.2650 -0.0234
 4929SOL     OW19481   3.687   2.711   0.660  0.0866 -0.3667  0.1882
 4929SOL    HW219482   3.648   2.655   0.727 -0.2980 -1.7385 -1.1208
 4929SOL    HW319483   3.708   2.651   0.588  0.5913  1.0276 -0.8783
 4929SOL    MW419484   3.685   2.695   0.659  0.3038  0.3374  0.0993
 4930SOL     OW19485   5.749   3.060   3.413 -0.3050  0.0969  0.6949
 4930SOL    HW219486   5.658   3.085   3.396  0.1785  2.7965  1.5708
 4930SOL    HW319487   5.784   3.132   3.465  1.9320 -1.5951  1.6957
 4930SOL    MW419488   5.742   3.073   3.418  0.4038  0.3259  0.2884
 4931SOL     OW19489   6.367   1.489   5.987  0.2304  0.0240 -0.1311
 4931SOL    HW219490   6.398   1.558   5.929  0.3636  0.1668  0.1121
 4931SOL    HW319491   6.432   1.483   6.056  0.2735 -0.4141 -0.2019
 4931SOL    MW419492   6.379   1.497   5.989 -0.0422 -0.7031 -0.5247
 4932SOL     OW19493   2.538   0.859   2.645  0.1509 -0.0260  0.0590
 4932SOL    HW219494   2.604   0.873   2.713  0.7958 -3.2921  0.2631
 4932SOL    HW319495   2.589   0.852   2.564 -0.4489  1.9427 -0.5564
 4932SOL    MW419496   2.554   0.860   2.643  0.7609 -0.3779  0.0246
 4933SOL     OW19497   5.235   4.462   2.207 -0.2244  0.1669 -0.3218
 4933SOL    HW219498   5.192   4.541   2.239 -0.6118  0.2719 -1.0902
 4933SOL    HW319499   5.166   4.412   2.163 -0.0273 -0.6981  0.3243
 4933SOL    MW419500   5.220   4.466   2.205 -0.2984 -0.2553  0.1158
 4934SOL     OW19501   1.982   3.592   2.549  0.2819  0.0845 -0.3693
 4934SOL    HW219502   1.926   3.635   2.615 -0.2478 -0.4546 -0.4655
 4934SOL    HW319503   2.057   3.561   2.599  0.6853  1.1168 -0.2937
 4934SOL    MW419504   1.984   3.594   2.564 -0.2009 -0.2801  0.1313
 4935SOL     OW19505   2.189   6.034   0.805 -0.1233  0.4212 -0.7049
 4935SOL    HW219506   2.098   6.005   0.812  1.1166 -3.8441  1.7527
 4935SOL    HW319507   2.198   6.103   0.870 -0.9255 -1.6578  1.7558
 4935SOL    MW419508   2.179   6.039   0.814 -0.0507  0.3763  0.0381
 4936SOL     OW19509   3.903   3.949   2.436 -0.0527  0.0003 -0.4076
 4936SOL    HW219510   3.951   4.032   2.434 -1.2249  0.7029 -3.4826
 4936SOL    HW319511   3.846   3.951   2.360 -2.7834 -2.1478  1.3638
 4936SOL    MW419512   3.902   3.960   2.426  0.1230  0.3679  0.2101
 4937SOL     OW19513   0.251   3.633   0.157 -0.2930 -0.4590 -0.0451
 4937SOL    HW219514   0.335   3.613   0.115 -0.4248 -0.0747 -0.4995
 4937SOL    HW319515   0.187   3.628   0.086 -0.3700  1.3078 -0.1353
 4937SOL    MW419516   0.254   3.630   0.142 -0.1195 -0.0569  0.0196
 4938SOL     OW19517   0.244   5.939   5.094 -0.0034 -0.2754 -0.1997
 4938SOL    HW219518   0.328   5.985   5.099 -0.5979  0.6630  2.3351
 4938SOL    HW319519   0.266   5.854   5.055  1.8408  0.5179 -0.9906
 4938SOL    MW419520   0.258   5.934   5.089 -0.1919 -0.1310  0.1064
 4939SOL     OW19521   3.865   2.655   6.365  0.0613 -0.1114  0.3101
 4939SOL    HW219522   3.786   2.618   6.404  1.1883 -2.8967  0.1835
 4939SOL    HW319523   3.866   2.620   6.276  0.7782  0.9778 -0.1260
 4939SOL    MW419524   3.854   2.645   6.359  0.3411 -0.3851 -0.4239
 4940SOL     OW19525   4.097   2.896   6.300 -0.5144 -0.1153 -0.6336
 4940SOL    HW219526   4.158   2.889   6.373 -0.1315  0.4418 -0.9008
 4940SOL    HW319527   4.098   2.809   6.260  0.4491  0.0129 -0.9094
 4940SOL    MW419528   4.105   2.883   6.304 -0.2772 -0.0339  0.5929
 4941SOL     OW19529   0.840   0.528   5.033 -0.1873 -0.1130 -0.0180
 4941SOL    HW219530   0.830   0.575   5.115  1.0183  1.1545 -0.5643
 4941SOL    HW319531   0.835   0.596   4.965 -2.3455 -1.2464 -1.1345
 4941SOL    MW419532   0.838   0.543   5.035 -0.1454  0.0633  0.0146
 4942SOL     OW19533   5.469   3.718   2.817  0.0866  0.9657  0.3324
 4942SOL    HW219534   5.540   3.667   2.856 -0.3339  1.4334  1.7794
 4942SOL    HW319535   5.456   3.679   2.731  0.9837 -0.2005  0.6941
 4942SOL    MW419536   5.476   3.706   2.811 -0.1015 -0.2080 -0.5750
 4943SOL     OW19537   4.206   1.383   4.337 -0.0587  0.0465 -0.1830
 4943SOL    HW219538   4.113   1.388   4.360 -0.0119  0.7365 -0.1375
 4943SOL    HW319539   4.215   1.438   4.259  0.2370 -0.3388 -0.4236
 4943SOL    MW419540   4.195   1.391   4.330 -0.4742 -0.5485 -0.5044
 4944SOL     OW19541   1.331   3.050   2.325  0.3515  0.1183 -0.0495
 4944SOL    HW219542   1.246   3.036   2.365 -0.8924  0.3283 -2.4631
 4944SOL    HW319543   1.360   2.962   2.298  0.2250  0.2064 -0.4842
 4944SOL    MW419544   1.324   3.037   2.327 -0.1595  0.2873 -0.3581
 4945SOL     OW19545   3.797   4.187   4.668 -0.2731  0.4610  0.3366
 4945SOL    HW219546   3.783   4.093   4.678  1.2175  0.0781 -0.8957
 4945SOL    HW319547   3.854   4.211   4.741  0.8711  0.0129 -0.3799
 4945SOL    MW419548   3.802   4.178   4.679 -0.1616  0.3150 -0.3927
 4946SOL     OW19549   4.258   2.910   4.317 -0.2214 -0.0141 -0.2236
 4946SOL    HW219550   4.240   2.821   4.286 -1.0179 -0.1649  0.6266
 4946SOL    HW319551   4.181   2.960   4.292 -0.9109 -0.1470  1.4805
 4946SOL    MW419552   4.245   2.905   4.310 -0.2198 -0.4437 -0.1958
 4947SOL     OW19553   3.447   1.532   2.234 -0.1720  0.1048  0.2169
 4947SOL    HW219554   3.392   1.571   2.302  1.7416  2.6738  0.4633
 4947SOL    HW319555   3.476   1.449   2.271 -1.3572  0.1757  1.3768
 4947SOL    MW419556   3.444   1.526   2.248 -0.2505  0.2986  0.4275
 4948SOL     OW19557   2.863   3.821   4.927  0.0990  0.2052  0.1859
 4948SOL    HW219558   2.792   3.862   4.880  0.9499  1.4786 -0.0262
 4948SOL    HW319559   2.861   3.860   5.014 -0.3965 -0.8869  0.6947
 4948SOL    MW419560   2.854   3.831   4.932 -0.1093  0.6469  0.4208
 4949SOL     OW19561   6.262   2.311   3.135 -0.0361  0.1664 -0.5190
 4949SOL    HW219562   6.251   2.313   3.040  0.1931 -0.8293 -0.5805
 4949SOL    HW319563   6.348   2.272   3.149 -0.0671  0.3044  0.1010
 4949SOL    MW419564   6.272   2.306   3.124  0.0876  0.1861 -0.3929
 4950SOL     OW19565   3.614   1.289   2.877  0.3786 -0.0357  0.0074
 4950SOL    HW219566   3.675   1.360   2.898  0.9242 -0.5963  0.3814
 4950SOL    HW319567   3.584   1.307   2.788  1.6113 -0.0975 -0.4399
 4950SOL    MW419568   3.618   1.301   2.868 -0.0862 -0.3173 -0.1033
 4951SOL     OW19569   5.541   3.982   5.575  0.0515  0.4921 -0.1456
 4951SOL    HW219570   5.537   3.900   5.625  0.3759  0.7604  0.3286
 4951SOL    HW319571   5.449   4.003   5.557 -0.0389  0.0848 -0.1746
 4951SOL    MW419572   5.528   3.974   5.579 -0.2769  0.1903  0.1077
 4952SOL     OW19573   5.404   2.721   2.048 -0.1360 -0.2635  0.0307
 4952SOL    HW219574   5.355   2.753   1.972  1.3824  0.1224 -0.8130
 4952SOL    HW319575   5.442   2.638   2.019  0.7737  0.0737  0.2429
 4952SOL    MW419576   5.402   2.714   2.034  0.5866 -0.1614 -0.5309
 4953SOL     OW19577   2.070   3.666   4.778 -0.0144 -0.1135 -0.4141
 4953SOL    HW219578   2.116   3.739   4.821  0.5799 -1.0617  0.6197
 4953SOL    HW319579   2.129   3.638   4.708 -0.0397  0.0934 -0.5202
 4953SOL    MW419580   2.084   3.672   4.774  0.0606  0.2194  0.7950
 4954SOL     OW19581   1.548   2.433   5.259 -0.3365  0.3665  0.7303
 4954SOL    HW219582   1.600   2.481   5.194  0.7132  2.4745  2.9924
 4954SOL    HW319583   1.478   2.494   5.284 -2.0564 -1.2286  0.0937
 4954SOL    MW419584   1.545   2.447   5.253 -0.3266  0.5244 -0.0870
 4955SOL     OW19585   0.621   1.573   0.616 -0.6594  0.3948  0.2168
 4955SOL    HW219586   0.650   1.509   0.551 -0.6598 -0.5514  1.1189
 4955SOL    HW319587   0.634   1.658   0.574  3.6896  0.1131  0.5882
 4955SOL    MW419588   0.626   1.576   0.602  0.5190 -0.1530 -0.4870
 4956SOL     OW19589   3.532   3.546   1.163 -0.0015  0.1486 -0.0672
 4956SOL    HW219590   3.577   3.544   1.078 -1.5351  0.8865 -0.9382
 4956SOL    HW319591   3.593   3.591   1.221  1.3836 -1.0135 -0.5584
 4956SOL    MW419592   3.546   3.552   1.159 -0.4853 -0.1060  0.0667
 4957SOL     OW19593   5.023   2.354   2.202 -0.8918  0.1669 -0.0431
 4957SOL    HW219594   5.028   2.341   2.108 -0.9791 -0.7851  0.0672
 4957SOL    HW319595   4.931   2.369   2.220 -0.9428 -0.1179 -0.0611
 4957SOL    MW419596   5.012   2.354   2.192  0.2075  0.0100  0.5072
 4958SOL     OW19597   2.613   4.414   2.118  0.0608  0.0010  0.1135
 4958SOL    HW219598   2.624   4.331   2.164 -0.3713 -0.6211 -0.8692
 4958SOL    HW319599   2.633   4.393   2.026  1.3963  1.3116  0.0578
 4958SOL    MW419600   2.617   4.400   2.112 -0.2294 -0.4511 -0.4753
 4959SOL     OW19601   3.747   4.803   6.115 -0.3287  0.6605 -0.1429
 4959SOL    HW219602   3.653   4.806   6.131 -0.3600 -0.5243 -0.0324
 4959SOL    HW319603   3.765   4.712   6.091  0.9086  0.6632  0.6787
 4959SOL    MW419604   3.737   4.792   6.114  0.0033 -0.0995 -0.0917
 4960SOL     OW19605   4.068   4.209   1.214  0.7162 -0.1822 -0.1783
 4960SOL    HW219606   4.070   4.261   1.294 -0.8617  0.3711 -0.4745
 4960SOL    HW319607   4.073   4.118   1.245 -2.2345 -0.1150  0.7848
 4960SOL    MW419608   4.069   4.204   1.228  0.6348 -0.2443 -0.3936
 4961SOL     OW19609   0.144   0.774   2.186  0.2991 -0.1292 -0.4039
 4961SOL    HW219610   0.163   0.701   2.243  0.2796  0.6476  0.6253
 4961SOL    HW319611   0.096   0.836   2.241 -0.8690  0.0784 -1.6138
 4961SOL    MW419612   0.140   0.773   2.201  0.0759 -0.0033 -0.2583
 4962SOL     OW19613   4.196   1.089   6.260  0.1618 -0.1389 -0.4987
 4962SOL    HW219614   4.244   1.166   6.228  0.1793 -0.2406 -0.7249
 4962SOL    HW319615   4.108   1.099   6.223 -0.4786  0.8601  1.2061
 4962SOL    MW419616   4.191   1.101   6.251 -0.2451  0.2066  0.1578
 4963SOL     OW19617   5.422   4.332   0.522 -0.4358 -0.0606  0.4875
 4963SOL    HW219618   5.442   4.250   0.478  0.3945  0.7325 -0.6846
 4963SOL    HW319619   5.351   4.371   0.471  0.1417  0.5943  0.1518
 4963SOL    MW419620   5.415   4.326   0.510 -0.1161 -0.5692 -0.3829
 4964SOL     OW19621   2.207   5.516   1.196  0.2231 -0.1743  0.0372
 4964SOL    HW219622   2.271   5.533   1.127  0.3270 -0.3468  0.0877
 4964SOL    HW319623   2.189   5.602   1.234  0.6051 -0.1517  0.1762
 4964SOL    MW419624   2.213   5.529   1.192 -0.1850  0.6093  0.6583
 4965SOL     OW19625   1.967   3.980   5.971  0.3538  1.1508  0.0682
 4965SOL    HW219626   2.041   4.020   6.016  0.1213  1.2991  0.3220
 4965SOL    HW319627   1.932   4.049   5.916  1.1874  0.7155 -1.0389
 4965SOL    MW419628   1.972   3.994   5.970  0.0443 -0.1763  0.5049
 4966SOL     OW19629   1.601   5.482   5.847 -0.5011 -0.0243  0.2371
 4966SOL    HW219630   1.653   5.561   5.858  0.2774 -0.4729 -0.1242
 4966SOL    HW319631   1.535   5.505   5.781 -1.1239  0.7131  1.1009
 4966SOL    MW419632   1.599   5.495   5.839  0.1994  0.0814 -0.2928
 4967SOL     OW19633   1.448   2.924   2.733 -0.3176 -0.1154 -0.4542
 4967SOL    HW219634   1.530   2.894   2.772 -0.7985 -0.2161  0.4948
 4967SOL    HW319635   1.412   2.986   2.796 -1.5323 -0.9371 -0.3095
 4967SOL    MW419636   1.454   2.928   2.746  0.7673 -0.3627  0.1638
 4968SOL     OW19637   0.215   1.877   4.505  0.1598 -0.1009  0.3136
 4968SOL    HW219638   0.189   1.953   4.557 -1.4777 -1.7023  1.9716
 4968SOL    HW319639   0.299   1.850   4.541  0.6260  0.7238 -0.1155
 4968SOL    MW419640   0.223   1.883   4.517 -0.5633  0.0145 -0.6068
 4969SOL     OW19641   1.567   4.042   0.496 -0.3502 -0.0938  0.2242
 4969SOL    HW219642   1.535   4.002   0.577 -0.7854 -1.4296 -0.5850
 4969SOL    HW319643   1.657   4.010   0.488 -0.4987 -0.4376 -0.1095
 4969SOL    MW419644   1.575   4.032   0.506  0.3010 -0.5475  0.5171
 4970SOL     OW19645   6.247   5.561   4.457 -0.1147 -0.3383  0.1444
 4970SOL    HW219646   6.183   5.618   4.501  2.3040  2.2299  0.6694
 4970SOL    HW319647   6.315   5.547   4.523  0.1990 -2.5349 -0.5644
 4970SOL    MW419648   6.247   5.567   4.472 -0.1394 -0.0841 -0.1350
 4971SOL     OW19649   1.436   5.837   0.399 -0.9894 -0.0201  0.2909
 4971SOL    HW219650   1.375   5.798   0.337 -0.9914  0.9318 -0.3435
 4971SOL    HW319651   1.517   5.848   0.348 -0.0250 -1.8893  1.3034
 4971SOL    MW419652   1.439   5.833   0.384  0.8003 -0.2259 -0.2944
 4972SOL     OW19653   0.914   3.814   4.641  0.2508  0.0209  0.4167
 4972SOL    HW219654   0.942   3.855   4.560 -1.1880 -0.0368 -0.1435
 4972SOL    HW319655   0.830   3.856   4.662 -0.2310 -1.1505  0.9513
 4972SOL    MW419656   0.907   3.825   4.633 -0.1605  0.5949  0.3141
 4973SOL     OW19657   0.405   3.390   0.026  0.5780  0.6715 -0.3433
 4973SOL    HW219658   0.430   3.298   0.028  1.5570  0.9187 -0.5357
 4973SOL    HW319659   0.329   3.394  -0.031  0.3168 -0.0610 -0.0567
 4973SOL    MW419660   0.398   3.379   0.019  0.4173 -0.5370 -0.7328
 4974SOL     OW19661   3.178   1.872   0.323  0.1590 -0.2259 -0.0685
 4974SOL    HW219662   3.194   1.933   0.394  1.0432  0.4410 -0.8240
 4974SOL    HW319663   3.245   1.891   0.258 -0.9470 -0.4352 -1.3350
 4974SOL    MW419664   3.189   1.883   0.324  1.0940 -0.1221 -0.2477
 4975SOL     OW19665   5.560   5.353   1.113 -0.0495 -0.3689  0.3190
 4975SOL    HW219666   5.605   5.269   1.101  2.0056  0.3979  2.0237
 4975SOL    HW319667   5.614   5.416   1.066 -0.9790  0.1822 -0.0292
 4975SOL    MW419668   5.573   5.350   1.105 -0.1746  0.3484  0.1286
 4976SOL     OW19669   0.231   6.161   0.992 -0.3272 -0.2152 -0.2865
 4976SOL    HW219670   0.228   6.139   0.898  0.2114 -0.6362 -0.2084
 4976SOL    HW319671   0.203   6.252   0.996 -1.4007 -0.5057 -0.7530
 4976SOL    MW419672   0.227   6.170   0.980  0.0793 -0.5642  0.2302
 4977SOL     OW19673   6.184   1.656   4.734  0.2650 -0.6008  0.0281
 4977SOL    HW219674   6.224   1.652   4.820  0.6390  2.0230  0.0685
 4977SOL    HW319675   6.258   1.648   4.673  0.0787 -1.8240 -0.0456
 4977SOL    MW419676   6.199   1.655   4.737  0.1067 -0.3970  0.1644
 4978SOL     OW19677   0.158   3.521   4.830 -0.5508 -0.6484 -0.1952
 4978SOL    HW219678   0.214   3.556   4.761  0.6121 -1.2181  0.4302
 4978SOL    HW319679   0.146   3.594   4.891  0.6802 -0.8858  0.3709
 4978SOL    MW419680   0.164   3.535   4.829 -0.0132  1.0668 -0.2254
 4979SOL     OW19681   3.445   4.880   6.110  0.3976 -0.5099  0.8488
 4979SOL    HW219682   3.438   4.960   6.059  1.1536 -0.3058  1.0655
 4979SOL    HW319683   3.389   4.817   6.064  0.5340 -0.1312  0.1587
 4979SOL    MW419684   3.436   4.882   6.097  0.5396 -0.1344  0.0749
 4980SOL     OW19685   3.332   1.209   2.939 -0.3135 -0.6045  0.5220
 4980SOL    HW219686   3.425   1.230   2.934  0.0153 -0.1134  4.9744
 4980SOL    HW319687   3.330   1.114   2.950 -0.2380 -0.5302  1.2316
 4980SOL    MW419688   3.344   1.199   2.940  0.2588  0.0287  0.3917
 4981SOL     OW19689   0.511   0.596   4.909 -0.1685 -0.6028 -0.2141
 4981SOL    HW219690   0.488   0.526   4.971 -1.8472 -0.3475 -0.5035
 4981SOL    HW319691   0.438   0.657   4.914  0.5725  0.3794 -1.0778
 4981SOL    MW419692   0.498   0.595   4.918  0.0399  0.0225 -0.3817
 4982SOL     OW19693   5.155   4.541   4.155  0.3398  0.1452 -0.0753
 4982SOL    HW219694   5.200   4.623   4.176 -1.2018  0.8867  0.5182
 4982SOL    HW319695   5.225   4.475   4.153  1.8198  1.6677 -1.9335
 4982SOL    MW419696   5.170   4.543   4.158 -0.5655  0.1791 -0.3102
 4983SOL     OW19697   3.337   2.415   4.561 -0.5330  0.2820  0.9291
 4983SOL    HW219698   3.295   2.470   4.495 -0.3773  0.2964  0.8418
 4983SOL    HW319699   3.275   2.343   4.576 -0.4903  0.1828  0.6386
 4983SOL    MW419700   3.323   2.413   4.554  0.0416  0.3150  0.0194
 4984SOL     OW19701   6.167   5.606   5.381  0.5995  0.4374  0.0458
 4984SOL    HW219702   6.232   5.538   5.362 -1.1470 -1.5197  0.7036
 4984SOL    HW319703   6.144   5.641   5.295  1.6496  0.3321 -0.2942
 4984SOL    MW419704   6.173   5.602   5.367 -0.1971 -0.0112  0.0941
 4985SOL     OW19705   5.722   0.457   1.786  0.8698 -0.1541  0.1149
 4985SOL    HW219706   5.710   0.552   1.783 -0.9469 -0.3551 -0.3356
 4985SOL    HW319707   5.733   0.437   1.879  1.4212  0.5127  0.1997
 4985SOL    MW419708   5.722   0.467   1.798 -0.4130  0.3141 -0.7551
 4986SOL     OW19709   1.360   5.705   0.712 -0.0617  0.6791 -0.1667
 4986SOL    HW219710   1.367   5.800   0.716 -3.1774  0.9405  1.4771
 4986SOL    HW319711   1.397   5.674   0.795 -0.7393  0.6191  0.1185
 4986SOL    MW419712   1.366   5.713   0.723  0.1326 -0.3764 -0.6687
 4987SOL     OW19713   3.343   2.816   2.318 -0.3363  0.4778 -0.1712
 4987SOL    HW219714   3.406   2.758   2.276 -0.5585  0.9406 -1.1660
 4987SOL    HW319715   3.282   2.757   2.362  0.1861  0.0005 -0.0712
 4987SOL    MW419716   3.343   2.801   2.319 -0.0816  0.3572  0.3135
 4988SOL     OW19717   5.184   1.116   0.974  0.3128 -0.1028  0.3478
 4988SOL    HW219718   5.193   1.024   0.998  0.4605  0.4333  2.6359
 4988SOL    HW319719   5.219   1.163   1.049 -1.1358  1.8334 -0.1150
 4988SOL    MW419720   5.189   1.110   0.987 -0.5467 -0.0744 -0.1943
 4989SOL     OW19721   2.669   5.346   0.667  0.4745  0.3903  0.2710
 4989SOL    HW219722   2.694   5.378   0.580 -0.5201 -1.1818 -0.6560
 4989SOL    HW319723   2.752   5.336   0.713  1.1192  0.3292 -0.8444
 4989SOL    MW419724   2.683   5.349   0.661 -0.4111  0.0755  0.3201
 4990SOL     OW19725   1.619   2.876   1.822 -0.3335 -0.7905  0.5108
 4990SOL    HW219726   1.579   2.958   1.793 -1.3388 -1.2231  0.6360
 4990SOL    HW319727   1.654   2.836   1.743  0.6809  0.0169  0.5270
 4990SOL    MW419728   1.618   2.881   1.808  0.0971  0.6005 -0.2716
 4991SOL     OW19729   5.054   6.218   2.241  0.2921 -0.8412  0.1097
 4991SOL    HW219730   5.025   6.309   2.235  0.5121 -0.6664  1.4626
 4991SOL    HW319731   4.976   6.166   2.222  0.2282 -0.3872 -0.9372
 4991SOL    MW419732   5.040   6.223   2.238 -0.6459  0.2546  0.3425
 4992SOL     OW19733   3.543   4.480   5.202  0.1750 -0.1164 -0.0229
 4992SOL    HW219734   3.517   4.570   5.218  1.6345  0.9510 -2.9796
 4992SOL    HW319735   3.557   4.443   5.290 -0.4033  2.5032  1.2666
 4992SOL    MW419736   3.541   4.487   5.216 -1.1570  0.1973  0.3276
 4993SOL     OW19737   3.910   4.763   1.386  0.4859 -1.0074 -0.1186
 4993SOL    HW219738   3.901   4.857   1.401 -0.6776 -1.2812  1.0571
 4993SOL    HW319739   4.005   4.748   1.389  0.6559  0.0239  0.3320
 4993SOL    MW419740   3.922   4.774   1.389  0.0117  0.4426 -0.3948
 4994SOL     OW19741   5.876   0.182   3.215 -0.2912 -0.1403 -0.1901
 4994SOL    HW219742   5.784   0.207   3.220 -0.7182 -1.5605 -0.4731
 4994SOL    HW319743   5.876   0.097   3.170  1.1468 -0.2041 -0.1326
 4994SOL    MW419744   5.864   0.174   3.210 -0.3490  0.8972  0.6642
 4995SOL     OW19745   6.276   2.913   5.470 -0.5205  0.3514 -0.1202
 4995SOL    HW219746   6.329   2.976   5.518 -0.7056 -0.2618  0.9278
 4995SOL    HW319747   6.196   2.904   5.522 -1.5176  0.9998 -1.4929
 4995SOL    MW419748   6.273   2.920   5.483  0.1180 -0.0838  0.3069
 4996SOL     OW19749   3.416   2.980   0.459  0.5721 -0.3901  0.3720
 4996SOL    HW219750   3.343   3.039   0.473  1.3435  0.6512  0.0872
 4996SOL    HW319751   3.436   2.945   0.546 -0.4390 -0.9175  0.4013
 4996SOL    MW419752   3.409   2.983   0.473  0.4721 -0.1929  0.4457
 4997SOL     OW19753   2.065   5.084   0.131  0.2586 -0.1815 -0.3479
 4997SOL    HW219754   1.973   5.068   0.151  0.5359 -1.7105 -0.1621
 4997SOL    HW319755   2.065   5.114   0.040 -0.3724 -0.9104 -0.6052
 4997SOL    MW419756   2.053   5.086   0.122  0.0288  0.4087 -0.0792
 4998SOL     OW19757   2.926   3.600   1.567 -0.5274 -0.3489 -0.0464
 4998SOL    HW219758   2.909   3.515   1.607 -0.0300  0.0715  1.1026
 4998SOL    HW319759   3.008   3.588   1.519 -0.8414 -0.7119 -0.4945
 4998SOL    MW419760   2.935   3.588   1.566 -0.8048 -0.3581  0.3170
 4999SOL     OW19761   1.742   1.343   5.104 -0.1371  0.5923  0.7562
 4999SOL    HW219762   1.756   1.249   5.115  1.6890  0.7164  0.0377
 4999SOL    HW319763   1.748   1.380   5.192  1.7846  0.2770  0.8034
 4999SOL    MW419764   1.745   1.336   5.117  0.2467 -0.6454  0.0091
 5000SOL     OW19765   2.447   2.984   1.045  0.0447 -0.2219  0.2343
 5000SOL    HW219766   2.541   2.982   1.029  0.2482 -1.6800  1.4040
 5000SOL    HW319767   2.434   3.057   1.106  0.5392 -0.5271  0.7107
 5000SOL    MW419768   2.457   2.993   1.051 -0.3557  0.1715 -0.2379
 5001SOL     OW19769   3.163   2.331   0.428  0.3440  0.0166 -1.0409
 5001SOL    HW219770   3.189   2.414   0.469 -0.1608 -0.0386 -0.5907
 5001SOL    HW319771   3.158   2.351   0.334  1.0809  0.2643 -1.0294
 5001SOL    MW419772   3.166   2.345   0.421 -0.8105  0.1946  0.1199
 5002SOL     OW19773   5.535   0.553   0.061 -0.4653  0.3263 -0.9781
 5002SOL    HW219774   5.580   0.550  -0.023  1.2602  2.5867 -0.2232
 5002SOL    HW319775   5.602   0.582   0.123 -2.0037 -0.0750  0.9577
 5002SOL    MW419776   5.550   0.556   0.058  0.1777  0.0992 -0.2296
 5003SOL     OW19777   5.347   4.527   6.145 -0.0554  0.3288 -0.3944
 5003SOL    HW219778   5.293   4.527   6.065 -0.4210 -0.1110 -0.1514
 5003SOL    HW319779   5.353   4.434   6.170 -1.7996  0.6146  1.3269
 5003SOL    MW419780   5.341   4.515   6.137  0.2465 -0.1914  0.1883
 5004SOL     OW19781   3.832   2.119   2.596 -0.0601 -0.1228 -0.0242
 5004SOL    HW219782   3.756   2.163   2.633 -1.2300 -1.3078 -0.9279
 5004SOL    HW319783   3.798   2.037   2.561  1.7157 -0.8991 -0.0707
 5004SOL    MW419784   3.818   2.114   2.597 -0.3347 -0.3554  0.0898
 5005SOL     OW19785   4.236   4.218   1.643  0.0781  0.1143  0.2405
 5005SOL    HW219786   4.269   4.147   1.587  0.1701  0.1919  0.1955
 5005SOL    HW319787   4.273   4.200   1.729 -2.0242 -1.4105  0.9169
 5005SOL    MW419788   4.246   4.206   1.647 -0.4451  0.5483  0.4757
 5006SOL     OW19789   6.425   4.495   1.448  0.0558 -0.0339 -0.8179
 5006SOL    HW219790   6.357   4.440   1.410 -1.4038 -0.1421  1.7356
 5006SOL    HW319791   6.496   4.435   1.469 -0.7435 -0.6686  0.1783
 5006SOL    MW419792   6.425   4.480   1.446  0.4288  0.4311  0.6016
 5007SOL     OW19793   2.040   0.601   2.203  0.3953 -0.1957  0.3841
 5007SOL    HW219794   1.998   0.540   2.142  0.1752 -1.7464  2.0228
 5007SOL    HW319795   2.085   0.664   2.146 -1.0508 -0.6653 -1.3867
 5007SOL    MW419796   2.040   0.601   2.187  0.2291  0.0706 -0.4442
 5008SOL     OW19797   0.953   3.950   4.997  0.0969  0.2560  0.1729
 5008SOL    HW219798   1.006   3.883   5.042 -0.3625 -1.2488 -1.4204
 5008SOL    HW319799   0.884   3.971   5.059 -0.5641 -1.8205  0.2265
 5008SOL    MW419800   0.951   3.944   5.011 -0.8333 -0.5772 -0.2872
 5009SOL     OW19801   1.854   4.444   0.156 -0.3516  0.2243  0.0957
 5009SOL    HW219802   1.836   4.527   0.113  0.7964  0.5165  0.1400
 5009SOL    HW319803   1.891   4.469   0.241 -1.4239 -0.3442  0.7510
 5009SOL    MW419804   1.857   4.458   0.162 -0.6670  0.1752 -0.8118
 5010SOL     OW19805   2.015   4.670   0.359  0.1182  0.3329  0.1154
 5010SOL    HW219806   1.924   4.696   0.343  0.1290  0.9464  0.9938
 5010SOL    HW319807   2.061   4.691   0.278 -0.1974  1.6161  0.2572
 5010SOL    MW419808   2.009   4.676   0.346 -0.1395 -0.2770 -0.1593
 5011SOL     OW19809   3.185   5.589   5.407  0.8914 -0.0992  0.5196
 5011SOL    HW219810   3.128   5.654   5.365  0.9861  0.8600  1.8096
 5011SOL    HW319811   3.138   5.564   5.486  0.9084 -1.5660  0.0880
 5011SOL    MW419812   3.171   5.594   5.412  0.2758 -0.0420 -1.0274
 5012SOL     OW19813   1.165   0.953   5.188 -0.4121  0.3512  0.7331
 5012SOL    HW219814   1.117   0.955   5.105 -0.2713 -0.1419  0.6375
 5012SOL    HW319815   1.255   0.932   5.164  0.0816  2.2083  0.8191
 5012SOL    MW419816   1.171   0.951   5.174  0.0737  0.2629  0.0645
 5013SOL     OW19817   0.576   0.744   2.290 -0.1905 -0.3504 -0.0957
 5013SOL    HW219818   0.542   0.689   2.219 -0.5299 -1.3408  0.8156
 5013SOL    HW319819   0.621   0.683   2.348  0.9945  0.6002  0.0170
 5013SOL    MW419820   0.577   0.728   2.288 -0.5301  0.7227 -0.5082
 5014SOL     OW19821   1.808   2.848   1.580  0.1226 -0.9674  0.0355
 5014SOL    HW219822   1.894   2.888   1.596  0.1771 -1.5501  1.4041
 5014SOL    HW319823   1.760   2.913   1.530  1.4933 -0.7984 -1.1137
 5014SOL    MW419824   1.813   2.862   1.576 -0.1814 -0.1035 -0.0448
 5015SOL     OW19825   5.587   2.780   4.618 -0.2847  0.3759  0.0458
 5015SOL    HW219826   5.551   2.705   4.665  1.2522 -0.3109  0.2066
 5015SOL    HW319827   5.548   2.775   4.531 -0.6121 -0.3036  0.2238
 5015SOL    MW419828   5.577   2.769   4.613 -0.1887  0.5246  0.5159
 5016SOL     OW19829   2.654   1.405   3.218  0.0111 -0.4861  0.0736
 5016SOL    HW219830   2.564   1.410   3.252 -0.9112 -2.2772 -1.8624
 5016SOL    HW319831   2.685   1.319   3.244  0.8742 -0.2094 -0.0039
 5016SOL    MW419832   2.646   1.395   3.226 -0.3895 -0.0920 -0.1219
 5017SOL     OW19833   2.818   1.787   5.952 -0.4585  0.0685 -0.1797
 5017SOL    HW219834   2.868   1.837   5.887 -0.1464 -2.0331 -1.6652
 5017SOL    HW319835   2.775   1.854   6.006  2.1048  1.9318 -0.2825
 5017SOL    MW419836   2.819   1.803   5.950 -0.1954 -0.1216  0.4087
 5018SOL     OW19837   3.038   3.024   2.295 -0.2315  0.0430  0.6343
 5018SOL    HW219838   2.970   2.981   2.347 -0.5008  1.1958  1.2932
 5018SOL    HW319839   3.076   2.955   2.241 -0.8823 -0.9224  1.3860
 5018SOL    MW419840   3.034   3.010   2.295 -0.1095  0.0116 -0.1201
 5019SOL     OW19841   4.232   4.525   5.104 -0.3142  0.0542 -0.1506
 5019SOL    HW219842   4.162   4.590   5.096 -1.1651 -0.8719 -0.4644
 5019SOL    HW319843   4.234   4.503   5.197 -0.0110  0.5381 -0.0402
 5019SOL    MW419844   4.223   4.531   5.115 -0.0122  0.0767  0.1880
 5020SOL     OW19845   4.227   1.245   2.236  0.3394  0.4278  0.2911
 5020SOL    HW219846   4.313   1.275   2.208  1.2491  0.1767  2.5717
 5020SOL    HW319847   4.186   1.210   2.157  2.3409  0.4802 -0.8257
 5020SOL    MW419848   4.233   1.244   2.222  0.0331 -0.1998  0.0623
 5021SOL     OW19849   3.175   3.976   2.227 -0.3611 -1.0837 -0.0260
 5021SOL    HW219850   3.187   3.978   2.322 -0.3845  0.1169 -0.0405
 5021SOL    HW319851   3.144   3.887   2.210 -1.5746 -0.9493  1.2463
 5021SOL    MW419852   3.172   3.964   2.238  0.2527  0.0274 -0.2224
 5022SOL     OW19853   5.071   3.365   5.700 -0.1138 -0.0424  0.1080
 5022SOL    HW219854   5.124   3.339   5.625 -0.5351 -0.4251 -0.0640
 5022SOL    HW319855   5.135   3.391   5.766  0.2424  0.9321 -0.6024
 5022SOL    MW419856   5.087   3.365   5.699 -0.0648  0.0671 -0.2715
 5023SOL     OW19857   6.210   1.840   2.256  0.0663  0.9030 -0.6649
 5023SOL    HW219858   6.226   1.840   2.350 -0.7716 -2.2823 -0.3997
 5023SOL    HW319859   6.278   1.784   2.220 -0.9059  0.3018 -1.6333
 5023SOL    MW419860   6.221   1.833   2.263  0.6470 -0.0957 -0.8297
 5024SOL     OW19861   3.800   4.497   6.109 -0.1329 -0.3653  0.1313
 5024SOL    HW219862   3.798   4.406   6.079  0.1549 -0.4093  0.2466
 5024SOL    HW319863   3.769   4.493   6.199 -0.1682 -0.3428  0.1202
 5024SOL    MW419864   3.795   4.484   6.117  0.4857  1.0210 -0.1591
 5025SOL     OW19865   5.113   6.309   4.027  0.4930 -0.2528  0.1810
 5025SOL    HW219866   5.180   6.370   4.057  0.8940 -0.6504  0.1016
 5025SOL    HW319867   5.097   6.333   3.936 -1.6783  1.8235  0.9934
 5025SOL    MW419868   5.119   6.320   4.019 -0.6315  0.0626 -0.2879
 5026SOL     OW19869   5.999   3.618   5.124 -0.0121 -0.1047  0.1296
 5026SOL    HW219870   6.016   3.664   5.042 -0.2077 -0.0174  0.1371
 5026SOL    HW319871   5.907   3.636   5.143 -0.6599 -2.0320 -0.8673
 5026SOL    MW419872   5.989   3.626   5.115 -0.0996  0.2344 -0.9350
 5027SOL     OW19873   1.846   2.369   1.913  0.3661  0.6912  0.1905
 5027SOL    HW219874   1.909   2.420   1.863 -0.5406  1.3968 -0.2697
 5027SOL    HW319875   1.836   2.417   1.995  0.1903  0.7502  0.1340
 5027SOL    MW419876   1.853   2.382   1.917 -0.3018  0.1911 -0.2274
 5028SOL     OW19877   3.475   4.851   5.069  0.1879  0.0782 -0.3546
 5028SOL    HW219878   3.516   4.840   4.983  1.8056 -2.0015  0.5845
 5028SOL    HW319879   3.425   4.932   5.062 -0.5347 -0.5275 -3.5463
 5028SOL    MW419880   3.474   4.860   5.057 -0.4886 -0.8366 -0.2921
 5029SOL     OW19881   1.770   2.432   1.618  0.3994 -0.1546  0.2942
 5029SOL    HW219882   1.808   2.346   1.599  0.4356  0.2486 -1.6338
 5029SOL    HW319883   1.845   2.489   1.634  0.6147  0.2534 -1.8395
 5029SOL    MW419884   1.785   2.428   1.617 -0.2491 -0.4595 -0.1024
 5030SOL     OW19885   5.821   4.026   1.589 -0.3862 -0.1959  0.0029
 5030SOL    HW219886   5.762   4.100   1.603  0.3841  0.5545 -0.6129
 5030SOL    HW319887   5.858   4.009   1.676  0.3893  0.9891 -0.0659
 5030SOL    MW419888   5.818   4.034   1.603 -0.4702  0.2031  0.2314
 5031SOL     OW19889   3.290   1.196   0.631  0.7606 -0.2413 -0.3237
 5031SOL    HW219890   3.257   1.107   0.638  0.2723 -0.1056 -0.8750
 5031SOL    HW319891   3.349   1.206   0.706  0.4358 -0.8601  0.0142
 5031SOL    MW419892   3.294   1.186   0.642 -0.4162  0.2647 -0.3900
 5032SOL     OW19893   5.405   4.569   0.654 -0.1184 -0.6846  0.1887
 5032SOL    HW219894   5.449   4.641   0.610 -3.0330  0.1536 -1.6496
 5032SOL    HW319895   5.436   4.491   0.609  0.5716 -0.2676 -0.0672
 5032SOL    MW419896   5.415   4.568   0.642 -0.2092  0.9928 -0.0857
 5033SOL     OW19897   0.270   1.251   1.456  0.4060  0.1234 -0.0413
 5033SOL    HW219898   0.285   1.234   1.549 -0.0213 -2.3421 -0.3576
 5033SOL    HW319899   0.191   1.201   1.435  0.5340  0.5876 -1.7410
 5033SOL    MW419900   0.262   1.242   1.466 -0.1259 -0.1094  0.1671
 5034SOL     OW19901   1.425   4.922   5.149  0.1314 -0.3699  0.3038
 5034SOL    HW219902   1.454   4.832   5.129  0.8733 -0.3781  1.3483
 5034SOL    HW319903   1.331   4.921   5.130  0.1415 -1.3404  0.2206
 5034SOL    MW419904   1.417   4.910   5.144  0.0320  0.0432  0.3401
 5035SOL     OW19905   2.937   5.832   6.028  0.2422  0.4859  0.1970
 5035SOL    HW219906   2.985   5.777   6.091  1.1143 -0.5174 -1.2776
 5035SOL    HW319907   2.999   5.902   6.006  0.4655  0.0557 -0.5618
 5035SOL    MW419908   2.952   5.834   6.033  0.0648  0.0146 -0.4495
 5036SOL     OW19909   1.672   5.527   4.392  0.0592 -0.5481  0.3731
 5036SOL    HW219910   1.577   5.535   4.387 -0.0441 -1.5194  0.6256
 5036SOL    HW319911   1.694   5.457   4.331  0.7878  0.6500 -0.8158
 5036SOL    MW419912   1.662   5.519   4.384 -1.1530 -0.1186  0.6982
 5037SOL     OW19913   5.269   6.103   4.185  0.0619  0.4443  0.1449
 5037SOL    HW219914   5.203   6.050   4.230  0.9152  1.4868  2.7681
 5037SOL    HW319915   5.225   6.186   4.166  0.4559  0.9824  1.5104
 5037SOL    MW419916   5.254   6.107   4.188  0.2445 -0.0495  0.2290
 5038SOL     OW19917   3.610   1.101   1.935  0.3065 -0.2745 -0.0259
 5038SOL    HW219918   3.572   1.020   1.901 -0.4997  0.5022 -1.0530
 5038SOL    HW319919   3.535   1.159   1.948  0.8330  0.1931  1.0349
 5038SOL    MW419920   3.595   1.098   1.932 -0.3630  0.5981 -0.7029
 5039SOL     OW19921   2.796   3.936   3.824 -0.4040  0.3008  0.2898
 5039SOL    HW219922   2.763   3.911   3.911 -0.5208 -0.1629  0.1110
 5039SOL    HW319923   2.765   3.867   3.766  1.1350 -0.3195  0.1697
 5039SOL    MW419924   2.787   3.924   3.828 -0.4832 -0.3778  0.2477
 5040SOL     OW19925   1.453   2.283   3.062 -0.4358 -0.0311 -0.0411
 5040SOL    HW219926   1.383   2.295   2.999 -0.6827 -0.2833  0.1825
 5040SOL    HW319927   1.409   2.253   3.142  0.0068 -1.0075 -0.1484
 5040SOL    MW419928   1.438   2.280   3.064  0.2338 -0.2379  0.3198
 5041SOL     OW19929   5.431   6.318   4.813  0.2859  0.1392 -0.4147
 5041SOL    HW219930   5.467   6.405   4.827 -0.0679  0.2809 -0.3585
 5041SOL    HW319931   5.372   6.304   4.887  0.6853 -0.3364 -0.1823
 5041SOL    MW419932   5.428   6.328   4.825  0.2453  0.2347  0.3269
 5042SOL     OW19933   5.030   1.071   2.147 -0.1800 -0.2513 -0.5437
 5042SOL    HW219934   4.986   1.016   2.082  1.6616  0.1751 -2.2472
 5042SOL    HW319935   5.123   1.062   2.127  0.4158  0.3393  1.7235
 5042SOL    MW419936   5.037   1.063   2.136  0.5655  0.2692 -0.0735
 5043SOL     OW19937   5.757   4.126   5.697 -0.1977 -0.3995  0.2999
 5043SOL    HW219938   5.690   4.101   5.633 -0.9679 -2.1949  1.7183
 5043SOL    HW319939   5.707   4.162   5.771  0.4814 -0.6137  0.8721
 5043SOL    MW419940   5.742   4.127   5.698  0.1873 -0.0503 -0.3687
 5044SOL     OW19941   4.740   4.715   2.072 -0.4730  0.0374  0.2727
 5044SOL    HW219942   4.712   4.791   2.021 -1.4610  0.6126  1.6193
 5044SOL    HW319943   4.688   4.643   2.039 -1.1868  0.4309  0.5255
 5044SOL    MW419944   4.730   4.716   2.061  0.3989  0.0324 -0.5839
 5045SOL     OW19945   5.326   0.043   4.112 -0.5731  0.5999 -0.8010
 5045SOL    HW219946   5.337   0.138   4.120 -0.7268  0.6206 -0.8333
 5045SOL    HW319947   5.415   0.008   4.114 -0.5923  0.5484  1.6468
 5045SOL    MW419948   5.340   0.051   4.113  0.6172  0.0548 -0.0187
 5046SOL     OW19949   6.233   1.966   3.904 -0.0360 -0.5870 -0.0211
 5046SOL    HW219950   6.151   1.921   3.883  0.7586 -1.0528 -2.3567
 5046SOL    HW319951   6.296   1.896   3.920  0.6727 -0.3278 -1.5055
 5046SOL    MW419952   6.230   1.951   3.903 -0.9812 -0.3486 -0.7922
 5047SOL     OW19953   6.227   4.384   2.480 -0.3769  0.1041  0.6249
 5047SOL    HW219954   6.241   4.460   2.536 -0.5536  1.4793 -1.1078
 5047SOL    HW319955   6.135   4.389   2.454  0.0034  0.2692 -0.8043
 5047SOL    MW419956   6.217   4.395   2.484  0.2022 -0.0956 -0.0959
 5048SOL     OW19957   0.992   4.572   4.762 -0.2496  0.4458  0.0704
 5048SOL    HW219958   1.006   4.518   4.839 -0.1553  1.2786  0.6595
 5048SOL    HW319959   0.899   4.560   4.740 -0.0925 -0.3848 -0.1618
 5048SOL    MW419960   0.981   4.564   4.769  0.7378  0.4159 -0.2136
 5049SOL     OW19961   4.370   5.135   1.298  0.3889 -0.1238 -0.0751
 5049SOL    HW219962   4.347   5.201   1.232  1.3032 -0.2926 -0.5825
 5049SOL    HW319963   4.408   5.186   1.370  1.0783 -0.0768 -0.4598
 5049SOL    MW419964   4.372   5.151   1.299  0.4814  0.0832  0.9820
 5050SOL     OW19965   1.488   3.415   0.820 -0.1773 -0.6346  0.0282
 5050SOL    HW219966   1.475   3.439   0.912  1.5793 -1.1720  0.4512
 5050SOL    HW319967   1.482   3.498   0.772 -2.4180 -0.5101  0.4270
 5050SOL    MW419968   1.485   3.429   0.826  0.1068 -0.8253  0.3487
 5051SOL     OW19969   5.082   1.981   6.027 -0.1055 -0.8901  0.4565
 5051SOL    HW219970   5.085   2.068   5.989  1.9639 -0.5237  1.3338
 5051SOL    HW319971   5.169   1.944   6.011 -0.2864 -2.0194  1.8212
 5051SOL    MW419972   5.094   1.987   6.020  0.0913 -0.1313 -0.3161
 5052SOL     OW19973   2.087   0.436   1.364  0.2745  0.0348 -0.2811
 5052SOL    HW219974   2.022   0.494   1.403 -1.4227 -1.1042 -1.2691
 5052SOL    HW319975   2.168   0.454   1.412 -0.4265  2.4502  0.0977
 5052SOL    MW419976   2.089   0.446   1.375 -0.4599  0.8414 -0.4146
 5053SOL     OW19977   4.959   2.879   0.553 -0.0375 -0.1555  0.2409
 5053SOL    HW219978   4.998   2.966   0.559 -1.1217  0.6075 -2.3085
 5053SOL    HW319979   5.033   2.819   0.566  1.0108  1.1518  0.5939
 5053SOL    MW419980   4.974   2.883   0.556 -0.5907  0.3951 -0.2979
 5054SOL     OW19981   2.091   2.996   0.939  0.0794  0.0264 -0.9474
 5054SOL    HW219982   2.125   3.073   0.985  2.1362  0.7967 -3.4818
 5054SOL    HW319983   2.118   2.922   0.994  1.0090  0.9614 -0.0860
 5054SOL    MW419984   2.099   2.996   0.952 -0.5632 -0.0995  0.3146
 5055SOL     OW19985   1.571   3.246   1.115  0.3014 -0.1726  0.3990
 5055SOL    HW219986   1.500   3.310   1.119  1.0358  0.6456  0.7628
 5055SOL    HW319987   1.546   3.186   1.044  0.0170  1.0541 -0.5751
 5055SOL    MW419988   1.558   3.247   1.106 -0.2675 -0.1122  0.4139
 5056SOL     OW19989   0.865   0.028   5.243 -0.3550  0.6597 -0.0556
 5056SOL    HW219990   0.917   0.060   5.316  1.4279 -1.6326 -0.1831
 5056SOL    HW319991   0.887   0.086   5.170  0.9435  0.6218  0.2773
 5056SOL    MW419992   0.875   0.040   5.243 -0.0563  0.0062 -0.1045
 5057SOL     OW19993   1.893   5.792   0.116 -0.0057  0.0196  0.7070
 5057SOL    HW219994   1.827   5.808   0.049 -0.2420 -0.2879  0.8639
 5057SOL    HW319995   1.943   5.717   0.082 -0.6696 -0.6997  1.2617
 5057SOL    MW419996   1.891   5.784   0.103  0.3442  0.2557  0.0194
 5058SOL     OW19997   0.315   0.627   5.270  0.0087  0.2937 -0.7919
 5058SOL    HW219998   0.264   0.597   5.345  0.5462 -0.7009 -0.8052
 5058SOL    HW319999   0.256   0.686   5.223  0.2765  2.4766  1.3855
 5058SOL    MW420000   0.300   0.631   5.274 -0.1928 -0.4979  0.2108
 5059SOL     OW20001   5.991   1.067   2.918  0.0048 -0.1523 -0.5355
 5059SOL    HW220002   5.916   1.117   2.952  0.7368  0.6784 -0.1006
 5059SOL    HW320003   5.955   1.017   2.845 -0.6265  1.5983 -1.4858
 5059SOL    MW420004   5.976   1.067   2.913  0.4411  0.3338 -0.1177
 5060SOL     OW20005   3.493   2.194   1.770  0.4076  0.2948 -0.1287
 5060SOL    HW220006   3.404   2.163   1.785  0.3560  0.2279 -0.5578
 5060SOL    HW320007   3.519   2.233   1.853 -0.2052  0.7644 -0.1515
 5060SOL    MW420008   3.485   2.195   1.783 -0.2343 -0.0126  0.3388
 5061SOL     OW20009   1.113   0.242   1.885 -0.2954 -0.0555 -0.4640
 5061SOL    HW220010   1.191   0.253   1.831  1.0361  1.3359  1.5786
 5061SOL    HW320011   1.147   0.229   1.974 -2.3883  0.3773  0.4673
 5061SOL    MW420012   1.128   0.242   1.890  0.1833  0.3107  0.0532
 5062SOL     OW20013   6.231   3.492   1.713  0.1536 -0.6997  0.3352
 5062SOL    HW220014   6.296   3.516   1.779  1.4691  0.0609 -1.1466
 5062SOL    HW320015   6.147   3.513   1.753  0.9828  1.0497  1.2808
 5062SOL    MW420016   6.228   3.498   1.727  0.6494 -0.2499  0.5131
 5063SOL     OW20017   4.199   3.080   2.126 -0.0111  0.3066  0.1388
 5063SOL    HW220018   4.206   3.103   2.034  0.3863  1.3554  0.4192
 5063SOL    HW320019   4.285   3.045   2.149 -0.1661 -0.1218  0.0682
 5063SOL    MW420020   4.211   3.078   2.117  0.3266  0.0166  0.4726
 5064SOL     OW20021   3.096   2.326   0.163  0.1800 -0.5450 -0.2327
 5064SOL    HW220022   3.017   2.280   0.135  0.5442 -0.7415 -0.9702
 5064SOL    HW320023   3.168   2.279   0.120  0.6094  0.3075 -0.4839
 5064SOL    MW420024   3.095   2.314   0.154 -0.4392  0.1668 -0.3446
 5065SOL     OW20025   0.908   0.215   0.521  0.3304  0.0700  0.6302
 5065SOL    HW220026   0.954   0.270   0.458  1.7324  0.3944  1.8932
 5065SOL    HW320027   0.975   0.159   0.559 -0.4095  0.0960  2.0638
 5065SOL    MW420028   0.923   0.215   0.518 -0.0763  0.5957  0.1562
 5066SOL     OW20029   0.410   5.064   4.372  0.0078 -0.4385 -0.6760
 5066SOL    HW220030   0.426   5.090   4.462  1.0485 -1.7165 -0.4601
 5066SOL    HW320031   0.426   4.970   4.371  0.3451 -0.3941 -2.2654
 5066SOL    MW420032   0.414   5.055   4.384 -0.7004 -0.1175  0.0806
 5067SOL     OW20033   1.067   2.466   5.303  0.0183 -0.1974  0.0598
 5067SOL    HW220034   1.029   2.482   5.217 -1.7940 -0.9932  0.6537
 5067SOL    HW320035   1.076   2.370   5.308 -0.5635 -0.2131  1.0053
 5067SOL    MW420036   1.063   2.455   5.292 -0.7912 -0.1702  0.2788
 5068SOL     OW20037   4.459   0.532   5.430 -0.0474 -0.9478 -0.1589
 5068SOL    HW220038   4.491   0.621   5.441 -0.9786 -0.6716  0.4116
 5068SOL    HW320039   4.368   0.542   5.402 -0.7603 -1.6815  1.7110
 5068SOL    MW420040   4.451   0.545   5.428  0.1168  0.4257  0.0093
 5069SOL     OW20041   5.416   5.061   5.427  0.3550 -0.4696 -0.1219
 5069SOL    HW220042   5.388   5.099   5.344 -3.1155 -0.3115  0.9963
 5069SOL    HW320043   5.426   5.135   5.486  0.5703 -0.7695  0.2251
 5069SOL    MW420044   5.414   5.075   5.424 -0.4630  0.1685  0.1372
 5070SOL     OW20045   3.346   1.127   3.386 -0.1517 -0.1301 -0.5482
 5070SOL    HW220046   3.354   1.038   3.352  0.4255 -0.0503 -0.6187
 5070SOL    HW320047   3.259   1.155   3.358 -0.0530 -0.4095 -1.1493
 5070SOL    MW420048   3.335   1.119   3.378 -0.1972 -0.4706 -0.1209
 5071SOL     OW20049   4.886   3.838   4.351 -0.3620 -0.2827 -0.6983
 5071SOL    HW220050   4.792   3.848   4.363 -0.2952 -1.4200  1.1911
 5071SOL    HW320051   4.896   3.759   4.298 -0.4632 -0.1482 -0.9189
 5071SOL    MW420052   4.875   3.829   4.345  0.1677  0.3358 -0.1674
 5072SOL     OW20053   4.864   2.386   0.569  0.9425  0.1601 -0.3083
 5072SOL    HW220054   4.835   2.393   0.478  1.0194  0.7018 -0.2958
 5072SOL    HW320055   4.935   2.323   0.566 -0.4762 -1.5201 -0.2740
 5072SOL    MW420056   4.869   2.379   0.557  0.1505 -0.0957 -0.0930
 5073SOL     OW20057   2.722   0.693   1.132 -0.2749 -0.1205  0.0635
 5073SOL    HW220058   2.662   0.717   1.202 -0.9334  0.4402 -0.6725
 5073SOL    HW320059   2.665   0.671   1.058  0.3782  2.9121 -1.5010
 5073SOL    MW420060   2.707   0.693   1.131 -0.1834  0.2910  0.4892
 5074SOL     OW20061   5.705   0.045   4.926  0.4141  0.0906  0.3089
 5074SOL    HW220062   5.629   0.099   4.904  0.0556  0.1867  1.6890
 5074SOL    HW320063   5.668  -0.030   4.973  1.1771  0.2271  1.1510
 5074SOL    MW420064   5.690   0.043   4.929 -0.3260 -0.6939  0.1835
 5075SOL     OW20065   4.130   5.616   2.126  0.7496 -0.1211  0.0368
 5075SOL    HW220066   4.130   5.652   2.215  1.8986 -1.0972  0.4505
 5075SOL    HW320067   4.196   5.667   2.079  0.5541  0.0066 -0.1027
 5075SOL    MW420068   4.138   5.628   2.132 -0.0526 -0.7597 -0.2790
 5076SOL     OW20069   1.841   1.032   2.871 -0.7938  0.0539 -0.4406
 5076SOL    HW220070   1.864   0.941   2.889  2.0454  0.7016 -0.2720
 5076SOL    HW320071   1.798   1.029   2.785 -1.5190 -1.5140 -0.0628
 5076SOL    MW420072   1.839   1.019   2.862  0.1333  0.6077  0.9261
 5077SOL     OW20073   5.990   0.367   3.426  0.0695 -0.1262  0.1493
 5077SOL    HW220074   5.920   0.330   3.373 -0.8172  0.7435  0.6953
 5077SOL    HW320075   5.965   0.348   3.516 -0.6230  2.1014  0.4797
 5077SOL    MW420076   5.978   0.359   3.431 -0.1477  0.8185  0.3870
 5078SOL     OW20077   0.090   6.333   2.896 -0.0419  0.2831 -0.5843
 5078SOL    HW220078   0.092   6.391   2.819 -0.2133 -0.7204 -1.3715
 5078SOL    HW320079   0.115   6.248   2.861  0.3347 -0.0924  0.5817
 5078SOL    MW420080   0.093   6.330   2.881 -0.3091  0.0642 -0.3637
 5079SOL     OW20081   6.189   2.240   2.847 -0.3897 -0.2300  0.0101
 5079SOL    HW220082   6.165   2.148   2.860  0.1123 -0.3596  0.0632
 5079SOL    HW320083   6.256   2.238   2.779  0.9647 -0.1093  1.2703
 5079SOL    MW420084   6.195   2.228   2.840 -0.1238  0.7854 -0.2711
 5080SOL     OW20085   1.163   5.514   4.276  0.6597  0.2460  0.6448
 5080SOL    HW220086   1.190   5.554   4.194  0.5626  0.7729  0.8671
 5080SOL    HW320087   1.189   5.422   4.268 -1.7222 -0.3620 -1.0408
 5080SOL    MW420088   1.170   5.507   4.264 -0.1695 -0.4836  0.4270
 5081SOL     OW20089   2.223   2.857   1.924  0.4383  0.3292 -0.6326
 5081SOL    HW220090   2.206   2.880   2.016  1.5411  0.6889 -0.5044
 5081SOL    HW320091   2.235   2.942   1.881  1.7192  0.1042 -0.7359
 5081SOL    MW420092   2.222   2.872   1.931 -0.2009  1.0016  0.2209
 5082SOL     OW20093   5.577   1.132   2.975 -0.8349 -0.3436  0.2390
 5082SOL    HW220094   5.518   1.207   2.975  0.1992  0.5313  1.9481
 5082SOL    HW320095   5.663   1.170   2.991  0.4057 -1.5012 -2.8675
 5082SOL    MW420096   5.580   1.147   2.977  0.3978  0.1586 -0.2727
 5083SOL     OW20097   6.329   1.320   6.419  0.0129  0.1208 -0.1615
 5083SOL    HW220098   6.373   1.238   6.445  0.0819 -0.3376 -1.6180
 5083SOL    HW320099   6.236   1.304   6.437  0.1646  0.2150  0.7502
 5083SOL    MW420100   6.323   1.307   6.425  0.1344  0.1861  0.0644
 5084SOL     OW20101   5.112   3.074   2.439  0.1954 -0.0596  0.4013
 5084SOL    HW220102   5.184   3.033   2.391 -0.3449 -0.4665 -0.0750
 5084SOL    HW320103   5.146   3.088   2.527  0.8480 -0.2620  0.1835
 5084SOL    MW420104   5.126   3.071   2.444 -0.2644 -0.0908 -0.7899
 5085SOL     OW20105   3.877   0.726   4.317  0.0894  0.2730 -0.2974
 5085SOL    HW220106   3.936   0.801   4.311 -0.2256  0.6903  1.3497
 5085SOL    HW320107   3.922   0.656   4.269  2.8284  0.0444  2.2879
 5085SOL    MW420108   3.891   0.727   4.310  0.5703 -0.0887 -0.1003
 5086SOL     OW20109   6.408   3.707   0.460  0.3955  0.0055  0.1150
 5086SOL    HW220110   6.357   3.761   0.522 -1.7671 -0.9254 -0.7631
 5086SOL    HW320111   6.498   3.736   0.473 -0.5368  3.3005  0.2394
 5086SOL    MW420112   6.413   3.718   0.470  0.0411 -0.2651  0.3298
 5087SOL     OW20113   1.752   2.682   3.811 -0.5030  0.8930 -0.4197
 5087SOL    HW220114   1.751   2.668   3.716  0.1538 -0.1507 -0.2906
 5087SOL    HW320115   1.713   2.768   3.823 -2.3355  0.2768 -1.5183
 5087SOL    MW420116   1.747   2.691   3.800 -0.7492 -0.6793  0.0580
 5088SOL     OW20117   0.981   4.718   1.134 -0.0965 -0.3415  0.3313
 5088SOL    HW220118   0.888   4.739   1.127  0.1185  0.3882 -0.6066
 5088SOL    HW320119   0.992   4.638   1.082 -0.0790 -0.0391 -0.1286
 5088SOL    MW420120   0.970   4.710   1.126  0.0183  0.0477 -0.0145
 5089SOL     OW20121   3.070   5.612   2.886  0.2492  0.0693 -0.0044
 5089SOL    HW220122   3.156   5.569   2.892  1.1167  1.5101 -1.2762
 5089SOL    HW320123   3.060   5.632   2.793 -0.9303  0.9865  0.2935
 5089SOL    MW420124   3.080   5.609   2.875 -0.3532 -0.0660  0.7229
 5090SOL     OW20125   4.198   2.644   4.273  0.0113 -0.2108 -0.1254
 5090SOL    HW220126   4.250   2.618   4.349 -1.0819 -0.4855  0.5430
 5090SOL    HW320127   4.221   2.580   4.206 -0.0888 -0.8390  0.4282
 5090SOL    MW420128   4.208   2.632   4.274 -0.3755  0.5726  0.0214
 5091SOL     OW20129   1.799   3.470   1.833 -0.3805  0.4215 -0.1217
 5091SOL    HW220130   1.880   3.446   1.877 -0.8802 -1.7366 -0.2730
 5091SOL    HW320131   1.730   3.440   1.891 -1.0765  0.8774 -0.6884
 5091SOL    MW420132   1.800   3.463   1.846  0.0728  0.3306 -0.1834
 5092SOL     OW20133   3.285   2.574   0.476  0.1006  0.4223 -0.1839
 5092SOL    HW220134   3.301   2.538   0.563  1.3562  1.2009 -0.0719
 5092SOL    HW320135   3.234   2.654   0.492  0.3101  0.5518 -0.1525
 5092SOL    MW420136   3.280   2.580   0.489  0.5958  0.4354 -0.0852
 5093SOL     OW20137   4.454   3.985   3.773  0.2899  0.8195 -0.2149
 5093SOL    HW220138   4.469   4.079   3.779 -1.2050  1.1259 -0.8342
 5093SOL    HW320139   4.410   3.973   3.688 -0.5395 -0.2888  0.3443
 5093SOL    MW420140   4.451   3.996   3.762 -0.6260 -0.1698 -0.2145
 5094SOL     OW20141   3.353   4.339   6.362  0.8674 -0.4367  0.1485
 5094SOL    HW220142   3.296   4.330   6.438  1.1054 -0.5661  0.3112
 5094SOL    HW320143   3.423   4.276   6.376  1.0419 -0.2921 -0.0616
 5094SOL    MW420144   3.355   4.330   6.374 -0.4949  0.0255 -0.4800
 5095SOL     OW20145   0.475   0.707   5.668  0.2163 -0.0787 -0.7135
 5095SOL    HW220146   0.502   0.673   5.582  1.7288 -1.9732  0.4207
 5095SOL    HW320147   0.557   0.715   5.717 -0.5147  1.8364  0.3072
 5095SOL    MW420148   0.489   0.704   5.663 -0.9153  0.0562  0.5094
 5096SOL     OW20149   1.712   4.341   4.235  0.2936 -0.3427 -0.2393
 5096SOL    HW220150   1.653   4.417   4.240  1.3441  0.4843  0.0433
 5096SOL    HW320151   1.757   4.340   4.319 -0.6065 -2.0788  0.2752
 5096SOL    MW420152   1.710   4.351   4.247  0.3429  0.1271 -0.6798
 5097SOL     OW20153   3.107   5.919   0.936  0.0670  0.3320 -0.5985
 5097SOL    HW220154   3.185   5.968   0.959 -0.3269  1.5361 -1.7223
 5097SOL    HW320155   3.102   5.924   0.840 -1.1996  0.0118 -0.5747
 5097SOL    MW420156   3.116   5.926   0.926 -0.3130 -0.4484  0.3176
 5098SOL     OW20157   6.283   3.740   1.407  0.1300  0.3590 -0.1402
 5098SOL    HW220158   6.241   3.755   1.322  0.8893 -0.6720 -0.7166
 5098SOL    HW320159   6.241   3.661   1.441  2.6361 -1.7095 -1.4894
 5098SOL    MW420160   6.272   3.731   1.400 -0.0770  0.3949  0.0120
 5099SOL     OW20161   4.685   6.080   4.852 -0.2244 -0.4157  0.4620
 5099SOL    HW220162   4.735   6.150   4.894  1.4861 -0.5807 -1.1698
 5099SOL    HW320163   4.739   6.001   4.863 -1.7770 -1.3844  1.6280
 5099SOL    MW420164   4.699   6.079   4.859  0.6670  0.0050 -0.6094
 5100SOL     OW20165   2.233   2.793   1.126 -0.2905 -0.0881  0.2883
 5100SOL    HW220166   2.299   2.861   1.114 -0.3493  0.3174  2.0597
 5100SOL    HW320167   2.178   2.824   1.198  0.1956 -2.3266  1.7604
 5100SOL    MW420168   2.235   2.806   1.134  0.0915  0.3774  0.4667
 5101SOL     OW20169   5.456   0.088   1.263 -0.0211  0.2903 -0.1171
 5101SOL    HW220170   5.419   0.016   1.313  0.0157 -0.1891 -0.7630
 5101SOL    HW320171   5.498   0.144   1.328 -1.3317  0.5185  0.5703
 5101SOL    MW420172   5.456   0.086   1.278 -0.4306 -0.0264  0.5941
 5102SOL     OW20173   4.614   3.728   1.994  0.5101  0.5409  0.7081
 5102SOL    HW220174   4.535   3.767   2.033  1.9029  1.9737  2.2316
 5102SOL    HW320175   4.603   3.741   1.900 -0.3690  2.1749  0.9918
 5102SOL    MW420176   4.602   3.735   1.987  0.4886 -0.4421 -0.3717
 5103SOL     OW20177   0.881   4.435   3.474  0.3547  0.0953  0.1904
 5103SOL    HW220178   0.827   4.372   3.521 -0.7604  0.2849 -0.7649
 5103SOL    HW320179   0.817   4.491   3.429  1.3541  0.6478 -0.5732
 5103SOL    MW420180   0.865   4.434   3.474  0.4514 -0.0114  0.6975
 5104SOL     OW20181   4.207   3.794   1.824 -0.6943  0.2447 -0.3122
 5104SOL    HW220182   4.114   3.775   1.829 -0.3414 -1.4404  0.5543
 5104SOL    HW320183   4.236   3.751   1.743 -0.1039 -2.2782  1.1017
 5104SOL    MW420184   4.199   3.786   1.814  0.2203  0.5552  0.3242
 5105SOL     OW20185   3.968   2.943   2.081 -0.2927 -0.1704 -0.3314
 5105SOL    HW220186   4.062   2.953   2.095 -0.4241  1.2410 -0.2979
 5105SOL    HW320187   3.943   2.869   2.138  0.3653  1.0663  1.6793
 5105SOL    MW420188   3.977   2.934   2.091 -0.2667  0.2047 -0.4125
 5106SOL     OW20189   5.611   0.243   3.560 -0.3873 -0.5324 -0.4337
 5106SOL    HW220190   5.517   0.240   3.541 -0.7638  1.9744  0.6329
 5106SOL    HW320191   5.618   0.221   3.653  0.1729 -1.2628 -0.6343
 5106SOL    MW420192   5.600   0.239   3.569 -0.7594  0.0698 -0.3546
 5107SOL     OW20193   0.531   2.298   4.988 -0.3656 -0.2642 -0.3596
 5107SOL    HW220194   0.458   2.267   4.935 -1.0659  0.7232 -0.0053
 5107SOL    HW320195   0.530   2.242   5.065  0.2345 -1.2646 -1.0535
 5107SOL    MW420196   0.521   2.287   4.991 -0.1560 -0.3870  0.8382
 5108SOL     OW20197   1.630   2.486   0.172  0.1673  0.4255 -0.1130
 5108SOL    HW220198   1.653   2.566   0.220 -2.8123 -0.0019  2.3716
 5108SOL    HW320199   1.558   2.513   0.114  0.5608 -0.0495 -0.8363
 5108SOL    MW420200   1.623   2.500   0.170 -0.3664 -0.7085  0.0005
 5109SOL     OW20201   1.286   5.657   2.431 -0.5374 -0.0685  0.2061
 5109SOL    HW220202   1.280   5.574   2.478 -0.8042 -0.2456 -0.1326
 5109SOL    HW320203   1.311   5.721   2.498 -0.5524 -0.3803  0.5140
 5109SOL    MW420204   1.289   5.655   2.446 -0.5151 -0.4383 -0.3261
 5110SOL     OW20205   1.709   2.818   2.724 -0.3062  0.2653 -0.6709
 5110SOL    HW220206   1.735   2.734   2.762  1.4021 -0.0125 -2.2859
 5110SOL    HW320207   1.791   2.866   2.713 -1.0595  1.4456 -1.4158
 5110SOL    MW420208   1.723   2.814   2.728  0.2955  0.5099  0.4690
 5111SOL     OW20209   6.214   4.018   5.933 -0.1049 -0.4196  0.2258
 5111SOL    HW220210   6.173   3.932   5.934  0.4920 -0.7069  0.2863
 5111SOL    HW320211   6.141   4.079   5.919 -0.7528 -0.7887  1.7901
 5111SOL    MW420212   6.199   4.015   5.931 -0.3109  0.4736  1.0869
 5112SOL     OW20213   2.499   1.676   0.484 -0.6035  0.6106 -0.4968
 5112SOL    HW220214   2.404   1.671   0.498 -0.5532  2.3499  0.7835
 5112SOL    HW320215   2.536   1.620   0.552 -0.6902  0.8258 -0.2694
 5112SOL    MW420216   2.491   1.668   0.495  0.0202  0.5516  0.4721
 5113SOL     OW20217   0.714   0.625   3.224 -0.1122  0.4630  0.5454
 5113SOL    HW220218   0.710   0.667   3.310 -0.8437  0.3057  0.5879
 5113SOL    HW320219   0.802   0.587   3.221 -0.4145 -0.3652  1.6135
 5113SOL    MW420220   0.725   0.626   3.235 -0.6509  0.6529  0.2779
 5114SOL     OW20221   2.320   4.695   6.256  0.3662  0.1777  0.6762
 5114SOL    HW220222   2.225   4.704   6.253  0.2979 -0.2348  1.3926
 5114SOL    HW320223   2.339   4.616   6.204  0.1675 -0.6554  1.8384
 5114SOL    MW420224   2.310   4.686   6.248  0.3643 -0.3355  0.4440
 5115SOL     OW20225   1.620   3.362   2.012 -0.6325 -0.0713  0.4322
 5115SOL    HW220226   1.663   3.318   2.085 -1.9287 -0.6012  0.9006
 5115SOL    HW320227   1.595   3.447   2.046  0.2595  0.3450  0.0766
 5115SOL    MW420228   1.623   3.367   2.026 -0.8282 -0.0560  0.5952
 5116SOL     OW20229   4.084   4.120   3.493  0.2362  0.5864 -0.0998
 5116SOL    HW220230   3.993   4.091   3.479  0.7680  0.2322 -3.4818
 5116SOL    HW320231   4.106   4.169   3.414  3.0523  0.5754  0.5989
 5116SOL    MW420232   4.075   4.122   3.481  0.1047  0.1543 -0.3660
 5117SOL     OW20233   3.437   4.584   2.645 -0.1308 -0.4604 -0.2520
 5117SOL    HW220234   3.444   4.677   2.664 -2.1224  0.1496 -2.1181
 5117SOL    HW320235   3.397   4.546   2.723  2.5345 -0.2105  1.3625
 5117SOL    MW420236   3.433   4.591   2.658 -0.1964  0.0530  0.4058
 5118SOL     OW20237   4.433   6.206   0.263 -0.1969 -0.1790  0.3732
 5118SOL    HW220238   4.479   6.130   0.300  1.7201  0.6619 -0.1184
 5118SOL    HW320239   4.385   6.172   0.188  0.8679 -0.8754 -0.0117
 5118SOL    MW420240   4.433   6.192   0.258  0.3310 -0.0995  0.1542
 5119SOL     OW20241   0.833   5.829   3.060  0.0832 -0.5415  0.2414
 5119SOL    HW220242   0.776   5.872   3.124 -0.2263  2.0105 -1.5766
 5119SOL    HW320243   0.868   5.901   3.007  0.6637 -2.4342 -2.1569
 5119SOL    MW420244   0.830   5.844   3.061 -0.3950 -0.4363 -0.2433
 5120SOL     OW20245   2.254   4.443   6.119 -0.4095  0.0639  0.1363
 5120SOL    HW220246   2.331   4.387   6.129  0.9738  1.5313 -1.5833
 5120SOL    HW320247   2.219   4.420   6.033 -1.7806 -0.3954  0.7928
 5120SOL    MW420248   2.260   4.433   6.109  0.0965 -0.1696 -0.8309
 5121SOL     OW20249   0.889   4.297   5.201  0.3108  0.1858  0.1050
 5121SOL    HW220250   0.884   4.328   5.291  0.5129 -0.4886  0.3531
 5121SOL    HW320251   0.819   4.232   5.193 -0.0648  0.6416 -0.3882
 5121SOL    MW420252   0.879   4.293   5.212 -0.2597  0.2619 -0.7042
 5122SOL     OW20253   0.038   1.278   2.252  0.2172 -0.0290 -0.1138
 5122SOL    HW220254   0.131   1.278   2.229  0.5885 -0.0997  1.2569
 5122SOL    HW320255   0.001   1.349   2.201  0.5878 -1.2632 -2.2141
 5122SOL    MW420256   0.046   1.287   2.243 -0.0428 -0.6316 -0.9087
 5123SOL     OW20257   1.293   5.271   3.677 -0.2833 -0.1445  0.0416
 5123SOL    HW220258   1.355   5.199   3.668 -0.8399 -0.7541  0.9033
 5123SOL    HW320259   1.234   5.262   3.602  1.3655  1.1990 -1.5153
 5123SOL    MW420260   1.294   5.260   3.666 -0.1714 -0.3567 -0.3741
 5124SOL     OW20261   1.661   6.283   5.755  0.7692 -0.5107  0.4834
 5124SOL    HW220262   1.714   6.242   5.823 -0.1597 -0.9029  0.9972
 5124SOL    HW320263   1.717   6.284   5.678  1.9707  0.2658  1.3390
 5124SOL    MW420264   1.675   6.278   5.754  0.1943  0.2537  0.8877
 5125SOL     OW20265   6.381   6.273   1.238 -0.4773 -0.6685 -0.2063
 5125SOL    HW220266   6.307   6.239   1.289 -0.7877 -0.6449 -0.6277
 5125SOL    HW320267   6.446   6.300   1.303 -0.2643 -1.9745  0.1458
 5125SOL    MW420268   6.380   6.272   1.253 -0.0651  0.0578 -0.0016
 5126SOL     OW20269   0.538   2.040   4.269 -0.0373  0.1554 -0.4533
 5126SOL    HW220270   0.524   1.947   4.285 -1.7955  0.3537 -0.5864
 5126SOL    HW320271   0.620   2.061   4.313  0.6770 -1.5566 -0.8946
 5126SOL    MW420272   0.547   2.031   4.277  0.5867 -0.1367 -0.6095
 5127SOL     OW20273   4.083   5.559   3.799  0.5956  0.3161  0.0440
 5127SOL    HW220274   4.051   5.603   3.720  1.0993 -0.0439 -0.3664
 5127SOL    HW320275   4.177   5.551   3.785  1.1965  2.8203  1.9531
 5127SOL    MW420276   4.091   5.564   3.786 -0.5099  0.2405 -0.0895
 5128SOL     OW20277   4.079   2.171   4.959 -0.3158  0.3788 -0.0020
 5128SOL    HW220278   3.990   2.166   4.924 -1.1553  0.6634  1.9177
 5128SOL    HW320279   4.071   2.227   5.037  1.3048 -0.5006  0.8628
 5128SOL    MW420280   4.066   2.178   4.965 -0.1382  0.4139 -0.1556
 5129SOL     OW20281   3.029   5.076   1.287 -0.3264 -0.3241  0.3059
 5129SOL    HW220282   2.952   5.095   1.341 -1.5862  1.8730 -2.0225
 5129SOL    HW320283   3.097   5.135   1.321 -1.6785  2.5077 -1.4942
 5129SOL    MW420284   3.028   5.087   1.299 -0.0091 -0.2491  0.1961
 5130SOL     OW20285   1.469   0.475   0.970 -0.5994 -0.1406  0.1657
 5130SOL    HW220286   1.518   0.453   0.892 -0.1327  0.9928  0.1160
 5130SOL    HW320287   1.466   0.394   1.021 -3.1229 -1.6891 -2.1268
 5130SOL    MW420288   1.475   0.462   0.966  0.5597  0.5019 -0.2042
 5131SOL     OW20289   4.478   1.985   3.376 -0.5264 -0.1562 -0.7737
 5131SOL    HW220290   4.446   1.904   3.338  1.3797 -0.6139 -1.4874
 5131SOL    HW320291   4.436   1.989   3.462  0.3668 -2.5974 -0.1631
 5131SOL    MW420292   4.468   1.975   3.382 -0.1372  0.0337 -0.2878
 5132SOL     OW20293   6.081   1.313   1.363  0.2549  0.3812 -0.0974
 5132SOL    HW220294   5.999   1.361   1.349  0.6209  0.9195 -0.4422
 5132SOL    HW320295   6.106   1.333   1.453 -0.0843  0.0704  0.0676
 5132SOL    MW420296   6.073   1.322   1.373 -0.2465 -0.0464 -0.3730
 5133SOL     OW20297   4.619   3.338   3.267  0.4279  0.0142  0.4409
 5133SOL    HW220298   4.621   3.250   3.228  0.0913  0.2689 -0.1736
 5133SOL    HW320299   4.565   3.329   3.345  0.6060 -0.3784  0.5217
 5133SOL    MW420300   4.612   3.325   3.272 -0.3732  0.3276 -0.3565
 5134SOL     OW20301   3.865   3.696   5.716 -0.5030 -0.0721  0.0600
 5134SOL    HW220302   3.902   3.737   5.794  0.3136  0.6095 -0.6654
 5134SOL    HW320303   3.775   3.728   5.713 -0.3110  0.5113  0.2975
 5134SOL    MW420304   3.858   3.705   5.726  0.4039  0.3993 -0.2945
 5135SOL     OW20305   2.738   4.717   6.279 -0.1424  0.1712 -0.3237
 5135SOL    HW220306   2.665   4.751   6.228  1.2862  2.5548 -0.9475
 5135SOL    HW320307   2.816   4.750   6.234  1.2746 -0.8131  1.2813
 5135SOL    MW420308   2.739   4.726   6.267 -0.5385 -0.9117 -0.4591
 5136SOL     OW20309   2.581   2.187   1.096 -0.5560 -0.3887 -0.3982
 5136SOL    HW220310   2.527   2.131   1.040 -1.1611 -0.0146 -0.1975
 5136SOL    HW320311   2.518   2.235   1.150 -0.1041  1.0332 -1.0894
 5136SOL    MW420312   2.565   2.186   1.095  0.2254 -0.3159  0.0042
 5137SOL     OW20313   6.389   5.508   5.875  0.0437 -0.1630  0.4101
 5137SOL    HW220314   6.367   5.417   5.893 -1.0281 -0.3471 -1.5528
 5137SOL    HW320315   6.322   5.559   5.922 -0.3084 -0.4705  0.2505
 5137SOL    MW420316   6.377   5.503   5.883 -0.3565 -0.1189 -0.0267
 5138SOL     OW20317   1.493   0.009   2.545 -0.0587  0.6186  0.1749
 5138SOL    HW220318   1.433  -0.051   2.589  0.4093  0.0528  0.0551
 5138SOL    HW320319   1.577  -0.037   2.545  0.6604  1.8743  1.3627
 5138SOL    MW420320   1.496  -0.005   2.550  0.0441 -0.1400 -0.1088
 5139SOL     OW20321   2.960   4.995   3.760 -0.4037  0.2242 -0.1382
 5139SOL    HW220322   3.048   5.012   3.727  0.4242 -0.3265  1.6690
 5139SOL    HW320323   2.972   4.931   3.830 -1.8088  2.3490  2.2519
 5139SOL    MW420324   2.973   4.989   3.765 -0.1990 -0.4302 -0.1433
 5140SOL     OW20325   1.785   3.087   3.696  0.3061 -0.4447  0.1704
 5140SOL    HW220326   1.850   3.137   3.648 -1.0416  0.4304 -0.8228
 5140SOL    HW320327   1.701   3.121   3.665 -0.6355 -0.9444  2.0141
 5140SOL    MW420328   1.782   3.098   3.686 -0.1121 -0.0448 -0.2035
 5141SOL     OW20329   3.218   5.010   3.627  0.3097 -0.2547  0.5542
 5141SOL    HW220330   3.193   5.004   3.535 -0.5986 -2.5369  0.8873
 5141SOL    HW320331   3.288   5.076   3.628 -1.5851  2.0079 -1.2954
 5141SOL    MW420332   3.223   5.018   3.615  0.4667 -0.2369  0.0349
 5142SOL     OW20333   2.791   6.364   1.329  0.0668  0.1883  0.0393
 5142SOL    HW220334   2.840   6.409   1.397 -1.1068  0.9222  0.4363
 5142SOL    HW320335   2.782   6.274   1.361  2.1736 -0.3173 -0.6217
 5142SOL    MW420336   2.796   6.358   1.342 -0.0977  0.1331  0.9759
 5143SOL     OW20337   4.308   1.266   3.532  0.1603  0.1748  0.0177
 5143SOL    HW220338   4.391   1.228   3.562  1.0953  1.6163 -0.6290
 5143SOL    HW320339   4.253   1.269   3.610  1.0758  0.0952  0.6904
 5143SOL    MW420340   4.312   1.261   3.546  0.6640 -0.4504  0.0885
 5144SOL     OW20341   3.378   6.326   5.383  0.2637  0.2285 -0.2255
 5144SOL    HW220342   3.429   6.271   5.325  0.9979  1.1272 -0.4649
 5144SOL    HW320343   3.427   6.408   5.388  0.2634  0.1570  1.7233
 5144SOL    MW420344   3.391   6.330   5.376  0.2370 -0.1485 -0.0089
 5145SOL     OW20345   6.344   4.361   4.828  0.5091 -0.2901  0.1808
 5145SOL    HW220346   6.361   4.333   4.738  1.2977 -1.2257  0.6038
 5145SOL    HW320347   6.276   4.427   4.820  0.3252 -0.6079 -1.0781
 5145SOL    MW420348   6.337   4.366   4.815  0.1914  0.3703 -0.4202
 5146SOL     OW20349   3.199   6.352   1.173  0.2685 -0.0225  0.0100
 5146SOL    HW220350   3.168   6.362   1.083  1.3457 -0.5716 -0.4396
 5146SOL    HW320351   3.241   6.436   1.193 -1.0843  0.5601  0.4630
 5146SOL    MW420352   3.201   6.365   1.164  0.2255 -0.4115  0.2125
 5147SOL     OW20353   1.202   4.125   6.392  0.1677 -0.5736 -0.1384
 5147SOL    HW220354   1.283   4.140   6.343 -0.7374  1.2380 -1.1877
 5147SOL    HW320355   1.195   4.201   6.450 -0.8534 -0.6304 -0.1778
 5147SOL    MW420356   1.212   4.137   6.393  0.2305  0.2907  0.2120
 5148SOL     OW20357   5.338   2.649   5.054 -0.2354  0.5429 -0.2467
 5148SOL    HW220358   5.426   2.628   5.022 -0.3903  1.8446 -1.5930
 5148SOL    HW320359   5.316   2.575   5.111  2.0741  0.6045  0.8453
 5148SOL    MW420360   5.347   2.636   5.057 -0.0389 -1.2893 -0.0545
 5149SOL     OW20361   6.439   5.508   4.661 -0.4708  0.7800 -0.2722
 5149SOL    HW220362   6.530   5.484   4.649 -0.6329  0.4768 -0.9055
 5149SOL    HW320363   6.407   5.448   4.729 -0.8201 -0.7262 -1.6932
 5149SOL    MW420364   6.446   5.497   4.669  0.1473 -0.5558 -0.5594
 5150SOL     OW20365   4.215   1.735   0.835 -0.2222 -0.4379  0.5259
 5150SOL    HW220366   4.287   1.673   0.846 -0.0712 -0.4807 -0.5854
 5150SOL    HW320367   4.147   1.704   0.895  0.6775 -0.3853  1.5992
 5150SOL    MW420368   4.215   1.723   0.844 -0.1063  0.4840  0.2277
 5151SOL     OW20369   0.954   4.158   5.745  0.1841  0.7616  0.2025
 5151SOL    HW220370   0.966   4.090   5.812 -2.2008 -0.0804 -0.1115
 5151SOL    HW320371   0.970   4.240   5.791 -1.1884  0.1877  1.8247
 5151SOL    MW420372   0.957   4.160   5.760 -0.6925 -0.1211 -1.3575
 5152SOL     OW20373   3.365   0.691   4.822  0.4134  0.0343 -0.2764
 5152SOL    HW220374   3.415   0.662   4.747 -0.1777 -1.7957 -0.0123
 5152SOL    HW320375   3.338   0.780   4.800  0.1916 -0.4835 -2.2511
 5152SOL    MW420376   3.368   0.699   4.809  0.2583 -0.3154  0.0437
 5153SOL     OW20377   2.932   4.522   1.858  0.0144 -0.1751 -0.6626
 5153SOL    HW220378   2.902   4.580   1.788 -2.2743  0.2079  0.5528
 5153SOL    HW320379   2.936   4.579   1.936 -0.7208 -1.2883  0.2111
 5153SOL    MW420380   2.929   4.537   1.859 -0.1228  0.4106  0.2755
 5154SOL     OW20381   5.095   5.812   6.178  0.3520  0.1827  0.3100
 5154SOL    HW220382   5.018   5.848   6.134  0.5621  0.4059  0.1220
 5154SOL    HW320383   5.084   5.837   6.270  0.2771  0.3468  0.2560
 5154SOL    MW420384   5.084   5.820   6.184 -0.2886  0.1199  0.6583
 5155SOL     OW20385   2.487   5.545   6.069 -0.3057 -0.0023  0.0949
 5155SOL    HW220386   2.457   5.613   6.009 -0.3171  0.4622  0.6209
 5155SOL    HW320387   2.577   5.569   6.091  0.5063 -1.4024 -1.4951
 5155SOL    MW420388   2.495   5.557   6.064  0.0632 -1.2437  0.6732
 5156SOL     OW20389   6.015   2.894   3.549  0.1421  0.0312  0.5549
 5156SOL    HW220390   5.929   2.861   3.573 -0.6238  0.2635 -1.5890
 5156SOL    HW320391   6.006   2.990   3.554  0.3792  0.0520  0.6175
 5156SOL    MW420392   6.003   2.902   3.553 -0.2130  0.5015  0.5887
 5157SOL     OW20393   1.033   1.800   2.896 -0.8813 -0.0014 -0.2434
 5157SOL    HW220394   1.073   1.713   2.895 -0.1667  0.2549  1.8197
 5157SOL    HW320395   0.939   1.783   2.890 -0.7132 -0.8367 -0.7875
 5157SOL    MW420396   1.026   1.786   2.895  0.3300  0.1629 -0.6040
 5158SOL     OW20397   0.819   2.131   0.583  0.0173 -0.4718 -0.0960
 5158SOL    HW220398   0.834   2.206   0.639 -0.3471 -1.3041  1.1580
 5158SOL    HW320399   0.759   2.163   0.515  3.1021  1.4884 -2.1768
 5158SOL    MW420400   0.813   2.145   0.581  0.3140 -0.0343 -0.2560
 5159SOL     OW20401   0.119   5.120   1.804 -0.2912 -0.0389  0.1611
 5159SOL    HW220402   0.068   5.141   1.882  0.9613 -0.6942  1.1773
 5159SOL    HW320403   0.054   5.086   1.742 -1.0909 -0.9332  1.4426
 5159SOL    MW420404   0.103   5.119   1.806  0.3013  0.7592 -0.0014
 5160SOL     OW20405   0.070   5.681   0.816  0.1700  0.1561  0.1396
 5160SOL    HW220406   0.105   5.595   0.793 -0.9286 -0.6461  1.3565
 5160SOL    HW320407   0.048   5.675   0.909 -0.6712  1.4886  0.0668
 5160SOL    MW420408   0.072   5.669   0.825  0.2270 -0.1479 -0.0947
 5161SOL     OW20409   6.434   0.873   3.777 -0.1857  0.2703 -0.1440
 5161SOL    HW220410   6.404   0.867   3.687  2.4390 -0.5951 -1.0715
 5161SOL    HW320411   6.495   0.800   3.787 -0.4050  0.3195  2.3630
 5161SOL    MW420412   6.438   0.863   3.766  0.2186 -0.1055 -0.4081
 5162SOL     OW20413   4.503   2.040   5.837  0.7102  0.1533  0.8360
 5162SOL    HW220414   4.414   2.005   5.837  0.5495  0.4836 -0.8913
 5162SOL    HW320415   4.492   2.133   5.814  1.4838  0.2154  0.6893
 5162SOL    MW420416   4.490   2.048   5.834  0.0344  0.1381 -0.3553
 5163SOL     OW20417   2.990   2.417   5.258 -0.4655  0.2389  0.0509
 5163SOL    HW220418   3.017   2.344   5.203 -2.0701 -0.2024 -0.2092
 5163SOL    HW320419   2.985   2.380   5.346 -0.8232  0.1389 -0.0074
 5163SOL    MW420420   2.993   2.403   5.262 -0.0533 -0.7846  0.6252
 5164SOL     OW20421   1.043   3.362   5.959 -0.1595 -0.3252  0.0567
 5164SOL    HW220422   0.994   3.439   5.988 -1.9540 -0.9219 -1.2298
 5164SOL    HW320423   1.042   3.367   5.864 -1.4728 -2.5667 -0.1228
 5164SOL    MW420424   1.036   3.373   5.951 -0.1643 -0.2168 -0.6943
 5165SOL     OW20425   4.567   1.581   1.660 -0.2106 -0.1353  0.6025
 5165SOL    HW220426   4.598   1.540   1.741  0.0901  0.6200  0.8751
 5165SOL    HW320427   4.472   1.576   1.666 -0.1837 -0.8872  0.5769
 5165SOL    MW420428   4.559   1.575   1.672  0.3580 -0.2671  0.2401
 5166SOL     OW20429   4.238   0.601   2.645 -0.2003  0.4236 -0.0373
 5166SOL    HW220430   4.281   0.680   2.611 -1.3902  1.0851 -0.0403
 5166SOL    HW320431   4.145   0.623   2.647 -0.5612 -1.0164 -0.1016
 5166SOL    MW420432   4.232   0.614   2.641 -0.1553 -0.3205 -0.0674
 5167SOL     OW20433   1.652   1.130   1.862 -0.6151 -1.3761  0.2203
 5167SOL    HW220434   1.728   1.072   1.858 -0.0304 -0.5797 -1.5968
 5167SOL    HW320435   1.580   1.078   1.826 -0.5263 -1.5653  0.3166
 5167SOL    MW420436   1.652   1.116   1.856 -0.1700 -0.6550 -0.2203
 5168SOL     OW20437   4.050   6.074   1.220 -1.1860 -0.1051  0.0308
 5168SOL    HW220438   4.067   5.985   1.250 -1.5882 -0.0539  0.4227
 5168SOL    HW320439   3.988   6.109   1.284 -0.9769  0.4786 -0.0839
 5168SOL    MW420440   4.044   6.067   1.232 -0.2234  0.2274  0.2719
 5169SOL     OW20441   4.612   5.546   2.315  0.2469 -0.2063 -0.1417
 5169SOL    HW220442   4.582   5.617   2.371 -1.2426 -0.7365 -0.2167
 5169SOL    HW320443   4.687   5.582   2.268 -0.5049  1.3274 -0.2192
 5169SOL    MW420444   4.618   5.560   2.316 -0.2380 -0.2034 -0.2942
 5170SOL     OW20445   3.567   6.113   4.462  0.0782  0.0399 -0.5693
 5170SOL    HW220446   3.571   6.191   4.408 -1.1054  0.1145 -0.5881
 5170SOL    HW320447   3.595   6.042   4.404  3.8972  0.7147  0.2118
 5170SOL    MW420448   3.571   6.114   4.448  0.0794  0.3956  0.6953
 5171SOL     OW20449   3.931   2.257   5.355  0.5195  0.0365  0.3357
 5171SOL    HW220450   3.973   2.296   5.278 -2.8857  1.6884 -0.9264
 5171SOL    HW320451   3.885   2.180   5.321 -0.4306  0.3729  0.8155
 5171SOL    MW420452   3.930   2.252   5.340  0.7577 -0.3624  0.7006
 5172SOL     OW20453   2.506   5.501   2.067 -0.5562 -0.4007 -0.1508
 5172SOL    HW220454   2.427   5.513   2.120 -0.6485 -1.1817 -0.1073
 5172SOL    HW320455   2.542   5.590   2.057  0.7022 -0.4078  3.0970
 5172SOL    MW420456   2.501   5.515   2.073  0.0242  0.3163  0.1097
 5173SOL     OW20457   1.440   3.751   4.616  0.7841 -0.0361  0.5485
 5173SOL    HW220458   1.346   3.767   4.611  0.6972 -0.7856 -0.6529
 5173SOL    HW320459   1.455   3.679   4.556  1.8973 -1.0217  1.9436
 5173SOL    MW420460   1.430   3.744   4.608  0.2273 -0.0520  0.1457
 5174SOL     OW20461   5.853   2.614   1.876 -0.3159  0.2546  0.1879
 5174SOL    HW220462   5.940   2.595   1.842 -0.5446  1.8225 -1.3986
 5174SOL    HW320463   5.815   2.528   1.895  1.6746 -0.4476  1.3036
 5174SOL    MW420464   5.859   2.600   1.874 -0.1243 -0.2180  0.0459
 5175SOL     OW20465   5.616   3.135   0.168  0.2237  0.0893 -0.1564
 5175SOL    HW220466   5.559   3.203   0.202 -0.7980 -0.6915 -0.2552
 5175SOL    HW320467   5.594   3.129   0.075  0.8743  0.1710 -0.3211
 5175SOL    MW420468   5.605   3.143   0.160  0.2840  0.4195  0.1302
 5176SOL     OW20469   3.107   4.517   1.129 -0.0275  0.4655 -0.2910
 5176SOL    HW220470   3.145   4.454   1.068  1.2393  1.5201 -0.6519
 5176SOL    HW320471   3.025   4.545   1.089  0.5501  0.7702 -1.2929
 5176SOL    MW420472   3.101   4.513   1.116  0.1147  0.2102 -0.1422
 5177SOL     OW20473   1.044   2.098   1.020 -0.5490  0.0183  0.3172
 5177SOL    HW220474   1.066   2.134   1.106 -1.9142  0.4812  0.5076
 5177SOL    HW320475   1.110   2.134   0.961 -1.0809  1.7819  0.7481
 5177SOL    MW420476   1.055   2.107   1.023 -0.0628 -0.0469 -0.6471
 5178SOL     OW20477   4.482   2.287   5.434 -0.0070 -0.3994  0.1529
 5178SOL    HW220478   4.440   2.202   5.418 -2.0792  0.7492 -0.9222
 5178SOL    HW320479   4.418   2.351   5.404  2.0562  1.5467 -0.3216
 5178SOL    MW420480   4.468   2.284   5.428 -0.5626 -0.5660 -0.0392
 5179SOL     OW20481   3.946   3.471   5.857 -0.0876 -0.1366  0.6650
 5179SOL    HW220482   4.041   3.478   5.847 -0.1173 -1.6959 -1.0063
 5179SOL    HW320483   3.911   3.537   5.797 -0.0757 -1.2602 -0.6054
 5179SOL    MW420484   3.954   3.481   5.848 -0.0386  0.5298 -0.3130
 5180SOL     OW20485   0.488   5.149   0.636 -0.4073  0.2810  0.7708
 5180SOL    HW220486   0.582   5.138   0.622 -0.2590  1.6323  0.6665
 5180SOL    HW320487   0.479   5.235   0.675 -1.7470  0.8870 -0.7699
 5180SOL    MW420488   0.499   5.159   0.640  0.1497 -0.2526 -0.2923
 5181SOL     OW20489   3.161   0.456   4.569  0.9316 -0.0556 -0.0815
 5181SOL    HW220490   3.123   0.514   4.504  1.2888  0.3158  0.0374
 5181SOL    HW320491   3.138   0.368   4.539  1.0336  0.1120 -0.6720
 5181SOL    MW420492   3.153   0.452   4.557  0.2660 -0.1967  0.0775
 5182SOL     OW20493   5.235   1.850   4.415  0.4689 -0.0394 -0.2331
 5182SOL    HW220494   5.153   1.894   4.392  0.7030 -0.1627 -1.3691
 5182SOL    HW320495   5.298   1.882   4.351  0.9235 -1.1518 -0.3548
 5182SOL    MW420496   5.232   1.860   4.404  0.5413  0.4222 -0.7927
 5183SOL     OW20497   1.657   4.618   2.118  0.4955  0.8423 -0.1365
 5183SOL    HW220498   1.566   4.600   2.092  0.7229 -0.3230 -0.1590
 5183SOL    HW320499   1.650   4.689   2.182 -0.3234  1.6144 -1.0416
 5183SOL    MW420500   1.644   4.625   2.123  0.0615  0.8841  0.4347
 5184SOL     OW20501   1.516   5.811   1.661 -0.5823  0.0367  0.4931
 5184SOL    HW220502   1.549   5.798   1.750  2.1175 -0.0877 -0.4560
 5184SOL    HW320503   1.512   5.723   1.623  0.5032  0.2842 -0.2290
 5184SOL    MW420504   1.520   5.798   1.668 -0.1979  0.1719 -0.6654
 5185SOL     OW20505   0.605   2.052   5.756 -0.2402  0.1403 -0.4155
 5185SOL    HW220506   0.589   1.978   5.697  0.4394 -2.2671  2.1924
 5185SOL    HW320507   0.697   2.043   5.782  0.0595  2.3549 -0.5310
 5185SOL    MW420508   0.615   2.041   5.752 -0.0309  0.4008  0.2993
 5186SOL     OW20509   5.127   1.908   4.762  0.1099  0.1294 -0.1496
 5186SOL    HW220510   5.115   1.840   4.695  0.2659 -1.1662  1.0756
 5186SOL    HW320511   5.105   1.864   4.844  1.9497  1.0263  0.8906
 5186SOL    MW420512   5.122   1.893   4.764 -0.0214 -0.4882  0.3126
 5187SOL     OW20513   5.756   6.273   1.649  0.0065 -0.1271  0.1874
 5187SOL    HW220514   5.821   6.312   1.708 -1.6828  0.6694  1.6135
 5187SOL    HW320515   5.713   6.205   1.702  0.0375 -1.0420 -0.9161
 5187SOL    MW420516   5.759   6.269   1.664 -0.2034  0.5308 -0.0093
 5188SOL     OW20517   3.987   5.251   0.294  0.2152 -0.2230  0.3898
 5188SOL    HW220518   4.060   5.228   0.351 -0.9535 -0.3420  1.9145
 5188SOL    HW320519   3.979   5.347   0.302  0.8642 -0.0665 -0.6430
 5188SOL    MW420520   3.995   5.261   0.302  0.5762 -0.1447  0.0077
 5189SOL     OW20521   5.850   2.735   0.341  0.3648  0.2898  0.1485
 5189SOL    HW220522   5.785   2.754   0.273 -1.4952 -0.8216  1.5188
 5189SOL    HW320523   5.861   2.640   0.339  1.9111  0.4393  0.0241
 5189SOL    MW420524   5.843   2.725   0.332  0.7815  0.2458  0.4163
 5190SOL     OW20525   4.945   4.824   5.383  0.3924  0.0879  0.6494
 5190SOL    HW220526   5.008   4.753   5.375  1.2085  0.8107  0.4340
 5190SOL    HW320527   4.980   4.893   5.326 -0.4983  0.5713  0.6731
 5190SOL    MW420528   4.958   4.824   5.374 -0.5285  0.2653 -0.1804
 5191SOL     OW20529   3.726   6.209   2.862 -0.2752  0.0566 -0.5066
 5191SOL    HW220530   3.693   6.137   2.915 -0.7861 -0.3754 -1.3951
 5191SOL    HW320531   3.772   6.166   2.789 -0.0418  0.6273 -0.7001
 5191SOL    MW420532   3.728   6.194   2.859 -0.2476  0.2893  0.0443
 5192SOL     OW20533   2.239   1.549   0.531  0.1811 -0.4514 -0.8533
 5192SOL    HW220534   2.160   1.603   0.535  1.5846  1.6719  0.0858
 5192SOL    HW320535   2.233   1.492   0.608 -0.9039 -1.1145 -1.3887
 5192SOL    MW420536   2.228   1.548   0.542  0.4508 -0.6371  0.2296
 5193SOL     OW20537   2.514   2.472   2.147  0.0371 -0.5571 -0.3631
 5193SOL    HW220538   2.588   2.529   2.128  0.1596 -0.8450 -0.7611
 5193SOL    HW320539   2.540   2.386   2.115 -0.7027 -0.5306 -1.0739
 5193SOL    MW420540   2.527   2.468   2.140  0.1217  0.0629 -0.2837
 5194SOL     OW20541   5.955   0.699   4.137  0.4104  0.5977 -0.1284
 5194SOL    HW220542   5.916   0.636   4.198  1.5882 -1.1503 -1.1029
 5194SOL    HW320543   5.881   0.752   4.106 -0.6285 -0.3567  0.6524
 5194SOL    MW420544   5.940   0.698   4.141  0.2429  0.0093 -0.3247
 5195SOL     OW20545   4.839   5.499   3.419 -0.6863  0.1754 -0.3991
 5195SOL    HW220546   4.864   5.485   3.327  0.6235  0.5819 -0.1336
 5195SOL    HW320547   4.748   5.470   3.424 -0.7994  0.1959 -1.8389
 5195SOL    MW420548   4.831   5.494   3.407 -0.2846 -0.9992  0.0187
 5196SOL     OW20549   3.349   3.680   0.102 -0.0973  0.0737 -0.4010
 5196SOL    HW220550   3.400   3.755   0.072  1.3315 -0.7189 -0.0530
 5196SOL    HW320551   3.408   3.606   0.092 -1.5104 -1.0367 -0.8311
 5196SOL    MW420552   3.363   3.680   0.097 -0.2114  0.8387 -0.0703
 5197SOL     OW20553   2.839   1.609   3.540  0.7539  0.2757  0.0774
 5197SOL    HW220554   2.857   1.595   3.447  0.0893 -1.2220  0.1376
 5197SOL    HW320555   2.823   1.703   3.547  3.6235  0.9263 -0.7800
 5197SOL    MW420556   2.839   1.620   3.529  0.4146 -0.1453  0.0602
 5198SOL     OW20557   5.342   5.481   0.867 -0.1609 -0.8004  0.2214
 5198SOL    HW220558   5.248   5.497   0.875 -0.3079 -1.9081  0.8691
 5198SOL    HW320559   5.368   5.443   0.951  0.8101 -0.7829 -0.0572
 5198SOL    MW420560   5.333   5.478   0.879  0.2148  0.1126 -0.2381
 5199SOL     OW20561   1.536   3.006   5.717  0.0754 -0.1815  0.2505
 5199SOL    HW220562   1.572   3.000   5.628 -1.4579  0.1192 -0.4113
 5199SOL    HW320563   1.570   3.089   5.751  1.4689 -0.7577  0.3366
 5199SOL    MW420564   1.546   3.016   5.710 -0.8625 -0.3323  0.0304
 5200SOL     OW20565   0.913   6.240   0.564 -0.0608 -0.0738  0.2898
 5200SOL    HW220566   0.914   6.197   0.479 -0.1525  0.7656 -0.1487
 5200SOL    HW320567   0.974   6.189   0.617  2.5694  1.2301 -1.2389
 5200SOL    MW420568   0.922   6.227   0.560 -0.0087  0.3853  0.0372
 5201SOL     OW20569   3.246   3.675   0.350  0.5455  0.3173 -0.1181
 5201SOL    HW220570   3.187   3.751   0.356  1.6276  1.1202  0.9068
 5201SOL    HW320571   3.306   3.697   0.279  0.3846  0.0593 -0.3357
 5201SOL    MW420572   3.246   3.688   0.341  0.4094 -0.1226 -0.6571
 5202SOL     OW20573   5.267   2.103   2.882 -0.0495  0.2244  0.5521
 5202SOL    HW220574   5.191   2.093   2.940 -0.8519  2.3783 -0.0130
 5202SOL    HW320575   5.247   2.048   2.807 -2.1404  2.2755 -0.5320
 5202SOL    MW420576   5.254   2.094   2.880 -0.2012 -0.2874 -0.5538
 5203SOL     OW20577   1.938   4.146   3.430 -0.1222  0.3386 -0.0436
 5203SOL    HW220578   1.931   4.238   3.407  1.8640  0.7691  0.8251
 5203SOL    HW320579   1.992   4.107   3.361 -0.7062 -0.1150 -0.2532
 5203SOL    MW420580   1.944   4.153   3.418  0.2470  0.7679  0.0167
 5204SOL     OW20581   4.632   6.039   4.240 -0.1971  0.1744  0.7144
 5204SOL    HW220582   4.563   6.099   4.213  1.1107  2.1826  1.6040
 5204SOL    HW320583   4.600   5.999   4.321 -0.6010  0.5468  0.7410
 5204SOL    MW420584   4.619   6.042   4.247 -0.1447 -0.0437  0.5293
 5205SOL     OW20585   2.728   3.026   3.486  0.5582 -0.0528  0.3078
 5205SOL    HW220586   2.678   3.094   3.441  1.4324 -0.1609 -0.8784
 5205SOL    HW320587   2.809   3.069   3.513  0.5289 -0.2802  0.7621
 5205SOL    MW420588   2.732   3.040   3.483 -0.0077  0.1982 -0.1538
 5206SOL     OW20589   1.269   5.057   1.426  0.3247  0.0225 -0.1393
 5206SOL    HW220590   1.200   5.032   1.364 -0.5497  0.7141  0.5284
 5206SOL    HW320591   1.285   4.977   1.476 -0.4857  0.0211  0.1420
 5206SOL    MW420592   1.262   5.043   1.425  0.6149 -0.0705 -0.0823
 5207SOL     OW20593   1.430   1.673   2.819 -0.6140  0.1109  0.0083
 5207SOL    HW220594   1.428   1.604   2.752  1.1444 -0.1385  0.1681
 5207SOL    HW320595   1.362   1.647   2.881 -0.2093 -1.3503 -0.1057
 5207SOL    MW420596   1.421   1.660   2.818  0.2020  0.3573  0.0963
 5208SOL     OW20597   1.060   3.023   2.414  0.1061  0.3537 -0.6924
 5208SOL    HW220598   1.066   3.013   2.509  1.8155  1.2237 -0.6657
 5208SOL    HW320599   1.010   2.947   2.384  0.2474 -0.3620  0.8220
 5208SOL    MW420600   1.054   3.012   2.422  0.1721 -0.4094  0.4607
 5209SOL     OW20601   5.827   3.820   6.407  0.6887  0.0264 -0.1116
 5209SOL    HW220602   5.786   3.794   6.489 -0.1744 -0.2955 -0.6292
 5209SOL    HW320603   5.769   3.887   6.371  1.5519  0.8535 -0.0215
 5209SOL    MW420604   5.814   3.826   6.413 -0.2984  0.0289 -0.1879
 5210SOL     OW20605   5.605   1.071   0.422  0.3298  0.0319 -0.1625
 5210SOL    HW220606   5.613   0.992   0.369  0.1481 -0.0295 -0.0965
 5210SOL    HW320607   5.667   1.132   0.382  0.7158 -0.2514 -0.0093
 5210SOL    MW420608   5.615   1.069   0.410  0.6901  0.1675 -0.9731
 5211SOL     OW20609   5.386   4.475   5.620 -0.4171  0.2192  0.0539
 5211SOL    HW220610   5.379   4.418   5.697  1.4194 -1.6809 -1.0921
 5211SOL    HW320611   5.338   4.554   5.645 -0.8507 -0.7705  2.7072
 5211SOL    MW420612   5.379   4.478   5.634 -0.1436  0.1540 -0.5516
 5212SOL     OW20613   1.429   0.232   2.981 -0.4108  0.1731  0.2284
 5212SOL    HW220614   1.366   0.276   2.923 -1.4971 -0.2951  1.0214
 5212SOL    HW320615   1.500   0.206   2.923 -0.5102  1.5189 -0.5395
 5212SOL    MW420616   1.430   0.235   2.965  0.7562  0.1077  0.4420
 5213SOL     OW20617   1.389   4.858   4.586 -0.0562  0.0067  0.0130
 5213SOL    HW220618   1.391   4.780   4.530 -0.7850 -0.9238  1.2215
 5213SOL    HW320619   1.474   4.898   4.575  1.6686 -2.7903  1.8176
 5213SOL    MW420620   1.400   4.853   4.577 -0.3174 -0.1960 -0.3376
 5214SOL     OW20621   0.746   0.314   0.114  0.2901 -0.3224 -0.3068
 5214SOL    HW220622   0.727   0.231   0.158  1.6778  0.2174  1.4543
 5214SOL    HW320623   0.803   0.361   0.175 -1.0484  2.2584 -0.8961
 5214SOL    MW420624   0.751   0.309   0.128  0.1725  0.3388  0.5628
 5215SOL     OW20625   1.507   1.358   4.954 -0.2344 -0.6716  0.2775
 5215SOL    HW220626   1.501   1.271   4.916 -0.8512 -0.8139  0.6855
 5215SOL    HW320627   1.586   1.356   5.008  1.8027  0.1482 -2.4971
 5215SOL    MW420628   1.517   1.346   4.956 -0.1464  0.2166  0.0119
 5216SOL     OW20629   6.012   3.775   3.306 -0.1275 -0.4849 -0.0581
 5216SOL    HW220630   6.088   3.830   3.326 -1.0823  0.8403  0.0585
 5216SOL    HW320631   5.939   3.819   3.350 -0.7919 -2.3271  0.7510
 5216SOL    MW420632   6.013   3.788   3.314  0.1843 -0.2724  0.1586
 5217SOL     OW20633   4.674   4.599   5.070 -0.3200  0.5393 -0.2972
 5217SOL    HW220634   4.707   4.559   4.989 -0.7247 -1.3042  0.4039
 5217SOL    HW320635   4.598   4.650   5.042 -0.0547  0.4774 -1.1656
 5217SOL    MW420636   4.669   4.601   5.056  0.0528 -0.0390  0.6059
 5218SOL     OW20637   5.893   2.277   5.225 -0.0686  0.2404 -0.3417
 5218SOL    HW220638   5.832   2.341   5.262  0.5523  0.2864  0.6389
 5218SOL    HW320639   5.854   2.253   5.141 -0.4322  1.7178 -0.6268
 5218SOL    MW420640   5.880   2.282   5.219 -0.5209  0.4347  0.3355
 5219SOL     OW20641   2.442   3.856   0.451 -0.5819  0.2292 -0.0728
 5219SOL    HW220642   2.457   3.933   0.397  0.6571 -0.3328 -0.5704
 5219SOL    HW320643   2.406   3.890   0.533 -0.1975  1.3063 -0.3404
 5219SOL    MW420644   2.439   3.871   0.455  0.0228  0.1714 -0.1700
 5220SOL     OW20645   5.394   0.667   4.244 -0.2616 -0.1357  0.1443
 5220SOL    HW220646   5.381   0.753   4.283  0.3578  0.7329 -1.4802
 5220SOL    HW320647   5.344   0.607   4.300 -4.0028  1.8052 -0.8114
 5220SOL    MW420648   5.385   0.670   4.256  0.1215 -1.1401  0.6925
 5221SOL     OW20649   6.390   5.436   2.772  0.2192 -0.4862 -0.2597
 5221SOL    HW220650   6.470   5.385   2.757  1.0101  0.3120  1.0459
 5221SOL    HW320651   6.406   5.519   2.726  0.3778 -0.1326  0.4132
 5221SOL    MW420652   6.403   5.440   2.764  0.1786 -0.0498 -0.2272
 5222SOL     OW20653   2.480   0.155   0.746 -0.3331  0.7558 -0.5756
 5222SOL    HW220654   2.525   0.155   0.661 -0.6944 -0.9480 -0.8050
 5222SOL    HW320655   2.489   0.065   0.778 -1.3297  1.0421  0.5955
 5222SOL    MW420656   2.487   0.143   0.739  0.0583 -0.5341  0.4872
 5223SOL     OW20657   2.027   5.002   4.527 -0.3713  0.0459 -0.2747
 5223SOL    HW220658   1.960   4.939   4.554 -2.9384  2.0463 -1.5342
 5223SOL    HW320659   2.026   5.069   4.595  0.6269 -0.0594 -0.1403
 5223SOL    MW420660   2.018   5.002   4.539  0.6122  0.0645  0.2264
 5224SOL     OW20661   0.632   2.740   6.198  0.3664 -0.2968 -0.2695
 5224SOL    HW220662   0.696   2.800   6.235  0.6751 -1.2120  0.7429
 5224SOL    HW320663   0.681   2.691   6.132  0.8224 -1.1889  0.6975
 5224SOL    MW420664   0.647   2.741   6.194 -0.0924 -0.0613 -0.2348
 5225SOL     OW20665   2.230   0.932   0.413  0.4741  0.1745 -0.2190
 5225SOL    HW220666   2.260   0.944   0.503  0.8364  3.0817 -0.6552
 5225SOL    HW320667   2.290   0.867   0.376  0.8996 -0.3524  1.3285
 5225SOL    MW420668   2.242   0.925   0.420  0.1775  0.4385  0.4395
 5226SOL     OW20669   3.142   3.873   1.190 -0.2370  0.5104 -0.2238
 5226SOL    HW220670   3.210   3.928   1.229  0.5051 -0.8518  0.5006
 5226SOL    HW320671   3.188   3.823   1.122 -1.4224  2.5531 -2.6890
 5226SOL    MW420672   3.157   3.874   1.186 -0.4843 -0.2554 -0.6236
 5227SOL     OW20673   2.893   5.554   2.653 -0.6851  0.2028 -0.3040
 5227SOL    HW220674   2.909   5.464   2.625 -0.8766  0.1745 -0.3224
 5227SOL    HW320675   2.929   5.607   2.582  0.4612  0.1692  0.2229
 5227SOL    MW420676   2.900   5.549   2.640 -0.9100  0.0518  0.0694
 5228SOL     OW20677   2.668   0.377   0.915  0.2776 -0.1885 -0.2470
 5228SOL    HW220678   2.645   0.470   0.910  0.4489 -0.0783  0.7944
 5228SOL    HW320679   2.657   0.345   0.826 -0.7570  0.5965 -0.4182
 5228SOL    MW420680   2.664   0.385   0.903 -0.3749 -0.0187  0.1821
 5229SOL     OW20681   4.393   3.262   2.619  0.3855  0.3967  0.3388
 5229SOL    HW220682   4.467   3.219   2.662 -0.8302 -0.4257  1.6792
 5229SOL    HW320683   4.362   3.198   2.555 -0.7010 -0.3127  1.5305
 5229SOL    MW420684   4.399   3.248   2.616  0.3372 -0.1044 -0.1871
 5230SOL     OW20685   5.203   0.809   6.077  0.4166 -0.2790  0.5056
 5230SOL    HW220686   5.148   0.762   6.014 -0.1045  1.9785 -0.8124
 5230SOL    HW320687   5.293   0.786   6.052  0.1798 -1.4959  0.6798
 5230SOL    MW420688   5.208   0.800   6.066 -0.1120  0.4996 -0.4490
 5231SOL     OW20689   0.825   0.798   2.966 -0.3363  0.5720 -0.1769
 5231SOL    HW220690   0.850   0.745   3.042  1.1669  0.3727 -0.7855
 5231SOL    HW320691   0.828   0.737   2.892 -2.2867  0.6431 -0.3712
 5231SOL    MW420692   0.829   0.783   2.967  0.1787  0.4619 -0.3015
 5232SOL     OW20693   6.070   3.487   2.391 -0.2792  0.3144  0.5059
 5232SOL    HW220694   6.146   3.431   2.406 -1.5408 -1.5840  0.1198
 5232SOL    HW320695   6.105   3.565   2.348  1.2212 -1.3527 -1.4722
 5232SOL    MW420696   6.085   3.490   2.388  0.3419 -0.3944  0.1569
 5233SOL     OW20697   2.254   2.492   1.838 -0.4122  0.2619 -0.5174
 5233SOL    HW220698   2.278   2.414   1.888  0.0570  1.6286  1.5276
 5233SOL    HW320699   2.334   2.516   1.792  0.2009  0.9242  0.8471
 5233SOL    MW420700   2.268   2.485   1.839  0.0661  0.3789 -0.6646
 5234SOL     OW20701   5.364   4.362   5.350 -0.1493 -0.4920 -0.2430
 5234SOL    HW220702   5.400   4.383   5.436 -1.1268  0.7587 -0.1211
 5234SOL    HW320703   5.422   4.293   5.316  1.8250  0.7984  0.3138
 5234SOL    MW420704   5.377   4.356   5.357 -0.6368  0.0437  0.0355
 5235SOL     OW20705   3.363   4.662   1.991  0.1459 -0.0872 -0.6837
 5235SOL    HW220706   3.285   4.688   2.039 -0.4383 -1.9859 -0.5123
 5235SOL    HW320707   3.385   4.737   1.937 -0.4799  1.2993  0.9086
 5235SOL    MW420708   3.356   4.675   1.990  0.5299  0.1963  0.0854
 5236SOL     OW20709   1.300   6.027   1.795  0.0012 -0.4210  0.0146
 5236SOL    HW220710   1.375   6.080   1.769  1.5829 -2.5189 -0.0192
 5236SOL    HW320711   1.223   6.076   1.766  1.4172  1.0570 -1.4031
 5236SOL    MW420712   1.300   6.040   1.788  0.3961 -0.6609 -1.3698
 5237SOL     OW20713   0.019   3.031   5.662  0.7067 -0.9158  0.2760
 5237SOL    HW220714   0.055   3.055   5.748  0.5537 -0.5851  0.2511
 5237SOL    HW320715   0.084   3.061   5.599  1.3479 -2.1683  0.3227
 5237SOL    MW420716   0.032   3.038   5.665  0.0106 -0.3223 -0.1984
 5238SOL     OW20717   6.264   5.310   2.019 -0.2875  0.4099 -0.1629
 5238SOL    HW220718   6.199   5.329   2.087 -0.7385 -1.5333  0.0254
 5238SOL    HW320719   6.226   5.237   1.969  2.7589 -2.7003  1.5997
 5238SOL    MW420720   6.250   5.303   2.021 -0.5867  0.1969  0.1402
 5239SOL     OW20721   5.338   2.828   3.122 -0.2536 -0.5296 -0.1752
 5239SOL    HW220722   5.398   2.777   3.177 -0.2633 -0.8361 -0.4500
 5239SOL    HW320723   5.342   2.786   3.036 -0.5125 -0.2680 -0.3164
 5239SOL    MW420724   5.347   2.815   3.118 -0.2048  0.5412 -0.2357
 5240SOL     OW20725   5.502   0.517   0.706 -0.2904 -0.5871 -0.3201
 5240SOL    HW220726   5.409   0.497   0.698 -0.3326 -0.3345 -0.4591
 5240SOL    HW320727   5.515   0.532   0.800 -1.2363  3.3456 -0.6345
 5240SOL    MW420728   5.492   0.517   0.718  0.5002  0.0253  0.7859
 5241SOL     OW20729   5.149   1.677   0.741  0.1399 -0.2916  0.1249
 5241SOL    HW220730   5.081   1.610   0.740 -0.4774  0.3344 -1.0134
 5241SOL    HW320731   5.230   1.628   0.760 -0.3180 -1.3489 -0.5586
 5241SOL    MW420732   5.151   1.662   0.744 -0.0435  0.1803 -0.3338
 5242SOL     OW20733   2.603   3.511   5.607  0.2399  0.8364 -0.0071
 5242SOL    HW220734   2.597   3.580   5.673  0.3071  0.6272  0.2179
 5242SOL    HW320735   2.574   3.432   5.652  1.6550  0.4092  0.2052
 5242SOL    MW420736   2.598   3.510   5.622 -0.2487 -0.2612 -0.2166
 5243SOL     OW20737   1.049   3.946   0.919  0.4773  0.3177 -0.2132
 5243SOL    HW220738   1.013   3.857   0.923  0.7110  0.1148 -1.9199
 5243SOL    HW320739   0.999   3.995   0.985 -3.0113  0.0521 -2.4143
 5243SOL    MW420740   1.038   3.941   0.928  0.0687 -0.4015  0.7499
 5244SOL     OW20741   1.249   3.915   0.140  0.0769  0.7428  0.0693
 5244SOL    HW220742   1.222   3.965   0.062 -1.4059  0.3740  0.3247
 5244SOL    HW320743   1.300   3.842   0.105 -2.4086 -0.6706 -0.7954
 5244SOL    MW420744   1.253   3.912   0.125  0.3224 -0.5222 -0.1274
 5245SOL     OW20745   4.094   3.642   0.274 -0.3713  0.0825 -0.0402
 5245SOL    HW220746   4.091   3.616   0.182  1.3404 -0.7857  0.1019
 5245SOL    HW320747   4.061   3.732   0.275  3.3932  1.7372 -2.2166
 5245SOL    MW420748   4.090   3.651   0.262  0.5394 -0.2059 -0.4567
 5246SOL     OW20749   2.383   1.851   0.096  0.3493  0.3628 -0.6322
 5246SOL    HW220750   2.429   1.934   0.081 -0.0660  0.8374  0.6100
 5246SOL    HW320751   2.328   1.841   0.018  3.7688 -1.1563 -3.1117
 5246SOL    MW420752   2.382   1.861   0.084 -0.2847  0.1950  0.2956
 5247SOL     OW20753   4.992   2.960   1.413 -0.4031  0.0003 -0.6172
 5247SOL    HW220754   5.072   3.012   1.411 -1.1442  1.1906 -0.2568
 5247SOL    HW320755   5.002   2.898   1.341  2.2877 -2.1208  1.3735
 5247SOL    MW420756   5.004   2.959   1.403  0.0075  0.5339 -0.3743
 5248SOL     OW20757   1.578   5.993   1.422 -0.4058 -0.0119 -0.3361
 5248SOL    HW220758   1.547   5.951   1.503  0.1206  0.6251  0.2087
 5248SOL    HW320759   1.654   6.044   1.450 -0.1815  0.1606 -1.2548
 5248SOL    MW420760   1.584   5.994   1.437  0.0566 -0.3807 -0.3275
 5249SOL     OW20761   3.295   6.059   3.174 -0.3272 -0.0133 -0.2929
 5249SOL    HW220762   3.290   6.021   3.262  3.5285 -1.4620 -0.5334
 5249SOL    HW320763   3.254   5.994   3.117  1.9162 -1.7081 -0.1020
 5249SOL    MW420764   3.289   6.045   3.178  0.2658  0.0871  0.1301
 5250SOL     OW20765   1.619   5.260   1.321  0.0088  0.4936  0.3224
 5250SOL    HW220766   1.671   5.338   1.301 -0.3355  0.6742  0.1220
 5250SOL    HW320767   1.636   5.242   1.413  0.3354  0.6190  0.2865
 5250SOL    MW420768   1.628   5.268   1.330  0.3822 -0.3275  0.1028
 5251SOL     OW20769   5.470   4.401   2.333 -0.3368 -0.8477  0.3539
 5251SOL    HW220770   5.498   4.314   2.306  0.0531 -0.5395 -0.2873
 5251SOL    HW320771   5.383   4.412   2.296  0.4425 -0.1868 -1.4234
 5251SOL    MW420772   5.462   4.391   2.325  0.2869  0.3791 -0.2092
 5252SOL     OW20773   3.338   3.346   2.396  0.2123  0.6112 -0.4395
 5252SOL    HW220774   3.315   3.352   2.303 -0.1677  0.7308 -0.3387
 5252SOL    HW320775   3.323   3.254   2.419 -1.3493  0.9181 -0.0783
 5252SOL    MW420776   3.333   3.335   2.387  0.1984  0.1805 -0.2416
 5253SOL     OW20777   2.664   5.911   1.282  0.3794  0.6449  0.0151
 5253SOL    HW220778   2.652   5.838   1.342  2.2254  1.4561  1.4711
 5253SOL    HW320779   2.745   5.890   1.235  0.4321  1.3163 -0.2054
 5253SOL    MW420780   2.673   5.899   1.283 -0.0265  0.1802 -0.0954
 5254SOL     OW20781   4.485   4.046   5.763 -0.1589 -0.7095 -0.0065
 5254SOL    HW220782   4.555   4.010   5.818 -3.4607 -1.2658  4.4497
 5254SOL    HW320783   4.411   3.988   5.778 -1.8598  0.1232 -4.0160
 5254SOL    MW420784   4.484   4.034   5.772 -0.3822  0.4530  0.0772
 5255SOL     OW20785   4.634   1.294   0.619 -0.0524  0.3945  0.0508
 5255SOL    HW220786   4.561   1.332   0.569 -0.6440 -1.8106 -0.8684
 5255SOL    HW320787   4.711   1.313   0.565 -0.3888 -0.0580 -0.6004
 5255SOL    MW420788   4.634   1.302   0.605 -0.2039 -0.8238 -0.3175
 5256SOL     OW20789   2.916   3.242   0.924  0.0272  0.3648 -0.1825
 5256SOL    HW220790   2.853   3.251   0.852 -0.1504 -0.3602 -0.1285
 5256SOL    HW320791   2.908   3.324   0.974 -0.9256  0.2575 -0.1411
 5256SOL    MW420792   2.907   3.254   0.921  0.2166  0.1693 -0.3015
 5257SOL     OW20793   3.196   3.962   3.651 -0.2180  0.0327 -0.1556
 5257SOL    HW220794   3.289   3.947   3.667  0.2665 -0.2647 -2.6990
 5257SOL    HW320795   3.186   4.057   3.655  0.0349  0.0173  0.8549
 5257SOL    MW420796   3.207   3.973   3.653 -0.5965  0.2056  0.2982
 5258SOL     OW20797   4.268   4.971   4.301 -0.3230  1.0019  0.8243
 5258SOL    HW220798   4.205   4.980   4.372 -2.4294  0.9574 -0.9403
 5258SOL    HW320799   4.215   4.967   4.221  1.8653 -0.0049 -0.7020
 5258SOL    MW420800   4.253   4.972   4.300  0.4340  0.1079  0.1596
 5259SOL     OW20801   0.409   5.878   4.718  0.0806 -0.4222 -0.2182
 5259SOL    HW220802   0.364   5.834   4.646 -0.8970 -0.5280  0.4432
 5259SOL    HW320803   0.422   5.968   4.686 -0.5125 -0.4169 -0.4562
 5259SOL    MW420804   0.405   5.884   4.704 -0.0181  0.6857 -0.0174
 5260SOL     OW20805   3.893   4.496   4.560  0.1336  0.6624 -0.1105
 5260SOL    HW220806   3.958   4.449   4.509 -0.4045 -0.6783  0.3802
 5260SOL    HW320807   3.870   4.572   4.507 -0.6660 -0.8592 -2.0593
 5260SOL    MW420808   3.898   4.499   4.546 -0.5394  0.6050  0.3077
 5261SOL     OW20809   1.331   2.463   0.915 -0.1942  0.2051  0.2169
 5261SOL    HW220810   1.293   2.481   1.001 -2.2275 -0.1199 -0.5407
 5261SOL    HW320811   1.290   2.526   0.857  0.1988 -0.3830 -0.7242
 5261SOL    MW420812   1.320   2.473   0.919  0.0475 -0.8891 -0.2454
 5262SOL     OW20813   4.814   4.613   3.074 -0.2757  0.2317  0.3844
 5262SOL    HW220814   4.808   4.526   3.114  0.4795 -0.8875 -1.8190
 5262SOL    HW320815   4.751   4.665   3.123 -1.4799 -1.7958  1.1413
 5262SOL    MW420816   4.805   4.608   3.086  0.2994 -0.0673  0.0402
 5263SOL     OW20817   6.394   4.655   0.272 -0.2029 -0.0573  0.3404
 5263SOL    HW220818   6.360   4.726   0.327 -0.3226  0.8178 -0.8424
 5263SOL    HW320819   6.487   4.675   0.261  0.0022 -0.6714  0.8671
 5263SOL    MW420820   6.402   4.667   0.278  0.0509 -0.5984  0.2372
 5264SOL     OW20821   6.027   0.007   2.140 -0.2425  0.0963 -0.0907
 5264SOL    HW220822   6.021  -0.051   2.215  1.2042  0.6581  0.4921
 5264SOL    HW320823   6.049   0.093   2.177  3.6324 -0.1894 -1.2196
 5264SOL    MW420824   6.029   0.011   2.155  0.1429 -0.2949 -0.8332
 5265SOL     OW20825   5.245   6.229   5.043  0.4135 -0.7549 -0.1760
 5265SOL    HW220826   5.312   6.195   5.102  1.4746  1.2661 -0.1424
 5265SOL    HW320827   5.203   6.300   5.092 -0.5368 -0.8203 -0.8660
 5265SOL    MW420828   5.249   6.234   5.057 -0.8187  0.4216  0.4426
 5266SOL     OW20829   1.118   1.093   3.158  0.1376  0.3204  0.4169
 5266SOL    HW220830   1.093   1.133   3.075 -0.2631  1.3178  1.0076
 5266SOL    HW320831   1.035   1.073   3.202  0.2840 -1.9636 -0.2056
 5266SOL    MW420832   1.104   1.096   3.153  0.4063 -0.0046  0.2492
 5267SOL     OW20833   1.190   2.382   5.953 -0.5654  0.4157  0.1489
 5267SOL    HW220834   1.211   2.463   5.907 -0.3923  0.0127 -0.4892
 5267SOL    HW320835   1.210   2.401   6.045 -1.1626  1.3113  0.1084
 5267SOL    MW420836   1.195   2.396   5.959 -0.1564  0.4977 -0.0387
 5268SOL     OW20837   2.022   2.712   3.874  0.2766 -0.1745  0.6947
 5268SOL    HW220838   2.047   2.620   3.861 -0.4155 -0.2321 -0.3666
 5268SOL    HW320839   1.927   2.714   3.862 -0.0653  0.3290  2.9727
 5268SOL    MW420840   2.013   2.700   3.870 -0.1098 -0.1759  0.3269
 5269SOL     OW20841   0.744   5.104   2.173  0.0802  0.3802  0.0968
 5269SOL    HW220842   0.695   5.022   2.177 -0.7048  0.8333  0.0438
 5269SOL    HW320843   0.836   5.078   2.170 -0.1983 -0.5310 -1.1388
 5269SOL    MW420844   0.750   5.090   2.173  0.4689 -0.1163  0.6461
 5270SOL     OW20845   3.052   2.891   1.714 -0.0429 -0.1638 -0.5988
 5270SOL    HW220846   3.027   2.848   1.632 -0.4497  0.0683 -0.5997
 5270SOL    HW320847   3.100   2.824   1.762 -0.0997 -0.4105 -0.8800
 5270SOL    MW420848   3.055   2.876   1.709  0.1612  0.7479  0.2741
 5271SOL     OW20849   6.085   0.662   0.299  0.0098  0.5098  0.9311
 5271SOL    HW220850   6.120   0.716   0.228  2.3221  1.9433  2.9705
 5271SOL    HW320851   6.010   0.712   0.333 -1.4839 -0.4733 -0.7745
 5271SOL    MW420852   6.080   0.676   0.294  0.3149  0.6175 -0.0239
 5272SOL     OW20853   2.697   1.301   3.777 -0.0897 -0.0796 -0.0112
 5272SOL    HW220854   2.690   1.300   3.872 -2.2174 -0.8300 -0.1202
 5272SOL    HW320855   2.711   1.393   3.754 -1.2388  0.3470  0.9472
 5272SOL    MW420856   2.698   1.313   3.786 -0.2341 -0.3770  0.2501
 5273SOL     OW20857   1.286   4.777   0.300 -0.2098 -0.7287  0.0958
 5273SOL    HW220858   1.353   4.766   0.232 -0.5401  0.4276 -0.4386
 5273SOL    HW320859   1.274   4.689   0.336 -0.4476 -1.4925 -1.7463
 5273SOL    MW420860   1.293   4.764   0.295 -0.1404 -0.5036 -0.2165
 5274SOL     OW20861   1.006   5.361   0.653 -0.3847  0.0022 -0.1355
 5274SOL    HW220862   0.950   5.408   0.714 -0.7617 -0.3069 -0.2368
 5274SOL    HW320863   0.954   5.357   0.572 -1.0251 -1.9445  0.3261
 5274SOL    MW420864   0.991   5.367   0.650 -0.1298 -0.0418 -0.0805
 5275SOL     OW20865   6.441   1.620   1.631  0.4486  0.3608 -1.0334
 5275SOL    HW220866   6.500   1.691   1.655  0.9526  0.2089 -1.7925
 5275SOL    HW320867   6.483   1.579   1.556 -0.2746 -0.1958 -1.1379
 5275SOL    MW420868   6.454   1.624   1.625 -0.1469 -0.3566 -0.0794
 5276SOL     OW20869   1.629   5.902   5.131  0.0473 -0.1902  0.0425
 5276SOL    HW220870   1.678   5.971   5.088  0.9217 -0.4694  0.5622
 5276SOL    HW320871   1.587   5.945   5.205  0.2046 -0.1153  0.0896
 5276SOL    MW420872   1.630   5.917   5.135 -0.0375 -0.0794 -0.2815
 5277SOL     OW20873   0.093   2.870   3.621  0.2059  1.1291 -0.2275
 5277SOL    HW220874   0.145   2.900   3.546  0.3241  0.3401 -0.4674
 5277SOL    HW320875   0.138   2.792   3.652 -0.0299  1.2606  0.4674
 5277SOL    MW420876   0.106   2.864   3.615  0.7762 -0.4401 -0.2352
 5278SOL     OW20877   4.303   0.541   4.495  0.1964 -0.0074  0.4736
 5278SOL    HW220878   4.230   0.552   4.555 -1.8530  0.9027 -1.9852
 5278SOL    HW320879   4.338   0.630   4.483  1.4140 -0.3656  1.2486
 5278SOL    MW420880   4.298   0.555   4.501  0.2704  0.2328 -0.1354
 5279SOL     OW20881   5.465   0.977   4.949 -0.1468 -0.3427  0.1283
 5279SOL    HW220882   5.523   1.004   4.878 -0.0980  0.2680  0.3925
 5279SOL    HW320883   5.393   0.931   4.906  1.2316 -2.4637 -0.1275
 5279SOL    MW420884   5.463   0.974   4.934  0.6969 -0.8501  0.0697
 5280SOL     OW20885   1.785   2.206   2.688 -0.4628 -0.1758 -0.5337
 5280SOL    HW220886   1.846   2.152   2.638  1.0944  0.0325  1.0546
 5280SOL    HW320887   1.781   2.289   2.640  0.2505 -0.3056 -0.8219
 5280SOL    MW420888   1.792   2.210   2.675  0.4159  0.2682 -0.5469
 5281SOL     OW20889   0.606   0.385   3.806 -0.9260  0.0574  0.0332
 5281SOL    HW220890   0.633   0.332   3.731 -1.0640 -0.9161  0.6586
 5281SOL    HW320891   0.528   0.342   3.839 -1.4847  1.0966  0.1033
 5281SOL    MW420892   0.599   0.373   3.800  0.5408  0.5215 -0.3042
 5282SOL     OW20893   5.147   3.217   6.416 -0.2115 -0.2836 -0.5153
 5282SOL    HW220894   5.160   3.198   6.509  2.0273 -2.2385 -1.1502
 5282SOL    HW320895   5.146   3.131   6.373  1.7606  0.6348 -2.6118
 5282SOL    MW420896   5.148   3.203   6.423 -0.5494  0.0538  0.1719
 5283SOL     OW20897   3.251   1.043   6.336  0.3313  0.6315 -0.3213
 5283SOL    HW220898   3.298   0.974   6.289  0.5125 -0.5184  1.4536
 5283SOL    HW320899   3.318   1.082   6.393 -0.2056  0.9641  0.0885
 5283SOL    MW420900   3.266   1.039   6.337 -0.1022  0.2371 -0.3033
 5284SOL     OW20901   0.879   3.748   5.333  0.7338  0.1139 -0.3143
 5284SOL    HW220902   0.899   3.688   5.262 -0.1073  0.7274 -1.0943
 5284SOL    HW320903   0.791   3.724   5.361  1.4128 -0.7513  1.2021
 5284SOL    MW420904   0.870   3.737   5.327  0.8061  0.2431 -0.5456
 5285SOL     OW20905   6.082   2.175   1.805  0.2717  0.1720 -0.0742
 5285SOL    HW220906   6.056   2.263   1.776 -0.9195 -0.2260 -0.2556
 5285SOL    HW320907   6.096   2.127   1.724  1.0480  0.2195  0.0262
 5285SOL    MW420908   6.080   2.180   1.790  0.7137  0.1310 -0.1784
 5286SOL     OW20909   0.816   1.988   3.132  0.1930 -0.6056  0.4113
 5286SOL    HW220910   0.790   1.920   3.069  2.1306 -1.6329  0.6464
 5286SOL    HW320911   0.741   1.996   3.191 -1.0526 -0.7287 -1.0915
 5286SOL    MW420912   0.802   1.980   3.131 -0.3008 -0.1760 -0.6072
 5287SOL     OW20913   5.275   5.760   4.430 -0.4417  0.2762  0.1556
 5287SOL    HW220914   5.284   5.777   4.523  0.8612 -1.4412  0.4086
 5287SOL    HW320915   5.356   5.794   4.391 -0.5995  0.2428 -0.2124
 5287SOL    MW420916   5.287   5.766   4.437 -0.0775  0.6158 -0.2199
 5288SOL     OW20917   4.774   5.182   5.322  0.7891 -0.1915  0.1227
 5288SOL    HW220918   4.801   5.149   5.408 -0.4821  2.2533  1.5663
 5288SOL    HW320919   4.741   5.104   5.277 -2.3308 -1.0868  3.4147
 5288SOL    MW420920   4.773   5.167   5.328  0.3544  0.4293  0.5297
 5289SOL     OW20921   2.061   0.009   2.668 -0.3589 -0.0077 -0.0783
 5289SOL    HW220922   2.080  -0.065   2.611  1.4306  2.1859 -2.6007
 5289SOL    HW320923   1.974   0.038   2.642 -1.1136 -1.2220  0.9979
 5289SOL    MW420924   2.052   0.003   2.657  0.2457 -0.4662  0.4181
 5290SOL     OW20925   2.671   2.777   1.407 -0.0247  0.2213 -0.3317
 5290SOL    HW220926   2.706   2.706   1.461 -1.4018 -0.4440 -0.2671
 5290SOL    HW320927   2.740   2.794   1.343  0.3123 -1.2423 -0.3964
 5290SOL    MW420928   2.685   2.770   1.406 -0.2791  0.4946 -0.2421
 5291SOL     OW20929   2.412   3.936   5.979 -0.6280  0.0313  0.2935
 5291SOL    HW220930   2.373   3.856   5.945 -0.6776 -0.1108  0.6704
 5291SOL    HW320931   2.394   3.932   6.073 -1.5507  0.9962  0.1749
 5291SOL    MW420932   2.404   3.925   5.987 -0.2956 -0.4869 -0.0710
 5292SOL     OW20933   0.728   1.429   0.400 -0.0567 -0.3936  0.0440
 5292SOL    HW220934   0.812   1.385   0.395 -0.5969 -1.3433 -0.9846
 5292SOL    HW320935   0.737   1.504   0.341  0.7139  0.7144  1.4719
 5292SOL    MW420936   0.740   1.433   0.392  0.1050 -0.0690 -0.1318
 5293SOL     OW20937   2.275   3.716   5.904  0.0720  0.3471 -0.4547
 5293SOL    HW220938   2.229   3.698   5.823 -0.2637 -0.7347 -0.0417
 5293SOL    HW320939   2.264   3.637   5.956 -0.7977  1.4568  1.1518
 5293SOL    MW420940   2.268   3.703   5.900 -0.6378 -0.8751  0.1377
 5294SOL     OW20941   1.707   0.434   5.199 -0.0211  0.2217  0.1381
 5294SOL    HW220942   1.693   0.528   5.203 -0.9964  0.0723  0.6624
 5294SOL    HW320943   1.764   0.421   5.124  0.9792  1.3211  0.6751
 5294SOL    MW420944   1.712   0.445   5.190 -0.2690 -0.0898 -0.1029
 5295SOL     OW20945   0.574   5.338   3.321 -0.5488 -0.0592 -0.0488
 5295SOL    HW220946   0.662   5.301   3.315 -0.2538  0.6240 -0.0163
 5295SOL    HW320947   0.563   5.387   3.239 -0.6485  0.3732  0.2180
 5295SOL    MW420948   0.584   5.340   3.309 -0.2077 -0.0629 -0.0990
 5296SOL     OW20949   3.506   4.658   3.954 -0.3550 -0.0039 -0.0537
 5296SOL    HW220950   3.504   4.625   3.864 -0.7807 -0.8033  0.2440
 5296SOL    HW320951   3.423   4.704   3.965  0.1994  1.1365 -0.4388
 5296SOL    MW420952   3.495   4.660   3.944  0.3884  0.2528  0.0717
 5297SOL     OW20953   0.458   3.942   2.905 -0.2175 -0.1912  0.1394
 5297SOL    HW220954   0.521   3.960   2.975 -1.9082 -1.8233  2.2328
 5297SOL    HW320955   0.438   4.028   2.867  4.0400  0.3218 -1.5216
 5297SOL    MW420956   0.464   3.955   2.909  0.4004  0.2309 -0.1019
 5298SOL     OW20957   5.772   4.918   6.122  0.4266  0.0000 -0.7645
 5298SOL    HW220958   5.760   4.954   6.210  0.2025  0.2955 -0.9127
 5298SOL    HW320959   5.824   4.984   6.077  0.4921 -0.1252 -0.8724
 5298SOL    MW420960   5.777   4.932   6.128 -0.4420  0.0195  0.2123
 5299SOL     OW20961   1.614   5.070   4.892  0.4197 -0.1808  0.2491
 5299SOL    HW220962   1.638   5.147   4.943  2.2713 -0.7969  0.3847
 5299SOL    HW320963   1.632   4.996   4.950  0.0584 -0.7810 -0.3866
 5299SOL    MW420964   1.620   5.070   4.906  0.2885 -0.2432  0.1626
 5300SOL     OW20965   3.415   2.854   3.693 -0.5766 -0.0089  0.5159
 5300SOL    HW220966   3.341   2.900   3.652 -0.2052  0.6162  0.5402
 5300SOL    HW320967   3.392   2.761   3.686 -0.7106  0.1108 -0.7231
 5300SOL    MW420968   3.402   2.848   3.687  0.1339 -0.2413 -0.2039
 5301SOL     OW20969   3.806   5.637   4.130 -0.3354  0.2059 -0.1972
 5301SOL    HW220970   3.716   5.630   4.162 -0.8137  0.8511 -1.3567
 5301SOL    HW320971   3.797   5.638   4.035  0.6703  3.0427 -0.3308
 5301SOL    MW420972   3.793   5.636   4.122 -0.2699  0.8190 -0.1899
 5302SOL     OW20973   5.370   0.697   4.735 -0.1575 -0.0430 -0.0352
 5302SOL    HW220974   5.412   0.623   4.690  4.1379  1.4014  1.1586
 5302SOL    HW320975   5.353   0.665   4.823  0.0088 -0.1379 -0.0371
 5302SOL    MW420976   5.373   0.683   4.740  0.3609 -0.2278 -0.4174
 5303SOL     OW20977   5.196   2.940   5.693 -0.1132  0.7317 -0.0451
 5303SOL    HW220978   5.202   2.854   5.734  2.5228  1.1110  0.5464
 5303SOL    HW320979   5.157   2.923   5.607 -2.1674 -0.6078  1.0595
 5303SOL    MW420980   5.192   2.927   5.687  0.0836  0.0142  0.5802
 5304SOL     OW20981   3.904   4.539   3.758  0.4282  0.2582  0.5746
 5304SOL    HW220982   3.854   4.553   3.839  0.2570 -0.8614  0.6751
 5304SOL    HW320983   3.858   4.592   3.692 -0.9470 -0.7706  0.6554
 5304SOL    MW420984   3.891   4.548   3.760  0.2803  0.3101 -0.0193
 5305SOL     OW20985   4.441   4.584   4.572  0.1973 -0.1622  0.3727
 5305SOL    HW220986   4.481   4.501   4.599  0.4771 -0.1419  0.0214
 5305SOL    HW320987   4.504   4.651   4.599 -0.6075  0.0553  1.8402
 5305SOL    MW420988   4.454   4.582   4.579 -0.9178 -0.1525  0.6983
 5306SOL     OW20989   0.217   3.040   4.906 -0.0708  0.4369  0.1285
 5306SOL    HW220990   0.239   3.126   4.871  0.5973 -0.2014 -1.0665
 5306SOL    HW320991   0.301   3.001   4.928 -0.3022 -0.2798 -0.2443
 5306SOL    MW420992   0.231   3.046   4.905  0.2053 -0.3118  0.7255
 5307SOL     OW20993   4.295   5.313   6.152  0.6517 -0.1302  0.0274
 5307SOL    HW220994   4.315   5.357   6.235  0.1218  0.4726 -0.1576
 5307SOL    HW320995   4.323   5.375   6.085 -0.0790 -0.0747 -0.2375
 5307SOL    MW420996   4.301   5.327   6.154  0.2734 -0.6051 -0.6125
 5308SOL     OW20997   0.299   1.300   3.284 -0.0121 -0.3044  0.4402
 5308SOL    HW220998   0.267   1.376   3.333 -0.6267 -1.6619  2.2526
 5308SOL    HW320999   0.377   1.272   3.331  0.0544 -0.9541 -0.0432
 5308SOL    MW421000   0.305   1.307   3.297 -0.2463 -0.4811  0.1909
 5309SOL     OW21001   2.025   2.160   1.945 -0.1990 -0.2184 -0.0139
 5309SOL    HW221002   1.971   2.239   1.944  0.4659  0.3298  2.4090
 5309SOL    HW321003   2.109   2.189   1.980  0.5426 -1.7489 -0.4475
 5309SOL    MW421004   2.029   2.175   1.949 -0.8660  0.2640 -0.0894
 5310SOL     OW21005   1.661   3.862   3.884 -0.3861  0.7094 -0.4697
 5310SOL    HW221006   1.652   3.894   3.974 -1.8053 -1.2986  0.1749
 5310SOL    HW321007   1.574   3.830   3.861  0.2265  0.1221 -2.1374
 5310SOL    MW421008   1.648   3.862   3.893 -0.6501 -0.0495 -0.4728
 5311SOL     OW21009   6.380   4.294   6.013 -0.1808  0.5536 -0.2301
 5311SOL    HW221010   6.474   4.308   5.998 -0.1468  1.2107  0.5322
 5311SOL    HW321011   6.340   4.306   5.927  0.3474  1.0827 -0.4126
 5311SOL    MW421012   6.387   4.297   6.000 -0.0081  0.3285  0.1614
 5312SOL     OW21013   3.914   0.499   5.528  0.1806 -0.2346 -0.3111
 5312SOL    HW221014   3.938   0.469   5.440  1.3772 -0.1045 -0.0422
 5312SOL    HW321015   3.820   0.516   5.522 -0.1419 -2.0075 -1.0543
 5312SOL    MW421016   3.904   0.497   5.515 -0.2197  0.2613  0.9984
 5313SOL     OW21017   3.966   4.447   0.267  0.0361  0.0775 -0.0274
 5313SOL    HW221018   4.002   4.535   0.258 -1.9272  1.0110  0.6466
 5313SOL    HW321019   4.011   4.409   0.342  1.7052  0.0415 -1.0111
 5313SOL    MW421020   3.976   4.453   0.276 -0.5511  0.5525 -0.2631
 5314SOL     OW21021   3.805   1.403   1.432  0.4001  0.5202  0.2263
 5314SOL    HW221022   3.827   1.495   1.418  1.1636  0.3203  0.0737
 5314SOL    HW321023   3.887   1.363   1.458 -0.4478  0.3916  2.9928
 5314SOL    MW421024   3.818   1.410   1.434  0.0727 -0.2582 -0.3473
 5315SOL     OW21025   3.904   2.553   5.778  0.2032 -0.5198 -0.6425
 5315SOL    HW221026   3.821   2.574   5.735  1.0645  0.3958 -1.9219
 5315SOL    HW321027   3.910   2.615   5.850  0.1620 -0.0344 -1.0551
 5315SOL    MW421028   3.894   2.564   5.782 -0.2433 -0.3474  0.0132
 5316SOL     OW21029   0.769   5.085   0.546  0.5382  0.4096 -0.0885
 5316SOL    HW221030   0.799   5.170   0.513  0.7748 -0.7210 -3.0918
 5316SOL    HW321031   0.840   5.054   0.601  1.8655  0.8546 -1.4777
 5316SOL    MW421032   0.782   5.092   0.549  0.3866  0.6862 -0.4331
 5317SOL     OW21033   5.324   6.253   3.196 -0.1837  0.4042 -0.2074
 5317SOL    HW221034   5.334   6.308   3.273 -0.6912  1.0342 -0.5738
 5317SOL    HW321035   5.412   6.221   3.177 -0.0274  0.3851  0.5274
 5317SOL    MW421036   5.337   6.256   3.204  0.1203  0.0758  0.2690
 5318SOL     OW21037   6.022   2.363   4.689  0.3204  0.1285 -0.7487
 5318SOL    HW221038   6.029   2.334   4.780 -1.2554 -0.2181 -0.7076
 5318SOL    HW321039   6.104   2.409   4.672  1.0235 -0.5735  0.5592
 5318SOL    MW421040   6.034   2.365   4.699  0.0398  0.7305 -0.2009
 5319SOL     OW21041   5.080   5.921   4.312 -0.2947  0.1433 -0.3611
 5319SOL    HW221042   5.010   5.914   4.376 -0.4323  0.7722 -0.4356
 5319SOL    HW321043   5.151   5.868   4.348 -0.3817  0.4630  0.2979
 5319SOL    MW421044   5.080   5.913   4.325 -0.6990  0.1668 -0.2730
 5320SOL     OW21045   4.857   5.085   3.499 -0.0636  1.3017 -0.6503
 5320SOL    HW221046   4.803   5.015   3.537 -0.6893  2.2435  0.2336
 5320SOL    HW321047   4.816   5.102   3.414 -1.1438  1.9668 -0.0125
 5320SOL    MW421048   4.844   5.078   3.493 -0.1741 -0.1786 -0.3179
 5321SOL     OW21049   1.553  -0.011   3.350 -0.5104  0.3215 -0.2349
 5321SOL    HW221050   1.506  -0.040   3.271 -2.4099  2.3818  0.0428
 5321SOL    HW321051   1.589   0.074   3.326 -0.8853  0.8583  1.0219
 5321SOL    MW421052   1.551  -0.004   3.336  0.2248  0.0031  0.4975
 5322SOL     OW21053   2.170   2.538   1.477  0.3234  0.0965  0.2990
 5322SOL    HW221054   2.120   2.544   1.558  2.3482 -0.7656  1.6910
 5322SOL    HW321055   2.212   2.452   1.481 -0.0666 -0.2522 -2.0255
 5322SOL    MW421056   2.169   2.528   1.488 -0.2561  0.0313  0.4601
 5323SOL     OW21057   5.428   4.176   1.862 -0.1247  0.1898 -0.0986
 5323SOL    HW221058   5.462   4.137   1.782 -1.3836 -2.6215  0.6152
 5323SOL    HW321059   5.346   4.217   1.836  0.3337  0.8232 -0.5531
 5323SOL    MW421060   5.422   4.176   1.848  0.5289  0.5415  0.0851
 5324SOL     OW21061   5.448   1.469   6.069  0.5020 -0.4101 -0.8036
 5324SOL    HW221062   5.410   1.456   5.982  0.7359  1.7684 -1.2854
 5324SOL    HW321063   5.509   1.395   6.079  2.3124  0.5427 -3.5834
 5324SOL    MW421064   5.451   1.457   6.059 -0.3566 -0.2128 -0.3074
 5325SOL     OW21065   3.351   1.700   2.418 -0.2822 -0.0411 -0.7470
 5325SOL    HW221066   3.336   1.702   2.513  0.2770  0.9140 -0.6588
 5325SOL    HW321067   3.308   1.780   2.386  0.0584 -0.0369 -1.2048
 5325SOL    MW421068   3.343   1.711   2.427 -0.1112  0.1564 -0.4724
 5326SOL     OW21069   5.096   1.511   5.138  0.1368  0.0139 -0.1256
 5326SOL    HW221070   5.185   1.478   5.144  0.6599  1.2530 -0.7535
 5326SOL    HW321071   5.102   1.588   5.082 -1.0466  1.0812  1.1277
 5326SOL    MW421072   5.108   1.517   5.131 -0.8546 -0.2462  0.4459
 5327SOL     OW21073   1.683   5.394   0.889 -0.3790  0.0248 -0.3560
 5327SOL    HW221074   1.713   5.314   0.932  2.0929 -0.1212 -2.1079
 5327SOL    HW321075   1.731   5.465   0.933  0.1835  0.1368 -1.1262
 5327SOL    MW421076   1.693   5.393   0.900 -0.6834 -0.0715  0.2715
 5328SOL     OW21077   0.098   0.132   3.607 -0.5538 -0.5096 -0.0557
 5328SOL    HW221078   0.043   0.207   3.585 -1.1961 -1.3014 -1.2539
 5328SOL    HW321079   0.063   0.101   3.691 -1.1488 -0.2729 -0.2108
 5328SOL    MW421080   0.086   0.138   3.615  0.0099  0.1381  0.1406
 5329SOL     OW21081   0.598   4.228   1.875 -0.1702 -0.3400 -0.7660
 5329SOL    HW221082   0.598   4.138   1.842 -0.1929 -0.6747  0.1347
 5329SOL    HW321083   0.548   4.225   1.956  1.0062  0.2038  0.0142
 5329SOL    MW421084   0.591   4.216   1.881  0.0316  0.1075  0.7936
 5330SOL     OW21085   0.256   2.954   0.924  0.2741  0.2869  0.0604
 5330SOL    HW221086   0.213   2.879   0.882  0.7424 -0.2471  0.5217
 5330SOL    HW321087   0.209   3.030   0.890  0.8660 -0.0831 -1.7482
 5330SOL    MW421088   0.244   2.954   0.914  0.5186  0.2680  0.1488
 5331SOL     OW21089   1.402   1.474   2.637 -1.0424  0.2648  0.2640
 5331SOL    HW221090   1.373   1.450   2.549  0.7168 -0.4578 -0.1476
 5331SOL    HW321091   1.467   1.409   2.660  0.4685  1.9489  1.0153
 5331SOL    MW421092   1.406   1.462   2.629 -0.0820  0.4339 -0.0221
 5332SOL     OW21093   4.394   5.276   2.430 -0.7997 -0.6057  0.4980
 5332SOL    HW221094   4.327   5.341   2.408 -0.8884 -1.0160 -0.4565
 5332SOL    HW321095   4.392   5.213   2.359  2.0985  0.5165 -0.7579
 5332SOL    MW421096   4.385   5.276   2.418  0.0148  0.2420 -0.1299
 5333SOL     OW21097   0.794   2.042   4.407  0.0108 -0.1164  0.3487
 5333SOL    HW221098   0.855   2.053   4.334  0.7575 -1.0197  0.8156
 5333SOL    HW321099   0.796   2.126   4.453 -0.7404  0.5916 -0.8479
 5333SOL    MW421100   0.802   2.055   4.404  0.4546 -0.0617 -0.5570
 5334SOL     OW21101   5.347   2.136   3.247 -0.0613  0.2911  0.4156
 5334SOL    HW221102   5.408   2.095   3.186  1.2174  2.0118  0.4660
 5334SOL    HW321103   5.358   2.230   3.232 -0.6938  0.7250  2.3732
 5334SOL    MW421104   5.356   2.143   3.237  0.0744  0.4481  0.4724
 5335SOL     OW21105   2.782   0.464   2.712  0.7319  0.6214 -0.2274
 5335SOL    HW221106   2.751   0.382   2.675  1.9534  0.0782 -0.0776
 5335SOL    HW321107   2.805   0.518   2.636 -2.9011  2.0805 -0.5111
 5335SOL    MW421108   2.781   0.461   2.697  0.0752 -0.5632  0.5078
 5336SOL     OW21109   2.390   5.593   5.470  0.2834 -0.0213  0.1916
 5336SOL    HW221110   2.345   5.568   5.390  0.4653  0.1734  0.0227
 5336SOL    HW321111   2.429   5.512   5.503 -1.5028 -0.4999  1.2041
 5336SOL    MW421112   2.389   5.579   5.464  0.0461  0.2226 -0.8016
 5337SOL     OW21113   6.343   2.558   4.887  0.0224  0.4932 -0.0268
 5337SOL    HW221114   6.316   2.529   4.800 -1.7945  2.0571 -0.0265
 5337SOL    HW321115   6.418   2.615   4.871  0.3657 -0.0592 -0.4477
 5337SOL    MW421116   6.349   2.562   4.874  0.0542 -0.2268 -0.6497
 5338SOL     OW21117   4.613   0.776   5.389  0.0384 -0.0559 -0.3372
 5338SOL    HW221118   4.685   0.818   5.437  0.5042 -0.1392 -0.9549
 5338SOL    HW321119   4.544   0.842   5.387  0.7419  0.6745 -1.2436
 5338SOL    MW421120   4.613   0.790   5.395 -0.0193 -0.0674 -0.1060
 5339SOL     OW21121   5.096   1.663   4.550  0.3788  0.0939  0.4337
 5339SOL    HW221122   5.138   1.729   4.495  1.3639 -1.9255 -1.3510
 5339SOL    HW321123   5.048   1.607   4.489 -1.8077  0.0418  2.0539
 5339SOL    MW421124   5.095   1.664   4.535  0.7370  0.4816  0.0424
 5340SOL     OW21125   0.520   1.207   0.376  0.0593 -0.2324  0.6235
 5340SOL    HW221126   0.558   1.139   0.319  1.3615 -1.4207  2.7920
 5340SOL    HW321127   0.582   1.279   0.372  0.8389 -0.8364  1.5219
 5340SOL    MW421128   0.533   1.208   0.368 -0.1136 -0.0640  0.5032
 5341SOL     OW21129   4.207   4.628   1.442  0.5774 -0.0708 -0.8083
 5341SOL    HW221130   4.250   4.584   1.368 -0.2500 -1.7933 -0.3102
 5341SOL    HW321131   4.279   4.648   1.502  0.8900 -1.9757 -0.4650
 5341SOL    MW421132   4.223   4.625   1.440 -0.6254  0.0035 -0.1140
 5342SOL     OW21133   0.669   4.594   6.401 -0.3538 -0.2326  0.1949
 5342SOL    HW221134   0.641   4.506   6.425  0.9343 -0.3534  1.3710
 5342SOL    HW321135   0.589   4.639   6.378 -1.0417 -1.7193 -0.4703
 5342SOL    MW421136   0.655   4.588   6.401 -0.0629  0.1910 -0.3408
 5343SOL     OW21137   4.411   5.847   5.342 -0.2815 -0.5768  0.5022
 5343SOL    HW221138   4.487   5.904   5.326 -1.1018  0.5959  0.6490
 5343SOL    HW321139   4.374   5.880   5.424 -1.1707 -0.9006  0.2342
 5343SOL    MW421140   4.416   5.859   5.351  0.0353 -0.2526 -0.1788
 5344SOL     OW21141   5.145   6.261   5.822 -0.1983 -0.3898 -0.1711
 5344SOL    HW221142   5.123   6.186   5.877 -0.0730  0.0529  0.4965
 5344SOL    HW321143   5.088   6.331   5.854  1.5476  0.5560  1.0344
 5344SOL    MW421144   5.135   6.260   5.833  0.1131  0.5067  0.2620
 5345SOL     OW21145   2.772   0.408   5.760  0.2354 -0.1835  0.1382
 5345SOL    HW221146   2.755   0.315   5.774 -0.7995 -0.1906 -1.0716
 5345SOL    HW321147   2.688   0.451   5.778  0.3330  0.3628 -0.6673
 5345SOL    MW421148   2.759   0.401   5.765 -0.8592 -0.3692  0.0623
 5346SOL     OW21149   0.117   1.528   2.444 -0.3299  0.0167 -0.4896
 5346SOL    HW221150   0.200   1.553   2.484 -0.2864  1.7371 -1.5540
 5346SOL    HW321151   0.142   1.462   2.378 -0.1574 -1.2917  0.8301
 5346SOL    MW421152   0.131   1.523   2.440 -0.1894 -0.1696 -0.1512
 5347SOL     OW21153   5.192   5.800   3.244 -0.1030  0.1428  0.3787
 5347SOL    HW221154   5.203   5.893   3.265  0.4048  0.6046 -1.6722
 5347SOL    HW321155   5.281   5.769   3.226 -0.2487 -0.8153  1.2436
 5347SOL    MW421156   5.205   5.808   3.244  0.1324  0.4789  0.0708
 5348SOL     OW21157   4.151   0.202   5.468 -0.0559 -0.8023  0.2945
 5348SOL    HW221158   4.240   0.176   5.445 -0.5560 -1.7621 -0.6151
 5348SOL    HW321159   4.125   0.261   5.397  0.5842  1.2109  1.6488
 5348SOL    MW421160   4.159   0.206   5.455 -0.2173 -0.5341  0.5177
 5349SOL     OW21161   2.237   6.005   2.532  0.0152  0.4709  0.0483
 5349SOL    HW221162   2.253   6.094   2.501  0.3811 -0.2399 -2.0194
 5349SOL    HW321163   2.192   5.962   2.459 -0.0698 -1.0497  0.9529
 5349SOL    MW421164   2.233   6.011   2.518  0.0811  0.1319 -0.0282
 5350SOL     OW21165   3.358   2.002   0.152  0.0119 -0.3372 -0.2114
 5350SOL    HW221166   3.344   2.097   0.142  1.6321  0.1070  1.2356
 5350SOL    HW321167   3.440   1.985   0.105 -1.1815 -1.4195 -2.0279
 5350SOL    MW421168   3.367   2.013   0.144  0.2043 -0.3546 -0.1343
 5351SOL     OW21169   1.853   3.736   2.750 -0.1647 -0.0350  0.4687
 5351SOL    HW221170   1.822   3.696   2.831 -1.7047  0.8744  0.3642
 5351SOL    HW321171   1.930   3.787   2.777  1.1873 -2.1114  0.7798
 5351SOL    MW421172   1.859   3.737   2.764 -0.2985 -0.1016  0.2969
 5352SOL     OW21173   5.415   2.717   0.132 -0.4554  0.3391 -0.1520
 5352SOL    HW221174   5.401   2.809   0.153  0.6439  0.4234  0.3058
 5352SOL    HW321175   5.510   2.709   0.122 -0.3846 -1.0192  1.1915
 5352SOL    MW421176   5.426   2.728   0.134 -0.2719 -0.0227  0.0491
 5353SOL     OW21177   4.517   0.963   4.054  0.0731  0.2450 -0.1047
 5353SOL    HW221178   4.539   1.030   4.119  0.2346 -0.0211  0.1224
 5353SOL    HW321179   4.602   0.925   4.030 -0.1344 -0.8841  0.8746
 5353SOL    MW421180   4.531   0.967   4.059 -0.2643  0.0381 -0.2170
 5354SOL     OW21181   1.915   0.472   5.888  0.1991 -1.0261 -0.4210
 5354SOL    HW221182   1.865   0.481   5.807 -1.8692 -0.9835  0.7989
 5354SOL    HW321183   2.004   0.500   5.865 -0.9132  1.4725 -2.0629
 5354SOL    MW421184   1.920   0.477   5.874  0.2091 -0.5151 -0.0317
 5355SOL     OW21185   0.276   0.259   2.944 -0.0507 -0.3898  0.3019
 5355SOL    HW221186   0.202   0.278   3.001 -1.9401  1.5376 -2.5107
 5355SOL    HW321187   0.330   0.338   2.947  1.2926 -1.2984  1.3581
 5355SOL    MW421188   0.273   0.272   2.952  0.3491  0.1513 -0.4124
 5356SOL     OW21189   4.168   4.507   3.163  0.2759 -0.1553  0.2942
 5356SOL    HW221190   4.129   4.537   3.245 -1.0285 -0.2780 -0.2588
 5356SOL    HW321191   4.152   4.412   3.162  0.2520 -0.1492 -0.1134
 5356SOL    MW421192   4.161   4.498   3.173  0.1950 -0.4959 -0.1079
 5357SOL     OW21193   5.015   0.929   3.804 -0.2079  0.2089 -0.2162
 5357SOL    HW221194   5.073   0.935   3.880  1.7649  0.1300 -1.6557
 5357SOL    HW321195   4.929   0.908   3.841  0.5350  0.8839  2.0309
 5357SOL    MW421196   5.011   0.927   3.819 -0.0288  0.3623  0.3788
 5358SOL     OW21197   3.511   3.025   3.373 -0.8798 -0.0674  0.3565
 5358SOL    HW221198   3.577   3.071   3.425 -0.7584  0.9128 -0.6157
 5358SOL    HW321199   3.558   2.996   3.295 -1.4927  0.3179 -0.1747
 5358SOL    MW421200   3.526   3.028   3.370  0.0768 -0.2998  0.1394
 5359SOL     OW21201   5.797   3.992   6.118 -0.1885 -0.4666  0.5716
 5359SOL    HW221202   5.743   3.999   6.196 -0.3322 -0.9644  0.5203
 5359SOL    HW321203   5.844   4.075   6.113 -1.6080  0.3406  0.1272
 5359SOL    MW421204   5.796   4.004   6.128 -0.0008  0.5481  0.1217
 5360SOL     OW21205   5.934   1.770   2.307  0.1296  0.3833 -0.2013
 5360SOL    HW221206   6.019   1.791   2.267  0.0060 -1.4738 -1.5574
 5360SOL    HW321207   5.954   1.702   2.371 -0.1985  0.7026  0.2414
 5360SOL    MW421208   5.948   1.764   2.310  0.0130  0.9323 -0.0753
 5361SOL     OW21209   2.899   3.007   4.276  0.0541 -0.6483 -0.2175
 5361SOL    HW221210   2.943   3.075   4.225  0.8849  0.8991  2.3346
 5361SOL    HW321211   2.818   3.048   4.307 -0.7822 -1.7861 -0.8081
 5361SOL    MW421212   2.894   3.021   4.273  0.3295  0.2108  0.4710
 5362SOL     OW21213   2.964   3.277   0.075 -0.1305 -0.2304 -0.1675
 5362SOL    HW221214   2.977   3.182   0.078 -0.4244 -0.2586  1.5462
 5362SOL    HW321215   3.023   3.311   0.142 -2.0341  0.4860  1.2608
 5362SOL    MW421216   2.973   3.269   0.084  0.0455  0.0895 -0.3270
 5363SOL     OW21217   3.374   3.512   2.822  0.1077  0.2571  0.0355
 5363SOL    HW221218   3.439   3.496   2.754  0.7965  1.3398  0.4107
 5363SOL    HW321219   3.421   3.562   2.889 -0.9681  0.5756  0.5756
 5363SOL    MW421220   3.389   3.517   2.822 -0.2997  0.4703  0.3241
 5364SOL     OW21221   5.429   4.651   3.345  0.2787  0.4134 -0.1652
 5364SOL    HW221222   5.476   4.584   3.295  2.7057 -0.0953  2.5507
 5364SOL    HW321223   5.345   4.611   3.367  0.6694 -0.7446 -0.7215
 5364SOL    MW421224   5.424   4.637   3.341 -0.2985 -1.2091  0.0894
 5365SOL     OW21225   3.941   0.436   4.156  0.0872 -0.1462  0.0211
 5365SOL    HW221226   4.026   0.437   4.200  0.5018  0.1324 -0.7738
 5365SOL    HW321227   3.895   0.361   4.195  1.2672 -1.2314 -0.6032
 5365SOL    MW421228   3.946   0.426   4.167  0.3432 -0.5378 -0.1571
 5366SOL     OW21229   3.294   4.510   4.858 -0.3508 -0.3132 -0.1304
 5366SOL    HW221230   3.243   4.575   4.907 -1.1243 -0.0984 -1.1863
 5366SOL    HW321231   3.326   4.558   4.782  0.3485 -0.7894 -0.1379
 5366SOL    MW421232   3.291   4.525   4.854 -0.1899  0.1032 -0.0876
 5367SOL     OW21233   1.688   1.839   5.623  0.0175 -0.2860  0.0129
 5367SOL    HW221234   1.670   1.800   5.709  0.2731 -2.5392 -0.8983
 5367SOL    HW321235   1.782   1.852   5.621  0.0899 -0.8183 -0.1485
 5367SOL    MW421236   1.698   1.836   5.634 -0.1571 -0.0785 -0.1007
 5368SOL     OW21237   3.896   5.805   5.235  0.1477  0.1948 -0.1750
 5368SOL    HW221238   3.895   5.750   5.314  0.3588 -0.9280 -0.9271
 5368SOL    HW321239   3.988   5.825   5.220  0.1593 -0.0191 -0.4079
 5368SOL    MW421240   3.908   5.800   5.243  0.1241  0.1929 -0.0455
 5369SOL     OW21241   0.412   4.701   1.649 -0.0389 -0.0648  0.0012
 5369SOL    HW221242   0.485   4.660   1.602  0.7138  2.0507 -0.7876
 5369SOL    HW321243   0.380   4.632   1.708  0.5667 -2.0416 -1.8394
 5369SOL    MW421244   0.418   4.686   1.651 -0.5086 -0.0731 -0.0133
 5370SOL     OW21245   1.043   4.365   0.101 -0.1702  0.0701 -0.2711
 5370SOL    HW221246   1.088   4.422   0.039 -1.5579  1.9672  0.3726
 5370SOL    HW321247   0.968   4.330   0.052  0.3007 -0.6875 -0.4649
 5370SOL    MW421248   1.039   4.368   0.087 -0.1899 -0.4507  0.1870
 5371SOL     OW21249   2.342   4.454   4.344  0.4928 -0.5228  0.3626
 5371SOL    HW221250   2.332   4.442   4.438  1.5296  0.9638  0.7017
 5371SOL    HW321251   2.436   4.439   4.327  0.1584 -1.6863 -0.5970
 5371SOL    MW421252   2.353   4.450   4.354  0.2716  0.6168  0.0953
 5372SOL     OW21253   5.537   2.642   3.224 -0.2312  0.0185 -0.1062
 5372SOL    HW221254   5.598   2.623   3.295 -0.8124  0.0903  0.4314
 5372SOL    HW321255   5.460   2.588   3.244 -1.0397  1.2461  0.2344
 5372SOL    MW421256   5.535   2.632   3.236 -0.1839 -0.2280 -0.3965
 5373SOL     OW21257   3.488   5.779   4.930  0.0970 -0.4187 -0.6544
 5373SOL    HW221258   3.396   5.801   4.915 -1.0284 -2.1713  2.6032
 5373SOL    HW321259   3.491   5.683   4.928  1.6348 -0.4277  0.1761
 5373SOL    MW421260   3.476   5.769   4.928  0.1644  0.5384 -0.1661
 5374SOL     OW21261   2.516   0.667   0.613  0.4399  0.2277  0.0560
 5374SOL    HW221262   2.584   0.658   0.545 -0.0832 -0.1816 -0.4198
 5374SOL    HW321263   2.438   0.628   0.574  0.3358 -0.7627  1.2101
 5374SOL    MW421264   2.515   0.661   0.599 -0.3591  0.5028  0.5326
 5375SOL     OW21265   2.386   2.217   2.732 -0.2354  0.1997 -0.3325
 5375SOL    HW221266   2.363   2.132   2.695  1.2850 -0.4094  0.0487
 5375SOL    HW321267   2.306   2.247   2.774 -1.0972 -0.5412 -1.3979
 5375SOL    MW421268   2.373   2.210   2.733  0.7351 -0.1544  0.3550
 5376SOL     OW21269   0.855   3.493   1.917  0.1419  0.0647  0.2355
 5376SOL    HW221270   0.836   3.534   2.001  0.5173  0.4090  0.1568
 5376SOL    HW321271   0.939   3.530   1.891  0.1780 -0.2772 -0.1423
 5376SOL    MW421272   0.864   3.503   1.924  0.2094 -0.2150 -0.0039
 5377SOL     OW21273   3.867   0.298   5.709 -0.1216  0.1487 -0.3070
 5377SOL    HW221274   3.784   0.326   5.747  1.1597  2.1454  1.2487
 5377SOL    HW321275   3.893   0.371   5.653  1.0444  0.0197  0.0343
 5377SOL    MW421276   3.859   0.312   5.706  0.9028 -0.3873 -0.1749
 5378SOL     OW21277   5.457   5.666   2.213  0.3167 -0.5034 -0.0870
 5378SOL    HW221278   5.506   5.587   2.188  1.2385 -0.5232  1.6140
 5378SOL    HW321279   5.510   5.707   2.282 -0.1755  1.5817 -0.8693
 5378SOL    MW421280   5.470   5.661   2.219 -0.4976 -0.6431  0.2516
 5379SOL     OW21281   5.009   6.334   3.761 -0.3229  0.3834 -0.4560
 5379SOL    HW221282   5.041   6.283   3.687  0.3468  1.2107 -0.7579
 5379SOL    HW321283   4.940   6.280   3.799  1.0021 -1.1807 -0.1600
 5379SOL    MW421284   5.004   6.320   3.756  0.3512 -0.5494  0.2192
 5380SOL     OW21285   5.348   0.757   3.353 -0.2129  0.0748 -0.1395
 5380SOL    HW221286   5.260   0.767   3.388 -0.9188 -0.6554 -1.6126
 5380SOL    HW321287   5.335   0.739   3.260  1.4405 -1.1442 -0.1809
 5380SOL    MW421288   5.335   0.756   3.345  0.6609  0.2628  0.1693
 5381SOL     OW21289   0.796   1.349   2.998 -0.1811 -0.2878  0.2043
 5381SOL    HW221290   0.798   1.360   3.093 -2.8395  1.2185  0.1933
 5381SOL    HW321291   0.760   1.261   2.985 -1.7689  0.2381  0.6949
 5381SOL    MW421292   0.791   1.339   3.009 -0.2240 -0.2220 -0.1680
 5382SOL     OW21293   1.264   3.353   2.558 -0.4066  0.1504  0.3244
 5382SOL    HW221294   1.335   3.417   2.557 -1.3465  1.2630  1.7007
 5382SOL    HW321295   1.308   3.268   2.560  0.8711  0.8049  0.6961
 5382SOL    MW421296   1.279   3.350   2.558  0.3994 -0.2415  0.4391
 5383SOL     OW21297   1.375   4.873   1.595 -0.2282  0.3354 -0.2230
 5383SOL    HW221298   1.436   4.853   1.524  0.7774 -0.1198  0.7458
 5383SOL    HW321299   1.422   4.937   1.650 -0.0690 -0.9885  1.2418
 5383SOL    MW421300   1.390   4.879   1.593  0.2954 -0.8174  0.5149
 5384SOL     OW21301   4.759   0.113   3.045 -0.1794 -0.1245 -0.0440
 5384SOL    HW221302   4.793   0.033   3.004  0.5353  0.8120 -1.3235
 5384SOL    HW321303   4.803   0.116   3.130 -2.0505 -2.3475  1.1374
 5384SOL    MW421304   4.769   0.102   3.051 -0.0260  0.2605 -0.1252
 5385SOL     OW21305   2.649   1.946   6.333  0.0158  0.5973  0.2745
 5385SOL    HW221306   2.687   1.890   6.401  0.4256  1.7055  0.9797
 5385SOL    HW321307   2.725   1.988   6.292 -0.1582 -0.6879 -1.4741
 5385SOL    MW421308   2.664   1.944   6.337  0.3083  0.2443  0.1014
 5386SOL     OW21309   0.855   5.094   5.217 -0.0650  0.2569 -0.7365
 5386SOL    HW221310   0.932   5.039   5.200  0.6013  0.3064  1.7798
 5386SOL    HW321311   0.784   5.050   5.171  1.0366 -1.0248 -1.2954
 5386SOL    MW421312   0.856   5.081   5.209  0.0765 -0.0679 -0.1306
 5387SOL     OW21313   2.475   2.662   1.219  0.0655  0.6344  0.4376
 5387SOL    HW221314   2.505   2.717   1.291 -0.0685  1.3163 -0.0125
 5387SOL    HW321315   2.389   2.698   1.196  0.0374  0.3274  0.0470
 5387SOL    MW421316   2.468   2.674   1.225  0.0668  0.3276 -0.4369
 5388SOL     OW21317   6.113  -0.013   3.529 -0.5745 -0.3122  0.0991
 5388SOL    HW221318   6.160  -0.028   3.446 -0.7999  0.6900 -0.2259
 5388SOL    HW321319   6.022  -0.003   3.503 -0.6132  0.2308  0.4476
 5388SOL    MW421320   6.107  -0.014   3.514 -0.0833  0.5290 -0.3864
 5389SOL     OW21321   4.361   2.251   2.919  0.0490  0.0445  1.5824
 5389SOL    HW221322   4.384   2.206   3.000 -0.4385 -0.8168  1.2559
 5389SOL    HW321323   4.294   2.314   2.945  1.5340  1.4112  2.2416
 5389SOL    MW421324   4.355   2.253   2.933  0.7805  0.1610  0.1966
 5390SOL     OW21325   0.994   5.878   6.106 -0.2633  0.4571  0.2825
 5390SOL    HW221326   0.958   5.806   6.158  0.8755 -0.9534 -0.7932
 5390SOL    HW321327   1.056   5.921   6.165 -1.7941  1.3701  1.3230
 5390SOL    MW421328   0.997   5.874   6.121 -0.2625  0.1423  0.2474
 5391SOL     OW21329   2.644   3.906   4.783  0.4598 -0.6680  0.5083
 5391SOL    HW221330   2.571   3.844   4.776  0.5223 -0.6981  0.0415
 5391SOL    HW321331   2.615   3.982   4.733  1.4313 -1.3638 -1.2183
 5391SOL    MW421332   2.631   3.908   4.775 -0.0033  1.0035 -0.0318
 5392SOL     OW21333   1.075   4.963   1.255  0.4527  0.1462 -0.5501
 5392SOL    HW221334   1.054   5.034   1.193 -1.8989 -0.9884 -1.1860
 5392SOL    HW321335   1.053   4.883   1.207  1.4706 -0.9455  0.7386
 5392SOL    MW421336   1.069   4.962   1.240 -0.0372 -0.2921  0.3991
 5393SOL     OW21337   3.255   0.587   0.042 -0.0518 -0.1283  0.0600
 5393SOL    HW221338   3.305   0.634   0.109 -1.6062  1.5183  0.1359
 5393SOL    HW321339   3.304   0.602  -0.039 -0.8166  2.2453 -0.0332
 5393SOL    MW421340   3.268   0.595   0.040 -0.6540 -0.1596 -0.1051
 5394SOL     OW21341   0.893   1.833   5.492 -0.4937 -0.4781 -0.3723
 5394SOL    HW221342   0.931   1.819   5.579  0.7752 -0.2811 -0.8794
 5394SOL    HW321343   0.798   1.826   5.506 -0.3047 -0.5392  1.0037
 5394SOL    MW421344   0.885   1.830   5.506  0.1301 -0.1537  0.2458
 5395SOL     OW21345   1.515   5.282   4.560 -0.2981 -0.7556 -0.7755
 5395SOL    HW221346   1.454   5.354   4.546  0.0189 -0.4727 -0.7054
 5395SOL    HW321347   1.459   5.204   4.560 -0.8102 -0.4155  0.3803
 5395SOL    MW421348   1.499   5.281   4.558  0.1615 -0.2464  0.3874
 5396SOL     OW21349   5.474   2.847   5.522  0.1814 -0.2778 -0.1085
 5396SOL    HW221350   5.406   2.780   5.514  0.9880 -1.3273  1.4310
 5396SOL    HW321351   5.440   2.909   5.586  0.1278 -0.0849 -0.3212
 5396SOL    MW421352   5.461   2.846   5.529  0.0010 -0.1259 -0.4493
 5397SOL     OW21353   1.465   2.264   5.920 -0.0633 -0.2911  0.3562
 5397SOL    HW221354   1.508   2.251   5.835 -0.9382  0.9430 -0.3096
 5397SOL    HW321355   1.377   2.294   5.897 -0.2087  0.3944  1.7201
 5397SOL    MW421356   1.459   2.266   5.905  0.3535  0.1219 -0.1013
 5398SOL     OW21357   0.468   1.384   2.709  0.4688 -0.6336  0.0322
 5398SOL    HW221358   0.559   1.410   2.724 -0.3659  1.8894  1.1529
 5398SOL    HW321359   0.469   1.343   2.622  2.2230  1.8651 -1.2507
 5398SOL    MW421360   0.480   1.382   2.699 -0.0098 -0.6467 -0.5968
 5399SOL     OW21361   1.989   2.792   5.387 -0.1154  0.3222 -0.0602
 5399SOL    HW221362   2.084   2.802   5.396 -0.2363  1.4497  0.0914
 5399SOL    HW321363   1.977   2.751   5.301  0.5061  0.0427 -0.0191
 5399SOL    MW421364   2.000   2.788   5.377 -0.1374 -0.0083 -0.2467
 5400SOL     OW21365   1.561   0.068   6.067  0.1523  0.5288  0.8894
 5400SOL    HW221366   1.525  -0.003   6.015  2.7658 -1.5470  1.6806
 5400SOL    HW321367   1.485   0.114   6.103 -1.6533 -1.9170  0.3953
 5400SOL    MW421368   1.546   0.065   6.065 -0.1356  0.1148 -0.6775
 5401SOL     OW21369   2.867   0.528   5.244 -0.1549 -0.2555 -0.1090
 5401SOL    HW221370   2.962   0.536   5.240 -0.2610  0.8497 -3.2798
 5401SOL    HW321371   2.834   0.617   5.236 -1.4775 -0.6902  0.1235
 5401SOL    MW421372   2.875   0.541   5.242  0.5113  0.6088 -0.0299
 5402SOL     OW21373   1.190   2.597   2.423 -0.3722  0.0990 -0.1898
 5402SOL    HW221374   1.195   2.646   2.340  0.7665  0.4371  0.0710
 5402SOL    HW321375   1.111   2.631   2.465 -1.2894 -0.4845 -1.3813
 5402SOL    MW421376   1.180   2.608   2.418  0.5430 -0.3882 -0.2396
 5403SOL     OW21377   2.260   3.500   6.131  0.4873  0.1066 -0.3417
 5403SOL    HW221378   2.207   3.429   6.165 -2.7279  2.3332 -0.2334
 5403SOL    HW321379   2.334   3.507   6.192  0.3446 -2.3701  0.1995
 5403SOL    MW421380   2.263   3.492   6.143  0.0609 -0.2351 -0.0643
 5404SOL     OW21381   2.748   0.385   1.555 -0.4361  0.1806  0.3286
 5404SOL    HW221382   2.717   0.351   1.639 -1.4014  1.3687  0.4700
 5404SOL    HW321383   2.698   0.465   1.540 -0.8389 -0.3985 -1.7621
 5404SOL    MW421384   2.738   0.391   1.564  0.2209 -0.1024 -0.2045
 5405SOL     OW21385   4.149   2.413   1.914  0.1951 -0.3163 -0.2540
 5405SOL    HW221386   4.196   2.332   1.936  1.9713  0.7808  0.2254
 5405SOL    HW321387   4.063   2.383   1.885  1.1442 -2.4526 -1.1254
 5405SOL    MW421388   4.144   2.398   1.913  0.2130 -0.1625  0.4640
 5406SOL     OW21389   2.281   5.002   0.311 -0.1696  0.1918 -0.2005
 5406SOL    HW221390   2.208   5.021   0.252  0.3669  1.9405 -0.3564
 5406SOL    HW321391   2.354   5.054   0.277  1.0645 -1.2236  0.1760
 5406SOL    MW421392   2.281   5.011   0.299  0.3081 -0.3281  0.4917
 5407SOL     OW21393   2.477   5.276   0.323 -0.1595 -0.2041 -0.6134
 5407SOL    HW221394   2.440   5.302   0.408  0.9344 -0.2469 -0.1087
 5407SOL    HW321395   2.528   5.351   0.295 -1.6274  0.3424 -1.9276
 5407SOL    MW421396   2.479   5.289   0.331 -0.5993  0.5484  0.3813
 5408SOL     OW21397   3.131   5.070   2.541  0.0165  0.3587  0.1437
 5408SOL    HW221398   3.111   4.995   2.485 -0.7991  0.0060  0.8952
 5408SOL    HW321399   3.200   5.117   2.493  0.3779 -0.7289 -0.4488
 5408SOL    MW421400   3.138   5.067   2.527  0.5513 -0.4578 -0.8209
 5409SOL     OW21401   0.346   2.318   4.128  0.4105 -0.8276  0.2118
 5409SOL    HW221402   0.323   2.255   4.061  2.1956 -2.4734  1.0401
 5409SOL    HW321403   0.317   2.279   4.210 -1.1949  0.8778  0.5422
 5409SOL    MW421404   0.339   2.305   4.130 -0.5896  0.6223 -0.0521
 5410SOL     OW21405   0.754   4.020   2.991 -0.3170  0.1327  0.4423
 5410SOL    HW221406   0.813   4.065   3.052  0.7997 -1.3258  0.4860
 5410SOL    HW321407   0.812   3.986   2.923 -1.1978 -0.7804  0.1343
 5410SOL    MW421408   0.769   4.022   2.990 -0.0532 -1.1159 -0.6636
 5411SOL     OW21409   5.080   3.051   2.805  0.6366  0.0960 -0.4639
 5411SOL    HW221410   5.096   3.101   2.884  2.0057 -0.7091 -0.1919
 5411SOL    HW321411   5.166   3.015   2.782  0.1654 -0.0979 -2.0254
 5411SOL    MW421412   5.093   3.053   2.812  0.3941  0.1532 -0.2241
 5412SOL     OW21413   1.242   1.921   2.212 -0.1388  0.3280 -0.4593
 5412SOL    HW221414   1.281   1.899   2.296  0.8748  0.5173 -0.8750
 5412SOL    HW321415   1.275   1.854   2.152 -0.9764  0.1064 -0.6883
 5412SOL    MW421416   1.251   1.909   2.215  0.7343  0.2843  0.1853
 5413SOL     OW21417   4.122   4.153   5.079  0.1009  0.2471  0.0243
 5413SOL    HW221418   4.218   4.161   5.078  0.2332 -1.1649 -0.3292
 5413SOL    HW321419   4.105   4.079   5.137 -0.7146 -0.2016 -0.7655
 5413SOL    MW421420   4.133   4.144   5.087  0.3312  0.3214 -0.4335
 5414SOL     OW21421   1.408   0.925   3.504 -0.3338  0.0979 -0.3563
 5414SOL    HW221422   1.501   0.936   3.485 -0.9681 -0.2871 -4.6961
 5414SOL    HW321423   1.368   1.008   3.477 -1.4716 -0.6387 -1.0231
 5414SOL    MW421424   1.415   0.938   3.498 -0.8206  0.5263  0.4155
 5415SOL     OW21425   0.388   1.161   5.313 -0.8507 -0.1231  0.8454
 5415SOL    HW221426   0.298   1.191   5.325 -0.2281  1.5745  1.5253
 5415SOL    HW321427   0.415   1.133   5.401 -0.7695 -0.8489  0.5971
 5415SOL    MW421428   0.380   1.161   5.326 -0.0523  0.0949 -0.8756
 5416SOL     OW21429   6.436   5.181   1.319  0.2412  0.8793  0.3088
 5416SOL    HW221430   6.498   5.254   1.330  1.3049  0.0053  0.2389
 5416SOL    HW321431   6.483   5.104   1.350 -0.8716  0.2032  0.3810
 5416SOL    MW421432   6.450   5.181   1.325  0.4217 -0.3496  0.2817
 5417SOL     OW21433   2.118   5.358   4.958  0.7401  0.1554  0.3476
 5417SOL    HW221434   2.201   5.314   4.975  0.8657 -1.1106 -2.8321
 5417SOL    HW321435   2.056   5.287   4.943 -0.3926  1.0987  0.4082
 5417SOL    MW421436   2.121   5.343   4.958 -0.4450  0.6627  0.4204
 5418SOL     OW21437   3.638   2.759   2.849 -0.3277  0.3234 -0.6495
 5418SOL    HW221438   3.659   2.708   2.927  0.9816  1.4314 -0.2175
 5418SOL    HW321439   3.723   2.773   2.807 -0.7998  1.1987 -1.3418
 5418SOL    MW421440   3.652   2.754   2.854  0.7564 -0.2899  0.0787
 5419SOL     OW21441   1.397   1.734   3.197 -0.5905 -0.0100 -0.0113
 5419SOL    HW221442   1.417   1.806   3.138 -0.4504  1.9996  2.3420
 5419SOL    HW321443   1.301   1.730   3.198 -0.6604  1.2754  1.0471
 5419SOL    MW421444   1.387   1.743   3.189  0.2266 -0.4527 -0.0509
 5420SOL     OW21445   3.300   1.647   5.504  0.5020  0.1691 -0.3299
 5420SOL    HW221446   3.221   1.695   5.527  1.4114  1.4277  0.2445
 5420SOL    HW321447   3.315   1.589   5.579  0.3127  0.1590 -0.2979
 5420SOL    MW421448   3.291   1.646   5.517 -0.7206 -0.3621 -0.1631
 5421SOL     OW21449   4.650   0.586   6.204  0.0760 -0.9584  0.2886
 5421SOL    HW221450   4.744   0.592   6.218 -0.0887 -0.8962  1.4864
 5421SOL    HW321451   4.622   0.514   6.262 -0.5748 -1.1597 -0.2593
 5421SOL    MW421452   4.659   0.577   6.213  0.0508 -0.5094 -0.7586
 5422SOL     OW21453   4.085   0.153   0.726 -0.1765 -0.0851 -0.4417
 5422SOL    HW221454   4.052   0.242   0.716 -0.6211 -0.2524 -0.4743
 5422SOL    HW321455   4.036   0.117   0.800 -0.4018 -0.4875 -0.7796
 5422SOL    MW421456   4.074   0.160   0.734  0.5516  0.2398  0.6451
 5423SOL     OW21457   6.401   5.915   5.665  0.1731 -0.2031 -0.3094
 5423SOL    HW221458   6.471   5.870   5.713 -1.2151  0.1479  2.1672
 5423SOL    HW321459   6.402   6.004   5.699 -0.6243  0.1749 -1.2434
 5423SOL    MW421460   6.411   5.920   5.676  0.0643  0.1717 -0.2353
 5424SOL     OW21461   6.317   5.911   0.343 -0.2326  0.3004 -0.7374
 5424SOL    HW221462   6.294   5.948   0.258  0.6764  1.4660 -0.5058
 5424SOL    HW321463   6.410   5.929   0.353 -0.3232  0.1820  0.4994
 5424SOL    MW421464   6.326   5.919   0.333 -0.4858 -0.3835 -0.1015
 5425SOL     OW21465   3.149   4.319   5.642  0.1007  0.0783  0.6707
 5425SOL    HW221466   3.069   4.300   5.593  0.5374  1.0371 -0.4687
 5425SOL    HW321467   3.206   4.363   5.578  1.4333 -0.3469  1.5312
 5425SOL    MW421468   3.146   4.323   5.627  0.4176  0.1603  0.2514
 5426SOL     OW21469   6.216   2.019   4.890 -0.1441  0.0507  0.2233
 5426SOL    HW221470   6.213   2.046   4.798 -0.9894  2.6447  0.9155
 5426SOL    HW321471   6.301   1.976   4.900  0.3120  0.4433 -1.5704
 5426SOL    MW421472   6.227   2.017   4.879  0.0217 -0.2507 -0.3759
 5427SOL     OW21473   1.881   2.682   3.300  0.0919  0.1264 -0.7880
 5427SOL    HW221474   1.937   2.605   3.291 -0.0006 -0.1409  0.6372
 5427SOL    HW321475   1.942   2.755   3.314  0.1303 -0.0500  0.0336
 5427SOL    MW421476   1.897   2.682   3.301 -0.1419  0.2369 -0.3750
 5428SOL     OW21477   3.634   0.342   3.627  0.0327  0.2183 -0.3781
 5428SOL    HW221478   3.624   0.276   3.559  0.3309 -2.2808  1.8208
 5428SOL    HW321479   3.728   0.351   3.639 -0.0081  0.9888 -0.5841
 5428SOL    MW421480   3.645   0.334   3.620  0.2798 -0.0162 -0.0874
 5429SOL     OW21481   1.515   6.215   4.042 -0.3181  0.4107 -0.1203
 5429SOL    HW221482   1.533   6.278   4.111 -1.0318 -0.2569  0.6953
 5429SOL    HW321483   1.574   6.142   4.060  0.4305  0.7784 -1.0000
 5429SOL    MW421484   1.525   6.213   4.053 -0.2060 -0.0245 -0.2286
 5430SOL     OW21485   5.081   4.974   1.398 -0.0805 -1.1838  0.1451
 5430SOL    HW221486   5.068   4.915   1.323  1.3344 -2.0595  0.5480
 5430SOL    HW321487   5.005   5.032   1.396 -2.0190 -3.5567  0.2189
 5430SOL    MW421488   5.069   4.973   1.388  0.8021 -0.0516 -0.0995
 5431SOL     OW21489   3.834   5.261   2.425  0.0506  0.2506 -0.2188
 5431SOL    HW221490   3.812   5.280   2.516  2.2959  0.0046  0.4221
 5431SOL    HW321491   3.909   5.317   2.406  1.2964 -1.6194 -1.0602
 5431SOL    MW421492   3.841   5.271   2.434  0.3318  0.1182  0.3967
 5432SOL     OW21493   1.882   4.710   4.949 -0.1236  0.2524  0.4235
 5432SOL    HW221494   1.807   4.653   4.968 -1.6139  1.4274 -1.5939
 5432SOL    HW321495   1.857   4.795   4.986  1.2581  0.1191  1.7485
 5432SOL    MW421496   1.868   4.714   4.957  0.2886  0.7559  0.2028
 5433SOL     OW21497   4.925   0.551   3.552  0.0346  0.2101  0.7744
 5433SOL    HW221498   4.844   0.541   3.503  0.1396 -0.5934  0.7426
 5433SOL    HW321499   4.960   0.636   3.525 -0.6298  0.4107  0.5449
 5433SOL    MW421500   4.919   0.561   3.542 -0.3574 -0.2154  1.1802
 5434SOL     OW21501   5.026   2.220   4.476 -1.0468 -0.0910  0.6050
 5434SOL    HW221502   5.114   2.227   4.514  0.9335  1.8322 -3.6466
 5434SOL    HW321503   5.018   2.129   4.449  0.4857  0.0619 -0.5072
 5434SOL    MW421504   5.037   2.209   4.477  0.0178 -0.0645  0.3002
 5435SOL     OW21505   0.796   3.864   2.393  0.5571 -0.4839  0.0845
 5435SOL    HW221506   0.790   3.769   2.393 -0.3837 -0.4326  0.3337
 5435SOL    HW321507   0.710   3.894   2.425  1.0541  0.4336  0.5934
 5435SOL    MW421508   0.784   3.856   2.397  0.6507 -0.4170  0.0320
 5436SOL     OW21509   3.469   3.621   3.083  0.0373 -0.4061  0.1705
 5436SOL    HW221510   3.422   3.594   3.162  1.2529 -0.9514  0.7356
 5436SOL    HW321511   3.560   3.629   3.111  0.4991 -0.6360 -1.1860
 5436SOL    MW421512   3.475   3.618   3.097  0.2270  0.2950 -0.5317
 5437SOL     OW21513   6.422   3.311   4.701  0.0435  0.6938  0.2032
 5437SOL    HW221514   6.419   3.352   4.788  1.5378 -0.0632  0.6454
 5437SOL    HW321515   6.515   3.293   4.686 -0.3772 -0.9607 -0.7011
 5437SOL    MW421516   6.434   3.314   4.710 -0.0513 -0.4579  0.3065
 5438SOL     OW21517   6.024   0.088   5.878  0.2963  0.3188  0.5690
 5438SOL    HW221518   6.014   0.169   5.929 -0.3010  1.1153 -0.7673
 5438SOL    HW321519   6.080   0.113   5.805  1.0105 -0.7680  0.7212
 5438SOL    MW421520   6.030   0.102   5.875  0.0319 -0.2895 -0.1132
 5439SOL     OW21521   3.703   2.735   6.085  0.1872 -0.4656  0.1869
 5439SOL    HW221522   3.631   2.694   6.037  0.3387 -0.4193 -0.0818
 5439SOL    HW321523   3.711   2.823   6.047 -0.5758  0.0670  1.2165
 5439SOL    MW421524   3.694   2.741   6.074  0.4092  0.2032 -0.0320
 5440SOL     OW21525   4.788   5.884   0.922  0.9242 -0.1028  0.3642
 5440SOL    HW221526   4.755   5.937   0.850 -2.2389 -0.0582  1.6865
 5440SOL    HW321527   4.761   5.931   1.001  3.0017 -0.8855  1.6345
 5440SOL    MW421528   4.780   5.897   0.923  0.2238 -0.5266 -0.3857
 5441SOL     OW21529   3.826   2.321   1.300  0.4210 -0.2604  0.0928
 5441SOL    HW221530   3.740   2.326   1.341 -0.5046 -1.4902 -1.5772
 5441SOL    HW321531   3.871   2.401   1.328 -2.4550  2.1183 -1.5393
 5441SOL    MW421532   3.821   2.332   1.309 -0.3334  0.2666 -0.1572
 5442SOL     OW21533   2.314   5.767   3.537  0.7954  0.0186  0.3346
 5442SOL    HW221534   2.354   5.854   3.535  1.0755 -0.1255 -0.9205
 5442SOL    HW321535   2.375   5.711   3.489  0.4416 -0.8064  0.8186
 5442SOL    MW421536   2.327   5.771   3.531  0.2561  0.2753  0.1584
 5443SOL     OW21537   3.650   1.106   5.253 -0.5932  0.4561  0.2294
 5443SOL    HW221538   3.649   1.101   5.158 -0.2251 -1.1747  0.2847
 5443SOL    HW321539   3.589   1.039   5.282 -0.6370  0.8727  1.1556
 5443SOL    MW421540   3.642   1.097   5.244 -0.0817  0.5094 -0.8720
 5444SOL     OW21541   2.713   2.913   3.018 -0.3777  0.1175 -0.3794
 5444SOL    HW221542   2.709   2.857   2.941  1.6858 -0.0244 -0.4371
 5444SOL    HW321543   2.657   2.869   3.082 -0.4104 -0.9081 -1.0856
 5444SOL    MW421544   2.705   2.900   3.016  0.1266 -0.1331 -0.2537
 5445SOL     OW21545   6.115   0.232   2.271  0.0150 -0.4015 -0.7065
 5445SOL    HW221546   6.030   0.274   2.276 -0.5086 -1.5397  0.3864
 5445SOL    HW321547   6.151   0.260   2.187 -1.2412  0.4395 -0.9815
 5445SOL    MW421548   6.109   0.241   2.261 -0.5323  0.0678  0.1903
 5446SOL     OW21549   4.976   0.473   2.954  0.2003  0.0754  0.1777
 5446SOL    HW221550   5.047   0.411   2.934 -0.1359 -0.1687 -0.2721
 5446SOL    HW321551   4.896   0.422   2.948 -0.0046  0.3031  0.9119
 5446SOL    MW421552   4.975   0.458   2.950  0.0942 -0.2733 -0.4957
 5447SOL     OW21553   3.541   4.485   2.110  0.7193  0.4032  0.2975
 5447SOL    HW221554   3.526   4.402   2.063  0.9793  0.1210  0.7040
 5447SOL    HW321555   3.492   4.550   2.060  1.3936  0.2024 -0.6568
 5447SOL    MW421556   3.533   4.482   2.097  0.5989 -0.7200  0.1148
 5448SOL     OW21557   1.573   1.581   4.338  0.4041 -0.3691 -0.0444
 5448SOL    HW221558   1.568   1.649   4.405  1.8492 -1.6362  1.4625
 5448SOL    HW321559   1.492   1.531   4.348  0.1864  0.0209  0.1291
 5448SOL    MW421560   1.562   1.583   4.348 -0.3912  0.5763  0.0695
 5449SOL     OW21561   1.035   2.858   1.535  0.7836 -0.7928 -0.1343
 5449SOL    HW221562   1.096   2.861   1.609 -0.9664  2.0667  1.3730
 5449SOL    HW321563   1.025   2.950   1.509 -0.5432 -1.4928 -2.3643
 5449SOL    MW421564   1.042   2.871   1.541 -0.0045  0.8144 -0.2706
 5450SOL     OW21565   4.891   0.640   4.691 -0.3209 -0.3533 -0.1160
 5450SOL    HW221566   4.858   0.623   4.779 -0.8021  2.2767  0.2897
 5450SOL    HW321567   4.835   0.588   4.634 -2.4229  0.7110  0.8757
 5450SOL    MW421568   4.879   0.631   4.695  0.1972  0.0405  0.1557
 5451SOL     OW21569   6.256   6.389   0.389  0.2191 -0.5276  0.4309
 5451SOL    HW221570   6.240   6.483   0.383 -1.7736 -0.8923 -2.0936
 5451SOL    HW321571   6.350   6.379   0.372  0.6202  1.0147  1.5460
 5451SOL    MW421572   6.266   6.400   0.386 -0.2140  0.2301 -0.1007
 5452SOL     OW21573   3.653   3.945   4.658 -0.3018  0.4020 -0.4641
 5452SOL    HW221574   3.606   4.009   4.712  0.2854  0.9246 -0.5642
 5452SOL    HW321575   3.699   3.890   4.721  0.1104  0.8000 -0.4121
 5452SOL    MW421576   3.653   3.946   4.674 -0.3043 -0.0385  0.3079
 5453SOL     OW21577   3.127   2.827   4.246  0.0896  0.1669 -0.0780
 5453SOL    HW221578   3.046   2.878   4.249  1.4021  2.3850  0.0625
 5453SOL    HW321579   3.157   2.836   4.155 -0.2543 -1.4277 -0.3739
 5453SOL    MW421580   3.120   2.835   4.234  0.1618  0.0882 -0.2222
 5454SOL     OW21581   4.791   5.494   4.322  0.2077  0.1453 -0.8269
 5454SOL    HW221582   4.875   5.538   4.312 -0.0551  1.1399  0.9226
 5454SOL    HW321583   4.732   5.542   4.263  0.9096 -0.8204 -2.3780
 5454SOL    MW421584   4.794   5.506   4.313  0.1592 -0.1017 -0.0391
 5455SOL     OW21585   0.120   3.436   2.671  0.4316  0.2061 -0.0162
 5455SOL    HW221586   0.028   3.459   2.684  0.7539  1.5389  0.1254
 5455SOL    HW321587   0.152   3.415   2.758  0.7944  1.9909  0.3260
 5455SOL    MW421588   0.112   3.436   2.684 -0.8147  0.7953 -0.0487
 5456SOL     OW21589   4.136   0.305   3.237 -0.0077 -0.7457  0.8447
 5456SOL    HW221590   4.232   0.309   3.234  0.0907 -1.8121  1.7249
 5456SOL    HW321591   4.117   0.253   3.315 -1.3045 -0.7276  0.5645
 5456SOL    MW421592   4.146   0.299   3.247 -0.0233 -0.1892  0.4522
 5457SOL     OW21593   3.578   1.043   0.419 -0.1102  0.3954  0.2725
 5457SOL    HW221594   3.584   0.973   0.485 -1.9762 -0.1349 -0.0502
 5457SOL    HW321595   3.648   1.024   0.357  1.8100  1.0017  2.1296
 5457SOL    MW421596   3.588   1.031   0.420  0.0799  0.0061 -0.7568
 5458SOL     OW21597   2.216   0.831   5.236 -0.0465  0.0382  0.3459
 5458SOL    HW221598   2.197   0.788   5.153 -0.2459  2.9368 -1.2411
 5458SOL    HW321599   2.218   0.925   5.215  3.7792  0.7431  2.7993
 5458SOL    MW421600   2.214   0.838   5.223  0.2680  0.2216 -0.3083
 5459SOL     OW21601   4.400   1.244   5.413 -0.7965  0.0880 -0.4944
 5459SOL    HW221602   4.477   1.280   5.457 -2.5578 -0.7511  3.8451
 5459SOL    HW321603   4.420   1.151   5.400  0.0123  0.4849 -2.3540
 5459SOL    MW421604   4.412   1.236   5.417  0.5478  0.1603  0.2612
 5460SOL     OW21605   0.747   0.147   5.540 -0.3725  0.5877 -0.0372
 5460SOL    HW221606   0.842   0.139   5.526 -0.3815  1.1671 -0.4825
 5460SOL    HW321607   0.717   0.201   5.466 -0.7595  2.0244  1.1340
 5460SOL    MW421608   0.756   0.153   5.528  0.3923 -0.5105  0.1444
 5461SOL     OW21609   4.349   0.685   5.893 -0.1778  0.5727 -0.3111
 5461SOL    HW221610   4.323   0.750   5.958 -0.2260  1.7995 -1.5051
 5461SOL    HW321611   4.272   0.675   5.837  0.3005  0.5664 -0.9816
 5461SOL    MW421612   4.336   0.692   5.894 -0.2238  0.1985  0.6556
 5462SOL     OW21613   2.643   2.319   5.873  0.3997  0.8263  0.1553
 5462SOL    HW221614   2.554   2.310   5.906 -0.2384 -0.0225 -1.6569
 5462SOL    HW321615   2.658   2.413   5.868 -0.6708  0.9808 -0.2193
 5462SOL    MW421616   2.633   2.330   5.877  0.5203  0.0530 -0.3188
 5463SOL     OW21617   4.274   0.246   2.305  0.2331  0.1498 -0.3252
 5463SOL    HW221618   4.193   0.266   2.259 -0.7316  0.6785  1.5315
 5463SOL    HW321619   4.322   0.189   2.245 -0.3976  1.7714 -2.5044
 5463SOL    MW421620   4.270   0.241   2.291  0.1656 -0.0588  0.1361
 5464SOL     OW21621   3.945   4.558   2.619 -0.2587 -0.6205  0.1601
 5464SOL    HW221622   3.981   4.530   2.704 -0.6028  0.7651  0.7879
 5464SOL    HW321623   3.861   4.513   2.613 -0.5539 -0.1829  0.8926
 5464SOL    MW421624   3.939   4.548   2.630 -0.4791 -0.1499 -0.0848
 5465SOL     OW21625   5.320   4.944   6.095  0.1876  0.6370 -0.3016
 5465SOL    HW221626   5.384   4.887   6.053 -0.8385  0.0188 -1.0965
 5465SOL    HW321627   5.323   4.920   6.188 -0.8904 -1.4591 -0.7411
 5465SOL    MW421628   5.328   4.934   6.102 -0.5130  0.1714  0.0857
 5466SOL     OW21629   4.388   5.048   6.106 -0.8844 -0.5367  0.3415
 5466SOL    HW221630   4.310   5.001   6.078 -1.3356  0.5973 -0.3916
 5466SOL    HW321631   4.355   5.133   6.136  0.0145 -0.2327  0.4976
 5466SOL    MW421632   4.373   5.053   6.106 -0.2750 -0.3834 -0.4004
 5467SOL     OW21633   0.028   3.252   4.216  0.0354  0.2818  0.1845
 5467SOL    HW221634   0.060   3.308   4.286 -0.5107  0.6042  0.1763
 5467SOL    HW321635   0.058   3.164   4.241  1.2682  0.6205 -0.0263
 5467SOL    MW421636   0.036   3.248   4.228  0.2379  0.2544 -0.4927
 5468SOL     OW21637   1.376   3.757   5.638  0.8509 -0.6909 -0.5158
 5468SOL    HW221638   1.283   3.759   5.616  0.9307  0.3512 -0.8104
 5468SOL    HW321639   1.405   3.669   5.612  0.1172 -0.7669 -1.0995
 5468SOL    MW421640   1.368   3.746   5.632 -0.6125  0.0265 -0.0730
 5469SOL     OW21641   2.467   1.315   0.032 -0.8375  0.0970 -0.6249
 5469SOL    HW221642   2.395   1.342  -0.025 -1.0231 -0.4121 -0.6328
 5469SOL    HW321643   2.474   1.385   0.097 -1.0851  0.3348 -0.8528
 5469SOL    MW421644   2.458   1.328   0.033 -0.0377 -0.4244 -0.2818
 5470SOL     OW21645   3.700   4.239   6.064  0.0479  0.4149 -0.3125
 5470SOL    HW221646   3.772   4.179   6.045  1.1715  1.9209 -1.0536
 5470SOL    HW321647   3.623   4.196   6.027  0.7630 -0.6677 -0.6030
 5470SOL    MW421648   3.700   4.225   6.056 -0.2780  0.6413 -0.5719
 5471SOL     OW21649   3.530   3.860   5.972  0.2764 -0.1118 -0.1396
 5471SOL    HW221650   3.568   3.855   6.060  0.0329  0.8003  0.0250
 5471SOL    HW321651   3.444   3.820   5.981  0.6729 -1.0241 -0.2264
 5471SOL    MW421652   3.524   3.854   5.985 -0.1081 -0.0503 -0.3440
 5472SOL     OW21653   5.280   2.147   1.409  0.1709  0.4717  0.0722
 5472SOL    HW221654   5.255   2.181   1.494 -1.7725 -0.0276 -0.2614
 5472SOL    HW321655   5.280   2.052   1.420  0.6357  0.4209 -0.3097
 5472SOL    MW421656   5.277   2.139   1.422 -0.5111 -0.0954 -0.9411
 5473SOL     OW21657   3.381   5.199   2.416 -0.1320 -0.7712 -0.0730
 5473SOL    HW221658   3.367   5.198   2.321 -0.5052 -1.6339 -0.0173
 5473SOL    HW321659   3.339   5.281   2.445  1.0263  0.1029 -0.7871
 5473SOL    MW421660   3.373   5.210   2.407  0.5615 -0.6651  0.3807
 5474SOL     OW21661   1.813   5.030   3.829  0.4326  0.3445  0.0641
 5474SOL    HW221662   1.764   5.109   3.856  1.0197  0.7329  0.0162
 5474SOL    HW321663   1.750   4.980   3.777 -0.3977  0.1022  1.2322
 5474SOL    MW421664   1.798   5.034   3.826 -0.4392  0.2771 -0.0065
 5475SOL     OW21665   3.181   4.785   6.036  0.3798 -0.6311 -0.5452
 5475SOL    HW221666   3.171   4.714   5.973  0.1152  0.2792 -1.5562
 5475SOL    HW321667   3.133   4.756   6.113  0.4037 -1.6054 -0.8851
 5475SOL    MW421668   3.174   4.772   6.038  0.2965 -0.3313 -0.0403
 5476SOL     OW21669   6.315   4.898   2.158 -0.2803  0.3348 -0.5477
 5476SOL    HW221670   6.387   4.837   2.143 -1.8267 -1.5833 -0.6429
 5476SOL    HW321671   6.299   4.938   2.072 -0.0278 -0.0571 -0.7781
 5476SOL    MW421672   6.322   4.895   2.144 -0.2113 -0.6853  0.2913
 5477SOL     OW21673   3.834   0.805   4.798 -0.0945  0.4763 -0.8668
 5477SOL    HW221674   3.756   0.813   4.853  1.1748  2.2610  0.8331
 5477SOL    HW321675   3.896   0.756   4.851  0.6735  0.9988 -1.2614
 5477SOL    MW421676   3.832   0.800   4.812  0.4710  0.2945  0.6017
 5478SOL     OW21677   0.270   5.103   0.833  0.1811 -0.2694 -0.3288
 5478SOL    HW221678   0.277   5.142   0.921 -0.9819 -1.2254  0.2206
 5478SOL    HW321679   0.315   5.018   0.841  0.5694 -0.1122 -0.8229
 5478SOL    MW421680   0.277   5.097   0.846 -0.1095  0.4809  0.2678
 5479SOL     OW21681   2.717   5.792   4.943  0.0373  0.0938 -0.1916
 5479SOL    HW221682   2.635   5.781   4.895 -0.1738  1.4402 -0.1767
 5479SOL    HW321683   2.693   5.838   5.023  0.9782  1.9770 -0.9230
 5479SOL    MW421684   2.703   5.796   4.947  0.7381  0.2914  0.3579
 5480SOL     OW21685   0.797   5.323   4.128  0.0848 -0.8777  0.4848
 5480SOL    HW221686   0.836   5.318   4.215 -0.8546 -1.3082  0.9024
 5480SOL    HW321687   0.789   5.417   4.111 -0.2297 -0.7820  1.1098
 5480SOL    MW421688   0.801   5.335   4.137  0.3596 -0.6630  0.1513
 5481SOL     OW21689   2.131   4.622   4.039  0.2266 -0.0414 -0.1488
 5481SOL    HW221690   2.128   4.711   4.004  0.4884  0.0134 -0.0342
 5481SOL    HW321691   2.142   4.634   4.134 -2.0635 -0.1483  0.1900
 5481SOL    MW421692   2.132   4.635   4.047  0.3608 -0.4338  0.1696
 5482SOL     OW21693   5.292   5.564   0.088 -0.1157  0.3500  0.3011
 5482SOL    HW221694   5.206   5.589   0.121 -0.2662  0.6726 -0.3173
 5482SOL    HW321695   5.274   5.524   0.003  0.4694  2.0698 -0.6845
 5482SOL    MW421696   5.278   5.562   0.081 -0.4648 -0.3164  0.6001
 5483SOL     OW21697   2.258   4.383   5.039 -0.3408 -0.3945  0.1424
 5483SOL    HW221698   2.206   4.463   5.033 -0.7020 -0.5319  1.2235
 5483SOL    HW321699   2.344   4.413   5.071 -0.2960 -0.3746  0.0040
 5483SOL    MW421700   2.263   4.398   5.042 -0.1466  0.3474 -0.1685
 5484SOL     OW21701   4.507   2.160   4.706 -0.0577  0.4245 -0.4918
 5484SOL    HW221702   4.529   2.201   4.622  0.6321 -0.4371 -0.7441
 5484SOL    HW321703   4.413   2.144   4.701  0.0141  0.1911 -1.1833
 5484SOL    MW421704   4.498   2.163   4.694  0.4931 -0.5741 -0.6105
 5485SOL     OW21705   2.416   1.083   2.303 -0.6914  0.2252 -0.1220
 5485SOL    HW221706   2.325   1.110   2.286 -1.3289  0.2650  2.7703
 5485SOL    HW321707   2.469   1.149   2.259 -1.9879 -0.1262 -2.4039
 5485SOL    MW421708   2.411   1.095   2.295 -0.5697  0.5729  0.5473
 5486SOL     OW21709   3.337   4.248   2.141 -0.0826 -0.5858  0.3775
 5486SOL    HW221710   3.397   4.234   2.068 -0.7157  0.2708 -0.3232
 5486SOL    HW321711   3.273   4.178   2.133 -0.1928 -0.4513  0.0570
 5486SOL    MW421712   3.336   4.237   2.130 -0.2825  0.0267 -0.0360
 5487SOL     OW21713   5.480   0.980   6.178  0.1523  0.1217  0.1588
 5487SOL    HW221714   5.474   0.899   6.127 -0.7335 -0.4066  1.0681
 5487SOL    HW321715   5.482   0.950   6.269 -3.0856  1.1994  0.6820
 5487SOL    MW421716   5.480   0.965   6.184 -0.4475  0.2861 -0.2548
 5488SOL     OW21717   5.873   3.571   2.569 -0.3378  0.7453  0.2895
 5488SOL    HW221718   5.951   3.538   2.524 -1.1621 -0.9057  0.0177
 5488SOL    HW321719   5.857   3.657   2.529 -1.0887 -0.6653 -2.7226
 5488SOL    MW421720   5.881   3.578   2.558 -0.2929  0.4781  0.0841
 5489SOL     OW21721   0.198   6.185   1.944  0.1453 -0.7310 -0.0043
 5489SOL    HW221722   0.283   6.148   1.920  0.6674  0.1032  0.5389
 5489SOL    HW321723   0.147   6.181   1.863  1.1699  0.0852 -0.7189
 5489SOL    MW421724   0.202   6.179   1.930 -0.6246  0.4250  0.1200
 5490SOL     OW21725   5.227   3.572   1.136  0.5041  0.2454 -0.1268
 5490SOL    HW221726   5.207   3.588   1.044  0.6813 -0.9085 -0.3790
 5490SOL    HW321727   5.147   3.598   1.183  0.6461  1.4560 -0.5277
 5490SOL    MW421728   5.214   3.578   1.130 -0.2680  0.7066 -0.4774
 5491SOL     OW21729   2.165   2.566   0.677 -0.3675 -0.3354  0.2353
 5491SOL    HW221730   2.093   2.624   0.702 -0.9716 -0.1416 -1.7736
 5491SOL    HW321731   2.225   2.569   0.751 -2.0987  0.0178  1.6970
 5491SOL    MW421732   2.163   2.574   0.690 -0.0761 -0.2438 -0.8922
 5492SOL     OW21733   0.668   3.277   4.858  0.1956  0.3009 -0.2975
 5492SOL    HW221734   0.637   3.364   4.834  0.9559  0.7559  0.3385
 5492SOL    HW321735   0.697   3.285   4.949 -0.7994 -0.9060  0.1634
 5492SOL    MW421736   0.668   3.289   4.867 -0.3267 -0.5695 -0.3011
 5493SOL     OW21737   3.168   2.144   3.728 -0.1291 -0.1332  0.0660
 5493SOL    HW221738   3.182   2.059   3.769  1.8343 -0.5794 -1.3663
 5493SOL    HW321739   3.227   2.203   3.773 -0.9310  0.3132  0.5476
 5493SOL    MW421740   3.177   2.141   3.739  0.6247 -1.2144  0.2918
 5494SOL     OW21741   3.331   4.352   1.300  0.5856  0.4721 -0.0325
 5494SOL    HW221742   3.252   4.391   1.263  0.2692 -0.0901  0.0304
 5494SOL    HW321743   3.319   4.358   1.395  0.6040  0.3668 -0.0230
 5494SOL    MW421744   3.319   4.358   1.307  0.1079  0.1724  0.1134
 5495SOL     OW21745   1.570   2.624   2.350  0.6977  0.5671  0.0018
 5495SOL    HW221746   1.543   2.623   2.442 -0.5744  0.3556 -0.3469
 5495SOL    HW321747   1.549   2.537   2.318 -0.5694  1.1615 -0.9148
 5495SOL    MW421748   1.563   2.613   2.358  0.4995  0.1895  0.2237
 5496SOL     OW21749   1.779   2.258   4.079 -0.2254  0.3543 -0.2516
 5496SOL    HW221750   1.823   2.176   4.062 -1.9443 -0.7186  0.2170
 5496SOL    HW321751   1.686   2.235   4.085 -0.5760  1.9940  1.8344
 5496SOL    MW421752   1.773   2.244   4.078  0.5631 -0.6288 -0.0749
 5497SOL     OW21753   0.162   4.545   0.954  0.6930  0.2114 -0.4005
 5497SOL    HW221754   0.179   4.476   1.019 -0.7281  0.6236  0.4383
 5497SOL    HW321755   0.187   4.505   0.870  1.1187 -0.8589  0.2149
 5497SOL    MW421756   0.168   4.530   0.951 -0.3836  0.0645  0.5965
 5498SOL     OW21757   6.248   0.664   5.601  0.0986  0.2349  0.0743
 5498SOL    HW221758   6.219   0.755   5.611  0.3589  0.2569  0.6581
 5498SOL    HW321759   6.193   0.615   5.662 -0.7616 -0.1617 -0.9884
 5498SOL    MW421760   6.237   0.670   5.610 -0.5205  0.4153 -0.1558
 5499SOL     OW21761   4.534   3.416   5.177  0.3276  0.1755  0.8536
 5499SOL    HW221762   4.476   3.463   5.117 -0.6375  0.7622  2.1975
 5499SOL    HW321763   4.596   3.370   5.120 -0.7648  0.4306 -0.5830
 5499SOL    MW421764   4.535   3.417   5.161 -0.1612 -0.5071 -0.0164
 5500SOL     OW21765   2.833   5.115   3.470 -0.4242 -0.4059 -0.8416
 5500SOL    HW221766   2.758   5.127   3.529 -1.3780 -0.0506 -2.0898
 5500SOL    HW321767   2.850   5.021   3.471 -1.6705 -0.6595 -1.4592
 5500SOL    MW421768   2.826   5.105   3.478 -0.1303  0.7520  0.2688
 5501SOL     OW21769   1.095   0.617   5.642  0.1531 -0.6140 -0.1154
 5501SOL    HW221770   1.090   0.619   5.738  2.0446  1.9217  0.0370
 5501SOL    HW321771   1.010   0.652   5.614 -0.3650 -1.2416  0.6219
 5501SOL    MW421772   1.083   0.622   5.651  0.1177  0.0613  0.2964
 5502SOL     OW21773   4.771   4.473   3.562  0.6900  0.0144 -0.0751
 5502SOL    HW221774   4.786   4.472   3.467 -0.3953 -1.4527 -0.2508
 5502SOL    HW321775   4.676   4.475   3.572  0.5280 -3.8879  0.8841
 5502SOL    MW421776   4.761   4.473   3.551  0.5179  0.3282 -0.2626
 5503SOL     OW21777   4.765   1.248   4.895 -0.0285 -0.1474 -0.1893
 5503SOL    HW221778   4.758   1.209   4.982  1.2516  0.2513  0.1113
 5503SOL    HW321779   4.841   1.204   4.855 -0.0316  0.3429 -0.7485
 5503SOL    MW421780   4.774   1.237   4.901  0.0654 -0.6556  0.0820
 5504SOL     OW21781   1.373   6.295   1.879 -0.3307  0.2055 -0.1033
 5504SOL    HW221782   1.320   6.255   1.948  1.2372 -0.1443  0.9357
 5504SOL    HW321783   1.310   6.349   1.829 -1.6519 -0.2056  1.0569
 5504SOL    MW421784   1.357   6.297   1.881 -0.4471 -0.5852 -0.3069
 5505SOL     OW21785   3.390   4.641   0.516 -0.2078  0.1014  0.6104
 5505SOL    HW221786   3.448   4.625   0.590 -0.2921  0.6364  0.7957
 5505SOL    HW321787   3.329   4.708   0.547 -1.1427 -0.6937  0.5338
 5505SOL    MW421788   3.390   4.648   0.530 -0.0493 -0.0103 -0.4065
 5506SOL     OW21789   2.003   4.314   6.387 -0.2883 -0.0760 -0.0696
 5506SOL    HW221790   2.073   4.270   6.435 -0.2660 -0.1518 -0.1708
 5506SOL    HW321791   1.953   4.361   6.454 -0.5050 -0.5170  0.0799
 5506SOL    MW421792   2.006   4.315   6.402  0.0920  0.1676 -0.7162
 5507SOL     OW21793   4.904   0.604   2.512 -0.7035  1.1907  0.6164
 5507SOL    HW221794   4.874   0.513   2.510  0.3016  0.8295  1.0260
 5507SOL    HW321795   4.965   0.607   2.587  1.9953  1.3009 -1.4392
 5507SOL    MW421796   4.908   0.593   2.522  0.1346 -0.0241 -0.9044
 5508SOL     OW21797   0.896   1.389   1.257  0.0866 -0.5917  0.0842
 5508SOL    HW221798   0.815   1.383   1.308 -0.4570 -0.3266 -0.7237
 5508SOL    HW321799   0.894   1.478   1.220  2.3972  0.7449  2.7281
 5508SOL    MW421800   0.885   1.400   1.259  0.1601 -0.4473 -0.1743
 5509SOL     OW21801   1.990   4.244   5.566 -0.2267 -0.5579  0.3814
 5509SOL    HW221802   2.006   4.274   5.655  1.1240  0.2830 -0.1113
 5509SOL    HW321803   2.071   4.265   5.518 -1.1039 -0.5172 -1.1655
 5509SOL    MW421804   2.003   4.251   5.571  0.5706 -0.1106 -0.6906
 5510SOL     OW21805   1.520   0.289   3.328 -0.6482  0.2329 -0.6762
 5510SOL    HW221806   1.607   0.313   3.296 -1.3587  2.7682 -0.9397
 5510SOL    HW321807   1.530   0.283   3.423 -0.6363  3.2734 -0.3696
 5510SOL    MW421808   1.532   0.291   3.336 -0.3119  0.1202  0.3731
 5511SOL     OW21809   3.622   1.273   3.422 -0.5102  0.7110 -0.3526
 5511SOL    HW221810   3.529   1.251   3.413 -0.1114 -0.8466 -0.9582
 5511SOL    HW321811   3.659   1.259   3.335  0.2405  1.6209 -0.1936
 5511SOL    MW421812   3.615   1.268   3.410  0.7444 -0.0425 -0.3514
 5512SOL     OW21813   1.486   2.915   3.065 -0.0236  0.3329 -0.3390
 5512SOL    HW221814   1.543   2.839   3.061 -0.4810 -0.0797  0.6163
 5512SOL    HW321815   1.532   2.977   3.121 -0.4054  0.0758  0.2740
 5512SOL    MW421816   1.500   2.913   3.072 -0.5754  0.6191 -0.4052
 5513SOL     OW21817   5.313   2.453   1.778  0.4949 -0.1610 -0.3258
 5513SOL    HW221818   5.395   2.447   1.828  0.2213 -1.1150  0.0276
 5513SOL    HW321819   5.290   2.546   1.782  2.0861  0.3264 -1.2943
 5513SOL    MW421820   5.321   2.464   1.785 -0.3465  0.0610 -0.0258
 5514SOL     OW21821   4.215   3.369   2.794 -0.4278 -0.1413  0.5737
 5514SOL    HW221822   4.165   3.288   2.804 -2.3655  0.7920 -0.8492
 5514SOL    HW321823   4.279   3.350   2.726 -0.4389 -0.6635  0.7088
 5514SOL    MW421824   4.217   3.356   2.786 -0.4258 -0.7476  0.2731
 5515SOL     OW21825   3.277   1.706   3.326 -0.6005  0.2563 -0.1954
 5515SOL    HW221826   3.248   1.618   3.350 -2.9010  0.8738 -0.4005
 5515SOL    HW321827   3.357   1.720   3.376 -1.3757 -1.1328  1.5644
 5515SOL    MW421828   3.283   1.696   3.336 -0.2071  0.0550  0.2219
 5516SOL     OW21829   5.146   2.959   4.388 -0.4590  0.6261 -0.0695
 5516SOL    HW221830   5.209   3.024   4.419  1.2633 -0.9768 -0.0668
 5516SOL    HW321831   5.186   2.874   4.408 -1.7241 -0.4657 -1.8663
 5516SOL    MW421832   5.159   2.956   4.395 -0.3342 -0.3553  0.5286
 5517SOL     OW21833   4.967   0.570   0.323  0.1731 -0.4554  0.1003
 5517SOL    HW221834   4.932   0.642   0.375 -0.3705 -0.5967 -0.0596
 5517SOL    HW321835   5.029   0.611   0.262  1.5126 -0.3969  1.4512
 5517SOL    MW421836   4.971   0.585   0.322 -0.3540 -0.6922 -0.3990
 5518SOL     OW21837   5.402   3.340   3.594 -0.6182 -0.6013 -0.1763
 5518SOL    HW221838   5.452   3.418   3.617  2.1668 -1.8968 -1.2821
 5518SOL    HW321839   5.323   3.373   3.551  0.7375  1.6279 -1.1548
 5518SOL    MW421840   5.398   3.355   3.591 -0.2015 -0.1327  0.0470
 5519SOL     OW21841   2.889   3.441   2.572 -0.4202  0.3227  0.3344
 5519SOL    HW221842   2.809   3.459   2.622 -0.9087 -1.2873  0.1687
 5519SOL    HW321843   2.942   3.520   2.583 -2.1535  1.5558  0.2004
 5519SOL    MW421844   2.885   3.454   2.580  0.0094 -0.3779  0.3076
 5520SOL     OW21845   1.417   3.805   4.241  0.2204  0.5395 -0.3673
 5520SOL    HW221846   1.419   3.900   4.242 -0.5177  0.5546 -0.3780
 5520SOL    HW321847   1.411   3.779   4.333  0.0117  0.5140 -0.3872
 5520SOL    MW421848   1.417   3.814   4.253  0.2747  0.2211 -0.3607
 5521SOL     OW21849   3.918   5.450   4.351  0.1671 -0.3374  0.2240
 5521SOL    HW221850   3.871   5.508   4.292  0.3223  0.3045  0.7210
 5521SOL    HW321851   4.009   5.481   4.347  0.8250 -2.2679 -1.6092
 5521SOL    MW421852   3.924   5.462   4.343  0.1116  0.7236  0.8732
 5522SOL     OW21853   5.965   6.159   1.979 -0.0022  0.0443  0.7169
 5522SOL    HW221854   5.879   6.198   1.959 -0.7164 -2.4153 -1.5929
 5522SOL    HW321855   6.027   6.216   1.934 -0.7071  0.2931  0.0242
 5522SOL    MW421856   5.961   6.172   1.970 -0.5337 -0.1595  0.2260
 5523SOL     OW21857   5.905   3.450   0.057 -0.3092 -0.2047 -0.2187
 5523SOL    HW221858   5.912   3.355   0.064  0.4639 -0.2356 -1.2127
 5523SOL    HW321859   5.827   3.465   0.003 -0.9418 -0.2337  0.6655
 5523SOL    MW421860   5.896   3.439   0.051 -0.3293 -0.2897 -0.0844
 5524SOL     OW21861   4.638   3.246   0.493 -0.1271  0.5221 -0.0778
 5524SOL    HW221862   4.547   3.265   0.472 -0.6309  0.0971  1.5573
 5524SOL    HW321863   4.634   3.198   0.576  1.6857  1.9932  0.9261
 5524SOL    MW421864   4.625   3.242   0.501 -0.1676  0.3530  0.2520
 5525SOL     OW21865   6.216   4.665   1.928 -0.5284 -0.5352  0.0116
 5525SOL    HW221866   6.262   4.749   1.917  0.7539 -1.1974  0.1242
 5525SOL    HW321867   6.245   4.612   1.853 -0.5450 -1.2082  0.4758
 5525SOL    MW421868   6.226   4.669   1.916  0.0020 -0.2037 -0.2310
 5526SOL     OW21869   4.856   0.129   3.308 -0.3361 -0.1320  0.0234
 5526SOL    HW221870   4.788   0.093   3.365 -1.0412 -0.3637 -0.9465
 5526SOL    HW321871   4.917   0.057   3.296 -0.0369 -0.0019  0.6839
 5526SOL    MW421872   4.855   0.115   3.314  0.2301  0.1341 -0.6335
 5527SOL     OW21873   2.483   2.085   3.584  0.3831 -0.1788 -0.3432
 5527SOL    HW221874   2.558   2.088   3.643 -1.4241  1.9575  2.0740
 5527SOL    HW321875   2.439   2.003   3.605 -0.6198  0.8531  1.9847
 5527SOL    MW421876   2.487   2.075   3.594  0.0490  0.1725  0.0814
 5528SOL     OW21877   6.033   6.001   2.853 -0.0504  0.2195 -0.0737
 5528SOL    HW221878   6.093   6.075   2.863  1.0417 -0.4087 -1.4867
 5528SOL    HW321879   5.992   6.016   2.768 -0.6284 -0.2430  0.1206
 5528SOL    MW421880   6.036   6.013   2.843 -0.7121  0.6087  0.3579
 5529SOL     OW21881   1.813   3.542   2.974  0.2746  0.2219 -0.0211
 5529SOL    HW221882   1.762   3.553   3.055 -1.1100 -1.5478 -0.5831
 5529SOL    HW321883   1.903   3.534   3.003 -0.3068 -1.3620  1.4696
 5529SOL    MW421884   1.818   3.543   2.989  0.0890 -0.5349  0.3864
 5530SOL     OW21885   1.512   3.527   0.486  0.3676 -0.5031 -0.1532
 5530SOL    HW221886   1.576   3.458   0.468  0.5504 -0.5358  0.5610
 5530SOL    HW321887   1.564   3.603   0.509  0.1688 -0.6988  1.0338
 5530SOL    MW421888   1.527   3.528   0.487  0.3591  0.4020  0.0197
 5531SOL     OW21889   0.429   3.839   6.369 -0.7996 -0.2335 -0.5169
 5531SOL    HW221890   0.364   3.888   6.420  0.2229 -0.4307  1.0481
 5531SOL    HW321891   0.512   3.883   6.388 -0.0223 -1.8573  0.0455
 5531SOL    MW421892   0.431   3.851   6.378 -0.2334  0.1108 -0.0575
 5532SOL     OW21893   5.332   4.784   6.362  0.1610 -0.2611 -0.1924
 5532SOL    HW221894   5.397   4.717   6.341 -0.0710 -0.5557  0.0382
 5532SOL    HW321895   5.251   4.736   6.378 -0.9288  0.2817 -3.4387
 5532SOL    MW421896   5.330   4.769   6.362 -0.1636 -0.2939 -0.3480
 5533SOL     OW21897   0.107   3.417   2.959  0.3494 -0.4571  0.3655
 5533SOL    HW221898   0.076   3.327   2.946  1.7806 -0.6359 -2.8089
 5533SOL    HW321899   0.174   3.410   3.026  1.0273 -1.9489 -0.4238
 5533SOL    MW421900   0.112   3.404   2.966 -0.3881 -0.3448  0.0991
 5534SOL     OW21901   1.929   5.977   4.470  0.1950  0.6198  0.0243
 5534SOL    HW221902   1.878   5.923   4.410 -0.1319 -0.6750  1.4064
 5534SOL    HW321903   2.009   5.926   4.487  0.4927  1.1751  0.3376
 5534SOL    MW421904   1.933   5.963   4.464  0.2943 -0.0230  0.9506
 5535SOL     OW21905   6.407   3.562   3.890  0.0839 -0.3896 -0.1027
 5535SOL    HW221906   6.421   3.508   3.812  1.6180  1.0335 -0.8859
 5535SOL    HW321907   6.330   3.523   3.932 -0.0226 -1.9922 -1.6173
 5535SOL    MW421908   6.399   3.550   3.885  0.4157 -0.0536  0.6402
 5536SOL     OW21909   4.936   5.437   0.499 -0.1517  0.3442  0.1625
 5536SOL    HW221910   5.024   5.440   0.537  1.5544  2.5628 -3.4210
 5536SOL    HW321911   4.936   5.359   0.443 -0.0924  0.8412 -0.5446
 5536SOL    MW421912   4.947   5.427   0.496 -0.1328 -0.5609  0.0931
 5537SOL     OW21913   1.003   4.795   0.477  0.0219  0.1671 -0.2193
 5537SOL    HW221914   1.035   4.863   0.419  0.7698  0.5226  0.5811
 5537SOL    HW321915   0.967   4.842   0.552  0.1961 -0.3087  0.1666
 5537SOL    MW421916   1.002   4.810   0.479 -0.2807 -0.6124  0.3010
 5538SOL     OW21917   3.317   1.650   2.009 -0.2093 -0.4568  0.0687
 5538SOL    HW221918   3.259   1.583   1.973  0.3901 -0.0935 -1.6282
 5538SOL    HW321919   3.350   1.612   2.091 -1.2652 -1.4799  0.0333
 5538SOL    MW421920   3.314   1.636   2.015 -0.0160 -0.2704 -0.5293
 5539SOL     OW21921   6.321   6.123   0.097  0.0302 -0.0625  0.3404
 5539SOL    HW221922   6.375   6.045   0.083 -0.9593 -0.8753  0.9330
 5539SOL    HW321923   6.384   6.194   0.112  0.9500 -1.1222  1.7391
 5539SOL    MW421924   6.337   6.122   0.097  0.7893  0.1837 -0.3583
 5540SOL     OW21925   0.650   5.368   4.943  0.7163 -0.0810  0.1841
 5540SOL    HW221926   0.743   5.348   4.946  1.0132  0.9885 -0.9675
 5540SOL    HW321927   0.643   5.458   4.974  0.2469  0.3048 -0.9701
 5540SOL    MW421928   0.661   5.377   4.947 -0.4216 -0.8597 -0.2822
 5541SOL     OW21929   3.466   0.106   5.013 -1.1422 -0.1879  0.0062
 5541SOL    HW221930   3.429   0.019   5.002 -0.9950 -0.0662 -1.9628
 5541SOL    HW321931   3.440   0.153   4.933  0.7381  0.8250 -0.0698
 5541SOL    MW421932   3.458   0.101   5.001 -0.1436 -0.0484  0.2151
 5542SOL     OW21933   4.368   0.843   4.926 -0.4121  0.2426 -0.1744
 5542SOL    HW221934   4.340   0.922   4.879  1.3136 -0.0723 -1.8343
 5542SOL    HW321935   4.447   0.869   4.973  0.1723 -0.4809 -0.7359
 5542SOL    MW421936   4.375   0.857   4.926  0.1671 -0.3834  0.6398
 5543SOL     OW21937   0.690   3.837   0.407 -0.2499 -0.0824  0.4312
 5543SOL    HW221938   0.663   3.747   0.387  2.1014 -0.6478 -0.6343
 5543SOL    HW321939   0.758   3.827   0.474 -0.6264  0.9818  0.9870
 5543SOL    MW421940   0.696   3.824   0.413 -0.0023 -0.4419 -0.0525
 5544SOL     OW21941   5.807   3.107   1.857  0.2337 -0.3761 -0.2281
 5544SOL    HW221942   5.769   3.195   1.851  0.8250 -0.2090 -1.6446
 5544SOL    HW321943   5.897   3.121   1.885  0.0775 -0.6015  0.4125
 5544SOL    MW421944   5.814   3.120   1.860 -0.0724 -0.1007  0.1547
 5545SOL     OW21945   2.599   5.440   2.766  0.2570  0.1253 -0.3061
 5545SOL    HW221946   2.567   5.356   2.734 -1.3776  0.3460  0.6420
 5545SOL    HW321947   2.636   5.482   2.688 -0.0809 -0.9263 -1.0631
 5545SOL    MW421948   2.600   5.435   2.752 -0.3656 -0.1822 -0.0647
 5546SOL     OW21949   4.832   1.335   4.563  0.5333  0.2061 -0.3555
 5546SOL    HW221950   4.856   1.397   4.495 -1.2639  1.9515  0.5203
 5546SOL    HW321951   4.746   1.303   4.538 -0.4921  1.4370  1.3920
 5546SOL    MW421952   4.824   1.339   4.551 -0.2994  0.4063 -0.0219
 5547SOL     OW21953   4.953   4.476   1.780 -0.0559 -0.4899  0.5472
 5547SOL    HW221954   5.001   4.427   1.847  0.7373 -0.3148  0.1200
 5547SOL    HW321955   4.862   4.445   1.788 -0.3792  0.8247  2.9113
 5547SOL    MW421956   4.947   4.466   1.790  0.6012 -0.4423 -0.1852
 5548SOL     OW21957   3.426   2.015   4.075 -0.2118  0.4208 -0.0733
 5548SOL    HW221958   3.429   2.036   4.168  1.8349  0.5977 -0.1370
 5548SOL    HW321959   3.481   1.937   4.066 -0.9047  0.0207 -1.0651
 5548SOL    MW421960   3.434   2.007   4.086  0.0885  0.5683 -0.4789
 5549SOL     OW21961   3.584   0.808   4.986 -0.0691 -0.4703 -0.1828
 5549SOL    HW221962   3.601   0.756   5.064 -0.3827 -0.3459 -0.0282
 5549SOL    HW321963   3.505   0.770   4.948 -0.2965 -0.1155 -0.0720
 5549SOL    MW421964   3.576   0.796   4.992 -0.1913 -0.1538  0.4100
 5550SOL     OW21965   5.993   0.855   4.398  0.4256  0.1599  0.1539
 5550SOL    HW221966   5.999   0.797   4.322 -0.5511  1.6734 -1.1483
 5550SOL    HW321967   5.923   0.817   4.452  1.1791 -0.9701  0.3656
 5550SOL    MW421968   5.984   0.843   4.395 -0.2754 -0.3894  0.4609
 5551SOL     OW21969   4.808   5.429   5.677 -0.2201 -0.0185 -0.6011
 5551SOL    HW221970   4.719   5.396   5.661 -0.1370 -0.2876 -0.5312
 5551SOL    HW321971   4.808   5.453   5.770 -0.0484 -0.5961 -0.4413
 5551SOL    MW421972   4.796   5.428   5.687 -0.3334  0.2039 -0.4988
 5552SOL     OW21973   2.016   6.387   5.031 -0.0268 -0.2764  0.0168
 5552SOL    HW221974   2.049   6.323   5.095  0.0472 -1.4237 -1.1394
 5552SOL    HW321975   1.936   6.422   5.072 -0.3662 -1.4997  0.4391
 5552SOL    MW421976   2.010   6.383   5.045 -0.3964 -0.1829 -0.8045
 5553SOL     OW21977   0.623   3.354   3.653  0.2610  0.3045 -0.2096
 5553SOL    HW221978   0.692   3.411   3.686  2.2715 -0.8866 -2.0414
 5553SOL    HW321979   0.632   3.273   3.703  1.9579 -0.7570 -2.0853
 5553SOL    MW421980   0.633   3.351   3.664  0.5361  0.2888 -0.1392
 5554SOL     OW21981   1.046   2.703   4.811 -0.6217 -0.5055  0.3751
 5554SOL    HW221982   1.114   2.721   4.746 -1.0969  2.7148  0.5920
 5554SOL    HW321983   1.094   2.695   4.894 -0.2476 -2.0022  0.0421
 5554SOL    MW421984   1.062   2.705   4.814 -0.1272 -0.0783 -0.3881
 5555SOL     OW21985   3.879   2.188   3.445 -0.0428  0.2648 -0.3545
 5555SOL    HW221986   3.790   2.211   3.471  0.2064  0.7823  0.0703
 5555SOL    HW321987   3.868   2.122   3.376 -0.7591  0.9510 -0.9137
 5555SOL    MW421988   3.866   2.182   3.440  0.2615 -0.1227  0.1803
 5556SOL     OW21989   0.487   0.026   3.290  0.0177 -0.2068  0.3248
 5556SOL    HW221990   0.399   0.020   3.325 -0.9225  1.6527 -1.5361
 5556SOL    HW321991   0.480  -0.006   3.200  0.9890  0.8146 -0.1485
 5556SOL    MW421992   0.475   0.021   3.283  0.0135  0.4647  0.0125
 5557SOL     OW21993   3.936   1.634   1.384 -0.7933 -0.8188 -0.1749
 5557SOL    HW221994   3.937   1.681   1.301 -1.7636 -1.8565 -0.8202
 5557SOL    HW321995   3.866   1.675   1.434  1.4650  1.5448  1.2724
 5557SOL    MW421996   3.927   1.645   1.379 -0.4082 -0.0489  0.4066
 5558SOL     OW21997   3.553   5.979   0.896  0.5403 -0.7068  0.3339
 5558SOL    HW221998   3.469   5.977   0.849  1.8096  0.8929 -2.2051
 5558SOL    HW321999   3.618   5.955   0.830  2.3048  0.1213  1.6894
 5558SOL    MW422000   3.550   5.976   0.881 -0.0829  0.0160 -0.0803
 5559SOL     OW22001   4.597   5.249   4.895 -0.6302 -0.3828  0.0164
 5559SOL    HW222002   4.689   5.224   4.894 -0.6537 -0.4680 -0.3366
 5559SOL    HW322003   4.564   5.217   4.979  0.3490  2.1760  1.4825
 5559SOL    MW422004   4.605   5.241   4.906 -0.4055  0.2002  0.2084
 5560SOL     OW22005   0.048   4.801   5.594 -0.1437  0.1118 -0.1622
 5560SOL    HW222006   0.125   4.813   5.648  0.5474 -0.0749 -1.0815
 5560SOL    HW322007   0.049   4.708   5.571  0.4196  0.4696 -1.7029
 5560SOL    MW422008   0.058   4.790   5.598  0.0533  0.6799 -0.9176
 5561SOL     OW22009   3.448   3.580   6.231 -0.1013 -0.0120  0.7884
 5561SOL    HW222010   3.361   3.600   6.266 -0.0611  0.3070  0.7059
 5561SOL    HW322011   3.497   3.662   6.240  0.2749 -0.2663  1.0869
 5561SOL    MW422012   3.443   3.593   6.237 -0.0746 -0.0176 -0.4038
 5562SOL     OW22013   0.526   3.946   2.469  0.3069 -0.9933  0.0549
 5562SOL    HW222014   0.534   3.900   2.553 -0.6288 -1.9072 -0.3383
 5562SOL    HW322015   0.448   3.909   2.429  0.2927  0.0033 -0.8834
 5562SOL    MW422016   0.516   3.935   2.475 -0.0364 -1.1193  0.0030
 5563SOL     OW22017   1.707   5.473   4.833 -0.0838  0.1303 -0.4784
 5563SOL    HW222018   1.737   5.423   4.758  1.9296  1.1174 -0.3876
 5563SOL    HW322019   1.613   5.454   4.839  0.0858 -1.3964 -2.1000
 5563SOL    MW422020   1.698   5.464   4.824  0.1752  0.5789 -0.6420
 5564SOL     OW22021   4.354   1.562   3.498  0.3533  0.2759 -0.8246
 5564SOL    HW222022   4.272   1.612   3.502 -0.6559 -1.1771 -2.1940
 5564SOL    HW322023   4.329   1.473   3.521  1.2402 -0.4953 -2.6416
 5564SOL    MW422024   4.340   1.557   3.502  0.1451 -0.5737  0.2986
 5565SOL     OW22025   3.184   3.584   3.109 -0.2957 -0.2571 -0.2159
 5565SOL    HW222026   3.167   3.507   3.055 -0.5997  0.4788 -1.1984
 5565SOL    HW322027   3.164   3.555   3.199  0.1789 -1.4819 -0.4891
 5565SOL    MW422028   3.179   3.570   3.114  0.0680 -0.2715  0.0929
 5566SOL     OW22029   4.882   5.034   0.282 -0.2330  0.4458  0.2938
 5566SOL    HW222030   4.894   4.972   0.210  0.8491  0.8346  0.1267
 5566SOL    HW322031   4.880   5.120   0.239  0.2292  0.6625  0.7045
 5566SOL    MW422032   4.883   5.037   0.267 -0.4168 -0.1289 -0.4053
 5567SOL     OW22033   1.265   4.738   0.970 -0.4189  0.3016 -0.5147
 5567SOL    HW222034   1.229   4.825   0.954 -0.7806  0.2263 -0.1120
 5567SOL    HW322035   1.302   4.712   0.885 -1.1672  0.4457 -0.8937
 5567SOL    MW422036   1.265   4.746   0.956  0.2230 -0.3259  0.1302
 5568SOL     OW22037   4.874   4.086   2.973  0.3667 -0.1641 -0.7637
 5568SOL    HW222038   4.831   4.083   2.888 -1.3157 -1.5640  0.0844
 5568SOL    HW322039   4.915   4.000   2.983  0.6705  0.0379 -0.2215
 5568SOL    MW422040   4.874   4.075   2.963 -0.3440  0.1473  0.7840
 5569SOL     OW22041   2.565   4.518   1.361  0.1300  0.0466  0.0184
 5569SOL    HW222042   2.533   4.507   1.271  0.9315 -1.5147 -0.1287
 5569SOL    HW322043   2.596   4.430   1.385 -0.2640  0.3880  1.9051
 5569SOL    MW422044   2.565   4.505   1.352  0.5762  0.5430  0.1640
 5570SOL     OW22045   1.418   4.491   4.689 -0.2184 -0.0850  0.9714
 5570SOL    HW222046   1.505   4.458   4.666  0.3038  1.4648  0.5790
 5570SOL    HW322047   1.363   4.468   4.613  0.0733 -0.2477  0.8078
 5570SOL    MW422048   1.422   4.484   4.676  0.5302  0.9286 -0.3119
 5571SOL     OW22049   2.997   0.476   3.398  0.6001  0.7368  0.1408
 5571SOL    HW222050   2.940   0.407   3.434  1.0061  0.2313 -0.1649
 5571SOL    HW322051   3.084   0.455   3.433  0.4588  2.0318  1.3591
 5571SOL    MW422052   3.001   0.464   3.408  0.1209  0.0411  0.5279
 5572SOL     OW22053   2.073   1.762   1.511  0.2086 -0.5705 -0.0592
 5572SOL    HW222054   2.144   1.745   1.573  0.0377 -2.6471 -0.3441
 5572SOL    HW322055   2.069   1.682   1.458 -1.6124 -0.0509 -0.7646
 5572SOL    MW422056   2.082   1.749   1.512 -0.2573  0.3720  0.0927
 5573SOL     OW22057   1.848   4.369   0.447 -0.8002  0.3750  0.1327
 5573SOL    HW222058   1.935   4.334   0.426  0.4560  2.2536  1.7071
 5573SOL    HW322059   1.825   4.327   0.530 -2.0258 -1.0696 -0.9087
 5573SOL    MW422060   1.857   4.359   0.455 -0.2988 -0.2543 -0.1584
 5574SOL     OW22061   4.176   5.539   5.591 -0.2952  0.0631 -0.2302
 5574SOL    HW222062   4.192   5.454   5.632 -1.4221  0.9284  2.2270
 5574SOL    HW322063   4.233   5.540   5.514 -0.0390 -2.7688 -0.1757
 5574SOL    MW422064   4.186   5.528   5.587 -0.2119 -0.3138 -0.2475
 5575SOL     OW22065   2.306   2.089   4.202 -0.1044 -0.2328 -0.1059
 5575SOL    HW222066   2.300   2.148   4.127  0.1659  1.5401  1.2184
 5575SOL    HW322067   2.373   2.025   4.176  0.0445  0.3961 -1.3420
 5575SOL    MW422068   2.314   2.088   4.188 -0.1500 -0.2977 -0.6945
 5576SOL     OW22069   4.313   1.835   1.185  0.0800  0.2365 -0.3023
 5576SOL    HW222070   4.378   1.866   1.123  0.3668  0.0053 -0.1178
 5576SOL    HW322071   4.316   1.897   1.258  0.9169 -0.4136  0.2391
 5576SOL    MW422072   4.322   1.847   1.186  0.1921 -0.1999 -0.4471
 5577SOL     OW22073   0.942   1.991   6.124 -0.1238 -0.1975  0.4819
 5577SOL    HW222074   1.038   1.982   6.126  0.0524  0.3698 -1.9599
 5577SOL    HW322075   0.926   2.077   6.163  0.6182  0.7113 -1.1087
 5577SOL    MW422076   0.953   2.001   6.129 -0.6623  0.3933  0.5433
 5578SOL     OW22077   3.611   3.196   2.853 -0.1073  0.3850 -0.2385
 5578SOL    HW222078   3.566   3.238   2.780 -1.0485 -0.3062 -0.0770
 5578SOL    HW322079   3.559   3.118   2.872  1.5971 -0.8833 -0.5458
 5578SOL    MW422080   3.598   3.191   2.846 -0.4142  0.4539 -0.0714
 5579SOL     OW22081   5.806   1.272   3.852  0.5631 -0.3698  0.5380
 5579SOL    HW222082   5.891   1.316   3.848  1.0573 -1.3484 -0.0447
 5579SOL    HW322083   5.749   1.325   3.795  1.0421 -0.2404  0.1686
 5579SOL    MW422084   5.810   1.285   3.844  0.2223 -0.2799  0.1771
 5580SOL     OW22085   3.988   0.872   1.212  0.2348  0.0372 -0.3718
 5580SOL    HW222086   4.047   0.936   1.251 -0.3267 -0.8035  2.0499
 5580SOL    HW322087   4.039   0.831   1.142  0.9463  2.3339 -1.3106
 5580SOL    MW422088   4.002   0.875   1.208 -0.0552 -0.6560 -0.1604
 5581SOL     OW22089   3.261   6.319   4.927 -0.0358  0.0826  0.2308
 5581SOL    HW222090   3.209   6.260   4.981  0.5115  0.4348  1.1612
 5581SOL    HW322091   3.315   6.261   4.873 -2.5554 -0.3590 -2.0324
 5581SOL    MW422092   3.261   6.304   4.927 -0.0756 -0.0284 -0.1596
 5582SOL     OW22093   5.878   6.031   0.855 -0.6347 -0.3874  0.1998
 5582SOL    HW222094   5.943   6.089   0.893 -0.6284 -1.5349  2.0708
 5582SOL    HW322095   5.913   6.008   0.769 -0.0425  1.3189 -0.0486
 5582SOL    MW422096   5.891   6.035   0.848  0.1061  0.1307 -0.3702
 5583SOL     OW22097   1.293   0.920   5.754 -0.3810  0.8202  0.2640
 5583SOL    HW222098   1.270   0.860   5.683 -1.0318  1.6122 -0.2149
 5583SOL    HW322099   1.379   0.891   5.783 -1.5307 -1.7288  1.5256
 5583SOL    MW422100   1.301   0.908   5.749  0.3547 -0.3938  0.1698
 5584SOL     OW22101   5.032   2.760   1.227  0.8796 -0.3073  0.4324
 5584SOL    HW222102   5.025   2.696   1.297  0.6489  1.4769  2.1284
 5584SOL    HW322103   4.944   2.769   1.193  1.2068 -2.1186 -1.0450
 5584SOL    MW422104   5.020   2.753   1.232 -0.3246 -0.4564  0.3642
 5585SOL     OW22105   4.834   6.070   2.192 -0.2505 -0.1991 -0.7591
 5585SOL    HW222106   4.845   6.025   2.276  1.1342 -1.5566 -1.6283
 5585SOL    HW322107   4.766   6.136   2.209  0.8745  0.4033  1.7369
 5585SOL    MW422108   4.826   6.073   2.205 -0.2448  0.9665 -0.5620
 5586SOL     OW22109   0.557   2.463   0.557 -0.1627 -0.1374 -0.1095
 5586SOL    HW222110   0.610   2.407   0.500  0.4278  0.1705  0.1221
 5586SOL    HW322111   0.602   2.459   0.641 -1.2081 -0.8389  0.4244
 5586SOL    MW422112   0.570   2.455   0.560  0.0003 -0.1716 -0.0882
 5587SOL     OW22113   5.461   5.475   5.198  0.2294  0.5832  0.8685
 5587SOL    HW222114   5.427   5.385   5.194 -1.3532  1.1698  0.6034
 5587SOL    HW322115   5.555   5.465   5.183 -0.0496 -0.9486 -0.1361
 5587SOL    MW422116   5.469   5.462   5.196  0.3466 -0.2812  0.1793
 5588SOL     OW22117   5.177   2.398   3.355 -0.0740 -0.3131  0.1715
 5588SOL    HW222118   5.191   2.466   3.290  2.7533 -0.1991  0.7880
 5588SOL    HW322119   5.226   2.427   3.432 -0.3157 -2.1518  1.0828
 5588SOL    MW422120   5.185   2.411   3.357  0.2488 -0.1237 -0.1375
 5589SOL     OW22121   1.080   4.885   3.010  0.3877 -0.2200 -0.5467
 5589SOL    HW222122   1.026   4.958   3.041 -0.6110 -0.4445 -1.6658
 5589SOL    HW322123   1.037   4.807   3.044 -0.0666 -0.4036 -1.4950
 5589SOL    MW422124   1.067   4.885   3.019 -0.0210  0.2099 -0.0086
 5590SOL     OW22125   1.647   3.039   1.447 -0.3900 -0.1300  0.2836
 5590SOL    HW222126   1.564   3.029   1.494  0.4562  1.5669  2.2705
 5590SOL    HW322127   1.690   3.113   1.489  2.1252 -0.9069 -0.7316
 5590SOL    MW422128   1.641   3.048   1.458  0.1313 -0.4367  0.2352
 5591SOL     OW22129   0.851   5.562   3.277 -0.0063 -0.5973  0.2618
 5591SOL    HW222130   0.903   5.642   3.275 -2.2366  0.9399 -1.8982
 5591SOL    HW322131   0.766   5.589   3.314 -0.3901 -2.2464  0.6633
 5591SOL    MW422132   0.846   5.576   3.281  0.0884 -0.0118 -1.1015
 5592SOL     OW22133   5.694   2.767   5.923  0.1443  0.1246 -0.0728
 5592SOL    HW222134   5.688   2.681   5.880  0.4928  0.2574 -0.3900
 5592SOL    HW322135   5.754   2.753   5.996  1.1116  0.3583 -0.7964
 5592SOL    MW422136   5.701   2.754   5.927 -0.0711 -0.0875 -0.2156
 5593SOL     OW22137   0.049   1.152   3.542  0.2470  0.1507 -0.2535
 5593SOL    HW222138   0.016   1.206   3.470 -1.2586 -1.2529 -0.6601
 5593SOL    HW322139  -0.028   1.108   3.577  1.2829 -0.9430  0.7456
 5593SOL    MW422140   0.035   1.153   3.537  0.2617  0.4398  0.0383
 5594SOL     OW22141   0.222   4.322   1.108  0.4416  0.7267  0.0608
 5594SOL    HW222142   0.148   4.287   1.059  1.1131 -0.1846 -0.3349
 5594SOL    HW322143   0.298   4.280   1.069  1.1082  1.0754  0.9562
 5594SOL    MW422144   0.222   4.312   1.096 -0.5180  0.0543 -0.2307
 5595SOL     OW22145   0.028   5.921   6.057  0.1245 -0.0921 -0.0661
 5595SOL    HW222146  -0.030   5.995   6.076 -0.6069 -0.2311 -1.5716
 5595SOL    HW322147   0.097   5.927   6.123 -0.1760  1.6385  0.1542
 5595SOL    MW422148   0.029   5.932   6.068  0.2750  0.6889 -0.1104
 5596SOL     OW22149   1.891   0.162   0.695  0.1280  0.0491 -0.3766
 5596SOL    HW222150   1.980   0.162   0.730 -0.1073  1.8536  0.2973
 5596SOL    HW322151   1.898   0.116   0.611  1.6587  0.0398 -0.2579
 5596SOL    MW422152   1.903   0.156   0.688 -0.9154  0.2294 -0.0654
 5597SOL     OW22153   0.564   3.562   0.962 -0.4822 -0.0590 -0.0305
 5597SOL    HW222154   0.603   3.595   0.882 -0.2224  0.1419  0.1757
 5597SOL    HW322155   0.473   3.591   0.959 -0.7209 -0.8554 -0.6949
 5597SOL    MW422156   0.557   3.570   0.951  0.4509 -0.3656  0.4866
 5598SOL     OW22157   4.576   3.086   2.391 -0.0451 -0.4699  0.1827
 5598SOL    HW222158   4.628   3.167   2.399  0.5097 -0.8653  0.6926
 5598SOL    HW322159   4.570   3.071   2.297 -1.6343  1.0948 -0.0137
 5598SOL    MW422160   4.582   3.095   2.380  0.3408 -0.9780  0.1244
 5599SOL     OW22161   5.241   1.078   3.655  0.3047  0.0895  0.0791
 5599SOL    HW222162   5.182   1.034   3.716  0.1276 -1.2740 -1.0098
 5599SOL    HW322163   5.217   1.171   3.661 -1.0473 -0.2680  0.6362
 5599SOL    MW422164   5.230   1.085   3.664 -0.0878 -0.9074 -0.1687
 5600SOL     OW22165   2.839   0.858   1.508 -0.5151 -0.0284 -0.2461
 5600SOL    HW222166   2.820   0.923   1.440 -1.8958  0.9334  0.9912
 5600SOL    HW322167   2.766   0.797   1.505 -1.3113  0.7818  1.1928
 5600SOL    MW422168   2.827   0.859   1.499 -0.3143  0.7035 -0.0471
 5601SOL     OW22169   5.375   5.485   2.717  0.1518 -0.4042  0.0769
 5601SOL    HW222170   5.470   5.487   2.708  0.2978  0.7788  1.5016
 5601SOL    HW322171   5.355   5.554   2.780 -1.8083  0.5306 -1.4418
 5601SOL    MW422172   5.385   5.495   2.724 -0.5073 -0.4385 -0.7697
 5602SOL     OW22173   0.973   3.017   0.176  0.2636  0.6473  0.2150
 5602SOL    HW222174   0.927   3.100   0.183 -0.4243  0.3438 -0.5935
 5602SOL    HW322175   0.940   2.965   0.250 -2.5587 -0.4307 -1.6473
 5602SOL    MW422176   0.963   3.021   0.187  0.2659 -0.2829 -0.4474
 5603SOL     OW22177   4.850   3.642   2.885 -0.1957  0.2085 -0.5739
 5603SOL    HW222178   4.835   3.610   2.973  0.3920  2.0378  0.2494
 5603SOL    HW322179   4.922   3.589   2.851  0.7246  0.5956  0.7162
 5603SOL    MW422180   4.858   3.631   2.892 -0.3514  0.4916  0.2352
 5604SOL     OW22181   5.357   6.149   3.745 -0.4903 -0.5739  0.1135
 5604SOL    HW222182   5.385   6.095   3.820  0.6237  0.6401  0.6143
 5604SOL    HW322183   5.363   6.089   3.670  2.3348 -0.7874  0.3895
 5604SOL    MW422184   5.362   6.134   3.745  0.1632  0.1251  0.0014
 5605SOL     OW22185   5.282   2.259   0.739 -0.4457 -0.2863  0.1432
 5605SOL    HW222186   5.344   2.186   0.737 -1.1183 -0.8934  1.0191
 5605SOL    HW322187   5.267   2.275   0.832  1.3032  2.3662  0.0623
 5605SOL    MW422188   5.288   2.251   0.751 -0.1813  0.3184 -0.5628
 5606SOL     OW22189   1.396   5.460   6.016 -0.2419 -0.1478 -0.4489
 5606SOL    HW222190   1.415   5.506   6.098 -0.4839  0.3229 -0.6493
 5606SOL    HW322191   1.473   5.476   5.962 -1.0080  1.4885 -1.1432
 5606SOL    MW422192   1.408   5.468   6.020 -1.0658 -0.0647  0.0860
 5607SOL     OW22193   0.558   1.549   4.775 -0.0579  0.6915  0.4392
 5607SOL    HW222194   0.647   1.516   4.767 -0.3806  0.0482 -0.5755
 5607SOL    HW322195   0.503   1.471   4.780 -0.7729  1.0240 -1.3934
 5607SOL    MW422196   0.563   1.535   4.775 -1.0013 -0.4285  0.1310
 5608SOL     OW22197   1.599   1.607   3.357 -0.3259  0.6609 -0.0502
 5608SOL    HW222198   1.517   1.617   3.308 -0.7320 -2.2376 -0.1244
 5608SOL    HW322199   1.667   1.612   3.291 -0.4946  1.7670 -0.1669
 5608SOL    MW422200   1.597   1.609   3.342  0.8385 -0.0356  0.2389
 5609SOL     OW22201   0.360   1.593   0.703  0.9534  0.2747 -0.2382
 5609SOL    HW222202   0.448   1.597   0.667  1.4783 -0.2664  0.9564
 5609SOL    HW322203   0.329   1.505   0.681  0.0105  1.0069 -2.1583
 5609SOL    MW422204   0.367   1.582   0.695 -0.3481  0.2647 -0.6492
 5610SOL     OW22205   3.494   4.569   0.149 -0.2335 -0.2570 -0.3822
 5610SOL    HW222206   3.514   4.606   0.062 -0.1756 -0.8701 -0.6322
 5610SOL    HW322207   3.483   4.476   0.133 -1.1454 -0.2379  0.1223
 5610SOL    MW422208   3.495   4.562   0.135  0.0319  0.3531  0.1650
 5611SOL     OW22209   1.627   3.876   4.894  0.3885 -0.5852  0.1378
 5611SOL    HW222210   1.702   3.922   4.932  0.2122 -0.2890  0.1342
 5611SOL    HW322211   1.665   3.802   4.848  0.7735  0.1361 -0.7364
 5611SOL    MW422212   1.642   3.872   4.893  0.0108 -0.4733  0.3298
 5612SOL     OW22213   2.755   3.874   6.238  0.5494 -0.1022  0.1967
 5612SOL    HW222214   2.784   3.964   6.253  0.8575  0.2347 -2.1461
 5612SOL    HW322215   2.662   3.875   6.262  0.1163  1.3157 -1.3407
 5612SOL    MW422216   2.746   3.886   6.243 -0.4032  0.3534 -0.6148
 5613SOL     OW22217   1.664   0.251   5.839  0.0585  0.5680 -0.4601
 5613SOL    HW222218   1.642   0.210   5.923 -0.7994  1.4130 -0.2535
 5613SOL    HW322219   1.703   0.180   5.788 -1.8254 -0.6786 -0.3027
 5613SOL    MW422220   1.666   0.236   5.843 -0.0168 -0.2148 -0.2657
 5614SOL     OW22221   0.641   2.914   2.286  0.1847  0.6881  0.1034
 5614SOL    HW222222   0.570   2.860   2.251  0.8768  0.2898 -0.7467
 5614SOL    HW322223   0.611   3.004   2.274 -0.4437  0.5178  0.3464
 5614SOL    MW422224   0.628   2.919   2.279 -0.0224 -0.2749  0.6877
 5615SOL     OW22225   4.182   5.570   3.138 -0.3775  0.0565 -0.2604
 5615SOL    HW222226   4.201   5.646   3.082  3.2333 -0.4617  0.0139
 5615SOL    HW322227   4.096   5.589   3.176  0.3171  3.9917 -0.2249
 5615SOL    MW422228   4.173   5.583   3.135  0.0469 -0.3899  0.2780
 5616SOL     OW22229   3.629   4.322   0.115 -0.5389  0.2876 -0.4083
 5616SOL    HW222230   3.639   4.250   0.177 -1.8636  1.3158  1.0724
 5616SOL    HW322231   3.619   4.278   0.030 -2.3804 -1.3626  0.5663
 5616SOL    MW422232   3.629   4.306   0.112 -0.6129  0.3189  0.6925
 5617SOL     OW22233   6.115   3.521   3.430  0.4250 -0.5048  0.1816
 5617SOL    HW222234   6.058   3.592   3.400  1.2395  0.2270  0.2948
 5617SOL    HW322235   6.099   3.449   3.369  1.7217  0.7950 -1.8205
 5617SOL    MW422236   6.106   3.521   3.418 -0.1642  0.2333 -0.0394
 5618SOL     OW22237   3.801   3.443   1.652  0.3993  0.1480 -0.5898
 5618SOL    HW222238   3.855   3.457   1.730 -0.8611  0.2751  0.2863
 5618SOL    HW322239   3.858   3.395   1.592  0.6750 -2.1032  1.3127
 5618SOL    MW422240   3.815   3.438   1.655  0.3444  0.5418 -0.1064
 5619SOL     OW22241   3.967   1.898   1.970 -0.6243  0.8327  0.0782
 5619SOL    HW222242   4.054   1.911   1.933  0.0384  1.6521  1.8376
 5619SOL    HW322243   3.929   1.828   1.916  1.2794  0.1178 -0.4415
 5619SOL    MW422244   3.973   1.890   1.958  0.2397  0.3892  0.1975
 5620SOL     OW22245   2.462   6.222   3.113  0.1771  0.4920 -0.7250
 5620SOL    HW222246   2.523   6.164   3.067  0.4125  2.2996 -2.8930
 5620SOL    HW322247   2.518   6.288   3.154 -0.1793  0.5496 -0.3304
 5620SOL    MW422248   2.478   6.223   3.112 -0.4765  0.5273  0.2392
 5621SOL     OW22249   1.940   4.629   0.888 -0.0222 -0.1733 -0.1081
 5621SOL    HW222250   2.000   4.703   0.887 -0.7008  0.4218  0.9334
 5621SOL    HW322251   1.910   4.620   0.798 -0.1507  1.0116 -0.1938
 5621SOL    MW422252   1.944   4.637   0.876 -0.2370 -0.0657  0.3405
 5622SOL     OW22253   6.080   1.140   5.000  0.0762  0.0532 -0.5903
 5622SOL    HW222254   6.143   1.104   4.938 -0.2536  1.3277 -1.7178
 5622SOL    HW322255   5.996   1.101   4.974  0.2724 -1.1428  0.5006
 5622SOL    MW422256   6.077   1.130   4.988 -0.3045  0.0838 -0.0477
 5623SOL     OW22257   5.166   5.189   4.404 -0.5675 -0.3175  0.0625
 5623SOL    HW222258   5.237   5.167   4.464  0.4377 -0.5827 -1.1952
 5623SOL    HW322259   5.149   5.282   4.420  0.7387 -0.0063 -0.3148
 5623SOL    MW422260   5.173   5.198   4.414 -0.6126  0.0896 -0.6804
 5624SOL     OW22261   0.480   0.572   2.116 -0.0214  0.9227 -0.2542
 5624SOL    HW222262   0.420   0.498   2.106  0.8055  0.1792  0.2125
 5624SOL    HW322263   0.446   0.638   2.056 -1.9949  0.9663  0.8257
 5624SOL    MW422264   0.467   0.571   2.107  0.0360  0.4004 -0.2086
 5625SOL     OW22265   5.963   3.682   2.817 -0.1031  0.3700  0.0597
 5625SOL    HW222266   5.943   3.643   2.733  1.0456 -0.3141  0.0846
 5625SOL    HW322267   5.922   3.769   2.814 -0.6766  0.0742 -0.9141
 5625SOL    MW422268   5.955   3.689   2.806  0.1515  0.1207 -0.5585
 5626SOL     OW22269   5.810   3.281   0.937  0.2571 -0.2281 -0.4592
 5626SOL    HW222270   5.889   3.255   0.891  1.1329  0.4997  0.5680
 5626SOL    HW322271   5.801   3.375   0.918 -0.0042 -0.1740 -0.0826
 5626SOL    MW422272   5.819   3.290   0.929 -0.4594  0.1260  0.1720
 5627SOL     OW22273   1.330   5.058   0.867 -0.1255  0.0686  0.2844
 5627SOL    HW222274   1.395   5.113   0.823 -0.0207  0.9989  1.5379
 5627SOL    HW322275   1.352   5.064   0.960 -0.3951 -1.7559  0.5131
 5627SOL    MW422276   1.341   5.066   0.874 -0.2309  0.0414 -0.4247
 5628SOL     OW22277   1.210   0.459   4.024  0.1470  0.8098 -0.4309
 5628SOL    HW222278   1.187   0.473   3.932 -0.4108  0.9052 -0.2835
 5628SOL    HW322279   1.132   0.417   4.061  0.7860 -0.2521 -0.2586
 5628SOL    MW422280   1.196   0.455   4.017  0.0203 -0.0833 -0.3742
 5629SOL     OW22281   2.626   2.848   0.096 -0.2366 -0.3322 -0.2760
 5629SOL    HW222282   2.542   2.821   0.060 -0.2736 -1.4752  0.6197
 5629SOL    HW322283   2.628   2.943   0.084 -1.4560 -0.3486 -0.7148
 5629SOL    MW422284   2.615   2.857   0.090  0.1103 -0.7742 -0.1738
 5630SOL     OW22285   6.168   3.710   2.253  0.1766 -0.3079  0.1808
 5630SOL    HW222286   6.262   3.696   2.254  0.5799  1.9777 -0.8051
 5630SOL    HW322287   6.157   3.805   2.252 -2.1619 -0.4878  0.9550
 5630SOL    MW422288   6.179   3.721   2.253  0.5642  0.2148 -0.2276
 5631SOL     OW22289   1.727   5.839   0.328 -0.4067  0.2403  0.2453
 5631SOL    HW222290   1.766   5.796   0.405  0.3049  0.4669  0.0180
 5631SOL    HW322291   1.772   5.799   0.253 -0.4406  0.6759 -0.0116
 5631SOL    MW422292   1.738   5.828   0.328 -0.4898 -0.3483  0.3707
 5632SOL     OW22293   4.048   5.152   6.186 -0.3978 -0.5596 -0.4840
 5632SOL    HW222294   4.051   5.066   6.144 -2.2799 -0.7248 -0.3533
 5632SOL    HW322295   4.140   5.173   6.203  0.0653 -3.3317  1.1080
 5632SOL    MW422296   4.060   5.143   6.183  0.3294 -0.7601 -0.2269
 5633SOL     OW22297   3.240   4.389   4.441 -0.0401  0.2871 -0.0336
 5633SOL    HW222298   3.261   4.413   4.350 -0.2955  0.8902  0.0624
 5633SOL    HW322299   3.161   4.336   4.434 -0.2580  0.6255 -0.1324
 5633SOL    MW422300   3.232   4.385   4.428  0.0134  0.3215  0.3075
 5634SOL     OW22301   0.111   4.598   5.816  0.6867  0.0932 -0.2178
 5634SOL    HW222302   0.134   4.659   5.887  0.2689 -0.8277  0.7350
 5634SOL    HW322303   0.016   4.600   5.812  0.6829 -0.2831 -0.3754
 5634SOL    MW422304   0.102   4.607   5.825 -0.2488  0.1903  0.0859
 5635SOL     OW22305   2.320   6.202   4.486 -0.2892  0.6316 -0.2593
 5635SOL    HW222306   2.277   6.146   4.551 -0.6987  0.3931 -0.7243
 5635SOL    HW322307   2.407   6.220   4.523 -1.0449  1.7421  1.0483
 5635SOL    MW422308   2.326   6.197   4.499  0.3975  0.5704 -0.0799
 5636SOL     OW22309   2.379   1.657   3.136 -0.0059  0.3214 -0.8084
 5636SOL    HW222310   2.287   1.671   3.112 -0.2585 -1.7221 -1.2786
 5636SOL    HW322311   2.378   1.573   3.183  1.6293  0.2495 -0.8508
 5636SOL    MW422312   2.366   1.647   3.139  0.3756 -0.0532 -0.6829
 5637SOL     OW22313   4.535   0.392   5.644  0.2033  0.0956  0.1549
 5637SOL    HW222314   4.560   0.457   5.709  1.4641  0.2775 -0.4977
 5637SOL    HW322315   4.512   0.443   5.567 -1.2541 -0.1234  0.3994
 5637SOL    MW422316   4.535   0.407   5.643 -0.0548 -0.3459 -0.1473
 5638SOL     OW22317   1.950   5.923   5.893  0.1687  0.2546  0.5670
 5638SOL    HW222318   2.016   5.887   5.953 -0.5988  0.7106  1.7206
 5638SOL    HW322319   1.878   5.861   5.897 -0.2049  0.6942  0.7336
 5638SOL    MW422320   1.949   5.910   5.902 -0.0665 -0.6803  0.4781
 5639SOL     OW22321   1.742   4.175   0.084 -0.3469 -0.1344  0.1709
 5639SOL    HW222322   1.745   4.269   0.100  0.0250 -0.3833  1.7322
 5639SOL    HW322323   1.656   4.147   0.117  0.8316 -0.8193  3.0015
 5639SOL    MW422324   1.731   4.183   0.091  0.2864 -0.6481  0.5780
 5640SOL     OW22325   3.102   2.834   0.429 -0.2254 -0.2114 -0.0888
 5640SOL    HW222326   3.165   2.849   0.359  1.6984  2.4942  1.9986
 5640SOL    HW322327   3.037   2.903   0.419 -1.1432 -1.0759 -0.3455
 5640SOL    MW422328   3.102   2.845   0.418  0.4410 -0.6083 -0.0518
 5641SOL     OW22329   5.692   3.721   0.213 -0.1969 -0.3598 -0.3573
 5641SOL    HW222330   5.695   3.648   0.275  0.7962 -0.9524 -1.0767
 5641SOL    HW322331   5.615   3.704   0.159 -0.3769 -0.4864 -0.0642
 5641SOL    MW422332   5.682   3.709   0.214  0.3109  0.2866  0.3905
 5642SOL     OW22333   1.086   5.892   5.859 -0.2083 -0.3694  0.7819
 5642SOL    HW222334   1.104   5.811   5.813 -0.2186 -0.5241  1.0465
 5642SOL    HW322335   1.071   5.865   5.950  0.3403 -0.0133  0.9830
 5642SOL    MW422336   1.086   5.878   5.865 -0.6157 -0.5878  0.1063
 5643SOL     OW22337   5.296   6.257   5.563 -0.2355 -0.0041  0.2170
 5643SOL    HW222338   5.351   6.179   5.573  0.6769  0.4015 -1.3394
 5643SOL    HW322339   5.251   6.264   5.647  2.2147 -0.2563  1.6784
 5643SOL    MW422340   5.298   6.247   5.575 -0.6451  0.0061 -0.1726
 5644SOL     OW22341   3.600   0.364   5.818  0.2771  0.1417  0.3709
 5644SOL    HW222342   3.635   0.415   5.891 -0.7541  0.3131  0.7593
 5644SOL    HW322343   3.583   0.278   5.855  1.8072 -0.4572 -0.2310
 5644SOL    MW422344   3.603   0.359   5.832  0.0512 -0.3290 -0.1200
 5645SOL     OW22345   5.790   2.947   5.483 -0.0479  0.1983 -0.8607
 5645SOL    HW222346   5.738   3.014   5.527  1.8892  0.9417  0.4295
 5645SOL    HW322347   5.838   2.995   5.415  1.7204  0.2817  0.3878
 5645SOL    MW422348   5.789   2.962   5.480  0.0773  0.4448 -0.2540
 5646SOL     OW22349   4.833   2.673   4.523  0.0192 -1.4991  0.8013
 5646SOL    HW222350   4.874   2.732   4.587  0.7570  0.0652 -1.0021
 5646SOL    HW322351   4.907   2.640   4.472 -0.7047 -1.1662 -0.4785
 5646SOL    MW422352   4.848   2.677   4.525  0.5866 -0.0481  0.2601
 5647SOL     OW22353   4.126   6.239   3.857 -0.3953 -0.1343  0.0396
 5647SOL    HW222354   4.200   6.297   3.836  0.4972 -1.3557 -0.2998
 5647SOL    HW322355   4.157   6.187   3.931 -1.3042  0.0262  0.5431
 5647SOL    MW422356   4.140   6.240   3.864 -0.1484 -0.2792 -0.1342
 5648SOL     OW22357   5.576   1.730   1.916  0.3313 -0.2379  0.2789
 5648SOL    HW222358   5.623   1.804   1.955  2.2041 -1.4078  0.3338
 5648SOL    HW322359   5.532   1.688   1.989 -2.7092  2.0513 -0.0263
 5648SOL    MW422360   5.577   1.735   1.931  0.9828  0.0679 -0.0599
 5649SOL     OW22361   3.528   1.687   5.382  0.1023 -0.1413 -0.2401
 5649SOL    HW222362   3.438   1.690   5.413  0.2017 -0.1236  0.0426
 5649SOL    HW322363   3.529   1.747   5.307 -0.4649 -1.2172 -1.1401
 5649SOL    MW422364   3.516   1.696   5.376 -0.5864 -0.4899  0.3777
 5650SOL     OW22365   0.126   1.838   4.231 -0.0991  1.0280 -0.2359
 5650SOL    HW222366   0.168   1.878   4.307  1.0105 -2.4119  1.1479
 5650SOL    HW322367   0.039   1.814   4.262 -0.5015  1.6825 -0.8290
 5650SOL    MW422368   0.120   1.840   4.245  0.2744 -0.4452  0.0553
 5651SOL     OW22369   2.523   1.354   0.366  0.1310 -0.3250 -0.7785
 5651SOL    HW222370   2.600   1.296   0.366  0.1747 -0.2885  0.8202
 5651SOL    HW322371   2.509   1.376   0.458 -2.2387 -0.8949 -0.9483
 5651SOL    MW422372   2.532   1.349   0.378  0.1211  0.1772  0.1058
 5652SOL     OW22373   5.399   2.715   6.223 -0.1141 -0.1451 -0.1444
 5652SOL    HW222374   5.388   2.704   6.318  0.0995  0.6485 -0.0189
 5652SOL    HW322375   5.441   2.634   6.195  0.1422 -0.2466  0.5010
 5652SOL    MW422376   5.404   2.703   6.232 -0.4512  0.1756  0.2204
 5653SOL     OW22377   0.835   2.426   2.256 -0.2084  0.7682  0.1092
 5653SOL    HW222378   0.871   2.375   2.184  0.8509  1.7388 -0.0617
 5653SOL    HW322379   0.907   2.435   2.318 -0.7915  0.8938  0.7863
 5653SOL    MW422380   0.849   2.420   2.255 -0.4073 -0.0132  0.8079
 5654SOL     OW22381   0.122   0.784   0.782 -0.0258  0.6406  0.0306
 5654SOL    HW222382   0.191   0.732   0.740  0.9838  1.7914  0.1989
 5654SOL    HW322383   0.166   0.826   0.856 -1.0096  1.1303  0.3506
 5654SOL    MW422384   0.137   0.782   0.786  1.1482  0.2305 -0.3067
 5655SOL     OW22385   0.033   2.209   4.273 -0.1914 -0.1652 -0.2045
 5655SOL    HW222386   0.116   2.164   4.286 -1.6424 -2.4619  2.1849
 5655SOL    HW322387  -0.023   2.145   4.229 -0.8766  1.1840 -1.3928
 5655SOL    MW422388   0.037   2.195   4.269 -0.2739 -0.1197 -0.6362
 5656SOL     OW22389   2.021   1.317   0.436  0.7615 -1.0946 -0.3024
 5656SOL    HW222390   1.946   1.360   0.394  1.3712  1.0987  0.7258
 5656SOL    HW322391   2.087   1.311   0.367  1.1937  1.0694 -0.1579
 5656SOL    MW422392   2.020   1.322   0.421  0.2050  0.0543  0.3575
 5657SOL     OW22393   1.926   5.966   0.792 -0.4683  0.2922 -0.0096
 5657SOL    HW222394   1.872   5.997   0.720 -0.8063 -0.3105 -0.0175
 5657SOL    HW322395   1.876   5.895   0.831  0.8876 -1.1740 -0.8198
 5657SOL    MW422396   1.913   5.961   0.788  0.8052  0.1468  0.3620
 5658SOL     OW22397   6.332   5.352   4.868  0.2055  0.3004  0.0154
 5658SOL    HW222398   6.389   5.361   4.945  2.4818  0.9156 -1.6535
 5658SOL    HW322399   6.343   5.261   4.841  0.9239  0.5807 -0.6695
 5658SOL    MW422400   6.341   5.341   4.875 -0.6620  0.2033  0.0879
 5659SOL     OW22401   1.793   1.797   5.115  0.0974  0.0272 -0.2503
 5659SOL    HW222402   1.729   1.808   5.186  0.2655  1.2081 -0.2626
 5659SOL    HW322403   1.825   1.885   5.098  1.2725 -0.4629 -0.6848
 5659SOL    MW422404   1.788   1.810   5.122 -0.0740 -0.3407  0.3405
 5660SOL     OW22405   1.799   2.784   2.159 -0.3159 -0.2677  0.3099
 5660SOL    HW222406   1.861   2.712   2.169  0.9483  0.1059 -3.5143
 5660SOL    HW322407   1.810   2.836   2.239  0.8725 -2.6689  1.8196
 5660SOL    MW422408   1.809   2.781   2.171 -0.3476  0.8054 -0.4005
 5661SOL     OW22409   5.576   4.812   5.803 -0.0032  0.2032  0.0271
 5661SOL    HW222410   5.629   4.892   5.804  0.4261 -0.0732 -0.1990
 5661SOL    HW322411   5.588   4.774   5.890  1.2875 -0.5701 -0.4605
 5661SOL    MW422412   5.584   4.817   5.814 -0.1105  0.2594  0.0721
 5662SOL     OW22413   2.825   5.887   0.267  0.1654 -0.3145  0.6850
 5662SOL    HW222414   2.798   5.877   0.359 -1.6330 -1.4219  0.0888
 5662SOL    HW322415   2.746   5.917   0.222  1.3569  1.4729 -0.3280
 5662SOL    MW422416   2.811   5.890   0.273 -0.9152 -0.0500 -0.5614
 5663SOL     OW22417   0.052   5.803   1.377 -0.3994  0.1231  0.1287
 5663SOL    HW222418   0.011   5.787   1.292 -0.4216  1.1104 -0.0587
 5663SOL    HW322419   0.028   5.727   1.430 -1.5553  0.1538 -0.3201
 5663SOL    MW422420   0.043   5.791   1.372 -0.2166 -0.7038 -0.5967
 5664SOL     OW22421   2.855   0.966   1.252 -0.4157  0.2049 -0.0631
 5664SOL    HW222422   2.901   1.049   1.241  0.1124 -0.1752 -0.8878
 5664SOL    HW322423   2.778   0.973   1.196  0.5225 -0.4708 -1.5268
 5664SOL    MW422424   2.851   0.978   1.243 -0.4375  0.5188  0.9540
 5665SOL     OW22425   5.074   4.697   2.292  0.7312 -0.3661 -0.8534
 5665SOL    HW222426   4.987   4.699   2.331  0.5635 -4.1082 -0.6494
 5665SOL    HW322427   5.061   4.722   2.201 -0.2805  0.5736 -0.4560
 5665SOL    MW422428   5.061   4.700   2.285  0.4787 -0.2346 -0.3343
 5666SOL     OW22429   0.247   2.644   0.392 -0.0363  0.2307 -0.5966
 5666SOL    HW222430   0.152   2.652   0.381 -0.0245 -1.1000 -1.8655
 5666SOL    HW322431   0.259   2.559   0.433  0.5435  1.1400  1.2493
 5666SOL    MW422432   0.236   2.634   0.396  0.6724 -0.1175  0.5602
 5667SOL     OW22433   3.446   0.907   6.144  0.0490 -0.1761 -0.4378
 5667SOL    HW222434   3.403   0.968   6.084 -0.3714  0.6375  0.6538
 5667SOL    HW322435   3.438   0.822   6.102  0.8242  0.5326 -2.1072
 5667SOL    MW422436   3.439   0.904   6.130 -0.3263  0.1078  0.3177
 5668SOL     OW22437   2.440   5.133   3.505 -0.1586  0.1194  0.7208
 5668SOL    HW222438   2.491   5.197   3.555 -0.8382  0.7416  0.6186
 5668SOL    HW322439   2.363   5.180   3.476 -0.1124 -0.4306 -0.3384
 5668SOL    MW422440   2.437   5.148   3.508  0.0683  0.0412 -0.2166
 5669SOL     OW22441   1.882   0.590   0.455 -0.2311  0.6925  0.3860
 5669SOL    HW222442   1.949   0.592   0.523 -1.0479  1.8539  1.1921
 5669SOL    HW322443   1.928   0.616   0.375  0.6198 -0.1700  0.5775
 5669SOL    MW422444   1.897   0.594   0.453  0.1528 -0.3533 -0.0141
 5670SOL     OW22445   2.526   5.735   1.442  0.1267 -0.1091 -0.1210
 5670SOL    HW222446   2.594   5.711   1.504 -0.0875 -1.2936 -0.3193
 5670SOL    HW322447   2.468   5.794   1.491  0.3032 -0.5278  0.6052
 5670SOL    MW422448   2.527   5.739   1.456  0.6674 -0.3035 -0.0868
 5671SOL     OW22449   2.384   2.695   3.100  0.4951  0.7827 -0.2102
 5671SOL    HW222450   2.307   2.643   3.080  1.2984 -0.9888  1.0482
 5671SOL    HW322451   2.368   2.727   3.189 -0.9293  4.5959 -1.6312
 5671SOL    MW422452   2.372   2.693   3.109  0.0083  0.0353 -0.3619
 5672SOL     OW22453   0.816   3.132   4.446  0.0284 -0.1530  0.0091
 5672SOL    HW222454   0.876   3.198   4.412 -0.9632  0.2814 -0.9878
 5672SOL    HW322455   0.839   3.123   4.538 -0.0043  1.8145  0.2498
 5672SOL    MW422456   0.827   3.139   4.454 -0.4062 -0.0308 -0.1238
 5673SOL     OW22457   0.837   0.333   6.280 -0.0382  0.0177  0.0515
 5673SOL    HW222458   0.827   0.296   6.368  0.0075 -3.6445 -1.3113
 5673SOL    HW322459   0.931   0.349   6.272  0.1973 -1.1787  0.1882
 5673SOL    MW422460   0.848   0.330   6.291  0.2124  1.0321 -0.2210
 5674SOL     OW22461   5.767   6.347   3.883 -0.6790 -0.1632  0.0178
 5674SOL    HW222462   5.705   6.302   3.826 -1.2297  0.8404 -0.2042
 5674SOL    HW322463   5.848   6.296   3.875 -1.2564 -1.0620 -0.2617
 5674SOL    MW422464   5.770   6.335   3.874 -0.0759 -0.0574 -0.5340
 5675SOL     OW22465   2.449   2.532   3.526 -0.0174 -0.4844  0.2038
 5675SOL    HW222466   2.422   2.526   3.618  0.0150 -0.2948  0.2251
 5675SOL    HW322467   2.428   2.446   3.490 -0.9946 -0.2171  0.1158
 5675SOL    MW422468   2.443   2.520   3.534  0.2596  0.0268 -1.3080
 5676SOL     OW22469   1.838   3.990   1.603  0.3648  0.8332  0.2506
 5676SOL    HW222470   1.912   3.930   1.592  1.2099  1.8494  0.1969
 5676SOL    HW322471   1.875   4.076   1.585 -0.9590  1.3155 -0.2664
 5676SOL    MW422472   1.853   3.993   1.599  0.7012  0.5390 -0.3140
 5677SOL     OW22473   3.607   0.402   4.734  0.1736  0.4684  0.0255
 5677SOL    HW222474   3.529   0.353   4.761  0.5057  0.2184  0.5587
 5677SOL    HW322475   3.639   0.356   4.657 -0.9569  1.3646 -1.0009
 5677SOL    MW422476   3.601   0.389   4.728 -0.5614 -0.1109 -0.1422
 5678SOL     OW22477   2.990   4.900   0.235  0.0543  0.4310  0.5118
 5678SOL    HW222478   2.946   4.985   0.246 -0.0731  0.4904 -0.3828
 5678SOL    HW322479   3.080   4.923   0.212  0.1606  0.3167  0.8105
 5678SOL    MW422480   2.996   4.914   0.234 -0.4248  0.3243  0.1635
 5679SOL     OW22481   3.035   3.819   3.816 -0.7670 -0.2259  0.0371
 5679SOL    HW222482   2.953   3.865   3.832 -0.7181 -0.1925  0.1961
 5679SOL    HW322483   3.089   3.882   3.769 -0.6985 -0.1184  0.2591
 5679SOL    MW422484   3.032   3.833   3.812 -0.1078  0.2096  0.6268
 5680SOL     OW22485   5.455   0.477   5.869 -0.7061 -0.1656  0.0103
 5680SOL    HW222486   5.387   0.469   5.936 -1.5074  1.2821 -0.5904
 5680SOL    HW322487   5.414   0.527   5.798  0.4529 -0.7415 -1.1137
 5680SOL    MW422488   5.441   0.483   5.868 -0.4787 -0.5363  0.1483
 5681SOL     OW22489   2.135   3.786   3.080  0.1929  0.5343 -0.0857
 5681SOL    HW222490   2.112   3.871   3.118 -1.1330  0.2305 -0.1480
 5681SOL    HW322491   2.118   3.796   2.986 -0.7956 -0.0458  0.0230
 5681SOL    MW422492   2.130   3.798   3.073  0.2892  0.3815 -0.0040
 5682SOL     OW22493   4.394   0.703   3.332 -0.5103  0.7273  0.3176
 5682SOL    HW222494   4.357   0.770   3.389 -0.6509  2.4395 -1.6562
 5682SOL    HW322495   4.331   0.631   3.336 -0.6854  0.9434  2.0018
 5682SOL    MW422496   4.381   0.702   3.340 -0.4723  0.1819  0.3509
 5683SOL     OW22497   1.814   1.440   2.405  0.2228 -0.0240  0.1427
 5683SOL    HW222498   1.834   1.533   2.418 -0.2923  0.0040  0.7940
 5683SOL    HW322499   1.725   1.440   2.368  0.2067 -0.2552  0.1797
 5683SOL    MW422500   1.805   1.452   2.402  0.1731  0.0554  0.5460
 5684SOL     OW22501   4.639   4.410   2.114 -0.2709  0.9529  0.0640
 5684SOL    HW222502   4.717   4.429   2.165 -1.0771 -0.1353  1.7844
 5684SOL    HW322503   4.567   4.449   2.164 -1.0383  0.3517 -0.5402
 5684SOL    MW422504   4.639   4.418   2.127 -0.0239 -0.8047  0.3604
 5685SOL     OW22505   1.089   0.974   6.226 -0.0197  0.0704  0.1119
 5685SOL    HW222506   1.018   1.038   6.226  0.1292  0.2590 -1.1509
 5685SOL    HW322507   1.049   0.894   6.259 -1.3660 -0.3618 -2.3224
 5685SOL    MW422508   1.074   0.972   6.230  0.3476  0.0772 -0.7167
 5686SOL     OW22509   6.213   4.314   1.402  0.2326  0.5887  0.1370
 5686SOL    HW222510   6.152   4.251   1.440  0.2609  0.3034 -0.2876
 5686SOL    HW322511   6.167   4.398   1.408  0.6310  0.7326  1.7068
 5686SOL    MW422512   6.199   4.317   1.408 -0.2842  0.3622  0.6249
 5687SOL     OW22513   3.967   5.122   0.831  0.0272 -0.4367  0.0843
 5687SOL    HW222514   3.923   5.042   0.858 -0.6179 -0.7749 -1.8255
 5687SOL    HW322515   4.044   5.093   0.783 -0.1590  0.0827 -0.5455
 5687SOL    MW422516   3.971   5.108   0.828 -1.0765  0.0890  0.1440
 5688SOL     OW22517   5.026   5.030   1.969  0.1429  0.3154  0.1431
 5688SOL    HW222518   5.091   5.078   2.020 -0.2165  0.0035  0.9098
 5688SOL    HW322519   5.053   4.938   1.975  1.1807  0.4235 -1.8278
 5688SOL    MW422520   5.038   5.024   1.976 -0.4641  0.3891 -0.0415
 5689SOL     OW22521   6.316   4.534   0.888  0.6215  0.3403  0.3947
 5689SOL    HW222522   6.407   4.515   0.912  0.4718 -0.4393  0.3445
 5689SOL    HW322523   6.309   4.629   0.899  1.2797  0.3346  0.9477
 5689SOL    MW422524   6.327   4.544   0.893  0.5874  0.5364  0.8924
 5690SOL     OW22525   2.402   0.657   4.875  0.1418  0.1037 -0.6637
 5690SOL    HW222526   2.353   0.603   4.937 -0.4270 -0.1810 -1.3555
 5690SOL    HW322527   2.494   0.642   4.898 -0.0304 -0.6827 -0.4580
 5690SOL    MW422528   2.408   0.648   4.887  0.4210 -0.0603 -0.4716
 5691SOL     OW22529   4.347   4.225   1.286 -0.2919 -0.9094  0.2660
 5691SOL    HW222530   4.256   4.214   1.259  0.0556  1.1490 -2.0737
 5691SOL    HW322531   4.394   4.155   1.241 -0.4348 -0.5709 -0.4297
 5691SOL    MW422532   4.341   4.214   1.276  0.0444 -0.0199 -0.5505
 5692SOL     OW22533   0.255   4.674   0.195  0.1219 -0.2495 -0.1081
 5692SOL    HW222534   0.269   4.581   0.214  0.5162 -0.0824  0.4561
 5692SOL    HW322535   0.307   4.720   0.262 -1.3658  0.3988  0.6513
 5692SOL    MW422536   0.264   4.668   0.207  0.9131 -0.2864  0.3447
 5693SOL     OW22537   1.704   3.472   2.533 -0.1813  0.3220  0.7193
 5693SOL    HW222538   1.785   3.522   2.523  0.5018 -0.6808  1.0701
 5693SOL    HW322539   1.704   3.444   2.625 -1.2102  0.7720  0.8705
 5693SOL    MW422540   1.714   3.474   2.544 -0.2129  0.0269  0.0487
 5694SOL     OW22541   0.209   2.318   5.546 -0.1788 -0.0260 -0.2254
 5694SOL    HW222542   0.233   2.350   5.459  2.0240  0.2006  0.4271
 5694SOL    HW322543   0.246   2.381   5.607  0.2141 -1.3395  0.9514
 5694SOL    MW422544   0.217   2.331   5.542  0.8513 -0.1417  0.2675
 5695SOL     OW22545   5.614   3.957   3.808 -0.1030  0.2776 -0.3328
 5695SOL    HW222546   5.520   3.941   3.816  0.4329 -2.8574  1.3979
 5695SOL    HW322547   5.632   4.027   3.871 -1.1667  0.3307 -0.0676
 5695SOL    MW422548   5.604   3.964   3.817 -0.0224  0.1486  0.1232
 5696SOL     OW22549   1.152   1.578   4.570  0.3696  0.4203  0.4711
 5696SOL    HW222550   1.192   1.512   4.627  0.9587  1.3442  1.1675
 5696SOL    HW322551   1.212   1.584   4.496 -1.3473 -2.1339 -1.2740
 5696SOL    MW422552   1.165   1.571   4.568  0.1098 -0.0338  0.0382
 5697SOL     OW22553   6.072   4.055   3.485  0.2177  0.3288  0.5068
 5697SOL    HW222554   6.010   4.063   3.557  0.5364  0.0726  0.8065
 5697SOL    HW322555   6.149   4.013   3.522 -0.1709 -1.1675 -0.3097
 5697SOL    MW422556   6.074   4.051   3.499  0.2383 -0.0253 -0.0973
 5698SOL     OW22557   1.899   4.538   2.910 -0.0587 -0.0071 -0.5276
 5698SOL    HW222558   1.867   4.487   2.836  0.0524  0.8179 -1.1567
 5698SOL    HW322559   1.964   4.598   2.873  3.7966 -2.8653  0.9510
 5698SOL    MW422560   1.903   4.540   2.895 -0.6448 -0.4061 -0.1830
 5699SOL     OW22561   1.265   3.776   1.022 -0.3414  0.0069  0.0664
 5699SOL    HW222562   1.357   3.803   1.013 -0.2333 -0.8136 -1.4572
 5699SOL    HW322563   1.215   3.852   0.992 -0.2195  0.7654  1.6649
 5699SOL    MW422564   1.271   3.790   1.017 -0.6053  0.0274  0.1402
 5700SOL     OW22565   5.767   4.795   2.181 -0.3617 -0.3373  0.5883
 5700SOL    HW222566   5.734   4.723   2.234  1.3132  0.2023  2.4714
 5700SOL    HW322567   5.857   4.771   2.161 -0.8555 -0.4255 -1.9569
 5700SOL    MW422568   5.774   4.782   2.185  0.0788  0.2971 -0.0058
 5701SOL     OW22569   3.665   3.325   1.349 -0.0061  0.5877 -0.2618
 5701SOL    HW222570   3.611   3.250   1.324  1.1898 -0.0853 -0.9035
 5701SOL    HW322571   3.705   3.353   1.266  1.5846  0.2973  0.3844
 5701SOL    MW422572   3.663   3.319   1.335  0.4673 -0.2247 -0.0666
 5702SOL     OW22573   5.862   3.421   5.558  0.2721 -0.5514  0.5370
 5702SOL    HW222574   5.897   3.493   5.612 -1.1520 -0.9267  2.0356
 5702SOL    HW322575   5.904   3.343   5.593 -0.6491 -0.7954  1.1313
 5702SOL    MW422576   5.872   3.420   5.570 -0.3186 -0.4976 -0.3900
 5703SOL     OW22577   4.615   3.969   2.405  0.1815 -0.1651 -0.8337
 5703SOL    HW222578   4.667   3.956   2.326  0.0358  0.0202 -0.9610
 5703SOL    HW322579   4.655   3.911   2.470  1.3298  0.8859 -0.5619
 5703SOL    MW422580   4.627   3.960   2.403 -0.1851 -0.9406  0.7464
 5704SOL     OW22581   2.898   6.178   6.125  0.5202  0.5904  0.2083
 5704SOL    HW222582   2.863   6.232   6.054 -0.7760  1.0460  1.1421
 5704SOL    HW322583   2.958   6.117   6.082  0.4279  1.4121 -1.1475
 5704SOL    MW422584   2.901   6.177   6.110 -0.3350  0.0572 -0.1842
 5705SOL     OW22585   5.263   2.929   2.252  0.2508 -0.4330 -0.2165
 5705SOL    HW222586   5.281   2.897   2.163  0.4572 -1.3508  0.1425
 5705SOL    HW322587   5.307   2.867   2.309 -1.3407 -0.8822  0.5840
 5705SOL    MW422588   5.271   2.917   2.247  0.0289 -0.2803 -0.1002
 5706SOL     OW22589   1.098   1.092   3.976  0.4115  0.1663 -0.1221
 5706SOL    HW222590   1.168   1.063   4.034 -0.4683  0.9756  1.3966
 5706SOL    HW322591   1.099   1.029   3.904  2.4561 -0.0401  0.0251
 5706SOL    MW422592   1.107   1.080   3.974 -0.0283  0.4253  0.0449
 5707SOL     OW22593   0.591   5.086   0.884  0.8167  0.2321  0.3741
 5707SOL    HW222594   0.533   5.097   0.808  1.7837  2.0503 -0.1637
 5707SOL    HW322595   0.636   5.003   0.868  1.5060  0.9054 -1.4431
 5707SOL    MW422596   0.589   5.077   0.872 -0.3110  0.0701 -0.1781
 5708SOL     OW22597   2.581   4.574   5.786  0.1037 -0.0036 -0.1859
 5708SOL    HW222598   2.560   4.579   5.693 -1.0596  2.4364  0.1300
 5708SOL    HW322599   2.579   4.481   5.806  2.5710 -0.8417 -3.0364
 5708SOL    MW422600   2.578   4.562   5.776 -0.3025 -0.0933  1.0872
 5709SOL     OW22601   0.047   1.924   3.266 -0.7276  0.1136  0.4601
 5709SOL    HW222602   0.136   1.937   3.299 -0.6158  0.7569 -0.0633
 5709SOL    HW322603   0.056   1.860   3.196 -0.7453 -0.1612  0.7091
 5709SOL    MW422604   0.060   1.917   3.261 -0.1922  0.2404 -0.0970
 5710SOL     OW22605   5.735   1.879   3.880 -0.0380  0.1290  0.3562
 5710SOL    HW222606   5.666   1.813   3.878 -0.0872  0.1989 -0.5333
 5710SOL    HW322607   5.816   1.828   3.891  0.2422 -0.4118 -3.0030
 5710SOL    MW422608   5.737   1.864   3.881  0.3438 -0.0020  0.1137
 5711SOL     OW22609   1.815   0.156   1.160  0.2820  0.2460  0.0565
 5711SOL    HW222610   1.900   0.112   1.163  1.0345  1.6924  0.7195
 5711SOL    HW322611   1.809   0.191   1.071  0.0961 -0.3723 -0.1801
 5711SOL    MW422612   1.825   0.155   1.149  0.3546 -0.0364 -0.1714
 5712SOL     OW22613   5.465   5.342   0.157 -0.3264  0.8455  0.1256
 5712SOL    HW222614   5.415   5.424   0.150 -1.6063  0.0709 -0.1398
 5712SOL    HW322615   5.462   5.305   0.069 -0.7261 -0.0295  0.5018
 5712SOL    MW422616   5.458   5.348   0.145 -0.4622  0.1789  0.2029
 5713SOL     OW22617   2.968   6.279   2.895  0.1951  0.3758  0.7367
 5713SOL    HW222618   3.016   6.321   2.825 -1.4604 -0.7686 -1.1984
 5713SOL    HW322619   2.880   6.318   2.891 -0.5773 -1.2734  0.6494
 5713SOL    MW422620   2.963   6.289   2.886 -0.0803 -0.4249 -0.1902
 5714SOL     OW22621   2.011   4.457   5.312  0.0294 -0.0977  0.3042
 5714SOL    HW222622   2.016   4.535   5.366  1.0255  0.5326 -0.6588
 5714SOL    HW322623   2.080   4.400   5.345 -0.6031 -0.5376  0.9112
 5714SOL    MW422624   2.021   4.460   5.323  0.0786  0.5330  0.5503
 5715SOL     OW22625   1.152   4.530   6.337  0.1538 -0.5494 -0.6852
 5715SOL    HW222626   1.222   4.593   6.352 -1.0800  0.8609 -0.5666
 5715SOL    HW322627   1.186   4.472   6.268  0.7623  1.2378 -1.9760
 5715SOL    MW422628   1.166   4.531   6.330  0.1131 -0.3893  0.3451
 5716SOL     OW22629   4.545   3.454   0.181  0.0442 -0.0285  0.1438
 5716SOL    HW222630   4.461   3.448   0.136 -0.8131  0.7318  1.5617
 5716SOL    HW322631   4.610   3.444   0.112 -1.1758 -1.9749 -0.8315
 5716SOL    MW422632   4.542   3.452   0.166  0.1863  0.3826 -0.0383
 5717SOL     OW22633   0.972   3.439   3.910 -0.2025 -0.0482 -0.2015
 5717SOL    HW222634   0.958   3.407   3.998 -0.6503 -1.8240 -0.8758
 5717SOL    HW322635   1.060   3.407   3.887  0.6466  1.8814  0.1844
 5717SOL    MW422636   0.982   3.431   3.918  0.3702  0.3158  0.0833
 5718SOL     OW22637   1.250   1.278   2.022  0.2682 -0.0939  0.4567
 5718SOL    HW222638   1.327   1.334   2.013  1.6769 -1.7819  1.5250
 5718SOL    HW322639   1.179   1.339   2.044  0.8926  1.6815 -2.0389
 5718SOL    MW422640   1.251   1.294   2.024 -0.1563  0.1300  0.4357
 5719SOL     OW22641   4.826   4.881   0.716  0.0906  0.2497  0.1634
 5719SOL    HW222642   4.900   4.941   0.709 -0.4432  0.7841 -1.3242
 5719SOL    HW322643   4.787   4.881   0.628 -1.8078  0.1608  0.9669
 5719SOL    MW422644   4.831   4.889   0.703  0.2892  0.2456  0.1715
 5720SOL     OW22645   0.609   1.452   6.216  1.0174 -0.0395 -0.0023
 5720SOL    HW222646   0.564   1.525   6.258 -0.3168 -0.7887 -0.0736
 5720SOL    HW322647   0.679   1.493   6.165 -0.1596  1.2717 -0.6365
 5720SOL    MW422648   0.612   1.467   6.215 -0.1084 -0.0513  0.1980
 5721SOL     OW22649   1.774   1.045   1.173  0.3786  0.3802 -0.4105
 5721SOL    HW222650   1.781   1.067   1.080  2.2642 -0.5924 -0.5462
 5721SOL    HW322651   1.783   0.949   1.175  0.1605  0.3713  0.7705
 5721SOL    MW422652   1.776   1.035   1.161 -0.3999  0.4254 -0.2030
 5722SOL     OW22653   6.019   2.178   3.212 -0.0055 -0.4360 -0.0746
 5722SOL    HW222654   6.004   2.101   3.157 -2.3862 -1.5022  1.8629
 5722SOL    HW322655   6.103   2.214   3.182  1.3222 -3.8920 -0.9370
 5722SOL    MW422656   6.028   2.173   3.201  0.0102 -0.7906 -0.3142
 5723SOL     OW22657   3.595   2.024   3.455 -0.0965 -0.4663 -0.2042
 5723SOL    HW222658   3.588   1.929   3.468 -1.3982 -0.8019 -2.7857
 5723SOL    HW322659   3.624   2.034   3.365 -0.8110  1.5946 -0.2626
 5723SOL    MW422660   3.598   2.012   3.445  0.5378 -0.6679 -0.3000
 5724SOL     OW22661   3.177   2.532   4.354  0.4133  0.5082 -0.3399
 5724SOL    HW222662   3.217   2.485   4.280 -0.4335  0.5860 -0.8619
 5724SOL    HW322663   3.163   2.620   4.321 -0.1047  0.5045 -0.1320
 5724SOL    MW422664   3.181   2.537   4.340  0.6201  0.1461 -0.6579
 5725SOL     OW22665   1.408   6.385   5.822  0.0509  0.4136 -0.2151
 5725SOL    HW222666   1.378   6.443   5.753  2.5695 -0.9604 -2.6621
 5725SOL    HW322667   1.489   6.346   5.788  0.4798 -1.7223  2.7875
 5725SOL    MW422668   1.415   6.387   5.809  0.3089  0.2681  0.2310
 5726SOL     OW22669   5.076   2.202   0.547 -0.2200  0.7058  0.2783
 5726SOL    HW222670   5.120   2.229   0.466 -1.0020  1.9011  0.2423
 5726SOL    HW322671   5.137   2.226   0.617  0.7118 -0.8339  0.0618
 5726SOL    MW422672   5.090   2.209   0.546  0.3384  0.3419  0.4107
 5727SOL     OW22673   2.092   4.005   5.483 -0.6017  0.5429  0.1984
 5727SOL    HW222674   2.115   3.967   5.568  1.3183  0.0131 -0.5076
 5727SOL    HW322675   2.050   4.088   5.505 -2.1044 -0.5349  1.6951
 5727SOL    MW422676   2.089   4.011   5.497  0.9160 -0.1823 -0.4078
 5728SOL     OW22677   2.470   4.872   0.913  0.5801 -0.6760  0.0054
 5728SOL    HW222678   2.556   4.891   0.951  0.0105 -0.0277  1.0194
 5728SOL    HW322679   2.453   4.944   0.852  0.9020 -0.9889 -0.4563
 5728SOL    MW422680   2.479   4.884   0.910 -0.2455  0.7410  0.8814
 5729SOL     OW22681   0.335   6.212   4.786  0.3736 -0.0043  0.2116
 5729SOL    HW222682   0.328   6.164   4.869  0.1485  0.1235  0.2688
 5729SOL    HW322683   0.253   6.191   4.740  0.1285  0.5700  0.3705
 5729SOL    MW422684   0.323   6.203   4.791  0.3034 -0.2545 -0.4894
 5730SOL     OW22685   2.323   2.986   5.553 -0.4703  0.0276 -0.5215
 5730SOL    HW222686   2.315   3.051   5.483 -1.2337  0.6541  0.1412
 5730SOL    HW322687   2.287   3.028   5.631  0.6065 -0.5723  0.3288
 5730SOL    MW422688   2.317   3.000   5.554  0.0048 -0.1765  0.1023
 5731SOL     OW22689   2.021   5.639   4.644  0.2297  0.4412 -0.0018
 5731SOL    HW222690   2.031   5.670   4.734  0.7274 -0.8130  0.3971
 5731SOL    HW322691   1.928   5.649   4.626 -0.1673 -0.6899  1.2193
 5731SOL    MW422692   2.010   5.644   4.654  0.2948 -0.0547  0.6244
 5732SOL     OW22693   3.708   4.860   3.075 -0.6387 -0.3449  0.5994
 5732SOL    HW222694   3.679   4.879   2.986 -2.4289 -1.7850  0.8211
 5732SOL    HW322695   3.699   4.943   3.122  1.1367  0.6589 -0.7028
 5732SOL    MW422696   3.703   4.873   3.070 -0.5267 -0.3425  0.4479
 5733SOL     OW22697   0.604   3.418   4.245  0.0866  0.4385 -0.5101
 5733SOL    HW222698   0.531   3.472   4.214 -0.0023  0.6833  0.1092
 5733SOL    HW322699   0.562   3.346   4.291  0.2185  0.1064 -0.9060
 5733SOL    MW422700   0.589   3.416   4.247 -0.2482  0.3925 -0.1541
 5734SOL     OW22701   1.167   0.330   1.172  0.5125  0.0755 -0.9167
 5734SOL    HW222702   1.251   0.287   1.155  0.1445 -0.3860 -1.6268
 5734SOL    HW322703   1.153   0.320   1.266  1.1124 -0.1074 -0.8464
 5734SOL    MW422704   1.176   0.323   1.182 -0.2857  0.2074 -0.2238
 5735SOL     OW22705   1.715   2.244   1.310  0.3690 -0.1905  0.1267
 5735SOL    HW222706   1.705   2.173   1.247 -0.1199  0.7997 -0.9549
 5735SOL    HW322707   1.711   2.324   1.257  0.4743  0.6576  1.3539
 5735SOL    MW422708   1.713   2.245   1.295 -1.4457 -0.0003 -0.1860
 5736SOL     OW22709   4.912   5.784   1.271  1.1618  0.6873 -0.1729
 5736SOL    HW222710   4.954   5.775   1.356 -0.7060 -2.3882  0.5900
 5736SOL    HW322711   4.876   5.697   1.253 -2.2347  2.2988 -2.0653
 5736SOL    MW422712   4.913   5.771   1.280 -0.1226  0.0551  0.4178
 5737SOL     OW22713   4.431   2.291   1.512 -0.3532 -0.4497  0.4823
 5737SOL    HW222714   4.444   2.209   1.559 -1.4559  0.5805  2.7572
 5737SOL    HW322715   4.425   2.357   1.581 -1.0536  1.3201 -1.1851
 5737SOL    MW422716   4.432   2.289   1.527 -0.2702 -0.7183 -0.3194
 5738SOL     OW22717   1.612   3.407   3.957  0.1555  0.0055  0.7140
 5738SOL    HW222718   1.522   3.388   3.981 -0.2231  0.7442 -0.0245
 5738SOL    HW322719   1.604   3.455   3.874  1.2004  0.4080  0.8317
 5738SOL    MW422720   1.599   3.411   3.949 -0.0194 -0.7141  0.2500
 5739SOL     OW22721   3.066   1.696   3.983 -0.4565 -0.1528 -0.9349
 5739SOL    HW222722   3.047   1.655   3.899  0.3258 -0.8840 -0.7579
 5739SOL    HW322723   3.141   1.648   4.017 -0.6423  0.2686  0.0913
 5739SOL    MW422724   3.073   1.684   3.976 -0.0374 -0.5352 -0.4005
 5740SOL     OW22725   2.755   2.431   6.226 -0.2803 -0.0142 -0.8629
 5740SOL    HW222726   2.833   2.466   6.183 -0.3571  3.8395  1.5765
 5740SOL    HW322727   2.684   2.486   6.194 -1.1477 -0.3435  0.4160
 5740SOL    MW422728   2.756   2.443   6.216 -0.1601 -0.1143  0.0042
 5741SOL     OW22729   1.442   1.050   1.366  0.3115  0.6441  0.2691
 5741SOL    HW222730   1.507   0.981   1.357 -0.7312 -0.2994 -0.2174
 5741SOL    HW322731   1.358   1.005   1.362 -0.4045  1.9834 -0.4882
 5741SOL    MW422732   1.440   1.035   1.364  0.4861 -0.5120 -0.6258
 5742SOL     OW22733   1.575   3.615   3.219 -0.4656  0.7071 -0.1969
 5742SOL    HW222734   1.541   3.528   3.198  2.2871 -0.3895 -0.4524
 5742SOL    HW322735   1.561   3.666   3.139 -1.0128  0.1555 -0.4617
 5742SOL    MW422736   1.568   3.611   3.206  0.0496  0.0138  0.3642
 5743SOL     OW22737   2.982   5.324   2.875  0.0874 -0.2591  0.1603
 5743SOL    HW222738   2.999   5.418   2.871  2.0909 -0.5624  0.4324
 5743SOL    HW322739   2.956   5.300   2.786  0.9718  0.3281 -0.2675
 5743SOL    MW422740   2.981   5.333   2.862  0.3050  0.2843  0.2335
 5744SOL     OW22741   1.628   4.209   0.874  0.1344 -0.0787 -0.3833
 5744SOL    HW222742   1.686   4.220   0.799 -0.7558  1.9640 -0.8374
 5744SOL    HW322743   1.573   4.134   0.850 -0.4298  0.7994 -2.0337
 5744SOL    MW422744   1.628   4.200   0.861  0.1054 -0.3037  0.3741
 5745SOL     OW22745   1.569   4.946   4.208 -0.1831 -0.2503 -0.5804
 5745SOL    HW222746   1.565   4.879   4.140 -1.3394  1.1788 -2.0188
 5745SOL    HW322747   1.607   4.902   4.284 -0.1330 -2.2768 -1.7175
 5745SOL    MW422748   1.574   4.932   4.209  0.8169 -0.2152  0.3580
 5746SOL     OW22749   2.520   0.961   3.295 -0.0634 -0.2666 -0.1153
 5746SOL    HW222750   2.548   1.010   3.218  0.7127 -0.4997  0.0181
 5746SOL    HW322751   2.550   0.871   3.278  0.9274 -0.1327  0.8721
 5746SOL    MW422752   2.527   0.955   3.282  0.1941  0.2645 -0.0984
 5747SOL     OW22753   1.488   1.346   1.389 -0.2386  0.2061 -0.0935
 5747SOL    HW222754   1.401   1.372   1.358 -0.5342 -0.3683  0.2179
 5747SOL    HW322755   1.478   1.254   1.413  0.7146 -0.1486 -0.9757
 5747SOL    MW422756   1.475   1.337   1.388  0.2680 -0.0570  0.2125
 5748SOL     OW22757   4.107   4.012   5.607 -0.2794 -0.3397  0.5973
 5748SOL    HW222758   4.115   3.931   5.658 -0.7779 -0.4294  0.5449
 5748SOL    HW322759   4.015   4.013   5.579 -0.4504  0.5730  1.1526
 5748SOL    MW422760   4.096   4.001   5.610 -0.5993  0.3425  0.5376
 5749SOL     OW22761   0.937   2.341   0.941  0.7821  0.3226 -0.2839
 5749SOL    HW222762   0.935   2.400   1.016 -1.3106 -0.5652  0.4212
 5749SOL    HW322763   0.970   2.258   0.976 -0.0321 -0.0440 -0.3646
 5749SOL    MW422764   0.941   2.338   0.955  0.0641  0.1123  0.4722
 5750SOL     OW22765   4.045  -0.021   3.064 -0.1571  0.2192 -0.3459
 5750SOL    HW222766   4.126  -0.005   3.113 -1.0616 -0.6672  1.5399
 5750SOL    HW322767   4.003   0.065   3.060  0.0415  0.3557  0.2650
 5750SOL    MW422768   4.050  -0.007   3.070 -0.4063 -0.0233 -0.0602
 5751SOL     OW22769   5.571   6.070   3.102 -0.3543  0.2193  0.1622
 5751SOL    HW222770   5.602   6.138   3.041 -1.1845 -1.6482 -2.5220
 5751SOL    HW322771   5.647   6.054   3.159  0.7994  1.4394 -0.9322
 5751SOL    MW422772   5.585   6.077   3.101 -0.5681 -0.3426  0.8404
 5752SOL     OW22773   4.819   4.598   5.750 -0.2058  0.4846  0.3827
 5752SOL    HW222774   4.843   4.558   5.666  0.9183  0.8995  0.4895
 5752SOL    HW322775   4.728   4.624   5.739  0.3588  1.9522 -1.2958
 5752SOL    MW422776   4.810   4.596   5.737 -0.4549  0.5713 -0.1254
 5753SOL     OW22777   2.777   0.306   3.484  0.0574 -0.3980  0.0589
 5753SOL    HW222778   2.723   0.254   3.424 -1.2751 -0.6950  1.4345
 5753SOL    HW322779   2.833   0.241   3.527  0.1468 -0.3659 -0.0120
 5753SOL    MW422780   2.777   0.290   3.482  0.6436 -0.0943  0.3093
 5754SOL     OW22781   3.658   3.543   3.873 -0.5583 -0.3840 -0.0687
 5754SOL    HW222782   3.641   3.451   3.853  2.0102 -0.8957 -0.3364
 5754SOL    HW322783   3.734   3.565   3.818 -0.2985  1.4994  0.9723
 5754SOL    MW422784   3.666   3.534   3.863  0.1890 -0.5396 -0.0585
 5755SOL     OW22785   1.239   6.335   4.167  0.1419  0.2871  0.5658
 5755SOL    HW222786   1.205   6.408   4.219 -2.8365  0.7048 -1.6854
 5755SOL    HW322787   1.269   6.376   4.085 -1.1849 -0.9015 -0.5557
 5755SOL    MW422788   1.238   6.350   4.163 -0.0769 -0.3779  0.2157
 5756SOL     OW22789   2.480   1.577   0.185  0.5593  0.2116 -0.1208
 5756SOL    HW222790   2.462   1.669   0.166 -0.0360  0.2202  0.4636
 5756SOL    HW322791   2.479   1.571   0.280 -2.0281 -0.8532 -0.1174
 5756SOL    MW422792   2.477   1.588   0.195 -0.0345 -0.4935 -0.2516
 5757SOL     OW22793   1.510   6.260   0.288  0.2407  0.0495  0.3184
 5757SOL    HW222794   1.472   6.285   0.372 -0.8266  1.8742 -0.6495
 5757SOL    HW322795   1.561   6.337   0.261  0.2362 -0.3483 -0.8871
 5757SOL    MW422796   1.512   6.273   0.295  0.5474  0.1994 -0.3972
 5758SOL     OW22797   0.491   2.488   5.988 -0.1828 -0.5254 -0.7147
 5758SOL    HW222798   0.432   2.539   6.043 -1.0895 -2.1153 -0.1540
 5758SOL    HW322799   0.434   2.437   5.931  0.6990 -0.7101 -1.4655
 5758SOL    MW422800   0.476   2.488   5.987  0.5606  0.3486 -0.4811
 5759SOL     OW22801   1.741   1.719   4.074 -0.3579  0.1010  0.4974
 5759SOL    HW222802   1.795   1.665   4.133 -1.9240 -1.2362  0.7774
 5759SOL    HW322803   1.764   1.689   3.986  1.6457  1.7801  0.3771
 5759SOL    MW422804   1.751   1.708   4.070 -0.3039 -0.0794 -0.2103
 5760SOL     OW22805   5.666   2.060   0.119 -0.1092  0.3081 -0.4896
 5760SOL    HW222806   5.670   1.972   0.156  1.2427  0.4120 -0.3361
 5760SOL    HW322807   5.732   2.109   0.169 -1.7858  1.7834  0.3838
 5760SOL    MW422808   5.675   2.055   0.131 -0.5923 -0.0520  0.2596
 5761SOL     OW22809   1.962   4.850   5.700  0.0314 -0.4512 -0.5836
 5761SOL    HW222810   1.952   4.756   5.712  0.0253 -0.3866 -0.0858
 5761SOL    HW322811   2.053   4.862   5.672  0.1561 -0.5642 -0.2247
 5761SOL    MW422812   1.973   4.839   5.698 -0.1099  0.0923  0.1163
 5762SOL     OW22813   0.400   4.825   0.822 -0.1827 -0.1322  0.0158
 5762SOL    HW222814   0.461   4.788   0.759  0.6195  0.3459  0.4896
 5762SOL    HW322815   0.315   4.821   0.779  0.2174 -0.6102 -0.7435
 5762SOL    MW422816   0.397   4.820   0.808 -0.2572  0.2552  0.2727
 5763SOL     OW22817   5.490   2.430   2.541 -0.7008  0.2672  0.2428
 5763SOL    HW222818   5.410   2.393   2.578  0.1367  0.2514  2.1582
 5763SOL    HW322819   5.470   2.445   2.448 -2.1616 -1.8393  0.1623
 5763SOL    MW422820   5.477   2.427   2.533  0.0287 -0.1021 -0.2188
 5764SOL     OW22821   2.720   3.582   4.908  0.5813  0.5618 -0.8868
 5764SOL    HW222822   2.724   3.565   4.814 -0.1747  1.4413 -1.0930
 5764SOL    HW322823   2.785   3.651   4.922  2.0025 -0.8172 -0.4384
 5764SOL    MW422824   2.729   3.589   4.897 -0.0946  0.0216  0.2634
 5765SOL     OW22825   4.708   5.627   0.450  0.4830  0.1085  0.2777
 5765SOL    HW222826   4.756   5.565   0.504  1.7049  0.8835  0.1355
 5765SOL    HW322827   4.732   5.713   0.485 -0.6621  0.5300  0.0656
 5765SOL    MW422828   4.718   5.630   0.462 -0.0766 -0.6968  0.0205
 5766SOL     OW22829   2.284   4.994   2.241  0.4520 -1.0395  0.1953
 5766SOL    HW222830   2.268   5.071   2.296  0.3755 -1.4361  0.7385
 5766SOL    HW322831   2.328   5.029   2.163  0.5491 -0.4647  0.4994
 5766SOL    MW422832   2.288   5.009   2.238 -0.2441 -0.7361  0.0003
 5767SOL     OW22833   2.460   3.678   1.967 -0.6940 -0.0941  0.3904
 5767SOL    HW222834   2.462   3.774   1.969 -2.0484 -0.0326 -0.2706
 5767SOL    HW322835   2.552   3.653   1.959 -0.4121  1.2243 -1.1448
 5767SOL    MW422836   2.472   3.688   1.966  0.4112  0.0348  0.1289
 5768SOL     OW22837   0.274   2.590   4.417 -0.8206  0.5774  0.0821
 5768SOL    HW222838   0.215   2.532   4.369  1.6464 -1.3909 -0.7800
 5768SOL    HW322839   0.297   2.659   4.354 -0.9534  0.4461 -0.1090
 5768SOL    MW422840   0.269   2.592   4.402  0.3216  0.0134 -0.1494
 5769SOL     OW22841   5.490   2.666   2.682 -0.4633  0.0883  0.4259
 5769SOL    HW222842   5.430   2.658   2.756  0.6304 -0.6740  1.2557
 5769SOL    HW322843   5.491   2.579   2.643 -0.8814  0.4357 -0.3838
 5769SOL    MW422844   5.482   2.654   2.686 -0.2167 -0.4009 -0.0990
 5770SOL     OW22845   5.318   5.976   1.019  0.4609  0.1393  0.1039
 5770SOL    HW222846   5.226   5.953   1.006  0.2443  0.0857  1.5220
 5770SOL    HW322847   5.366   5.910   0.969 -0.2666  0.7483 -1.4607
 5770SOL    MW422848   5.312   5.964   1.011  0.3664 -0.3935 -0.2744
 5771SOL     OW22849   3.870   2.795   2.584  0.0315 -0.0526  0.2152
 5771SOL    HW222850   3.931   2.730   2.618 -0.7600  0.0929  1.9959
 5771SOL    HW322851   3.920   2.876   2.582  0.1119 -0.0738  1.0171
 5771SOL    MW422852   3.884   2.797   2.588 -0.4276 -0.2008 -0.1913
 5772SOL     OW22853   4.216   3.523   5.764 -0.2920  0.2531  0.1133
 5772SOL    HW222854   4.218   3.612   5.729 -1.6190  0.3616  0.2909
 5772SOL    HW322855   4.234   3.467   5.688  0.4874  0.6577 -0.0110
 5772SOL    MW422856   4.219   3.528   5.749  0.5001 -0.5273 -0.0613
 5773SOL     OW22857   2.242   0.704   3.532  0.2257 -0.0428 -0.2462
 5773SOL    HW222858   2.236   0.705   3.437  0.3642 -0.8215 -0.2679
 5773SOL    HW322859   2.175   0.641   3.560 -0.0356  0.4239  0.1901
 5773SOL    MW422860   2.232   0.696   3.523  0.1449  0.3207 -0.7432
 5774SOL     OW22861   5.724   1.086   5.338 -0.0861  0.2165  0.1409
 5774SOL    HW222862   5.748   1.138   5.261  0.5033  1.0886  0.8827
 5774SOL    HW322863   5.676   1.011   5.303 -0.8522  1.1902 -0.9854
 5774SOL    MW422864   5.721   1.083   5.323  0.9975 -0.3910  0.3230
 5775SOL     OW22865   1.739   5.278   5.060  0.1246 -0.3495  0.0609
 5775SOL    HW222866   1.736   5.230   5.143  0.4350  0.2961  0.4574
 5775SOL    HW322867   1.791   5.356   5.080 -0.5838  0.2812 -0.5038
 5775SOL    MW422868   1.746   5.282   5.074 -0.1558  0.4877  0.5601
 5776SOL     OW22869   1.459   6.139   2.964  0.1836  0.2258 -0.3251
 5776SOL    HW222870   1.493   6.202   3.028  1.5026 -0.3324 -0.4370
 5776SOL    HW322871   1.500   6.164   2.882 -0.3113  0.0090 -0.6417
 5776SOL    MW422872   1.469   6.151   2.962  0.2885 -0.0649 -0.4346
 5777SOL     OW22873   1.818   0.760   1.161  0.3116 -0.1797  0.2270
 5777SOL    HW222874   1.871   0.696   1.114  1.2590  0.0447  0.9530
 5777SOL    HW322875   1.831   0.740   1.253 -0.8625 -0.0981  0.4323
 5777SOL    MW422876   1.826   0.749   1.167 -0.7444  0.4641 -0.2317
 5778SOL     OW22877   5.317   0.326   5.617 -0.0543  0.1885 -0.3238
 5778SOL    HW222878   5.375   0.291   5.685 -0.8494  0.9922  0.8156
 5778SOL    HW322879   5.335   0.273   5.540 -0.2934 -1.8786  0.9729
 5778SOL    MW422880   5.327   0.315   5.616  0.3068  0.1137 -0.3401
 5779SOL     OW22881   6.209   4.517   1.151 -0.3881 -0.2779  0.1725
 5779SOL    HW222882   6.257   4.513   1.068 -2.6432  1.5456 -1.3547
 5779SOL    HW322883   6.232   4.602   1.188 -1.7104  0.2736 -0.1896
 5779SOL    MW422884   6.218   4.528   1.145  0.0598 -0.3987  0.1096
 5780SOL     OW22885   4.557   3.707   0.641  0.1159  0.2531  0.0965
 5780SOL    HW222886   4.569   3.777   0.706 -0.4492 -0.6923  1.2799
 5780SOL    HW322887   4.466   3.717   0.613  0.7640  1.5737 -1.7246
 5780SOL    MW422888   4.546   3.718   0.646 -0.1250 -1.0078 -0.3308
 5781SOL     OW22889   5.893   6.112   4.495  0.6080  0.1752  0.1651
 5781SOL    HW222890   5.873   6.173   4.567  0.8440  0.9189 -0.3847
 5781SOL    HW322891   5.848   6.031   4.520  0.7400  0.3946  1.1855
 5781SOL    MW422892   5.884   6.109   4.508  0.0827  0.2766 -0.0599
 5782SOL     OW22893   3.592   3.054   5.274  0.0294 -0.3077  0.4839
 5782SOL    HW222894   3.532   3.031   5.345 -1.0945  0.0219 -0.3190
 5782SOL    HW322895   3.676   3.068   5.317 -0.3924 -1.0818  1.6101
 5782SOL    MW422896   3.595   3.053   5.289 -0.1111  0.2843  0.3934
 5783SOL     OW22897   5.608   1.190   1.467 -0.2620  0.4047 -0.1020
 5783SOL    HW222898   5.581   1.280   1.448  0.2620  0.4580 -0.6101
 5783SOL    HW322899   5.690   1.178   1.419 -1.0879 -0.8305 -1.2933
 5783SOL    MW422900   5.615   1.200   1.458 -0.2199  0.5841  0.2496
 5784SOL     OW22901   0.107   5.217   6.387  0.3340 -0.3684 -0.0906
 5784SOL    HW222902   0.066   5.249   6.468 -0.9540 -3.9250  0.8329
 5784SOL    HW322903   0.048   5.245   6.317  0.5927  1.3043  0.3116
 5784SOL    MW422904   0.094   5.225   6.388  0.0881  0.0492 -0.0470
 5785SOL     OW22905   1.228   6.028   5.197  0.2894  0.1587  0.0279
 5785SOL    HW222906   1.224   5.942   5.157  0.5439 -0.6234  1.5852
 5785SOL    HW322907   1.139   6.062   5.190 -0.1615 -0.8510  0.6493
 5785SOL    MW422908   1.216   6.021   5.191  0.1454  0.4670 -0.5403
 5786SOL     OW22909   5.127   5.769   3.512 -0.3045 -0.0520  0.2143
 5786SOL    HW222910   5.131   5.776   3.416 -0.2651 -0.8265  0.1532
 5786SOL    HW322911   5.208   5.723   3.536  0.2006  1.0526  0.7286
 5786SOL    MW422912   5.138   5.764   3.502  0.2952 -0.2177 -0.1653
 5787SOL     OW22913   0.666   4.952   1.665 -0.1177  0.6375  0.5117
 5787SOL    HW222914   0.629   5.033   1.702  1.8003  1.6955  0.2641
 5787SOL    HW322915   0.594   4.889   1.669 -1.6888  2.3489  0.7042
 5787SOL    MW422916   0.652   4.955   1.671 -0.8572  0.1526  0.0150
 5788SOL     OW22917   0.669   4.105   5.757 -0.1142 -0.2402  0.3274
 5788SOL    HW222918   0.618   4.153   5.692  0.2230 -1.3827 -0.8307
 5788SOL    HW322919   0.760   4.116   5.730  0.0008 -1.0700  0.3569
 5788SOL    MW422920   0.674   4.113   5.745 -0.1953  0.1056 -0.3096
 5789SOL     OW22921   6.215   0.286   1.764 -0.0382 -0.3092  0.3781
 5789SOL    HW222922   6.130   0.325   1.744  0.0091 -0.3533  0.0845
 5789SOL    HW322923   6.219   0.284   1.859 -0.5970 -0.8144  0.3901
 5789SOL    MW422924   6.205   0.291   1.773 -0.1620  0.2010 -0.3710
 5790SOL     OW22925   5.559   0.522   2.716 -0.5143 -0.0262  0.3991
 5790SOL    HW222926   5.515   0.607   2.706 -0.5697 -0.0823  0.1720
 5790SOL    HW322927   5.501   0.472   2.773 -1.1259 -0.3711 -0.5136
 5790SOL    MW422928   5.545   0.527   2.722 -0.9477  0.4176  0.7233
 5791SOL     OW22929   2.104   1.776   1.119  0.7146 -0.3579  0.4977
 5791SOL    HW222930   2.083   1.754   1.028  0.1561 -0.7065  0.7084
 5791SOL    HW322931   2.105   1.692   1.165 -1.1218 -0.0189  1.2420
 5791SOL    MW422932   2.101   1.762   1.113  0.0031 -0.1034  0.3616
 5792SOL     OW22933   2.235   1.815   4.901 -0.2716 -0.0974  0.2336
 5792SOL    HW222934   2.187   1.877   4.847  0.0871 -1.6496 -1.9950
 5792SOL    HW322935   2.326   1.823   4.873 -0.3498 -2.2346 -0.8025
 5792SOL    MW422936   2.241   1.824   4.890 -0.4752  0.0008  0.3376
 5793SOL     OW22937   0.642   5.503   2.386  0.0093  0.0416 -0.1727
 5793SOL    HW222938   0.631   5.408   2.379 -1.0534  0.2554 -3.2511
 5793SOL    HW322939   0.728   5.519   2.347  0.2660  0.3375  0.5109
 5793SOL    MW422940   0.652   5.492   2.380  0.1450  0.2929 -0.4320
 5794SOL     OW22941   1.326   2.512   1.200  0.2277  0.0437 -0.3996
 5794SOL    HW222942   1.277   2.568   1.260  0.9262 -1.0829  1.2658
 5794SOL    HW322943   1.413   2.552   1.195  0.4224 -0.3207  0.0074
 5794SOL    MW422944   1.331   2.525   1.207  0.1686 -0.2576 -0.4447
 5795SOL     OW22945   3.059   3.819   3.452 -0.3034 -0.1171  0.3077
 5795SOL    HW222946   3.112   3.747   3.418 -0.2220  0.5567 -1.0788
 5795SOL    HW322947   3.104   3.847   3.531 -0.0002 -1.1914  0.5193
 5795SOL    MW422948   3.072   3.814   3.458 -0.1311 -0.0468 -0.2035
 5796SOL     OW22949   4.067   5.915   2.883  0.0181  0.6255  0.1359
 5796SOL    HW222950   4.093   5.901   2.792 -1.4004  0.7152 -0.2951
 5796SOL    HW322951   4.131   5.978   2.916  0.6323  0.4845 -0.7505
 5796SOL    MW422952   4.079   5.922   2.875 -0.2896 -0.3478 -0.3584
 5797SOL     OW22953   4.372   1.838   0.256  0.3389  0.1842  0.0552
 5797SOL    HW222954   4.402   1.897   0.325  1.6954 -0.9679  0.4914
 5797SOL    HW322955   4.442   1.774   0.246 -1.0377 -1.3147 -0.4744
 5797SOL    MW422956   4.385   1.837   0.264  0.5200  0.3438  0.0029
 5798SOL     OW22957   2.191   1.554   4.960 -0.2787 -0.0506 -0.2065
 5798SOL    HW222958   2.096   1.558   4.973 -0.3065  0.4736 -0.5519
 5798SOL    HW322959   2.217   1.645   4.947 -0.0095 -0.3626 -2.0761
 5798SOL    MW422960   2.182   1.566   4.960  0.3829  0.1113  0.1222
 5799SOL     OW22961   0.515   3.258   5.323  0.5044 -0.0759 -0.0550
 5799SOL    HW222962   0.580   3.263   5.253  0.3158 -1.4126 -0.3393
 5799SOL    HW322963   0.443   3.313   5.293  1.7892  2.1206  0.6294
 5799SOL    MW422964   0.514   3.266   5.310 -0.4086 -0.3466  0.0719
 5800SOL     OW22965   1.325   4.733   3.482 -0.6766 -0.1415  0.3044
 5800SOL    HW222966   1.259   4.685   3.431 -0.5298 -0.2420  0.2083
 5800SOL    HW322967   1.294   4.728   3.572 -0.4124 -0.8274  0.3606
 5800SOL    MW422968   1.312   4.726   3.487  0.4256 -0.1550  0.1500
 5801SOL     OW22969   4.234   1.567   6.331 -0.0567 -0.3125 -0.2733
 5801SOL    HW222970   4.306   1.620   6.296 -0.0862  0.1384  0.3481
 5801SOL    HW322971   4.271   1.523   6.407 -0.8735  1.2523  1.1145
 5801SOL    MW422972   4.248   1.568   6.336  0.7980 -0.1142 -0.6615
 5802SOL     OW22973   4.158   4.739   2.896  0.4617  0.1964  0.4013
 5802SOL    HW222974   4.183   4.758   2.806 -0.6094 -3.0252 -0.7216
 5802SOL    HW322975   4.204   4.657   2.917 -0.2843  0.2114  2.3530
 5802SOL    MW422976   4.168   4.730   2.887 -0.1335  0.4001  0.2812
 5803SOL     OW22977   6.281   6.167   2.875 -0.0834  0.7989 -0.2941
 5803SOL    HW222978   6.351   6.232   2.882 -0.9458  1.7773 -0.4922
 5803SOL    HW322979   6.307   6.111   2.802  0.5539  1.0710 -0.2789
 5803SOL    MW422980   6.294   6.168   2.866 -0.0128  0.5267  0.5920
 5804SOL     OW22981   5.355   4.198   3.870  0.1707 -0.4587 -0.3327
 5804SOL    HW222982   5.333   4.106   3.856  0.9705 -0.7038 -0.0385
 5804SOL    HW322983   5.274   4.245   3.852 -0.3724 -1.2585 -0.0465
 5804SOL    MW422984   5.342   4.192   3.866  0.0383  0.6045  0.0533
 5805SOL     OW22985   6.142   6.066   4.954 -0.0105  0.4243 -0.3286
 5805SOL    HW222986   6.138   6.018   5.037 -0.1004 -0.6428 -0.9333
 5805SOL    HW322987   6.233   6.095   4.947 -0.2125  1.3740  0.5889
 5805SOL    MW422988   6.153   6.064   4.964  0.1877 -0.1351  0.0034
 5806SOL     OW22989   2.624   4.516   0.572  0.0003 -0.2205  0.2098
 5806SOL    HW222990   2.600   4.605   0.546  0.2279  0.0323  0.8487
 5806SOL    HW322991   2.715   4.506   0.544 -0.2072 -0.4708 -0.4006
 5806SOL    MW422992   2.633   4.526   0.565 -0.6268 -0.2216  0.5297
 5807SOL     OW22993   5.409   1.984   4.209  0.3809  0.1160  0.3146
 5807SOL    HW222994   5.421   2.072   4.243 -0.5991  0.8434 -1.1178
 5807SOL    HW322995   5.450   1.986   4.123  1.0870 -1.0862  0.6068
 5807SOL    MW422996   5.416   1.996   4.202 -0.0773 -0.4801  0.7196
 5808SOL     OW22997   1.654   2.920   4.267 -0.3719  0.0953  0.0243
 5808SOL    HW222998   1.693   3.003   4.297  2.2090 -0.4114 -1.6382
 5808SOL    HW322999   1.599   2.945   4.193 -0.3033  0.4222  0.0799
 5808SOL    MW423000   1.652   2.934   4.261  0.0470  0.7403 -0.5797
 5809SOL     OW23001   1.702   2.248   4.985  0.3281  0.4258  0.0539
 5809SOL    HW223002   1.611   2.263   5.009  0.4683  0.4726  0.5761
 5809SOL    HW323003   1.727   2.168   5.032  0.2362 -0.2203 -0.9641
 5809SOL    MW423004   1.693   2.240   4.994  0.1377  0.5320  0.0543
 5810SOL     OW23005   5.043   0.284   4.209 -0.2063  0.5115  0.4347
 5810SOL    HW223006   5.089   0.341   4.148  0.7554 -0.4045  0.2844
 5810SOL    HW323007   5.002   0.218   4.154  0.5732 -0.2561  0.7498
 5810SOL    MW423008   5.044   0.283   4.194  0.0257  0.3288 -0.0653
 5811SOL     OW23009   2.048   3.575   0.765  0.0792 -0.4279 -0.4784
 5811SOL    HW223010   2.120   3.545   0.710 -0.6880 -0.8157 -1.2993
 5811SOL    HW323011   2.075   3.552   0.854  1.2037 -0.0592 -0.7189
 5811SOL    MW423012   2.061   3.568   0.770 -0.1544  0.4019  0.0636
 5812SOL     OW23013   3.557   4.040   2.599  0.7646 -0.6081  0.1679
 5812SOL    HW223014   3.553   4.085   2.515 -1.2027 -1.0866 -0.0466
 5812SOL    HW323015   3.647   4.054   2.630  1.3970 -0.0735 -1.7912
 5812SOL    MW423016   3.568   4.048   2.592 -0.1171 -0.2575 -0.0523
 5813SOL     OW23017   5.176   1.008   4.036  0.1108 -0.6663  0.0018
 5813SOL    HW223018   5.199   1.100   4.022  1.0297 -1.1521 -2.0205
 5813SOL    HW323019   5.260   0.963   4.038 -0.3518 -1.9388 -3.1363
 5813SOL    MW423020   5.190   1.014   4.034  0.0657  0.4820  0.4278
 5814SOL     OW23021   1.811   1.632   3.162 -0.1862 -0.4423 -0.1564
 5814SOL    HW223022   1.795   1.723   3.135 -3.9196 -0.8526  0.2201
 5814SOL    HW323023   1.756   1.579   3.105 -1.1341 -2.0908  2.1222
 5814SOL    MW423024   1.802   1.637   3.151  0.0121 -0.3867  0.6227
 5815SOL     OW23025   0.485   4.330   2.619 -0.3173  0.0318  0.4903
 5815SOL    HW223026   0.571   4.333   2.661  0.3156  0.2496 -0.7686
 5815SOL    HW323027   0.432   4.273   2.676  0.7052 -0.2475  1.1880
 5815SOL    MW423028   0.489   4.322   2.632 -0.1494 -0.2728  0.2011
 5816SOL     OW23029   4.099   1.553   3.863 -0.2406 -0.0549  0.3660
 5816SOL    HW223030   4.017   1.542   3.912  0.5877 -2.0377  1.4510
 5816SOL    HW323031   4.167   1.557   3.931  0.6221  1.0687 -0.5243
 5816SOL    MW423032   4.097   1.552   3.878  0.2922  0.8376 -0.3711
 5817SOL     OW23033   6.090   1.788   4.489  0.7274 -0.7473  0.6351
 5817SOL    HW223034   6.107   1.764   4.580 -0.4719  0.4619  1.2078
 5817SOL    HW323035   6.021   1.855   4.494  1.8622  0.6352 -1.0417
 5817SOL    MW423036   6.083   1.794   4.501  0.0122  0.2119  0.3115
 5818SOL     OW23037   2.252   5.614   4.917  0.3363 -0.3931 -0.4524
 5818SOL    HW223038   2.204   5.680   4.967 -1.8144  0.7401 -3.7031
 5818SOL    HW323039   2.223   5.530   4.955 -1.6516  0.3728 -0.1256
 5818SOL    MW423040   2.242   5.612   4.929 -0.7332 -0.1817  0.0065
 5819SOL     OW23041   3.955   2.858   4.983 -0.5752 -0.0763 -0.2374
 5819SOL    HW223042   4.021   2.906   5.032 -0.3800 -0.7613  0.1914
 5819SOL    HW323043   3.872   2.901   5.005 -0.3351  0.4781 -0.3948
 5819SOL    MW423044   3.953   2.870   4.992  1.2069 -0.0504 -0.1324
 5820SOL     OW23045   0.663   5.840   3.742  0.4019  0.8010  0.5235
 5820SOL    HW223046   0.657   5.897   3.819 -0.3344  2.2853 -0.5934
 5820SOL    HW323047   0.723   5.886   3.683  1.2083 -0.4736  0.3128
 5820SOL    MW423048   0.670   5.854   3.744  0.2402  0.5685 -0.3033
 5821SOL     OW23049   5.635   0.543   6.213  0.5848  0.1625  0.0350
 5821SOL    HW223050   5.698   0.488   6.166  0.3516  0.4672 -0.6511
 5821SOL    HW323051   5.550   0.510   6.185  0.4442  0.6003 -0.0608
 5821SOL    MW423052   5.632   0.531   6.203  0.3864  0.2659 -0.1153
 5822SOL     OW23053   4.009   2.763   1.583  0.7711 -0.5470 -0.3891
 5822SOL    HW223054   4.001   2.683   1.532 -1.2389 -0.9799  0.4977
 5822SOL    HW323055   4.008   2.733   1.674 -2.2433  0.5175  0.0394
 5822SOL    MW423056   4.007   2.749   1.589 -0.2685  0.1566 -0.1074
 5823SOL     OW23057   0.021   0.876   4.255 -0.2887  0.1881 -0.3456
 5823SOL    HW223058   0.103   0.864   4.207 -0.6048 -1.3771 -0.5557
 5823SOL    HW323059   0.046   0.883   4.347  0.2714  2.5747 -0.5924
 5823SOL    MW423060   0.035   0.876   4.260  0.3089 -0.4957  0.1366
 5824SOL     OW23061   4.491   3.539   4.318  0.2532  0.6513  0.0170
 5824SOL    HW223062   4.511   3.554   4.411  1.0457 -3.4684  0.6869
 5824SOL    HW323063   4.397   3.524   4.317  0.4982 -1.1256  0.5441
 5824SOL    MW423064   4.481   3.539   4.330 -0.3400 -0.1739  0.5742
 5825SOL     OW23065   3.962   6.386   4.255  0.5274  0.2007  0.5234
 5825SOL    HW223066   3.905   6.447   4.301  0.5065  0.7997 -0.2785
 5825SOL    HW323067   3.905   6.312   4.233  0.3000  0.3592  0.5780
 5825SOL    MW423068   3.947   6.384   4.258 -0.1193  1.2551  0.1872
 5826SOL     OW23069   5.691   4.174   4.415  0.0085  0.3603 -0.3982
 5826SOL    HW223070   5.771   4.122   4.407 -1.1200 -1.5640  0.1747
 5826SOL    HW323071   5.702   4.223   4.496  0.8015  0.4960 -0.5791
 5826SOL    MW423072   5.703   4.174   4.424  0.7820 -0.2513  0.5760
 5827SOL     OW23073   2.794   1.555   5.421  0.2101  0.8141  0.0078
 5827SOL    HW223074   2.822   1.534   5.332  0.1997  1.2912 -0.1084
 5827SOL    HW323075   2.850   1.501   5.478 -2.0955 -2.2785 -0.3541
 5827SOL    MW423076   2.805   1.545   5.417 -0.0381  0.1335  0.5442
 5828SOL     OW23077   4.464   5.372   2.150  0.3670  0.0861 -0.5333
 5828SOL    HW223078   4.506   5.430   2.213 -0.6787  1.3128 -0.9037
 5828SOL    HW323079   4.374   5.365   2.181  0.4808 -1.3876 -0.4925
 5828SOL    MW423080   4.458   5.379   2.162  0.3014  0.2947 -0.1842
 5829SOL     OW23081   3.624  -0.021   0.205  0.0588 -0.0398 -0.4742
 5829SOL    HW223082   3.679  -0.098   0.192 -1.1394 -0.9563 -0.3504
 5829SOL    HW323083   3.678   0.040   0.255  1.0911 -0.7225 -0.7284
 5829SOL    MW423084   3.638  -0.023   0.210  0.0469  0.0959 -0.6270
 5830SOL     OW23085   1.517   4.304   0.538  0.1049 -0.6780  0.3564
 5830SOL    HW223086   1.538   4.350   0.619 -2.6237 -0.2779  0.9115
 5830SOL    HW323087   1.561   4.219   0.548  1.4007  0.0632  1.3530
 5830SOL    MW423088   1.526   4.299   0.550  0.5204  0.1736 -0.6047
 5831SOL     OW23089   0.206   2.773   5.642  0.8466 -0.0433  0.3017
 5831SOL    HW223090   0.162   2.852   5.672 -1.4184 -0.3489 -1.8779
 5831SOL    HW323091   0.290   2.804   5.608  1.2462  0.9533  2.0524
 5831SOL    MW423092   0.211   2.788   5.641  0.2310  0.6188  0.1018
 5832SOL     OW23093   4.110   5.212   2.050 -0.2118  0.2077  0.4281
 5832SOL    HW223094   4.124   5.122   2.079  1.1949  0.1219 -0.4347
 5832SOL    HW323095   4.157   5.219   1.967  1.5084  2.3028  1.4723
 5832SOL    MW423096   4.118   5.201   2.043  0.2476  0.3769 -0.3426
 5833SOL     OW23097   4.753   0.362   4.206  0.7179  0.3322 -0.5229
 5833SOL    HW223098   4.738   0.304   4.131  0.2262 -0.7675  0.3901
 5833SOL    HW323099   4.665   0.387   4.234  0.7490 -1.3032  1.2004
 5833SOL    MW423100   4.739   0.358   4.200  0.2545  0.1457 -0.1003
 5834SOL     OW23101   5.710   6.243   2.705  0.2711  0.2037 -0.2429
 5834SOL    HW223102   5.658   6.311   2.663  0.2050 -0.0378 -0.5504
 5834SOL    HW323103   5.676   6.161   2.670  1.2213  0.0630 -0.8562
 5834SOL    MW423104   5.699   6.241   2.695  0.3280  0.5414  0.2299
 5835SOL     OW23105   0.752   2.335   5.902  0.0102  0.3522  0.1165
 5835SOL    HW223106   0.671   2.334   5.852  0.1623 -0.1677 -0.1293
 5835SOL    HW323107   0.748   2.416   5.954 -1.2880 -0.3312  1.1373
 5835SOL    MW423108   0.741   2.346   5.902  0.2473 -0.1491  0.1333
 5836SOL     OW23109   4.708   6.227   5.922  0.1769  0.0103 -0.3753
 5836SOL    HW223110   4.745   6.215   5.834 -0.3651  0.9015 -0.7427
 5836SOL    HW323111   4.620   6.259   5.906  0.0880  0.2133  0.5018
 5836SOL    MW423112   4.702   6.230   5.908  0.4956  0.5084  0.0853
 5837SOL     OW23113   4.950   3.439   0.998 -0.2157  0.1274 -0.1355
 5837SOL    HW223114   5.000   3.367   1.036  0.5455  0.4225 -0.5421
 5837SOL    HW323115   4.921   3.406   0.913  1.1917  0.6909 -0.8760
 5837SOL    MW423116   4.953   3.425   0.992  0.2353  0.3672  0.0603
 5838SOL     OW23117   0.148   3.691   1.671  0.0892 -0.5063  0.5512
 5838SOL    HW223118   0.218   3.749   1.703  1.5303 -2.1354  0.4938
 5838SOL    HW323119   0.157   3.693   1.576  1.2762 -2.0745  0.5880
 5838SOL    MW423120   0.159   3.699   1.662  0.0841  0.6126 -0.0528
 5839SOL     OW23121   1.496   3.454   6.334 -0.1635  0.0547 -0.1122
 5839SOL    HW223122   1.577   3.444   6.382 -0.7806  1.1698  1.2091
 5839SOL    HW323123   1.464   3.364   6.321  1.3289 -0.4057 -0.8148
 5839SOL    MW423124   1.502   3.441   6.338 -0.2083 -0.0684 -0.5125
 5840SOL     OW23125   5.782   5.123   0.342 -0.1893  0.3484  0.8539
 5840SOL    HW223126   5.701   5.112   0.391 -0.5585 -1.3060 -0.0750
 5840SOL    HW323127   5.769   5.205   0.293 -1.8817 -0.5376 -0.2920
 5840SOL    MW423128   5.769   5.133   0.342  0.8473  0.4659  0.1623
 5841SOL     OW23129   1.471   4.419   0.146 -0.9046 -0.6726 -0.2178
 5841SOL    HW223130   1.535   4.457   0.208  1.6389 -0.8376 -2.5520
 5841SOL    HW323131   1.402   4.384   0.202  0.3835  0.6872  2.4265
 5841SOL    MW423132   1.470   4.420   0.162 -0.7048  0.8776 -0.5111
 5842SOL     OW23133   5.000   3.136   5.848 -0.5762 -0.2995  0.0152
 5842SOL    HW223134   5.034   3.209   5.798 -0.2913  0.4248  1.2230
 5842SOL    HW323135   5.064   3.066   5.836 -0.3500 -0.0286 -0.3650
 5842SOL    MW423136   5.013   3.136   5.840 -0.5376  0.4919  0.3339
 5843SOL     OW23137   1.720   2.003   1.606  0.4404  0.1673  0.1881
 5843SOL    HW223138   1.737   1.937   1.539  0.3426  0.1835  0.1469
 5843SOL    HW323139   1.653   2.059   1.568 -0.4785 -0.5152  0.7509
 5843SOL    MW423140   1.713   2.002   1.592  0.1796  0.6697  0.2523
 5844SOL     OW23141   0.161   1.695   3.130  0.5375  0.3592  0.2848
 5844SOL    HW223142   0.217   1.625   3.164  0.8080 -0.7713 -2.2822
 5844SOL    HW323143   0.194   1.712   3.042 -3.1471 -0.4597 -1.4571
 5844SOL    MW423144   0.172   1.688   3.123 -0.3306 -0.3249  0.8035
 5845SOL     OW23145   0.036   2.784   2.326 -0.2677  0.0945  0.0851
 5845SOL    HW223146   0.024   2.879   2.324 -0.5035  0.0624  0.0384
 5845SOL    HW323147   0.069   2.766   2.414  1.3905  0.4128 -0.4213
 5845SOL    MW423148   0.039   2.794   2.337  0.2096  0.7600 -0.1754
 5846SOL     OW23149   4.765   1.665   1.060  0.3896  0.0401 -0.3894
 5846SOL    HW223150   4.822   1.726   1.108  1.9057 -2.4176  1.1282
 5846SOL    HW323151   4.717   1.721   0.999  0.8773  2.9039  1.6292
 5846SOL    MW423152   4.766   1.681   1.059 -0.2471 -0.4244 -0.7270
 5847SOL     OW23153   2.925   4.110   0.055  0.0647  0.0013  0.5915
 5847SOL    HW223154   2.897   4.189   0.008 -0.7101 -0.2209  0.6749
 5847SOL    HW323155   2.844   4.065   0.077  0.5169 -1.3185 -0.2973
 5847SOL    MW423156   2.910   4.114   0.051 -0.5979 -0.3755 -0.2831
 5848SOL     OW23157   0.358   5.251   5.848 -0.0860  0.4172 -0.3710
 5848SOL    HW223158   0.431   5.272   5.906 -0.8778  1.8260  0.1745
 5848SOL    HW323159   0.333   5.335   5.809 -0.0097 -0.3992 -2.2548
 5848SOL    MW423160   0.364   5.265   5.851 -0.4652  0.1457 -0.0021
 5849SOL     OW23161   0.516   0.408   0.273  0.0612 -0.1363  0.0411
 5849SOL    HW223162   0.579   0.403   0.201 -0.8292  0.9216 -0.8448
 5849SOL    HW323163   0.439   0.450   0.235 -0.6428 -0.0586  1.4762
 5849SOL    MW423164   0.515   0.413   0.258  0.4334  0.2469 -0.0169
 5850SOL     OW23165   0.268   0.741   6.297  0.3002  0.2332 -0.1108
 5850SOL    HW223166   0.317   0.820   6.320  0.1502  0.0045  1.0574
 5850SOL    HW323167   0.334   0.673   6.288  0.6413  0.8301 -2.9640
 5850SOL    MW423168   0.283   0.743   6.299  0.2264  0.4944 -0.5244
 5851SOL     OW23169   1.233   1.133   5.544  0.3040 -0.2113  0.3269
 5851SOL    HW223170   1.222   1.226   5.525 -0.0066  0.1206  1.9613
 5851SOL    HW323171   1.258   1.131   5.637  1.5750 -1.6933 -0.0103
 5851SOL    MW423172   1.235   1.145   5.554 -0.1590  0.2695  0.3035
 5852SOL     OW23173   0.948   6.168   0.289  0.3982  0.0480 -0.4045
 5852SOL    HW223174   1.026   6.147   0.238  0.0271  1.8669 -1.8605
 5852SOL    HW323175   0.885   6.100   0.266  0.7077  0.0516 -1.3110
 5852SOL    MW423176   0.950   6.156   0.279 -0.4083 -0.0124  0.6000
 5853SOL     OW23177   1.346   1.451   4.370 -0.3667  0.4788 -0.1812
 5853SOL    HW223178   1.309   1.434   4.284  2.0663 -2.3100 -0.8678
 5853SOL    HW323179   1.325   1.373   4.421 -0.3735  1.3763  1.2419
 5853SOL    MW423180   1.339   1.438   4.366  0.2351  0.6349 -0.1205
 5854SOL     OW23181   4.308   0.464   3.927  0.1815  0.0281  0.5645
 5854SOL    HW223182   4.294   0.549   3.969  1.6035 -0.2373  1.6544
 5854SOL    HW323183   4.295   0.481   3.834 -1.1465  1.0715  0.9068
 5854SOL    MW423184   4.304   0.478   3.920  0.4455  0.6628 -0.1595
 5855SOL     OW23185   5.267   1.270   4.046  0.3042 -0.3464 -0.1975
 5855SOL    HW223186   5.327   1.237   4.113 -0.3358 -1.8785 -0.3249
 5855SOL    HW323187   5.239   1.356   4.077  2.8501  0.6046 -0.3362
 5855SOL    MW423188   5.271   1.277   4.059 -0.1530 -0.0163  0.5230
 5856SOL     OW23189   2.468   0.132   2.502  0.0807 -0.1099 -0.1489
 5856SOL    HW223190   2.429   0.059   2.550 -0.6410 -0.1793 -0.8366
 5856SOL    HW323191   2.435   0.124   2.413  0.0927  0.9845 -0.2679
 5856SOL    MW423192   2.459   0.121   2.497  0.2365  0.2600  0.1816
 5857SOL     OW23193   0.889   4.209   3.156  0.2420  0.0735 -0.0372
 5857SOL    HW223194   0.857   4.158   3.231  0.4715  0.8009  0.5665
 5857SOL    HW323195   0.836   4.289   3.157  0.0792 -0.0163 -0.8030
 5857SOL    MW423196   0.877   4.213   3.166 -0.2913 -0.3996  0.1136
 5858SOL     OW23197   4.523   1.194   4.228 -0.2902  0.1057 -0.2877
 5858SOL    HW223198   4.534   1.253   4.303  2.4167  0.1228 -0.5892
 5858SOL    HW323199   4.526   1.253   4.152  2.2791 -0.2687 -0.5818
 5858SOL    MW423200   4.525   1.210   4.228 -0.6928  0.8124  0.0370
 5859SOL     OW23201   1.336   4.826   3.796 -0.2830 -0.7070  0.6167
 5859SOL    HW223202   1.267   4.770   3.832 -1.6109  2.3257  3.1890
 5859SOL    HW323203   1.289   4.897   3.753  1.2634  0.3124  0.5453
 5859SOL    MW423204   1.321   4.828   3.795  0.2156 -0.1772 -0.1506
 5860SOL     OW23205   5.890   5.837   2.119  0.1285 -0.3745  0.2675
 5860SOL    HW223206   5.857   5.839   2.029 -0.8772 -0.7944  0.6066
 5860SOL    HW323207   5.978   5.801   2.112 -0.3928 -1.5525 -0.4297
 5860SOL    MW423208   5.897   5.833   2.106 -0.7076  0.0341  0.2664
 5861SOL     OW23209   1.006   5.103   2.312  0.0058  0.4328 -0.3342
 5861SOL    HW223210   1.085   5.099   2.259  0.6047 -1.1298  0.5876
 5861SOL    HW323211   1.030   5.059   2.394 -1.9871 -0.6804 -0.2801
 5861SOL    MW423212   1.020   5.097   2.316  0.5186 -0.0769  0.5424
 5862SOL     OW23213   2.630   1.901   0.293 -0.2974 -0.5052 -0.5991
 5862SOL    HW223214   2.697   1.933   0.354 -1.7100  1.3724  0.0912
 5862SOL    HW323215   2.576   1.842   0.346 -0.8180  0.1944 -0.3269
 5862SOL    MW423216   2.631   1.897   0.308  0.6649 -0.5060  0.8715
 5863SOL     OW23217   1.297   4.388   4.467  0.2587  0.7770 -0.5095
 5863SOL    HW223218   1.284   4.293   4.475 -0.9230  1.0312  0.8554
 5863SOL    HW323219   1.263   4.410   4.380  2.2135 -0.2830 -1.6233
 5863SOL    MW423220   1.291   4.378   4.457 -0.3037 -0.4140  0.1334
 5864SOL     OW23221   0.863   1.991   1.995 -0.1204  0.5306  0.4350
 5864SOL    HW223222   0.803   1.932   1.951 -0.9123  1.6878 -0.0767
 5864SOL    HW323223   0.884   1.947   2.077 -0.8030 -0.3882  0.1267
 5864SOL    MW423224   0.858   1.977   2.000  0.0668  0.3783  0.6098
 5865SOL     OW23225   1.106   3.990   1.779  0.1025 -0.0931 -0.3786
 5865SOL    HW223226   1.064   3.961   1.860  0.5708  0.6903  0.1502
 5865SOL    HW323227   1.182   4.041   1.808 -0.1200  0.7850 -1.2997
 5865SOL    MW423228   1.110   3.993   1.794  0.4088  0.0641 -1.0081
 5866SOL     OW23229   5.539   3.941   4.635 -0.1656 -0.2064  0.5408
 5866SOL    HW223230   5.543   3.851   4.603  4.2616 -0.5615  1.4023
 5866SOL    HW323231   5.512   3.934   4.726  2.8911 -1.1604  1.4866
 5866SOL    MW423232   5.536   3.928   4.643  0.8169 -0.1824 -0.0084
 5867SOL     OW23233   3.508   3.026   3.922 -0.5441 -0.1678 -0.2916
 5867SOL    HW223234   3.465   3.024   4.007  0.0565 -0.0603  0.0200
 5867SOL    HW323235   3.448   2.980   3.864 -1.1960  0.1955  0.0752
 5867SOL    MW423236   3.495   3.020   3.925  0.0379  0.2812 -0.5133
 5868SOL     OW23237   0.543   0.261   1.535  0.2852  0.0773  0.7409
 5868SOL    HW223238   0.511   0.334   1.483  2.1000  0.2202 -0.2577
 5868SOL    HW323239   0.477   0.192   1.523 -0.0678  0.6143 -0.5610
 5868SOL    MW423240   0.530   0.262   1.527  0.0190  0.1495 -0.0531
 5869SOL     OW23241   1.764   4.873   0.581  0.3070 -0.1700  0.1448
 5869SOL    HW223242   1.767   4.964   0.550  0.2863 -0.0958  0.3565
 5869SOL    HW323243   1.684   4.869   0.634  0.3186 -0.3067  0.1524
 5869SOL    MW423244   1.754   4.885   0.584  0.4683  0.1551  0.0948
 5870SOL     OW23245   4.838   4.417   2.689  0.6244 -1.0119 -0.0470
 5870SOL    HW223246   4.919   4.399   2.642 -0.5850 -1.1858 -2.1537
 5870SOL    HW323247   4.782   4.461   2.626  0.1042  1.9215  2.2180
 5870SOL    MW423248   4.842   4.421   2.675 -0.5019  0.3130 -0.1613
 5871SOL     OW23249   4.844   2.926   2.762 -0.0967  0.0792 -0.3426
 5871SOL    HW223250   4.908   2.937   2.833 -3.3327  0.1129  2.8843
 5871SOL    HW323251   4.816   2.834   2.769 -0.9223  0.2559 -1.1307
 5871SOL    MW423252   4.849   2.915   2.772 -0.1730 -0.6225 -0.6718
 5872SOL     OW23253   2.009   5.937   1.142  0.4025 -0.1624  0.1609
 5872SOL    HW223254   1.970   5.861   1.186  1.4266 -0.5206  0.4961
 5872SOL    HW323255   2.062   5.899   1.072  0.5940  0.2708  0.0673
 5872SOL    MW423256   2.011   5.922   1.139  1.0226 -0.4468  0.5300
 5873SOL     OW23257   0.833   1.984   0.812 -0.2968 -0.0142  0.4261
 5873SOL    HW223258   0.901   2.022   0.868  0.1392 -0.5315  0.2530
 5873SOL    HW323259   0.845   2.026   0.727 -2.8504  3.1036  1.3446
 5873SOL    MW423260   0.843   1.995   0.808  0.3082 -0.3474  0.7050
 5874SOL     OW23261   1.591   3.148   0.178  0.2654 -0.2612 -0.2314
 5874SOL    HW223262   1.630   3.224   0.221  0.7151 -1.5032  1.7062
 5874SOL    HW323263   1.664   3.086   0.168 -0.9042 -2.4503  3.0194
 5874SOL    MW423264   1.606   3.150   0.182 -0.9074 -0.1758 -0.0095
 5875SOL     OW23265   1.311   0.245   3.741  0.1250  0.0877  0.2706
 5875SOL    HW223266   1.320   0.169   3.684  0.4026  0.2736  0.0659
 5875SOL    HW323267   1.385   0.301   3.718 -0.5760  0.8367 -0.2253
 5875SOL    MW423268   1.322   0.242   3.730  0.2348 -0.7152  0.6553
 5876SOL     OW23269   4.929   2.345   3.476  0.4323  0.0961  0.0593
 5876SOL    HW223270   4.864   2.414   3.463  0.3526  0.2353  1.0915
 5876SOL    HW323271   5.000   2.368   3.416 -0.5061 -0.1216 -1.1566
 5876SOL    MW423272   4.930   2.357   3.467  0.0939 -0.0838 -0.4179
 5877SOL     OW23273   4.816   4.342   3.870  0.2224 -0.2819 -0.0778
 5877SOL    HW223274   4.796   4.419   3.816  2.5762 -0.0129 -0.6613
 5877SOL    HW323275   4.819   4.376   3.960 -0.3035 -0.0253 -0.1540
 5877SOL    MW423276   4.814   4.357   3.875 -0.1450 -0.5971  0.6838
 5878SOL     OW23277   1.746   0.344   0.513 -0.2252  0.1015 -0.2305
 5878SOL    HW223278   1.800   0.298   0.577 -0.4544  0.6211  0.3500
 5878SOL    HW323279   1.803   0.413   0.480  0.3884 -1.0504 -1.6894
 5878SOL    MW423280   1.761   0.347   0.517  0.8840 -0.2387 -0.0647
 5879SOL     OW23281   4.735   0.066   6.011  0.9999 -0.0988  0.3300
 5879SOL    HW223282   4.736  -0.022   5.974  2.5408  0.4679 -1.1505
 5879SOL    HW323283   4.672   0.114   5.957  1.4439  0.1131 -0.0140
 5879SOL    MW423284   4.727   0.061   5.999  0.1712  0.4403  0.4365
 5880SOL     OW23285   3.224   1.356   4.864  0.1504  0.0042  0.3727
 5880SOL    HW223286   3.161   1.299   4.908 -0.1367  0.0465  0.0228
 5880SOL    HW323287   3.304   1.347   4.915  0.4649 -1.6307 -0.3524
 5880SOL    MW423288   3.226   1.347   4.877  0.0048 -0.3495 -0.7919
 5881SOL     OW23289   5.793   3.152   3.062  0.6349 -0.1516  0.2919
 5881SOL    HW223290   5.839   3.235   3.047 -0.0341  0.0767 -0.5921
 5881SOL    HW323291   5.702   3.177   3.075  0.4765 -0.7285  0.3167
 5881SOL    MW423292   5.787   3.166   3.062 -0.0310  0.2347  0.0247
 5882SOL     OW23293   0.654   4.635   1.491  0.3803 -0.3874 -0.4181
 5882SOL    HW223294   0.712   4.559   1.502  0.4680 -0.2705 -0.0716
 5882SOL    HW323295   0.623   4.628   1.401  1.1031 -0.3354 -0.6805
 5882SOL    MW423296   0.658   4.624   1.481 -0.4835 -0.5475 -0.6514
 5883SOL     OW23297   4.634   4.590   2.552 -0.4181  0.2393 -0.1082
 5883SOL    HW223298   4.689   4.656   2.510 -0.0270 -0.2885 -0.4548
 5883SOL    HW323299   4.595   4.634   2.627  0.0965  0.7667 -0.1448
 5883SOL    MW423300   4.636   4.604   2.556  0.0255  0.3624 -0.4532
 5884SOL     OW23301   1.961   4.613   3.535 -0.1351  0.1795 -0.3002
 5884SOL    HW223302   1.930   4.641   3.621  1.4684 -0.0107  0.3630
 5884SOL    HW323303   2.026   4.680   3.510  0.0103 -0.2092 -0.9933
 5884SOL    MW423304   1.966   4.626   3.543  0.3962  0.2657 -0.1260
 5885SOL     OW23305   4.751   0.413   1.963 -0.0246  0.3629 -0.0732
 5885SOL    HW223306   4.773   0.472   1.891 -1.4257  1.5083  0.3904
 5885SOL    HW323307   4.703   0.468   2.025  0.1428 -0.8759  1.2025
 5885SOL    MW423308   4.748   0.428   1.962 -0.4908  0.1076 -0.0913
 5886SOL     OW23309   4.319   3.917   3.446  0.5072 -0.2513  0.4688
 5886SOL    HW223310   4.279   3.884   3.366 -0.1792 -0.8343  1.0375
 5886SOL    HW323311   4.245   3.939   3.502  0.9608  1.3053  0.5036
 5886SOL    MW423312   4.304   3.916   3.443 -0.4838  0.2025 -0.0287
 5887SOL     OW23313   0.266   4.810   2.778 -0.7698  0.1011 -0.0156
 5887SOL    HW223314   0.217   4.783   2.700  0.8732  1.1175 -1.4533
 5887SOL    HW323315   0.288   4.901   2.762 -0.7913  0.4892  1.8947
 5887SOL    MW423316   0.262   4.818   2.766  0.2986 -0.1208 -0.4058
 5888SOL     OW23317   0.887   4.746   5.239 -0.1485 -0.7886 -0.4741
 5888SOL    HW223318   0.973   4.703   5.239  0.6079  0.6723 -0.3977
 5888SOL    HW323319   0.876   4.778   5.328 -0.4535 -0.3314 -0.6754
 5888SOL    MW423320   0.897   4.744   5.251  0.1014  0.3006 -0.0498
 5889SOL     OW23321   5.275   6.290   0.142  0.3249  0.0778 -0.0251
 5889SOL    HW223322   5.184   6.315   0.158  0.4523  1.2137 -0.8952
 5889SOL    HW323323   5.269   6.214   0.085 -0.0940  0.5937 -0.6881
 5889SOL    MW423324   5.262   6.284   0.137 -0.4378  0.9586 -0.2690
 5890SOL     OW23325   1.500   5.243   4.178  0.1660  0.3020  0.0822
 5890SOL    HW223326   1.530   5.153   4.166 -1.4550 -0.6587  2.5554
 5890SOL    HW323327   1.489   5.277   4.089  2.2651 -1.3806 -0.9129
 5890SOL    MW423328   1.503   5.236   4.164  0.1172  0.2647  0.3586
 5891SOL     OW23329   4.242   3.072   5.360  0.0038 -0.3287 -0.3983
 5891SOL    HW223330   4.250   3.165   5.339 -3.2829  0.4363  1.1755
 5891SOL    HW323331   4.210   3.070   5.450  0.7723 -3.0670 -0.0941
 5891SOL    MW423332   4.239   3.084   5.369 -0.6636  0.4521 -0.1468
 5892SOL     OW23333   3.229   1.403   3.630  0.4950  0.0036 -0.0762
 5892SOL    HW223334   3.206   1.408   3.537 -0.2634  2.2740  0.1864
 5892SOL    HW323335   3.165   1.343   3.667  0.9363 -1.1001 -1.0195
 5892SOL    MW423336   3.218   1.395   3.622 -0.0126 -0.0911  0.4626
 5893SOL     OW23337   1.446   2.441   4.446 -0.0454 -0.0649 -0.2908
 5893SOL    HW223338   1.530   2.424   4.402  0.3125  0.2984  0.2437
 5893SOL    HW323339   1.428   2.361   4.495  0.2522  0.0454  0.0061
 5893SOL    MW423340   1.455   2.428   4.446  0.0962 -0.1494  0.4027
 5894SOL     OW23341   5.611   2.911   5.261  0.1477  0.3836  0.3916
 5894SOL    HW223342   5.527   2.880   5.297 -1.0245  1.8003 -1.0169
 5894SOL    HW323343   5.668   2.918   5.338 -0.4080 -2.2799  1.1788
 5894SOL    MW423344   5.607   2.908   5.276  0.1703  0.3547 -0.1789
 5895SOL     OW23345   5.741   4.917   5.184  0.8512 -0.7527 -0.0020
 5895SOL    HW223346   5.728   4.969   5.263 -2.5855  0.9211 -1.4787
 5895SOL    HW323347   5.815   4.958   5.140  0.4234  0.7054  0.5760
 5895SOL    MW423348   5.749   4.929   5.188  0.0666  1.1392  0.2796
 5896SOL     OW23349   5.100   3.894   5.093  0.5574  0.1882 -0.6799
 5896SOL    HW223350   5.056   3.971   5.127  0.1882 -0.2337 -0.1829
 5896SOL    HW323351   5.079   3.894   4.999  0.1047  0.3888 -0.5809
 5896SOL    MW423352   5.091   3.904   5.085  0.1825  0.0728  0.5903
 5897SOL     OW23353   4.818   3.752   2.471 -0.0533 -0.2877 -0.6047
 5897SOL    HW223354   4.766   3.674   2.489  0.5083 -0.8398 -1.3233
 5897SOL    HW323355   4.823   3.797   2.555 -0.5734 -0.9093 -0.2337
 5897SOL    MW423356   4.812   3.748   2.485 -0.1640  0.1950 -0.4401
 5898SOL     OW23357   1.637   0.478   6.107 -0.1217  0.3708  0.2511
 5898SOL    HW223358   1.676   0.493   6.021 -0.0999  2.5412  0.5886
 5898SOL    HW323359   1.550   0.518   6.101 -0.3700 -0.0320  1.0454
 5898SOL    MW423360   1.631   0.485   6.095 -0.1076  0.1788  0.8052
 5899SOL     OW23361   0.818   3.389   6.178  0.2987  1.1837  0.4007
 5899SOL    HW223362   0.732   3.420   6.151  0.9712  2.2600 -0.5542
 5899SOL    HW323363   0.838   3.439   6.257  1.0436  2.6805 -0.6991
 5899SOL    MW423364   0.810   3.400   6.185  0.3433 -0.6599 -0.2822
 5900SOL     OW23365   4.869   4.680   2.806 -0.2975  0.2469  0.2650
 5900SOL    HW223366   4.860   4.592   2.769 -0.3772  0.2128  0.3620
 5900SOL    HW323367   4.846   4.668   2.899 -2.3535  0.7435 -0.1374
 5900SOL    MW423368   4.865   4.667   2.813  0.0278 -0.2457 -0.6449
 5901SOL     OW23369   2.192   5.606   5.696  0.2814  0.2067 -0.3929
 5901SOL    HW223370   2.167   5.521   5.732 -0.7605 -0.2525 -2.1374
 5901SOL    HW323371   2.223   5.587   5.608 -0.0769  1.6569 -0.8493
 5901SOL    MW423372   2.193   5.592   5.689 -0.3974 -0.3619 -0.0326
 5902SOL     OW23373   1.287   2.637   4.363  0.9117 -0.3489 -0.3007
 5902SOL    HW223374   1.242   2.664   4.442 -0.8565 -1.0977 -1.0104
 5902SOL    HW323375   1.329   2.554   4.386  0.6694 -0.4001 -0.0472
 5902SOL    MW423376   1.287   2.630   4.376 -0.2859 -0.5910 -0.4539
 5903SOL     OW23377   1.456   3.566   2.499  0.0620 -0.1737 -0.3566
 5903SOL    HW223378   1.544   3.531   2.513 -0.2167 -1.9617 -2.5206
 5903SOL    HW323379   1.467   3.661   2.500  1.7921 -0.3553  0.5796
 5903SOL    MW423380   1.469   3.573   2.501  0.3670 -0.2912  0.1640
 5904SOL     OW23381   3.706   1.848   0.588  0.4576 -0.5211  0.1506
 5904SOL    HW223382   3.742   1.786   0.651  2.7585 -0.2223 -0.7747
 5904SOL    HW323383   3.770   1.919   0.584 -0.9651  0.7884 -0.5534
 5904SOL    MW423384   3.719   1.849   0.595 -0.4387 -0.3765 -0.1985
 5905SOL     OW23385   1.266   1.880   2.714  0.6814  0.6503 -0.1714
 5905SOL    HW223386   1.315   1.813   2.761  0.9733  1.0312  0.0698
 5905SOL    HW323387   1.180   1.881   2.757  0.0940 -0.7079 -1.2231
 5905SOL    MW423388   1.261   1.871   2.726 -0.5108 -0.1183  0.5026
 5906SOL     OW23389   2.216   0.402   0.280 -0.1292 -0.6098  0.5353
 5906SOL    HW223390   2.166   0.334   0.327 -1.5220  0.3862  0.5464
 5906SOL    HW323391   2.155   0.436   0.215  0.2386  1.2134  1.0816
 5906SOL    MW423392   2.201   0.397   0.278  0.2839 -0.0423 -0.5240
 5907SOL     OW23393   2.072   3.656   0.318 -0.5862 -0.0346 -0.1072
 5907SOL    HW223394   2.139   3.659   0.250  0.2894 -0.9321  0.6703
 5907SOL    HW323395   2.107   3.710   0.389 -0.2750 -1.1421  0.6216
 5907SOL    MW423396   2.085   3.663   0.319 -0.1892 -0.0240 -0.1948
 5908SOL     OW23397   1.939   1.395   0.700 -0.1978 -0.0257  0.0571
 5908SOL    HW223398   1.954   1.396   0.605  1.6436  2.1209  0.2889
 5908SOL    HW323399   1.844   1.401   0.709 -0.6881 -2.9324 -1.5730
 5908SOL    MW423400   1.928   1.396   0.688  0.0374  0.7120 -0.0320
 5909SOL     OW23401   5.616   6.149   0.165  0.4360  0.2328 -0.4562
 5909SOL    HW223402   5.664   6.080   0.212  0.3444  0.2594 -0.3226
 5909SOL    HW323403   5.610   6.220   0.229  0.2640  0.2492 -0.4927
 5909SOL    MW423404   5.622   6.149   0.180  0.0879 -1.0506  0.1688
 5910SOL     OW23405   3.601   0.671   4.311  0.4575  0.1927 -0.1439
 5910SOL    HW223406   3.694   0.672   4.288  0.2842 -0.1749 -0.8660
 5910SOL    HW323407   3.599   0.632   4.399  0.9684  0.0064 -0.2091
 5910SOL    MW423408   3.613   0.666   4.320  0.2762 -0.1260 -1.1959
 5911SOL     OW23409   3.587   4.671   4.350  0.0428 -0.3872 -0.0332
 5911SOL    HW223410   3.666   4.706   4.390 -1.6288  0.3640  2.9210
 5911SOL    HW323411   3.607   4.579   4.334  1.3686 -0.3242  1.0708
 5911SOL    MW423412   3.600   4.664   4.353  0.1363  0.2875 -0.0403
 5912SOL     OW23413   1.301   2.435   5.690 -0.0422  0.3768  0.0226
 5912SOL    HW223414   1.385   2.478   5.673  0.8593 -1.1943  0.3082
 5912SOL    HW323415   1.288   2.378   5.614 -0.7685  0.4711  0.0676
 5912SOL    MW423416   1.311   2.433   5.677  0.1177  0.0189  0.3820
 5913SOL     OW23417   5.935   0.251   5.592  0.0161 -0.0533  0.2184
 5913SOL    HW223418   6.013   0.272   5.643  0.6445 -0.5523 -0.4981
 5913SOL    HW323419   5.960   0.270   5.501 -1.2013  1.1858  0.1175
 5913SOL    MW423420   5.948   0.256   5.586  0.4320  0.6863 -0.0358
 5914SOL     OW23421   3.277   2.780   6.035  0.2640 -0.1456  0.2967
 5914SOL    HW223422   3.217   2.708   6.058  0.4033 -0.1982  0.4964
 5914SOL    HW323423   3.220   2.847   5.998  0.2899 -0.8828 -1.1545
 5914SOL    MW423424   3.261   2.779   6.033 -0.2307 -0.5128 -0.2467
 5915SOL     OW23425   5.316   4.151   0.086  0.1504 -0.0635  0.3017
 5915SOL    HW223426   5.258   4.076   0.079  0.3058 -0.2169  0.6306
 5915SOL    HW323427   5.369   4.133   0.164  1.7575 -0.6911 -0.8940
 5915SOL    MW423428   5.315   4.139   0.096 -0.0965  0.5082  0.3296
 5916SOL     OW23429   1.558   1.907   2.070  0.2035 -0.0830 -0.1849
 5916SOL    HW223430   1.493   1.977   2.067  0.5741  0.2677 -0.0397
 5916SOL    HW323431   1.568   1.880   1.978 -0.1606 -0.1553 -0.2051
 5916SOL    MW423432   1.550   1.913   2.057 -0.2682  0.1305 -0.8010
 5917SOL     OW23433   0.708   5.502   0.040 -0.4352 -0.0628  0.3017
 5917SOL    HW223434   0.712   5.536   0.130  0.2996 -2.3447  1.2028
 5917SOL    HW323435   0.735   5.411   0.048 -0.7205 -0.4289 -2.2166
 5917SOL    MW423436   0.712   5.494   0.053 -0.3524 -0.0493 -0.0806
 5918SOL     OW23437   5.030   5.938   3.775 -0.5551 -0.5883 -0.9030
 5918SOL    HW223438   4.948   5.921   3.729 -0.6546  0.0936 -0.9785
 5918SOL    HW323439   5.003   5.982   3.856 -0.2391 -0.0573 -1.0843
 5918SOL    MW423440   5.016   5.941   3.780 -0.1748  0.3701  0.6122
 5919SOL     OW23441   6.040   1.756   6.054 -0.6203 -0.4470  0.1104
 5919SOL    HW223442   5.977   1.812   6.100 -1.2900  0.3220 -1.6395
 5919SOL    HW323443   5.996   1.671   6.045 -0.7205 -0.4206  0.3649
 5919SOL    MW423444   6.026   1.752   6.059 -0.4049 -0.2406 -0.3824
 5920SOL     OW23445   1.759   1.526   1.356 -0.4074  0.1324 -0.3371
 5920SOL    HW223446   1.844   1.513   1.400 -1.0120 -0.3893  0.7148
 5920SOL    HW323447   1.727   1.437   1.339 -0.1480  0.3281 -1.9534
 5920SOL    MW423448   1.766   1.512   1.360 -0.6927  0.2805  0.5054
 5921SOL     OW23449   2.907   4.374   6.348  0.1138  0.3148 -0.1057
 5921SOL    HW223450   2.903   4.434   6.423  0.5750 -0.5947  0.6761
 5921SOL    HW323451   2.969   4.414   6.288  3.0823 -0.9416  1.9130
 5921SOL    MW423452   2.915   4.387   6.350 -0.0468  0.5799  0.2139
 5922SOL     OW23453   2.862   0.289   5.069  0.0390 -0.5285  0.4307
 5922SOL    HW223454   2.859   0.369   5.122  0.2638 -0.0457 -0.2616
 5922SOL    HW323455   2.943   0.245   5.096 -0.2360 -0.6795  1.0258
 5922SOL    MW423456   2.872   0.294   5.079 -0.4609  0.3287  0.3478
 5923SOL     OW23457   3.757   2.955   1.275  0.0742  0.4603 -0.0408
 5923SOL    HW223458   3.809   2.993   1.345 -0.4466  1.9005 -0.3878
 5923SOL    HW323459   3.680   3.012   1.269 -0.7944 -0.7266 -0.5461
 5923SOL    MW423460   3.753   2.968   1.283  0.4067 -0.1584 -0.1245
 5924SOL     OW23461   5.187   1.861   5.652 -0.1850 -0.1246 -0.5420
 5924SOL    HW223462   5.117   1.926   5.658  0.0648  0.2782 -1.6570
 5924SOL    HW323463   5.156   1.787   5.703 -1.4373  0.0524 -1.0132
 5924SOL    MW423464   5.174   1.860   5.659 -0.0365  0.1124  0.5970
 5925SOL     OW23465   0.443   6.150   1.745 -0.6766 -0.6337  0.0689
 5925SOL    HW223466   0.499   6.175   1.672 -0.1297 -0.9739  0.3640
 5925SOL    HW323467   0.464   6.211   1.815  1.2247 -2.3010  1.0551
 5925SOL    MW423468   0.453   6.161   1.745 -0.8654 -0.1272 -0.0360
 5926SOL     OW23469   3.498   3.036   0.125 -0.2943  0.0846 -0.1504
 5926SOL    HW223470   3.553   3.052   0.202 -1.7957  1.4450  0.7047
 5926SOL    HW323471   3.551   2.979   0.070  1.6964  0.7649  0.9235
 5926SOL    MW423472   3.512   3.031   0.128  0.4264 -0.1375  0.9544
 5927SOL     OW23473   4.178   4.611   0.811 -0.3296 -0.6096 -0.3460
 5927SOL    HW223474   4.195   4.554   0.736  0.0144  0.8408 -1.4184
 5927SOL    HW323475   4.091   4.648   0.794 -0.8998 -1.3924  0.7455
 5927SOL    MW423476   4.169   4.608   0.799  0.0531  0.0090 -0.1411
 5928SOL     OW23477   4.667   1.910   4.158  1.0730 -0.4961  0.6871
 5928SOL    HW223478   4.629   1.998   4.167 -1.2014 -1.2820 -0.4828
 5928SOL    HW323479   4.761   1.924   4.170  0.7928  2.0975  0.5543
 5928SOL    MW423480   4.675   1.924   4.161 -0.3551 -0.0250 -0.1984
 5929SOL     OW23481   3.587   2.668   4.975 -0.0886 -0.2618 -0.2169
 5929SOL    HW223482   3.499   2.635   4.991 -1.2661  2.1739 -1.1486
 5929SOL    HW323483   3.634   2.655   5.058 -1.6681 -0.5372  0.6627
 5929SOL    MW423484   3.582   2.662   4.988  0.2588  0.4847 -0.0541
 5930SOL     OW23485   4.442   2.517   2.829 -0.0365 -0.1026 -0.6002
 5930SOL    HW223486   4.430   2.542   2.920 -2.9546 -0.7861 -0.6782
 5930SOL    HW323487   4.442   2.421   2.830 -0.4182 -0.1232 -1.3146
 5930SOL    MW423488   4.440   2.508   2.841  0.1682 -0.0495  0.5082
 5931SOL     OW23489   5.980   4.560   5.013  0.7016 -0.5307 -0.1270
 5931SOL    HW223490   5.907   4.513   5.055  0.0176  0.8411  0.2814
 5931SOL    HW323491   6.041   4.578   5.084 -1.0977  3.0300  0.7758
 5931SOL    MW423492   5.978   4.556   5.027 -0.0585  0.3764 -0.5674
 5932SOL     OW23493   2.772   4.515   2.369 -0.3350  0.3776  0.3017
 5932SOL    HW223494   2.836   4.457   2.328 -1.1443  0.0327 -0.4973
 5932SOL    HW323495   2.720   4.549   2.296 -2.0861 -0.5819  1.0397
 5932SOL    MW423496   2.773   4.512   2.354 -0.2602 -0.0786  0.2117
 5933SOL     OW23497   0.211   2.842   0.600 -0.2554 -0.2212  0.1712
 5933SOL    HW223498   0.242   2.905   0.535 -1.1248 -1.7081 -1.8084
 5933SOL    HW323499   0.221   2.757   0.556 -2.0244 -1.1926  1.5316
 5933SOL    MW423500   0.217   2.839   0.586  0.0460  0.2288  0.2340
 5934SOL     OW23501   4.693   5.862   4.041  0.3670 -0.6901 -0.3171
 5934SOL    HW223502   4.676   5.926   4.110  0.0818 -0.5271 -0.5353
 5934SOL    HW323503   4.608   5.848   3.999  0.4813 -1.0041 -0.4502
 5934SOL    MW423504   4.679   5.869   4.044  0.3750 -0.5463 -0.2981
 5935SOL     OW23505   6.219   0.065   1.098  0.5068 -0.4075  0.2489
 5935SOL    HW223506   6.276  -0.010   1.114 -0.3982 -1.8604 -2.6338
 5935SOL    HW323507   6.154   0.062   1.169  1.2548 -1.5474  0.9101
 5935SOL    MW423508   6.218   0.055   1.110  0.2082  0.5520 -0.5303
 5936SOL     OW23509   4.627   0.931   4.998 -0.1439  0.1215 -0.4068
 5936SOL    HW223510   4.647   0.956   4.908  0.5409  0.9693 -0.0327
 5936SOL    HW323511   4.653   1.006   5.050  0.5978 -0.8069  0.6139
 5936SOL    MW423512   4.633   0.944   4.993  0.2502 -0.2063 -0.1741
 5937SOL     OW23513   5.470   4.910   2.392 -0.2282 -0.1519  0.9054
 5937SOL    HW223514   5.506   4.834   2.438 -2.4659 -1.1759  1.0670
 5937SOL    HW323515   5.391   4.933   2.441  0.1215  2.0316  0.5727
 5937SOL    MW423516   5.464   4.903   2.405 -0.3420 -0.6045 -0.0293
 5938SOL     OW23517   6.177   0.235   3.016  0.0676  0.0420 -0.5414
 5938SOL    HW223518   6.106   0.296   2.997 -1.0002 -1.2093 -0.6716
 5938SOL    HW323519   6.197   0.250   3.108  2.0685  2.8364 -1.2964
 5938SOL    MW423520   6.170   0.245   3.026 -0.0725 -0.5313 -0.2677
 5939SOL     OW23521   4.889   5.179   4.906 -0.3135 -0.3871  0.2275
 5939SOL    HW223522   4.902   5.089   4.874  0.0689 -0.4741  0.6180
 5939SOL    HW323523   4.956   5.230   4.861 -0.2432 -0.3774  0.3442
 5939SOL    MW423524   4.900   5.174   4.896  0.1710  0.3093 -0.6857
 5940SOL     OW23525   5.830   4.002   0.510 -0.5048  0.2145 -0.0439
 5940SOL    HW223526   5.848   3.937   0.579 -2.0410  0.1279  0.3054
 5940SOL    HW323527   5.903   3.992   0.449  1.0215  0.4488  1.6681
 5940SOL    MW423528   5.842   3.992   0.511 -0.2656  0.0226  0.5922
 5941SOL     OW23529   1.986   5.576   2.320 -0.2197 -0.5354  0.5843
 5941SOL    HW223530   1.943   5.611   2.243  0.4032  0.1013  0.5153
 5941SOL    HW323531   1.944   5.492   2.336 -0.5613 -0.5243 -0.2619
 5941SOL    MW423532   1.975   5.570   2.312 -0.0641 -0.4565  0.1260
 5942SOL     OW23533   4.694   6.035   0.721  0.3059  0.4615 -0.6605
 5942SOL    HW223534   4.610   5.996   0.698  1.1347 -0.1497 -2.9083
 5942SOL    HW323535   4.674   6.127   0.739 -1.1316 -0.1358  1.0555
 5942SOL    MW423536   4.681   6.042   0.720  0.0343 -0.3366  0.1848
 5943SOL     OW23537   1.483   2.316   2.461  0.0440  0.1161 -0.0200
 5943SOL    HW223538   1.422   2.267   2.516  0.2280  1.0913  1.0970
 5943SOL    HW323539   1.486   2.267   2.379 -1.9900 -0.1343  0.0027
 5943SOL    MW423540   1.475   2.303   2.458  0.4649  0.1003 -0.1199
 5944SOL     OW23541   2.032   4.959   2.030  0.4464 -0.2475  0.8618
 5944SOL    HW223542   2.075   4.933   1.948 -1.8347  0.0997 -0.5113
 5944SOL    HW323543   2.067   5.047   2.049 -0.3152  0.4307 -0.7421
 5944SOL    MW423544   2.042   4.967   2.022 -0.5661  0.2334  0.0433
 5945SOL     OW23545   4.426   5.291   4.004  0.4455  0.6205  0.4478
 5945SOL    HW223546   4.395   5.201   3.993  1.7809  0.2321 -0.4645
 5945SOL    HW323547   4.520   5.282   4.023  0.8168  1.8348 -0.6322
 5945SOL    MW423548   4.435   5.278   4.005 -0.4822 -1.3367  0.4397
 5946SOL     OW23549   4.166   5.893   5.185  0.2116  0.1687 -0.1045
 5946SOL    HW223550   4.237   5.880   5.248  0.1712  1.9080  0.3346
 5946SOL    HW323551   4.204   5.869   5.100  0.4862 -1.4898  0.4520
 5946SOL    MW423552   4.180   5.888   5.182 -0.0574  0.2160  0.0119
 5947SOL     OW23553   4.725   6.000   1.183  0.0305  0.0119  0.1226
 5947SOL    HW223554   4.794   5.985   1.248 -1.1492  0.0556  1.4498
 5947SOL    HW323555   4.664   5.927   1.196 -0.4993  0.3203 -0.5757
 5947SOL    MW423556   4.726   5.988   1.193 -0.6091 -0.4640  0.1823
 5948SOL     OW23557   0.777   3.461   0.509  0.4668  0.5801  0.5394
 5948SOL    HW223558   0.859   3.491   0.471 -0.0899  2.3326  0.6367
 5948SOL    HW323559   0.709   3.501   0.455 -0.3578 -0.8780  0.4275
 5948SOL    MW423560   0.779   3.470   0.497 -0.2297 -0.7704  0.2438
 5949SOL     OW23561   1.614   2.204   0.908  0.6905  0.4491 -0.1979
 5949SOL    HW223562   1.709   2.201   0.919  0.5787 -1.3478  0.5848
 5949SOL    HW323563   1.593   2.297   0.914  2.4862  0.9978 -1.3613
 5949SOL    MW423564   1.624   2.216   0.910 -0.2637 -0.2058  0.1723
 5950SOL     OW23565   2.951   0.253   2.819 -0.3880 -0.1666  0.0220
 5950SOL    HW223566   3.043   0.258   2.794 -0.4697  1.5775 -0.0562
 5950SOL    HW323567   2.908   0.323   2.770 -1.6901 -0.6919  0.3586
 5950SOL    MW423568   2.957   0.263   2.809  0.1123 -0.4010  0.2212
 5951SOL     OW23569   0.166   0.510   2.276  0.1747  0.4753 -0.0627
 5951SOL    HW223570   0.093   0.451   2.296 -0.9802  1.4470 -1.2061
 5951SOL    HW323571   0.218   0.512   2.357 -1.9269  0.9643  1.3617
 5951SOL    MW423572   0.163   0.503   2.290 -0.0658  0.3217 -0.7543
 5952SOL     OW23573   5.244   0.521   1.356 -0.1584  0.2365 -0.3996
 5952SOL    HW223574   5.211   0.442   1.398 -0.3840  0.9061  0.7413
 5952SOL    HW323575   5.173   0.585   1.366  0.4377  0.9015 -0.3167
 5952SOL    MW423576   5.230   0.519   1.363  0.6326  0.1350 -0.1037
 5953SOL     OW23577   4.880   0.454   5.354  0.3906 -0.4206 -0.1333
 5953SOL    HW223578   4.879   0.399   5.433  1.6704  0.4087  0.4859
 5953SOL    HW323579   4.947   0.414   5.298 -0.5358 -1.0242 -0.8286
 5953SOL    MW423580   4.889   0.441   5.357 -0.2731  0.5373  0.3725
 5954SOL     OW23581   0.742   1.494   5.471  0.1113 -0.5787 -0.4035
 5954SOL    HW223582   0.653   1.530   5.472  0.6536  0.8199  0.1187
 5954SOL    HW323583   0.778   1.516   5.556  1.0850 -0.8363 -0.7311
 5954SOL    MW423584   0.735   1.501   5.482 -0.6518  0.2918  0.3050
 5955SOL     OW23585   5.795   1.233   0.301 -0.0544  0.3030 -0.0474
 5955SOL    HW223586   5.871   1.176   0.305 -0.7831 -0.6817  0.0690
 5955SOL    HW323587   5.766   1.228   0.210 -0.7554 -0.3866  0.2001
 5955SOL    MW423588   5.801   1.225   0.290 -0.3308 -0.0873  0.1034
 5956SOL     OW23589   4.169   1.806   1.570  0.9342  0.4147  0.4019
 5956SOL    HW223590   4.174   1.718   1.534  0.5768 -0.0048  1.3472
 5956SOL    HW323591   4.105   1.851   1.514  1.5423  0.2545 -0.4304
 5956SOL    MW423592   4.161   1.801   1.558 -0.5129  0.3962 -0.3041
 5957SOL     OW23593   5.595   2.961   1.988  0.4974  0.4323 -0.0860
 5957SOL    HW223594   5.677   2.994   1.952  0.4105  0.5632 -0.1621
 5957SOL    HW323595   5.615   2.870   2.013  0.6214  0.4146 -0.2472
 5957SOL    MW423596   5.608   2.953   1.987  0.4469  0.2828 -0.1740
 5958SOL     OW23597   1.909   5.194   4.857 -0.4922  0.1554 -0.6875
 5958SOL    HW223598   1.870   5.233   4.779 -0.8731  1.8400  0.3025
 5958SOL    HW323599   1.870   5.241   4.930  1.3910  0.0546  0.4585
 5958SOL    MW423600   1.899   5.205   4.856 -0.0570 -0.1281  0.4803
 5959SOL     OW23601   0.173   0.678   5.510 -0.3099 -0.5617 -0.6734
 5959SOL    HW223602   0.081   0.659   5.490 -0.1590  0.0930 -2.0906
 5959SOL    HW323603   0.184   0.770   5.487  0.0819  0.1258  1.9171
 5959SOL    MW423604   0.162   0.688   5.504  0.0380 -0.0611 -0.6911
 5960SOL     OW23605   2.612   2.036   1.597  0.7398  0.1868  0.5969
 5960SOL    HW223606   2.529   1.999   1.568  0.6466  0.8231  0.0326
 5960SOL    HW323607   2.615   2.017   1.691  0.4276 -0.7246  0.4327
 5960SOL    MW423608   2.602   2.028   1.606  0.2782 -0.0968 -0.0972
 5961SOL     OW23609   5.724   1.633   4.365  0.1481  0.1468 -0.5110
 5961SOL    HW223610   5.705   1.725   4.346 -0.0049 -0.1888 -2.0723
 5961SOL    HW323611   5.799   1.612   4.310 -0.4484 -0.9331 -0.9359
 5961SOL    MW423612   5.731   1.643   4.355  0.2047 -0.3784  0.4945
 5962SOL     OW23613   4.393   4.685   1.651 -0.2172 -0.3634 -0.4133
 5962SOL    HW223614   4.465   4.718   1.598 -1.1117  0.2542 -1.2786
 5962SOL    HW323615   4.348   4.763   1.683 -0.9347 -0.7252 -0.5026
 5962SOL    MW423616   4.396   4.699   1.648 -0.7235 -0.0849 -0.5337
 5963SOL     OW23617   0.375   1.387   4.237 -0.3743  0.1327 -0.2049
 5963SOL    HW223618   0.387   1.419   4.148  0.0265 -0.9047 -0.5429
 5963SOL    HW323619   0.340   1.298   4.226  1.7645 -0.8869  0.5839
 5963SOL    MW423620   0.372   1.379   4.224  0.7067 -0.2033 -0.3144
 5964SOL     OW23621   2.424   5.456   3.995  0.0688  0.0277 -0.4006
 5964SOL    HW223622   2.469   5.534   4.028 -1.1660 -0.4257  2.7489
 5964SOL    HW323623   2.332   5.470   4.017 -0.6543 -1.0783 -2.4689
 5964SOL    MW423624   2.418   5.468   4.002 -0.0717 -0.4702  0.1138
 5965SOL     OW23625   2.070   1.904   3.318 -0.1762 -0.2358  0.7624
 5965SOL    HW223626   2.084   1.998   3.302  0.1925 -0.2502  1.0053
 5965SOL    HW323627   2.077   1.864   3.231 -3.3674  0.3150  0.1117
 5965SOL    MW423628   2.073   1.911   3.304  0.1989 -0.5733 -0.3952
 5966SOL     OW23629   4.387   2.873   0.831  0.2350  0.7439  0.4668
 5966SOL    HW223630   4.306   2.846   0.874 -0.6460  0.1760 -1.4371
 5966SOL    HW323631   4.378   2.843   0.741  3.1459 -0.5341  0.4697
 5966SOL    MW423632   4.375   2.865   0.825  0.5267 -0.1264 -0.1623
 5967SOL     OW23633   0.565   3.600   0.066 -0.4041 -0.1626 -0.3475
 5967SOL    HW223634   0.512   3.523   0.049 -1.6597  0.8911 -1.4819
 5967SOL    HW323635   0.546   3.659  -0.007  1.0417  0.9488  0.1136
 5967SOL    MW423636   0.556   3.598   0.054 -0.1317  0.5654  0.0610
 5968SOL     OW23637   4.492   3.072   6.347 -0.5132  0.4096  0.2299
 5968SOL    HW223638   4.432   3.069   6.272  0.8596 -0.0822 -0.8896
 5968SOL    HW323639   4.568   3.121   6.316 -0.8062  2.1704  2.0352
 5968SOL    MW423640   4.494   3.078   6.333 -0.0455 -0.2843 -0.3814
 5969SOL     OW23641   6.314   4.617   6.415 -0.1119 -0.3564  0.1484
 5969SOL    HW223642   6.331   4.634   6.508 -1.0982  1.9633 -0.0210
 5969SOL    HW323643   6.390   4.654   6.370  0.1235 -1.0251 -0.0179
 5969SOL    MW423644   6.327   4.624   6.422 -0.1726 -0.1556  0.5799
 5970SOL     OW23645   5.017   2.794   5.966 -0.0885  0.3493  0.4043
 5970SOL    HW223646   4.936   2.761   5.928 -1.2198  1.9668  1.3440
 5970SOL    HW323647   5.084   2.774   5.900 -1.2592 -0.8311 -0.4642
 5970SOL    MW423648   5.015   2.787   5.952  0.8266 -0.4945  0.1688
 5971SOL     OW23649   2.543   5.023   4.192  0.3194  0.2240 -0.1197
 5971SOL    HW223650   2.625   4.973   4.189  1.0263  1.3345 -0.0811
 5971SOL    HW323651   2.484   4.976   4.133  1.1674 -0.2790 -0.5891
 5971SOL    MW423652   2.546   5.010   4.184  0.2163 -0.0972 -0.3949
 5972SOL     OW23653   3.013   3.101   1.135  0.0167 -0.5753  0.1036
 5972SOL    HW223654   2.998   3.164   1.206  1.7749 -0.1827  0.1746
 5972SOL    HW323655   2.973   3.142   1.058 -0.1906 -0.0922  0.4614
 5972SOL    MW423656   3.006   3.115   1.134 -0.1347  0.0159  0.8651
 5973SOL     OW23657   0.425   3.508   3.830 -0.5215 -0.5572  0.5415
 5973SOL    HW223658   0.487   3.463   3.773  0.4527  1.7505 -0.3255
 5973SOL    HW323659   0.402   3.443   3.896  2.2702 -1.7157  0.4919
 5973SOL    MW423660   0.430   3.494   3.831 -0.2365 -0.6102  0.2936
 5974SOL     OW23661   3.179   2.070   0.532  0.2391 -0.4288 -0.7365
 5974SOL    HW223662   3.190   2.165   0.529 -2.4381 -0.0715 -2.4993
 5974SOL    HW323663   3.107   2.056   0.593  2.3502 -1.6662  1.6827
 5974SOL    MW423664   3.171   2.080   0.540  0.4152  0.1029  0.1317
 5975SOL     OW23665   2.089   3.944   4.504 -0.3752 -0.0776  0.3184
 5975SOL    HW223666   2.020   3.941   4.570 -0.6254  0.3826  0.0753
 5975SOL    HW323667   2.046   3.922   4.422 -0.3150  0.5925  0.1025
 5975SOL    MW423668   2.074   3.940   4.502  0.4031 -0.2877  0.8072
 5976SOL     OW23669   5.780   0.749   4.546  0.4444 -0.5806  0.1699
 5976SOL    HW223670   5.818   0.753   4.633  1.2499 -0.0874 -0.1900
 5976SOL    HW323671   5.710   0.684   4.553 -1.9869  1.9969  2.1025
 5976SOL    MW423672   5.776   0.741   4.558  0.3300  0.3922  0.0391
 5977SOL     OW23673   0.120   1.984   0.564 -0.1677 -0.2106 -0.0195
 5977SOL    HW223674   0.188   2.037   0.606  0.1512 -2.3121  2.3696
 5977SOL    HW323675   0.161   1.898   0.552 -1.7140 -0.9011 -0.6043
 5977SOL    MW423676   0.134   1.979   0.568  0.0268 -0.2112 -0.1585
 5978SOL     OW23677   4.484   2.830   4.867 -0.2692 -0.4852 -0.1259
 5978SOL    HW223678   4.421   2.758   4.865  0.1271 -0.9071  1.3176
 5978SOL    HW323679   4.564   2.792   4.903  0.6073  0.2032 -1.2924
 5978SOL    MW423680   4.486   2.816   4.872 -0.1854 -0.4559 -0.1742
 5979SOL     OW23681   6.360   6.045   1.445  0.2528  0.0670 -0.5153
 5979SOL    HW223682   6.430   5.986   1.418  1.5101  0.4240  1.7379
 5979SOL    HW323683   6.286   5.988   1.464  0.3615 -0.4412 -1.5425
 5979SOL    MW423684   6.359   6.030   1.444 -0.6635 -0.6912 -0.0841
 5980SOL     OW23685   3.651   0.824   0.138  0.2749  0.3647  0.6575
 5980SOL    HW223686   3.713   0.871   0.194 -0.4572  0.3096  1.5244
 5980SOL    HW323687   3.686   0.735   0.134 -0.3371  0.0414  2.0801
 5980SOL    MW423688   3.664   0.818   0.145 -0.3336  0.3466 -0.5095
 5981SOL     OW23689   5.848   1.416   3.525 -0.0536 -0.2077 -0.0479
 5981SOL    HW223690   5.755   1.415   3.547  0.3066  0.0427  1.6069
 5981SOL    HW323691   5.850   1.416   3.429 -1.7296 -1.3143 -0.1250
 5981SOL    MW423692   5.836   1.416   3.515  0.3546 -0.8082  0.4959
 5982SOL     OW23693   0.350   0.596   5.992 -0.4241  0.9072 -0.2764
 5982SOL    HW223694   0.379   0.547   5.915 -0.9625 -0.0231  0.0868
 5982SOL    HW323695   0.411   0.669   5.999  0.8991 -0.1606 -0.3747
 5982SOL    MW423696   0.362   0.599   5.983  0.2995  0.6674  0.2524
 5983SOL     OW23697   1.183   5.985   6.264 -0.1322 -0.1234 -0.2801
 5983SOL    HW223698   1.251   5.919   6.252  0.2580  0.4068 -1.0348
 5983SOL    HW323699   1.228   6.068   6.252 -0.1689  0.4257  2.6419
 5983SOL    MW423700   1.198   5.987   6.261  0.4400 -0.0949  0.2838
 5984SOL     OW23701   0.823   2.804   3.425  0.4608  0.8707 -0.2214
 5984SOL    HW223702   0.813   2.721   3.471 -2.2869  1.6619  0.8330
 5984SOL    HW323703   0.767   2.796   3.348  0.9629  1.4080 -0.6574
 5984SOL    MW423704   0.814   2.792   3.421 -0.1571 -0.0650  0.7884
 5985SOL     OW23705   4.590   2.986   2.666  0.0122  0.5013 -0.1389
 5985SOL    HW223706   4.614   3.003   2.575 -0.5392 -1.8501 -0.8057
 5985SOL    HW323707   4.669   2.948   2.705 -0.5942 -1.2946 -0.5441
 5985SOL    MW423708   4.604   2.983   2.659 -0.4428 -0.4496  0.1985
 5986SOL     OW23709   3.655   1.031   2.688  0.0263 -0.2541  0.0072
 5986SOL    HW223710   3.643   1.054   2.780 -1.2028  1.7060 -0.5840
 5986SOL    HW323711   3.737   1.072   2.663  0.8795 -1.6385  0.4522
 5986SOL    MW423712   3.664   1.039   2.697 -0.4352 -0.2027 -0.5006
 5987SOL     OW23713   4.459   6.174   5.443 -0.2261 -0.0347  0.1816
 5987SOL    HW223714   4.508   6.138   5.368 -0.3022  2.5569 -1.2391
 5987SOL    HW323715   4.374   6.199   5.406 -0.2591  1.3322  1.1199
 5987SOL    MW423716   4.454   6.172   5.428  0.2051 -0.4202 -0.5062
 5988SOL     OW23717   1.673   5.930   1.083  0.2172 -0.0748 -0.3051
 5988SOL    HW223718   1.590   5.884   1.096 -0.1524  0.6003 -0.2580
 5988SOL    HW323719   1.694   5.916   0.991  0.1583 -0.4220 -0.2663
 5988SOL    MW423720   1.665   5.922   1.072 -0.4739 -0.1955 -0.4410
 5989SOL     OW23721   2.545   2.516   5.198  0.1204  0.2365 -0.1597
 5989SOL    HW223722   2.639   2.535   5.201  0.2279 -0.1038 -0.9670
 5989SOL    HW323723   2.540   2.421   5.205 -0.0486  0.1078 -1.6677
 5989SOL    MW423724   2.557   2.506   5.199 -0.4640 -0.4062 -0.0695
 5990SOL     OW23725   3.493   3.982   3.622  0.2251 -0.1900  0.3037
 5990SOL    HW223726   3.560   3.940   3.676  0.9220  1.4257  0.7378
 5990SOL    HW323727   3.514   3.955   3.533 -0.0109 -1.6256  0.6559
 5990SOL    MW423728   3.504   3.973   3.617 -0.4883  0.3212 -0.2094
 5991SOL     OW23729   4.175   1.208   3.261  0.3934 -0.2821  0.2041
 5991SOL    HW223730   4.202   1.219   3.352 -0.0480 -2.0511  0.5878
 5991SOL    HW323731   4.238   1.145   3.224 -0.3229 -0.7458 -0.2589
 5991SOL    MW423732   4.187   1.201   3.268  0.5441  0.6110  0.9532
 5992SOL     OW23733   4.275   3.472   0.075  0.9437 -0.7758  0.2487
 5992SOL    HW223734   4.232   3.393   0.044 -0.2197  0.1707 -0.6759
 5992SOL    HW323735   4.282   3.528  -0.003 -3.1317  2.1750  1.5848
 5992SOL    MW423736   4.270   3.469   0.060  0.7339  0.2821  0.5545
 5993SOL     OW23737   4.136   4.424   4.858 -0.0327 -0.2311  0.1755
 5993SOL    HW223738   4.048   4.394   4.880 -0.5840  1.6529  0.7002
 5993SOL    HW323739   4.165   4.473   4.935  1.9174 -1.6648  0.4265
 5993SOL    MW423740   4.129   4.426   4.871  0.7143 -0.9248  0.2379
 5994SOL     OW23741   6.136   2.112   4.608 -0.4655 -0.6808  0.1063
 5994SOL    HW223742   6.074   2.073   4.547  0.1860 -1.5914  0.0109
 5994SOL    HW323743   6.091   2.190   4.642 -0.8169 -0.1415 -1.5451
 5994SOL    MW423744   6.122   2.117   4.605 -0.0740  0.1500 -0.2739
 5995SOL     OW23745   4.370   0.796   0.130 -0.1049 -0.1113  0.2642
 5995SOL    HW223746   4.410   0.809   0.045  0.0768  2.1595  0.6456
 5995SOL    HW323747   4.408   0.864   0.186 -1.3702 -0.5494  1.7434
 5995SOL    MW423748   4.380   0.807   0.126 -0.1697 -0.4457  0.1063
 5996SOL     OW23749   5.873   0.390   1.377 -0.2053 -0.3818  0.2694
 5996SOL    HW223750   5.930   0.329   1.424  0.9498  1.3424  1.2630
 5996SOL    HW323751   5.900   0.383   1.286  0.0526 -1.1889  0.4000
 5996SOL    MW423752   5.884   0.381   1.371 -0.0710  0.1855  0.3632
 5997SOL     OW23753   4.925   3.046   5.204  0.2553  0.0529  0.3885
 5997SOL    HW223754   4.831   3.036   5.186  0.4014 -2.1385  0.5010
 5997SOL    HW323755   4.962   3.075   5.121 -0.5404  1.3619  0.4547
 5997SOL    MW423756   4.917   3.048   5.190 -0.9875  0.0858  0.1678
 5998SOL     OW23757   2.092   4.983   5.305 -0.4319 -0.0538 -0.0363
 5998SOL    HW223758   2.099   5.077   5.293 -2.4860  0.0327 -1.0737
 5998SOL    HW323759   2.093   4.947   5.216  0.5826 -1.0500  0.3578
 5998SOL    MW423760   2.093   4.990   5.292  0.3867 -0.0042  0.0250
 5999SOL     OW23761   0.942   6.104   3.288  0.4234  0.5659  0.0315
 5999SOL    HW223762   0.918   6.076   3.199 -1.5231  0.7025  0.4692
 5999SOL    HW323763   0.899   6.189   3.299 -0.3553  0.0019  1.5175
 5999SOL    MW423764   0.933   6.112   3.277 -0.7430 -0.2346 -0.8241
 6000SOL     OW23765   1.572   0.350   3.606  0.5642 -0.4711 -0.2381
 6000SOL    HW223766   1.666   0.345   3.592  0.6066  0.7963 -0.5715
 6000SOL    HW323767   1.561   0.415   3.676 -0.1057  0.8575 -1.5080
 6000SOL    MW423768   1.583   0.358   3.613  0.2902 -0.4398 -0.1774
 6001SOL     OW23769   5.228   2.866   4.111  0.7227 -0.2974 -0.0281
 6001SOL    HW223770   5.190   2.892   4.195  1.5124  0.2342  0.1670
 6001SOL    HW323771   5.185   2.923   4.047  0.2052 -0.6241  0.0243
 6001SOL    MW423772   5.217   2.877   4.113 -0.0711 -0.0540 -0.4736
 6002SOL     OW23773   2.531   4.284   0.433 -0.9876  0.3899 -0.6225
 6002SOL    HW223774   2.614   4.251   0.465 -0.3902 -0.4509 -2.8568
 6002SOL    HW323775   2.526   4.374   0.466  1.5014  0.9547 -1.6109
 6002SOL    MW423776   2.541   4.292   0.442 -0.5386 -0.2475 -0.1446
 6003SOL     OW23777   4.344   3.059   4.997  0.3382  0.5333 -0.0582
 6003SOL    HW223778   4.258   3.037   5.034 -1.0094 -0.6259 -3.4668
 6003SOL    HW323779   4.381   2.975   4.971  1.7323  1.1740 -0.2434
 6003SOL    MW423780   4.337   3.045   4.999  0.6488  0.1803 -0.1570
 6004SOL     OW23781   2.127   0.743   0.779  0.7264 -0.0961  0.1430
 6004SOL    HW223782   2.056   0.795   0.742  0.8104 -1.5646 -2.3192
 6004SOL    HW323783   2.206   0.794   0.760  0.5144  0.6233  1.1429
 6004SOL    MW423784   2.128   0.756   0.772 -0.1472  0.2811 -0.7364
 6005SOL     OW23785   4.540   4.361   4.709 -0.3924  0.7502  0.1472
 6005SOL    HW223786   4.579   4.289   4.660 -1.9004 -1.8775  2.5459
 6005SOL    HW323787   4.610   4.391   4.767 -0.1734  0.2462  0.1495
 6005SOL    MW423788   4.555   4.356   4.710 -0.7263 -0.2883  0.0462
 6006SOL     OW23789   4.800   1.858   2.965  0.0535  0.1869 -0.2811
 6006SOL    HW223790   4.792   1.852   3.060  0.3576 -1.2869 -0.3154
 6006SOL    HW323791   4.894   1.856   2.948 -0.0155 -0.3578 -0.6393
 6006SOL    MW423792   4.811   1.857   2.975 -0.4319 -0.2846 -0.0466
 6007SOL     OW23793   1.217   5.516   5.405 -0.0578 -0.6033  0.4267
 6007SOL    HW223794   1.214   5.536   5.498  0.5271 -2.0795  0.7868
 6007SOL    HW323795   1.231   5.421   5.401  0.1345 -0.5358 -1.1614
 6007SOL    MW423796   1.218   5.506   5.416  0.3926 -0.0510 -0.0347
 6008SOL     OW23797   2.921   0.811   5.908  0.3401  0.1567 -0.4736
 6008SOL    HW223798   2.830   0.824   5.936  0.7946 -0.8130  1.6343
 6008SOL    HW323799   2.934   0.875   5.838 -1.3006  1.8757  0.7131
 6008SOL    MW423800   2.911   0.821   5.902 -0.0587  0.2322 -0.0767
 6009SOL     OW23801   6.181   5.033   6.166 -0.8937 -0.7781 -0.2408
 6009SOL    HW223802   6.164   4.990   6.250  0.4341  0.4370  0.7091
 6009SOL    HW323803   6.095   5.040   6.125 -1.6650 -0.9563  1.2597
 6009SOL    MW423804   6.167   5.029   6.172  0.3986 -0.3574  0.5161
 6010SOL     OW23805   6.190   4.407   4.334 -0.1116 -0.2036 -0.5892
 6010SOL    HW223806   6.099   4.384   4.314 -0.2781 -1.7535  1.6096
 6010SOL    HW323807   6.242   4.351   4.276 -0.4948  0.8502 -2.0186
 6010SOL    MW423808   6.185   4.397   4.324 -0.0138  0.4031 -0.1250
 6011SOL     OW23809   1.839   5.739   5.238  0.2253 -0.4713 -0.1937
 6011SOL    HW223810   1.826   5.658   5.187 -0.0379 -0.3485 -0.3250
 6011SOL    HW323811   1.783   5.804   5.194  1.6055  0.1947 -1.0274
 6011SOL    MW423812   1.830   5.737   5.225  0.0499 -0.3322 -0.3331
 6012SOL     OW23813   2.950   5.096   5.075  0.0657  0.1442 -0.0017
 6012SOL    HW223814   2.883   5.086   5.008 -1.9059 -0.2397  1.9231
 6012SOL    HW323815   2.933   5.181   5.114  0.5247 -0.0751  0.7000
 6012SOL    MW423816   2.939   5.105   5.071 -0.0080 -0.4105 -0.2196
 6013SOL     OW23817   3.819   2.205   5.834 -0.1088 -0.1608 -0.5954
 6013SOL    HW223818   3.787   2.122   5.868 -0.8379  0.1011 -0.6405
 6013SOL    HW323819   3.903   2.218   5.879  0.6448 -1.5425 -1.5625
 6013SOL    MW423820   3.826   2.196   5.845 -0.1472 -0.2152  0.2193
 6014SOL     OW23821   3.132   3.128   3.856  0.2235  0.1156 -0.4722
 6014SOL    HW223822   3.166   3.043   3.886  1.4234  0.7135 -0.0835
 6014SOL    HW323823   3.046   3.107   3.820  0.9683 -1.4675 -1.4706
 6014SOL    MW423824   3.125   3.114   3.856 -0.3630 -0.7039 -0.4215
 6015SOL     OW23825   1.505   3.962   5.245 -0.7569  0.2713  0.4077
 6015SOL    HW223826   1.559   3.889   5.217 -1.3278 -0.0643  0.1579
 6015SOL    HW323827   1.556   4.005   5.314 -0.5473 -0.5438  0.7728
 6015SOL    MW423828   1.519   3.958   5.250  0.5956  0.1963  0.3903
 6016SOL     OW23829   3.098   6.036   5.943  0.1902  0.4495  0.0862
 6016SOL    HW223830   3.133   6.002   5.861  0.9088 -1.9690  1.2871
 6016SOL    HW323831   3.163   6.099   5.973  0.0265  1.1950 -1.0532
 6016SOL    MW423832   3.111   6.040   5.936  0.2201  0.3014 -0.1824
 6017SOL     OW23833   0.825   5.462   3.652  0.0813 -0.4267 -0.1442
 6017SOL    HW223834   0.910   5.451   3.695  0.2563  2.7988  0.5581
 6017SOL    HW323835   0.761   5.455   3.722 -0.0886 -0.6311 -0.3157
 6017SOL    MW423836   0.828   5.459   3.667 -0.2818  0.6308  0.7089
 6018SOL     OW23837   2.842   5.703   0.067  0.5577  0.2540 -0.3995
 6018SOL    HW223838   2.814   5.761   0.137  0.4434  0.7214 -0.8255
 6018SOL    HW323839   2.938   5.710   0.067  0.5296  0.6373 -0.6153
 6018SOL    MW423840   2.851   5.711   0.076 -0.0075  0.3097 -0.3169
 6019SOL     OW23841   0.684   3.829   1.609 -0.3468  0.9732 -0.2043
 6019SOL    HW223842   0.632   3.802   1.533 -0.6693 -0.2750  0.4321
 6019SOL    HW323843   0.665   3.763   1.676 -0.8165  2.5764  1.3058
 6019SOL    MW423844   0.675   3.817   1.608 -0.3293  0.6697 -0.2673
 6020SOL     OW23845   2.667   4.717   5.301  0.2502 -0.1931 -0.2574
 6020SOL    HW223846   2.604   4.729   5.231 -0.8914  0.2987  0.8258
 6020SOL    HW323847   2.734   4.784   5.286 -0.0684  0.0061 -0.7839
 6020SOL    MW423848   2.668   4.727   5.290 -0.1585 -0.4557  0.0067
 6021SOL     OW23849   4.762   3.531   3.123  0.3311 -0.0364 -0.1482
 6021SOL    HW223850   4.715   3.450   3.145 -0.8917  0.0059 -2.3812
 6021SOL    HW323851   4.695   3.599   3.121  1.0458  0.6901 -0.1417
 6021SOL    MW423852   4.747   3.529   3.126  0.1668  0.0885  0.2301
 6022SOL     OW23853   0.908   6.358   2.907 -0.3184  0.2906  0.4554
 6022SOL    HW223854   0.820   6.392   2.921 -0.1351  0.9100  0.1572
 6022SOL    HW323855   0.923   6.368   2.813 -1.0843 -2.7022 -0.1028
 6022SOL    MW423856   0.899   6.364   2.896  0.4667 -0.1177 -0.0934
 6023SOL     OW23857   1.939   6.338   3.884  0.1509  0.0132 -0.1710
 6023SOL    HW223858   1.964   6.271   3.947  1.9538 -0.7608 -1.5940
 6023SOL    HW323859   1.965   6.302   3.799 -0.9816  1.5569 -1.2301
 6023SOL    MW423860   1.946   6.325   3.881 -0.5184  0.2719  0.5944
 6024SOL     OW23861   3.717   1.842   4.431  0.2144 -0.3119  0.3077
 6024SOL    HW223862   3.741   1.763   4.479  2.1099  0.5691  0.8712
 6024SOL    HW323863   3.779   1.846   4.358  1.1215  1.4080  1.1216
 6024SOL    MW423864   3.728   1.832   4.428 -0.6323  0.2117 -0.5668
 6025SOL     OW23865   6.015   2.958   1.996 -0.1847  0.1212  0.3843
 6025SOL    HW223866   6.070   2.886   1.966  1.5365  1.7741 -0.6279
 6025SOL    HW323867   5.930   2.917   2.015  0.0198 -1.8164 -2.3526
 6025SOL    MW423868   6.011   2.943   1.995  0.6500 -0.3322  0.9330
 6026SOL     OW23869   4.381   4.543   2.980 -0.3489  0.2259  0.0823
 6026SOL    HW223870   4.318   4.524   3.050  1.4405 -0.4859  1.6112
 6026SOL    HW323871   4.370   4.471   2.918 -1.0445  0.1187  0.3226
 6026SOL    MW423872   4.371   4.531   2.981  0.0176 -0.6892  0.2865
 6027SOL     OW23873   1.312   4.770   2.312 -0.1389 -0.1681  0.4447
 6027SOL    HW223874   1.398   4.765   2.272  0.2036  0.1102  1.1316
 6027SOL    HW323875   1.269   4.843   2.267 -1.2972 -2.3493 -2.2646
 6027SOL    MW423876   1.317   4.779   2.300 -0.1205 -0.2218  0.9648
 6028SOL     OW23877   0.044   0.029   5.670  0.5407 -0.1422 -0.5767
 6028SOL    HW223878   0.018   0.108   5.624 -1.1798  0.7200  1.6623
 6028SOL    HW323879   0.088   0.061   5.750 -0.7818 -1.3595  0.7000
 6028SOL    MW423880   0.047   0.044   5.675  0.0180  0.8779 -0.2377
 6029SOL     OW23881   1.829   0.762   4.403 -0.2145  0.1077  0.6399
 6029SOL    HW223882   1.761   0.716   4.353  0.7882  1.1359 -1.8353
 6029SOL    HW323883   1.891   0.792   4.337  0.8134  2.2600  2.4535
 6029SOL    MW423884   1.828   0.760   4.388 -0.3578 -0.0954  0.4258
 6030SOL     OW23885   3.379   2.392   4.845 -0.2216 -0.2211  0.4785
 6030SOL    HW223886   3.425   2.308   4.841 -0.7063 -0.5014  0.5486
 6030SOL    HW323887   3.356   2.411   4.754 -0.2207 -0.2301  0.4765
 6030SOL    MW423888   3.382   2.383   4.832  0.2900 -0.4597 -0.1964
 6031SOL     OW23889   4.934   6.159   1.752  0.2274  0.7488 -0.2100
 6031SOL    HW223890   4.877   6.112   1.812  1.6610  1.4314  1.8332
 6031SOL    HW323891   4.936   6.249   1.787  1.2673  1.1239 -1.1745
 6031SOL    MW423892   4.927   6.165   1.764 -0.1887  0.2749 -0.1719
 6032SOL     OW23893   1.236   5.428   1.838  0.0757  0.3613 -0.2245
 6032SOL    HW223894   1.237   5.387   1.752 -1.3797  0.9404 -0.5585
 6032SOL    HW323895   1.172   5.499   1.830  0.5101  0.9400  1.1070
 6032SOL    MW423896   1.227   5.432   1.826 -0.0046  0.4720  0.0305
 6033SOL     OW23897   4.394   2.545   0.019  0.4558  0.0950  0.5828
 6033SOL    HW223898   4.308   2.537  -0.023  0.0854  1.9854  0.9219
 6033SOL    HW323899   4.436   2.618  -0.026  1.3995 -0.0148  1.2621
 6033SOL    MW423900   4.388   2.553   0.008 -0.7086 -0.7358  0.1878
 6034SOL     OW23901   3.172   4.954   1.014  0.6608 -0.4970  0.4007
 6034SOL    HW223902   3.109   5.004   1.066 -0.4957 -0.7978 -0.6776
 6034SOL    HW323903   3.232   5.019   0.979  1.0517 -0.2182  1.5318
 6034SOL    MW423904   3.172   4.969   1.016 -0.3000 -0.3074  0.3203
 6035SOL     OW23905   1.311   6.305   1.313 -0.4235  0.0068  0.4491
 6035SOL    HW223906   1.331   6.325   1.221 -1.1317 -2.2910 -0.2675
 6035SOL    HW323907   1.215   6.304   1.316 -0.3985 -0.5267  1.0738
 6035SOL    MW423908   1.301   6.308   1.301  0.6820  0.0155 -0.4306
 6036SOL     OW23909   6.405   4.987   6.003  0.3907  0.4607  0.1771
 6036SOL    HW223910   6.478   5.047   6.020  1.1549 -0.6583  0.9043
 6036SOL    HW323911   6.341   5.007   6.071  0.5614  0.5716  0.3039
 6036SOL    MW423912   6.406   4.998   6.014 -0.4832 -0.1766  0.4464
 6037SOL     OW23913   0.057   2.041   4.997  0.3751  0.2153 -0.5672
 6037SOL    HW223914   0.071   2.135   5.001  1.0814  0.3169 -3.1966
 6037SOL    HW323915   0.144   2.005   4.977  0.3503 -1.1557  1.4792
 6037SOL    MW423916   0.071   2.048   4.995  0.2892  0.5547 -0.1714
 6038SOL     OW23917   3.004   4.390   1.384  0.0422  0.1395  0.1814
 6038SOL    HW223918   2.996   4.451   1.311  0.2105 -1.5864 -1.3364
 6038SOL    HW323919   2.920   4.398   1.431 -0.6827  0.1648 -1.0862
 6038SOL    MW423920   2.992   4.399   1.381  0.0843 -0.3515 -0.0219
 6039SOL     OW23921   4.685   3.056   1.920  0.1250  1.1406 -0.1387
 6039SOL    HW223922   4.670   3.097   1.835  0.1029 -0.5956 -1.0326
 6039SOL    HW323923   4.747   2.985   1.902 -1.7432 -0.8415  0.7724
 6039SOL    MW423924   4.691   3.052   1.907  0.3111  0.1103  0.5594
 6040SOL     OW23925   3.876   1.333   4.741 -0.3650  0.1827  0.1293
 6040SOL    HW223926   3.829   1.253   4.720  1.0766 -0.6151 -0.1984
 6040SOL    HW323927   3.916   1.315   4.826 -1.6778  1.3489  1.0562
 6040SOL    MW423928   3.875   1.320   4.750 -0.3378  0.0583 -0.0450
 6041SOL     OW23929   0.021   5.921   5.248  0.1182 -0.0246 -0.1367
 6041SOL    HW223930   0.009   6.015   5.264 -0.2772  0.4528 -2.8213
 6041SOL    HW323931   0.112   5.913   5.219 -0.1867 -0.2818 -1.0382
 6041SOL    MW423932   0.031   5.932   5.247  0.2999 -0.4183  0.5375
 6042SOL     OW23933   4.596   4.818   2.321  0.6213  0.8972 -0.5675
 6042SOL    HW223934   4.587   4.905   2.284  0.4502  0.4711 -1.5436
 6042SOL    HW323935   4.595   4.759   2.246  0.3363  0.0214  0.0986
 6042SOL    MW423936   4.594   4.821   2.306 -0.3774 -0.1756 -0.0005
 6043SOL     OW23937   0.844   3.267   0.160  0.2151 -0.5386 -0.4695
 6043SOL    HW223938   0.860   3.243   0.069 -1.3796 -0.3012 -0.8447
 6043SOL    HW323939   0.752   3.244   0.176  0.9425 -2.3304  1.6660
 6043SOL    MW423940   0.834   3.261   0.150  1.1358 -0.0554 -0.7744
 6044SOL     OW23941   0.061   5.894   4.609  0.5748 -0.3266 -0.7032
 6044SOL    HW223942   0.087   5.979   4.646  0.9634 -1.0562  0.8048
 6044SOL    HW323943   0.144   5.855   4.581  0.1557  0.9890 -4.3497
 6044SOL    MW423944   0.076   5.900   4.610 -0.2796 -0.0244  0.2846
 6045SOL     OW23945   6.085   4.600   3.412 -0.1890 -0.1867  0.1748
 6045SOL    HW223946   5.993   4.603   3.438 -0.7165  0.9966 -1.6262
 6045SOL    HW323947   6.098   4.678   3.358  0.9826 -1.9675 -2.3638
 6045SOL    MW423948   6.075   4.610   3.408  0.7621 -0.0682 -0.3627
 6046SOL     OW23949   2.835   6.139   0.359  0.4189  0.0575  0.0938
 6046SOL    HW223950   2.768   6.168   0.298  1.1060 -0.0633 -0.7368
 6046SOL    HW323951   2.867   6.057   0.323 -0.5684 -1.1037  1.7083
 6046SOL    MW423952   2.831   6.132   0.346  0.1624 -0.2242 -0.0104
 6047SOL     OW23953   4.999   1.167   2.409  0.0101 -0.9843  0.1832
 6047SOL    HW223954   5.005   1.140   2.318  1.3194  0.2083 -0.1204
 6047SOL    HW323955   4.965   1.257   2.405  0.6797 -0.6987  0.8250
 6047SOL    MW423956   4.995   1.176   2.397  0.0261 -0.5330  0.1260
 6048SOL     OW23957   1.703   4.885   5.145  0.4163 -0.4312 -0.2374
 6048SOL    HW223958   1.739   4.816   5.200 -1.0071 -0.6351  0.4899
 6048SOL    HW323959   1.611   4.892   5.172 -0.6236 -1.1116 -3.1363
 6048SOL    MW423960   1.695   4.877   5.155  0.6070  0.2894 -0.2443
 6049SOL     OW23961   5.543   2.461   0.955 -0.6483  0.0234  0.0231
 6049SOL    HW223962   5.592   2.469   0.873  0.1675  0.4877  0.5336
 6049SOL    HW323963   5.538   2.367   0.971 -0.7249 -0.0653 -0.5041
 6049SOL    MW423964   5.549   2.450   0.946  0.0908 -0.3121  0.2118
 6050SOL     OW23965   2.838   1.165   6.003  0.0763 -0.1462 -0.2454
 6050SOL    HW223966   2.769   1.135   6.063 -1.1159  0.3200 -1.3243
 6050SOL    HW323967   2.847   1.259   6.022 -0.8524  0.1775 -1.2573
 6050SOL    MW423968   2.830   1.174   6.013 -0.4648 -0.0139  0.3937
 6051SOL     OW23969   1.059   5.389   3.794 -0.2468 -0.2393  0.3727
 6051SOL    HW223970   1.144   5.362   3.760 -0.9910 -0.0201 -1.8724
 6051SOL    HW323971   1.079   5.437   3.874  1.7012 -0.5111  0.1000
 6051SOL    MW423972   1.073   5.392   3.800  0.2458  0.3349 -0.4180
 6052SOL     OW23973   4.938   3.311   0.722  0.0978 -0.0174  0.6275
 6052SOL    HW223974   5.009   3.268   0.674 -0.4425 -0.4249  0.1802
 6052SOL    HW323975   4.859   3.288   0.673 -0.0287  3.2556 -0.9634
 6052SOL    MW423976   4.937   3.302   0.709  0.4516  0.1090 -0.5307
 6053SOL     OW23977   5.854   0.353   6.376 -0.3543 -0.7437 -0.4211
 6053SOL    HW223978   5.829   0.351   6.284  0.1513 -0.9474 -0.5613
 6053SOL    HW323979   5.844   0.445   6.402  0.6445 -0.4428 -1.0175
 6053SOL    MW423980   5.850   0.365   6.367  0.1423 -0.7542  0.7598
 6054SOL     OW23981   2.758   0.691   5.617  0.1794 -0.2709 -0.0269
 6054SOL    HW223982   2.715   0.635   5.552  0.8680 -0.1484 -0.6073
 6054SOL    HW323983   2.704   0.683   5.695 -0.3751 -0.8405 -0.4544
 6054SOL    MW423984   2.745   0.682   5.619  0.4326 -0.2544 -0.5917
 6055SOL     OW23985   3.249   5.945   6.248  0.5585  0.0319 -0.1597
 6055SOL    HW223986   3.287   6.033   6.257  2.2588 -0.6605 -0.2332
 6055SOL    HW323987   3.196   5.950   6.168 -0.9216  1.4862  0.8483
 6055SOL    MW423988   3.247   5.957   6.239 -0.3688 -0.1593 -0.0859
 6056SOL     OW23989   1.335   5.630   4.718  0.2416  0.9245 -0.1078
 6056SOL    HW223990   1.375   5.549   4.750 -0.0590  0.1479 -1.5627
 6056SOL    HW323991   1.387   5.700   4.756  1.5099 -0.0086 -0.0592
 6056SOL    MW423992   1.347   5.629   4.727  0.2938  0.1029 -0.1736
 6057SOL     OW23993   5.565   0.023   2.614 -0.0143 -0.7064  0.2780
 6057SOL    HW223994   5.482  -0.020   2.636  0.6142 -3.4494 -2.0004
 6057SOL    HW323995   5.548   0.064   2.529  0.9134 -1.1892 -0.1478
 6057SOL    MW423996   5.552   0.023   2.605  0.8180  0.6918  0.0626
 6058SOL     OW23997   1.352   6.162   5.595 -0.2010  0.5270  0.0078
 6058SOL    HW223998   1.376   6.240   5.545  1.0338 -0.2205 -0.6413
 6058SOL    HW323999   1.434   6.112   5.601 -1.1097 -1.0501 -0.2095
 6058SOL    MW424000   1.366   6.166   5.589 -0.0349 -0.2915 -0.0124
 6059SOL     OW24001   4.161   3.583   3.441 -0.3973  0.6313  0.9251
 6059SOL    HW224002   4.190   3.588   3.533 -0.3721  0.6690  0.9154
 6059SOL    HW324003   4.090   3.519   3.442  0.9369 -0.9102  0.6207
 6059SOL    MW424004   4.156   3.575   3.453  0.2955  0.0298 -0.4691
 6060SOL     OW24005   3.268  -0.022   5.790  0.1627  0.3549 -0.0862
 6060SOL    HW224006   3.191   0.016   5.748 -0.3716 -0.6390 -0.0270
 6060SOL    HW324007   3.234  -0.064   5.869  0.5201 -1.3458 -0.8033
 6060SOL    MW424008   3.253  -0.022   5.795  0.5659 -0.3000  0.1460
 6061SOL     OW24009   2.019   6.017   2.179  0.1498 -0.0975  0.3866
 6061SOL    HW224010   1.940   5.974   2.212 -0.6040  0.6851 -0.3388
 6061SOL    HW324011   2.091   5.967   2.216 -0.6878 -0.9544  0.9006
 6061SOL    MW424012   2.018   6.005   2.189  0.0502 -0.2602 -0.4041
 6062SOL     OW24013   0.149   4.801   5.217  0.1397 -0.2847 -0.3826
 6062SOL    HW224014   0.063   4.759   5.208  0.0041 -0.8837  2.5138
 6062SOL    HW324015   0.201   4.738   5.267  1.4165  1.1235  0.1444
 6062SOL    MW424016   0.144   4.787   5.222 -0.0693  0.1193  0.0043
 6063SOL     OW24017   5.780   4.855   2.540 -0.4383 -0.2985  0.0444
 6063SOL    HW224018   5.776   4.920   2.470  0.0670 -0.5509 -0.2256
 6063SOL    HW324019   5.820   4.901   2.614  1.4601 -0.7223 -0.6569
 6063SOL    MW424020   5.785   4.869   2.541  0.0102  0.1868  0.0709
 6064SOL     OW24021   1.112   4.251   5.510  0.0744 -0.0862 -0.0352
 6064SOL    HW224022   1.049   4.317   5.481 -1.7774 -1.0165  1.5608
 6064SOL    HW324023   1.066   4.203   5.579  2.6703 -0.6643  1.4450
 6064SOL    MW424024   1.098   4.253   5.516  0.0654  0.5834 -0.3253
 6065SOL     OW24025   5.129   4.338   3.871 -0.1551  0.1215  0.5612
 6065SOL    HW224026   5.038   4.347   3.841  0.5496  1.1320 -1.4772
 6065SOL    HW324027   5.154   4.427   3.897  0.4951  0.0024  0.3525
 6065SOL    MW424028   5.120   4.351   3.870 -0.0226  0.5599  0.3721
 6066SOL     OW24029   0.634   4.102   1.595 -0.4314 -0.4973  0.0323
 6066SOL    HW224030   0.628   4.010   1.621  0.9654 -0.5784  0.1460
 6066SOL    HW324031   0.725   4.127   1.614 -0.7072  0.8293 -0.2549
 6066SOL    MW424032   0.646   4.093   1.601 -0.4113  1.3110 -0.3729
 6067SOL     OW24033   5.500   4.273   3.412 -0.1571  0.3165 -0.2640
 6067SOL    HW224034   5.447   4.329   3.469 -0.7942 -0.0949 -0.4452
 6067SOL    HW324035   5.495   4.314   3.326 -1.2363 -0.3988 -0.5654
 6067SOL    MW424036   5.493   4.286   3.408  0.5540  0.9577  0.1709
 6068SOL     OW24037   2.365   2.351   5.982 -0.1818 -0.5427  0.2146
 6068SOL    HW224038   2.364   2.445   5.964 -1.9853 -0.8029 -1.3355
 6068SOL    HW324039   2.360   2.344   6.077 -0.4445  0.9181  0.3268
 6068SOL    MW424040   2.364   2.363   5.992 -0.2255 -0.2219  0.2107
 6069SOL     OW24041   3.573   4.346   5.439  0.2915 -0.7383  0.3890
 6069SOL    HW224042   3.635   4.384   5.502 -1.9015 -0.0317  2.2616
 6069SOL    HW324043   3.553   4.259   5.475 -2.3185  0.3383  1.7861
 6069SOL    MW424044   3.579   4.340   5.452 -0.4564  0.2190  0.0897
 6070SOL     OW24045   3.445   5.025   1.151 -0.1579  0.4462  0.1154
 6070SOL    HW224046   3.528   5.014   1.197  0.2527  1.2850 -0.3844
 6070SOL    HW324047   3.404   5.101   1.193 -2.0864 -1.6343  2.3253
 6070SOL    MW424048   3.451   5.034   1.162 -1.2466  0.1598  0.0423
 6071SOL     OW24049   6.314   1.515   4.018  0.0076 -0.1652 -0.0089
 6071SOL    HW224050   6.339   1.482   4.104  0.0186 -0.0293  0.0401
 6071SOL    HW324051   6.359   1.458   3.956  0.0729 -0.2059  0.0760
 6071SOL    MW424052   6.323   1.503   4.021 -0.4790  0.1257  0.2600
 6072SOL     OW24053   2.510   0.222   5.068  0.1170  0.2468  0.2779
 6072SOL    HW224054   2.508   0.212   4.972 -0.4654  0.7338  0.2296
 6072SOL    HW324055   2.463   0.145   5.101 -2.9993  1.8519 -0.0218
 6072SOL    MW424056   2.504   0.211   5.059 -0.0601  0.2441  0.1899
 6073SOL     OW24057   4.025   4.578   3.415 -0.1775  0.2435  0.3608
 6073SOL    HW224058   3.950   4.546   3.365  0.4586  1.4013 -1.4487
 6073SOL    HW324059   3.993   4.655   3.461  0.0175  1.1082 -0.9097
 6073SOL    MW424060   4.011   4.584   3.414 -0.7560  0.3914 -0.1377
 6074SOL     OW24061   4.744   2.928   3.826  0.1086 -0.1113  0.9073
 6074SOL    HW224062   4.673   2.868   3.850 -2.1599  1.5106 -1.2477
 6074SOL    HW324063   4.704   2.989   3.764  3.3895  1.0034 -0.3277
 6074SOL    MW424064   4.730   2.928   3.821 -0.9074  0.4216  0.4377
 6075SOL     OW24065   0.440   5.483   0.354  0.5952 -0.7516 -0.7517
 6075SOL    HW224066   0.502   5.551   0.331 -0.0399 -0.1029 -0.5756
 6075SOL    HW324067   0.380   5.478   0.279  0.8030 -1.3110 -0.8859
 6075SOL    MW424068   0.440   5.491   0.341  0.0685  0.0726  0.2229
 6076SOL     OW24069   3.709   2.817   3.587 -0.8199  0.4776 -0.1360
 6076SOL    HW224070   3.743   2.895   3.629 -0.7354  0.7143 -0.6288
 6076SOL    HW324071   3.619   2.840   3.561 -0.8449  0.3649 -0.1542
 6076SOL    MW424072   3.701   2.830   3.589 -0.8712 -0.0965  0.3463
 6077SOL     OW24073   3.968   4.603   4.251  0.0020  0.1347  0.0639
 6077SOL    HW224074   3.920   4.617   4.169  1.0886  1.2220 -0.4106
 6077SOL    HW324075   4.060   4.613   4.227  0.3202  0.9727  1.5052
 6077SOL    MW424076   3.974   4.606   4.237  0.6575 -0.3644  0.5373
 6078SOL     OW24077   5.712   5.722   4.101  0.1348 -0.5844 -0.0134
 6078SOL    HW224078   5.681   5.632   4.095 -2.0899  0.2302 -2.2126
 6078SOL    HW324079   5.789   5.724   4.045 -0.7924 -0.7669 -1.3208
 6078SOL    MW424080   5.718   5.710   4.093  0.7987 -0.0308 -0.3625
 6079SOL     OW24081   2.617   2.016   0.701 -0.1137 -0.5141 -0.3063
 6079SOL    HW224082   2.687   2.006   0.766  0.7956 -0.3007 -1.2248
 6079SOL    HW324083   2.663   2.029   0.618 -1.2511 -0.8629 -1.0160
 6079SOL    MW424084   2.632   2.017   0.698 -0.2027 -0.5110  0.0627
 6080SOL     OW24085   4.638   1.175   1.852  0.1476  0.1893 -0.7935
 6080SOL    HW224086   4.728   1.141   1.857 -0.4445 -1.2534  0.9253
 6080SOL    HW324087   4.595   1.118   1.787 -0.4134 -1.4699  0.9342
 6080SOL    MW424088   4.644   1.163   1.844 -0.1706 -0.0024 -0.0216
 6081SOL     OW24089   4.503   0.361   4.593  0.2340  0.4665  0.0301
 6081SOL    HW224090   4.455   0.427   4.543 -1.4804 -0.5546  0.2375
 6081SOL    HW324091   4.482   0.380   4.684  0.7860  0.4204  0.1695
 6081SOL    MW424092   4.494   0.372   4.598  0.0058 -0.1689 -0.1050
 6082SOL     OW24093   3.700   3.530   5.052 -0.0176 -0.1859 -0.4066
 6082SOL    HW224094   3.641   3.586   5.103 -0.0360 -1.0401  0.5284
 6082SOL    HW324095   3.642   3.469   5.007 -0.3073  2.4514 -4.0287
 6082SOL    MW424096   3.684   3.530   5.053 -0.1643  0.4304 -0.0452
 6083SOL     OW24097   3.403   0.583   5.229  0.1983 -0.4386  0.3746
 6083SOL    HW224098   3.415   0.678   5.225 -0.3452 -0.4216 -1.3692
 6083SOL    HW324099   3.327   0.572   5.286  0.4365  0.1474  0.8261
 6083SOL    MW424100   3.395   0.594   5.236 -0.3116  0.2916 -0.3761
 6084SOL     OW24101   5.485   2.984   4.000  0.5583 -0.0513  0.0028
 6084SOL    HW224102   5.536   2.913   3.960 -1.4795 -0.7371 -1.5327
 6084SOL    HW324103   5.425   2.940   4.060  1.6015  0.7392  1.6958
 6084SOL    MW424104   5.484   2.969   4.003  0.7324 -0.2414  0.2067
 6085SOL     OW24105   2.593   5.618   1.717 -0.0168 -0.0314  0.4077
 6085SOL    HW224106   2.646   5.538   1.712 -2.0937 -1.4825  0.0142
 6085SOL    HW324107   2.504   5.586   1.728 -0.9950  2.2531 -0.3414
 6085SOL    MW424108   2.588   5.603   1.718 -0.2293 -0.5750  0.5310
 6086SOL     OW24109   2.530   4.940   3.202 -0.2426  0.0749  0.3865
 6086SOL    HW224110   2.570   5.020   3.236  0.8725 -1.4274  2.8747
 6086SOL    HW324111   2.542   4.945   3.108  2.4867  1.4991  0.7114
 6086SOL    MW424112   2.537   4.951   3.194 -0.0839  0.4697  0.1237
 6087SOL     OW24113   3.636   6.150   1.294  0.5008  0.3229 -0.2002
 6087SOL    HW224114   3.549   6.146   1.333  0.2299  0.0405 -0.8193
 6087SOL    HW324115   3.653   6.060   1.265  1.4517  0.1296  0.8765
 6087SOL    MW424116   3.627   6.137   1.296  0.4720 -0.3737  0.6728
 6088SOL     OW24117   1.970   1.933   6.362  0.3701 -0.0601 -0.3666
 6088SOL    HW224118   1.876   1.916   6.371  0.1755  0.7552 -0.7127
 6088SOL    HW324119   2.000   1.951   6.451  0.1021  0.1346 -0.3142
 6088SOL    MW424120   1.961   1.933   6.375 -0.8304 -0.0138 -0.4983
 6089SOL     OW24121   3.717   2.624   5.220 -0.2855  0.7390  0.4387
 6089SOL    HW224122   3.812   2.628   5.206 -0.0287  1.6308  2.1253
 6089SOL    HW324123   3.703   2.543   5.268 -0.1340  1.3528  1.5649
 6089SOL    MW424124   3.728   2.614   5.225  0.0799  0.7175  0.0980
 6090SOL     OW24125   5.076   5.038   5.203  0.4755 -0.4012  0.2835
 6090SOL    HW224126   5.067   5.131   5.181  0.1855 -0.7220 -1.0675
 6090SOL    HW324127   5.033   4.993   5.130 -1.8465 -1.5434  2.1983
 6090SOL    MW424128   5.069   5.045   5.190 -0.4156 -0.1589  0.2715
 6091SOL     OW24129   1.783   2.294   3.374 -0.0378 -0.4049 -0.0173
 6091SOL    HW224130   1.838   2.216   3.376  0.2943 -0.2972 -2.3459
 6091SOL    HW324131   1.693   2.260   3.369  0.1391 -0.6967 -1.7407
 6091SOL    MW424132   1.778   2.279   3.373  0.3658 -0.2816 -0.1651
 6092SOL     OW24133   3.329   3.263   0.097  0.3846  0.4816 -0.5745
 6092SOL    HW224134   3.312   3.276   0.004 -0.7575 -0.7936 -0.5810
 6092SOL    HW324135   3.389   3.189   0.101  0.0704  0.2370 -0.2961
 6092SOL    MW424136   3.334   3.255   0.085 -0.2970  0.3208 -0.1093
 6093SOL     OW24137   6.240   3.958   5.131 -0.5799  0.3258  0.1919
 6093SOL    HW224138   6.199   3.979   5.215 -0.0109  2.0905  0.0806
 6093SOL    HW324139   6.188   4.005   5.066 -1.8520 -2.1029 -0.6794
 6093SOL    MW424140   6.228   3.967   5.133 -0.8114 -0.0125 -0.5213
 6094SOL     OW24141   4.081   1.316   1.455 -0.3748 -0.3075  0.7061
 6094SOL    HW224142   4.136   1.290   1.529  1.0501 -2.1874 -0.9064
 6094SOL    HW324143   4.124   1.395   1.421  0.6813 -1.0996  0.1619
 6094SOL    MW424144   4.094   1.323   1.460 -0.0971 -0.2784  0.1696
 6095SOL     OW24145   3.537   3.158   4.814  0.3858 -0.1281  0.5655
 6095SOL    HW224146   3.592   3.085   4.843  0.9130 -1.0328 -2.3275
 6095SOL    HW324147   3.467   3.116   4.763  0.9976  1.3131 -1.6140
 6095SOL    MW424148   3.535   3.142   4.811 -0.1286 -0.6714  0.4109
 6096SOL     OW24149   0.886   4.497   2.886 -0.2831  0.1604 -0.5420
 6096SOL    HW224150   0.826   4.431   2.852  0.2216 -0.2013 -0.7472
 6096SOL    HW324151   0.843   4.581   2.869  0.2402  0.0400 -2.6975
 6096SOL    MW424152   0.872   4.500   2.880 -0.3011 -0.2215  0.0845
 6097SOL     OW24153   3.971   5.593   3.537  0.5862  0.1897  0.1297
 6097SOL    HW224154   4.021   5.512   3.549  0.4439 -0.2065 -1.6192
 6097SOL    HW324155   3.883   5.572   3.569  0.5666 -0.3484 -0.2541
 6097SOL    MW424156   3.966   5.579   3.543  0.2117  0.0427 -0.0742
 6098SOL     OW24157   4.231   3.946   5.351 -0.5178 -0.0910  0.2282
 6098SOL    HW224158   4.198   3.857   5.338  1.9869 -0.9911 -0.3930
 6098SOL    HW324159   4.194   3.973   5.435 -1.5246 -1.6013  0.3106
 6098SOL    MW424160   4.222   3.938   5.360  0.0580  0.1490 -0.2071
 6099SOL     OW24161   1.821   3.035   0.874  0.0467  0.0347  0.2018
 6099SOL    HW224162   1.811   3.031   0.779 -0.7916 -1.1211  0.3167
 6099SOL    HW324163   1.910   3.002   0.890  1.3323  2.9641 -0.3251
 6099SOL    MW424164   1.831   3.030   0.864  0.4433  0.3716  0.2542
 6100SOL     OW24165   5.520   3.887   6.052  0.7062 -0.5480  0.1925
 6100SOL    HW224166   5.604   3.931   6.047  1.6483 -2.2538  0.2752
 6100SOL    HW324167   5.511   3.841   5.969  0.0878 -0.7925  0.3819
 6100SOL    MW424168   5.530   3.887   6.041 -0.0823  0.1830  0.6191
 6101SOL     OW24169   5.868   0.671   1.469  0.1796  0.3472 -0.4374
 6101SOL    HW224170   5.906   0.584   1.458  0.4868  0.4150  0.0557
 6101SOL    HW324171   5.774   0.655   1.478  0.4781 -0.2731  2.8107
 6101SOL    MW424172   5.860   0.658   1.469 -0.1030 -0.1996  0.1570
 6102SOL     OW24173   2.799   1.464   6.012  0.0141  0.3568 -0.4371
 6102SOL    HW224174   2.801   1.551   5.971  2.3181 -0.4488 -2.3310
 6102SOL    HW324175   2.755   1.477   6.096 -0.5602  3.1417 -1.0788
 6102SOL    MW424176   2.794   1.477   6.018 -0.0934 -0.1572  0.5069
 6103SOL     OW24177   2.751   3.835   4.089 -0.5408 -0.6767 -0.2392
 6103SOL    HW224178   2.688   3.890   4.136 -1.0226 -1.1555 -0.3227
 6103SOL    HW324179   2.807   3.799   4.157 -0.9137 -0.9569 -0.0808
 6103SOL    MW424180   2.750   3.838   4.104  0.0077  0.2056 -0.0557
 6104SOL     OW24181   2.371   2.615   5.836 -0.2295  0.0759  0.3474
 6104SOL    HW224182   2.332   2.697   5.864 -2.4323 -1.1694  1.1486
 6104SOL    HW324183   2.368   2.618   5.741 -1.4236  0.4321  0.3825
 6104SOL    MW424184   2.366   2.626   5.827 -0.3736 -0.3745  0.3156
 6105SOL     OW24185   5.994   5.442   5.053  0.0078 -0.2800  0.6320
 6105SOL    HW224186   6.025   5.529   5.078  1.3774 -0.7550  0.6866
 6105SOL    HW324187   5.904   5.438   5.085 -0.6927  1.7300 -0.8400
 6105SOL    MW424188   5.986   5.453   5.060 -0.1667 -0.7331 -0.2171
 6106SOL     OW24189   3.504   0.496   0.382 -0.0954  0.1421 -0.1765
 6106SOL    HW224190   3.424   0.466   0.426 -0.2766 -1.5177 -1.5490
 6106SOL    HW324191   3.527   0.425   0.322  1.5457  1.2602 -0.9458
 6106SOL    MW424192   3.496   0.483   0.380  0.0213 -0.0769  0.6159
 6107SOL     OW24193   5.894   3.062   2.445  0.5534  0.2368 -1.2804
 6107SOL    HW224194   5.811   3.015   2.439  1.2179 -1.5097  1.6638
 6107SOL    HW324195   5.957   3.008   2.397  0.5639  0.0246 -1.0301
 6107SOL    MW424196   5.891   3.049   2.438  0.3110  0.5372  0.2437
 6108SOL     OW24197   0.237   0.011   6.239  0.0680  0.0809  0.3616
 6108SOL    HW224198   0.269  -0.070   6.199 -2.2112  0.0344 -1.5456
 6108SOL    HW324199   0.183  -0.019   6.313  1.9025  0.0628  1.7693
 6108SOL    MW424200   0.234  -0.004   6.244  0.1267 -0.1917 -0.6817
 6109SOL     OW24201   1.221   4.526   3.872 -0.3917 -0.1542  0.1157
 6109SOL    HW224202   1.316   4.528   3.861 -0.4861 -0.7887 -0.8892
 6109SOL    HW324203   1.197   4.434   3.864 -1.3290  0.2233 -1.8968
 6109SOL    MW424204   1.231   4.514   3.870  0.0298 -0.0081 -0.0398
 6110SOL     OW24205   4.212   0.881   5.568 -0.1152 -0.1621  0.1307
 6110SOL    HW224206   4.209   0.789   5.594  0.9881 -0.2864 -0.1328
 6110SOL    HW324207   4.185   0.929   5.646  2.6322 -0.5527  1.4109
 6110SOL    MW424208   4.208   0.875   5.581  0.1098  0.3276 -0.4260
 6111SOL     OW24209   5.326   1.948   3.443 -0.1422 -0.0640 -0.0359
 6111SOL    HW224210   5.340   2.022   3.384  1.1061  0.2046  0.5625
 6111SOL    HW324211   5.362   1.977   3.527  1.3715 -1.7150 -0.0545
 6111SOL    MW424212   5.333   1.961   3.447  0.4175 -0.7918 -0.0225
 6112SOL     OW24213   5.419   2.512   2.288 -0.0361  0.7448  0.2933
 6112SOL    HW224214   5.338   2.563   2.290 -0.1765  0.5378 -0.0622
 6112SOL    HW324215   5.429   2.485   2.196 -0.3672 -0.5093  0.6003
 6112SOL    MW424216   5.410   2.515   2.276 -0.4539 -0.5812 -0.4033
 6113SOL     OW24217   0.878   5.654   2.777 -0.7790 -0.4594  0.0268
 6113SOL    HW224218   0.811   5.612   2.723 -0.7900 -1.1162  0.5422
 6113SOL    HW324219   0.903   5.732   2.727 -1.5222 -0.5041 -0.4342
 6113SOL    MW424220   0.872   5.659   2.763  0.0628 -0.1891  0.3242
 6114SOL     OW24221   3.975   2.717   6.011  0.1953 -0.0635  0.0214
 6114SOL    HW224222   4.005   2.808   6.008  1.4379 -0.4727 -0.5184
 6114SOL    HW324223   3.887   2.722   6.049  0.5071  1.2868  0.6104
 6114SOL    MW424224   3.967   2.729   6.015 -0.0378  0.1243  0.1128
 6115SOL     OW24225   2.701   5.086   3.761 -0.1100 -0.8939  0.0334
 6115SOL    HW224226   2.672   5.121   3.845  1.1844 -0.7906  0.4590
 6115SOL    HW324227   2.796   5.088   3.766  0.0922  1.3927 -2.3478
 6115SOL    MW424228   2.709   5.091   3.772  0.2495  0.2481 -0.0636
 6116SOL     OW24229   4.741   4.141   5.105 -0.1070  0.5412 -0.0868
 6116SOL    HW224230   4.748   4.138   5.010  2.4166  0.7763  0.0030
 6116SOL    HW324231   4.681   4.213   5.123 -1.0653  0.1387 -1.4745
 6116SOL    MW424232   4.734   4.150   5.095  0.1203 -0.6415 -0.5153
 6117SOL     OW24233   5.517   5.760   1.694 -0.0542 -0.3693  0.5070
 6117SOL    HW224234   5.465   5.763   1.614 -0.3553 -1.0039  0.6657
 6117SOL    HW324235   5.452   5.760   1.765  0.1842 -0.4258  0.7295
 6117SOL    MW424236   5.501   5.760   1.693 -0.8517  0.3399 -0.1976
 6118SOL     OW24237   4.467   0.151   3.397 -0.2747 -0.6245  0.3766
 6118SOL    HW224238   4.422   0.194   3.470 -1.4145 -1.3454  0.1366
 6118SOL    HW324239   4.532   0.214   3.367 -1.0617  0.4145  0.8201
 6118SOL    MW424240   4.470   0.165   3.403 -0.3273 -0.2901 -0.0202
 6119SOL     OW24241   1.426   4.488   2.103 -0.2891 -0.1265 -0.0690
 6119SOL    HW224242   1.363   4.551   2.068 -0.8234 -1.3930 -1.5108
 6119SOL    HW324243   1.373   4.427   2.154 -0.2916 -1.1736 -1.2554
 6119SOL    MW424244   1.410   4.488   2.105  0.1931  0.3213 -0.1559
 6120SOL     OW24245   0.631   4.324   4.185  0.1181 -0.1468 -0.1004
 6120SOL    HW224246   0.589   4.278   4.257  1.3221  1.1873  1.5252
 6120SOL    HW324247   0.591   4.286   4.106 -0.2882 -2.5735  1.1850
 6120SOL    MW424248   0.620   4.313   4.184  0.3449 -0.3088 -0.1336
 6121SOL     OW24249   4.399   0.965   0.472  0.4287  0.3998 -0.1606
 6121SOL    HW224250   4.468   0.974   0.538 -1.6513  0.4263  2.1709
 6121SOL    HW324251   4.373   0.873   0.476  0.0073  0.4918 -0.6343
 6121SOL    MW424252   4.404   0.954   0.481 -0.0546  0.4373 -0.0574
 6122SOL     OW24253   4.131   4.825   1.933 -0.2290  0.2223  0.1599
 6122SOL    HW224254   4.095   4.739   1.912  2.7132 -1.1700  0.2711
 6122SOL    HW324255   4.167   4.858   1.850 -1.0855  1.2546  0.1750
 6122SOL    MW424256   4.131   4.818   1.919 -0.2076  0.1335 -0.1832
 6123SOL     OW24257   2.151   5.833   4.529 -0.8481  0.0726  0.0393
 6123SOL    HW224258   2.223   5.782   4.492  1.2421  2.7179  0.1413
 6123SOL    HW324259   2.097   5.769   4.575  0.6808 -2.2151 -1.1637
 6123SOL    MW424260   2.153   5.818   4.530  0.6445  0.1161 -0.1210
 6124SOL     OW24261   5.718   0.017   0.859 -0.4739 -0.0167  0.7073
 6124SOL    HW224262   5.671  -0.063   0.837 -0.8440  0.0148  1.3335
 6124SOL    HW324263   5.767   0.039   0.781 -1.3860 -0.1480  0.0796
 6124SOL    MW424264   5.718   0.010   0.846  0.0597  0.0472  0.4591
 6125SOL     OW24265   5.374   4.050   2.967 -0.1017  0.1646 -0.3062
 6125SOL    HW224266   5.328   4.061   2.884 -0.5888  2.2480  0.1885
 6125SOL    HW324267   5.356   3.959   2.992  0.3740 -0.6149 -2.6195
 6125SOL    MW424268   5.365   4.039   2.960  0.0896 -0.0127  0.9004
 6126SOL     OW24269   4.780   0.103   0.996 -0.0160 -0.4165 -0.2702
 6126SOL    HW224270   4.808   0.015   1.024  0.2181 -0.7812 -1.5992
 6126SOL    HW324271   4.835   0.162   1.047 -0.2387 -1.0198  0.7145
 6126SOL    MW424272   4.791   0.099   1.007  0.8797 -0.9528  0.4353
 6127SOL     OW24273   4.070   1.147   2.014  0.3787  0.3758  0.4671
 6127SOL    HW224274   4.078   1.207   1.940  0.3597  0.0991  0.2403
 6127SOL    HW324275   3.984   1.165   2.050  0.6842  1.0386  0.8846
 6127SOL    MW424276   4.060   1.157   2.009  0.6458  0.3258  0.0971
 6128SOL     OW24277   5.944   1.076   5.497  0.2509  0.5616  0.2257
 6128SOL    HW224278   5.909   1.132   5.566 -0.9721 -0.1030  0.1838
 6128SOL    HW324279   5.868   1.056   5.442  0.2585 -2.3580  1.1105
 6128SOL    MW424280   5.929   1.080   5.498 -0.2295  0.3736 -0.5047
 6129SOL     OW24281   2.348   3.271   0.827  0.5119  0.0664 -0.4513
 6129SOL    HW224282   2.302   3.259   0.910 -0.2333  1.7585 -0.5768
 6129SOL    HW324283   2.361   3.183   0.793 -0.6833 -0.5609  0.6470
 6129SOL    MW424284   2.344   3.258   0.834 -0.2826 -0.1067 -0.1484
 6130SOL     OW24285   5.168   1.516   2.713  0.5499 -0.2921  0.4063
 6130SOL    HW224286   5.258   1.506   2.682 -0.3112 -1.2629 -2.0411
 6130SOL    HW324287   5.149   1.434   2.758  0.7193 -0.3014  0.4623
 6130SOL    MW424288   5.177   1.504   2.714 -0.0216 -0.1053 -0.7729
 6131SOL     OW24289   3.457   4.256   3.514 -0.8508 -0.0190 -0.2415
 6131SOL    HW224290   3.401   4.332   3.529  0.9095  1.2317  0.3626
 6131SOL    HW324291   3.429   4.192   3.580  0.1082  1.6054  1.8860
 6131SOL    MW424292   3.446   4.257   3.525  0.1785  0.2298  0.1249
 6132SOL     OW24293   3.334   4.393   0.411  0.5608 -0.6696  0.2750
 6132SOL    HW224294   3.275   4.393   0.335 -2.6916 -2.5762  2.5375
 6132SOL    HW324295   3.350   4.486   0.429 -3.6997  0.1610  0.7669
 6132SOL    MW424296   3.328   4.405   0.403  0.3879 -0.8236 -0.7620
 6133SOL     OW24297   4.156   4.628   1.093 -0.6772 -0.3696 -0.2293
 6133SOL    HW224298   4.168   4.628   0.998 -2.1841  0.0527 -0.4508
 6133SOL    HW324299   4.228   4.575   1.127 -0.4158 -0.9551 -1.6449
 6133SOL    MW424300   4.167   4.621   1.085  0.0413  0.3350  0.0366
 6134SOL     OW24301   2.714   4.823   3.688  0.2970 -0.1164  0.1840
 6134SOL    HW224302   2.644   4.830   3.623  0.6050  0.0505 -0.1381
 6134SOL    HW324303   2.714   4.908   3.733  0.0393 -0.2562  0.4508
 6134SOL    MW424304   2.705   4.835   3.685 -0.0334  0.1884 -0.7356
 6135SOL     OW24305   4.082   5.693   2.394  0.9534 -0.2580  0.2068
 6135SOL    HW224306   4.052   5.614   2.439 -0.8739 -0.0810 -0.5797
 6135SOL    HW324307   4.125   5.745   2.462  1.2235 -1.4476  0.9719
 6135SOL    MW424308   4.084   5.689   2.409  0.4858  0.6872 -0.4296
 6136SOL     OW24309   0.254   5.639   1.622  0.3677  0.2908  0.8694
 6136SOL    HW224310   0.309   5.631   1.545 -1.7919  0.2526 -0.7669
 6136SOL    HW324311   0.264   5.731   1.649 -0.4669  0.9433 -0.8398
 6136SOL    MW424312   0.262   5.650   1.615  0.2470  0.6260 -0.2576
 6137SOL     OW24313   1.424   4.826   2.845 -0.1825  0.0872  0.9865
 6137SOL    HW224314   1.404   4.797   2.756 -0.1242 -0.9504  1.2964
 6137SOL    HW324315   1.492   4.766   2.875 -0.9403 -0.2370  2.1043
 6137SOL    MW424316   1.431   4.814   2.837 -0.1993  0.2847 -0.4315
 6138SOL     OW24317   1.378   3.809   3.822 -0.1701  0.0237  0.0088
 6138SOL    HW224318   1.431   3.737   3.785 -1.0890 -0.4309 -0.4679
 6138SOL    HW324319   1.338   3.771   3.900 -0.0146  0.2847  0.2171
 6138SOL    MW424320   1.380   3.794   3.827  0.3578 -0.3475 -0.5734
 6139SOL     OW24321   0.117   0.594   3.443  0.4929  0.5649  0.4757
 6139SOL    HW224322   0.086   0.505   3.458 -0.1008  0.7039  0.1134
 6139SOL    HW324323   0.145   0.595   3.352 -0.4607  1.0177  0.1797
 6139SOL    MW424324   0.117   0.582   3.433 -0.4000 -0.4349  0.5920
 6140SOL     OW24325   0.349   3.247   1.334  0.4338  0.2724  0.0933
 6140SOL    HW224326   0.426   3.203   1.371  0.9127 -0.4780 -1.7091
 6140SOL    HW324327   0.278   3.223   1.393  1.3188 -0.1311  1.0350
 6140SOL    MW424328   0.350   3.238   1.347 -0.0770 -0.0028  0.0315
 6141SOL     OW24329   5.255   5.495   3.144 -0.5373 -0.0940  0.0360
 6141SOL    HW224330   5.249   5.405   3.113 -0.3415  0.0204 -0.3440
 6141SOL    HW324331   5.259   5.548   3.064 -0.9838  0.2767  0.2528
 6141SOL    MW424332   5.255   5.490   3.129 -0.1811  0.2041 -0.0137
 6142SOL     OW24333   4.249   0.803   1.807 -0.1141  0.0208  1.0104
 6142SOL    HW224334   4.191   0.868   1.847  0.8948  1.9310 -0.4598
 6142SOL    HW324335   4.209   0.719   1.830 -2.2368  1.1672  1.8675
 6142SOL    MW424336   4.236   0.801   1.815 -0.3438 -0.3386  0.0053
 6143SOL     OW24337   2.526   4.150   3.693  0.2377  0.0038 -0.2950
 6143SOL    HW224338   2.536   4.234   3.738  1.5999 -1.2297  1.8313
 6143SOL    HW324339   2.585   4.157   3.617 -0.2501  1.2249 -0.5876
 6143SOL    MW424340   2.535   4.162   3.689  0.2814 -0.5532 -0.2751
 6144SOL     OW24341   0.727   0.813   3.448  0.2761  0.1079  0.0712
 6144SOL    HW224342   0.663   0.884   3.441  0.5775  0.3835  0.1000
 6144SOL    HW324343   0.693   0.757   3.517 -0.8173 -0.6605 -1.0296
 6144SOL    MW424344   0.714   0.815   3.456 -0.0267  0.2906 -0.1340
 6145SOL     OW24345   0.658   4.035   0.916  0.5912 -0.2324  0.0985
 6145SOL    HW224346   0.734   4.060   0.864  0.6644 -0.1347  0.2501
 6145SOL    HW324347   0.693   3.974   0.981  0.6993  0.4418  0.6915
 6145SOL    MW424348   0.673   4.031   0.918  0.0774  0.5728 -0.1187
 6146SOL     OW24349   2.780   4.638   1.655  0.4804 -0.3921 -0.8380
 6146SOL    HW224350   2.815   4.686   1.580 -2.2552 -0.7245 -2.4677
 6146SOL    HW324351   2.779   4.547   1.627  1.8894 -0.9123  0.6848
 6146SOL    MW424352   2.784   4.633   1.641 -0.3906 -0.2214 -0.7528
 6147SOL     OW24353   0.760   0.215   4.456 -0.7493 -0.7918  0.1367
 6147SOL    HW224354   0.773   0.306   4.484 -1.1297 -0.6925 -0.0012
 6147SOL    HW324355   0.743   0.221   4.362  0.8245 -1.1502 -0.1970
 6147SOL    MW424356   0.760   0.228   4.448 -0.3215 -0.6714 -0.0320
 6148SOL     OW24357   1.263   6.037   0.404  0.7876 -0.3403  0.0417
 6148SOL    HW224358   1.178   5.992   0.399  0.2922  0.6926 -2.3549
 6148SOL    HW324359   1.325   5.968   0.427 -0.4570 -1.5082  0.0506
 6148SOL    MW424360   1.260   6.022   0.406  0.3722  0.1702 -0.5340
 6149SOL     OW24361   3.376   3.427   4.611  0.1635  0.5033 -0.0779
 6149SOL    HW224362   3.350   3.476   4.689 -0.1684  0.4363 -0.1432
 6149SOL    HW324363   3.295   3.385   4.582  0.4852 -0.2396  0.0881
 6149SOL    MW424364   3.362   3.428   4.618 -0.5320  0.4167 -0.4471
 6150SOL     OW24365   4.164   0.956   2.327 -0.4906  0.0726 -0.2465
 6150SOL    HW224366   4.146   1.047   2.303  0.0182  0.8234  2.0500
 6150SOL    HW324367   4.099   0.906   2.277 -2.8286  1.9422  0.7067
 6150SOL    MW424368   4.153   0.961   2.317 -0.0011  0.0168  0.3944
 6151SOL     OW24369   0.361   5.756   0.126 -0.1716  0.1854 -0.1840
 6151SOL    HW224370   0.368   5.685   0.062 -0.7864  0.6579 -0.7991
 6151SOL    HW324371   0.284   5.734   0.178  0.6753 -0.5064  0.8051
 6151SOL    MW424372   0.352   5.744   0.124  0.5826 -0.5743  0.2262
 6152SOL     OW24373   0.018   6.127   1.717 -0.3779 -0.4021  0.1794
 6152SOL    HW224374  -0.059   6.093   1.762  0.4497 -2.0696  0.4273
 6152SOL    HW324375   0.000   6.112   1.624 -1.0174  0.7158  0.1077
 6152SOL    MW424376   0.006   6.120   1.711  0.0737 -0.1297  0.3767
 6153SOL     OW24377   4.637   4.843   3.210  0.6646 -0.0784  0.9890
 6153SOL    HW224378   4.557   4.827   3.160  0.5167 -0.2054  1.2623
 6153SOL    HW324379   4.667   4.929   3.180  1.8447 -1.1218 -0.9754
 6153SOL    MW424380   4.630   4.853   3.199  0.0213  0.3568 -0.0610
 6154SOL     OW24381   6.129   4.269   1.954 -0.0814  0.3021 -0.4270
 6154SOL    HW224382   6.045   4.272   1.907  0.2117 -1.8349 -1.2129
 6154SOL    HW324383   6.116   4.326   2.029 -1.4442  1.8585 -1.7461
 6154SOL    MW424384   6.116   4.277   1.957 -0.4006 -0.0975 -0.2130
 6155SOL     OW24385   5.709   0.334   0.653 -0.1541 -0.2585  0.1216
 6155SOL    HW224386   5.623   0.375   0.650  0.0019  0.2623 -4.6945
 6155SOL    HW324387   5.694   0.251   0.699 -3.1239 -0.0481 -0.2812
 6155SOL    MW424388   5.696   0.328   0.659  0.6519  0.5596  0.0281
 6156SOL     OW24389   5.248   3.796   5.667  0.1576 -0.1587 -0.3752
 6156SOL    HW224390   5.185   3.746   5.720  0.8340 -2.2095 -1.3751
 6156SOL    HW324391   5.256   3.745   5.586  1.9702  0.8506 -0.8853
 6156SOL    MW424392   5.241   3.782   5.663 -0.8060 -0.4776  0.0903
 6157SOL     OW24393   5.485   0.173   6.207  0.0971 -0.0756 -0.3045
 6157SOL    HW224394   5.417   0.123   6.161  0.1276 -0.0458 -0.3831
 6157SOL    HW324395   5.565   0.124   6.193  0.1483  0.0551 -0.4806
 6157SOL    MW424396   5.486   0.160   6.199  0.1420  0.3229  0.3246
 6158SOL     OW24397   1.155   3.584   6.350 -0.2656  0.7295  0.0802
 6158SOL    HW224398   1.185   3.494   6.335  2.0957  1.5337 -0.3676
 6158SOL    HW324399   1.061   3.575   6.370 -0.2596 -1.7419 -0.6969
 6158SOL    MW424400   1.146   3.571   6.351 -0.2785  0.1152  0.3421
 6159SOL     OW24401   4.127   0.844   4.208  0.0919 -0.5415 -0.0092
 6159SOL    HW224402   4.092   0.855   4.119 -0.7446 -2.4266  0.0326
 6159SOL    HW324403   4.145   0.933   4.238 -0.6578  0.2090 -1.6534
 6159SOL    MW424404   4.125   0.857   4.200 -0.4982 -0.3354  0.1059
 6160SOL     OW24405   2.904   3.698   4.411  0.0491  0.0812 -0.4355
 6160SOL    HW224406   2.937   3.687   4.500  1.0006 -0.3673 -0.8203
 6160SOL    HW324407   2.809   3.695   4.419  0.0317  2.4390  0.8584
 6160SOL    MW424408   2.896   3.696   4.423  0.5108 -0.2042  0.0461
 6161SOL     OW24409   0.613   1.433   2.046  0.3418  0.3732  0.5407
 6161SOL    HW224410   0.607   1.389   2.131  1.4490 -1.6705 -0.3526
 6161SOL    HW324411   0.707   1.448   2.033  0.0576  2.3585  0.4364
 6161SOL    MW424412   0.625   1.429   2.055  0.3300  0.0637  0.3463
 6162SOL     OW24413   0.291   2.395   6.355 -0.9699  0.3938  0.1647
 6162SOL    HW224414   0.279   2.301   6.347 -2.1248  0.6866 -3.2955
 6162SOL    HW324415   0.386   2.408   6.346 -0.5953 -0.4244  2.2459
 6162SOL    MW424416   0.302   2.385   6.353 -0.4188 -0.5697  0.4808
 6163SOL     OW24417   0.040   6.164   5.761 -0.5490  0.3302  0.2444
 6163SOL    HW224418   0.132   6.154   5.783 -0.3765  3.2603  1.3588
 6163SOL    HW324419   0.038   6.229   5.691 -1.7545  1.1617  0.9865
 6163SOL    MW424420   0.052   6.172   5.755 -0.0955 -0.1229 -0.1158
 6164SOL     OW24421   4.652   0.796   3.656 -0.1601 -0.3412 -0.0453
 6164SOL    HW224422   4.732   0.812   3.606 -0.4773  0.2261 -0.3734
 6164SOL    HW324423   4.630   0.704   3.637  0.3259 -0.4553 -0.0675
 6164SOL    MW424424   4.659   0.786   3.647  0.1256 -0.5275  0.2383
 6165SOL     OW24425   0.077   1.937   0.933 -0.3225 -0.3344 -0.2376
 6165SOL    HW224426   0.076   1.911   1.025  0.1533 -2.9386 -0.8868
 6165SOL    HW324427   0.087   1.855   0.885  0.5931  1.0454 -2.5843
 6165SOL    MW424428   0.078   1.923   0.939  0.0571 -0.1162 -0.5529
 6166SOL     OW24429   1.817   4.007   1.886  0.3493  0.2748  0.0431
 6166SOL    HW224430   1.829   4.009   1.792 -0.6245  0.4898 -0.0879
 6166SOL    HW324431   1.723   4.023   1.899  0.3584 -0.3470  1.0125
 6166SOL    MW424432   1.806   4.009   1.876 -0.4590  0.3567  0.3032
 6167SOL     OW24433   0.937   1.742   3.840  0.1143 -0.2908 -0.0173
 6167SOL    HW224434   0.899   1.658   3.866  2.5991 -0.8911  1.9485
 6167SOL    HW324435   0.913   1.802   3.910  1.5335 -0.3449  0.5469
 6167SOL    MW424436   0.929   1.739   3.852 -0.0422  0.3881  0.1550
 6168SOL     OW24437   0.476   3.410   1.666  0.3055 -0.0466 -0.2235
 6168SOL    HW224438   0.543   3.343   1.650  1.5200  1.0772  0.0437
 6168SOL    HW324439   0.481   3.468   1.590  1.2997  1.3886  0.8976
 6168SOL    MW424440   0.485   3.409   1.654 -0.2871 -0.2172  0.6696
 6169SOL     OW24441   3.118   3.308   0.745  0.5600  0.3605 -0.0875
 6169SOL    HW224442   3.059   3.286   0.817  0.1054  1.3984 -0.1387
 6169SOL    HW324443   3.175   3.376   0.781  1.7840 -0.6430 -0.0232
 6169SOL    MW424444   3.118   3.314   0.759  0.1538 -0.2185 -0.4829
 6170SOL     OW24445   4.088   1.836   4.060  0.7871  0.3221  0.4249
 6170SOL    HW224446   4.004   1.850   4.016  0.3708 -2.7017  0.0451
 6170SOL    HW324447   4.148   1.810   3.989  1.4116  0.1421  1.0104
 6170SOL    MW424448   4.085   1.835   4.045 -0.1034 -0.4663 -0.2645
 6171SOL     OW24449   4.228   2.693   4.854  0.4255  0.5993 -0.1749
 6171SOL    HW224450   4.223   2.728   4.765 -1.1630 -1.1166 -0.8124
 6171SOL    HW324451   4.203   2.601   4.845  0.8160  0.2419  1.9747
 6171SOL    MW424452   4.224   2.686   4.841  0.4966  0.4396 -1.0283
 6172SOL     OW24453   6.306   2.813   4.655 -0.2961  0.3479  0.1365
 6172SOL    HW224454   6.211   2.817   4.657 -0.2914  2.6557 -1.0726
 6172SOL    HW324455   6.327   2.752   4.584 -0.8470 -0.4134  0.6182
 6172SOL    MW424456   6.296   2.805   4.646 -0.7479 -0.0050 -0.9056
 6173SOL     OW24457   4.766   4.089   1.851  0.0713 -0.0398 -0.1757
 6173SOL    HW224458   4.728   4.028   1.788  1.8839 -0.3800 -1.0175
 6173SOL    HW324459   4.705   4.163   1.852 -1.8451 -1.5329  0.3967
 6173SOL    MW424460   4.753   4.091   1.843  0.1170  0.2677  0.1086
 6174SOL     OW24461   0.191   3.355   3.241  0.4241 -0.6722 -0.7482
 6174SOL    HW224462   0.097   3.342   3.230  0.3056 -0.6645  0.1849
 6174SOL    HW324463   0.202   3.377   3.334  1.6171 -3.3217 -0.1738
 6174SOL    MW424464   0.180   3.356   3.252  0.1066  0.4540  0.0087
 6175SOL     OW24465   6.101   5.945   5.201  0.0951  0.4257 -0.2601
 6175SOL    HW224466   6.024   5.961   5.256  0.5390 -0.1283  0.5463
 6175SOL    HW324467   6.175   5.958   5.260  0.6476  1.3855 -1.1318
 6175SOL    MW424468   6.101   5.949   5.216 -0.3016 -0.5587 -0.0483
 6176SOL     OW24469   3.212   1.637   4.786 -0.3073 -0.3056  0.0455
 6176SOL    HW224470   3.301   1.661   4.760  0.5536 -1.5586  1.6346
 6176SOL    HW324471   3.217   1.544   4.806 -1.5145 -0.0432  1.8759
 6176SOL    MW424472   3.225   1.628   4.785  0.1981  0.3042 -0.6139
 6177SOL     OW24473   5.272   5.809   1.920  0.1303 -0.4669 -0.6143
 6177SOL    HW224474   5.211   5.789   1.990 -0.9146 -0.2614 -1.4468
 6177SOL    HW324475   5.337   5.866   1.961  1.2480 -2.6822  0.9243
 6177SOL    MW424476   5.273   5.814   1.934  0.4487 -0.2027 -0.1300
 6178SOL     OW24477   0.266   4.694   3.775  0.4581  0.6656  0.1980
 6178SOL    HW224478   0.209   4.740   3.837  0.3039 -0.4157  0.8826
 6178SOL    HW324479   0.345   4.674   3.826  0.8543  0.8819 -0.3276
 6178SOL    MW424480   0.269   4.698   3.790  0.1073  0.2244 -0.1626
 6179SOL     OW24481   1.372   6.203   4.387 -0.3264  0.6212  0.1430
 6179SOL    HW224482   1.314   6.211   4.311  1.9318  0.3705 -1.7285
 6179SOL    HW324483   1.405   6.113   4.381 -0.5647  0.3969  1.8295
 6179SOL    MW424484   1.369   6.192   4.376  0.3122  0.0625  0.1374
 6180SOL     OW24485   4.362   4.490   1.199  0.4267  0.3482  0.6315
 6180SOL    HW224486   4.350   4.407   1.244 -0.4087  1.2165  2.1006
 6180SOL    HW324487   4.443   4.526   1.234  0.5371  0.3691  0.3591
 6180SOL    MW424488   4.371   4.484   1.209  0.5766 -0.6646 -0.0370
 6181SOL     OW24489   4.166   4.632   0.127 -0.2100  0.4316  0.0354
 6181SOL    HW224490   4.204   4.618   0.040 -0.6082  0.9428 -0.2294
 6181SOL    HW324491   4.232   4.684   0.173  0.0273  0.1116  0.0597
 6181SOL    MW424492   4.180   4.637   0.121  0.4535  0.4366  0.5715
 6182SOL     OW24493   0.879   5.467   0.869 -0.4257 -0.2433 -0.5988
 6182SOL    HW224494   0.828   5.409   0.926 -1.5404  1.2857  0.0245
 6182SOL    HW324495   0.814   5.511   0.814  0.1353  1.8858  0.3207
 6182SOL    MW424496   0.864   5.465   0.869 -0.3299  0.0404 -0.3756
 6183SOL     OW24497   3.889   2.033   4.513  0.1812  0.2012  0.3056
 6183SOL    HW224498   3.817   1.971   4.503 -0.1824  0.4763  1.1442
 6183SOL    HW324499   3.968   1.979   4.504 -0.1185 -0.0467 -0.9209
 6183SOL    MW424500   3.890   2.018   4.511 -0.2078  0.5983 -0.3789
 6184SOL     OW24501   5.043   2.585   4.306 -0.0836 -0.3954  0.5038
 6184SOL    HW224502   5.012   2.633   4.230  0.7716  1.4559  1.2512
 6184SOL    HW324503   5.077   2.503   4.271 -0.6152 -0.0213 -0.9616
 6184SOL    MW424504   5.043   2.580   4.292  0.6976  0.0089  0.2380
 6185SOL     OW24505   2.095   5.302   5.348 -0.2039  0.1068  0.4696
 6185SOL    HW224506   2.018   5.295   5.403  0.3369  0.9159  1.3622
 6185SOL    HW324507   2.169   5.298   5.409  0.3951  1.6298 -0.1021
 6185SOL    MW424508   2.095   5.301   5.363  0.3342 -0.5188 -0.0698
 6186SOL     OW24509   2.867   3.860   1.282 -0.4683  0.1817  0.2567
 6186SOL    HW224510   2.887   3.923   1.351  0.3743 -0.6599  0.8122
 6186SOL    HW324511   2.953   3.833   1.250 -0.8549  0.5995 -1.1704
 6186SOL    MW424512   2.881   3.865   1.287  0.5277 -1.0534 -0.3671
 6187SOL     OW24513   1.903   3.094   1.815  0.2056 -0.2071 -0.4697
 6187SOL    HW224514   1.986   3.127   1.779 -1.0089  1.6117 -1.8066
 6187SOL    HW324515   1.840   3.107   1.744 -1.5633 -0.0246  1.0687
 6187SOL    MW424516   1.906   3.100   1.801 -0.6431 -0.0573 -0.0211
 6188SOL     OW24517   2.930   3.064   0.383 -0.0427  0.1437 -0.0815
 6188SOL    HW224518   2.848   3.015   0.383  0.0817 -0.0765 -1.0948
 6188SOL    HW324519   2.960   3.062   0.292 -0.0121  2.0622 -0.1615
 6188SOL    MW424520   2.923   3.058   0.371 -0.1363 -0.2465 -0.1301
 6189SOL     OW24521   0.763   3.975   3.696  0.1649  0.3739  0.1358
 6189SOL    HW224522   0.839   3.931   3.658 -0.1085 -0.4113  0.4786
 6189SOL    HW324523   0.773   3.963   3.791 -0.2086  0.5524  0.1991
 6189SOL    MW424524   0.774   3.968   3.704 -0.7919  0.2792  0.2373
 6190SOL     OW24525   0.382   0.417   5.097  0.0181  0.8612  0.4890
 6190SOL    HW224526   0.374   0.474   5.174 -0.0641  0.2064  0.9794
 6190SOL    HW324527   0.308   0.442   5.041 -0.1228  1.1175  0.7832
 6190SOL    MW424528   0.371   0.428   5.100  0.1821 -0.0736  1.3830
 6191SOL     OW24529   2.281   2.126   1.695  0.8113 -0.0208  0.5106
 6191SOL    HW224530   2.287   2.218   1.669 -0.3009 -0.0570  0.0678
 6191SOL    HW324531   2.363   2.108   1.741 -0.1562  2.0008  3.2312
 6191SOL    MW424532   2.293   2.136   1.697  0.0888 -0.0258  0.0169
 6192SOL     OW24533   3.127   0.536   5.334  0.2275 -0.4013  0.4230
 6192SOL    HW224534   3.080   0.585   5.402  0.0884 -0.3764  0.3077
 6192SOL    HW324535   3.160   0.458   5.379 -0.6163 -0.8239  0.3101
 6192SOL    MW424536   3.125   0.532   5.349  0.2746 -0.0635 -0.2185
 6193SOL     OW24537   4.621   4.952   1.285 -0.7113  0.1065 -0.0461
 6193SOL    HW224538   4.594   4.891   1.354 -2.2393 -1.0621 -1.5810
 6193SOL    HW324539   4.549   5.015   1.279 -0.4904  0.3297 -0.4014
 6193SOL    MW424540   4.608   4.952   1.293 -0.5742 -0.0597  1.1713
 6194SOL     OW24541   5.854   5.671   0.726  0.0252 -0.0649 -0.2329
 6194SOL    HW224542   5.897   5.589   0.703  0.2911  0.1456 -0.5009
 6194SOL    HW324543   5.766   5.664   0.688 -0.8840 -1.2802  1.9042
 6194SOL    MW424544   5.848   5.659   0.718 -0.2178 -0.5053 -0.3721
 6195SOL     OW24545   2.210   4.583   5.592  0.3764 -0.3722  0.3406
 6195SOL    HW224546   2.253   4.650   5.646 -1.0621 -0.2530  1.4098
 6195SOL    HW324547   2.241   4.500   5.628  1.1529 -0.2917 -0.1291
 6195SOL    MW424548   2.219   4.581   5.604  0.4274  0.3158 -0.1157
 6196SOL     OW24549   2.610   5.346   3.562  0.4934  0.2620 -0.7098
 6196SOL    HW224550   2.668   5.400   3.509  0.2587  0.2813 -0.9415
 6196SOL    HW324551   2.558   5.408   3.613  1.6224  0.2565  0.5410
 6196SOL    MW424552   2.611   5.361   3.562  0.0341 -0.2509  0.3418
 6197SOL     OW24553   0.778   5.794   2.129  0.4444  0.1585  0.0592
 6197SOL    HW224554   0.872   5.805   2.111  0.5764  0.4643  0.8866
 6197SOL    HW324555   0.761   5.702   2.110  0.9511  0.0633  0.0445
 6197SOL    MW424556   0.788   5.783   2.125 -0.4201 -0.3025 -0.3620
 6198SOL     OW24557   1.247   4.245   1.889 -0.0830  0.6978  0.4965
 6198SOL    HW224558   1.204   4.231   1.974 -0.1337 -2.4209  0.0546
 6198SOL    HW324559   1.340   4.250   1.910 -0.1123  0.1537  0.7721
 6198SOL    MW424560   1.253   4.244   1.903  0.1049  0.3416  0.2719
 6199SOL     OW24561   1.795   0.558   5.593 -0.0165  0.2068 -0.0659
 6199SOL    HW224562   1.705   0.551   5.624  0.1668 -0.2903  0.3694
 6199SOL    HW324563   1.818   0.650   5.606 -1.5428  1.1854 -3.2749
 6199SOL    MW424564   1.786   0.569   5.599 -0.4070 -0.4460 -0.6686
 6200SOL     OW24565   3.045   4.272   3.230  0.5569 -0.3863  0.3141
 6200SOL    HW224566   2.974   4.337   3.223  1.7920  1.0971  1.0482
 6200SOL    HW324567   3.118   4.312   3.183  1.2317 -1.4364  0.4494
 6200SOL    MW424568   3.045   4.286   3.222  0.2714  0.0948  0.1275
 6201SOL     OW24569   4.092   5.106   1.564  0.5272 -0.5138 -0.0383
 6201SOL    HW224570   3.999   5.102   1.587  0.0014  0.0038 -1.9651
 6201SOL    HW324571   4.094   5.100   1.469  2.4301  0.3794 -0.0984
 6201SOL    MW424572   4.080   5.104   1.555 -0.6284  0.5996  0.3856
 6202SOL     OW24573   2.561   5.852   2.494 -0.2933 -0.1984 -0.2384
 6202SOL    HW224574   2.562   5.895   2.579  0.8002  1.5058 -1.0756
 6202SOL    HW324575   2.510   5.910   2.438 -1.0827 -1.3516 -0.7551
 6202SOL    MW424576   2.554   5.865   2.498  0.0911 -0.1227  0.1736
 6203SOL     OW24577   1.775   4.877   6.090  0.2224  0.1261 -0.0708
 6203SOL    HW224578   1.802   4.913   6.174 -0.1437  0.0222  0.0955
 6203SOL    HW324579   1.801   4.943   6.026 -0.7328  0.8580  0.2594
 6203SOL    MW424580   1.782   4.890   6.092  0.1182 -0.1726 -0.1349
 6204SOL     OW24581   6.347   1.296   3.350  1.0120  0.0324  0.1745
 6204SOL    HW224582   6.382   1.368   3.297 -2.0585  2.3312  0.9974
 6204SOL    HW324583   6.269   1.267   3.303 -0.1191  0.1075  1.9155
 6204SOL    MW424584   6.342   1.301   3.337 -0.2064 -0.0150 -0.5322
 6205SOL     OW24585   1.789   1.868   3.399  0.3829  0.2720 -0.1495
 6205SOL    HW224586   1.884   1.860   3.398  0.2701 -1.4301 -0.2840
 6205SOL    HW324587   1.767   1.902   3.312  0.7346 -1.7968 -1.1047
 6205SOL    MW424588   1.799   1.871   3.387  0.0002  0.2335  0.2582
 6206SOL     OW24589   1.948   3.254   4.661 -0.6648 -0.4524  0.3217
 6206SOL    HW224590   1.951   3.158   4.660 -1.5070 -0.4919 -0.5040
 6206SOL    HW324591   2.018   3.280   4.720  0.2621 -1.5598 -0.2446
 6206SOL    MW424592   1.958   3.245   4.668  0.1360  0.0772 -0.1913
 6207SOL     OW24593   3.472   6.096   0.511 -0.0654 -0.0018 -0.0982
 6207SOL    HW224594   3.566   6.111   0.513  0.1498 -1.2186  2.2237
 6207SOL    HW324595   3.460   6.023   0.451  0.5081 -0.0478 -0.1603
 6207SOL    MW424596   3.483   6.088   0.503  0.1121 -0.2357 -0.1928
 6208SOL     OW24597   0.432   5.535   3.124  0.2063 -0.2842 -0.0776
 6208SOL    HW224598   0.425   5.611   3.182  0.5059 -0.8920  0.7805
 6208SOL    HW324599   0.486   5.565   3.052 -0.4629  0.5976 -0.2331
 6208SOL    MW424600   0.438   5.549   3.122  0.1212 -0.0035  0.3216
 6209SOL     OW24601   2.812   6.189   0.960  0.4279 -0.0977  0.5800
 6209SOL    HW224602   2.731   6.235   0.981  0.7044  0.4162  0.5170
 6209SOL    HW324603   2.783   6.111   0.912 -0.1541 -0.8308  2.0589
 6209SOL    MW424604   2.797   6.185   0.956  0.6625  0.1997  0.3555
 6210SOL     OW24605   1.927   1.261   1.329 -0.1443  0.2705  0.0361
 6210SOL    HW224606   1.887   1.191   1.278 -3.7491  0.9782  1.5737
 6210SOL    HW324607   1.944   1.220   1.414 -3.3770  1.3223  1.3454
 6210SOL    MW424608   1.924   1.246   1.334  0.3375  0.6681 -0.3200
 6211SOL     OW24609   2.048   1.463   3.128 -0.4164 -0.8007  0.0850
 6211SOL    HW224610   2.096   1.472   3.210 -0.4195 -0.9477  0.1032
 6211SOL    HW324611   1.972   1.521   3.138 -0.0015 -0.2084 -0.1267
 6211SOL    MW424612   2.044   1.472   3.140  0.0576  0.1612 -0.1554
 6212SOL     OW24613   6.222   0.776   1.270 -0.3762 -0.5452  0.3662
 6212SOL    HW224614   6.245   0.757   1.361  1.3402  0.1581  0.1272
 6212SOL    HW324615   6.295   0.830   1.238 -1.2750 -0.2127 -1.2252
 6212SOL    MW424616   6.235   0.781   1.278  0.0017  0.0594  0.6486
 6213SOL     OW24617   1.170   2.670   3.734  0.2796  0.2039  0.0239
 6213SOL    HW224618   1.263   2.648   3.724  0.7985  2.3995 -0.8150
 6213SOL    HW324619   1.166   2.722   3.814  0.1774  1.6708 -0.8729
 6213SOL    MW424620   1.182   2.674   3.743 -0.0154 -0.4004 -0.3821
 6214SOL     OW24621   2.532   4.241   4.080 -1.3789  0.0320  0.3433
 6214SOL    HW224622   2.597   4.219   4.014 -0.7345  1.9028  0.2906
 6214SOL    HW324623   2.448   4.238   4.034 -1.0849 -0.1714 -0.1783
 6214SOL    MW424624   2.529   4.238   4.065 -0.0798  0.0735  0.0434
 6215SOL     OW24625   4.165   1.632   5.324  0.5546  0.1284  0.6940
 6215SOL    HW224626   4.188   1.630   5.417  0.5324  1.6533  0.7595
 6215SOL    HW324627   4.089   1.574   5.317  1.0541 -0.6405  1.4630
 6215SOL    MW424628   4.158   1.624   5.335 -0.4571 -0.2852 -0.3350
 6216SOL     OW24629   5.583   0.400   1.399 -0.9872  0.6655 -0.4764
 6216SOL    HW224630   5.678   0.389   1.394 -1.1267 -0.8336 -0.3868
 6216SOL    HW324631   5.570   0.491   1.424  0.4216  0.9408 -0.6898
 6216SOL    MW424632   5.593   0.410   1.402  0.8740 -0.1708 -0.1540
 6217SOL     OW24633   6.144   6.289   5.704  0.1821 -0.4849 -0.0645
 6217SOL    HW224634   6.081   6.362   5.709 -0.9398 -1.4087 -0.2339
 6217SOL    HW324635   6.189   6.291   5.788 -0.1521  0.1452  0.1076
 6217SOL    MW424636   6.141   6.299   5.716 -0.0660  0.0519 -0.3444
 6218SOL     OW24637   2.250   1.342   2.856 -0.4597 -0.0082  0.4243
 6218SOL    HW224638   2.221   1.433   2.847  0.4492  0.2046 -0.4952
 6218SOL    HW324639   2.177   1.290   2.824  0.4442  0.5431 -2.8650
 6218SOL    MW424640   2.237   1.347   2.851 -0.0952 -0.1267 -0.5568
 6219SOL     OW24641   4.799   1.019   0.164  0.3059  0.4003 -0.4757
 6219SOL    HW224642   4.710   1.007   0.199  0.8672  0.3111  1.0028
 6219SOL    HW324643   4.797   0.978   0.078 -0.7766 -0.6386  0.0223
 6219SOL    MW424644   4.787   1.012   0.157  0.0090  0.7687  0.2697
 6220SOL     OW24645   2.806   3.608   5.931 -0.0560  0.8749 -0.4119
 6220SOL    HW224646   2.740   3.541   5.951 -0.4047  1.6947  1.4540
 6220SOL    HW324647   2.877   3.590   5.992  0.6032  1.1820 -1.0758
 6220SOL    MW424648   2.807   3.597   5.942  0.1472  0.2860  0.3173
 6221SOL     OW24649   0.681   4.701   1.967 -0.2509 -0.1121  0.1413
 6221SOL    HW224650   0.616   4.771   1.974  0.1802  0.3048  0.0392
 6221SOL    HW324651   0.759   4.736   2.011 -1.1185 -1.9005  3.4578
 6221SOL    MW424652   0.683   4.715   1.974  0.0323 -0.5950  0.5557
 6222SOL     OW24653   2.213   3.222   1.068  0.3040 -0.3722  0.1532
 6222SOL    HW224654   2.178   3.309   1.089  0.6130 -0.3369  0.5179
 6222SOL    HW324655   2.260   3.195   1.146 -0.7565 -1.3722  0.4622
 6222SOL    MW424656   2.215   3.230   1.081 -0.1554  0.6453  0.2149
 6223SOL     OW24657   5.798   2.377   2.636 -0.3179 -0.0972 -0.4684
 6223SOL    HW224658   5.748   2.384   2.554 -0.9756 -3.3216 -0.4681
 6223SOL    HW324659   5.738   2.409   2.703 -0.7852  0.0735 -0.9570
 6223SOL    MW424660   5.783   2.382   2.634 -0.3796 -0.0292 -0.3766
 6224SOL     OW24661   1.518   0.452   1.705  0.6651 -0.5467  0.2081
 6224SOL    HW224662   1.490   0.460   1.613  0.3262  1.7932  0.4688
 6224SOL    HW324663   1.473   0.523   1.750  3.1463  0.2392  1.6275
 6224SOL    MW424664   1.508   0.462   1.699  0.0823 -0.4519 -0.1418
 6225SOL     OW24665   0.174   3.990   3.417  0.0103  0.5921  0.1143
 6225SOL    HW224666   0.236   3.972   3.346 -1.8421 -0.3449 -1.3723
 6225SOL    HW324667   0.214   4.062   3.466  1.2619  1.5052 -2.0759
 6225SOL    MW424668   0.188   3.997   3.414 -0.3737 -0.0227 -0.8954
 6226SOL     OW24669   0.500   5.296   4.227  0.3314 -0.7795 -0.7528
 6226SOL    HW224670   0.585   5.320   4.264  0.4292 -2.4984  0.2537
 6226SOL    HW324671   0.476   5.216   4.273 -0.8478 -1.5092 -2.5413
 6226SOL    MW424672   0.508   5.289   4.238 -0.0991 -0.7372  0.4475
 6227SOL     OW24673   3.951   3.521   5.503 -0.0321  0.0360  0.2902
 6227SOL    HW224674   3.875   3.496   5.451  0.8122 -1.5797 -0.2212
 6227SOL    HW324675   3.914   3.569   5.578 -1.4804 -0.1095 -0.2966
 6227SOL    MW424676   3.936   3.524   5.506  0.0990  0.3493 -0.4350
 6228SOL     OW24677   3.745   2.514   2.189  0.3122 -0.0900  0.0287
 6228SOL    HW224678   3.772   2.450   2.255  2.2229  0.1582 -0.4593
 6228SOL    HW324679   3.810   2.584   2.195 -0.7742  1.0141 -0.6065
 6228SOL    MW424680   3.757   2.515   2.198  0.1837  0.0990 -0.3785
 6229SOL     OW24681   4.339   2.722   5.683 -0.2780 -0.1867 -0.6028
 6229SOL    HW224682   4.332   2.757   5.772 -2.7211  1.6789 -1.4022
 6229SOL    HW324683   4.432   2.724   5.663  0.3833 -1.0169  2.0059
 6229SOL    MW424684   4.350   2.727   5.692  0.7602 -0.1074 -0.0958
 6230SOL     OW24685   0.604   2.538   2.367 -0.1154 -0.4996  0.0921
 6230SOL    HW224686   0.634   2.546   2.458  1.1093  2.4407 -0.4638
 6230SOL    HW324687   0.661   2.472   2.329  0.1424 -0.9090  1.1430
 6230SOL    MW424688   0.615   2.530   2.374 -0.3545  0.0779  0.1714
 6231SOL     OW24689   2.009   0.394   3.294 -0.8195 -0.5376 -0.1902
 6231SOL    HW224690   2.016   0.340   3.215 -0.3075  0.4570 -0.8317
 6231SOL    HW324691   2.030   0.483   3.266 -0.0764 -0.2431  1.1687
 6231SOL    MW424692   2.013   0.398   3.280 -0.0930  0.2395  0.0860
 6232SOL     OW24693   3.010   2.530   1.642 -0.3430  0.5165  0.3440
 6232SOL    HW224694   3.071   2.475   1.691 -1.2898  0.3530  1.3733
 6232SOL    HW324695   3.064   2.572   1.575  1.1903  1.4900  2.1269
 6232SOL    MW424696   3.025   2.528   1.639 -0.8381  0.2104  0.2459
 6233SOL     OW24697   4.944   1.469   5.623 -0.1280 -0.1453  0.7777
 6233SOL    HW224698   5.000   1.520   5.564 -1.1594 -1.7232 -1.7096
 6233SOL    HW324699   4.999   1.455   5.701  1.3006  1.9936  0.2497
 6233SOL    MW424700   4.959   1.474   5.626  0.1156 -0.0614  0.5168
 6234SOL     OW24701   5.358   2.988   2.718  0.4677  0.2024 -0.4802
 6234SOL    HW224702   5.409   3.002   2.798 -0.8606  4.0231 -0.1181
 6234SOL    HW324703   5.416   3.015   2.647  0.7137 -0.6013 -0.5991
 6234SOL    MW424704   5.372   2.993   2.719  0.1589 -0.5063 -0.0434
 6235SOL     OW24705   2.706   4.180   3.459  0.1951 -0.2461 -0.9282
 6235SOL    HW224706   2.796   4.149   3.451  0.6205  1.2434 -2.3061
 6235SOL    HW324707   2.657   4.129   3.395  0.0189 -1.1294 -0.1067
 6235SOL    MW424708   2.711   4.170   3.450 -0.9914 -0.4170  0.1423
 6236SOL     OW24709   1.022   1.850   0.339  0.1025 -0.8118  0.7699
 6236SOL    HW224710   1.112   1.869   0.310  0.1247 -0.3993  1.0938
 6236SOL    HW324711   1.033   1.812   0.427 -0.1308  1.1426  1.6875
 6236SOL    MW424712   1.035   1.847   0.347  0.0443  0.4957  0.2549
 6237SOL     OW24713   0.186   0.941   5.363 -0.0544 -0.3774  0.2022
 6237SOL    HW224714   0.263   0.978   5.404  0.1548 -0.4127 -0.1567
 6237SOL    HW324715   0.212   0.925   5.272 -0.9563  1.0957 -0.3570
 6237SOL    MW424716   0.199   0.944   5.357 -0.7210 -0.5030  0.2035
 6238SOL     OW24717   6.374   0.374   3.537  0.1133  0.3846  0.0246
 6238SOL    HW224718   6.299   0.379   3.597  1.2563 -1.6823  1.7564
 6238SOL    HW324719   6.336   0.344   3.455 -1.2710  1.7001  0.1302
 6238SOL    MW424720   6.359   0.370   3.534 -0.2051 -0.2095 -0.0840
 6239SOL     OW24721   0.573   3.326   5.802 -0.3845  0.0735  0.1184
 6239SOL    HW224722   0.581   3.238   5.766 -1.7248 -0.0246  0.0257
 6239SOL    HW324723   0.597   3.384   5.729  0.0385 -0.1909  0.0417
 6239SOL    MW424724   0.577   3.322   5.788 -0.4717  0.1005  0.5936
 6240SOL     OW24725   4.452   0.971   1.183  0.9785 -0.4550 -0.1530
 6240SOL    HW224726   4.479   0.882   1.160  2.9405  0.7617 -3.3078
 6240SOL    HW324727   4.460   1.020   1.101  0.3813  2.7337  1.5363
 6240SOL    MW424728   4.457   0.965   1.169  0.2266  0.8778 -0.3122
 6241SOL     OW24729   0.703   0.884   0.643 -0.1837 -0.2374  0.2553
 6241SOL    HW224730   0.691   0.979   0.642 -1.2492 -0.3543  0.3980
 6241SOL    HW324731   0.627   0.850   0.596  1.7950 -0.8939 -2.7863
 6241SOL    MW424732   0.691   0.892   0.637  0.6129 -0.2206  0.1580
 6242SOL     OW24733   3.759   3.511   3.530  0.5582  0.0373 -0.0444
 6242SOL    HW224734   3.806   3.583   3.489 -0.7559  1.7724  1.3085
 6242SOL    HW324735   3.800   3.501   3.616 -0.3029  0.2953  0.4073
 6242SOL    MW424736   3.770   3.519   3.536 -0.2831 -0.4359  0.1006
 6243SOL     OW24737   2.440   1.150   2.965  0.1505 -0.5663  0.4467
 6243SOL    HW224738   2.390   1.228   2.941 -1.3540 -1.0554  1.8112
 6243SOL    HW324739   2.532   1.178   2.963 -0.3172  1.0410  0.2938
 6243SOL    MW424740   2.446   1.164   2.962 -0.6970  0.4374 -0.0376
 6244SOL     OW24741   1.186   2.636   1.807  0.1611  0.2934 -0.4979
 6244SOL    HW224742   1.097   2.643   1.841  1.0601 -0.0606  2.1464
 6244SOL    HW324743   1.194   2.544   1.781 -0.3945  0.4562 -1.2826
 6244SOL    MW424744   1.175   2.625   1.808 -0.1711  0.2341  0.2686
 6245SOL     OW24745   5.408   2.853   0.723  0.6760 -0.3244  0.2684
 6245SOL    HW224746   5.333   2.800   0.749 -0.1711  0.5358 -0.3478
 6245SOL    HW324747   5.400   2.861   0.628  3.0012 -2.3402 -0.1957
 6245SOL    MW424748   5.397   2.847   0.714 -0.3679  0.8345  0.3802
 6246SOL     OW24749   4.412   4.171   5.106 -0.3855  0.7332  0.3191
 6246SOL    HW224750   4.375   4.183   5.019 -0.8841  0.1810  0.4439
 6246SOL    HW324751   4.438   4.079   5.109 -3.1236 -0.1260  1.7296
 6246SOL    MW424752   4.411   4.160   5.095 -0.2562 -0.2586 -0.0582
 6247SOL     OW24753   1.842   4.569   4.038 -0.0666  0.4044 -0.2106
 6247SOL    HW224754   1.822   4.663   4.044  0.5111  0.6164 -1.3048
 6247SOL    HW324755   1.937   4.564   4.042 -0.1096 -0.1662  0.1769
 6247SOL    MW424756   1.852   4.581   4.039  0.2236  0.4095  0.2945
 6248SOL     OW24757   4.675   0.155   4.024 -0.3074 -0.1551 -0.0746
 6248SOL    HW224758   4.769   0.150   4.010 -0.5748 -0.2689 -2.1546
 6248SOL    HW324759   4.641   0.072   3.989 -1.2627  0.2808 -0.2221
 6248SOL    MW424760   4.683   0.143   4.018 -0.0039  0.4198  0.1518
 6249SOL     OW24761   3.316   1.229   5.127  0.4458 -0.2042  0.2576
 6249SOL    HW224762   3.282   1.305   5.174 -1.2152  0.9065 -2.4619
 6249SOL    HW324763   3.407   1.252   5.107 -0.0930  1.2531 -0.7191
 6249SOL    MW424764   3.323   1.242   5.130  0.1303  0.3314 -0.0262
 6250SOL     OW24765   2.687   2.277   1.511 -0.4787 -0.2159  0.1072
 6250SOL    HW224766   2.645   2.192   1.525  0.7617 -0.9940 -0.6306
 6250SOL    HW324767   2.710   2.276   1.418  0.3435  0.5529  0.2941
 6250SOL    MW424768   2.684   2.266   1.501 -0.4110  0.2386  0.8584
 6251SOL     OW24769   5.491   3.611   3.277 -0.1157 -0.5178 -0.0289
 6251SOL    HW224770   5.445   3.654   3.349  0.1020  0.7128 -0.6011
 6251SOL    HW324771   5.422   3.573   3.223 -0.4376  0.5083 -0.3706
 6251SOL    MW424772   5.476   3.612   3.279  0.1596  0.5275 -0.0308
 6252SOL     OW24773   4.288   4.222   5.425  0.2226 -0.1499  0.6389
 6252SOL    HW224774   4.319   4.148   5.372 -1.0225 -0.1983 -0.0586
 6252SOL    HW324775   4.241   4.181   5.498 -0.0987 -0.0636  0.4840
 6252SOL    MW424776   4.286   4.207   5.428 -0.1968 -0.0479 -0.3288
 6253SOL     OW24777   5.636   0.732   3.384 -0.1284  0.1251  0.1572
 6253SOL    HW224778   5.651   0.642   3.410 -0.2421 -0.8088 -2.6397
 6253SOL    HW324779   5.541   0.739   3.373  0.0732 -0.5461 -2.8927
 6253SOL    MW424780   5.626   0.721   3.386 -0.0511 -0.7392 -0.0624
 6254SOL     OW24781   5.902   3.670   1.561 -0.8800  0.4024  0.6839
 6254SOL    HW224782   5.863   3.586   1.583  0.4019 -0.4388 -0.1415
 6254SOL    HW324783   5.947   3.697   1.641  0.3299 -0.6577  0.3897
 6254SOL    MW424784   5.903   3.663   1.574 -0.5447  0.0636  0.2586
 6255SOL     OW24785   4.422   5.470   0.193 -0.4076  0.2888 -0.2069
 6255SOL    HW224786   4.516   5.487   0.184 -0.1381  0.3604  2.2031
 6255SOL    HW324787   4.389   5.541   0.247 -1.4555 -0.8056  0.6594
 6255SOL    MW424788   4.430   5.481   0.199  0.1245  0.1889  0.4250
 6256SOL     OW24789   4.441   5.015   3.967 -0.2515 -0.2465  0.0881
 6256SOL    HW224790   4.450   5.049   3.878 -0.9863  1.8277  0.7352
 6256SOL    HW324791   4.372   4.949   3.961 -0.0797 -0.3491 -0.9314
 6256SOL    MW424792   4.433   5.011   3.954 -0.6016 -0.2559  0.1822
 6257SOL     OW24793   5.133   1.025   0.324  0.0496  0.0173 -0.2213
 6257SOL    HW224794   5.090   1.095   0.275  1.9252  0.3913 -1.4718
 6257SOL    HW324795   5.063   0.966   0.349 -1.2535  0.9370 -1.5372
 6257SOL    MW424796   5.118   1.027   0.321  0.2201 -0.0227  0.1273
 6258SOL     OW24797   5.547   3.298   3.135  0.2896 -0.2738  0.2119
 6258SOL    HW224798   5.538   3.252   3.219  1.2702 -0.1953  0.3713
 6258SOL    HW324799   5.632   3.342   3.141  0.6202 -0.7074 -1.0438
 6258SOL    MW424800   5.557   3.298   3.147 -0.2255 -0.1693  0.2256
 6259SOL     OW24801   6.340   4.939   5.335 -0.2744  0.9994  0.3937
 6259SOL    HW224802   6.421   4.983   5.307 -0.5039  0.5890 -0.9960
 6259SOL    HW324803   6.369   4.871   5.395  0.5997 -0.0815 -1.1776
 6259SOL    MW424804   6.355   4.936   5.339  0.2241 -0.1213 -0.1740
 6260SOL     OW24805   2.007   3.567   4.279 -0.7460  0.3354  0.0417
 6260SOL    HW224806   2.000   3.474   4.301  0.4236  0.5742  1.5697
 6260SOL    HW324807   1.937   3.609   4.328 -0.0803  0.4781  0.8936
 6260SOL    MW424808   1.997   3.560   4.288  0.4576 -0.5451  0.4964
 6261SOL     OW24809   1.790   1.223   3.410 -0.1495  0.1814 -0.7212
 6261SOL    HW224810   1.776   1.142   3.458 -1.0961 -0.0290 -1.3279
 6261SOL    HW324811   1.807   1.195   3.320 -4.0745  0.6626 -1.8088
 6261SOL    MW424812   1.790   1.209   3.405 -0.2942 -0.4077 -0.3470
 6262SOL     OW24813   5.000   0.169   4.470 -0.1289 -0.1030 -0.0670
 6262SOL    HW224814   4.929   0.211   4.518  0.0966 -0.9475  1.0299
 6262SOL    HW324815   5.007   0.220   4.388 -0.0000  1.8607  1.0902
 6262SOL    MW424816   4.992   0.182   4.465  0.2691 -0.7789 -0.0356
 6263SOL     OW24817   6.229   1.354   3.693  1.1203 -0.4847  0.0801
 6263SOL    HW224818   6.228   1.267   3.653  1.8487 -0.6059  0.3149
 6263SOL    HW324819   6.309   1.356   3.744  0.7159  0.0447  0.7079
 6263SOL    MW424820   6.239   1.343   3.694  0.1523 -0.3191  0.7398
 6264SOL     OW24821   2.847   1.970   1.816  0.2893 -0.5938  0.0722
 6264SOL    HW224822   2.863   2.047   1.869  2.2186 -1.1773  0.4351
 6264SOL    HW324823   2.757   1.945   1.834  0.3764  0.2173  1.7490
 6264SOL    MW424824   2.838   1.977   1.825  0.2118 -0.2450  0.4624
 6265SOL     OW24825   5.091   2.237   3.694  0.1355 -0.3785  0.5552
 6265SOL    HW224826   5.032   2.268   3.626  1.8578 -0.3779 -1.0180
 6265SOL    HW324827   5.055   2.274   3.775 -0.5523  1.8027 -0.6402
 6265SOL    MW424828   5.079   2.246   3.696 -0.2789  0.1646  0.2820
 6266SOL     OW24829   4.133   2.216   3.614  0.7625 -0.2362 -0.0676
 6266SOL    HW224830   4.062   2.251   3.560  0.8726  1.7243  0.9393
 6266SOL    HW324831   4.089   2.178   3.690  0.7091  1.4273  0.8056
 6266SOL    MW424832   4.118   2.216   3.617  0.1265  0.5135 -0.4897
 6267SOL     OW24833   2.828   5.205   1.444  0.3448 -0.8455  0.1362
 6267SOL    HW224834   2.788   5.229   1.528  0.4364 -2.0068  0.5245
 6267SOL    HW324835   2.773   5.249   1.379  0.1257 -0.1235  0.7840
 6267SOL    MW424836   2.815   5.214   1.447  0.1982 -0.1196 -0.1254
 6268SOL     OW24837   6.088   5.307   5.357  0.0623  0.0037  0.1410
 6268SOL    HW224838   6.070   5.317   5.264 -0.1260  0.4970  0.2295
 6268SOL    HW324839   6.181   5.330   5.366 -0.3064  1.5259  0.3056
 6268SOL    MW424840   6.098   5.311   5.346  0.4156  0.0220 -0.6244
 6269SOL     OW24841   1.737   2.821   5.852  0.1025  0.3420  0.1303
 6269SOL    HW224842   1.777   2.908   5.849 -2.2642  1.4745 -1.4025
 6269SOL    HW324843   1.645   2.836   5.834 -0.6026 -2.4105  0.9121
 6269SOL    MW424844   1.730   2.834   5.849  0.2311 -0.2991 -0.0906
 6270SOL     OW24845   5.805   0.430   2.075 -0.3221 -0.0535  0.5379
 6270SOL    HW224846   5.878   0.489   2.054 -0.6229 -0.1338 -0.8630
 6270SOL    HW324847   5.737   0.488   2.108  0.6751 -0.0852  2.8454
 6270SOL    MW424848   5.806   0.446   2.076  0.5444  0.1381 -0.1747
 6271SOL     OW24849   2.686   2.383   3.854 -0.9065  0.1170  0.3887
 6271SOL    HW224850   2.701   2.405   3.762  0.6976 -0.9664  0.3601
 6271SOL    HW324851   2.772   2.384   3.894 -1.3467 -1.3226  1.4479
 6271SOL    MW424852   2.699   2.386   3.847  0.2177  0.2008 -0.2122
 6272SOL     OW24853   0.249   0.030   3.418 -0.0185  0.0407  0.4642
 6272SOL    HW224854   0.307  -0.027   3.468  0.5108 -1.7512 -1.9891
 6272SOL    HW324855   0.181   0.055   3.480  1.4646 -0.6438  2.4949
 6272SOL    MW424856   0.248   0.026   3.433  0.2439  0.0079 -0.6555
 6273SOL     OW24857   0.416   3.684   5.771  0.9519  0.6526 -0.3092
 6273SOL    HW224858   0.392   3.641   5.689  1.4653  1.2365 -0.7640
 6273SOL    HW324859   0.372   3.631   5.838  0.2233  0.3922 -0.9733
 6273SOL    MW424860   0.407   3.671   5.769 -0.1604 -0.1270  0.1462
 6274SOL     OW24861   2.008   4.700   5.428 -0.4527 -0.4191  0.6680
 6274SOL    HW224862   2.061   4.674   5.503 -1.0895 -0.2728  1.1865
 6274SOL    HW324863   2.045   4.784   5.400  0.0738 -0.6977  0.5329
 6274SOL    MW424864   2.020   4.708   5.434 -0.1706 -0.8946 -0.3089
 6275SOL     OW24865   4.690   4.181   2.742  0.5471  0.0243 -0.0583
 6275SOL    HW224866   4.739   4.256   2.708  0.0118  0.1159 -0.6397
 6275SOL    HW324867   4.638   4.218   2.814 -1.4976  0.7493 -1.8217
 6275SOL    MW424868   4.689   4.196   2.747 -0.4187  0.2858 -0.3384
 6276SOL     OW24869   1.469   1.856   0.310 -0.1045 -0.5152 -0.3971
 6276SOL    HW224870   1.434   1.901   0.387  0.8134 -0.2665 -0.1194
 6276SOL    HW324871   1.398   1.797   0.283 -0.7179 -0.0657  0.1824
 6276SOL    MW424872   1.455   1.854   0.316 -0.0878  0.1285 -0.5772
 6277SOL     OW24873   2.277   1.873   3.502 -0.2683 -0.1095  0.2366
 6277SOL    HW224874   2.244   1.798   3.551 -0.9480  1.0576  1.6306
 6277SOL    HW324875   2.212   1.886   3.432 -0.8709 -0.0161  0.8022
 6277SOL    MW424876   2.264   1.864   3.499 -0.3509  0.1403 -0.1726
 6278SOL     OW24877   5.808   4.041   4.659 -0.0512  0.4561 -0.4366
 6278SOL    HW224878   5.714   4.028   4.646 -0.3169  1.0501  0.6918
 6278SOL    HW324879   5.845   3.953   4.660 -0.6866  0.1868 -0.3568
 6278SOL    MW424880   5.800   4.028   4.658  0.1846  0.1226  0.0296
 6279SOL     OW24881   3.346   4.789   3.316  0.0394 -0.5975  0.1812
 6279SOL    HW224882   3.287   4.714   3.323 -1.1121  0.0113 -2.0144
 6279SOL    HW324883   3.420   4.757   3.265 -0.5559 -0.2458 -0.9494
 6279SOL    MW424884   3.348   4.775   3.310 -0.5679  0.4597 -0.1456
 6280SOL     OW24885   0.628   0.451   6.099  0.2977  0.2281 -0.8089
 6280SOL    HW224886   0.684   0.444   6.177  1.2268 -0.9242 -1.5434
 6280SOL    HW324887   0.591   0.364   6.087 -0.2310  0.5184 -1.3740
 6280SOL    MW424888   0.631   0.439   6.108 -0.4214  0.1525  0.0075
 6281SOL     OW24889   6.396   0.959   5.793 -0.5893 -0.3407 -0.0085
 6281SOL    HW224890   6.459   0.888   5.787  0.6417  0.7786 -1.1951
 6281SOL    HW324891   6.332   0.930   5.857  0.3314 -2.1459  0.1417
 6281SOL    MW424892   6.396   0.946   5.801 -0.0460  0.1175 -0.1222
 6282SOL     OW24893   3.351   1.187   1.221  0.8085  0.0120 -0.9501
 6282SOL    HW224894   3.284   1.238   1.175  1.4776  0.6752 -1.2135
 6282SOL    HW324895   3.306   1.106   1.246  0.0815  0.1738 -1.6638
 6282SOL    MW424896   3.336   1.183   1.218 -0.4956  0.3606  0.0972
 6283SOL     OW24897   0.661   2.342   3.703 -0.4791  0.8740  0.0614
 6283SOL    HW224898   0.678   2.423   3.751  0.7504  0.5049  0.2783
 6283SOL    HW324899   0.732   2.283   3.728  0.1138  0.5890 -2.0546
 6283SOL    MW424900   0.672   2.345   3.713  0.0682 -0.1236  0.5405
 6284SOL     OW24901   4.979   3.526   2.375  0.1777  0.2257 -0.0838
 6284SOL    HW224902   4.915   3.470   2.332 -0.1334 -0.7260  1.5162
 6284SOL    HW324903   4.939   3.613   2.375 -0.2456  0.0341 -0.8053
 6284SOL    MW424904   4.965   3.530   2.369 -0.1504 -0.5246  0.6187
 6285SOL     OW24905   5.012   2.541   4.826  1.0154  1.1270  0.0440
 6285SOL    HW224906   4.966   2.600   4.886 -1.7806 -1.2739  0.4856
 6285SOL    HW324907   5.028   2.462   4.878 -0.5796 -0.6457 -2.0053
 6285SOL    MW424908   5.008   2.538   4.841  0.3531 -0.6480 -0.5777
 6286SOL     OW24909   1.085   0.607   5.946  0.0792  0.4757  0.6610
 6286SOL    HW224910   1.072   0.702   5.945 -0.8473  0.3620  0.2283
 6286SOL    HW324911   0.996   0.571   5.950  0.2526 -0.4003 -1.8237
 6286SOL    MW424912   1.071   0.615   5.947 -0.5748  0.3564  0.2432
 6287SOL     OW24913   0.281   1.051   2.312 -0.3834 -0.1307  0.3995
 6287SOL    HW224914   0.303   0.965   2.347  1.1750  0.1584  0.2290
 6287SOL    HW324915   0.219   1.088   2.374 -0.0728 -0.8765  1.1694
 6287SOL    MW424916   0.276   1.045   2.325  0.1427 -0.1778  0.3548
 6288SOL     OW24917   3.558   0.327   0.159  0.1636 -0.4602  0.5816
 6288SOL    HW224918   3.577   0.253   0.101 -0.1586 -0.9505  1.0804
 6288SOL    HW324919   3.613   0.398   0.128 -1.8540  0.1250 -1.9527
 6288SOL    MW424920   3.568   0.326   0.148 -0.1041  0.1691  0.0054
 6289SOL     OW24921   0.220   4.362   5.940 -0.0030 -0.4261  0.5375
 6289SOL    HW224922   0.185   4.443   5.904 -0.5284 -0.5070  0.8682
 6289SOL    HW324923   0.297   4.389   5.991  1.1998 -0.3722 -1.1876
 6289SOL    MW424924   0.226   4.376   5.942  0.7310 -0.2151  0.1156
 6290SOL     OW24925   2.499   2.158   0.315  0.3474  0.0662 -0.4794
 6290SOL    HW224926   2.503   2.158   0.219  0.9925  0.0517 -0.4535
 6290SOL    HW324927   2.530   2.071   0.340  1.3369  0.4872 -0.2138
 6290SOL    MW424928   2.503   2.147   0.305  0.3680  0.1808  0.0908
 6291SOL     OW24929   1.689   1.164   4.737  0.1472  0.3634 -0.5524
 6291SOL    HW224930   1.663   1.232   4.676 -4.2858 -1.1145 -0.6554
 6291SOL    HW324931   1.742   1.103   4.685  1.2974  1.9179 -1.2939
 6291SOL    MW424932   1.693   1.165   4.722  0.2013  0.4196  0.5579
 6292SOL     OW24933   1.258   0.679   4.884 -0.2472  0.4528  0.0437
 6292SOL    HW224934   1.333   0.651   4.937  0.6377  1.4792 -0.6151
 6292SOL    HW324935   1.283   0.765   4.851 -2.0750  1.2023  0.4714
 6292SOL    MW424936   1.271   0.686   4.886 -0.0063 -0.0285  0.1322
 6293SOL     OW24937   2.908   2.284   2.804  0.1589  0.1206  0.0821
 6293SOL    HW224938   2.902   2.330   2.888  0.6232  0.4437 -0.0566
 6293SOL    HW324939   2.826   2.306   2.759  0.0187  0.1467  0.3473
 6293SOL    MW424940   2.896   2.293   2.809 -0.5609  0.2517  0.0145
 6294SOL     OW24941   6.170   0.933   0.139 -0.7050 -0.1283  0.0279
 6294SOL    HW224942   6.263   0.955   0.144 -0.4557 -0.8772 -1.0502
 6294SOL    HW324943   6.131   0.975   0.217  0.4245  0.6519  0.1965
 6294SOL    MW424944   6.177   0.942   0.150 -0.0566  0.0473  0.0821
 6295SOL     OW24945   2.353   4.019   6.249 -0.3516 -0.1552 -0.4333
 6295SOL    HW224946   2.406   4.024   6.329 -0.0594  0.4801 -0.6623
 6295SOL    HW324947   2.263   4.011   6.281 -0.3330  1.0873 -0.0260
 6295SOL    MW424948   2.348   4.019   6.264 -0.3174  0.1305  0.6489
 6296SOL     OW24949   2.576   3.601   0.531 -0.2474  0.1442 -0.7993
 6296SOL    HW224950   2.522   3.534   0.488  1.4693 -0.1372 -2.6669
 6296SOL    HW324951   2.533   3.684   0.510 -0.4265 -0.1335 -1.5760
 6296SOL    MW424952   2.563   3.603   0.523 -0.1998  0.2843  0.5582
 6297SOL     OW24953   1.765   0.598   0.102 -0.1862  0.6903  0.0846
 6297SOL    HW224954   1.754   0.631   0.013 -0.4051 -0.4269 -0.3177
 6297SOL    HW324955   1.695   0.640   0.153 -1.2387 -0.0945 -0.6825
 6297SOL    MW424956   1.754   0.608   0.097  0.0556  0.1530 -0.3995
 6298SOL     OW24957   4.510   4.273   3.811 -0.4236  1.2024 -0.4327
 6298SOL    HW224958   4.603   4.280   3.833  0.2127 -2.0996 -1.5510
 6298SOL    HW324959   4.507   4.281   3.716 -1.2181  0.7353 -0.4537
 6298SOL    MW424960   4.522   4.275   3.801 -0.0722 -0.2119 -0.4154
 6299SOL     OW24961   1.437   2.658   2.575  0.2425  0.3156 -0.2203
 6299SOL    HW224962   1.426   2.750   2.600 -1.0743  0.5624 -1.5840
 6299SOL    HW324963   1.353   2.633   2.539  0.7299 -1.3128 -0.2968
 6299SOL    MW424964   1.425   2.667   2.574  0.3063 -0.7351  0.2549
 6300SOL     OW24965   0.447   2.786   5.527 -0.2226  0.3154 -0.1079
 6300SOL    HW224966   0.454   2.768   5.620 -1.8615 -0.7328 -0.1322
 6300SOL    HW324967   0.467   2.879   5.518  1.1374  0.1635  1.0961
 6300SOL    MW424968   0.450   2.796   5.538 -0.2149  0.4120 -0.0183
 6301SOL     OW24969   4.758   0.440   4.524  0.2443 -0.2897 -0.4886
 6301SOL    HW224970   4.666   0.431   4.547  0.6231 -0.7508  0.9515
 6301SOL    HW324971   4.800   0.362   4.561  1.1643 -0.2575 -1.4215
 6301SOL    MW424972   4.752   0.429   4.532  0.1795 -0.1095  0.0819
 6302SOL     OW24973   2.884   5.222   4.210 -0.0938  0.5460 -0.2287
 6302SOL    HW224974   2.792   5.242   4.224 -0.6968 -2.3173  0.3200
 6302SOL    HW324975   2.924   5.230   4.296 -0.4724 -1.0973  0.1249
 6302SOL    MW424976   2.877   5.226   4.223  0.4420  0.6417  1.0630
 6303SOL     OW24977   3.091   0.878   5.323 -0.3409 -0.0492 -0.0298
 6303SOL    HW224978   3.018   0.842   5.273  1.0059 -1.2014 -1.2383
 6303SOL    HW324979   3.057   0.961   5.358 -2.6012 -1.1293  0.4883
 6303SOL    MW424980   3.077   0.884   5.321 -0.5259 -0.0553 -0.7080
 6304SOL     OW24981   5.894   0.575   0.944  0.2213 -0.5670 -0.7895
 6304SOL    HW224982   5.897   0.573   0.848  0.6857  1.0234 -0.8443
 6304SOL    HW324983   5.969   0.630   0.968 -1.4390  1.3492  0.3284
 6304SOL    MW424984   5.904   0.582   0.934 -0.1774 -0.1436 -0.2557
 6305SOL     OW24985   0.564   1.285   3.416 -0.0082  0.1174 -0.5478
 6305SOL    HW224986   0.562   1.191   3.400 -0.0388  0.4610 -2.8794
 6305SOL    HW324987   0.621   1.320   3.347 -2.7820  2.1501 -2.0414
 6305SOL    MW424988   0.571   1.278   3.405 -0.2806  0.0408 -0.0124
 6306SOL     OW24989   5.900   0.830   2.149 -0.0050 -0.1311  0.0810
 6306SOL    HW224990   5.937   0.910   2.186 -1.3566 -0.2907  1.9277
 6306SOL    HW324991   5.817   0.818   2.196 -0.5197 -1.8524 -1.1591
 6306SOL    MW424992   5.894   0.839   2.160  0.0609 -0.1557 -0.0955
 6307SOL     OW24993   5.012   0.857   5.367 -0.0537  0.2207 -0.5435
 6307SOL    HW224994   5.101   0.823   5.374 -0.2138 -0.1782 -0.4366
 6307SOL    HW324995   4.959   0.797   5.419 -0.7704 -1.0011 -2.5547
 6307SOL    MW424996   5.017   0.845   5.375  0.3333 -0.0823 -0.1970
 6308SOL     OW24997   2.605   1.084   0.090  0.1916 -0.0909  0.3454
 6308SOL    HW224998   2.553   1.162   0.076 -0.4689 -0.2104  1.9597
 6308SOL    HW324999   2.547   1.011   0.069  0.2798 -0.1845  0.4204
 6308SOL    MW425000   2.591   1.084   0.085 -0.1616 -0.3803 -0.2969
 6309SOL     OW25001   0.646   6.317   4.479  0.4515 -0.1164  0.8148
 6309SOL    HW225002   0.603   6.298   4.395 -1.7252  0.7068  1.6725
 6309SOL    HW325003   0.735   6.341   4.455  0.0055 -0.3228 -1.2337
 6309SOL    MW425004   0.652   6.318   4.464 -0.7805  0.2691  0.8297
 6310SOL     OW25005   4.219   1.490   0.427 -0.5594  0.6270 -0.0378
 6310SOL    HW225006   4.205   1.583   0.409  1.1407  0.6510 -1.5430
 6310SOL    HW325007   4.311   1.484   0.452 -0.2122 -0.8166 -1.4861
 6310SOL    MW425008   4.229   1.501   0.428 -0.8270  0.3832 -0.5400
 6311SOL     OW25009   3.135   6.111   5.080 -0.1788  0.6104 -0.5255
 6311SOL    HW225010   3.180   6.041   5.032  0.4681  0.7357 -0.1098
 6311SOL    HW325011   3.046   6.078   5.092  0.6076 -1.0389  1.3759
 6311SOL    MW425012   3.129   6.097   5.075 -0.0102 -0.7354 -0.2439
 6312SOL     OW25013   1.737   5.671   4.632  0.0806 -0.0078 -0.0000
 6312SOL    HW225014   1.721   5.629   4.717 -0.1225 -1.0147 -0.5275
 6312SOL    HW325015   1.702   5.610   4.568  0.7130  0.5001 -0.8480
 6312SOL    MW425016   1.730   5.657   4.635 -0.3213 -0.1378  0.3342
 6313SOL     OW25017   1.029   5.643   0.044 -0.1502  0.9066 -0.0481
 6313SOL    HW225018   0.959   5.708   0.055  0.8433  1.5774  3.6307
 6313SOL    HW325019   1.109   5.689   0.069  1.3483 -0.4661 -2.0091
 6313SOL    MW425020   1.030   5.658   0.049  0.3762 -0.5167  0.6725
 6314SOL     OW25021   4.244   2.077   2.234 -0.0806 -0.1649  0.0286
 6314SOL    HW225022   4.205   2.079   2.321 -1.7577  1.3275 -0.7013
 6314SOL    HW325023   4.299   1.998   2.234 -1.7163 -1.3899  1.7102
 6314SOL    MW425024   4.246   2.067   2.246 -0.0271 -0.7571 -1.2270
 6315SOL     OW25025   6.042   5.515   5.989  0.0925  0.7296 -0.0338
 6315SOL    HW225026   6.053   5.592   6.044 -0.1348  0.3998  0.4786
 6315SOL    HW325027   5.948   5.512   5.970  0.3708  1.7216 -1.7375
 6315SOL    MW425028   6.031   5.525   5.994  0.2240  0.2892 -0.1087
 6316SOL     OW25029   3.376   1.705   0.597  0.2363  0.0106 -0.0580
 6316SOL    HW225030   3.426   1.656   0.661  0.8727  0.9936  0.2160
 6316SOL    HW325031   3.401   1.797   0.611 -1.3317  0.4894 -0.1852
 6316SOL    MW425032   3.386   1.711   0.607  0.3199  0.2129  0.8918
 6317SOL     OW25033   6.382   1.429   4.276  0.1891  0.5258  0.4014
 6317SOL    HW225034   6.312   1.452   4.337  0.0744  0.9072  0.1336
 6317SOL    HW325035   6.459   1.476   4.308  0.1402  0.6895  0.2784
 6317SOL    MW425036   6.383   1.438   4.288  0.1973  0.2202 -0.1922
 6318SOL     OW25037   1.316   2.546   0.608 -0.3393 -0.6625 -0.0298
 6318SOL    HW225038   1.395   2.499   0.583  0.1466 -0.4676  1.1098
 6318SOL    HW325039   1.347   2.625   0.652 -1.1551  0.3946 -1.2851
 6318SOL    MW425040   1.330   2.550   0.610  0.4087  0.1885  0.2960
 6319SOL     OW25041   6.416   0.689   1.968 -0.6595 -0.3337  0.0101
 6319SOL    HW225042   6.457   0.619   1.917 -0.1224  0.4294 -0.6252
 6319SOL    HW325043   6.481   0.712   2.034 -0.7059 -0.2272  0.0188
 6319SOL    MW425044   6.430   0.682   1.970 -0.2455  0.1595 -0.1558
 6320SOL     OW25045   5.820   4.717   1.057  0.2615  0.2448  0.2133
 6320SOL    HW225046   5.741   4.759   1.023 -0.3511 -0.0329  1.2580
 6320SOL    HW325047   5.881   4.790   1.072 -0.0382  0.5351  0.0299
 6320SOL    MW425048   5.817   4.732   1.054 -0.4557 -0.2746  0.4724
 6321SOL     OW25049   3.013   5.728   3.404  0.1359 -0.9316  0.6191
 6321SOL    HW225050   2.996   5.749   3.312 -0.2807 -0.2409  0.8440
 6321SOL    HW325051   3.098   5.685   3.403  0.2156 -0.7744 -0.0752
 6321SOL    MW425052   3.022   5.725   3.391  0.6285  0.0530  0.4043
 6322SOL     OW25053   5.136   1.325   4.579 -0.1656  0.2395  0.3136
 6322SOL    HW225054   5.082   1.374   4.641  0.5754  0.3451  0.8958
 6322SOL    HW325055   5.077   1.303   4.507 -1.0607  0.0487  1.0916
 6322SOL    MW425056   5.121   1.329   4.577  0.2530 -0.4255  0.0798
 6323SOL     OW25057   5.012   2.231   0.174 -0.3280  0.2424  0.0583
 6323SOL    HW225058   5.065   2.198   0.101 -1.0706 -1.6280  0.2963
 6323SOL    HW325059   4.967   2.307   0.138 -1.1827 -0.9994 -1.7041
 6323SOL    MW425060   5.013   2.236   0.159 -0.7448  0.4007  0.2223
 6324SOL     OW25061   4.246   4.479   5.366 -0.9925 -0.1807  0.3600
 6324SOL    HW225062   4.330   4.520   5.388  0.2523  0.6932 -4.7531
 6324SOL    HW325063   4.264   4.385   5.368 -0.4298 -0.0650  0.9877
 6324SOL    MW425064   4.260   4.472   5.369  0.1052  0.4069 -0.1448
 6325SOL     OW25065   1.295   6.122   3.379 -0.8879 -0.3790 -0.1029
 6325SOL    HW225066   1.285   6.217   3.385  0.5680 -0.1516 -0.7117
 6325SOL    HW325067   1.371   6.102   3.434 -1.0957 -1.1662 -0.0896
 6325SOL    MW425068   1.304   6.132   3.387  0.0845  1.0534  0.3374
 6326SOL     OW25069   4.260   0.192   3.974 -0.2030 -0.2868 -0.2253
 6326SOL    HW225070   4.282   0.285   3.968 -4.1587  0.7798 -1.7117
 6326SOL    HW325071   4.233   0.180   4.065  0.5933 -0.1016  0.0479
 6326SOL    MW425072   4.259   0.203   3.985 -0.3410  0.7704 -0.2304
 6327SOL     OW25073   3.716   2.828   1.991  0.0644 -0.8783  0.1117
 6327SOL    HW225074   3.799   2.875   1.997 -1.1020  1.2259  0.6161
 6327SOL    HW325075   3.665   2.878   1.927  0.5122 -4.3745 -3.3399
 6327SOL    MW425076   3.720   2.841   1.983  0.3085 -0.2037  0.2479
 6328SOL     OW25077   6.143   4.358   6.183 -0.4095 -0.1599 -0.5206
 6328SOL    HW225078   6.090   4.436   6.197 -0.3917 -0.1927 -0.2668
 6328SOL    HW325079   6.222   4.390   6.141 -1.6317 -0.3961 -3.1768
 6328SOL    MW425080   6.146   4.373   6.180 -0.8657  0.5939  0.3828
 6329SOL     OW25081   0.767   4.634   6.153 -0.2048 -0.2624  0.7466
 6329SOL    HW225082   0.861   4.647   6.151 -0.4369  1.8092 -0.8783
 6329SOL    HW325083   0.748   4.606   6.242  1.7536  1.0788  1.6588
 6329SOL    MW425084   0.777   4.632   6.165  0.0520  0.3602 -0.9615
 6330SOL     OW25085   4.060   4.313   2.153  0.7673 -0.1836  0.0538
 6330SOL    HW225086   4.110   4.341   2.230 -0.7046  1.4859  0.4687
 6330SOL    HW325087   4.004   4.242   2.185 -0.0267  0.6777  0.6215
 6330SOL    MW425088   4.059   4.307   2.168 -0.2393 -0.3873 -0.1284
 6331SOL     OW25089   1.361   0.734   6.362  0.0196 -0.2491 -0.1456
 6331SOL    HW225090   1.291   0.726   6.427 -0.2541 -0.3791 -0.4522
 6331SOL    HW325091   1.442   0.724   6.412 -0.1791 -0.0302  0.2228
 6331SOL    MW425092   1.363   0.731   6.377 -0.6889 -0.1066 -0.4042
 6332SOL     OW25093   4.928   1.207   2.979  0.0802 -0.0858 -0.0489
 6332SOL    HW225094   4.851   1.161   2.945  0.3038 -0.3949 -0.1484
 6332SOL    HW325095   4.948   1.163   3.061  0.9053 -0.8548 -0.6369
 6332SOL    MW425096   4.920   1.195   2.985  0.7737  0.0790 -0.3860
 6333SOL     OW25097   4.598   2.732   6.064 -0.2823  0.4491 -0.4709
 6333SOL    HW225098   4.605   2.647   6.105 -0.7674  0.2097 -0.8706
 6333SOL    HW325099   4.653   2.726   5.986 -0.1570  0.5718 -0.3937
 6333SOL    MW425100   4.606   2.720   6.059  0.6327  0.2810  0.1634
 6334SOL     OW25101   3.781   5.831   3.159  0.1226  0.0090  0.4652
 6334SOL    HW225102   3.800   5.753   3.211 -0.7180 -0.4452  0.0910
 6334SOL    HW325103   3.688   5.848   3.172  0.5455  1.7275  1.5907
 6334SOL    MW425104   3.771   5.823   3.167 -0.0476 -0.2375 -0.2462
 6335SOL     OW25105   2.859   5.014   6.296  0.4980 -0.0803  0.3529
 6335SOL    HW225106   2.804   4.986   6.369 -0.9481 -0.4451 -0.8129
 6335SOL    HW325107   2.927   4.946   6.290 -1.0281 -1.6339 -0.3535
 6335SOL    MW425108   2.861   5.001   6.305 -0.3457  0.6444  0.0206
 6336SOL     OW25109   5.974   1.506   2.399 -0.7911 -0.1798  0.4181
 6336SOL    HW225110   6.046   1.526   2.459  0.2589  2.6841 -1.5626
 6336SOL    HW325111   6.015   1.506   2.313 -2.7693 -1.0952 -0.5727
 6336SOL    MW425112   5.989   1.509   2.396  0.0049  0.0127  0.7450
 6337SOL     OW25113   2.920   2.238   1.654 -0.3030  0.5450  0.3866
 6337SOL    HW225114   2.953   2.326   1.635 -0.7635  1.0088  1.6289
 6337SOL    HW325115   2.839   2.231   1.603  0.9234 -0.0812 -1.5812
 6337SOL    MW425116   2.914   2.249   1.644  0.2562 -0.5953 -0.6626
 6338SOL     OW25117   2.091   0.901   6.144  0.0216  0.0022 -0.3426
 6338SOL    HW225118   2.135   0.891   6.060  0.0115  0.0152 -0.3493
 6338SOL    HW325119   2.153   0.863   6.207 -0.9271 -2.0903 -0.6038
 6338SOL    MW425120   2.105   0.894   6.141  0.1004  0.0476  0.2862
 6339SOL     OW25121   5.319   1.844   5.970  0.6019  0.2557 -0.4420
 6339SOL    HW225122   5.261   1.784   5.924  0.4129  1.0873 -1.3256
 6339SOL    HW325123   5.405   1.830   5.929  0.4786  0.8381 -0.9282
 6339SOL    MW425124   5.323   1.834   5.959 -0.3871 -0.0569  0.0957
 6340SOL     OW25125   3.192   5.100   4.811 -0.1854  0.5828  0.2782
 6340SOL    HW225126   3.160   5.190   4.813 -0.0475  0.6202  1.1917
 6340SOL    HW325127   3.235   5.092   4.726  0.6431  1.6837  0.5640
 6340SOL    MW425128   3.194   5.111   4.800 -0.5518  0.4508  0.7432
 6341SOL     OW25129   0.983   2.904   4.416  0.2451 -0.6367 -0.5299
 6341SOL    HW225130   1.007   2.934   4.328 -1.6269  0.2714 -0.7840
 6341SOL    HW325131   0.928   2.974   4.451 -0.0288 -1.5272  0.9032
 6341SOL    MW425132   0.979   2.917   4.409 -0.2461  0.2462 -0.1889
 6342SOL     OW25133   1.478   5.674   1.972  0.4695 -0.3746  0.0712
 6342SOL    HW225134   1.466   5.583   1.947  1.4207 -1.3816  2.9535
 6342SOL    HW325135   1.561   5.700   1.932  0.5663 -0.9928 -0.1336
 6342SOL    MW425136   1.487   5.666   1.964  0.1617  0.0613 -0.2942
 6343SOL     OW25137   3.338   2.714   5.784  0.4479 -0.3671  0.2078
 6343SOL    HW225138   3.321   2.736   5.875  1.4220  2.3581 -0.1802
 6343SOL    HW325139   3.403   2.643   5.788  2.1961  1.2276  1.6919
 6343SOL    MW425140   3.344   2.707   5.796 -0.5003  0.0277  0.0329
 6344SOL     OW25141   4.153   3.698   2.952 -0.3507 -0.7200 -0.5384
 6344SOL    HW225142   4.105   3.780   2.961  1.3450  0.2898 -0.2809
 6344SOL    HW325143   4.210   3.712   2.877  0.4210 -1.3988 -0.0992
 6344SOL    MW425144   4.154   3.711   2.944 -0.1514  0.7702  0.3752
 6345SOL     OW25145   0.237   5.721   2.517 -0.5230 -0.5776  0.4688
 6345SOL    HW225146   0.201   5.802   2.481 -0.7114 -1.0810 -0.5235
 6345SOL    HW325147   0.311   5.700   2.459  1.0720  0.1360  2.1286
 6345SOL    MW425148   0.242   5.729   2.505  0.2728  0.2791 -0.5321
 6346SOL     OW25149   6.122   1.480   4.418 -0.1064  0.2067 -0.0325
 6346SOL    HW225150   6.056   1.445   4.358  1.5787  0.3488 -2.0946
 6346SOL    HW325151   6.099   1.573   4.426 -1.3422 -0.1563  0.9793
 6346SOL    MW425152   6.110   1.487   4.411  0.9916 -0.3629 -0.1753
 6347SOL     OW25153   5.212   6.062   3.356 -0.1271  0.1169 -0.3101
 6347SOL    HW225154   5.138   6.092   3.409 -0.7865  0.2967 -1.2913
 6347SOL    HW325155   5.225   6.132   3.292  0.0094 -0.5204 -0.9959
 6347SOL    MW425156   5.204   6.075   3.354 -0.2395 -0.5949 -0.2602
 6348SOL     OW25157   1.814   2.967   0.127  0.3192  0.4011 -0.7069
 6348SOL    HW225158   1.834   2.902   0.060 -0.0800  1.2645 -1.6923
 6348SOL    HW325159   1.863   3.045   0.101  0.3387  0.6800  0.1311
 6348SOL    MW425160   1.823   2.969   0.115  0.0003  0.0817 -0.1873
 6349SOL     OW25161   3.785   3.296   4.463 -0.1561  0.1051 -0.5386
 6349SOL    HW225162   3.806   3.389   4.470 -0.7282  0.1360  1.1573
 6349SOL    HW325163   3.778   3.265   4.553  0.3925 -1.6875 -1.0646
 6349SOL    MW425164   3.787   3.304   4.476 -0.5172  0.3639 -0.0228
 6350SOL     OW25165   3.238   5.790   1.513 -0.3963  0.4102  0.1030
 6350SOL    HW225166   3.180   5.838   1.455  0.0910  0.5738 -0.2515
 6350SOL    HW325167   3.319   5.841   1.515 -1.2181  1.8659  2.9570
 6350SOL    MW425168   3.241   5.803   1.506  0.0195 -0.3472  0.0940
 6351SOL     OW25169   1.310   3.261   0.660  0.0212  0.1478  0.6295
 6351SOL    HW225170   1.372   3.189   0.663  0.3181  0.3669 -0.0601
 6351SOL    HW325171   1.350   3.330   0.713  1.2722  0.9679 -1.2764
 6351SOL    MW425172   1.323   3.261   0.668  0.6964  0.4064 -0.2817
 6352SOL     OW25173   2.058   3.467   2.018  0.1902 -0.2677  0.0773
 6352SOL    HW225174   2.101   3.442   2.100 -1.4630 -1.0388  0.7524
 6352SOL    HW325175   2.092   3.555   1.999  1.2382 -0.4214  1.1183
 6352SOL    MW425176   2.068   3.475   2.026 -0.9783  0.4061 -0.3586
 6353SOL     OW25177   4.109   2.303   4.243 -0.1816  0.3135  0.6310
 6353SOL    HW225178   4.125   2.340   4.155 -0.3097  1.0082  0.8938
 6353SOL    HW325179   4.018   2.326   4.262  0.2568  1.3637  1.5096
 6353SOL    MW425180   4.099   2.311   4.234  0.0923  0.3760 -0.1017
 6354SOL     OW25181   5.056   1.079   6.182  0.0551 -0.0146 -0.3471
 6354SOL    HW225182   5.113   1.105   6.109  0.9192 -2.1153 -0.4801
 6354SOL    HW325183   5.091   1.126   6.258  1.8403 -1.0674 -0.4814
 6354SOL    MW425184   5.068   1.089   6.182  0.3602  0.8676  0.0846
 6355SOL     OW25185   5.669   6.057   1.834 -0.2016  0.1631  0.3492
 6355SOL    HW225186   5.590   6.055   1.779  0.6500  0.1727 -0.8981
 6355SOL    HW325187   5.717   5.978   1.811  0.2528  0.2452  0.9756
 6355SOL    MW425188   5.665   6.046   1.824 -0.3459  0.0421  0.0801
 6356SOL     OW25189   1.134   1.499   4.940  0.4578 -0.4442 -0.2178
 6356SOL    HW225190   1.065   1.552   4.980  0.7174  0.7248 -1.2352
 6356SOL    HW325191   1.186   1.467   5.014 -0.2394 -0.0214  0.4717
 6356SOL    MW425192   1.132   1.502   4.955 -0.1230  0.5781  0.4372
 6357SOL     OW25193   5.264   3.646   0.461  0.5559  0.2855  0.2379
 6357SOL    HW225194   5.194   3.711   0.462 -0.6680 -0.9752 -0.1139
 6357SOL    HW325195   5.322   3.672   0.533  0.0542  1.6911  0.1555
 6357SOL    MW425196   5.262   3.658   0.471 -0.0235 -0.4012 -0.4849
 6358SOL     OW25197   0.829   3.151   5.959 -0.0538  0.4496 -0.3801
 6358SOL    HW225198   0.820   3.197   5.875 -0.5707  2.2871  0.6276
 6358SOL    HW325199   0.874   3.214   6.016 -1.9380  0.2506  1.4570
 6358SOL    MW425200   0.834   3.166   5.955  0.2203  0.4349 -0.7676
 6359SOL     OW25201   6.064   5.131   1.883 -0.3941  1.1069 -0.1569
 6359SOL    HW225202   6.040   5.178   1.802 -1.2335  0.1084 -0.5081
 6359SOL    HW325203   5.996   5.064   1.892 -0.0117  0.8796  1.1124
 6359SOL    MW425204   6.052   5.128   1.873 -0.3018  0.0199 -0.4911
 6360SOL     OW25205   5.848   0.783   4.835  0.6921 -0.3404 -0.2534
 6360SOL    HW225206   5.760   0.755   4.860 -0.2602  1.4339 -1.4416
 6360SOL    HW325207   5.905   0.737   4.896 -0.8200 -3.4054 -0.9250
 6360SOL    MW425208   5.844   0.773   4.846  0.1271  0.2438 -0.2111
 6361SOL     OW25209   4.036   3.061   4.245 -0.1741 -0.5465 -0.0192
 6361SOL    HW225210   3.959   3.012   4.276 -0.2437  0.3162  1.2376
 6361SOL    HW325211   4.047   3.130   4.309  0.8893  0.1285 -0.9073
 6361SOL    MW425212   4.027   3.063   4.257  0.2951  0.3274 -0.4721
 6362SOL     OW25213   5.140   0.643   0.852 -0.0828 -0.1838  0.2334
 6362SOL    HW225214   5.167   0.680   0.768  1.4853 -0.2957  0.6545
 6362SOL    HW325215   5.150   0.548   0.841 -0.1776 -0.2201  0.4455
 6362SOL    MW425216   5.144   0.635   0.840 -0.0858  0.3858  0.0140
 6363SOL     OW25217   2.487   0.746   1.296 -0.2023  0.1502  0.2610
 6363SOL    HW225218   2.420   0.780   1.355  0.0647  2.0607 -0.4515
 6363SOL    HW325219   2.437   0.708   1.223 -0.5241  1.0576  0.0006
 6363SOL    MW425220   2.471   0.745   1.294 -0.0333 -0.0153 -0.1975
 6364SOL     OW25221   5.411   0.292   2.792 -0.6668 -0.3228 -0.0368
 6364SOL    HW225222   5.376   0.304   2.704 -0.2683 -0.5664 -0.2334
 6364SOL    HW325223   5.334   0.297   2.849 -0.9499 -0.3205 -0.4117
 6364SOL    MW425224   5.396   0.294   2.788  0.0819 -0.3193 -0.6567
 6365SOL     OW25225   0.813   3.570   3.728  0.2197 -0.3755 -0.2988
 6365SOL    HW225226   0.769   3.643   3.771 -1.7099 -1.8244  0.2947
 6365SOL    HW325227   0.863   3.528   3.797  2.4497  1.0876 -0.9104
 6365SOL    MW425228   0.814   3.574   3.742  0.0482 -0.3666  0.1451
 6366SOL     OW25229   4.459   3.695   5.642 -0.1790  0.0101  0.0631
 6366SOL    HW225230   4.551   3.722   5.636  0.0589 -1.0545 -2.2977
 6366SOL    HW325231   4.462   3.611   5.687  0.0858 -0.2441 -0.4124
 6366SOL    MW425232   4.472   3.687   5.647 -0.4049 -0.4758  0.5317
 6367SOL     OW25233   5.042   4.861   6.075  0.2425  0.2343 -0.2216
 6367SOL    HW225234   5.137   4.868   6.066  0.3448  1.0043  1.1840
 6367SOL    HW325235   5.027   4.769   6.099  0.7328  0.3240  0.4587
 6367SOL    MW425236   5.052   4.850   6.077  0.4096 -0.0789  0.1480
 6368SOL     OW25237   4.104   1.009   5.764  0.0161 -0.1001 -0.3752
 6368SOL    HW225238   4.056   0.962   5.832  0.6923  0.3065  0.3934
 6368SOL    HW325239   4.041   1.073   5.730 -0.6686 -1.0156 -0.9011
 6368SOL    MW425240   4.089   1.011   5.769 -0.1947  0.3138  0.0894
 6369SOL     OW25241   3.744   6.177   0.516 -0.6518  0.1233 -0.3086
 6369SOL    HW225242   3.799   6.147   0.444 -1.8263 -0.1699 -1.1206
 6369SOL    HW325243   3.786   6.257   0.547  0.4988 -0.3651 -0.5564
 6369SOL    MW425244   3.757   6.184   0.511  0.3769 -0.0567 -0.1410
 6370SOL     OW25245   0.426   6.257   5.637 -0.2372  0.0856 -0.1743
 6370SOL    HW225246   0.431   6.163   5.651  1.1887  0.2648  0.6664
 6370SOL    HW325247   0.486   6.273   5.564  1.9497  0.6688  1.6299
 6370SOL    MW425248   0.435   6.247   5.629  0.1981 -0.5493 -0.1200
 6371SOL     OW25249   1.774   5.287   2.127  0.0650 -0.6208 -0.3280
 6371SOL    HW225250   1.850   5.289   2.184 -0.4042  1.9163  0.3709
 6371SOL    HW325251   1.705   5.331   2.178 -1.1579 -0.6887 -1.8346
 6371SOL    MW425252   1.775   5.293   2.142  0.5705 -0.1370  0.3658
 6372SOL     OW25253   0.146   2.715   2.581  0.6850 -0.3667  0.1287
 6372SOL    HW225254   0.107   2.719   2.668  0.5455 -1.1599  0.1102
 6372SOL    HW325255   0.185   2.627   2.576 -1.1403 -1.1650 -1.3779
 6372SOL    MW425256   0.146   2.704   2.592 -0.7047  0.2130 -1.0085
 6373SOL     OW25257   2.540   4.627   1.090  0.3978 -0.1196 -0.3971
 6373SOL    HW225258   2.446   4.645   1.089  0.3938 -0.0866  0.2531
 6373SOL    HW325259   2.554   4.566   1.017  0.0895  0.9080 -1.3394
 6373SOL    MW425260   2.530   4.621   1.080 -0.2529 -0.8285 -0.1646
 6374SOL     OW25261   0.915   6.171   3.641 -0.0069 -0.1402 -0.1093
 6374SOL    HW225262   0.943   6.210   3.724  0.6081 -0.2542 -0.2617
 6374SOL    HW325263   0.991   6.121   3.611 -0.4084 -0.5332 -0.4761
 6374SOL    MW425264   0.929   6.170   3.648 -0.3710 -0.0894 -0.2474
 6375SOL     OW25265   6.234   5.405   3.010  0.0257 -0.3689 -0.7987
 6375SOL    HW225266   6.296   5.428   2.941 -0.0169 -1.2677 -1.1551
 6375SOL    HW325267   6.236   5.479   3.070 -0.2711  0.6280 -1.9870
 6375SOL    MW425268   6.242   5.417   3.009  0.5511  0.1118  0.7246
 6376SOL     OW25269   0.634   0.291   2.380 -0.1124  0.3218 -0.1417
 6376SOL    HW225270   0.709   0.350   2.384 -0.6993  1.1142 -0.4883
 6376SOL    HW325271   0.620   0.263   2.470  2.7431 -2.6580 -0.4453
 6376SOL    MW425272   0.642   0.295   2.393 -0.2379 -0.1497  0.0418
 6377SOL     OW25273   1.950   0.771   2.926  0.6082 -0.1623  0.1463
 6377SOL    HW225274   2.032   0.794   2.882  1.5596  0.0618  1.9264
 6377SOL    HW325275   1.977   0.710   2.995 -1.2771 -3.4241 -1.7319
 6377SOL    MW425276   1.965   0.766   2.929 -1.2348 -0.2022 -0.9142
 6378SOL     OW25277   6.384   4.892   4.642 -0.0849 -0.8504 -0.4438
 6378SOL    HW225278   6.309   4.845   4.606  0.1042 -1.0482 -0.5798
 6378SOL    HW325279   6.446   4.898   4.569 -0.0434 -0.5235 -0.3852
 6378SOL    MW425280   6.383   4.887   4.628  0.8768 -0.1790  0.1896
 6379SOL     OW25281   3.825   1.133   2.138  0.1898  0.7245 -0.2659
 6379SOL    HW225282   3.803   1.067   2.203  2.0145 -2.1412 -2.3015
 6379SOL    HW325283   3.754   1.129   2.074  1.3430 -0.9957 -1.5204
 6379SOL    MW425284   3.813   1.124   2.138 -0.2791 -0.4123 -0.0479
 6380SOL     OW25285   3.002   3.006   0.128  0.1527 -0.1595  0.5252
 6380SOL    HW225286   3.094   2.980   0.139 -0.3718 -2.3254  0.2807
 6380SOL    HW325287   2.953   2.924   0.137 -1.7684  0.9424  0.6067
 6380SOL    MW425288   3.008   2.991   0.130 -0.1090  0.2559 -0.5823
 6381SOL     OW25289   6.003   4.334   0.337  0.2310  0.5071 -0.4224
 6381SOL    HW225290   6.058   4.264   0.302 -1.6840 -0.3101 -2.0691
 6381SOL    HW325291   6.009   4.325   0.432  1.6034 -0.5805 -0.5846
 6381SOL    MW425292   6.011   4.323   0.345 -0.0513  0.0060 -0.4429
 6382SOL     OW25293   0.524   5.804   1.439  0.1878 -0.2816  0.0817
 6382SOL    HW225294   0.508   5.711   1.423  1.8890 -0.3783 -1.4793
 6382SOL    HW325295   0.573   5.807   1.521  1.1543 -0.8927 -0.4588
 6382SOL    MW425296   0.528   5.792   1.447 -0.3758 -0.4518  0.2459
 6383SOL     OW25297   2.868   2.090   6.256 -0.6392  0.2316  0.1909
 6383SOL    HW225298   2.952   2.043   6.254  0.4639  2.1147 -1.2634
 6383SOL    HW325299   2.856   2.121   6.166 -2.2234  1.1455  0.6889
 6383SOL    MW425300   2.878   2.088   6.244 -0.0567 -0.3608 -0.1531
 6384SOL     OW25301   1.567   5.613   3.562  0.4293  0.0630 -0.1974
 6384SOL    HW225302   1.472   5.620   3.555  0.4823 -0.5958 -1.9458
 6384SOL    HW325303   1.600   5.658   3.484  1.6831  2.1361  1.4046
 6384SOL    MW425304   1.559   5.620   3.551 -1.0162 -0.1156 -0.0470
 6385SOL     OW25305   0.593   1.787   5.245  1.2193 -0.0973 -0.2622
 6385SOL    HW225306   0.638   1.859   5.203 -0.1967  1.4255  0.6961
 6385SOL    HW325307   0.606   1.712   5.186 -0.4332  1.8216 -3.2950
 6385SOL    MW425308   0.600   1.786   5.232 -0.1008 -0.2399  0.2199
 6386SOL     OW25309   4.150   1.755   3.632 -0.6414 -0.4457  0.1926
 6386SOL    HW225310   4.244   1.771   3.645 -0.3654  0.3282 -2.2386
 6386SOL    HW325311   4.128   1.687   3.696  2.0444 -2.0558 -0.4451
 6386SOL    MW425312   4.160   1.748   3.642 -0.0766  0.1918  0.4423
 6387SOL     OW25313   2.458   1.968   4.785  0.3906 -0.4593 -0.4805
 6387SOL    HW225314   2.480   1.980   4.692  0.3221  0.5740 -0.3758
 6387SOL    HW325315   2.417   2.051   4.811 -0.8506 -1.2314  0.1274
 6387SOL    MW425316   2.456   1.981   4.776  0.4426  0.3272  0.1442
 6388SOL     OW25317   6.362   1.165   5.297 -0.3491  0.5888  0.1439
 6388SOL    HW225318   6.436   1.200   5.347 -1.2356  0.7933  1.3665
 6388SOL    HW325319   6.349   1.077   5.332 -1.2234  0.8762  0.5664
 6388SOL    MW425320   6.370   1.158   5.308  0.4437 -0.1769  0.2149
 6389SOL     OW25321   2.703   1.144   0.351 -0.1641 -0.1245 -0.1043
 6389SOL    HW225322   2.642   1.098   0.409 -0.0871  1.1454  1.0256
 6389SOL    HW325323   2.682   1.111   0.263 -1.5401 -0.7164  0.4190
 6389SOL    MW425324   2.692   1.134   0.347  0.4948 -0.0988  0.2281
 6390SOL     OW25325   2.337   0.877   1.503  0.1855  0.3607  0.0121
 6390SOL    HW225326   2.378   0.875   1.590 -1.0297  1.0645  0.6274
 6390SOL    HW325327   2.332   0.970   1.481  0.3683  0.1931 -0.7741
 6390SOL    MW425328   2.342   0.889   1.512  0.4577  0.9469 -0.1533
 6391SOL     OW25329   3.011   3.574   3.643  0.0505 -0.1901  0.4296
 6391SOL    HW225330   2.997   3.666   3.663  0.1799  0.4262 -1.9964
 6391SOL    HW325331   3.078   3.546   3.706 -0.3328  1.2114  1.5103
 6391SOL    MW425332   3.018   3.582   3.654 -0.2115  0.0483  0.3446
 6392SOL     OW25333   0.570   5.954   0.898  0.4374 -0.1175  0.4199
 6392SOL    HW225334   0.647   5.900   0.917 -0.8661 -2.1416  0.3477
 6392SOL    HW325335   0.496   5.893   0.906 -1.1736  1.7569  0.5518
 6392SOL    MW425336   0.570   5.938   0.901  0.1337 -0.4392 -0.2546
 6393SOL     OW25337   1.357   2.614   4.076 -0.0339  0.6434 -0.3961
 6393SOL    HW225338   1.346   2.622   4.171  0.9685  0.7294 -0.2704
 6393SOL    HW325339   1.452   2.607   4.064 -0.0992  1.4105 -1.4567
 6393SOL    MW425340   1.368   2.614   4.087  0.1757  0.1763 -0.4290
 6394SOL     OW25341   0.575   3.409   3.382  0.2905  0.2569  0.3030
 6394SOL    HW225342   0.610   3.364   3.459 -0.7708  0.6870  1.0630
 6394SOL    HW325343   0.511   3.470   3.418  0.8943  1.5879 -0.7996
 6394SOL    MW425344   0.571   3.411   3.397  0.1369 -0.1580  0.5060
 6395SOL     OW25345   3.012   4.802   4.009 -0.0456 -0.0847 -0.4932
 6395SOL    HW225346   3.105   4.808   4.030 -0.2081  0.0093  0.2307
 6395SOL    HW325347   2.968   4.840   4.085 -0.7275 -1.4226 -0.1937
 6395SOL    MW425348   3.018   4.808   4.022 -0.6763  0.2319  0.1471
 6396SOL     OW25349   4.004   3.344   1.431  0.0736 -0.1765  0.4000
 6396SOL    HW225350   4.020   3.439   1.436 -0.1946 -0.1098  0.0393
 6396SOL    HW325351   4.091   3.305   1.442  0.2301  0.1247  0.2615
 6396SOL    MW425352   4.018   3.351   1.433  0.4909  0.3679 -0.1651
 6397SOL     OW25353   6.110   0.287   6.109  0.8073 -0.1674 -0.5091
 6397SOL    HW225354   6.163   0.307   6.031  0.4302  0.8631 -0.5184
 6397SOL    HW325355   6.071   0.371   6.133  0.9799 -0.4668  0.8490
 6397SOL    MW425356   6.111   0.301   6.102  0.6418  0.3206  0.4628
 6398SOL     OW25357   3.489   5.255   3.222 -0.1673  0.1415 -0.0342
 6398SOL    HW225358   3.484   5.339   3.177 -1.2015 -0.7217 -1.6466
 6398SOL    HW325359   3.418   5.203   3.184  1.1918 -1.8675 -0.0036
 6398SOL    MW425360   3.479   5.259   3.211  0.6475 -0.3099 -0.3166
 6399SOL     OW25361   6.111   4.743   5.771  0.1833  0.4077 -0.0002
 6399SOL    HW225362   6.170   4.819   5.763  2.2321 -1.1208 -0.1241
 6399SOL    HW325363   6.148   4.678   5.713 -2.7397 -0.0489 -1.5117
 6399SOL    MW425364   6.124   4.745   5.763  0.0962 -0.3618  0.1411
 6400SOL     OW25365   0.292   0.758   4.838 -0.2405  0.4730 -0.0392
 6400SOL    HW225366   0.253   0.774   4.924  0.9683 -1.1015  0.8717
 6400SOL    HW325367   0.255   0.674   4.810  0.8787 -0.0307 -0.0873
 6400SOL    MW425368   0.282   0.749   4.846  0.0273 -0.3966  0.3813
 6401SOL     OW25369   4.299   0.514   3.644  0.2269  0.1653  0.2966
 6401SOL    HW225370   4.373   0.571   3.624  0.0200 -0.1082 -1.4468
 6401SOL    HW325371   4.244   0.518   3.565 -0.8561 -0.8015  0.9656
 6401SOL    MW425372   4.301   0.522   3.631  0.2505 -0.5357 -0.3397
 6402SOL     OW25373   3.987   3.274   5.666  0.0746 -0.0212  0.4007
 6402SOL    HW225374   4.045   3.226   5.725 -0.5262 -0.6309  0.5131
 6402SOL    HW325375   3.937   3.333   5.724 -2.9637 -2.9766  1.1289
 6402SOL    MW425376   3.988   3.276   5.682 -0.2152 -0.0242 -0.1707
 6403SOL     OW25377   6.044   2.013   2.092 -0.0556  0.4567  0.8722
 6403SOL    HW225378   6.113   1.991   2.154  0.6338 -1.7596 -0.5445
 6403SOL    HW325379   6.092   2.041   2.013 -0.7841 -0.0751  0.2268
 6403SOL    MW425380   6.060   2.014   2.090  0.7498 -0.6293  0.4689
 6404SOL     OW25381   0.444   4.572   0.558  0.0376  0.0663 -0.0117
 6404SOL    HW225382   0.356   4.553   0.588 -0.1202  1.4618  0.5019
 6404SOL    HW325383   0.435   4.652   0.505  1.2102  1.4328  1.6943
 6404SOL    MW425384   0.431   4.580   0.555  0.1243 -0.1347  0.1930
 6405SOL     OW25385   5.889   3.192   0.552  0.8053  0.1143 -0.2635
 6405SOL    HW225386   5.820   3.136   0.516  0.8617 -0.5472  0.6111
 6405SOL    HW325387   5.891   3.268   0.495 -0.1506 -0.1984 -0.7323
 6405SOL    MW425388   5.880   3.195   0.540 -0.2125 -0.4518  0.3499
 6406SOL     OW25389   4.094   3.124   2.804  0.5493 -0.2944  0.0441
 6406SOL    HW225390   4.058   3.102   2.718  0.2756 -2.4121  0.6372
 6406SOL    HW325391   4.165   3.060   2.817 -0.3132 -0.9523  1.9377
 6406SOL    MW425392   4.099   3.112   2.795  0.4048  0.2705  0.3313
 6407SOL     OW25393   4.749   2.832   3.052  0.2327 -0.2297 -0.1498
 6407SOL    HW225394   4.716   2.921   3.063 -0.6914 -0.4046 -1.3148
 6407SOL    HW325395   4.694   2.794   2.984 -0.3271 -2.1833  1.3027
 6407SOL    MW425396   4.737   2.839   3.044  0.1796  0.0461  0.1355
 6408SOL     OW25397   4.752   0.786   1.324 -0.0061  0.1979 -0.4958
 6408SOL    HW225398   4.725   0.762   1.235 -1.1454 -0.6168  0.0467
 6408SOL    HW325399   4.833   0.736   1.339 -1.9692 -2.9832  0.3707
 6408SOL    MW425400   4.759   0.776   1.314 -0.2241  0.2362 -0.4259
 6409SOL     OW25401   3.694   1.258   1.205  0.3688  0.4111  0.1583
 6409SOL    HW225402   3.634   1.303   1.146  0.4113  0.0222 -0.1846
 6409SOL    HW325403   3.714   1.323   1.272 -0.2103  0.6363  0.1206
 6409SOL    MW425404   3.689   1.272   1.206  0.3016 -0.4953 -0.3735
 6410SOL     OW25405   1.107   0.284   0.062  0.3740 -0.1365  0.4464
 6410SOL    HW225406   1.140   0.202   0.026  1.5859  0.6688 -0.4005
 6410SOL    HW325407   1.172   0.349   0.034 -0.4854  1.0821  1.2006
 6410SOL    MW425408   1.120   0.282   0.054  0.3743  0.2479 -0.0884
 6411SOL     OW25409   4.022   1.922   6.039  0.0119  0.1729  0.2104
 6411SOL    HW225410   4.019   1.866   6.116 -0.2226 -0.3973 -0.2022
 6411SOL    HW325411   4.112   1.914   6.006  0.2311  0.7473  0.6576
 6411SOL    MW425412   4.034   1.914   6.045 -0.1170 -0.1962  0.2979
 6412SOL     OW25413   5.052   5.416   5.521  0.2424 -0.4489  0.0454
 6412SOL    HW225414   4.975   5.415   5.579  0.8745  1.1390  0.9698
 6412SOL    HW325415   5.063   5.325   5.494 -1.3268 -0.8781  0.7428
 6412SOL    MW425416   5.043   5.404   5.525  0.0408  0.3331 -0.3789
 6413SOL     OW25417   4.119   4.231   3.154  0.2232  0.2567  0.1360
 6413SOL    HW225418   4.208   4.231   3.190  1.0451  1.0648 -1.7809
 6413SOL    HW325419   4.113   4.149   3.105 -1.7330 -2.0581  3.8011
 6413SOL    MW425420   4.130   4.220   3.153  0.5163  0.0669 -1.2728
 6414SOL     OW25421   5.835   1.053   4.893 -0.5084  0.2327  0.0629
 6414SOL    HW225422   5.844   0.959   4.877 -0.9782 -0.0641  1.4000
 6414SOL    HW325423   5.834   1.092   4.806  1.8746 -0.7671 -0.4970
 6414SOL    MW425424   5.836   1.045   4.879  0.0216 -0.0172 -0.3268
 6415SOL     OW25425   2.937   1.391   6.380  0.2363 -0.2607 -0.2361
 6415SOL    HW225426   2.892   1.309   6.361 -0.9575  0.0638  1.0042
 6415SOL    HW325427   2.890   1.427   6.456  1.5415  0.9344  0.0505
 6415SOL    MW425428   2.925   1.385   6.388 -0.5777 -0.5600  0.7547
 6416SOL     OW25429   5.737   3.319   4.312  0.1503 -0.2965 -0.0232
 6416SOL    HW225430   5.686   3.331   4.392  0.9901  0.3732  0.4243
 6416SOL    HW325431   5.671   3.311   4.243 -0.6080  2.7890  0.1927
 6416SOL    MW425432   5.722   3.319   4.314  0.4549  0.3708 -0.2316
 6417SOL     OW25433   1.876   4.324   3.767  0.3221 -0.3585  0.3929
 6417SOL    HW225434   1.947   4.381   3.797 -1.0927  1.8900 -0.2723
 6417SOL    HW325435   1.920   4.254   3.719  2.0890  2.6888 -2.9547
 6417SOL    MW425436   1.891   4.322   3.765 -0.0779  0.2714  0.1101
 6418SOL     OW25437   2.476   0.333   5.912  0.0989 -0.1349  0.1116
 6418SOL    HW225438   2.405   0.332   5.848  0.9425  1.8862 -0.9413
 6418SOL    HW325439   2.489   0.426   5.932  1.5901 -0.5522  1.2657
 6418SOL    MW425440   2.468   0.346   5.906 -0.2990 -0.0125 -0.2968
 6419SOL     OW25441   2.089   1.187   4.120 -0.1075  0.3818  0.3119
 6419SOL    HW225442   2.020   1.252   4.128  0.7907  1.1562  2.7087
 6419SOL    HW325443   2.148   1.206   4.193  1.2117 -1.9161 -0.0657
 6419SOL    MW425444   2.087   1.198   4.131 -0.2533 -0.3204  0.4196
 6420SOL     OW25445   2.182   4.913   1.496 -0.2236  0.1536  0.3502
 6420SOL    HW225446   2.229   4.996   1.506  0.5042 -0.1307 -0.5165
 6420SOL    HW325447   2.146   4.895   1.583  1.7071  0.1472  1.2053
 6420SOL    MW425448   2.184   4.922   1.509  0.0625 -0.4510 -0.5643
 6421SOL     OW25449   4.015   5.257   5.899  0.1450 -0.1628  0.2304
 6421SOL    HW225450   3.920   5.248   5.898  0.1678 -0.3940 -0.8132
 6421SOL    HW325451   4.043   5.203   5.973 -0.4475 -1.1445 -0.2352
 6421SOL    MW425452   4.006   5.249   5.909  0.7256 -0.3206  0.4021
 6422SOL     OW25453   1.273   4.087   4.481  0.1720 -0.0127  0.2980
 6422SOL    HW225454   1.202   4.023   4.470 -0.3793  0.8525 -1.7337
 6422SOL    HW325455   1.291   4.087   4.575 -0.7021 -2.1791  0.5217
 6422SOL    MW425456   1.266   4.079   4.492 -0.1301  0.0430  0.0284
 6423SOL     OW25457   0.163   5.285   2.646 -0.3938  0.1415 -0.5893
 6423SOL    HW225458   0.156   5.337   2.566  0.2199  1.8578  0.4143
 6423SOL    HW325459   0.254   5.255   2.647  0.3576  2.1826  0.5817
 6423SOL    MW425460   0.174   5.288   2.636  0.7974 -0.4265  0.4216
 6424SOL     OW25461   6.191   0.832   5.956 -0.1815  0.4590 -0.6922
 6424SOL    HW225462   6.164   0.743   5.976  0.1441  0.3378 -0.7843
 6424SOL    HW325463   6.109   0.882   5.952 -0.2690  0.4763  0.8199
 6424SOL    MW425464   6.177   0.827   5.958 -0.1511 -1.1045 -0.0325
 6425SOL     OW25465   5.137   5.583   5.914  0.3019  0.4125 -0.5753
 6425SOL    HW225466   5.184   5.576   5.996 -0.4591 -0.4767 -0.1932
 6425SOL    HW325467   5.044   5.580   5.939  0.0646  0.0779 -1.4571
 6425SOL    MW425468   5.131   5.582   5.928  0.3303  0.2391  0.4090
 6426SOL     OW25469   6.435   1.133   0.374  0.3073  0.2069 -0.5096
 6426SOL    HW225470   6.516   1.183   0.390  0.2564  0.7115 -1.7249
 6426SOL    HW325471   6.376   1.160   0.444  1.4666 -0.8380  0.9349
 6426SOL    MW425472   6.438   1.143   0.385 -0.0350 -0.5169  0.2707
 6427SOL     OW25473   3.951   6.370   6.258  0.1228  0.3411  0.0051
 6427SOL    HW225474   3.961   6.431   6.331  1.1763  0.3876 -0.1622
 6427SOL    HW325475   4.002   6.409   6.187 -0.7364  0.2036 -0.7138
 6427SOL    MW425476   3.959   6.384   6.259  0.0955 -0.1796 -0.1073
 6428SOL     OW25477   5.940   3.420   0.427  0.2398 -0.2648  0.3201
 6428SOL    HW225478   6.020   3.367   0.431 -0.0373 -0.6661  0.6965
 6428SOL    HW325479   5.946   3.476   0.505  0.6344  0.4183 -0.1903
 6428SOL    MW425480   5.952   3.421   0.438  0.3004 -0.0146 -0.6502
 6429SOL     OW25481   1.585   5.465   5.180  0.0470  0.1053  0.1498
 6429SOL    HW225482   1.500   5.472   5.138  0.5843  1.7311 -0.7743
 6429SOL    HW325483   1.623   5.385   5.144 -0.5100  0.1519 -0.5608
 6429SOL    MW425484   1.579   5.455   5.170 -0.3249  0.1752 -0.0878
 6430SOL     OW25485   1.607   1.089   3.900 -0.4485 -0.2825  0.2079
 6430SOL    HW225486   1.674   1.093   3.969  0.1175  1.7637 -0.3587
 6430SOL    HW325487   1.555   1.168   3.913 -0.7343 -0.1844 -1.2965
 6430SOL    MW425488   1.609   1.100   3.911 -0.1555 -0.2503  0.4380
 6431SOL     OW25489   6.430   0.034   1.795  0.4670 -0.3249 -0.9593
 6431SOL    HW225490   6.498   0.029   1.863 -0.1589 -3.4570 -0.3909
 6431SOL    HW325491   6.349   0.015   1.842 -0.7988  2.4762 -1.7843
 6431SOL    MW425492   6.428   0.031   1.810  0.1098  0.1432 -0.8539
 6432SOL     OW25493   5.123   0.751   2.385 -0.3983  0.4736 -0.9111
 6432SOL    HW225494   5.038   0.715   2.411  0.5725 -0.7739  0.7502
 6432SOL    HW325495   5.126   0.739   2.291 -1.3302 -1.1971 -0.7669
 6432SOL    MW425496   5.112   0.744   2.376  0.4276 -0.2378  0.2631
 6433SOL     OW25497   4.360   4.170   1.897  0.1090 -0.1158  0.3010
 6433SOL    HW225498   4.430   4.185   1.961  0.4056 -0.0353 -0.0349
 6433SOL    HW325499   4.285   4.218   1.930  0.9070  1.7899 -0.5376
 6433SOL    MW425500   4.360   4.178   1.910  0.1406 -0.2732  0.9993
 6434SOL     OW25501   4.882   0.947   3.568 -0.0671 -0.5314  0.4871
 6434SOL    HW225502   4.934   0.920   3.644  0.2420 -2.6125 -0.3861
 6434SOL    HW325503   4.842   1.029   3.595  0.9296 -0.6160  2.4750
 6434SOL    MW425504   4.884   0.954   3.582 -0.0592 -0.4248  0.0639
 6435SOL     OW25505   2.172   5.739   1.350  0.3630 -0.1561 -0.1218
 6435SOL    HW225506   2.107   5.768   1.414  1.1761 -0.6964  0.9844
 6435SOL    HW325507   2.230   5.814   1.338  0.4133 -0.1678  0.0479
 6435SOL    MW425508   2.171   5.752   1.357 -0.2132 -0.1230 -0.2489
 6436SOL     OW25509   4.224   3.268   4.875 -0.2540  0.1665  0.4751
 6436SOL    HW225510   4.183   3.308   4.952 -2.0447  0.7524 -0.6999
 6436SOL    HW325511   4.286   3.205   4.910  1.2842  2.5663  2.4068
 6436SOL    MW425512   4.226   3.265   4.890 -0.1125  0.0443 -0.6236
 6437SOL     OW25513   4.671   4.361   1.841  0.0210  0.8317 -0.2192
 6437SOL    HW225514   4.647   4.401   1.925 -1.2739  0.9316 -0.6247
 6437SOL    HW325515   4.610   4.398   1.778  1.4164  1.2911 -1.3635
 6437SOL    MW425516   4.660   4.371   1.844 -0.1893 -0.1577  0.1452
 6438SOL     OW25517   6.010   6.152   0.508  1.1577 -0.0917 -0.2103
 6438SOL    HW225518   6.080   6.146   0.572  1.2258  0.5985 -0.2187
 6438SOL    HW325519   6.055   6.159   0.423  1.1478  2.2382 -0.0855
 6438SOL    MW425520   6.025   6.152   0.505 -0.1177  0.2656 -0.0905
 6439SOL     OW25521   1.775   3.370   3.414 -0.2333 -0.7991 -0.1074
 6439SOL    HW225522   1.848   3.313   3.393 -1.1640 -1.7952 -0.7434
 6439SOL    HW325523   1.813   3.458   3.418  0.7586 -1.1206 -1.7503
 6439SOL    MW425524   1.790   3.374   3.412  0.6011  0.0535  0.1471
 6440SOL     OW25525   2.548   1.714   1.702 -0.0494 -0.2902 -0.0388
 6440SOL    HW225526   2.592   1.635   1.734  0.4719 -0.6067 -1.4686
 6440SOL    HW325527   2.576   1.783   1.762  1.5106 -0.7100 -0.2343
 6440SOL    MW425528   2.558   1.712   1.714 -0.2563  0.2582 -0.2218
 6441SOL     OW25529   4.476   0.408   4.865  0.5870 -0.1394 -0.2263
 6441SOL    HW225530   4.550   0.348   4.866  1.2473  0.3492 -3.9946
 6441SOL    HW325531   4.515   0.494   4.879  0.5615 -0.0136 -0.8989
 6441SOL    MW425532   4.491   0.412   4.867  0.1970  0.4616 -0.0920
 6442SOL     OW25533   2.581   3.058   5.605  0.2133  0.1037 -0.1075
 6442SOL    HW225534   2.634   2.992   5.649 -0.1304  0.2894  0.5947
 6442SOL    HW325535   2.502   3.012   5.578  0.5423 -0.0762 -0.7951
 6442SOL    MW425536   2.577   3.043   5.607  0.5021 -0.8378 -0.3714
 6443SOL     OW25537   3.223   2.097   1.816 -0.2053  0.2947  0.2847
 6443SOL    HW225538   3.172   2.041   1.757  1.3546  0.5235 -1.3440
 6443SOL    HW325539   3.198   2.186   1.792  0.4177  0.3886 -0.0247
 6443SOL    MW425540   3.213   2.101   1.805 -0.2310  0.0134 -0.7796
 6444SOL     OW25541   0.252   5.441   0.144 -0.2086  0.3458 -0.1112
 6444SOL    HW225542   0.212   5.358   0.169 -0.4188  0.4391 -0.1410
 6444SOL    HW325543   0.189   5.508   0.170 -0.0040  0.5024 -0.0147
 6444SOL    MW425544   0.239   5.439   0.150 -0.3905  0.3578 -0.0730
 6445SOL     OW25545   2.437   1.015   6.205  0.0191 -0.0170 -0.2902
 6445SOL    HW225546   2.523   0.974   6.215  0.0116  0.3519  1.6397
 6445SOL    HW325547   2.376   0.951   6.239 -0.1754  0.7928  0.9559
 6445SOL    MW425548   2.440   1.001   6.211 -0.0234 -0.1586  0.3093
 6446SOL     OW25549   6.003   1.039   5.937 -0.3066  0.7620 -0.6061
 6446SOL    HW225550   6.076   1.099   5.924  0.8281 -0.2193  0.9410
 6446SOL    HW325551   5.965   1.065   6.021  0.6998 -1.1260  0.4883
 6446SOL    MW425552   6.007   1.050   5.946 -0.4171  0.0211  0.1756
 6447SOL     OW25553   3.779   5.255   0.684 -0.8219 -0.4394  0.6585
 6447SOL    HW225554   3.772   5.222   0.595  0.7483  0.5817  0.1060
 6447SOL    HW325555   3.848   5.201   0.724  0.4555  0.8778  0.3266
 6447SOL    MW425556   3.787   5.243   0.678 -0.1527  0.4365 -0.5559
 6448SOL     OW25557   5.870   0.260   2.389 -0.2074 -0.5206  0.0914
 6448SOL    HW225558   5.934   0.278   2.457 -0.1403 -0.3224 -0.0218
 6448SOL    HW325559   5.793   0.311   2.414  0.0054 -0.0124 -0.2647
 6448SOL    MW425560   5.868   0.269   2.401  0.0951 -0.1857 -0.2458
 6449SOL     OW25561   5.153   2.354   4.200  0.9638 -0.0981  0.1207
 6449SOL    HW225562   5.178   2.292   4.268 -0.0976  0.3802  0.9855
 6449SOL    HW325563   5.234   2.401   4.179  1.6950 -1.4937 -0.2790
 6449SOL    MW425564   5.167   2.352   4.207 -0.0173 -0.3075  0.0116
 6450SOL     OW25565   5.035   3.370   4.137  0.3270 -0.5479 -0.1135
 6450SOL    HW225566   4.999   3.322   4.062  1.0545  0.2912 -1.0114
 6450SOL    HW325567   4.992   3.330   4.213 -1.2295 -0.7079 -1.0377
 6450SOL    MW425568   5.024   3.358   4.137  0.0063  0.4196 -0.5123
 6451SOL     OW25569   0.937   5.203   5.474  0.0304  0.1656  0.1317
 6451SOL    HW225570   0.920   5.294   5.450 -0.8735 -0.2488 -0.8687
 6451SOL    HW325571   0.894   5.152   5.406  0.4330 -1.0193  0.7425
 6451SOL    MW425572   0.930   5.208   5.462  0.2591 -0.2917  0.0825
 6452SOL     OW25573   2.783   4.655   3.889 -0.1259 -0.0271 -0.0147
 6452SOL    HW225574   2.732   4.709   3.829 -1.6608 -0.7773  0.5730
 6452SOL    HW325575   2.826   4.719   3.946 -2.5676  0.6658  1.2067
 6452SOL    MW425576   2.782   4.671   3.889  0.2175  0.5097  0.0612
 6453SOL     OW25577   0.808   4.010   3.977 -0.6330 -0.2260  0.3616
 6453SOL    HW225578   0.830   4.098   3.946  1.5438 -0.5004  0.9504
 6453SOL    HW325579   0.712   4.007   3.975 -0.7114  1.1114 -2.4440
 6453SOL    MW425580   0.798   4.021   3.973 -0.2257 -0.2182  0.0223
 6454SOL     OW25581   0.208   4.318   1.507 -0.5014  0.1133  0.0908
 6454SOL    HW225582   0.222   4.265   1.429 -0.4295 -0.3585  0.4177
 6454SOL    HW325583   0.291   4.364   1.521 -0.9028  1.1527 -0.8040
 6454SOL    MW425584   0.221   4.317   1.499 -0.1608 -0.4052 -0.0037
 6455SOL     OW25585   4.034   5.884   6.321 -0.6130 -0.4115  0.3492
 6455SOL    HW225586   3.945   5.887   6.285 -0.6878  0.3520  0.5772
 6455SOL    HW325587   4.024   5.841   6.406 -1.1479  1.6078  1.3752
 6455SOL    MW425588   4.021   5.878   6.327 -0.4800 -0.0756 -0.0943
 6456SOL     OW25589   4.594   1.407   5.538  0.0274  0.0687  0.1070
 6456SOL    HW225590   4.667   1.347   5.522  0.7115  0.8148  0.4018
 6456SOL    HW325591   4.553   1.373   5.618  0.9133  0.4628  0.7388
 6456SOL    MW425592   4.598   1.394   5.547  0.4821 -0.7977  0.1862
 6457SOL     OW25593   4.425   2.060   4.394 -0.3698 -0.4784  0.0548
 6457SOL    HW225594   4.479   2.093   4.323 -1.4741  1.3551  0.0105
 6457SOL    HW325595   4.347   2.024   4.351  0.6986 -3.1273  0.1161
 6457SOL    MW425596   4.422   2.060   4.379  0.0906  0.2073 -0.4119
 6458SOL     OW25597   5.747   5.976   0.323 -0.4358  0.3296  0.3784
 6458SOL    HW225598   5.778   5.965   0.413 -2.9383  1.7255  1.5185
 6458SOL    HW325599   5.821   5.948   0.269  1.2133 -0.4334  2.8371
 6458SOL    MW425600   5.761   5.971   0.328 -0.0789  0.1473 -0.5394
 6459SOL     OW25601   5.095   1.543   3.194 -0.0391  0.0069  0.0726
 6459SOL    HW225602   5.124   1.460   3.233 -1.1408 -0.3632  0.1421
 6459SOL    HW325603   5.068   1.520   3.105 -0.9542  0.1542  0.2985
 6459SOL    MW425604   5.095   1.529   3.188  0.4108  0.4786  0.4816
 6460SOL     OW25605   4.961   3.424   3.734 -0.3230 -0.0899 -0.5243
 6460SOL    HW225606   4.982   3.331   3.738  1.1030  0.2490  1.1693
 6460SOL    HW325607   4.865   3.426   3.726 -0.4285 -1.6981 -0.1398
 6460SOL    MW425608   4.951   3.412   3.734 -0.3460 -0.1382 -0.7025
 6461SOL     OW25609   2.055   5.367   0.570  0.5445 -0.1637  0.8076
 6461SOL    HW225610   2.038   5.364   0.664  0.0643  2.8370  0.9228
 6461SOL    HW325611   2.061   5.461   0.549  2.2942 -0.7419 -1.8852
 6461SOL    MW425612   2.053   5.379   0.579  0.0962 -0.3993  0.7485
 6462SOL     OW25613   2.908   5.539   0.753 -0.2241  0.2795  0.0536
 6462SOL    HW225614   2.821   5.564   0.724 -0.7182  0.0224  1.2975
 6462SOL    HW325615   2.956   5.621   0.761 -0.0123  0.3545 -1.6188
 6462SOL    MW425616   2.903   5.553   0.750  0.4572 -0.0848  0.5636
 6463SOL     OW25617   2.713   2.672   4.558  0.1840 -0.6024  0.0466
 6463SOL    HW225618   2.767   2.594   4.542 -0.9962 -1.4602  0.0990
 6463SOL    HW325619   2.653   2.675   4.483 -0.5156 -0.4024  0.6017
 6463SOL    MW425620   2.712   2.662   4.546  0.0711 -0.0958 -0.2545
 6464SOL     OW25621   3.176   2.205   1.395  0.1692  0.3820 -0.2738
 6464SOL    HW225622   3.262   2.217   1.434  0.3806  0.2712 -0.6949
 6464SOL    HW325623   3.140   2.127   1.437 -1.1071  2.2214  2.2999
 6464SOL    MW425624   3.182   2.197   1.406 -0.3332 -0.7041  0.8184
 6465SOL     OW25625   0.386   1.639   0.974  0.3671 -0.4544 -0.1060
 6465SOL    HW225626   0.375   1.607   0.885  1.2438 -1.4810  0.1350
 6465SOL    HW325627   0.408   1.731   0.964 -0.5214 -0.3141 -0.8987
 6465SOL    MW425628   0.387   1.647   0.961  0.1349  0.3427 -0.5338
 6466SOL     OW25629   2.523   2.968   4.591 -0.7798 -0.8104 -0.1930
 6466SOL    HW225630   2.547   2.916   4.668 -0.8633 -0.9168 -0.2383
 6466SOL    HW325631   2.458   3.031   4.624  0.0738 -0.0497  0.0835
 6466SOL    MW425632   2.517   2.970   4.606  0.9628  0.4532 -0.1573
 6467SOL     OW25633   2.570   0.180   4.428 -0.5298  0.2933  0.1870
 6467SOL    HW225634   2.640   0.220   4.377 -1.0733 -0.1934 -0.9530
 6467SOL    HW325635   2.549   0.246   4.495 -0.4324  1.3241 -0.7776
 6467SOL    MW425636   2.576   0.194   4.430  0.1318  0.3117  0.0934
 6468SOL     OW25637   3.165   1.486   0.277 -0.5881 -0.7669 -0.0602
 6468SOL    HW225638   3.252   1.525   0.289 -0.2807 -1.4449 -0.0244
 6468SOL    HW325639   3.161   1.466   0.183 -1.3811  0.8050 -0.3857
 6468SOL    MW425640   3.176   1.488   0.266  0.2755  0.6534  0.4274
 6469SOL     OW25641   4.677   4.244   4.225  0.3194 -0.4931  0.5478
 6469SOL    HW225642   4.745   4.268   4.288  0.5768  1.2742 -0.3291
 6469SOL    HW325643   4.657   4.152   4.244  0.7048 -0.1508  2.8739
 6469SOL    MW425644   4.683   4.235   4.236 -0.1576  0.0485  0.3070
 6470SOL     OW25645   5.058   0.605   2.739  0.1566  0.2861 -0.5855
 6470SOL    HW225646   5.083   0.693   2.768  3.1479 -0.5903 -0.1292
 6470SOL    HW325647   5.021   0.564   2.817  1.1118  0.3780 -0.0597
 6470SOL    MW425648   5.057   0.611   2.753 -0.6313  0.4289  0.1608
 6471SOL     OW25649   4.489   2.958   3.294  0.1767 -0.4251  0.2481
 6471SOL    HW225650   4.486   2.888   3.360  2.0993 -0.1129  0.7281
 6471SOL    HW325651   4.577   2.993   3.301 -0.6729  1.9303 -0.1450
 6471SOL    MW425652   4.500   2.953   3.304  0.1436  0.1894 -0.2239
 6472SOL     OW25653   2.359   3.578   5.184  0.1133 -0.5714 -0.1266
 6472SOL    HW225654   2.350   3.517   5.111  1.0955  0.2345 -0.9469
 6472SOL    HW325655   2.417   3.647   5.151 -0.0083  0.1854  1.1743
 6472SOL    MW425656   2.366   3.579   5.170 -0.6574  0.3754  0.0911
 6473SOL     OW25657   3.704   5.089   6.040 -0.1246 -0.1110  0.6545
 6473SOL    HW225658   3.732   5.143   6.114  1.4706 -0.1049  0.0871
 6473SOL    HW325659   3.754   5.008   6.050 -0.0594 -0.1943 -0.3004
 6473SOL    MW425660   3.714   5.086   6.051  0.2287 -0.5177 -0.5628
 6474SOL     OW25661   2.633   3.408   0.178 -0.1453 -0.4327  0.2037
 6474SOL    HW225662   2.697   3.441   0.116 -1.4501  1.9639  0.0064
 6474SOL    HW325663   2.680   3.401   0.261  0.8250 -0.6001 -0.3525
 6474SOL    MW425664   2.647   3.411   0.181  0.8043  0.1161  0.0395
 6475SOL     OW25665   0.292   2.245   3.340 -0.1167 -0.1042 -0.2856
 6475SOL    HW225666   0.377   2.288   3.338 -0.2242  0.1329 -2.6939
 6475SOL    HW325667   0.240   2.296   3.402  1.2426  0.2232  0.6080
 6475SOL    MW425668   0.296   2.257   3.348 -0.1698 -0.4277 -0.7590
 6476SOL     OW25669   2.282   2.745   5.395  0.3568 -0.0472  0.0924
 6476SOL    HW225670   2.304   2.829   5.435  0.9393  0.0176 -0.3495
 6476SOL    HW325671   2.324   2.747   5.309  0.4368 -0.8153  0.1019
 6476SOL    MW425672   2.291   2.756   5.389  0.1538 -0.6007 -0.0314
 6477SOL     OW25673   5.890   2.894   3.154 -0.2093  0.0780  0.4014
 6477SOL    HW225674   5.817   2.837   3.128 -0.6922 -0.3139  2.4087
 6477SOL    HW325675   5.860   2.982   3.134 -0.5902 -0.1898 -0.2272
 6477SOL    MW425676   5.876   2.898   3.148  0.1108 -0.5193  0.4344
 6478SOL     OW25677   3.018   3.328   5.021 -0.5271 -0.1706 -0.6147
 6478SOL    HW225678   3.049   3.413   4.991  1.4761 -1.0703 -1.3058
 6478SOL    HW325679   3.044   3.324   5.113  0.9847 -0.6824 -1.0355
 6478SOL    MW425680   3.026   3.338   5.029  0.1629  0.5827 -0.1090
 6479SOL     OW25681   3.702   0.538   0.612 -0.5488 -0.0572 -0.3871
 6479SOL    HW225682   3.655   0.522   0.530 -0.9345  2.2897 -0.6838
 6479SOL    HW325683   3.637   0.519   0.680 -1.0158  0.3182 -0.7146
 6479SOL    MW425684   3.687   0.533   0.610  0.1107  0.1519 -0.1165
 6480SOL     OW25685   5.217   5.359   4.037  0.2941 -0.7915  0.0212
 6480SOL    HW225686   5.149   5.316   4.089 -0.5448 -1.7185 -1.7181
 6480SOL    HW325687   5.170   5.427   3.988  1.2847  0.9147  1.3227
 6480SOL    MW425688   5.202   5.362   4.037  0.3368  0.2584  0.5015
 6481SOL     OW25689   3.932   5.972   4.794  0.1178  0.3246  0.5177
 6481SOL    HW225690   3.907   5.910   4.862 -1.4021 -0.4694 -0.7186
 6481SOL    HW325691   3.950   5.918   4.717  0.8215  1.2781 -0.0090
 6481SOL    MW425692   3.931   5.957   4.793  0.5970 -0.0347  0.1652
 6482SOL     OW25693   2.920   3.123   4.686  0.3463  0.7683  0.1915
 6482SOL    HW225694   2.834   3.142   4.724  0.4510  2.8025 -0.4519
 6482SOL    HW325695   2.916   3.031   4.662 -0.1948 -0.3468  3.8429
 6482SOL    MW425696   2.908   3.113   4.688 -0.5850 -0.4650 -0.2644
 6483SOL     OW25697   0.175   0.597   3.161  0.0325 -0.0515 -0.3018
 6483SOL    HW225698   0.127   0.515   3.152  0.2805 -0.1767 -0.5144
 6483SOL    HW325699   0.108   0.665   3.163 -0.1039 -0.0763 -2.2106
 6483SOL    MW425700   0.160   0.595   3.160  0.1491  0.4413  0.4542
 6484SOL     OW25701   3.467   5.333   3.493 -1.0941  0.4105 -0.1999
 6484SOL    HW225702   3.399   5.396   3.469  1.3142  2.8185 -1.2572
 6484SOL    HW325703   3.490   5.290   3.411 -1.0045 -0.0489  0.0629
 6484SOL    MW425704   3.461   5.336   3.479  0.0689 -0.1200  0.0268
 6485SOL     OW25705   5.930   4.222   0.925 -0.3943  0.3261 -0.0812
 6485SOL    HW225706   5.921   4.197   1.017  2.1012 -1.2909 -0.1815
 6485SOL    HW325707   5.961   4.312   0.928 -1.2957  0.6365  0.5948
 6485SOL    MW425708   5.933   4.230   0.938 -0.1391  0.3851  0.4128
 6486SOL     OW25709   2.068   3.513   3.061 -0.3527 -0.2117 -0.1567
 6486SOL    HW225710   2.110   3.596   3.080  0.7304 -1.0486  1.3434
 6486SOL    HW325711   2.073   3.464   3.143 -1.5692 -1.5113 -0.8047
 6486SOL    MW425712   2.074   3.517   3.075 -0.3809  0.1207  0.1953
 6487SOL     OW25713   5.493   5.212   0.414  0.1405 -1.1132 -0.3245
 6487SOL    HW225714   5.477   5.279   0.481  0.4477 -2.0581  0.7097
 6487SOL    HW325715   5.480   5.259   0.331  1.1712  0.4526  0.3383
 6487SOL    MW425716   5.489   5.227   0.412 -0.0684  0.2274 -0.6592
 6488SOL     OW25717   0.938   3.759   1.633  0.1822  0.1705  0.4568
 6488SOL    HW225718   0.958   3.786   1.723 -1.5440 -1.2200  1.3047
 6488SOL    HW325719   0.859   3.808   1.611  0.8194  0.8038 -0.4855
 6488SOL    MW425720   0.931   3.769   1.642 -0.5269 -0.0631 -0.1981
 6489SOL     OW25721   0.269   2.367   0.943  0.2609  0.1112  0.1197
 6489SOL    HW225722   0.285   2.281   0.983 -2.9074 -1.5993 -1.8788
 6489SOL    HW325723   0.184   2.394   0.979 -0.9861  0.1724 -2.6801
 6489SOL    MW425724   0.260   2.359   0.953  0.0122 -0.1274 -0.5056
 6490SOL     OW25725   1.627   5.013   6.402  0.5588 -0.4416 -0.7984
 6490SOL    HW225726   1.540   5.007   6.364  0.6721 -1.6605 -0.8850
 6490SOL    HW325727   1.612   5.042   6.492  0.1705  0.6232 -1.1909
 6490SOL    MW425728   1.614   5.016   6.409 -0.2827 -0.4694  0.0444
 6491SOL     OW25729   3.556   3.275   3.146 -0.3304 -0.2847 -0.5106
 6491SOL    HW225730   3.600   3.249   3.065 -2.4459  1.5211 -2.3550
 6491SOL    HW325731   3.571   3.369   3.152 -1.4745 -0.1362  0.3812
 6491SOL    MW425732   3.564   3.284   3.136 -0.2683 -0.0198  0.5036
 6492SOL     OW25733   6.065   2.489   3.450  0.2534  0.1196  0.7350
 6492SOL    HW225734   6.115   2.546   3.392  0.8936 -0.0684  1.0954
 6492SOL    HW325735   6.114   2.407   3.451  0.0841  0.0224  1.3025
 6492SOL    MW425736   6.078   2.486   3.442  0.9623 -0.1605 -0.1059
 6493SOL     OW25737   6.325   2.693   6.264 -0.3607  0.5484  0.7315
 6493SOL    HW225738   6.363   2.606   6.278  1.4134  0.4689 -3.2765
 6493SOL    HW325739   6.401   2.749   6.244 -1.8095  1.9943 -1.0004
 6493SOL    MW425740   6.340   2.689   6.264  0.1319  0.5844 -0.2024
 6494SOL     OW25741   3.078   3.914   1.560 -0.4825  0.0171  0.5148
 6494SOL    HW225742   3.163   3.957   1.557 -0.3953 -0.1624  0.4514
 6494SOL    HW325743   3.022   3.968   1.504 -0.1694 -0.4067 -0.2163
 6494SOL    MW425744   3.082   3.927   1.553 -0.1330 -0.0115  0.1270
 6495SOL     OW25745   3.722   1.832   2.894 -0.2756 -0.0766 -0.4739
 6495SOL    HW225746   3.763   1.913   2.923 -0.1016 -1.0976  2.4188
 6495SOL    HW325747   3.692   1.789   2.974 -0.2337 -2.9601 -1.8443
 6495SOL    MW425748   3.724   1.837   2.908  0.2261 -0.5925  0.4349
 6496SOL     OW25749   3.542   1.219   6.203 -0.2354 -0.0356 -0.0150
 6496SOL    HW225750   3.507   1.307   6.190  0.2576  0.0931 -0.4879
 6496SOL    HW325751   3.517   1.171   6.124 -0.7513 -0.4048  0.3665
 6496SOL    MW425752   3.534   1.224   6.191 -0.1646  0.6620 -0.2589
 6497SOL     OW25753   5.985   5.609   0.295 -0.5912 -0.5106  0.4200
 6497SOL    HW225754   5.960   5.699   0.274  0.7916  0.5365  2.8519
 6497SOL    HW325755   5.931   5.586   0.371 -0.9313 -1.8005 -0.1673
 6497SOL    MW425756   5.974   5.617   0.302 -0.0532 -0.4945 -0.4257
 6498SOL     OW25757   4.203   6.114   3.596 -0.1256  0.2932 -0.7882
 6498SOL    HW225758   4.210   6.020   3.611  2.0786  0.4642 -0.4176
 6498SOL    HW325759   4.193   6.151   3.684 -0.7254  0.4554 -0.9155
 6498SOL    MW425760   4.202   6.106   3.610 -0.7093 -0.0998  0.5329
 6499SOL     OW25761   2.121   2.174   4.581  0.1550  0.0353 -0.6871
 6499SOL    HW225762   2.129   2.262   4.619 -2.3670 -0.2794  0.8277
 6499SOL    HW325763   2.074   2.187   4.499 -0.7373  0.0801 -0.1800
 6499SOL    MW425764   2.116   2.187   4.575 -0.0012  0.2877 -0.6585
 6500SOL     OW25765   5.248   0.738   2.135 -0.4744 -0.7449 -0.0011
 6500SOL    HW225766   5.321   0.680   2.114 -0.5829 -0.6356 -0.7135
 6500SOL    HW325767   5.280   0.826   2.113  0.1499 -0.3517  2.2853
 6500SOL    MW425768   5.262   0.742   2.129 -0.1147  0.4566  0.5670
 6501SOL     OW25769   0.893   4.554   5.732  0.1182 -0.3171 -0.0189
 6501SOL    HW225770   0.803   4.587   5.736 -0.3802 -1.6214 -0.0078
 6501SOL    HW325771   0.908   4.538   5.639  0.1715 -0.5329  0.0271
 6501SOL    MW425772   0.883   4.556   5.721 -0.9638 -0.2181  0.0351
 6502SOL     OW25773   2.033   5.218   5.968 -0.2111  0.4558 -0.3983
 6502SOL    HW225774   1.961   5.258   6.018 -0.5405 -0.0556 -0.4604
 6502SOL    HW325775   1.999   5.133   5.941  0.7420 -0.1640  0.3070
 6502SOL    MW425776   2.019   5.212   5.971  0.0274  0.0920 -0.1726
 6503SOL     OW25777   4.149   5.686   0.469 -0.0044  0.0640  0.2964
 6503SOL    HW225778   4.186   5.731   0.393 -1.6639 -0.5398 -0.9098
 6503SOL    HW325779   4.225   5.648   0.513  0.9800  0.2758 -1.1549
 6503SOL    MW425780   4.164   5.687   0.465  0.1713 -0.1050  0.2903
 6504SOL     OW25781   5.691   1.402   5.471 -0.8131 -0.1818 -0.4300
 6504SOL    HW225782   5.626   1.348   5.425 -1.9162  1.6736 -1.1698
 6504SOL    HW325783   5.639   1.468   5.516  0.5058  0.6742 -0.1040
 6504SOL    MW425784   5.675   1.404   5.471 -0.0615 -0.2935 -0.2579
 6505SOL     OW25785   0.465   0.391   2.655  0.1366  0.2922  0.8812
 6505SOL    HW225786   0.396   0.359   2.597  0.0084  1.4613  0.3544
 6505SOL    HW325787   0.521   0.315   2.669 -1.2598 -0.6873  1.3569
 6505SOL    MW425788   0.464   0.377   2.649  0.2920 -0.1387 -0.6462
 6506SOL     OW25789   1.324   2.946   6.267 -0.0746  0.2006  0.3812
 6506SOL    HW225790   1.329   2.903   6.182 -2.4932  0.0068  0.2571
 6506SOL    HW325791   1.231   2.965   6.279  0.4143  1.7978  2.2282
 6506SOL    MW425792   1.313   2.943   6.257 -0.2734 -0.2025 -0.5487
 6507SOL     OW25793   3.318   5.057   0.618  0.0002  0.4162 -0.6313
 6507SOL    HW225794   3.305   5.112   0.696 -1.8703 -0.5707 -0.1798
 6507SOL    HW325795   3.412   5.043   0.614  0.2669  1.5889  0.6910
 6507SOL    MW425796   3.329   5.063   0.628  0.8181 -0.2468  0.0098
 6508SOL     OW25797   4.996   1.719   0.126  0.1454  0.4089 -0.7410
 6508SOL    HW225798   5.086   1.733   0.157  0.5180 -0.1649 -1.5078
 6508SOL    HW325799   4.945   1.789   0.167  0.3495 -0.9357  2.0516
 6508SOL    MW425800   5.001   1.730   0.135 -0.4720 -0.5320  0.6051
 6509SOL     OW25801   5.263   3.279   5.505 -0.3527 -0.3778  0.5567
 6509SOL    HW225802   5.343   3.333   5.508  0.8567 -1.9790 -0.8744
 6509SOL    HW325803   5.283   3.203   5.559 -0.3122 -1.4706 -0.9163
 6509SOL    MW425804   5.277   3.276   5.512 -0.4786 -0.0724 -0.1120
 6510SOL     OW25805   6.230   3.887   0.579 -0.9581  0.2806 -0.5832
 6510SOL    HW225806   6.170   3.920   0.646 -0.0223 -1.1810  1.0488
 6510SOL    HW325807   6.286   3.962   0.558  1.2455 -0.0666  3.1430
 6510SOL    MW425808   6.229   3.901   0.585 -0.1003  0.5368  0.7669
 6511SOL     OW25809   5.647   3.183   5.524 -0.2628 -0.2749 -0.2207
 6511SOL    HW225810   5.662   3.271   5.558  1.1240 -0.8361  0.6891
 6511SOL    HW325811   5.563   3.157   5.562  0.2440 -0.0763  1.0574
 6511SOL    MW425812   5.638   3.191   5.533 -0.5224 -0.0806 -0.3013
 6512SOL     OW25813   2.540   3.015   3.715  0.4739  0.3722  0.3973
 6512SOL    HW225814   2.601   3.064   3.660 -0.8356  0.6416 -0.8900
 6512SOL    HW325815   2.590   2.939   3.744  1.0357 -0.1805 -1.7929
 6512SOL    MW425816   2.555   3.011   3.712  0.2063 -0.8864 -0.3935
 6513SOL     OW25817   4.963   4.652   4.404  0.0043 -0.3912 -0.4649
 6513SOL    HW225818   4.938   4.560   4.412  2.2506 -0.9704  0.4135
 6513SOL    HW325819   4.928   4.678   4.319  0.0179 -2.2852 -1.1015
 6513SOL    MW425820   4.955   4.643   4.394 -0.2937 -0.4791  0.5381
 6514SOL     OW25821   5.315   3.398   1.556 -0.0799  0.2647 -0.0247
 6514SOL    HW225822   5.315   3.416   1.650 -1.5666 -1.7334  0.4290
 6514SOL    HW325823   5.224   3.377   1.535  0.5825 -1.6019 -1.3994
 6514SOL    MW425824   5.303   3.398   1.565  0.6308 -0.1485 -0.0462
 6515SOL     OW25825   4.082   5.201   3.016  0.3071  0.7430 -0.5869
 6515SOL    HW225826   4.089   5.106   3.025  1.1746  0.9339  1.1351
 6515SOL    HW325827   4.072   5.215   2.922 -2.0415 -1.1637 -0.7475
 6515SOL    MW425828   4.081   5.190   3.005 -0.0427  0.3562  0.3783
 6516SOL     OW25829   2.327   2.024   4.470  0.4776  0.0003 -0.0363
 6516SOL    HW225830   2.278   2.083   4.527 -0.8225 -0.4308 -0.6496
 6516SOL    HW325831   2.308   2.055   4.381 -0.5963 -1.5353 -0.4013
 6516SOL    MW425832   2.318   2.036   4.465  0.0457  0.4429  0.1353
 6517SOL     OW25833   4.022   0.260   3.476  0.4181 -0.1353 -0.0147
 6517SOL    HW225834   3.992   0.348   3.500  0.0606  0.0456 -1.0738
 6517SOL    HW325835   3.960   0.201   3.520  0.7365  0.1206  0.8041
 6517SOL    MW425836   4.010   0.264   3.485  0.6108 -0.0601  0.2860
 6518SOL     OW25837   4.203   1.140   4.237 -0.4494 -0.0522  0.0433
 6518SOL    HW225838   4.189   1.234   4.247  0.7221  0.0659  0.7649
 6518SOL    HW325839   4.297   1.130   4.222 -0.6282 -1.0805 -0.5396
 6518SOL    MW425840   4.213   1.151   4.237  0.0202  0.2228 -0.0909
 6519SOL     OW25841   3.007   4.583   4.294  0.4341 -0.2381 -0.4588
 6519SOL    HW225842   2.945   4.581   4.367  0.4807  0.9062 -0.3700
 6519SOL    HW325843   3.081   4.634   4.327  1.0371 -0.8504 -0.8624
 6519SOL    MW425844   3.009   4.590   4.308 -0.1839  0.8022  0.2457
 6520SOL     OW25845   0.915   2.228   1.375  0.8389  0.1608  0.0681
 6520SOL    HW225846   1.008   2.211   1.356  1.0964  0.1619  1.2585
 6520SOL    HW325847   0.914   2.317   1.409  0.0253  1.1681 -2.3294
 6520SOL    MW425848   0.927   2.238   1.377  0.4149  0.4385  0.1629
 6521SOL     OW25849   4.329   3.941   0.125  0.3350  0.1598 -0.1192
 6521SOL    HW225850   4.329   4.003   0.198  0.0237 -0.7909  0.7092
 6521SOL    HW325851   4.360   3.859   0.163  0.7089 -0.2109 -1.1886
 6521SOL    MW425852   4.333   3.938   0.140 -0.4635 -0.6970  0.5354
 6522SOL     OW25853   0.282   2.105   6.374 -0.3065 -0.1971 -0.0674
 6522SOL    HW225854   0.200   2.055   6.371  0.1923 -0.9961 -1.6612
 6522SOL    HW325855   0.330   2.077   6.296  3.1900 -2.6186  2.6762
 6522SOL    MW425856   0.277   2.095   6.363 -0.5286  0.5116  1.3126
 6523SOL     OW25857   2.403   5.122   0.759  0.4431 -0.1561 -0.1805
 6523SOL    HW225858   2.398   5.190   0.692 -1.9798 -0.0304  0.0148
 6523SOL    HW325859   2.347   5.155   0.830  1.8327 -0.9079  1.3377
 6523SOL    MW425860   2.395   5.135   0.760  0.0648  0.2088  0.0996
 6524SOL     OW25861   0.531   4.289   5.553  0.1562 -0.1311  0.5158
 6524SOL    HW225862   0.448   4.282   5.602  0.4264  1.5061  1.2617
 6524SOL    HW325863   0.503   4.299   5.462 -0.4874  0.4318  0.7587
 6524SOL    MW425864   0.516   4.289   5.548 -0.2353  0.8675 -0.5569
 6525SOL     OW25865   3.860   3.183   2.320 -0.0294  0.4084 -0.1975
 6525SOL    HW225866   3.937   3.166   2.266  0.8350 -0.0689  1.1127
 6525SOL    HW325867   3.793   3.123   2.288  0.5989 -0.1499 -0.4746
 6525SOL    MW425868   3.862   3.173   2.309  0.3815 -0.1172 -0.5849
 6526SOL     OW25869   4.144   0.442   1.564 -0.1716 -0.1084  0.7668
 6526SOL    HW225870   4.134   0.537   1.563  0.8802  0.0199 -0.1815
 6526SOL    HW325871   4.230   0.427   1.602 -0.8433 -0.7611  2.0734
 6526SOL    MW425872   4.154   0.453   1.569 -0.5204  0.1122 -0.1225
 6527SOL     OW25873   0.713   3.804   1.054 -0.3782  0.2182  0.1186
 6527SOL    HW225874   0.699   3.839   1.142  3.0298 -0.9635  1.3016
 6527SOL    HW325875   0.641   3.742   1.042 -1.0194  0.5087  2.0312
 6527SOL    MW425876   0.701   3.800   1.064  0.1935  0.0353 -0.1950
 6528SOL     OW25877   6.326   2.964   0.029 -0.1907 -0.2284 -0.0635
 6528SOL    HW225878   6.307   2.875  -0.000 -3.6710 -0.0316  1.1637
 6528SOL    HW325879   6.284   3.020  -0.036 -0.1271  0.4465  0.4655
 6528SOL    MW425880   6.318   2.960   0.017 -0.3681  0.2629 -0.0607
 6529SOL     OW25881   4.556   2.443   3.680 -0.2337 -0.6567  0.4731
 6529SOL    HW225882   4.605   2.471   3.603 -2.0959 -0.6059 -0.7675
 6529SOL    HW325883   4.551   2.348   3.673 -1.6075 -0.5541 -0.2886
 6529SOL    MW425884   4.562   2.434   3.669  0.0007 -0.7212  0.3362
 6530SOL     OW25885   4.633   2.089   2.965 -0.0313  0.4062 -0.2878
 6530SOL    HW225886   4.675   2.174   2.979 -1.1628  0.5784  2.7771
 6530SOL    HW325887   4.699   2.025   2.990  0.2115  0.4321 -0.8426
 6530SOL    MW425888   4.647   2.092   2.970  0.1410 -0.2980 -0.1925
 6531SOL     OW25889   5.670   1.115   4.206  0.0602  0.5554 -0.1601
 6531SOL    HW225890   5.580   1.112   4.237  0.4467  0.2195  0.9598
 6531SOL    HW325891   5.681   1.033   4.158 -0.1431  0.4594 -0.0440
 6531SOL    MW425892   5.660   1.104   4.204 -0.0886 -0.1177 -0.5429
 6532SOL     OW25893   3.880   4.366   3.036  0.0828 -0.2668 -0.2780
 6532SOL    HW225894   3.852   4.432   3.099 -0.0270  0.0798 -0.6825
 6532SOL    HW325895   3.939   4.309   3.085  1.0210  0.7465 -0.1876
 6532SOL    MW425896   3.884   4.367   3.051 -0.5480  0.2996 -0.3008
 6533SOL     OW25897   4.814   4.204   1.457 -0.0700 -0.1895  0.5961
 6533SOL    HW225898   4.842   4.130   1.511  1.7570  0.0175 -0.0178
 6533SOL    HW325899   4.718   4.201   1.461 -0.0313 -0.8601  2.9116
 6533SOL    MW425900   4.805   4.194   1.465 -0.0095 -0.2134  0.1032
 6534SOL     OW25901   5.727   2.565   2.339  0.3456  0.2985  0.0063
 6534SOL    HW225902   5.633   2.562   2.323  0.6803  1.6865 -3.0097
 6534SOL    HW325903   5.754   2.473   2.345 -0.7205 -0.3713 -3.2712
 6534SOL    MW425904   5.718   2.553   2.338  0.2153  0.1021  0.9642
 6535SOL     OW25905   6.150   3.762   1.158 -0.3862  0.1668 -0.1788
 6535SOL    HW225906   6.220   3.725   1.104  0.2396 -1.2950  1.5150
 6535SOL    HW325907   6.078   3.700   1.148 -0.7445  0.6155 -0.3858
 6535SOL    MW425908   6.150   3.749   1.150 -0.4114 -0.1109 -0.1274
 6536SOL     OW25909   2.201   0.184   5.050 -0.0897  0.2200  0.1178
 6536SOL    HW225910   2.253   0.214   4.975  0.7357 -0.7719  0.2607
 6536SOL    HW325911   2.151   0.110   5.016  1.3558 -1.1478  0.8548
 6536SOL    MW425912   2.202   0.178   5.035  1.2230 -0.2203 -0.2996
 6537SOL     OW25913   4.765   4.504   6.017  0.3678  0.1764  0.2490
 6537SOL    HW225914   4.769   4.505   5.921 -0.6288 -0.0239  0.1943
 6537SOL    HW325915   4.744   4.594   6.040 -0.2536  0.0372  0.2301
 6537SOL    MW425916   4.763   4.516   6.007 -0.0009  0.0088 -0.1819
 6538SOL     OW25917   3.109   0.788   2.535 -0.0506  0.1488  0.4451
 6538SOL    HW225918   3.132   0.783   2.627  0.1480  1.5326  0.4947
 6538SOL    HW325919   3.119   0.880   2.513  0.0441 -0.1839 -1.0021
 6538SOL    MW425920   3.113   0.799   2.544  0.4986 -0.5389  0.0859
 6539SOL     OW25921   2.950   0.891   3.294  0.3558  0.3532  0.0009
 6539SOL    HW225922   2.957   0.916   3.201 -0.1852  0.2813 -0.0567
 6539SOL    HW325923   2.965   0.973   3.341 -0.9707  0.7183 -0.1836
 6539SOL    MW425924   2.953   0.905   3.288 -0.3795 -0.0791  0.0908
 6540SOL     OW25925   6.019   2.911   2.869  0.1217 -0.3547  0.2411
 6540SOL    HW225926   5.993   2.884   2.957  0.0341  0.6964  0.5612
 6540SOL    HW325927   6.108   2.943   2.880  0.2581 -0.6172 -0.1326
 6540SOL    MW425928   6.027   2.912   2.882  0.0464 -0.1143  0.4971
 6541SOL     OW25929   1.558   3.101   0.668 -0.7767 -0.0286  0.0547
 6541SOL    HW225930   1.620   3.174   0.677 -1.0539  0.3184 -0.7483
 6541SOL    HW325931   1.537   3.100   0.575 -1.1709 -0.8182  0.1498
 6541SOL    MW425932   1.564   3.111   0.657  0.2278  0.6274 -0.1401
 6542SOL     OW25933   0.064   0.320   3.156 -0.1217  0.2502  0.0075
 6542SOL    HW225934   0.120   0.311   3.234  1.3012 -1.5387 -1.1519
 6542SOL    HW325935  -0.015   0.364   3.189  0.6031 -0.0593  2.3750
 6542SOL    MW425936   0.061   0.324   3.171 -0.9764  0.0169  0.0029
 6543SOL     OW25937   5.128   3.119   0.586  0.0019 -0.3961  0.1388
 6543SOL    HW225938   5.186   3.141   0.514 -0.4176  0.7131  0.1235
 6543SOL    HW325939   5.184   3.119   0.663  0.5243 -1.9334 -0.2043
 6543SOL    MW425940   5.143   3.121   0.587 -0.4178  0.2430  0.0802
 6544SOL     OW25941   2.487   1.214   0.672 -0.8727  0.0239 -1.0856
 6544SOL    HW225942   2.552   1.283   0.686 -0.1360 -0.4895 -1.9034
 6544SOL    HW325943   2.403   1.255   0.696 -0.4039  1.0666 -1.1621
 6544SOL    MW425944   2.484   1.229   0.677  0.4862  0.2290 -0.0170
 6545SOL     OW25945   1.854   2.532   5.787 -0.4012 -0.1967 -0.1819
 6545SOL    HW225946   1.760   2.546   5.795 -0.4467 -1.0271  0.9047
 6545SOL    HW325947   1.893   2.591   5.851 -0.2994 -1.1490  0.6555
 6545SOL    MW425948   1.847   2.542   5.796  0.0251 -0.2597 -0.3532
 6546SOL     OW25949   0.176   1.661   5.895  0.6791  0.1710 -0.2911
 6546SOL    HW225950   0.126   1.719   5.838 -1.9721 -0.3645  1.3222
 6546SOL    HW325951   0.195   1.714   5.973 -0.8695 -0.7032  0.7505
 6546SOL    MW425952   0.172   1.676   5.898 -0.0416 -0.2037  0.0947
 6547SOL     OW25953   5.243   2.676   4.718  0.4528 -0.1479  0.2704
 6547SOL    HW225954   5.166   2.626   4.746 -1.1864  1.1777 -1.5987
 6547SOL    HW325955   5.256   2.741   4.788 -1.1562  0.6408 -0.1299
 6547SOL    MW425956   5.235   2.678   4.731  0.2111 -0.0756  0.4537
 6548SOL     OW25957   1.870   5.879   3.435 -0.1620 -0.1584 -0.3309
 6548SOL    HW225958   1.798   5.821   3.412 -0.4779  0.0626  0.0935
 6548SOL    HW325959   1.835   5.937   3.503 -0.1835  1.2416 -1.4819
 6548SOL    MW425960   1.856   5.879   3.441 -0.1617  0.1380 -0.4289
 6549SOL     OW25961   0.376   5.547   3.879  0.3998 -0.0912  0.5056
 6549SOL    HW225962   0.283   5.529   3.884  0.3658  0.1482  0.8131
 6549SOL    HW325963   0.394   5.559   3.786 -0.4728  2.8121  0.6087
 6549SOL    MW425964   0.366   5.546   3.868 -0.2096 -0.1012  0.2070
 6550SOL     OW25965   0.033   2.905   2.820  0.7814 -0.0982  0.5310
 6550SOL    HW225966  -0.017   2.828   2.847  0.6675 -0.3689 -0.4114
 6550SOL    HW325967   0.117   2.895   2.864  0.5097 -0.3790  0.9987
 6550SOL    MW425968   0.037   2.894   2.830  0.1374  0.0250 -0.1717
 6551SOL     OW25969   5.137   0.216   3.826 -0.6630 -0.6593 -0.2964
 6551SOL    HW225970   5.087   0.259   3.756  0.0268  1.3732  0.3921
 6551SOL    HW325971   5.168   0.288   3.881  3.5843 -1.6606 -0.9968
 6551SOL    MW425972   5.135   0.231   3.824  0.2694 -0.4554 -0.0673
 6552SOL     OW25973   4.520   5.681   3.704 -0.7247 -0.3925 -0.1994
 6552SOL    HW225974   4.607   5.667   3.743 -0.5008 -0.0329 -0.5600
 6552SOL    HW325975   4.533   5.755   3.644 -1.6349  0.7284  0.9328
 6552SOL    MW425976   4.534   5.689   3.701 -0.6511  0.7464 -0.0352
 6553SOL     OW25977   5.570   5.713   4.634  0.9048  0.1723  0.2624
 6553SOL    HW225978   5.557   5.678   4.546 -0.3739  0.0125  0.5027
 6553SOL    HW325979   5.507   5.785   4.641  0.6522 -0.1275  1.2098
 6553SOL    MW425980   5.560   5.718   4.623 -0.4060  0.1952 -0.1138
 6554SOL     OW25981   4.377   3.585   6.265  0.0086 -0.7205  0.1357
 6554SOL    HW225982   4.381   3.553   6.175 -0.2985 -1.1981  0.2898
 6554SOL    HW325983   4.436   3.660   6.267  0.5847 -1.1616 -0.2797
 6554SOL    MW425984   4.385   3.591   6.254 -0.6077 -0.0583  0.0439
 6555SOL     OW25985   0.313   1.562   1.878 -0.1351  0.0867  0.1609
 6555SOL    HW225986   0.319   1.584   1.970 -0.1947  1.0684 -0.0635
 6555SOL    HW325987   0.316   1.646   1.832  1.2990 -0.4526 -0.8151
 6555SOL    MW425988   0.314   1.576   1.884  0.1820 -0.2749  0.3714
 6556SOL     OW25989   3.270   3.751   5.998 -0.3592  0.0602 -0.4038
 6556SOL    HW225990   3.187   3.760   5.952 -0.4291 -0.8248 -0.4795
 6556SOL    HW325991   3.248   3.761   6.090 -0.2784  1.4588 -0.5153
 6556SOL    MW425992   3.256   3.753   6.004 -0.2370 -0.0517 -0.0555
 6557SOL     OW25993   5.640   0.858   2.904 -0.7299 -0.0855  0.8398
 6557SOL    HW225994   5.621   0.950   2.926 -0.9532 -0.2758  1.4512
 6557SOL    HW325995   5.724   0.861   2.858 -0.3239  0.3323  1.6024
 6557SOL    MW425996   5.648   0.871   2.901 -0.3914 -0.2993 -0.2246
 6558SOL     OW25997   1.894   3.767   5.252  0.1824  0.0531  0.3680
 6558SOL    HW225998   1.803   3.752   5.225  0.6552 -1.3199 -0.5071
 6558SOL    HW325999   1.924   3.837   5.195 -0.1007  0.0171  0.1701
 6558SOL    MW426000   1.886   3.774   5.241  0.2419  0.2973  0.1196
 6559SOL     OW26001   0.588   2.033   3.275  0.5973  0.0398 -0.0645
 6559SOL    HW226002   0.569   2.108   3.218  0.8733 -1.3764 -2.1596
 6559SOL    HW326003   0.626   2.071   3.354 -1.3279  2.2374 -0.0877
 6559SOL    MW426004   0.590   2.048   3.278 -0.0245  0.4223 -0.1336
 6560SOL     OW26005   2.164   0.861   2.772 -0.0255  0.3800 -1.1773
 6560SOL    HW226006   2.246   0.881   2.818 -0.4042 -0.4842 -0.0816
 6560SOL    HW326007   2.164   0.921   2.697  1.0133  1.2571 -0.5196
 6560SOL    MW426008   2.175   0.872   2.768 -0.1749  0.6937 -0.1328
 6561SOL     OW26009   4.781   0.493   1.016 -0.2314  0.2394 -0.4212
 6561SOL    HW226010   4.830   0.575   1.024 -0.0354  0.1382 -0.5848
 6561SOL    HW326011   4.821   0.448   0.942  0.8106 -0.7870  0.7144
 6561SOL    MW426012   4.792   0.498   1.007 -0.6181  0.1806 -0.5656
 6562SOL     OW26013   6.233   5.584   4.194 -0.5841  0.1925 -0.5037
 6562SOL    HW226014   6.289   5.518   4.152  0.9588  1.2224 -0.1241
 6562SOL    HW326015   6.234   5.560   4.286 -0.1764  0.6204 -0.3930
 6562SOL    MW426016   6.240   5.572   4.200 -0.3194  0.0917  0.1880
 6563SOL     OW26017   1.729   5.224   5.755 -0.1906 -0.2467 -0.2850
 6563SOL    HW226018   1.706   5.315   5.776  0.2027  0.2563 -1.8482
 6563SOL    HW326019   1.655   5.192   5.703 -0.2010 -0.7274  0.0246
 6563SOL    MW426020   1.716   5.232   5.751 -0.1193  0.3523 -0.2627
 6564SOL     OW26021   1.385   0.893   6.127  0.0436 -0.2420 -0.1540
 6564SOL    HW226022   1.364   0.864   6.216 -2.6114  1.4153 -0.1327
 6564SOL    HW326023   1.466   0.943   6.136 -0.7045  0.7331  1.5475
 6564SOL    MW426024   1.393   0.896   6.140 -0.2965 -0.0799  0.0244
 6565SOL     OW26025   3.320  -0.026   0.856  0.3353  0.0047  0.3566
 6565SOL    HW226026   3.369  -0.013   0.775 -1.1323 -0.7774 -0.7129
 6565SOL    HW326027   3.384  -0.062   0.917  1.6610  1.3295 -0.1863
 6565SOL    MW426028   3.335  -0.029   0.853  0.0137 -0.1999  0.2907
 6566SOL     OW26029   4.377   3.174   5.920 -0.2101  0.2213  0.1875
 6566SOL    HW226030   4.369   3.121   5.999 -0.5725 -0.3540 -0.2269
 6566SOL    HW326031   4.466   3.160   5.890 -0.3430 -0.2697  0.0066
 6566SOL    MW426032   4.388   3.165   5.927  0.4225  0.4321 -0.0468
 6567SOL     OW26033   4.630   1.737   0.210 -0.0364  0.4677  0.0053
 6567SOL    HW226034   4.632   1.819   0.161  0.2578  1.0810  1.0075
 6567SOL    HW326035   4.698   1.747   0.276 -0.1672 -0.4924  0.3073
 6567SOL    MW426036   4.639   1.749   0.212 -0.4073 -0.0924 -0.4145
 6568SOL     OW26037   6.109   5.030   5.456 -0.0330 -0.0111 -0.2837
 6568SOL    HW226038   6.194   4.994   5.431  0.1014 -0.4181  0.6985
 6568SOL    HW326039   6.106   5.116   5.415  1.2928  0.4384  0.4835
 6568SOL    MW426040   6.120   5.036   5.448  0.6198  0.0159  0.8726
 6569SOL     OW26041   0.608   3.536   4.821  0.1058 -0.1435 -0.3801
 6569SOL    HW226042   0.610   3.537   4.725  0.0900 -2.4943 -0.4694
 6569SOL    HW326043   0.694   3.567   4.847  0.6149 -0.8195 -1.2026
 6569SOL    MW426044   0.619   3.540   4.812 -0.4155  0.1071  0.1958
 6570SOL     OW26045   3.127   3.407   0.276  0.1556  0.2737  0.0256
 6570SOL    HW226046   3.199   3.346   0.261 -1.2473 -1.3234 -0.5821
 6570SOL    HW326047   3.168   3.483   0.318  2.2454 -0.3582 -0.7196
 6570SOL    MW426048   3.142   3.409   0.279  0.1344  0.4450  0.4697
 6571SOL     OW26049   6.122   1.964   1.538 -0.2511  0.6943 -0.8020
 6571SOL    HW226050   6.127   1.874   1.567 -2.5218  1.1581  1.3418
 6571SOL    HW326051   6.188   1.971   1.468  1.3757 -2.0351  0.3301
 6571SOL    MW426052   6.132   1.953   1.532  0.3535  0.2482 -0.6362
 6572SOL     OW26053   5.880   4.915   1.904 -0.4072  0.4874  0.1790
 6572SOL    HW226054   5.909   4.831   1.870  3.2558  1.3768  0.6625
 6572SOL    HW326055   5.836   4.894   1.987  0.6723 -0.9720  0.4192
 6572SOL    MW426056   5.878   4.901   1.911 -0.7248 -0.5129 -0.2424
 6573SOL     OW26057   4.488   3.576   4.592  0.2107 -0.5849 -0.5323
 6573SOL    HW226058   4.574   3.539   4.611  0.2382  0.9592  3.3699
 6573SOL    HW326059   4.427   3.522   4.643 -0.9839 -0.7859 -2.1049
 6573SOL    MW426060   4.491   3.564   4.601  0.8219 -0.0042  0.1079
 6574SOL     OW26061   2.994   2.304   5.513  0.1850 -0.2331  0.2577
 6574SOL    HW226062   2.917   2.355   5.537  2.0553  2.9511  0.0474
 6574SOL    HW326063   3.033   2.279   5.597 -0.6708 -1.2944  0.3616
 6574SOL    MW426064   2.989   2.308   5.527 -0.2695  0.1174  0.2490
 6575SOL     OW26065   3.145   1.949   5.669 -0.6255 -0.1217 -0.6534
 6575SOL    HW226066   3.168   1.924   5.580  0.1227 -0.4341 -0.3823
 6575SOL    HW326067   3.189   1.885   5.725 -1.7136 -0.3905 -0.0788
 6575SOL    MW426068   3.154   1.938   5.665 -0.3607  0.3500  0.5153
 6576SOL     OW26069   0.323   0.348   1.138  0.3049 -0.2284  0.2250
 6576SOL    HW226070   0.370   0.307   1.065 -1.2524 -0.8821 -0.4644
 6576SOL    HW326071   0.278   0.275   1.181 -1.1405  0.4987  0.0272
 6576SOL    MW426072   0.323   0.333   1.134 -0.8130  0.3637  0.2609
 6577SOL     OW26073   0.179   4.142   1.706 -0.1021 -0.6599 -0.3482
 6577SOL    HW226074   0.108   4.160   1.768  2.4081 -0.4120  2.6479
 6577SOL    HW326075   0.185   4.222   1.654  0.3252  0.8473  1.8777
 6577SOL    MW426076   0.170   4.155   1.707 -0.0347 -0.0946 -0.1243
 6578SOL     OW26077   2.075   0.336   1.094 -0.0791 -0.0783  0.5802
 6578SOL    HW226078   2.154   0.285   1.076 -0.9032 -1.6700  1.2813
 6578SOL    HW326079   2.086   0.368   1.183  0.4072  0.9435  0.1643
 6578SOL    MW426080   2.087   0.333   1.103 -0.5230 -0.0479 -0.0026
 6579SOL     OW26081   1.056   4.631   1.395  0.3099 -0.4811  0.3680
 6579SOL    HW226082   1.043   4.699   1.460 -0.0929 -1.1822  1.0380
 6579SOL    HW326083   1.042   4.675   1.311  0.4923  0.3515  0.7724
 6579SOL    MW426084   1.052   4.646   1.392  0.2048  0.0279  0.1623
 6580SOL     OW26085   3.918   4.858   3.868  0.6175  0.0507 -0.5166
 6580SOL    HW226086   3.942   4.844   3.776  0.0132 -1.8300 -0.4327
 6580SOL    HW326087   3.936   4.951   3.884  1.0780  0.3279 -2.4230
 6580SOL    MW426088   3.924   4.869   3.858 -0.3647 -0.0117 -0.3890
 6581SOL     OW26089   1.749   5.070   2.602  0.2953 -0.2566 -0.1378
 6581SOL    HW226090   1.826   5.053   2.656  1.1119  0.2004 -1.1094
 6581SOL    HW326091   1.686   5.111   2.661  1.7581  1.7323  0.1383
 6581SOL    MW426092   1.751   5.073   2.617 -0.3229  0.2172 -0.2280
 6582SOL     OW26093   3.661   4.711   5.575 -0.5662 -0.1396 -0.1533
 6582SOL    HW226094   3.570   4.690   5.594 -0.9729  1.9781  0.5028
 6582SOL    HW326095   3.657   4.786   5.517  0.7709 -0.4146 -0.6294
 6582SOL    MW426096   3.649   4.718   5.570  0.0989  0.7848  0.1106
 6583SOL     OW26097   5.785   4.448   6.062 -0.1407 -0.1105  0.2013
 6583SOL    HW226098   5.805   4.540   6.043 -2.4334  1.0097  2.6199
 6583SOL    HW326099   5.721   4.423   5.995 -0.4001  0.4304  0.2408
 6583SOL    MW426100   5.779   4.457   6.050  0.4341  0.2092 -0.2657
 6584SOL     OW26101   0.789   0.745   3.920 -0.9102  0.8582 -0.1882
 6584SOL    HW226102   0.759   0.673   3.975 -0.5465  0.0581 -1.0213
 6584SOL    HW326103   0.830   0.703   3.845  1.2240  1.9124  0.3066
 6584SOL    MW426104   0.790   0.730   3.918  0.3184 -0.6376 -0.2132
 6585SOL     OW26105   3.794   3.255   4.741 -0.5182  0.3578 -0.2749
 6585SOL    HW226106   3.819   3.163   4.751  0.2700  0.1014 -3.5596
 6585SOL    HW326107   3.704   3.259   4.775 -0.5425 -1.5828  0.0045
 6585SOL    MW426108   3.785   3.243   4.747 -0.0117  0.2243  0.1717
 6586SOL     OW26109   1.297   2.194   3.259  0.0524  0.1420 -0.1418
 6586SOL    HW226110   1.369   2.213   3.319  0.5745  0.5515 -0.8902
 6586SOL    HW326111   1.218   2.215   3.309  0.4098 -0.9304  0.9113
 6586SOL    MW426112   1.296   2.199   3.274 -0.8955  0.3554  0.2847
 6587SOL     OW26113   4.969   5.319   3.140 -0.2364 -0.5778  0.7757
 6587SOL    HW226114   5.051   5.271   3.130 -0.4964 -1.1281  1.2135
 6587SOL    HW326115   4.996   5.407   3.168  0.2351 -0.4946  0.0907
 6587SOL    MW426116   4.984   5.325   3.142  0.2948  1.2335 -0.0093
 6588SOL     OW26117   3.146   0.593   2.080  0.7109 -0.4149  0.0860
 6588SOL    HW226118   3.063   0.641   2.085  0.8271  0.1001 -1.9801
 6588SOL    HW326119   3.196   0.625   2.154 -0.3634  0.4121  0.4907
 6588SOL    MW426120   3.141   0.604   2.090 -0.2138 -0.4014 -0.5674
 6589SOL     OW26121   1.549   4.499   0.746  0.2203  0.2407  0.2752
 6589SOL    HW226122   1.545   4.491   0.841  2.7872 -2.4253  0.3144
 6589SOL    HW326123   1.635   4.536   0.729 -0.8926  2.3972 -1.0541
 6589SOL    MW426124   1.560   4.503   0.756 -0.2153  0.7726 -0.0080
 6590SOL     OW26125   0.531   1.888   3.768  0.1566 -0.5826  0.7419
 6590SOL    HW226126   0.540   1.959   3.831 -0.2613 -0.7407  0.9802
 6590SOL    HW326127   0.443   1.900   3.731 -0.2167 -1.4192  1.3347
 6590SOL    MW426128   0.521   1.899   3.771  0.0012  0.1072 -0.0641
 6591SOL     OW26129   3.439   2.770   1.549  0.6607 -0.1553 -0.1894
 6591SOL    HW226130   3.488   2.784   1.631  0.1876  1.1305 -0.0996
 6591SOL    HW326131   3.507   2.764   1.482  1.0734 -1.6045  0.3254
 6591SOL    MW426132   3.455   2.771   1.551  0.1305 -0.1336  0.3340
 6592SOL     OW26133   0.556   6.201   1.043  0.1716 -0.3752  0.0676
 6592SOL    HW226134   0.595   6.114   1.028  2.4436  0.8242 -1.6089
 6592SOL    HW326135   0.476   6.200   0.990  0.2288 -1.4148 -0.0254
 6592SOL    MW426136   0.551   6.189   1.034  0.1482  0.3230 -0.1395
 6593SOL     OW26137   1.616   0.756   2.708  0.4416  0.1275 -0.2508
 6593SOL    HW226138   1.581   0.718   2.627 -2.7220 -1.0620  1.5061
 6593SOL    HW326139   1.678   0.690   2.740 -0.2054 -0.6111 -0.4718
 6593SOL    MW426140   1.620   0.742   2.701  0.2953  0.2824 -0.3790
 6594SOL     OW26141   1.243   3.972   5.360  0.0230 -0.2344  0.1007
 6594SOL    HW226142   1.209   4.042   5.305 -0.4329 -0.2403  0.3728
 6594SOL    HW326143   1.335   3.965   5.335 -0.2774 -0.5424 -0.9855
 6594SOL    MW426144   1.251   3.980   5.350  0.2773  0.1860  0.0590
 6595SOL     OW26145   4.437   1.161   1.415  0.1015  0.6049  0.0794
 6595SOL    HW226146   4.474   1.122   1.336  0.2240 -0.0825  0.4730
 6595SOL    HW326147   4.493   1.237   1.432  0.4634  0.3843 -0.1249
 6595SOL    MW426148   4.449   1.166   1.407  0.0482 -0.2217  0.6052
 6596SOL     OW26149   1.037   1.462   1.790 -0.2480  0.1904  0.6718
 6596SOL    HW226150   1.082   1.397   1.736 -0.3070  0.6433  0.0774
 6596SOL    HW326151   1.069   1.546   1.759 -1.8663  0.5493 -0.1228
 6596SOL    MW426152   1.047   1.464   1.779  0.3108 -0.0780 -0.0818
 6597SOL     OW26153   5.575   3.189   2.267 -0.5838 -0.1485 -0.0286
 6597SOL    HW226154   5.558   3.097   2.246 -2.4757  0.4661 -1.4697
 6597SOL    HW326155   5.669   3.200   2.254 -0.0219 -2.2082  1.7055
 6597SOL    MW426156   5.585   3.178   2.263 -0.4944 -0.2262 -0.5281
 6598SOL     OW26157   0.241   2.012   2.085  0.0593 -0.1129  0.1009
 6598SOL    HW226158   0.197   2.036   2.166 -0.0371  1.0968 -0.2818
 6598SOL    HW326159   0.334   2.015   2.105  0.0437 -3.1480  1.0434
 6598SOL    MW426160   0.247   2.016   2.098  0.0164  0.1871 -0.4772
 6599SOL     OW26161   3.952   2.391   6.158 -0.1208 -0.1305  0.5735
 6599SOL    HW226162   3.958   2.323   6.226  2.2931 -0.3267  0.2400
 6599SOL    HW326163   3.976   2.346   6.077 -2.1527  0.3075 -0.3422
 6599SOL    MW426164   3.956   2.376   6.157  0.3133  0.2664  0.3141
 6600SOL     OW26165   0.332   3.443   5.192 -0.2245 -0.1792 -0.2564
 6600SOL    HW226166   0.331   3.381   5.119  1.0453  2.6577 -2.8937
 6600SOL    HW326167   0.240   3.455   5.214 -0.6087 -1.4567 -1.0360
 6600SOL    MW426168   0.320   3.436   5.186  0.4121 -0.2726  0.0999
 6601SOL     OW26169   2.822   3.688   0.191 -0.1039  0.4394 -0.0755
 6601SOL    HW226170   2.812   3.613   0.250 -1.8451  0.5469 -0.1858
 6601SOL    HW326171   2.809   3.652   0.104  1.0689  0.5402 -0.3153
 6601SOL    MW426172   2.819   3.673   0.187  0.9612 -0.2008  0.1052
 6602SOL     OW26173   1.942   0.013   0.455  0.8129 -0.1393 -0.3755
 6602SOL    HW226174   1.936   0.007   0.360 -0.7486 -0.6951 -0.2726
 6602SOL    HW326175   1.967  -0.075   0.483  1.9580  0.2001 -0.3046
 6602SOL    MW426176   1.944  -0.000   0.446 -0.0677 -0.3118  0.3230
 6603SOL     OW26177   1.227   3.929   2.433  0.5006 -0.2883  0.3746
 6603SOL    HW226178   1.205   3.891   2.517 -1.6908 -0.2153 -0.0964
 6603SOL    HW326179   1.321   3.918   2.425  0.8785  0.3647  3.1335
 6603SOL    MW426180   1.236   3.923   2.443  0.0611 -0.4441 -0.2307
 6604SOL     OW26181   5.889   2.069   1.464 -0.7394  0.0905 -0.5684
 6604SOL    HW226182   5.828   2.005   1.500 -3.2622  2.2795 -0.6032
 6604SOL    HW326183   5.976   2.029   1.475 -2.0133 -2.5403  0.9018
 6604SOL    MW426184   5.893   2.055   1.470 -0.4768 -0.5027 -0.5812
 6605SOL     OW26185   1.195   1.576   2.961 -0.0943 -0.1221  0.4086
 6605SOL    HW226186   1.164   1.511   2.898 -0.1178 -1.0018  1.2840
 6605SOL    HW326187   1.189   1.531   3.046  1.9710  0.2270  0.8176
 6605SOL    MW426188   1.190   1.561   2.964  0.0013 -0.0114  0.2927
 6606SOL     OW26189   1.005   0.953   4.957 -0.6220  0.3578  0.0363
 6606SOL    HW226190   1.010   1.025   4.895 -1.7472 -0.1749 -0.7035
 6606SOL    HW326191   0.951   0.887   4.914 -2.9078  0.6435  2.2146
 6606SOL    MW426192   0.999   0.954   4.943  0.1515 -0.0011 -0.5587
 6607SOL     OW26193   2.113   3.392   3.323 -0.1481  0.2520 -0.2931
 6607SOL    HW226194   2.189   3.379   3.379 -0.7689  0.0188  0.5233
 6607SOL    HW326195   2.078   3.304   3.309 -0.7514  0.4291  0.0521
 6607SOL    MW426196   2.118   3.379   3.328 -0.3561  0.8137 -0.0273
 6608SOL     OW26197   6.375   4.841   0.542 -0.2840 -0.2231  0.1669
 6608SOL    HW226198   6.287   4.804   0.553 -0.4451  0.3588  0.9155
 6608SOL    HW326199   6.360   4.928   0.506  0.1010 -0.8710 -1.6722
 6608SOL    MW426200   6.361   4.847   0.539  0.2431 -0.3643 -0.0761
 6609SOL     OW26201   4.505   4.007   0.400  0.1429  0.0604 -0.0437
 6609SOL    HW226202   4.526   3.941   0.334  0.0055 -1.2585  1.1804
 6609SOL    HW326203   4.570   3.993   0.469  0.9753  2.1432 -0.3413
 6609SOL    MW426204   4.516   3.996   0.400  0.1328  0.2081 -0.5858
 6610SOL     OW26205   0.843   3.058   1.720  0.0863 -0.1395  0.4359
 6610SOL    HW226206   0.932   3.038   1.747  0.5499  1.6507  0.3797
 6610SOL    HW326207   0.812   3.120   1.787 -0.3989  0.7510 -0.5869
 6610SOL    MW426208   0.851   3.064   1.733  0.1832  0.2031 -0.5924
 6611SOL     OW26209   2.058   6.325   5.775 -0.0689  0.2653 -0.7040
 6611SOL    HW226210   2.083   6.321   5.683  0.0970 -0.9078 -0.6223
 6611SOL    HW326211   2.140   6.334   5.823 -0.2301  2.4063 -0.7028
 6611SOL    MW426212   2.072   6.326   5.769 -0.3473 -0.2523 -0.4742
 6612SOL     OW26213   5.191   4.922   4.737  0.4731 -0.3735 -0.4351
 6612SOL    HW226214   5.273   4.965   4.760  0.4623  0.2679 -1.5332
 6612SOL    HW326215   5.205   4.888   4.649  0.1017 -1.6878 -0.0036
 6612SOL    MW426216   5.203   4.924   4.728  0.3817 -0.3949 -0.2279
 6613SOL     OW26217   3.497   3.710   5.185  0.2362  0.1682 -0.2739
 6613SOL    HW226218   3.543   3.727   5.267  0.4308  0.8914 -0.5198
 6613SOL    HW326219   3.514   3.788   5.132  0.1881 -0.3270 -1.0312
 6613SOL    MW426220   3.505   3.723   5.189  0.2409  0.0322  0.3922
 6614SOL     OW26221   2.919   1.501   2.880  0.4391  0.0064  0.0095
 6614SOL    HW226222   2.928   1.571   2.816  1.2140  1.8508  2.0030
 6614SOL    HW326223   2.996   1.509   2.936 -0.4905 -1.1061  1.5347
 6614SOL    MW426224   2.930   1.511   2.879  0.0633  0.0032 -0.0542
 6615SOL     OW26225   3.799   0.945   3.047  0.0641  0.0574  0.8864
 6615SOL    HW226226   3.838   0.943   2.960 -2.1644 -1.0910 -0.1658
 6615SOL    HW326227   3.874   0.939   3.107  1.5771 -0.5295 -0.9536
 6615SOL    MW426228   3.814   0.944   3.044 -0.1079 -0.0822 -0.1908
 6616SOL     OW26229   3.611   2.280   3.530 -0.8753  0.7792 -0.0789
 6616SOL    HW226230   3.523   2.308   3.553 -1.7989 -1.3909 -0.7170
 6616SOL    HW326231   3.603   2.187   3.511  1.7401  0.3018  0.7148
 6616SOL    MW426232   3.598   2.272   3.530  0.3251  0.3364 -0.7066
 6617SOL     OW26233   2.468   0.514   3.357  0.4630 -0.0863 -0.5525
 6617SOL    HW226234   2.507   0.590   3.398  0.9323  0.3217 -1.7221
 6617SOL    HW326235   2.430   0.547   3.275  1.4443 -1.2373 -1.5079
 6617SOL    MW426236   2.468   0.528   3.351  0.4374  0.2182 -0.2143
 6618SOL     OW26237   2.660   5.358   1.266  0.1846  0.3319  0.4961
 6618SOL    HW226238   2.575   5.393   1.293 -0.2532 -0.3543  0.0298
 6618SOL    HW326239   2.640   5.275   1.223  1.2413 -0.7535  1.9975
 6618SOL    MW426240   2.646   5.352   1.264 -0.3059  0.1318 -0.2556
 6619SOL     OW26241   0.797   2.191   4.823  0.2499  0.0729 -0.4450
 6619SOL    HW226242   0.884   2.162   4.850  0.3842  0.2709 -0.6580
 6619SOL    HW326243   0.799   2.286   4.831 -0.0919  0.0468 -0.0318
 6619SOL    MW426244   0.809   2.199   4.827  0.5447  0.0144  0.8253
 6620SOL     OW26245   3.229   1.772   1.740  0.1404  0.3334 -0.0467
 6620SOL    HW226246   3.168   1.767   1.813 -1.0160  1.3685 -0.9155
 6620SOL    HW326247   3.314   1.749   1.779 -0.2214  1.9594  1.8620
 6620SOL    MW426248   3.232   1.768   1.755 -0.2452  0.2267 -0.6858
 6621SOL     OW26249   5.696   0.806   5.230 -0.4239  0.5942  0.8606
 6621SOL    HW226250   5.624   0.768   5.281  0.2660 -1.0180  0.7094
 6621SOL    HW326251   5.774   0.792   5.285  0.4461 -1.7366 -0.7961
 6621SOL    MW426252   5.697   0.799   5.244 -0.3661 -0.0457 -0.5161
 6622SOL     OW26253   0.763   6.189   5.974 -0.1695  0.0327 -0.5568
 6622SOL    HW226254   0.854   6.193   5.946 -0.4381 -0.0838 -1.4901
 6622SOL    HW326255   0.719   6.259   5.926 -1.0336 -1.4256 -2.0381
 6622SOL    MW426256   0.769   6.199   5.964 -0.2909  0.5839 -0.5572
 6623SOL     OW26257   4.435   5.560   5.991 -0.4106  0.0996 -0.3168
 6623SOL    HW226258   4.515   5.516   5.963 -0.7011 -0.0424 -0.9476
 6623SOL    HW326259   4.462   5.615   6.064  0.4223  0.6419 -1.0142
 6623SOL    MW426260   4.449   5.562   5.997 -0.2501 -0.0320 -0.4824
 6624SOL     OW26261   3.756   1.959   0.290  0.0930  0.1460  0.0730
 6624SOL    HW226262   3.783   1.987   0.377 -0.0400 -1.1771  0.5670
 6624SOL    HW326263   3.666   1.990   0.282  0.2752  0.7196  0.1900
 6624SOL    MW426264   3.748   1.967   0.300 -0.0287  0.4278 -0.3084
 6625SOL     OW26265   2.768   0.901   2.804 -0.4555 -0.5214  0.4276
 6625SOL    HW226266   2.841   0.958   2.779 -0.4953 -1.5526 -2.2926
 6625SOL    HW326267   2.810   0.820   2.832 -0.5184 -0.5062  0.5663
 6625SOL    MW426268   2.783   0.898   2.805 -0.5873  0.0391 -0.1247
 6626SOL     OW26269   2.705   1.306   2.893  0.2427  0.3192 -0.3190
 6626SOL    HW226270   2.761   1.381   2.913 -0.2962  0.5737  0.2818
 6626SOL    HW326271   2.666   1.326   2.808  0.1729  0.6839 -0.2042
 6626SOL    MW426272   2.707   1.319   2.885 -0.0468  0.1258 -0.4688
 6627SOL     OW26273   2.874   4.891   0.901 -0.1363 -0.1811 -0.1264
 6627SOL    HW226274   2.826   4.834   0.841 -1.1757  0.3558  0.1781
 6627SOL    HW326275   2.920   4.952   0.843 -1.1340  0.3374 -0.3999
 6627SOL    MW426276   2.874   4.891   0.885 -0.0146  0.6566 -0.2528
 6628SOL     OW26277   2.460   1.191   1.235  0.4143 -0.0470  0.0989
 6628SOL    HW226278   2.430   1.253   1.168  1.0504  0.6419  0.4316
 6628SOL    HW326279   2.501   1.120   1.186  0.7995  0.4129 -0.2534
 6628SOL    MW426280   2.462   1.190   1.220 -0.1889  0.1303  0.5289
 6629SOL     OW26281   4.218   0.305   5.046  0.4173 -0.0656  0.4682
 6629SOL    HW226282   4.305   0.280   5.016  0.1831 -0.1951 -0.1076
 6629SOL    HW326283   4.171   0.222   5.056 -0.5099  0.0950 -1.8987
 6629SOL    MW426284   4.223   0.291   5.044  0.2413  0.6702  0.4859
 6630SOL     OW26285   6.301   1.500   0.754  0.5162 -0.1931  0.5324
 6630SOL    HW226286   6.278   1.538   0.839 -0.4259 -1.1645  0.7404
 6630SOL    HW326287   6.327   1.410   0.775  0.0492 -0.5139 -0.2281
 6630SOL    MW426288   6.302   1.493   0.768 -0.1281 -0.0853  0.2061
 6631SOL     OW26289   3.155   6.296   1.528  0.1509  0.0183 -0.1478
 6631SOL    HW226290   3.130   6.372   1.476 -1.4935 -0.8501 -0.6964
 6631SOL    HW326291   3.072   6.260   1.560  1.0099 -0.3701  1.8252
 6631SOL    MW426292   3.141   6.301   1.526  0.1203 -0.0235  0.1039
 6632SOL     OW26293   4.827   6.165   6.182  0.2752  0.4556  0.6725
 6632SOL    HW226294   4.809   6.195   6.093 -1.8581 -0.1631  0.8387
 6632SOL    HW326295   4.833   6.069   6.174  2.8199  0.5281  0.8119
 6632SOL    MW426296   4.825   6.156   6.169 -0.1463  0.1142  0.2743
 6633SOL     OW26297   3.566   1.737   3.410  0.4084 -0.1413 -0.3668
 6633SOL    HW226298   3.588   1.705   3.323 -0.4476  0.3741 -0.7961
 6633SOL    HW326299   3.607   1.676   3.470  1.6335 -0.0978 -1.1184
 6633SOL    MW426300   3.574   1.725   3.406  0.2401  0.1944 -0.3048
 6634SOL     OW26301   4.619   5.488   1.932 -0.4783  0.5294  0.6696
 6634SOL    HW226302   4.569   5.432   1.992 -0.7138  0.9065  0.8353
 6634SOL    HW326303   4.710   5.466   1.949 -0.6132 -1.8326 -1.2617
 6634SOL    MW426304   4.624   5.478   1.942  0.2967 -0.4040 -0.3893
 6635SOL     OW26305   5.936   4.837   5.584 -1.0366  0.0451 -0.2876
 6635SOL    HW226306   5.989   4.898   5.532 -1.7759  0.0180 -1.1089
 6635SOL    HW326307   5.991   4.814   5.658 -0.1435  0.5007 -0.7900
 6635SOL    MW426308   5.950   4.842   5.587 -0.2739 -0.0460  0.2431
 6636SOL     OW26309   3.190   5.409   2.459 -0.4976  0.3264  0.3796
 6636SOL    HW226310   3.151   5.407   2.372 -1.7013  0.5210  0.9077
 6636SOL    HW326311   3.179   5.499   2.489 -0.6296  0.1186  0.9761
 6636SOL    MW426312   3.184   5.421   2.452 -0.4066  0.1713  0.4336
 6637SOL     OW26313   4.066   0.346   4.826 -0.2204 -0.0403 -0.3571
 6637SOL    HW226314   4.109   0.333   4.910 -2.0585 -0.1356  0.5991
 6637SOL    HW326315   4.125   0.304   4.762  0.7118 -0.8270  0.9775
 6637SOL    MW426316   4.079   0.339   4.828 -0.0773  0.3719 -0.0433
 6638SOL     OW26317   1.398   5.101   6.200  0.2525 -0.0074 -0.0777
 6638SOL    HW226318   1.421   5.013   6.171  1.0354  0.1342  0.1027
 6638SOL    HW326319   1.348   5.138   6.127 -1.9234 -1.3263  0.6499
 6638SOL    MW426320   1.394   5.094   6.187 -0.0418 -0.0683  0.0480
 6639SOL     OW26321   6.273   6.089   6.264 -0.1307 -0.0137  0.4082
 6639SOL    HW226322   6.188   6.046   6.259  0.1137 -0.6518  1.4026
 6639SOL    HW326323   6.289   6.099   6.358  1.5901 -1.3329  0.2941
 6639SOL    MW426324   6.264   6.085   6.276 -0.1429  0.1917 -0.2552
 6640SOL     OW26325   4.373   3.629   5.387  0.2922  0.4687 -0.2470
 6640SOL    HW226326   4.421   3.660   5.311  1.3243 -0.4007  0.0195
 6640SOL    HW326327   4.427   3.655   5.462  0.3265 -0.4280  0.0593
 6640SOL    MW426328   4.387   3.636   5.387  0.0385  0.6946 -0.1113
 6641SOL     OW26329   4.338   2.186   6.215 -0.1316  0.2579 -0.6315
 6641SOL    HW226330   4.276   2.116   6.234  1.4037 -0.9186  0.3228
 6641SOL    HW326331   4.361   2.222   6.301 -0.7380  1.8115 -1.0970
 6641SOL    MW426332   4.333   2.181   6.229 -0.1327 -0.0752 -0.3632
 6642SOL     OW26333   3.691   3.502   3.257 -0.2150  0.2505 -1.1133
 6642SOL    HW226334   3.765   3.466   3.208 -0.5198 -0.5288 -1.0208
 6642SOL    HW326335   3.720   3.500   3.349  0.4846  2.0225 -1.2629
 6642SOL    MW426336   3.704   3.497   3.263  0.1567  0.2344  0.1951
 6643SOL     OW26337   2.227   2.135   5.871 -0.0765 -0.3155 -0.1194
 6643SOL    HW226338   2.277   2.129   5.789 -0.8385  0.7996 -0.6767
 6643SOL    HW326339   2.270   2.204   5.921 -0.3356 -0.1688 -0.0959
 6643SOL    MW426340   2.239   2.143   5.867  0.5757  1.0237  0.2456
 6644SOL     OW26341   5.259   3.616   5.422  0.0972  0.1004 -0.0830
 6644SOL    HW226342   5.335   3.594   5.476  1.4717  2.1139 -1.0974
 6644SOL    HW326343   5.283   3.588   5.334 -0.5141  0.3906 -0.3466
 6644SOL    MW426344   5.272   3.609   5.418  0.6810 -0.3716 -0.7742
 6645SOL     OW26345   3.160   0.455   2.687  0.3810 -0.3397 -0.1672
 6645SOL    HW226346   3.111   0.421   2.612  0.5349 -1.3131  0.1531
 6645SOL    HW326347   3.221   0.384   2.710  0.3610 -0.0456  0.8486
 6645SOL    MW426348   3.162   0.441   2.680  0.0641 -0.1757  0.0027
 6646SOL     OW26349   4.918   3.571   5.976  0.0499 -0.2073 -0.7230
 6646SOL    HW226350   4.823   3.558   5.981 -0.3793  2.2169 -1.3246
 6646SOL    HW326351   4.935   3.642   6.038  1.4413 -0.3711 -0.9020
 6646SOL    MW426352   4.907   3.578   5.985  0.1883 -0.0793  0.0692
 6647SOL     OW26353   4.751   1.890   4.527  0.1630  0.0197 -0.2280
 6647SOL    HW226354   4.659   1.863   4.526  0.5418 -1.4666 -2.2764
 6647SOL    HW326355   4.771   1.900   4.620 -1.5116 -1.7334  0.4105
 6647SOL    MW426356   4.741   1.887   4.539  0.6561 -0.8943 -0.2408
 6648SOL     OW26357   6.262   2.893   0.656  0.1898  0.0413 -0.1434
 6648SOL    HW226358   6.298   2.805   0.654 -1.5651 -0.6928 -2.1413
 6648SOL    HW326359   6.210   2.896   0.737 -1.2062 -1.4159 -0.9454
 6648SOL    MW426360   6.260   2.882   0.667  0.7433 -0.2050 -0.1314
 6649SOL     OW26361   6.138   5.722   1.378 -0.8158  0.1153  0.0855
 6649SOL    HW226362   6.154   5.767   1.461  0.4563 -0.5981  0.2552
 6649SOL    HW326363   6.114   5.792   1.317 -1.7881  0.6435  1.0454
 6649SOL    MW426364   6.137   5.737   1.381  0.1404 -0.2700 -0.1262
 6650SOL     OW26365   0.768   2.272   3.992  0.3376  0.1220  0.4903
 6650SOL    HW226366   0.740   2.362   4.009 -1.2730 -0.2027 -0.2779
 6650SOL    HW326367   0.850   2.281   3.943  0.8519  1.1292  1.4901
 6650SOL    MW426368   0.775   2.285   3.988  0.0057  0.2055 -0.2344
 6651SOL     OW26369   2.550   1.705   5.076  0.0824 -0.6892 -0.1176
 6651SOL    HW226370   2.612   1.763   5.032  1.6028 -1.7273  0.5391
 6651SOL    HW326371   2.529   1.638   5.010  0.1137 -0.6524 -0.1654
 6651SOL    MW426372   2.555   1.704   5.061 -0.2263  0.1663  0.5905
 6652SOL     OW26373   6.239   0.765   3.051  0.1728 -0.4322 -0.1387
 6652SOL    HW226374   6.217   0.815   3.130  0.0210 -2.2039  1.0008
 6652SOL    HW326375   6.155   0.730   3.020  0.4159 -0.9872 -0.1875
 6652SOL    MW426376   6.225   0.767   3.057  0.5339 -0.3602  0.5474
 6653SOL     OW26377   0.693   4.634   5.534  0.7369  0.0841 -0.3142
 6653SOL    HW226378   0.607   4.677   5.531  0.7411  0.0434 -2.0605
 6653SOL    HW326379   0.756   4.707   5.532  0.7331  0.0822 -0.6336
 6653SOL    MW426380   0.690   4.650   5.533 -0.0644 -0.1367 -0.3742
 6654SOL     OW26381   1.116   4.279   1.533  0.3859  0.0327 -0.0985
 6654SOL    HW226382   1.199   4.237   1.511 -0.0214 -1.5288  1.1526
 6654SOL    HW326383   1.136   4.334   1.609 -0.0475 -1.7967  1.4001
 6654SOL    MW426384   1.130   4.281   1.540  0.2375  0.1958  0.2588
 6655SOL     OW26385   4.791   2.742   0.053 -0.0197  0.3864 -0.5787
 6655SOL    HW226386   4.707   2.756   0.010 -0.2363  0.4930 -0.1241
 6655SOL    HW326387   4.772   2.749   0.146  0.3390 -0.3935 -0.4360
 6655SOL    MW426388   4.778   2.745   0.059  0.0918 -0.0861 -0.3481
 6656SOL     OW26389   4.853   2.645   1.972 -0.1709 -0.4057  0.4397
 6656SOL    HW226390   4.769   2.609   2.002 -0.2837  0.2534  0.9438
 6656SOL    HW326391   4.888   2.690   2.048  0.2882 -0.0420  0.0186
 6656SOL    MW426392   4.846   2.646   1.986  0.2072  0.6870  0.1407
 6657SOL     OW26393   5.337   5.696   2.542  0.7110  0.0852 -0.2960
 6657SOL    HW226394   5.281   5.683   2.465 -0.5969  1.9272  0.2622
 6657SOL    HW326395   5.328   5.615   2.592  1.5908 -1.1480 -2.0463
 6657SOL    MW426396   5.328   5.684   2.538  0.2814 -0.1945  0.7000
 6658SOL     OW26397   1.724   3.465   5.679 -0.2112 -0.2036  0.1423
 6658SOL    HW226398   1.779   3.460   5.601 -2.0683 -0.2304 -1.2418
 6658SOL    HW326399   1.639   3.497   5.646 -1.0036 -0.0521  2.1850
 6658SOL    MW426400   1.720   3.469   5.664  0.1346  0.4029  0.1295
 6659SOL     OW26401   2.313   4.412   2.017 -0.6170  0.3256  0.0065
 6659SOL    HW226402   2.289   4.493   2.062 -0.2335  0.2978  0.2646
 6659SOL    HW326403   2.236   4.389   1.965 -2.3317 -1.2901  2.9756
 6659SOL    MW426404   2.300   4.419   2.016 -0.4240 -0.5795  0.5406
 6660SOL     OW26405   5.806   0.483   5.161  0.5040 -0.0211 -0.8438
 6660SOL    HW226406   5.794   0.427   5.084 -1.3584  0.2602 -0.8129
 6660SOL    HW326407   5.844   0.564   5.127  0.6007 -0.2604 -1.3099
 6660SOL    MW426408   5.809   0.486   5.146 -0.2661  0.8261 -0.1715
 6661SOL     OW26409   0.204   5.450   0.724  0.4822  0.1015  0.0822
 6661SOL    HW226410   0.147   5.374   0.712  2.3551 -1.2464 -0.6800
 6661SOL    HW326411   0.280   5.415   0.771 -0.3670  2.3659  3.4985
 6661SOL    MW426412   0.206   5.435   0.729 -0.1631  0.0316  0.4512
 6662SOL     OW26413   3.192   0.969   1.278  0.4248  0.1769 -0.0544
 6662SOL    HW226414   3.126   1.037   1.261 -0.0993 -0.4816 -0.7360
 6662SOL    HW326415   3.164   0.928   1.359 -0.1715 -0.2813 -0.4834
 6662SOL    MW426416   3.179   0.973   1.286 -0.1063 -0.4817 -0.2228
 6663SOL     OW26417   2.662   3.144   4.850  0.0011 -0.0943  0.2250
 6663SOL    HW226418   2.614   3.077   4.900  0.2008  0.1601  0.7612
 6663SOL    HW326419   2.673   3.216   4.911  1.5261 -0.3508  0.2693
 6663SOL    MW426420   2.657   3.145   4.865  0.1960  0.1065  0.0618
 6664SOL     OW26421   0.845   4.571   0.193  0.0403 -0.4588 -0.1925
 6664SOL    HW226422   0.773   4.583   0.132  0.4410  3.1904 -0.1571
 6664SOL    HW326423   0.905   4.511   0.148 -0.8504  0.1291 -2.2826
 6664SOL    MW426424   0.843   4.565   0.179  0.1335 -0.1312 -0.1283
 6665SOL     OW26425   5.236   5.118   1.774 -0.4809  0.0588 -0.3866
 6665SOL    HW226426   5.151   5.079   1.794  0.2698 -2.3961 -1.6155
 6665SOL    HW326427   5.263   5.160   1.855 -1.8438 -1.1409  0.7391
 6665SOL    MW426428   5.228   5.118   1.787 -0.4442 -0.5093  0.1511
 6666SOL     OW26429   6.157   2.341   5.199  0.0017 -0.5776  0.2176
 6666SOL    HW226430   6.162   2.427   5.240  2.2849 -0.4156 -0.2606
 6666SOL    HW326431   6.065   2.316   5.206 -0.5280  1.4617  1.2326
 6666SOL    MW426432   6.145   2.349   5.206  0.2795 -0.2576 -0.1031
 6667SOL     OW26433   5.112   1.569   5.422 -0.3477  0.0124  0.0766
 6667SOL    HW226434   5.200   1.605   5.435  0.4429 -2.0109  0.7326
 6667SOL    HW326435   5.105   1.555   5.328 -0.0939  0.4354 -0.0106
 6667SOL    MW426436   5.123   1.572   5.412 -0.1659  0.6758  0.9731
 6668SOL     OW26437   5.906   0.762   5.412 -0.1730 -0.0481  0.5493
 6668SOL    HW226438   5.926   0.850   5.444 -0.1421  0.0874  0.1640
 6668SOL    HW326439   5.992   0.720   5.400 -0.1643  0.0645  0.1983
 6668SOL    MW426440   5.920   0.768   5.414 -0.6211  0.1804 -0.2965
 6669SOL     OW26441   6.018   1.407   5.869 -0.0059  0.4814 -0.0896
 6669SOL    HW226442   6.074   1.468   5.820  0.1164  0.4568  0.0196
 6669SOL    HW326443   5.959   1.371   5.803 -0.1208  0.7664 -0.1432
 6669SOL    MW426444   6.018   1.410   5.854  0.2916  0.7797  1.0996
 6670SOL     OW26445   3.585   3.822   3.397  0.2394  0.4407  0.0361
 6670SOL    HW226446   3.540   3.745   3.432 -1.0482  1.3920  0.5802
 6670SOL    HW326447   3.642   3.788   3.329  2.8510 -1.5174  2.9314
 6670SOL    MW426448   3.586   3.807   3.393  0.4761 -0.1105 -0.2356
 6671SOL     OW26449   0.278   3.029   3.763  0.0331 -0.0499  0.0725
 6671SOL    HW226450   0.208   3.005   3.702  0.0834 -0.6002  0.2244
 6671SOL    HW326451   0.232   3.046   3.846 -0.3387  3.1121 -0.6647
 6671SOL    MW426452   0.262   3.028   3.766 -0.4563  0.0026  0.2341
 6672SOL     OW26453   4.254   3.964   2.705  0.3250  0.1894  0.5121
 6672SOL    HW226454   4.317   4.032   2.679  2.0704 -1.4053  0.3156
 6672SOL    HW326455   4.227   3.925   2.622 -0.1690  0.1954  0.6670
 6672SOL    MW426456   4.259   3.968   2.690 -0.4247 -0.6347  0.3514
 6673SOL     OW26457   4.087   4.195   3.878 -0.2339 -0.3995 -0.1710
 6673SOL    HW226458   4.069   4.231   3.965  0.1482 -0.0438 -0.2319
 6673SOL    HW326459   4.159   4.250   3.844 -1.1805  0.2498 -1.1953
 6673SOL    MW426460   4.094   4.207   3.885  0.5334 -0.0475 -0.3894
 6674SOL     OW26461   2.160   1.143   2.173 -0.1385 -0.6180  0.1527
 6674SOL    HW226462   2.137   1.213   2.235  0.1443  0.5047 -0.9678
 6674SOL    HW326463   2.187   1.190   2.094  1.0404 -1.9900 -0.2915
 6674SOL    MW426464   2.160   1.159   2.171  0.4176 -0.1590  0.0623
 6675SOL     OW26465   4.814   2.996   2.215 -0.2944  0.3196 -0.1829
 6675SOL    HW226466   4.883   3.061   2.208 -1.7339  1.8508 -0.9357
 6675SOL    HW326467   4.774   3.012   2.300 -1.2780  1.1432 -0.7667
 6675SOL    MW426468   4.818   3.007   2.225 -0.0411  1.0735  0.4699
 6676SOL     OW26469   4.680   0.694   2.668  0.4911  0.2591  0.0660
 6676SOL    HW226470   4.745   0.754   2.705 -0.3194  1.1553  0.0670
 6676SOL    HW326471   4.723   0.657   2.591  0.6704  1.5625 -0.4812
 6676SOL    MW426472   4.695   0.697   2.663  0.1889 -0.1313 -0.0103
 6677SOL     OW26473   4.809   4.839   1.634 -0.4904  0.2973 -0.2708
 6677SOL    HW226474   4.855   4.755   1.624 -0.8540 -0.2147  1.8348
 6677SOL    HW326475   4.872   4.904   1.603  0.7880 -0.5803  0.3866
 6677SOL    MW426476   4.824   4.837   1.629  0.1612  0.3770 -0.7285
 6678SOL     OW26477   3.988   5.539   1.845 -0.5411 -0.3220 -0.7831
 6678SOL    HW226478   3.926   5.555   1.775 -0.1264 -1.0850 -1.3464
 6678SOL    HW326479   3.936   5.502   1.916 -0.8130 -0.4831 -1.0653
 6678SOL    MW426480   3.973   5.536   1.845  0.2752 -0.0388  0.1426
 6679SOL     OW26481   2.922   0.351   2.098 -0.1552 -0.3098 -0.3809
 6679SOL    HW226482   3.002   0.403   2.100  1.1074 -2.1809  0.6246
 6679SOL    HW326483   2.875   0.376   2.178 -0.7288  0.9453 -1.0790
 6679SOL    MW426484   2.926   0.361   2.109  0.1768 -0.1380 -0.5338
 6680SOL     OW26485   0.640   4.560   3.375 -1.3316 -0.3893  0.1767
 6680SOL    HW226486   0.568   4.559   3.438 -2.4516  0.8642 -1.0096
 6680SOL    HW326487   0.642   4.650   3.342  1.1412 -0.2350  0.5134
 6680SOL    MW426488   0.631   4.572   3.379  0.9787 -0.1466  0.7348
 6681SOL     OW26489   0.365   0.842   4.365 -0.2306  0.1080  0.0254
 6681SOL    HW226490   0.395   0.918   4.416  0.1065  1.8821 -2.6564
 6681SOL    HW326491   0.445   0.791   4.349  0.2305  1.2023 -1.3045
 6681SOL    MW426492   0.380   0.845   4.370 -0.1400  0.3928 -0.0737
 6682SOL     OW26493   2.579   4.015   4.225  0.6984  0.3996 -0.4961
 6682SOL    HW226494   2.566   4.101   4.186  1.5784  0.3704 -0.8736
 6682SOL    HW326495   2.525   4.016   4.304 -0.3071  0.8271 -1.1642
 6682SOL    MW426496   2.570   4.026   4.230  0.6807 -0.1474 -0.0626
 6683SOL     OW26497   2.219   5.168   0.965 -0.1126 -0.2607 -0.1693
 6683SOL    HW226498   2.212   5.075   0.986 -0.3557 -0.3163 -0.4802
 6683SOL    HW326499   2.223   5.212   1.050 -2.8554 -0.3433  0.1129
 6683SOL    MW426500   2.218   5.162   0.979  0.7067  0.0998  0.1019
 6684SOL     OW26501   1.519   5.614   0.926  0.5116  0.6101  0.6547
 6684SOL    HW226502   1.606   5.574   0.925  0.1122 -0.2857  0.9637
 6684SOL    HW326503   1.509   5.647   1.015 -0.6147 -1.9463  1.5767
 6684SOL    MW426504   1.529   5.613   0.938  0.6005  0.2955 -0.0958
 6685SOL     OW26505   4.213   5.671   4.640 -0.0582  0.1676  0.0369
 6685SOL    HW226506   4.202   5.609   4.712 -0.6090 -0.0768 -0.2472
 6685SOL    HW326507   4.300   5.708   4.652  0.6144 -1.2635 -0.2569
 6685SOL    MW426508   4.223   5.668   4.651 -0.1698 -0.0610 -0.4137
 6686SOL     OW26509   5.913   6.276   4.278  0.2332 -0.2248 -0.5218
 6686SOL    HW226510   5.941   6.238   4.361  0.2451 -0.1445 -0.4887
 6686SOL    HW326511   5.954   6.221   4.211 -0.4276 -0.7676 -0.4820
 6686SOL    MW426512   5.922   6.264   4.280 -0.5807 -0.4114  0.0531
 6687SOL     OW26513   4.332   3.741   4.007  0.6246  0.2203  0.2007
 6687SOL    HW226514   4.279   3.678   4.055  1.6781 -0.1278  0.9458
 6687SOL    HW326515   4.272   3.812   3.984 -0.2978 -0.4810  0.4285
 6687SOL    MW426516   4.317   3.742   4.010 -0.3571 -0.1099 -0.1653
 6688SOL     OW26517   2.875   2.230   1.912 -0.0546  0.4718  0.2278
 6688SOL    HW226518   2.902   2.230   1.820  1.0741  2.8027  0.4976
 6688SOL    HW326519   2.789   2.272   1.912 -0.8758 -1.1063  0.1066
 6688SOL    MW426520   2.867   2.235   1.900  0.2887 -0.1641  0.2949
 6689SOL     OW26521   2.995   0.276   3.082 -0.0948  0.1909 -0.0698
 6689SOL    HW226522   3.029   0.194   3.118  0.5721  1.1268  1.5685
 6689SOL    HW326523   3.004   0.267   2.988  1.0530 -1.1630  0.1383
 6689SOL    MW426524   3.001   0.264   3.075 -0.1377 -0.2268  0.2976
 6690SOL     OW26525   4.324   2.971   2.811  0.0878  0.2871 -0.1772
 6690SOL    HW226526   4.343   2.912   2.885 -0.0020  1.3565  0.7254
 6690SOL    HW326527   4.410   2.998   2.780  0.1317  0.8930  0.4314
 6690SOL    MW426528   4.338   2.967   2.817  0.3992  0.1595 -0.1895
 6691SOL     OW26529   5.594   0.531   4.370  0.4593  0.2587  0.3740
 6691SOL    HW226530   5.570   0.519   4.462 -0.5965  0.3464  0.1275
 6691SOL    HW326531   5.518   0.574   4.331  1.4936  1.6377 -0.2133
 6691SOL    MW426532   5.581   0.535   4.377  0.1286  0.2995 -0.1157
 6692SOL     OW26533   2.657   0.058   4.071 -0.3908 -0.2777  0.3044
 6692SOL    HW226534   2.652   0.151   4.049 -0.0734 -0.6703 -1.5912
 6692SOL    HW326535   2.723   0.054   4.141 -2.2506  1.1584  2.2777
 6692SOL    MW426536   2.665   0.070   4.078 -0.1960  0.0069  0.5235
 6693SOL     OW26537   3.117   2.579   0.022  0.1025 -0.1885 -0.8619
 6693SOL    HW226538   3.105   2.494   0.063  0.8194  0.9561  1.9794
 6693SOL    HW326539   3.212   2.591   0.018  0.0176  0.9574 -0.0021
 6693SOL    MW426540   3.128   2.570   0.027  0.0046  0.4578  0.1170
 6694SOL     OW26541   2.896   2.625   3.634  0.8591 -0.2411 -0.3393
 6694SOL    HW226542   2.823   2.571   3.603  0.2792  0.5833 -0.4426
 6694SOL    HW326543   2.916   2.683   3.561  2.2813 -1.0915 -0.6792
 6694SOL    MW426544   2.889   2.626   3.620 -0.1729  0.0083  0.0933
 6695SOL     OW26545   4.999   2.851   3.898 -0.3858  0.0868  0.0429
 6695SOL    HW226546   4.926   2.908   3.874 -0.1310  0.4263  0.0698
 6695SOL    HW326547   5.000   2.783   3.830 -0.1147  0.6374 -0.5154
 6695SOL    MW426548   4.990   2.849   3.886  0.0196  0.4107 -1.0750
 6696SOL     OW26549   1.771   4.632   6.408  0.1698 -0.0777 -0.4030
 6696SOL    HW226550   1.703   4.692   6.440  0.6896  0.3167 -0.0214
 6696SOL    HW326551   1.723   4.563   6.363 -0.3951  1.7954 -2.9186
 6696SOL    MW426552   1.756   4.631   6.406  0.3243  1.1337  0.2987
 6697SOL     OW26553   3.084   3.147   3.251  0.0520 -0.4574 -0.2248
 6697SOL    HW226554   3.026   3.073   3.232 -0.1935 -0.7212  1.4297
 6697SOL    HW326555   3.152   3.142   3.184 -2.5483  0.7222 -3.1810
 6697SOL    MW426556   3.085   3.137   3.240 -0.1438  0.1892 -0.6739
 6698SOL     OW26557   1.322   2.425   1.651  0.4370 -0.0517  0.4453
 6698SOL    HW226558   1.344   2.413   1.558  0.8016  0.8372  0.4092
 6698SOL    HW326559   1.401   2.462   1.690  0.0797  0.1396  0.9910
 6698SOL    MW426560   1.335   2.428   1.644  0.5378 -0.4474 -0.3909
 6699SOL     OW26561   5.991   3.821   4.932 -0.6484 -0.3113  0.0168
 6699SOL    HW226562   6.060   3.869   4.888  1.4018 -1.4282  1.8369
 6699SOL    HW326563   5.935   3.888   4.970  0.9132  0.6525  0.6879
 6699SOL    MW426564   5.992   3.836   4.931 -0.4581  0.2916  0.3282
 6700SOL     OW26565   5.708   4.388   0.342 -0.0892  0.0720 -0.1319
 6700SOL    HW226566   5.800   4.364   0.333 -0.1281  0.6817 -2.6443
 6700SOL    HW326567   5.680   4.345   0.423  2.4223  0.0271  0.7851
 6700SOL    MW426568   5.716   4.379   0.352 -0.3226  0.1252  0.1219
 6701SOL     OW26569   1.981   1.201   4.856  0.3272 -0.0441 -0.2267
 6701SOL    HW226570   1.886   1.206   4.848  0.0983 -2.9592 -0.4187
 6701SOL    HW326571   2.008   1.140   4.787  2.6100  2.1529 -1.4302
 6701SOL    MW426572   1.972   1.193   4.846 -0.2938  0.5703 -0.2744
 6702SOL     OW26573   5.075   5.538   4.847 -0.1791 -0.0222 -0.6845
 6702SOL    HW226574   5.016   5.498   4.911 -1.4646  3.0087  0.2376
 6702SOL    HW326575   5.161   5.535   4.889 -1.1759  2.9990  2.0013
 6702SOL    MW426576   5.079   5.532   4.861  0.1654 -0.4634  0.0573
 6703SOL     OW26577   1.004   0.285   4.139  0.3649 -0.5998  0.1993
 6703SOL    HW226578   0.954   0.336   4.203 -0.4024 -2.0181  0.7517
 6703SOL    HW326579   0.939   0.231   4.095  0.9988 -0.2173 -1.2640
 6703SOL    MW426580   0.989   0.285   4.142 -0.6276 -0.5178 -0.8078
 6704SOL     OW26581   0.476   1.904   0.904  0.1295  0.3349 -0.4743
 6704SOL    HW226582   0.557   1.869   0.942 -1.1221 -1.7135  0.4457
 6704SOL    HW326583   0.491   1.902   0.809  1.3174  0.4173 -0.3010
 6704SOL    MW426584   0.489   1.899   0.896 -0.2341  0.5115  0.3458
 6705SOL     OW26585   1.051   3.236   2.082 -0.2022 -0.0153 -0.4603
 6705SOL    HW226586   0.969   3.257   2.128 -0.2215 -0.2575 -0.3822
 6705SOL    HW326587   1.035   3.151   2.043  0.1589 -0.2545 -0.0951
 6705SOL    MW426588   1.038   3.228   2.083  0.5717 -0.5712  0.2298
 6706SOL     OW26589   0.040   0.117   4.248 -0.1033  0.2176  0.0591
 6706SOL    HW226590   0.060   0.117   4.342 -0.5156  1.0555  0.1517
 6706SOL    HW326591   0.011   0.027   4.231 -1.4153  0.4298  1.0434
 6706SOL    MW426592   0.039   0.105   4.258  0.4059 -0.2419  0.1920
 6707SOL     OW26593   5.935   3.901   5.712 -0.2175 -0.6975  0.0926
 6707SOL    HW226594   5.881   3.979   5.697  0.0603 -0.0201  2.2694
 6707SOL    HW326595   5.894   3.834   5.657 -1.9898  0.3389  0.0470
 6707SOL    MW426596   5.922   3.903   5.702  0.2828 -0.4181  0.5176
 6708SOL     OW26597   4.501   3.010   2.125  0.0252 -0.1741 -0.3320
 6708SOL    HW226598   4.473   2.921   2.106 -0.1070 -0.0824 -0.5707
 6708SOL    HW326599   4.571   3.028   2.062  2.7719 -1.4473  2.1082
 6708SOL    MW426600   4.506   3.001   2.114  0.6138  0.1745  0.1529
 6709SOL     OW26601   3.084   4.553   3.817 -0.2654  0.2336 -0.4857
 6709SOL    HW226602   3.129   4.600   3.746 -0.3093 -1.1505 -1.4511
 6709SOL    HW326603   3.013   4.612   3.842 -1.3736  0.0241 -2.8214
 6709SOL    MW426604   3.081   4.567   3.811  0.0093  0.4577  0.5506
 6710SOL     OW26605   4.018   0.537   2.950  0.1994  0.7955 -0.3877
 6710SOL    HW226606   3.969   0.455   2.953 -1.2352  1.6228 -0.3155
 6710SOL    HW326607   4.107   0.511   2.926 -0.0352 -0.8508  0.4099
 6710SOL    MW426608   4.024   0.523   2.947 -0.0091  0.0271  0.5256
 6711SOL     OW26609   2.788   3.235   5.991  0.7818 -0.3247 -0.3633
 6711SOL    HW226610   2.716   3.296   6.004  1.5818  0.4343  0.6918
 6711SOL    HW326611   2.800   3.193   6.077  0.4489 -1.7543 -0.9811
 6711SOL    MW426612   2.780   3.237   6.004 -0.6243 -0.0624  0.0628
 6712SOL     OW26613   2.618   4.182   6.382  0.2516 -0.5067 -0.1066
 6712SOL    HW226614   2.636   4.265   6.426 -0.5296  0.1192 -0.9561
 6712SOL    HW326615   2.689   4.172   6.319 -0.0667 -0.1061 -0.5313
 6712SOL    MW426616   2.630   4.192   6.380  0.2289  0.3201  0.5156
 6713SOL     OW26617   1.694   5.205   1.570 -0.1648 -0.3762 -0.3829
 6713SOL    HW226618   1.730   5.263   1.637 -0.7400  1.2969 -1.4607
 6713SOL    HW326619   1.754   5.130   1.568  1.4585  0.8538  0.0649
 6713SOL    MW426620   1.707   5.203   1.578 -0.0799 -0.3224  0.2217
 6714SOL     OW26621   5.268   1.427   3.380  0.4251  0.1927 -0.4626
 6714SOL    HW226622   5.248   1.396   3.469  1.9410 -0.7052 -0.3964
 6714SOL    HW326623   5.292   1.347   3.332  0.5338  0.7883 -1.4209
 6714SOL    MW426624   5.268   1.412   3.386 -0.5707 -0.7566 -0.2686
 6715SOL     OW26625   0.532   2.172   5.260 -0.0384 -0.0843 -0.7081
 6715SOL    HW226626   0.595   2.209   5.322 -0.4719  0.5682 -0.6423
 6715SOL    HW326627   0.575   2.095   5.224  0.7862  0.3370 -0.6385
 6715SOL    MW426628   0.546   2.167   5.263  0.0202  0.0282  0.1815
 6716SOL     OW26629   4.681   3.399   1.520  0.5419 -0.2738 -0.3313
 6716SOL    HW226630   4.659   3.334   1.587 -0.4562  0.9788  0.6083
 6716SOL    HW326631   4.603   3.454   1.515  1.6831  1.3654 -0.4747
 6716SOL    MW426632   4.668   3.397   1.529 -0.1605 -0.0868  0.5551
 6717SOL     OW26633   3.020   3.790   1.818 -0.5736 -0.8307 -0.2177
 6717SOL    HW226634   3.039   3.825   1.731 -0.0366  0.6200  0.4555
 6717SOL    HW326635   3.008   3.696   1.803 -1.0906 -0.5368 -1.9402
 6717SOL    MW426636   3.021   3.782   1.804  0.2826 -0.1493 -0.1891
 6718SOL     OW26637   6.417   2.278   5.326  0.3052  0.0774  0.0179
 6718SOL    HW226638   6.326   2.256   5.307  0.6949 -0.7341 -0.9586
 6718SOL    HW326639   6.412   2.328   5.408 -0.9584 -0.4327  0.2839
 6718SOL    MW426640   6.404   2.282   5.334  0.0727 -0.3058  0.3805
 6719SOL     OW26641   5.419   3.313   0.950 -0.9353  0.0719 -0.0517
 6719SOL    HW226642   5.495   3.269   0.912 -1.1846 -1.8798  1.5788
 6719SOL    HW326643   5.347   3.251   0.938 -2.0407  1.3843 -0.4832
 6719SOL    MW426644   5.419   3.299   0.943 -0.3948 -0.2025 -0.4272
 6720SOL     OW26645   4.027   1.484   0.663  0.2889 -0.3580 -0.8875
 6720SOL    HW226646   3.952   1.448   0.616  1.2076 -1.5423 -1.5207
 6720SOL    HW326647   4.086   1.514   0.593  0.6866 -0.0644 -0.4279
 6720SOL    MW426648   4.025   1.483   0.647  0.2872  0.0303  0.0425
 6721SOL     OW26649   1.379   2.890   1.198 -0.2524 -0.0195 -0.3351
 6721SOL    HW226650   1.422   2.940   1.128 -0.7528  0.3221 -0.4093
 6721SOL    HW326651   1.436   2.815   1.212  0.4290  0.4812 -0.3460
 6721SOL    MW426652   1.392   2.887   1.190  0.4325  0.2967 -0.1402
 6722SOL     OW26653   3.245   1.842   3.086 -0.3597 -0.4372 -0.6547
 6722SOL    HW226654   3.317   1.905   3.077 -1.7606  1.3092 -0.2010
 6722SOL    HW326655   3.256   1.806   3.174  0.3491 -0.7162 -0.8500
 6722SOL    MW426656   3.256   1.846   3.097 -0.0378 -0.3624  0.3259
 6723SOL     OW26657   6.222   0.846   2.417 -0.4904 -0.3667 -0.2633
 6723SOL    HW226658   6.198   0.906   2.347  0.3047 -1.1642 -1.2565
 6723SOL    HW326659   6.205   0.759   2.381  0.0364 -0.7948  0.4819
 6723SOL    MW426660   6.217   0.842   2.403 -0.0760  0.0964  0.7635
 6724SOL     OW26661   2.164   1.942   5.138 -0.0532  0.0571 -0.0612
 6724SOL    HW226662   2.122   1.877   5.194  0.1398  0.7391  0.9058
 6724SOL    HW326663   2.189   1.893   5.059 -0.3542 -0.9204  0.4287
 6724SOL    MW426664   2.161   1.927   5.135  0.1599  0.1056  0.5831
 6725SOL     OW26665   5.815   3.324   3.501 -0.2577  0.0644 -0.5394
 6725SOL    HW226666   5.791   3.364   3.418 -1.7808  0.7298  0.1815
 6725SOL    HW326667   5.796   3.391   3.567 -0.2756 -0.8836  0.4604
 6725SOL    MW426668   5.810   3.338   3.499  0.4195 -0.1189  0.3169
 6726SOL     OW26669   0.630   4.564   1.222  0.1044  0.3296 -0.1661
 6726SOL    HW226670   0.611   4.470   1.230  0.9366  0.0114 -1.5108
 6726SOL    HW326671   0.592   4.589   1.137 -0.5902  1.3542  0.4299
 6726SOL    MW426672   0.623   4.555   1.212 -0.0284 -0.0193  0.3746
 6727SOL     OW26673   6.314   0.904   5.339  0.1263 -0.1310 -0.6639
 6727SOL    HW226674   6.273   0.904   5.425 -1.8331  0.2158 -1.5369
 6727SOL    HW326675   6.407   0.913   5.357 -0.3556  1.6704  1.3587
 6727SOL    MW426676   6.321   0.905   5.353  0.9591  0.1157  0.5981
 6728SOL     OW26677   5.616   2.874   4.958  0.4825 -0.0199  0.2654
 6728SOL    HW226678   5.645   2.872   5.049 -0.5651 -0.3680  0.6023
 6728SOL    HW326679   5.621   2.782   4.930  1.7451  0.2102 -0.3547
 6728SOL    MW426680   5.620   2.862   4.966  0.2552  0.2618 -0.3165
 6729SOL     OW26681   3.086   3.669   2.483  0.7776 -0.7629  0.8343
 6729SOL    HW226682   3.180   3.684   2.474  0.6951  0.3719  1.6463
 6729SOL    HW326683   3.054   3.744   2.533 -0.6801 -0.7651 -0.0328
 6729SOL    MW426684   3.094   3.681   2.488 -0.3011 -0.3605  0.0238
 6730SOL     OW26685   0.714   3.290   1.537 -0.3443  0.2036  0.7296
 6730SOL    HW226686   0.746   3.380   1.526  0.8505 -0.2632  0.2568
 6730SOL    HW326687   0.779   3.247   1.592 -0.1459 -0.7532 -0.2095
 6730SOL    MW426688   0.727   3.296   1.543 -0.7261 -0.2611  0.0831
 6731SOL     OW26689   1.019   5.741   3.614  0.0004  0.0253 -0.5539
 6731SOL    HW226690   1.038   5.668   3.554 -0.6918 -0.8853  0.3000
 6731SOL    HW326691   1.097   5.797   3.609  1.3649 -1.7094  0.1143
 6731SOL    MW426692   1.032   5.739   3.605  0.2913  0.1414 -0.0007
 6732SOL     OW26693   5.174   2.732   0.651 -0.0876  0.3209 -0.5779
 6732SOL    HW226694   5.208   2.654   0.607  2.5808  0.2191  1.4271
 6732SOL    HW326695   5.105   2.699   0.708 -0.5783 -0.1933 -1.4567
 6732SOL    MW426696   5.169   2.717   0.653 -0.1558 -0.3776 -0.1940
 6733SOL     OW26697   2.734  -0.009   5.152  0.0074 -0.2424  0.3519
 6733SOL    HW226698   2.810   0.002   5.209 -0.5595  2.3771  0.7319
 6733SOL    HW326699   2.739   0.065   5.091 -2.1040 -0.1258  0.2493
 6733SOL    MW426700   2.745   0.002   5.152 -0.2433 -0.8485 -0.2711
 6734SOL     OW26701   3.468   2.918   5.492  0.3228  0.1277 -0.4576
 6734SOL    HW226702   3.401   2.858   5.459 -0.1254 -0.8812  2.0402
 6734SOL    HW326703   3.550   2.870   5.481  0.2034 -0.1103 -0.3356
 6734SOL    MW426704   3.470   2.903   5.486  0.2827  0.2679  0.0115
 6735SOL     OW26705   0.520   3.233   2.513  0.0944  0.0119  0.2058
 6735SOL    HW226706   0.599   3.189   2.480  0.9577  1.0573  0.8204
 6735SOL    HW326707   0.447   3.184   2.474  0.9846 -2.3137  1.3014
 6735SOL    MW426708   0.521   3.221   2.504 -0.0163  0.1283 -0.5830
 6736SOL     OW26709   5.422   5.196   6.337 -0.2490  0.2706 -0.7935
 6736SOL    HW226710   5.443   5.192   6.243  1.8375  0.0148 -0.3553
 6736SOL    HW326711   5.495   5.151   6.380 -1.3878  0.0071  0.9468
 6736SOL    MW426712   5.434   5.190   6.330  0.4253  0.0164  0.5130
 6737SOL     OW26713   0.164   0.512   1.860  0.2093 -0.1219  0.7895
 6737SOL    HW226714   0.145   0.436   1.805 -0.9288  0.2162  0.6858
 6737SOL    HW326715   0.212   0.477   1.935 -0.6651 -1.0139  0.9442
 6737SOL    MW426716   0.168   0.498   1.863 -0.1788 -0.6731 -0.3774
 6738SOL     OW26717   2.018   0.274   6.078  0.6145  0.3319  0.0788
 6738SOL    HW226718   2.093   0.320   6.117  0.4994  0.0459  0.6602
 6738SOL    HW326719   1.965   0.343   6.038  1.6483  0.4478 -1.1475
 6738SOL    MW426720   2.021   0.289   6.078 -0.5712  0.3469  0.6386
 6739SOL     OW26721   3.449   4.286   3.220  0.4707  0.3533  0.4594
 6739SOL    HW226722   3.447   4.203   3.172 -1.7307 -0.9946  2.6358
 6739SOL    HW326723   3.450   4.260   3.312  0.5312  2.7700  1.1977
 6739SOL    MW426724   3.448   4.271   3.226 -0.1812  0.3449  0.0550
 6740SOL     OW26725   2.559   1.515   4.508 -0.2887  0.1966  0.1936
 6740SOL    HW226726   2.524   1.435   4.469  0.0768  0.7068 -1.2702
 6740SOL    HW326727   2.652   1.497   4.520 -0.5730 -0.3206  1.8620
 6740SOL    MW426728   2.567   1.502   4.504  0.7557  0.4488  0.0738
 6741SOL     OW26729   4.324   0.707   4.081  0.3957 -0.1300 -0.2805
 6741SOL    HW226730   4.253   0.758   4.121 -0.2309 -0.3336 -1.1061
 6741SOL    HW326731   4.390   0.773   4.058 -0.6030  0.4044 -1.7519
 6741SOL    MW426732   4.323   0.723   4.083 -0.0209 -0.3752  0.8275
 6742SOL     OW26733   1.481   4.118   1.204  0.1222 -0.2750 -0.2956
 6742SOL    HW226734   1.401   4.065   1.198 -0.3669  0.3402  0.5644
 6742SOL    HW326735   1.450   4.209   1.202  0.7463 -0.0307  0.5048
 6742SOL    MW426736   1.466   4.123   1.203 -0.0786 -0.0691 -0.2038
 6743SOL     OW26737   5.956   2.926   5.218 -0.5055  0.1215 -0.0637
 6743SOL    HW226738   6.045   2.919   5.182 -0.3090  1.6165  0.0859
 6743SOL    HW326739   5.917   3.000   5.171 -0.7630  1.1613  1.7072
 6743SOL    MW426740   5.963   2.935   5.207  0.2409 -0.1061 -0.0273
 6744SOL     OW26741   4.525   0.486   5.970 -0.0762 -0.9589  0.0158
 6744SOL    HW226742   4.562   0.514   6.054 -0.5334  2.7158 -0.8258
 6744SOL    HW326743   4.459   0.553   5.949 -1.9485 -3.2222 -2.0358
 6744SOL    MW426744   4.521   0.499   5.978  0.3366  0.6721 -0.0341
 6745SOL     OW26745   2.706   0.912   6.238 -0.5578  0.5068 -0.1095
 6745SOL    HW226746   2.762   0.837   6.255 -1.0437  0.8493  3.7591
 6745SOL    HW326747   2.753   0.987   6.275 -2.6084  1.1065  1.4823
 6745SOL    MW426748   2.720   0.912   6.245  0.3330  0.0207  0.5229
 6746SOL     OW26749   2.024   5.400   4.477 -0.1411 -0.8022  0.6444
 6746SOL    HW226750   2.042   5.479   4.528  1.5318 -0.2443 -0.7102
 6746SOL    HW326751   2.088   5.336   4.508  0.1940 -0.7879  0.0125
 6746SOL    MW426752   2.035   5.402   4.488 -0.3986 -0.1879  0.5149
 6747SOL     OW26753   5.539   5.709   6.102 -0.5466 -0.4648 -0.6574
 6747SOL    HW226754   5.550   5.780   6.039 -1.1311 -0.9953 -1.3697
 6747SOL    HW326755   5.606   5.645   6.078  1.0966  0.5145  1.0031
 6747SOL    MW426756   5.549   5.710   6.090  0.2989 -0.2802 -0.3710
 6748SOL     OW26757   1.954   5.837   1.536  0.1959  0.4048  0.2173
 6748SOL    HW226758   2.037   5.859   1.580  0.3798  1.4936 -0.6224
 6748SOL    HW326759   1.924   5.758   1.580  0.7595  1.0163  1.7845
 6748SOL    MW426760   1.961   5.829   1.548  0.0025  0.4627 -0.2151
 6749SOL     OW26761   3.873   2.216   0.154  0.4051 -0.0813 -0.3420
 6749SOL    HW226762   3.882   2.139   0.209 -0.8996 -0.8103 -1.0946
 6749SOL    HW326763   3.902   2.188   0.067 -0.6290  0.0980 -0.7551
 6749SOL    MW426764   3.878   2.202   0.150  0.0293 -0.1369 -0.4939
 6750SOL     OW26765   2.454   1.966   5.704  0.4094  0.3857  0.0035
 6750SOL    HW226766   2.403   1.936   5.628  2.4581  0.6306 -1.5681
 6750SOL    HW326767   2.405   1.935   5.780 -2.4675  1.2756 -1.3506
 6750SOL    MW426768   2.441   1.958   5.704 -0.2225  0.7288  0.1962
 6751SOL     OW26769   4.418   4.866   3.007 -0.3103 -0.3382  0.3858
 6751SOL    HW226770   4.434   4.951   2.967 -0.4628 -1.3403 -1.9630
 6751SOL    HW326771   4.379   4.813   2.938 -0.2206 -2.3397  1.7638
 6751SOL    MW426772   4.415   4.870   2.993 -0.1492 -0.3072 -0.4829
 6752SOL     OW26773   0.458   4.957   5.150  0.3441 -0.0121 -0.0309
 6752SOL    HW226774   0.550   4.929   5.143  0.6929  0.5130  2.0419
 6752SOL    HW326775   0.460   5.049   5.126 -0.0318 -0.4710 -2.0442
 6752SOL    MW426776   0.471   4.965   5.146 -0.0186  0.1468  0.0474
 6753SOL     OW26777   1.819   2.191   2.197  0.5234  0.2684  0.2380
 6753SOL    HW226778   1.848   2.177   2.107  1.2525  0.8460  0.3688
 6753SOL    HW326779   1.848   2.113   2.244 -0.4787 -0.3659 -0.1466
 6753SOL    MW426780   1.826   2.179   2.191  0.4384  0.2216 -0.0878
 6754SOL     OW26781   5.652   2.997   1.351  0.5630 -0.1305  0.3068
 6754SOL    HW226782   5.660   3.061   1.422  0.7595 -1.3898  1.4491
 6754SOL    HW326783   5.662   2.912   1.394 -0.4116 -0.9742 -1.0608
 6754SOL    MW426784   5.654   2.994   1.366  0.2704  0.1799 -0.0518
 6755SOL     OW26785   5.508   3.673   0.034 -0.0045 -0.0118  0.2920
 6755SOL    HW226786   5.468   3.751  -0.004  1.4282  1.2583  1.2538
 6755SOL    HW326787   5.438   3.632   0.084 -0.5405  1.2453  0.6133
 6755SOL    MW426788   5.494   3.678   0.036 -0.0696  0.0155 -0.0503
 6756SOL     OW26789   1.013   5.799   4.966 -0.4245  0.4708 -0.1257
 6756SOL    HW226790   0.975   5.721   5.006 -0.5399  0.8216  0.4766
 6756SOL    HW326791   1.102   5.804   5.003 -0.6178  0.9338  0.2990
 6756SOL    MW426792   1.020   5.789   4.976 -0.1651  0.9139 -0.2053
 6757SOL     OW26793   0.296   4.594   5.345  0.1320  0.3097  0.2603
 6757SOL    HW226794   0.257   4.543   5.416  0.6496  0.8685  0.9556
 6757SOL    HW326795   0.357   4.533   5.303 -4.2519 -2.0731 -3.5594
 6757SOL    MW426796   0.299   4.579   5.349 -0.1320 -0.2591  0.4203
 6758SOL     OW26797   1.061   2.802   2.858 -0.4849  0.3128 -0.0508
 6758SOL    HW226798   1.133   2.759   2.903 -0.5505 -0.7899 -0.9491
 6758SOL    HW326799   0.983   2.755   2.888 -0.5066 -0.6150 -1.4498
 6758SOL    MW426800   1.060   2.790   2.868  0.2283  0.3200 -0.6331
 6759SOL     OW26801   3.492   2.644   2.156 -0.1204  0.2731 -0.2498
 6759SOL    HW226802   3.570   2.603   2.195 -0.9428  0.5841  1.8929
 6759SOL    HW326803   3.434   2.570   2.137 -0.6889  0.2287  1.4879
 6759SOL    MW426804   3.495   2.629   2.159  0.3768  0.2357  0.0874
 6760SOL     OW26805   5.701   5.549   4.831 -0.1685  0.0458 -0.2089
 6760SOL    HW226806   5.718   5.605   4.907 -1.9283 -1.0486  1.0492
 6760SOL    HW326807   5.669   5.610   4.764  0.0297  0.8400  0.3912
 6760SOL    MW426808   5.699   5.565   4.832  0.1617  0.8384 -0.1511
 6761SOL     OW26809   2.993   2.213   1.190  0.6053  0.0151 -0.1409
 6761SOL    HW226810   3.063   2.190   1.252  0.0609 -0.6263  0.2449
 6761SOL    HW326811   2.936   2.272   1.238 -1.0811 -2.2552  0.7978
 6761SOL    MW426812   2.995   2.218   1.204 -0.3034  0.0714 -0.3219
 6762SOL     OW26813   0.088   4.702   2.126  1.0451  0.5171 -0.2889
 6762SOL    HW226814   0.037   4.632   2.167  0.3430 -0.9525 -3.3722
 6762SOL    HW326815   0.148   4.655   2.068  1.4908  2.4664 -1.4607
 6762SOL    MW426816   0.089   4.686   2.124  0.2678 -0.5187  0.4770
 6763SOL     OW26817   0.044   4.623   4.228  0.3435 -0.7675  0.0746
 6763SOL    HW226818   0.081   4.652   4.145  0.2968  0.1303  0.3543
 6763SOL    HW326819  -0.050   4.637   4.219  0.0299 -2.8834 -0.5687
 6763SOL    MW426820   0.037   4.629   4.216 -0.2351  0.0803 -0.2150
 6764SOL     OW26821   6.245   1.881   2.548  0.0202 -0.0632  0.2290
 6764SOL    HW226822   6.150   1.893   2.554  0.0959 -0.0263  1.6843
 6764SOL    HW326823   6.279   1.970   2.540 -0.1200 -0.1468 -1.7067
 6764SOL    MW426824   6.237   1.895   2.548 -0.3092  0.2343 -0.2064
 6765SOL     OW26825   2.930   4.125   0.744  0.1001 -0.1217 -0.4932
 6765SOL    HW226826   2.850   4.096   0.699  0.7097 -0.9437 -1.0611
 6765SOL    HW326827   2.984   4.046   0.751  0.9226  0.4544 -0.2135
 6765SOL    MW426828   2.926   4.110   0.739  0.0123 -0.1844  0.2016
 6766SOL     OW26829   4.527   1.902   2.533 -0.3213 -0.6787  0.2026
 6766SOL    HW226830   4.602   1.960   2.522 -0.1621 -0.7982  0.6256
 6766SOL    HW326831   4.491   1.925   2.619 -1.6752  0.4049 -0.6306
 6766SOL    MW426832   4.532   1.913   2.543  0.3006  0.2531  0.0370
 6767SOL     OW26833   0.035   4.062   4.464  0.4909  0.3065  0.1545
 6767SOL    HW226834  -0.019   4.140   4.468 -0.0485 -0.1033  1.2943
 6767SOL    HW326835  -0.027   3.989   4.476  0.9933 -0.2947 -0.7685
 6767SOL    MW426836   0.020   4.063   4.466 -0.1626 -0.0523  0.5190
 6768SOL     OW26837   4.433   5.265   5.312 -0.2295  0.5136 -0.1632
 6768SOL    HW226838   4.440   5.289   5.404 -0.6380 -0.9003  0.2600
 6768SOL    HW326839   4.339   5.255   5.296 -0.0777 -1.5061 -0.0792
 6768SOL    MW426840   4.422   5.267   5.322 -0.6301 -0.1803 -0.7591
 6769SOL     OW26841   4.322   2.564   3.574  0.0911  0.1700  0.1023
 6769SOL    HW226842   4.393   2.512   3.613  1.0611  1.3750 -0.0153
 6769SOL    HW326843   4.245   2.544   3.628  0.5667 -0.9204  0.4191
 6769SOL    MW426844   4.321   2.554   3.586 -0.2399 -0.0564  0.0165
 6770SOL     OW26845   1.844   2.175   5.641 -0.3742 -0.3257 -0.1869
 6770SOL    HW226846   1.754   2.166   5.671 -0.0386 -2.1052  0.4281
 6770SOL    HW326847   1.856   2.269   5.627 -1.5700  0.2604  2.1330
 6770SOL    MW426848   1.834   2.186   5.643 -0.4993  0.2325 -0.5731
 6771SOL     OW26849   2.987   5.226   0.022  0.3861  0.5991 -0.2828
 6771SOL    HW226850   2.946   5.302  -0.020  0.1489  0.9976  0.6389
 6771SOL    HW326851   2.963   5.152  -0.033 -1.9739  0.7405  0.4347
 6771SOL    MW426852   2.979   5.226   0.009  0.2317  0.8125 -0.3515
 6772SOL     OW26853   2.476   2.779   4.391 -0.1352 -0.0764 -0.0906
 6772SOL    HW226854   2.488   2.843   4.461  0.6861 -0.8719  0.5164
 6772SOL    HW326855   2.391   2.739   4.409  0.4945 -0.9607  1.0430
 6772SOL    MW426856   2.467   2.782   4.402  0.4836  0.6072 -0.1004
 6773SOL     OW26857   3.796   5.902   0.734 -0.1069  0.0527  0.3608
 6773SOL    HW226858   3.832   5.991   0.738 -0.0555  0.0523 -0.0381
 6773SOL    HW326859   3.725   5.907   0.671 -1.3925  0.2406  1.7661
 6773SOL    MW426860   3.792   5.914   0.726 -0.2692 -0.2033  0.1719
 6774SOL     OW26861   2.016   5.003   1.182  0.7182 -0.2127  0.1202
 6774SOL    HW226862   2.015   5.096   1.204 -0.1858 -0.8770  3.4504
 6774SOL    HW326863   1.928   4.972   1.202  1.1426 -1.9108 -0.4025
 6774SOL    MW426864   2.004   5.011   1.188  0.3129 -0.4629 -0.3389
 6775SOL     OW26865   6.094   5.680   5.123  0.5278 -0.0923  0.3131
 6775SOL    HW226866   6.185   5.695   5.099  0.2472  0.0978 -0.6523
 6775SOL    HW326867   6.064   5.765   5.158  0.8738 -0.3142  1.1838
 6775SOL    MW426868   6.102   5.693   5.125  0.3421  0.8152  0.3787
 6776SOL     OW26869   2.707   2.773   3.763 -0.1560 -0.1595  0.3943
 6776SOL    HW226870   2.755   2.710   3.709 -4.9420 -2.8666 -1.3723
 6776SOL    HW326871   2.681   2.723   3.840  0.4410  1.4224  1.6604
 6776SOL    MW426872   2.710   2.758   3.766  0.2508 -0.5567 -0.1931
 6777SOL     OW26873   1.425   1.929   3.433  0.5634  0.0226 -0.5015
 6777SOL    HW226874   1.467   1.891   3.510 -1.1084  1.4390  1.2201
 6777SOL    HW326875   1.433   1.862   3.366  1.1397 -1.7383  1.2252
 6777SOL    MW426876   1.431   1.915   3.434  0.3639 -0.6651  0.1741
 6778SOL     OW26877   0.557   0.092   6.348 -0.2586  0.0141 -0.0232
 6778SOL    HW226878   0.650   0.081   6.368  0.0881 -0.0867 -1.5382
 6778SOL    HW326879   0.529   0.007   6.314 -0.6490  0.3262 -0.5003
 6778SOL    MW426880   0.565   0.079   6.346  0.4065 -0.6173 -0.7318
 6779SOL     OW26881   0.367   2.159   4.805  0.1284  0.0257 -0.2332
 6779SOL    HW226882   0.304   2.113   4.750  0.7670 -2.4798  0.9804
 6779SOL    HW326883   0.431   2.092   4.830  1.6766  1.8101  0.9233
 6779SOL    MW426884   0.367   2.144   4.801  0.1606 -0.3987  0.2200
 6780SOL     OW26885   1.725   3.400   4.538 -0.3830  0.4794 -0.1263
 6780SOL    HW226886   1.646   3.419   4.588  0.2826  1.6156  0.5479
 6780SOL    HW326887   1.776   3.341   4.594 -0.5107  0.1643 -0.3363
 6780SOL    MW426888   1.722   3.395   4.552 -0.1412 -0.5075  0.5688
 6781SOL     OW26889   2.239   1.135   5.290  0.4620 -0.0989 -0.1500
 6781SOL    HW226890   2.152   1.154   5.255  0.0117 -0.2680  0.8206
 6781SOL    HW326891   2.300   1.161   5.221 -0.3760 -0.3924 -1.0156
 6781SOL    MW426892   2.236   1.141   5.276 -0.9547  0.0097 -0.2662
 6782SOL     OW26893   6.273   0.288   6.322  0.2236 -0.4520 -0.0569
 6782SOL    HW226894   6.213   0.278   6.248  0.1916 -0.7552  0.0126
 6782SOL    HW326895   6.216   0.296   6.399  0.1733  1.6454 -0.2430
 6782SOL    MW426896   6.258   0.288   6.322 -0.2618 -0.2590  0.3715
 6783SOL     OW26897   2.010   5.365   1.478 -0.1241  0.0487  0.6922
 6783SOL    HW226898   1.985   5.314   1.555  0.3737 -1.0307  0.1552
 6783SOL    HW326899   2.106   5.359   1.476 -0.2112 -2.1111 -1.4138
 6783SOL    MW426900   2.019   5.357   1.488  0.0534  0.0395  0.3396
 6784SOL     OW26901   1.531   4.417   1.023  0.4287 -0.6695  0.1479
 6784SOL    HW226902   1.594   4.457   1.083  1.2329 -0.3569 -0.8735
 6784SOL    HW326903   1.578   4.343   0.984  0.7328  0.4185 -1.7026
 6784SOL    MW426904   1.546   4.412   1.026 -0.1595  0.0067 -0.6304
 6785SOL     OW26905   4.797   5.826   5.271 -0.1013 -0.1324  0.0487
 6785SOL    HW226906   4.797   5.784   5.357  2.1858  1.3353  0.8646
 6785SOL    HW326907   4.878   5.798   5.231 -0.0996  0.9221 -0.7203
 6785SOL    MW426908   4.807   5.817   5.277 -0.1510 -0.5929  0.6396
 6786SOL     OW26909   3.019   3.783   5.837 -0.1934 -0.0947 -0.3924
 6786SOL    HW226910   2.941   3.733   5.862 -0.3578  0.8269  1.0275
 6786SOL    HW326911   2.985   3.866   5.805  0.1304 -0.4848 -1.8274
 6786SOL    MW426912   3.004   3.787   5.836  0.1322 -0.3334  0.0246
 6787SOL     OW26913   1.789   5.975   5.502 -0.5359  0.3381 -0.0347
 6787SOL    HW226914   1.870   5.950   5.547  0.7669  3.2891 -0.4696
 6787SOL    HW326915   1.778   5.909   5.434  1.7991  0.0606 -0.2340
 6787SOL    MW426916   1.799   5.963   5.499  0.3779  0.2139 -0.5279
 6788SOL     OW26917   1.926   2.162   2.968  0.5046  0.2061  0.3261
 6788SOL    HW226918   1.979   2.092   2.929  0.4981  0.3989 -0.0412
 6788SOL    HW326919   1.845   2.161   2.918 -0.0005 -0.3332  1.1347
 6788SOL    MW426920   1.922   2.153   2.956  1.0851  0.4319  0.4509
 6789SOL     OW26921   3.498   2.002   2.438  0.1729 -0.1124 -0.6424
 6789SOL    HW226922   3.409   1.981   2.407  0.1267  0.4699 -0.9106
 6789SOL    HW326923   3.502   1.965   2.526  0.0566 -1.1638 -1.0595
 6789SOL    MW426924   3.487   1.994   2.445 -0.2931 -0.0269  0.0772
 6790SOL     OW26925   0.320   3.877   1.381 -0.2602 -0.0807 -0.3494
 6790SOL    HW226926   0.290   3.956   1.336  0.0583  0.2730  0.0508
 6790SOL    HW326927   0.341   3.906   1.470 -0.1785 -0.6248 -0.1845
 6790SOL    MW426928   0.319   3.891   1.387 -0.0541  0.2431  0.3553
 6791SOL     OW26929   5.102   3.201   3.036  0.1716 -0.2669  0.1165
 6791SOL    HW226930   5.052   3.268   3.081 -1.6582 -0.8207 -0.9787
 6791SOL    HW326931   5.170   3.249   2.989  0.0007  0.6222  0.7591
 6791SOL    MW426932   5.104   3.216   3.036  0.2592 -0.2547 -0.3796
 6792SOL     OW26933   4.079   3.261   4.443 -0.5236 -0.3321 -0.4580
 6792SOL    HW226934   4.119   3.218   4.518  0.1621  2.7434  1.1262
 6792SOL    HW326935   3.990   3.281   4.471 -0.4068  0.4225 -0.5839
 6792SOL    MW426936   4.073   3.258   4.457  0.1061 -0.2486 -0.4358
 6793SOL     OW26937   0.141   4.697   2.556  0.0752 -0.3352  0.3242
 6793SOL    HW226938   0.172   4.750   2.483  1.1330  0.5982  1.4109
 6793SOL    HW326939   0.188   4.614   2.546 -0.6777 -0.6706 -0.6921
 6793SOL    MW426940   0.151   4.693   2.545  0.1275  0.1985  0.1523
 6794SOL     OW26941   1.762   0.012   5.170 -0.5948  0.3304 -0.0313
 6794SOL    HW226942   1.678   0.057   5.157  0.1868  1.4538 -1.4042
 6794SOL    HW326943   1.819   0.078   5.209  0.0507 -0.0227 -0.3669
 6794SOL    MW426944   1.758   0.026   5.174  0.4756 -0.2891  0.1148
 6795SOL     OW26945   1.097   0.017   4.868 -0.2588  0.5247  0.4162
 6795SOL    HW226946   1.025   0.058   4.915 -1.2228 -1.8367  1.1083
 6795SOL    HW326947   1.142  -0.037   4.933  1.6140  1.2016 -0.2218
 6795SOL    MW426948   1.094   0.015   4.882 -0.7297 -0.4873 -0.0947
 6796SOL     OW26949   4.987   2.025   2.023  0.1418  0.0601  0.1515
 6796SOL    HW226950   5.026   2.106   1.988 -0.2291  0.8083  1.4012
 6796SOL    HW326951   5.055   1.988   2.079  0.9271 -1.4094 -1.6572
 6796SOL    MW426952   5.001   2.031   2.026  0.3901 -0.1844  0.0947
 6797SOL     OW26953   1.257   3.319   0.365 -0.0655 -0.1949 -0.3435
 6797SOL    HW226954   1.226   3.328   0.455 -3.0217  0.9937 -1.3610
 6797SOL    HW326955   1.305   3.400   0.348  1.3908 -0.8519  0.3886
 6797SOL    MW426956   1.259   3.331   0.375 -0.2344 -0.8574  0.5339
 6798SOL     OW26957   4.626   3.106   3.056 -0.7482  0.7563  0.0565
 6798SOL    HW226958   4.531   3.100   3.064 -0.8049  0.8996 -0.4865
 6798SOL    HW326959   4.641   3.150   2.972 -0.2178  1.3546  0.4485
 6798SOL    MW426960   4.615   3.111   3.046 -0.2511  0.1338 -0.3971
 6799SOL     OW26961   5.113   1.842   3.215  0.2530  0.1863 -0.1621
 6799SOL    HW226962   5.201   1.824   3.249  0.7067  2.5282  0.0420
 6799SOL    HW326963   5.075   1.755   3.203  2.0543 -0.8748  1.1353
 6799SOL    MW426964   5.120   1.828   3.218 -0.0695  0.0850 -0.1500
 6800SOL     OW26965   4.468   4.423   1.632  0.3343 -0.5823  0.1601
 6800SOL    HW226966   4.437   4.513   1.634  1.0052 -0.2577 -1.9054
 6800SOL    HW326967   4.389   4.371   1.615  0.1500 -0.2349 -0.0621
 6800SOL    MW426968   4.453   4.428   1.630  0.4267 -0.3690  0.5066
 6801SOL     OW26969   3.847   0.226   6.225  0.0172 -0.8097  0.1530
 6801SOL    HW226970   3.768   0.202   6.274 -0.7061 -1.3230 -1.1963
 6801SOL    HW326971   3.852   0.161   6.155  1.2042 -0.3130 -0.2415
 6801SOL    MW426972   3.837   0.214   6.222  0.1498 -0.2737  0.3889
 6802SOL     OW26973   3.162   2.791   3.012  0.0007 -0.3302 -0.1129
 6802SOL    HW226974   3.119   2.780   2.927 -1.6782  1.6097  0.4061
 6802SOL    HW326975   3.109   2.739   3.073  1.1560 -1.6537 -0.1815
 6802SOL    MW426976   3.149   2.783   3.009  0.5239  0.3608 -0.1214
 6803SOL     OW26977   0.330   4.228   3.544  0.6948  0.2829 -0.3712
 6803SOL    HW226978   0.242   4.256   3.518  0.1720  0.1810  1.1723
 6803SOL    HW326979   0.320   4.201   3.635  1.8660 -1.8764 -0.8114
 6803SOL    MW426980   0.317   4.228   3.553 -0.3743 -0.3592 -0.2984
 6804SOL     OW26981   1.931   0.328   0.048 -0.0430  0.0682 -0.3261
 6804SOL    HW226982   1.943   0.241   0.011 -1.4005 -0.2641 -0.0292
 6804SOL    HW326983   1.868   0.316   0.119  0.7594  1.0747  0.5956
 6804SOL    MW426984   1.924   0.315   0.052 -0.0023  0.6220 -0.2441
 6805SOL     OW26985   4.915   0.586   4.287  0.4423 -0.0342 -0.2240
 6805SOL    HW226986   4.862   0.521   4.333 -1.0221  0.4988 -1.0885
 6805SOL    HW326987   4.967   0.628   4.356  0.3465 -1.1267  0.5349
 6805SOL    MW426988   4.915   0.583   4.302 -0.6542 -0.3198 -0.1987
 6806SOL     OW26989   6.209   1.583   0.997 -0.0322  0.1406  0.1988
 6806SOL    HW226990   6.260   1.510   1.031 -0.5179  0.2465  1.1738
 6806SOL    HW326991   6.122   1.546   0.980  0.5857 -0.3211 -2.4904
 6806SOL    MW426992   6.204   1.569   0.999  0.0703  0.3532  0.1826
 6807SOL     OW26993   3.660   4.722   0.578  0.2581  0.1527 -0.1181
 6807SOL    HW226994   3.622   4.809   0.567  0.3556  0.1252 -0.7270
 6807SOL    HW326995   3.671   4.689   0.489  0.8508 -0.2144  0.0833
 6807SOL    MW426996   3.657   4.729   0.565  0.2609  0.1365 -0.4035
 6808SOL     OW26997   1.824   4.676   3.775 -0.1393 -0.8963 -0.1929
 6808SOL    HW226998   1.742   4.725   3.769  0.4849  0.1412 -0.5456
 6808SOL    HW326999   1.813   4.620   3.851 -2.4213 -3.1552 -2.0122
 6808SOL    MW427000   1.811   4.675   3.784  0.0236  0.3938  0.1879
 6809SOL     OW27001   0.569   1.805   0.164  0.5540  0.1740 -0.2340
 6809SOL    HW227002   0.571   1.901   0.163 -0.0328  0.3141  2.6673
 6809SOL    HW327003   0.648   1.780   0.211 -1.0177 -0.5153  2.1994
 6809SOL    MW427004   0.580   1.815   0.170 -0.2716  0.2761  0.4590
 6810SOL     OW27005   2.906   4.343   3.736 -0.3242 -0.0594  0.4547
 6810SOL    HW227006   2.969   4.403   3.776  1.2153 -0.8153 -0.7052
 6810SOL    HW327007   2.959   4.288   3.677 -2.0454 -0.8827 -0.4152
 6810SOL    MW427008   2.921   4.343   3.733 -0.6174 -0.1623  1.0774
 6811SOL     OW27009   2.971   4.365   2.272 -0.0792 -0.0261  0.7651
 6811SOL    HW227010   2.978   4.305   2.198 -1.7493  2.1499 -1.2847
 6811SOL    HW327011   3.061   4.382   2.298  0.5150 -3.9603  2.0648
 6811SOL    MW427012   2.984   4.359   2.266 -0.4934  0.2757 -0.4955
 6812SOL     OW27013   0.669   4.079   0.257 -0.5312  0.1689 -0.1883
 6812SOL    HW227014   0.737   4.135   0.295  1.3090 -1.3336 -1.0838
 6812SOL    HW327015   0.669   4.001   0.312 -0.1174 -0.6664 -1.3359
 6812SOL    MW427016   0.678   4.076   0.269 -0.5346  0.3089 -0.2279
 6813SOL     OW27017   5.292   2.599   4.048 -0.3988 -0.2655 -0.4644
 6813SOL    HW227018   5.387   2.586   4.047 -0.6134 -2.3194  0.3460
 6813SOL    HW327019   5.281   2.693   4.065  1.4902 -0.1911  0.6919
 6813SOL    MW427020   5.303   2.610   4.050 -0.0903 -0.2957  0.0232
 6814SOL     OW27021   5.363   4.323   4.118 -0.5553  0.2063 -0.2619
 6814SOL    HW227022   5.356   4.304   4.025 -0.4515  1.8003 -0.6299
 6814SOL    HW327023   5.422   4.398   4.123 -2.1836  1.4902  0.8907
 6814SOL    MW427024   5.370   4.330   4.106 -0.0599  0.1720 -0.3456
 6815SOL     OW27025   5.982   2.328   6.385  0.0953 -0.0947  0.1781
 6815SOL    HW227026   5.985   2.298   6.294  0.2530  0.4697 -0.0069
 6815SOL    HW327027   6.052   2.393   6.391 -1.1881  1.3802  0.1434
 6815SOL    MW427028   5.991   2.333   6.374  0.3665  0.7136  0.5688
 6816SOL     OW27029   5.318   4.068   6.008 -0.2640 -0.3954 -0.0399
 6816SOL    HW227030   5.330   4.127   6.083  2.1389 -0.2659 -0.4489
 6816SOL    HW327031   5.398   4.016   6.005 -1.0113 -1.5519 -1.5584
 6816SOL    MW427032   5.330   4.069   6.018 -0.6344 -0.1505  0.5943
 6817SOL     OW27033   5.860   5.918   0.571 -0.0556  0.1961  0.2723
 6817SOL    HW227034   5.931   5.967   0.529  1.5063 -2.1383 -0.0108
 6817SOL    HW327035   5.901   5.838   0.603 -2.3174 -0.6299  1.3662
 6817SOL    MW427036   5.874   5.914   0.570 -0.1492  0.4503  0.6053
 6818SOL     OW27037   5.752   0.595   0.236 -0.8920  0.0604  0.0459
 6818SOL    HW227038   5.773   0.504   0.257 -2.6756 -1.0000 -2.3101
 6818SOL    HW327039   5.815   0.618   0.168 -2.2752 -0.4988 -1.4915
 6818SOL    MW427040   5.763   0.586   0.230  0.0673  0.1397 -0.0674
 6819SOL     OW27041   2.375   2.347   1.549 -0.2057 -0.0322 -0.5487
 6819SOL    HW227042   2.450   2.353   1.608 -0.8117  2.0568  0.0956
 6819SOL    HW327043   2.413   2.337   1.462  0.7622 -0.2794 -0.1048
 6819SOL    MW427044   2.390   2.346   1.545 -0.0483  0.2625 -0.5088
 6820SOL     OW27045   1.093   0.891   3.772 -0.0165 -0.0895 -0.4111
 6820SOL    HW227046   1.076   0.937   3.689 -2.2950  0.7923  0.4562
 6820SOL    HW327047   1.060   0.802   3.756  0.4939 -0.2229 -0.7558
 6820SOL    MW427048   1.086   0.885   3.759  0.0721  0.0836  0.2515
 6821SOL     OW27049   6.045   2.816   5.601  0.3113 -0.1520 -0.3815
 6821SOL    HW227050   5.965   2.864   5.583 -1.6494 -2.9006  0.2379
 6821SOL    HW327051   6.080   2.855   5.681  0.4967  2.0501 -1.4699
 6821SOL    MW427052   6.039   2.827   5.609  0.5628  0.4102  0.3818
 6822SOL     OW27053   5.358   1.804   1.752  0.1175  0.1325 -0.4576
 6822SOL    HW227054   5.348   1.710   1.740  0.4429  0.0073  0.2077
 6822SOL    HW327055   5.438   1.814   1.804  0.9965  0.8777 -1.8889
 6822SOL    MW427056   5.367   1.793   1.757 -0.4272 -0.2034  0.0980
 6823SOL     OW27057   0.402   4.797   0.381  0.2349 -0.2540  0.2067
 6823SOL    HW227058   0.494   4.823   0.385 -0.3003  1.7048  1.2686
 6823SOL    HW327059   0.355   4.870   0.422 -1.6928 -1.7310  0.7796
 6823SOL    MW427060   0.408   4.810   0.387  0.6387 -0.5545 -0.2144
 6824SOL     OW27061   4.246   4.581   6.288  0.1308 -0.2970 -0.0420
 6824SOL    HW227062   4.325   4.628   6.262 -0.3878  1.0790  0.7492
 6824SOL    HW327063   4.182   4.602   6.219  0.3579 -1.2081 -0.5506
 6824SOL    MW427064   4.248   4.590   6.275  0.4682  0.2400 -0.1070
 6825SOL     OW27065   5.646   1.222   2.733  0.3142  0.0822  0.1699
 6825SOL    HW227066   5.595   1.189   2.659  1.1810  0.3767 -0.5820
 6825SOL    HW327067   5.607   1.181   2.810 -0.5191 -0.3361 -0.4656
 6825SOL    MW427068   5.634   1.212   2.733 -0.3057 -0.1827  0.7275
 6826SOL     OW27069   3.585   1.084   4.984 -0.4332  0.0472  0.1514
 6826SOL    HW227070   3.635   1.109   4.906 -2.3412  1.3992 -0.7155
 6826SOL    HW327071   3.585   0.989   4.983 -0.9097  0.0129 -1.8819
 6826SOL    MW427072   3.592   1.075   4.973  0.0509  0.2181  0.3484
 6827SOL     OW27073   5.734   0.444   3.199 -0.3214 -0.3596  0.1353
 6827SOL    HW227074   5.725   0.448   3.294  0.8189 -1.1960  0.2995
 6827SOL    HW327075   5.771   0.529   3.175 -1.4474  0.2024  0.3137
 6827SOL    MW427076   5.738   0.456   3.208  0.5012  0.2934 -0.0426
 6828SOL     OW27077   1.011   5.381   0.169 -0.9781 -0.4027  0.7884
 6828SOL    HW227078   1.004   5.458   0.113 -0.8182 -0.1884  1.0604
 6828SOL    HW327079   1.075   5.324   0.126 -0.3784  0.0444  1.0805
 6828SOL    MW427080   1.018   5.383   0.156  0.1666 -0.3905 -0.2669
 6829SOL     OW27081   5.952   1.399   4.999  0.4516 -0.2383 -0.3340
 6829SOL    HW227082   5.982   1.458   5.068  3.6918  1.9108 -3.2595
 6829SOL    HW327083   6.009   1.322   5.008 -3.4620 -3.1633  3.1861
 6829SOL    MW427084   5.964   1.396   5.009 -0.0030 -0.2187 -0.1224
 6830SOL     OW27085   1.106   2.840   1.223 -0.3889 -0.7148  0.1313
 6830SOL    HW227086   1.200   2.825   1.208 -0.0559 -0.6291  1.8893
 6830SOL    HW327087   1.086   2.918   1.171  0.3767 -1.0655 -0.7164
 6830SOL    MW427088   1.116   2.848   1.214 -0.6979 -0.3162  0.0778
 6831SOL     OW27089   3.406   6.365   1.594 -0.0015 -0.4854  0.0292
 6831SOL    HW227090   3.322   6.367   1.548  1.1256 -1.7397 -2.2154
 6831SOL    HW327091   3.383   6.336   1.683 -1.9966 -0.3083 -0.3772
 6831SOL    MW427092   3.392   6.361   1.600 -0.3158  0.2401  0.0098
 6832SOL     OW27093   1.335   4.748   4.844 -0.2519  0.0758  0.8463
 6832SOL    HW227094   1.365   4.804   4.772  1.5367  0.6336  1.9596
 6832SOL    HW327095   1.351   4.659   4.813  0.1662  0.2976  0.3974
 6832SOL    MW427096   1.341   4.744   4.831  0.7238 -0.1595  0.1235
 6833SOL     OW27097   1.836   4.837   4.677  0.6917 -0.3288 -0.2407
 6833SOL    HW227098   1.796   4.820   4.763  0.0032  0.1364 -0.4661
 6833SOL    HW327099   1.794   4.774   4.618  1.4613 -0.9280 -0.1662
 6833SOL    MW427100   1.825   4.826   4.681 -0.2502 -0.3194 -0.2859
 6834SOL     OW27101   1.369   5.392   1.314 -0.1790 -0.0366 -0.0879
 6834SOL    HW227102   1.338   5.424   1.229 -1.1806 -0.0458  0.2614
 6834SOL    HW327103   1.452   5.348   1.294 -0.1009  0.4766 -0.9659
 6834SOL    MW427104   1.376   5.390   1.300 -0.7073  0.0597 -0.5947
 6835SOL     OW27105   1.937   0.657   1.448 -0.0393 -0.0115 -0.0343
 6835SOL    HW227106   1.964   0.731   1.504  1.2048 -0.9211  0.6286
 6835SOL    HW327107   1.855   0.627   1.486 -0.8098  1.3194 -0.6020
 6835SOL    MW427108   1.930   0.663   1.461  0.5694  0.8495 -0.4747
 6836SOL     OW27109   3.800   6.215   4.882 -0.1975  0.0355 -0.3560
 6836SOL    HW227110   3.733   6.171   4.934  0.7105  0.6721  1.4124
 6836SOL    HW327111   3.850   6.144   4.843 -1.5682 -0.4466 -1.3138
 6836SOL    MW427112   3.798   6.200   4.884  0.0409 -1.0998  0.0760
 6837SOL     OW27113   4.761   1.375   6.035  0.0692 -0.4766  0.2729
 6837SOL    HW227114   4.684   1.391   6.088 -0.3899 -1.2402 -0.1441
 6837SOL    HW327115   4.830   1.429   6.074 -0.6447  0.1160  0.7122
 6837SOL    MW427116   4.760   1.384   6.047 -0.0254  0.2703 -0.2253
 6838SOL     OW27117   0.185   1.114   6.042 -0.4406 -0.1743  0.7374
 6838SOL    HW227118   0.202   1.207   6.024  1.2141 -0.2815  1.5547
 6838SOL    HW327119   0.100   1.113   6.086  0.0688  1.1053  1.8212
 6838SOL    MW427120   0.176   1.126   6.046  0.1638 -0.5514  0.6580
 6839SOL     OW27121   5.622   5.723   3.009  0.0359  0.0370 -0.6602
 6839SOL    HW227122   5.700   5.764   2.972  0.5512  0.1590  0.5185
 6839SOL    HW327123   5.655   5.649   3.058 -0.4801  0.6351  0.6348
 6839SOL    MW427124   5.637   5.719   3.010  0.3014  0.7138 -0.8218
 6840SOL     OW27125   2.223   5.325   3.565  0.3197  0.1700  0.1040
 6840SOL    HW227126   2.137   5.366   3.556  0.1538  0.0975  1.1540
 6840SOL    HW327127   2.271   5.383   3.625  0.6373 -0.3284  0.3392
 6840SOL    MW427128   2.218   5.338   3.572 -0.3185  0.2687  0.3172
 6841SOL     OW27129   0.270   0.224   2.479  0.3318  0.5035  0.1716
 6841SOL    HW227130   0.221   0.297   2.443 -0.1114  0.5002  0.7542
 6841SOL    HW327131   0.314   0.185   2.404 -0.1481  0.8219 -0.2787
 6841SOL    MW427132   0.269   0.228   2.465  0.0456  0.3418 -0.1985
 6842SOL     OW27133   2.949   4.445   0.231  0.0987 -0.4684  0.3819
 6842SOL    HW227134   2.863   4.402   0.226  1.2605 -2.7960 -1.3790
 6842SOL    HW327135   2.931   4.535   0.203 -1.6187 -1.2135 -1.1432
 6842SOL    MW427136   2.935   4.451   0.226  0.6745  0.0666  0.4878
 6843SOL     OW27137   1.067   0.897   5.942 -0.2610 -0.3496  0.2519
 6843SOL    HW227138   1.098   0.916   6.030 -1.0577  3.0547 -0.0672
 6843SOL    HW327139   1.147   0.897   5.889 -0.0523  0.7267  0.5450
 6843SOL    MW427140   1.082   0.900   5.946 -0.0050 -0.0612  0.5481
 6844SOL     OW27141   5.645   3.553   2.932 -0.2006 -0.1940  0.3829
 6844SOL    HW227142   5.696   3.489   2.883  0.2161  0.6165 -0.2549
 6844SOL    HW327143   5.710   3.608   2.976 -0.5308 -1.6815  2.9645
 6844SOL    MW427144   5.660   3.552   2.931 -0.3289 -0.4245 -0.0005
 6845SOL     OW27145   3.324   1.139   2.679  0.5938  0.1113  0.0064
 6845SOL    HW227146   3.340   1.045   2.683 -3.0163 -0.6266  0.3387
 6845SOL    HW327147   3.335   1.169   2.769 -0.8414 -0.5739  0.4419
 6845SOL    MW427148   3.328   1.131   2.691  0.5332 -0.4106  0.0589
 6846SOL     OW27149   4.114   1.430   2.417 -0.1578 -0.0877  0.4017
 6846SOL    HW227150   4.110   1.426   2.513 -0.6749 -0.6277  0.3569
 6846SOL    HW327151   4.176   1.362   2.392  0.4677  0.4760  0.3825
 6846SOL    MW427152   4.121   1.421   2.427 -0.0469 -0.8098 -0.8506
 6847SOL     OW27153   2.197   3.036   4.387  0.5171 -0.3178  0.0967
 6847SOL    HW227154   2.128   2.970   4.399  0.4141 -0.3422 -0.5822
 6847SOL    HW327155   2.261   2.993   4.330  1.2048 -0.3675  0.8874
 6847SOL    MW427156   2.196   3.021   4.381 -0.6183 -1.4370 -0.3983
 6848SOL     OW27157   6.292   4.652   2.576 -0.3871  0.0593  0.0971
 6848SOL    HW227158   6.272   4.706   2.652 -1.5193 -0.8558  0.4741
 6848SOL    HW327159   6.388   4.651   2.572 -0.3289  0.8058  0.9974
 6848SOL    MW427160   6.302   4.659   2.585 -0.8178  0.3126 -0.4320
 6849SOL     OW27161   4.871   0.880   2.712  0.8085  0.3075  0.0256
 6849SOL    HW227162   4.803   0.943   2.736 -0.7475 -0.9559 -0.7849
 6849SOL    HW327163   4.868   0.878   2.616  1.5597 -0.2263  0.0084
 6849SOL    MW427164   4.861   0.888   2.702  0.4751 -0.0208 -0.7153
 6850SOL     OW27165   4.909   3.267   2.696  0.0141  0.1900  0.6374
 6850SOL    HW227166   4.951   3.334   2.749 -3.5559  1.3484  2.3014
 6850SOL    HW327167   4.972   3.195   2.694  2.3219  2.0139  2.2160
 6850SOL    MW427168   4.923   3.266   2.703  0.9341 -0.2922 -0.4232
 6851SOL     OW27169   1.628   2.060   1.129  0.5561  0.2848  0.7758
 6851SOL    HW227170   1.617   2.103   1.044  1.6354 -0.3892  0.2829
 6851SOL    HW327171   1.704   2.004   1.118  0.0613 -0.6354  1.8700
 6851SOL    MW427172   1.636   2.059   1.117 -0.5601  0.3230 -0.0111
 6852SOL     OW27173   0.698   6.009   1.950 -0.5204 -0.7936 -0.4145
 6852SOL    HW227174   0.664   5.978   1.866  0.3799 -0.5665 -0.8763
 6852SOL    HW327175   0.687   5.935   2.010  0.8869 -1.7501 -1.3040
 6852SOL    MW427176   0.692   5.995   1.947  0.2978 -0.0102  0.1430
 6853SOL     OW27177   1.214   0.445   4.687 -0.1113 -0.5512 -0.3249
 6853SOL    HW227178   1.234   0.394   4.766  1.7219 -1.0476 -1.0587
 6853SOL    HW327179   1.261   0.528   4.699 -0.3739 -0.3594 -0.6067
 6853SOL    MW427180   1.222   0.449   4.699  0.0020 -0.6168  0.1052
 6854SOL     OW27181   0.636   1.917   2.716  0.6054  0.3260  0.0081
 6854SOL    HW227182   0.662   2.009   2.718  2.7754 -0.2263  0.0363
 6854SOL    HW327183   0.715   1.871   2.690 -0.5497 -1.5183 -0.4252
 6854SOL    MW427184   0.650   1.923   2.713  0.1241  0.1972  0.3305
 6855SOL     OW27185   0.957   3.559   3.479 -0.3015 -0.2406 -0.3662
 6855SOL    HW227186   0.899   3.562   3.556  0.5798 -0.6230  0.3327
 6855SOL    HW327187   0.946   3.644   3.438 -0.4335  0.1482  0.4525
 6855SOL    MW427188   0.948   3.570   3.484 -0.4816  0.8055 -0.1098
 6856SOL     OW27189   4.777   5.652   3.821 -0.4418 -0.4359 -0.4496
 6856SOL    HW227190   4.783   5.725   3.882  0.1289 -0.3596 -0.5878
 6856SOL    HW327191   4.839   5.673   3.751 -1.2911 -0.3818 -1.2113
 6856SOL    MW427192   4.786   5.664   3.820 -0.2110 -0.0422  0.0660
 6857SOL     OW27193   2.394   2.060   0.938 -1.1140  0.0100  0.4066
 6857SOL    HW227194   2.322   2.063   1.001 -1.8719  0.7200 -0.4559
 6857SOL    HW327195   2.392   1.970   0.904 -1.7648  0.0854  0.2187
 6857SOL    MW427196   2.384   2.048   0.942  0.2378 -0.1263 -0.4679
 6858SOL     OW27197   2.109   4.302   1.895  0.7752 -0.2068  0.1297
 6858SOL    HW227198   2.066   4.273   1.814 -0.8302  1.6294  0.2519
 6858SOL    HW327199   2.071   4.247   1.963  1.3136 -1.0132 -0.2030
 6858SOL    MW427200   2.098   4.291   1.893  0.1984  0.2724 -0.0598
 6859SOL     OW27201   0.988   3.632   0.386 -0.6328 -0.5767  0.1651
 6859SOL    HW227202   1.080   3.604   0.381 -0.6184 -0.7579  1.2162
 6859SOL    HW327203   0.971   3.671   0.300  0.3621 -0.7276 -0.1250
 6859SOL    MW427204   0.998   3.633   0.374  0.2768 -0.3875 -0.4494
 6860SOL     OW27205   5.385   0.417   6.149 -0.0540 -0.0238  0.0765
 6860SOL    HW227206   5.419   0.329   6.168 -0.9184 -0.4072 -0.0903
 6860SOL    HW327207   5.326   0.436   6.221  0.4212  0.5962  0.3127
 6860SOL    MW427208   5.382   0.408   6.161  0.1365  0.0539  0.1587
 6861SOL     OW27209   3.928   5.882   0.987  0.4315  0.3864  0.9442
 6861SOL    HW227210   3.884   5.873   0.903  0.7027 -0.7710  0.9160
 6861SOL    HW327211   3.981   5.961   0.978  0.7765  0.0394 -0.1149
 6861SOL    MW427212   3.929   5.892   0.975  0.0107 -0.3641 -0.0688
 6862SOL     OW27213   2.286   5.583   1.728 -0.0341 -0.6004 -0.1724
 6862SOL    HW227214   2.257   5.670   1.701 -2.4586 -0.8472  1.2399
 6862SOL    HW327215   2.276   5.528   1.650 -0.7504 -0.0657 -0.4669
 6862SOL    MW427216   2.281   5.587   1.715 -0.7996 -0.2381  0.1464
 6863SOL     OW27217   1.953   1.401   1.942  0.1748 -0.0404 -0.0570
 6863SOL    HW227218   2.019   1.336   1.919  0.0854 -0.0462 -0.3059
 6863SOL    HW327219   2.003   1.477   1.971  0.2711 -0.4148  0.7913
 6863SOL    MW427220   1.968   1.403   1.943 -0.9416  0.6477 -0.2494
 6864SOL     OW27221   4.388   6.126   2.286  0.0492  0.2039 -0.2995
 6864SOL    HW227222   4.363   6.214   2.314  1.1206  0.2412  0.5810
 6864SOL    HW327223   4.456   6.100   2.347  0.3003 -0.9306 -1.0442
 6864SOL    MW427224   4.393   6.134   2.298 -0.0626  1.0760  0.2233
 6865SOL     OW27225   3.274   0.679   2.313 -0.8339  0.5146 -0.1919
 6865SOL    HW227226   3.306   0.600   2.356 -3.8305 -1.3301 -1.0519
 6865SOL    HW327227   3.224   0.725   2.380 -1.6416  0.0454 -0.4572
 6865SOL    MW427228   3.272   0.675   2.327  0.1203  0.3893 -0.2283
 6866SOL     OW27229   0.863   5.061   3.107 -0.0462  0.5675  0.0175
 6866SOL    HW227230   0.790   5.114   3.075 -0.9927  0.2644  1.5575
 6866SOL    HW327231   0.822   4.987   3.151  1.1975  0.2228  0.6534
 6866SOL    MW427232   0.848   5.059   3.109 -0.1402  0.5061  0.2131
 6867SOL     OW27233   5.524   5.700   3.818 -0.3609  0.7005 -0.3556
 6867SOL    HW227234   5.566   5.637   3.877 -1.1619 -0.0348 -0.5372
 6867SOL    HW327235   5.431   5.693   3.839 -0.8119 -0.3943 -2.4327
 6867SOL    MW427236   5.517   5.690   3.829 -0.2277  0.1032  0.2785
 6868SOL     OW27237   5.584   6.370   4.099  0.0970  0.0177 -0.5246
 6868SOL    HW227238   5.603   6.311   4.172  0.3705  0.8190  0.0643
 6868SOL    HW327239   5.645   6.345   4.030  1.5150  0.8402  0.4025
 6868SOL    MW427240   5.594   6.359   4.099  0.0505  0.2067  0.1149
 6869SOL     OW27241   4.511   5.329   0.656  0.4465 -0.2656  0.1024
 6869SOL    HW227242   4.507   5.306   0.563 -0.2228 -0.3361  0.1443
 6869SOL    HW327243   4.595   5.374   0.665  0.1093  0.5802 -0.7348
 6869SOL    MW427244   4.521   5.332   0.645  0.0319  0.0588  0.1216
 6870SOL     OW27245   2.278   1.706   1.703 -0.2590  0.3448 -0.0764
 6870SOL    HW227246   2.239   1.695   1.790  0.1684  2.0211  0.3785
 6870SOL    HW327247   2.372   1.704   1.719 -0.1450 -1.3852 -0.8294
 6870SOL    MW427248   2.285   1.704   1.717  0.2643 -0.2572  0.1953
 6871SOL     OW27249   4.507   0.448   1.154 -0.3003 -0.0703 -0.6132
 6871SOL    HW227250   4.539   0.439   1.244 -0.6299 -0.4558 -0.5343
 6871SOL    HW327251   4.586   0.461   1.102 -0.1767  1.2720 -0.1335
 6871SOL    MW427252   4.521   0.449   1.159 -0.4294 -0.3254 -0.2383
 6872SOL     OW27253   0.263   3.740   0.441 -0.7059 -0.0035  0.4166
 6872SOL    HW227254   0.296   3.657   0.476 -2.1279 -1.4816 -1.5485
 6872SOL    HW327255   0.267   3.729   0.346  0.1071  2.6519  0.0462
 6872SOL    MW427256   0.268   3.728   0.433  0.1321  0.4719 -0.2474
 6873SOL     OW27257   3.472   5.618   6.128  0.4497  0.3670  0.5761
 6873SOL    HW227258   3.437   5.614   6.039  1.5518  1.0640  0.0824
 6873SOL    HW327259   3.542   5.552   6.129  1.5679  1.5089  0.3718
 6873SOL    MW427260   3.477   5.608   6.117 -0.3239  1.2349 -0.5077
 6874SOL     OW27261   4.569   2.510   5.134 -0.4907 -0.3783 -0.3688
 6874SOL    HW227262   4.613   2.435   5.174 -1.2033  0.2390  1.7539
 6874SOL    HW327263   4.542   2.564   5.209 -0.0311  1.9848 -1.8109
 6874SOL    MW427264   4.571   2.507   5.149  0.2884 -0.2102  0.2261
 6875SOL     OW27265   3.298   5.023   4.566  0.5026  0.4198 -0.1117
 6875SOL    HW227266   3.315   4.959   4.497  0.7938 -0.9528  1.1783
 6875SOL    HW327267   3.371   5.085   4.559  2.6305 -1.7258  1.1787
 6875SOL    MW427268   3.310   5.022   4.556  0.5625 -0.3046  0.2065
 6876SOL     OW27269   2.018   4.228   4.880 -0.2144 -0.0397  0.1800
 6876SOL    HW227270   1.999   4.318   4.854  0.0940 -0.0583 -0.1216
 6876SOL    HW327271   1.989   4.175   4.806 -0.6764 -0.2174  0.4815
 6876SOL    MW427272   2.012   4.233   4.867  0.2371 -0.2169 -0.3803
 6877SOL     OW27273   1.039   5.365   2.081  0.1316  0.1238  0.2080
 6877SOL    HW227274   1.010   5.280   2.047  1.2333 -1.0258  2.0487
 6877SOL    HW327275   1.125   5.379   2.041 -1.1124  1.7197 -2.1918
 6877SOL    MW427276   1.046   5.356   2.071 -0.4827  0.4375 -0.3269
 6878SOL     OW27277   1.424   6.005   3.700 -0.4131  0.3132 -0.4809
 6878SOL    HW227278   1.468   6.089   3.716 -0.6329  0.0660  1.6802
 6878SOL    HW327279   1.492   5.940   3.717 -0.8915  0.0108  0.3548
 6878SOL    MW427280   1.439   6.008   3.705  0.5635 -0.2233 -0.3442
 6879SOL     OW27281   2.922   1.999   5.812  0.3244  0.1271  0.1578
 6879SOL    HW227282   2.997   1.971   5.759  0.5235  0.1279  0.4367
 6879SOL    HW327283   2.854   2.022   5.748  0.6434  0.3504 -0.1023
 6879SOL    MW427284   2.923   1.999   5.797 -0.1481 -0.1848  0.0524
 6880SOL     OW27285   5.239   1.714   2.914 -0.1711  0.4091  0.2983
 6880SOL    HW227286   5.196   1.641   2.868  2.3795 -0.5938 -0.6996
 6880SOL    HW327287   5.263   1.677   2.999  1.7507 -0.2395 -0.4692
 6880SOL    MW427288   5.237   1.699   2.919  0.0994 -0.2204 -0.1633
 6881SOL     OW27289   1.515   5.342   6.289 -0.3261 -0.0130 -0.1400
 6881SOL    HW227290   1.459   5.270   6.263 -0.3446 -0.5815  1.3496
 6881SOL    HW327291   1.546   5.318   6.377  0.9526  1.0341 -0.2602
 6881SOL    MW427292   1.512   5.329   6.297  0.5066  0.3527 -0.0141
 6882SOL     OW27293   0.852   3.099   4.723  0.3022 -0.6248 -0.3728
 6882SOL    HW227294   0.784   3.158   4.756  0.8540  0.4570 -1.1213
 6882SOL    HW327295   0.813   3.012   4.730 -1.0042 -0.0654 -0.4046
 6882SOL    MW427296   0.838   3.095   4.728  0.7714  0.6156  0.2633
 6883SOL     OW27297   2.759   0.638   0.125  0.4423 -0.6885  0.5383
 6883SOL    HW227298   2.787   0.553   0.161  0.9790 -0.6823  0.1503
 6883SOL    HW327299   2.837   0.671   0.080  0.0727 -0.2386  0.2270
 6883SOL    MW427300   2.773   0.631   0.124  0.5974 -0.0472  0.4628
 6884SOL     OW27301   0.688   4.414   3.129  0.2347 -0.4339  0.0479
 6884SOL    HW227302   0.687   4.476   3.057 -1.0200 -1.1010 -0.5399
 6884SOL    HW327303   0.690   4.469   3.208 -0.0091  0.3404 -0.4727
 6884SOL    MW427304   0.688   4.430   3.130  0.0442  0.0073 -0.1444
 6885SOL     OW27305   3.197   0.489   3.089  0.4559  0.5854 -0.1095
 6885SOL    HW227306   3.144   0.552   3.042  0.5167  0.1034 -0.8351
 6885SOL    HW327307   3.151   0.406   3.079  0.2993  0.5254  0.9547
 6885SOL    MW427308   3.184   0.486   3.082 -0.4632 -0.4310  0.2457
 6886SOL     OW27309   2.881   0.633   2.481 -0.1159 -0.0999 -0.2471
 6886SOL    HW227310   2.817   0.704   2.471 -1.2294 -0.7091  1.9650
 6886SOL    HW327311   2.963   0.677   2.500  0.0992  0.6853 -2.6813
 6886SOL    MW427312   2.883   0.648   2.482 -0.3497  0.3031 -0.0831
 6887SOL     OW27313   0.575   1.411   1.031  0.1073 -0.4983  0.1453
 6887SOL    HW227314   0.506   1.476   1.019  0.1740 -0.6688 -1.5238
 6887SOL    HW327315   0.544   1.334   0.983  1.3048 -0.6682 -0.4089
 6887SOL    MW427316   0.562   1.410   1.023 -0.2479 -0.9302 -0.5059
 6888SOL     OW27317   4.026   4.201   0.936 -0.3856  0.7403  0.1912
 6888SOL    HW227318   3.996   4.283   0.895 -0.2372  0.8026  0.2086
 6888SOL    HW327319   4.042   4.225   1.027 -2.4731  0.2028  0.7558
 6888SOL    MW427320   4.024   4.215   0.942  0.0696  0.2667  0.1558
 6889SOL     OW27321   3.209   3.625   5.188  1.2346 -0.1108 -0.2052
 6889SOL    HW227322   3.162   3.663   5.114 -0.9885 -0.9684  0.6695
 6889SOL    HW327323   3.301   3.623   5.160  0.8850  2.2122 -1.7704
 6889SOL    MW427324   3.215   3.629   5.174  0.5170  0.2173  0.5483
 6890SOL     OW27325   4.715   4.146   6.077 -0.3593 -0.2679 -0.0042
 6890SOL    HW227326   4.711   4.091   5.999 -0.0012 -0.4301  0.0925
 6890SOL    HW327327   4.652   4.216   6.060  0.8622  0.6166 -1.1661
 6890SOL    MW427328   4.706   4.148   6.065  0.4832 -0.6749  0.3820
 6891SOL     OW27329   4.480   0.158   5.065 -0.8531 -0.1949 -0.6327
 6891SOL    HW227330   4.514   0.234   5.113 -1.0171  0.2524 -1.2205
 6891SOL    HW327331   4.505   0.173   4.974 -0.0246 -1.3342 -0.6090
 6891SOL    MW427332   4.488   0.170   5.059  0.3152 -0.1655  0.0827
 6892SOL     OW27333   5.534   6.088   0.542 -0.1141  0.1881  0.1744
 6892SOL    HW227334   5.469   6.021   0.564  0.3112  0.3286  2.0511
 6892SOL    HW327335   5.586   6.049   0.472 -1.4156 -0.4255 -0.4939
 6892SOL    MW427336   5.532   6.074   0.536 -0.8088 -0.4147  0.6414
 6893SOL     OW27337   1.503   5.551   0.492 -0.2199  0.2585  0.5153
 6893SOL    HW227338   1.427   5.533   0.547 -0.1404 -0.8194  0.3050
 6893SOL    HW327339   1.499   5.645   0.476 -1.2808  0.2883  0.8362
 6893SOL    MW427340   1.492   5.561   0.497  0.0940  0.3055  0.0516
 6894SOL     OW27341   3.729   0.543   0.106  0.2212 -0.2915  0.2167
 6894SOL    HW227342   3.774   0.499   0.179  1.3351  1.2231  0.4918
 6894SOL    HW327343   3.799   0.587   0.058 -0.6215 -0.4753 -1.2356
 6894SOL    MW427344   3.744   0.543   0.110  0.1018  0.3666 -0.4722
 6895SOL     OW27345   0.652   0.228   3.361 -0.2944  0.1798 -0.8462
 6895SOL    HW227346   0.713   0.240   3.289  0.5697  1.6778  0.0879
 6895SOL    HW327347   0.599   0.152   3.335  1.8534 -1.1140 -1.7497
 6895SOL    MW427348   0.653   0.219   3.348 -0.1630 -0.6366  0.2483
 6896SOL     OW27349   5.901   2.358   4.410 -0.5842  0.3923  0.1200
 6896SOL    HW227350   5.992   2.350   4.380 -0.6137 -0.7658  0.2807
 6896SOL    HW327351   5.908   2.374   4.504 -0.5441  0.2378  0.1436
 6896SOL    MW427352   5.914   2.359   4.418  0.1052 -0.1325 -0.7521
 6897SOL     OW27353   6.177   6.230   2.481 -0.0296 -0.6473  0.9997
 6897SOL    HW227354   6.116   6.241   2.554 -0.2643  0.2970  0.6744
 6897SOL    HW327355   6.129   6.176   2.417 -0.2477 -0.5173  1.0550
 6897SOL    MW427356   6.163   6.224   2.482 -0.2395  1.0350 -0.2800
 6898SOL     OW27357   0.133   1.859   6.089  0.3074 -0.4437  0.2954
 6898SOL    HW227358   0.104   1.948   6.069  0.3611 -0.7710 -1.3246
 6898SOL    HW327359   0.142   1.859   6.185 -0.8113  0.9347  0.4466
 6898SOL    MW427360   0.131   1.871   6.099  0.0101  0.4658  0.4243
 6899SOL     OW27361   1.912   1.842   6.024  0.3368  0.0634 -0.3086
 6899SOL    HW227362   1.872   1.866   6.107 -0.7835  0.4321 -0.9263
 6899SOL    HW327363   1.949   1.923   5.990  0.3408  0.0270 -0.3927
 6899SOL    MW427364   1.911   1.856   6.030  0.5044 -0.5193 -0.2838
 6900SOL     OW27365   3.893   5.069   3.460 -0.2396 -0.4156  0.2388
 6900SOL    HW227366   3.978   5.111   3.448  0.2436 -1.6409 -0.8579
 6900SOL    HW327367   3.844   5.129   3.517  1.4724  0.1163  1.2038
 6900SOL    MW427368   3.898   5.083   3.466  0.5217 -0.1764  0.2555
 6901SOL     OW27369   5.599   3.014   2.896 -0.5374  0.2554  0.0360
 6901SOL    HW227370   5.603   2.934   2.949 -1.6901 -0.4152 -0.8404
 6901SOL    HW327371   5.683   3.057   2.912 -0.6452 -0.1659  1.9907
 6901SOL    MW427372   5.611   3.009   2.905  0.1412 -0.2465 -0.5288
 6902SOL     OW27373   3.064   4.810   6.299 -0.0424  0.0647 -0.1725
 6902SOL    HW227374   3.070   4.760   6.380 -0.7777 -0.5841 -0.5055
 6902SOL    HW327375   3.142   4.866   6.299  0.3826 -0.5150  0.5794
 6902SOL    MW427376   3.075   4.811   6.310 -0.1844 -0.4225 -0.8301
 6903SOL     OW27377   3.842   6.154   0.819 -0.3439  0.0762  0.0189
 6903SOL    HW227378   3.879   6.197   0.742  1.9100 -1.9518 -0.1226
 6903SOL    HW327379   3.878   6.202   0.894 -1.1374  0.9394 -0.1279
 6903SOL    MW427380   3.851   6.166   0.819 -0.2582 -0.0222 -0.1954
 6904SOL     OW27381   0.712   4.509   4.692  0.1387 -0.1241  0.1856
 6904SOL    HW227382   0.694   4.546   4.778 -1.1342 -0.5235  0.1121
 6904SOL    HW327383   0.728   4.416   4.709  1.5139  0.0830  0.1590
 6904SOL    MW427384   0.712   4.502   4.706 -0.4758 -0.0769  0.2601
 6905SOL     OW27385   4.213   0.454   0.368  0.2114  0.1643  0.5855
 6905SOL    HW227386   4.126   0.427   0.337  0.5396 -0.2483 -0.0186
 6905SOL    HW327387   4.269   0.447   0.290  1.0988 -1.0144  1.2904
 6905SOL    MW427388   4.209   0.449   0.353  0.4785 -0.2857 -0.0214
 6906SOL     OW27389   4.045   0.905   4.566  0.2435  0.0268  0.1246
 6906SOL    HW227390   4.090   0.822   4.555  0.0815 -0.2160  1.1989
 6906SOL    HW327391   3.972   0.886   4.625 -0.8979  0.5522 -1.0692
 6906SOL    MW427392   4.041   0.892   4.572 -0.3186  1.0731 -0.8014
 6907SOL     OW27393   6.141   4.397   3.107 -0.2590 -0.0170  0.3744
 6907SOL    HW227394   6.050   4.425   3.111 -0.6305 -1.1562  0.3460
 6907SOL    HW327395   6.166   4.384   3.199 -0.9019 -1.9794  0.3310
 6907SOL    MW427396   6.132   4.399   3.120 -0.1092  0.5715  0.1373
 6908SOL     OW27397   5.279   2.812   1.117  0.0954  0.1454 -0.0919
 6908SOL    HW227398   5.193   2.798   1.155 -2.2618  1.9687 -4.1438
 6908SOL    HW327399   5.279   2.761   1.036  3.4964 -0.9693  0.4482
 6908SOL    MW427400   5.268   2.804   1.112  0.1208 -0.0106  0.2232
 6909SOL     OW27401   2.388   2.541   3.796  0.0836 -0.0108 -0.6974
 6909SOL    HW227402   2.460   2.569   3.854  0.4278 -0.3391 -0.9652
 6909SOL    HW327403   2.398   2.447   3.790 -0.5246 -0.0895 -0.5425
 6909SOL    MW427404   2.399   2.533   3.803  1.0129  0.6753 -0.7580
 6910SOL     OW27405   2.296   0.501   5.062 -0.2376 -0.0541  0.0247
 6910SOL    HW227406   2.365   0.479   5.124 -0.9290  0.6493  1.0835
 6910SOL    HW327407   2.284   0.423   5.008 -0.8316 -1.3407  1.9313
 6910SOL    MW427408   2.303   0.488   5.063 -0.5324 -0.4570 -0.3885
 6911SOL     OW27409   0.445   5.377   2.864 -0.0598  0.1770  0.5720
 6911SOL    HW227410   0.365   5.389   2.915  0.7398  0.9905  1.6817
 6911SOL    HW327411   0.515   5.368   2.930  0.6043 -1.8884 -0.3433
 6911SOL    MW427412   0.444   5.377   2.880  0.0874 -0.5059 -0.1161
 6912SOL     OW27413   4.762   2.366   1.652 -0.0185  0.1762 -0.4568
 6912SOL    HW227414   4.693   2.342   1.714 -0.1380  0.0014 -0.6572
 6912SOL    HW327415   4.802   2.283   1.627 -0.2635  0.2093 -0.9563
 6912SOL    MW427416   4.758   2.352   1.657  0.2390  0.5389 -0.1521
 6913SOL     OW27417   0.981   2.205   5.150  0.1344  0.2751  0.3115
 6913SOL    HW227418   0.900   2.255   5.152 -0.5705 -0.7350 -1.0613
 6913SOL    HW327419   0.964   2.129   5.206  0.2009  0.1833  0.2092
 6913SOL    MW427420   0.968   2.202   5.158 -0.1179  0.1326 -0.4002
 6914SOL     OW27421   5.526   2.337   4.868  0.2068 -0.1154  0.2214
 6914SOL    HW227422   5.455   2.301   4.922 -0.1027  0.6001  0.3132
 6914SOL    HW327423   5.574   2.261   4.837 -0.0380 -0.5753  0.9326
 6914SOL    MW427424   5.523   2.322   4.871  0.8341 -0.2205  0.1374
 6915SOL     OW27425   3.554   3.773   2.595 -0.7856  0.2697 -0.1958
 6915SOL    HW227426   3.571   3.781   2.689  1.6293 -1.0769 -0.4585
 6915SOL    HW327427   3.558   3.862   2.562  0.9436  0.5286  0.6193
 6915SOL    MW427428   3.556   3.786   2.603 -0.0848  0.1077  0.3066
 6916SOL     OW27429   6.008   0.042   6.255 -0.4626 -0.0451 -0.6844
 6916SOL    HW227430   6.034   0.116   6.200 -0.3655  0.4646  0.0349
 6916SOL    HW327431   5.993  -0.029   6.193 -1.8973  0.9421 -1.5520
 6916SOL    MW427432   6.009   0.043   6.239 -0.1313 -0.2128  0.2110
 6917SOL     OW27433   5.888   0.868   0.735 -0.0918 -0.5966  0.3647
 6917SOL    HW227434   5.802   0.829   0.718 -0.0047 -0.0357 -1.5151
 6917SOL    HW327435   5.868   0.950   0.780 -0.6994  0.3446 -1.5014
 6917SOL    MW427436   5.874   0.874   0.739 -0.1801  0.3951  0.7238
 6918SOL     OW27437   5.773   3.856   3.444 -0.6289  0.4854  0.6301
 6918SOL    HW227438   5.815   3.916   3.506  0.0758  0.6626 -0.0009
 6918SOL    HW327439   5.794   3.769   3.476  1.5392  0.5376 -0.4774
 6918SOL    MW427440   5.781   3.852   3.456 -0.0781  0.8835 -0.1395
 6919SOL     OW27441   4.552   4.848   4.619  0.2802  0.2872 -0.3037
 6919SOL    HW227442   4.525   4.850   4.528 -0.3612 -0.1750 -0.1257
 6919SOL    HW327443   4.574   4.939   4.640 -0.9352  0.6386 -0.5113
 6919SOL    MW427444   4.552   4.860   4.610 -0.5758  0.1144 -0.0301
 6920SOL     OW27445   5.823   4.390   3.053 -0.3889 -0.2316  0.0690
 6920SOL    HW227446   5.845   4.404   2.960 -0.9138 -0.5645 -0.1081
 6920SOL    HW327447   5.858   4.304   3.073  1.1714  0.4984  0.6420
 6920SOL    MW427448   5.831   4.381   3.043  0.4561 -0.1911 -0.2770
 6921SOL     OW27449   2.334   5.310   5.482 -0.6499 -0.0272 -0.0133
 6921SOL    HW227450   2.300   5.264   5.558  1.5741 -1.0955  0.4053
 6921SOL    HW327451   2.421   5.272   5.467  0.8163  3.1412 -0.4118
 6921SOL    MW427452   2.341   5.299   5.490 -0.1120 -0.0304  0.0155
 6922SOL     OW27453   6.144   1.379   6.165 -0.3473  0.2489  0.1397
 6922SOL    HW227454   6.170   1.384   6.072 -0.1464  0.1420  0.1894
 6922SOL    HW327455   6.172   1.464   6.201  2.0357 -0.6994  0.7197
 6922SOL    MW427456   6.151   1.391   6.157 -0.1565 -0.2052  0.0303
 6923SOL     OW27457   1.345   4.553   5.280 -0.4101  0.1208  0.3163
 6923SOL    HW227458   1.355   4.461   5.306  0.2976  0.0102 -0.3052
 6923SOL    HW327459   1.387   4.602   5.350  0.2588 -0.0971  0.0726
 6923SOL    MW427460   1.352   4.547   5.293 -0.0987  0.0482  0.3799
 6924SOL     OW27461   3.586   5.919   3.968  0.3044  0.8840  0.0117
 6924SOL    HW227462   3.538   5.867   4.033  1.9427  1.0240  1.3929
 6924SOL    HW327463   3.631   5.855   3.914  0.1177  0.8069 -0.0540
 6924SOL    MW427464   3.585   5.904   3.969  0.2527  0.3279 -0.5843
 6925SOL     OW27465   1.126   3.855   2.680 -0.3145 -0.0582 -0.4356
 6925SOL    HW227466   1.151   3.937   2.721  0.4477  1.9902 -4.4757
 6925SOL    HW327467   1.031   3.851   2.690 -0.1032 -0.3884  2.3952
 6925SOL    MW427468   1.117   3.865   2.687 -0.1447 -0.3022  0.0989
 6926SOL     OW27469   5.061   1.773   1.607 -0.0618  0.2136 -0.6520
 6926SOL    HW227470   5.030   1.817   1.686  1.5163 -0.9990  0.7231
 6926SOL    HW327471   5.141   1.819   1.583  0.0139 -0.0598 -0.9404
 6926SOL    MW427472   5.067   1.785   1.615  0.8872 -0.0570 -0.6764
 6927SOL     OW27473   4.120   4.891   1.035  0.2378  0.1004 -0.1230
 6927SOL    HW227474   4.145   4.807   1.073 -0.5575  0.3279  0.9440
 6927SOL    HW327475   4.203   4.937   1.024  0.5782 -0.3786  0.3606
 6927SOL    MW427476   4.134   4.886   1.038  0.7561 -0.1228 -0.4186
 6928SOL     OW27477   5.301   0.221   5.369 -0.0262 -0.3907 -0.4367
 6928SOL    HW227478   5.284   0.129   5.350 -0.6909 -0.4422  0.3657
 6928SOL    HW327479   5.339   0.255   5.288  0.9409 -1.5380 -0.4970
 6928SOL    MW427480   5.304   0.213   5.355  0.1482  0.1483 -0.1202
 6929SOL     OW27481   4.388   0.496   1.682 -0.2333  0.0084 -0.3774
 6929SOL    HW227482   4.453   0.428   1.698 -2.5332 -2.7090 -1.5719
 6929SOL    HW327483   4.434   0.563   1.631  2.0279 -0.8501  0.4437
 6929SOL    MW427484   4.402   0.496   1.677 -0.4567 -1.0063 -0.1251
 6930SOL     OW27485   4.913   5.191   1.738 -0.3005 -0.0211 -0.1378
 6930SOL    HW227486   4.893   5.133   1.812 -0.1486  1.4433  1.0875
 6930SOL    HW327487   4.865   5.271   1.756 -1.1361 -0.0008 -2.2215
 6930SOL    MW427488   4.904   5.194   1.750 -0.6768 -0.9792  0.3951
 6931SOL     OW27489   3.406   0.741   0.251  0.0744 -0.3190  0.2318
 6931SOL    HW227490   3.482   0.780   0.208 -1.1346  0.9992 -0.8376
 6931SOL    HW327491   3.442   0.678   0.312  2.0077  0.0954 -0.4179
 6931SOL    MW427492   3.421   0.738   0.253  0.5040  0.0286  0.1918
 6932SOL     OW27493   6.237   5.001   0.247  0.1395  0.3099  0.5343
 6932SOL    HW227494   6.158   4.951   0.224 -0.6502  0.8422  1.9610
 6932SOL    HW327495   6.300   4.979   0.178 -1.5079  0.5167 -1.1390
 6932SOL    MW427496   6.235   4.991   0.235  0.2839 -0.3080  0.3463
 6933SOL     OW27497   4.668   2.459   3.426 -0.5510 -0.6798 -0.2240
 6933SOL    HW227498   4.694   2.491   3.340  0.0081 -1.7537 -0.4703
 6933SOL    HW327499   4.586   2.412   3.410 -0.3076 -1.1124 -0.2322
 6933SOL    MW427500   4.660   2.457   3.413 -0.2792  0.2304  0.7578
 6934SOL     OW27501   4.470   1.350   2.159  0.2715 -0.2180 -0.1578
 6934SOL    HW227502   4.557   1.310   2.163  0.7748  0.7258 -0.9660
 6934SOL    HW327503   4.438   1.329   2.071  0.5198  1.0129 -0.5755
 6934SOL    MW427504   4.477   1.342   2.148  0.1796  0.1148  0.1410
 6935SOL     OW27505   2.593   1.268   6.150 -0.1565 -0.3221  0.1275
 6935SOL    HW227506   2.558   1.307   6.070  1.4024  1.9470  0.4433
 6935SOL    HW327507   2.524   1.210   6.182 -2.1876  1.3259 -1.0592
 6935SOL    MW427508   2.579   1.265   6.144 -0.3604 -0.9616  0.0126
 6936SOL     OW27509   4.897   3.781   6.186 -0.0515 -0.0064 -0.0912
 6936SOL    HW227510   4.966   3.741   6.239 -1.2512 -1.8378  0.1940
 6936SOL    HW327511   4.939   3.855   6.143  2.0635 -1.0318  0.0992
 6936SOL    MW427512   4.911   3.785   6.188  0.2770 -0.6213  0.0625
 6937SOL     OW27513   5.087   0.751   3.425  0.8262 -0.6491 -0.0297
 6937SOL    HW227514   5.070   0.715   3.338  0.7027 -2.1182  0.5708
 6937SOL    HW327515   5.091   0.846   3.412  0.6445 -0.8377 -1.5966
 6937SOL    MW427516   5.085   0.759   3.412  1.0632  0.2705 -0.3142
 6938SOL     OW27517   5.649   2.582   4.935  0.1058  0.0698 -0.1945
 6938SOL    HW227518   5.722   2.596   4.995  0.7580  0.9158 -1.1501
 6938SOL    HW327519   5.646   2.487   4.923  1.8308  0.0788 -1.0426
 6938SOL    MW427520   5.658   2.572   4.941  0.0146  0.1981  0.3335
 6939SOL     OW27521   1.211   5.237   5.406  0.4356 -0.5352  0.7773
 6939SOL    HW227522   1.121   5.240   5.439  0.6384 -2.3674  1.6293
 6939SOL    HW327523   1.202   5.239   5.311 -0.7248 -3.2011  0.7469
 6939SOL    MW427524   1.198   5.238   5.398  0.0238 -0.5724 -0.7477
 6940SOL     OW27525   3.871   4.854   1.686  0.1198  0.0310 -0.3895
 6940SOL    HW227526   3.860   4.931   1.630 -1.0796  1.8263  2.1285
 6940SOL    HW327527   3.852   4.780   1.628  1.7002  1.5303 -3.0145
 6940SOL    MW427528   3.867   4.854   1.671  0.3969 -0.9589  0.2011
 6941SOL     OW27529   5.053   5.597   3.988 -0.1363 -0.3005 -1.0619
 6941SOL    HW227530   5.125   5.652   3.959 -0.1725 -0.5723 -1.6985
 6941SOL    HW327531   5.002   5.580   3.908  0.0219 -1.4581 -0.9449
 6941SOL    MW427532   5.056   5.602   3.974  0.1250  0.4161  0.0515
 6942SOL     OW27533   0.273   2.052   1.800 -0.0298 -0.6017  0.2823
 6942SOL    HW227534   0.289   2.145   1.781 -1.3229  0.0736  2.1847
 6942SOL    HW327535   0.263   2.049   1.896 -3.7617 -1.9955  0.0303
 6942SOL    MW427536   0.273   2.064   1.810 -0.5218  0.2771  0.0613
 6943SOL     OW27537   5.164   0.804   0.624 -0.0671 -0.1976  0.1520
 6943SOL    HW227538   5.074   0.831   0.644 -0.8476 -1.6185 -1.1567
 6943SOL    HW327539   5.217   0.881   0.642 -1.2227  0.0439  3.0718
 6943SOL    MW427540   5.159   0.818   0.629  0.2021 -0.8643 -0.1553
 6944SOL     OW27541   6.018   5.052   4.647 -0.0022 -0.2775  1.0449
 6944SOL    HW227542   6.076   5.095   4.584 -0.2906  0.7242  1.4471
 6944SOL    HW327543   5.933   5.048   4.603 -0.1038  0.0535  1.2059
 6944SOL    MW427544   6.014   5.057   4.632 -0.2928  0.1101 -0.4458
 6945SOL     OW27545   1.213   2.187   0.581 -0.0538  0.1854  0.6538
 6945SOL    HW227546   1.277   2.251   0.550 -0.7215 -0.0482 -1.3612
 6945SOL    HW327547   1.130   2.235   0.585  0.0491  0.2793  2.4641
 6945SOL    MW427548   1.210   2.202   0.577 -0.1389 -0.1827 -0.6757
 6946SOL     OW27549   0.070   3.328   3.755  0.0139 -0.2426  0.3123
 6946SOL    HW227550   0.130   3.341   3.828 -0.2423 -1.0080  0.6742
 6946SOL    HW327551   0.122   3.347   3.677  0.4274  0.1008  0.6718
 6946SOL    MW427552   0.085   3.332   3.754 -1.4061 -0.2410  0.3898
 6947SOL     OW27553   2.474   4.373   1.791  0.0337  0.0172 -0.1054
 6947SOL    HW227554   2.435   4.388   1.877 -1.7809  1.7459 -1.1632
 6947SOL    HW327555   2.568   4.364   1.809 -0.1606  1.4070  1.9521
 6947SOL    MW427556   2.482   4.374   1.805  0.1114 -0.2932 -0.3795
 6948SOL     OW27557   3.623   5.853   0.268  0.4872 -0.4753 -0.4017
 6948SOL    HW227558   3.535   5.835   0.237 -0.4116  1.3514  0.8949
 6948SOL    HW327559   3.642   5.781   0.329 -0.3149 -0.6243 -0.3169
 6948SOL    MW427560   3.614   5.841   0.272  0.1778 -0.2394  0.6124
 6949SOL     OW27561   4.473   1.733   3.238 -0.1961  0.6518  0.2376
 6949SOL    HW227562   4.495   1.646   3.271  0.1401  0.3877 -0.6629
 6949SOL    HW327563   4.405   1.719   3.173 -1.7867  1.3037  1.7053
 6949SOL    MW427564   4.467   1.720   3.234 -0.5261  0.1652 -0.1628
 6950SOL     OW27565   1.290   1.520   1.279  0.1846  0.3575  0.3402
 6950SOL    HW227566   1.219   1.501   1.218  0.9876 -0.0420 -0.4992
 6950SOL    HW327567   1.353   1.570   1.227  1.2400 -0.6558  0.6048
 6950SOL    MW427568   1.289   1.524   1.264 -0.1145  0.0059  0.3573
 6951SOL     OW27569   4.059   1.527   2.157  0.1771  0.2301  0.8985
 6951SOL    HW227570   4.092   1.479   2.234 -0.5214 -0.7225  0.6189
 6951SOL    HW327571   4.008   1.598   2.194 -1.4798 -1.1389  1.3575
 6951SOL    MW427572   4.057   1.530   2.172  0.1035 -0.9389 -0.0661
 6952SOL     OW27573   4.594   5.655   4.201 -0.0135 -0.4452 -0.4910
 6952SOL    HW227574   4.631   5.722   4.144  0.0369  0.8979  1.0661
 6952SOL    HW327575   4.499   5.670   4.198  0.0728  0.4279  0.7088
 6952SOL    MW427576   4.586   5.666   4.193  0.0524 -0.6162  0.0956
 6953SOL     OW27577   1.479   2.539   3.179 -0.1980  0.1510 -0.6591
 6953SOL    HW227578   1.487   2.448   3.151  0.7682  0.0004  0.0552
 6953SOL    HW327579   1.554   2.583   3.138  0.2642  0.2757  0.3054
 6953SOL    MW427580   1.490   2.533   3.170  0.1911  0.1934 -0.2267
 6954SOL     OW27581   4.733  -0.016   4.547 -0.0700 -0.1063  0.1842
 6954SOL    HW227582   4.729   0.054   4.612 -1.0016  1.1934 -1.2028
 6954SOL    HW327583   4.707   0.026   4.465  0.4108 -1.8436 -0.9079
 6954SOL    MW427584   4.729  -0.001   4.545  0.3516 -0.9048  0.7146
 6955SOL     OW27585   0.582   2.571   4.366 -0.5666  0.3697 -0.5629
 6955SOL    HW227586   0.506   2.531   4.409 -0.4494 -0.0726 -0.7641
 6955SOL    HW327587   0.625   2.621   4.435  0.3264 -1.3337  0.1658
 6955SOL    MW427588   0.578   2.572   4.380  0.4875  0.1041  0.0903
 6956SOL     OW27589   1.075   3.101   0.591 -0.1088 -0.0656 -0.2734
 6956SOL    HW227590   1.154   3.142   0.627  0.7827 -0.2319 -1.9702
 6956SOL    HW327591   1.108   3.027   0.540 -1.3600 -0.1329 -1.0136
 6956SOL    MW427592   1.090   3.097   0.589 -0.2599 -0.1628 -0.2747
 6957SOL     OW27593   2.712   3.815   0.770 -0.1744 -0.3143 -0.2898
 6957SOL    HW227594   2.711   3.872   0.847 -0.7994  1.4330 -1.5326
 6957SOL    HW327595   2.637   3.758   0.782 -1.5687  1.3788 -0.5764
 6957SOL    MW427596   2.702   3.815   0.782  0.4064  0.3690 -0.2708
 6958SOL     OW27597   1.817   5.612   0.989 -0.3897  0.0663  0.2368
 6958SOL    HW227598   1.910   5.618   0.969 -0.4157  0.3109  0.1779
 6958SOL    HW327599   1.813   5.572   1.076 -0.2852 -1.3724 -0.3980
 6958SOL    MW427600   1.829   5.608   0.998 -0.7753  0.4348  0.5432
 6959SOL     OW27601   0.357   4.181   2.815 -0.4569 -0.2824  0.2161
 6959SOL    HW227602   0.262   4.187   2.826 -0.5091  3.4207 -0.9310
 6959SOL    HW327603   0.393   4.212   2.898 -0.2251 -1.1233  0.4406
 6959SOL    MW427604   0.349   4.186   2.828  0.2246 -0.0424 -0.2123
 6960SOL     OW27605   1.095   2.705   2.174 -0.1526  0.3193 -0.0134
 6960SOL    HW227606   1.103   2.611   2.155 -0.0822  0.4963 -0.9024
 6960SOL    HW327607   1.185   2.738   2.167 -0.1048  0.3621  0.8012
 6960SOL    MW427608   1.108   2.697   2.170  0.1400 -0.1318 -0.0626
 6961SOL     OW27609   4.244   0.967   5.160 -0.3111 -0.5746 -0.1975
 6961SOL    HW227610   4.231   1.053   5.120 -0.7799 -1.1211 -1.2492
 6961SOL    HW327611   4.269   0.910   5.087  1.1312 -1.1009  0.6642
 6961SOL    MW427612   4.246   0.971   5.145 -0.0487 -0.6575 -0.2968
 6962SOL     OW27613   5.349   5.595   3.573 -0.0064 -0.0294  0.7930
 6962SOL    HW227614   5.346   5.503   3.548  1.2333 -0.2114  1.2672
 6962SOL    HW327615   5.380   5.595   3.664  0.2757  0.8638  0.7123
 6962SOL    MW427616   5.353   5.583   3.582  0.0103 -0.3147  0.3176
 6963SOL     OW27617   2.726   3.942   0.131  0.7422  0.1241  0.2722
 6963SOL    HW227618   2.723   3.990   0.214 -0.6991  0.3429  0.1258
 6963SOL    HW327619   2.785   3.869   0.148 -1.0335 -0.9773  2.1648
 6963SOL    MW427620   2.733   3.939   0.144  0.1448 -0.3981  0.2182
 6964SOL     OW27621   1.968   2.120   5.923  0.3785 -0.4077  0.4305
 6964SOL    HW227622   1.924   2.135   5.839 -2.1723 -0.5347  1.6440
 6964SOL    HW327623   2.061   2.120   5.901 -0.0340  2.0134 -2.0153
 6964SOL    MW427624   1.974   2.122   5.909 -0.3433 -0.1509 -0.1449
 6965SOL     OW27625   6.328   5.992   2.650 -0.2621  0.6034 -0.0463
 6965SOL    HW227626   6.289   5.983   2.563 -1.1497 -0.5109  0.4384
 6965SOL    HW327627   6.418   6.020   2.634 -0.2121 -0.2544 -1.3617
 6965SOL    MW427628   6.335   5.994   2.637  0.1064 -0.8100 -0.0063
 6966SOL     OW27629   5.354   5.807   1.468  0.4563  0.1094  0.9397
 6966SOL    HW227630   5.390   5.765   1.389 -0.1744 -1.7821  1.6007
 6966SOL    HW327631   5.354   5.901   1.447  0.0928 -0.3426 -1.4044
 6966SOL    MW427632   5.359   5.814   1.455  0.0851  0.1891  0.3482
 6967SOL     OW27633   3.790   4.499   3.277  0.3065 -0.1737 -0.0907
 6967SOL    HW227634   3.756   4.423   3.323  0.5253  0.3339  0.9277
 6967SOL    HW327635   3.716   4.560   3.271  0.8126  0.6596  1.5496
 6967SOL    MW427636   3.776   4.497   3.282  0.4082  0.0419 -0.7127
 6968SOL     OW27637   5.295   5.095   0.845  1.2311 -0.1025  0.4769
 6968SOL    HW227638   5.277   5.165   0.907  3.1884  0.7534  0.1469
 6968SOL    HW327639   5.260   5.016   0.886  0.7642  0.7477  1.7553
 6968SOL    MW427640   5.288   5.094   0.858 -0.2190  0.6092 -0.0947
 6969SOL     OW27641   4.717   2.062   1.101  0.0374  0.3270 -0.5988
 6969SOL    HW227642   4.799   2.014   1.104  0.9916  1.5536 -3.6532
 6969SOL    HW327643   4.699   2.085   1.193  2.8591 -0.3166  0.2050
 6969SOL    MW427644   4.725   2.059   1.114  0.1748  0.5909 -0.0126
 6970SOL     OW27645   4.535  -0.006   5.571  0.1234  0.1760 -0.6539
 6970SOL    HW227646   4.502  -0.093   5.548  0.4487  0.0138 -0.5046
 6970SOL    HW327647   4.519   0.003   5.665  1.2648 -0.2431 -0.4053
 6970SOL    MW427648   4.528  -0.016   5.580 -0.2245 -0.1074  0.2263
 6971SOL     OW27649   1.675   3.783   6.167  0.6347  0.1988 -0.7216
 6971SOL    HW227650   1.664   3.836   6.088  0.3550  0.0146 -0.8062
 6971SOL    HW327651   1.635   3.699   6.145 -0.9284  0.6732  0.1727
 6971SOL    MW427652   1.668   3.779   6.153  0.0601 -0.0781  0.3656
 6972SOL     OW27653   0.387   1.481   6.042 -0.0894 -0.4003 -0.0072
 6972SOL    HW227654   0.470   1.464   6.088 -0.0046 -0.5529 -0.2168
 6972SOL    HW327655   0.338   1.536   6.103 -0.3941 -1.4337  0.7026
 6972SOL    MW427656   0.392   1.486   6.056  0.1252  1.1786 -0.5354
 6973SOL     OW27657   0.933   4.928   0.719 -0.3846  0.1906 -0.2529
 6973SOL    HW227658   0.872   4.892   0.784 -2.0755  1.7632 -0.8676
 6973SOL    HW327659   0.993   4.983   0.769 -0.1540 -0.4881  0.2316
 6973SOL    MW427660   0.933   4.931   0.734 -0.0746 -0.1983 -0.3117
 6974SOL     OW27661   1.060   2.362   2.432  0.3851  0.6310 -0.2736
 6974SOL    HW227662   1.110   2.443   2.440 -0.4798  1.1657 -0.1314
 6974SOL    HW327663   1.096   2.318   2.355  0.0256  1.7594 -1.0981
 6974SOL    MW427664   1.071   2.367   2.423  0.3742 -0.1682  0.2045
 6975SOL     OW27665   1.054   1.048   0.354  0.1883 -0.4626  0.3036
 6975SOL    HW227666   1.023   0.994   0.427 -2.3671  0.1786 -0.2071
 6975SOL    HW327667   1.020   1.136   0.372  0.3865 -0.0565 -1.1282
 6975SOL    MW427668   1.046   1.052   0.366  0.4923  0.4187 -0.0825
 6976SOL     OW27669   2.799   2.512   5.567 -0.3565  0.4411 -0.0920
 6976SOL    HW227670   2.715   2.517   5.612 -0.3109  0.2539  0.0128
 6976SOL    HW327671   2.782   2.549   5.480 -0.7351 -0.2944 -0.3407
 6976SOL    MW427672   2.786   2.518   5.561  0.1692 -0.4118 -0.0279
 6977SOL     OW27673   0.482   1.196   1.297 -0.0386 -0.2187  0.1220
 6977SOL    HW227674   0.499   1.104   1.314  1.2706  0.2585  1.6404
 6977SOL    HW327675   0.404   1.216   1.350  0.6718 -0.0825  1.1441
 6977SOL    MW427676   0.474   1.187   1.307  0.2856  0.0875 -0.3357
 6978SOL     OW27677   3.248   4.957   0.189  0.3176 -0.0834  0.6222
 6978SOL    HW227678   3.313   4.906   0.238  1.1691  0.6408  0.2815
 6978SOL    HW327679   3.241   5.040   0.237  0.9051  0.4963 -0.2665
 6978SOL    MW427680   3.256   4.961   0.202 -0.1407 -0.3671 -0.1026
 6979SOL     OW27681   4.756   0.310   2.826  0.0258 -0.1198  0.6260
 6979SOL    HW227682   4.720   0.234   2.872 -0.6184 -1.3087 -1.6991
 6979SOL    HW327683   4.682   0.372   2.822 -0.4372 -0.7173 -0.2679
 6979SOL    MW427684   4.741   0.308   2.832 -0.1240 -0.3438 -0.1453
 6980SOL     OW27685   0.032   1.798   5.684  0.1573 -0.2025  0.5674
 6980SOL    HW227686   0.028   1.739   5.608 -2.3797 -0.1646  0.6159
 6980SOL    HW327687  -0.058   1.825   5.699  1.0126  2.2435  1.7364
 6980SOL    MW427688   0.020   1.794   5.676  0.0859 -0.2492 -0.2046
 6981SOL     OW27689   3.745   1.827   1.001  0.1560  0.0498 -0.3099
 6981SOL    HW227690   3.654   1.798   0.991 -0.9854  2.5724  1.5520
 6981SOL    HW327691   3.754   1.898   0.937 -0.1318  1.5980  1.2909
 6981SOL    MW427692   3.734   1.833   0.991 -0.5218 -0.2629  0.1180
 6982SOL     OW27693   1.437   5.414   3.948  0.0284 -0.7324  0.7991
 6982SOL    HW227694   1.521   5.378   3.918 -0.5931 -0.3386 -1.5459
 6982SOL    HW327695   1.414   5.480   3.884 -1.8927 -0.5231  1.6358
 6982SOL    MW427696   1.445   5.418   3.936  0.2130  0.0935 -0.2869
 6983SOL     OW27697   0.122   0.397   2.752  0.0157 -0.2946 -0.3970
 6983SOL    HW227698   0.036   0.377   2.789  0.4327 -2.3890 -0.4493
 6983SOL    HW327699   0.184   0.366   2.817  0.7579  0.4507 -0.7292
 6983SOL    MW427700   0.119   0.390   2.765  0.1221 -0.0111  0.1835
 6984SOL     OW27701   3.101   3.915   4.140 -0.6318 -0.2412  0.1691
 6984SOL    HW227702   3.179   3.907   4.085 -1.8605 -1.6658 -1.4493
 6984SOL    HW327703   3.057   3.993   4.108  0.0549  0.5222  1.0351
 6984SOL    MW427704   3.106   3.924   4.129  0.2609 -0.0097 -0.4713
 6985SOL     OW27705   5.328   2.151   2.245  0.2653  0.1808 -0.3195
 6985SOL    HW227706   5.408   2.152   2.298 -0.8690 -0.1620  1.4608
 6985SOL    HW327707   5.257   2.146   2.309 -1.2029  0.6527 -1.8569
 6985SOL    MW427708   5.329   2.151   2.261  0.0016 -0.6842  0.2054
 6986SOL     OW27709   1.220   0.535   3.750  0.3796  0.3658 -0.2968
 6986SOL    HW227710   1.230   0.443   3.729  1.1920  0.6469 -1.1722
 6986SOL    HW327711   1.254   0.582   3.674 -3.4109  1.4311 -1.5902
 6986SOL    MW427712   1.225   0.529   3.737 -0.0721  0.3975  0.2257
 6987SOL     OW27713   5.878   2.209   0.208 -0.1316 -0.0066  0.2124
 6987SOL    HW227714   5.923   2.130   0.239 -0.9061  0.2772  2.1651
 6987SOL    HW327715   5.907   2.218   0.117 -0.9443 -3.2166 -0.5034
 6987SOL    MW427716   5.888   2.200   0.200  0.3895 -0.6438  0.2419
 6988SOL     OW27717   0.031   2.673   1.962 -0.2743 -0.6121 -0.2208
 6988SOL    HW227718   0.090   2.626   1.903  0.1229  0.3709 -0.6277
 6988SOL    HW327719   0.033   2.622   2.043 -0.1372 -1.4904 -0.7650
 6988SOL    MW427720   0.039   2.660   1.965  0.0556  0.6036  0.2536
 6989SOL     OW27721   5.476   3.918   4.911 -0.6117 -1.0129 -0.0673
 6989SOL    HW227722   5.469   3.824   4.895  0.6352 -1.1173 -0.0890
 6989SOL    HW327723   5.556   3.927   4.964 -1.5294 -0.1185  1.2220
 6989SOL    MW427724   5.486   3.907   4.916  0.4665 -0.5076 -0.1142
 6990SOL     OW27725   3.266   4.746   1.226 -0.1582 -0.8428 -0.1161
 6990SOL    HW227726   3.206   4.681   1.188  0.3390 -0.6231 -1.3373
 6990SOL    HW327727   3.268   4.817   1.161 -0.9156  0.5515  1.3285
 6990SOL    MW427728   3.258   4.747   1.212 -0.8422 -0.1667 -0.5518
 6991SOL     OW27729   2.001   1.752   0.513 -0.0927  1.1987 -0.2448
 6991SOL    HW227730   1.912   1.754   0.478  0.1858 -0.5067 -1.1263
 6991SOL    HW327731   2.054   1.798   0.447  0.0697 -0.0633 -1.0275
 6991SOL    MW427732   1.996   1.759   0.499  0.1241  1.0109 -0.2867
 6992SOL     OW27733   1.625   3.637   2.177 -0.1867  0.8319 -0.2764
 6992SOL    HW227734   1.550   3.596   2.219 -0.5682  0.8364 -0.9263
 6992SOL    HW327735   1.662   3.695   2.243  0.1132 -0.2402  0.5254
 6992SOL    MW427736   1.620   3.639   2.191  0.3389 -0.3675  0.1155
 6993SOL     OW27737   3.683   1.428   5.844 -0.6010 -0.1553  0.3885
 6993SOL    HW227738   3.743   1.367   5.888  0.0097  0.1669  0.0198
 6993SOL    HW327739   3.651   1.380   5.768 -3.1235 -1.4194  2.1045
 6993SOL    MW427740   3.687   1.414   5.840  0.1221  0.2914 -0.4964
 6994SOL     OW27741   4.806   0.139   3.696 -0.1112  0.4312 -0.0314
 6994SOL    HW227742   4.876   0.193   3.658 -0.2377  1.0812  0.6248
 6994SOL    HW327743   4.847   0.054   3.712  0.4929  0.7623  0.2184
 6994SOL    MW427744   4.820   0.135   3.693  0.0321  0.0377  0.3231
 6995SOL     OW27745   5.307   5.892   4.672 -0.3709  0.0288 -0.3313
 6995SOL    HW227746   5.305   5.984   4.649 -0.7967  0.5196  1.5090
 6995SOL    HW327747   5.215   5.869   4.687 -0.0932  0.0785  1.8628
 6995SOL    MW427748   5.294   5.901   4.671  0.1657  0.0067  0.3358
 6996SOL     OW27749   5.133   5.466   5.248  0.1003  0.3543 -0.3011
 6996SOL    HW227750   5.067   5.407   5.212 -0.0197 -0.5379  1.3033
 6996SOL    HW327751   5.117   5.466   5.342  1.3191  1.4665 -0.0594
 6996SOL    MW427752   5.122   5.458   5.256  0.2625 -0.4243 -0.1894
 6997SOL     OW27753   1.756   5.910   2.903  0.3262 -0.1542 -0.3565
 6997SOL    HW227754   1.674   5.889   2.859 -0.3706  1.6077  0.0098
 6997SOL    HW327755   1.802   5.826   2.911 -1.7340 -1.2916  0.0415
 6997SOL    MW427756   1.752   5.896   2.898  0.0251  0.0543 -0.8424
 6998SOL     OW27757   5.405   0.861   4.047 -0.6463 -0.4230  0.2669
 6998SOL    HW227758   5.405   0.785   4.105  0.3044 -0.0870  0.7356
 6998SOL    HW327759   5.417   0.825   3.959 -0.3158 -0.8287  0.4777
 6998SOL    MW427760   5.407   0.847   4.043  0.1133 -0.2028 -0.8965
 6999SOL     OW27761   1.757   5.807   2.193 -0.7397  0.1699 -0.8136
 6999SOL    HW227762   1.672   5.764   2.208 -1.5141  0.7047 -3.2217
 6999SOL    HW327763   1.735   5.900   2.187  0.1716  0.4004 -0.6748
 6999SOL    MW427764   1.743   5.814   2.194  0.1243  0.1932  0.5439
 7000SOL     OW27765   1.301   6.010   1.027 -0.0301 -0.1227  0.2410
 7000SOL    HW227766   1.214   5.975   1.044 -1.2962  2.3513 -0.6903
 7000SOL    HW327767   1.321   6.064   1.104 -0.1829  0.8815 -0.4203
 7000SOL    MW427768   1.292   6.012   1.040  0.5966  0.2770 -0.0400
 7001SOL     OW27769   4.220   5.390   3.549  0.6028 -0.0691  0.3265
 7001SOL    HW227770   4.250   5.480   3.536 -1.8134  0.5596 -1.6093
 7001SOL    HW327771   4.259   5.364   3.632  2.1121  2.4360  0.5100
 7001SOL    MW427772   4.229   5.399   3.558 -0.0851  0.1788  0.5209
 7002SOL     OW27773   5.379   2.497   5.821 -0.2211 -0.0440 -0.4263
 7002SOL    HW227774   5.472   2.504   5.802 -0.4795  0.9014 -1.4235
 7002SOL    HW327775   5.373   2.512   5.915  0.3964  2.6908 -0.7493
 7002SOL    MW427776   5.390   2.499   5.831 -0.5431  0.1049 -0.2404
 7003SOL     OW27777   5.577   2.661   3.605  0.6889  0.1178 -0.4378
 7003SOL    HW227778   5.642   2.706   3.553 -1.1076  1.0223 -2.0290
 7003SOL    HW327779   5.613   2.573   3.618  1.8401  0.3174 -1.9779
 7003SOL    MW427780   5.590   2.655   3.600 -0.0311  0.5496 -0.5457
 7004SOL     OW27781   2.928   5.109   1.751  0.2530 -0.2716  0.6984
 7004SOL    HW227782   2.991   5.067   1.693  1.0240 -0.8827  1.9375
 7004SOL    HW327783   2.977   5.129   1.830  0.3028  4.1456 -0.1828
 7004SOL    MW427784   2.943   5.106   1.754  0.2920  0.2780  0.1462
 7005SOL     OW27785   4.316   3.639   2.738  0.0942 -0.1268  0.5001
 7005SOL    HW227786   4.301   3.548   2.762  0.7536  0.0740  1.7824
 7005SOL    HW327787   4.271   3.650   2.654 -0.4705 -1.4711  0.6044
 7005SOL    MW427788   4.308   3.629   2.730 -0.2546  0.2220  0.1350
 7006SOL     OW27789   1.558   5.960   5.981  0.0344  0.1897 -0.1216
 7006SOL    HW227790   1.595   6.002   6.059 -0.0128  0.2672 -0.1405
 7006SOL    HW327791   1.468   5.939   6.005 -0.1028  0.5687 -0.2860
 7006SOL    MW427792   1.551   5.963   5.994  0.3512 -0.1647  0.2957
 7007SOL     OW27793   1.316   1.257   0.089 -0.0997  0.1590 -0.2000
 7007SOL    HW227794   1.348   1.231   0.002  0.4058  3.5856 -1.1916
 7007SOL    HW327795   1.392   1.294   0.133 -0.9563  1.0250  0.6035
 7007SOL    MW427796   1.330   1.258   0.083 -0.0436  0.8640 -0.4930
 7008SOL     OW27797   0.807   3.945   1.333 -0.1628  0.1187 -0.8059
 7008SOL    HW227798   0.807   4.003   1.409  0.2320  0.5237 -1.1064
 7008SOL    HW327799   0.730   3.890   1.344 -0.5002  0.6542 -0.4782
 7008SOL    MW427800   0.797   3.945   1.345 -0.2623  0.0964 -0.2856
 7009SOL     OW27801   3.165   2.863   2.100 -0.1591  0.0337 -0.0569
 7009SOL    HW227802   3.241   2.857   2.158 -0.6902  0.6582  0.7284
 7009SOL    HW327803   3.108   2.791   2.128  0.1871 -0.4987 -0.7154
 7009SOL    MW427804   3.167   2.853   2.112  0.2047 -0.0519 -0.0902
 7010SOL     OW27805   3.761   4.533   6.391 -0.3320 -0.0283  0.2474
 7010SOL    HW227806   3.820   4.587   6.444 -0.6476 -1.4082  2.1030
 7010SOL    HW327807   3.725   4.469   6.452 -1.8222 -0.8342 -1.3677
 7010SOL    MW427808   3.764   4.532   6.406  0.2586  0.4963  0.5034
 7011SOL     OW27809   5.746   0.077   1.154 -0.7743  0.1236  0.3647
 7011SOL    HW227810   5.749   0.038   1.067 -0.0801 -0.5278  0.6779
 7011SOL    HW327811   5.673   0.033   1.198 -1.8244  1.2035 -0.2220
 7011SOL    MW427812   5.737   0.066   1.148 -0.5254 -0.4877  0.6434
 7012SOL     OW27813   3.775   6.035   5.330  0.6731 -0.0049 -0.6395
 7012SOL    HW227814   3.761   6.003   5.419 -1.8206 -0.8762 -1.2531
 7012SOL    HW327815   3.806   5.959   5.281  1.7333  0.3919 -0.5998
 7012SOL    MW427816   3.777   6.021   5.335 -0.1159 -0.4354 -0.2985
 7013SOL     OW27817   3.571   4.878   3.702 -0.2361  0.5308  0.2971
 7013SOL    HW227818   3.593   4.947   3.764  0.7592  0.4310  0.0648
 7013SOL    HW327819   3.564   4.923   3.618  1.8025  0.1695 -0.1069
 7013SOL    MW427820   3.573   4.893   3.699 -0.1401  0.1474 -0.4544
 7014SOL     OW27821   4.154   4.939   3.135  0.0694 -0.5148  0.1979
 7014SOL    HW227822   4.085   4.874   3.117 -0.7563  0.4881 -0.3390
 7014SOL    HW327823   4.230   4.906   3.087 -0.3536 -1.0555 -0.1208
 7014SOL    MW427824   4.155   4.926   3.126 -0.2231 -0.0850 -0.0449
 7015SOL     OW27825   0.919   0.387   0.849  0.5439 -0.0924  0.1839
 7015SOL    HW227826   0.850   0.410   0.786 -0.1039 -1.0318  0.5374
 7015SOL    HW327827   0.912   0.453   0.917 -0.9946 -0.9930  0.9539
 7015SOL    MW427828   0.909   0.399   0.849  0.5642 -0.0851  0.3318
 7016SOL     OW27829   3.964   3.462   1.870  0.2609  0.0785  0.6263
 7016SOL    HW227830   3.935   3.375   1.896  0.8167 -0.2912  0.0332
 7016SOL    HW327831   4.057   3.464   1.891  0.4121  0.2654 -0.0387
 7016SOL    MW427832   3.972   3.451   1.877  0.4208 -0.1481 -0.4147
 7017SOL     OW27833   1.630   1.831   1.801 -0.0839  0.8402  0.1912
 7017SOL    HW227834   1.713   1.783   1.801  0.2976  1.4939  0.0422
 7017SOL    HW327835   1.639   1.896   1.731 -0.5779  1.1622  0.4199
 7017SOL    MW427836   1.642   1.833   1.792  0.1157 -0.4604 -1.1685
 7018SOL     OW27837   1.621   4.782   2.327  0.1091 -0.0976  0.5446
 7018SOL    HW227838   1.618   4.774   2.422  2.5220 -2.2801  0.5551
 7018SOL    HW327839   1.634   4.875   2.310 -0.6304  0.3576  2.2988
 7018SOL    MW427840   1.622   4.793   2.337  0.0443  0.5052  0.4634
 7019SOL     OW27841   1.711   2.466   2.582  0.1329  0.2284  0.5564
 7019SOL    HW227842   1.686   2.479   2.673 -0.0321  0.7142  0.4436
 7019SOL    HW327843   1.635   2.424   2.541 -0.3919  1.4089  0.2894
 7019SOL    MW427844   1.698   2.462   2.588 -0.1491  0.1827 -0.0185
 7020SOL     OW27845   0.396   0.229   5.391 -0.2882  0.2240 -0.0528
 7020SOL    HW227846   0.337   0.302   5.408 -0.1668  0.5765 -1.1030
 7020SOL    HW327847   0.344   0.167   5.339  0.0188  0.1620 -0.2867
 7020SOL    MW427848   0.381   0.230   5.387  0.0610 -0.3080 -0.2488
 7021SOL     OW27849   5.542   0.146   4.705  0.0052  0.1309  0.1961
 7021SOL    HW227850   5.478   0.210   4.674  1.1222  1.3855  0.4055
 7021SOL    HW327851   5.563   0.095   4.627  0.1354  0.9412 -0.3172
 7021SOL    MW427852   5.536   0.148   4.690  0.3837 -0.1819  0.2144
 7022SOL     OW27853   2.618   1.388   1.314 -0.3631  0.5127  0.1957
 7022SOL    HW227854   2.564   1.315   1.286  0.9321 -0.0865 -0.8526
 7022SOL    HW327855   2.556   1.454   1.346 -1.5910 -0.7304  0.4487
 7022SOL    MW427856   2.603   1.387   1.315 -0.1599  0.6016 -0.3555
 7023SOL     OW27857   5.318   3.278   1.197  0.2923 -0.2761 -0.2649
 7023SOL    HW227858   5.378   3.292   1.125 -0.7715 -0.7257 -1.2694
 7023SOL    HW327859   5.320   3.361   1.246  0.2777  0.4177 -1.3977
 7023SOL    MW427860   5.326   3.291   1.194 -0.3456 -0.2489  0.1221
 7024SOL     OW27861   3.483   5.243   6.326 -0.0364 -0.7345  0.2749
 7024SOL    HW227862   3.489   5.310   6.393  0.1275  2.4175 -2.6340
 7024SOL    HW327863   3.392   5.245   6.298 -0.2183 -2.3537  0.6420
 7024SOL    MW427864   3.472   5.252   6.331 -0.8329 -0.6460  0.0113
 7025SOL     OW27865   6.167   5.042   3.555  0.4747  0.3699 -0.0511
 7025SOL    HW227866   6.187   5.065   3.464 -2.2111 -1.1423 -1.1529
 7025SOL    HW327867   6.236   4.981   3.580  1.3533  0.9337 -1.0242
 7025SOL    MW427868   6.179   5.037   3.546  0.0004  1.0291  0.1252
 7026SOL     OW27869   0.855   0.606   1.024 -0.0619 -0.1432 -0.0338
 7026SOL    HW227870   0.801   0.667   0.973  1.5542  0.3780 -1.2128
 7026SOL    HW327871   0.926   0.660   1.059  0.5291 -1.0586  0.2052
 7026SOL    MW427872   0.857   0.621   1.022 -0.3196  0.0706 -0.1071
 7027SOL     OW27873   2.121   5.285   5.706 -0.0652 -0.4002  0.4387
 7027SOL    HW227874   2.054   5.309   5.642  0.7412 -2.7469 -1.4435
 7027SOL    HW327875   2.074   5.276   5.789 -1.5013  0.8507 -0.1979
 7027SOL    MW427876   2.106   5.287   5.709  0.1301  0.4495  0.4225
 7028SOL     OW27877   1.466   0.453   0.201 -0.1524 -0.4681 -0.1234
 7028SOL    HW227878   1.418   0.457   0.118  0.8863 -0.3802 -0.7317
 7028SOL    HW327879   1.434   0.528   0.251 -1.2127 -0.8492 -0.1931
 7028SOL    MW427880   1.456   0.463   0.196  0.1499  0.5694 -0.1800
 7029SOL     OW27881   0.722   3.597   2.881 -0.2125 -0.0639  0.2346
 7029SOL    HW227882   0.638   3.584   2.924  0.8440  0.0311  2.4894
 7029SOL    HW327883   0.782   3.618   2.953  1.6741  0.1481 -1.3333
 7029SOL    MW427884   0.719   3.598   2.896 -0.2040 -0.1551  0.5948
 7030SOL     OW27885   1.829   5.947   4.845 -0.1557 -0.6980  0.5336
 7030SOL    HW227886   1.855   6.039   4.845  2.1637 -1.2705  0.1812
 7030SOL    HW327887   1.759   5.941   4.780 -0.7839  0.8999  1.0309
 7030SOL    MW427888   1.823   5.958   4.836  0.6160  0.7054 -0.3754
 7031SOL     OW27889   2.249   5.350   0.165  0.4732  0.8168 -0.4262
 7031SOL    HW227890   2.330   5.308   0.193  1.2745  1.4204 -1.7642
 7031SOL    HW327891   2.240   5.426   0.223  1.2138  1.1095 -0.6848
 7031SOL    MW427892   2.258   5.355   0.176 -0.5049 -0.1776  0.6532
 7032SOL     OW27893   1.198   0.036   6.000 -0.3288 -0.3245 -0.5285
 7032SOL    HW227894   1.272   0.029   5.939 -1.3752  0.9127 -2.0016
 7032SOL    HW327895   1.131  -0.022   5.964 -0.3309 -0.9773  0.4711
 7032SOL    MW427896   1.199   0.027   5.987  0.3791 -0.3181  0.1937
 7033SOL     OW27897   0.093   4.649   4.698 -0.2835  0.4870 -0.2898
 7033SOL    HW227898   0.051   4.735   4.704  2.2093  1.7359  1.7317
 7033SOL    HW327899   0.059   4.600   4.773 -0.1744  0.4879 -0.2388
 7033SOL    MW427900   0.083   4.654   4.709  0.1362 -0.2647 -0.3472
 7034SOL     OW27901   4.578   0.356   6.348 -0.6532 -0.1976 -0.0063
 7034SOL    HW227902   4.623   0.283   6.305  0.5640  0.8423 -0.5891
 7034SOL    HW327903   4.618   0.361   6.435 -0.2636  0.1793 -0.2052
 7034SOL    MW427904   4.589   0.347   6.354 -0.5435 -0.0386 -0.5616
 7035SOL     OW27905   0.808   2.675   1.506  0.0780 -0.5968  0.7483
 7035SOL    HW227906   0.883   2.732   1.489  0.0418 -1.3553 -2.7342
 7035SOL    HW327907   0.746   2.730   1.554  0.9111  1.6174 -0.5802
 7035SOL    MW427908   0.810   2.689   1.510 -0.6688 -0.6250 -0.1774
 7036SOL     OW27909   3.933   5.751   4.610 -0.6165  0.3110  0.3087
 7036SOL    HW227910   4.021   5.729   4.642  0.0397  0.8994 -1.0209
 7036SOL    HW327911   3.883   5.670   4.624  0.7562 -0.8397 -1.0473
 7036SOL    MW427912   3.938   5.737   4.616  0.1303 -0.1136  0.3705
 7037SOL     OW27913   2.422   0.937   3.557  0.3878  0.3617 -0.1103
 7037SOL    HW227914   2.462   0.941   3.471 -1.4260  1.4705 -0.9480
 7037SOL    HW327915   2.370   0.856   3.556  0.7785  0.1032  0.1484
 7037SOL    MW427916   2.420   0.927   3.546 -0.0186 -0.5853  0.6003
 7038SOL     OW27917   5.458   1.255   4.565  0.0844  0.7415  0.3774
 7038SOL    HW227918   5.423   1.338   4.531  1.3407  1.4593  0.8087
 7038SOL    HW327919   5.401   1.234   4.639 -1.2651  0.3347 -0.7089
 7038SOL    MW427920   5.446   1.263   4.570 -0.0140  0.1536  0.0363
 7039SOL     OW27921   6.267   3.308   1.318 -0.2172  0.2050 -0.2972
 7039SOL    HW227922   6.214   3.372   1.365  0.2283 -0.4885  1.2180
 7039SOL    HW327923   6.208   3.270   1.253 -0.3584  2.4652 -1.6141
 7039SOL    MW427924   6.252   3.312   1.315 -0.2995 -0.1233  0.3723
 7040SOL     OW27925   0.619  -0.023   5.866  0.0887 -0.2621 -0.2174
 7040SOL    HW227926   0.553  -0.025   5.796 -1.5657 -1.8221  1.2834
 7040SOL    HW327927   0.589   0.048   5.923  0.3342 -0.2561 -0.0983
 7040SOL    MW427928   0.606  -0.014   5.864  0.6621  0.1352  0.0765
 7041SOL     OW27929   3.097   4.955   1.559  0.3255 -0.1226 -0.0087
 7041SOL    HW227930   3.018   4.911   1.526  0.3447 -0.2286  0.0831
 7041SOL    HW327931   3.132   5.002   1.484 -0.0403  0.2411  0.0472
 7041SOL    MW427932   3.091   4.955   1.545 -0.1612  0.2403  0.0298
 7042SOL     OW27933   4.640   4.102   4.612  0.4673  0.7720 -0.6153
 7042SOL    HW227934   4.579   4.037   4.577  1.1523  1.4318 -3.3257
 7042SOL    HW327935   4.650   4.079   4.704 -2.5545 -0.3580 -0.4519
 7042SOL    MW427936   4.633   4.090   4.619  0.5158 -0.2277  0.1483
 7043SOL     OW27937   1.524   4.352   1.847  0.6722  0.1228  0.6672
 7043SOL    HW227938   1.490   4.403   1.774 -0.3327  1.2427  1.8458
 7043SOL    HW327939   1.555   4.418   1.909  2.5671 -0.8274  0.7868
 7043SOL    MW427940   1.523   4.367   1.846  0.5101  0.4083 -0.2943
 7044SOL     OW27941   4.408   5.995   0.970 -0.0345  0.0274 -0.3123
 7044SOL    HW227942   4.423   6.079   1.012 -0.3170 -0.0834  0.0186
 7044SOL    HW327943   4.315   5.996   0.947  0.3907  0.6193 -2.1300
 7044SOL    MW427944   4.397   6.006   0.973  0.1875  0.0219 -0.2626
 7045SOL     OW27945   1.847   1.556   4.283  0.0260  0.2633  0.0383
 7045SOL    HW227946   1.757   1.552   4.313  0.5272 -1.4169  1.5217
 7045SOL    HW327947   1.883   1.634   4.325 -0.8850  1.3918 -1.1820
 7045SOL    MW427948   1.840   1.566   4.292 -0.1089  0.1725  0.5874
 7046SOL     OW27949   6.139   2.274   1.400  0.5964 -0.1711  0.3851
 7046SOL    HW227950   6.051   2.306   1.382  0.8444  0.4084  0.1733
 7046SOL    HW327951   6.137   2.181   1.375 -0.0556 -0.2593  0.7494
 7046SOL    MW427952   6.127   2.266   1.394 -0.7699  0.4563 -0.3075
 7047SOL     OW27953   3.508   6.068   5.989  0.4340 -0.2661 -0.1169
 7047SOL    HW227954   3.554   5.985   5.973  0.4279 -1.0962  3.4201
 7047SOL    HW327955   3.544   6.100   6.072 -0.6679  2.5402 -0.6044
 7047SOL    MW427956   3.519   6.061   5.998 -0.5067  0.5737  1.2339
 7048SOL     OW27957   0.369   2.415   5.311 -0.1383  0.1412  0.3037
 7048SOL    HW227958   0.411   2.344   5.262  0.3324  0.4359  0.2780
 7048SOL    HW327959   0.331   2.472   5.244 -0.7855 -0.2393  0.3315
 7048SOL    MW427960   0.369   2.413   5.296  0.4185 -0.2004 -0.7175
 7049SOL     OW27961   3.553   2.955   1.814 -0.4738  0.1385 -0.1201
 7049SOL    HW227962   3.512   3.020   1.871  1.1515  0.2006  1.0370
 7049SOL    HW327963   3.620   3.005   1.767  0.8046 -0.6690  0.7975
 7049SOL    MW427964   3.556   2.971   1.815  0.4191  0.5508  0.5482
 7050SOL     OW27965   0.898   3.434   5.662  0.5858  0.0104 -0.4730
 7050SOL    HW227966   0.806   3.443   5.638  0.4702  0.2216  0.0606
 7050SOL    HW327967   0.934   3.522   5.653  0.6700 -0.0165 -0.4020
 7050SOL    MW427968   0.891   3.446   5.657  0.2654  0.2888  0.6252
 7051SOL     OW27969   4.139   6.355   2.787  0.1017  0.3684  0.0614
 7051SOL    HW227970   4.094   6.362   2.872 -2.3285  0.0054 -1.1004
 7051SOL    HW327971   4.207   6.423   2.790  1.5842 -1.0716  3.0913
 7051SOL    MW427972   4.142   6.365   2.799 -0.5356  0.1446 -0.3950
 7052SOL     OW27973   2.389   3.428   3.165  0.2590 -0.9106 -0.2958
 7052SOL    HW227974   2.347   3.493   3.221  2.4112 -0.5091  0.9629
 7052SOL    HW327975   2.480   3.455   3.160  0.7450 -2.5900 -1.6229
 7052SOL    MW427976   2.395   3.440   3.172  0.2195  0.6418  0.4040
 7053SOL     OW27977   1.706   6.098   2.182 -0.0682  0.5505 -0.2180
 7053SOL    HW227978   1.678   6.180   2.139  1.1304  1.7214  1.1294
 7053SOL    HW327979   1.639   6.082   2.248 -0.1357  0.6073 -0.2714
 7053SOL    MW427980   1.693   6.107   2.185  0.1197  0.5074  0.3597
 7054SOL     OW27981   3.865   1.868   4.927 -0.2842  0.5126 -0.1479
 7054SOL    HW227982   3.853   1.952   4.884 -0.2407  1.1644  1.0498
 7054SOL    HW327983   3.956   1.870   4.959 -0.9405  1.0169  1.8599
 7054SOL    MW427984   3.876   1.879   4.926 -0.1681 -0.2770  0.0582
 7055SOL     OW27985   0.650   3.664   1.814 -0.2027 -0.5807  0.0463
 7055SOL    HW227986   0.723   3.615   1.852 -1.3253 -1.5049  1.1128
 7055SOL    HW327987   0.573   3.609   1.832 -1.5888  1.7229  1.6457
 7055SOL    MW427988   0.650   3.650   1.821 -0.7345 -0.6459  0.8668
 7056SOL     OW27989   0.140   0.261   1.723  0.4086 -0.2914 -0.4586
 7056SOL    HW227990   0.076   0.201   1.760  0.5059 -1.0808 -1.4902
 7056SOL    HW327991   0.110   0.275   1.633  0.3698  1.2578 -0.2253
 7056SOL    MW427992   0.128   0.255   1.716 -0.0049  0.4956  0.8740
 7057SOL     OW27993   1.087   0.429   6.178 -0.9825 -0.1891 -0.0691
 7057SOL    HW227994   1.152   0.366   6.209 -0.9638  0.0165  0.3193
 7057SOL    HW327995   1.084   0.417   6.083 -0.0971  0.0733 -0.1348
 7057SOL    MW427996   1.095   0.419   6.170 -0.4532 -0.2129 -0.3928
 7058SOL     OW27997   0.478   4.370   1.594 -0.2377 -0.7351  0.1442
 7058SOL    HW227998   0.517   4.284   1.613 -0.1936 -0.7157  0.1426
 7058SOL    HW327999   0.497   4.423   1.672 -0.1958 -0.7035  0.1130
 7058SOL    MW428000   0.486   4.366   1.607 -0.1123 -0.6248 -0.4990
 7059SOL     OW28001   2.612   6.350   1.093 -0.2348  0.2986 -0.0928
 7059SOL    HW228002   2.621   6.342   1.188  0.1015 -1.8190 -0.2528
 7059SOL    HW328003   2.617   6.444   1.076  0.6840  0.6539  1.8814
 7059SOL    MW428004   2.614   6.361   1.104 -0.3323 -0.6917 -0.6312
 7060SOL     OW28005   5.732   5.177   3.947  0.3524 -0.2017 -0.0711
 7060SOL    HW228006   5.717   5.192   3.854  0.0385  0.4103  0.0707
 7060SOL    HW328007   5.746   5.264   3.983  0.3827 -0.4279  0.4723
 7060SOL    MW428008   5.732   5.190   3.939 -0.0547  0.3661  0.4075
 7061SOL     OW28009   5.042   6.035   1.246 -0.0187  0.0404  0.3965
 7061SOL    HW228010   5.040   6.055   1.152 -1.1218  0.1589  0.4256
 7061SOL    HW328011   5.028   5.941   1.251 -2.1488  0.3032  0.4775
 7061SOL    MW428012   5.040   6.025   1.234 -0.0001 -0.0649  0.0773
 7062SOL     OW28013   1.001   0.114   1.131  0.5498 -0.2227 -0.1720
 7062SOL    HW228014   0.911   0.147   1.126  0.9531  0.9253 -0.3092
 7062SOL    HW328015   1.053   0.191   1.156  1.1375 -1.4684  2.8614
 7062SOL    MW428016   0.996   0.129   1.134  0.1666 -0.4915 -0.4165
 7063SOL     OW28017   3.656   5.042   4.318  0.1154 -0.4107  0.1018
 7063SOL    HW228018   3.670   4.960   4.365  0.2519  0.3438  1.4093
 7063SOL    HW328019   3.745   5.073   4.297  0.2676  1.0379  2.5520
 7063SOL    MW428020   3.670   5.036   4.321  0.0662 -0.3142 -0.2879
 7064SOL     OW28021   2.131   3.203   0.548  0.8621  0.0469  0.5555
 7064SOL    HW228022   2.151   3.122   0.597  1.4852 -0.4039 -0.4172
 7064SOL    HW328023   2.096   3.262   0.615 -2.2779 -1.9112  0.8618
 7064SOL    MW428024   2.129   3.200   0.564  0.1808 -0.0610  0.2616
 7065SOL     OW28025   2.041   0.440   5.363 -0.4339  0.2252 -0.2322
 7065SOL    HW228026   2.011   0.382   5.433 -1.4628  0.1801 -0.6853
 7065SOL    HW328027   2.126   0.404   5.337 -0.0592  0.2225  0.9458
 7065SOL    MW428028   2.048   0.427   5.369  0.1397 -0.0785 -0.4351
 7066SOL     OW28029   4.075   0.704   1.550  0.2380 -0.4273 -0.7276
 7066SOL    HW228030   3.998   0.721   1.497  0.5334  3.6359 -0.2220
 7066SOL    HW328031   4.147   0.744   1.502  0.9333  1.1248  1.4279
 7066SOL    MW428032   4.074   0.711   1.537 -0.5662  0.8181 -0.1071
 7067SOL     OW28033   0.990   0.612   4.637  0.3046  0.1781 -0.1002
 7067SOL    HW228034   1.057   0.544   4.641  0.7929  0.3085 -3.6028
 7067SOL    HW328035   1.026   0.679   4.580 -0.4509  3.2198  2.6701
 7067SOL    MW428036   1.003   0.612   4.630 -0.7179 -0.9356 -0.2366
 7068SOL     OW28037   3.600   2.339   0.620 -0.3878 -0.1489  0.3540
 7068SOL    HW228038   3.522   2.382   0.653 -1.0184 -2.2731  1.8195
 7068SOL    HW328039   3.671   2.374   0.674 -0.9183 -1.0233  1.6726
 7068SOL    MW428040   3.599   2.349   0.631 -0.1272  0.3431 -0.0373
 7069SOL     OW28041   3.530   3.465   0.167  0.2456  0.6478  0.3015
 7069SOL    HW228042   3.459   3.401   0.161  0.7200  0.1560 -0.0754
 7069SOL    HW328043   3.521   3.502   0.255  0.4810 -0.5303  0.8418
 7069SOL    MW428044   3.519   3.462   0.178  0.2934  0.2302  0.2437
 7070SOL     OW28045   3.501   1.922   1.417 -0.3739 -0.4214  0.0341
 7070SOL    HW228046   3.574   1.871   1.452  0.6093  1.9841  1.8021
 7070SOL    HW328047   3.423   1.871   1.438  0.6830 -2.6216 -1.1009
 7070SOL    MW428048   3.500   1.909   1.424 -0.4264  0.5868 -0.1867
 7071SOL     OW28049   5.041   1.501   4.795 -0.6669 -0.0357 -0.5705
 7071SOL    HW228050   5.130   1.478   4.824  0.4731  2.5221 -1.6845
 7071SOL    HW328051   5.054   1.575   4.735 -3.6488  1.0652 -0.0303
 7071SOL    MW428052   5.055   1.508   4.791 -0.3802  0.3656 -0.3484
 7072SOL     OW28053   2.289   1.203   4.630 -0.1652  0.0439 -0.3084
 7072SOL    HW228054   2.368   1.213   4.684 -0.4603 -0.2160  0.1693
 7072SOL    HW328055   2.250   1.290   4.630 -0.0039  0.1181 -0.3552
 7072SOL    MW428056   2.295   1.216   4.637  0.2091  0.8240  0.6271
 7073SOL     OW28057   3.378   4.698   2.372 -0.0133 -0.1513  0.2522
 7073SOL    HW228058   3.415   4.658   2.451  1.1845 -2.0913 -1.1960
 7073SOL    HW328059   3.449   4.752   2.338  0.3848 -1.2663 -0.7634
 7073SOL    MW428060   3.392   4.700   2.378  0.3000 -0.2826  0.4521
 7074SOL     OW28061   6.381   0.579   5.247 -0.2597  0.0852 -0.0209
 7074SOL    HW228062   6.368   0.531   5.166 -0.8063  1.1779 -0.6023
 7074SOL    HW328063   6.451   0.532   5.292 -0.9544 -1.4094 -0.4302
 7074SOL    MW428064   6.388   0.566   5.243  0.0131  0.2773  0.0335
 7075SOL     OW28065   0.213   4.118   4.677  0.3806 -0.0968 -0.4932
 7075SOL    HW228066   0.145   4.119   4.610  0.1739  0.4278 -0.2800
 7075SOL    HW328067   0.257   4.202   4.667  1.7001 -0.8497 -1.3279
 7075SOL    MW428068   0.210   4.129   4.667  0.3237 -0.1679  0.0198
 7076SOL     OW28069   5.616   4.460   2.718  0.5894  0.1151 -0.2582
 7076SOL    HW228070   5.613   4.531   2.654  0.3286 -0.7296 -1.1956
 7076SOL    HW328071   5.546   4.482   2.781 -1.3338 -0.6651 -2.0148
 7076SOL    MW428072   5.606   4.472   2.718  0.0650 -0.1101  0.8395
 7077SOL     OW28073   1.796   3.654   6.387  0.0829  0.5051 -0.2094
 7077SOL    HW228074   1.763   3.681   6.301 -0.5572  1.4442  0.3134
 7077SOL    HW328075   1.759   3.717   6.448 -1.4276 -1.5034  1.0879
 7077SOL    MW428076   1.787   3.666   6.384 -0.3174 -1.0043  0.3977
 7078SOL     OW28077   1.009   3.312   4.415 -0.0043 -0.3262 -0.4062
 7078SOL    HW228078   1.080   3.270   4.462  0.1713 -0.0937 -0.4616
 7078SOL    HW328079   0.983   3.385   4.472  2.1218  1.7692 -1.9013
 7078SOL    MW428080   1.015   3.316   4.429  0.3968  0.2976 -0.3185
 7079SOL     OW28081   3.550   6.210   1.043  0.0942  0.1302 -0.0064
 7079SOL    HW228082   3.574   6.141   0.982  0.4320 -0.4384  0.7605
 7079SOL    HW328083   3.591   6.186   1.126  1.2343  1.8604 -0.0024
 7079SOL    MW428084   3.558   6.198   1.046 -0.6330  1.1263  0.4300
 7080SOL     OW28085   2.055   5.677   3.492 -0.2165  0.7389 -0.5486
 7080SOL    HW228086   2.140   5.719   3.506 -0.9507  1.9361  0.5310
 7080SOL    HW328087   1.995   5.749   3.475 -0.9508 -0.1225 -1.7653
 7080SOL    MW428088   2.058   5.692   3.492 -0.0938 -0.3851 -0.3257
 7081SOL     OW28089   2.874   5.784   2.441  0.7605  0.1702  0.1881
 7081SOL    HW228090   2.790   5.809   2.482  0.8319 -0.6831  0.9004
 7081SOL    HW328091   2.921   5.866   2.431  0.5057  0.4757  1.3466
 7081SOL    MW428092   2.869   5.798   2.445 -0.1408 -0.1413 -0.4388
 7082SOL     OW28093   5.229   3.089   1.382 -0.2309  0.4719 -0.1450
 7082SOL    HW228094   5.247   3.143   1.305 -1.2783  0.0107 -0.7266
 7082SOL    HW328095   5.310   3.041   1.397 -0.5336 -0.7432 -2.0331
 7082SOL    MW428096   5.242   3.090   1.374  0.5614 -0.3898 -0.0038
 7083SOL     OW28097   0.903   3.505   4.592 -0.2202  0.2257  0.4644
 7083SOL    HW228098   0.876   3.578   4.536  1.8613  1.5865  1.1312
 7083SOL    HW328099   0.933   3.546   4.673  0.4645 -1.4162  1.0938
 7083SOL    MW428100   0.903   3.520   4.595 -0.3877  0.5561 -0.4648
 7084SOL     OW28101   2.640   4.783   0.278  0.1962  0.3274  0.2202
 7084SOL    HW228102   2.696   4.722   0.230  0.0501  1.1949 -1.1263
 7084SOL    HW328103   2.555   4.741   0.281  0.4319 -0.1313  0.5071
 7084SOL    MW428104   2.636   4.770   0.272  0.1906 -0.5856  0.0043
 7085SOL     OW28105   1.786   0.069   4.820 -0.1704 -0.2909  0.2629
 7085SOL    HW228106   1.713   0.130   4.831 -2.4736 -2.8594  0.1735
 7085SOL    HW328107   1.788   0.051   4.726 -1.0817 -2.0346  0.5289
 7085SOL    MW428108   1.777   0.075   4.809 -0.7638  0.1142 -0.3934
 7086SOL     OW28109   2.296   6.305   1.807  1.0707  0.4126  0.0751
 7086SOL    HW228110   2.286   6.227   1.862  1.2031 -0.3007 -0.8768
 7086SOL    HW328111   2.229   6.294   1.739  0.9838  1.2169  0.0254
 7086SOL    MW428112   2.286   6.293   1.805 -0.0459  0.1879 -0.0266
 7087SOL     OW28113   1.844   3.809   2.067  0.3027  0.4632 -0.0773
 7087SOL    HW228114   1.819   3.876   2.003 -0.2564  1.5003  1.1743
 7087SOL    HW328115   1.790   3.733   2.045 -1.0893  1.3573  0.1566
 7087SOL    MW428116   1.834   3.808   2.055 -0.1187  0.7341  0.0946
 7088SOL     OW28117   2.059   0.747   4.603  0.3245 -0.5552  0.6425
 7088SOL    HW228118   1.985   0.724   4.547  0.1873  0.5478  0.3377
 7088SOL    HW328119   2.032   0.829   4.645  0.6086 -1.1346  1.9902
 7088SOL    MW428120   2.045   0.755   4.601 -0.2954 -0.2477  0.0469
 7089SOL     OW28121   0.096   4.236   2.119  1.0880  0.5340  0.0488
 7089SOL    HW228122   0.054   4.298   2.178  0.1473 -0.8776  0.9235
 7089SOL    HW328123   0.055   4.253   2.034 -0.9813 -0.4777  0.7815
 7089SOL    MW428124   0.085   4.247   2.115 -0.1532  0.0426 -0.0141
 7090SOL     OW28125   2.315   2.987   3.529 -0.0607  1.0022  0.2050
 7090SOL    HW228126   2.389   3.000   3.589  0.5972  1.8501 -0.7506
 7090SOL    HW328127   2.238   3.001   3.583  0.4680  0.2685  1.1860
 7090SOL    MW428128   2.315   2.991   3.544 -0.1160 -0.4522 -0.2876
 7091SOL     OW28129   4.732   3.827   4.986 -0.1462 -0.2313  0.6514
 7091SOL    HW228130   4.781   3.799   5.063  1.2852 -0.4367 -0.3009
 7091SOL    HW328131   4.761   3.767   4.917 -0.5619  0.6652 -0.3163
 7091SOL    MW428132   4.742   3.815   4.987  0.6575  0.1860 -0.6065
 7092SOL     OW28133   3.945   5.631   5.474 -0.3111  0.2789  0.5533
 7092SOL    HW228134   4.028   5.593   5.502  1.8378  3.2367 -1.1122
 7092SOL    HW328135   3.938   5.713   5.524 -0.1152  1.9870 -1.9927
 7092SOL    MW428136   3.955   5.637   5.484 -0.3803  0.7169 -0.2171
 7093SOL     OW28137   5.002   0.283   3.580 -0.3344  0.3795  0.4100
 7093SOL    HW228138   5.060   0.244   3.515  0.2383 -0.0922  1.1748
 7093SOL    HW328139   4.981   0.369   3.545  0.7346  0.5107  0.0390
 7093SOL    MW428140   5.007   0.289   3.567  0.3839  0.0811 -0.4095
 7094SOL     OW28141   4.967   6.059   5.147 -0.8527 -0.1181  0.7848
 7094SOL    HW228142   4.904   5.994   5.177  0.5421 -2.2565 -0.6268
 7094SOL    HW328143   4.981   6.038   5.054 -0.1374  2.0553  0.3403
 7094SOL    MW428144   4.961   6.047   5.139  0.1501 -0.2291 -0.3921
 7095SOL     OW28145   5.710   1.660   5.799  0.5004  0.2662 -0.2562
 7095SOL    HW228146   5.782   1.701   5.752 -0.1819 -0.2850 -1.8227
 7095SOL    HW328147   5.753   1.598   5.859  1.4225  1.7423  0.6678
 7095SOL    MW428148   5.725   1.657   5.801  0.2199  0.2762  0.5133
 7096SOL     OW28149   2.043   1.191   2.742  0.8347 -0.1586 -0.0532
 7096SOL    HW228150   2.050   1.164   2.650 -2.9813  3.0746 -1.5381
 7096SOL    HW328151   1.989   1.124   2.782  2.8765 -1.8282  0.1217
 7096SOL    MW428152   2.037   1.178   2.735 -0.3655 -0.3878 -0.0885
 7097SOL     OW28153   0.357   3.935   1.680  0.0975  0.3356 -0.2212
 7097SOL    HW228154   0.404   3.961   1.759  0.3781  0.4699 -0.4344
 7097SOL    HW328155   0.299   4.010   1.661 -0.4958  0.0078  0.2678
 7097SOL    MW428156   0.355   3.949   1.688 -0.3931  0.1810  0.1943
 7098SOL     OW28157   0.380   0.058   4.845  0.0836 -0.1087  0.1379
 7098SOL    HW228158   0.426   0.104   4.775  0.1171 -0.0358  0.2083
 7098SOL    HW328159   0.379  -0.033   4.817 -1.4198  0.1640 -0.7987
 7098SOL    MW428160   0.386   0.052   4.832 -0.2511 -0.3123 -0.7254
 7099SOL     OW28161   3.742   5.156   2.195  0.9784 -0.6584  0.3360
 7099SOL    HW228162   3.813   5.192   2.141  0.6185 -0.7705 -0.2180
 7099SOL    HW328163   3.767   5.179   2.285  0.3587  1.6877 -0.0269
 7099SOL    MW428164   3.755   5.163   2.200  0.1171 -0.3259 -0.4168
 7100SOL     OW28165   2.070   4.705   2.204 -0.0608 -0.0699  0.1022
 7100SOL    HW228166   2.107   4.791   2.184  0.4046 -0.3597 -0.3193
 7100SOL    HW328167   2.145   4.653   2.231 -0.2580 -0.4878 -0.1477
 7100SOL    MW428168   2.085   4.710   2.205  0.3725 -0.9578  0.2890
 7101SOL     OW28169   1.966   2.370   0.713  0.8820 -0.2087  0.2939
 7101SOL    HW228170   2.040   2.430   0.714  1.3431 -0.7447  1.5616
 7101SOL    HW328171   1.953   2.348   0.621  1.2472  1.1391 -0.0999
 7101SOL    MW428172   1.974   2.375   0.701  0.2764 -0.1782 -0.2080
 7102SOL     OW28173   5.590   3.203   1.539 -0.6542  0.2652 -0.3692
 7102SOL    HW228174   5.506   3.241   1.512 -0.2316  1.6243  0.1228
 7102SOL    HW328175   5.568   3.150   1.616 -1.6313 -2.4748 -2.3733
 7102SOL    MW428176   5.576   3.201   1.546 -0.6519  0.3908  0.6616
 7103SOL     OW28177   0.912   1.621   5.083 -0.2765  0.3168  0.1698
 7103SOL    HW228178   0.944   1.601   5.171 -0.6898  4.0717  1.3378
 7103SOL    HW328179   0.826   1.580   5.078  0.6457 -1.8028  0.5810
 7103SOL    MW428180   0.905   1.613   5.094  0.6822 -0.2647  0.1596
 7104SOL     OW28181   1.041   5.824   0.365 -0.3095 -0.3412 -0.3221
 7104SOL    HW228182   1.080   5.798   0.282 -1.2131 -0.1870 -0.8061
 7104SOL    HW328183   1.075   5.761   0.429 -1.7913 -2.2207 -1.3141
 7104SOL    MW428184   1.051   5.812   0.363 -0.8862 -0.1318  0.1303
 7105SOL     OW28185   4.260   1.559   4.132  0.1783  0.2930  0.5099
 7105SOL    HW228186   4.277   1.642   4.176 -0.6500  0.5920  0.2826
 7105SOL    HW328187   4.332   1.549   4.070  0.1104  1.0081  0.3095
 7105SOL    MW428188   4.271   1.568   4.130 -0.4186 -0.6328 -0.5188
 7106SOL     OW28189   0.073   2.484   2.961 -0.5807  0.7626 -0.0433
 7106SOL    HW228190   0.156   2.527   2.982 -0.0688 -0.5997  0.8834
 7106SOL    HW328191   0.052   2.432   3.039 -0.5860 -1.5333 -1.4766
 7106SOL    MW428192   0.081   2.483   2.974  0.0366 -0.3049  0.1764
 7107SOL     OW28193   4.965   3.095   0.883  0.4589  0.0115 -0.2173
 7107SOL    HW228194   4.963   3.168   0.822 -0.5510  0.2331  0.0598
 7107SOL    HW328195   4.981   3.136   0.968 -0.0703 -0.0817 -0.0676
 7107SOL    MW428196   4.967   3.110   0.887 -0.1739 -0.1153 -0.4264
 7108SOL     OW28197   1.793   2.421   1.102  0.8374  0.2515  0.7193
 7108SOL    HW228198   1.724   2.453   1.043  0.4320  0.7353  1.4421
 7108SOL    HW328199   1.835   2.350   1.053 -0.4055 -0.2915  0.3979
 7108SOL    MW428200   1.789   2.416   1.087  0.4259  0.3560  0.6337
 7109SOL     OW28201   4.413   0.811   2.592 -0.8144  0.3250 -0.3625
 7109SOL    HW228202   4.403   0.828   2.498 -0.4894  3.0205  0.0253
 7109SOL    HW328203   4.506   0.793   2.603 -0.7222  0.7459 -0.4513
 7109SOL    MW428204   4.424   0.811   2.581  0.1379  0.2441  0.5031
 7110SOL     OW28205   1.040   4.987   2.582 -0.2739 -0.2168 -0.8326
 7110SOL    HW228206   1.068   4.906   2.623 -0.3463  1.1577  2.1962
 7110SOL    HW328207   1.115   5.046   2.593 -1.8927  1.5748  1.6150
 7110SOL    MW428208   1.054   4.984   2.588 -0.1080 -0.1985  0.4740
 7111SOL     OW28209   5.616   6.303   2.963  0.2485 -0.2560 -0.1771
 7111SOL    HW228210   5.647   6.281   2.875  2.0428 -0.8666  0.5671
 7111SOL    HW328211   5.695   6.325   3.012 -0.8893  1.8719  0.8308
 7111SOL    MW428212   5.630   6.303   2.958 -0.0766 -0.0738 -0.0088
 7112SOL     OW28213   5.544   0.662   5.460 -0.3148 -0.3542 -0.4184
 7112SOL    HW228214   5.465   0.662   5.514 -1.1150 -0.8988 -1.5475
 7112SOL    HW328215   5.578   0.573   5.468 -0.1743 -0.3039 -0.4522
 7112SOL    MW428216   5.538   0.650   5.469  0.6315 -1.4384 -0.4056
 7113SOL     OW28217   2.107   4.047   3.229  0.1051 -0.1659  0.1022
 7113SOL    HW228218   2.180   4.105   3.254  1.7857 -1.8494 -0.6336
 7113SOL    HW328219   2.120   3.969   3.282 -1.1235 -0.5425 -0.1305
 7113SOL    MW428220   2.119   4.045   3.239 -0.0319  0.1336 -0.2668
 7114SOL     OW28221   2.227   4.279   2.708  0.0536  0.2590  0.0088
 7114SOL    HW228222   2.186   4.246   2.788  0.1298  0.4474  0.1279
 7114SOL    HW328223   2.303   4.221   2.695  1.0896  1.3099  1.0834
 7114SOL    MW428224   2.232   4.267   2.717 -0.1371  0.3638  0.0377
 7115SOL     OW28225   0.383   3.074   6.414  0.1358 -0.1388  0.2326
 7115SOL    HW228226   0.333   2.997   6.441 -0.6044  0.2598  0.0329
 7115SOL    HW328227   0.423   3.049   6.331  0.0324 -0.3646  0.2500
 7115SOL    MW428228   0.382   3.060   6.407  0.7797 -0.1188 -0.3044
 7116SOL     OW28229   6.131   3.487   3.964 -0.0798  0.6049 -0.0338
 7116SOL    HW228230   6.167   3.407   4.002 -0.5592  0.3950 -0.0241
 7116SOL    HW328231   6.117   3.466   3.871 -1.6944  0.1508  0.2859
 7116SOL    MW428232   6.134   3.474   3.956  0.1598  0.5228 -0.0925
 7117SOL     OW28233   6.319   5.238   2.396 -0.4610 -0.0609  0.0663
 7117SOL    HW228234   6.383   5.181   2.439  0.7160  1.6830  0.7038
 7117SOL    HW328235   6.325   5.321   2.442 -2.5970  0.4392 -0.4245
 7117SOL    MW428236   6.328   5.241   2.407 -0.6419 -0.0320  0.3709
 7118SOL     OW28237   4.499   0.080   3.039 -0.1215 -0.5959  0.0740
 7118SOL    HW228238   4.488   0.168   3.074 -1.6096 -0.5487 -0.4384
 7118SOL    HW328239   4.592   0.062   3.048  0.2451  1.1079 -0.0084
 7118SOL    MW428240   4.510   0.089   3.045 -0.1828 -0.2064  0.0181
 7119SOL     OW28241   2.978   1.015   0.375 -0.5167 -0.0934 -0.1496
 7119SOL    HW228242   3.050   1.078   0.371 -0.0647 -0.5997 -0.0950
 7119SOL    HW328243   2.899   1.068   0.365 -0.1658  0.5303  0.3189
 7119SOL    MW428244   2.977   1.030   0.373  0.2196 -0.5204  0.1664
 7120SOL     OW28245   1.688   4.915   3.308  0.0657 -0.1138 -0.3637
 7120SOL    HW228246   1.649   4.962   3.235 -0.7231  0.2161  0.2674
 7120SOL    HW328247   1.754   4.975   3.343  0.9492 -0.5413 -1.2150
 7120SOL    MW428248   1.692   4.929   3.303 -0.2973 -0.4877  0.8496
 7121SOL     OW28249   3.640   5.105   4.757  0.0578 -0.5771  0.4796
 7121SOL    HW228250   3.586   5.142   4.826 -0.5636  0.2012 -0.4098
 7121SOL    HW328251   3.730   5.119   4.788 -0.2105 -1.0431  1.5303
 7121SOL    MW428252   3.645   5.112   4.771 -0.2946  0.1488 -0.5325
 7122SOL     OW28253   5.530   5.929   5.894 -0.4635  0.2325  0.0130
 7122SOL    HW228254   5.505   6.002   5.950 -2.3813 -2.1526  2.5172
 7122SOL    HW328255   5.625   5.925   5.902 -0.2254  2.7212 -0.6878
 7122SOL    MW428256   5.539   5.938   5.902 -0.0631  0.4922 -0.0386
 7123SOL     OW28257   1.892   0.419   4.696  0.0239 -0.2840  0.6198
 7123SOL    HW228258   1.807   0.462   4.692 -0.9505 -2.1363  0.1827
 7123SOL    HW328259   1.937   0.446   4.616 -1.2672 -1.3846 -0.5406
 7123SOL    MW428260   1.887   0.428   4.685  0.4202 -0.5194 -0.2312
 7124SOL     OW28261   4.349   3.535   4.999 -0.2001  0.0433 -0.1327
 7124SOL    HW228262   4.402   3.597   4.949  1.3362 -0.4536  0.8281
 7124SOL    HW328263   4.263   3.577   5.006  1.2947  3.0656  2.2112
 7124SOL    MW428264   4.344   3.548   4.993 -0.5424  0.6723  0.2415
 7125SOL     OW28265   1.834   0.287   3.576  0.4448 -0.4266  0.1167
 7125SOL    HW228266   1.845   0.244   3.661  0.0669 -3.1392 -1.1076
 7125SOL    HW328267   1.890   0.365   3.582  1.3627 -1.1549  2.4179
 7125SOL    MW428268   1.843   0.291   3.588  0.1454 -0.2993 -0.4304
 7126SOL     OW28269   0.737   4.268   2.774  0.3149 -0.2229 -0.0920
 7126SOL    HW228270   0.802   4.239   2.710 -0.3284 -0.6217 -0.5670
 7126SOL    HW328271   0.738   4.201   2.842 -1.8744 -2.0006 -1.6572
 7126SOL    MW428272   0.746   4.256   2.774 -0.4459  0.1375 -0.5985
 7127SOL     OW28273   5.036   5.557   0.809 -0.2014 -0.1405  0.4706
 7127SOL    HW228274   5.022   5.610   0.887  0.6099  0.4655  0.2249
 7127SOL    HW328275   5.071   5.619   0.744 -0.0603 -0.8008 -0.0986
 7127SOL    MW428276   5.039   5.572   0.811  0.1054  0.2887 -0.0076
 7128SOL     OW28277   6.277   0.243   0.432 -0.2867  0.0501 -0.2099
 7128SOL    HW228278   6.340   0.303   0.393  0.3672 -0.4096  0.1188
 7128SOL    HW328279   6.201   0.298   0.453  0.8886  1.1190  1.5586
 7128SOL    MW428280   6.275   0.258   0.430 -0.1843 -0.3909  0.6727
 7129SOL     OW28281   0.879   0.289   3.208  0.3715  0.0323  0.5928
 7129SOL    HW228282   0.923   0.281   3.124 -1.1845  2.1271 -0.5177
 7129SOL    HW328283   0.944   0.329   3.266  1.0354 -0.1999  0.0172
 7129SOL    MW428284   0.893   0.293   3.205  0.6111  0.5597  0.5881
 7130SOL     OW28285   5.071   2.274   1.934 -0.6897  0.5482 -0.1948
 7130SOL    HW228286   5.027   2.318   1.861  1.0665  2.5529 -0.1519
 7130SOL    HW328287   5.162   2.301   1.926 -0.3081  0.1919  2.2955
 7130SOL    MW428288   5.077   2.284   1.923  0.3007  0.0497  0.0354
 7131SOL     OW28289   2.605   3.018   5.940 -0.2428  0.0936 -0.2195
 7131SOL    HW228290   2.611   2.966   6.020  0.6460  0.3079 -0.1363
 7131SOL    HW328291   2.671   3.087   5.951 -0.7731  0.6943 -0.7223
 7131SOL    MW428292   2.614   3.020   5.952  0.0061 -0.1499 -0.2796
 7132SOL     OW28293   5.748   2.777   1.095 -0.1534  0.1367 -0.5287
 7132SOL    HW228294   5.776   2.869   1.090 -0.2905  0.3779  1.7584
 7132SOL    HW328295   5.662   2.775   1.052  0.4274  0.7821 -1.7560
 7132SOL    MW428296   5.740   2.789   1.089 -0.2469 -0.1439 -0.4401
 7133SOL     OW28297   1.491   4.729   4.060 -0.1116 -0.7006  0.5592
 7133SOL    HW228298   1.497   4.664   3.991  1.0782  0.9263 -0.9425
 7133SOL    HW328299   1.397   4.748   4.067 -0.3086 -1.4006 -0.1092
 7133SOL    MW428300   1.479   4.723   4.052 -0.2603  0.3785 -0.0701
 7134SOL     OW28301   4.325   1.560   1.181 -0.5380 -0.2699 -0.4597
 7134SOL    HW228302   4.413   1.568   1.220 -1.2523  0.7918  1.0512
 7134SOL    HW328303   4.296   1.651   1.171 -1.0507 -0.5763 -2.0032
 7134SOL    MW428304   4.333   1.573   1.185  0.2811 -0.1150 -0.3602
 7135SOL     OW28305   1.964   5.895   4.056 -0.1001  0.2579 -0.6356
 7135SOL    HW228306   1.910   5.839   4.113 -0.5951 -0.3374 -1.6487
 7135SOL    HW328307   1.946   5.863   3.967  1.1030  0.7712 -1.0882
 7135SOL    MW428308   1.954   5.883   4.052 -0.3331  0.2673 -0.7702
 7136SOL     OW28309   2.851   5.500   2.017  0.5525  0.3568  0.2985
 7136SOL    HW228310   2.776   5.556   1.997 -0.3698 -0.9394 -0.0415
 7136SOL    HW328311   2.857   5.502   2.112  0.0722  0.4883  0.3317
 7136SOL    MW428312   2.842   5.508   2.027 -0.3305  0.4412 -0.5883
 7137SOL     OW28313   5.764   2.104   2.752 -0.5219 -0.3495  0.2281
 7137SOL    HW228314   5.674   2.110   2.722 -0.5553  1.4945  0.5885
 7137SOL    HW328315   5.778   2.010   2.766 -2.7461 -0.5965  1.2561
 7137SOL    MW428316   5.754   2.092   2.750 -0.2953 -0.5245  0.0538
 7138SOL     OW28317   1.591   2.521   5.948  0.0398  0.5079  0.3813
 7138SOL    HW228318   1.562   2.564   5.867  1.0405  0.7890  0.1655
 7138SOL    HW328319   1.551   2.434   5.944 -0.1012  0.5962 -0.3070
 7138SOL    MW428320   1.582   2.515   5.937 -0.5601  0.0446 -0.4261
 7139SOL     OW28321   4.208   2.067   0.475 -0.1993  0.0262 -0.5427
 7139SOL    HW228322   4.283   2.067   0.536  0.9499 -0.6130 -1.8986
 7139SOL    HW328323   4.196   1.974   0.453 -1.7364  0.0624  0.0208
 7139SOL    MW428324   4.216   2.055   0.480 -0.7791  0.3298  0.3223
 7140SOL     OW28325   2.203   5.864   2.292 -0.0573 -0.4074  0.1734
 7140SOL    HW228326   2.218   5.773   2.268  0.6472 -0.0744 -0.7247
 7140SOL    HW328327   2.291   5.903   2.292  0.0388 -0.3675  3.4046
 7140SOL    MW428328   2.217   5.857   2.289  0.3144  0.1277 -0.5609
 7141SOL     OW28329   4.937   1.398   1.021 -0.1509  0.7746  0.1645
 7141SOL    HW228330   4.863   1.454   0.999 -1.2138 -0.5220  0.3432
 7141SOL    HW328331   4.924   1.318   0.970 -0.2631 -0.4836  2.0560
 7141SOL    MW428332   4.926   1.395   1.011  0.0205  0.2581 -0.7017
 7142SOL     OW28333   3.602   0.088   1.361  0.0029 -0.1681  0.7479
 7142SOL    HW228334   3.644   0.061   1.443  0.6944 -0.1173  0.4102
 7142SOL    HW328335   3.657   0.053   1.292 -1.6364 -1.9387  0.2404
 7142SOL    MW428336   3.615   0.080   1.363  0.2534 -0.1561  0.4946
 7143SOL     OW28337   5.291   3.852   1.029  0.3608  0.1290 -0.6775
 7143SOL    HW228338   5.352   3.882   0.962  1.6080  1.9262  1.1414
 7143SOL    HW328339   5.327   3.769   1.060  0.3648 -0.1707 -1.4664
 7143SOL    MW428340   5.304   3.845   1.025 -0.4597  0.0249  0.0162
 7144SOL     OW28341   3.304   6.126   0.142  0.6740  0.3696 -1.1110
 7144SOL    HW228342   3.295   6.162   0.230 -0.0746 -3.3585  0.5042
 7144SOL    HW328343   3.217   6.090   0.122  1.6626 -1.7375 -1.9287
 7144SOL    MW428344   3.291   6.126   0.151 -0.3927 -0.1468  0.0003
 7145SOL     OW28345   0.872   2.096   1.614  0.6964  0.1109 -0.4297
 7145SOL    HW228346   0.798   2.141   1.655  1.1086  0.8616 -0.4876
 7145SOL    HW328347   0.884   2.141   1.530  0.1193 -1.1454 -1.2223
 7145SOL    MW428348   0.864   2.108   1.608  0.7332  0.2154  1.1756
 7146SOL     OW28349   3.436   0.887   2.582  0.2476 -0.3315 -0.3390
 7146SOL    HW228350   3.424   0.938   2.502  1.4423 -1.4525 -1.2735
 7146SOL    HW328351   3.514   0.924   2.623  0.8782 -1.1259 -0.8073
 7146SOL    MW428352   3.444   0.898   2.577 -0.1601  0.3353  0.6242
 7147SOL     OW28353   0.864   3.223   2.504 -0.1184 -0.0871  0.4058
 7147SOL    HW228354   0.889   3.270   2.584 -1.2897 -0.4645  1.0216
 7147SOL    HW328355   0.939   3.168   2.484  0.1636 -0.0553  1.3170
 7147SOL    MW428356   0.877   3.222   2.512 -0.2260  0.6114  0.3566
 7148SOL     OW28357   0.121   2.071   4.694  0.0076 -0.3814 -0.0733
 7148SOL    HW228358   0.084   2.148   4.651  1.3726 -0.8426 -2.2309
 7148SOL    HW328359   0.058   2.049   4.762 -1.0643  1.8484 -0.2528
 7148SOL    MW428360   0.108   2.078   4.697 -0.1155  0.7984  0.4976
 7149SOL     OW28361   1.151   2.439   2.051 -0.2495 -0.4390  0.0704
 7149SOL    HW228362   1.119   2.367   2.107  2.1961 -1.4717  0.2838
 7149SOL    HW328363   1.103   2.428   1.969 -0.4278 -1.9140  0.3325
 7149SOL    MW428364   1.140   2.428   2.048  0.0230 -0.0717  0.7580
 7150SOL     OW28365   6.288   1.733   1.854  0.0302  0.2945 -0.4127
 7150SOL    HW228366   6.319   1.808   1.804 -3.4930  1.2047 -1.5463
 7150SOL    HW328367   6.321   1.657   1.807  1.8932  1.0967 -0.4730
 7150SOL    MW428368   6.296   1.733   1.841  0.4005 -0.6503 -0.1842
 7151SOL     OW28369   4.999   3.410   3.182  0.1900 -0.0867 -0.3884
 7151SOL    HW228370   4.924   3.469   3.182  0.8079  0.7244 -0.2812
 7151SOL    HW328371   4.997   3.367   3.267 -1.1731 -1.4378 -1.0596
 7151SOL    MW428372   4.989   3.412   3.193 -0.0915 -0.8453 -0.3554
 7152SOL     OW28373   3.655   3.677   4.791 -0.0735 -0.1328 -0.5831
 7152SOL    HW228374   3.639   3.653   4.700  0.5340  0.4659 -0.8591
 7152SOL    HW328375   3.727   3.620   4.819  0.5537  0.5094 -0.8618
 7152SOL    MW428376   3.662   3.666   4.783  0.2981  0.6715 -0.2706
 7153SOL     OW28377   2.234   3.232   3.776 -0.1667 -0.0119 -0.1533
 7153SOL    HW228378   2.217   3.210   3.867  2.2621 -4.2424 -0.4556
 7153SOL    HW328379   2.152   3.212   3.730 -0.0823 -2.3257  0.5987
 7153SOL    MW428380   2.221   3.226   3.782 -0.0773  0.5040 -0.6503
 7154SOL     OW28381   3.129   5.639   0.560  0.4155  0.0891 -0.3467
 7154SOL    HW228382   3.079   5.608   0.484 -0.9208 -0.1975  0.6190
 7154SOL    HW328383   3.166   5.559   0.597  2.0808  0.3502 -1.3513
 7154SOL    MW428384   3.127   5.624   0.555  0.1286  0.1218  0.2119
 7155SOL     OW28385   2.914   2.502   4.873 -0.7854  0.0730 -0.0289
 7155SOL    HW228386   2.977   2.571   4.893 -0.6717  0.4243 -1.5109
 7155SOL    HW328387   2.967   2.422   4.871 -0.7419  0.0802  0.7051
 7155SOL    MW428388   2.930   2.500   4.875 -0.2856  0.5524  0.9558
 7156SOL     OW28389   2.891   2.273   0.401  0.7669  0.0821  0.1282
 7156SOL    HW228390   2.870   2.252   0.310  1.2147 -1.6177  0.3801
 7156SOL    HW328391   2.985   2.295   0.398  0.3569  2.0104 -0.0940
 7156SOL    MW428392   2.901   2.273   0.388 -0.5610 -0.4635 -0.1280
 7157SOL     OW28393   0.949   0.844   2.149 -0.2046 -0.1090  0.8071
 7157SOL    HW228394   0.957   0.937   2.130 -1.6345 -0.1591 -0.2299
 7157SOL    HW328395   0.923   0.840   2.241 -0.7641  0.5516  0.6791
 7157SOL    MW428396   0.947   0.856   2.159 -0.0972  0.3379 -0.3784
 7158SOL     OW28397   4.269   3.214   1.434  0.6857  0.3835  0.7594
 7158SOL    HW228398   4.283   3.151   1.363 -0.0173 -1.1656  1.9406
 7158SOL    HW328399   4.307   3.295   1.401  1.1234 -0.4944 -1.0508
 7158SOL    MW428400   4.276   3.216   1.420  0.7788  0.0902 -0.4276
 7159SOL     OW28401   0.423   0.869   0.787  0.6745 -0.0680  0.0168
 7159SOL    HW228402   0.511   0.876   0.823  0.2809 -1.5246  1.3633
 7159SOL    HW328403   0.421   0.783   0.745 -0.6526 -0.8989  1.6755
 7159SOL    MW428404   0.434   0.859   0.786  0.1024 -0.1476  0.6710
 7160SOL     OW28405   0.380   2.788   2.162 -0.4519  0.5504  0.3477
 7160SOL    HW228406   0.305   2.830   2.119  0.7476  0.5608 -1.8913
 7160SOL    HW328407   0.365   2.695   2.150  0.9319  0.5643 -2.2284
 7160SOL    MW428408   0.368   2.782   2.155 -0.0096 -0.3277  0.0750
 7161SOL     OW28409   3.698   5.550   3.638 -0.3635 -0.0804  0.2001
 7161SOL    HW228410   3.669   5.595   3.558 -0.8645  0.2937  0.5893
 7161SOL    HW328411   3.672   5.459   3.625  1.1632 -0.4038 -0.8464
 7161SOL    MW428412   3.691   5.544   3.626  0.3452 -0.0588  0.1980
 7162SOL     OW28413   3.642   4.000   1.504 -0.5806  0.5980 -0.1172
 7162SOL    HW228414   3.661   4.084   1.547  0.7462  0.1827  0.1451
 7162SOL    HW328415   3.655   4.017   1.411  0.1664  0.5742 -0.0238
 7162SOL    MW428416   3.646   4.013   1.498  0.3417 -0.1709 -0.5852
 7163SOL     OW28417   1.549   1.668   0.593 -0.1473 -0.2238  0.1002
 7163SOL    HW228418   1.611   1.614   0.642  1.3834  1.2941 -0.0801
 7163SOL    HW328419   1.549   1.751   0.639 -0.7288  0.3607 -0.9255
 7163SOL    MW428420   1.557   1.672   0.605  0.3861  0.4273 -0.1318
 7164SOL     OW28421   2.784   6.290   5.898 -0.5767 -0.1270  0.0682
 7164SOL    HW228422   2.690   6.270   5.905 -0.3630 -1.9113 -1.3767
 7164SOL    HW328423   2.814   6.237   5.823  1.0989  2.2354 -1.0450
 7164SOL    MW428424   2.775   6.280   5.889 -0.6064  0.0795  0.2182
 7165SOL     OW28425   4.475   4.609   4.302 -0.2313 -0.6999 -0.3035
 7165SOL    HW228426   4.505   4.700   4.307 -0.1131 -0.7843  0.7831
 7165SOL    HW328427   4.481   4.577   4.392 -1.6012 -1.3617 -0.4277
 7165SOL    MW428428   4.480   4.616   4.314 -0.1212  1.0383 -0.9154
 7166SOL     OW28429   0.554   1.696   6.336  0.2722 -0.4139 -0.1583
 7166SOL    HW228430   0.558   1.741   6.420 -1.2724  1.0233 -0.7839
 7166SOL    HW328431   0.633   1.724   6.290 -0.0633  0.7596 -0.0691
 7166SOL    MW428432   0.565   1.706   6.341  0.1475 -0.2168 -0.6371
 7167SOL     OW28433   3.879   3.807   4.291  0.1755 -0.3816  0.1801
 7167SOL    HW228434   3.804   3.865   4.303 -0.1333 -0.4785 -1.0883
 7167SOL    HW328435   3.942   3.860   4.242  0.0082 -1.0042 -0.7292
 7167SOL    MW428436   3.877   3.822   4.286  0.3738 -0.3206 -0.1803
 7168SOL     OW28437   2.182   5.836   1.692  0.2895  0.1866  0.0833
 7168SOL    HW228438   2.152   5.875   1.774  1.0384 -0.2926  0.6078
 7168SOL    HW328439   2.241   5.901   1.654 -1.7047  1.3608 -1.2161
 7168SOL    MW428440   2.186   5.849   1.698  0.1169  0.0964  0.9540
 7169SOL     OW28441   5.221   0.433   2.584  0.0927  0.9497  0.0664
 7169SOL    HW228442   5.247   0.480   2.504 -0.1487  0.5038 -0.2782
 7169SOL    HW328443   5.179   0.500   2.638 -0.1485  1.1641 -0.3744
 7169SOL    MW428444   5.219   0.448   2.580  0.2307 -0.4456 -0.1859
 7170SOL     OW28445   2.616   5.451   5.640 -0.3749  0.1293  0.2142
 7170SOL    HW228446   2.584   5.426   5.727  0.3495  1.1505  0.7905
 7170SOL    HW328447   2.706   5.418   5.638  0.0167  1.1611  0.3313
 7170SOL    MW428448   2.624   5.443   5.652 -0.0269 -1.0059  0.3860
 7171SOL     OW28449   2.495   1.315   4.778 -0.1887  0.0740 -0.0143
 7171SOL    HW228450   2.590   1.325   4.780 -0.1919  0.1820 -0.3231
 7171SOL    HW328451   2.464   1.369   4.851  0.0624 -0.9319  0.8618
 7171SOL    MW428452   2.503   1.323   4.788  0.2299  0.6023 -0.4141
 7172SOL     OW28453   6.079   6.189   1.284  0.0846 -0.0574 -0.0876
 7172SOL    HW228454   5.985   6.201   1.300 -0.4117 -0.3644 -2.4819
 7172SOL    HW328455   6.089   6.096   1.266  0.7683  0.0581 -0.3571
 7172SOL    MW428456   6.068   6.178   1.284  0.6978  0.2229 -0.2254
 7173SOL     OW28457   4.146   0.620   5.682  0.4625 -0.3306 -0.3458
 7173SOL    HW228458   4.066   0.617   5.628  1.3606 -0.3153 -1.7392
 7173SOL    HW328459   4.177   0.529   5.682 -1.3646 -1.1028  3.1373
 7173SOL    MW428460   4.139   0.607   5.675  0.7560  0.3893 -0.0452
 7174SOL     OW28461   2.073   3.913   6.427  0.1160 -0.1043  0.2882
 7174SOL    HW228462   1.995   3.947   6.382 -0.2632 -0.9883  0.2540
 7174SOL    HW328463   2.096   3.835   6.378  1.4129  0.4803 -0.0753
 7174SOL    MW428464   2.065   3.908   6.414  0.0593 -0.2841  0.0700
 7175SOL     OW28465   1.555   0.746   1.050 -0.4354 -0.8344  0.6264
 7175SOL    HW228466   1.529   0.658   1.025  1.0619 -0.9827 -0.5046
 7175SOL    HW328467   1.639   0.735   1.094  0.1099  0.0887 -0.1538
 7175SOL    MW428468   1.562   0.733   1.053 -0.0324 -0.0831  0.6455
 7176SOL     OW28469   1.172   3.781   4.738  0.0425 -0.1786  0.0663
 7176SOL    HW228470   1.082   3.798   4.711  0.4615  0.4959 -0.9509
 7176SOL    HW328471   1.190   3.846   4.806  0.1959  0.6003 -0.6991
 7176SOL    MW428472   1.163   3.792   4.743  0.0588 -0.1680 -0.3195
 7177SOL     OW28473   1.112   3.048   2.706 -0.4722 -0.3372  0.2664
 7177SOL    HW228474   1.092   2.974   2.764  1.1834  1.1503  2.9737
 7177SOL    HW328475   1.177   3.098   2.754  0.5978  1.3874 -2.7390
 7177SOL    MW428476   1.118   3.044   2.720  0.4206 -0.1276  0.5797
 7178SOL     OW28477   4.751   1.836   3.240 -0.2214  0.2294  0.1499
 7178SOL    HW228478   4.792   1.775   3.301  0.8013 -0.5798 -1.2583
 7178SOL    HW328479   4.659   1.810   3.237 -0.2824  0.2585  1.2707
 7178SOL    MW428480   4.745   1.824   3.247  0.0790  0.3034  0.3888
 7179SOL     OW28481   5.276   0.077   2.403  0.1784 -0.6669 -0.4038
 7179SOL    HW228482   5.279   0.008   2.337  0.1396 -0.4567 -0.6279
 7179SOL    HW328483   5.204   0.134   2.376  0.0197 -0.6970 -0.0602
 7179SOL    MW428484   5.267   0.075   2.391 -0.4811  0.3479 -0.2518
 7180SOL     OW28485   0.151   0.820   2.794 -0.1493  0.8487  0.1976
 7180SOL    HW228486   0.070   0.841   2.841 -0.5325  1.1603 -0.5839
 7180SOL    HW328487   0.135   0.850   2.704 -0.1208 -1.3212 -0.6113
 7180SOL    MW428488   0.138   0.827   2.788 -0.5321  0.2215  0.0817
 7181SOL     OW28489   0.876   4.334   1.898 -0.4542 -0.2164  0.2688
 7181SOL    HW228490   0.796   4.283   1.903 -0.4552 -0.1755  0.7463
 7181SOL    HW328491   0.924   4.297   1.824 -1.3740  0.4364 -0.6832
 7181SOL    MW428492   0.872   4.322   1.889 -0.2736  0.3930  0.0468
 7182SOL     OW28493   3.135   4.141   5.869  0.3064 -0.0282  0.1364
 7182SOL    HW228494   3.168   4.066   5.819 -0.1524 -0.6683  0.7662
 7182SOL    HW328495   3.142   4.215   5.809 -0.1162 -0.7490 -0.8369
 7182SOL    MW428496   3.140   4.141   5.854  0.2789 -0.2876 -0.5507
 7183SOL     OW28497   1.508   1.188   2.721  0.5803  0.0903 -0.7648
 7183SOL    HW228498   1.470   1.101   2.731  1.2470 -0.2489 -1.1155
 7183SOL    HW328499   1.595   1.172   2.684  0.4208  0.9395 -1.5467
 7183SOL    MW428500   1.514   1.175   2.717 -0.2433  0.2410 -0.3742
 7184SOL     OW28501   1.377   4.161   1.492 -0.0656 -0.2534  0.2348
 7184SOL    HW228502   1.391   4.137   1.401  0.9126 -0.2694  0.3794
 7184SOL    HW328503   1.437   4.105   1.541  0.5646  0.8527  0.7617
 7184SOL    MW428504   1.387   4.150   1.487 -0.6652 -0.5201 -0.5321
 7185SOL     OW28505   1.700   6.237   3.814 -0.3326  0.2784 -0.2593
 7185SOL    HW228506   1.650   6.245   3.896  0.0390  1.8767 -0.1493
 7185SOL    HW328507   1.785   6.274   3.834 -1.0203  3.0953 -1.9781
 7185SOL    MW428508   1.704   6.243   3.828 -0.6614  0.3025 -0.2583
 7186SOL     OW28509   2.242   2.240   0.395  0.6287  0.5129  0.1646
 7186SOL    HW228510   2.241   2.234   0.490  0.0474 -2.0609  0.0678
 7186SOL    HW328511   2.328   2.206   0.370 -0.6798 -2.7691 -0.3018
 7186SOL    MW428512   2.253   2.235   0.404  0.3099  1.1287  0.8368
 7187SOL     OW28513   5.247   2.714   4.429  0.2010  0.0663  0.0564
 7187SOL    HW228514   5.194   2.663   4.369  1.0100  0.6946 -1.2430
 7187SOL    HW328515   5.218   2.687   4.516 -0.3654 -1.5356 -0.5974
 7187SOL    MW428516   5.236   2.704   4.433 -0.0531  0.3824 -0.8029
 7188SOL     OW28517   3.771   0.166   0.394  0.0558 -0.1821  0.0367
 7188SOL    HW228518   3.723   0.156   0.477 -0.7277  0.0790 -0.3774
 7188SOL    HW328519   3.825   0.087   0.388 -0.3513 -0.5003  0.4944
 7188SOL    MW428520   3.772   0.154   0.404  0.0674  0.0636  0.3774
 7189SOL     OW28521   3.189   4.309   0.974  0.1062 -0.2930  0.2359
 7189SOL    HW228522   3.278   4.342   0.964 -0.1205  0.2198 -0.1211
 7189SOL    HW328523   3.140   4.348   0.902 -0.2979 -0.9767  0.1291
 7189SOL    MW428524   3.194   4.318   0.963  0.4095  0.0380 -0.2302
 7190SOL     OW28525   0.895   5.094   6.074 -0.3763 -0.4476  0.0981
 7190SOL    HW228526   0.988   5.075   6.091  0.4669  0.5469 -2.7865
 7190SOL    HW328527   0.851   5.011   6.089  1.2008 -1.3048  0.2486
 7190SOL    MW428528   0.902   5.080   6.078  0.3356  0.1935 -0.1141
 7191SOL     OW28529   2.938   0.683   3.594  0.1902  0.4915  0.3144
 7191SOL    HW228530   2.854   0.700   3.551 -0.9068 -3.1177  0.6883
 7191SOL    HW328531   2.980   0.617   3.539  2.1702  1.1315  0.9606
 7191SOL    MW428532   2.933   0.677   3.581  0.2394  0.3975  0.2434
 7192SOL     OW28533   5.758   5.760   2.764 -0.1315  0.1708 -0.2002
 7192SOL    HW228534   5.708   5.836   2.735  0.1489  0.1811 -0.6716
 7192SOL    HW328535   5.849   5.790   2.765  0.1706 -0.5444 -1.7998
 7192SOL    MW428536   5.763   5.774   2.760 -0.4733  0.0220  0.0037
 7193SOL     OW28537   0.344   4.018   3.204  0.3033 -0.3529 -0.3153
 7193SOL    HW228538   0.271   3.987   3.150  0.4768  1.2475 -1.5588
 7193SOL    HW328539   0.379   4.093   3.156  2.2478 -0.5628  0.6826
 7193SOL    MW428540   0.339   4.024   3.190 -0.0150 -0.9929  0.6020
 7194SOL     OW28541   4.123   5.336   5.011 -0.2888  0.3495  0.6073
 7194SOL    HW228542   4.180   5.262   4.992  0.4402  0.5565  1.8790
 7194SOL    HW328543   4.103   5.374   4.925  1.5734  0.3237  0.1306
 7194SOL    MW428544   4.128   5.331   4.997  0.0451  0.0213  0.0955
 7195SOL     OW28545   0.168   2.907   2.045 -0.0037  0.1195 -0.5544
 7195SOL    HW228546   0.095   2.848   2.025  0.4189 -1.0491  1.1625
 7195SOL    HW328547   0.140   2.953   2.125  0.2889  1.2000 -1.0594
 7195SOL    MW428548   0.155   2.905   2.053  0.0357  0.1547  0.2347
 7196SOL     OW28549   5.090   1.678   2.021 -0.4194  0.0725  0.0862
 7196SOL    HW228550   4.995   1.691   2.024 -0.2381  1.3674  1.1034
 7196SOL    HW328551   5.109   1.664   1.928 -1.5414  0.3223 -0.1999
 7196SOL    MW428552   5.080   1.678   2.009  0.1396 -0.3886  0.3881
 7197SOL     OW28553   0.484   5.089   4.676  0.4605  0.4071 -0.0343
 7197SOL    HW228554   0.485   4.994   4.676  0.6335  0.4015 -0.6987
 7197SOL    HW328555   0.392   5.113   4.686  0.3875  0.1667 -0.1385
 7197SOL    MW428556   0.472   5.080   4.677 -0.0448 -0.3736 -0.5078
 7198SOL     OW28557   4.704   5.235   4.087 -0.2682  0.3567 -0.1828
 7198SOL    HW228558   4.732   5.235   3.995  1.4094  0.5901  0.2955
 7198SOL    HW328559   4.761   5.299   4.129 -1.7293  1.0363  0.8379
 7198SOL    MW428560   4.715   5.244   4.080 -0.4021  0.4903 -0.6340
 7199SOL     OW28561   0.783   2.570   3.807  0.5786 -0.0327 -0.2932
 7199SOL    HW228562   0.779   2.659   3.773  1.8924  0.7922  1.5350
 7199SOL    HW328563   0.852   2.573   3.874  0.3084 -2.3036  0.1711
 7199SOL    MW428564   0.792   2.582   3.812  0.3467  0.2023  0.1575
 7200SOL     OW28565   2.630   1.489   0.628 -0.0691  0.3674  0.0444
 7200SOL    HW228566   2.611   1.504   0.721 -0.6463  0.2924 -0.0577
 7200SOL    HW328567   2.725   1.479   0.624  0.1842  2.3697  0.3432
 7200SOL    MW428568   2.640   1.489   0.640  0.5505  0.7283 -0.0412
 7201SOL     OW28569   2.278   5.146   2.628  0.0950 -0.0512 -0.8069
 7201SOL    HW228570   2.310   5.146   2.718 -0.5237  1.4381 -0.5463
 7201SOL    HW328571   2.237   5.060   2.617  0.8362 -0.5332  0.0776
 7201SOL    MW428572   2.277   5.135   2.639 -0.2092  0.0305 -0.0272
 7202SOL     OW28573   4.283   4.193   6.188 -0.2285  0.0820 -0.0910
 7202SOL    HW228574   4.346   4.264   6.183  0.9579 -0.9439 -0.2132
 7202SOL    HW328575   4.206   4.231   6.230 -0.1837  1.8138 -1.4769
 7202SOL    MW428576   4.281   4.207   6.193  0.5281  0.0121 -0.8846
 7203SOL     OW28577   1.905   6.228   4.338  0.1727  0.6849 -0.0627
 7203SOL    HW228578   1.930   6.197   4.251  0.2652  0.7206 -0.0492
 7203SOL    HW328579   1.927   6.155   4.396  3.8149  2.0150  0.5035
 7203SOL    MW428580   1.912   6.214   4.334 -0.2824 -0.3406  0.2630
 7204SOL     OW28581   2.797   1.826   3.011 -0.2414 -0.6579  0.1613
 7204SOL    HW228582   2.890   1.822   2.988 -0.9727 -1.6349 -3.2197
 7204SOL    HW328583   2.762   1.742   2.983 -2.6410  0.7635 -1.5103
 7204SOL    MW428584   2.805   1.815   3.004 -0.0248 -0.0763 -1.0249
 7205SOL     OW28585   4.510   4.700   2.780 -0.1730  0.0950 -0.2777
 7205SOL    HW228586   4.560   4.765   2.829 -0.3626  0.5195 -0.6339
 7205SOL    HW328587   4.477   4.640   2.846  1.2879 -0.5341 -0.0873
 7205SOL    MW428588   4.512   4.701   2.795 -0.1366 -0.6510  0.2138
 7206SOL     OW28589   4.605   3.909   0.848 -0.9701  0.5192  0.9873
 7206SOL    HW228590   4.628   3.838   0.907 -1.1795  1.8152  2.7270
 7206SOL    HW328591   4.686   3.958   0.835 -0.9455  0.2997  0.2532
 7206SOL    MW428592   4.619   3.906   0.854  0.3260  0.0336 -0.5412
 7207SOL     OW28593   2.701   1.398   5.696 -0.0420  0.1476  0.7350
 7207SOL    HW228594   2.649   1.358   5.627  0.9544  0.4483 -0.2280
 7207SOL    HW328595   2.686   1.492   5.686 -1.6903  0.1222  2.4277
 7207SOL    MW428596   2.692   1.405   5.685 -0.1584  0.3720 -0.3133
 7208SOL     OW28597   4.225   5.935   4.339  0.0424  0.0937  0.1319
 7208SOL    HW228598   4.150   5.924   4.398  0.9631  0.0854  1.3403
 7208SOL    HW328599   4.289   5.984   4.391  1.5771 -1.4324 -0.2584
 7208SOL    MW428600   4.223   5.940   4.354 -0.2212 -0.3916  0.4405
 7209SOL     OW28601   1.608   2.476   0.918 -0.3000 -0.4194  0.3499
 7209SOL    HW228602   1.652   2.518   0.844  0.0279  1.0252  1.3375
 7209SOL    HW328603   1.515   2.492   0.903 -0.1799  0.6496  0.6962
 7209SOL    MW428604   1.601   2.483   0.906 -0.3220  0.1244 -0.4119
 7210SOL     OW28605   6.097   1.650   4.104  0.3298  0.0651 -0.0173
 7210SOL    HW228606   6.034   1.589   4.140 -0.1024  0.9929  0.8244
 7210SOL    HW328607   6.166   1.594   4.068 -0.6298 -0.9365 -0.3453
 7210SOL    MW428608   6.098   1.635   4.104 -0.5217 -0.7775 -0.5868
 7211SOL     OW28609   0.903   4.371   1.070  0.2019  0.3257  0.0542
 7211SOL    HW228610   0.969   4.425   1.026 -0.3353  0.6728 -0.3372
 7211SOL    HW328611   0.920   4.383   1.163  1.4209 -0.4952 -0.0311
 7211SOL    MW428612   0.914   4.379   1.076 -0.5198 -0.2476 -0.2019
 7212SOL     OW28613   5.968   3.183   6.051 -0.3164 -0.2823  0.3074
 7212SOL    HW228614   5.897   3.230   6.094 -0.2376  0.7737 -0.6712
 7212SOL    HW328615   5.925   3.136   5.979 -0.3180 -1.3340  0.9740
 7212SOL    MW428616   5.953   3.183   6.047 -0.1316  0.5375  0.6511
 7213SOL     OW28617   4.458   4.778   6.244  0.2231 -0.0996  0.1470
 7213SOL    HW228618   4.534   4.805   6.296  1.3319  1.9384 -2.3256
 7213SOL    HW328619   4.424   4.859   6.206 -2.6292 -1.0738  0.3376
 7213SOL    MW428620   4.463   4.792   6.246  0.3550  0.5163  0.3900
 7214SOL     OW28621   3.083   2.927   5.234 -0.1540  0.5295  0.3960
 7214SOL    HW228622   3.058   3.000   5.290 -0.8492 -1.4190  2.8251
 7214SOL    HW328623   3.147   2.878   5.287 -0.0949 -0.8950 -0.9377
 7214SOL    MW428624   3.088   2.930   5.248 -0.3657 -0.2891 -0.1975
 7215SOL     OW28625   2.594   4.436   2.560  0.1248  0.2211 -0.0739
 7215SOL    HW228626   2.635   4.466   2.641 -0.0799  1.9038 -0.5589
 7215SOL    HW328627   2.658   4.454   2.492 -0.2431  0.0889 -0.4607
 7215SOL    MW428628   2.608   4.442   2.562 -0.5240 -0.8887  0.0897
 7216SOL     OW28629   1.266   5.157   2.600 -0.1564 -0.0223  0.1274
 7216SOL    HW228630   1.241   5.242   2.635  1.5724  0.3311  0.5945
 7216SOL    HW328631   1.287   5.174   2.508  1.1919  0.2885  0.4768
 7216SOL    MW428632   1.266   5.170   2.592  0.3685  0.1069 -0.1449
 7217SOL     OW28633   1.457   5.726   5.694 -0.7715 -0.5941 -0.0231
 7217SOL    HW228634   1.452   5.707   5.600  1.1096 -2.0150  0.1038
 7217SOL    HW328635   1.488   5.817   5.698 -3.1736  0.3429 -0.6975
 7217SOL    MW428636   1.461   5.736   5.682  0.0725  0.1251 -0.1698
 7218SOL     OW28637   1.190   3.882   2.056 -0.2606  0.8781 -0.5649
 7218SOL    HW228638   1.280   3.872   2.087 -0.3257 -1.6552 -1.0409
 7218SOL    HW328639   1.139   3.898   2.135  0.5870  2.5372 -0.3100
 7218SOL    MW428640   1.195   3.883   2.071 -0.0239  0.1123  0.4588
 7219SOL     OW28641   0.750   4.868   0.930  0.0701  0.5086 -0.2006
 7219SOL    HW228642   0.700   4.788   0.914 -0.7951  1.0640 -0.3829
 7219SOL    HW328643   0.773   4.864   1.023 -0.1713  0.1564 -0.1561
 7219SOL    MW428644   0.746   4.857   0.940 -0.3541  0.4187  0.0352
 7220SOL     OW28645   2.766   3.983   2.736  0.2212  0.7554  0.4644
 7220SOL    HW228646   2.682   4.016   2.705  0.4905  1.0382  0.0272
 7220SOL    HW328647   2.816   4.062   2.758 -0.1148  0.5658  2.0600
 7220SOL    MW428648   2.762   3.998   2.735  0.2742 -0.5186 -0.3134
 7221SOL     OW28649   3.610   0.357   2.537 -0.0191 -0.5863  0.6154
 7221SOL    HW228650   3.561   0.438   2.548 -1.5118 -1.2123 -0.9609
 7221SOL    HW328651   3.635   0.355   2.445  0.0102 -1.8943  0.6270
 7221SOL    MW428652   3.607   0.367   2.527 -0.5782 -0.7504 -0.1556
 7222SOL     OW28653   3.789   6.181   0.192 -0.0595  0.1838  0.4812
 7222SOL    HW228654   3.872   6.175   0.145 -0.7529  2.1172 -1.1032
 7222SOL    HW328655   3.779   6.095   0.232  1.3263 -1.0736 -1.6595
 7222SOL    MW428656   3.799   6.169   0.191  0.6900  0.0135 -0.4976
 7223SOL     OW28657   1.987   0.911   0.049  0.4895 -0.2454  0.3540
 7223SOL    HW228658   2.076   0.942   0.065  0.1976  0.5772  0.4478
 7223SOL    HW328659   1.957   0.962  -0.026  0.0764 -0.4704  0.3616
 7223SOL    MW428660   1.994   0.922   0.041  0.2616  0.0561 -0.4865
 7224SOL     OW28661   3.831   3.236   3.259  0.2491  0.2856  0.0639
 7224SOL    HW228662   3.735   3.243   3.256  0.3266  1.0200 -1.8133
 7224SOL    HW328663   3.857   3.224   3.168  1.9145 -0.8411  0.6370
 7224SOL    MW428664   3.822   3.235   3.247 -0.1200  0.1158 -0.1660
 7225SOL     OW28665   0.332   3.322   4.921 -0.5384  0.5909  0.6496
 7225SOL    HW228666   0.274   3.374   4.866  0.8516 -0.2397 -1.7769
 7225SOL    HW328667   0.420   3.350   4.896  0.1757 -0.8654  1.3927
 7225SOL    MW428668   0.336   3.332   4.910  0.4153  0.1176  0.1070
 7226SOL     OW28669   3.252   3.050   4.387  0.6368 -0.6175  0.3149
 7226SOL    HW228670   3.182   2.992   4.357 -0.7453  1.7192 -1.2054
 7226SOL    HW328671   3.218   3.138   4.376  3.6871  0.6336 -0.1259
 7226SOL    MW428672   3.238   3.054   4.382  0.0331  0.2289  0.5047
 7227SOL     OW28673   5.752   5.557   6.010 -0.1213  0.5652 -0.0721
 7227SOL    HW228674   5.746   5.462   6.015  1.7693  0.3937 -0.1174
 7227SOL    HW328675   5.742   5.578   5.917 -1.0415  0.4757 -0.0005
 7227SOL    MW428676   5.750   5.547   5.998 -0.2256  0.4617  0.4154
 7228SOL     OW28677   5.585   0.142   3.820 -0.3965  0.2502 -0.4773
 7228SOL    HW228678   5.640   0.068   3.846  0.1177  0.3796 -1.1731
 7228SOL    HW328679   5.515   0.103   3.767 -0.5606  0.1754 -0.2088
 7228SOL    MW428680   5.583   0.127   3.816  0.2062 -0.3569  0.5493
 7229SOL     OW28681   4.955   3.869   3.258  0.6391  0.3332  0.3536
 7229SOL    HW228682   4.995   3.851   3.173 -0.7675  2.0363 -0.7353
 7229SOL    HW328683   5.016   3.930   3.301  1.0586 -0.0699  0.3396
 7229SOL    MW428684   4.968   3.875   3.253  0.4627  0.2783 -0.7650
 7230SOL     OW28685   4.826   0.319   5.590 -0.7923  0.0959 -0.3599
 7230SOL    HW228686   4.738   0.326   5.626 -0.3098 -0.3351  0.9751
 7230SOL    HW328687   4.882   0.308   5.667  0.4236  0.3197 -1.1879
 7230SOL    MW428688   4.822   0.319   5.605 -0.1634  0.1272 -0.7775
 7231SOL     OW28689   0.951   5.996   1.415  0.3233 -0.1527 -0.4442
 7231SOL    HW228690   0.986   6.021   1.330  1.5832  1.3128  0.4616
 7231SOL    HW328691   0.954   6.076   1.467  0.5095 -1.2382  1.2934
 7231SOL    MW428692   0.956   6.010   1.411  1.1573  0.2095 -0.0269
 7232SOL     OW28693   0.017   6.202   5.297  0.2121 -0.6457  0.1198
 7232SOL    HW228694  -0.058   6.254   5.325  1.0304  0.8994 -0.3974
 7232SOL    HW328695   0.085   6.222   5.362  1.4052  1.1814 -1.5653
 7232SOL    MW428696   0.016   6.212   5.309 -0.2350  0.0690 -0.0290
 7233SOL     OW28697   1.662   4.723   5.595  0.1766 -0.0182  0.1336
 7233SOL    HW228698   1.703   4.807   5.573 -1.0465  1.1219  1.8734
 7233SOL    HW328699   1.726   4.657   5.567  2.4046  1.5786  1.0876
 7233SOL    MW428700   1.676   4.726   5.589 -0.0321  0.1503 -0.1650
 7234SOL     OW28701   2.491   2.126   0.030  0.1553  0.0409 -0.1752
 7234SOL    HW228702   2.520   2.211  -0.003  0.1302  0.2015  0.2039
 7234SOL    HW328703   2.537   2.062  -0.024  0.2071  0.2958 -0.4353
 7234SOL    MW428704   2.501   2.128   0.019 -0.1827 -0.0296  0.0628
 7235SOL     OW28705   0.681   2.194   2.720 -0.4884  0.5172  0.2069
 7235SOL    HW228706   0.709   2.243   2.643  0.3650 -1.6346 -0.9326
 7235SOL    HW328707   0.756   2.197   2.779 -0.3927  0.4679  0.0876
 7235SOL    MW428708   0.694   2.201   2.718  0.2240 -0.5216 -0.3937
 7236SOL     OW28709   1.137   2.373   4.958 -0.1763 -0.0046  0.4114
 7236SOL    HW228710   1.053   2.417   4.947 -0.8344 -1.3673 -0.1494
 7236SOL    HW328711   1.119   2.301   5.018  0.7642  0.1400  0.8795
 7236SOL    MW428712   1.124   2.369   4.964  0.2007 -0.3453 -0.0601
 7237SOL     OW28713   3.293   0.877   5.500 -0.1964  0.3172  0.1180
 7237SOL    HW228714   3.268   0.836   5.583 -0.2002 -2.3257 -1.0955
 7237SOL    HW328715   3.213   0.878   5.448  0.4593 -0.9173 -0.9517
 7237SOL    MW428716   3.279   0.872   5.504  0.3370  0.1469 -0.3723
 7238SOL     OW28717   2.404   0.838   2.164 -0.2332  0.2229  0.2471
 7238SOL    HW228718   2.321   0.831   2.117  0.1119 -0.6691 -0.2398
 7238SOL    HW328719   2.399   0.924   2.207 -1.1576  0.4329 -0.2401
 7238SOL    MW428720   2.392   0.849   2.164 -0.5306  0.4669  0.0409
 7239SOL     OW28721   4.519   1.951   2.053  0.1082 -0.0159 -0.4814
 7239SOL    HW228722   4.531   1.985   1.964  0.3408 -2.6065 -1.5550
 7239SOL    HW328723   4.526   2.027   2.110  1.6823  1.4988 -2.5583
 7239SOL    MW428724   4.522   1.965   2.048 -0.2287  0.2928  0.7638
 7240SOL     OW28725   5.177   1.906   2.191 -0.0300  0.2587  0.5834
 7240SOL    HW228726   5.257   1.950   2.164  1.2549 -1.6414  1.1581
 7240SOL    HW328727   5.176   1.825   2.140 -1.9241  0.5002  0.1396
 7240SOL    MW428728   5.187   1.901   2.180 -0.0165 -0.1122 -0.3818
 7241SOL     OW28729   5.282   0.968   5.691 -0.3331  0.0603  0.1685
 7241SOL    HW228730   5.249   0.970   5.601  0.6520  0.4955 -0.1990
 7241SOL    HW328731   5.220   1.021   5.741 -0.1933  0.8891 -0.5159
 7241SOL    MW428732   5.269   0.975   5.686  0.3723  0.1746  0.7408
 7242SOL     OW28733   3.775   2.640   3.076  0.2350 -0.3818 -0.1358
 7242SOL    HW228734   3.740   2.656   3.164 -0.5318 -0.2145 -0.4695
 7242SOL    HW328735   3.861   2.681   3.078 -0.7480  1.8159 -0.2179
 7242SOL    MW428736   3.782   2.648   3.088 -0.2259  0.3960  0.1678
 7243SOL     OW28737   0.258   4.468   6.323 -0.5308  0.3373  0.3571
 7243SOL    HW228738   0.205   4.388   6.318 -0.1237  0.0696  0.3303
 7243SOL    HW328739   0.291   4.469   6.413  0.6203 -0.2717 -0.0388
 7243SOL    MW428740   0.255   4.457   6.334 -0.3886 -0.2775  0.1175
 7244SOL     OW28741   3.038   0.897   4.588  0.6881 -0.2344 -0.2364
 7244SOL    HW228742   3.035   0.806   4.561  0.5671 -1.2655  2.8937
 7244SOL    HW328743   2.974   0.941   4.532  0.8611 -1.9867 -1.9185
 7244SOL    MW428744   3.029   0.891   4.577 -0.2032  0.1203 -0.1854
 7245SOL     OW28745   0.427   3.339   0.364  0.1534  0.7030 -0.3798
 7245SOL    HW228746   0.450   3.264   0.310  2.2382  0.6841  0.4604
 7245SOL    HW328747   0.336   3.357   0.342  0.4820 -0.2364 -2.7573
 7245SOL    MW428748   0.418   3.331   0.354 -0.2537  0.5756  0.2916
 7246SOL     OW28749   3.562   3.145   5.775  0.8627 -0.2657  0.0948
 7246SOL    HW228750   3.612   3.217   5.736  0.4012 -0.6773 -1.3305
 7246SOL    HW328751   3.488   3.132   5.715 -0.1367 -0.6605  1.3485
 7246SOL    MW428752   3.559   3.153   5.762  0.2440  0.1431  0.2042
 7247SOL     OW28753   5.014   3.198   1.604 -0.3888 -0.1588  0.0305
 7247SOL    HW228754   4.951   3.197   1.676 -1.3684  1.0691 -0.7547
 7247SOL    HW328755   5.092   3.157   1.640 -0.8183  0.4683  1.8209
 7247SOL    MW428756   5.016   3.193   1.618  0.5987 -0.2810  0.5393
 7248SOL     OW28757   2.749   4.210   3.914  0.5556 -0.2097 -1.1374
 7248SOL    HW228758   2.722   4.125   3.878 -0.4722 -0.8799  1.0389
 7248SOL    HW328759   2.800   4.250   3.844 -0.2722 -1.9330 -2.8293
 7248SOL    MW428760   2.753   4.204   3.900 -1.1582 -0.1712 -0.2852
 7249SOL     OW28761   0.229   5.894   3.928  0.4771  0.0148 -0.1061
 7249SOL    HW228762   0.166   5.956   3.893 -0.4500 -1.0139 -0.3058
 7249SOL    HW328763   0.278   5.863   3.852  0.1511 -0.3607 -0.1649
 7249SOL    MW428764   0.227   5.898   3.914 -0.2544 -0.1931 -0.0782
 7250SOL     OW28765   1.276   1.394   2.385  1.0847  0.2725 -0.4010
 7250SOL    HW228766   1.217   1.325   2.416  2.9019 -0.7820  0.8848
 7250SOL    HW328767   1.232   1.429   2.308 -0.9580 -0.8070  0.1751
 7250SOL    MW428768   1.262   1.390   2.379  0.4007 -0.0508 -0.4610
 7251SOL     OW28769   3.857   1.336   2.362  0.1270  0.2588  0.0810
 7251SOL    HW228770   3.943   1.377   2.370  1.2401 -1.8547 -0.2000
 7251SOL    HW328771   3.862   1.286   2.280 -2.0517  1.4896 -0.9057
 7251SOL    MW428772   3.869   1.335   2.352 -0.6713  0.3332  0.0925
 7252SOL     OW28773   4.365   3.201   3.028  0.6825 -0.3742 -0.9796
 7252SOL    HW228774   4.403   3.285   3.005 -0.1394  0.1382 -0.5056
 7252SOL    HW328775   4.342   3.161   2.944  2.0718 -0.6151 -1.2593
 7252SOL    MW428776   4.367   3.207   3.014  0.1526  0.2798  0.3000
 7253SOL     OW28777   5.535   5.210   3.121  0.2230  0.3631  0.9061
 7253SOL    HW228778   5.623   5.180   3.143 -0.1846  0.0800  2.2783
 7253SOL    HW328779   5.515   5.275   3.188 -0.6566  0.3302  0.6869
 7253SOL    MW428780   5.544   5.215   3.133  0.0815 -0.0330  0.3309
 7254SOL     OW28781   1.974   0.166   4.490  0.2342 -0.3735 -0.5252
 7254SOL    HW228782   1.986   0.156   4.585  0.8875 -1.1381 -0.6762
 7254SOL    HW328783   2.017   0.089   4.453  0.9525  0.4707 -1.5018
 7254SOL    MW428784   1.981   0.155   4.498  0.1527  0.4651 -0.2223
 7255SOL     OW28785   1.554   2.558   1.742  0.0442 -0.6771  0.0781
 7255SOL    HW228786   1.586   2.572   1.831  2.1018 -0.1995 -0.6806
 7255SOL    HW328787   1.622   2.506   1.700 -0.4283 -0.0657 -1.5027
 7255SOL    MW428788   1.567   2.553   1.749  0.1474  0.2861 -0.1830
 7256SOL     OW28789   0.987   0.278   2.439  0.3614 -0.4376 -0.1847
 7256SOL    HW228790   1.006   0.370   2.458 -0.5452 -0.0610 -1.0521
 7256SOL    HW328791   0.997   0.270   2.344 -1.9167 -0.6413 -0.4602
 7256SOL    MW428792   0.991   0.289   2.429  0.0833 -0.3168 -0.2530
 7257SOL     OW28793   4.726   1.874   5.761  0.0475  0.0566 -0.1306
 7257SOL    HW228794   4.644   1.907   5.797  0.4304  0.7146  0.1644
 7257SOL    HW328795   4.701   1.797   5.711 -0.7770  0.3630 -0.2103
 7257SOL    MW428796   4.712   1.869   5.759  0.2093  0.3655  0.1729
 7258SOL     OW28797   2.811   1.452   5.086 -0.4235  0.3768 -0.2737
 7258SOL    HW228798   2.720   1.463   5.056  0.0197 -0.3984 -2.0240
 7258SOL    HW328799   2.861   1.517   5.036 -0.1916  2.1523  2.0522
 7258SOL    MW428800   2.805   1.462   5.075 -0.1130 -0.2992  0.1901
 7259SOL     OW28801   3.553   1.280   2.347 -0.1255 -0.5282  0.0099
 7259SOL    HW228802   3.645   1.285   2.324 -0.4481 -0.4946 -1.3331
 7259SOL    HW328803   3.526   1.192   2.321 -0.4287 -0.6147  0.5928
 7259SOL    MW428804   3.561   1.269   2.341  0.5602 -0.9072  0.3358
 7260SOL     OW28805   2.805   3.058   2.679 -0.3038  0.6786  0.4060
 7260SOL    HW228806   2.738   3.124   2.692  0.4322  1.5421 -0.0357
 7260SOL    HW328807   2.887   3.108   2.671  0.5454 -0.3930  1.9361
 7260SOL    MW428808   2.807   3.073   2.680  0.1556  0.3312 -0.1490
 7261SOL     OW28809   1.796   1.797   1.418 -0.1733  0.2917  0.4144
 7261SOL    HW228810   1.734   1.725   1.433  2.2128 -2.1184 -0.3208
 7261SOL    HW328811   1.874   1.772   1.468  0.7730  2.3993  0.0924
 7261SOL    MW428812   1.798   1.784   1.426  0.1154  0.8478  0.1109
 7262SOL     OW28813   1.035   5.756   3.258  0.5606 -0.4926 -0.1233
 7262SOL    HW228814   0.980   5.819   3.211  1.2521 -0.8006 -1.4034
 7262SOL    HW328815   1.120   5.799   3.267  1.2105 -1.3958 -1.5069
 7262SOL    MW428816   1.039   5.770   3.253 -0.5482 -0.3036  0.1270
 7263SOL     OW28817   2.283   5.382   1.549  0.4181 -0.1923  0.5868
 7263SOL    HW228818   2.347   5.411   1.484 -0.2302 -0.6802 -0.2984
 7263SOL    HW328819   2.328   5.313   1.598  1.2739  0.8885  1.3680
 7263SOL    MW428820   2.297   5.377   1.547 -0.0143  0.0270 -0.1231
 7264SOL     OW28821   6.147   3.371   5.950 -0.0547  0.2783  0.3660
 7264SOL    HW228822   6.078   3.323   5.996 -1.3286  2.1214  0.4800
 7264SOL    HW328823   6.193   3.420   6.018  0.1406  0.5199  0.0682
 7264SOL    MW428824   6.144   3.371   5.965  0.2173  0.1802 -0.1347
 7265SOL     OW28825   4.300   5.780   1.094  0.5970 -0.2358  0.0107
 7265SOL    HW228826   4.236   5.819   1.153  0.4448  0.4654 -0.6114
 7265SOL    HW328827   4.361   5.852   1.074  1.2341 -0.7352  0.1180
 7265SOL    MW428828   4.300   5.795   1.099  0.5786  0.4999  0.1043
 7266SOL     OW28829   2.406   1.439   5.333 -0.4620 -0.5804 -0.1697
 7266SOL    HW228830   2.316   1.450   5.363 -0.6804 -1.0985 -0.6175
 7266SOL    HW328831   2.446   1.525   5.346 -1.1207 -0.2490 -0.2982
 7266SOL    MW428832   2.400   1.452   5.339 -0.0461  0.3053 -0.4396
 7267SOL     OW28833   3.165   0.698   6.165  0.4418 -0.3418  0.7654
 7267SOL    HW228834   3.148   0.768   6.103  0.1861 -0.8394  0.2656
 7267SOL    HW328835   3.203   0.627   6.113  1.0681 -0.4294  1.3284
 7267SOL    MW428836   3.168   0.698   6.150  0.5789 -0.1892 -0.3965
 7268SOL     OW28837   3.406   2.674   4.013 -0.3565 -0.7523  0.1174
 7268SOL    HW228838   3.453   2.681   3.930 -0.0998  1.3999  0.3822
 7268SOL    HW328839   3.475   2.673   4.080 -0.6115 -0.5931  0.3850
 7268SOL    MW428840   3.422   2.675   4.011  0.8553 -0.6781 -0.8064
 7269SOL     OW28841   5.718   5.087   1.062  0.2062 -0.0529 -0.1292
 7269SOL    HW228842   5.674   5.071   0.979 -0.0010 -2.3469  0.3692
 7269SOL    HW328843   5.804   5.120   1.037  0.0693 -0.4844 -1.2475
 7269SOL    MW428844   5.723   5.089   1.048  0.3391 -0.3206  0.2624
 7270SOL     OW28845   5.136   1.759   6.326 -0.3378  0.1060  0.1059
 7270SOL    HW228846   5.079   1.775   6.251  0.3217 -0.0929 -0.4414
 7270SOL    HW328847   5.076   1.750   6.400 -1.1856 -2.2132 -0.7899
 7270SOL    MW428848   5.121   1.760   6.326  0.3848 -0.2756 -0.7767
 7271SOL     OW28849   2.852   1.074   4.435 -0.0348  0.1052  0.0830
 7271SOL    HW228850   2.915   1.052   4.365  0.5481 -1.3182  1.0000
 7271SOL    HW328851   2.766   1.066   4.393  0.3274  2.1898 -1.2251
 7271SOL    MW428852   2.849   1.070   4.420  0.0752 -0.4479  0.5757
 7272SOL     OW28853   1.459   6.351   3.584 -0.7679  0.2892  0.1503
 7272SOL    HW228854   1.532   6.353   3.646 -0.4522 -2.1166 -0.0600
 7272SOL    HW328855   1.499   6.372   3.500 -0.4602 -0.2034  0.1688
 7272SOL    MW428856   1.474   6.354   3.581 -0.2144 -0.2010  0.3071
 7273SOL     OW28857   1.517   3.828   2.991 -0.1346  0.2539  0.1486
 7273SOL    HW228858   1.446   3.870   3.038  0.8490  0.8538  1.1602
 7273SOL    HW328859   1.496   3.839   2.899 -1.3407  0.4023  0.4297
 7273SOL    MW428860   1.505   3.835   2.985  0.2657 -0.1156  0.0701
 7274SOL     OW28861   3.102   5.395   3.230 -0.2232 -0.2239  0.3504
 7274SOL    HW228862   3.076   5.305   3.211 -0.4927 -0.3748  1.3911
 7274SOL    HW328863   3.101   5.401   3.325  0.1269  0.7869  0.3043
 7274SOL    MW428864   3.099   5.384   3.240  0.3963 -0.4649 -0.0602
 7275SOL     OW28865   2.069   2.916   3.665 -0.1244  0.5535  0.3654
 7275SOL    HW228866   2.081   2.829   3.704  0.6999  0.3659 -0.2772
 7275SOL    HW328867   1.987   2.947   3.702 -0.6524 -0.6776  0.2826
 7275SOL    MW428868   2.060   2.909   3.675  0.3540 -0.3144  0.1837
 7276SOL     OW28869   1.397  -0.029   3.111  0.0427 -0.0961 -0.0298
 7276SOL    HW228870   1.417   0.058   3.074  3.0463  0.3945  2.4114
 7276SOL    HW328871   1.306  -0.022   3.139  0.2969  2.4324  0.4109
 7276SOL    MW428872   1.388  -0.016   3.110 -0.1522  0.8220 -0.1482
 7277SOL     OW28873   0.507   0.750   0.486 -0.0816 -0.1416 -0.4225
 7277SOL    HW228874   0.452   0.781   0.413 -1.6311  0.8988  1.1098
 7277SOL    HW328875   0.575   0.697   0.444 -0.7561  0.6453 -2.6364
 7277SOL    MW428876   0.508   0.747   0.471  0.4563  0.1050 -0.0662
 7278SOL     OW28877   5.376   1.451   5.196  0.0926  0.3569  0.2549
 7278SOL    HW228878   5.404   1.391   5.128  1.5144  0.1923  0.9498
 7278SOL    HW328879   5.431   1.529   5.184 -2.0556  1.8094 -0.9584
 7278SOL    MW428880   5.387   1.453   5.186  0.0310 -0.2029 -0.3424
 7279SOL     OW28881   0.244   4.875   1.826  0.1133 -0.3467  0.1820
 7279SOL    HW228882   0.207   4.963   1.817  2.9622  1.2428  2.2260
 7279SOL    HW328883   0.309   4.869   1.757 -1.1269 -1.5520 -0.9341
 7279SOL    MW428884   0.248   4.886   1.816 -0.1813 -0.0180  0.4022
 7280SOL     OW28885   2.541   3.087   3.985 -0.8072 -0.7086  0.4661
 7280SOL    HW228886   2.524   3.065   3.893  0.3157 -0.6120  0.2243
 7280SOL    HW328887   2.546   3.182   3.987  0.6989 -0.7618  0.3232
 7280SOL    MW428888   2.539   3.096   3.973 -0.0983  0.1399 -0.2184
 7281SOL     OW28889   5.733   4.749   1.323 -0.6285  0.5625 -0.5995
 7281SOL    HW228890   5.654   4.696   1.326  0.0160 -0.7102 -3.0901
 7281SOL    HW328891   5.777   4.721   1.243  3.5961 -0.5447  1.8236
 7281SOL    MW428892   5.728   4.739   1.312 -0.3302  0.1479  0.3499
 7282SOL     OW28893   3.942   1.251   1.047 -0.6782  0.2111 -0.1231
 7282SOL    HW228894   4.024   1.217   1.082 -1.0777 -1.2960 -0.5605
 7282SOL    HW328895   3.883   1.255   1.123 -0.3897  0.7117  0.0778
 7282SOL    MW428896   3.945   1.247   1.062  0.5066 -0.2006 -0.5616
 7283SOL     OW28897   4.340   5.815   4.989  0.4158 -0.8650  0.1111
 7283SOL    HW228898   4.366   5.799   4.899 -0.7844 -2.7268  0.0421
 7283SOL    HW328899   4.312   5.730   5.022 -0.7131  0.0595  1.7335
 7283SOL    MW428900   4.340   5.802   4.982  0.2218 -0.3427 -0.2033
 7284SOL     OW28901   0.991  -0.019   2.615  0.1624  0.6915 -0.8277
 7284SOL    HW228902   0.997   0.054   2.553  0.9823  1.1322 -0.2554
 7284SOL    HW328903   1.071  -0.070   2.599  0.6319  1.0822  0.1758
 7284SOL    MW428904   1.003  -0.016   2.605  0.3626  0.3027 -0.0098
 7285SOL     OW28905   5.969   2.409   0.906 -0.3124  0.3306  0.4448
 7285SOL    HW228906   5.891   2.433   0.956 -0.5762 -0.5926  0.4981
 7285SOL    HW328907   6.042   2.447   0.956 -0.6846  0.6676  0.7343
 7285SOL    MW428908   5.968   2.417   0.919 -0.0113  0.0144  0.3401
 7286SOL     OW28909   5.964   3.313   1.232 -0.0436  0.7851 -0.4224
 7286SOL    HW228910   5.946   3.364   1.153 -1.3955 -1.3653 -1.6280
 7286SOL    HW328911   5.960   3.222   1.202  0.7731 -0.0692  1.8847
 7286SOL    MW428912   5.961   3.307   1.218  0.0020 -0.3440  0.3656
 7287SOL     OW28913   5.894   5.737   6.392 -0.0055 -0.1205 -0.1689
 7287SOL    HW228914   5.804   5.722   6.362 -0.0630 -1.1876  0.4817
 7287SOL    HW328915   5.923   5.652   6.424  0.3725  0.7052  1.8751
 7287SOL    MW428916   5.886   5.724   6.392  0.1055 -0.2394  0.2995
 7288SOL     OW28917   5.826   4.693   2.888  0.4144 -0.6084  0.0868
 7288SOL    HW228918   5.876   4.763   2.846  0.4797  0.6242  2.0818
 7288SOL    HW328919   5.849   4.614   2.839  0.0419  0.7887 -2.4964
 7288SOL    MW428920   5.836   4.692   2.876  0.2185 -0.0936 -0.2822
 7289SOL     OW28921   3.976   0.760   0.366  0.4065  0.0567 -0.2691
 7289SOL    HW228922   3.959   0.673   0.401 -0.2482 -0.2724 -1.3585
 7289SOL    HW328923   4.003   0.744   0.275 -0.2656  1.0101 -0.6471
 7289SOL    MW428924   3.977   0.746   0.359  0.2298 -0.5964  0.1976
 7290SOL     OW28925   1.762   0.495   0.821  0.0850 -0.7519  0.1242
 7290SOL    HW228926   1.728   0.572   0.777 -0.4532 -0.4415  1.0472
 7290SOL    HW328927   1.818   0.452   0.756 -0.2460 -0.0215 -0.6573
 7290SOL    MW428928   1.765   0.499   0.807  0.4088  0.5112  0.5360
 7291SOL     OW28929   3.845   1.597   4.927  0.0987  0.6061  0.1926
 7291SOL    HW228930   3.850   1.584   4.833  1.2930  2.3776 -0.0452
 7291SOL    HW328931   3.852   1.692   4.939  1.5506  0.3324  2.1037
 7291SOL    MW428932   3.847   1.608   4.916  0.4100  0.9516  0.1732
 7292SOL     OW28933   0.343   5.814   0.987  0.3456  0.3569 -0.5135
 7292SOL    HW228934   0.318   5.820   1.079  0.4833  0.6200 -0.4920
 7292SOL    HW328935   0.267   5.847   0.940  0.0715 -0.2750 -0.5207
 7292SOL    MW428936   0.330   5.819   0.993  0.2690  0.1234  0.7958
 7293SOL     OW28937   2.802   3.372   3.636  0.6279  0.1682  0.0899
 7293SOL    HW228938   2.852   3.446   3.602  0.2923  0.6209  0.5590
 7293SOL    HW328939   2.798   3.388   3.731  1.2492 -0.8773  0.3071
 7293SOL    MW428940   2.808   3.384   3.644  0.1446  0.6472  0.4651
 7294SOL     OW28941   0.767   1.305   4.031 -0.0434  0.6162 -0.1981
 7294SOL    HW228942   0.862   1.306   4.046 -0.0980  1.0081  0.1464
 7294SOL    HW328943   0.751   1.222   3.987  0.3974  0.3090  0.1977
 7294SOL    MW428944   0.777   1.294   4.027 -0.1942 -0.0418  0.1815
 7295SOL     OW28945   3.290   6.166   3.785 -0.4702 -0.1604  0.3314
 7295SOL    HW228946   3.198   6.186   3.767 -0.8278 -1.1128  0.9951
 7295SOL    HW328947   3.320   6.236   3.842 -0.7543  0.2015  0.0415
 7295SOL    MW428948   3.282   6.178   3.790  0.3389  0.5773  0.1283
 7296SOL     OW28949   3.565   5.551   4.228 -0.0451  0.1792 -0.0570
 7296SOL    HW228950   3.533   5.479   4.174 -0.4983  0.6363 -0.4137
 7296SOL    HW328951   3.514   5.627   4.198 -0.4898  0.3927  1.1785
 7296SOL    MW428952   3.554   5.552   4.217  0.1291  0.3107  0.0382
 7297SOL     OW28953   5.302   3.750   1.740  0.0879  0.0945 -0.1115
 7297SOL    HW228954   5.206   3.747   1.744  0.1481 -0.4173  1.2810
 7297SOL    HW328955   5.329   3.778   1.827  1.2762 -2.1436  0.2986
 7297SOL    MW428956   5.293   3.753   1.752 -0.1749  0.0847  0.3096
 7298SOL     OW28957   5.902   1.062   3.270 -0.4972  0.2328  0.0424
 7298SOL    HW228958   5.908   0.972   3.300 -0.8587  0.8264  2.0140
 7298SOL    HW328959   5.808   1.083   3.274 -0.3578  0.8633  0.1260
 7298SOL    MW428960   5.890   1.053   3.274  0.1462  1.0875  0.1875
 7299SOL     OW28961   4.001   6.247   3.444  0.0571 -0.1040 -0.0802
 7299SOL    HW228962   3.939   6.175   3.428  0.7416 -0.6320 -0.3869
 7299SOL    HW328963   4.076   6.205   3.486 -0.3266  0.7419  1.5212
 7299SOL    MW428964   4.002   6.232   3.448  0.2362  0.1038  0.5575
 7300SOL     OW28965   5.466   5.266   5.634 -0.1175 -0.0025  0.6493
 7300SOL    HW228966   5.392   5.324   5.654  0.4894  0.7718  0.6713
 7300SOL    HW328967   5.544   5.320   5.648  0.5101 -1.1507  1.8352
 7300SOL    MW428968   5.466   5.281   5.639 -0.1368  0.2926 -0.6906
 7301SOL     OW28969   6.438   1.937   5.258 -0.6529  0.3105 -0.6302
 7301SOL    HW228970   6.387   1.986   5.322 -0.6857 -1.8132  1.1078
 7301SOL    HW328971   6.420   1.980   5.174 -3.6110  0.9626  0.2223
 7301SOL    MW428972   6.429   1.949   5.255  0.0041  0.2008 -0.9556
 7302SOL     OW28973   5.050   4.089   1.925  0.6149 -0.0303  0.4287
 7302SOL    HW228974   5.065   3.997   1.943  0.9244 -0.1720 -0.5234
 7302SOL    HW328975   4.960   4.093   1.892  1.0786 -0.2026 -0.9025
 7302SOL    MW428976   5.040   4.078   1.923  0.0606 -0.2184  0.4519
 7303SOL     OW28977   4.814   2.856   0.913  0.1059 -0.2563 -0.0253
 7303SOL    HW228978   4.869   2.932   0.894  2.4476 -1.5886  1.0120
 7303SOL    HW328979   4.808   2.854   1.008 -0.2281 -1.1625 -0.0551
 7303SOL    MW428980   4.820   2.866   0.923 -0.4432  0.1880  0.1309
 7304SOL     OW28981   5.601   1.871   5.959 -0.2924 -0.0363  0.0992
 7304SOL    HW228982   5.638   1.794   5.916 -0.0711  0.0363  0.1576
 7304SOL    HW328983   5.652   1.944   5.924  0.4891 -0.0564  1.1431
 7304SOL    MW428984   5.613   1.870   5.948 -0.0826 -0.2826 -0.1474
 7305SOL     OW28985   5.322   5.244   5.235  0.2938 -0.5904 -0.0555
 7305SOL    HW228986   5.324   5.221   5.142 -0.1342 -1.0695  0.0429
 7305SOL    HW328987   5.256   5.314   5.241  1.8076  0.9194 -0.3976
 7305SOL    MW428988   5.313   5.250   5.224 -0.3349  0.3915 -0.0131
 7306SOL     OW28989   4.881   5.582   5.968 -0.1766  0.0849  0.4338
 7306SOL    HW228990   4.880   5.669   5.929  0.4569  0.0242  0.2591
 7306SOL    HW328991   4.823   5.588   6.043  0.3730  0.8487  0.8112
 7306SOL    MW428992   4.873   5.594   5.972 -0.0888 -0.3252  0.6478
 7307SOL     OW28993   6.041   0.484   4.532 -0.0604  0.2470  0.0063
 7307SOL    HW228994   5.978   0.498   4.461 -0.6919  2.2820  0.8756
 7307SOL    HW328995   6.114   0.438   4.491 -1.1419 -0.1484 -1.5580
 7307SOL    MW428996   6.042   0.480   4.517 -0.1886  0.0709 -0.4340
 7308SOL     OW28997   4.619   2.523   2.045 -0.2082  0.1710 -0.1065
 7308SOL    HW228998   4.541   2.570   2.018 -1.1738 -1.2515  0.1147
 7308SOL    HW328999   4.614   2.439   2.000  0.7276 -0.2913  0.6153
 7308SOL    MW429000   4.608   2.518   2.036 -0.3101 -0.6160  0.3093
 7309SOL     OW29001   4.590   5.717   3.214  0.5931 -0.3346  0.1549
 7309SOL    HW229002   4.623   5.640   3.170  1.1198  0.4748 -0.9001
 7309SOL    HW329003   4.667   5.769   3.234  0.1189  0.7733 -0.7926
 7309SOL    MW429004   4.604   5.714   3.211 -0.3877  0.1555  0.3265
 7310SOL     OW29005   2.231   0.464   6.207  0.0169 -0.8910 -0.3028
 7310SOL    HW229006   2.265   0.401   6.271  1.9141 -0.2626 -0.6030
 7310SOL    HW329007   2.144   0.487   6.240 -0.9124 -3.8617 -0.3669
 7310SOL    MW429008   2.224   0.459   6.220 -0.3786  0.3249  0.2080
 7311SOL     OW29009   5.659   4.809   4.826 -0.2776  0.4755  0.1091
 7311SOL    HW229010   5.619   4.746   4.886 -0.4584  0.6620  0.1883
 7311SOL    HW329011   5.751   4.811   4.851 -0.2473  0.1616  0.0333
 7311SOL    MW429012   5.665   4.801   4.837  0.0025 -0.2416  0.0110
 7312SOL     OW29013   1.329   4.922   3.101 -0.1473  0.2133 -0.0306
 7312SOL    HW229014   1.236   4.910   3.085 -0.0816 -1.5137  0.6034
 7312SOL    HW329015   1.372   4.880   3.026  0.1023 -0.6577  0.5784
 7312SOL    MW429016   1.323   4.915   3.089 -0.4306  0.2682 -0.0536
 7313SOL     OW29017   1.459   6.222   4.988 -0.2668 -0.0355 -0.0017
 7313SOL    HW229018   1.496   6.184   5.067  0.7853  0.3543 -0.2887
 7313SOL    HW329019   1.516   6.192   4.917 -0.2213  0.9236 -0.4008
 7313SOL    MW429020   1.472   6.213   4.989  0.1718  0.1972 -0.6316
 7314SOL     OW29021   5.013   3.637   5.749 -0.3404 -0.2590 -0.1094
 7314SOL    HW229022   4.975   3.614   5.834 -0.4869 -1.4188 -0.4739
 7314SOL    HW329023   5.019   3.554   5.701  1.9950 -0.0504 -0.3423
 7314SOL    MW429024   5.009   3.623   5.754  0.2108  0.2666  0.1332
 7315SOL     OW29025   3.864   5.320   1.983  0.8373 -0.3142 -0.0751
 7315SOL    HW229026   3.949   5.295   2.019  1.7196  2.7675  0.2560
 7315SOL    HW329027   3.830   5.385   2.044  0.3361  1.8009 -2.4426
 7315SOL    MW429028   3.871   5.325   1.996  0.3189  0.1526 -0.4275
 7316SOL     OW29029   5.785   3.812   4.349  0.4171 -0.2129 -0.1411
 7316SOL    HW229030   5.778   3.729   4.300 -4.1280 -0.8270  1.0569
 7316SOL    HW329031   5.796   3.785   4.440  0.8675  0.6251  0.0587
 7316SOL    MW429032   5.785   3.797   4.354 -0.0254 -0.2478 -0.4850
 7317SOL     OW29033   3.419   6.184   6.322  0.9627 -0.1872  0.8515
 7317SOL    HW229034   3.405   6.179   6.416  0.5854  2.1771  0.9800
 7317SOL    HW329035   3.510   6.214   6.312  0.5269  1.1155  0.5537
 7317SOL    MW429036   3.429   6.187   6.333 -0.4138  0.4610 -0.0927
 7318SOL     OW29037   1.034   4.714   6.155  0.5336  0.0852 -0.6319
 7318SOL    HW229038   1.076   4.655   6.217  0.2913 -0.5719 -1.0847
 7318SOL    HW329039   1.081   4.797   6.165 -0.1902  0.3183  1.2009
 7318SOL    MW429040   1.045   4.717   6.164  0.4009 -0.4883 -0.5543
 7319SOL     OW29041   2.686   0.196   2.674 -0.2851 -0.4835 -0.3727
 7319SOL    HW229042   2.625   0.213   2.746  1.8202  0.3853  1.3354
 7319SOL    HW329043   2.630   0.176   2.599 -2.6325  0.2111  1.0808
 7319SOL    MW429044   2.671   0.196   2.673 -0.0546  0.1670  0.3421
 7320SOL     OW29045   2.343   4.192   3.285 -0.4530  0.2025  0.0752
 7320SOL    HW229046   2.345   4.191   3.381  0.0332  0.4373  0.0686
 7320SOL    HW329047   2.419   4.140   3.259 -0.0179  0.9643 -0.1847
 7320SOL    MW429048   2.353   4.185   3.294  0.0843 -0.1183 -0.7613
 7321SOL     OW29049   5.795   2.064   5.026  0.8486  0.0694 -0.4491
 7321SOL    HW229050   5.735   2.067   4.952 -0.4911 -2.3818  0.4128
 7321SOL    HW329051   5.863   2.003   4.999  0.3017 -0.9103  0.3265
 7321SOL    MW429052   5.796   2.057   5.013  0.1781 -0.6842  0.2928
 7322SOL     OW29053   3.733   5.862   5.931 -0.3282  0.0351 -0.0614
 7322SOL    HW229054   3.690   5.819   5.857 -0.4513  0.1918 -0.0821
 7322SOL    HW329055   3.746   5.953   5.902  2.0854 -0.5359 -0.9236
 7322SOL    MW429056   3.729   5.869   5.917 -0.4825  0.1130 -0.4120
 7323SOL     OW29057   0.242   4.049   4.248  0.3503  0.5441 -0.3149
 7323SOL    HW229058   0.290   3.967   4.234 -0.2367  0.1119  0.1572
 7323SOL    HW329059   0.160   4.022   4.289 -1.2808  1.0075 -2.9950
 7323SOL    MW429060   0.237   4.035   4.251  0.4973 -0.0929  0.1061
 7324SOL     OW29061   0.299   5.287   1.644 -0.1989 -0.5033 -0.3046
 7324SOL    HW229062   0.224   5.253   1.692 -0.2125  0.4875  0.4101
 7324SOL    HW329063   0.304   5.379   1.670  2.7371 -1.0874  1.5506
 7324SOL    MW429064   0.290   5.295   1.654 -0.1090 -0.0888  0.5576
 7325SOL     OW29065   6.052   5.916   1.182 -0.1348 -0.7969  0.1702
 7325SOL    HW229066   5.962   5.892   1.162  0.3125 -3.0575  0.6401
 7325SOL    HW329067   6.100   5.902   1.101 -0.1473  0.2387 -0.0318
 7325SOL    MW429068   6.047   5.911   1.169  0.4220  0.1901 -0.2726
 7326SOL     OW29069   0.576   4.289   4.977 -0.2185  0.2482 -0.2291
 7326SOL    HW229070   0.492   4.325   4.949 -0.5126 -0.4701 -0.2967
 7326SOL    HW329071   0.623   4.271   4.895  0.3088  1.3314 -0.1818
 7326SOL    MW429072   0.572   4.291   4.962 -0.3637  0.2317  0.0369
 7327SOL     OW29073   4.596   5.392   2.602 -0.2652 -0.3852  0.2972
 7327SOL    HW229074   4.531   5.395   2.532  0.9485  1.5956 -0.8368
 7327SOL    HW329075   4.581   5.472   2.652 -0.4575 -1.2888  1.7391
 7327SOL    MW429076   4.585   5.403   2.599 -0.0835 -0.0949 -0.2939
 7328SOL     OW29077   5.819   5.304   5.389  0.1887  0.0378  0.3649
 7328SOL    HW229078   5.909   5.322   5.361 -0.1922  0.2481 -0.7509
 7328SOL    HW329079   5.821   5.212   5.415  0.9687  0.3224  1.3738
 7328SOL    MW429080   5.831   5.294   5.389  0.2372 -0.4445 -0.2146
 7329SOL     OW29081   3.949   5.616   0.880  0.1748  0.0649  0.0950
 7329SOL    HW229082   3.912   5.591   0.964  0.0803  0.1227  0.0709
 7329SOL    HW329083   3.968   5.709   0.888  1.8406 -0.3024  0.6690
 7329SOL    MW429084   3.946   5.625   0.892  0.0965 -0.6087 -0.0390
 7330SOL     OW29085   5.982   5.134   5.126 -0.2304 -0.0922 -0.5037
 7330SOL    HW229086   6.048   5.075   5.091 -1.0456 -0.9009 -0.6914
 7330SOL    HW329087   5.988   5.212   5.070  1.2486  0.2726  0.1125
 7330SOL    MW429088   5.991   5.137   5.114  0.2402 -0.3194  0.2842
 7331SOL     OW29089   0.888   3.663   3.091  0.3309  0.0846 -0.0896
 7331SOL    HW229090   0.890   3.574   3.127 -0.0522 -0.8249 -2.2122
 7331SOL    HW329091   0.814   3.704   3.136  0.5704 -0.6094  0.9938
 7331SOL    MW429092   0.879   3.656   3.102  0.3782  0.6171 -0.2910
 7332SOL     OW29093   4.874   1.997   2.279 -0.3499  0.4675 -0.1849
 7332SOL    HW229094   4.925   2.028   2.204  0.1286 -0.1161 -0.1041
 7332SOL    HW329095   4.813   1.934   2.241 -0.4622  0.5601 -0.1588
 7332SOL    MW429096   4.873   1.993   2.264  0.3472 -0.1645  0.2156
 7333SOL     OW29097   3.507   5.438   4.894  0.5008  0.5885  1.0547
 7333SOL    HW229098   3.485   5.352   4.929 -0.2087  0.2298 -0.2007
 7333SOL    HW329099   3.597   5.454   4.923  0.7682 -0.7389  0.9943
 7333SOL    MW429100   3.516   5.429   4.902 -0.3017 -0.1877 -0.0467
 7334SOL     OW29101   5.409   4.111   0.351 -0.1564 -0.3526  0.1753
 7334SOL    HW229102   5.328   4.079   0.392  0.3391  0.0828  1.5550
 7334SOL    HW329103   5.467   4.035   0.350  0.1301 -0.1675  1.1254
 7334SOL    MW429104   5.406   4.097   0.357 -0.4289  0.1215  0.2827
 7335SOL     OW29105   3.295   1.412   2.657 -0.1130  0.0781  0.2839
 7335SOL    HW229106   3.385   1.434   2.636 -0.8684  1.4144 -1.8206
 7335SOL    HW329107   3.293   1.316   2.659  1.5913  0.0320  1.7527
 7335SOL    MW429108   3.306   1.402   2.655 -0.1763  0.7675 -0.5079
 7336SOL     OW29109   1.580   5.037   0.284 -0.0434 -0.3489 -0.0316
 7336SOL    HW229110   1.635   4.959   0.287  0.1622 -0.1799  1.2716
 7336SOL    HW329111   1.515   5.023   0.352 -0.8346  0.0327 -0.6921
 7336SOL    MW429112   1.579   5.025   0.293  0.3061  0.1842 -0.1147
 7337SOL     OW29113   4.252   4.469   0.581  0.1939 -0.5953  0.4007
 7337SOL    HW229114   4.334   4.474   0.532 -0.1333 -1.5153 -0.2768
 7337SOL    HW329115   4.213   4.386   0.554 -1.0381 -0.1019  0.5896
 7337SOL    MW429116   4.257   4.459   0.571  0.4207  0.2522 -0.0843
 7338SOL     OW29117   4.552   1.415   6.211 -0.2436 -0.3050 -0.0462
 7338SOL    HW229118   4.568   1.348   6.278 -2.5441 -2.5604 -1.5632
 7338SOL    HW329119   4.571   1.498   6.255  1.5308 -1.8363  2.3209
 7338SOL    MW429120   4.557   1.417   6.226 -0.5417 -0.1853  0.4648
 7339SOL     OW29121   4.138   6.041   0.887 -0.0696 -0.2006  0.4821
 7339SOL    HW229122   4.178   6.121   0.854 -0.0862 -0.0328  0.8583
 7339SOL    HW329123   4.108   5.995   0.809 -3.1456  1.7455  0.3204
 7339SOL    MW429124   4.139   6.045   0.873  0.1644 -0.2866 -0.1921
 7340SOL     OW29125   6.398   5.629   1.582 -0.1941  0.6966 -0.4204
 7340SOL    HW229126   6.488   5.598   1.591 -0.3521  0.4294  0.3482
 7340SOL    HW329127   6.385   5.686   1.658  0.3719  3.4159 -2.2112
 7340SOL    MW429128   6.408   5.633   1.593 -0.1489 -0.3752 -0.1977
 7341SOL     OW29129   1.199   2.027   4.441  0.3614  0.1180  0.5786
 7341SOL    HW229130   1.138   1.953   4.441  1.7811 -1.1047  1.5314
 7341SOL    HW329131   1.220   2.042   4.349 -0.8128  0.1077  0.2938
 7341SOL    MW429132   1.194   2.019   4.429 -0.0206 -0.2211 -0.1069
 7342SOL     OW29133   5.860   0.584   3.698 -0.3261  0.1239  0.1604
 7342SOL    HW229134   5.907   0.664   3.675  1.0446 -1.1293 -1.7215
 7342SOL    HW329135   5.881   0.569   3.791 -1.4612  2.4331  0.8455
 7342SOL    MW429136   5.869   0.592   3.708  0.3647  0.3977 -0.1602
 7343SOL     OW29137   2.331   3.330   3.525  0.3004  0.5929 -0.4783
 7343SOL    HW229138   2.424   3.311   3.521  0.3527  0.7183  0.0559
 7343SOL    HW329139   2.302   3.293   3.609 -0.1102  0.6359 -0.5961
 7343SOL    MW429140   2.339   3.322   3.535  0.1079  0.4505 -0.0918
 7344SOL     OW29141   2.994   2.086   0.756 -0.7010 -0.4699  0.3554
 7344SOL    HW229142   3.057   2.083   0.828 -1.1915  0.7847  0.8839
 7344SOL    HW329143   2.918   2.038   0.789 -1.4491  1.2397  1.2762
 7344SOL    MW429144   2.992   2.079   0.770 -0.0661  0.6691 -0.0432
 7345SOL     OW29145   3.263   0.959   5.116 -0.5495 -0.3009  0.2394
 7345SOL    HW229146   3.195   0.919   5.170 -0.1875 -0.6736  0.4191
 7345SOL    HW329147   3.249   1.053   5.127 -1.7399 -0.3573 -0.6133
 7345SOL    MW429148   3.252   0.966   5.124 -0.2372 -1.0345 -0.2073
 7346SOL     OW29149   5.064   5.813   4.762 -0.3762  0.2557  0.3640
 7346SOL    HW229150   5.046   5.881   4.827  0.3595  0.3222  0.5068
 7346SOL    HW329151   5.062   5.731   4.812 -0.7932  0.2115  0.2798
 7346SOL    MW429152   5.061   5.811   4.777 -0.8545  0.0139  0.0621
 7347SOL     OW29153   3.910   1.499   4.070  0.4228 -0.2908 -0.0616
 7347SOL    HW229154   3.928   1.429   4.132  0.5086 -0.9518 -0.8192
 7347SOL    HW329155   3.815   1.512   4.075  0.4434 -0.2591  0.2807
 7347SOL    MW429156   3.900   1.492   4.079  0.9799  0.0600 -0.4235
 7348SOL     OW29157   4.294   1.168   1.637 -0.6715  0.1347  0.1101
 7348SOL    HW229158   4.230   1.097   1.627  0.8839 -1.6486  1.8362
 7348SOL    HW329159   4.339   1.171   1.552 -2.1700  0.5836 -0.7061
 7348SOL    MW429160   4.292   1.159   1.624  0.1796 -0.1224 -0.6676
 7349SOL     OW29161   1.463   3.129   2.549  0.1678 -0.2272 -0.0071
 7349SOL    HW229162   1.410   3.074   2.490  0.3876  0.6188 -1.0223
 7349SOL    HW329163   1.480   3.073   2.625 -1.6578 -0.7204  0.0716
 7349SOL    MW429164   1.458   3.114   2.551  0.0276  0.3108  0.5569
 7350SOL     OW29165   2.649   3.061   2.245 -0.4949 -0.3285  0.6614
 7350SOL    HW229166   2.685   3.150   2.248 -0.9443 -0.1609  1.8813
 7350SOL    HW329167   2.701   3.011   2.308 -0.6454 -0.7719  0.4412
 7350SOL    MW429168   2.660   3.066   2.254  0.1798 -0.2821 -0.4307
 7351SOL     OW29169   2.781   2.607   5.298  0.3487  0.1154 -0.2567
 7351SOL    HW229170   2.849   2.542   5.281 -1.3985 -1.2221 -3.0181
 7351SOL    HW329171   2.808   2.684   5.247 -0.1374 -0.4321 -1.3926
 7351SOL    MW429172   2.793   2.609   5.289  0.3602  0.1488  0.3315
 7352SOL     OW29173   2.349   3.957   0.689  0.0924  0.5476 -0.1797
 7352SOL    HW229174   2.406   4.032   0.708  0.7415  0.3921 -1.3779
 7352SOL    HW329175   2.265   3.996   0.665  0.1873  0.8518 -0.0271
 7352SOL    MW429176   2.346   3.972   0.689 -0.4274 -0.0017 -0.3245
 7353SOL     OW29177   3.671   6.306   3.990 -0.1673 -0.1903 -0.4196
 7353SOL    HW229178   3.695   6.251   4.064 -0.6427  1.9292  1.4125
 7353SOL    HW329179   3.754   6.342   3.958 -0.0693 -0.1088 -0.0750
 7353SOL    MW429180   3.685   6.304   3.995 -0.1330 -0.2518 -0.1451
 7354SOL     OW29181   0.382   4.849   5.939 -0.4834 -0.2680 -0.1107
 7354SOL    HW229182   0.461   4.794   5.933 -0.8678 -0.9248  0.7002
 7354SOL    HW329183   0.411   4.927   5.985 -0.5187 -0.9425  1.0874
 7354SOL    MW429184   0.396   4.852   5.944 -0.2691  0.3218 -0.1642
 7355SOL     OW29185   5.121   4.551   5.356  0.0876  0.5714  0.1650
 7355SOL    HW229186   5.090   4.555   5.266 -0.1080 -1.1712  0.1169
 7355SOL    HW329187   5.212   4.522   5.349  0.0742  0.4311  0.5192
 7355SOL    MW429188   5.129   4.548   5.343  0.1485  0.5999  0.4087
 7356SOL     OW29189   5.877   3.174   0.057 -0.1561  0.3502  0.3565
 7356SOL    HW229190   5.883   3.107  -0.012 -0.1760  1.5418 -0.8386
 7356SOL    HW329191   5.788   3.165   0.091  0.0743 -0.7106  0.7325
 7356SOL    MW429192   5.866   3.164   0.052 -0.1287  0.1627  0.5040
 7357SOL     OW29193   5.627   2.598   1.631 -0.2542  0.3468 -0.2261
 7357SOL    HW229194   5.599   2.650   1.556  1.2654  1.6172  0.0278
 7357SOL    HW329195   5.714   2.632   1.652 -0.3719 -0.4293  1.7103
 7357SOL    MW429196   5.635   2.609   1.624  0.0255  0.2036 -0.1592
 7358SOL     OW29197   3.546   3.189   2.037  0.3622  0.2560 -0.6948
 7358SOL    HW229198   3.566   3.133   2.113 -0.5684  1.4747  0.5006
 7358SOL    HW329199   3.613   3.257   2.039 -0.0325  0.6490 -0.5717
 7358SOL    MW429200   3.557   3.190   2.048  0.1095  0.2681  0.5015
 7359SOL     OW29201   6.088   2.842   0.863 -0.0735  0.2967 -0.3731
 7359SOL    HW229202   6.013   2.792   0.831  1.2363 -0.0572 -3.2235
 7359SOL    HW329203   6.059   2.934   0.858 -0.8854  0.0815  0.2297
 7359SOL    MW429204   6.074   2.848   0.858  0.2397  0.2789  0.2148
 7360SOL     OW29205   4.771   2.297   4.946 -0.2101  0.4009 -0.3532
 7360SOL    HW229206   4.696   2.244   4.973  0.2118  0.6796  1.5295
 7360SOL    HW329207   4.735   2.357   4.880 -1.7185  0.6420  0.6255
 7360SOL    MW429208   4.756   2.298   4.941 -0.6221 -0.6041  0.3442
 7361SOL     OW29209   2.262   3.547   2.637 -0.3511  0.7629 -0.3761
 7361SOL    HW229210   2.260   3.530   2.731  0.9885 -0.0795 -0.4766
 7361SOL    HW329211   2.339   3.499   2.605 -2.3635 -1.4832 -2.3595
 7361SOL    MW429212   2.272   3.538   2.645  0.8018 -0.2494  0.5266
 7362SOL     OW29213   5.953   3.396   1.808  0.3564  0.2309 -0.0186
 7362SOL    HW229214   5.951   3.370   1.715 -0.3166  1.5305 -0.3892
 7362SOL    HW329215   5.862   3.388   1.836  0.0517  2.4545 -0.2460
 7362SOL    MW429216   5.941   3.391   1.799  0.9441  0.3685 -0.0667
 7363SOL     OW29217   1.238   1.967   5.169  0.1349  0.0232 -0.0095
 7363SOL    HW229218   1.147   1.961   5.139 -0.0743 -0.5596  0.7095
 7363SOL    HW329219   1.285   1.904   5.114 -0.2155 -0.9177  0.7372
 7363SOL    MW429220   1.232   1.958   5.158 -0.0313 -0.7622  0.7749
 7364SOL     OW29221   3.423   0.447   2.129  0.4571  0.3800  0.2760
 7364SOL    HW229222   3.337   0.464   2.092  0.8884  0.7207 -0.6053
 7364SOL    HW329223   3.482   0.448   2.054  1.3465  0.9638  0.9587
 7364SOL    MW429224   3.419   0.449   2.114  0.2332  0.1991 -0.0583
 7365SOL     OW29225   4.675   3.816   1.274 -0.5152  0.9222  0.0951
 7365SOL    HW229226   4.730   3.894   1.266 -1.1270  1.2590 -1.0078
 7365SOL    HW329227   4.686   3.770   1.191  0.5057 -0.6570  1.0329
 7365SOL    MW429228   4.684   3.820   1.262  0.2432 -0.5481  0.0107
 7366SOL     OW29229   3.370   0.090   0.200  0.1504 -0.3221 -0.5691
 7366SOL    HW229230   3.443   0.029   0.190 -0.0737 -0.5369 -0.9315
 7366SOL    HW329231   3.403   0.173   0.165  0.0918 -0.5248 -1.1228
 7366SOL    MW429232   3.384   0.093   0.194  0.6537  0.4410  0.3747
 7367SOL     OW29233   3.100   3.558   0.033  0.9547  0.3999  0.1729
 7367SOL    HW229234   3.172   3.585   0.091  0.9285 -0.6216  0.6875
 7367SOL    HW329235   3.021   3.589   0.077  0.9211 -0.5382  0.7908
 7367SOL    MW429236   3.099   3.566   0.046  0.5538 -0.0194 -0.1546
 7368SOL     OW29237   4.949   0.127   4.029 -1.3553  0.6640 -0.3328
 7368SOL    HW229238   5.002   0.140   3.951 -0.8247  2.3532  0.2543
 7368SOL    HW329239   4.977   0.042   4.063  1.0100  1.4575 -0.0783
 7368SOL    MW429240   4.960   0.118   4.024 -0.7262 -0.5351 -0.0348
 7369SOL     OW29241   0.830   1.916   4.010  0.0558  0.1686  0.3801
 7369SOL    HW229242   0.862   1.976   4.077 -1.1428  0.7017  0.5027
 7369SOL    HW329243   0.745   1.952   3.984  0.6345  0.1765 -1.6945
 7369SOL    MW429244   0.823   1.928   4.015 -0.0288 -0.1010  0.2898
 7370SOL     OW29245   4.695   3.855   3.687  0.0791  0.2967 -0.8895
 7370SOL    HW229246   4.719   3.790   3.754 -0.6152  0.2200 -0.7037
 7370SOL    HW329247   4.615   3.895   3.721 -0.0223  0.5848 -1.4595
 7370SOL    MW429248   4.687   3.851   3.701 -0.0787  0.0807  0.2945
 7371SOL     OW29249   4.918   1.097   1.533  0.1866  0.2487 -0.0404
 7371SOL    HW229250   4.924   1.188   1.564  0.4343  0.5040 -0.8080
 7371SOL    HW329251   4.865   1.103   1.453  2.4904  0.1357 -1.6568
 7371SOL    MW429252   4.912   1.110   1.527  0.1590 -0.5790 -0.3046
 7372SOL     OW29253   1.191   1.465   1.016  0.3363  0.3770 -0.2787
 7372SOL    HW229254   1.264   1.404   1.007  0.2713  0.3590 -0.6903
 7372SOL    HW329255   1.233   1.552   1.014  0.4150  0.3529  0.1785
 7372SOL    MW429256   1.206   1.469   1.015  0.1481  0.0248 -0.1530
 7373SOL     OW29257   4.067   2.504   2.251 -0.1293 -0.5162 -0.7572
 7373SOL    HW229258   4.089   2.483   2.342 -1.8397 -2.1558 -0.6481
 7373SOL    HW329259   4.060   2.418   2.208  1.7874  0.2492 -2.7602
 7373SOL    MW429260   4.069   2.490   2.258  0.0502 -1.0765 -0.3322
 7374SOL     OW29261   5.712   5.551   0.444 -0.1040 -0.2384 -0.2338
 7374SOL    HW229262   5.669   5.501   0.513  0.5467 -0.4894  0.0044
 7374SOL    HW329263   5.647   5.615   0.416 -0.1719  0.2911  1.0447
 7374SOL    MW429264   5.698   5.553   0.449  0.1294 -0.0571  0.0169
 7375SOL     OW29265   6.138   1.015   2.625 -0.5229  0.4004 -0.0013
 7375SOL    HW229266   6.049   1.029   2.593  0.1743 -1.1734 -3.0662
 7375SOL    HW329267   6.180   0.965   2.555  2.6804  0.7773  1.4964
 7375SOL    MW429268   6.132   1.010   2.611  0.0624 -0.2580  0.3226
 7376SOL     OW29269   4.056   1.618   4.623  0.3455 -0.2942  0.1102
 7376SOL    HW229270   4.087   1.709   4.632  1.1662 -0.5490  0.0028
 7376SOL    HW329271   4.121   1.566   4.670 -0.6820 -0.7467  1.0439
 7376SOL    MW429272   4.069   1.623   4.630 -0.2420 -0.0461 -0.2251
 7377SOL     OW29273   6.250   4.190   2.942  0.3294 -0.1211 -0.0799
 7377SOL    HW229274   6.229   4.269   2.991 -0.5944  0.0790 -0.7575
 7377SOL    HW329275   6.227   4.118   3.000  0.2816  0.1119  0.1888
 7377SOL    MW429276   6.244   4.191   2.956  0.7107 -0.0737  0.7448
 7378SOL     OW29277   0.446   3.712   6.113  0.4491 -0.2675  0.1156
 7378SOL    HW229278   0.414   3.767   6.184 -0.0175  0.8539 -0.9355
 7378SOL    HW329279   0.449   3.769   6.036 -0.0469 -1.6864 -1.0261
 7378SOL    MW429280   0.442   3.727   6.112 -0.3275 -0.0447 -0.6498
 7379SOL     OW29281   5.223   5.251   2.071 -0.4504  0.5221  0.3665
 7379SOL    HW229282   5.294   5.200   2.111 -0.2849  0.9414  0.6103
 7379SOL    HW329283   5.169   5.279   2.144 -0.9289  0.1329  0.1764
 7379SOL    MW429284   5.225   5.248   2.086  0.1405 -0.3993  0.5773
 7380SOL     OW29285   1.814  -0.018   1.915  0.1137  0.3406  0.2566
 7380SOL    HW229286   1.825  -0.066   1.833  0.9913  1.3350 -0.2273
 7380SOL    HW329287   1.888  -0.046   1.969 -0.7739 -0.7516  0.9683
 7380SOL    MW429288   1.825  -0.028   1.911 -0.6363  0.4323  0.1101
 7381SOL     OW29289   2.755   2.628   2.162 -0.1448  0.4865 -0.6252
 7381SOL    HW229290   2.739   2.718   2.132 -0.2945  0.9565  0.7914
 7381SOL    HW329291   2.824   2.596   2.104  0.6372  1.8838 -0.5073
 7381SOL    MW429292   2.762   2.636   2.150  0.0461 -0.5041  0.1716
 7382SOL     OW29293   6.084   4.551   3.972  0.3738 -0.0910  0.1662
 7382SOL    HW229294   6.045   4.467   3.947  0.0120  0.0722  0.1721
 7382SOL    HW329295   6.120   4.586   3.891  0.2703 -0.1211  0.1062
 7382SOL    MW429296   6.083   4.545   3.958 -0.2084  0.1521  0.3407
 7383SOL     OW29297   5.002   5.840   6.438  0.1717  0.2916 -0.2178
 7383SOL    HW229298   4.947   5.910   6.474 -0.1235 -0.3209  0.5605
 7383SOL    HW329299   4.940   5.772   6.411  0.4282  0.5022 -1.3874
 7383SOL    MW429300   4.986   5.840   6.439 -0.0897 -0.0413  0.0114
 7384SOL     OW29301   4.151   1.160   4.522 -0.8396 -0.1767 -0.8439
 7384SOL    HW229302   4.101   1.084   4.552  0.1674 -0.1740  0.9522
 7384SOL    HW329303   4.175   1.140   4.431 -2.1335 -1.1674 -0.9853
 7384SOL    MW429304   4.147   1.148   4.514 -0.1733  0.2343 -0.5578
 7385SOL     OW29305   6.358   2.253   4.535 -0.4023 -0.1041  0.3314
 7385SOL    HW229306   6.279   2.201   4.547  0.1282 -1.0609 -0.1940
 7385SOL    HW329307   6.377   2.247   4.441  0.0660  0.4465  0.3801
 7385SOL    MW429308   6.350   2.245   4.524 -0.2882 -0.1379  0.2453
 7386SOL     OW29309   0.510   1.008   3.378 -0.7787  0.0078  0.1725
 7386SOL    HW229310   0.511   0.960   3.296 -0.7390 -0.0514  0.2073
 7386SOL    HW329311   0.420   1.000   3.410 -0.3827 -1.4622  1.0054
 7386SOL    MW429312   0.498   1.001   3.372 -0.0894  0.4340  0.3399
 7387SOL     OW29313   3.024   1.252   1.533 -0.1257 -0.0903  0.0626
 7387SOL    HW229314   3.077   1.190   1.583 -0.4859  0.3634  1.0162
 7387SOL    HW329315   3.047   1.338   1.569 -0.6285  0.2102 -0.3316
 7387SOL    MW429316   3.034   1.255   1.544 -0.1247  0.1227  0.3172
 7388SOL     OW29317   5.869   5.251   2.607  0.7308  0.1485  0.2270
 7388SOL    HW229318   5.935   5.291   2.664  1.7754 -0.7345 -0.3347
 7388SOL    HW329319   5.919   5.203   2.541 -0.4699  0.0388 -0.6435
 7388SOL    MW429320   5.884   5.250   2.606  0.2197  0.1996 -0.1146
 7389SOL     OW29321   2.584   0.982   1.116 -0.2653 -0.0507 -0.8392
 7389SOL    HW229322   2.578   0.987   1.020 -1.2377  1.9649 -0.7409
 7389SOL    HW329323   2.578   0.889   1.136  1.1807 -0.6414 -2.7815
 7389SOL    MW429324   2.583   0.971   1.106  0.5817 -0.0593  0.4754
 7390SOL     OW29325   5.790   4.586   3.364  0.0871  0.5590  0.2431
 7390SOL    HW229326   5.731   4.614   3.434 -0.1921  0.3729  0.0857
 7390SOL    HW329327   5.798   4.492   3.376  0.6667  0.6389  0.4993
 7390SOL    MW429328   5.783   4.578   3.375 -0.3683 -0.0858 -0.2134
 7391SOL     OW29329   5.189   4.966   5.682  0.2186  0.4382  0.5708
 7391SOL    HW229330   5.213   5.033   5.745  1.5552 -2.2725  3.2337
 7391SOL    HW329331   5.104   4.933   5.712  1.2537 -1.4518  1.6426
 7391SOL    MW429332   5.181   4.970   5.694 -0.5899  0.4579 -0.1381
 7392SOL     OW29333   0.702  -0.012   2.400 -0.2024  0.1720  0.0967
 7392SOL    HW229334   0.761   0.012   2.329 -1.3950 -0.1639 -1.0492
 7392SOL    HW329335   0.738  -0.093   2.435  0.7352  0.6620  0.2995
 7392SOL    MW429336   0.714  -0.019   2.395 -0.1503  0.3420 -0.0361
 7393SOL     OW29337   2.109   1.853   2.123  0.3521  0.1792 -0.3132
 7393SOL    HW229338   2.040   1.875   2.185 -0.1479  0.2359 -0.8789
 7393SOL    HW329339   2.132   1.936   2.082  1.5169  0.3499  0.6176
 7393SOL    MW429340   2.103   1.867   2.126 -0.3019  0.2169  0.0209
 7394SOL     OW29341   1.953   2.572   2.119  0.6211  0.8832  0.5589
 7394SOL    HW229342   1.917   2.514   2.186  0.8951 -1.4240 -1.1572
 7394SOL    HW329343   2.046   2.578   2.140  0.7065  0.1603  0.4298
 7394SOL    MW429344   1.960   2.565   2.130 -0.1857  0.1159 -0.1248
 7395SOL     OW29345   3.125   1.958   6.338  0.0641  0.0996 -0.2389
 7395SOL    HW229346   3.178   1.883   6.366  0.1309  0.7929  1.6588
 7395SOL    HW329347   3.079   1.986   6.418 -0.4215  1.7067 -1.0309
 7395SOL    MW429348   3.126   1.952   6.352 -0.6677 -0.1857 -0.1695
 7396SOL     OW29349   3.310   2.148   6.238 -0.3061 -0.0905  0.3173
 7396SOL    HW229350   3.383   2.114   6.186 -0.4623  0.4339 -0.2590
 7396SOL    HW329351   3.261   2.070   6.265  0.7685 -0.4934  1.1886
 7396SOL    MW429352   3.313   2.133   6.235 -0.1787 -0.2880 -0.5532
 7397SOL     OW29353   1.572   1.943   4.198  0.0747 -0.4513  0.0000
 7397SOL    HW229354   1.614   1.857   4.194 -1.6607 -1.3531  0.2336
 7397SOL    HW329355   1.582   1.971   4.289 -2.4986 -2.1424  0.9211
 7397SOL    MW429356   1.579   1.935   4.209 -0.4579  0.4875 -0.2013
 7398SOL     OW29357   2.254   1.384   1.509  0.2259  0.8216 -0.8719
 7398SOL    HW229358   2.187   1.420   1.567 -0.6526  0.6735 -1.7618
 7398SOL    HW329359   2.218   1.301   1.479  1.5186 -0.0544 -0.1187
 7398SOL    MW429360   2.241   1.378   1.513  0.5774  0.0756  0.2854
 7399SOL     OW29361   5.179   1.193   6.410  0.1920  0.5579 -0.0335
 7399SOL    HW229362   5.225   1.274   6.385  0.8245  0.1844 -0.1247
 7399SOL    HW329363   5.248   1.138   6.448 -0.3323  0.2563  0.4841
 7399SOL    MW429364   5.194   1.196   6.411 -0.8917 -0.0821  0.5138
 7400SOL     OW29365   4.627   2.458   6.138 -0.1317  0.1882  0.1830
 7400SOL    HW229366   4.541   2.429   6.107 -0.7564  1.2902  0.7974
 7400SOL    HW329367   4.687   2.433   6.068 -1.3293  1.5733 -1.4632
 7400SOL    MW429368   4.624   2.451   6.125 -1.3446  0.5914 -0.4212
 7401SOL     OW29369   0.514   3.152   4.658  0.1669  0.1205  0.5891
 7401SOL    HW229370   0.568   3.166   4.736 -0.0980 -0.0660  0.8067
 7401SOL    HW329371   0.546   3.069   4.622  0.0852  0.0524  0.6716
 7401SOL    MW429372   0.526   3.143   4.664  0.2581 -0.1994 -0.0762
 7402SOL     OW29373   5.004   5.455   2.890  0.1349 -0.1662 -0.2282
 7402SOL    HW229374   4.990   5.427   2.980 -0.0965  3.0187  0.8417
 7402SOL    HW329375   5.019   5.374   2.842 -1.3315 -2.0989  2.3467
 7402SOL    MW429376   5.004   5.441   2.895  0.7776 -0.0409 -0.2440
 7403SOL     OW29377   4.125   2.420   2.986  0.1979 -0.0294 -0.7969
 7403SOL    HW229378   4.097   2.396   3.075 -1.7015  0.8476 -1.1074
 7403SOL    HW329379   4.097   2.511   2.976  1.3480  0.2164 -1.9349
 7403SOL    MW429380   4.117   2.429   2.996 -0.5152  0.0930  0.1017
 7404SOL     OW29381   1.056   6.243   5.910  0.4861  0.0744 -0.3050
 7404SOL    HW229382   1.118   6.172   5.930 -0.3056 -1.1198 -1.8190
 7404SOL    HW329383   1.071   6.261   5.817 -1.2577 -0.0915 -0.6501
 7404SOL    MW429384   1.066   6.236   5.900  0.2486  0.1451 -0.6699
 7405SOL     OW29385   3.018   4.202   4.354 -0.2508  0.2197 -0.3280
 7405SOL    HW229386   3.041   4.114   4.384  1.4084  0.6859 -0.1289
 7405SOL    HW329387   2.936   4.222   4.400 -0.9615 -1.4038 -0.8021
 7405SOL    MW429388   3.010   4.193   4.364  0.6343  0.5079 -0.3598
 7406SOL     OW29389   2.616   3.444   4.211 -0.5692  0.7728  0.2765
 7406SOL    HW229390   2.577   3.496   4.141  0.0051  0.0469 -0.6068
 7406SOL    HW329391   2.564   3.364   4.213 -1.1245  1.1466  1.2753
 7406SOL    MW429392   2.604   3.441   4.202  0.2035  0.6345  0.8042
 7407SOL     OW29393   4.923   3.964   1.570  0.1382  0.5961 -0.5986
 7407SOL    HW229394   4.915   3.900   1.500 -1.4600 -0.8288  0.7844
 7407SOL    HW329395   5.016   3.983   1.575  0.3591  0.2475 -2.6384
 7407SOL    MW429396   4.934   3.958   1.562 -0.4484 -1.1319  0.2652
 7408SOL     OW29397   5.478   5.200   4.491 -0.0243  0.1781 -0.2568
 7408SOL    HW229398   5.572   5.198   4.479  0.0853 -1.0108  0.5874
 7408SOL    HW329399   5.461   5.281   4.539  0.6262  0.1565  0.0148
 7408SOL    MW429400   5.488   5.210   4.495  0.3400 -0.2680  0.0074
 7409SOL     OW29401   4.387   3.685   0.273 -0.7170 -0.7988  0.0820
 7409SOL    HW229402   4.402   3.604   0.225 -0.6422 -0.1772 -0.9751
 7409SOL    HW329403   4.301   3.674   0.314 -0.7876 -1.3276 -0.2069
 7409SOL    MW429404   4.378   3.673   0.272 -0.3571  0.2700  0.4364
 7410SOL     OW29405   4.944   5.432   6.293 -0.0368  0.2055  0.0325
 7410SOL    HW229406   4.930   5.395   6.206 -0.3099  1.0220 -0.2842
 7410SOL    HW329407   5.039   5.427   6.306  0.0155  0.1702 -0.3487
 7410SOL    MW429408   4.955   5.426   6.283 -0.1433 -0.5378 -0.1474
 7411SOL     OW29409   5.290   2.214   5.835 -0.1268 -0.6652 -0.5847
 7411SOL    HW229410   5.312   2.287   5.777 -2.0221  0.1629 -0.3412
 7411SOL    HW329411   5.309   2.247   5.923 -1.0545 -0.4294 -0.4691
 7411SOL    MW429412   5.296   2.228   5.839 -0.3769  0.1260  0.5445
 7412SOL     OW29413   0.355   2.088   5.497  0.1353 -0.3907  0.3004
 7412SOL    HW229414   0.317   2.175   5.513  0.6285 -0.3914  1.5356
 7412SOL    HW329415   0.410   2.101   5.419 -0.6147  0.1464 -0.1548
 7412SOL    MW429416   0.357   2.101   5.489 -0.2289 -0.2571 -0.2047
 7413SOL     OW29417   4.830   4.405   6.388 -0.2572  0.4399  0.7414
 7413SOL    HW229418   4.787   4.390   6.473 -1.5279 -1.1751 -0.1317
 7413SOL    HW329419   4.877   4.324   6.370 -0.6632  0.4567 -0.4508
 7413SOL    MW429420   4.830   4.392   6.397  0.3335 -0.5628  0.4334
 7414SOL     OW29421   4.402   5.870   2.704  0.5794  0.2472 -0.5221
 7414SOL    HW229422   4.433   5.947   2.751  3.3075 -0.4703 -1.0001
 7414SOL    HW329423   4.434   5.881   2.615  1.3721 -1.5932 -0.5102
 7414SOL    MW429424   4.410   5.882   2.699  0.4399 -0.2054 -0.1257
 7415SOL     OW29425   6.193   5.139   1.145 -0.1982  0.2567 -0.2868
 7415SOL    HW229426   6.283   5.112   1.163 -0.6648 -0.4281  1.1085
 7415SOL    HW329427   6.153   5.151   1.231 -1.4640  0.5184 -0.8798
 7415SOL    MW429428   6.199   5.137   1.158 -0.2016 -0.3842  0.0420
 7416SOL     OW29429   4.750   3.512   0.507  0.2444 -0.2188  0.0391
 7416SOL    HW229430   4.676   3.571   0.523 -1.0636 -1.7188 -0.2277
 7416SOL    HW329431   4.709   3.428   0.485  2.0430 -1.1949  0.2527
 7416SOL    MW429432   4.735   3.509   0.506  0.1900  0.2688  0.2047
 7417SOL     OW29433   4.317   2.346   0.403 -0.0848 -0.4600 -0.1124
 7417SOL    HW229434   4.300   2.269   0.457 -1.0559 -0.9656 -1.0957
 7417SOL    HW329435   4.294   2.318   0.314  0.0773  0.7959 -0.5673
 7417SOL    MW429436   4.312   2.332   0.399 -0.4541  0.1626 -0.2752
 7418SOL     OW29437   3.375   0.514   5.757 -0.4559 -0.5505 -0.1211
 7418SOL    HW229438   3.305   0.461   5.720  0.0260 -0.8379 -0.6417
 7418SOL    HW329439   3.454   0.461   5.746 -0.2478 -0.5210  1.0694
 7418SOL    MW429440   3.376   0.500   5.751 -0.4085 -0.0424 -0.6487
 7419SOL     OW29441   2.961   0.655   1.272  0.2707  0.6088 -0.2961
 7419SOL    HW229442   2.880   0.658   1.221 -0.0148  1.9168  0.1975
 7419SOL    HW329443   2.971   0.744   1.307  1.4592  0.2369  0.3695
 7419SOL    MW429444   2.952   0.667   1.270 -0.8283  0.3501  0.5107
 7420SOL     OW29445   2.319   5.154   4.946 -0.5592  0.5395  0.7848
 7420SOL    HW229446   2.292   5.064   4.962 -0.8752  0.5508  0.3514
 7420SOL    HW329447   2.337   5.157   4.852  0.6161  0.6309  0.9969
 7420SOL    MW429448   2.317   5.143   4.936  0.0248  0.1134 -0.2447
 7421SOL     OW29449   6.415   1.105   1.385 -0.1738  0.1174  0.6916
 7421SOL    HW229450   6.459   1.028   1.351  1.7004  1.0469  0.8811
 7421SOL    HW329451   6.332   1.108   1.338 -0.3997 -2.0904  0.8330
 7421SOL    MW429452   6.410   1.095   1.375  0.3336 -0.3839 -0.4140
 7422SOL     OW29453   5.250   1.771   0.253  0.3316 -0.5994  0.0936
 7422SOL    HW229454   5.298   1.848   0.284  0.1923 -1.0016  1.4010
 7422SOL    HW329455   5.306   1.733   0.185  1.0199 -0.0744  0.3594
 7422SOL    MW429456   5.264   1.776   0.248 -0.0201  0.4340  0.2718
 7423SOL     OW29457   2.175   2.467   0.272 -0.3468  0.4469 -0.5606
 7423SOL    HW229458   2.242   2.522   0.313 -1.4664  1.6096 -0.2108
 7423SOL    HW329459   2.202   2.378   0.292  1.5492  0.8307 -1.1587
 7423SOL    MW429460   2.188   2.463   0.280  0.3569 -0.3024  0.2831
 7424SOL     OW29461   1.939   3.540   5.508 -0.2780 -0.3770 -0.2652
 7424SOL    HW229462   1.956   3.546   5.414 -2.9077  0.0435 -0.8060
 7424SOL    HW329463   2.016   3.580   5.549  0.7913 -0.2738 -2.2341
 7424SOL    MW429464   1.951   3.546   5.501  0.0776  0.3578  0.1793
 7425SOL     OW29465   2.019   5.338   2.655  0.1534  0.2637 -0.2719
 7425SOL    HW229466   2.107   5.375   2.646  0.1136  0.0060 -2.0758
 7425SOL    HW329467   1.960   5.412   2.641  0.0623  0.2871  0.1950
 7425SOL    MW429468   2.023   5.353   2.652  0.6083  0.1874 -0.5315
 7426SOL     OW29469   1.770   5.039   2.009  0.0388 -0.2117 -0.1493
 7426SOL    HW229470   1.779   5.133   2.022 -1.5540 -0.2999  2.0837
 7426SOL    HW329471   1.858   5.004   2.022  0.4684  0.8763 -0.0836
 7426SOL    MW429472   1.783   5.047   2.012 -0.9098  0.3062  0.1069
 7427SOL     OW29473   2.466   4.012   1.533 -0.2363  0.2336 -0.7089
 7427SOL    HW229474   2.431   3.996   1.445 -0.1162  0.7487 -0.8541
 7427SOL    HW329475   2.396   4.059   1.578  0.0303  0.7423 -0.8125
 7427SOL    MW429476   2.452   4.016   1.527  0.0367 -0.5359  0.5187
 7428SOL     OW29477   5.021   5.077   0.721  0.0060 -0.0850  0.3262
 7428SOL    HW229478   5.102   5.084   0.771  0.8602  1.3933 -1.1704
 7428SOL    HW329479   4.971   5.155   0.746  0.5652  0.8281 -1.2628
 7428SOL    MW429480   5.025   5.088   0.731 -0.2834  0.0113 -0.4248
 7429SOL     OW29481   2.867   3.520   5.554 -0.2148 -0.5948 -0.0571
 7429SOL    HW229482   2.772   3.531   5.556  0.0174  2.0001  0.7095
 7429SOL    HW329483   2.888   3.478   5.638 -0.6095 -0.0413  0.3276
 7429SOL    MW429484   2.858   3.516   5.565 -0.1067  0.0862  0.1249
 7430SOL     OW29485   5.392   2.414   3.130 -0.3490  0.0248 -0.3427
 7430SOL    HW229486   5.310   2.437   3.088 -0.9571 -0.2731  0.6463
 7430SOL    HW329487   5.457   2.419   3.060 -1.4315 -1.1788 -1.4930
 7430SOL    MW429488   5.390   2.418   3.116  0.6012  0.1752  0.4086
 7431SOL     OW29489   2.526   2.209   3.994 -0.5736 -0.2633 -0.0130
 7431SOL    HW229490   2.565   2.276   3.939 -0.5933  0.7780  1.2196
 7431SOL    HW329491   2.536   2.241   4.083 -4.0652  0.0363  0.4121
 7431SOL    MW429492   2.532   2.222   3.998 -0.3562 -0.3041 -0.2024
 7432SOL     OW29493   0.404   3.579   3.557 -0.1891  0.4188  0.2008
 7432SOL    HW229494   0.453   3.660   3.549  1.5343 -0.6402 -0.4388
 7432SOL    HW329495   0.404   3.561   3.651  0.0381  0.7927  0.2756
 7432SOL    MW429496   0.410   3.587   3.568 -0.5240  0.1259  0.2605
 7433SOL     OW29497   2.167   3.301   2.904 -0.1046 -0.0164 -0.3940
 7433SOL    HW229498   2.144   3.389   2.936  0.2461 -0.5305  1.4117
 7433SOL    HW329499   2.127   3.295   2.818  0.0262  1.9891 -0.6418
 7433SOL    MW429500   2.159   3.312   2.897  0.1652 -0.4113 -0.6445
 7434SOL     OW29501   0.909   5.524   1.306  0.1439  0.3205  0.2470
 7434SOL    HW229502   0.967   5.452   1.282 -0.4178 -0.1982  0.4538
 7434SOL    HW329503   0.968   5.600   1.312  0.5675  0.1476 -1.1632
 7434SOL    MW429504   0.925   5.525   1.303 -0.5700 -0.0452  0.0790
 7435SOL     OW29505   4.221   3.802   5.749 -0.0556  0.0952  0.1218
 7435SOL    HW229506   4.306   3.779   5.710 -0.3486  0.5001 -0.7894
 7435SOL    HW329507   4.242   3.831   5.837  0.6552 -0.6757  0.2206
 7435SOL    MW429508   4.235   3.803   5.755  0.0799 -0.8319  0.3651
 7436SOL     OW29509   1.657   1.657   1.020  0.0437 -0.0752  0.3235
 7436SOL    HW229510   1.717   1.585   1.037  1.7689  1.2904  0.2445
 7436SOL    HW329511   1.696   1.732   1.064 -1.5130  0.9228  0.0964
 7436SOL    MW429512   1.670   1.657   1.028  0.2491 -0.3163 -0.3745
 7437SOL     OW29513   1.689   3.899   1.193 -0.2638 -0.1849  0.3729
 7437SOL    HW229514   1.756   3.963   1.169 -0.6932 -0.4526 -1.8056
 7437SOL    HW329515   1.614   3.951   1.222 -0.1568  0.2478 -0.1295
 7437SOL    MW429516   1.688   3.914   1.194 -0.2233 -0.3228 -0.2855
 7438SOL     OW29517   0.424   4.445   6.097  0.1967  0.4300 -0.0615
 7438SOL    HW229518   0.365   4.459   6.172 -1.8500 -1.0277 -1.2966
 7438SOL    HW329519   0.467   4.362   6.116  1.1084  0.9753  0.3333
 7438SOL    MW429520   0.422   4.436   6.110  0.2309  0.2654 -0.0434
 7439SOL     OW29521   6.326   3.251   2.105  0.0628  0.1886 -0.2663
 7439SOL    HW229522   6.369   3.297   2.033  0.6469 -0.0160 -0.0529
 7439SOL    HW329523   6.235   3.281   2.101  0.9194  3.4025  1.4825
 7439SOL    MW429524   6.319   3.261   2.095 -0.5644 -0.2892 -0.2358
 7440SOL     OW29525   3.437   0.773   0.862 -0.2553  0.2318 -0.1876
 7440SOL    HW229526   3.475   0.843   0.916 -0.2685 -0.2146  0.4093
 7440SOL    HW329527   3.503   0.704   0.862 -0.3895  0.1019 -0.4904
 7440SOL    MW429528   3.451   0.773   0.869 -0.1701  0.5182  0.6780
 7441SOL     OW29529   2.254   3.613   4.543 -0.2057  0.8418 -0.3486
 7441SOL    HW229530   2.288   3.698   4.569  0.0943  0.8953 -0.8982
 7441SOL    HW329531   2.200   3.632   4.466  1.5124  0.2963 -1.7616
 7441SOL    MW429532   2.251   3.627   4.536 -0.0134  0.3666 -0.3776
 7442SOL     OW29533   2.110   4.417   3.858 -0.4329 -0.3117  0.7318
 7442SOL    HW229534   2.152   4.437   3.774 -1.9723  0.4460  0.1054
 7442SOL    HW329535   2.135   4.490   3.915 -0.0667 -0.3982  0.6866
 7442SOL    MW429536   2.119   4.429   3.855  0.1241  0.9454 -0.1096
 7443SOL     OW29537   1.370   2.089   4.832 -0.2994 -0.0912  0.4616
 7443SOL    HW229538   1.383   2.162   4.893 -0.0208  0.9748 -0.8216
 7443SOL    HW329539   1.450   2.037   4.840  0.5760  1.0739 -0.2996
 7443SOL    MW429540   1.382   2.092   4.841 -0.5780 -0.4557  0.6057
 7444SOL     OW29541   4.844   5.295   0.130  0.2160 -0.6276 -0.7234
 7444SOL    HW229542   4.769   5.287   0.071 -1.1115  0.6769  0.7053
 7444SOL    HW329543   4.920   5.290   0.072 -0.9949 -0.6715 -2.3863
 7444SOL    MW429544   4.844   5.293   0.114 -0.0053 -0.3400 -0.1978
 7445SOL     OW29545   1.107   3.026   1.806  1.0827 -0.1756 -0.7786
 7445SOL    HW229546   1.169   3.098   1.820 -1.2593  2.2018 -1.7559
 7445SOL    HW329547   1.104   2.980   1.890  2.4599  1.0314 -0.0188
 7445SOL    MW429548   1.115   3.030   1.819  0.1807 -0.0676  0.6236
 7446SOL     OW29549   5.717   2.352   6.045 -0.1164 -0.5102  1.1992
 7446SOL    HW229550   5.802   2.340   6.087 -0.6093  0.1976  2.4668
 7446SOL    HW329551   5.706   2.274   5.991  1.4280 -0.5017  0.8201
 7446SOL    MW429552   5.727   2.340   6.044  0.2053 -0.0894 -0.0877
 7447SOL     OW29553   5.767   4.509   1.942 -0.4334  0.3778 -0.3856
 7447SOL    HW229554   5.798   4.420   1.930  0.7189  0.7484 -0.2644
 7447SOL    HW329555   5.710   4.525   1.866  0.3912 -0.0238 -1.1053
 7447SOL    MW429556   5.764   4.500   1.930 -0.2273  0.4907  0.3789
 7448SOL     OW29557   0.245   1.538   3.707  0.0082  0.2280  0.0878
 7448SOL    HW229558   0.233   1.630   3.727  0.4540  0.4609 -0.6591
 7448SOL    HW329559   0.331   1.533   3.665 -1.1078 -0.0783 -2.3428
 7448SOL    MW429560   0.254   1.549   3.704  0.0783 -0.4201  0.9894
 7449SOL     OW29561   4.956   2.097   2.660  0.1187 -0.0911 -0.1331
 7449SOL    HW229562   4.988   2.031   2.721  1.7277  0.6962 -0.0595
 7449SOL    HW329563   4.932   2.172   2.715 -2.1345 -0.7243 -0.1743
 7449SOL    MW429564   4.957   2.098   2.675 -0.1159 -0.1708 -0.3428
 7450SOL     OW29565   2.743   5.839   5.302  0.1368 -0.2699 -0.0142
 7450SOL    HW229566   2.665   5.839   5.357 -0.4478  0.6888 -0.7976
 7450SOL    HW329567   2.753   5.748   5.273 -0.8794 -0.3399 -0.1611
 7450SOL    MW429568   2.734   5.827   5.305 -0.4634 -0.2165 -0.1146
 7451SOL     OW29569   6.094   5.420   2.238  0.2818  0.6784  0.2061
 7451SOL    HW229570   6.155   5.425   2.312  2.8698 -2.8179 -1.4209
 7451SOL    HW329571   6.039   5.344   2.257 -2.1495  2.4084  0.5207
 7451SOL    MW429572   6.094   5.411   2.251 -0.2152  0.7464  0.4087
 7452SOL     OW29573   1.521   5.766   2.821  0.2884  0.4306  0.1484
 7452SOL    HW229574   1.501   5.798   2.733  0.4509  3.1137  1.0144
 7452SOL    HW329575   1.448   5.706   2.841  0.0504  0.0485 -1.6239
 7452SOL    MW429576   1.508   5.762   2.812 -0.2007  0.0067  0.3110
 7453SOL     OW29577   3.308   3.210   1.505  0.0684  0.6938 -0.2585
 7453SOL    HW229578   3.293   3.130   1.455 -0.4460  1.1429 -0.8331
 7453SOL    HW329579   3.232   3.218   1.562  1.1609 -0.4226  1.4856
 7453SOL    MW429580   3.296   3.200   1.506  0.0071 -0.2250 -0.3558
 7454SOL     OW29581   1.232   3.754   3.569 -0.5425  0.2782 -0.4732
 7454SOL    HW229582   1.198   3.815   3.504 -0.3153 -0.5716 -1.4127
 7454SOL    HW329583   1.311   3.796   3.604 -0.2424  0.4078 -1.2964
 7454SOL    MW429584   1.238   3.768   3.565  0.3256 -0.3822 -0.0091
 7455SOL     OW29585   1.306   0.217   4.532 -0.3555  0.4447  0.8643
 7455SOL    HW229586   1.401   0.209   4.528 -0.4162  0.4020 -1.0495
 7455SOL    HW329587   1.291   0.300   4.578  0.5800  0.3031  1.4449
 7455SOL    MW429588   1.316   0.227   4.538 -0.2859  0.1941  0.0579
 7456SOL     OW29589   2.156   2.925   2.785  0.1704 -0.2394 -0.4502
 7456SOL    HW229590   2.193   2.943   2.699  1.1267 -0.7248 -0.1637
 7456SOL    HW329591   2.225   2.951   2.846 -0.4216 -0.0749  0.1588
 7456SOL    MW429592   2.170   2.930   2.782 -0.3080 -0.0239 -0.2088
 7457SOL     OW29593   2.751   5.141   2.343  0.3078 -0.4304  0.2379
 7457SOL    HW229594   2.665   5.112   2.374  0.7565 -1.2082  0.8142
 7457SOL    HW329595   2.733   5.189   2.262 -0.6901 -0.3404  0.5005
 7457SOL    MW429596   2.738   5.144   2.336  0.6714  0.1119  0.7552
 7458SOL     OW29597   3.513   1.724   4.698  0.7057 -0.1686  0.2506
 7458SOL    HW229598   3.496   1.734   4.791  1.0567  2.4856  0.1070
 7458SOL    HW329599   3.606   1.702   4.693  0.8474  0.3493  0.5191
 7458SOL    MW429600   3.523   1.722   4.709  0.1042 -0.3642  0.6504
 7459SOL     OW29601   3.152   3.453   1.301 -0.3241 -1.1049  0.0729
 7459SOL    HW229602   3.220   3.395   1.266  0.6977  0.8813 -1.3871
 7459SOL    HW329603   3.195   3.500   1.372  0.1061  0.6475 -1.2919
 7459SOL    MW429604   3.167   3.451   1.305 -0.3293 -0.3272  0.3475
 7460SOL     OW29605   3.596   2.392   1.429  0.5635 -0.0021 -0.0954
 7460SOL    HW229606   3.634   2.421   1.512  0.3384 -1.0321  0.3841
 7460SOL    HW329607   3.537   2.321   1.454  0.4590 -0.2871 -1.1392
 7460SOL    MW429608   3.593   2.387   1.443  0.2935 -0.0963  0.7028
 7461SOL     OW29609   5.260   0.212   4.569  0.1853 -0.4503 -0.1009
 7461SOL    HW229610   5.283   0.134   4.518 -0.3636 -1.4827  1.2037
 7461SOL    HW329611   5.168   0.229   4.548 -0.5160 -1.8048  1.6619
 7461SOL    MW429612   5.251   0.204   4.559  0.1463  0.6659  0.1997
 7462SOL     OW29613   1.805   2.267   0.110  0.1046  0.5832 -0.7224
 7462SOL    HW229614   1.828   2.202   0.177 -2.2142 -0.5596 -0.9135
 7462SOL    HW329615   1.752   2.331   0.156 -2.0521 -0.5507 -1.4791
 7462SOL    MW429616   1.801   2.267   0.125  0.1542  0.5978 -0.0668
 7463SOL     OW29617   4.573   1.430   5.234 -0.1855  0.1652 -0.0323
 7463SOL    HW229618   4.563   1.450   5.327 -0.1461  0.6580 -0.1306
 7463SOL    HW329619   4.665   1.447   5.215 -0.4359  1.1392 -0.4070
 7463SOL    MW429620   4.583   1.435   5.244 -0.7688 -0.0992 -0.2678
 7464SOL     OW29621   3.589   5.918   5.534  0.3287  0.3077 -0.1787
 7464SOL    HW229622   3.498   5.948   5.534  0.2999  0.3133  1.1351
 7464SOL    HW329623   3.586   5.837   5.584  0.9918  0.1048 -0.4668
 7464SOL    MW429624   3.577   5.911   5.541 -0.1889  0.0868  0.5563
 7465SOL     OW29625   2.450   4.435   4.829 -0.2787  0.0844  0.0457
 7465SOL    HW229626   2.511   4.465   4.896 -0.2920 -1.8404  1.0058
 7465SOL    HW329627   2.397   4.369   4.874 -0.1905 -1.3762 -1.8847
 7465SOL    MW429628   2.451   4.430   4.844  0.2637 -0.1390  0.0799
 7466SOL     OW29629   5.856   1.817   3.344  0.1464  0.5070  0.4340
 7466SOL    HW229630   5.767   1.782   3.348  0.3906 -0.1389  0.3623
 7466SOL    HW329631   5.872   1.853   3.432  0.9425 -2.2570  1.5338
 7466SOL    MW429632   5.847   1.817   3.356 -0.0584 -0.3430 -0.1136
 7467SOL     OW29633   5.535   0.209   0.294 -0.0451  0.1653  0.3027
 7467SOL    HW229634   5.541   0.118   0.324  1.6685  0.0008 -0.4336
 7467SOL    HW329635   5.480   0.206   0.216 -0.8670 -0.0729  0.8884
 7467SOL    MW429636   5.529   0.197   0.288 -0.7508 -1.0004  0.4105
 7468SOL     OW29637   3.041   5.165   4.460 -0.2274  0.2213  0.3198
 7468SOL    HW229638   3.109   5.098   4.467  0.0877  0.5575  0.4600
 7468SOL    HW329639   2.992   5.159   4.542  1.7192  2.2500  1.7597
 7468SOL    MW429640   3.043   5.155   4.471 -0.6434  0.2097 -0.2079
 7469SOL     OW29641   2.991   1.068   5.780 -0.9939 -0.2743  0.1046
 7469SOL    HW229642   2.944   1.112   5.852 -1.5783 -0.2768 -0.2663
 7469SOL    HW329643   2.924   1.054   5.713 -0.0746  1.3943 -1.2243
 7469SOL    MW429644   2.976   1.072   5.781 -0.3371 -0.4794 -0.5115
 7470SOL     OW29645   2.021   6.154   4.102 -0.3662 -0.2950  0.2791
 7470SOL    HW229646   1.995   6.062   4.106 -0.5939 -0.2004  2.2745
 7470SOL    HW329647   2.114   6.154   4.124  0.0225 -0.1581 -1.2868
 7470SOL    MW429648   2.030   6.142   4.106 -0.0888  0.6188  0.5214
 7471SOL     OW29649   5.956   2.592   5.727 -0.1225  0.8491  0.3002
 7471SOL    HW229650   5.863   2.610   5.739 -0.2839  0.3071 -0.1156
 7471SOL    HW329651   5.991   2.671   5.686  0.1298  2.1230  2.7829
 7471SOL    MW429652   5.948   2.605   5.723 -0.3582 -0.3052  0.3273
 7472SOL     OW29653   3.560   2.029   1.156 -0.1619 -0.3527 -0.8967
 7472SOL    HW229654   3.544   2.009   1.248  0.1583  0.0320 -0.7523
 7472SOL    HW329655   3.508   1.965   1.108 -0.1648 -0.6931 -0.4474
 7472SOL    MW429656   3.551   2.018   1.162 -0.5436  0.4562  0.3930
 7473SOL     OW29657   0.765   1.653   1.135  0.8352 -0.2963 -0.5869
 7473SOL    HW229658   0.744   1.631   1.044  1.3422 -0.7191 -0.6091
 7473SOL    HW329659   0.843   1.708   1.130 -0.0829  1.0557 -0.4899
 7473SOL    MW429660   0.772   1.657   1.122 -0.2350  0.6858 -0.3771
 7474SOL     OW29661   4.753   0.460   0.171 -0.3718 -0.4281 -0.3416
 7474SOL    HW229662   4.827   0.506   0.210 -0.5021 -0.3150 -0.2260
 7474SOL    HW329663   4.681   0.471   0.233 -0.4744 -0.5748 -0.4314
 7474SOL    MW429664   4.753   0.468   0.184 -0.0127 -0.7336  0.8230
 7475SOL     OW29665   6.386   4.320   4.539  0.0066 -0.2233  0.3784
 7475SOL    HW229666   6.305   4.350   4.499 -0.7447  0.0850  2.0466
 7475SOL    HW329667   6.447   4.393   4.529 -0.2988  0.0091  0.2183
 7475SOL    MW429668   6.383   4.333   4.532 -1.0782 -0.0803  0.1933
 7476SOL     OW29669   2.530   1.514   2.461  0.6335  0.3137 -0.1690
 7476SOL    HW229670   2.540   1.453   2.535  0.2032  0.4663  0.0200
 7476SOL    HW329671   2.531   1.601   2.501 -0.9809  0.3639 -0.1547
 7476SOL    MW429672   2.532   1.517   2.476 -0.3898 -0.1396 -0.3237
 7477SOL     OW29673   3.313   6.323   3.103  0.3674 -0.1468 -0.5131
 7477SOL    HW229674   3.327   6.228   3.095  1.2632  0.0787 -1.9139
 7477SOL    HW329675   3.320   6.340   3.197  0.8685 -1.3849 -0.3077
 7477SOL    MW429676   3.316   6.313   3.115  0.3230  0.1984  0.6018
 7478SOL     OW29677   2.143   0.026   0.821 -0.3969  0.2764  1.0544
 7478SOL    HW229678   2.075  -0.039   0.838  1.4483 -1.9998  0.2819
 7478SOL    HW329679   2.170   0.055   0.908  2.1873 -3.8991  1.9598
 7478SOL    MW429680   2.137   0.021   0.835  0.0013 -0.0610  0.4439
 7479SOL     OW29681   4.892   0.621   6.336  0.0105  0.5163  0.0065
 7479SOL    HW229682   4.959   0.690   6.331 -0.6104  1.2811  1.5688
 7479SOL    HW329683   4.869   0.617   6.429 -0.7085 -1.1055 -0.2132
 7479SOL    MW429684   4.898   0.629   6.348 -0.2601  0.6118 -0.3690
 7480SOL     OW29685   3.450   5.385   1.982  0.3201  0.2555  0.3858
 7480SOL    HW229686   3.475   5.384   1.889  0.2537  1.9683  0.3186
 7480SOL    HW329687   3.511   5.446   2.022 -1.5379  1.8783  0.8775
 7480SOL    MW429688   3.462   5.393   1.975 -0.1548  0.3811  0.4058
 7481SOL     OW29689   4.040   2.701   2.948 -0.1122 -0.0904  0.6584
 7481SOL    HW229690   4.052   2.771   3.012 -2.0876  0.6337  0.3058
 7481SOL    HW329691   4.092   2.729   2.872 -0.1774  0.5414  0.8421
 7481SOL    MW429692   4.049   2.713   2.947 -0.2244  0.0903  0.4170
 7482SOL     OW29693   0.571   2.900   3.905  0.0939 -0.0065  0.1184
 7482SOL    HW229694   0.533   2.816   3.930 -0.5981  0.0489 -0.6793
 7482SOL    HW329695   0.620   2.881   3.824  1.8628 -0.0859  1.1542
 7482SOL    MW429696   0.572   2.886   3.897 -0.6831  0.1634  0.8191
 7483SOL     OW29697   3.740   5.132   1.223 -0.5703  0.6737  0.7112
 7483SOL    HW229698   3.798   5.123   1.148 -0.9641 -1.0646  0.5696
 7483SOL    HW329699   3.656   5.157   1.185 -1.2435 -1.8969  0.2899
 7483SOL    MW429700   3.736   5.134   1.208  0.0837  0.1249 -0.3623
 7484SOL     OW29701   4.848   4.612   0.566 -0.1030 -0.2563  0.1020
 7484SOL    HW229702   4.894   4.667   0.629  0.3805  0.9813 -1.2919
 7484SOL    HW329703   4.876   4.523   0.587  1.0255  0.2570  0.8213
 7484SOL    MW429704   4.857   4.607   0.577 -0.1965 -0.0037 -0.4186
 7485SOL     OW29705   4.662   4.084   5.485  0.3593 -0.3473 -0.4440
 7485SOL    HW229706   4.640   4.173   5.458  0.8471 -0.0254  0.1954
 7485SOL    HW329707   4.615   4.073   5.568  0.7378 -0.4946 -0.2507
 7485SOL    MW429708   4.653   4.094   5.493  0.8778  0.0984 -0.6281
 7486SOL     OW29709   3.233   0.198   2.822 -0.3426  0.5358 -0.2184
 7486SOL    HW229710   3.262   0.194   2.913 -0.3224 -0.3584 -0.2528
 7486SOL    HW329711   3.314   0.190   2.771 -0.4684 -0.3548 -0.3068
 7486SOL    MW429712   3.248   0.196   2.827 -0.0143 -0.9056 -0.3994
 7487SOL     OW29713   3.766   3.014   0.306 -0.3193  0.0597 -0.0695
 7487SOL    HW229714   3.710   2.939   0.325  0.6161 -0.7054 -0.2761
 7487SOL    HW329715   3.821   2.986   0.233  0.2678  0.8247  0.0639
 7487SOL    MW429716   3.766   3.001   0.299  0.2515 -0.2547 -0.0047
 7488SOL     OW29717   3.472   5.678   1.375 -0.1975  0.6109 -0.1196
 7488SOL    HW229718   3.406   5.625   1.418  1.7064 -2.6858 -0.8955
 7488SOL    HW329719   3.513   5.727   1.446 -0.7961 -0.4303  0.9768
 7488SOL    MW429720   3.469   5.678   1.390 -0.5245  0.1605  0.4210
 7489SOL     OW29721   5.889   3.971   1.850 -0.4264  0.6557  0.5212
 7489SOL    HW229722   5.935   3.893   1.820 -1.6924  0.1384 -0.1811
 7489SOL    HW329723   5.818   3.938   1.905  0.2526  1.4565  1.9418
 7489SOL    MW429724   5.886   3.956   1.853  0.0094  0.0589  0.6938
 7490SOL     OW29725   5.335   5.101   4.198  0.1105  0.0907 -0.0092
 7490SOL    HW229726   5.274   5.146   4.256  1.5685  2.8058 -0.3946
 7490SOL    HW329727   5.295   5.108   4.111 -0.5039 -1.0081  0.1722
 7490SOL    MW429728   5.322   5.108   4.194 -0.1235  0.1076 -0.3412
 7491SOL     OW29729   6.265   0.241   4.071  0.7182 -0.0609  0.1826
 7491SOL    HW229730   6.221   0.324   4.087 -0.8703 -0.5335 -1.3564
 7491SOL    HW329731   6.299   0.215   4.156  0.6913  1.8393  0.8214
 7491SOL    MW429732   6.263   0.248   4.084 -0.0668 -0.6379  0.6028
 7492SOL     OW29733   0.349   2.277   1.429 -0.3399 -0.6264  0.2758
 7492SOL    HW229734   0.444   2.277   1.439 -0.3458 -1.2478  0.3866
 7492SOL    HW329735   0.333   2.213   1.359 -0.6412 -0.1047 -0.1395
 7492SOL    MW429736   0.359   2.268   1.421  0.3271  0.0265  0.1778
 7493SOL     OW29737   1.339   0.610   2.701  0.2969 -0.1712 -0.1665
 7493SOL    HW229738   1.431   0.630   2.720  0.0375  0.2916  0.6412
 7493SOL    HW329739   1.317   0.537   2.759  0.1957 -0.4018 -0.4864
 7493SOL    MW429740   1.348   0.603   2.711  0.5008 -0.0719 -0.1453
 7494SOL     OW29741   5.870   2.709   2.581 -0.7691 -0.2677 -0.5355
 7494SOL    HW229742   5.820   2.785   2.612 -0.9094 -0.5795 -0.0007
 7494SOL    HW329743   5.820   2.677   2.506 -0.3036  0.6270 -1.2533
 7494SOL    MW429744   5.857   2.715   2.575 -0.1520 -0.3443 -0.6314
 7495SOL     OW29745   5.020   3.746   4.596  0.2811 -0.1912  0.5430
 7495SOL    HW229746   5.068   3.668   4.567 -3.1143 -2.6149  0.9594
 7495SOL    HW329747   4.995   3.790   4.515 -0.0978 -1.0690  0.1712
 7495SOL    MW429748   5.023   3.741   4.581  0.3207  0.1205 -0.4300
 7496SOL     OW29749   3.228   5.241   1.718  0.1182 -0.3674  0.4911
 7496SOL    HW229750   3.279   5.188   1.780  0.1821  0.7455  1.4297
 7496SOL    HW329751   3.149   5.264   1.767 -0.0277  0.1758  0.0058
 7496SOL    MW429752   3.224   5.237   1.733 -0.8100 -0.3554  0.0387
 7497SOL     OW29753   2.866   3.050   3.834  0.1123  0.2630 -0.2068
 7497SOL    HW229754   2.817   3.083   3.909  0.3599  2.1771 -0.8528
 7497SOL    HW329755   2.817   2.972   3.806 -1.7123  1.2583  0.0774
 7497SOL    MW429756   2.853   3.044   3.840  0.1643  0.4072  0.1323
 7498SOL     OW29757   6.035   0.110   5.159 -0.2166  0.0445 -0.1510
 7498SOL    HW229758   6.032   0.190   5.212  0.2499  0.9144 -1.4016
 7498SOL    HW329759   6.044   0.040   5.223  2.6682  1.2123  0.8964
 7498SOL    MW429760   6.036   0.112   5.175  0.3325  0.1217 -0.1391
 7499SOL     OW29761   1.697   2.551   5.001 -0.4012  0.1202  0.0642
 7499SOL    HW229762   1.773   2.585   5.048 -0.0425 -0.7036  0.0899
 7499SOL    HW329763   1.710   2.456   4.997 -1.0564  0.0392 -0.5819
 7499SOL    MW429764   1.709   2.543   5.007  0.2210 -0.1094  0.1198
 7500SOL     OW29765   3.124   4.694   2.134  0.2448  0.0923  0.3752
 7500SOL    HW229766   3.132   4.761   2.203  1.4660  0.4629 -0.0953
 7500SOL    HW329767   3.031   4.693   2.113  0.1897  1.6884  0.3752
 7500SOL    MW429768   3.113   4.703   2.141 -0.6094  0.2320 -0.0984
 7501SOL     OW29769   1.553   3.974   1.631 -0.1364  0.0924 -0.0446
 7501SOL    HW229770   1.515   3.889   1.609  0.1184  0.3894 -1.7595
 7501SOL    HW329771   1.644   3.968   1.602  0.4975  0.2294  1.8017
 7501SOL    MW429772   1.560   3.962   1.624 -0.0593 -0.3753 -0.4746
 7502SOL     OW29773   0.578   0.870   3.138  0.1850 -0.0637 -0.6380
 7502SOL    HW229774   0.517   0.831   3.075 -1.4760 -2.3002  2.1133
 7502SOL    HW329775   0.621   0.795   3.179  0.8660  1.2607  1.1866
 7502SOL    MW429776   0.575   0.855   3.135  0.4057 -0.3684 -0.8220
 7503SOL     OW29777   2.420   2.361   1.268  0.3002  0.4640 -0.3712
 7503SOL    HW229778   2.332   2.352   1.231 -1.1042 -0.2433  2.7663
 7503SOL    HW329779   2.430   2.455   1.284 -0.9139  0.3539  1.3112
 7503SOL    MW429780   2.410   2.372   1.266 -0.1718  0.1238 -0.9450
 7504SOL     OW29781   5.451   0.746   5.989  0.0017 -0.4832  0.2467
 7504SOL    HW229782   5.474   0.653   5.979  2.8559  0.1248  0.2360
 7504SOL    HW329783   5.521   0.792   5.942 -1.0917  1.7086  0.6673
 7504SOL    MW429784   5.463   0.740   5.981  0.2931 -0.2632 -0.2247
 7505SOL     OW29785   1.940   1.437   6.231  0.0312  0.0589  0.2511
 7505SOL    HW229786   1.957   1.482   6.314 -0.7774  0.8972 -0.0255
 7505SOL    HW329787   1.988   1.488   6.166  0.5525 -0.5179  0.1703
 7505SOL    MW429788   1.949   1.449   6.234  0.6269 -0.1605 -0.0187
 7506SOL     OW29789   0.591   5.579   4.330  0.4854 -0.2616 -0.4020
 7506SOL    HW229790   0.583   5.675   4.326  1.4776 -0.0332  1.7755
 7506SOL    HW329791   0.685   5.564   4.339  0.1620 -1.2748  1.7314
 7506SOL    MW429792   0.603   5.590   4.331 -0.2381  0.2773  0.4272
 7507SOL     OW29793   2.559   3.180   2.662  0.0570  0.0293  0.7221
 7507SOL    HW229794   2.509   3.171   2.743 -0.3996 -0.3552  0.4036
 7507SOL    HW329795   2.517   3.119   2.601 -0.2183  1.0160 -0.1000
 7507SOL    MW429796   2.547   3.171   2.664 -0.5231 -0.0281 -0.5941
 7508SOL     OW29797   0.198   3.393   3.526 -0.0624  1.0539 -0.1107
 7508SOL    HW229798   0.120   3.447   3.514 -0.5853  0.4893  0.6227
 7508SOL    HW329799   0.270   3.455   3.530 -0.3964  1.5554 -1.3171
 7508SOL    MW429800   0.197   3.408   3.525  0.0063  0.6876  0.3074
 7509SOL     OW29801   4.516   1.029   0.229 -0.0239  0.5373 -0.1241
 7509SOL    HW229802   4.494   1.023   0.322  0.3116 -0.4080 -0.0932
 7509SOL    HW329803   4.454   1.092   0.193  0.6753  1.9141  0.9880
 7509SOL    MW429804   4.505   1.037   0.237 -0.0662  0.4465 -0.2590
 7510SOL     OW29805   5.220   3.341   4.703 -0.3703 -0.5837 -0.0008
 7510SOL    HW229806   5.215   3.246   4.690 -0.8201 -0.7329  1.0628
 7510SOL    HW329807   5.301   3.355   4.752 -1.0980 -0.6443  1.2942
 7510SOL    MW429808   5.230   3.330   4.708 -0.3121  0.3449 -0.1121
 7511SOL     OW29809   6.338   5.039   4.859  0.2090  0.9596 -0.2602
 7511SOL    HW229810   6.345   5.003   4.770 -2.6277 -2.0371  0.5255
 7511SOL    HW329811   6.427   5.035   4.893  1.2061  1.2555 -2.6033
 7511SOL    MW429812   6.350   5.034   4.851 -0.1490  0.0782  0.4345
 7512SOL     OW29813   0.646   0.156   2.621  0.3107 -0.0932 -0.2270
 7512SOL    HW229814   0.569   0.116   2.661  0.8405 -1.2612 -0.3358
 7512SOL    HW329815   0.673   0.094   2.553  1.1820  0.4246 -0.3723
 7512SOL    MW429816   0.640   0.143   2.617  0.0421 -0.7217  0.3994
 7513SOL     OW29817   3.537   1.057   1.377  0.1335  0.4761  0.4265
 7513SOL    HW229818   3.531   1.126   1.312 -0.8732 -0.5766 -0.6403
 7513SOL    HW329819   3.539   1.104   1.461  3.5006  1.9808 -0.2918
 7513SOL    MW429820   3.537   1.072   1.380 -0.4330  0.5658 -0.6424
 7514SOL     OW29821   6.106   0.767   0.982  0.3962  0.2879  0.3658
 7514SOL    HW229822   6.195   0.747   1.012 -0.0648 -0.1545  1.4852
 7514SOL    HW329823   6.119   0.815   0.900  1.6575 -0.0185  0.3642
 7514SOL    MW429824   6.119   0.771   0.976 -0.3317  0.4020  0.1512
 7515SOL     OW29825   4.088   0.069   0.058 -0.1426  0.1307 -0.8485
 7515SOL    HW229826   4.037   0.150   0.062  0.5240  0.5168  0.3471
 7515SOL    HW329827   4.062   0.021   0.136  0.5312 -0.1444 -0.7873
 7515SOL    MW429828   4.078   0.073   0.069 -0.5126 -0.3658  0.0873
 7516SOL     OW29829   0.446   1.258   2.466  0.3148 -0.2187  0.3445
 7516SOL    HW229830   0.437   1.163   2.463  0.1989 -0.1906 -0.6456
 7516SOL    HW329831   0.408   1.288   2.384 -0.5482  0.7624  1.0724
 7516SOL    MW429832   0.440   1.249   2.455 -0.1912 -0.0030 -0.2654
 7517SOL     OW29833   1.884   0.881   0.670  0.2161 -0.0496  0.2437
 7517SOL    HW229834   1.861   0.946   0.603  1.3825 -0.9679 -1.1117
 7517SOL    HW329835   1.813   0.817   0.666  0.6042 -0.4382 -0.5948
 7517SOL    MW429836   1.872   0.882   0.661  0.2742  0.2225  0.4066
 7518SOL     OW29837   0.243   4.400   0.215  0.3485 -0.3948  0.0636
 7518SOL    HW229838   0.308   4.333   0.234 -0.8130 -1.0564  1.9856
 7518SOL    HW329839   0.159   4.360   0.240 -0.5762  1.1556 -0.4077
 7518SOL    MW429840   0.240   4.386   0.221  0.0963  0.2609  0.4997
 7519SOL     OW29841   5.216   2.025   1.822 -0.1464 -0.1061  0.0220
 7519SOL    HW229842   5.279   2.071   1.877  0.1912 -1.2533  0.6222
 7519SOL    HW329843   5.259   1.943   1.799 -1.3080 -0.8101  0.2518
 7519SOL    MW429844   5.230   2.020   1.826  0.1386 -0.0170  0.3220
 7520SOL     OW29845   0.610   1.173   5.588 -0.2926 -0.3775  0.0195
 7520SOL    HW229846   0.689   1.159   5.536 -0.7803 -0.3417 -0.7595
 7520SOL    HW329847   0.595   1.268   5.583 -1.6058 -0.6158 -1.7418
 7520SOL    MW429848   0.618   1.184   5.580 -0.2923 -0.1940 -0.1868
 7521SOL     OW29849   3.037   3.736   2.214 -0.3565 -0.4303  0.2056
 7521SOL    HW229850   3.020   3.722   2.308 -0.2545  0.6462  0.3982
 7521SOL    HW329851   2.969   3.798   2.187 -1.8613 -2.4485 -1.0115
 7521SOL    MW429852   3.026   3.742   2.223 -0.0428 -0.0236 -0.4143
 7522SOL     OW29853   0.117   1.162   1.936 -0.0748 -0.0407  0.1526
 7522SOL    HW229854   0.083   1.251   1.929  0.2603 -0.0084 -1.4483
 7522SOL    HW329855   0.204   1.172   1.973  0.2789  0.3873 -0.7741
 7522SOL    MW429856   0.124   1.175   1.940 -0.4317 -0.3824 -0.2757
 7523SOL     OW29857   6.006   1.998   0.286 -0.5636 -0.2339  0.0337
 7523SOL    HW229858   6.001   2.028   0.376 -1.2717  2.3593 -0.7868
 7523SOL    HW329859   6.096   2.018   0.259 -0.2609 -1.2843  0.2272
 7523SOL    MW429860   6.017   2.004   0.294  0.5014 -0.1902  0.1801
 7524SOL     OW29861   2.564   3.169   6.282  0.3359  0.7848 -0.3383
 7524SOL    HW229862   2.654   3.138   6.295  0.7689  0.9915 -2.5186
 7524SOL    HW329863   2.518   3.093   6.245 -0.0787  1.0416 -0.3544
 7524SOL    MW429864   2.570   3.155   6.279 -0.1378 -0.0664  0.2738
 7525SOL     OW29865   1.496   5.785   4.918  0.0183 -0.0510 -0.2355
 7525SOL    HW229866   1.537   5.803   5.002  1.0466  0.1778 -0.7688
 7525SOL    HW329867   1.415   5.835   4.919 -0.2692 -0.5158  0.8466
 7525SOL    MW429868   1.491   5.794   4.929  0.0892 -0.2749  0.1544
 7526SOL     OW29869   1.313   3.364   4.039  0.4438 -0.1897 -0.8075
 7526SOL    HW229870   1.304   3.312   4.119  0.1832 -0.9861 -1.3461
 7526SOL    HW329871   1.283   3.306   3.969 -0.6874  0.9754 -1.3298
 7526SOL    MW429872   1.308   3.350   4.040 -0.0025 -0.6821 -0.2010
 7527SOL     OW29873   0.325   0.226   6.394  0.4111  0.0339  0.3037
 7527SOL    HW229874   0.287   0.162   6.334 -0.1515 -0.7827  1.4849
 7527SOL    HW329875   0.416   0.199   6.402  0.8508  0.9463 -1.1723
 7527SOL    MW429876   0.332   0.214   6.387 -0.0550 -0.3635 -0.1547
 7528SOL     OW29877   1.241   3.645   2.892  0.1413 -0.2514 -0.2885
 7528SOL    HW229878   1.206   3.677   2.975 -2.9336  0.0168 -1.5574
 7528SOL    HW329879   1.212   3.708   2.827  2.1998 -0.6269 -1.6761
 7528SOL    MW429880   1.233   3.657   2.895 -0.3081  0.4002 -0.2231
 7529SOL     OW29881   2.386   6.382   2.683  0.5641 -0.0251 -0.7152
 7529SOL    HW229882   2.358   6.403   2.772  1.3591  1.3708 -0.7644
 7529SOL    HW329883   2.316   6.327   2.648  0.4940 -1.0221  0.9316
 7529SOL    MW429884   2.373   6.378   2.690 -0.6402 -0.6052 -0.3174
 7530SOL     OW29885   5.625   2.748   3.868 -0.3146  0.0168  0.0862
 7530SOL    HW229886   5.623   2.665   3.915 -2.8750 -0.8335 -1.3190
 7530SOL    HW329887   5.616   2.723   3.776  0.1231  1.8220 -0.4797
 7530SOL    MW429888   5.624   2.734   3.862 -0.0805 -0.1706  0.5270
 7531SOL     OW29889   0.369  -0.027   0.792  0.2251 -0.2451 -0.2944
 7531SOL    HW229890   0.408   0.061   0.788 -0.2777 -0.0404 -0.9437
 7531SOL    HW329891   0.302  -0.026   0.723  1.5966 -1.7962 -1.7409
 7531SOL    MW429892   0.365  -0.015   0.782 -0.3848  0.3375  0.4529
 7532SOL     OW29893   5.113   2.599   6.135  0.3440 -0.5605  0.2470
 7532SOL    HW229894   5.200   2.627   6.165  0.9470 -0.5209 -1.4524
 7532SOL    HW329895   5.084   2.670   6.078 -1.4513  0.0939  1.8643
 7532SOL    MW429896   5.121   2.612   6.132  0.4958 -0.4436 -0.0605
 7533SOL     OW29897   4.047   3.494   5.135 -0.3676 -0.1541 -0.0974
 7533SOL    HW229898   3.996   3.428   5.180 -2.8012  0.1552 -2.1501
 7533SOL    HW329899   4.034   3.574   5.186 -1.3755 -0.2464 -0.1907
 7533SOL    MW429900   4.039   3.496   5.147  0.0065  0.2772 -0.6229
 7534SOL     OW29901   2.510   1.407   5.913 -0.1263  0.3781  0.2061
 7534SOL    HW229902   2.588   1.402   5.857 -1.5075  1.9475 -2.0640
 7534SOL    HW329903   2.439   1.377   5.856 -1.2805 -0.6021  2.0721
 7534SOL    MW429904   2.511   1.402   5.898  0.0168 -0.7165  0.0133
 7535SOL     OW29905   4.673   2.828   0.594  0.3037 -0.2519  0.7019
 7535SOL    HW229906   4.768   2.841   0.601  1.1105 -3.8852 -1.0325
 7535SOL    HW329907   4.654   2.842   0.501 -0.7905 -0.0060  0.9513
 7535SOL    MW429908   4.683   2.832   0.582 -0.0648  0.0958 -0.1927
 7536SOL     OW29909   0.582  -0.009   1.205 -0.5284 -0.0029  0.1254
 7536SOL    HW229910   0.654  -0.025   1.266  0.6068 -0.1479 -1.1865
 7536SOL    HW329911   0.570  -0.093   1.160  0.5044  0.7723 -1.7015
 7536SOL    MW429912   0.590  -0.022   1.207 -0.1713 -0.2211 -0.1219
 7537SOL     OW29913   3.315   3.319   6.230  0.0944  0.2350  0.3620
 7537SOL    HW229914   3.352   3.239   6.194  2.0331  1.0935  0.3128
 7537SOL    HW329915   3.375   3.389   6.202 -0.1154  1.3676  2.4753
 7537SOL    MW429916   3.327   3.318   6.222 -0.5505 -0.2243  0.7997
 7538SOL     OW29917   4.526   2.631   5.374  0.5614  0.1271 -0.0244
 7538SOL    HW229918   4.445   2.582   5.387  0.0481  1.1178  0.6014
 7538SOL    HW329919   4.498   2.718   5.347  1.4404  0.2955 -0.4228
 7538SOL    MW429920   4.512   2.636   5.372  0.0313  0.1622  0.3699
 7539SOL     OW29921   1.182   5.623   5.939 -0.0085 -0.5101 -0.2005
 7539SOL    HW229922   1.115   5.570   5.982  0.0754 -0.3283  0.1591
 7539SOL    HW329923   1.262   5.572   5.948  0.1061 -0.2516  0.2949
 7539SOL    MW429924   1.184   5.609   5.946  0.6180  0.1595 -0.4435
 7540SOL     OW29925   4.106   5.133   3.844  0.4086  0.3931  0.3473
 7540SOL    HW229926   4.019   5.172   3.841  0.8909  1.7040  1.8735
 7540SOL    HW329927   4.143   5.165   3.926  0.9099 -3.1971  1.7024
 7540SOL    MW429928   4.099   5.142   3.854 -0.1263  0.0872  0.0002
 7541SOL     OW29929   1.448   5.782   1.144  0.6700  0.2720 -0.3114
 7541SOL    HW229930   1.436   5.754   1.235 -1.5033 -0.7666 -0.8518
 7541SOL    HW329931   1.396   5.862   1.137  1.6245  0.8948 -0.4181
 7541SOL    MW429932   1.440   5.789   1.155  0.3803  0.5011 -0.1727
 7542SOL     OW29933   1.060   1.370   3.968  0.2969  0.4553 -0.0388
 7542SOL    HW229934   1.055   1.379   3.873  1.0153  0.7783 -0.0526
 7542SOL    HW329935   1.096   1.282   3.982  1.8482  1.0488 -0.1197
 7542SOL    MW429936   1.064   1.360   3.958  0.7771 -0.3632 -0.2898
 7543SOL     OW29937   4.770   0.877   3.302 -0.4229 -0.0633 -0.1129
 7543SOL    HW229938   4.702   0.944   3.293 -1.8168 -1.2279  1.1491
 7543SOL    HW329939   4.802   0.886   3.392 -0.4711 -0.9218 -0.0002
 7543SOL    MW429940   4.765   0.887   3.313 -0.0256  0.0184  0.1860
 7544SOL     OW29941   5.191   6.230   2.937  0.6392 -0.4687  0.2392
 7544SOL    HW229942   5.239   6.312   2.921  0.4337 -0.4213 -0.1511
 7544SOL    HW329943   5.219   6.203   3.024  1.9116 -0.8156 -0.2527
 7544SOL    MW429944   5.201   6.238   2.946  0.0383  0.3295 -0.3826
 7545SOL     OW29945   0.752   4.510   3.912 -0.2009 -0.0975  0.0872
 7545SOL    HW229946   0.819   4.578   3.901  1.8074 -1.9533  0.1759
 7545SOL    HW329947   0.671   4.552   3.885  0.9379  2.3416  0.2074
 7545SOL    MW429948   0.750   4.524   3.907 -0.2923 -0.2061 -0.0665
 7546SOL     OW29949   3.145   4.854   2.353  0.0377 -0.4905 -0.0966
 7546SOL    HW229950   3.238   4.832   2.354  0.4145  0.7756  2.3857
 7546SOL    HW329951   3.103   4.784   2.403 -0.1465 -0.3854 -0.1025
 7546SOL    MW429952   3.152   4.842   2.360  0.3579  0.2785 -0.3536
 7547SOL     OW29953   1.593   3.223   5.879  0.1783  0.0967  0.0487
 7547SOL    HW229954   1.668   3.222   5.938  0.5608  0.5057 -0.4249
 7547SOL    HW329955   1.605   3.302   5.826 -0.9840  0.5877  0.4757
 7547SOL    MW429956   1.604   3.233   5.880  0.0618 -0.3202 -0.3035
 7548SOL     OW29957   5.398   5.675   5.375 -0.2387  0.3491 -0.0342
 7548SOL    HW229958   5.423   5.601   5.320  1.0511  0.0693  0.8844
 7548SOL    HW329959   5.304   5.666   5.388  0.0078 -1.5317  0.6361
 7548SOL    MW429960   5.389   5.664   5.369  0.8515 -0.5368 -0.2663
 7549SOL     OW29961   6.116   4.286   5.217  0.4023  0.1743 -0.1316
 7549SOL    HW229962   6.043   4.239   5.256 -0.3027  0.7677 -0.7209
 7549SOL    HW329963   6.104   4.276   5.123  1.7267 -0.6888 -0.2448
 7549SOL    MW429964   6.105   4.279   5.210 -0.0119  0.5777  0.4150
 7550SOL     OW29965   4.908   3.192   6.161 -0.1416 -0.1876  0.3749
 7550SOL    HW229966   4.943   3.114   6.204 -0.9065  0.2152  1.7778
 7550SOL    HW329967   4.913   3.171   6.067  3.6761 -0.1820  0.4333
 7550SOL    MW429968   4.913   3.179   6.154 -0.8303  0.2601 -0.3698
 7551SOL     OW29969   2.141   4.098   0.586 -0.1631  0.5265 -0.0673
 7551SOL    HW229970   2.158   4.149   0.507  2.1092  0.0375  0.0198
 7551SOL    HW329971   2.157   4.159   0.658 -0.8346  0.5957  0.0255
 7551SOL    MW429972   2.146   4.113   0.585 -0.2218 -0.2980  0.6910
 7552SOL     OW29973   3.941   0.684   5.020 -0.0979 -0.1290  0.2144
 7552SOL    HW229974   3.906   0.609   4.974 -0.6681  1.4413 -2.0937
 7552SOL    HW329975   4.033   0.662   5.038 -0.0726 -1.1170 -1.0354
 7552SOL    MW429976   3.949   0.671   5.017  0.5436 -0.8122 -0.5958
 7553SOL     OW29977   3.156   1.052   2.438 -0.0832 -0.2268 -0.5141
 7553SOL    HW229978   3.143   1.126   2.379 -1.3251 -0.8512 -1.0685
 7553SOL    HW329979   3.189   1.090   2.519  0.9989  0.7225 -1.3779
 7553SOL    MW429980   3.159   1.066   2.441 -0.1645  0.0247  0.6074
 7554SOL     OW29981   4.022   2.623   0.222 -0.3620  0.5062  0.2245
 7554SOL    HW229982   4.062   2.571   0.152 -1.2116  2.1028 -1.5551
 7554SOL    HW329983   4.045   2.577   0.303  0.1151 -1.7838 -1.1262
 7554SOL    MW429984   4.031   2.610   0.223  0.3804  0.1280 -0.3912
 7555SOL     OW29985   3.325   3.903   4.610  0.1882 -0.1473  0.7450
 7555SOL    HW229986   3.297   3.866   4.527 -1.0491  0.4451  0.8778
 7555SOL    HW329987   3.244   3.921   4.658  0.7456  1.8164  1.0709
 7555SOL    MW429988   3.310   3.901   4.605 -0.0523 -0.3519  0.3859
 7556SOL     OW29989   1.630   0.694   2.061 -0.1378  0.3031  0.2609
 7556SOL    HW229990   1.696   0.729   2.002 -0.8457  0.2154 -0.6021
 7556SOL    HW329991   1.593   0.771   2.105 -0.2112  0.4492 -0.0554
 7556SOL    MW429992   1.634   0.708   2.059 -0.7151 -0.3241 -0.4975
 7557SOL     OW29993   0.285   5.895   6.196  0.1452  0.0452  0.2636
 7557SOL    HW229994   0.354   5.844   6.154 -1.2434 -0.5243 -1.4587
 7557SOL    HW329995   0.285   5.865   6.287  1.9081 -0.1729  0.2360
 7557SOL    MW429996   0.294   5.885   6.202 -0.0327  0.1244  0.7699
 7558SOL     OW29997   1.953   4.996   0.721  0.6334  0.0655  0.2213
 7558SOL    HW229998   2.033   5.000   0.667 -0.5133  0.3186 -1.5533
 7558SOL    HW329999   1.892   4.945   0.668 -1.0038  1.4884  0.6792
 7558SOL    MW430000   1.956   4.990   0.707 -0.2429  0.6891 -0.3196
 7559SOL     OW30001   2.356   2.636   0.885  0.0990 -0.1244 -0.1421
 7559SOL    HW230002   2.310   2.689   0.950 -0.0703  0.1175 -0.4520
 7559SOL    HW330003   2.365   2.550   0.925 -0.4336 -0.1111  0.0073
 7559SOL    MW430004   2.351   2.632   0.899 -0.2466 -0.1441 -0.0555
 7560SOL     OW30005   5.524   0.176   2.378 -0.2794 -0.5227  0.0449
 7560SOL    HW230006   5.434   0.145   2.378 -1.3714  2.1369 -2.5096
 7560SOL    HW330007   5.567   0.125   2.309 -0.9671  0.7522 -1.3853
 7560SOL    MW430008   5.518   0.165   2.369  0.0228 -0.0932  0.3060
 7561SOL     OW30009   0.541   4.497   1.832 -0.2713 -0.0824 -0.5891
 7561SOL    HW230010   0.573   4.410   1.855 -0.2475 -0.3136 -1.4757
 7561SOL    HW330011   0.603   4.556   1.875 -0.8263 -0.4629  0.8055
 7561SOL    MW430012   0.554   4.493   1.841 -0.3361 -0.0078  0.0077
 7562SOL     OW30013   5.739   2.497   5.293  0.7544 -0.5082 -0.0951
 7562SOL    HW230014   5.776   2.569   5.243 -2.9577  1.7167 -0.0089
 7562SOL    HW330015   5.723   2.533   5.380  0.8888 -2.2106  0.6887
 7562SOL    MW430016   5.742   2.511   5.298  0.3961  0.4369  0.2035
 7563SOL     OW30017   1.444   2.978   4.104  0.3803 -0.0939  0.5544
 7563SOL    HW230018   1.489   3.009   4.025 -2.2522  0.2299 -0.9348
 7563SOL    HW330019   1.373   2.923   4.071 -1.7413  1.2462  2.5838
 7563SOL    MW430020   1.441   2.974   4.089 -0.1733 -0.2780  0.3223
 7564SOL     OW30021   6.222   3.869   2.542 -0.1157  0.5258 -0.0329
 7564SOL    HW230022   6.179   3.946   2.504  1.6123  1.3872 -0.3369
 7564SOL    HW330023   6.314   3.880   2.522  0.1896 -1.7071 -0.1643
 7564SOL    MW430024   6.228   3.881   2.535  0.2831  0.5875 -0.1586
 7565SOL     OW30025   4.130   2.118   5.678  0.1812  0.8851  0.0450
 7565SOL    HW230026   4.214   2.089   5.643  0.6153  0.4064  1.4098
 7565SOL    HW330027   4.073   2.123   5.602  0.2922 -2.7284 -0.4526
 7565SOL    MW430028   4.134   2.115   5.663  0.2880  0.1542  0.2356
 7566SOL     OW30029   0.580   3.154   0.171 -0.2660  0.2424 -0.2075
 7566SOL    HW230030   0.537   3.119   0.093  1.0272 -0.9249 -0.4289
 7566SOL    HW330031   0.572   3.084   0.236  1.7709 -0.2830 -0.4467
 7566SOL    MW430032   0.573   3.140   0.169  0.0022  1.0396  0.5782
 7567SOL     OW30033   2.665   0.609   4.899  0.3735  0.1465  0.4412
 7567SOL    HW230034   2.696   0.542   4.837 -0.3503  1.2521 -1.1939
 7567SOL    HW330035   2.675   0.692   4.851 -2.2395  0.8402  0.9376
 7567SOL    MW430036   2.670   0.611   4.884 -0.1494  0.0727 -0.0651
 7568SOL     OW30037   6.311   0.920   6.279  0.0187 -0.4724 -0.4070
 7568SOL    HW230038   6.352   0.940   6.363 -2.3784  1.5643  0.4079
 7568SOL    HW330039   6.325   0.999   6.226 -0.5795 -0.7719 -1.0236
 7568SOL    MW430040   6.318   0.933   6.283 -0.0869 -0.0619  0.0927
 7569SOL     OW30041   4.546   4.448   4.075 -0.7499 -0.3255  0.2622
 7569SOL    HW230042   4.511   4.506   4.142 -0.5517  0.0979  0.0039
 7569SOL    HW330043   4.619   4.403   4.118 -0.9071 -0.3908  0.4634
 7569SOL    MW430044   4.551   4.450   4.089  0.1078  0.4837  0.3172
 7570SOL     OW30045   1.710   0.499   3.302  0.5225 -0.7631  0.1693
 7570SOL    HW230046   1.678   0.482   3.213  1.6829  2.5757 -1.0274
 7570SOL    HW330047   1.804   0.481   3.298  1.1723  2.2051 -0.2659
 7570SOL    MW430048   1.718   0.494   3.289  0.0455 -0.4877  0.1340
 7571SOL     OW30049   5.718   0.926   5.920 -0.3874 -0.1846 -0.2562
 7571SOL    HW230050   5.803   0.965   5.900 -1.2994  2.7838  1.0442
 7571SOL    HW330051   5.687   0.891   5.837  2.5610 -2.5226 -0.5224
 7571SOL    MW430052   5.725   0.927   5.907 -0.0395  0.2095 -0.0377
 7572SOL     OW30053   2.481   3.635   0.163 -0.1766 -0.2059 -0.5466
 7572SOL    HW230054   2.507   3.543   0.175  0.7218  0.1778  0.6230
 7572SOL    HW330055   2.495   3.676   0.248 -1.0179  0.9296 -0.9222
 7572SOL    MW430056   2.486   3.628   0.176  0.0734  0.5847 -0.0094
 7573SOL     OW30057   5.815   5.212   4.830 -0.0502 -0.3159  0.2503
 7573SOL    HW230058   5.895   5.262   4.815  0.4262 -1.2101 -0.3366
 7573SOL    HW330059   5.844   5.120   4.829 -0.9412 -0.6257  0.9511
 7573SOL    MW430060   5.829   5.206   4.828  0.0109  0.9807 -0.0652
 7574SOL     OW30061   0.834   5.050   4.882  0.0928  0.2166  0.4372
 7574SOL    HW230062   0.830   5.143   4.860 -3.0113  0.2171  0.5876
 7574SOL    HW330063   0.831   5.005   4.798 -0.5225  0.2647  0.4290
 7574SOL    MW430064   0.834   5.056   4.868 -0.0602  0.5938  0.8824
 7575SOL     OW30065   1.758   6.334   4.575 -0.5236 -0.2041 -0.6343
 7575SOL    HW230066   1.809   6.260   4.542  0.0395  0.1591 -0.5843
 7575SOL    HW330067   1.704   6.297   4.645  0.8985 -0.2745  0.4634
 7575SOL    MW430068   1.757   6.319   4.580 -0.7811 -0.3544  0.1658
 7576SOL     OW30069   4.821   0.126   5.180 -0.2468 -0.1895  0.1256
 7576SOL    HW230070   4.737   0.081   5.184  0.4196 -1.3979  2.7379
 7576SOL    HW330071   4.886   0.057   5.197  1.1536  1.0397 -0.0318
 7576SOL    MW430072   4.819   0.111   5.183 -0.9347 -0.5041  0.1092
 7577SOL     OW30073   1.469   1.333   0.841 -0.3908 -0.2282 -0.3557
 7577SOL    HW230074   1.492   1.293   0.925 -0.8591 -0.0798 -0.1548
 7577SOL    HW330075   1.447   1.260   0.784 -1.9661 -0.2437  0.2231
 7577SOL    MW430076   1.470   1.318   0.845 -0.5179  0.0282 -0.4117
 7578SOL     OW30077   3.498   4.989   1.467 -0.1208  0.1471 -0.7751
 7578SOL    HW230078   3.505   5.025   1.556  1.9327  0.8211 -1.1638
 7578SOL    HW330079   3.422   5.034   1.429 -1.2940 -0.4631  0.7502
 7578SOL    MW430080   3.489   5.000   1.474 -0.5981  0.1296  0.7204
 7579SOL     OW30081   3.743   3.167   6.134  0.2615  0.4415 -0.0434
 7579SOL    HW230082   3.763   3.167   6.228 -1.5198  0.5408  0.3769
 7579SOL    HW330083   3.804   3.231   6.097  1.3687  0.0104  0.9369
 7579SOL    MW430084   3.754   3.175   6.142 -0.4529  0.1259 -0.1028
 7580SOL     OW30085   3.715   2.062   0.855  0.3884  0.0692 -0.5079
 7580SOL    HW230086   3.684   2.143   0.896 -1.0096 -1.0010  0.6776
 7580SOL    HW330087   3.661   2.052   0.777  0.4965  0.2394 -0.6038
 7580SOL    MW430088   3.704   2.071   0.850  0.2661  0.1461  0.2322
 7581SOL     OW30089   3.069   2.272   4.905  0.0969  0.4781 -0.0083
 7581SOL    HW230090   3.159   2.278   4.873  0.2585 -0.6458  0.1903
 7581SOL    HW330091   3.077   2.226   4.988 -0.6770  0.2994 -0.0314
 7581SOL    MW430092   3.082   2.267   4.912  0.4430  0.0502 -0.2450
 7582SOL     OW30093   0.094   6.343   0.023  0.0845  0.3257  0.3636
 7582SOL    HW230094   0.081   6.389   0.105  0.6893  0.6162  0.3002
 7582SOL    HW330095   0.011   6.354  -0.024 -0.8563 -1.1836  1.5658
 7582SOL    MW430096   0.081   6.351   0.027  0.3990 -0.4913 -0.5782
 7583SOL     OW30097   4.567   0.392   3.886  0.4374 -0.0691 -0.1535
 7583SOL    HW230098   4.478   0.416   3.912  0.4852 -0.4330  0.3488
 7583SOL    HW330099   4.587   0.313   3.936  1.9924  1.3921  1.6616
 7583SOL    MW430100   4.558   0.385   3.896  0.0678 -0.2233  0.1122
 7584SOL     OW30101   6.199   3.152   5.773 -0.3754  0.2933  0.7142
 7584SOL    HW230102   6.271   3.125   5.716  0.0430  0.8322  0.9734
 7584SOL    HW330103   6.235   3.226   5.823 -1.6774  1.7907 -0.4649
 7584SOL    MW430104   6.213   3.158   5.772 -0.1974  0.1936  0.0056
 7585SOL     OW30105   6.075   5.248   0.448 -0.4741  0.8504 -0.0835
 7585SOL    HW230106   6.009   5.208   0.391 -1.0182  3.5154 -1.4855
 7585SOL    HW330107   6.158   5.228   0.406 -0.5523 -0.3809  0.3042
 7585SOL    MW430108   6.077   5.240   0.435  0.0142  0.3360  0.1400
 7586SOL     OW30109   4.194   5.843   3.658 -0.6874  0.2298 -0.0363
 7586SOL    HW230110   4.210   5.861   3.750 -2.1040 -2.0084  0.7443
 7586SOL    HW330111   4.101   5.863   3.645  0.0698  3.1534 -1.7690
 7586SOL    MW430112   4.184   5.848   3.668 -0.2713  0.2547 -0.2711
 7587SOL     OW30113   0.923   1.509   6.149 -0.1131 -0.0740  0.1536
 7587SOL    HW230114   1.018   1.501   6.139 -0.4831 -2.6275 -2.7633
 7587SOL    HW330115   0.899   1.581   6.090 -0.0959 -0.1371  0.0695
 7587SOL    MW430116   0.932   1.518   6.140  0.4532 -0.4057  0.5944
 7588SOL     OW30117   2.096   4.237   0.353  0.2005  0.0341 -0.1536
 7588SOL    HW230118   2.056   4.162   0.309  3.0387 -1.0101 -1.1895
 7588SOL    HW330119   2.163   4.267   0.292  2.1462  0.5787  2.1065
 7588SOL    MW430120   2.100   4.231   0.339 -0.6106 -0.5001  0.1502
 7589SOL     OW30121   5.514   2.062   6.149 -0.4649  0.5135 -0.0183
 7589SOL    HW230122   5.548   1.995   6.089  0.0563 -1.3194  2.2027
 7589SOL    HW330123   5.463   2.013   6.214  0.0410  2.2421  1.7746
 7589SOL    MW430124   5.512   2.046   6.149 -0.5467 -0.3549  0.0426
 7590SOL     OW30125   4.249   0.368   5.683  0.1896 -0.2549  0.3810
 7590SOL    HW230126   4.232   0.315   5.605  1.5705 -0.6046  0.2943
 7590SOL    HW330127   4.343   0.362   5.696  0.3166  1.7230  0.7088
 7590SOL    MW430128   4.259   0.360   5.674  0.3921 -0.1855  0.0694
 7591SOL     OW30129   6.165   2.693   0.442  0.0822  0.1358  0.1989
 7591SOL    HW230130   6.119   2.609   0.448  1.3421 -0.5915  0.0570
 7591SOL    HW330131   6.102   2.757   0.475 -2.2296 -0.3138 -2.7988
 7591SOL    MW430132   6.151   2.690   0.447 -0.7449  0.3891  0.1002
 7592SOL     OW30133   1.516   0.707   2.463 -0.9379  0.6444  0.4000
 7592SOL    HW230134   1.462   0.765   2.409  2.3168  2.5570 -1.1599
 7592SOL    HW330135   1.554   0.645   2.400  0.0637  0.5188  1.1075
 7592SOL    MW430136   1.514   0.706   2.448  0.6484  0.1342  0.1694
 7593SOL     OW30137   5.322   3.155   3.776 -0.2589 -0.0153  0.2469
 7593SOL    HW230138   5.350   3.067   3.751  1.9010  0.6033  0.3022
 7593SOL    HW330139   5.353   3.211   3.705  0.3168  0.9707  1.2497
 7593SOL    MW430140   5.329   3.151   3.763 -0.4063 -0.3877 -0.1734
 7594SOL     OW30141   3.483   5.681   2.361 -0.2298  0.0616  0.4892
 7594SOL    HW230142   3.571   5.646   2.370  0.3649  1.4150  0.2701
 7594SOL    HW330143   3.439   5.622   2.300  0.5283 -0.6072  0.5770
 7594SOL    MW430144   3.489   5.669   2.355 -0.4167 -0.0969  0.8271
 7595SOL     OW30145   5.027   0.770   1.654  0.3482  0.6409  0.3104
 7595SOL    HW230146   5.074   0.737   1.731  0.5686  0.5277  0.1295
 7595SOL    HW330147   5.047   0.864   1.653  0.1936  0.6766  0.4953
 7595SOL    MW430148   5.036   0.778   1.664  0.2169 -0.5282 -0.1584
 7596SOL     OW30149   4.475   2.785   3.497 -0.1033  0.4922 -0.0480
 7596SOL    HW230150   4.430   2.701   3.505  1.6921 -0.5396 -0.3711
 7596SOL    HW330151   4.567   2.765   3.513  0.2075  2.6604  1.3810
 7596SOL    MW430152   4.481   2.771   3.500 -0.3151  0.3394  0.6756
 7597SOL     OW30153   4.095   4.157   2.501 -0.4332  0.6333  0.0303
 7597SOL    HW230154   4.167   4.127   2.557 -2.1009 -0.9833  1.4507
 7597SOL    HW330155   4.114   4.250   2.486  1.7526  0.3443  0.6102
 7597SOL    MW430156   4.107   4.165   2.506  0.1752  0.0587 -0.1415
 7598SOL     OW30157   1.180   4.472   1.755 -0.0234 -0.5086 -0.1462
 7598SOL    HW230158   1.195   4.403   1.820  0.6629  1.0263  1.4096
 7598SOL    HW330159   1.267   4.493   1.720 -0.2786 -0.7040 -0.9219
 7598SOL    MW430160   1.193   4.466   1.759  0.0732 -0.5397 -0.0590
 7599SOL     OW30161   0.813   2.542   3.500 -0.1448 -0.7845 -0.4913
 7599SOL    HW230162   0.802   2.502   3.586 -1.1632  2.2822  0.9592
 7599SOL    HW330163   0.799   2.471   3.438  1.5998 -3.3465  1.8050
 7599SOL    MW430164   0.810   2.527   3.503 -0.2649 -0.3512 -0.9241
 7600SOL     OW30165   1.503   0.601   4.996  0.1744 -0.7888 -0.2431
 7600SOL    HW230166   1.510   0.657   5.073 -1.5954 -0.9449  0.0703
 7600SOL    HW330167   1.476   0.516   5.030  1.1924 -1.3987 -0.8859
 7600SOL    MW430168   1.501   0.597   5.010  0.0598  0.1961 -0.2190
 7601SOL     OW30169   2.576   4.731   1.857  0.1048  0.1670 -0.1636
 7601SOL    HW230170   2.668   4.756   1.867  0.7604 -1.2282 -1.9736
 7601SOL    HW330171   2.574   4.681   1.775 -1.9215 -1.4302  0.7601
 7601SOL    MW430172   2.588   4.728   1.847 -0.3187  0.0745  0.8837
 7602SOL     OW30173   1.067   0.605   0.702 -0.2175 -0.0606 -0.3779
 7602SOL    HW230174   1.043   0.554   0.780 -0.0020 -0.6420 -0.6790
 7602SOL    HW330175   1.048   0.545   0.629  1.3983 -0.2589 -0.6703
 7602SOL    MW430176   1.062   0.590   0.703 -0.0061 -0.3837  0.0001
 7603SOL     OW30177   0.582   4.680   3.021  0.5098 -0.2143 -0.3963
 7603SOL    HW230178   0.506   4.734   3.043  0.9130  0.0215  0.4715
 7603SOL    HW330179   0.548   4.615   2.960  0.1122  1.3249 -1.9053
 7603SOL    MW430180   0.568   4.679   3.016  0.2386  0.2188  0.0001
 7604SOL     OW30181   3.958   2.146   6.307 -0.2243 -0.4547 -0.0218
 7604SOL    HW230182   4.029   2.084   6.286  0.3036  0.9416 -2.7815
 7604SOL    HW330183   3.882   2.111   6.261 -1.0307 -1.1879  1.7878
 7604SOL    MW430184   3.958   2.133   6.298  0.3570  0.3551  0.0006
 7605SOL     OW30185   6.138   0.574   5.366 -0.0315 -0.4111  0.1056
 7605SOL    HW230186   6.213   0.576   5.307 -0.1969 -0.1562 -0.0958
 7605SOL    HW330187   6.172   0.607   5.449 -0.4803  2.1143 -0.6320
 7605SOL    MW430188   6.153   0.579   5.369 -0.2981 -0.1043 -0.6580
 7606SOL     OW30189   4.634   1.578   4.341  0.3439  0.0488  0.2761
 7606SOL    HW230190   4.605   1.662   4.377  0.2400  0.8456 -1.5561
 7606SOL    HW330191   4.582   1.512   4.388  0.9195  0.9317  2.2355
 7606SOL    MW430192   4.623   1.580   4.352 -0.0407 -0.1458 -0.1403
 7607SOL     OW30193   1.089   1.199   2.422  0.2236  0.1025 -0.3553
 7607SOL    HW230194   1.128   1.124   2.467  0.8232  1.1479  0.9298
 7607SOL    HW330195   1.062   1.165   2.337 -1.1626 -1.9931  0.8526
 7607SOL    MW430196   1.091   1.185   2.417 -0.3665  0.1128  0.4839
 7608SOL     OW30197   6.396   3.828   6.231  0.1650  0.1588  0.2036
 7608SOL    HW230198   6.392   3.923   6.234 -0.0847  0.1884 -0.8520
 7608SOL    HW330199   6.307   3.799   6.254 -0.0802  0.2130 -0.6739
 7608SOL    MW430200   6.384   3.836   6.235 -0.3595 -0.2653  0.4254
 7609SOL     OW30201   4.733   6.352   0.037 -0.2459 -0.1724  0.4073
 7609SOL    HW230202   4.680   6.383   0.110  2.3708  0.3404  2.2519
 7609SOL    HW330203   4.754   6.431  -0.013 -0.9362 -0.3382 -0.1677
 7609SOL    MW430204   4.729   6.366   0.040 -0.2992 -0.5005 -0.3562
 7610SOL     OW30205   2.848   6.030   5.138 -0.0413 -0.1407  0.0455
 7610SOL    HW230206   2.766   6.061   5.101 -0.8249 -0.7712  1.1980
 7610SOL    HW330207   2.823   5.984   5.218  1.5224  0.6245  1.0287
 7610SOL    MW430208   2.834   6.028   5.144  0.6704  0.3436 -0.8106
 7611SOL     OW30209   1.303   2.171   2.614  0.0018  0.3747  0.1646
 7611SOL    HW230210   1.259   2.226   2.678  0.6676 -0.4897  1.4024
 7611SOL    HW330211   1.299   2.082   2.650  1.0762 -0.0156 -0.5883
 7611SOL    MW430212   1.297   2.166   2.627 -0.0659  0.2906 -0.9371
 7612SOL     OW30213   4.852   6.306   0.581 -0.1453  0.1202  0.5764
 7612SOL    HW230214   4.853   6.249   0.504  0.4156  0.3633  0.3993
 7612SOL    HW330215   4.850   6.394   0.544 -0.9327  0.2181  0.8487
 7612SOL    MW430216   4.852   6.310   0.566 -0.0068  0.0476  0.5154
 7613SOL     OW30217   5.081   4.655   3.178  0.4828  0.4355  0.2254
 7613SOL    HW230218   4.985   4.656   3.183  0.5431  0.2339  2.2700
 7613SOL    HW330219   5.103   4.732   3.126 -0.8032 -0.3780 -1.6475
 7613SOL    MW430220   5.071   4.665   3.172  0.1605  0.2263 -0.5367
 7614SOL     OW30221   6.086   1.238   4.129  0.6802 -0.1014 -0.6102
 7614SOL    HW230222   6.047   1.182   4.197  0.1675  3.2178  2.0805
 7614SOL    HW330223   6.178   1.209   4.124  1.0893  0.3401  2.5395
 7614SOL    MW430224   6.093   1.226   4.137  0.8225  0.3006  0.3232
 7615SOL     OW30225   0.132   5.687   5.388  0.3649 -0.0417  0.1127
 7615SOL    HW230226   0.072   5.759   5.369 -2.0437 -1.9285  0.0133
 7615SOL    HW330227   0.089   5.639   5.460  1.3633 -1.9063 -0.4675
 7615SOL    MW430228   0.118   5.690   5.395  0.6397 -0.3655  0.3456
 7616SOL     OW30229   3.553   6.352   6.013 -0.3224 -0.1836 -0.3846
 7616SOL    HW230230   3.556   6.290   5.940 -0.1922  2.3349 -2.6638
 7616SOL    HW330231   3.483   6.413   5.990  1.4933  2.2668  0.1496
 7616SOL    MW430232   3.544   6.352   6.000  0.0698  0.0031 -0.3705
 7617SOL     OW30233   1.678   2.383   5.499  0.1901  0.0220  0.0939
 7617SOL    HW230234   1.757   2.436   5.492  0.6008 -0.7561 -1.8849
 7617SOL    HW330235   1.633   2.396   5.415 -0.6476 -1.2569  0.3183
 7617SOL    MW430236   1.682   2.392   5.487 -0.5144  0.3477 -0.5125
 7618SOL     OW30237   4.541   1.421   2.955  0.0928  0.2954  0.0657
 7618SOL    HW230238   4.606   1.491   2.952 -0.6048  0.9544  0.2152
 7618SOL    HW330239   4.484   1.437   2.880 -2.2825  2.0907  2.0982
 7618SOL    MW430240   4.542   1.432   2.945 -0.4226  0.5138  0.1304
 7619SOL     OW30241   6.304   5.094   3.292  0.1493 -0.1982 -0.2585
 7619SOL    HW230242   6.395   5.102   3.264  0.5620  0.2749  1.1189
 7619SOL    HW330243   6.278   5.005   3.265  1.0064 -0.3296 -0.6750
 7619SOL    MW430244   6.313   5.083   3.285  0.4894  0.2029 -1.0032
 7620SOL     OW30245   2.000   1.781   4.366  1.1569  0.5872 -0.3369
 7620SOL    HW230246   2.078   1.740   4.405  1.3779  0.7157 -0.6391
 7620SOL    HW330247   2.034   1.829   4.291  0.7293  0.3349 -0.6961
 7620SOL    MW430248   2.015   1.782   4.361 -0.3433  0.3845  0.1601
 7621SOL     OW30249   5.646   1.252   6.202 -0.0413 -0.3644 -0.6136
 7621SOL    HW230250   5.601   1.172   6.174  0.7200 -0.7397 -0.7873
 7621SOL    HW330251   5.738   1.228   6.204  0.3329  0.8717 -1.8760
 7621SOL    MW430252   5.652   1.238   6.199 -0.1625 -0.9126 -0.3810
 7622SOL     OW30253   2.167   5.839   6.044 -0.5782  0.3890  0.0051
 7622SOL    HW230254   2.111   5.779   6.093  0.0284  0.6410  1.0501
 7622SOL    HW330255   2.203   5.898   6.111 -0.2493  1.1741 -0.8414
 7622SOL    MW430256   2.164   5.839   6.059  0.1829 -0.1354  0.2350
 7623SOL     OW30257   2.307   3.630   3.336  0.5566  0.9351 -0.0176
 7623SOL    HW230258   2.351   3.640   3.420  0.4119  2.7730 -0.1088
 7623SOL    HW330259   2.367   3.669   3.272  0.9765 -1.0525 -0.9135
 7623SOL    MW430260   2.320   3.636   3.339 -0.2672 -0.8921 -0.3513
 7624SOL     OW30261   1.788   4.475   5.562 -0.1290 -0.5865  0.4815
 7624SOL    HW230262   1.852   4.416   5.521  2.3551 -0.6753  3.9743
 7624SOL    HW330263   1.726   4.416   5.605  0.6252 -0.6823  1.4917
 7624SOL    MW430264   1.788   4.459   5.563  0.0847 -0.1699  0.1630
 7625SOL     OW30265   3.579   2.706   4.690 -0.4281 -0.1641  0.0604
 7625SOL    HW230266   3.559   2.702   4.784 -1.1595 -1.2626 -0.1147
 7625SOL    HW330267   3.493   2.704   4.647 -0.0826 -1.3558 -0.6469
 7625SOL    MW430268   3.565   2.705   4.697 -0.3915  0.8230  0.0790
 7626SOL     OW30269   4.477   0.215   5.949  0.1033 -0.0300  0.7708
 7626SOL    HW230270   4.476   0.309   5.931 -0.0457  0.0435  1.1526
 7626SOL    HW330271   4.438   0.207   6.036  1.3431 -0.3277  1.3176
 7626SOL    MW430272   4.472   0.226   5.958 -0.3074  0.2909  0.1571
 7627SOL     OW30273   5.838   4.054   3.643  0.1599  0.1702  0.3661
 7627SOL    HW230274   5.820   4.138   3.600 -1.2722  1.6000  3.4427
 7627SOL    HW330275   5.753   4.027   3.679  0.5814 -2.6840 -0.5010
 7627SOL    MW430276   5.824   4.062   3.642  0.1421 -0.5592  0.1235
 7628SOL     OW30277   0.275   1.388   5.800  0.1317 -0.3517 -0.2817
 7628SOL    HW230278   0.242   1.300   5.782  0.8920 -0.9333  1.0218
 7628SOL    HW330279   0.296   1.388   5.894  0.9769  0.9318 -0.4327
 7628SOL    MW430280   0.273   1.377   5.810  0.3974 -0.5192 -0.2548
 7629SOL     OW30281   4.204   0.024   1.030  0.4889 -0.1314  0.8438
 7629SOL    HW230282   4.186   0.025   1.124  1.3268  1.8500  1.0283
 7629SOL    HW330283   4.229   0.114   1.009 -4.2814  0.8447 -2.2534
 7629SOL    MW430284   4.205   0.036   1.039 -0.0081  0.2176 -0.0621
 7630SOL     OW30285   6.176   1.566   2.587  0.5225  0.0984 -0.1897
 7630SOL    HW230286   6.167   1.482   2.633  1.2896  0.2513  0.2533
 7630SOL    HW330287   6.269   1.574   2.570  0.2899  0.2336 -1.4467
 7630SOL    MW430288   6.187   1.556   2.591  0.2098 -0.1641  0.1149
 7631SOL     OW30289   2.146   4.282   4.206  0.0768 -0.1134 -0.8000
 7631SOL    HW230290   2.178   4.242   4.125  0.4010 -1.4111 -0.0630
 7631SOL    HW330291   2.216   4.342   4.233  0.5654 -0.6980 -0.7660
 7631SOL    MW430292   2.159   4.285   4.199 -0.1264 -0.1315  0.3993
 7632SOL     OW30293   4.823   0.592   3.243  0.0342 -0.1521  0.5162
 7632SOL    HW230294   4.911   0.599   3.205 -0.2197  0.6534  0.0717
 7632SOL    HW330295   4.779   0.673   3.219 -1.1888 -0.9798 -0.1557
 7632SOL    MW430296   4.829   0.604   3.235  0.3764  0.1225 -0.2180
 7633SOL     OW30297   2.040   3.511   3.662  0.5591  0.3704 -0.0889
 7633SOL    HW230298   2.033   3.537   3.570 -3.5378  0.8530  0.1390
 7633SOL    HW330299   1.987   3.577   3.708  1.8280 -0.3394  2.5249
 7633SOL    MW430300   2.032   3.523   3.656  0.2809  0.3776  0.2387
 7634SOL     OW30301   3.772   1.215   3.653  0.4504 -1.2325  0.2407
 7634SOL    HW230302   3.861   1.244   3.629 -0.4710  1.9929  0.2339
 7634SOL    HW330303   3.722   1.221   3.572 -0.3850 -0.1828  0.8052
 7634SOL    MW430304   3.777   1.220   3.639 -0.7147 -0.4424 -0.2483
 7635SOL     OW30305   4.427   5.803   6.418  0.0163 -0.2611 -0.4343
 7635SOL    HW230306   4.416   5.715   6.382  0.4861 -0.6038  0.2549
 7635SOL    HW330307   4.420   5.860   6.341  0.5558 -0.9515 -1.0162
 7635SOL    MW430308   4.425   5.799   6.403 -0.7814 -0.1724  0.1318
 7636SOL     OW30309   1.070   3.974   5.976 -0.0526  0.4691  0.5459
 7636SOL    HW230310   1.158   3.944   6.000 -0.1059 -0.4823 -0.4103
 7636SOL    HW330311   1.014   3.897   5.988 -0.8221  1.1312  1.3874
 7636SOL    MW430312   1.074   3.960   5.981  0.0063 -0.7450  0.7877
 7637SOL     OW30313   1.096   5.220   3.490  0.0558  0.0143 -0.1887
 7637SOL    HW230314   1.075   5.313   3.496  2.6667  0.6085  1.4021
 7637SOL    HW330315   1.101   5.202   3.396 -4.6382  0.2844 -0.7156
 7637SOL    MW430316   1.094   5.230   3.479  0.0951  0.2589  0.3270
 7638SOL     OW30317   3.303   5.121   3.068 -0.1625  0.1843 -0.7144
 7638SOL    HW230318   3.308   5.182   2.994 -2.0903  0.0108 -1.0559
 7638SOL    HW330319   3.209   5.115   3.086  0.1404 -1.2986  0.4839
 7638SOL    MW430320   3.291   5.128   3.060 -0.1720 -0.1977  0.0837
 7639SOL     OW30321   4.983   5.197   2.756  0.6144 -0.3352 -0.3363
 7639SOL    HW230322   4.957   5.169   2.668  2.2290  1.7168 -1.5661
 7639SOL    HW330323   5.075   5.172   2.763  0.7743  0.4048  0.3739
 7639SOL    MW430324   4.992   5.190   2.745 -0.0651 -0.3628 -0.2755
 7640SOL     OW30325   5.113   4.035   3.390  0.1487 -0.4773  0.0342
 7640SOL    HW230326   5.088   4.108   3.447 -0.6453 -0.0422 -0.8267
 7640SOL    HW330327   5.208   4.043   3.380 -0.1086  1.5054 -1.3916
 7640SOL    MW430328   5.122   4.046   3.396  0.4645  1.1038  0.4070
 7641SOL     OW30329   4.260   1.790   4.783  0.1069  0.3726  0.2105
 7641SOL    HW230330   4.214   1.840   4.850 -0.6726  1.3182 -0.9825
 7641SOL    HW330331   4.352   1.791   4.810 -0.4814 -1.5728  2.6664
 7641SOL    MW430332   4.266   1.797   4.796  0.2139 -0.2312 -0.5425
 7642SOL     OW30333   1.491   0.407   0.633  0.0552  0.8013  0.1691
 7642SOL    HW230334   1.480   0.502   0.629  0.6898  0.9109  0.8603
 7642SOL    HW330335   1.565   0.389   0.573 -1.4540  0.4703 -1.6914
 7642SOL    MW430336   1.500   0.417   0.624 -0.7288 -0.4203  0.5414
 7643SOL     OW30337   2.132   1.739   2.616  0.3053 -0.6433 -0.0480
 7643SOL    HW230338   2.160   1.667   2.673 -0.5265 -1.0238 -0.0910
 7643SOL    HW330339   2.116   1.697   2.531  0.4509 -0.2885 -0.2492
 7643SOL    MW430340   2.133   1.724   2.612 -0.6383 -0.0384  0.2621
 7644SOL     OW30341   0.272   4.146   3.809 -0.0592  0.1662  0.3604
 7644SOL    HW230342   0.192   4.151   3.862  0.6244  0.8116  1.3787
 7644SOL    HW330343   0.286   4.052   3.797 -0.8309  0.0356  0.3879
 7644SOL    MW430344   0.263   4.134   3.815  0.0560 -0.1451  0.0628
 7645SOL     OW30345   2.947   2.357   0.707 -0.4631  0.1286 -0.5829
 7645SOL    HW230346   2.883   2.385   0.773 -0.6965 -1.4375 -0.1075
 7645SOL    HW330347   2.962   2.264   0.725  1.3330  0.2470 -1.2094
 7645SOL    MW430348   2.941   2.349   0.718 -0.1451  0.0072 -0.0608
 7646SOL     OW30349   2.222   1.466   2.143  0.1433  0.2384  0.1943
 7646SOL    HW230350   2.183   1.527   2.206 -1.2151 -0.5395  0.1308
 7646SOL    HW330351   2.304   1.439   2.183 -0.8702 -0.5307  1.8178
 7646SOL    MW430352   2.228   1.471   2.156  0.7466 -0.3134 -0.1674
 7647SOL     OW30353   4.690   6.112   3.027  0.1339  0.1399 -0.1512
 7647SOL    HW230354   4.663   6.025   2.996 -1.4271  0.7689 -0.6751
 7647SOL    HW330355   4.620   6.139   3.086  1.1364  0.6244  0.8487
 7647SOL    MW430356   4.677   6.104   3.030  0.2722  0.1639  0.2561
 7648SOL     OW30357   6.349   6.326   4.919  0.1080 -0.3877  0.1531
 7648SOL    HW230358   6.298   6.321   4.838 -1.1637 -0.8591  0.9530
 7648SOL    HW330359   6.383   6.238   4.932  1.0825 -0.1000 -0.3206
 7648SOL    MW430360   6.347   6.314   4.910  0.1452  0.7200 -0.3302
 7649SOL     OW30361   5.163   2.578   0.159  0.0907 -0.1870  0.1732
 7649SOL    HW230362   5.251   2.615   0.165 -0.4960  1.5046 -0.8792
 7649SOL    HW330363   5.172   2.506   0.096  0.5345  0.6833 -0.8000
 7649SOL    MW430364   5.176   2.573   0.151 -0.2056 -0.2054  0.1137
 7650SOL     OW30365   2.983   4.160   4.067 -0.1729 -0.3630 -0.1970
 7650SOL    HW230366   2.901   4.179   4.022 -0.0154  1.2213  0.1418
 7650SOL    HW330367   2.967   4.184   4.158  0.2159 -1.4507  0.1781
 7650SOL    MW430368   2.970   4.166   4.073  0.2844 -0.0807  0.5669
 7651SOL     OW30369   2.484   1.776   3.351  0.0013 -0.3596  0.2540
 7651SOL    HW230370   2.441   1.742   3.273  0.3582 -0.4760  0.1086
 7651SOL    HW330371   2.418   1.833   3.392 -0.1027 -0.1175 -0.2489
 7651SOL    MW430372   2.469   1.779   3.346 -0.0270  0.5701  0.2362
 7652SOL     OW30373   4.314   5.315   1.099  0.2442  0.0094 -0.4688
 7652SOL    HW230374   4.251   5.387   1.111  1.0223  1.1436 -2.5760
 7652SOL    HW330375   4.301   5.287   1.009  2.2464 -0.2063 -0.7331
 7652SOL    MW430376   4.304   5.321   1.089  0.3508 -0.2276  0.4576
 7653SOL     OW30377   2.719   4.459   6.170 -0.5791 -0.7413 -1.0814
 7653SOL    HW230378   2.715   4.551   6.193 -2.1646 -1.1468  0.4630
 7653SOL    HW330379   2.780   4.421   6.234  0.5997 -0.6878 -2.1317
 7653SOL    MW430380   2.727   4.466   6.181 -0.2483 -0.2325 -0.5136
 7654SOL     OW30381   0.238   2.746   3.972 -0.0350  0.1743 -0.0972
 7654SOL    HW230382   0.328   2.740   3.939 -0.4762 -0.4756 -1.2450
 7654SOL    HW330383   0.208   2.655   3.978  0.2086  0.1923  2.7904
 7654SOL    MW430384   0.246   2.733   3.968 -0.7547  0.3536  0.5247
 7655SOL     OW30385   1.000   6.215   0.928 -0.3360 -0.0476  0.4394
 7655SOL    HW230386   0.915   6.258   0.925 -0.1135  0.6344  2.5451
 7655SOL    HW330387   1.064   6.286   0.924  0.0720 -0.3433  1.3677
 7655SOL    MW430388   0.997   6.230   0.927 -0.2216 -0.4119 -0.4124
 7656SOL     OW30389   2.820   4.437   3.178 -0.0804  0.3560 -0.2062
 7656SOL    HW230390   2.758   4.420   3.249  0.2166  0.3993  0.0659
 7656SOL    HW330391   2.789   4.381   3.106 -1.2457  1.4051 -0.5633
 7656SOL    MW430392   2.808   4.427   3.178  0.2538 -0.2518 -0.3388
 7657SOL     OW30393   2.814   4.143   6.184  0.4077 -0.1224 -0.2872
 7657SOL    HW230394   2.799   4.172   6.094 -0.1061  0.8371  0.0902
 7657SOL    HW330395   2.909   4.142   6.193  0.4469  1.1426 -0.4231
 7657SOL    MW430396   2.824   4.147   6.173  0.5028  0.1862  0.2040
 7658SOL     OW30397   5.820   2.281   1.630 -0.9644  0.1658 -0.1353
 7658SOL    HW230398   5.730   2.311   1.614 -1.2856 -0.5902  0.1658
 7658SOL    HW330399   5.833   2.211   1.567 -0.4554  0.5096 -0.4107
 7658SOL    MW430400   5.810   2.275   1.620 -0.2053  0.3741 -0.1563
 7659SOL     OW30401   4.623   3.794   0.213 -0.1620  0.1306 -0.6090
 7659SOL    HW230402   4.611   3.780   0.120 -0.9581 -0.3721 -0.4420
 7659SOL    HW330403   4.559   3.737   0.255  2.1939 -1.9596  0.3722
 7659SOL    MW430404   4.613   3.785   0.207  0.5568 -0.0493  0.1088
 7660SOL     OW30405   4.097   5.064   4.508 -0.1871 -0.3400  1.1637
 7660SOL    HW230406   4.084   5.001   4.579  2.8818 -1.0145  1.2935
 7660SOL    HW330407   4.148   5.135   4.548 -2.0157  1.4097  0.5663
 7660SOL    MW430408   4.102   5.065   4.523 -0.2312 -0.8497  0.4152
 7661SOL     OW30409   4.825   1.527   5.171 -0.0812 -0.2392 -0.0577
 7661SOL    HW230410   4.916   1.502   5.186 -0.4474 -1.4245  0.3569
 7661SOL    HW330411   4.815   1.524   5.075 -0.3221 -2.6825 -0.0181
 7661SOL    MW430412   4.836   1.523   5.160 -0.4327  0.0864 -0.3549
 7662SOL     OW30413   5.686   1.360   4.093 -0.3680  0.8206  0.0880
 7662SOL    HW230414   5.683   1.272   4.130 -1.8060  0.1540 -1.5200
 7662SOL    HW330415   5.720   1.348   4.004 -0.7084  1.8765 -0.1990
 7662SOL    MW430416   5.690   1.347   4.086  0.7571  0.0845  0.6036
 7663SOL     OW30417   4.427   0.019   4.723 -0.3423  0.0704 -0.2129
 7663SOL    HW230418   4.430  -0.010   4.632 -0.9853 -0.5863 -0.0378
 7663SOL    HW330419   4.387  -0.054   4.770 -0.1330  0.4515  0.5780
 7663SOL    MW430420   4.422   0.006   4.717 -0.0781  0.0014  0.3317
 7664SOL     OW30421   4.300   0.888   3.515 -0.1211 -0.0276  0.2152
 7664SOL    HW230422   4.360   0.941   3.567  0.6714  0.3682 -1.0764
 7664SOL    HW330423   4.214   0.903   3.555  0.4454  0.3162  1.3515
 7664SOL    MW430424   4.297   0.897   3.527 -0.7952  0.0108  0.0860
 7665SOL     OW30425   0.977   1.938   2.239  0.3723 -0.1850  0.3067
 7665SOL    HW230426   1.071   1.923   2.229  0.4593  0.8721 -0.6028
 7665SOL    HW330427   0.968   1.976   2.326  0.7089 -0.8098  0.6254
 7665SOL    MW430428   0.988   1.941   2.249  0.7560 -0.5863 -0.5322
 7666SOL     OW30429   2.071   3.272   6.208 -0.2866  0.4795  0.1268
 7666SOL    HW230430   2.042   3.182   6.221  1.5729 -0.4005 -1.3838
 7666SOL    HW330431   1.991   3.320   6.187 -1.5199 -0.4760  2.3232
 7666SOL    MW430432   2.056   3.267   6.207 -0.6234 -0.1224  0.1215
 7667SOL     OW30433   5.071   4.899   3.498  0.1730  0.2825  0.0447
 7667SOL    HW230434   5.008   4.971   3.492 -1.2041 -0.9086 -0.2717
 7667SOL    HW330435   5.127   4.910   3.422 -1.6701 -0.4557 -1.4779
 7667SOL    MW430436   5.070   4.910   3.488  0.1700  0.0178 -0.1523
 7668SOL     OW30437   2.974   5.281   0.574 -0.0237 -0.1946 -0.1896
 7668SOL    HW230438   2.940   5.191   0.568 -1.4122  0.0863  2.2858
 7668SOL    HW330439   2.917   5.332   0.516  1.9809 -1.0994 -3.1834
 7668SOL    MW430440   2.962   5.276   0.565  0.5398 -0.1291  0.2513
 7669SOL     OW30441   0.226   2.552   5.072  0.0888  0.1233 -0.2143
 7669SOL    HW230442   0.215   2.611   4.997  0.7521  0.1502 -0.2931
 7669SOL    HW330443   0.162   2.482   5.057 -0.2782  0.4973 -0.4333
 7669SOL    MW430444   0.216   2.551   5.060  0.2865 -0.6482 -0.2854
 7670SOL     OW30445   5.175   1.006   3.388  0.2623 -0.7088 -0.3718
 7670SOL    HW230446   5.193   1.053   3.469  1.4080 -1.2076 -0.3222
 7670SOL    HW330447   5.245   1.034   3.329 -1.0468  0.3390 -1.5100
 7670SOL    MW430448   5.187   1.016   3.391  0.0635  0.0734 -0.1603
 7671SOL     OW30449   5.826   1.980   1.790  0.2283  0.7001  0.5879
 7671SOL    HW230450   5.909   2.012   1.826  0.5932  0.5856 -0.1222
 7671SOL    HW330451   5.842   1.886   1.774  0.6460  1.0622 -1.3675
 7671SOL    MW430452   5.839   1.972   1.793 -0.2742 -0.0096 -0.0957
 7672SOL     OW30453   0.426   0.732   1.140  0.1307  0.1127  0.7068
 7672SOL    HW230454   0.485   0.662   1.110  0.2513 -0.6867  2.6634
 7672SOL    HW330455   0.484   0.796   1.180 -0.2027 -0.1197  1.5913
 7672SOL    MW430456   0.441   0.731   1.141 -0.3761  0.2970 -0.0773
 7673SOL     OW30457   3.537   4.001   0.813 -0.1212 -0.3383 -0.1801
 7673SOL    HW230458   3.574   4.089   0.801  1.3256 -1.0436 -1.2052
 7673SOL    HW330459   3.454   4.016   0.857  0.0989  1.5492 -0.3155
 7673SOL    MW430460   3.531   4.015   0.817 -0.1290 -0.1559  0.1718
 7674SOL     OW30461   1.210   5.974   2.680  0.1932 -0.3754  0.8252
 7674SOL    HW230462   1.120   5.960   2.652  0.4820  0.1517 -0.3940
 7674SOL    HW330463   1.209   5.954   2.774 -1.1598 -0.4733  0.8038
 7674SOL    MW430464   1.198   5.969   2.689 -0.6839  0.8002 -0.1847
 7675SOL     OW30465   6.051   2.463   1.695  0.3972 -0.1436  0.1021
 7675SOL    HW230466   5.976   2.422   1.651 -0.5566  1.0207  0.5614
 7675SOL    HW330467   6.128   2.419   1.659 -0.5486 -2.3716  0.6448
 7675SOL    MW430468   6.051   2.452   1.684 -0.5082  0.2333 -0.0103
 7676SOL     OW30469   1.476   6.169   6.322 -0.4920 -0.1166  0.1672
 7676SOL    HW230470   1.537   6.233   6.360  0.0795 -1.1144  0.9722
 7676SOL    HW330471   1.410   6.223   6.278 -0.0014  1.0332  0.7795
 7676SOL    MW430472   1.476   6.185   6.321  0.3726  0.0398  0.6987
 7677SOL     OW30473   3.511   1.436   1.059 -0.0434 -0.2606  0.1878
 7677SOL    HW230474   3.426   1.392   1.058 -1.6056  2.5330 -1.3100
 7677SOL    HW330475   3.511   1.489   1.138  1.4257 -2.0323  1.4719
 7677SOL    MW430476   3.500   1.437   1.069  0.2769  0.1361 -0.3961
 7678SOL     OW30477   3.795   4.794   3.352  0.1394  0.0641  0.3575
 7678SOL    HW230478   3.867   4.855   3.367  1.2455 -0.9716 -0.5559
 7678SOL    HW330479   3.782   4.794   3.257 -1.1985  0.3473  0.5112
 7678SOL    MW430480   3.803   4.802   3.341 -0.6284  0.5165  0.0736
 7679SOL     OW30481   3.786   5.416   4.982 -0.4795 -0.0478  0.0645
 7679SOL    HW230482   3.817   5.331   4.952 -0.8141 -0.0972 -0.1565
 7679SOL    HW330483   3.786   5.410   5.077 -4.1787 -1.7276  0.1281
 7679SOL    MW430484   3.790   5.404   4.990 -0.5864  0.7128 -0.5497
 7680SOL     OW30485   6.111   5.562   1.160  0.2533 -0.0221 -0.0369
 7680SOL    HW230486   6.072   5.618   1.093  0.5484  1.8689  1.3258
 7680SOL    HW330487   6.104   5.611   1.241  0.7324 -1.8759  1.2027
 7680SOL    MW430488   6.105   5.576   1.162  0.5279 -0.2401 -0.3133
 7681SOL     OW30489   1.323   3.309   5.055 -0.7466  0.1318 -0.7599
 7681SOL    HW230490   1.283   3.346   4.976 -0.5564 -1.5719 -1.7142
 7681SOL    HW330491   1.301   3.216   5.052  0.4103 -0.2245  0.4857
 7681SOL    MW430492   1.315   3.301   5.044  0.0810  0.2199  0.4522
 7682SOL     OW30493   2.547   5.877   0.240  0.3001 -0.1034 -0.7981
 7682SOL    HW230494   2.537   5.938   0.313  1.4176  0.4762 -1.1031
 7682SOL    HW330495   2.541   5.790   0.280  0.8411  0.2023 -0.0314
 7682SOL    MW430496   2.545   5.874   0.255  0.0787  0.1062  0.1161
 7683SOL     OW30497   2.219   0.060   0.131  0.0812 -0.7105  0.0632
 7683SOL    HW230498   2.217   0.063   0.226  1.7816  1.0752  0.1104
 7683SOL    HW330499   2.285  -0.007   0.111  2.0696  1.0889  0.2716
 7683SOL    MW430500   2.228   0.052   0.141  0.6096  0.3370  0.2116
 7684SOL     OW30501   2.833   1.843   5.505  0.8707  0.6187  0.4873
 7684SOL    HW230502   2.896   1.800   5.563 -0.0150 -1.3522  0.0669
 7684SOL    HW330503   2.791   1.772   5.458 -2.0095  1.7712  1.0632
 7684SOL    MW430504   2.836   1.828   5.507  0.3328  0.4762 -0.4043
 7685SOL     OW30505   5.963   1.923   2.519 -0.4326 -0.0618 -1.3066
 7685SOL    HW230506   5.901   1.868   2.567 -0.4196 -0.0227 -1.2456
 7685SOL    HW330507   5.954   1.895   2.428  1.8950 -2.4934 -0.9111
 7685SOL    MW430508   5.954   1.912   2.513  0.1762 -0.0549  0.1685
 7686SOL     OW30509   5.645   6.234   2.288 -0.3496 -0.1797  0.4771
 7686SOL    HW230510   5.701   6.159   2.305  0.5458 -0.0855 -1.6876
 7686SOL    HW330511   5.693   6.308   2.325 -0.7017 -0.5098  1.6258
 7686SOL    MW430512   5.659   6.234   2.295  0.0716 -0.1001 -0.1153
 7687SOL     OW30513   3.507   0.412   0.771 -0.4626 -0.0915 -0.3200
 7687SOL    HW230514   3.425   0.363   0.769 -0.8587  0.5637 -1.0314
 7687SOL    HW330515   3.526   0.425   0.864 -1.4377  0.1793 -0.1489
 7687SOL    MW430516   3.499   0.407   0.783  0.4926 -0.5190  0.1302
 7688SOL     OW30517   3.576   1.450   1.993  0.3999  0.4201 -0.4182
 7688SOL    HW230518   3.521   1.373   2.011 -0.7403  1.0319 -1.2137
 7688SOL    HW330519   3.571   1.502   2.073 -0.9252  0.9023 -0.7977
 7688SOL    MW430520   3.568   1.447   2.006  0.5721 -0.2037  0.0498
 7689SOL     OW30521   6.317   5.892   2.080 -0.0806 -0.6001  0.0767
 7689SOL    HW230522   6.245   5.836   2.110 -0.5719 -0.2377 -0.4075
 7689SOL    HW330523   6.310   5.891   1.984  0.4359 -0.3944  0.0327
 7689SOL    MW430524   6.307   5.884   2.071 -0.0079  0.0397  0.0879
 7690SOL     OW30525   3.447   2.959   2.833 -0.0370  0.9065 -0.2744
 7690SOL    HW230526   3.374   2.963   2.772 -0.8836 -2.7721  0.3007
 7690SOL    HW330527   3.498   2.883   2.805  1.2094  0.9007  1.8154
 7690SOL    MW430528   3.444   2.950   2.821 -0.1535 -0.0430 -0.1682
 7691SOL     OW30529   1.415   1.523   5.650  0.0056  0.2757 -0.0601
 7691SOL    HW230530   1.424   1.485   5.563 -0.1464 -0.3066  0.1736
 7691SOL    HW330531   1.321   1.521   5.668 -0.1917  2.2170 -0.6781
 7691SOL    MW430532   1.404   1.518   5.641  0.0118 -0.2419  0.4272
 7692SOL     OW30533   0.921   3.696   5.732  0.1847 -0.5081  0.8787
 7692SOL    HW230534   0.982   3.742   5.675  0.7508  0.4141  2.1825
 7692SOL    HW330535   0.835   3.730   5.707  0.6727  2.5507  2.7936
 7692SOL    MW430536   0.918   3.707   5.721 -0.2651 -0.0831  0.0760
 7693SOL     OW30537   1.065   2.549   3.326  0.2996  0.0045  0.0647
 7693SOL    HW230538   0.994   2.533   3.388 -1.7541 -1.4560 -2.4772
 7693SOL    HW330539   1.059   2.642   3.305 -1.3220 -0.2223 -0.5813
 7693SOL    MW430540   1.055   2.559   3.331 -0.1595  0.2414 -0.4814
 7694SOL     OW30541   0.440   3.282   1.965 -1.2696 -0.3852 -0.4335
 7694SOL    HW230542   0.374   3.234   1.914 -1.1616 -0.7273 -0.2560
 7694SOL    HW330543   0.410   3.372   1.964 -1.8606 -0.5763 -0.1661
 7694SOL    MW430544   0.427   3.287   1.958  0.1366  0.3018  0.1922
 7695SOL     OW30545   3.409   5.911   2.757  0.5525  0.0100 -0.0367
 7695SOL    HW230546   3.333   5.916   2.815  0.2749 -0.8540 -0.3119
 7695SOL    HW330547   3.409   5.994   2.710  1.3163  1.1312  1.8354
 7695SOL    MW430548   3.399   5.922   2.759 -0.4337 -0.6153  0.2064
 7696SOL     OW30549   5.965   6.292   6.036  0.1272  0.0756 -0.5872
 7696SOL    HW230550   6.003   6.366   5.989  1.3757  0.4277  0.8964
 7696SOL    HW330551   6.021   6.217   6.013 -0.2238 -0.0985 -0.8933
 7696SOL    MW430552   5.977   6.292   6.026  0.2694  0.5318  0.0234
 7697SOL     OW30553   2.375   1.095   5.939 -0.1619  0.0283  0.2369
 7697SOL    HW230554   2.402   1.053   6.021 -1.4794 -0.2711  0.5295
 7697SOL    HW330555   2.295   1.142   5.961 -1.2773 -1.1368 -1.1790
 7697SOL    MW430556   2.368   1.096   5.953  0.5247  0.4936 -0.1247
 7698SOL     OW30557   6.149   4.550   5.336 -0.4775  0.2273 -0.3212
 7698SOL    HW230558   6.129   4.463   5.301  0.5093 -0.1120 -0.0445
 7698SOL    HW330559   6.066   4.598   5.326 -0.9984 -0.6902 -0.5968
 7698SOL    MW430560   6.135   4.545   5.330  0.2933 -0.1758  0.0622
 7699SOL     OW30561   5.747   5.039   2.319  0.0860  0.2027 -0.0653
 7699SOL    HW230562   5.655   5.064   2.310 -0.3893 -0.8128  1.5639
 7699SOL    HW330563   5.757   4.964   2.261 -0.6146 -0.8066  1.0782
 7699SOL    MW430564   5.736   5.033   2.310 -0.6375  0.1600 -0.4452
 7700SOL     OW30565   3.952   1.209   5.651 -0.2645  0.2299  0.1180
 7700SOL    HW230566   3.910   1.208   5.564 -1.4560  0.4027  0.6708
 7700SOL    HW330567   3.879   1.220   5.712  0.5235 -0.3220  1.1736
 7700SOL    MW430568   3.937   1.211   5.647  0.0246  0.3464 -0.4910
 7701SOL     OW30569   3.741   0.982   2.371  0.0023 -0.0627 -0.3065
 7701SOL    HW230570   3.728   0.889   2.392 -2.4391  0.6571  1.9166
 7701SOL    HW330571   3.794   1.015   2.444  2.9880 -0.0498 -2.2887
 7701SOL    MW430572   3.747   0.974   2.383  0.0407  0.3529  0.5258
 7702SOL     OW30573   1.055   5.872   2.177 -0.2718  0.3408  0.1037
 7702SOL    HW230574   1.141   5.866   2.135  0.6563  2.0562  1.5551
 7702SOL    HW330575   1.068   5.830   2.262 -0.8160  0.7188  0.3793
 7702SOL    MW430576   1.068   5.866   2.183 -0.0624 -0.1858 -0.1229
 7703SOL     OW30577   2.444   3.018   0.756  0.5450 -0.6158 -0.2150
 7703SOL    HW230578   2.439   2.998   0.849 -0.8466  0.4509 -0.0413
 7703SOL    HW330579   2.362   2.986   0.720  0.3432  0.4848 -0.7625
 7703SOL    MW430580   2.433   3.011   0.764  0.5339 -0.4445 -0.0396
 7704SOL     OW30581   5.954   2.541   3.685 -0.3416 -0.5587  0.2179
 7704SOL    HW230582   5.988   2.523   3.597 -1.2483 -0.7485 -0.0956
 7704SOL    HW330583   5.967   2.635   3.696  1.4118 -0.7968  0.5979
 7704SOL    MW430584   5.960   2.551   3.675 -0.2651  0.1102  0.3767
 7705SOL     OW30585   2.120   0.319   3.966 -0.2897 -0.1129  1.2308
 7705SOL    HW230586   2.138   0.248   4.029  0.2192  0.8762  2.2259
 7705SOL    HW330587   2.186   0.308   3.899 -0.5129 -0.8675  1.1180
 7705SOL    MW430588   2.131   0.308   3.966 -0.1291 -0.1400  0.1041
 7706SOL     OW30589   2.381   5.964   4.677 -0.6384  0.0021  0.3283
 7706SOL    HW230590   2.297   5.932   4.643  0.0062 -0.3081 -1.0216
 7706SOL    HW330591   2.363   5.985   4.769 -2.0855 -0.4543  0.1724
 7706SOL    MW430592   2.368   5.963   4.685 -0.6925  0.3064  0.0525
 7707SOL     OW30593   0.266   5.552   6.317 -0.4498  0.2628 -0.5864
 7707SOL    HW230594   0.212   5.507   6.252 -0.8541 -0.1836  0.0396
 7707SOL    HW330595   0.258   5.498   6.396  0.4876  0.4870 -0.3277
 7707SOL    MW430596   0.258   5.539   6.319 -0.2344  0.0861  0.0614
 7708SOL     OW30597   2.502   5.322   1.830 -0.0519  0.7306  0.2917
 7708SOL    HW230598   2.407   5.312   1.830 -0.0143 -0.1603 -2.0901
 7708SOL    HW330599   2.518   5.394   1.891 -2.2834  1.2694  0.3336
 7708SOL    MW430600   2.492   5.330   1.838 -0.0804 -0.1556  0.3980
 7709SOL     OW30601   4.579   3.715   4.098  0.6730 -0.2257  0.2700
 7709SOL    HW230602   4.489   3.726   4.066  0.7882 -1.3257 -0.4599
 7709SOL    HW330603   4.572   3.647   4.165  0.9795 -0.4114  0.1134
 7709SOL    MW430604   4.566   3.708   4.103  0.2144 -0.0734  0.0183
 7710SOL     OW30605   5.564   4.590   3.849 -0.4281  0.4352 -0.1432
 7710SOL    HW230606   5.575   4.650   3.923 -0.8024 -0.0295  0.2995
 7710SOL    HW330607   5.590   4.641   3.772  2.8603  0.0292  0.5736
 7710SOL    MW430608   5.569   4.605   3.849  0.2972  0.3787 -0.9141
 7711SOL     OW30609   2.519   2.754   1.883  0.3588 -0.4169  0.0157
 7711SOL    HW230610   2.561   2.788   1.962  0.4920 -2.5261  0.9233
 7711SOL    HW330611   2.427   2.779   1.892  0.6398  0.5923  0.1167
 7711SOL    MW430612   2.512   2.762   1.895 -0.0188  0.2968  0.0503
 7712SOL     OW30613   5.394   4.938   0.340  0.1966  0.2283 -0.0135
 7712SOL    HW230614   5.313   4.889   0.354  0.9540 -0.7206  1.3202
 7712SOL    HW330615   5.381   5.020   0.388  0.0494  0.0506  0.2519
 7712SOL    MW430616   5.381   4.943   0.348 -0.0591  0.1249 -0.3560
 7713SOL     OW30617   5.507   1.732   0.686 -0.3718 -0.2027  0.5904
 7713SOL    HW230618   5.559   1.810   0.664 -1.4397 -0.0884 -1.8915
 7713SOL    HW330619   5.501   1.684   0.603 -0.1618 -2.7156  1.9368
 7713SOL    MW430620   5.513   1.736   0.672 -0.1905  0.4007 -0.0908
 7714SOL     OW30621   5.506   1.792   2.890 -0.3930 -0.3336 -0.2547
 7714SOL    HW230622   5.416   1.764   2.904  0.3311 -2.5372  0.4706
 7714SOL    HW330623   5.519   1.866   2.950 -0.9344 -1.7979  1.7740
 7714SOL    MW430624   5.496   1.798   2.900  0.2729 -0.2055 -0.3500
 7715SOL     OW30625   0.175   5.163   6.037 -0.1992 -0.2021 -0.1227
 7715SOL    HW230626   0.223   5.150   5.956 -2.3299  0.0284 -1.4878
 7715SOL    HW330627   0.200   5.251   6.067 -1.3779  0.8146 -1.9821
 7715SOL    MW430628   0.184   5.173   6.030 -0.1961  0.3975 -0.1158
 7716SOL     OW30629   1.057   5.168   0.831 -0.0676  0.1003 -0.0329
 7716SOL    HW230630   1.150   5.150   0.817 -0.1818 -0.0060 -0.6679
 7716SOL    HW330631   1.035   5.236   0.768 -0.0551  1.2654  1.1835
 7716SOL    MW430632   1.066   5.174   0.821  0.6261 -0.8647  0.1158
 7717SOL     OW30633   2.128   1.014   2.513 -0.1325 -0.3830  0.5199
 7717SOL    HW230634   2.141   0.919   2.518  1.6288 -0.1858  0.4397
 7717SOL    HW330635   2.215   1.049   2.492 -1.2918  1.0109 -2.6242
 7717SOL    MW430636   2.141   1.006   2.511 -0.0531  0.1698  0.5434
 7718SOL     OW30637   4.649   2.601   0.795  0.7170  0.1190 -0.0812
 7718SOL    HW230638   4.632   2.648   0.877  0.0995 -0.3195  0.0459
 7718SOL    HW330639   4.665   2.671   0.731  1.5426  0.4528  0.4786
 7718SOL    MW430640   4.649   2.617   0.798 -0.5551 -0.1153  0.3038
 7719SOL     OW30641   6.422   0.327   2.455  0.2679 -0.3520  0.2838
 7719SOL    HW230642   6.396   0.360   2.541  2.2593 -1.3353  1.3223
 7719SOL    HW330643   6.383   0.240   2.450  1.0248 -0.7245  0.6753
 7719SOL    MW430644   6.413   0.320   2.466 -0.7986 -0.8634  0.1284
 7720SOL     OW30645   1.106   5.640   0.915 -0.5602 -0.0514  0.2746
 7720SOL    HW230646   1.023   5.594   0.903 -1.2013  1.2949 -0.8802
 7720SOL    HW330647   1.141   5.647   0.826  0.2837  0.3040  0.6302
 7720SOL    MW430648   1.099   5.635   0.901  0.6048  0.0873 -0.1385
 7721SOL     OW30649   3.743   4.900   2.397  0.3299 -0.1740 -0.0690
 7721SOL    HW230650   3.827   4.854   2.402  0.6588  0.2115 -1.6071
 7721SOL    HW330651   3.749   4.953   2.318 -1.2474  0.1158 -0.0283
 7721SOL    MW430652   3.754   4.901   2.387  0.3321  0.2498  0.1328
 7722SOL     OW30653   2.464   5.143   0.041 -0.1166  0.5947  0.1524
 7722SOL    HW230654   2.458   5.192  -0.041  1.2732  0.8551  0.1886
 7722SOL    HW330655   2.404   5.069   0.029 -0.5337  1.0654 -0.7740
 7722SOL    MW430656   2.455   5.140   0.029 -0.1198  0.1640  0.1077
 7723SOL     OW30657   5.461   3.756   0.628 -0.5004 -0.2507  0.2628
 7723SOL    HW230658   5.451   3.822   0.697  0.8477 -0.2066  0.4494
 7723SOL    HW330659   5.513   3.800   0.560  0.8130 -1.2139  0.5857
 7723SOL    MW430660   5.467   3.770   0.628  0.5401  0.1941  0.0073
 7724SOL     OW30661   1.312   1.019   0.242 -0.8082  0.0304 -0.7812
 7724SOL    HW230662   1.224   1.010   0.278 -0.5456 -0.4494 -0.2510
 7724SOL    HW330663   1.307   1.096   0.185 -1.5394  0.0674 -0.6710
 7724SOL    MW430664   1.300   1.028   0.239 -0.5334  0.1736  0.0897
 7725SOL     OW30665   1.863   4.211   5.858 -0.3983  0.0502  0.5220
 7725SOL    HW230666   1.781   4.246   5.824 -1.0899 -1.0336  1.0064
 7725SOL    HW330667   1.873   4.253   5.944  1.9610  3.7164 -1.2866
 7725SOL    MW430668   1.853   4.221   5.865  0.8161  0.1316 -0.1446
 7726SOL     OW30669   6.269   4.354   5.770 -0.3366  0.3437 -0.2650
 7726SOL    HW230670   6.319   4.289   5.721 -0.2029 -0.8209  1.3413
 7726SOL    HW330671   6.181   4.317   5.774 -0.5398  0.8235 -0.3325
 7726SOL    MW430672   6.264   4.340   5.764 -0.3823 -0.4280 -0.1420
 7727SOL     OW30673   4.786   2.980   4.428 -0.3017 -0.4042 -0.0888
 7727SOL    HW230674   4.717   2.963   4.492 -0.2870 -0.8837 -0.1979
 7727SOL    HW330675   4.851   2.912   4.443 -0.3326 -0.5694 -0.6651
 7727SOL    MW430676   4.786   2.969   4.438  0.2190  0.1556  0.2731
 7728SOL     OW30677   0.555   1.772   2.110  0.3140  0.1783 -0.0087
 7728SOL    HW230678   0.583   1.786   2.020 -4.7403 -0.6849 -2.0731
 7728SOL    HW330679   0.536   1.860   2.143  0.3874  0.3829 -0.5036
 7728SOL    MW430680   0.556   1.785   2.103 -0.0404  0.2520  0.1541
 7729SOL     OW30681   3.022   5.799   5.000 -0.0995 -0.5963  0.4087
 7729SOL    HW230682   3.043   5.706   5.001  0.0190 -0.5691  0.4356
 7729SOL    HW330683   2.926   5.802   4.997 -0.1400 -0.7091  1.3522
 7729SOL    MW430684   3.012   5.787   5.000  0.3710 -0.5781  0.0700
 7730SOL     OW30685   1.816   2.421   6.096 -0.1015  0.5074  0.1114
 7730SOL    HW230686   1.782   2.408   6.007 -1.5152 -1.0791  0.8269
 7730SOL    HW330687   1.850   2.336   6.121  0.3204  0.9534  1.0956
 7730SOL    MW430688   1.816   2.408   6.087 -0.2051 -0.8402  0.3114
 7731SOL     OW30689   5.506   1.704   5.152  0.0497  0.0257 -0.5396
 7731SOL    HW230690   5.552   1.714   5.069 -0.0883 -0.4246 -0.6722
 7731SOL    HW330691   5.463   1.789   5.166  2.0220  0.9527  0.2796
 7731SOL    MW430692   5.507   1.717   5.143 -0.2044  0.4526 -0.1281
 7732SOL     OW30693   1.860   1.161   5.950 -0.2010 -0.7943 -0.2405
 7732SOL    HW230694   1.772   1.145   5.984 -0.3113 -1.5897 -0.8685
 7732SOL    HW330695   1.880   1.083   5.898  1.4084 -1.2324  0.9468
 7732SOL    MW430696   1.851   1.149   5.948 -0.3527  0.9040  0.3707
 7733SOL     OW30697   6.234   2.060   4.169  0.0271 -0.2569 -0.5708
 7733SOL    HW230698   6.233   1.979   4.219  0.5791 -1.0984 -1.8818
 7733SOL    HW330699   6.246   2.033   4.078 -1.7951  1.1629 -1.3232
 7733SOL    MW430700   6.235   2.046   4.164  0.0097  0.3286  0.1311
 7734SOL     OW30701   1.428   4.436   1.586  0.3528  0.5091 -0.2641
 7734SOL    HW230702   1.391   4.468   1.504 -1.8903 -0.9250  0.1204
 7734SOL    HW330703   1.423   4.340   1.579  1.5059  0.3212  0.9628
 7734SOL    MW430704   1.423   4.427   1.574  0.3750 -0.2811 -0.1969
 7735SOL     OW30705   4.587   5.115   2.626 -0.6654 -0.1434 -0.6744
 7735SOL    HW230706   4.621   5.095   2.538 -1.1244 -1.4910 -0.5760
 7735SOL    HW330707   4.603   5.208   2.637  1.0906 -0.3077 -1.4563
 7735SOL    MW430708   4.594   5.125   2.616 -0.0590  0.3254 -0.1701
 7736SOL     OW30709   2.569   0.679   6.372  0.0886 -0.0687 -0.2352
 7736SOL    HW230710   2.639   0.656   6.434  0.6257  2.1467  0.0842
 7736SOL    HW330711   2.523   0.751   6.415 -0.5089  0.4777 -1.7423
 7736SOL    MW430712   2.572   0.685   6.386 -0.3006  0.0837 -0.6137
 7737SOL     OW30713   1.115   5.253   5.150 -0.2931 -0.1525  0.1422
 7737SOL    HW230714   1.134   5.162   5.130 -0.6448 -1.2405  4.0725
 7737SOL    HW330715   1.021   5.255   5.166 -0.5222  1.2407 -1.1279
 7737SOL    MW430716   1.105   5.242   5.149 -0.4342  0.3566 -0.3339
 7738SOL     OW30717   1.690   3.200   4.303 -0.3393 -1.0199  0.0569
 7738SOL    HW230718   1.734   3.261   4.244 -1.9744 -1.5942 -1.8637
 7738SOL    HW330719   1.681   3.248   4.385 -1.0586  1.1516 -1.2100
 7738SOL    MW430720   1.695   3.214   4.306  0.4293  0.2302 -0.1371
 7739SOL     OW30721   4.132   2.183   1.558  0.4477  0.2883 -0.2578
 7739SOL    HW230722   4.219   2.221   1.543  0.9651 -0.1303  1.4219
 7739SOL    HW330723   4.090   2.244   1.618  0.2089 -0.3546  0.2293
 7739SOL    MW430724   4.138   2.196   1.564 -0.3593 -0.4216 -0.0996
 7740SOL     OW30725   0.529   6.139   0.426 -0.6348  0.3086 -0.1330
 7740SOL    HW230726   0.450   6.088   0.442 -1.2554  0.6838 -1.8195
 7740SOL    HW330727   0.563   6.159   0.513 -1.1271 -1.7764  0.5881
 7740SOL    MW430728   0.523   6.135   0.439  0.6869  0.1693  0.0994
 7741SOL     OW30729   4.916   1.282   0.565  0.2797 -0.0609  0.5896
 7741SOL    HW230730   4.932   1.284   0.471 -2.3231 -2.0810 -0.0288
 7741SOL    HW330731   4.889   1.372   0.587 -1.6167 -0.1214 -1.1902
 7741SOL    MW430732   4.914   1.294   0.555 -0.3735  0.3901 -0.1646
 7742SOL     OW30733   2.636   0.339   3.713 -0.2994 -0.3730  0.1707
 7742SOL    HW230734   2.711   0.319   3.769 -1.3694  0.5089  1.9843
 7742SOL    HW330735   2.669   0.324   3.624  1.7448 -0.8674  0.9456
 7742SOL    MW430736   2.651   0.334   3.708  0.0338 -0.3149  0.2331
 7743SOL     OW30737   0.593   4.383   0.389  0.8365  0.1660 -0.1393
 7743SOL    HW230738   0.524   4.431   0.435  1.1717  0.1141  0.4376
 7743SOL    HW330739   0.674   4.424   0.420  1.0842 -0.0978 -0.4310
 7743SOL    MW430740   0.595   4.395   0.400  0.0922  0.0825  0.0183
 7744SOL     OW30741   2.791   1.509   0.156  0.1069 -0.1814 -0.1364
 7744SOL    HW230742   2.697   1.501   0.174  0.2346  1.7084  1.7642
 7744SOL    HW330743   2.831   1.525   0.241  1.7440  2.1500 -1.2050
 7744SOL    MW430744   2.784   1.510   0.169 -0.4502  0.3805 -0.4367
 7745SOL     OW30745   4.319   6.110   0.642 -0.3138 -0.0848 -0.2401
 7745SOL    HW230746   4.338   6.019   0.663  1.9339  0.1483 -0.9928
 7745SOL    HW330747   4.364   6.160   0.710 -0.3621  0.4882 -0.6259
 7745SOL    MW430748   4.327   6.105   0.654 -0.6082 -0.3021  0.4505
 7746SOL     OW30749   3.117   1.849   5.353 -0.6286 -0.0214  0.4329
 7746SOL    HW230750   3.048   1.911   5.376 -1.3084 -1.3270  2.1473
 7746SOL    HW330751   3.110   1.839   5.258 -0.3705  2.5950  0.0732
 7746SOL    MW430752   3.107   1.856   5.343  0.0314  0.0214 -0.1057
 7747SOL     OW30753   0.385   2.838   2.532 -0.2195 -0.5666  0.3600
 7747SOL    HW230754   0.425   2.805   2.451 -0.5391  0.2967 -0.1761
 7747SOL    HW330755   0.298   2.798   2.534 -1.3157  1.5252 -1.2388
 7747SOL    MW430756   0.379   2.828   2.521  0.2958 -0.0409  0.2824
 7748SOL     OW30757   2.755   2.772   2.780  0.4097  0.1728 -0.5306
 7748SOL    HW230758   2.736   2.721   2.701 -0.9613 -0.4694  0.1705
 7748SOL    HW330759   2.779   2.858   2.748  2.2631 -0.7332 -1.7388
 7748SOL    MW430760   2.755   2.776   2.765 -0.1621 -0.1183  0.0132
 7749SOL     OW30761   0.161   5.424   3.613 -0.5442  0.0107  0.0841
 7749SOL    HW230762   0.124   5.342   3.580 -0.5712  0.5729 -1.3620
 7749SOL    HW330763   0.255   5.410   3.612 -0.5564 -0.0652  0.0109
 7749SOL    MW430764   0.168   5.412   3.609  0.4513  0.1304  0.3758
 7750SOL     OW30765   0.893   2.261   6.181  0.0949  0.4067 -0.2946
 7750SOL    HW230766   0.900   2.332   6.117 -0.2196 -0.2472 -1.0698
 7750SOL    HW330767   0.800   2.242   6.185  0.0971  0.5279  0.4674
 7750SOL    MW430768   0.882   2.268   6.173 -0.4999 -0.1385 -0.3689
 7751SOL     OW30769   1.611   5.375   2.762  0.1582  0.1024 -0.0029
 7751SOL    HW230770   1.684   5.351   2.819  1.4281 -0.7439 -1.8612
 7751SOL    HW330771   1.563   5.293   2.750 -0.1819  0.3060 -0.0416
 7751SOL    MW430772   1.614   5.361   2.768 -0.4054 -0.2547 -0.7348
 7752SOL     OW30773   6.014   5.428   0.649  0.3158 -0.0481  0.2077
 7752SOL    HW230774   6.022   5.382   0.566  1.0945  0.1079  0.1829
 7752SOL    HW330775   6.096   5.408   0.695  0.0140  0.0965  0.8151
 7752SOL    MW430776   6.026   5.420   0.644  0.3649 -0.0930 -0.1494
 7753SOL     OW30777   3.078   3.284   4.493  0.0555  0.1661 -0.1602
 7753SOL    HW230778   3.011   3.229   4.534 -0.2515  0.1480 -0.6713
 7753SOL    HW330779   3.031   3.331   4.424  1.0651 -1.7288 -2.2379
 7753SOL    MW430780   3.063   3.283   4.490  0.1830 -0.1069  0.5949
 7754SOL     OW30781   1.316   0.433   6.383  0.5008 -0.0739 -0.5215
 7754SOL    HW230782   1.363   0.469   6.308 -0.0864 -1.1374 -1.4403
 7754SOL    HW330783   1.351   0.344   6.393 -0.3804 -0.4197 -0.4082
 7754SOL    MW430784   1.327   0.426   6.374  0.3567 -0.1347 -0.3816
 7755SOL     OW30785   2.557   3.360   4.721  0.1408 -0.2142 -0.3251
 7755SOL    HW230786   2.593   3.283   4.765  1.3309  1.0481  0.9851
 7755SOL    HW330787   2.633   3.412   4.697 -0.6658  0.8253 -0.6973
 7755SOL    MW430788   2.572   3.357   4.724  0.0238  0.3976 -0.2237
 7756SOL     OW30789   0.589   3.583   0.332 -0.0986 -0.3052 -0.4665
 7756SOL    HW230790   0.596   3.577   0.237  1.2283  1.4716 -0.5166
 7756SOL    HW330791   0.531   3.510   0.356  0.8571 -1.8077 -2.4431
 7756SOL    MW430792   0.582   3.572   0.323  0.0611 -0.3301  0.1713
 7757SOL     OW30793   1.391   3.014   1.581 -0.4371  0.2790  0.3830
 7757SOL    HW230794   1.398   2.925   1.617  1.9258  0.0848 -0.3943
 7757SOL    HW330795   1.404   3.072   1.656 -1.0792 -0.0196  0.7375
 7757SOL    MW430796   1.393   3.010   1.595 -0.1273 -0.2312  0.5998
 7758SOL     OW30797   2.903   1.556   0.395  0.2567 -0.2030 -0.1953
 7758SOL    HW230798   2.892   1.643   0.433  0.2496  0.1698 -1.0173
 7758SOL    HW330799   2.997   1.550   0.376 -0.0109  0.4314 -1.9388
 7758SOL    MW430800   2.914   1.566   0.397  0.3020  0.2256  0.2560
 7759SOL     OW30801   3.898   4.926   4.910 -0.2240  0.3474 -0.5904
 7759SOL    HW230802   3.825   4.933   4.971  0.7739  1.7684  0.5179
 7759SOL    HW330803   3.951   4.854   4.945  0.7835  1.6821  0.8203
 7759SOL    MW430804   3.895   4.918   4.923 -0.1962 -0.0625 -0.1989
 7760SOL     OW30805   0.289   4.029   0.987  0.1625 -0.0464 -0.5965
 7760SOL    HW230806   0.340   3.980   0.922  0.2978  0.7366 -1.0927
 7760SOL    HW330807   0.352   4.090   1.026  0.4067 -1.3938  1.2296
 7760SOL    MW430808   0.304   4.031   0.983 -0.0004  0.0381 -0.4879
 7761SOL     OW30809   4.328   6.274   6.119 -0.0458 -0.0244  0.9186
 7761SOL    HW230810   4.385   6.287   6.195  1.7220 -1.0852 -0.1504
 7761SOL    HW330811   4.387   6.277   6.044 -1.1112 -2.6110 -0.1599
 7761SOL    MW430812   4.343   6.276   6.119 -0.2764  0.1477 -0.2656
 7762SOL     OW30813   5.094   2.899   5.430  0.0333 -0.8947  0.1962
 7762SOL    HW230814   5.172   2.900   5.374 -0.5773  0.9055 -0.6925
 7762SOL    HW330815   5.030   2.953   5.384 -0.9465 -0.4055  2.0149
 7762SOL    MW430816   5.096   2.906   5.417 -0.0945  0.0790 -0.2022
 7763SOL     OW30817   1.550   4.045   1.904  0.4495 -0.8029  0.0219
 7763SOL    HW230818   1.542   4.140   1.890  2.1154 -0.6694 -0.2847
 7763SOL    HW330819   1.531   4.006   1.819  1.3329 -0.6208 -0.2685
 7763SOL    MW430820   1.547   4.053   1.891 -0.1094 -0.0957  0.2117
 7764SOL     OW30821   6.292   4.168   4.205  0.0034  0.1953  0.3824
 7764SOL    HW230822   6.291   4.090   4.261 -0.9900 -0.4448 -0.4948
 7764SOL    HW330823   6.360   4.150   4.141 -1.7935 -1.0722 -1.2861
 7764SOL    MW430824   6.301   4.155   4.204  0.1848  0.2351 -0.1620
 7765SOL     OW30825   5.259   0.736   5.001  0.2923 -0.2730 -0.2364
 7765SOL    HW230826   5.234   0.818   5.043 -0.4669 -0.1927 -0.8125
 7765SOL    HW330827   5.180   0.682   5.004  1.2753 -1.7284  1.8028
 7765SOL    MW430828   5.245   0.739   5.007  0.3812 -0.3662  0.6140
 7766SOL     OW30829   4.277   0.826   1.395 -0.1497  0.4812 -0.0299
 7766SOL    HW230830   4.264   0.917   1.369 -1.7885  0.7032  1.4654
 7766SOL    HW330831   4.267   0.776   1.313 -0.5961  1.5171 -0.6196
 7766SOL    MW430832   4.274   0.831   1.381  0.3978  0.1599 -0.3126
 7767SOL     OW30833   3.206   0.762   1.057  0.6638 -0.1214 -0.5337
 7767SOL    HW230834   3.205   0.818   1.135 -1.7502 -0.4175 -0.2675
 7767SOL    HW330835   3.290   0.781   1.015  1.7391  0.5813  1.7402
 7767SOL    MW430836   3.217   0.772   1.062 -0.5267  0.5565 -0.3749
 7768SOL     OW30837   0.383   3.573   4.193 -0.0060  0.3483  0.2430
 7768SOL    HW230838   0.334   3.521   4.256 -0.2986  0.3186 -0.0035
 7768SOL    HW330839   0.318   3.595   4.125 -0.4736  2.8331  1.3832
 7768SOL    MW430840   0.368   3.569   4.192 -0.1660  0.1956  0.8033
 7769SOL     OW30841   3.496   5.331   0.595 -0.0217  0.0847  0.2840
 7769SOL    HW230842   3.406   5.359   0.612 -0.5668 -1.6141  0.3381
 7769SOL    HW330843   3.547   5.370   0.665 -1.3689 -2.2556  2.7426
 7769SOL    MW430844   3.491   5.340   0.606  0.3772 -0.2468  0.1293
 7770SOL     OW30845   1.103   4.569   3.619  0.1283  0.3933 -0.0401
 7770SOL    HW230846   1.015   4.532   3.618 -0.6269  2.0237  1.4707
 7770SOL    HW330847   1.145   4.528   3.694  0.1991  0.6382  0.0532
 7770SOL    MW430848   1.097   4.559   3.629 -0.2241  0.6132 -0.0865
 7771SOL     OW30849   3.611   1.538   4.095  0.1848  0.0069 -0.4862
 7771SOL    HW230850   3.594   1.491   4.177  0.1696  0.8189 -0.0152
 7771SOL    HW330851   3.525   1.568   4.066  0.4989  2.6720  1.0236
 7771SOL    MW430852   3.597   1.536   4.102  0.6694  0.4518 -0.7325
 7772SOL     OW30853   4.309   0.004   3.786 -0.0336  0.1538  0.1686
 7772SOL    HW230854   4.300   0.056   3.706 -1.9863  0.9440  0.8512
 7772SOL    HW330855   4.306   0.067   3.857 -1.9387 -0.7835  1.0026
 7772SOL    MW430856   4.308   0.019   3.785  0.1583  0.5323  0.4316
 7773SOL     OW30857   4.008   5.526   1.463  0.4136 -0.4026  0.6143
 7773SOL    HW230858   3.959   5.454   1.503 -0.8971 -0.1794 -0.5101
 7773SOL    HW330859   3.978   5.604   1.508  1.0438 -0.4242  1.0966
 7773SOL    MW430860   3.998   5.527   1.474  0.3877 -0.1552 -0.1889
 7774SOL     OW30861   2.788   0.431   2.324  0.1124 -0.8801  0.5606
 7774SOL    HW230862   2.694   0.422   2.339 -0.8133  0.5896 -3.3603
 7774SOL    HW330863   2.811   0.515   2.363 -0.2923 -0.9502  0.9604
 7774SOL    MW430864   2.779   0.441   2.331  0.0586 -1.4106 -0.2337
 7775SOL     OW30865   0.671   2.722   0.892 -0.6605 -0.4386  0.1387
 7775SOL    HW230866   0.693   2.752   0.980 -1.0100 -1.1996  0.4852
 7775SOL    HW330867   0.610   2.788   0.859  0.7808  0.7922 -0.2039
 7775SOL    MW430868   0.666   2.735   0.899 -0.1498 -0.1196 -0.0875
 7776SOL     OW30869   6.299   0.459   1.186  0.1585  0.0257  0.4191
 7776SOL    HW230870   6.319   0.537   1.135  3.0377 -0.8837 -0.0369
 7776SOL    HW330871   6.223   0.421   1.142 -0.2293  1.6434 -0.3879
 7776SOL    MW430872   6.291   0.464   1.174  0.0657  0.1092  0.1686
 7777SOL     OW30873   3.348   3.623   2.439 -0.2884  0.7820 -0.3511
 7777SOL    HW230874   3.431   3.654   2.475 -1.5992  1.3015  2.4523
 7777SOL    HW330875   3.353   3.528   2.445  0.4386  0.7596 -1.0989
 7777SOL    MW430876   3.359   3.615   2.444  0.6428 -0.0938  0.0351
 7778SOL     OW30877   4.883   2.717   4.120 -0.2627 -0.4185 -0.6253
 7778SOL    HW230878   4.943   2.760   4.059 -2.2762  0.5757 -2.0327
 7778SOL    HW330879   4.825   2.787   4.149 -0.5161 -1.2603  1.0345
 7778SOL    MW430880   4.883   2.732   4.116  0.3598  0.2845  0.3352
 7779SOL     OW30881   2.025   2.547   1.724  0.5190  0.4049  0.5092
 7779SOL    HW230882   2.106   2.512   1.760  0.7598 -0.2851 -0.6356
 7779SOL    HW330883   2.015   2.633   1.765  1.0680 -0.1039  1.7335
 7779SOL    MW430884   2.034   2.554   1.734 -0.3716 -0.3466  0.1118
 7780SOL     OW30885   4.749   0.887   3.941 -0.4126 -0.7620 -0.5209
 7780SOL    HW230886   4.716   0.882   3.852  0.1267 -0.0756 -0.7756
 7780SOL    HW330887   4.750   0.797   3.972 -2.2641 -0.8227 -0.5766
 7780SOL    MW430888   4.745   0.875   3.933  0.0930 -0.3739 -0.2453
 7781SOL     OW30889   4.960   1.851   1.172  0.1050 -0.3502  0.8606
 7781SOL    HW230890   4.985   1.938   1.201 -0.6846  0.6420 -1.2274
 7781SOL    HW330891   5.035   1.820   1.121  0.4953 -1.0314  1.8250
 7781SOL    MW430892   4.973   1.858   1.169  0.0595  0.3353 -0.0981
 7782SOL     OW30893   3.323   6.034   1.118 -0.3681 -0.2847 -0.1862
 7782SOL    HW230894   3.353   5.943   1.113  1.2894  0.1549  0.8348
 7782SOL    HW330895   3.396   6.085   1.083 -0.7654  0.7223  0.4290
 7782SOL    MW430896   3.337   6.029   1.113  0.5416  0.3718  0.1388
 7783SOL     OW30897   3.678   3.441   5.402  0.9034  0.1669  0.7268
 7783SOL    HW230898   3.700   3.415   5.491  1.4853  0.9322  0.8119
 7783SOL    HW330899   3.656   3.534   5.408  1.5962  0.3896 -0.0293
 7783SOL    MW430900   3.678   3.449   5.414 -0.0607 -0.3645  0.0729
 7784SOL     OW30901   4.506   2.283   6.412  0.2312 -0.1303 -0.3963
 7784SOL    HW230902   4.462   2.368   6.412  0.8021  0.1684 -0.3064
 7784SOL    HW330903   4.586   2.297   6.362  0.8925 -0.3085  0.5735
 7784SOL    MW430904   4.511   2.296   6.406 -0.8315  0.4520  0.1194
 7785SOL     OW30905   2.959   3.140   3.533  0.6864 -0.1765 -0.1515
 7785SOL    HW230906   2.972   3.160   3.440  1.8599  0.9859  0.2434
 7785SOL    HW330907   2.918   3.219   3.569 -0.2615 -0.8224  0.2355
 7785SOL    MW430908   2.955   3.153   3.526  0.5597 -0.1491 -0.1887
 7786SOL     OW30909   0.951   5.918   2.593 -0.7900 -0.5968 -0.4016
 7786SOL    HW230910   0.894   5.991   2.571 -1.2279 -0.8629 -0.1605
 7786SOL    HW330911   0.957   5.866   2.513 -0.3042 -0.1918 -0.6392
 7786SOL    MW430912   0.944   5.921   2.580 -0.0721  0.6753  0.0289
 7787SOL     OW30913   3.485   2.023   6.052 -0.2852 -0.2859  0.0782
 7787SOL    HW230914   3.538   2.013   5.973 -1.2812 -0.2779 -0.5985
 7787SOL    HW330915   3.441   1.939   6.062  1.0443 -0.8622  1.5514
 7787SOL    MW430916   3.486   2.011   6.043  0.3884  0.8304  0.1151
 7788SOL     OW30917   0.845   5.606   5.598 -0.1038  0.2523  0.1864
 7788SOL    HW230918   0.884   5.546   5.662 -1.7225  0.4790  1.4362
 7788SOL    HW330919   0.879   5.576   5.514  1.2334 -0.7336  1.0269
 7788SOL    MW430920   0.855   5.594   5.595  0.4159 -0.3739  0.4052
 7789SOL     OW30921   0.319   5.449   5.076  0.1714 -0.1146  0.1793
 7789SOL    HW230922   0.339   5.360   5.102 -1.5057 -0.0931  1.7229
 7789SOL    HW330923   0.223   5.453   5.073  0.2235  1.0843 -1.9339
 7789SOL    MW430924   0.309   5.438   5.079 -0.5461 -0.0129  0.0907
 7790SOL     OW30925   5.029   4.346   4.954 -0.5584 -0.4523  0.2496
 7790SOL    HW230926   5.045   4.289   4.878 -0.7512  0.6494 -0.6496
 7790SOL    HW330927   5.012   4.285   5.026 -1.1520 -1.5293 -0.7564
 7790SOL    MW430928   5.029   4.330   4.953 -0.0685  0.2839  0.3027
 7791SOL     OW30929   1.543   2.570   5.673 -0.5601  0.1552  0.4804
 7791SOL    HW230930   1.504   2.633   5.613 -1.7402  1.3358  2.3844
 7791SOL    HW330931   1.578   2.501   5.617 -2.0341  0.9524 -1.5068
 7791SOL    MW430932   1.543   2.569   5.658 -0.0351  0.4335  0.0220
 7792SOL     OW30933   4.581   2.661   4.425 -0.0175 -0.4692  0.0180
 7792SOL    HW230934   4.672   2.664   4.455 -0.2510  0.2159  0.6911
 7792SOL    HW330935   4.545   2.747   4.449 -0.9698 -0.8940  0.1450
 7792SOL    MW430936   4.588   2.673   4.432  0.1098  0.7042  0.3910
 7793SOL     OW30937   4.324   1.152   0.079  0.0666  0.3541 -0.2947
 7793SOL    HW230938   4.296   1.122  -0.008 -0.0544 -0.4563  0.0110
 7793SOL    HW330939   4.300   1.244   0.082  1.9895  0.9793 -1.9297
 7793SOL    MW430940   4.317   1.160   0.068  0.3109  0.1854 -0.3793
 7794SOL     OW30941   3.360   2.268   5.916 -0.6000 -0.2497  0.4994
 7794SOL    HW230942   3.290   2.306   5.971 -0.4933 -0.5039  0.8101
 7794SOL    HW330943   3.405   2.206   5.973 -0.3035 -0.3050  0.2091
 7794SOL    MW430944   3.356   2.265   5.931  0.6451  0.2594 -0.5330
 7795SOL     OW30945   5.170   0.686   0.145 -0.2866 -0.1589  0.2928
 7795SOL    HW230946   5.216   0.622   0.092 -0.4630 -0.1345  0.1080
 7795SOL    HW330947   5.167   0.765   0.091 -1.4984 -0.4796 -0.1598
 7795SOL    MW430948   5.176   0.688   0.131 -0.2421  0.6894  0.4238
 7796SOL     OW30949   5.376   5.292   1.482 -0.7178 -0.3134  0.1320
 7796SOL    HW230950   5.449   5.237   1.509 -1.1658  0.3923  3.1368
 7796SOL    HW330951   5.417   5.370   1.444  0.0985 -0.3569  0.8852
 7796SOL    MW430952   5.391   5.295   1.481 -0.4660 -0.1365  0.5778
 7797SOL     OW30953   2.493   1.097   4.007 -0.0109 -0.5080 -0.5788
 7797SOL    HW230954   2.538   1.041   3.943 -0.0885  0.7273 -1.7664
 7797SOL    HW330955   2.425   1.041   4.045  0.4649 -1.4586 -1.1029
 7797SOL    MW430956   2.490   1.082   4.003 -0.6288 -0.3284 -0.2081
 7798SOL     OW30957   1.505   0.509   3.856 -0.2197 -0.1450 -0.0580
 7798SOL    HW230958   1.522   0.573   3.925  0.3569 -0.1366 -0.1960
 7798SOL    HW330959   1.419   0.532   3.822  0.6137  1.5465 -1.1537
 7798SOL    MW430960   1.496   0.520   3.861  0.6804  0.1316 -0.3428
 7799SOL     OW30961   6.324   1.153   6.119 -0.5445  0.2516 -0.3805
 7799SOL    HW230962   6.298   1.168   6.028  0.5972  0.4604 -0.6823
 7799SOL    HW330963   6.272   1.217   6.168 -1.4908 -0.1551 -0.8230
 7799SOL    MW430964   6.313   1.164   6.113 -0.1472 -0.9712 -0.2443
 7800SOL     OW30965   0.522   5.587   0.985 -0.2175 -0.1555 -0.1767
 7800SOL    HW230966   0.562   5.581   1.072  0.6793  1.1903 -0.4550
 7800SOL    HW330967   0.454   5.654   0.995  1.3915  1.6892 -0.9889
 7800SOL    MW430968   0.518   5.595   0.998  0.5182  0.1369  0.3574
 7801SOL     OW30969   1.225   5.231   6.014 -0.0094 -0.3156  0.4599
 7801SOL    HW230970   1.280   5.309   6.023 -1.6294  1.2014 -1.8879
 7801SOL    HW330971   1.145   5.252   6.061 -0.4817 -0.5312 -0.2337
 7801SOL    MW430972   1.222   5.244   6.022  0.5930 -0.1766  0.4991
 7802SOL     OW30973   5.798   2.522   6.396  0.1326 -0.1236  0.4704
 7802SOL    HW230974   5.718   2.478   6.424 -0.5965  0.8835  0.0300
 7802SOL    HW330975   5.865   2.454   6.398 -0.9855 -1.2877 -0.3301
 7802SOL    MW430976   5.796   2.507   6.400 -0.0636 -0.0121 -0.4703
 7803SOL     OW30977   6.185   5.696   6.314 -0.4378 -0.4229  0.2945
 7803SOL    HW230978   6.202   5.672   6.223 -0.9557  1.5480 -0.3673
 7803SOL    HW330979   6.108   5.754   6.310  0.1857  0.5932  1.8578
 7803SOL    MW430980   6.177   5.700   6.302 -0.5740 -0.2583 -0.2588
 7804SOL     OW30981   5.162   0.554   5.519 -0.3617  0.1794 -0.2425
 7804SOL    HW230982   5.194   0.472   5.557 -0.6999  0.0494 -0.2339
 7804SOL    HW330983   5.181   0.546   5.426  0.2846  0.4106 -0.1294
 7804SOL    MW430984   5.169   0.542   5.512  0.7668 -0.6337  0.0847
 7805SOL     OW30985   5.944   0.826   1.278 -0.0270  0.3301 -0.4825
 7805SOL    HW230986   5.918   0.765   1.347  1.4187  1.3460  1.0355
 7805SOL    HW330987   6.028   0.792   1.247 -0.3193  0.2939 -1.2611
 7805SOL    MW430988   5.952   0.814   1.283  0.2305 -0.1426  0.1295
 7806SOL     OW30989   1.534   0.447   5.670  0.4107 -0.1729 -0.1324
 7806SOL    HW230990   1.530   0.406   5.583  0.4407 -3.5686  1.3332
 7806SOL    HW330991   1.595   0.393   5.719 -1.4599  0.1362  2.7365
 7806SOL    MW430992   1.542   0.434   5.665 -0.0291  0.5605 -0.5375
 7807SOL     OW30993   1.081   3.046   1.049  0.0511 -0.3378 -0.3927
 7807SOL    HW230994   1.116   3.127   1.087  1.3667 -0.8956 -0.3710
 7807SOL    HW330995   0.993   3.070   1.019 -0.6389  0.4016  2.0063
 7807SOL    MW430996   1.074   3.060   1.050  0.4553 -1.0531 -0.2234
 7808SOL     OW30997   6.214   3.556   2.992  0.2201  0.1357  0.1372
 7808SOL    HW230998   6.206   3.648   2.966  0.8967  0.3855  0.7821
 7808SOL    HW330999   6.286   3.522   2.939 -0.2452 -0.1198 -0.3408
 7808SOL    MW431000   6.222   3.564   2.981  0.4890  0.2409  0.0044
 7809SOL     OW31001   4.834   5.829   5.804 -0.6511 -0.7535  0.4415
 7809SOL    HW231002   4.798   5.863   5.722 -1.7420  1.3165  1.6782
 7809SOL    HW331003   4.926   5.856   5.802 -0.9588  0.3700  0.3935
 7809SOL    MW431004   4.842   5.837   5.793 -0.5672  0.0078 -0.2772
 7810SOL     OW31005   2.724   2.042   4.364 -0.8655  0.1362  0.0986
 7810SOL    HW231006   2.675   1.979   4.417 -1.9215  1.3825  0.6593
 7810SOL    HW331007   2.661   2.112   4.347  0.6601  1.6839  0.6515
 7810SOL    MW431008   2.709   2.043   4.368 -0.4326 -0.0561  0.0851
 7811SOL     OW31009   1.150   4.989   4.646  0.2430 -0.1857 -0.8706
 7811SOL    HW231010   1.237   4.957   4.623  0.4057  0.0007 -0.5258
 7811SOL    HW331011   1.093   4.913   4.637  0.5357 -0.4418 -0.5641
 7811SOL    MW431012   1.154   4.975   4.641  0.3552 -0.1527 -0.0671
 7812SOL     OW31013   2.775   5.599   1.173 -0.0710 -0.4282  0.3404
 7812SOL    HW231014   2.793   5.635   1.260  0.3913  0.0697  0.0412
 7812SOL    HW331015   2.735   5.514   1.191 -0.7533  0.0268  1.0464
 7812SOL    MW431016   2.772   5.592   1.187 -0.2723  0.1753 -0.0595
 7813SOL     OW31017   5.672   2.771   3.022 -0.2845  0.0933  0.3537
 7813SOL    HW231018   5.696   2.716   2.947  0.0910  0.4710  0.1921
 7813SOL    HW331019   5.634   2.711   3.085  0.3627 -0.3954  0.2830
 7813SOL    MW431020   5.670   2.756   3.020 -0.3828 -0.1175 -1.2271
 7814SOL     OW31021   0.165   0.426   0.548  0.3286  0.7403 -0.0526
 7814SOL    HW231022   0.091   0.439   0.607 -0.1578  1.5188 -0.8010
 7814SOL    HW331023   0.128   0.434   0.460  1.1922  0.5118 -0.4533
 7814SOL    MW431024   0.150   0.429   0.544 -0.3192 -1.0666 -1.0096
 7815SOL     OW31025   1.878   0.715   1.918 -0.5343 -0.2488 -0.5742
 7815SOL    HW231026   1.834   0.698   1.834  1.3718  0.6224 -1.8114
 7815SOL    HW331027   1.865   0.635   1.969 -5.3507  0.6422  0.0596
 7815SOL    MW431028   1.870   0.702   1.913  0.2486  0.6531 -0.1805
 7816SOL     OW31029   5.091   5.978   0.467 -0.3288  0.1843  0.3015
 7816SOL    HW231030   5.135   5.934   0.395 -1.0856 -1.2334  0.6736
 7816SOL    HW331031   5.060   6.061   0.429  0.2222 -0.0518 -0.6924
 7816SOL    MW431032   5.093   5.983   0.453 -0.1488 -0.3068 -0.0633
 7817SOL     OW31033   1.506   2.922   5.272 -0.0479  0.2506  0.0700
 7817SOL    HW231034   1.554   2.923   5.189  0.5923 -0.8637  0.3941
 7817SOL    HW331035   1.565   2.966   5.333  0.0151  0.0054  0.1884
 7817SOL    MW431036   1.520   2.928   5.269  0.0101  0.2912  0.0944
 7818SOL     OW31037   3.761   5.171   0.398  0.5785 -0.1764 -0.1384
 7818SOL    HW231038   3.767   5.079   0.373  1.3673 -0.3400  0.6216
 7818SOL    HW331039   3.841   5.211   0.364 -0.3160  0.5104 -1.5252
 7818SOL    MW431040   3.772   5.165   0.390 -0.3860  0.2786 -0.2819
 7819SOL     OW31041   4.868   1.862   1.433 -0.3561  0.5929  0.0915
 7819SOL    HW231042   4.934   1.834   1.496  0.0916  0.1760 -0.5552
 7819SOL    HW331043   4.900   1.831   1.348 -1.0755  0.9221 -0.3140
 7819SOL    MW431044   4.881   1.854   1.430  0.3777 -0.4083  0.1334
 7820SOL     OW31045   4.950   2.864   2.523 -0.6563 -0.0423 -0.1034
 7820SOL    HW231046   4.929   2.887   2.614 -1.5614 -1.4045  0.0783
 7820SOL    HW331047   4.998   2.939   2.489  1.1743 -0.1541  2.0020
 7820SOL    MW431048   4.954   2.877   2.531  0.1070 -0.5222  0.3809
 7821SOL     OW31049   5.287   5.622   6.152 -0.5389  0.4542 -0.3700
 7821SOL    HW231050   5.223   5.693   6.160 -0.1134  0.8754 -0.6329
 7821SOL    HW331051   5.368   5.665   6.124 -0.0235 -0.0165  0.3648
 7821SOL    MW431052   5.289   5.637   6.149  0.2993 -0.2643  0.3234
 7822SOL     OW31053   3.800   1.486   3.011  0.1245 -0.2153 -0.0238
 7822SOL    HW231054   3.880   1.481   3.064  0.1004 -0.3962 -0.0043
 7822SOL    HW331055   3.830   1.515   2.925  0.2948 -0.8597 -0.1911
 7822SOL    MW431056   3.815   1.489   3.006 -0.2035  0.3369  0.1376
 7823SOL     OW31057   2.948   1.098   5.416 -0.0446  0.5571  0.4781
 7823SOL    HW231058   2.896   1.127   5.340 -2.1714 -1.5365  1.0100
 7823SOL    HW331059   2.888   1.043   5.466  1.9015  0.3127  2.6935
 7823SOL    MW431060   2.933   1.095   5.412  0.1287 -0.4260  0.1486
 7824SOL     OW31061   0.387   3.897   4.666  0.0554  0.0464 -0.1784
 7824SOL    HW231062   0.341   3.981   4.664  0.4572  0.2659 -0.6255
 7824SOL    HW331063   0.328   3.836   4.622 -0.4505 -0.0211  0.5806
 7824SOL    MW431064   0.373   3.900   4.660 -0.1592  0.3405 -0.0530
 7825SOL     OW31065   5.687   5.072   1.774  0.6020  0.2617  0.3526
 7825SOL    HW231066   5.657   5.114   1.854  0.8572  0.0851  0.5447
 7825SOL    HW331067   5.772   5.034   1.798  0.2720 -0.5596  0.2558
 7825SOL    MW431068   5.694   5.072   1.788  0.3304  0.4976  0.3525
 7826SOL     OW31069   0.843   0.335   2.730  0.2807 -0.1578 -0.2868
 7826SOL    HW231070   0.806   0.258   2.686 -0.3062  0.3106 -0.6359
 7826SOL    HW331071   0.806   0.332   2.818  2.2075 -1.6251  0.5287
 7826SOL    MW431072   0.833   0.325   2.736  0.8054  0.3400 -0.1919
 7827SOL     OW31073   4.589   2.197   0.233 -0.1453  0.0226 -0.7066
 7827SOL    HW231074   4.538   2.233   0.160 -1.4099  0.3895  0.3291
 7827SOL    HW331075   4.642   2.270   0.264 -0.6135  0.2452 -0.4134
 7827SOL    MW431076   4.589   2.211   0.227 -0.1707 -0.4506 -0.2465
 7828SOL     OW31077   5.375   2.232   5.067  0.1109 -0.0239 -0.1864
 7828SOL    HW231078   5.410   2.150   5.101 -0.0988  0.0099  0.1157
 7828SOL    HW331079   5.284   2.212   5.043 -0.5705  0.5817  1.6954
 7828SOL    MW431080   5.367   2.219   5.068  0.1109  0.0817  0.0768
 7829SOL     OW31081   1.311   1.727   4.983  0.3247  0.1931  0.2963
 7829SOL    HW231082   1.242   1.679   4.938  0.2900  2.4856 -2.4025
 7829SOL    HW331083   1.387   1.722   4.925  1.1181  1.1962  1.1832
 7829SOL    MW431084   1.312   1.720   4.970 -0.0611  0.2055  0.4149
 7830SOL     OW31085   0.596   2.262   2.039 -0.1473 -0.5461 -0.0590
 7830SOL    HW231086   0.687   2.289   2.031 -0.3992  0.1779 -0.6716
 7830SOL    HW331087   0.546   2.342   2.019 -0.9265 -1.3217 -1.2873
 7830SOL    MW431088   0.601   2.276   2.036 -0.1992 -0.1042  0.2943
 7831SOL     OW31089   3.892   3.835   5.342 -0.0867 -0.5890  0.4254
 7831SOL    HW231090   3.969   3.778   5.349  0.6884  0.5014  1.0562
 7831SOL    HW331091   3.890   3.860   5.250  0.1940 -0.7718  0.3679
 7831SOL    MW431092   3.902   3.831   5.331  0.4213 -0.0899  0.8672
 7832SOL     OW31093   3.178   5.147   0.403  0.1969 -0.1468  0.2514
 7832SOL    HW231094   3.092   5.170   0.439 -0.2681 -0.1315 -0.8362
 7832SOL    HW331095   3.226   5.111   0.478 -0.8657 -0.4589  0.8025
 7832SOL    MW431096   3.173   5.145   0.418  0.2276 -0.5447  0.4800
 7833SOL     OW31097   1.782   5.505   1.241 -0.2486  0.7403 -0.6545
 7833SOL    HW231098   1.875   5.482   1.243 -0.3478  0.3559  0.1559
 7833SOL    HW331099   1.780   5.597   1.269 -0.1033  0.7837 -0.7853
 7833SOL    MW431100   1.794   5.514   1.245  0.2364  0.6696 -0.1011
 7834SOL     OW31101   0.983   3.752   1.196  0.1687  0.0467  0.0288
 7834SOL    HW231102   0.954   3.732   1.107  1.5106  0.6055 -0.5603
 7834SOL    HW331103   0.919   3.816   1.228 -2.3355 -2.5948  0.7854
 7834SOL    MW431104   0.970   3.757   1.188 -0.7188  0.2587 -0.4947
 7835SOL     OW31105   6.375   5.357   5.334  0.4166  0.0460  0.2115
 7835SOL    HW231106   6.378   5.380   5.427 -0.0779  0.3942  0.1483
 7835SOL    HW331107   6.402   5.265   5.331 -1.0741 -0.4482  0.8897
 7835SOL    MW431108   6.379   5.348   5.346 -0.1431 -0.2736  0.7367
 7836SOL     OW31109   0.759   6.348   1.805  0.0460  0.4894  0.3844
 7836SOL    HW231110   0.850   6.349   1.836 -0.5430 -0.8780  2.3025
 7836SOL    HW331111   0.715   6.285   1.861 -1.7643 -0.0532 -1.5362
 7836SOL    MW431112   0.765   6.340   1.816  0.3521  0.1635  0.3986
 7837SOL     OW31113   0.230   3.828   2.766  0.6273  0.0663 -0.1673
 7837SOL    HW231114   0.274   3.746   2.742 -1.1165 -0.7114 -0.8140
 7837SOL    HW331115   0.285   3.865   2.835  1.4376 -1.6529  0.1530
 7837SOL    MW431116   0.243   3.822   2.772  0.0963  0.3461 -0.3897
 7838SOL     OW31117   1.512   5.871   3.081  0.2378 -0.1629 -0.5601
 7838SOL    HW231118   1.533   5.816   3.006 -1.0192  1.6190 -2.3163
 7838SOL    HW331119   1.497   5.958   3.044 -1.1409  0.6254  1.6504
 7838SOL    MW431120   1.512   5.875   3.066 -0.0989 -0.3915 -0.3147
 7839SOL     OW31121   4.407   2.880   3.752 -0.5952 -0.4235  0.1321
 7839SOL    HW231122   4.321   2.921   3.750 -0.0558  0.7553  0.3211
 7839SOL    HW331123   4.424   2.855   3.661 -0.2330  1.3311 -0.3201
 7839SOL    MW431124   4.398   2.882   3.740 -0.1102  0.0194  0.3670
 7840SOL     OW31125   0.102   4.536   4.991 -0.1927  0.1423 -0.7737
 7840SOL    HW231126   0.076   4.444   4.994 -0.9017  0.3432  1.6662
 7840SOL    HW331127   0.062   4.575   5.069  0.4973  2.4186 -1.4682
 7840SOL    MW431128   0.093   4.529   5.002  0.1442  0.3364  0.1246
 7841SOL     OW31129   1.041   1.161   4.756  0.1752  0.0050 -0.4090
 7841SOL    HW231130   0.997   1.153   4.671  1.2070 -0.7599 -0.8885
 7841SOL    HW331131   1.115   1.219   4.739  1.2043 -1.2651 -0.3862
 7841SOL    MW431132   1.045   1.168   4.742 -0.1807  0.1795  0.6141
 7842SOL     OW31133   5.741   0.901   4.061  0.5327 -0.4003 -0.6370
 7842SOL    HW231134   5.688   0.822   4.066  1.0946 -0.7469  0.0363
 7842SOL    HW331135   5.726   0.934   3.972  1.1902 -1.9210 -1.3523
 7842SOL    MW431136   5.732   0.895   4.050  0.8137 -0.2298 -0.4632
 7843SOL     OW31137   4.689   4.182   3.210  0.0497  0.1727 -0.2904
 7843SOL    HW231138   4.694   4.126   3.133 -1.1303 -0.1098 -0.1809
 7843SOL    HW331139   4.701   4.123   3.284 -0.6794  0.1270 -0.1972
 7843SOL    MW431140   4.691   4.167   3.210 -0.2730  0.0479 -0.3258
 7844SOL     OW31141   2.311   1.319   5.699  0.0107 -0.3953 -0.2602
 7844SOL    HW231142   2.243   1.379   5.729 -0.6438 -0.9073 -0.6539
 7844SOL    HW331143   2.262   1.251   5.651  0.7593 -1.0282 -0.1469
 7844SOL    MW431144   2.295   1.318   5.697 -0.0435  0.1020 -0.1201
 7845SOL     OW31145   4.364   5.233   0.026 -0.2835  0.1339  0.0449
 7845SOL    HW231146   4.351   5.297   0.097 -1.4356 -0.3751  0.3209
 7845SOL    HW331147   4.454   5.248  -0.004 -0.7931  2.5420 -0.5380
 7845SOL    MW431148   4.374   5.244   0.032 -0.0343 -0.1985  0.0956
 7846SOL     OW31149   1.932   2.127   3.637 -0.4874  0.3067 -0.2320
 7846SOL    HW231150   1.874   2.203   3.644  0.1987  1.1042 -2.2460
 7846SOL    HW331151   1.895   2.062   3.696 -0.7675  2.3993  2.0595
 7846SOL    MW431152   1.920   2.129   3.646  0.1107 -0.4808 -0.1621
 7847SOL     OW31153   5.304   2.518   1.512  0.2060  0.0075  0.1870
 7847SOL    HW231154   5.321   2.612   1.515 -0.9743  0.2276  0.6989
 7847SOL    HW331155   5.326   2.487   1.600 -1.7657  0.2939  0.8565
 7847SOL    MW431156   5.309   2.526   1.524 -0.2110  0.0009  0.1115
 7848SOL     OW31157   2.686   2.138   5.668  0.3107 -0.6734  0.0883
 7848SOL    HW231158   2.623   2.067   5.676  0.8089 -1.3441 -1.5575
 7848SOL    HW331159   2.666   2.197   5.741 -1.6369 -1.3078  0.1069
 7848SOL    MW431160   2.675   2.137   5.679  0.4571  0.3245 -0.0106
 7849SOL     OW31161   1.852   4.947   1.622 -0.1177 -0.1474 -0.2445
 7849SOL    HW231162   1.877   4.894   1.546  1.2473 -0.4154  0.3667
 7849SOL    HW331163   1.810   4.885   1.682 -1.1027  0.0446 -0.7140
 7849SOL    MW431164   1.850   4.932   1.620 -0.0388  0.0531 -0.1495
 7850SOL     OW31165   1.970   5.777   5.657  0.3095 -0.2032  0.0514
 7850SOL    HW231166   2.055   5.735   5.669  1.1968  1.5619  0.3019
 7850SOL    HW331167   1.964   5.840   5.729 -0.3700  1.0046 -1.0206
 7850SOL    MW431168   1.980   5.779   5.668  0.1634  0.1163 -0.0181
 7851SOL     OW31169   0.528   2.309   5.707  0.2284  0.6554  0.1569
 7851SOL    HW231170   0.560   2.358   5.632 -1.9991 -0.7000 -1.8226
 7851SOL    HW331171   0.585   2.232   5.712 -0.6861 -0.1684 -1.3598
 7851SOL    MW431172   0.540   2.305   5.698  0.3578  0.0183  0.2565
 7852SOL     OW31173   3.631   4.267   0.725 -0.1264  0.4809  0.2030
 7852SOL    HW231174   3.616   4.299   0.636  1.1699  0.1766 -0.1578
 7852SOL    HW331175   3.709   4.315   0.754  0.6682 -0.8666  0.3872
 7852SOL    MW431176   3.639   4.277   0.717  0.3198 -0.0421  0.4797
 7853SOL     OW31177   3.387   3.975   1.919 -0.5987  0.1288  0.2004
 7853SOL    HW231178   3.327   3.900   1.920 -1.9879  1.1962  2.0710
 7853SOL    HW331179   3.336   4.046   1.882 -0.0600  0.7367  0.6007
 7853SOL    MW431180   3.372   3.974   1.914  0.4206  0.2950 -0.4548
 7854SOL     OW31181   0.684   1.248   4.279  0.3473  0.2121 -0.1727
 7854SOL    HW231182   0.707   1.260   4.187 -1.0958  0.1470 -0.5727
 7854SOL    HW331183   0.680   1.337   4.314 -0.6697  0.3549 -0.6050
 7854SOL    MW431184   0.686   1.261   4.271 -0.1021 -0.7328  0.1982
 7855SOL     OW31185   1.263   1.161   1.121 -0.2153 -0.1592  0.2959
 7855SOL    HW231186   1.355   1.172   1.146  0.1942  3.3044 -2.0546
 7855SOL    HW331187   1.215   1.164   1.205  1.6587  0.4992  1.4090
 7855SOL    MW431188   1.269   1.163   1.136  0.6154  0.0927  0.2084
 7856SOL     OW31189   1.222   2.207   0.844  0.1465  0.3492 -0.1962
 7856SOL    HW231190   1.254   2.295   0.867  0.0906  0.3871 -0.2650
 7856SOL    HW331191   1.210   2.209   0.750 -0.1827  0.3759 -0.1546
 7856SOL    MW431192   1.225   2.219   0.835 -0.5489 -0.5416  0.1736
 7857SOL     OW31193   0.705   4.875   5.054 -0.6910  0.0372  0.3808
 7857SOL    HW231194   0.755   4.831   5.123 -1.6992 -0.4113  0.8524
 7857SOL    HW331195   0.771   4.917   5.000  0.3339 -1.9562 -0.0118
 7857SOL    MW431196   0.720   4.875   5.056 -0.2245  0.1736  0.9627
 7858SOL     OW31197   2.970   4.103   3.427  0.1875  0.0068 -0.3887
 7858SOL    HW231198   3.014   4.019   3.437  0.1481  0.0771  0.4387
 7858SOL    HW331199   3.030   4.156   3.376  0.5988 -0.2380 -0.1629
 7858SOL    MW431200   2.984   4.098   3.422  0.7529  0.1327 -0.2658
 7859SOL     OW31201   1.520   1.729   4.806 -0.6217  0.1764 -0.5989
 7859SOL    HW231202   1.586   1.664   4.782 -0.6587 -0.5333  1.0446
 7859SOL    HW331203   1.570   1.810   4.819 -0.1544 -0.1830 -0.0769
 7859SOL    MW431204   1.536   1.731   4.805 -0.1124 -0.0364  0.3111
 7860SOL     OW31205   6.320   2.383   6.201 -0.0221  0.3486 -0.1490
 7860SOL    HW231206   6.238   2.431   6.195  2.0416  4.4366  1.0023
 7860SOL    HW331207   6.350   2.373   6.111 -1.0498  0.1196 -0.4740
 7860SOL    MW431208   6.313   2.388   6.188  0.2663 -0.4205  0.5850
 7861SOL     OW31209   1.366   2.801   1.943 -0.5156 -0.0153  0.1825
 7861SOL    HW231210   1.303   2.745   1.896 -0.9013 -0.8731  1.6820
 7861SOL    HW331211   1.447   2.793   1.893 -1.2626  0.1786 -1.1116
 7861SOL    MW431212   1.368   2.793   1.930 -0.5047 -0.6818  0.6853
 7862SOL     OW31213   1.654   4.124   4.578 -0.3421 -0.3870 -0.0366
 7862SOL    HW231214   1.694   4.177   4.509 -0.0345 -1.1338 -0.4566
 7862SOL    HW331215   1.673   4.034   4.551 -1.7072 -0.7458  0.1313
 7862SOL    MW431216   1.662   4.119   4.565  0.1270 -0.2763 -0.3297
 7863SOL     OW31217   5.992  -0.005   1.702 -0.1550  0.2325  0.1706
 7863SOL    HW231218   6.043  -0.074   1.660  3.1678  0.8282  2.7872
 7863SOL    HW331219   5.996   0.069   1.640 -1.7881 -1.0793 -1.6180
 7863SOL    MW431220   5.999  -0.004   1.688 -0.1542 -0.1901 -0.2615
 7864SOL     OW31221   6.343   3.643   1.012 -0.4909 -0.0604  0.0023
 7864SOL    HW231222   6.392   3.585   1.070  0.5386  0.6248 -0.1576
 7864SOL    HW331223   6.408   3.706   0.981 -1.7568  1.8309  0.9806
 7864SOL    MW431224   6.358   3.644   1.016  0.1178 -0.2253  0.0086
 7865SOL     OW31225   0.691   4.852   0.399 -0.1100 -0.0042 -0.2186
 7865SOL    HW231226   0.770   4.798   0.393  0.2823  0.3963  0.9864
 7865SOL    HW331227   0.721   4.934   0.439 -1.1361  0.1389  0.2975
 7865SOL    MW431228   0.705   4.855   0.404  0.0891  0.2677 -0.8708
 7866SOL     OW31229   5.738   0.050   6.137  0.8330 -0.3777 -0.3073
 7866SOL    HW231230   5.753  -0.012   6.066  0.5004  1.1077 -1.7223
 7866SOL    HW331231   5.781   0.010   6.213  0.3831 -2.4601 -1.0751
 7866SOL    MW431232   5.745   0.037   6.138 -0.0985  0.3905 -0.3945
 7867SOL     OW31233   4.478   1.492   0.479  0.2857  0.1326 -0.6619
 7867SOL    HW231234   4.525   1.482   0.396  1.3115 -0.7809  0.0132
 7867SOL    HW331235   4.509   1.575   0.514  2.0746 -0.8269  0.1592
 7867SOL    MW431236   4.488   1.502   0.473  0.4361  0.2776 -0.3248
 7868SOL     OW31237   5.375   6.295   2.246 -0.0489  0.1956  0.1231
 7868SOL    HW231238   5.360   6.303   2.152 -0.6274  0.2865  0.2170
 7868SOL    HW331239   5.469   6.280   2.254 -0.2781 -1.9016 -0.5995
 7868SOL    MW431240   5.385   6.294   2.235 -0.5322  0.3997 -0.3004
 7869SOL     OW31241   0.570   5.534   4.617 -0.2994  0.3455 -0.3100
 7869SOL    HW231242   0.604   5.445   4.624  1.6868  1.1310  1.3122
 7869SOL    HW331243   0.567   5.552   4.523 -1.0102 -1.4900 -0.6690
 7869SOL    MW431244   0.574   5.525   4.605  0.3943 -0.6490  0.6478
 7870SOL     OW31245   0.130   1.125   2.553  0.1589 -0.4241  0.4720
 7870SOL    HW231246   0.083   1.192   2.601 -1.8705 -2.7454  1.9805
 7870SOL    HW331247   0.209   1.109   2.604 -0.0022 -0.1053  0.8232
 7870SOL    MW431248   0.134   1.131   2.566  0.9982 -0.3409 -0.0316
 7871SOL     OW31249   1.380   2.733   1.628 -0.0760 -0.1107  0.2113
 7871SOL    HW231250   1.453   2.678   1.654 -0.7692 -1.8575 -1.3620
 7871SOL    HW331251   1.312   2.714   1.693 -0.4607 -1.5014 -0.5596
 7871SOL    MW431252   1.380   2.724   1.640  0.5444  0.3953  0.1056
 7872SOL     OW31253   6.384   1.542   3.198 -0.3116  0.2352 -0.3880
 7872SOL    HW231254   6.447   1.612   3.181  1.2919 -0.6002  1.6835
 7872SOL    HW331255   6.339   1.529   3.115  2.0781  1.0182 -1.8860
 7872SOL    MW431256   6.386   1.550   3.185  0.0182 -0.1684 -0.0013
 7873SOL     OW31257   2.587   0.680   4.580  0.3313 -0.2688  0.2604
 7873SOL    HW231258   2.639   0.756   4.605 -0.8995  1.0934 -1.0749
 7873SOL    HW331259   2.498   0.714   4.571 -0.5326 -2.1948  0.9848
 7873SOL    MW431260   2.582   0.695   4.582  0.0541 -0.0843 -0.5875
 7874SOL     OW31261   3.886   6.113   5.994 -0.1216 -0.3367 -0.6472
 7874SOL    HW231262   3.969   6.087   6.034 -0.0776  0.8190  0.0374
 7874SOL    HW331263   3.906   6.193   5.945 -0.8906  0.1340 -0.2129
 7874SOL    MW431264   3.900   6.120   5.992  0.2148 -0.2890 -0.1450
 7875SOL     OW31265   5.026   1.904   3.486  0.1479  0.2640  0.1213
 7875SOL    HW231266   5.085   1.931   3.556 -0.4577  1.7937  0.0928
 7875SOL    HW331267   5.079   1.909   3.407  0.2403  0.7574  0.2079
 7875SOL    MW431268   5.041   1.908   3.485  0.5433  0.0759 -0.0366
 7876SOL     OW31269   4.057   4.370   2.813 -0.1533  0.2229 -0.3659
 7876SOL    HW231270   4.019   4.398   2.897  0.2940 -0.7000  0.1621
 7876SOL    HW331271   4.006   4.293   2.789  0.6951 -0.3988 -0.1831
 7876SOL    MW431272   4.045   4.364   2.821  0.0052 -0.4364 -0.4795
 7877SOL     OW31273   6.348   4.933   3.845  0.2140 -0.3051  0.5383
 7877SOL    HW231274   6.371   5.024   3.866  0.1766 -0.5087  1.4939
 7877SOL    HW331275   6.257   4.924   3.872  0.6774 -1.0634  1.9292
 7877SOL    MW431276   6.339   4.944   3.851  0.0529  0.0927  0.4164
 7878SOL     OW31277   2.250   4.805   4.574 -0.5054 -1.1638 -0.0571
 7878SOL    HW231278   2.211   4.893   4.574 -0.3800 -1.1062  0.2329
 7878SOL    HW331279   2.227   4.769   4.489  0.9839 -0.1785 -0.9350
 7878SOL    MW431280   2.242   4.812   4.563 -0.2755 -0.7031  0.5082
 7879SOL     OW31281   2.152   1.523   5.417 -0.3919 -0.2550  0.3401
 7879SOL    HW231282   2.067   1.480   5.429 -1.1317  1.0081 -0.1146
 7879SOL    HW331283   2.134   1.594   5.356  0.9313  0.2487  0.5008
 7879SOL    MW431284   2.138   1.527   5.411  0.2953  0.1239 -0.2496
 7880SOL     OW31285   2.133   6.088   1.397 -0.1390  0.0173  0.4754
 7880SOL    HW231286   2.208   6.146   1.383 -1.5241  1.3133 -2.5033
 7880SOL    HW331287   2.129   6.036   1.317 -1.6850 -0.9262  1.1242
 7880SOL    MW431288   2.142   6.089   1.384  0.5552 -0.6444 -0.1843
 7881SOL     OW31289   0.430   2.050   6.150  0.4123  0.1290 -0.0026
 7881SOL    HW231290   0.447   1.974   6.095 -2.1084 -0.1028 -0.5807
 7881SOL    HW331291   0.415   2.122   6.089 -0.2539  0.3880  0.4546
 7881SOL    MW431292   0.431   2.050   6.135 -0.2112  0.3388 -0.1860
 7882SOL     OW31293   5.764   5.933   6.162  0.1961  0.1574 -0.6627
 7882SOL    HW231294   5.773   5.928   6.067  1.2611  0.4105 -0.5792
 7882SOL    HW331295   5.853   5.925   6.196  0.3246  3.5626  0.1559
 7882SOL    MW431296   5.777   5.932   6.154 -0.0058  0.0344 -0.0445
 7883SOL     OW31297   2.650   5.978   3.402  0.5440  0.5636  0.1381
 7883SOL    HW231298   2.561   6.012   3.415  0.9435  1.7803 -0.1183
 7883SOL    HW331299   2.638   5.896   3.355 -0.5007  0.0923  1.1622
 7883SOL    MW431300   2.636   5.972   3.398  0.2944 -0.2226  0.5009
 7884SOL     OW31301   1.682   4.522   4.960  0.1896  0.3477 -0.1751
 7884SOL    HW231302   1.700   4.448   5.018  0.6681  1.0663  0.6140
 7884SOL    HW331303   1.615   4.573   5.007 -0.5622  0.1129 -0.9805
 7884SOL    MW431304   1.675   4.519   4.974  0.2255  0.1079  0.3628
 7885SOL     OW31305   3.439   1.803   1.066 -0.7768 -0.5439 -0.9865
 7885SOL    HW231306   3.446   1.756   1.149  2.1352 -0.3470 -1.0164
 7885SOL    HW331307   3.345   1.809   1.050 -1.4468 -0.6997  2.2144
 7885SOL    MW431308   3.428   1.797   1.075  0.5273  0.0339 -0.8761
 7886SOL     OW31309   0.221   3.696   3.157  0.5345 -1.0592  0.2793
 7886SOL    HW231310   0.258   3.640   3.089 -0.2707 -0.1844 -0.9311
 7886SOL    HW331311   0.169   3.760   3.109 -0.9940 -1.1007  1.7848
 7886SOL    MW431312   0.219   3.697   3.142 -0.7023  0.3461  0.3286
 7887SOL     OW31313   3.338   5.482   2.862 -0.4731 -0.1724 -0.3158
 7887SOL    HW231314   3.403   5.507   2.796  0.9539  0.4709  1.2602
 7887SOL    HW331315   3.308   5.395   2.835  0.7719 -0.3192 -1.3028
 7887SOL    MW431316   3.342   5.474   2.850  0.3429 -0.1853  0.0402
 7888SOL     OW31317   2.938   1.109   2.816  0.1669 -0.6000 -0.0977
 7888SOL    HW231318   2.857   1.149   2.846 -0.6422 -1.3293 -1.2171
 7888SOL    HW331319   2.978   1.176   2.760 -0.8486 -1.0543 -1.4212
 7888SOL    MW431320   2.933   1.124   2.812  0.3023 -0.0121  0.2132
 7889SOL     OW31321   0.040   5.506   2.168  0.2749 -0.2748 -0.5366
 7889SOL    HW231322  -0.037   5.472   2.122  0.5802 -0.2142 -1.0984
 7889SOL    HW331323   0.029   5.476   2.258  0.3085 -1.5145 -0.9198
 7889SOL    MW431324   0.029   5.497   2.174 -0.0336  0.0231 -0.1993
 7890SOL     OW31325   2.121   6.386   4.377  0.0307 -0.1408  0.0883
 7890SOL    HW231326   2.181   6.354   4.445 -0.7787 -0.0256  0.8705
 7890SOL    HW331327   2.045   6.328   4.381  0.5464 -1.0223 -1.7067
 7890SOL    MW431328   2.119   6.374   4.386 -0.7262  0.5384 -0.5456
 7891SOL     OW31329   3.341   3.038   4.664 -0.1263 -0.1132  0.2672
 7891SOL    HW231330   3.333   3.048   4.569  2.2004  0.4026  0.0525
 7891SOL    HW331331   3.268   3.087   4.700 -1.5462 -1.0194 -1.2504
 7891SOL    MW431332   3.330   3.046   4.656  0.5826  0.1875  0.6559
 7892SOL     OW31333   0.625   5.747   4.806  0.3418  0.2742 -0.0949
 7892SOL    HW231334   0.554   5.810   4.794  0.9947  1.0185 -0.1632
 7892SOL    HW331335   0.624   5.694   4.726 -0.0629  0.3524 -0.1448
 7892SOL    MW431336   0.616   5.748   4.794 -0.1287  0.1145 -0.1957
 7893SOL     OW31337   3.861   3.119   5.473  0.8842 -0.0567  0.0444
 7893SOL    HW231338   3.927   3.049   5.483  0.9857  0.1043  0.5540
 7893SOL    HW331339   3.888   3.186   5.536 -0.5264 -0.5807  1.2800
 7893SOL    MW431340   3.874   3.118   5.483  0.1000  0.4078  0.1920
 7894SOL     OW31341   2.529   2.308   5.537 -0.0335  0.2600  0.9375
 7894SOL    HW231342   2.588   2.245   5.578  0.6463  0.1150 -0.2384
 7894SOL    HW331343   2.441   2.271   5.551  0.2456 -0.1959  1.5245
 7894SOL    MW431344   2.525   2.295   5.544  0.5507 -0.0811 -0.0587
 7895SOL     OW31345   5.614   6.219   3.698 -0.5050  0.5059  0.6842
 7895SOL    HW231346   5.635   6.267   3.618  0.6973 -0.0970  0.6103
 7895SOL    HW331347   5.522   6.195   3.688  0.2028 -1.7658 -1.7657
 7895SOL    MW431348   5.605   6.222   3.686 -0.7118  0.1230  0.2838
 7896SOL     OW31349   3.526   1.320   0.479 -0.4473  0.2389  0.3733
 7896SOL    HW231350   3.562   1.259   0.415 -2.0928  2.3019 -2.7945
 7896SOL    HW331351   3.452   1.274   0.518 -1.7820  0.1248 -2.0905
 7896SOL    MW431352   3.521   1.306   0.475  0.1952 -0.3995  0.0160
 7897SOL     OW31353   2.332   5.335   0.589  0.1724 -0.0702  0.4652
 7897SOL    HW231354   2.237   5.337   0.580  0.0323  0.0215  1.7150
 7897SOL    HW331355   2.355   5.425   0.614  0.5295 -0.1991  0.6010
 7897SOL    MW431356   2.323   5.348   0.591 -0.0901  0.2059 -0.0745
 7898SOL     OW31357   1.986   3.268   5.548 -0.3642 -0.2106  0.0567
 7898SOL    HW231358   2.024   3.268   5.636 -0.0807  0.4955 -0.0605
 7898SOL    HW331359   1.963   3.359   5.531  0.7212 -0.1206 -1.0768
 7898SOL    MW431360   1.988   3.280   5.557  0.2405 -0.3306 -0.4002
 7899SOL     OW31361   5.113   5.846   5.805  0.1381 -0.2298 -0.9070
 7899SOL    HW231362   5.131   5.915   5.869 -0.2369 -0.0141 -1.0299
 7899SOL    HW331363   5.132   5.765   5.852 -0.4153 -0.0868 -0.4175
 7899SOL    MW431364   5.118   5.844   5.820  0.0070 -0.5203  0.7155
 7900SOL     OW31365   4.011   2.076   3.846  0.5752 -0.2991 -0.4640
 7900SOL    HW231366   3.985   2.025   3.770  0.5866 -0.6622 -0.2254
 7900SOL    HW331367   3.930   2.088   3.896  1.0102 -2.5174  0.9372
 7900SOL    MW431368   3.997   2.071   3.843  0.2175  0.3478  0.3031
 7901SOL     OW31369   1.280   2.012   1.533  0.1676  0.1775  0.4494
 7901SOL    HW231370   1.349   2.067   1.496  1.2078 -0.5132  1.2954
 7901SOL    HW331371   1.326   1.935   1.567 -1.0398 -0.3692  0.9143
 7901SOL    MW431372   1.295   2.009   1.533  0.3201 -0.4123 -0.7890
 7902SOL     OW31373   1.794   5.781   4.295  0.1360 -0.0380  0.3717
 7902SOL    HW231374   1.741   5.709   4.330  1.0923 -1.3304 -0.7384
 7902SOL    HW331375   1.731   5.836   4.248 -0.4364 -0.7555  0.2822
 7902SOL    MW431376   1.778   5.779   4.294 -0.0644  0.3310  0.0035
 7903SOL     OW31377   3.909   3.558   3.787 -0.3377 -0.0630  0.0612
 7903SOL    HW231378   3.985   3.585   3.736  0.6614 -0.4268  1.3134
 7903SOL    HW331379   3.937   3.565   3.878 -0.9834 -2.4665  0.5223
 7903SOL    MW431380   3.923   3.563   3.793 -0.6274 -0.7281  0.4311
 7904SOL     OW31381   3.522   1.783   4.223  0.0946 -0.2129 -0.0527
 7904SOL    HW231382   3.577   1.806   4.297  0.3575 -1.7657  0.2694
 7904SOL    HW331383   3.569   1.710   4.180 -1.6402 -1.5372  0.1948
 7904SOL    MW431384   3.536   1.776   4.227 -0.4456  0.5246 -0.0036
 7905SOL     OW31385   1.727   5.262   3.309  0.5912  0.3555  0.3102
 7905SOL    HW231386   1.768   5.221   3.386 -0.4676 -0.1720  0.6075
 7905SOL    HW331387   1.636   5.274   3.333  0.0909 -0.3993 -1.0855
 7905SOL    MW431388   1.721   5.258   3.322 -0.5104  0.1777  0.2331
 7906SOL     OW31389   1.234   0.799   2.204  0.0540  0.0790 -0.1134
 7906SOL    HW231390   1.205   0.711   2.228  0.2183 -0.5831 -2.1650
 7906SOL    HW331391   1.152   0.846   2.186 -0.0195  0.2804  0.7028
 7906SOL    MW431392   1.219   0.794   2.205 -0.0280 -0.0683  0.1006
 7907SOL     OW31393   3.302   2.541   2.918 -0.2468  0.2111  0.2746
 7907SOL    HW231394   3.241   2.473   2.947 -1.9313  0.6138 -2.0137
 7907SOL    HW331395   3.255   2.623   2.933  0.0975  0.5941 -0.6675
 7907SOL    MW431396   3.288   2.543   2.923  0.3856  0.0133  0.2250
 7908SOL     OW31397   4.104   1.503   6.074  0.0094  0.1187  0.0908
 7908SOL    HW231398   4.016   1.480   6.106  0.3773  0.9169  1.7849
 7908SOL    HW331399   4.154   1.523   6.153  2.2011 -1.7752 -0.7121
 7908SOL    MW431400   4.099   1.503   6.089 -0.4486 -0.0031 -0.4137
 7909SOL     OW31401   5.348   1.027   0.112 -0.1699 -0.3492 -0.0373
 7909SOL    HW231402   5.295   0.994   0.184  2.3161 -0.3487  1.9194
 7909SOL    HW331403   5.403   0.952   0.087  0.6084  0.3152 -0.3531
 7909SOL    MW431404   5.348   1.013   0.118 -0.1313  0.5520 -0.4190
 7910SOL     OW31405   2.019   0.669   0.175  0.1421  0.6149 -0.0882
 7910SOL    HW231406   1.933   0.630   0.159  0.3255  0.9653 -2.2239
 7910SOL    HW331407   2.012   0.757   0.140  0.9279  1.2087  1.1681
 7910SOL    MW431408   2.006   0.675   0.169  0.6906  0.2204  0.5350
 7911SOL     OW31409   4.962   2.498   1.775 -0.1456 -0.4232 -0.1218
 7911SOL    HW231410   4.899   2.450   1.721  1.1007 -1.6451 -0.5322
 7911SOL    HW331411   4.909   2.535   1.846 -1.6736  0.4731 -1.6539
 7911SOL    MW431412   4.946   2.497   1.777  0.2457  0.2826  0.0398
 7912SOL     OW31413   5.465   4.906   4.613 -0.2229 -0.6625  0.3242
 7912SOL    HW231414   5.528   4.911   4.685  0.1784 -0.8989 -0.0062
 7912SOL    HW331415   5.452   4.996   4.585 -0.8487 -0.5038  1.0914
 7912SOL    MW431416   5.471   4.918   4.619 -0.3265  0.2602  0.5108
 7913SOL     OW31417   4.351   1.029   3.144 -0.5180  0.1168 -0.1715
 7913SOL    HW231418   4.379   1.066   3.061 -0.9985 -0.3870 -0.5614
 7913SOL    HW331419   4.425   1.043   3.203  1.6428 -3.3882 -1.7769
 7913SOL    MW431420   4.364   1.036   3.141  0.0999 -0.2115  0.2389
 7914SOL     OW31421   1.030   0.966   5.426  0.0668 -0.1208 -0.3141
 7914SOL    HW231422   1.090   1.019   5.479  1.7964 -1.7637 -0.4845
 7914SOL    HW331423   1.065   0.971   5.337 -1.4514  0.7478 -0.8833
 7914SOL    MW431424   1.043   0.974   5.422  0.2484  0.2064 -0.2351
 7915SOL     OW31425   1.877   3.107   4.012 -0.2517  0.2105  0.1734
 7915SOL    HW231426   1.841   3.174   4.071 -2.0025 -1.6059  1.2771
 7915SOL    HW331427   1.817   3.105   3.938 -0.7560 -0.7465  0.5887
 7915SOL    MW431428   1.864   3.116   4.010  0.8287  0.7056 -0.3868
 7916SOL     OW31429   0.182   1.088   3.128 -0.2763  0.4453  0.0441
 7916SOL    HW231430   0.105   1.120   3.081 -1.1798  1.1321  1.8997
 7916SOL    HW331431   0.208   1.160   3.185  2.3466  0.5659 -1.1572
 7916SOL    MW431432   0.175   1.101   3.129 -0.1982  0.4369 -0.3068
 7917SOL     OW31433   4.890   3.248   1.365  0.1699  0.5837  0.2463
 7917SOL    HW231434   4.955   3.229   1.432  0.4988  2.6866  0.6023
 7917SOL    HW331435   4.841   3.323   1.399 -1.0654  0.3474 -0.9254
 7917SOL    MW431436   4.892   3.256   1.378  0.0204 -0.0552 -0.1727
 7918SOL     OW31437   2.374   3.525   1.114  0.3320  0.0795 -0.6354
 7918SOL    HW231438   2.416   3.607   1.139 -0.1514  0.4678 -1.0868
 7918SOL    HW331439   2.443   3.474   1.072  1.0447 -0.3874  0.9959
 7918SOL    MW431440   2.388   3.529   1.112  0.1509 -0.0194 -0.0244
 7919SOL     OW31441   3.254   5.348   0.218  0.1420  0.2325  0.4310
 7919SOL    HW231442   3.337   5.377   0.257  0.2056 -0.3290  0.7246
 7919SOL    HW331443   3.239   5.261   0.256  0.9163 -0.9714 -1.8337
 7919SOL    MW431444   3.263   5.340   0.228  0.6887 -0.6059 -0.3518
 7920SOL     OW31445   5.281   2.368   6.408  0.3946 -0.1843 -0.2944
 7920SOL    HW231446   5.264   2.298   6.472  0.7605  0.2840  0.3286
 7920SOL    HW331447   5.288   2.323   6.324  0.0027 -0.8261  0.0065
 7920SOL    MW431448   5.279   2.353   6.406  0.0681  0.1329  0.0720
 7921SOL     OW31449   2.139   0.106   1.858  0.1797  0.3898 -0.1735
 7921SOL    HW231450   2.133   0.114   1.954 -1.1204 -0.9119 -0.1185
 7921SOL    HW331451   2.195   0.029   1.845 -2.0166 -1.2461 -0.3762
 7921SOL    MW431452   2.146   0.096   1.869 -0.4192  0.6686 -0.4212
 7922SOL     OW31453   0.356   4.357   4.590 -0.4424 -0.4104 -0.0697
 7922SOL    HW231454   0.360   4.397   4.677 -1.9162 -0.7639  0.1847
 7922SOL    HW331455   0.285   4.403   4.545 -0.0782 -0.6237 -0.8895
 7922SOL    MW431456   0.347   4.368   4.595  0.8405 -0.0473 -0.0351
 7923SOL     OW31457   2.776   0.263   6.124 -0.4089 -0.0506 -0.4545
 7923SOL    HW231458   2.731   0.345   6.104 -0.0612  0.2444 -0.0545
 7923SOL    HW331459   2.749   0.241   6.212 -4.1934 -2.8680 -2.0805
 7923SOL    MW431460   2.767   0.271   6.133 -0.5418 -0.0660 -0.4713
 7924SOL     OW31461   2.558   0.208   1.114  0.2308  0.3308  0.1163
 7924SOL    HW231462   2.578   0.262   1.038 -0.3036  0.8654  0.3447
 7924SOL    HW331463   2.630   0.225   1.175  0.3590  0.3487 -0.0397
 7924SOL    MW431464   2.570   0.218   1.112  0.3122  0.5298 -0.1019
 7925SOL     OW31465   1.833   3.985   6.326  0.3916  0.2703 -0.1784
 7925SOL    HW231466   1.772   3.920   6.290  0.3077 -1.1871  2.3714
 7925SOL    HW331467   1.786   4.025   6.399  1.4484  1.2328  0.0021
 7925SOL    MW431468   1.819   3.982   6.331 -0.1726 -0.4510  0.4484
 7926SOL     OW31469   0.757   3.614   4.357  0.5156  0.0265  0.3877
 7926SOL    HW231470   0.713   3.541   4.315  0.2514 -0.2872  1.2048
 7926SOL    HW331471   0.795   3.664   4.284  0.0675 -0.5052 -0.2191
 7926SOL    MW431472   0.756   3.611   4.341 -0.5997  0.2618 -0.0845
 7927SOL     OW31473   5.939   1.479   0.944  0.0324 -0.0880  0.1238
 7927SOL    HW231474   5.879   1.412   0.977  1.1855  0.0859  2.7564
 7927SOL    HW331475   5.883   1.535   0.890 -1.4100 -1.8781 -0.3677
 7927SOL    MW431476   5.924   1.477   0.941 -0.7058  0.1907  0.1009
 7928SOL     OW31477   0.893   1.154   1.876  0.9635 -0.0613  0.7143
 7928SOL    HW231478   0.926   1.200   1.798  0.1683  0.1099  0.4640
 7928SOL    HW331479   0.884   1.063   1.848 -0.3417  0.1809  0.2384
 7928SOL    MW431480   0.896   1.148   1.862  0.1296 -0.8232  0.4202
 7929SOL     OW31481   0.343   3.854   3.759 -0.0329 -0.1500  0.4770
 7929SOL    HW231482   0.409   3.838   3.692  1.0673 -0.6368  1.6443
 7929SOL    HW331483   0.260   3.828   3.718  0.6204 -0.4808 -0.6579
 7929SOL    MW431484   0.341   3.849   3.745 -0.3762 -0.2257  0.4232
 7930SOL     OW31485   2.770   6.082   3.916 -0.5751  0.2422  0.8268
 7930SOL    HW231486   2.736   6.049   3.833  3.5013  1.1723 -1.5090
 7930SOL    HW331487   2.823   6.010   3.951  0.3026  0.9149  0.9243
 7930SOL    MW431488   2.773   6.068   3.910 -0.2168 -0.2957  0.0507
 7931SOL     OW31489   1.880   4.410   3.339 -0.1312  0.1637  0.0844
 7931SOL    HW231490   1.916   4.467   3.407 -0.5854 -1.3177  1.6185
 7931SOL    HW331491   1.818   4.466   3.292  1.0423  1.5515  0.0962
 7931SOL    MW431492   1.877   4.425   3.342 -0.9614 -0.2728 -0.1332
 7932SOL     OW31493   0.829   0.035   4.066  0.1160  0.6773 -0.5096
 7932SOL    HW231494   0.898   0.058   4.004  0.0600  0.4630 -0.6515
 7932SOL    HW331495   0.861  -0.044   4.109 -0.0667  0.5420 -0.6194
 7932SOL    MW431496   0.842   0.027   4.063 -0.3408 -0.1015 -0.0116
 7933SOL     OW31497   2.243   2.570   2.124  0.0302 -0.3494  0.1874
 7933SOL    HW231498   2.332   2.553   2.154 -0.6851 -1.3700  1.8260
 7933SOL    HW331499   2.243   2.539   2.033  1.1700 -0.9102  0.3503
 7933SOL    MW431500   2.255   2.564   2.116 -0.5705  0.3492  0.0704
 7934SOL     OW31501   1.202   3.480   3.331 -0.0038  0.5182 -0.5553
 7934SOL    HW231502   1.217   3.564   3.288  0.7815  0.6950  0.0523
 7934SOL    HW331503   1.117   3.489   3.374 -0.5412  0.5302 -1.5937
 7934SOL    MW431504   1.193   3.492   3.331 -0.1880 -0.1330  0.2939
 7935SOL     OW31505   0.249   5.845   1.964  0.3543  0.8417  0.3284
 7935SOL    HW231506   0.212   5.910   2.023 -0.8364 -0.2043  0.7605
 7935SOL    HW331507   0.245   5.886   1.877  1.4372  2.0919  0.8359
 7935SOL    MW431508   0.244   5.859   1.960  0.2348  0.4833 -0.2390
 7936SOL     OW31509   3.187   5.856   2.972  0.1498  0.4087 -0.2436
 7936SOL    HW231510   3.146   5.781   2.930 -0.4159  0.9816 -0.7476
 7936SOL    HW331511   3.121   5.926   2.964  0.8872  1.1076 -0.2905
 7936SOL    MW431512   3.173   5.855   2.965  0.1685 -0.2345  0.1668
 7937SOL     OW31513   5.142   2.631   3.185  0.3533 -0.1550 -0.2217
 7937SOL    HW231514   5.082   2.642   3.112  1.0500  1.0309 -0.6522
 7937SOL    HW331515   5.207   2.700   3.173  1.5365 -1.0983  0.4856
 7937SOL    MW431516   5.143   2.642   3.174 -0.6715  0.0079 -0.7938
 7938SOL     OW31517   3.774   1.696   5.522  0.3997 -0.3380 -0.3723
 7938SOL    HW231518   3.690   1.686   5.478  0.3795 -0.2795 -0.3469
 7938SOL    HW331519   3.753   1.695   5.615  0.4739 -0.7530 -0.3563
 7938SOL    MW431520   3.760   1.694   5.528  0.2385  0.1988 -0.2482
 7939SOL     OW31521   0.064   2.421   1.780 -0.0582 -0.3008  0.1006
 7939SOL    HW231522   0.005   2.408   1.705 -0.4463 -0.1765  0.3857
 7939SOL    HW331523   0.150   2.398   1.745 -0.2969 -0.6721 -0.2645
 7939SOL    MW431524   0.067   2.417   1.765  0.9216  0.2476  0.3174
 7940SOL     OW31525   0.956   0.952   0.138  0.3894  0.3835 -0.1460
 7940SOL    HW231526   0.918   1.027   0.093  1.4414  0.7867 -0.3939
 7940SOL    HW331527   0.992   0.988   0.219 -0.3727 -0.1178  0.4378
 7940SOL    MW431528   0.956   0.966   0.143  0.5534  0.5834 -0.0100
 7941SOL     OW31529   2.848   1.596   3.275 -0.7964 -0.1111  0.2111
 7941SOL    HW231530   2.821   1.667   3.217 -0.8731 -0.0761  0.2893
 7941SOL    HW331531   2.796   1.521   3.246  0.0475 -0.4191 -0.5681
 7941SOL    MW431532   2.838   1.595   3.264  0.3486  0.2600  0.6147
 7942SOL     OW31533   1.221  -0.031   3.438 -0.4055  0.5342  0.4988
 7942SOL    HW231534   1.146   0.006   3.485 -2.0329 -2.0693  0.1411
 7942SOL    HW331535   1.285  -0.051   3.506 -1.4405 -0.2842  1.2716
 7942SOL    MW431536   1.219  -0.029   3.453 -0.9264 -0.5576  0.3227
 7943SOL     OW31537   2.704   3.531   1.989  0.4801  0.6613 -0.3383
 7943SOL    HW231538   2.670   3.559   2.073 -0.5838  1.3497 -0.9698
 7943SOL    HW331539   2.707   3.436   1.994 -1.7471  0.5366 -0.2817
 7943SOL    MW431540   2.700   3.522   2.000  0.6048  0.3964  0.4847
 7944SOL     OW31541   2.872   6.122   3.274 -0.1101 -0.2074  0.2074
 7944SOL    HW231542   2.806   6.073   3.321 -0.1925  0.3299  0.6619
 7944SOL    HW331543   2.919   6.170   3.342  0.2102  0.0492 -0.1914
 7944SOL    MW431544   2.870   6.122   3.289 -0.0328  0.1148  0.2160
 7945SOL     OW31545   4.748   1.823   4.958 -0.0265  0.6680  0.4614
 7945SOL    HW231546   4.774   1.750   4.902  0.6257 -0.2386  1.8728
 7945SOL    HW331547   4.738   1.897   4.899  0.0456 -0.3814 -0.9114
 7945SOL    MW431548   4.750   1.823   4.943 -0.3146 -0.7869 -0.3393
 7946SOL     OW31549   6.269   0.324   2.762  0.0021 -0.6195 -0.0098
 7946SOL    HW231550   6.325   0.251   2.735 -0.6828 -1.6433  1.2358
 7946SOL    HW331551   6.244   0.303   2.852 -1.1529  0.5794 -0.0212
 7946SOL    MW431552   6.273   0.312   2.771  0.1591  0.3597 -0.2080
 7947SOL     OW31553   2.789   1.788   0.094 -0.2237 -0.7862  0.0186
 7947SOL    HW231554   2.793   1.693   0.106 -0.2453 -0.6182  1.5518
 7947SOL    HW331555   2.739   1.819   0.169  2.3765  0.7297  1.2383
 7947SOL    MW431556   2.783   1.780   0.105  0.0064 -0.6963 -0.0984
 7948SOL     OW31557   5.038   1.780   4.988 -0.0939 -0.2899 -0.4942
 7948SOL    HW231558   4.945   1.784   5.012 -0.1558 -0.7753 -0.6341
 7948SOL    HW331559   5.083   1.832   5.054 -0.4988  0.1724 -0.5803
 7948SOL    MW431560   5.032   1.787   5.000 -0.1298 -0.3816 -0.5832
 7949SOL     OW31561   3.999   2.797   0.529 -0.5295 -0.0100  0.3602
 7949SOL    HW231562   4.030   2.834   0.447 -0.3350 -1.3320 -0.1945
 7949SOL    HW331563   4.000   2.702   0.514 -2.5210 -0.2127  1.1471
 7949SOL    MW431564   4.003   2.789   0.516  0.1932 -0.1001  0.0192
 7950SOL     OW31565   2.306   0.588   4.325  0.3989  0.3399 -0.1265
 7950SOL    HW231566   2.259   0.581   4.242  0.0907  1.0844 -0.0209
 7950SOL    HW331567   2.239   0.575   4.392  0.7890 -1.1046  0.0202
 7950SOL    MW431568   2.291   0.586   4.323  0.3372 -0.4785 -0.4781
 7951SOL     OW31569   3.535   1.880   2.702  0.2231  0.1381 -0.2747
 7951SOL    HW231570   3.447   1.842   2.709 -0.7464  2.4998  2.0416
 7951SOL    HW331571   3.584   1.841   2.774  1.8167 -2.5008 -2.5462
 7951SOL    MW431572   3.530   1.870   2.712  0.3659  0.1757 -0.5374
 7952SOL     OW31573   2.751   4.076   1.996  0.1404  0.3158 -0.3802
 7952SOL    HW231574   2.733   3.996   1.948  1.6764 -0.6385  0.5418
 7952SOL    HW331575   2.733   4.054   2.088  0.7941  0.9415 -0.0873
 7952SOL    MW431576   2.746   4.062   2.002 -0.2920 -0.0715 -0.9040
 7953SOL     OW31577   5.894   2.407   3.129 -0.2633  0.3654  0.0647
 7953SOL    HW231578   5.943   2.336   3.169  1.9019  1.4552 -0.4859
 7953SOL    HW331579   5.858   2.456   3.203 -0.0023 -0.1042  0.5108
 7953SOL    MW431580   5.896   2.404   3.144 -0.3932 -0.1659 -0.1024
 7954SOL     OW31581   4.050   5.423   2.493  0.1158 -0.2806  0.1672
 7954SOL    HW231582   4.099   5.402   2.573 -0.3658 -0.7351  0.3463
 7954SOL    HW331583   4.114   5.411   2.423  0.5248  0.0550  0.4719
 7954SOL    MW431584   4.065   5.419   2.495 -0.4708  0.3116 -0.4579
 7955SOL     OW31585   2.343   3.994   1.277  0.0053  0.0490  0.2614
 7955SOL    HW231586   2.376   3.910   1.248 -0.7038 -0.7477  1.6552
 7955SOL    HW331587   2.275   4.016   1.214  1.2701  0.3829 -1.0335
 7955SOL    MW431588   2.338   3.986   1.265 -0.7347  0.2615 -1.0425
 7956SOL     OW31589   4.760   5.476   5.273  0.3117 -0.0771  0.1732
 7956SOL    HW231590   4.723   5.393   5.305  0.8196  0.2143  1.6175
 7956SOL    HW331591   4.815   5.451   5.199  0.0553 -0.9655  0.2688
 7956SOL    MW431592   4.762   5.461   5.268 -0.1212 -0.1078  0.2089
 7957SOL     OW31593   0.766   3.357   1.100  0.0310  0.3833 -0.0406
 7957SOL    HW231594   0.831   3.342   1.031 -0.8856 -1.2550 -0.6126
 7957SOL    HW331595   0.695   3.405   1.057  0.8886  2.3591  0.6337
 7957SOL    MW431596   0.765   3.361   1.085  0.5203  0.4244  0.1053
 7958SOL     OW31597   1.920   4.335   6.113  0.7937 -0.1160 -0.4704
 7958SOL    HW231598   1.898   4.427   6.094 -3.5153 -0.9734 -0.6906
 7958SOL    HW331599   1.945   4.335   6.205 -0.2479  1.1904 -0.1512
 7958SOL    MW431600   1.921   4.347   6.123 -0.7256 -0.3830 -0.0098
 7959SOL     OW31601   2.344   4.685   5.875 -0.1303  0.0062  0.3621
 7959SOL    HW231602   2.303   4.606   5.910  0.7962  0.2809  2.1845
 7959SOL    HW331603   2.430   4.656   5.844 -0.9933 -0.2660 -1.9821
 7959SOL    MW431604   2.350   4.671   5.875  0.6386 -0.1476 -0.3537
 7960SOL     OW31605   1.739   0.927   5.433 -0.1036  0.0193 -0.0015
 7960SOL    HW231606   1.805   0.997   5.433 -0.3270  0.2901  2.4064
 7960SOL    HW331607   1.673   0.956   5.496 -1.3860 -1.3117 -0.6831
 7960SOL    MW431608   1.739   0.940   5.441  0.0944  0.0287  0.4082
 7961SOL     OW31609   2.795   3.392   3.921 -0.1609 -0.4880 -0.1539
 7961SOL    HW231610   2.853   3.467   3.933  1.1723 -1.6001  0.7968
 7961SOL    HW331611   2.711   3.420   3.956  0.2029  0.6799 -0.1903
 7961SOL    MW431612   2.792   3.405   3.927  0.3321 -0.2677  0.6866
 7962SOL     OW31613   0.162   5.453   2.420 -0.0298  0.6058 -0.0499
 7962SOL    HW231614   0.166   5.548   2.432  0.6985  0.5783 -0.0469
 7962SOL    HW331615   0.231   5.434   2.356 -0.1723  0.0762 -0.0507
 7962SOL    MW431616   0.171   5.463   2.413  0.3008  0.0403  0.2367
 7963SOL     OW31617   3.231   0.738   5.729 -0.1389  0.0700 -0.3671
 7963SOL    HW231618   3.225   0.778   5.816 -1.9690 -2.5569  0.8612
 7963SOL    HW331619   3.297   0.670   5.739  0.3156  0.3541 -1.3381
 7963SOL    MW431620   3.239   0.734   5.742  0.1240  0.1704  0.0508
 7964SOL     OW31621   3.142   3.183   4.810  0.0321 -0.1953 -0.0284
 7964SOL    HW231622   3.063   3.158   4.761  0.5420  0.0321 -0.9754
 7964SOL    HW331623   3.109   3.241   4.879 -0.5185  0.7884 -1.0807
 7964SOL    MW431624   3.127   3.187   4.813 -0.4047 -0.0924  0.1227
 7965SOL     OW31625   0.631   0.744   5.126  0.3896  0.0376  0.3709
 7965SOL    HW231626   0.554   0.802   5.130  0.1888 -0.2691  1.1540
 7965SOL    HW331627   0.609   0.680   5.059 -0.6495 -0.8647  1.5132
 7965SOL    MW431628   0.618   0.744   5.118  0.2102 -0.0419 -0.5028
 7966SOL     OW31629   5.544   4.712   2.924 -0.3918 -0.0293 -0.3637
 7966SOL    HW231630   5.542   4.705   3.020 -2.4496 -2.0199 -0.4816
 7966SOL    HW331631   5.637   4.722   2.903  0.0171  1.8474  1.8587
 7966SOL    MW431632   5.556   4.713   2.934 -0.2921  0.1766 -0.2994
 7967SOL     OW31633   3.560   0.779   3.037 -0.0214 -0.3922 -0.1549
 7967SOL    HW231634   3.642   0.826   3.045 -0.0858 -0.1295 -0.9414
 7967SOL    HW331635   3.579   0.691   3.071  0.5526 -0.3032 -0.2374
 7967SOL    MW431636   3.573   0.773   3.043  0.5389  0.1988  0.5245
 7968SOL     OW31637   1.415   5.192   3.048 -0.1949  0.3227  0.2554
 7968SOL    HW231638   1.503   5.165   3.022 -0.1591 -0.3395  1.0058
 7968SOL    HW331639   1.363   5.111   3.043 -0.5436  0.5172  0.6856
 7968SOL    MW431640   1.420   5.177   3.044 -0.4698  1.1487  0.3423
 7969SOL     OW31641   2.685   6.158   4.340  0.0404 -0.2075 -0.1122
 7969SOL    HW231642   2.768   6.121   4.309 -0.3380  0.5566 -2.2656
 7969SOL    HW331643   2.642   6.189   4.260 -2.0593 -0.0380  1.0204
 7969SOL    MW431644   2.690   6.158   4.325  0.0280 -0.0058 -0.6203
 7970SOL     OW31645   3.829   3.782   6.422  0.9678 -0.1655 -0.8760
 7970SOL    HW231646   3.886   3.710   6.448  1.5285  0.6806  0.3938
 7970SOL    HW331647   3.888   3.846   6.382  0.8924  0.5489  0.0931
 7970SOL    MW431648   3.844   3.781   6.420  0.5297 -0.7637 -0.3997
 7971SOL     OW31649   2.571   6.314   6.222  0.0431  0.8891  0.3902
 7971SOL    HW231650   2.507   6.303   6.293 -1.0866  0.8181 -0.6040
 7971SOL    HW331651   2.588   6.225   6.192  0.1395  0.9542  0.2526
 7971SOL    MW431652   2.565   6.301   6.227  0.3670  0.3285  0.1258
 7972SOL     OW31653   0.423   2.668   2.846 -0.8570  0.0260  0.4416
 7972SOL    HW231654   0.497   2.721   2.817 -0.0091 -0.9574  0.7444
 7972SOL    HW331655   0.384   2.635   2.765 -0.6884  0.1885  0.2951
 7972SOL    MW431656   0.427   2.670   2.831  0.3786  0.4115 -0.0621
 7973SOL     OW31657   6.111   1.051   1.134 -0.1774 -0.3083  0.0218
 7973SOL    HW231658   6.154   0.996   1.068  0.5304  0.2866 -0.0369
 7973SOL    HW331659   6.038   0.999   1.166  0.3678 -1.2018 -0.1608
 7973SOL    MW431660   6.107   1.037   1.129 -0.0446  0.2572 -0.6000
 7974SOL     OW31661   1.712   5.740   5.904  0.9180 -0.2160 -0.4266
 7974SOL    HW231662   1.734   5.711   5.993  0.6845  2.5049  0.6019
 7974SOL    HW331663   1.644   5.806   5.917  0.1419 -0.4714 -2.7425
 7974SOL    MW431664   1.706   5.745   5.918  0.8826 -0.5080  0.9008
 7975SOL     OW31665   2.050   2.324   5.243 -0.6050 -0.8248 -0.2698
 7975SOL    HW231666   2.078   2.372   5.321 -1.2206  0.2582 -0.6880
 7975SOL    HW331667   2.130   2.282   5.211  0.2084  0.7474 -0.4331
 7975SOL    MW431668   2.065   2.325   5.249  0.3283  0.5807  0.1454
 7976SOL     OW31669   4.426   4.519   2.249  0.1196 -0.4060  0.0415
 7976SOL    HW231670   4.380   4.440   2.279 -0.0925  1.0771  4.2079
 7976SOL    HW331671   4.356   4.582   2.234  0.4522 -0.1109 -0.2741
 7976SOL    MW431672   4.410   4.517   2.251 -0.6217  0.0874  0.3484
 7977SOL     OW31673   0.316   1.362   2.221 -0.3310  0.4856 -0.4075
 7977SOL    HW231674   0.359   1.447   2.209 -0.1445  0.2516 -1.4335
 7977SOL    HW331675   0.354   1.306   2.154 -0.4075 -0.4377  0.3062
 7977SOL    MW431676   0.326   1.366   2.211  0.0394 -0.3812  0.1886
 7978SOL     OW31677   4.016   3.903   0.287  0.2652 -0.0051  0.0017
 7978SOL    HW231678   4.063   3.947   0.216 -0.4867  1.1910  0.2030
 7978SOL    HW331679   4.063   3.930   0.366 -1.7265  2.7424  0.3986
 7978SOL    MW431680   4.028   3.913   0.288  0.0722 -0.5948 -0.1636
 7979SOL     OW31681   2.516   4.206   0.791 -0.7486 -0.1234 -0.2556
 7979SOL    HW231682   2.521   4.302   0.796 -1.0872 -0.0789 -0.7605
 7979SOL    HW331683   2.470   4.180   0.871 -1.2828  0.1868 -0.4586
 7979SOL    MW431684   2.511   4.216   0.802 -0.2244 -0.5487  0.5199
 7980SOL     OW31685   0.050   1.522   5.245 -0.2345  0.2561 -0.6500
 7980SOL    HW231686   0.106   1.571   5.184 -0.0761  0.3719 -0.4120
 7980SOL    HW331687   0.085   1.543   5.332 -0.7583  0.4680 -0.4873
 7980SOL    MW431688   0.062   1.531   5.248 -0.2477 -0.0010 -0.0319
 7981SOL     OW31689   0.755   2.502   0.775 -0.1731  0.6558  0.1933
 7981SOL    HW231690   0.740   2.588   0.815  2.4662  0.8014  1.0924
 7981SOL    HW331691   0.756   2.441   0.849  1.8982  0.5023  0.1062
 7981SOL    MW431692   0.753   2.506   0.790 -0.5986 -0.2394 -0.2752
 7982SOL     OW31693   6.409   4.300   0.314 -0.1258  0.2304  0.0592
 7982SOL    HW231694   6.330   4.266   0.272  0.6055 -0.1997 -1.0102
 7982SOL    HW331695   6.397   4.395   0.315  0.1567  0.3229 -1.8512
 7982SOL    MW431696   6.397   4.308   0.309  0.6300 -0.3204 -0.2521
 7983SOL     OW31697   1.849   3.112   2.368 -0.4178 -0.7191 -0.2299
 7983SOL    HW231698   1.824   3.071   2.451  0.1863  0.7589  0.7379
 7983SOL    HW331699   1.941   3.135   2.381  0.9860 -4.0539 -2.8540
 7983SOL    MW431700   1.858   3.110   2.381 -0.0100 -0.7000 -0.3330
 7984SOL     OW31701   1.446   3.524   4.402 -0.3131 -0.0284  0.5794
 7984SOL    HW231702   1.365   3.494   4.359 -0.3998  0.3921  0.4463
 7984SOL    HW331703   1.471   3.450   4.458  0.4046 -1.0298 -0.9991
 7984SOL    MW431704   1.438   3.510   4.404  0.1194  0.2836  0.5835
 7985SOL     OW31705   0.616   4.628   4.932 -0.3123  0.2714 -0.8386
 7985SOL    HW231706   0.672   4.594   5.002 -0.2707  0.7386 -0.6390
 7985SOL    HW331707   0.628   4.723   4.936 -0.0070  0.2846 -1.7323
 7985SOL    MW431708   0.625   4.636   4.941 -0.0171 -0.0604  0.5698
 7986SOL     OW31709   5.421   4.777   1.983 -0.0760 -0.0531  0.0456
 7986SOL    HW231710   5.361   4.779   1.909 -1.2101  2.0526  0.9329
 7986SOL    HW331711   5.420   4.686   2.013 -2.4205 -0.2115 -0.3086
 7986SOL    MW431712   5.413   4.765   1.977  0.3464  0.1084 -0.5704
 7987SOL     OW31713   6.253   1.719   5.278  0.5325 -0.4806 -0.0358
 7987SOL    HW231714   6.300   1.802   5.280  0.9525 -0.5366 -3.2266
 7987SOL    HW331715   6.319   1.654   5.304  1.0661 -0.1136 -0.4438
 7987SOL    MW431716   6.268   1.721   5.282  0.3661  0.0115 -0.5271
 7988SOL     OW31717   6.035   0.146   3.924 -0.5274 -0.4594  0.5799
 7988SOL    HW231718   6.111   0.149   3.982 -1.2931  1.7092  1.5923
 7988SOL    HW331719   5.961   0.136   3.984 -1.2109 -0.0648 -0.1824
 7988SOL    MW431720   6.035   0.145   3.940 -0.8157  0.1359 -0.2599
 7989SOL     OW31721   1.270   1.771   2.461 -0.0925  0.2841  0.2165
 7989SOL    HW231722   1.278   1.804   2.550  0.4324 -0.9410  0.6482
 7989SOL    HW331723   1.359   1.773   2.426  0.0485 -1.1258  0.4392
 7989SOL    MW431724   1.283   1.775   2.468  0.3821 -0.7928 -0.1439
 7990SOL     OW31725   0.656   0.072   0.230  0.3088  0.3625  0.2654
 7990SOL    HW231726   0.676   0.015   0.155 -0.2919 -0.1824  0.5140
 7990SOL    HW331727   0.563   0.059   0.246  0.6753 -0.5168  1.9169
 7990SOL    MW431728   0.646   0.063   0.222  0.1050  0.0860 -0.7855
 7991SOL     OW31729   2.491   4.237   2.935 -0.7804 -0.2363 -0.1524
 7991SOL    HW231730   2.447   4.290   3.001 -0.8558 -0.3368 -0.1213
 7991SOL    HW331731   2.582   4.263   2.940 -0.8908  0.2195 -0.4527
 7991SOL    MW431732   2.497   4.248   2.944  0.2226  0.9070  0.3283
 7992SOL     OW31733   1.974   1.131   4.410 -0.2775  0.8481 -0.5467
 7992SOL    HW231734   2.058   1.101   4.375 -0.0390 -0.2487  0.8855
 7992SOL    HW331735   1.985   1.225   4.421  0.9530  0.6541  0.0545
 7992SOL    MW431736   1.986   1.139   4.407  0.0319  0.0133  0.3711
 7993SOL     OW31737   2.798   4.344   0.915  0.2208 -0.0409  0.1850
 7993SOL    HW231738   2.843   4.272   0.871  0.2265 -0.0299  0.1731
 7993SOL    HW331739   2.781   4.311   1.003  0.0847 -0.1143  0.1312
 7993SOL    MW431740   2.802   4.330   0.921  0.0645 -0.3382 -0.0606
 7994SOL     OW31741   1.608   3.231   3.217  0.4606  0.0202 -0.0771
 7994SOL    HW231742   1.647   3.301   3.269 -0.3836  0.4606 -0.0061
 7994SOL    HW331743   1.517   3.260   3.204  0.8440  0.3108 -2.4763
 7994SOL    MW431744   1.601   3.244   3.222 -0.0711  0.1974  0.0955
 7995SOL     OW31745   3.358   4.048   1.226  0.2205 -0.2709  0.0998
 7995SOL    HW231746   3.454   4.047   1.223  0.3775 -3.2855  1.8766
 7995SOL    HW331747   3.336   4.141   1.229  3.2005  0.5396  1.5137
 7995SOL    MW431748   3.368   4.060   1.226 -0.5990 -0.1989  0.0327
 7996SOL     OW31749   0.609   0.786   4.680 -0.1378  0.0101 -0.4527
 7996SOL    HW231750   0.585   0.755   4.593 -1.1386  1.1487 -0.6140
 7996SOL    HW331751   0.556   0.733   4.739 -1.7882  1.2795 -0.7233
 7996SOL    MW431752   0.599   0.775   4.676  0.0494  0.3317  0.4367
 7997SOL     OW31753   4.493   5.403   5.584 -0.5095 -0.0978  0.6886
 7997SOL    HW231754   4.508   5.497   5.597 -0.9776 -0.0732  1.0992
 7997SOL    HW331755   4.412   5.385   5.632 -0.0768 -0.8427  1.1670
 7997SOL    MW431756   4.484   5.413   5.592 -0.7259  0.2240  0.4988
 7998SOL     OW31757   3.334   3.890   3.982  0.2632 -0.0429  0.1389
 7998SOL    HW231758   3.319   3.840   3.902  0.6525 -0.9034  0.5818
 7998SOL    HW331759   3.361   3.976   3.952  0.5033 -0.3839 -0.6602
 7998SOL    MW431760   3.335   3.894   3.968  0.0756  0.0042 -0.0342
 7999SOL     OW31761   5.535   2.922   6.107 -0.4031  0.5758 -0.6832
 7999SOL    HW231762   5.596   2.882   6.045  1.0968 -0.5863  1.4357
 7999SOL    HW331763   5.491   2.849   6.148 -0.9183  1.2954  0.0622
 7999SOL    MW431764   5.538   2.907   6.104 -0.6380  0.1159  0.2387
 8000SOL     OW31765   4.272   2.474   5.767 -0.0491 -0.0857  0.7202
 8000SOL    HW231766   4.193   2.445   5.722 -0.9751 -0.2742  2.3725
 8000SOL    HW331767   4.290   2.561   5.731 -0.6732 -0.2873 -0.0954
 8000SOL    MW431768   4.264   2.482   5.756  0.4508 -0.1389 -0.0031
 8001SOL     OW31769   2.273   0.940   3.804 -0.0316  0.0655 -0.2771
 8001SOL    HW231770   2.223   0.868   3.767 -0.3493  0.8091 -1.3380
 8001SOL    HW331771   2.342   0.957   3.739 -0.6993  1.5034 -0.6678
 8001SOL    MW431772   2.276   0.933   3.790  0.3518 -0.3074 -0.4091
 8002SOL     OW31773   5.066   2.187   4.845 -0.0076 -0.2718 -0.2475
 8002SOL    HW231774   5.075   2.093   4.827  0.1885 -0.0063 -1.7264
 8002SOL    HW331775   4.988   2.213   4.796  0.8651  0.6313 -1.2022
 8002SOL    MW431776   5.057   2.178   4.836  0.4065  0.4752 -0.0678
 8003SOL     OW31777   6.227   0.233   3.305  0.0690 -0.5354 -0.2578
 8003SOL    HW231778   6.195   0.144   3.318 -1.1394 -0.5382 -2.7208
 8003SOL    HW331779   6.155   0.289   3.334 -0.1152 -0.4239 -0.9235
 8003SOL    MW431780   6.213   0.228   3.311 -0.1203  0.2860  0.4749
 8004SOL     OW31781   6.074   5.258   1.616  0.5802 -0.2656  0.1574
 8004SOL    HW231782   6.073   5.186   1.553 -0.0172  0.3190 -0.5223
 8004SOL    HW331783   6.150   5.311   1.591  0.3247 -0.0163 -0.0867
 8004SOL    MW431784   6.084   5.255   1.604  0.2403  0.1567  0.0724
 8005SOL     OW31785   2.257   1.356   6.239  0.1157 -0.2972  0.6910
 8005SOL    HW231786   2.186   1.405   6.281  0.0808 -1.8030  2.5561
 8005SOL    HW331787   2.217   1.317   6.161 -0.6208  0.2926  0.7584
 8005SOL    MW431788   2.242   1.357   6.234 -0.1731  0.2769  0.0339
 8006SOL     OW31789   3.745   4.510   1.907 -0.0875  0.4288  0.3362
 8006SOL    HW231790   3.693   4.500   1.986  0.4317 -0.9626  0.5314
 8006SOL    HW331791   3.680   4.512   1.836 -0.5016  0.7635  0.7194
 8006SOL    MW431792   3.730   4.509   1.908  0.1358 -0.0207 -0.5484
 8007SOL     OW31793   6.187   0.653   3.815 -0.0059 -0.7091  0.4874
 8007SOL    HW231794   6.164   0.714   3.885  2.5350 -0.7779  1.5149
 8007SOL    HW331795   6.251   0.701   3.762  1.5641 -2.1879  0.9458
 8007SOL    MW431796   6.193   0.668   3.817  0.2630 -0.1185 -0.1394
 8008SOL     OW31797   2.047   6.028   3.688 -0.4962  0.3002 -0.1298
 8008SOL    HW231798   2.020   6.116   3.663 -2.2126  0.2274  1.2380
 8008SOL    HW331799   2.135   6.039   3.724 -0.6150  1.4249 -0.1547
 8008SOL    MW431800   2.055   6.041   3.690  0.3762 -0.1892  0.4712
 8009SOL     OW31801   3.878   0.353   1.231 -0.4699  0.3489 -0.6310
 8009SOL    HW231802   3.961   0.369   1.276 -0.4969 -0.3871 -0.3169
 8009SOL    HW331803   3.811   0.386   1.291 -0.4997 -0.5391 -0.1582
 8009SOL    MW431804   3.880   0.360   1.245  0.6563  0.4379  0.0937
 8010SOL     OW31805   1.313   4.229   5.733 -0.4149 -0.5281  0.1377
 8010SOL    HW231806   1.283   4.219   5.642  3.4809  0.1186 -1.4097
 8010SOL    HW331807   1.328   4.140   5.763 -2.5667 -0.8031  0.5865
 8010SOL    MW431808   1.311   4.216   5.725 -0.2852 -0.1482 -0.1659
 8011SOL     OW31809   4.885   3.337   5.467 -0.1757 -0.2180  0.2099
 8011SOL    HW231810   4.923   3.424   5.478  0.8344 -0.6797  0.4475
 8011SOL    HW331811   4.933   3.298   5.395  1.5477 -1.7070  2.0324
 8011SOL    MW431812   4.896   3.343   5.459  0.6660 -0.1949  0.0562
 8012SOL     OW31813   0.940   3.190   0.826 -0.3927  0.5521  0.7858
 8012SOL    HW231814   0.986   3.161   0.747  0.7424  1.6369  1.0258
 8012SOL    HW331815   0.847   3.177   0.806 -0.0667 -0.4041 -0.2226
 8012SOL    MW431816   0.934   3.184   0.813 -1.1561  0.0346 -0.5771
 8013SOL     OW31817   5.278   1.096   5.991  0.2049 -0.4284 -0.1316
 8013SOL    HW231818   5.350   1.138   6.038 -1.2285 -0.2711  2.0504
 8013SOL    HW331819   5.274   1.007   6.026  0.0450 -0.8057 -1.0722
 8013SOL    MW431820   5.287   1.090   6.002 -0.6378  0.0413  0.5332
 8014SOL     OW31821   5.474   3.403   4.819 -0.3982 -0.0551 -0.0339
 8014SOL    HW231822   5.548   3.394   4.880 -0.6307 -1.3555  0.0822
 8014SOL    HW331823   5.463   3.498   4.808  3.1868  0.2872 -2.3434
 8014SOL    MW431824   5.483   3.415   4.826  0.5535 -0.1773  0.2469
 8015SOL     OW31825   4.072   3.821   0.628  0.1769 -0.2944  0.4330
 8015SOL    HW231826   4.142   3.757   0.643  1.4633  0.4886 -1.7871
 8015SOL    HW331827   4.085   3.887   0.696 -1.0525 -2.1783  2.6393
 8015SOL    MW431828   4.083   3.821   0.639  0.2487  1.1372 -0.4133
 8016SOL     OW31829   4.148   3.149   0.572  0.2142  0.9234  0.0666
 8016SOL    HW231830   4.075   3.088   0.557  0.9087  0.4091 -1.5077
 8016SOL    HW331831   4.107   3.235   0.577 -0.6954  0.4412  1.3642
 8016SOL    MW431832   4.133   3.152   0.571  0.1302 -0.0829  0.1909
 8017SOL     OW31833   1.585   2.075   5.373 -0.6610 -0.0702 -0.5155
 8017SOL    HW231834   1.594   1.981   5.355 -0.3547  0.4878 -4.0553
 8017SOL    HW331835   1.675   2.104   5.391 -0.8974 -0.5491  1.7776
 8017SOL    MW431836   1.598   2.066   5.373 -0.0980  0.2248  0.2560
 8018SOL     OW31837   0.840   5.844   0.057 -0.1572  0.4373 -0.3329
 8018SOL    HW231838   0.808   5.917   0.110 -1.4512 -1.8578  2.2889
 8018SOL    HW331839   0.772   5.830  -0.009 -1.5891 -0.4430  1.2695
 8018SOL    MW431840   0.827   5.852   0.055  0.5245 -0.1418  0.0661
 8019SOL     OW31841   5.279   1.745   3.790 -0.1608  0.4156 -0.3909
 8019SOL    HW231842   5.301   1.718   3.702  1.3494  0.6878 -0.1182
 8019SOL    HW331843   5.214   1.815   3.778  1.3072  1.6716 -1.3793
 8019SOL    MW431844   5.273   1.751   3.777  0.4748 -0.0733  0.1683
 8020SOL     OW31845   1.316   4.649   0.704  0.1268 -0.0984 -0.0672
 8020SOL    HW231846   1.402   4.606   0.704 -0.7498 -1.9159 -0.3556
 8020SOL    HW331847   1.279   4.631   0.618 -1.2273 -0.7917  0.6229
 8020SOL    MW431848   1.323   4.641   0.693  0.4411  0.5331  0.5298
 8021SOL     OW31849   3.381   6.116   1.417 -0.0460  0.1720 -0.3602
 8021SOL    HW231850   3.381   6.183   1.485 -1.3359 -1.5130  1.4352
 8021SOL    HW331851   3.407   6.036   1.462  0.0898 -0.8379 -2.1152
 8021SOL    MW431852   3.384   6.114   1.432  0.5814  0.2208 -0.0370
 8022SOL     OW31853   0.673   2.604   1.915 -0.6081 -0.1500 -0.9179
 8022SOL    HW231854   0.631   2.621   1.999  1.2027 -1.8832  0.4535
 8022SOL    HW331855   0.742   2.670   1.910  0.5383 -1.2171 -0.0215
 8022SOL    MW431856   0.677   2.615   1.926 -0.3629 -0.2973  0.3371
 8023SOL     OW31857   4.020   0.035   2.415  0.8031  0.3130 -0.0682
 8023SOL    HW231858   4.015   0.131   2.420 -0.6900  0.2616 -0.1055
 8023SOL    HW331859   3.958   0.004   2.481  2.2384 -0.6697  0.8607
 8023SOL    MW431860   4.011   0.044   2.424 -0.0230 -0.0893  0.0405
 8024SOL     OW31861   0.808   2.548   6.102  0.3582  0.1251 -0.2336
 8024SOL    HW231862   0.851   2.582   6.181  0.9751 -0.4022 -0.3424
 8024SOL    HW331863   0.870   2.565   6.031 -0.4216  1.0899 -0.7127
 8024SOL    MW431864   0.822   2.555   6.103  0.1984  0.4010 -0.3464
 8025SOL     OW31865   1.415   2.281   5.033 -0.0708  0.1547 -0.2310
 8025SOL    HW231866   1.337   2.332   5.009 -0.5479 -0.5027 -0.0810
 8025SOL    HW331867   1.427   2.298   5.126 -0.3315 -0.1437 -0.1430
 8025SOL    MW431868   1.406   2.290   5.042  0.5656  0.3379  0.2352
 8026SOL     OW31869   1.244   2.371   4.026 -0.1817  0.0097 -0.5312
 8026SOL    HW231870   1.273   2.461   4.043 -1.0270  0.1390  0.3150
 8026SOL    HW331871   1.261   2.357   3.933 -0.8221  1.3436 -0.8675
 8026SOL    MW431872   1.250   2.381   4.016 -0.5453  0.0421  0.1268
 8027SOL     OW31873   6.022   0.301   2.616  0.3738 -0.1756  0.1570
 8027SOL    HW231874   6.100   0.304   2.671 -0.2300  0.9119  0.9904
 8027SOL    HW331875   5.964   0.239   2.660 -0.0802  0.6414  0.7496
 8027SOL    MW431876   6.025   0.294   2.629  0.0255  0.5013 -0.5005
 8028SOL     OW31877   3.446   1.556   3.732  0.0508  0.0999 -0.3129
 8028SOL    HW231878   3.376   1.496   3.704  0.8979 -1.1767  0.2439
 8028SOL    HW331879   3.518   1.498   3.759  1.6684  1.3707 -1.6934
 8028SOL    MW431880   3.446   1.540   3.732  0.2734  0.3771 -0.0192
 8029SOL     OW31881   0.735   1.058   2.908  0.1194 -0.4319  0.0941
 8029SOL    HW231882   0.754   0.968   2.933 -1.3312 -1.0739 -1.0030
 8029SOL    HW331883   0.769   1.066   2.819 -1.0605 -0.3577 -0.3642
 8029SOL    MW431884   0.742   1.047   2.899 -0.5375 -0.7336 -0.3790
 8030SOL     OW31885   1.516   1.824   2.330 -0.0520  0.2820  0.3228
 8030SOL    HW231886   1.517   1.854   2.239 -2.6417  0.8565  0.3924
 8030SOL    HW331887   1.578   1.881   2.375 -0.7977  1.8907 -0.5912
 8030SOL    MW431888   1.524   1.835   2.324  0.7039 -0.0938 -0.1776
 8031SOL     OW31889   0.872   5.319   0.397  0.3808 -0.1268 -0.1921
 8031SOL    HW231890   0.920   5.341   0.318  1.9682 -2.9062 -0.1516
 8031SOL    HW331891   0.787   5.288   0.366  1.1145 -1.5226 -0.8821
 8031SOL    MW431892   0.867   5.318   0.383 -0.0758 -0.0793 -0.4227
 8032SOL     OW31893   4.775   5.020   5.976 -0.4402 -0.2165 -0.2747
 8032SOL    HW231894   4.841   4.962   6.014  1.2726  0.4366 -2.0761
 8032SOL    HW331895   4.814   5.051   5.894 -3.2929 -0.3580 -1.8247
 8032SOL    MW431896   4.789   5.017   5.970  0.7962 -0.6688 -0.3669
 8033SOL     OW31897   2.423   1.586   1.447  0.0564 -0.2022  0.1804
 8033SOL    HW231898   2.363   1.523   1.486 -0.2164  0.5953  1.1123
 8033SOL    HW331899   2.462   1.631   1.522  2.1040 -0.9473 -0.3940
 8033SOL    MW431900   2.420   1.584   1.462 -0.3406  0.6952 -0.3814
 8034SOL     OW31901   4.476   1.459   3.235  0.2496 -0.9890  0.3913
 8034SOL    HW231902   4.391   1.495   3.260  1.4714  1.4279  1.3990
 8034SOL    HW331903   4.467   1.440   3.141 -1.3295 -0.6150  0.4406
 8034SOL    MW431904   4.463   1.462   3.226  0.3134  0.0941  0.1001
 8035SOL     OW31905   0.125   1.279   5.442  0.5532 -0.0525 -0.1053
 8035SOL    HW231906   0.101   1.354   5.496  1.6512 -0.2876  0.7426
 8035SOL    HW331907   0.162   1.215   5.503  3.5331  0.3759 -1.2793
 8035SOL    MW431908   0.126   1.280   5.457 -0.5638  0.6629 -0.2916
 8036SOL     OW31909   2.232   5.697   0.073 -0.7286 -0.4975 -0.0196
 8036SOL    HW231910   2.243   5.661   0.161 -1.1664 -1.9462 -0.5180
 8036SOL    HW331911   2.217   5.791   0.087 -1.6940 -0.8348  1.5128
 8036SOL    MW431912   2.231   5.705   0.086  0.0394 -0.0295 -0.1707
 8037SOL     OW31913   3.861   0.037   3.546  0.3157 -0.2147 -0.3833
 8037SOL    HW231914   3.847   0.003   3.635  0.2981  2.6533  0.8053
 8037SOL    HW331915   3.924  -0.024   3.507 -0.4707 -2.1427  1.1827
 8037SOL    MW431916   3.868   0.024   3.553  0.6348 -0.3419 -0.0319
 8038SOL     OW31917   2.048   6.193   0.546 -0.3539 -0.8924  0.3799
 8038SOL    HW231918   2.139   6.208   0.572 -0.0512 -3.1953  0.8643
 8038SOL    HW331919   2.045   6.101   0.521 -2.6919 -1.0216  0.8981
 8038SOL    MW431920   2.060   6.183   0.546 -0.2688 -0.6329 -0.0581
 8039SOL     OW31921   1.372   0.639   3.556  0.1974 -0.5704  0.3643
 8039SOL    HW231922   1.378   0.735   3.562 -0.4318 -0.5132  0.1160
 8039SOL    HW331923   1.359   0.621   3.463  1.8246 -1.0007  0.1763
 8039SOL    MW431924   1.371   0.649   3.545  0.6145  0.1527  0.2258
 8040SOL     OW31925   3.341   5.916   5.295 -0.6589 -0.4949  0.7300
 8040SOL    HW231926   3.250   5.894   5.278 -0.5556 -0.1729 -0.3087
 8040SOL    HW331927   3.391   5.852   5.246 -0.3509  0.3672 -0.1272
 8040SOL    MW431928   3.336   5.905   5.286  0.0722 -0.1017 -0.7351
 8041SOL     OW31929   0.269   4.777   2.333  0.3465 -0.3924 -0.4276
 8041SOL    HW231930   0.223   4.762   2.251 -0.2606  1.3290 -0.4502
 8041SOL    HW331931   0.331   4.705   2.340 -0.0417 -0.9216 -2.0616
 8041SOL    MW431932   0.271   4.766   2.323  0.4952  0.3024  0.3296
 8042SOL     OW31933   2.191   1.706   5.627 -0.0193 -0.3898 -0.3546
 8042SOL    HW231934   2.164   1.639   5.564  0.5565  0.0058 -1.0426
 8042SOL    HW331935   2.236   1.658   5.696 -2.3798 -1.0662  0.8131
 8042SOL    MW431936   2.193   1.691   5.628  0.3273 -0.6700  0.5788
 8043SOL     OW31937   0.275   0.762   1.458  0.2984  0.0768  0.6296
 8043SOL    HW231938   0.337   0.736   1.390 -0.9539 -0.7399 -0.2410
 8043SOL    HW331939   0.285   0.696   1.526  1.3874  0.7665  1.1825
 8043SOL    MW431940   0.284   0.750   1.458 -0.0957 -0.0379  0.2825
 8044SOL     OW31941   5.029   4.041   5.722  0.2694 -0.2863 -0.5665
 8044SOL    HW231942   5.017   3.995   5.639  0.6911 -1.9165  0.2389
 8044SOL    HW331943   5.004   3.977   5.789  2.6133 -0.0027  0.6788
 8044SOL    MW431944   5.024   4.027   5.720 -0.4600  0.2238  0.0991
 8045SOL     OW31945   5.129   0.988   1.381 -0.1336  0.1109 -0.4352
 8045SOL    HW231946   5.130   1.049   1.307  1.8014  0.0338 -0.5223
 8045SOL    HW331947   5.059   1.020   1.437  0.4515  2.1162 -0.7627
 8045SOL    MW431948   5.120   1.000   1.378  0.1038 -0.2162  0.5369
 8046SOL     OW31949   2.593   4.958   1.357  0.5064 -0.2909 -0.6587
 8046SOL    HW231950   2.638   4.942   1.274 -1.1733 -0.5824 -1.5563
 8046SOL    HW331951   2.542   4.878   1.373  0.8807 -0.2759  0.7113
 8046SOL    MW431952   2.592   4.946   1.348 -0.4417 -0.0420 -0.1054
 8047SOL     OW31953   6.298   2.149   0.896 -0.2377 -0.1356 -0.1725
 8047SOL    HW231954   6.295   2.159   0.801  0.0084  2.0905  0.0212
 8047SOL    HW331955   6.386   2.113   0.913  0.9135  2.2941 -0.6109
 8047SOL    MW431956   6.310   2.145   0.886  0.7899 -0.3015  0.1132
 8048SOL     OW31957   4.142   2.052   3.118  0.3301 -0.1125 -0.2015
 8048SOL    HW231958   4.216   2.112   3.132  0.5922 -0.8734  2.0493
 8048SOL    HW331959   4.171   1.996   3.046  0.6230  1.5550 -1.4585
 8048SOL    MW431960   4.156   2.053   3.110  0.2969 -0.2659  0.4818
 8049SOL     OW31961   1.723   0.295   0.227 -0.4032  0.3162  0.0637
 8049SOL    HW231962   1.663   0.368   0.211  0.2150  0.7233 -0.4141
 8049SOL    HW331963   1.734   0.294   0.323 -0.7147  0.6089  0.1048
 8049SOL    MW431964   1.717   0.305   0.238  0.3418  0.0874  0.6156
 8050SOL     OW31965   3.110   2.654   4.651 -0.0243 -0.3395 -0.3596
 8050SOL    HW231966   3.049   2.703   4.596 -1.5043 -0.4584  1.0995
 8050SOL    HW331967   3.128   2.573   4.602 -0.7887 -0.1659 -0.9412
 8050SOL    MW431968   3.104   2.650   4.637  0.6647  0.1292 -0.3361
 8051SOL     OW31969   3.926   0.307   1.691  0.5773 -0.5894 -0.1170
 8051SOL    HW231970   4.012   0.333   1.656  0.8778 -1.2863  0.0799
 8051SOL    HW331971   3.937   0.215   1.715 -0.4276 -0.8816 -0.7146
 8051SOL    MW431972   3.939   0.299   1.690 -0.2234 -0.3270  0.1259
 8052SOL     OW31973   1.898   5.546   2.024 -0.0084  0.0815 -0.0406
 8052SOL    HW231974   1.852   5.577   1.947  0.5856 -1.3371 -1.0156
 8052SOL    HW331975   1.864   5.457   2.039  2.3277 -1.0361 -0.8215
 8052SOL    MW431976   1.887   5.538   2.016  0.2938 -0.5362  0.7800
 8053SOL     OW31977   0.867   6.332   2.102 -0.3691 -0.0158  0.0490
 8053SOL    HW231978   0.873   6.248   2.148  0.0967 -0.0106  0.0025
 8053SOL    HW331979   0.774   6.341   2.082 -0.3787 -0.6949 -0.2618
 8053SOL    MW431980   0.855   6.322   2.105  0.2039 -0.5536 -0.0205
 8054SOL     OW31981   5.914   2.788   4.396  0.1787  0.2928 -0.2332
 8054SOL    HW231982   5.860   2.867   4.384 -0.1404  0.0296 -0.5691
 8054SOL    HW331983   5.852   2.720   4.420  0.2622 -0.1641 -1.2540
 8054SOL    MW431984   5.899   2.790   4.397  0.0187 -0.1743  0.3928
 8055SOL     OW31985   3.099   4.526   5.848 -0.2213 -0.0544  0.3959
 8055SOL    HW231986   3.124   4.469   5.775  2.2607  1.0316  0.3025
 8055SOL    HW331987   3.034   4.585   5.811  0.1432 -0.2638 -0.6171
 8055SOL    MW431988   3.094   4.526   5.833 -0.2317 -0.1604 -0.5190
 8056SOL     OW31989   2.433   0.882   0.089  0.7549  0.2760  0.0659
 8056SOL    HW231990   2.368   0.952   0.079  0.3280 -0.0594  0.4794
 8056SOL    HW331991   2.405   0.833   0.166  0.8338 -0.5926 -0.4403
 8056SOL    MW431992   2.421   0.885   0.098  0.5573  0.2623 -0.1390
 8057SOL     OW31993   2.283   6.125   0.296  0.3766  0.1083  0.4255
 8057SOL    HW231994   2.223   6.089   0.361  0.9930 -0.5875  0.6200
 8057SOL    HW331995   2.266   6.074   0.217 -0.1779  0.7696  0.1007
 8057SOL    MW431996   2.273   6.114   0.294  0.0525  0.3309 -0.5366
 8058SOL     OW31997   5.222   0.387   0.755  0.1252  0.2457  0.2585
 8058SOL    HW231998   5.200   0.381   0.662 -0.3572 -0.6274  0.4236
 8058SOL    HW331999   5.178   0.313   0.796  0.0796  0.7887  1.2424
 8058SOL    MW432000   5.213   0.377   0.748 -0.2543  0.1843 -0.3331
 8059SOL     OW32001   6.399   6.020   3.081 -0.2110 -0.3540 -0.3629
 8059SOL    HW232002   6.482   6.066   3.080  0.7563 -2.0106  0.0133
 8059SOL    HW332003   6.342   6.071   3.023 -0.1976  2.9447  2.2251
 8059SOL    MW432004   6.402   6.032   3.073 -0.4134 -0.4936  0.1741
 8060SOL     OW32005   1.055   2.983   5.968  0.0551  0.0594 -0.1069
 8060SOL    HW232006   1.046   2.942   6.054  1.0122 -0.8132 -0.4043
 8060SOL    HW332007   0.967   3.013   5.947 -0.2845 -0.1133  0.9814
 8060SOL    MW432008   1.042   2.981   5.977  0.1920  0.1433 -0.5479
 8061SOL     OW32009   4.030   5.491   0.038 -0.3230  0.0671 -0.1185
 8061SOL    HW232010   4.072   5.557  -0.017 -1.5223  1.3530  0.4713
 8061SOL    HW332011   4.028   5.530   0.125 -1.2867 -0.6415  0.1849
 8061SOL    MW432012   4.035   5.505   0.042 -0.1278  0.5319  0.2836
 8062SOL     OW32013   1.321   0.243   6.131  0.6270 -0.0150  0.3049
 8062SOL    HW232014   1.344   0.307   6.064 -1.9026  1.0349  0.3206
 8062SOL    HW332015   1.265   0.180   6.086 -0.0061 -0.0572  1.1219
 8062SOL    MW432016   1.316   0.243   6.116  0.0864  0.3922 -0.0605
 8063SOL     OW32017   0.361   1.369   4.804 -0.6119 -0.1521 -0.0274
 8063SOL    HW232018   0.358   1.340   4.713 -1.9854 -1.0496  0.2643
 8063SOL    HW332019   0.293   1.436   4.811 -1.2058 -0.7951  0.5425
 8063SOL    MW432020   0.352   1.374   4.793 -0.2971  0.2135  0.1006
 8064SOL     OW32021   1.875   0.482   4.184  0.4234  0.7341  0.0617
 8064SOL    HW232022   1.816   0.554   4.208  1.4004  1.6510 -0.2163
 8064SOL    HW332023   1.827   0.433   4.118 -0.5990  0.6229  0.8508
 8064SOL    MW432024   1.861   0.485   4.179  0.5780  0.3682  0.0361
 8065SOL     OW32025   5.381   0.027   2.913  0.1697  0.5215  0.2410
 8065SOL    HW232026   5.471  -0.001   2.928  0.1322 -0.7350 -1.6362
 8065SOL    HW332027   5.388   0.093   2.845 -0.4499 -1.0364 -1.4014
 8065SOL    MW432028   5.394   0.032   2.906 -0.9080 -0.0869  0.2201
 8066SOL     OW32029   1.155   5.071   4.016  0.1596  0.4386  0.3658
 8066SOL    HW232030   1.080   5.120   3.982  0.2724  1.8141  1.9818
 8066SOL    HW332031   1.227   5.096   3.958 -0.0637  1.2112  0.4082
 8066SOL    MW432032   1.154   5.081   4.004 -0.3167  0.3889 -0.7375
 8067SOL     OW32033   5.064   0.054   0.225  0.1666  0.1475  0.3170
 8067SOL    HW232034   4.983   0.104   0.240 -1.0245 -1.5005 -0.2853
 8067SOL    HW332035   5.122   0.082   0.295 -0.4882  2.2291  0.1013
 8067SOL    MW432036   5.061   0.064   0.236  0.1084  0.0068  0.4245
 8068SOL     OW32037   3.835   5.734   4.957 -0.3055  0.3717 -0.6347
 8068SOL    HW232038   3.868   5.750   5.046 -0.4783  2.2390 -0.8694
 8068SOL    HW332039   3.812   5.641   4.956 -1.2078  0.5128  1.5820
 8068SOL    MW432040   3.836   5.724   4.969 -0.0351 -0.3013  0.4091
 8069SOL     OW32041   0.129   4.813   0.744 -0.2894 -0.4166  0.4824
 8069SOL    HW232042   0.053   4.830   0.689 -0.2925  2.3321  1.2162
 8069SOL    HW332043   0.097   4.750   0.809 -1.2744 -0.9625 -0.4894
 8069SOL    MW432044   0.115   4.807   0.745  0.0495 -0.1054 -0.2553
 8070SOL     OW32045   4.177   2.452   4.014  0.2595  0.2915 -0.2822
 8070SOL    HW232046   4.222   2.416   3.937  0.6345  0.3635 -0.1014
 8070SOL    HW332047   4.106   2.505   3.977  0.4285  0.3136 -0.5819
 8070SOL    MW432048   4.174   2.455   3.999 -0.1388  0.1341  0.4546
 8071SOL     OW32049   6.243   6.220   4.666 -0.2177  0.2700  0.0346
 8071SOL    HW232050   6.201   6.137   4.689 -0.3533  0.7492  1.7020
 8071SOL    HW332051   6.210   6.241   4.579 -1.0120 -0.9081  0.0287
 8071SOL    MW432052   6.233   6.212   4.658 -0.5811 -0.2931  0.0029
 8072SOL     OW32053   5.919   2.279   2.103 -0.4806 -0.3185 -0.2052
 8072SOL    HW232054   5.905   2.280   2.198  0.4534 -0.1568 -0.0595
 8072SOL    HW332055   5.939   2.188   2.083  2.1387  0.0837  0.2204
 8072SOL    MW432056   5.920   2.267   2.113 -0.6223  0.3206  0.2430
 8073SOL     OW32057   6.352   5.109   0.454 -0.5652 -0.3251  0.2599
 8073SOL    HW232058   6.292   5.062   0.397 -0.1010  0.0086 -0.5331
 8073SOL    HW332059   6.414   5.150   0.393  0.5628 -0.8037  1.0580
 8073SOL    MW432060   6.352   5.108   0.438  0.1080 -0.1143 -0.2565
 8074SOL     OW32061   5.751   2.358   1.900  0.4465 -0.0183 -0.0333
 8074SOL    HW232062   5.762   2.292   1.831  0.0099 -0.7767  0.5955
 8074SOL    HW332063   5.817   2.335   1.965  1.9325  1.6472 -0.8665
 8074SOL    MW432064   5.761   2.346   1.899  0.4201  0.0633 -0.2125
 8075SOL     OW32065   1.175   3.386   2.815 -0.4242 -0.1316  0.4741
 8075SOL    HW232066   1.195   3.363   2.724  0.0109 -0.7415  0.7172
 8075SOL    HW332067   1.219   3.469   2.829  1.1563 -0.9713  0.6996
 8075SOL    MW432068   1.183   3.394   2.805 -0.2147 -0.1047 -0.8292
 8076SOL     OW32069   2.576   4.505   0.838  0.1795  0.3878 -0.2839
 8076SOL    HW232070   2.616   4.542   0.760 -0.8691  1.2265 -0.4502
 8076SOL    HW332071   2.647   4.459   0.883  1.0013  0.7109 -1.2333
 8076SOL    MW432072   2.590   4.504   0.834  0.6694  0.2989 -0.9068
 8077SOL     OW32073   3.460   4.518   5.899 -0.1351  0.0923  0.2233
 8077SOL    HW232074   3.453   4.540   5.992 -0.4413  1.2375 -0.0559
 8077SOL    HW332075   3.546   4.551   5.873 -0.6751  1.1912 -0.2432
 8077SOL    MW432076   3.470   4.525   5.908 -0.3745 -0.2112 -0.2249
 8078SOL     OW32077   0.138   5.628   2.891 -0.7012 -0.3162 -0.3632
 8078SOL    HW232078   0.076   5.670   2.831 -0.4359  1.0875  0.3035
 8078SOL    HW332079   0.203   5.696   2.908 -0.1023 -1.1098  0.5402
 8078SOL    MW432080   0.138   5.643   2.885 -0.4995 -0.2540  0.0947
 8079SOL     OW32081   5.251   5.425   5.708 -0.5257  0.3008  0.1314
 8079SOL    HW232082   5.178   5.415   5.646 -1.0555  0.1582  0.7606
 8079SOL    HW332083   5.227   5.502   5.760 -0.3679  0.0817  0.5296
 8079SOL    MW432084   5.238   5.434   5.707  0.7379  0.3637  0.3623
 8080SOL     OW32085   3.019   4.141   2.086 -0.4510 -0.1360 -0.3146
 8080SOL    HW232086   3.068   4.084   2.144 -1.7115  0.7833  1.7707
 8080SOL    HW332087   2.947   4.087   2.054  1.2191 -1.1780 -2.5650
 8080SOL    MW432088   3.016   4.127   2.089  0.5404  0.2355  0.6129
 8081SOL     OW32089   3.207   1.384   1.053 -0.0010  0.8243  0.1749
 8081SOL    HW232090   3.161   1.442   1.114  1.2665  2.9981 -0.8179
 8081SOL    HW332091   3.173   1.407   0.967  1.3666  0.9805 -0.3599
 8081SOL    MW432092   3.197   1.395   1.050  0.1012 -0.3087  0.3868
 8082SOL     OW32093   0.641   2.279   0.384 -0.2557  0.5420 -0.2170
 8082SOL    HW232094   0.562   2.240   0.347 -0.1480  0.8772 -0.8170
 8082SOL    HW332095   0.688   2.314   0.308  1.9162 -2.1751 -0.2806
 8082SOL    MW432096   0.637   2.278   0.369  0.2608 -0.0073 -0.1396
 8083SOL     OW32097   5.690   1.942   0.559 -0.2205  0.0607 -0.2552
 8083SOL    HW232098   5.762   1.950   0.621  0.6001  2.2648 -1.3935
 8083SOL    HW332099   5.713   1.866   0.505  0.0811 -0.6182  0.7953
 8083SOL    MW432100   5.702   1.933   0.560  0.4515  0.2520 -0.8585
 8084SOL     OW32101   0.969   6.140   5.243  0.1033  0.0237  0.1559
 8084SOL    HW232102   0.949   6.233   5.244  0.9589  0.2205 -0.1349
 8084SOL    HW332103   0.925   6.107   5.164 -0.3214  0.1416  0.3382
 8084SOL    MW432104   0.960   6.148   5.233 -0.1940 -0.2659 -0.5323
 8085SOL     OW32105   1.200   5.621   3.074  0.2307  0.1879  0.2638
 8085SOL    HW232106   1.144   5.678   3.126 -0.0629 -0.0575  0.2153
 8085SOL    HW332107   1.256   5.577   3.139  0.5106  0.5815  0.2960
 8085SOL    MW432108   1.200   5.623   3.090  0.0437  0.2814 -0.1213
 8086SOL     OW32109   4.628   6.058   3.721 -0.2132 -0.4064  0.4819
 8086SOL    HW232110   4.696   5.991   3.707 -0.4567 -1.0285  2.0071
 8086SOL    HW332111   4.664   6.114   3.790 -0.6186  0.1735  0.2271
 8086SOL    MW432112   4.642   6.056   3.728 -0.3350  0.1440 -0.8748
 8087SOL     OW32113   0.596   6.055   4.577  0.4063  0.3926  0.1604
 8087SOL    HW232114   0.620   6.137   4.535 -0.1205 -0.1328 -1.2252
 8087SOL    HW332115   0.623   6.066   4.668  2.4221  1.2282 -0.4921
 8087SOL    MW432116   0.603   6.067   4.583  0.8413  0.3231 -0.5327
 8088SOL     OW32117   2.859   4.838   1.461 -0.5165 -0.1684 -0.5374
 8088SOL    HW232118   2.791   4.901   1.439 -1.1982 -0.7912 -0.2633
 8088SOL    HW332119   2.844   4.765   1.400 -0.8688 -0.8314  0.3257
 8088SOL    MW432120   2.848   4.836   1.450 -0.2496  0.4931  0.1713
 8089SOL     OW32121   3.538   5.822   6.337 -0.2782  0.1357  0.4280
 8089SOL    HW232122   3.615   5.867   6.303  0.4396 -0.2852  1.4500
 8089SOL    HW332123   3.497   5.784   6.259 -1.2259  2.9284 -0.5592
 8089SOL    MW432124   3.543   5.823   6.322 -0.1104  0.0908  0.1996
 8090SOL     OW32125   4.329   4.352   2.806 -0.1729  0.5931  0.1228
 8090SOL    HW232126   4.339   4.392   2.720  0.5888 -1.1085 -0.6145
 8090SOL    HW332127   4.234   4.338   2.814 -0.1665 -0.0631 -0.8335
 8090SOL    MW432128   4.318   4.356   2.796 -0.7922  0.4079  0.0046
 8091SOL     OW32129   3.086   2.512   3.439  0.5970 -0.4587  0.4888
 8091SOL    HW232130   3.055   2.553   3.519  2.0026  0.4937  0.5881
 8091SOL    HW332131   3.177   2.486   3.459  1.3618  0.7993 -1.1153
 8091SOL    MW432132   3.094   2.514   3.452 -0.1400 -0.2515 -1.1009
 8092SOL     OW32133   1.812   2.840   6.299 -0.3267  0.3697  0.1535
 8092SOL    HW232134   1.733   2.815   6.251 -2.3397  1.0354  2.8662
 8092SOL    HW332135   1.866   2.761   6.299 -0.9643 -0.1224 -1.7421
 8092SOL    MW432136   1.808   2.826   6.293 -0.2110  0.1527 -0.3901
 8093SOL     OW32137   0.027   3.496   5.177  0.7008  0.0585 -0.6222
 8093SOL    HW232138  -0.007   3.430   5.117 -0.5614  0.2410 -0.1318
 8093SOL    HW332139  -0.044   3.561   5.185  1.3431  0.7021  0.0558
 8093SOL    MW432140   0.013   3.496   5.170 -0.9543  1.0124  1.0360
 8094SOL     OW32141   1.221   4.816   4.091 -0.2192 -0.2181  0.8628
 8094SOL    HW232142   1.187   4.898   4.056  0.2417  0.6043  2.2794
 8094SOL    HW332143   1.144   4.759   4.098 -0.3390 -0.4460 -1.4139
 8094SOL    MW432144   1.206   4.819   4.087  0.0269 -0.4530 -0.4297
 8095SOL     OW32145   0.965   5.397   3.019  0.0017 -0.1893 -0.3298
 8095SOL    HW232146   0.884   5.415   3.067 -0.1891  0.1484 -0.7745
 8095SOL    HW332147   1.023   5.470   3.042  0.1735 -0.4180 -0.0302
 8095SOL    MW432148   0.962   5.409   3.029  0.1387  0.0437 -0.4272
 8096SOL     OW32149   0.362   0.578   1.666  0.0660 -0.3716  0.0193
 8096SOL    HW232150   0.284   0.559   1.719 -0.2100 -0.6596 -0.4776
 8096SOL    HW332151   0.428   0.606   1.729 -0.5471  0.2203  0.4107
 8096SOL    MW432152   0.360   0.579   1.681  0.0311  0.1899  0.1096
 8097SOL     OW32153   3.485  -0.005   0.640  0.5821 -0.7751  0.6258
 8097SOL    HW232154   3.549  -0.075   0.630  1.0201 -0.4454  1.1005
 8097SOL    HW332155   3.536   0.071   0.666  0.1333 -0.2227 -0.0923
 8097SOL    MW432156   3.500  -0.004   0.642  0.2147  0.3719 -0.4114
 8098SOL     OW32157   0.298   3.629   4.625  0.2271  0.6803  0.2237
 8098SOL    HW232158   0.393   3.629   4.638  0.0588 -1.1057  1.9902
 8098SOL    HW332159   0.285   3.586   4.541  0.9667 -0.6202  0.7467
 8098SOL    MW432160   0.309   3.623   4.616 -0.0195 -0.4097 -0.2521
 8099SOL     OW32161   6.126   2.213   3.459 -0.3141  0.0573  0.1195
 8099SOL    HW232162   6.217   2.184   3.462 -0.1015  0.7550  1.6805
 8099SOL    HW332163   6.090   2.172   3.381  1.6491  0.6875 -1.2177
 8099SOL    MW432164   6.134   2.204   3.449  0.2709  0.1913 -0.1721
 8100SOL     OW32165   0.794   2.815   4.749 -0.9380 -0.2524 -0.2431
 8100SOL    HW232166   0.882   2.780   4.758 -0.7928 -0.0169 -0.7318
 8100SOL    HW332167   0.770   2.843   4.838 -0.0541  0.7781 -0.3040
 8100SOL    MW432168   0.802   2.814   4.762  0.1847  0.3077  0.2983
 8101SOL     OW32169   4.209   2.669   2.728  0.6094 -0.1662  0.6796
 8101SOL    HW232170   4.266   2.739   2.697  1.8291 -1.6934 -0.6923
 8101SOL    HW332171   4.269   2.602   2.761 -0.4942 -0.8844  1.2904
 8101SOL    MW432172   4.224   2.670   2.728  0.6825  0.0517 -0.2038
 8102SOL     OW32173   0.530   3.967   5.409 -0.0720 -0.4216 -0.1715
 8102SOL    HW232174   0.518   3.985   5.502  1.1492 -1.6680  0.2639
 8102SOL    HW332175   0.540   3.872   5.404  1.1930 -0.2529 -1.4102
 8102SOL    MW432176   0.530   3.957   5.421 -0.0789 -0.4620  0.3601
 8103SOL     OW32177   0.361   1.150   2.064  0.4129 -0.2248 -0.1153
 8103SOL    HW232178   0.448   1.129   2.029  1.4256  2.2691  0.6574
 8103SOL    HW332179   0.351   1.091   2.139  1.1208 -0.9891 -0.5948
 8103SOL    MW432180   0.371   1.139   2.069  0.0079  0.7134  0.5240
 8104SOL     OW32181   1.202   5.257   6.430  0.3850 -0.2936  0.5386
 8104SOL    HW232182   1.293   5.244   6.458  0.6469 -1.0743 -0.6276
 8104SOL    HW332183   1.206   5.328   6.366  0.1776 -0.3774  0.4314
 8104SOL    MW432184   1.215   5.265   6.425  0.3994  0.0784 -0.1431
 8105SOL     OW32185   2.829   0.680   3.860 -0.3789  0.5346  0.0099
 8105SOL    HW232186   2.848   0.593   3.896 -0.5943 -0.5275 -2.3064
 8105SOL    HW332187   2.857   0.676   3.769  0.1530  3.1251 -0.0192
 8105SOL    MW432188   2.835   0.668   3.853 -0.1433 -0.1263 -0.1853
 8106SOL     OW32189   5.724   2.472   0.741 -0.2757  0.4127 -0.3074
 8106SOL    HW232190   5.792   2.419   0.700 -1.5563 -1.2642 -0.3953
 8106SOL    HW332191   5.768   2.552   0.769  1.4198 -0.0354 -1.5620
 8106SOL    MW432192   5.739   2.476   0.739  0.1780  0.1017  0.3759
 8107SOL     OW32193   2.954   0.345   0.949  0.1003  0.1932  0.0610
 8107SOL    HW232194   2.862   0.371   0.949 -0.0283 -0.1968 -0.8411
 8107SOL    HW332195   2.969   0.309   1.036 -0.8481 -0.5298 -0.0440
 8107SOL    MW432196   2.944   0.343   0.960  0.1435 -0.2453  0.0473
 8108SOL     OW32197   5.166   3.563   0.875 -0.0868  0.3300 -0.2763
 8108SOL    HW232198   5.208   3.498   0.819  1.5088  0.0023  1.2261
 8108SOL    HW332199   5.085   3.521   0.904 -0.7645  0.3740 -2.0054
 8108SOL    MW432200   5.160   3.549   0.871 -0.1442  0.4400 -0.1275
 8109SOL     OW32201   0.677   3.920   2.138  0.6131 -0.1502 -0.1034
 8109SOL    HW232202   0.734   3.943   2.211  0.7341 -1.7056  0.3255
 8109SOL    HW332203   0.619   3.853   2.172 -0.1521 -0.0310 -1.1080
 8109SOL    MW432204   0.677   3.915   2.152  0.4268 -0.1245 -0.2223
 8110SOL     OW32205   3.579   4.163   6.314 -0.0031 -0.1104 -0.1553
 8110SOL    HW232206   3.508   4.107   6.283 -1.8956  2.3957 -0.7046
 8110SOL    HW332207   3.615   4.202   6.234  0.8153 -0.0026  0.2543
 8110SOL    MW432208   3.574   4.161   6.299 -0.2006 -0.0707  0.5748
 8111SOL     OW32209   5.101   5.821   2.658 -0.3090 -0.0659  0.4450
 8111SOL    HW232210   5.164   5.767   2.609 -0.2365  0.2431  0.1976
 8111SOL    HW332211   5.142   5.907   2.663 -1.0617  0.3615 -0.4260
 8111SOL    MW432212   5.114   5.825   2.652 -0.9682  0.5911 -0.5626
 8112SOL     OW32213   5.341   1.485   0.813 -0.0766 -0.7826  0.2093
 8112SOL    HW232214   5.303   1.420   0.755  1.4591 -0.0713 -1.6744
 8112SOL    HW332215   5.435   1.470   0.809  0.3923  1.8596 -0.7659
 8112SOL    MW432216   5.348   1.474   0.805 -0.2751  0.2264 -0.1341
 8113SOL     OW32217   1.080   1.351   5.439  0.0224  0.4894 -0.2847
 8113SOL    HW232218   0.991   1.316   5.446  0.2647  0.0462  0.6500
 8113SOL    HW332219   1.106   1.332   5.349  0.3040 -2.1855  0.2687
 8113SOL    MW432220   1.072   1.344   5.428  0.1061 -0.2968  0.7654
 8114SOL     OW32221   5.056   4.305   5.767 -0.6231 -0.3746 -0.0231
 8114SOL    HW232222   5.021   4.358   5.696  0.1844  0.8451  0.4520
 8114SOL    HW332223   5.039   4.215   5.740  0.3237  0.0153 -2.0989
 8114SOL    MW432224   5.049   4.300   5.754 -0.3071 -0.7774  0.1643
 8115SOL     OW32225   0.126   5.715   0.482  0.1530  0.6709 -0.0223
 8115SOL    HW232226   0.201   5.694   0.538  0.3714  0.0960 -0.5257
 8115SOL    HW332227   0.057   5.655   0.510 -0.8115  2.4977  1.8016
 8115SOL    MW432228   0.127   5.704   0.493 -0.2726 -0.2798 -0.2042
 8116SOL     OW32229   1.693   1.477   1.750 -0.5253 -0.1880 -0.1271
 8116SOL    HW232230   1.752   1.547   1.777  0.7709 -2.1225  2.6124
 8116SOL    HW332231   1.751   1.401   1.739 -2.2779 -1.8337  1.3026
 8116SOL    MW432232   1.709   1.476   1.753  0.1236 -1.1159 -0.3021
 8117SOL     OW32233   3.265   4.734   3.649  0.1463 -0.0636  0.0345
 8117SOL    HW232234   3.252   4.828   3.655 -0.3535 -0.0846 -0.5991
 8117SOL    HW332235   3.359   4.722   3.658  0.0306  0.2717  2.7266
 8117SOL    MW432236   3.275   4.745   3.651 -0.4938  0.6985 -0.0391
 8118SOL     OW32237   0.467   1.699   2.978 -0.0872  0.4791 -0.7318
 8118SOL    HW232238   0.469   1.721   3.072 -1.3357 -0.7162 -0.3933
 8118SOL    HW332239   0.437   1.608   2.976  0.6930  0.2268 -2.2734
 8118SOL    MW432240   0.464   1.690   2.990 -0.2526  0.3164 -0.2259
 8119SOL     OW32241   0.058   3.808   4.715  0.0571  0.3612  0.3854
 8119SOL    HW232242   0.090   3.719   4.726  2.8552  1.2779  0.3056
 8119SOL    HW332243  -0.029   3.797   4.676  1.0153 -2.3187 -1.2690
 8119SOL    MW432244   0.050   3.795   4.711  0.2490 -0.3474  0.4815
 8120SOL     OW32245   1.024  -0.027   1.883 -0.4350  0.2961  0.3674
 8120SOL    HW232246   1.040   0.067   1.884  0.9812  0.0853  0.6761
 8120SOL    HW332247   1.014  -0.051   1.975 -1.8301  0.2862  0.2264
 8120SOL    MW432248   1.025  -0.018   1.895 -0.6826  0.1495 -0.5452
 8121SOL     OW32249   5.368   1.907   2.672 -0.2704  0.4815  0.5698
 8121SOL    HW232250   5.307   1.883   2.603 -0.7377  1.0048  0.7890
 8121SOL    HW332251   5.391   1.825   2.714 -1.2193  0.3318  0.8033
 8121SOL    MW432252   5.363   1.893   2.669  0.1430 -0.1170 -0.0098
 8122SOL     OW32253   5.926   4.724   5.314 -0.1924  0.0109  0.4129
 8122SOL    HW232254   5.869   4.784   5.267 -1.3815 -1.3567  0.0231
 8122SOL    HW332255   5.928   4.757   5.404  0.4663  1.4914 -0.1210
 8122SOL    MW432256   5.919   4.736   5.320  0.0769  0.4892  0.2967
 8123SOL     OW32257   4.819   5.864   3.586  0.1269 -0.5293 -0.2740
 8123SOL    HW232258   4.727   5.849   3.565  0.2839 -2.5834  0.2471
 8123SOL    HW332259   4.867   5.831   3.509  0.4431  2.0467 -1.2721
 8123SOL    MW432260   4.813   5.858   3.573  0.7673  0.5629 -0.7387
 8124SOL     OW32261   3.238   5.929   4.890 -0.2412  0.9666 -0.7636
 8124SOL    HW232262   3.154   5.890   4.913 -0.0667  0.3597 -1.1267
 8124SOL    HW332263   3.221   5.975   4.808 -0.9657  3.4838  0.7040
 8124SOL    MW432264   3.225   5.930   4.882  0.2975  0.3096 -0.3882
 8125SOL     OW32265   5.642   5.534   2.661  0.0456 -0.5462 -0.1586
 8125SOL    HW232266   5.699   5.466   2.697  0.7451  0.6612  1.1117
 8125SOL    HW332267   5.676   5.615   2.698 -2.5132  0.2365  0.6845
 8125SOL    MW432268   5.654   5.536   2.671 -0.0346 -0.6107 -0.1617
 8126SOL     OW32269   3.698   3.414   2.004  0.8112 -0.0571  0.2472
 8126SOL    HW232270   3.663   3.480   2.063 -1.5286 -2.2947  1.5800
 8126SOL    HW332271   3.663   3.438   1.918  2.3672  1.9464  0.0997
 8126SOL    MW432272   3.689   3.426   2.000 -0.0173 -0.1137  0.0778
 8127SOL     OW32273   3.938   4.907   2.783  0.2359 -0.3049 -0.1306
 8127SOL    HW232274   4.003   4.928   2.716  1.6652  0.7958  1.5096
 8127SOL    HW332275   3.978   4.837   2.835  1.2417  1.8346  2.2383
 8127SOL    MW432276   3.952   4.900   2.781  0.3334  0.0472  0.4343
 8128SOL     OW32277   3.908   0.289   2.484  0.4793  0.4527 -0.0689
 8128SOL    HW232278   3.835   0.347   2.509 -0.4072 -0.7957  0.3182
 8128SOL    HW332279   3.937   0.250   2.567 -0.7055 -1.6782 -0.5893
 8128SOL    MW432280   3.902   0.292   2.499 -0.0650  0.1691 -0.2821
 8129SOL     OW32281   4.124   1.060   1.373 -0.1751 -0.7643  0.1268
 8129SOL    HW232282   4.120   1.156   1.376  2.1418 -0.6276  1.3751
 8129SOL    HW332283   4.107   1.032   1.463  3.3141 -1.1488  0.8359
 8129SOL    MW432284   4.121   1.069   1.385  0.2529  0.3996 -0.4074
 8130SOL     OW32285   2.697   3.983   5.954  0.2917  0.4265  0.6139
 8130SOL    HW232286   2.738   3.923   6.016 -0.0544  1.2900  1.7089
 8130SOL    HW332287   2.604   3.962   5.957  0.3448  0.0688 -0.0761
 8130SOL    MW432288   2.690   3.973   5.963 -0.4454 -1.1031  0.5565
 8131SOL     OW32289   2.482   1.334   2.234 -0.4721  0.0262  0.1962
 8131SOL    HW232290   2.495   1.402   2.301 -0.7236 -1.6146  2.0018
 8131SOL    HW332291   2.548   1.353   2.168  0.3918  1.2177  1.3512
 8131SOL    MW432292   2.493   1.345   2.234  0.6273 -0.0318 -0.1250
 8132SOL     OW32293   3.920   4.259   4.903 -0.8967  0.1772  0.4266
 8132SOL    HW232294   3.856   4.241   4.972  0.1391  0.7002  1.5582
 8132SOL    HW332295   3.999   4.212   4.931 -0.5716  0.0778 -0.6131
 8132SOL    MW432296   3.922   4.250   4.915  0.2770  0.6134 -0.0890
 8133SOL     OW32297   0.658   0.247   5.298  0.2095 -0.3606  0.3206
 8133SOL    HW232298   0.675   0.175   5.237  2.8008  1.2319 -1.0313
 8133SOL    HW332299   0.568   0.234   5.325  0.2716 -3.5801 -0.5360
 8133SOL    MW432300   0.649   0.236   5.293 -0.1904 -0.3158 -0.0959
 8134SOL     OW32301   1.450   4.141   2.934  0.0248 -0.2620  0.2256
 8134SOL    HW232302   1.544   4.148   2.955  0.6782  1.0657 -2.6052
 8134SOL    HW332303   1.422   4.231   2.921 -0.9116 -0.7624 -1.6087
 8134SOL    MW432304   1.459   4.153   2.935 -0.0416  0.4614 -0.4170
 8135SOL     OW32305   3.521   0.992   1.054 -0.2163  0.8069  0.1229
 8135SOL    HW232306   3.587   0.947   1.106  0.5920  0.3894 -1.2189
 8135SOL    HW332307   3.493   1.065   1.109  1.2658  0.9199  0.7752
 8135SOL    MW432308   3.526   0.996   1.068 -0.8341  0.5151 -0.1305
 8136SOL     OW32309   4.929  -0.025   1.895  1.1448  0.3121 -0.2607
 8136SOL    HW232310   4.865   0.032   1.936  0.3051  0.6367 -1.9413
 8136SOL    HW332311   5.010   0.026   1.892  1.2632  0.2253  1.0634
 8136SOL    MW432312   4.932  -0.011   1.900 -0.5424  0.1014  0.2226
 8137SOL     OW32313   5.021   3.225   4.966  0.7675  0.2716 -0.1425
 8137SOL    HW232314   5.029   3.191   4.876  0.0851  0.1150 -0.1460
 8137SOL    HW332315   5.106   3.265   4.983  1.5777 -1.3262 -0.1883
 8137SOL    MW432316   5.033   3.226   4.956  0.4783  0.4678 -0.3304
 8138SOL     OW32317   3.786   5.421   5.567 -0.5670  0.0385  0.0547
 8138SOL    HW232318   3.839   5.498   5.549  1.3345 -1.3821 -0.8293
 8138SOL    HW332319   3.805   5.400   5.659  0.0272 -0.1880 -0.1196
 8138SOL    MW432320   3.795   5.428   5.577  0.2470  0.0816  0.4551
 8139SOL     OW32321   6.123   5.696   2.146 -0.4567 -0.4901  0.0921
 8139SOL    HW232322   6.165   5.658   2.069 -1.3852 -1.1811 -0.0972
 8139SOL    HW332323   6.091   5.621   2.195 -1.2400 -0.0008  0.3506
 8139SOL    MW432324   6.124   5.681   2.142 -0.0084 -0.4233 -0.3457
 8140SOL     OW32325   6.271   0.599   2.700 -0.3673  0.0758 -0.1219
 8140SOL    HW232326   6.348   0.636   2.742 -1.2637  1.1855  0.5920
 8140SOL    HW332327   6.274   0.506   2.722  0.6072  0.1561  0.1331
 8140SOL    MW432328   6.281   0.592   2.708 -0.5405 -0.2515 -0.0439
 8141SOL     OW32329   0.398   1.424   3.044  0.0403  0.2284 -0.2714
 8141SOL    HW232330   0.464   1.365   3.006  1.3800  0.9304  0.8766
 8141SOL    HW332331   0.373   1.381   3.126  0.6901  1.0020  0.3484
 8141SOL    MW432332   0.404   1.410   3.050  0.3980 -0.0192 -0.3098
 8142SOL     OW32333   3.085   5.992   0.040  0.1937  0.2972 -0.1080
 8142SOL    HW232334   3.141   5.957  -0.029 -0.1559  0.8748 -0.6949
 8142SOL    HW332335   3.071   5.918   0.099 -0.6856 -0.6279 -1.4286
 8142SOL    MW432336   3.091   5.977   0.038 -0.5693 -0.4721 -0.5132
 8143SOL     OW32337   0.662   1.084   3.653  0.1406 -0.2628  0.3166
 8143SOL    HW232338   0.578   1.038   3.643  1.0538 -2.1361  0.8174
 8143SOL    HW332339   0.686   1.070   3.744  0.9751  0.3176  0.1904
 8143SOL    MW432340   0.654   1.076   3.664 -0.1327 -0.4817  0.1458
 8144SOL     OW32341   2.608   0.659   0.886  0.3599  0.4078  0.3348
 8144SOL    HW232342   2.601   0.653   0.790 -0.1975  0.3545  0.3739
 8144SOL    HW332343   2.520   0.637   0.917  0.7797 -0.4720  0.9075
 8144SOL    MW432344   2.595   0.655   0.877 -0.3543 -1.0646 -0.0733
 8145SOL     OW32345   0.993   5.037   2.008  0.5611 -0.4187  0.3265
 8145SOL    HW232346   0.956   5.021   1.921 -1.8073  0.2436  1.1400
 8145SOL    HW332347   0.964   4.963   2.061 -0.7166  0.7282  1.2930
 8145SOL    MW432348   0.985   5.026   2.004 -0.1476  0.2924 -0.2657
 8146SOL     OW32349   2.760   5.956   5.803 -0.2208 -0.1143 -0.8817
 8146SOL    HW232350   2.819   5.911   5.864 -1.7783  0.3887  1.0819
 8146SOL    HW332351   2.690   5.893   5.787 -1.4354  0.8331  0.4035
 8146SOL    MW432352   2.759   5.942   5.809 -0.2369 -0.3777  0.2894
 8147SOL     OW32353   4.336   1.215   0.549 -0.4335  0.3455  0.7412
 8147SOL    HW232354   4.248   1.239   0.522 -0.2299  0.0359 -0.2176
 8147SOL    HW332355   4.346   1.123   0.523  0.4879  0.6372  0.0036
 8147SOL    MW432356   4.326   1.206   0.542  0.1706  0.2235  0.2256
 8148SOL     OW32357   5.269  -0.017   4.396  1.1556  0.0224  0.3178
 8148SOL    HW232358   5.175  -0.036   4.388  1.4726 -1.9498  0.6870
 8148SOL    HW332359   5.297   0.003   4.307  0.5897 -0.4417  0.0278
 8148SOL    MW432360   5.260  -0.017   4.383  0.0098  0.6226 -0.2440
 8149SOL     OW32361   4.660   2.188   1.343 -0.0621  0.6792  0.1703
 8149SOL    HW232362   4.582   2.220   1.389  0.3734 -0.3820  1.7126
 8149SOL    HW332363   4.720   2.263   1.344 -0.7102  1.2212 -0.2331
 8149SOL    MW432364   4.658   2.202   1.349  0.4365  0.2208  0.1700
 8150SOL     OW32365   0.994   2.084   2.476 -0.4154 -0.0616 -0.0445
 8150SOL    HW232366   0.994   2.067   2.570 -0.4940  0.3950  0.0418
 8150SOL    HW332367   1.027   2.174   2.468  0.7283 -0.5091 -0.5323
 8150SOL    MW432368   0.998   2.094   2.487 -0.3801 -0.2111 -0.1478
 8151SOL     OW32369   5.646   0.401   5.534 -0.1000 -0.0965  0.0301
 8151SOL    HW232370   5.619   0.378   5.445  0.0333 -0.2924  0.0420
 8151SOL    HW332371   5.614   0.329   5.589  1.5528 -0.9971 -0.1155
 8151SOL    MW432372   5.638   0.389   5.530 -0.0314  0.4813  0.8161
 8152SOL     OW32373   1.126   4.279   3.799  0.5874 -0.2703  0.0683
 8152SOL    HW232374   1.038   4.256   3.830 -0.1112  2.5930  0.5412
 8152SOL    HW332375   1.183   4.211   3.835 -1.2102 -1.2460  1.2316
 8152SOL    MW432376   1.122   4.267   3.808  0.1911  0.1938 -0.0800
 8153SOL     OW32377   3.098   3.405   5.324 -0.3734 -0.5416 -0.4575
 8153SOL    HW232378   3.132   3.483   5.280  1.6076  0.3927  2.4225
 8153SOL    HW332379   3.025   3.438   5.377 -0.4684 -0.9422 -0.3388
 8153SOL    MW432380   3.093   3.420   5.325 -0.8397 -0.2626 -0.8160
 8154SOL     OW32381   3.757   2.509   2.668 -0.4046 -0.1959 -0.1143
 8154SOL    HW232382   3.679   2.536   2.619 -0.2154 -0.6335 -0.6633
 8154SOL    HW332383   3.822   2.487   2.600  0.1136 -0.0802  0.3356
 8154SOL    MW432384   3.755   2.510   2.652 -0.9761 -0.1144  0.2627
 8155SOL     OW32385   4.148   2.944   3.681  0.0715 -0.3810 -0.4543
 8155SOL    HW232386   4.149   2.939   3.585  1.8908 -2.8711 -0.3893
 8155SOL    HW332387   4.055   2.952   3.703 -0.5417 -1.5785 -2.3758
 8155SOL    MW432388   4.136   2.945   3.671  0.8451  0.3297 -0.0546
 8156SOL     OW32389   3.419   3.635   3.508  0.0994  0.0576  0.6513
 8156SOL    HW232390   3.468   3.553   3.500 -1.2700 -0.6705 -1.1424
 8156SOL    HW332391   3.428   3.660   3.600  1.3570 -1.5778  1.0241
 8156SOL    MW432392   3.426   3.628   3.519 -0.0904 -0.0044 -0.0381
 8157SOL     OW32393   3.190   0.497   1.211  0.0412 -0.2732 -0.5933
 8157SOL    HW232394   3.122   0.430   1.210 -0.5003 -0.1386  4.3696
 8157SOL    HW332395   3.142   0.580   1.204 -0.0149 -0.2600 -0.0883
 8157SOL    MW432396   3.174   0.499   1.210  0.3661 -0.0080 -0.4290
 8158SOL     OW32397   4.149   5.624   6.228 -0.5709 -0.0979  0.4727
 8158SOL    HW232398   4.109   5.600   6.144 -1.0682 -0.4252  0.8010
 8158SOL    HW332399   4.119   5.714   6.243 -1.3564 -0.4037  0.8072
 8158SOL    MW432400   4.140   5.633   6.219 -0.1291 -0.4432  0.4432
 8159SOL     OW32401   5.287   2.217   4.572 -0.7302  0.4589  0.2747
 8159SOL    HW232402   5.324   2.281   4.633  1.3886  0.2196 -0.6716
 8159SOL    HW332403   5.310   2.132   4.610  0.6279  0.3068 -0.8277
 8159SOL    MW432404   5.295   2.214   4.585 -0.2273  0.2952  0.4463
 8160SOL     OW32405   5.611   2.016   1.998  0.1266 -0.2392 -0.5154
 8160SOL    HW232406   5.677   2.019   1.928  1.5593  0.8430  0.8200
 8160SOL    HW332407   5.660   1.992   2.076 -1.4017 -1.1282  0.2300
 8160SOL    MW432408   5.626   2.013   1.999  0.1654 -0.7927 -0.0605
 8161SOL     OW32409   5.596   5.448   1.364  0.3503  0.3924 -0.2198
 8161SOL    HW232410   5.649   5.375   1.396 -0.2566  0.0237 -0.0448
 8161SOL    HW332411   5.575   5.426   1.274 -0.0584  0.2146 -0.0847
 8161SOL    MW432412   5.600   5.436   1.357  0.7271 -0.2009 -0.3463
 8162SOL     OW32413   3.581   6.052   4.969  0.1268 -0.0649  0.0503
 8162SOL    HW232414   3.551   5.961   4.975 -1.2550  0.4712  2.2161
 8162SOL    HW332415   3.565   6.088   5.056  2.7169  1.6639 -0.0939
 8162SOL    MW432416   3.575   6.045   4.981 -0.2069 -0.4513  0.8065
 8163SOL     OW32417   2.561   5.513   0.092  0.2133  0.6323  0.0276
 8163SOL    HW232418   2.507   5.440   0.062  0.0019  0.7634  0.0836
 8163SOL    HW332419   2.553   5.578   0.022 -0.8113  1.2079  0.6414
 8163SOL    MW432420   2.552   5.512   0.079 -0.3550 -0.7660 -0.6328
 8164SOL     OW32421   2.362   1.950   0.549 -0.3555 -0.0872 -0.0753
 8164SOL    HW232422   2.438   1.915   0.594  0.1736  2.2136  0.9818
 8164SOL    HW332423   2.334   2.024   0.603 -4.0258 -1.4290  0.1442
 8164SOL    MW432424   2.369   1.955   0.562  0.8254  0.1150  0.1290
 8165SOL     OW32425   2.662   3.638   2.622 -0.2344  0.3742 -0.6242
 8165SOL    HW232426   2.664   3.677   2.709  0.2645 -0.2622 -0.3434
 8165SOL    HW332427   2.682   3.711   2.562  1.2119  0.4653 -0.0728
 8165SOL    MW432428   2.665   3.653   2.625 -0.6991 -0.4741 -0.9815
 8166SOL     OW32429   4.951   3.718   0.747 -0.0675 -0.1058 -0.0502
 8166SOL    HW232430   5.029   3.685   0.791 -0.2633  0.1073  0.4658
 8166SOL    HW332431   4.889   3.645   0.748 -0.3164  0.1061  0.6379
 8166SOL    MW432432   4.953   3.704   0.753  0.0814  0.5862 -0.4371
 8167SOL     OW32433   2.109   1.575   2.876  0.1599  0.3473  0.3273
 8167SOL    HW232434   2.093   1.517   2.951  1.5351  1.5097  1.5858
 8167SOL    HW332435   2.024   1.583   2.833 -0.4897 -0.9718  1.2978
 8167SOL    MW432436   2.096   1.568   2.880  0.0237  0.4484  0.5818
 8168SOL     OW32437   3.166   0.723   2.781  0.1333 -0.1210  0.8294
 8168SOL    HW232438   3.190   0.632   2.767  0.1427 -0.3571  2.1938
 8168SOL    HW332439   3.092   0.719   2.842 -2.1963  0.6622 -1.7549
 8168SOL    MW432440   3.159   0.710   2.787  0.4857  0.3539  0.1198
 8169SOL     OW32441   0.527   5.665   1.853 -0.1281  0.1919 -0.3965
 8169SOL    HW232442   0.521   5.586   1.800  1.5433 -0.3371  0.1395
 8169SOL    HW332443   0.449   5.662   1.909 -0.8747 -0.2647 -1.4338
 8169SOL    MW432444   0.516   5.654   1.854 -0.4720  0.9958 -0.7306
 8170SOL     OW32445   2.598   5.896   4.489 -0.0146 -0.2438 -0.0532
 8170SOL    HW232446   2.518   5.928   4.530 -0.0021 -0.0298 -0.1942
 8170SOL    HW332447   2.638   5.974   4.449  0.9045 -0.1118  1.0729
 8170SOL    MW432448   2.593   5.910   4.489 -0.1127 -0.1400  0.2797
 8171SOL     OW32449   3.642   2.793   2.425  0.0602 -0.1758  0.3518
 8171SOL    HW232450   3.572   2.737   2.459  0.2653  0.0300  1.1430
 8171SOL    HW332451   3.718   2.770   2.478  0.5675 -0.3317 -0.4412
 8171SOL    MW432452   3.643   2.783   2.437 -0.4072 -0.2781  0.3890
 8172SOL     OW32453   2.153   1.640   3.581 -0.3137  0.3764  0.5521
 8172SOL    HW232454   2.212   1.565   3.570 -0.7075 -0.0708  1.3754
 8172SOL    HW332455   2.075   1.616   3.532 -0.2742  0.4320  0.4630
 8172SOL    MW432456   2.151   1.627   3.573  0.0595  0.1270 -0.1047
 8173SOL     OW32457   5.660   4.821   3.969 -0.2609 -0.5299 -0.4048
 8173SOL    HW232458   5.626   4.879   4.038  2.3329  0.8113 -0.1276
 8173SOL    HW332459   5.616   4.851   3.889  0.3011  1.2398 -0.1003
 8173SOL    MW432460   5.649   4.833   3.968 -0.1584 -0.2625 -0.0419
 8174SOL     OW32461   4.606   1.024   0.648 -0.0220 -0.2994 -0.2476
 8174SOL    HW232462   4.582   1.023   0.740 -0.0162 -1.3468 -0.2470
 8174SOL    HW332463   4.632   1.114   0.631  0.4794 -0.2104  0.9072
 8174SOL    MW432464   4.606   1.035   0.658  0.1322 -0.3128  0.3018
 8175SOL     OW32465   3.806   4.810   1.979 -0.5352  0.4031  0.6738
 8175SOL    HW232466   3.850   4.839   1.899 -1.0601  0.7220  0.4922
 8175SOL    HW332467   3.744   4.743   1.950 -0.5869  0.3794  0.8373
 8175SOL    MW432468   3.804   4.805   1.965 -0.3903 -0.1276 -0.3000
 8176SOL     OW32469   0.601   2.898   4.274  0.1649 -0.4797 -0.9785
 8176SOL    HW232470   0.601   2.994   4.278  1.6865 -0.4473 -1.2053
 8176SOL    HW332471   0.508   2.875   4.265 -0.3361  0.9076  0.2420
 8176SOL    MW432472   0.589   2.908   4.273  0.0883 -0.5678 -0.2986
 8177SOL     OW32473   5.434   3.623   1.380  0.1447 -0.6726  0.0340
 8177SOL    HW232474   5.514   3.588   1.341  1.0157  1.1928  0.0443
 8177SOL    HW332475   5.403   3.554   1.439  1.0919 -1.8756 -0.8417
 8177SOL    MW432476   5.440   3.609   1.383  0.3121 -0.7333  0.2792
 8178SOL     OW32477   3.163   5.991   5.658 -0.5697  0.6477  0.3784
 8178SOL    HW232478   3.226   6.063   5.655 -0.0698  0.3953  3.0158
 8178SOL    HW332479   3.104   6.009   5.585  1.3279  2.0182 -0.9177
 8178SOL    MW432480   3.164   6.003   5.648 -0.1398 -0.4167 -0.3212
 8179SOL     OW32481   3.872   1.146   2.569 -0.0517 -0.2479  0.1990
 8179SOL    HW232482   3.842   1.211   2.505  0.0191 -2.1030 -1.8199
 8179SOL    HW332483   3.967   1.146   2.560 -0.1680 -3.3360 -2.8124
 8179SOL    MW432484   3.881   1.155   2.559  0.0145 -0.4657  0.3578
 8180SOL     OW32485   6.321   0.481   0.697  0.3084 -0.5276 -0.0425
 8180SOL    HW232486   6.251   0.422   0.724  2.3809 -3.6741 -1.1059
 8180SOL    HW332487   6.354   0.518   0.779 -2.2738  0.8626  0.5075
 8180SOL    MW432488   6.316   0.478   0.711 -0.2239  0.1137 -0.0703
 8181SOL     OW32489   0.054   3.906   1.940 -0.3572  0.2157 -0.3258
 8181SOL    HW232490   0.008   3.932   2.020  0.7410  3.9951 -0.7322
 8181SOL    HW332491   0.143   3.940   1.952  1.0334 -2.6004 -1.6092
 8181SOL    MW432492   0.060   3.914   1.952 -0.2216  0.2795  0.1842
 8182SOL     OW32493   4.557   1.452   3.681 -0.0831  0.3405  0.3371
 8182SOL    HW232494   4.618   1.397   3.632  0.5444  2.1039 -0.9805
 8182SOL    HW332495   4.486   1.471   3.620 -0.0818  1.3002  0.6146
 8182SOL    MW432496   4.556   1.447   3.667  0.1789  0.7976 -0.0208
 8183SOL     OW32497   1.155   4.986   3.659 -0.7242  0.4034 -0.0517
 8183SOL    HW232498   1.112   5.051   3.604 -1.4218 -0.9673 -1.1781
 8183SOL    HW332499   1.084   4.937   3.699 -0.2103  0.6626  1.2346
 8183SOL    MW432500   1.140   4.988   3.657 -0.5569  0.1796  0.0365
 8184SOL     OW32501   2.522   3.776   1.669  0.1562 -0.1555 -0.5730
 8184SOL    HW232502   2.508   3.863   1.631 -0.1223  0.1645  0.2347
 8184SOL    HW332503   2.434   3.739   1.677  0.3250 -0.8065 -1.5633
 8184SOL    MW432504   2.508   3.783   1.665 -0.6605  0.2216 -0.3349
 8185SOL     OW32505   3.954   6.270   1.039  0.0816  0.2869  0.2106
 8185SOL    HW232506   4.031   6.325   1.026 -0.3254  0.9447  0.5586
 8185SOL    HW332507   3.982   6.207   1.107  0.2500  0.6495  0.4812
 8185SOL    MW432508   3.968   6.269   1.046 -0.2185  0.6065  0.3733
 8186SOL     OW32509   4.111   3.686   5.347 -0.7595  0.5005  0.1422
 8186SOL    HW232510   4.074   3.623   5.408  1.5026  0.8515  2.0365
 8186SOL    HW332511   4.206   3.674   5.355 -0.3049  3.0284 -0.6240
 8186SOL    MW432512   4.118   3.676   5.356 -0.8340  0.1677  0.1512
 8187SOL     OW32513   1.342   2.623   3.398 -0.4188 -0.0097 -0.3062
 8187SOL    HW232514   1.248   2.612   3.385 -0.9411  4.1170 -1.3408
 8187SOL    HW332515   1.382   2.570   3.330 -2.0217 -0.9948 -0.5439
 8187SOL    MW432516   1.335   2.615   3.388  0.0072  0.0242  0.1069
 8188SOL     OW32517   6.421   0.674   0.110 -0.3327  0.6726 -0.6374
 8188SOL    HW232518   6.418   0.751   0.167 -0.0615  1.3050 -1.4425
 8188SOL    HW332519   6.492   0.694   0.048  0.3666 -0.6447 -0.2977
 8188SOL    MW432520   6.430   0.687   0.109 -0.1420 -0.6360  0.1287
 8189SOL     OW32521   0.076   5.179   2.070 -0.3507 -0.1972  0.2760
 8189SOL    HW232522  -0.011   5.217   2.080 -2.9249 -4.7454 -1.5409
 8189SOL    HW332523   0.093   5.134   2.153  0.1255  0.3825  0.4985
 8189SOL    MW432524   0.067   5.178   2.083  0.0205  0.5581  0.1129
 8190SOL     OW32525   4.993   2.769   2.177 -0.2248 -0.3595 -0.2253
 8190SOL    HW232526   4.939   2.842   2.206 -0.2982 -0.3739 -0.3224
 8190SOL    HW332527   5.037   2.802   2.098  1.3544  0.2941  0.8821
 8190SOL    MW432528   4.991   2.783   2.170 -0.6767  0.1166  0.3009
 8191SOL     OW32529   3.268   0.380   3.369 -0.4635 -0.3947 -0.1647
 8191SOL    HW232530   3.265   0.418   3.281 -0.2753  0.9413  0.3718
 8191SOL    HW332531   3.326   0.438   3.418  0.2579 -1.7060  0.5872
 8191SOL    MW432532   3.275   0.393   3.364  0.3353  0.4132  0.3056
 8192SOL     OW32533   4.821   4.040   0.538  0.2054 -0.1248 -0.4234
 8192SOL    HW232534   4.877   4.070   0.466  1.7827  2.5384  1.6888
 8192SOL    HW332535   4.869   3.967   0.577  0.4126 -0.1942 -0.8011
 8192SOL    MW432536   4.835   4.034   0.534 -0.1994  0.0545 -0.0225
 8193SOL     OW32537   0.135   1.809   2.681  0.1220  0.4644  0.0735
 8193SOL    HW232538   0.161   1.718   2.665  0.6629  0.6280 -0.0187
 8193SOL    HW332539   0.210   1.847   2.727  0.3695  1.1568 -0.8594
 8193SOL    MW432540   0.149   1.802   2.685 -0.4476 -0.1144  0.6806
 8194SOL     OW32541   4.870   2.319   4.659 -0.0205  0.8447 -0.3254
 8194SOL    HW232542   4.910   2.402   4.683 -0.2750  0.9182 -0.1468
 8194SOL    HW332543   4.926   2.284   4.589 -0.8352  1.9440 -1.5701
 8194SOL    MW432544   4.883   2.325   4.653  0.2247  0.3268 -0.0323
 8195SOL     OW32545   1.696   0.006   0.837  0.3715 -0.2140  0.0341
 8195SOL    HW232546   1.611   0.047   0.854  0.6662  0.0993  0.8215
 8195SOL    HW332547   1.753   0.079   0.813  0.9716 -0.0682  1.7119
 8195SOL    MW432548   1.693   0.021   0.836 -0.1876  0.5282  0.3012
 8196SOL     OW32549   1.286   1.183   4.393  0.2721 -0.5050  0.5859
 8196SOL    HW232550   1.194   1.163   4.409 -0.2873  1.8872  0.7595
 8196SOL    HW332551   1.302   1.158   4.302 -1.0909  0.6601 -0.0130
 8196SOL    MW432552   1.276   1.177   4.383 -0.1034 -0.6734  0.7489
 8197SOL     OW32553   3.323   3.291   5.469  0.1476 -0.3013 -0.2341
 8197SOL    HW232554   3.246   3.344   5.446  1.4650  1.9695  0.2674
 8197SOL    HW332555   3.374   3.285   5.389  1.5751  2.0841  0.3957
 8197SOL    MW432556   3.319   3.297   5.456  0.5186 -0.1306  0.1188
 8198SOL     OW32557   4.107   1.178   0.790 -0.3737 -0.1307  0.5775
 8198SOL    HW232558   4.071   1.177   0.701 -0.1254  0.3491  0.4694
 8198SOL    HW332559   4.033   1.200   0.846 -0.1258  1.5084  0.2938
 8198SOL    MW432560   4.093   1.181   0.785 -0.0912  0.2842  0.2761
 8199SOL     OW32561   0.186   2.949   5.896 -0.2236 -0.2649 -0.2782
 8199SOL    HW232562   0.228   2.999   5.966 -0.2692  0.8326 -1.0098
 8199SOL    HW332563   0.244   2.874   5.881 -0.2624 -0.5540  0.9759
 8199SOL    MW432564   0.199   2.945   5.903 -0.0267 -0.0272  0.2941
 8200SOL     OW32565   5.655   0.173   2.126  0.4177 -0.7028  0.3220
 8200SOL    HW232566   5.711   0.249   2.115 -2.2130  1.3402  0.1529
 8200SOL    HW332567   5.665   0.124   2.045  0.3367  0.7834 -0.6237
 8200SOL    MW432568   5.664   0.176   2.114 -0.2161  0.5973 -0.3449
 8201SOL     OW32569   5.480   3.029   4.646 -0.2200  0.3595  0.2316
 8201SOL    HW232570   5.562   3.075   4.662 -0.7545  2.1170 -1.6460
 8201SOL    HW332571   5.507   2.940   4.622  1.1608  0.9804 -0.6323
 8201SOL    MW432572   5.494   3.023   4.645 -0.1623 -0.4084  0.0748
 8202SOL     OW32573   5.486   4.116   4.235  0.4455  0.0168 -0.1808
 8202SOL    HW232574   5.555   4.152   4.291  0.5432  1.8458 -1.3905
 8202SOL    HW332575   5.440   4.193   4.201  0.4155 -0.9783 -2.6113
 8202SOL    MW432576   5.489   4.131   4.238 -0.4113  0.0415 -0.2921
 8203SOL     OW32577   2.576   3.711   5.804 -0.1286 -0.0322  0.9861
 8203SOL    HW232578   2.506   3.708   5.869 -0.1784  1.3102  1.0110
 8203SOL    HW332579   2.655   3.688   5.852 -0.4254 -0.7772  1.1290
 8203SOL    MW432580   2.577   3.708   5.819  0.3344  0.2002  1.3371
 8204SOL     OW32581   4.200   3.249   3.621 -0.1493  0.4611  0.0717
 8204SOL    HW232582   4.192   3.165   3.666  2.4303 -0.8650 -1.6732
 8204SOL    HW332583   4.115   3.262   3.579 -0.1967 -2.1038 -0.8232
 8204SOL    MW432584   4.188   3.240   3.621  0.0956  0.4716 -0.6345
 8205SOL     OW32585   1.243   3.025   4.730 -0.1691  0.0626  0.2369
 8205SOL    HW232586   1.193   3.070   4.799 -0.5585  0.2436 -0.1622
 8205SOL    HW332587   1.238   3.084   4.655 -1.4257 -1.0241 -0.5828
 8205SOL    MW432588   1.236   3.039   4.729  0.3340  0.5380  0.5398
 8206SOL     OW32589   3.640   0.550   5.467 -0.0851 -0.1079 -0.3024
 8206SOL    HW232590   3.652   0.622   5.405  0.4572  1.1329  1.1865
 8206SOL    HW332591   3.563   0.503   5.434 -0.1277  0.8165 -1.6135
 8206SOL    MW432592   3.631   0.553   5.454 -0.3826 -0.2579 -0.0528
 8207SOL     OW32593   5.466   0.763   3.742  0.3725 -0.2353  0.6467
 8207SOL    HW232594   5.513   0.689   3.780 -0.3049 -1.1193 -0.1986
 8207SOL    HW332595   5.379   0.729   3.722  0.4366  0.4387 -0.8950
 8207SOL    MW432596   5.461   0.749   3.745 -0.0536 -0.0467  0.3601
 8208SOL     OW32597   4.464   1.400   5.765  0.2457 -0.3900  0.5285
 8208SOL    HW232598   4.383   1.422   5.719  0.9151  0.8144 -0.1365
 8208SOL    HW332599   4.451   1.310   5.795 -0.5655 -0.9261 -1.2735
 8208SOL    MW432600   4.451   1.391   5.763 -0.6417 -0.2343  0.1566
 8209SOL     OW32601   5.086   0.821   6.327 -0.1659 -0.3344 -0.8424
 8209SOL    HW232602   5.137   0.824   6.246  0.2887  1.0272 -0.5429
 8209SOL    HW332603   5.039   0.905   6.328  0.3962 -0.0060  0.6401
 8209SOL    MW432604   5.087   0.833   6.316 -0.1876  0.5699  0.7240
 8210SOL     OW32605   4.298   5.736   5.801  0.8877  0.4784 -0.0904
 8210SOL    HW232606   4.262   5.706   5.717  1.3607 -0.0832 -0.0991
 8210SOL    HW332607   4.304   5.656   5.854 -0.9193  1.0489  1.0727
 8210SOL    MW432608   4.294   5.721   5.797 -0.1180 -0.3994 -0.0198
 8211SOL     OW32609   2.910   4.139   1.722  0.2142 -0.4587  0.0802
 8211SOL    HW232610   3.001   4.144   1.751  0.6191 -1.5362 -0.9271
 8211SOL    HW332611   2.870   4.073   1.780  0.5108 -1.1612 -0.4944
 8211SOL    MW432612   2.916   4.131   1.734  0.7937 -0.2460  0.3243
 8212SOL     OW32613   6.126   1.213   0.774 -0.1449  0.1251 -0.0731
 8212SOL    HW232614   6.051   1.158   0.796 -0.5823 -0.8037 -3.3279
 8212SOL    HW332615   6.089   1.301   0.763 -0.3736  0.0631  0.1773
 8212SOL    MW432616   6.111   1.218   0.776  0.1040  0.4968 -0.3246
 8213SOL     OW32617   0.946   3.078   3.864 -0.1309  0.1113 -0.2436
 8213SOL    HW232618   1.038   3.099   3.850 -0.0388 -0.8812 -1.3344
 8213SOL    HW332619   0.935   2.991   3.824 -1.2825 -0.2807  0.8471
 8213SOL    MW432620   0.957   3.069   3.856  0.1294  0.1140  0.7180
 8214SOL     OW32621   1.027   2.237   5.760 -0.3211 -0.5350  0.1320
 8214SOL    HW232622   1.106   2.225   5.707  0.1306 -1.4764  0.9856
 8214SOL    HW332623   1.058   2.282   5.839 -0.5278 -1.4068  0.7226
 8214SOL    MW432624   1.042   2.241   5.764  0.1996 -0.0720  0.5528
 8215SOL     OW32625   2.722   0.066   6.347  0.2130 -0.4451  0.2506
 8215SOL    HW232626   2.751   0.002   6.412  2.3129 -0.3258 -0.4944
 8215SOL    HW332627   2.675   0.014   6.282  0.7030 -1.0147  0.3459
 8215SOL    MW432628   2.720   0.050   6.347  0.3412 -0.1462 -0.5555
 8216SOL     OW32629   5.261   0.853   1.004 -0.0162  0.2132  0.6755
 8216SOL    HW232630   5.219   0.788   0.948  0.3256  2.0050 -1.8424
 8216SOL    HW332631   5.300   0.802   1.074 -1.7863 -2.0274  0.1739
 8216SOL    MW432632   5.260   0.838   1.005  0.1568 -1.0655 -0.4875
 8217SOL     OW32633   4.312   5.853   3.257 -0.1168 -0.2029  0.1809
 8217SOL    HW232634   4.324   5.832   3.165  0.0092  0.5878  0.0133
 8217SOL    HW332635   4.219   5.877   3.264  0.2829  1.5783 -0.1319
 8217SOL    MW432636   4.301   5.853   3.246  0.8069 -0.3347  0.2339
 8218SOL     OW32637   5.658   1.226   5.901 -0.4216  0.0313  0.4972
 8218SOL    HW232638   5.592   1.213   5.833  0.7575  2.3711 -1.2617
 8218SOL    HW332639   5.682   1.138   5.928 -0.2834 -1.1217 -2.8554
 8218SOL    MW432640   5.652   1.213   5.895  0.1547  0.1459 -0.0931
 8219SOL     OW32641   6.282   0.701   0.521  0.5259 -0.1365  0.3413
 8219SOL    HW232642   6.211   0.681   0.460 -0.1953  3.1054 -0.0653
 8219SOL    HW332643   6.287   0.624   0.579 -1.0892 -1.8232 -1.6167
 8219SOL    MW432644   6.274   0.688   0.521 -0.0751  0.1025  0.2769
 8220SOL     OW32645   5.583   4.666   2.525  0.3995 -0.2537  0.6408
 8220SOL    HW232646   5.649   4.726   2.559  0.4777 -0.2979  0.5646
 8220SOL    HW332647   5.619   4.635   2.442 -0.1916  0.5760  0.0454
 8220SOL    MW432648   5.596   4.670   2.518  0.0397 -0.0130 -0.1482
 8221SOL     OW32649   2.865   1.021   2.304  0.2750 -0.5997 -0.0862
 8221SOL    HW232650   2.944   0.990   2.262  0.4801 -0.8096  0.4491
 8221SOL    HW332651   2.803   1.036   2.232  1.2644  0.9732 -0.6611
 8221SOL    MW432652   2.867   1.019   2.289  0.2058  0.1403 -0.2456
 8222SOL     OW32653   2.065   4.100   3.673  0.6565 -0.4085  0.5208
 8222SOL    HW232654   2.023   4.115   3.588 -0.3907 -0.3043  1.0369
 8222SOL    HW332655   2.158   4.111   3.656  0.4167  0.1916 -0.4946
 8222SOL    MW432656   2.072   4.104   3.659  0.0013  0.0462 -0.4222
 8223SOL     OW32657   0.893   4.100   1.107  0.3430 -0.5107  0.2705
 8223SOL    HW232658   0.906   4.194   1.111 -1.7919 -0.1931  1.6943
 8223SOL    HW332659   0.870   4.075   1.197 -1.1549 -2.0025 -0.4561
 8223SOL    MW432660   0.891   4.109   1.120 -0.3443  0.2432  0.4843
 8224SOL     OW32661   5.629   6.302   3.427 -0.1833  0.2276  0.2294
 8224SOL    HW232662   5.669   6.232   3.376 -0.1524  0.0865  0.4433
 8224SOL    HW332663   5.629   6.378   3.369  0.1425  0.1548  0.1320
 8224SOL    MW432664   5.634   6.303   3.413  0.1538  0.2130  0.4792
 8225SOL     OW32665   3.186   4.346   0.149 -0.6034 -0.2329 -0.1663
 8225SOL    HW232666   3.178   4.252   0.167 -2.0262 -0.4706 -1.7790
 8225SOL    HW332667   3.104   4.383   0.180 -0.0965  0.4780  0.3464
 8225SOL    MW432668   3.174   4.338   0.155  0.0431 -0.9537  0.7845
 8226SOL     OW32669   3.641   2.412   5.406  0.4245  0.0163  0.4066
 8226SOL    HW232670   3.547   2.394   5.410  0.2223  0.7480 -0.6326
 8226SOL    HW332671   3.683   2.328   5.423 -0.4064 -0.2304  1.3060
 8226SOL    MW432672   3.634   2.399   5.409  0.1039  0.7863  0.6687
 8227SOL     OW32673   1.211   0.182   3.234 -0.3596 -0.6641 -0.2975
 8227SOL    HW232674   1.199   0.101   3.283  0.1657 -2.0521 -2.3450
 8227SOL    HW332675   1.305   0.201   3.242 -0.7177  0.7117  1.4944
 8227SOL    MW432676   1.222   0.174   3.242 -0.7341  0.2002 -0.3324
 8228SOL     OW32677   1.901   1.996   4.061  0.3119 -0.0874  0.9700
 8228SOL    HW232678   1.978   1.947   4.089  1.7558  1.4364 -0.1797
 8228SOL    HW332679   1.827   1.946   4.096  1.7959 -1.6043  2.0879
 8228SOL    MW432680   1.901   1.983   4.070 -0.2793 -1.0927 -0.3504
 8229SOL     OW32681   2.777   2.041   0.484 -0.5283  0.3359  0.1361
 8229SOL    HW232682   2.824   2.123   0.471  0.3432 -0.1565  0.0287
 8229SOL    HW332683   2.845   1.980   0.514 -0.5607 -1.0387 -2.2674
 8229SOL    MW432684   2.792   2.044   0.486  0.1490  0.2912 -0.9020
 8230SOL     OW32685   3.529   4.159   4.814  0.3246  0.0707  0.5406
 8230SOL    HW232686   3.459   4.154   4.749  2.3192 -1.1900 -1.6738
 8230SOL    HW332687   3.577   4.239   4.791  0.1533  0.4832  1.5357
 8230SOL    MW432688   3.526   4.169   4.803  0.0212  0.2432  0.4201
 8231SOL     OW32689   6.166   0.390   3.705 -0.1766 -0.0678  0.2250
 8231SOL    HW232690   6.160   0.483   3.725  0.5907  0.0780 -0.1811
 8231SOL    HW332691   6.075   0.360   3.703 -0.3831  0.4244  1.4544
 8231SOL    MW432692   6.153   0.398   3.707 -0.2428  0.2724  0.2701
 8232SOL     OW32693   2.554   4.483   5.081  0.2862  0.1063  0.2906
 8232SOL    HW232694   2.496   4.531   5.141  0.3686 -0.3644  0.7553
 8232SOL    HW332695   2.592   4.414   5.135  0.1324 -0.5138 -0.3777
 8232SOL    MW432696   2.551   4.480   5.096 -0.8867 -0.2090  0.0128
 8233SOL     OW32697   2.454   1.284   4.396  0.4136  0.0686 -0.0800
 8233SOL    HW232698   2.520   1.221   4.366  1.1632 -0.0237  1.6876
 8233SOL    HW332699   2.384   1.230   4.433 -0.4425  0.1911 -1.4304
 8233SOL    MW432700   2.453   1.268   4.397  0.0896  0.7938 -0.6214
 8234SOL     OW32701   3.977   0.904   6.416  0.6983  0.0288  0.4057
 8234SOL    HW232702   3.932   0.932   6.336  0.9038 -1.4941 -0.2960
 8234SOL    HW332703   3.972   0.979   6.475 -1.4553  0.4195 -0.2025
 8234SOL    MW432704   3.970   0.917   6.413  0.1375 -0.3363 -0.0297
 8235SOL     OW32705   3.747   3.414   0.014  0.4775 -0.0728 -0.1997
 8235SOL    HW232706   3.767   3.321   0.007  0.4643 -0.0234 -0.9872
 8235SOL    HW332707   3.673   3.418   0.075  0.5025 -0.5719 -0.1295
 8235SOL    MW432708   3.740   3.402   0.021 -0.3228 -0.1254 -0.0757
 8236SOL     OW32709   5.123   1.955   5.185 -0.3241  0.3521  0.9415
 8236SOL    HW232710   5.081   1.910   5.259 -0.2934 -0.8107  0.2644
 8236SOL    HW332711   5.067   2.032   5.170 -1.6484 -0.6209  0.7092
 8236SOL    MW432712   5.110   1.959   5.193 -0.3702 -0.4213 -0.0380
 8237SOL     OW32713   5.027   4.374   2.044 -0.4947  0.1591  0.1913
 8237SOL    HW232714   4.953   4.388   2.104 -0.5269 -1.1134  0.4851
 8237SOL    HW332715   5.033   4.278   2.036  1.5101  0.2010  0.6805
 8237SOL    MW432716   5.018   4.363   2.051 -0.3214  0.0796 -0.2055
 8238SOL     OW32717   3.248   2.887   0.185 -0.3719  0.2249 -0.0713
 8238SOL    HW232718   3.307   2.955   0.154  1.5368 -0.9381  0.7802
 8238SOL    HW332719   3.284   2.806   0.148 -2.6729 -0.3424 -1.2045
 8238SOL    MW432720   3.261   2.885   0.176 -0.5920  0.2339 -0.5433
 8239SOL     OW32721   3.350   4.319   2.505 -0.3236 -0.3897  0.6995
 8239SOL    HW232722   3.425   4.289   2.454 -1.7327 -2.3261 -0.3424
 8239SOL    HW332723   3.299   4.372   2.444 -0.0308  0.5888  1.2868
 8239SOL    MW432724   3.353   4.322   2.490 -0.3317 -0.2176  0.1616
 8240SOL     OW32725   5.300   6.009   2.288 -0.5630 -0.4288 -0.0013
 8240SOL    HW232726   5.358   5.983   2.216 -2.2315 -0.4960 -1.4082
 8240SOL    HW332727   5.303   6.105   2.287 -0.3479 -0.4345  0.0486
 8240SOL    MW432728   5.308   6.018   2.278  0.1490  0.1165 -0.9125
 8241SOL     OW32729   0.203   1.552   3.386  0.2970 -0.3739 -0.8450
 8241SOL    HW232730   0.111   1.532   3.369  0.5734 -3.4615  0.5565
 8241SOL    HW332731   0.206   1.573   3.479  1.1662 -1.6398 -0.5707
 8241SOL    MW432732   0.191   1.552   3.396  0.5319 -0.5532 -0.4420
 8242SOL     OW32733   3.028   3.552   4.622 -0.1846  0.1555  0.6097
 8242SOL    HW232734   3.059   3.462   4.633  2.0017  0.8988  0.9880
 8242SOL    HW332735   3.022   3.586   4.711 -0.7998  0.4499  0.4549
 8242SOL    MW432736   3.031   3.544   4.635  0.2728  0.0270 -0.2680
 8243SOL     OW32737   6.017   1.041   0.333  0.1914  0.2692 -0.3093
 8243SOL    HW232738   5.982   0.960   0.371  1.0662 -0.5944 -1.2665
 8243SOL    HW332739   6.087   1.067   0.393  0.7054 -0.3641 -0.6248
 8243SOL    MW432740   6.022   1.034   0.346 -0.0667 -0.1267 -0.2415
 8244SOL     OW32741   5.470   6.020   3.484  0.2040  0.1139 -0.2972
 8244SOL    HW232742   5.507   6.107   3.472  0.1742  0.0563 -0.8202
 8244SOL    HW332743   5.381   6.026   3.451 -0.9546  0.7418  2.5805
 8244SOL    MW432744   5.463   6.032   3.478  0.2804  0.2794  0.0063
 8245SOL     OW32745   2.040   5.374   3.125 -0.0618 -0.3184 -0.4368
 8245SOL    HW232746   2.123   5.385   3.080 -0.2487  0.9800 -0.4979
 8245SOL    HW332747   2.062   5.329   3.206  0.9482  1.4375  0.2966
 8245SOL    MW432748   2.054   5.369   3.130  0.1797  0.5843  0.4150
 8246SOL     OW32749   1.397   6.372   1.066 -0.1060  0.1910  0.1069
 8246SOL    HW232750   1.469   6.321   1.029  0.3840  0.6417  0.4244
 8246SOL    HW332751   1.337   6.384   0.992 -0.7170 -1.6414  0.2523
 8246SOL    MW432752   1.399   6.367   1.051 -0.0779  0.1039  0.2480
 8247SOL     OW32753   4.958   3.177   4.357  0.0172 -0.0517  0.5141
 8247SOL    HW232754   5.035   3.121   4.353 -0.1862 -0.3430  0.5662
 8247SOL    HW332755   4.885   3.116   4.366 -0.3590  0.1299 -1.0492
 8247SOL    MW432756   4.958   3.162   4.358 -0.1869  0.0048 -0.1795
 8248SOL     OW32757   0.335   2.774   4.625 -0.3078 -0.5293 -0.0120
 8248SOL    HW232758   0.316   2.700   4.568 -1.3166 -1.2039  1.1460
 8248SOL    HW332759   0.424   2.800   4.602 -1.0228 -0.0915 -2.5816
 8248SOL    MW432760   0.344   2.767   4.614 -0.5439 -0.0968  0.2609
 8249SOL     OW32761   1.688   5.088   3.071  0.3859  0.3956 -0.4319
 8249SOL    HW232762   1.709   5.149   3.141  0.8223 -0.5826  0.3162
 8249SOL    HW332763   1.763   5.029   3.068 -0.6644 -1.0055 -0.1170
 8249SOL    MW432764   1.701   5.088   3.080  0.8826  0.2605 -0.4102
 8250SOL     OW32765   3.624   0.157   6.361 -0.0607 -0.0697  0.0929
 8250SOL    HW232766   3.538   0.169   6.321  0.7779  1.3202 -1.4145
 8250SOL    HW332767   3.630   0.062   6.376 -1.0522 -0.4624 -1.6705
 8250SOL    MW432768   3.613   0.146   6.357 -0.3741  0.7704  0.1098
 8251SOL     OW32769   1.172   3.512   4.316 -0.1554  0.0351 -0.8143
 8251SOL    HW232770   1.131   3.426   4.321  0.6151 -0.4120 -1.8773
 8251SOL    HW332771   1.142   3.549   4.233  0.3850  0.3310 -0.8838
 8251SOL    MW432772   1.163   3.506   4.306 -0.1253 -0.0045  0.7994
 8252SOL     OW32773   1.969   0.116   6.304 -0.2033  0.4686 -0.5699
 8252SOL    HW232774   1.969   0.163   6.220 -1.8650  0.5311 -0.5520
 8252SOL    HW332775   1.889   0.064   6.303  0.5279 -0.7174  0.3465
 8252SOL    MW432776   1.959   0.116   6.293  0.4084  0.5996 -0.2383
 8253SOL     OW32777   2.450   3.358   3.897 -0.7275 -0.0961 -0.1321
 8253SOL    HW232778   2.403   3.441   3.889 -1.3350 -0.6108 -2.9037
 8253SOL    HW332779   2.385   3.291   3.877 -0.5195 -1.4499  3.0168
 8253SOL    MW432780   2.435   3.360   3.894  0.2629 -0.1988  0.5366
 8254SOL     OW32781   1.675   0.691   0.629  0.0235 -0.4055  0.2671
 8254SOL    HW232782   1.608   0.734   0.576  0.0416 -1.6925 -0.8702
 8254SOL    HW332783   1.741   0.662   0.566  0.7758 -0.7040  1.1651
 8254SOL    MW432784   1.675   0.693   0.614 -0.3584 -0.1178 -0.3731
 8255SOL     OW32785   0.916   6.367   6.291 -0.0192 -0.0236  0.6737
 8255SOL    HW232786   0.931   6.279   6.258 -1.5213  0.3295 -1.1147
 8255SOL    HW332787   1.003   6.400   6.314  0.5843 -1.8565  1.1534
 8255SOL    MW432788   0.930   6.360   6.290  0.5423  0.7694 -0.0169
 8256SOL     OW32789   3.348   4.314   2.781  0.3367  0.2401  0.7788
 8256SOL    HW232790   3.284   4.247   2.803  1.0035 -0.3187  1.0549
 8256SOL    HW332791   3.349   4.315   2.685  0.8357 -0.6622  0.7636
 8256SOL    MW432792   3.340   4.306   2.771 -0.1518  0.3820  0.4111
 8257SOL     OW32793   6.395   0.103   0.662 -0.3108 -0.0676 -0.4067
 8257SOL    HW232794   6.373   0.153   0.583 -1.4311 -1.2183 -0.8586
 8257SOL    HW332795   6.311   0.067   0.691  0.3112 -0.8045  0.5077
 8257SOL    MW432796   6.381   0.105   0.655  0.9321 -0.6113  0.6378
 8258SOL     OW32797   1.137   3.295   1.165 -0.1172 -0.0758 -0.4862
 8258SOL    HW232798   1.208   3.270   1.224 -0.5445 -0.2728 -0.0408
 8258SOL    HW332799   1.077   3.346   1.220  0.1167  0.8551 -1.0735
 8258SOL    MW432800   1.138   3.298   1.180  0.0968 -0.1657 -0.0609
 8259SOL     OW32801   5.878   4.436   2.790 -0.1896  0.5491  0.0911
 8259SOL    HW232802   5.785   4.444   2.768 -0.0032 -0.3381 -1.1103
 8259SOL    HW332803   5.922   4.495   2.729  0.0620  0.7534  0.4703
 8259SOL    MW432804   5.871   4.445   2.779 -0.2702  0.2957  0.4434
 8260SOL     OW32805   0.425   5.069   1.299  0.0146 -0.1969 -0.8162
 8260SOL    HW232806   0.470   4.998   1.253  1.1927 -0.2625  0.4018
 8260SOL    HW332807   0.491   5.106   1.358 -0.9319  1.1042 -0.5230
 8260SOL    MW432808   0.440   5.064   1.301  0.4407  0.7254  0.2536
 8261SOL     OW32809   6.299   6.247   3.842 -0.0309 -0.2439  0.3385
 8261SOL    HW232810   6.326   6.339   3.847 -1.9481  0.3114  1.4186
 8261SOL    HW332811   6.215   6.249   3.797  0.1866 -1.5603 -0.1753
 8261SOL    MW432812   6.292   6.260   3.837 -0.2159 -0.5262  0.3267
 8262SOL     OW32813   5.746   1.236   5.082 -0.4336 -0.1415  0.4319
 8262SOL    HW232814   5.778   1.163   5.030  1.0239 -0.4629  1.7129
 8262SOL    HW332815   5.812   1.305   5.071 -1.3181  0.6644 -0.0195
 8262SOL    MW432816   5.759   1.236   5.074 -0.3459 -0.3480  0.1401
 8263SOL     OW32817   2.244   4.616   1.076  0.0573  0.0502  0.3005
 8263SOL    HW232818   2.218   4.703   1.105 -0.9075  0.5893 -1.9993
 8263SOL    HW332819   2.245   4.621   0.981 -1.8062 -2.9356 -0.0223
 8263SOL    MW432820   2.241   4.628   1.067  0.0057 -0.3440 -0.3564
 8264SOL     OW32821   4.273   3.895   6.004  0.0291 -0.0099 -0.7674
 8264SOL    HW232822   4.359   3.863   6.033 -0.5100 -0.1950  0.7489
 8264SOL    HW332823   4.211   3.854   6.065 -1.1797 -0.1971 -2.0867
 8264SOL    MW432824   4.276   3.885   6.016 -0.4163 -0.2438 -0.3153
 8265SOL     OW32825   0.850   2.892   0.429 -0.5172 -0.2647 -0.2340
 8265SOL    HW232826   0.891   2.838   0.496  0.5067 -0.1945 -0.7750
 8265SOL    HW332827   0.823   2.972   0.475 -2.2061 -1.2675  0.6086
 8265SOL    MW432828   0.852   2.896   0.444  0.0946 -0.1689 -0.1805
 8266SOL     OW32829   3.979   4.542   1.774 -0.0193  0.0559  0.7058
 8266SOL    HW232830   3.905   4.541   1.834 -0.3193  1.7405  0.3868
 8266SOL    HW332831   4.044   4.484   1.816 -1.5333 -1.5772  0.9022
 8266SOL    MW432832   3.978   4.534   1.787 -0.4069  0.7225 -0.3351
 8267SOL     OW32833   2.856   3.953   4.588 -0.1212 -0.1167 -0.4502
 8267SOL    HW232834   2.825   3.883   4.645  1.5274  0.7729  1.6882
 8267SOL    HW332835   2.786   4.018   4.588 -0.6013 -0.6309 -0.3441
 8267SOL    MW432836   2.843   3.952   4.595 -0.1450  0.0032 -0.7197
 8268SOL     OW32837   1.393   2.601   0.063  0.5175  0.6911  1.0110
 8268SOL    HW232838   1.402   2.691   0.094  0.6694  0.1149  2.7102
 8268SOL    HW332839   1.318   2.566   0.110  1.2799 -0.4841  1.4109
 8268SOL    MW432840   1.385   2.608   0.073  0.2624 -0.1915  0.4264
 8269SOL     OW32841   6.187   0.836   4.034 -0.3818 -0.0772  0.7302
 8269SOL    HW232842   6.131   0.766   4.066  0.3475 -2.2143 -2.2289
 8269SOL    HW332843   6.271   0.822   4.078  0.2608 -2.2309 -0.9952
 8269SOL    MW432844   6.191   0.825   4.044 -0.1385  0.2714  0.1507
 8270SOL     OW32845   5.896   1.106   1.351  0.4101 -0.0221  0.3087
 8270SOL    HW232846   5.977   1.153   1.335 -0.6790  0.8759 -3.5888
 8270SOL    HW332847   5.913   1.017   1.323  0.1704  0.1070 -0.2709
 8270SOL    MW432848   5.909   1.101   1.345 -0.3153 -0.0961 -0.2858
 8271SOL     OW32849   4.474   5.895   3.882  0.7827 -0.0449  0.0594
 8271SOL    HW232850   4.508   5.952   3.812 -2.4981  0.2469 -1.4451
 8271SOL    HW332851   4.465   5.809   3.841  0.6629 -0.3583  0.7335
 8271SOL    MW432852   4.478   5.891   3.867 -0.1698  0.0188 -0.5099
 8272SOL     OW32853   1.110   6.013   0.124 -0.5169  0.2137 -0.0285
 8272SOL    HW232854   1.124   6.007   0.029  1.3307  2.1589  0.0352
 8272SOL    HW332855   1.191   5.980   0.162 -1.5605 -1.3354  0.9593
 8272SOL    MW432856   1.123   6.008   0.117  0.4671  0.7433 -0.2559
 8273SOL     OW32857   5.988   2.007   5.284 -0.3273 -0.0131 -0.1864
 8273SOL    HW232858   5.958   2.096   5.268  2.9930  1.1052 -1.0549
 8273SOL    HW332859   6.017   1.976   5.198  2.7948 -0.1018  0.7809
 8273SOL    MW432860   5.988   2.015   5.270  0.4339  0.8103  0.0757
 8274SOL     OW32861   2.355   2.250   4.872  0.5967  0.9098  0.6353
 8274SOL    HW232862   2.334   2.209   4.956 -0.0694  0.0787  0.0827
 8274SOL    HW332863   2.341   2.343   4.886  1.4558  0.9052  1.7253
 8274SOL    MW432864   2.350   2.257   4.885  0.2184  0.3431  0.1657
 8275SOL     OW32865   4.403   0.966   5.385  0.6152 -0.2356 -0.1487
 8275SOL    HW232866   4.334   0.933   5.442  0.6838 -0.0165  0.0626
 8275SOL    HW332867   4.366   0.959   5.296 -0.2090  1.0989  0.0451
 8275SOL    MW432868   4.389   0.961   5.380  0.1734  0.5130 -0.2117
 8276SOL     OW32869   3.676   3.844   0.258 -0.1029 -0.0107 -0.3858
 8276SOL    HW232870   3.684   3.939   0.266 -1.8314  0.3832 -2.5027
 8276SOL    HW332871   3.717   3.823   0.174 -0.9630 -0.9297 -0.5905
 8276SOL    MW432872   3.683   3.854   0.248 -0.3168 -0.0381 -0.1373
 8277SOL     OW32873   1.883   1.155   6.294 -0.2919 -0.1746  0.0622
 8277SOL    HW232874   1.914   1.245   6.281  0.1911 -0.5177 -1.3566
 8277SOL    HW332875   1.868   1.122   6.206 -2.6086 -0.7881  0.6071
 8277SOL    MW432876   1.885   1.162   6.281  0.1033 -1.0392 -0.6059
 8278SOL     OW32877   5.889   4.251   6.409  0.4527 -0.1865 -0.1128
 8278SOL    HW232878   5.939   4.189   6.356  0.1282 -1.4760  1.0136
 8278SOL    HW332879   5.956   4.309   6.446  0.9696 -0.8539  0.0492
 8278SOL    MW432880   5.905   4.250   6.407 -0.5161  0.3918 -0.3210
 8279SOL     OW32881   1.689   6.245   2.484  0.5793  0.0838 -0.1652
 8279SOL    HW232882   1.669   6.211   2.397  1.8481 -0.8144 -0.1205
 8279SOL    HW332883   1.783   6.231   2.495  0.5178  0.5779  1.1837
 8279SOL    MW432884   1.698   6.239   2.474 -0.1822 -1.0211 -0.1430
 8280SOL     OW32885   3.774   0.209   4.985 -0.1146  0.3029 -0.3733
 8280SOL    HW232886   3.779   0.304   4.989  1.1596  0.2049  1.6328
 8280SOL    HW332887   3.683   0.189   5.008 -0.3752  1.0283 -0.7637
 8280SOL    MW432888   3.762   0.219   4.989 -0.1685 -0.1516  0.1484
 8281SOL     OW32889   3.952   2.519   4.368 -0.4050 -0.1228 -0.7575
 8281SOL    HW232890   4.025   2.557   4.320 -0.1377 -1.6902 -1.6512
 8281SOL    HW332891   3.874   2.558   4.329 -0.1961 -1.3162 -2.4855
 8281SOL    MW432892   3.951   2.529   4.357  0.5924 -0.2043 -0.0936
 8282SOL     OW32893   2.365   5.953   1.251 -0.1690 -0.0166 -0.7850
 8282SOL    HW232894   2.451   5.939   1.210 -0.2969 -0.4270 -0.9189
 8282SOL    HW332895   2.369   6.042   1.285 -0.4319  0.7642 -2.6562
 8282SOL    MW432896   2.377   5.963   1.250  0.3310 -0.1800 -0.3814
 8283SOL     OW32897   5.218   6.173   0.708 -0.2722  0.4289  0.8920
 8283SOL    HW232898   5.135   6.208   0.739 -0.6988  0.3510 -0.1405
 8283SOL    HW332899   5.194   6.100   0.651  0.3728  1.6865 -1.1160
 8283SOL    MW432900   5.204   6.168   0.705 -0.1827  0.2158 -0.9536
 8284SOL     OW32901   5.492   0.390   1.662  0.5052 -0.1489  0.3780
 8284SOL    HW232902   5.577   0.399   1.706  0.4103 -0.4784  0.6328
 8284SOL    HW332903   5.514   0.365   1.572  0.7455  1.7009 -0.1164
 8284SOL    MW432904   5.506   0.388   1.656  0.4318  0.7086  0.3588
 8285SOL     OW32905   3.099   0.513   0.771  0.1446 -0.1306 -0.0316
 8285SOL    HW232906   3.119   0.583   0.833 -2.0252  0.0376  0.5482
 8285SOL    HW332907   3.063   0.443   0.825  2.0513 -1.6600 -0.6392
 8285SOL    MW432908   3.097   0.513   0.786  0.6880  0.1262  0.0974
 8286SOL     OW32909   2.766   4.295   4.480 -0.1110 -0.2171 -0.1172
 8286SOL    HW232910   2.795   4.378   4.517 -0.0577 -0.7422  1.0793
 8286SOL    HW332911   2.729   4.318   4.395 -0.7334  1.1353  0.4792
 8286SOL    MW432912   2.765   4.309   4.474 -0.4139  0.5632  0.1073
 8287SOL     OW32913   4.561   4.557   0.633  0.2132 -0.0469 -0.3829
 8287SOL    HW232914   4.496   4.625   0.653 -0.1363 -0.4015 -0.3106
 8287SOL    HW332915   4.641   4.606   0.613  0.0341  0.3766 -0.0739
 8287SOL    MW432916   4.563   4.573   0.633 -0.1020 -0.2934 -0.0906
 8288SOL     OW32917   5.464   6.313   1.950  0.0799  0.2854 -0.7018
 8288SOL    HW232918   5.453   6.314   1.855  1.6329 -0.9477 -0.9430
 8288SOL    HW332919   5.559   6.310   1.963 -0.1296 -0.4564  0.8709
 8288SOL    MW432920   5.475   6.313   1.940 -0.3593  0.4482 -0.5576
 8289SOL     OW32921   3.481   0.801   2.170  0.1091  0.7198  0.2925
 8289SOL    HW232922   3.462   0.772   2.080 -0.3539 -0.0135  0.6117
 8289SOL    HW332923   3.426   0.744   2.225  1.8726 -0.2265  1.1598
 8289SOL    MW432924   3.471   0.789   2.165  0.4050 -0.3565 -0.6625
 8290SOL     OW32925   0.612   1.079   4.711  0.1739  0.3377  0.1701
 8290SOL    HW232926   0.614   0.987   4.685 -0.8292  0.4948 -0.5085
 8290SOL    HW332927   0.589   1.077   4.804  1.6248 -0.1386  0.5498
 8290SOL    MW432928   0.609   1.066   4.720 -0.0489  0.4095  0.2071
 8291SOL     OW32929   4.782   3.053   4.862  0.0908  0.6678  0.1840
 8291SOL    HW232930   4.742   3.119   4.918  0.1239 -0.5925  1.7517
 8291SOL    HW332931   4.712   3.026   4.803 -0.3184  1.1191  0.4571
 8291SOL    MW432932   4.768   3.058   4.862  0.4092  0.3666  0.2906
 8292SOL     OW32933   0.656   6.285   5.466 -0.2465  0.0290  0.1271
 8292SOL    HW232934   0.737   6.242   5.493 -0.4678  0.1302  0.9749
 8292SOL    HW332935   0.670   6.378   5.487 -0.4615  0.0955 -0.0193
 8292SOL    MW432936   0.668   6.292   5.472  0.2135 -0.1335  0.3605
 8293SOL     OW32937   0.563   0.971   2.548  0.1685 -0.2197  0.7108
 8293SOL    HW232938   0.509   0.982   2.627  0.2487 -0.1939  0.7619
 8293SOL    HW332939   0.515   0.906   2.496  1.0319 -1.6404  1.6132
 8293SOL    MW432940   0.549   0.964   2.552  0.0854  0.0463 -0.4638
 8294SOL     OW32941   0.058   1.043   5.060  0.0345  0.1475 -0.1620
 8294SOL    HW232942   0.144   1.082   5.044  0.8868 -1.2165  0.7888
 8294SOL    HW332943   0.026   1.087   5.139  0.8293 -0.7649  0.6995
 8294SOL    MW432944   0.065   1.054   5.069  0.2890  0.4742 -0.0823
 8295SOL     OW32945   3.005   1.673   0.775  0.5222  0.3615  0.3320
 8295SOL    HW232946   3.084   1.620   0.763  0.7143  0.9110 -0.9738
 8295SOL    HW332947   2.938   1.610   0.803  0.8735 -0.5011 -0.7207
 8295SOL    MW432948   3.006   1.657   0.777  0.2459  0.0123  0.2000
 8296SOL     OW32949   5.247   0.455   3.960  0.2047  0.1509  0.2088
 8296SOL    HW232950   5.309   0.417   4.022  1.6726  1.5819 -0.3277
 8296SOL    HW332951   5.204   0.525   4.009  0.1417  0.1815  0.1098
 8296SOL    MW432952   5.249   0.459   3.975  1.0734  0.2615  0.3190
 8297SOL     OW32953   1.989   5.327   0.296  0.7338  0.2883 -0.9534
 8297SOL    HW232954   2.043   5.258   0.257  1.1820 -0.3923  0.7806
 8297SOL    HW332955   2.016   5.330   0.388 -2.0811 -0.0114 -0.0034
 8297SOL    MW432956   2.000   5.318   0.303 -0.1348 -0.6655 -0.2827
 8298SOL     OW32957   6.003   2.299   6.109  0.0979  0.0359  0.3749
 8298SOL    HW232958   6.045   2.231   6.056  0.5098  0.0524  0.6671
 8298SOL    HW332959   6.027   2.381   6.066 -1.7560 -0.0578 -0.9247
 8298SOL    MW432960   6.012   2.301   6.097 -0.1785  0.6123 -0.8126
 8299SOL     OW32961   2.496   1.776   1.113 -0.0742  0.2774  0.4393
 8299SOL    HW232962   2.558   1.773   1.186 -1.8331 -3.6900  2.0852
 8299SOL    HW332963   2.434   1.845   1.136  0.0497 -0.1469  2.2300
 8299SOL    MW432964   2.496   1.785   1.126  0.0608 -0.2973 -0.2644
 8300SOL     OW32965   0.093   4.776   3.979  0.7362  0.5088 -0.4241
 8300SOL    HW232966   0.139   4.848   4.022  0.4046  1.2949 -1.3204
 8300SOL    HW332967   0.016   4.818   3.938  0.1705 -0.4722 -0.4066
 8300SOL    MW432968   0.089   4.791   3.979 -0.7853  0.7203  0.5992
 8301SOL     OW32969   1.347   1.481   5.137  0.3333 -0.0572 -0.3677
 8301SOL    HW232970   1.352   1.577   5.136  0.5697 -0.0730 -0.6478
 8301SOL    HW332971   1.388   1.454   5.055 -1.0284 -0.3441 -0.9810
 8301SOL    MW432972   1.353   1.490   5.126  0.1423  0.2185 -0.0382
 8302SOL     OW32973   0.363   0.753   3.001 -0.0043 -0.1142  0.7568
 8302SOL    HW232974   0.294   0.791   2.946  0.1174 -0.3588  0.4347
 8302SOL    HW332975   0.316   0.692   3.059  0.1402 -1.7889 -0.7788
 8302SOL    MW432976   0.347   0.750   3.001  0.0182 -0.0582  0.4815
 8303SOL     OW32977   5.273   5.290   2.568  0.2406  0.1605  0.2045
 8303SOL    HW232978   5.281   5.378   2.605 -0.5040  0.1572  0.3789
 8303SOL    HW332979   5.271   5.232   2.645  1.0505 -0.0400  0.0821
 8303SOL    MW432980   5.274   5.294   2.583  0.3451 -0.2058 -0.0728
 8304SOL     OW32981   1.148   1.980   3.483  0.8526 -0.0101  0.1895
 8304SOL    HW232982   1.229   1.978   3.432  1.4166  0.3981  1.0454
 8304SOL    HW332983   1.146   1.896   3.528  0.8780  0.0450  0.2925
 8304SOL    MW432984   1.158   1.969   3.482 -0.0364 -0.3288  0.1715
 8305SOL     OW32985   5.438   4.479   1.993  0.2146  0.1153  0.7402
 8305SOL    HW232986   5.364   4.452   2.047  0.5708 -0.7213  0.8307
 8305SOL    HW332987   5.515   4.448   2.041  0.5361 -0.6799 -0.2603
 8305SOL    MW432988   5.439   4.471   2.007 -0.4918  0.2262 -0.1384
 8306SOL     OW32989   5.810   2.565   4.605  0.2326 -0.2415  0.3211
 8306SOL    HW232990   5.825   2.516   4.686 -1.4558 -0.3531  0.6005
 8306SOL    HW332991   5.783   2.652   4.635 -1.3072 -0.5609 -0.0839
 8306SOL    MW432992   5.809   2.570   4.620  0.5832 -0.2358 -0.3759
 8307SOL     OW32993   3.829   0.033   1.875  0.5785  0.2523 -0.2870
 8307SOL    HW232994   3.867   0.100   1.932  0.2098 -0.4332  0.7915
 8307SOL    HW332995   3.885  -0.044   1.888 -0.4393 -0.3937  0.3796
 8307SOL    MW432996   3.841   0.032   1.884  0.1399  0.6456  0.0466
 8308SOL     OW32997   5.904   4.462   1.363  0.0589  0.1945 -0.0282
 8308SOL    HW232998   5.991   4.500   1.354 -0.0055  0.1204 -1.0812
 8308SOL    HW332999   5.845   4.537   1.358 -0.0292  0.0538 -1.3313
 8308SOL    MW433000   5.907   4.477   1.362  0.3700 -0.4682 -0.0385
 8309SOL     OW33001   3.284   3.183   3.448 -0.0633  0.0425 -0.8467
 8309SOL    HW233002   3.209   3.185   3.388 -0.3777  1.0426 -0.4409
 8309SOL    HW333003   3.351   3.134   3.401 -1.3333 -1.8410 -0.7843
 8309SOL    MW433004   3.283   3.177   3.434 -0.5313  0.5499 -0.1871
 8310SOL     OW33005   0.209   5.150   3.279  0.2803  0.2020 -0.6111
 8310SOL    HW233006   0.263   5.082   3.319 -2.2186 -0.1880  2.4729
 8310SOL    HW333007   0.252   5.232   3.305  1.6825 -0.0805 -1.8799
 8310SOL    MW433008   0.222   5.152   3.288  0.5232  0.8990 -0.0377
 8311SOL     OW33009   2.512   3.446   6.268  0.1382  0.2771 -0.1600
 8311SOL    HW233010   2.516   3.351   6.272 -3.4354 -0.0320 -1.1423
 8311SOL    HW333011   2.604   3.474   6.268  1.2772 -3.0412  1.4731
 8311SOL    MW433012   2.525   3.437   6.269 -0.1631  0.5633  0.0389
 8312SOL     OW33013   2.493   5.844   5.427  0.4148  0.1288 -0.3146
 8312SOL    HW233014   2.472   5.751   5.440 -0.0303  0.5316  2.3206
 8312SOL    HW333015   2.455   5.865   5.342 -0.2812 -1.8755 -0.5570
 8312SOL    MW433016   2.486   5.834   5.417  0.3684  0.1089 -0.4828
 8313SOL     OW33017   1.613   4.131   2.550  0.1097  0.4994 -0.5913
 8313SOL    HW233018   1.702   4.102   2.529 -0.7310 -2.0555 -0.9857
 8313SOL    HW333019   1.575   4.156   2.466 -0.2405 -0.6458 -0.7957
 8313SOL    MW433020   1.620   4.131   2.536 -0.2374 -0.2797  0.0400
 8314SOL     OW33021   3.170   3.355   2.936  0.0698  0.0571  0.6092
 8314SOL    HW233022   3.238   3.404   2.890 -0.7202  0.0398 -0.6362
 8314SOL    HW333023   3.217   3.288   2.985  1.1936  2.1249  2.5068
 8314SOL    MW433024   3.185   3.353   2.936  0.1317 -0.4347 -0.0903
 8315SOL     OW33025   0.881   3.509   6.427 -0.3202 -0.2898  0.1218
 8315SOL    HW233026   0.860   3.438   6.487  1.1772 -0.5281  0.3888
 8315SOL    HW333027   0.858   3.589   6.475 -0.9121 -0.5397  0.2623
 8315SOL    MW433028   0.875   3.511   6.441  0.5381  0.2700 -0.1020
 8316SOL     OW33029   2.971   3.204   4.081 -0.4041  0.0215  0.1957
 8316SOL    HW233030   2.915   3.278   4.057 -1.9008 -1.1619 -0.0898
 8316SOL    HW333031   3.026   3.191   4.004 -0.3688  0.6001  0.1126
 8316SOL    MW433032   2.971   3.212   4.068  0.2397 -0.3893  0.2197
 8317SOL     OW33033   4.256   1.861   2.946 -0.3787  0.1763  0.6111
 8317SOL    HW233034   4.188   1.845   2.881  1.1165 -0.6855 -0.8203
 8317SOL    HW333035   4.327   1.903   2.897  1.0003 -0.9621  1.5357
 8317SOL    MW433036   4.256   1.865   2.931  0.4779  0.1021 -0.4198
 8318SOL     OW33037   1.324   1.774   5.364 -0.0680 -0.2520  0.0347
 8318SOL    HW233038   1.275   1.840   5.315  0.2777  0.1823  0.2648
 8318SOL    HW333039   1.266   1.698   5.367  0.3969 -0.7645 -2.1792
 8318SOL    MW433040   1.310   1.772   5.358 -0.2500  0.9928 -0.5695
 8319SOL     OW33041   4.566   0.030   0.239  0.1155 -0.2095 -0.1965
 8319SOL    HW233042   4.517  -0.048   0.261 -0.7204  0.1128 -0.8581
 8319SOL    HW333043   4.501   0.100   0.234  0.4776  0.0558 -1.9324
 8319SOL    MW433044   4.551   0.029   0.241  0.8170  0.1871 -0.3276
 8320SOL     OW33045   0.372   1.139   3.872  0.4170 -0.0600 -0.3329
 8320SOL    HW233046   0.384   1.060   3.819 -1.0514 -1.6128  1.5297
 8320SOL    HW333047   0.278   1.145   3.885  0.6794  0.5932  1.6019
 8320SOL    MW433048   0.361   1.130   3.867 -0.7082  0.0198  0.4662
 8321SOL     OW33049   1.930   4.560   1.585 -0.3902  1.0505 -0.3918
 8321SOL    HW233050   1.952   4.625   1.518  2.0197  0.7983  0.0606
 8321SOL    HW333051   1.993   4.576   1.655 -0.1231 -1.3643 -0.0067
 8321SOL    MW433052   1.941   4.571   1.586 -0.2059 -0.2734  0.3014
 8322SOL     OW33053   1.106   0.560   2.501 -0.5987  0.2323  0.2359
 8322SOL    HW233054   1.187   0.586   2.544 -0.3079 -3.4703  2.3386
 8322SOL    HW333055   1.125   0.565   2.407  1.0127  2.1943  0.6005
 8322SOL    MW433056   1.119   0.564   2.494  0.9577 -0.3124 -0.1516
 8323SOL     OW33057   1.827   0.994   4.059 -0.0589  0.0036  0.6486
 8323SOL    HW233058   1.859   0.905   4.070  0.0115 -0.3412 -1.6996
 8323SOL    HW333059   1.892   1.049   4.103  0.6150 -1.0234  0.9703
 8323SOL    MW433060   1.840   0.990   4.066  0.3922  0.4067 -0.3130
 8324SOL     OW33061   4.872   4.446   1.320 -0.0297  0.2050  0.4622
 8324SOL    HW233062   4.903   4.502   1.391 -0.0582 -0.0411  0.6686
 8324SOL    HW333063   4.860   4.360   1.361  0.5472 -0.0915  0.0281
 8324SOL    MW433064   4.874   4.442   1.335 -0.3547 -0.7001  0.0295
 8325SOL     OW33065   4.666   0.348   3.300  0.2419  1.2384 -0.5279
 8325SOL    HW233066   4.713   0.431   3.290 -0.3120  1.5098 -0.9378
 8325SOL    HW333067   4.735   0.282   3.306  0.7536  1.8865  1.7106
 8325SOL    MW433068   4.681   0.351   3.299  0.5402 -0.0721  0.1298
 8326SOL     OW33069   2.192   1.840   3.873 -0.0972  0.1447  0.5852
 8326SOL    HW233070   2.141   1.763   3.847  0.0169 -0.8721  3.1443
 8326SOL    HW333071   2.151   1.912   3.826 -1.6464 -1.1450 -0.1393
 8326SOL    MW433072   2.180   1.839   3.863 -0.0148  0.1779  0.4772
 8327SOL     OW33073   1.292   5.779   4.136 -0.6534 -0.0161 -0.0448
 8327SOL    HW233074   1.259   5.859   4.094 -1.2678  0.2857  0.9745
 8327SOL    HW333075   1.259   5.784   4.226 -2.1756 -2.2342 -0.3903
 8327SOL    MW433076   1.283   5.790   4.142 -0.9948  0.3965 -0.5149
 8328SOL     OW33077   5.321   2.848   3.676  0.0879 -0.1771  0.9308
 8328SOL    HW233078   5.406   2.832   3.635 -0.4910 -0.4511 -0.1883
 8328SOL    HW333079   5.292   2.762   3.706 -1.6564 -0.9068 -2.4172
 8328SOL    MW433080   5.328   2.835   3.675  0.5266 -0.0250  0.6867
 8329SOL     OW33081   2.700   2.219   3.237  0.0733 -0.2070  0.5813
 8329SOL    HW233082   2.693   2.129   3.269 -0.8596 -0.8811 -1.3043
 8329SOL    HW333083   2.773   2.256   3.285 -0.8628 -1.2510  2.9992
 8329SOL    MW433084   2.709   2.212   3.247  0.0129  0.1516  0.0932
 8330SOL     OW33085   5.092   0.680   4.485 -0.1435 -0.3723 -0.1635
 8330SOL    HW233086   5.095   0.766   4.527 -1.1891 -0.5396  0.2916
 8330SOL    HW333087   5.048   0.624   4.549  0.1524 -1.1520 -0.6264
 8330SOL    MW433088   5.087   0.684   4.499 -0.1155 -0.2647 -0.5806
 8331SOL     OW33089   5.450   0.057   5.127 -0.2770  0.2950  0.4366
 8331SOL    HW233090   5.394   0.006   5.186  0.9080 -1.3525  0.2201
 8331SOL    HW333091   5.397   0.132   5.102 -2.0676 -0.7575  0.9101
 8331SOL    MW433092   5.436   0.060   5.131  0.1594 -0.6253 -0.2362
 8332SOL     OW33093   0.071   3.104   1.685 -0.3043 -0.4954 -0.0362
 8332SOL    HW233094   0.073   3.159   1.607  0.0518 -0.2706  0.1289
 8332SOL    HW333095  -0.017   3.115   1.720  0.1267  0.9367  0.6757
 8332SOL    MW433096   0.060   3.113   1.679 -0.5946 -0.1369  0.1235
 8333SOL     OW33097   2.893   0.012   3.367  0.1105 -0.0428  0.0425
 8333SOL    HW233098   2.938  -0.022   3.290  0.3236  0.9260 -0.2721
 8333SOL    HW333099   2.957   0.070   3.409 -0.3464  0.2230  0.3909
 8333SOL    MW433100   2.908   0.015   3.362 -0.1028 -0.3010 -0.1255
 8334SOL     OW33101   5.479   0.453   3.068  0.7806  0.2254 -0.3487
 8334SOL    HW233102   5.563   0.449   3.114  0.3782  1.0179  0.5027
 8334SOL    HW333103   5.460   0.547   3.062 -0.8768  0.0427  1.0970
 8334SOL    MW433104   5.487   0.465   3.073 -0.3977 -0.0143 -0.1339
 8335SOL     OW33105   4.446   3.890   5.161  0.1500 -0.9151 -0.6290
 8335SOL    HW233106   4.374   3.899   5.224  0.6944  0.1103 -0.1258
 8335SOL    HW333107   4.517   3.851   5.212 -0.0730 -2.0602 -1.1631
 8335SOL    MW433108   4.446   3.886   5.176 -0.4794  0.9889 -0.2332
 8336SOL     OW33109   1.149   4.313   0.595 -0.6136 -0.1132  0.2934
 8336SOL    HW233110   1.107   4.234   0.562  0.1775  0.2993 -1.9334
 8336SOL    HW333111   1.214   4.282   0.658 -1.2763 -1.0916  0.5148
 8336SOL    MW433112   1.152   4.299   0.599 -0.5771  0.0828  0.0160
 8337SOL     OW33113   4.243   5.582   5.103 -0.7009 -0.6253 -0.3640
 8337SOL    HW233114   4.213   5.494   5.082 -0.0564 -0.8065 -0.5510
 8337SOL    HW333115   4.308   5.569   5.173  0.0897 -0.4007 -1.0328
 8337SOL    MW433116   4.248   5.569   5.110 -0.1169  0.3979 -0.3804
 8338SOL     OW33117   1.266   3.263   6.099 -0.2966 -0.2201 -0.5712
 8338SOL    HW233118   1.287   3.180   6.055  1.5910  1.2515 -2.6897
 8338SOL    HW333119   1.188   3.295   6.054  0.7397  0.5439 -1.8982
 8338SOL    MW433120   1.259   3.256   6.087 -0.5663  0.5898  0.2249
 8339SOL     OW33121   4.302   0.380   2.802  0.0879 -0.3308  0.3023
 8339SOL    HW233122   4.261   0.449   2.749 -1.4345 -0.4768  1.2222
 8339SOL    HW333123   4.389   0.415   2.822  0.4789 -0.0046 -1.7107
 8339SOL    MW433124   4.308   0.394   2.798  0.1787  0.5523  0.5105
 8340SOL     OW33125   2.419   1.644   2.734 -0.4213  0.1830  0.3572
 8340SOL    HW233126   2.423   1.740   2.728 -0.2172  0.1239 -0.5990
 8340SOL    HW333127   2.481   1.622   2.804 -0.6182  0.7551  0.7242
 8340SOL    MW433128   2.427   1.654   2.742  0.6397 -0.1360  0.1193
 8341SOL     OW33129   0.659   5.926   3.268 -0.1995 -0.1219  0.1779
 8341SOL    HW233130   0.717   5.931   3.344 -0.1581 -2.2071  0.3204
 8341SOL    HW333131   0.607   6.006   3.274  1.6972  1.1429  0.7999
 8341SOL    MW433132   0.660   5.938   3.279 -0.4416 -0.1078 -0.0417
 8342SOL     OW33133   3.675   5.903   1.171  0.4770  0.9873  0.3602
 8342SOL    HW233134   3.717   5.845   1.234 -1.0950 -1.2347 -0.5014
 8342SOL    HW333135   3.732   5.900   1.093 -0.0485 -0.1601  0.0047
 8342SOL    MW433136   3.688   5.895   1.169 -0.3655  0.0664  0.2869
 8343SOL     OW33137   1.985   2.856   1.283  0.0656  0.1843 -0.2522
 8343SOL    HW233138   1.914   2.895   1.233 -0.4159 -0.8181 -0.3774
 8343SOL    HW333139   1.958   2.765   1.298  1.4964 -0.3464 -0.6582
 8343SOL    MW433140   1.972   2.849   1.279  0.2593  0.3320  0.1750
 8344SOL     OW33141   0.315   4.843   4.920  0.6235 -0.3650 -0.0226
 8344SOL    HW233142   0.355   4.866   5.004 -0.2649 -0.5678  0.4674
 8344SOL    HW333143   0.278   4.756   4.934  0.2332 -0.2877 -0.5468
 8344SOL    MW433144   0.315   4.835   4.933  0.1211 -0.4280  0.1998
 8345SOL     OW33145   1.455   1.357   3.117 -0.2504 -0.3030 -0.2924
 8345SOL    HW233146   1.493   1.288   3.063 -0.3498  0.0420 -0.8147
 8345SOL    HW333147   1.514   1.432   3.104 -0.5881 -0.0473 -0.3791
 8345SOL    MW433148   1.468   1.358   3.108  0.5458  0.2021  0.1262
 8346SOL     OW33149   3.735   5.568   1.676  0.2050 -0.5093  0.0733
 8346SOL    HW233150   3.707   5.653   1.643 -1.4162 -1.3328 -0.7641
 8346SOL    HW333151   3.697   5.562   1.764  0.7414 -0.1724  0.3316
 8346SOL    MW433152   3.726   5.578   1.683  0.0771  0.1219  0.8082
 8347SOL     OW33153   0.599   5.244   2.365 -0.1694 -0.0189 -0.1100
 8347SOL    HW233154   0.649   5.183   2.311 -0.5328 -0.1053 -0.3514
 8347SOL    HW333155   0.514   5.250   2.322 -0.8429 -0.9150  1.0401
 8347SOL    MW433156   0.594   5.237   2.352  0.8200  0.3282  0.0081
 8348SOL     OW33157   5.746   1.469   1.924  0.7628  0.9924 -0.7922
 8348SOL    HW233158   5.743   1.496   2.016 -1.2487  0.2136 -0.5744
 8348SOL    HW333159   5.833   1.430   1.913  0.1907 -1.2709  1.5538
 8348SOL    MW433160   5.757   1.467   1.935 -0.2667 -0.1644 -0.5886
 8349SOL     OW33161   5.595   3.100   6.314 -0.1128 -0.4576 -0.1717
 8349SOL    HW233162   5.523   3.163   6.302 -1.8590 -1.7510  2.4373
 8349SOL    HW333163   5.574   3.028   6.254 -1.4760 -1.0992  0.9820
 8349SOL    MW433164   5.582   3.099   6.305 -0.0192 -0.3318 -0.6300
 8350SOL     OW33165   0.532   5.723   6.100  0.6707 -0.9875 -0.5492
 8350SOL    HW233166   0.527   5.644   6.153 -0.0060 -0.2127  0.5811
 8350SOL    HW333167   0.565   5.790   6.159 -1.4932  0.2461 -0.6168
 8350SOL    MW433168   0.536   5.722   6.115 -0.1818  0.4788  0.2136
 8351SOL     OW33169   0.529   2.502   5.518 -0.3395  0.4897  0.0876
 8351SOL    HW233170   0.507   2.468   5.431  0.7965  0.0133 -0.0246
 8351SOL    HW333171   0.543   2.596   5.504  0.5123  0.3009 -0.3878
 8351SOL    MW433172   0.528   2.510   5.505  0.6065 -0.3383 -0.8076
 8352SOL     OW33173   5.174   0.824   2.880  0.3636 -0.2024 -0.6430
 8352SOL    HW233174   5.250   0.816   2.823  0.7549 -1.9712  0.0830
 8352SOL    HW333175   5.153   0.918   2.879  0.5583 -0.1111 -3.3879
 8352SOL    MW433176   5.181   0.835   2.872 -0.4830  0.1970  0.3361
 8353SOL     OW33177   5.422   0.598   1.927 -0.8869 -0.4698 -0.3766
 8353SOL    HW233178   5.407   0.507   1.954  0.4020 -0.7488 -0.5032
 8353SOL    HW333179   5.383   0.604   1.840 -2.0002 -0.5577  0.1027
 8353SOL    MW433180   5.415   0.586   1.919 -0.5586  0.6463 -0.1545
 8354SOL     OW33181   1.425   0.189   6.428 -0.1190  0.4558  0.1141
 8354SOL    HW233182   1.511   0.218   6.397 -0.3230  2.2667  1.1412
 8354SOL    HW333183   1.441   0.156   6.516 -0.7967  3.2847  1.4082
 8354SOL    MW433184   1.439   0.188   6.435  0.7218  0.0712 -0.4222
 8355SOL     OW33185   2.391   3.151   2.176 -0.7099 -0.2867 -0.1034
 8355SOL    HW233186   2.481   3.120   2.177 -0.8169 -0.6462  1.3867
 8355SOL    HW333187   2.338   3.073   2.163 -0.8306 -0.1746 -0.2887
 8355SOL    MW433188   2.396   3.137   2.174  0.0889 -0.0188 -0.6345
 8356SOL     OW33189   6.165  -0.005   0.800 -0.3059 -0.3120 -0.6259
 8356SOL    HW233190   6.162  -0.032   0.892  0.6696 -0.4023 -0.6064
 8356SOL    HW333191   6.142  -0.084   0.751 -1.1050 -0.1930 -0.4622
 8356SOL    MW433192   6.162  -0.019   0.806 -0.0080 -0.1912 -0.4106
 8357SOL     OW33193   6.181   4.634   4.193 -0.2474 -0.3888  0.2466
 8357SOL    HW233194   6.194   4.549   4.234 -1.2890 -0.4989  0.3830
 8357SOL    HW333195   6.160   4.614   4.102 -0.4485 -0.2756  0.2679
 8357SOL    MW433196   6.180   4.620   4.186 -0.0099 -0.1656 -0.2850
 8358SOL     OW33197   5.972   6.184   6.431  0.9507  0.1509 -0.2474
 8358SOL    HW233198   5.892   6.226   6.401 -0.4123  0.3881  3.2834
 8358SOL    HW333199   6.010   6.247   6.493  1.2778 -1.8978  1.7342
 8358SOL    MW433200   5.967   6.198   6.435 -0.0204  0.0851 -0.3662
 8359SOL     OW33201   6.157   3.305   2.776 -0.4120  0.0538 -0.2126
 8359SOL    HW233202   6.130   3.357   2.851 -0.0312  1.1637 -0.8166
 8359SOL    HW333203   6.086   3.243   2.763 -1.5398  1.3131 -0.2869
 8359SOL    MW433204   6.144   3.304   2.784  0.9720 -0.1557  1.0168
 8360SOL     OW33205   1.077   1.458   1.451 -0.6795  0.0937 -0.1250
 8360SOL    HW233206   1.142   1.489   1.388  0.0847 -1.7048 -0.2812
 8360SOL    HW333207   1.001   1.435   1.399 -0.4890 -0.2371 -0.2617
 8360SOL    MW433208   1.076   1.459   1.436 -0.2602  0.1328 -0.1384
 8361SOL     OW33209   2.551   5.455   4.707  0.3175  0.0373  0.6758
 8361SOL    HW233210   2.622   5.437   4.645  0.2748 -0.4053  0.7588
 8361SOL    HW333211   2.523   5.544   4.684 -0.5011 -0.5489 -0.7445
 8361SOL    MW433212   2.557   5.465   4.696  0.4285 -0.5448 -0.0675
 8362SOL     OW33213   5.479   4.497   0.920  0.2011  0.6498  0.3691
 8362SOL    HW233214   5.462   4.538   0.835  0.6861 -0.7518 -0.4372
 8362SOL    HW333215   5.548   4.433   0.902 -1.2526 -1.2865  1.3251
 8362SOL    MW433216   5.486   4.494   0.906  0.2386 -0.2334 -0.2305
 8363SOL     OW33217   4.281   4.690   5.790  0.1192  0.7615  0.1149
 8363SOL    HW233218   4.254   4.613   5.741 -2.6231  1.5313  0.2244
 8363SOL    HW333219   4.317   4.656   5.872 -0.8750 -0.4307  0.0907
 8363SOL    MW433220   4.282   4.676   5.794  0.4292 -0.2891 -0.0993
 8364SOL     OW33221   0.297   3.987   2.045 -0.2527  0.0786  0.4434
 8364SOL    HW233222   0.346   3.927   1.988 -1.8668  0.0564 -1.0091
 8364SOL    HW333223   0.344   4.069   2.040  1.6632 -0.8453  1.9918
 8364SOL    MW433224   0.310   3.990   2.037 -0.1123  0.6226  0.1990
 8365SOL     OW33225   1.390   1.598   6.355 -0.0732 -0.2997 -0.5459
 8365SOL    HW233226   1.449   1.526   6.376 -1.6712 -2.5524 -3.1048
 8365SOL    HW333227   1.435   1.647   6.286  0.1195 -0.0998 -0.2808
 8365SOL    MW433228   1.404   1.595   6.349  0.1551  0.0666 -0.0343
 8366SOL     OW33229   1.788   3.837   3.649  0.0277 -0.8931  0.3337
 8366SOL    HW233230   1.737   3.788   3.584  0.2669 -0.3895 -0.2427
 8366SOL    HW333231   1.737   3.830   3.730 -1.0698 -0.2327 -0.2702
 8366SOL    MW433232   1.775   3.829   3.651  0.0795 -0.0083 -0.1518
 8367SOL     OW33233   5.008   5.245   4.174  0.2135 -0.1720 -0.0051
 8367SOL    HW233234   5.014   5.197   4.256 -1.1021 -0.8736 -0.3073
 8367SOL    HW333235   4.962   5.187   4.114 -1.2057  1.3424 -0.4559
 8367SOL    MW433236   5.003   5.231   4.177 -0.3335  0.7859  0.3414
 8368SOL     OW33237   4.044   1.348   1.778  0.5604  0.1626 -0.4190
 8368SOL    HW233238   3.990   1.405   1.833  1.9001  1.2092 -0.1465
 8368SOL    HW333239   3.981   1.304   1.720 -0.5561  1.5453 -0.3100
 8368SOL    MW433240   4.029   1.350   1.778  0.0776  0.2422 -0.3922
 8369SOL     OW33241   0.286   5.753   4.496 -0.2826  0.3517 -0.2495
 8369SOL    HW233242   0.248   5.666   4.511 -1.3912  1.0376  1.1752
 8369SOL    HW333243   0.267   5.772   4.404  1.3656 -1.5230 -1.0552
 8369SOL    MW433244   0.278   5.744   4.486 -0.0629 -0.3770 -0.3394
 8370SOL     OW33245   4.330   0.449   0.667 -0.1697 -0.2877  0.1995
 8370SOL    HW233246   4.396   0.403   0.616 -0.7234 -0.5563 -0.2954
 8370SOL    HW333247   4.310   0.528   0.616 -0.2486 -0.2221  0.3301
 8370SOL    MW433248   4.336   0.454   0.653 -0.2336 -0.0002 -0.4576
 8371SOL     OW33249   0.945   0.744   4.222 -0.2366 -0.2087  0.0969
 8371SOL    HW233250   0.864   0.795   4.214  0.0017  0.0077 -1.1471
 8371SOL    HW333251   1.005   0.785   4.160  0.7622 -0.5067  0.8416
 8371SOL    MW433252   0.942   0.756   4.213  0.8570  0.2634 -0.5588
 8372SOL     OW33253   0.964   2.583   1.086 -0.0381 -0.0101  0.1439
 8372SOL    HW233254   0.874   2.574   1.120 -1.1855  1.5591 -2.2672
 8372SOL    HW333255   1.000   2.657   1.134 -0.0018 -0.6164  1.0905
 8372SOL    MW433256   0.957   2.591   1.097  0.1906  0.3213  0.0656
 8373SOL     OW33257   1.552   4.909   0.784 -0.4491  0.1785 -0.0534
 8373SOL    HW233258   1.471   4.956   0.804  0.2587  1.5057 -0.1666
 8373SOL    HW333259   1.564   4.849   0.857 -0.7092  1.1212  0.7872
 8373SOL    MW433260   1.543   4.907   0.796  0.1107 -0.5095  0.2277
 8374SOL     OW33261   3.284   5.585   2.138  0.1433  0.2088 -0.0610
 8374SOL    HW233262   3.329   5.536   2.069 -0.1243  0.0967 -0.1559
 8374SOL    HW333263   3.306   5.676   2.121  0.5468  0.1309  0.0446
 8374SOL    MW433264   3.293   5.590   2.127 -0.1132 -0.4463  0.0976
 8375SOL     OW33265   5.802   5.025   2.757  0.1469 -0.0942 -0.1475
 8375SOL    HW233266   5.802   5.097   2.694  0.0524 -2.9825 -3.7359
 8375SOL    HW333267   5.709   5.008   2.775  0.0272 -0.9636 -1.4553
 8375SOL    MW433268   5.790   5.032   2.751  0.0811 -0.1246 -0.0684
 8376SOL     OW33269   5.340   0.011   3.730 -0.3754 -0.4842 -0.2752
 8376SOL    HW233270   5.286   0.073   3.779 -1.4026 -1.4257 -0.1965
 8376SOL    HW333271   5.310  -0.075   3.759  0.7388 -1.0326 -0.7076
 8376SOL    MW433272   5.329   0.008   3.741 -0.1661  0.1216 -0.0567
 8377SOL     OW33273   6.405   1.754   3.892 -0.0942  0.1740 -0.3203
 8377SOL    HW233274   6.392   1.674   3.942  0.0118  0.1913 -0.2635
 8377SOL    HW333275   6.490   1.786   3.921 -0.4264  0.6565  0.1413
 8377SOL    MW433276   6.415   1.748   3.902 -0.3836  0.1251  0.3087
 8378SOL     OW33277   4.301  -0.016   3.220 -0.8889  0.1846  0.2709
 8378SOL    HW233278   4.352   0.031   3.286 -1.1257  1.4929 -0.4552
 8378SOL    HW333279   4.350  -0.003   3.138 -2.2855  1.3286 -0.4102
 8378SOL    MW433280   4.314  -0.008   3.218  0.2748 -0.1638  0.2556
 8379SOL     OW33281   6.283   3.544   2.663  0.3692 -1.2981  0.3170
 8379SOL    HW233282   6.226   3.468   2.679 -0.0553 -0.4568  3.6260
 8379SOL    HW333283   6.222   3.614   2.639  0.0809 -0.7709  2.4074
 8379SOL    MW433284   6.267   3.543   2.662 -0.5912 -0.6604 -0.2158
 8380SOL     OW33285   2.897   2.831   1.226 -0.4189  0.4302 -0.4540
 8380SOL    HW233286   2.948   2.770   1.173  2.7628  0.1968  2.5006
 8380SOL    HW333287   2.936   2.917   1.209  0.7060  0.3410  1.3670
 8380SOL    MW433288   2.909   2.834   1.217 -0.3233 -0.5057 -0.6265
 8381SOL     OW33289   4.551   2.547   4.166 -0.1935 -0.5924 -0.2796
 8381SOL    HW233290   4.554   2.586   4.253 -2.7260 -0.2230 -0.2691
 8381SOL    HW333291   4.549   2.622   4.106 -1.2133 -0.7551 -0.4710
 8381SOL    MW433292   4.551   2.562   4.169 -0.0312  0.3497  0.9758
 8382SOL     OW33293   2.286   5.044   3.143  0.5143  0.0950  0.1701
 8382SOL    HW233294   2.369   5.019   3.183  0.4444 -0.5192 -0.0537
 8382SOL    HW333295   2.236   4.963   3.138  0.5301  0.1360 -1.1702
 8382SOL    MW433296   2.290   5.030   3.148 -0.3940 -0.0658  0.2895
 8383SOL     OW33297   1.460   4.716   1.792  0.1445 -0.2498  0.1597
 8383SOL    HW233298   1.431   4.757   1.711  0.4464 -2.1574 -0.9626
 8383SOL    HW333299   1.555   4.715   1.787  0.2154  0.4648  1.0078
 8383SOL    MW433300   1.468   4.721   1.781  0.4695 -0.8608  0.2106
 8384SOL     OW33301   2.288   3.885   4.063  0.3813 -0.3036  0.3284
 8384SOL    HW233302   2.208   3.908   4.015  1.3812 -1.2466 -1.9608
 8384SOL    HW333303   2.358   3.895   3.998  1.8256 -1.8254  1.5677
 8384SOL    MW433304   2.286   3.890   4.048 -0.0701 -0.2525  0.0560
 8385SOL     OW33305   1.277   1.930   6.133 -0.3578  0.6616  0.0162
 8385SOL    HW233306   1.220   1.915   6.209 -1.1369  0.0805 -0.6608
 8385SOL    HW333307   1.324   2.011   6.154 -0.6984  0.6113  1.0326
 8385SOL    MW433308   1.275   1.939   6.146 -0.4379  0.2369 -0.3000
 8386SOL     OW33309   0.132   4.471   2.884 -0.7453 -0.4705 -0.4023
 8386SOL    HW233310   0.077   4.548   2.869 -0.8516 -0.7555 -1.6003
 8386SOL    HW333311   0.149   4.472   2.978 -2.3784 -0.0799 -0.0679
 8386SOL    MW433312   0.127   4.481   2.895  0.0579 -1.0981  0.0060
 8387SOL     OW33313   2.523   3.853   6.401 -0.8576 -0.2065  0.7103
 8387SOL    HW233314   2.501   3.766   6.435 -0.5072 -0.6007 -0.0220
 8387SOL    HW333315   2.596   3.882   6.456 -0.9916 -0.3675  0.9760
 8387SOL    MW433316   2.530   3.845   6.413 -0.0883 -0.1360 -0.6179
 8388SOL     OW33317   0.679   0.524   4.041 -0.4346  0.1580 -0.3523
 8388SOL    HW233318   0.669   0.441   3.994  0.1107  0.1308 -0.4278
 8388SOL    HW333319   0.745   0.506   4.108  2.0388  1.3060 -2.3006
 8388SOL    MW433320   0.687   0.510   4.044  0.7960  0.5635  0.4263
 8389SOL     OW33321   2.827   0.022   3.643  0.4574 -0.3195  0.0100
 8389SOL    HW233322   2.748  -0.028   3.664  0.7866 -0.2872  1.3649
 8389SOL    HW333323   2.850  -0.007   3.555 -0.7439 -0.7424 -0.1952
 8389SOL    MW433324   2.819   0.012   3.634 -0.6121  0.2573  0.1158
 8390SOL     OW33325   3.343   4.819   4.352  0.2200  0.4870  0.3885
 8390SOL    HW233326   3.427   4.773   4.352  0.4388  0.8258  1.8965
 8390SOL    HW333327   3.285   4.764   4.405 -0.2567  0.6985  0.0956
 8390SOL    MW433328   3.347   4.806   4.359 -0.0288 -0.0546 -0.0742
 8391SOL     OW33329   0.550   3.177   2.215 -0.0796  0.2739  0.1561
 8391SOL    HW233330   0.490   3.216   2.152  0.3902 -0.9916 -1.1392
 8391SOL    HW333331   0.627   3.234   2.214 -0.0513  0.2269 -0.4646
 8391SOL    MW433332   0.552   3.190   2.207  0.1763  0.4924 -0.1700
 8392SOL     OW33333   4.363   0.224   6.189  0.4190 -0.0491  0.8590
 8392SOL    HW233334   4.419   0.279   6.244 -0.5091 -1.2142  3.0878
 8392SOL    HW333335   4.275   0.261   6.201  0.4183  0.8596 -1.4478
 8392SOL    MW433336   4.359   0.236   6.198 -0.0107  0.1544  0.3035
 8393SOL     OW33337   2.016   0.167   1.495 -0.1622  0.3272 -0.3789
 8393SOL    HW233338   2.003   0.101   1.427  2.0242 -0.1208 -0.4343
 8393SOL    HW333339   2.038   0.246   1.446 -1.2030  0.7149 -0.2496
 8393SOL    MW433340   2.017   0.169   1.479  0.0582 -0.4940 -0.3314
 8394SOL     OW33341   3.426   3.835   4.862 -0.1956 -0.3340  0.0334
 8394SOL    HW233342   3.511   3.794   4.872 -0.3522 -0.7864 -0.4557
 8394SOL    HW333343   3.425   3.865   4.771 -0.7428 -0.7501 -0.0979
 8394SOL    MW433344   3.437   3.834   4.851 -0.0799 -0.4440 -0.4293
 8395SOL     OW33345   4.283   0.695   0.505  0.5639 -0.0965  0.2682
 8395SOL    HW233346   4.231   0.633   0.455  0.1602  1.5172 -1.4341
 8395SOL    HW333347   4.220   0.739   0.562  0.1870  1.1445 -1.0569
 8395SOL    MW433348   4.268   0.693   0.506  0.2464  0.4763 -0.6992
 8396SOL     OW33349   2.325   1.428   3.570 -0.0375 -0.3298 -0.5060
 8396SOL    HW233350   2.401   1.484   3.580  0.4968 -0.6372 -2.5037
 8396SOL    HW333351   2.333   1.363   3.641  0.2843  0.9849  0.7141
 8396SOL    MW433352   2.336   1.426   3.581 -0.4224  0.3884 -0.3399
 8397SOL     OW33353   4.723   2.104   2.508 -0.0721 -0.7793 -0.0312
 8397SOL    HW233354   4.785   2.114   2.580 -0.8506 -0.7556  0.6402
 8397SOL    HW333355   4.778   2.085   2.432  0.7039 -1.5629  0.7051
 8397SOL    MW433356   4.738   2.103   2.507 -0.5446 -0.7312  0.6070
 8398SOL     OW33357   0.801   0.514   5.881 -0.0273  0.1338 -0.1162
 8398SOL    HW233358   0.759   0.493   5.797  0.6367 -0.4797 -0.2985
 8398SOL    HW333359   0.730   0.507   5.945 -0.4088  0.0290 -0.5451
 8398SOL    MW433360   0.786   0.511   5.878  0.6544  0.2853  0.9964
 8399SOL     OW33361   3.836   2.379   4.117  0.0627 -0.4685 -0.0081
 8399SOL    HW233362   3.773   2.429   4.169  2.0916  1.8325  0.4223
 8399SOL    HW333363   3.840   2.293   4.160 -1.2824  0.0175  1.1574
 8399SOL    MW433364   3.828   2.374   4.130 -0.1841  0.2288 -0.1767
 8400SOL     OW33365   2.265   5.124   6.077  0.3865  0.0113  0.4225
 8400SOL    HW233366   2.175   5.154   6.061  0.9123  1.2421 -0.4303
 8400SOL    HW333367   2.279   5.139   6.170 -0.9078 -2.0285  1.0022
 8400SOL    MW433368   2.255   5.130   6.087 -0.3745  0.4818  0.3287
 8401SOL     OW33369   3.544   1.122   5.939 -0.1488 -0.2620  0.2791
 8401SOL    HW233370   3.578   1.034   5.951 -1.0643 -0.4206  1.9143
 8401SOL    HW333371   3.487   1.115   5.862  3.2589  0.0090 -2.5464
 8401SOL    MW433372   3.541   1.110   5.930 -0.5743  0.6559 -0.5195
 8402SOL     OW33373   4.838   5.654   2.146 -0.0066  0.5394 -0.1188
 8402SOL    HW233374   4.901   5.688   2.209 -1.9426  0.2103  2.1930
 8402SOL    HW333375   4.797   5.732   2.109  0.2695  0.7522  0.0186
 8402SOL    MW433376   4.841   5.669   2.150  0.4845  0.1200 -0.9705
 8403SOL     OW33377   4.858   4.473   4.103 -0.6428  0.1520  0.3375
 8403SOL    HW233378   4.801   4.546   4.126 -0.4019  0.6037 -0.4676
 8403SOL    HW333379   4.944   4.498   4.136 -0.7969 -0.3281  1.1476
 8403SOL    MW433380   4.862   4.486   4.110 -0.0085  0.0688  0.2165
 8404SOL     OW33381   1.189   0.020   6.379  0.7033  0.4386 -0.0246
 8404SOL    HW233382   1.274   0.039   6.340  1.0372 -2.1389 -0.6903
 8404SOL    HW333383   1.210  -0.021   6.463  0.2632 -1.8655 -0.9552
 8404SOL    MW433384   1.203   0.017   6.385 -0.0152  0.6665  0.3290
 8405SOL     OW33385   3.648   3.573   2.236  0.6426 -0.3899 -0.0727
 8405SOL    HW233386   3.555   3.580   2.217  1.1171  0.3723 -2.3154
 8405SOL    HW333387   3.653   3.505   2.304 -1.7133  1.2772  1.9321
 8405SOL    MW433388   3.637   3.565   2.243 -0.6969 -0.0012 -0.5900
 8406SOL     OW33389   3.693   5.078   2.806 -0.1971  0.5325  0.0584
 8406SOL    HW233390   3.784   5.049   2.794 -0.7448 -0.5479 -2.1866
 8406SOL    HW333391   3.655   5.071   2.718 -3.3060 -2.1658  1.4096
 8406SOL    MW433392   3.700   5.073   2.793  0.5291 -0.2939  0.0974
 8407SOL     OW33393   5.711   5.134   3.671  0.0233 -0.1256 -0.2164
 8407SOL    HW233394   5.688   5.204   3.610 -0.6241 -0.0159  0.1469
 8407SOL    HW333395   5.773   5.080   3.622  0.2607  0.4954 -0.6291
 8407SOL    MW433396   5.716   5.136   3.656 -0.0533  0.7974 -0.0995
 8408SOL     OW33397   3.348   1.194   0.115  0.1303 -0.3960  0.1149
 8408SOL    HW233398   3.433   1.210   0.155 -0.2785 -1.6009  1.5858
 8408SOL    HW333399   3.286   1.199   0.188 -1.0851  0.4928 -0.9294
 8408SOL    MW433400   3.351   1.196   0.130 -0.0304 -0.2455 -0.2501
 8409SOL     OW33401   3.630   1.396   4.339 -0.4741 -0.7903 -0.1596
 8409SOL    HW233402   3.573   1.448   4.396  0.4597  0.1263 -0.0214
 8409SOL    HW333403   3.589   1.309   4.336 -1.1240 -0.5443  1.0392
 8409SOL    MW433404   3.617   1.391   4.346  0.7532  0.4251  0.5956
 8410SOL     OW33405   0.851   5.875   0.718 -0.1169  0.5203  0.1823
 8410SOL    HW233406   0.930   5.928   0.725  0.4666 -0.2794 -0.2674
 8410SOL    HW333407   0.856   5.814   0.792 -1.2804  1.6923  1.2929
 8410SOL    MW433408   0.862   5.874   0.729  0.6075 -0.0743 -0.0327
 8411SOL     OW33409   2.182   4.892   5.977 -0.2372  0.2873 -0.5158
 8411SOL    HW233410   2.224   4.972   6.010 -0.2171  0.5313 -1.1176
 8411SOL    HW333411   2.254   4.837   5.948 -0.1683 -0.4906  1.0379
 8411SOL    MW433412   2.197   4.895   5.977  0.4109 -0.5011  0.2657
 8412SOL     OW33413   3.721   1.202   3.163  0.6786 -0.5671 -0.0440
 8412SOL    HW233414   3.732   1.118   3.118  1.7340 -0.3286 -0.2554
 8412SOL    HW333415   3.714   1.266   3.092  1.0468 -0.3465  0.1144
 8412SOL    MW433416   3.722   1.199   3.148  0.3291  0.1760  0.3155
 8413SOL     OW33417   6.249   6.358   3.267  0.0715 -0.3590 -0.3316
 8413SOL    HW233418   6.277   6.272   3.299  0.1234 -0.2692 -0.1342
 8413SOL    HW333419   6.331   6.402   3.242  0.1277 -0.0432  0.3757
 8413SOL    MW433420   6.264   6.353   3.268 -0.1860 -0.8070  0.0503
 8414SOL     OW33421   0.162   5.034   3.604  0.2095  0.0823 -0.1254
 8414SOL    HW233422   0.086   5.092   3.611 -0.4055 -0.6897 -0.1999
 8414SOL    HW333423   0.207   5.043   3.688 -0.5681 -0.2499  0.3446
 8414SOL    MW433424   0.158   5.043   3.616  0.2921  0.7283  0.0403
 8415SOL     OW33425   3.501   4.555   3.698  0.2768 -0.0211 -0.8653
 8415SOL    HW233426   3.528   4.468   3.728 -0.3082 -0.2775 -1.0496
 8415SOL    HW333427   3.582   4.597   3.671  0.9421  0.4623  1.6014
 8415SOL    MW433428   3.515   4.549   3.698  0.3966  0.1911 -0.5247
 8416SOL     OW33429   6.064   3.041   0.228 -0.4616  0.2734 -0.0214
 8416SOL    HW233430   6.112   2.992   0.162 -1.1354 -0.4808  0.0287
 8416SOL    HW333431   6.006   3.099   0.179  0.8036  1.5183 -0.0831
 8416SOL    MW433432   6.062   3.042   0.213  0.5044  0.1404 -0.3186
 8417SOL     OW33433   4.161   2.677   2.039  0.2670  0.2423  0.6331
 8417SOL    HW233434   4.137   2.642   2.125 -5.3116  0.5240 -0.4391
 8417SOL    HW333435   4.164   2.600   1.982  2.6639  0.2110  0.6878
 8417SOL    MW433436   4.159   2.662   2.043  0.4214  0.0787 -0.1505
 8418SOL     OW33437   6.003   4.298   0.637 -0.1317  0.5777  0.0509
 8418SOL    HW233438   6.092   4.330   0.653 -0.0755 -0.2016  1.5113
 8418SOL    HW333439   6.001   4.211   0.678 -0.9236 -0.3631 -1.8776
 8418SOL    MW433440   6.014   4.291   0.645  0.8597 -0.7733  0.3246
 8419SOL     OW33441   2.043   3.773   1.618  0.1530  0.3662 -0.2482
 8419SOL    HW233442   1.964   3.726   1.644  0.3484  1.3056  2.3661
 8419SOL    HW333443   2.112   3.707   1.618 -0.3091 -0.1314 -0.8813
 8419SOL    MW433444   2.042   3.758   1.621 -0.2346 -0.5880 -0.6033
 8420SOL     OW33445   1.656   4.568   1.479 -0.1988  0.4620  0.3130
 8420SOL    HW233446   1.734   4.534   1.524 -0.5124 -2.1429 -0.9171
 8420SOL    HW333447   1.582   4.527   1.524 -0.7431  1.1230  0.0369
 8420SOL    MW433448   1.657   4.558   1.491  0.8988  0.2702 -0.0293
 8421SOL     OW33449   5.070   4.626   5.070 -0.2186  0.6834 -0.1044
 8421SOL    HW233450   5.081   4.576   4.989 -2.4948  0.6043 -0.4073
 8421SOL    HW333451   5.145   4.686   5.071  0.3854  0.0168 -1.7610
 8421SOL    MW433452   5.082   4.627   5.060  0.6773  0.2492 -0.3015
 8422SOL     OW33453   1.938   2.558   0.344 -1.0063  0.1491 -0.5087
 8422SOL    HW233454   1.880   2.494   0.384 -1.3586  1.7366  1.7564
 8422SOL    HW333455   2.021   2.511   0.331 -0.5299 -0.3418  3.1506
 8422SOL    MW433456   1.942   2.543   0.348 -0.2527 -0.3351  0.0479
 8423SOL     OW33457   6.377   4.008   2.176  0.0956 -0.3755 -0.3531
 8423SOL    HW233458   6.419   4.094   2.181 -0.7633  0.2061 -2.1817
 8423SOL    HW333459   6.286   4.027   2.153 -1.1386 -1.6287  2.9012
 8423SOL    MW433460   6.370   4.022   2.174  0.1738 -0.6429  0.1732
 8424SOL     OW33461   5.309   2.615   0.907 -0.4833 -0.3510  0.7496
 8424SOL    HW233462   5.374   2.548   0.926 -1.4134 -0.7234  2.9200
 8424SOL    HW333463   5.279   2.596   0.818  0.6938 -1.5838  0.5988
 8424SOL    MW433464   5.313   2.603   0.898 -0.5912  0.3562  0.2778
 8425SOL     OW33465   0.766   2.948   4.991  0.1855 -0.2147 -0.3288
 8425SOL    HW233466   0.783   3.028   5.040 -0.3632 -0.8029  0.8541
 8425SOL    HW333467   0.670   2.938   4.993  0.1776 -0.4655 -1.1815
 8425SOL    MW433468   0.755   2.957   4.998 -0.5626 -0.4004 -0.3753
 8426SOL     OW33469   2.081   2.992   4.768  0.1555  0.1506 -0.2745
 8426SOL    HW233470   2.108   2.944   4.847 -1.1588  0.5180  0.4326
 8426SOL    HW333471   2.157   3.044   4.744  0.1707  1.0330  1.5436
 8426SOL    MW433472   2.094   2.992   4.775 -0.3661  0.9836 -0.0980
 8427SOL     OW33473   6.429   2.767   5.294 -1.0101  0.3302  0.3053
 8427SOL    HW233474   6.369   2.752   5.221 -0.3156  2.1937 -0.6979
 8427SOL    HW333475   6.374   2.804   5.363 -1.9292 -2.6124  1.3150
 8427SOL    MW433476   6.414   2.770   5.294  0.6201 -0.2111  0.0980
 8428SOL     OW33477   4.279   2.270   4.463 -0.1322 -0.2135 -0.1879
 8428SOL    HW233478   4.340   2.200   4.438  1.7065  1.8417 -1.9204
 8428SOL    HW333479   4.222   2.281   4.387  0.4831  1.0085 -0.5040
 8428SOL    MW433480   4.280   2.262   4.450 -0.3033  0.6685 -0.2427
 8429SOL     OW33481   1.193   0.353   5.516 -0.2094 -0.4575 -0.5007
 8429SOL    HW233482   1.173   0.398   5.598  1.6290 -1.1725  0.3767
 8429SOL    HW333483   1.211   0.424   5.454 -3.3414  0.1668 -0.8695
 8429SOL    MW433484   1.193   0.369   5.519  0.3822 -0.0023 -0.2033
 8430SOL     OW33485   6.363   5.758   3.097  0.1977 -0.4408 -0.0458
 8430SOL    HW233486   6.430   5.721   3.038  0.7620  0.2058  0.1700
 8430SOL    HW333487   6.395   5.846   3.116 -0.5569 -0.2450  0.3387
 8430SOL    MW433488   6.376   5.764   3.092  0.4421  0.2541 -0.1000
 8431SOL     OW33489   4.954   2.762   5.042  0.0099 -0.3288 -0.8139
 8431SOL    HW233490   4.859   2.760   5.030 -0.3826  3.2493  0.5505
 8431SOL    HW333491   4.967   2.734   5.133 -0.1625  2.3913  0.1179
 8431SOL    MW433492   4.943   2.758   5.053  0.9128  0.1843  0.7074
 8432SOL     OW33493   4.981   2.474   1.059  0.0446  0.0481  0.2174
 8432SOL    HW233494   4.974   2.522   0.977  0.2476  0.8528  0.6576
 8432SOL    HW333495   5.063   2.504   1.098 -0.1773 -0.1256  0.8392
 8432SOL    MW433496   4.991   2.484   1.053 -0.3310  0.2041  0.0441
 8433SOL     OW33497   2.488   3.398   2.526 -0.8021 -0.0247  0.3164
 8433SOL    HW233498   2.554   3.463   2.550 -0.1685 -0.5032 -0.0756
 8433SOL    HW333499   2.505   3.324   2.584 -1.0655 -0.1141  0.2813
 8433SOL    MW433500   2.499   3.397   2.537 -0.1493 -0.3286  0.0793
 8434SOL     OW33501   6.219   5.444   1.480 -0.0432  0.4611 -0.4216
 8434SOL    HW233502   6.156   5.495   1.428  1.2316  1.9463 -0.5957
 8434SOL    HW333503   6.286   5.508   1.504  2.3055 -1.4028 -1.6957
 8434SOL    MW433504   6.219   5.459   1.476  0.8198  0.5412  0.0040
 8435SOL     OW33505   4.073   3.064   5.123  0.1370 -0.2313 -0.5160
 8435SOL    HW233506   4.006   3.132   5.112 -2.2741 -2.5654 -1.2644
 8435SOL    HW333507   4.089   3.062   5.218 -1.1275  0.1656 -0.2651
 8435SOL    MW433508   4.066   3.073   5.134  0.0033  0.2392 -0.0793
 8436SOL     OW33509   0.448   5.136   0.083  0.2968  0.1159  0.0392
 8436SOL    HW233510   0.390   5.120   0.158  0.0394 -0.7921 -0.3474
 8436SOL    HW333511   0.396   5.112   0.007  0.1808  2.0284 -0.5396
 8436SOL    MW433512   0.433   5.131   0.083  0.0392  0.2791  0.2962
 8437SOL     OW33513   2.513   3.920   5.653  0.4628  0.0120  0.0837
 8437SOL    HW233514   2.470   3.883   5.576 -0.2931 -0.6188  0.7974
 8437SOL    HW333515   2.540   3.844   5.705  1.4580  0.4138  0.1969
 8437SOL    MW433516   2.511   3.905   5.650 -0.4342 -0.2390 -0.0483
 8438SOL     OW33517   2.814   5.354   3.101  0.0919  0.2771 -0.1045
 8438SOL    HW233518   2.898   5.357   3.147 -0.1926 -1.8851  0.6734
 8438SOL    HW333519   2.838   5.350   3.009  0.8902 -0.7459  0.1266
 8438SOL    MW433520   2.829   5.354   3.095  0.6150  0.7375  0.5887
 8439SOL     OW33521   0.244   5.030   1.508 -0.5559  0.2310 -0.5054
 8439SOL    HW233522   0.287   5.082   1.577  0.8629 -3.5606  1.7548
 8439SOL    HW333523   0.311   5.023   1.440  0.2399 -0.6891  0.3377
 8439SOL    MW433524   0.259   5.036   1.508 -0.2283 -0.0177  0.2612
 8440SOL     OW33525   0.977   0.032   0.272  0.5446  0.0760 -0.3725
 8440SOL    HW233526   0.962  -0.062   0.258 -0.7325 -0.2175  2.3056
 8440SOL    HW333527   0.894   0.064   0.305  1.8846  1.4243  1.9152
 8440SOL    MW433528   0.964   0.024   0.274 -0.0981 -0.1840  0.2934
 8441SOL     OW33529   3.600   6.170   3.285  0.6046 -0.0205 -0.1714
 8441SOL    HW233530   3.657   6.216   3.224 -1.3255 -0.5290 -2.4924
 8441SOL    HW333531   3.522   6.150   3.235 -1.0775 -0.5869  2.4747
 8441SOL    MW433532   3.597   6.174   3.270  0.0860 -0.4360  0.2849
 8442SOL     OW33533   4.052   0.611   4.676 -0.3371 -0.0452  0.4364
 8442SOL    HW233534   3.956   0.619   4.678 -0.2807  0.9232  0.0560
 8442SOL    HW333535   4.071   0.534   4.728 -1.2680  0.4077  1.4905
 8442SOL    MW433536   4.042   0.602   4.683 -0.3453 -0.6639  0.1069
 8443SOL     OW33537   1.677   1.991   2.480 -0.3679 -0.0857  0.2292
 8443SOL    HW233538   1.630   2.064   2.520 -1.1847  0.0106 -0.8646
 8443SOL    HW333539   1.769   2.010   2.495 -0.6412  0.0478  1.8648
 8443SOL    MW433540   1.683   2.003   2.487  0.0805  0.1887 -0.1929
 8444SOL     OW33541   0.073   2.426   5.914 -0.4925  0.1452 -0.3739
 8444SOL    HW233542   0.026   2.509   5.915 -1.6807 -0.4528 -1.5381
 8444SOL    HW333543   0.147   2.440   5.855  0.5015  0.9352  1.0234
 8444SOL    MW433544   0.076   2.439   5.906  0.4385 -0.0710 -0.3302
 8445SOL     OW33545   1.023   0.649   6.312  0.4297 -0.9394  0.6315
 8445SOL    HW233546   1.055   0.579   6.254 -0.2806 -1.5024  0.9124
 8445SOL    HW333547   0.929   0.651   6.298  0.2797 -0.9005  1.5685
 8445SOL    MW433548   1.015   0.640   6.302 -0.2045  0.3216 -0.0191
 8446SOL     OW33549   4.089   2.489   6.391  0.2952  0.0426  0.3322
 8446SOL    HW233550   4.004   2.534   6.385  0.6147  0.9230  1.7804
 8446SOL    HW333551   4.093   2.435   6.313 -1.2688  0.5713 -0.1599
 8446SOL    MW433552   4.078   2.488   6.380 -0.4067  0.3647  0.6499
 8447SOL     OW33553   4.363   4.492   2.569 -0.2179 -0.3271  0.9882
 8447SOL    HW233554   4.320   4.576   2.584 -1.4981 -0.6467 -0.6712
 8447SOL    HW333555   4.448   4.515   2.532 -1.1898  0.2606 -0.9905
 8447SOL    MW433556   4.369   4.506   2.566  0.7486 -0.3360 -0.2724
 8448SOL     OW33557   6.257   2.481   4.629 -0.0590 -0.5949 -0.3576
 8448SOL    HW233558   6.286   2.398   4.591  0.3470 -0.7711  0.3128
 8448SOL    HW333559   6.257   2.542   4.556  0.2509 -1.0365 -0.7331
 8448SOL    MW433560   6.261   2.478   4.615 -0.1682  0.1847 -0.0378
 8449SOL     OW33561   3.457   3.949   2.194 -0.1386 -0.2606 -0.0410
 8449SOL    HW233562   3.449   3.940   2.099 -0.1363  1.9638 -0.3227
 8449SOL    HW333563   3.368   3.935   2.227 -0.6776  1.3542 -0.6769
 8449SOL    MW433564   3.444   3.946   2.186 -0.6296 -0.3698 -0.0627
 8450SOL     OW33565   5.981   0.345   5.341 -0.1653  0.3395  0.6992
 8450SOL    HW233566   6.044   0.412   5.369  0.3341  0.2872 -0.2543
 8450SOL    HW333567   5.914   0.394   5.293  0.1762  0.1760  0.0420
 8450SOL    MW433568   5.981   0.361   5.339  0.2674 -0.2838 -0.2785
 8451SOL     OW33569   2.394   6.016   3.498 -0.3042  0.1612  0.7569
 8451SOL    HW233570   2.385   6.082   3.567 -2.4077  1.3057 -0.5117
 8451SOL    HW333571   2.332   6.043   3.431  1.5637 -0.9765 -1.5754
 8451SOL    MW433572   2.385   6.028   3.499  0.1033 -0.5060 -0.3488
 8452SOL     OW33573   3.082   1.508   1.586 -0.4895 -0.0338  0.1962
 8452SOL    HW233574   3.137   1.534   1.659 -1.0974  2.5363 -0.1691
 8452SOL    HW333575   2.998   1.550   1.604 -1.1616 -0.7412 -1.1635
 8452SOL    MW433576   3.078   1.517   1.598 -0.0632  0.3691 -0.2102
 8453SOL     OW33577   1.845   5.721   0.556 -0.0864  0.4928  0.8386
 8453SOL    HW233578   1.818   5.632   0.578  3.1745 -0.3164  2.0648
 8453SOL    HW333579   1.783   5.777   0.604 -2.8144 -0.9630 -0.7170
 8453SOL    MW433580   1.833   5.717   0.565 -0.0080 -0.2370 -0.2301
 8454SOL     OW33581   0.754   4.505   2.253 -0.2351  0.0268 -0.3077
 8454SOL    HW233582   0.746   4.514   2.158  0.4727  0.3016 -0.3521
 8454SOL    HW333583   0.808   4.579   2.280 -0.9124  0.2827  0.3958
 8454SOL    MW433584   0.760   4.516   2.244  0.0766  0.1684 -0.3530
 8455SOL     OW33585   0.831   3.870   0.639 -0.4570 -0.4027 -0.2639
 8455SOL    HW233586   0.909   3.815   0.626  0.3693  1.1499 -2.6164
 8455SOL    HW333587   0.866   3.955   0.668 -1.1108  0.5997 -2.2441
 8455SOL    MW433588   0.846   3.874   0.641  0.6800 -0.1836  0.4133
 8456SOL     OW33589   1.613   1.798   5.333 -0.1865  0.5264  0.1946
 8456SOL    HW233590   1.524   1.765   5.324 -0.1089  0.0574  1.0387
 8456SOL    HW333591   1.629   1.799   5.428  0.6576  0.7398  0.0623
 8456SOL    MW433592   1.604   1.794   5.345  0.0451 -0.4971  0.2105
 8457SOL     OW33593   5.854   0.672   3.125 -0.4511 -0.3947 -0.6889
 8457SOL    HW233594   5.842   0.726   3.203 -0.7555  0.3595 -1.2425
 8457SOL    HW333595   5.793   0.709   3.060  1.2566  0.3311 -1.9558
 8457SOL    MW433596   5.844   0.684   3.126  0.2625  0.1350 -0.2803
 8458SOL     OW33597   0.619   5.435   5.620 -0.1422 -0.1390 -0.7175
 8458SOL    HW233598   0.673   5.514   5.619  0.4635 -0.5501 -1.7275
 8458SOL    HW333599   0.532   5.465   5.646  0.6178  0.4929  1.3386
 8458SOL    MW433600   0.615   5.449   5.624 -0.0643  0.4746  0.1009
 8459SOL     OW33601   2.587   3.353   0.961 -0.8253 -0.5131  0.0968
 8459SOL    HW233602   2.509   3.316   0.920  0.5174 -2.8035 -0.5133
 8459SOL    HW333603   2.627   3.406   0.893  0.4028 -2.8159 -1.0753
 8459SOL    MW433604   2.582   3.355   0.947  0.2495 -0.5634 -0.0828
 8460SOL     OW33605   6.066   1.145   1.973 -0.1114 -0.7842 -0.1112
 8460SOL    HW233606   6.157   1.139   2.002  0.0159  0.1628 -0.2700
 8460SOL    HW333607   6.065   1.104   1.887  0.5389  0.6994 -0.8562
 8460SOL    MW433608   6.078   1.139   1.966  0.1466 -0.1810  0.4143
 8461SOL     OW33609   0.083   3.972   3.065 -0.6698  0.3251  0.0121
 8461SOL    HW233610   0.058   4.029   3.137  1.6310  0.8927  0.4189
 8461SOL    HW333611   0.059   4.020   2.986  0.2058  1.3723  0.3677
 8461SOL    MW433612   0.076   3.986   3.064 -0.2863 -0.3918  0.5940
 8462SOL     OW33613   6.020   2.100   0.552  0.1944 -0.0896  0.2366
 8462SOL    HW233614   6.110   2.113   0.581 -0.0649  1.7995  0.2748
 8462SOL    HW333615   5.985   2.034   0.612  0.9973  0.5139  1.4074
 8462SOL    MW433616   6.027   2.093   0.563  0.5481 -0.2297  0.8542
 8463SOL     OW33617   3.043   4.455   5.028 -0.5382  0.4095  0.3160
 8463SOL    HW233618   2.978   4.525   5.030 -0.7975  0.2113 -0.7718
 8463SOL    HW333619   3.045   4.426   4.937 -0.3366 -0.9135  0.7221
 8463SOL    MW433620   3.035   4.460   5.016 -0.0107 -0.4968 -0.0724
 8464SOL     OW33621   6.052   4.443   0.093 -0.2178 -0.0016 -0.3650
 8464SOL    HW233622   6.140   4.409   0.076 -0.2045  0.1705 -0.6452
 8464SOL    HW333623   6.044   4.443   0.189  0.8181  1.7915 -0.2243
 8464SOL    MW433624   6.062   4.439   0.104  0.0053 -0.3539 -0.0808
 8465SOL     OW33625   1.215   0.069   5.284 -0.5533  0.1174  0.4218
 8465SOL    HW233626   1.224   0.153   5.239 -1.3226 -1.1065 -2.2056
 8465SOL    HW333627   1.146   0.083   5.349  1.0878  2.1413  1.8843
 8465SOL    MW433628   1.207   0.082   5.287 -0.1117 -0.6072 -0.3475
 8466SOL     OW33629   1.455   2.548   2.825  0.4739 -0.7276 -0.5157
 8466SOL    HW233630   1.398   2.609   2.871  0.2593 -1.9349  0.8907
 8466SOL    HW333631   1.453   2.577   2.733 -0.7044  0.5085 -0.1222
 8466SOL    MW433632   1.447   2.560   2.819 -0.2608 -0.7498  0.1869
 8467SOL     OW33633   5.191   4.636   3.841 -0.0372  0.2598 -0.2630
 8467SOL    HW233634   5.144   4.632   3.758  1.1506  0.1460 -0.9607
 8467SOL    HW333635   5.283   4.628   3.816  0.2976 -0.6183  1.1377
 8467SOL    MW433636   5.197   4.634   3.827 -0.0754 -0.0738  0.0966
 8468SOL     OW33637   5.562   3.031   4.304 -0.3207 -0.5201  0.3717
 8468SOL    HW233638   5.562   3.035   4.208  2.8216  0.2696  0.3129
 8468SOL    HW333639   5.567   2.937   4.324  0.0641 -0.6359 -0.2549
 8468SOL    MW433640   5.563   3.019   4.294  0.4901  0.5781  0.2287
 8469SOL     OW33641   3.290   0.180   3.097 -1.0344 -0.3280 -0.1803
 8469SOL    HW233642   3.375   0.211   3.128 -2.4895  1.7124  2.1097
 8469SOL    HW333643   3.297   0.085   3.099  1.8616 -0.2967 -2.2836
 8469SOL    MW433644   3.302   0.172   3.101 -0.1029 -0.6844  0.0834
 8470SOL     OW33645   5.353   0.849   2.497 -0.2213  0.0461 -0.2545
 8470SOL    HW233646   5.335   0.942   2.491 -0.7991 -0.1032 -0.9494
 8470SOL    HW333647   5.272   0.807   2.469  0.7859 -0.6539 -2.2687
 8470SOL    MW433648   5.340   0.856   2.493  0.0169  0.2140 -0.2352
 8471SOL     OW33649   4.233   2.287   0.144  0.5101  0.1476  0.3022
 8471SOL    HW233650   4.212   2.193   0.150 -0.5248  0.3397 -0.0283
 8471SOL    HW333651   4.152   2.327   0.114  1.0409  1.1193  0.1346
 8471SOL    MW433652   4.219   2.280   0.141 -0.1638  0.0734  0.9989
 8472SOL     OW33653   6.196   0.578   2.087  0.2249  0.1581  0.2777
 8472SOL    HW233654   6.269   0.633   2.057  1.0206 -0.0066  1.7846
 8472SOL    HW333655   6.128   0.589   2.021  2.0066 -0.5685 -1.8083
 8472SOL    MW433656   6.197   0.587   2.075 -0.1574 -0.0347  0.7123
 8473SOL     OW33657   1.612   5.953   4.193 -0.1695 -0.2830 -0.1729
 8473SOL    HW233658   1.560   5.962   4.273 -0.1063 -0.5905 -0.0948
 8473SOL    HW333659   1.573   5.877   4.148  0.4724 -0.7758  0.0903
 8473SOL    MW433660   1.600   5.944   4.198 -0.5145 -0.1288  0.0652
 8474SOL     OW33661   6.266   2.029   1.292  0.4525  0.1058 -0.3874
 8474SOL    HW233662   6.225   2.023   1.205 -1.1257  1.8650  0.1829
 8474SOL    HW333663   6.341   2.087   1.279  0.7260 -0.3104 -0.7183
 8474SOL    MW433664   6.271   2.036   1.279  0.0830 -0.9082  0.3831
 8475SOL     OW33665   2.238   3.853   4.887 -0.3571  0.0440  0.8395
 8475SOL    HW233666   2.322   3.810   4.870 -0.7113 -0.5155  0.4814
 8475SOL    HW333667   2.256   3.947   4.875 -0.5173 -0.2526 -2.5324
 8475SOL    MW433668   2.252   3.860   4.884 -0.4825 -0.0598 -0.8138
 8476SOL     OW33669   6.297   5.331   6.224 -0.3259  0.2991  0.4122
 8476SOL    HW233670   6.227   5.283   6.269 -1.0431 -0.6699 -1.5814
 8476SOL    HW333671   6.277   5.319   6.131  0.9837  2.3217 -0.1869
 8476SOL    MW433672   6.285   5.323   6.218 -0.1006  0.3569 -0.0051
 8477SOL     OW33673   4.825   3.545   1.933  0.0968 -0.1705  0.2955
 8477SOL    HW233674   4.872   3.609   1.879 -1.0631  1.2527  0.8874
 8477SOL    HW333675   4.737   3.581   1.939 -0.0093 -0.7036  2.4678
 8477SOL    MW433676   4.820   3.558   1.926 -0.4431 -0.4318  0.5475
 8478SOL     OW33677   1.328   6.293   0.521 -0.1461 -0.3845 -0.1773
 8478SOL    HW233678   1.253   6.350   0.507  0.0962  0.0997  0.4535
 8478SOL    HW333679   1.302   6.208   0.484 -1.9714 -0.9675  2.2339
 8478SOL    MW433680   1.315   6.289   0.514  0.1523  0.0865 -0.0916
 8479SOL     OW33681   4.185   6.112   3.080 -0.1202  0.0094 -0.3536
 8479SOL    HW233682   4.148   6.195   3.109 -1.6916 -0.4122 -1.0447
 8479SOL    HW333683   4.270   6.106   3.125  0.8516  2.7834 -1.5997
 8479SOL    MW433684   4.191   6.122   3.090 -0.1920  0.4921 -0.4244
 8480SOL     OW33685   6.335   3.126   5.260 -0.3053 -0.1106  0.2698
 8480SOL    HW233686   6.323   3.035   5.287  2.6873 -0.4336  0.8879
 8480SOL    HW333687   6.426   3.129   5.228 -0.4518  2.5775 -0.0665
 8480SOL    MW433688   6.346   3.114   5.260 -0.4068  0.0943 -0.1071
 8481SOL     OW33689   3.731   4.441   5.672  0.1243 -0.6347  0.0679
 8481SOL    HW233690   3.808   4.384   5.681  0.2620 -0.2116  2.2984
 8481SOL    HW333691   3.764   4.518   5.627  1.0905 -0.4143  1.0789
 8481SOL    MW433692   3.746   4.444   5.668 -0.3891 -0.0107 -0.0895
 8482SOL     OW33693   4.788   5.221   6.147  0.5849  0.1842 -0.1700
 8482SOL    HW233694   4.863   5.195   6.201  1.8891  0.0785 -1.9224
 8482SOL    HW333695   4.767   5.143   6.097 -0.2637  0.4225 -0.1915
 8482SOL    MW433696   4.795   5.208   6.148 -0.1344 -0.0300 -0.4966
 8483SOL     OW33697   1.168   4.102   4.132  0.2119  0.3766 -0.4449
 8483SOL    HW233698   1.097   4.077   4.191 -0.9984  1.3848 -1.4004
 8483SOL    HW333699   1.154   4.049   4.054  2.0557 -1.2558  0.2764
 8483SOL    MW433700   1.156   4.092   4.130  0.1516  0.2542 -0.3206
 8484SOL     OW33701   0.463   2.879   5.039 -0.1851 -0.1536  0.1331
 8484SOL    HW233702   0.409   2.850   5.112  0.4887 -0.3363  0.5616
 8484SOL    HW333703   0.461   2.806   4.977 -1.3246  0.2733 -0.3587
 8484SOL    MW433704   0.456   2.866   5.040  0.2297 -0.2527 -0.2319
 8485SOL     OW33705   2.896   0.042   4.232 -0.1436  0.1268  0.0614
 8485SOL    HW233706   2.957   0.116   4.236 -0.9660  0.8221  0.1231
 8485SOL    HW333707   2.926  -0.010   4.158  0.5604  0.4175  0.1313
 8485SOL    MW433708   2.908   0.045   4.223 -0.4853  0.0128  1.0935
 8486SOL     OW33709   5.153   3.142   3.982  0.0452 -0.4364  0.2731
 8486SOL    HW233710   5.217   3.136   3.911 -0.5235 -0.1034 -0.2820
 8486SOL    HW333711   5.194   3.198   4.048 -0.8641  2.5083 -1.4547
 8486SOL    MW433712   5.167   3.149   3.982  0.2735 -0.1751 -0.0240
 8487SOL     OW33713   4.156   2.550   1.082 -0.0002  0.1612 -0.0983
 8487SOL    HW233714   4.201   2.502   1.013  1.3646 -1.7038  1.9362
 8487SOL    HW333715   4.064   2.551   1.056  0.1122 -2.5516 -0.8412
 8487SOL    MW433716   4.150   2.544   1.070 -0.1644  0.2063  0.1206
 8488SOL     OW33717   3.769   2.969   4.290 -0.1048 -0.0679 -0.0729
 8488SOL    HW233718   3.686   3.018   4.293  0.5431  1.0511 -0.0210
 8488SOL    HW333719   3.753   2.893   4.346 -0.2396  1.5171  2.1894
 8488SOL    MW433720   3.756   2.966   4.298 -0.4598 -0.5839 -0.3825
 8489SOL     OW33721   3.220   4.506   1.800 -0.5707  0.3488 -0.1806
 8489SOL    HW233722   3.282   4.555   1.855 -1.1926 -1.3182  2.1044
 8489SOL    HW333723   3.134   4.536   1.828 -0.8971 -0.0882 -0.7023
 8489SOL    MW433724   3.217   4.517   1.811 -0.3679 -0.0303  0.1078
 8490SOL     OW33725   6.405   4.013   1.396 -0.1963 -0.0211  0.0014
 8490SOL    HW233726   6.392   4.070   1.472  0.3911 -0.3620  0.3688
 8490SOL    HW333727   6.347   3.939   1.411 -1.0468  0.5261 -0.5340
 8490SOL    MW433728   6.396   4.011   1.408  0.4558 -0.1466  0.2708
 8491SOL     OW33729   2.687   2.235   4.741 -0.1419  0.2752 -0.3200
 8491SOL    HW233730   2.620   2.294   4.705  1.2607  0.9773 -1.9147
 8491SOL    HW333731   2.708   2.272   4.827 -1.8982 -0.0771  0.3074
 8491SOL    MW433732   2.681   2.248   4.748  0.5794  0.2760  0.3359
 8492SOL     OW33733   1.721   1.170   4.333 -0.0405  0.2435 -0.4661
 8492SOL    HW233734   1.762   1.242   4.285  0.3843  2.0696  2.3690
 8492SOL    HW333735   1.795   1.122   4.371 -0.2856  1.6052  1.9864
 8492SOL    MW433736   1.736   1.173   4.332  0.1540 -0.1863  0.4116
 8493SOL     OW33737   2.553   4.868   6.099  0.2341 -0.0040 -0.1423
 8493SOL    HW233738   2.463   4.842   6.119  0.5434 -0.7174  0.3749
 8493SOL    HW333739   2.577   4.814   6.024  0.4839 -0.3684  0.1977
 8493SOL    MW433740   2.544   4.857   6.092 -0.3277  0.3759 -0.3780
 8494SOL     OW33741   4.943   3.960   3.620 -0.0370  0.5649 -0.5161
 8494SOL    HW233742   5.025   3.911   3.632  1.1347  2.1135 -1.7433
 8494SOL    HW333743   4.880   3.915   3.676  1.7516 -0.4345  0.8138
 8494SOL    MW433744   4.945   3.948   3.629  0.0163  0.6945  0.2557
 8495SOL     OW33745   4.448   6.091   3.205  0.2690 -0.1707 -0.6666
 8495SOL    HW233746   4.458   6.127   3.294 -0.5678  1.0047 -1.0177
 8495SOL    HW333747   4.425   5.999   3.219  0.0808  0.0100  0.3361
 8495SOL    MW433748   4.446   6.084   3.219  0.9165  0.5738  0.0512
 8496SOL     OW33749   3.689   2.942   5.013  0.0942  0.6610 -0.3640
 8496SOL    HW233750   3.653   2.979   5.094  1.1657  0.1549  0.3774
 8496SOL    HW333751   3.648   2.855   5.007  0.9419  0.1962  0.3298
 8496SOL    MW433752   3.679   2.935   5.023  0.0183 -0.3077 -0.1075
 8497SOL     OW33753   4.117   3.234   3.990 -0.2035 -0.1697 -0.6334
 8497SOL    HW233754   4.043   3.253   3.933 -1.6989  1.1220  1.5937
 8497SOL    HW333755   4.092   3.156   4.039 -0.4723  0.6644  0.6253
 8497SOL    MW433756   4.104   3.226   3.989 -0.1086  0.0621 -0.1991
 8498SOL     OW33757   5.219   1.449   1.045  0.3086  0.4789 -0.0078
 8498SOL    HW233758   5.267   1.467   0.964  0.2905  0.8098  0.0522
 8498SOL    HW333759   5.134   1.416   1.016  0.6148 -0.2247 -0.1133
 8498SOL    MW433760   5.214   1.447   1.030 -0.0517 -0.1344 -0.6159
 8499SOL     OW33761   4.782   1.599   3.651  0.1774  0.0435 -0.4741
 8499SOL    HW233762   4.705   1.556   3.688  0.7279  0.0534  0.7346
 8499SOL    HW333763   4.748   1.657   3.582 -1.0154  0.9119  0.8132
 8499SOL    MW433764   4.768   1.601   3.646  0.3306 -0.0508  0.1746
 8500SOL     OW33765   5.931   0.114   0.659 -0.3405 -0.1922  0.1256
 8500SOL    HW233766   6.004   0.071   0.703  0.2102 -0.5148 -1.0563
 8500SOL    HW333767   5.920   0.064   0.578 -0.6301  1.0097 -0.5971
 8500SOL    MW433768   5.939   0.102   0.654 -0.5294  0.0688  0.5411
 8501SOL     OW33769   1.184   3.124   3.289  0.2063 -0.4542 -0.2357
 8501SOL    HW233770   1.228   3.199   3.250  1.5585 -1.0257  0.1007
 8501SOL    HW333771   1.145   3.078   3.215  2.1756 -1.1657 -0.8965
 8501SOL    MW433772   1.185   3.128   3.274 -0.3236 -0.4184  0.0060
 8502SOL     OW33773   3.825   3.967   3.540  0.4317 -0.2418  0.1779
 8502SOL    HW233774   3.752   3.964   3.477  1.2444 -0.1290 -0.7999
 8502SOL    HW333775   3.783   3.968   3.626 -0.6926 -1.3711 -0.3306
 8502SOL    MW433776   3.810   3.967   3.543  0.5003  0.6893 -0.1667
 8503SOL     OW33777   2.075   1.583   3.824  0.2512 -0.4136 -0.3194
 8503SOL    HW233778   2.115   1.600   3.738 -0.5202  0.3298 -0.5512
 8503SOL    HW333779   2.087   1.489   3.838  0.7830 -0.4630 -1.0438
 8503SOL    MW433780   2.081   1.573   3.814  0.1840 -0.0377  0.1127
 8504SOL     OW33781   2.620   2.903   1.667 -0.5190  0.3509  0.0284
 8504SOL    HW233782   2.596   2.831   1.725  0.8005 -1.6820 -1.7630
 8504SOL    HW333783   2.644   2.860   1.585  0.6367  2.8376 -1.0470
 8504SOL    MW433784   2.620   2.888   1.664  0.3406  0.3309 -0.3603
 8505SOL     OW33785   4.006   3.332   3.446 -0.0403 -0.2700  0.3907
 8505SOL    HW233786   4.062   3.338   3.368  1.0153 -3.2834  0.7847
 8505SOL    HW333787   3.927   3.288   3.415 -0.9635  1.2745  0.4595
 8505SOL    MW433788   4.003   3.327   3.432 -0.6001  0.2466  0.3746
 8506SOL     OW33789   2.707   5.001   0.105 -0.2082 -0.3317  0.6787
 8506SOL    HW233790   2.678   4.928   0.160 -0.3817  1.0972  2.6133
 8506SOL    HW333791   2.629   5.053   0.091  0.3223  0.6446  1.2319
 8506SOL    MW433792   2.693   4.998   0.110 -0.1056 -0.2625  0.3852
 8507SOL     OW33793   5.797   0.333   6.115 -0.1356  0.0427  0.2760
 8507SOL    HW233794   5.763   0.244   6.107  0.6420 -0.4211  1.7030
 8507SOL    HW333795   5.786   0.372   6.028 -2.0411 -0.8673  0.0690
 8507SOL    MW433796   5.791   0.327   6.103  0.2192 -0.0506  0.2339
 8508SOL     OW33797   2.644   4.395   0.174 -0.5589 -0.7875 -0.3437
 8508SOL    HW233798   2.577   4.457   0.144 -0.1604  0.0591  0.4484
 8508SOL    HW333799   2.604   4.349   0.247 -0.3341 -0.3717  0.0479
 8508SOL    MW433800   2.630   4.397   0.180  0.4772  0.1318  0.0707
 8509SOL     OW33801   1.894   0.831   5.054  0.2334  0.2169  0.2592
 8509SOL    HW233802   1.875   0.800   4.966  1.0187  0.3503  0.0363
 8509SOL    HW333803   1.935   0.757   5.098  1.2203  0.6072  0.0296
 8509SOL    MW433804   1.897   0.817   5.048  0.4943 -0.0736  0.3169
 8510SOL     OW33805   4.136   5.891   2.606 -0.4689  0.2742  0.5875
 8510SOL    HW233806   4.228   5.879   2.630 -0.8298 -1.4019  1.2828
 8510SOL    HW333807   4.126   5.985   2.596  0.9039  0.6475  2.2955
 8510SOL    MW433808   4.147   5.902   2.608 -0.4809  0.4098  0.4617
 8511SOL     OW33809   2.305   1.967   1.215  0.2402 -0.4374 -0.3248
 8511SOL    HW233810   2.326   1.951   1.307 -0.1868  0.3273 -0.0861
 8511SOL    HW333811   2.240   1.900   1.194  0.1636 -0.4712  0.0004
 8511SOL    MW433812   2.299   1.956   1.225 -0.1638  0.2915 -0.5354
 8512SOL     OW33813   2.403   5.127   2.045 -0.0172  0.4905  0.4595
 8512SOL    HW233814   2.332   5.161   1.991 -0.0071  0.6805  0.5642
 8512SOL    HW333815   2.480   5.178   2.018  0.1383  0.0892  0.1450
 8512SOL    MW433816   2.404   5.139   2.034 -1.4907 -0.8047  0.0767
 8513SOL     OW33817   5.208   4.516   5.914  0.0298 -0.1169  0.4625
 8513SOL    HW233818   5.195   4.437   5.862 -0.1283 -0.6637  1.3067
 8513SOL    HW333819   5.244   4.580   5.853 -1.3295 -0.3359 -0.6261
 8513SOL    MW433820   5.211   4.514   5.899  0.3484 -0.0134  0.4120
 8514SOL     OW33821   1.482   6.110   5.277  0.4319  0.2249 -0.4106
 8514SOL    HW233822   1.483   6.195   5.321  1.1897  1.1000 -2.0337
 8514SOL    HW333823   1.389   6.095   5.258  0.2880  0.6587 -0.0825
 8514SOL    MW433824   1.470   6.119   5.280 -0.1436 -0.3360  0.2166
 8515SOL     OW33825   1.339   5.540   3.715 -0.0951  0.3333  0.5654
 8515SOL    HW233826   1.330   5.445   3.706 -1.9227  0.5907 -0.7990
 8515SOL    HW333827   1.249   5.573   3.718  0.4425  2.2135 -1.5113
 8515SOL    MW433828   1.326   5.532   3.714  0.5641  0.1132  0.1766
 8516SOL     OW33829   2.318   0.503   2.838 -0.3096 -0.6358 -0.3387
 8516SOL    HW233830   2.231   0.465   2.832 -0.6954 -0.2526  1.8308
 8516SOL    HW333831   2.339   0.531   2.749 -2.1406 -1.2918 -1.0106
 8516SOL    MW433832   2.310   0.502   2.826  0.6162  0.2610  0.2816
 8517SOL     OW33833   6.081   4.146   4.630 -0.1103 -0.6269 -0.2000
 8517SOL    HW233834   6.073   4.239   4.614  0.5730 -0.4127  0.6051
 8517SOL    HW333835   6.017   4.105   4.572  0.4709  0.2545 -1.4998
 8517SOL    MW433836   6.072   4.153   4.620 -0.0294  0.3230  0.3186
 8518SOL     OW33837   5.898   4.229   5.394 -0.3860  0.7571 -0.0859
 8518SOL    HW233838   5.870   4.301   5.452  1.4138  1.2680  0.2031
 8518SOL    HW333839   5.822   4.170   5.391 -1.2002  1.6766  1.2552
 8518SOL    MW433840   5.884   4.231   5.401  0.2070 -0.4937 -0.0639
 8519SOL     OW33841   3.992   4.623   2.101 -0.2755  0.3396  0.2865
 8519SOL    HW233842   3.948   4.547   2.139 -2.2357  1.3381  0.1915
 8519SOL    HW333843   3.920   4.683   2.081  1.1866  2.1261  0.1825
 8519SOL    MW433844   3.976   4.621   2.103 -0.2603 -0.5754  0.5325
 8520SOL     OW33845   5.152   3.553   4.454  0.1206 -0.7928  0.2505
 8520SOL    HW233846   5.179   3.580   4.366 -2.3783 -0.1821 -0.4330
 8520SOL    HW333847   5.204   3.475   4.473  2.2536  0.2834 -0.8348
 8520SOL    MW433848   5.162   3.546   4.445  0.8452  0.5902 -0.4013
 8521SOL     OW33849   0.434   1.798   2.432  0.4131  0.0222  0.2051
 8521SOL    HW233850   0.486   1.842   2.499 -0.7929  0.8682  0.6325
 8521SOL    HW333851   0.498   1.752   2.378  1.6352  1.2903  0.5030
 8521SOL    MW433852   0.449   1.798   2.434 -0.9059  0.3342 -0.1836
 8522SOL     OW33853   4.543   2.724   1.047 -0.0663 -0.1091  0.4579
 8522SOL    HW233854   4.539   2.781   0.970  3.3327 -0.8194 -0.4643
 8522SOL    HW333855   4.458   2.733   1.089 -2.5191 -0.2735 -3.7970
 8522SOL    MW433856   4.532   2.732   1.042  0.4962 -0.0901  0.7696
 8523SOL     OW33857   5.933   5.346   4.493 -0.1349  0.2140 -0.2829
 8523SOL    HW233858   6.002   5.290   4.458  1.8105  1.0583  1.9701
 8523SOL    HW333859   5.967   5.378   4.577 -2.6767  1.8472  0.2540
 8523SOL    MW433860   5.946   5.343   4.500  0.1296  0.3357  0.1061
 8524SOL     OW33861   2.163   2.178   3.291 -0.4389 -0.0355  0.3377
 8524SOL    HW233862   2.230   2.176   3.222  1.0165 -0.6924  1.7248
 8524SOL    HW333863   2.133   2.269   3.292  1.4227  0.6061  0.5986
 8524SOL    MW433864   2.168   2.190   3.282  0.0458  0.4052  0.2691
 8525SOL     OW33865   4.882   3.445   5.041 -0.4610  0.2625  0.7230
 8525SOL    HW233866   4.896   3.509   4.972  0.1407  0.1554  0.7420
 8525SOL    HW333867   4.924   3.366   5.009 -1.6259 -0.2810  0.4814
 8525SOL    MW433868   4.889   3.443   5.028 -0.2449  0.1418  0.2446
 8526SOL     OW33869   1.413   2.793   6.004  0.4309 -0.3244  0.7301
 8526SOL    HW233870   1.500   2.768   6.036  0.0889 -1.0567  1.0905
 8526SOL    HW333871   1.426   2.881   5.967  0.8901  0.5027  2.7036
 8526SOL    MW433872   1.426   2.801   6.003  0.5141  0.7849 -0.4560
 8527SOL     OW33873   4.162   3.920   3.698  0.2968 -0.4909  0.1279
 8527SOL    HW233874   4.106   3.911   3.775  0.8552 -1.4052  0.4369
 8527SOL    HW333875   4.144   4.009   3.667 -0.9339 -0.5807  0.5121
 8527SOL    MW433876   4.152   3.931   3.704 -0.4338 -0.5872  0.1883
 8528SOL     OW33877   0.798   4.086   3.381  0.1802  0.0748 -0.5339
 8528SOL    HW233878   0.758   4.122   3.461 -0.0060 -0.2244 -0.4917
 8528SOL    HW333879   0.726   4.042   3.336  0.3273  0.0779 -0.7745
 8528SOL    MW433880   0.783   4.085   3.386  0.4564  0.5225  0.3508
 8529SOL     OW33881   1.787   6.305   1.666  0.2623  0.4605 -0.0680
 8529SOL    HW233882   1.810   6.254   1.588 -0.3457 -0.6475  0.4404
 8529SOL    HW333883   1.692   6.292   1.675  0.3311  0.5687  0.8512
 8529SOL    MW433884   1.777   6.296   1.657 -0.0373  0.0195 -0.2154
 8530SOL     OW33885   3.259   3.704   5.466  0.6482 -0.6068  0.1722
 8530SOL    HW233886   3.252   3.701   5.370  0.8020 -1.5964  0.1799
 8530SOL    HW333887   3.169   3.710   5.497  0.6554  1.1391 -0.0524
 8530SOL    MW433888   3.246   3.704   5.457 -0.1326 -0.3231  0.7561
 8531SOL     OW33889   2.400   5.702   4.435 -0.1006  0.5426 -0.7711
 8531SOL    HW233890   2.424   5.624   4.385  1.1706  1.1334 -1.1327
 8531SOL    HW333891   2.447   5.773   4.390 -0.4104  1.3486  0.1704
 8531SOL    MW433892   2.410   5.701   4.422  0.3146  0.2967 -0.0371
 8532SOL     OW33893   2.270   4.145   5.782 -0.1671 -0.2017  0.6329
 8532SOL    HW233894   2.337   4.078   5.764  0.4744 -0.1482  2.5911
 8532SOL    HW333895   2.236   4.122   5.868 -0.3734  1.6439  1.0762
 8532SOL    MW433896   2.275   4.133   5.791  0.6183 -0.7783  0.0157
 8533SOL     OW33897   2.365   1.949   1.505  0.2195  0.0287 -0.2485
 8533SOL    HW233898   2.319   1.869   1.532  1.7177 -0.1980  1.8465
 8533SOL    HW333899   2.323   2.019   1.553 -0.8292  0.5011 -1.7850
 8533SOL    MW433900   2.354   1.947   1.515 -0.6558 -0.5433  0.0094
 8534SOL     OW33901   0.378   0.266   0.652  0.4917  0.0744  0.1422
 8534SOL    HW233902   0.451   0.248   0.593  0.6899  1.0268  0.0786
 8534SOL    HW333903   0.310   0.303   0.596 -0.3754 -1.5690  0.0574
 8534SOL    MW433904   0.378   0.269   0.637  0.0028 -0.2132 -0.5098
 8535SOL     OW33905   6.331   0.252   1.511  0.4331  0.1836 -0.8614
 8535SOL    HW233906   6.287   0.276   1.593  0.2792  0.5193 -1.0379
 8535SOL    HW333907   6.326   0.157   1.508 -2.3314  0.2664 -1.9679
 8535SOL    MW433908   6.325   0.243   1.522 -0.5878 -0.3128 -0.4093
 8536SOL     OW33909   4.721   2.575   3.176 -0.6985 -0.2364 -0.1680
 8536SOL    HW233910   4.633   2.588   3.141 -1.6257  0.1580  2.1172
 8536SOL    HW333911   4.763   2.661   3.169 -0.4964 -0.3971 -1.1451
 8536SOL    MW433912   4.715   2.588   3.170 -0.0695 -0.3239 -0.1186
 8537SOL     OW33913   1.818   4.603   0.624 -0.0948  0.1792 -0.1445
 8537SOL    HW233914   1.809   4.693   0.594  1.7260  0.5075  0.2024
 8537SOL    HW333915   1.863   4.558   0.553  0.7971  0.0439  0.4902
 8537SOL    MW433916   1.823   4.609   0.611 -0.3900  0.3285 -0.1763
 8538SOL     OW33917   4.961   4.698   0.311  0.1223 -0.1815  0.3272
 8538SOL    HW233918   4.933   4.679   0.401 -1.0218 -0.4596 -0.0649
 8538SOL    HW333919   4.882   4.732   0.269  1.3491  2.7651  0.1815
 8538SOL    MW433920   4.947   4.700   0.317 -0.2605 -0.6185 -0.5060
 8539SOL     OW33921   4.072   4.656   0.441 -0.1631 -0.2620 -0.4927
 8539SOL    HW233922   4.142   4.600   0.476 -0.4797 -0.4245 -0.1204
 8539SOL    HW333923   4.118   4.733   0.407  0.1686 -0.2035  0.0748
 8539SOL    MW433924   4.088   4.659   0.441 -0.2073  0.4214 -0.1429
 8540SOL     OW33925   4.251   5.925   5.587  0.0195 -0.1291 -0.2839
 8540SOL    HW233926   4.259   5.957   5.676  0.0814  0.9219 -0.6519
 8540SOL    HW333927   4.157   5.915   5.573  0.0453 -1.3796  0.2453
 8540SOL    MW433928   4.239   5.928   5.597 -0.4292  0.2635  0.6924
 8541SOL     OW33929   3.858   5.234   1.717 -0.0570  0.2186  0.5445
 8541SOL    HW233930   3.777   5.182   1.719 -0.6098  0.8307 -2.0523
 8541SOL    HW333931   3.864   5.272   1.805 -2.0328 -0.6852  1.1355
 8541SOL    MW433932   3.848   5.232   1.729  0.7228  0.1776 -0.7678
 8542SOL     OW33933   3.595   3.823   4.053 -0.0848  0.0471  0.3140
 8542SOL    HW233934   3.506   3.842   4.023  0.0153 -1.2990 -0.9422
 8542SOL    HW333935   3.591   3.732   4.082  0.7803  0.1252  0.7110
 8542SOL    MW433936   3.583   3.814   4.053  0.0185 -0.5477 -0.5822
 8543SOL     OW33937   5.444   5.933   0.151 -0.1741 -0.3945 -0.0270
 8543SOL    HW233938   5.490   6.017   0.163 -1.2784  0.7426 -2.8024
 8543SOL    HW333939   5.496   5.888   0.084 -0.2908 -1.3862  0.5410
 8543SOL    MW433940   5.457   5.938   0.144 -0.0404  0.3527  0.0190
 8544SOL     OW33941   2.502   5.997   1.852 -0.5884 -0.1184 -0.3431
 8544SOL    HW233942   2.432   6.044   1.897  0.5779  1.0725  0.3067
 8544SOL    HW333943   2.581   6.046   1.874  0.6009 -2.0094 -0.2304
 8544SOL    MW433944   2.503   6.010   1.861  0.2075  0.5333 -0.1472
 8545SOL     OW33945   3.756   1.568   2.522 -0.2927 -0.2271 -0.1349
 8545SOL    HW233946   3.794   1.534   2.440  0.4015 -1.0809  0.5249
 8545SOL    HW333947   3.757   1.663   2.510  1.8670 -0.2003 -0.2837
 8545SOL    MW433948   3.761   1.576   2.509 -0.1334 -0.6328 -0.2763
 8546SOL     OW33949   1.175   4.587   3.313 -0.4018  0.3760 -0.3033
 8546SOL    HW233950   1.146   4.502   3.346 -0.4882  0.1147 -1.0526
 8546SOL    HW333951   1.242   4.566   3.248 -0.1871  0.8949 -0.2559
 8546SOL    MW433952   1.180   4.573   3.309  0.0723  0.2207  0.3557
 8547SOL     OW33953   3.541   2.425   3.055  0.3823  0.5435  0.2862
 8547SOL    HW233954   3.630   2.425   3.020  0.9275 -1.2174  1.5451
 8547SOL    HW333955   3.491   2.479   2.993  1.3777 -1.8667 -2.8805
 8547SOL    MW433956   3.546   2.432   3.042 -0.0078  0.1775  0.5992
 8548SOL     OW33957   0.300   2.897   2.929  0.0267 -0.1231 -0.1523
 8548SOL    HW233958   0.250   2.898   3.012 -1.4209 -0.7358 -0.9700
 8548SOL    HW333959   0.327   2.806   2.919  0.6428  0.0512 -0.1160
 8548SOL    MW433960   0.297   2.885   2.939  0.7072 -0.2047  0.6884
 8549SOL     OW33961   2.073   1.605   0.028  0.6219 -0.2904  0.2427
 8549SOL    HW233962   2.126   1.587   0.104  0.6500  2.2833  0.9356
 8549SOL    HW333963   2.106   1.689  -0.006 -0.5799 -0.4477 -1.4939
 8549SOL    MW433964   2.084   1.614   0.033  0.3760 -0.5422 -0.2093
 8550SOL     OW33965   0.032   5.031   1.062  0.0766  0.2391 -0.1527
 8550SOL    HW233966   0.085   4.952   1.075  1.0262  0.8720 -0.0470
 8550SOL    HW333967   0.055   5.088   1.135  0.0764  0.9696 -0.7047
 8550SOL    MW433968   0.042   5.028   1.073  0.3645 -0.3293  0.0748
 8551SOL     OW33969   3.738   4.679   3.593 -0.1308  0.5698  0.1819
 8551SOL    HW233970   3.748   4.691   3.499  2.2589  0.7930  0.3955
 8551SOL    HW333971   3.708   4.764   3.625 -1.7335  0.2641 -0.4258
 8551SOL    MW433972   3.735   4.692   3.585  0.4607  0.3677 -0.0529
 8552SOL     OW33973   0.484   6.340   2.261  0.0856  0.1995 -0.1820
 8552SOL    HW233974   0.406   6.324   2.314 -0.2054  0.6619 -0.4680
 8552SOL    HW333975   0.548   6.374   2.323 -0.3427  0.9988 -0.1693
 8552SOL    MW433976   0.482   6.342   2.276 -0.1219  0.3848 -0.0931
 8553SOL     OW33977   3.922   5.393   3.949  0.3285  0.5038  0.5257
 8553SOL    HW233978   3.984   5.384   4.022  0.2548  1.1377  0.6736
 8553SOL    HW333979   3.965   5.453   3.889  0.3899 -0.0238  0.0372
 8553SOL    MW433980   3.936   5.400   3.951  0.5196  0.1907  0.4511
 8554SOL     OW33981   5.912   1.606   4.823  0.0654  0.5063 -0.3890
 8554SOL    HW233982   5.934   1.521   4.863 -0.9278 -0.4447 -1.7611
 8554SOL    HW333983   5.994   1.635   4.783  0.4807  0.3219  0.3143
 8554SOL    MW433984   5.926   1.598   4.823 -0.6938 -0.0644 -0.4577
 8555SOL     OW33985   6.190   0.501   4.116  0.2275 -0.4754  0.6434
 8555SOL    HW233986   6.266   0.519   4.061 -0.2971 -1.1721 -0.3352
 8555SOL    HW333987   6.203   0.556   4.193  1.6289 -0.4473  0.4151
 8555SOL    MW433988   6.202   0.510   4.119 -0.1040 -0.3375 -0.3404
 8556SOL     OW33989   0.376   0.021   4.194  0.0381 -0.6451  0.3428
 8556SOL    HW233990   0.449  -0.040   4.204  1.4143  0.7123 -0.7636
 8556SOL    HW333991   0.382   0.080   4.269  0.6054 -0.0515 -0.1535
 8556SOL    MW433992   0.386   0.021   4.205 -0.0833  0.0154 -0.6258
 8557SOL     OW33993   2.778   5.436   6.098  0.1619 -0.2502  0.3100
 8557SOL    HW233994   2.711   5.417   6.032  1.5509 -0.3611 -1.1192
 8557SOL    HW333995   2.843   5.488   6.052  0.8523  0.2644  1.8021
 8557SOL    MW433996   2.777   5.440   6.083 -0.0310  0.2679  0.7208
 8558SOL     OW33997   0.285   0.537   0.151 -0.4317  0.3737 -0.3037
 8558SOL    HW233998   0.210   0.477   0.154  0.1597 -0.4588 -1.3822
 8558SOL    HW333999   0.335   0.510   0.074  0.5531  1.4383 -0.0789
 8558SOL    MW434000   0.282   0.526   0.141 -0.4644  0.0421  0.7125
 8559SOL     OW34001   3.172   5.655   2.585  0.3537  0.4702  0.4424
 8559SOL    HW234002   3.150   5.744   2.612  0.2963 -0.1642  2.6291
 8559SOL    HW334003   3.268   5.651   2.591  0.7417  1.3134 -2.9331
 8559SOL    MW434004   3.182   5.666   2.589  0.6898  0.1357 -0.1171
 8560SOL     OW34005   1.612   2.681   6.184  0.6157  0.6387 -0.2524
 8560SOL    HW234006   1.613   2.626   6.263  1.3415  0.0320 -0.6735
 8560SOL    HW334007   1.620   2.619   6.112 -0.8681  1.1188 -0.8722
 8560SOL    MW434008   1.613   2.665   6.185  0.0695 -0.1515 -0.2921
 8561SOL     OW34009   0.262   5.392   5.586  0.9381 -0.0115  0.4101
 8561SOL    HW234010   0.277   5.469   5.641 -0.8656  1.4711 -1.0656
 8561SOL    HW334011   0.288   5.420   5.499  0.5191 -1.1897 -0.1045
 8561SOL    MW434012   0.268   5.406   5.582  0.0564  0.0122  0.1490
 8562SOL     OW34013   3.101   4.476   6.133  0.1784 -1.0196  0.0227
 8562SOL    HW234014   3.093   4.512   6.045 -1.5127 -1.4366 -0.0296
 8562SOL    HW334015   3.175   4.522   6.171  0.5334 -0.3626 -1.3898
 8562SOL    MW434016   3.110   4.487   6.126  0.6159 -0.1388 -0.4603
 8563SOL     OW34017   6.223   6.002   0.936  1.0184 -0.0820  0.1590
 8563SOL    HW234018   6.298   6.001   0.995 -0.2481 -0.7003  1.8363
 8563SOL    HW334019   6.244   5.937   0.869  2.0267 -0.1532  0.5278
 8563SOL    MW434020   6.236   5.993   0.935 -0.4389  0.3806  0.0298
 8564SOL     OW34021   0.810   4.953   4.351  0.0645  0.0823 -0.2855
 8564SOL    HW234022   0.888   5.007   4.364  0.2870 -0.2316 -0.3032
 8564SOL    HW334023   0.770   4.988   4.272  0.1411  0.3033 -0.2259
 8564SOL    MW434024   0.815   4.964   4.342 -0.6886  0.5068 -0.1762
 8565SOL     OW34025   3.700   2.498   3.387  0.0749  0.0742 -0.3029
 8565SOL    HW234026   3.698   2.423   3.447  0.7323 -0.4782 -0.9605
 8565SOL    HW334027   3.609   2.508   3.359 -0.0220 -0.4624 -0.1944
 8565SOL    MW434028   3.688   2.489   3.392 -0.7518 -0.7793  0.4787
 8566SOL     OW34029   1.611   5.429   2.329  0.1052 -0.3659  0.2143
 8566SOL    HW234030   1.582   5.516   2.304 -2.2690 -0.5727  1.8600
 8566SOL    HW334031   1.673   5.443   2.400 -0.4388  0.0055  0.6253
 8566SOL    MW434032   1.615   5.442   2.335 -0.3415 -0.4924  0.3277
 8567SOL     OW34033   5.772   3.573   4.217 -0.2191 -0.5709  0.6872
 8567SOL    HW234034   5.764   3.548   4.125  1.9865 -1.3925  0.6675
 8567SOL    HW334035   5.759   3.491   4.265  0.9996 -0.6176  0.9596
 8567SOL    MW434036   5.769   3.559   4.211 -0.0559  0.9271 -0.7153
 8568SOL     OW34037   4.074   5.023   5.142  0.1179 -0.4855 -0.5558
 8568SOL    HW234038   4.106   5.095   5.197 -0.0076 -0.5412 -0.4106
 8568SOL    HW334039   3.979   5.035   5.138 -0.1178 -1.6007  0.8604
 8568SOL    MW434040   4.066   5.034   5.149 -0.1126 -0.3093  0.0382
 8569SOL     OW34041   4.718   5.050   0.904  0.2369 -0.1524 -0.3178
 8569SOL    HW234042   4.769   4.997   0.844  1.3419  1.4813 -0.9037
 8569SOL    HW334043   4.757   5.035   0.990  1.0252  0.2634 -0.5965
 8569SOL    MW434044   4.730   5.041   0.908 -0.3161  0.1693 -0.0172
 8570SOL     OW34045   2.481   3.722   4.896  0.3479 -0.2061  0.1329
 8570SOL    HW234046   2.548   3.655   4.885  0.4974 -0.2958  1.4344
 8570SOL    HW334047   2.511   3.774   4.971 -0.8844 -0.0629  0.5471
 8570SOL    MW434048   2.494   3.720   4.904 -0.2744  0.0830  0.2036
 8571SOL     OW34049   2.560   4.755   4.358  0.3130 -0.5560 -0.0032
 8571SOL    HW234050   2.481   4.758   4.304  0.0515  0.1295  0.3979
 8571SOL    HW334051   2.630   4.732   4.298 -0.2544 -1.6095 -0.2903
 8571SOL    MW434052   2.559   4.752   4.343  0.3693 -0.1861 -0.5868
 8572SOL     OW34053   6.410   5.769   1.838 -0.0764  0.1734 -0.3733
 8572SOL    HW234054   6.355   5.703   1.881 -0.4258  0.0806 -0.9547
 8572SOL    HW334055   6.495   5.761   1.882  0.4628 -1.9273 -1.6344
 8572SOL    MW434056   6.414   5.759   1.850  0.4230  0.0758  0.3522
 8573SOL     OW34057   2.662   2.346   2.715 -0.1314  0.2368 -0.1400
 8573SOL    HW234058   2.660   2.429   2.667 -0.3081 -1.0014 -2.4041
 8573SOL    HW334059   2.572   2.333   2.743  0.0876  1.2717  1.1382
 8573SOL    MW434060   2.650   2.355   2.712 -0.0940 -0.4938 -0.2116
 8574SOL     OW34061   1.902   4.270   1.305 -0.3546 -0.2554  0.2588
 8574SOL    HW234062   1.954   4.348   1.284  1.0734 -1.0142  0.8373
 8574SOL    HW334063   1.930   4.205   1.240 -1.5578 -0.2917 -0.2408
 8574SOL    MW434064   1.913   4.272   1.294  0.3297 -0.1686 -0.0881
 8575SOL     OW34065   3.032   5.202   1.984 -0.0739 -0.1756  0.2791
 8575SOL    HW234066   2.974   5.148   2.037 -0.6859  0.1635 -0.0301
 8575SOL    HW334067   3.040   5.284   2.033  0.0165 -0.1679  0.2506
 8575SOL    MW434068   3.025   5.206   1.997  0.2041  0.3710  0.0363
 8576SOL     OW34069   6.094   2.774   6.110 -0.1171 -0.2602  0.2983
 8576SOL    HW234070   6.157   2.756   6.180 -0.0977  1.3602  0.7296
 8576SOL    HW334071   6.017   2.808   6.154  0.1048  1.3422 -0.4596
 8576SOL    MW434072   6.092   2.776   6.125 -0.0787  0.3001  0.0863
 8577SOL     OW34073   4.011   2.237   2.198  0.2646  0.0208 -0.4477
 8577SOL    HW234074   4.091   2.184   2.205 -0.5552 -1.2384 -0.3112
 8577SOL    HW334075   3.963   2.198   2.125 -0.0857  0.9665 -0.7325
 8577SOL    MW434076   4.015   2.225   2.189  0.8556  0.5722  0.2733
 8578SOL     OW34077   1.996   2.492   4.419 -0.1469  0.2055 -0.2620
 8578SOL    HW234078   1.970   2.416   4.368  0.6634  0.0621 -0.4686
 8578SOL    HW334079   1.952   2.480   4.504 -1.5708  0.4922 -0.9173
 8578SOL    MW434080   1.987   2.481   4.423  0.3261 -0.2209 -0.3385
 8579SOL     OW34081   4.729   6.138   4.588 -0.4782  0.2018 -0.4467
 8579SOL    HW234082   4.707   6.124   4.680  0.9756  0.4684 -0.0346
 8579SOL    HW334083   4.735   6.233   4.579  1.5327  0.1316 -0.2490
 8579SOL    MW434084   4.727   6.149   4.599 -0.1297 -0.2990  0.1880
 8580SOL     OW34085   2.524   3.292   5.746  0.0612  0.0395  0.0845
 8580SOL    HW234086   2.429   3.286   5.754  0.2437 -0.9312  3.2008
 8580SOL    HW334087   2.550   3.211   5.702 -0.5225 -0.1938  0.1663
 8580SOL    MW434088   2.515   3.281   5.742  0.1462 -1.2731  0.3628
 8581SOL     OW34089   3.869   0.727   3.493 -0.0253  0.0382  0.0796
 8581SOL    HW234090   3.934   0.797   3.500 -0.6559  0.7312 -0.8276
 8581SOL    HW334091   3.785   0.772   3.497 -0.4421 -0.5643 -1.4731
 8581SOL    MW434092   3.867   0.742   3.495 -0.2437 -0.1253  0.2335
 8582SOL     OW34093   1.924   3.017   2.657  0.6229  0.6919 -0.1482
 8582SOL    HW234094   2.000   2.969   2.690 -0.0500 -0.0486  0.3712
 8582SOL    HW334095   1.938   3.107   2.686 -0.1861  0.0029  2.7550
 8582SOL    MW434096   1.936   3.023   2.665 -0.7364  0.4245 -0.1463
 8583SOL     OW34097   2.894   5.008   0.577 -0.4526  0.4862  0.3164
 8583SOL    HW234098   2.937   4.923   0.572  1.6912  1.5282 -0.4069
 8583SOL    HW334099   2.828   5.006   0.509 -1.2042 -0.9774  1.0581
 8583SOL    MW434100   2.891   4.997   0.568 -0.0327  0.1765  0.1585
 8584SOL     OW34101   5.643   5.886   3.664 -0.3557  0.0312  0.4715
 8584SOL    HW234102   5.594   5.909   3.585 -2.1895 -0.5955  1.3759
 8584SOL    HW334103   5.578   5.846   3.722  0.7116  1.3015  2.6772
 8584SOL    MW434104   5.628   5.884   3.661 -0.9579  0.0780  0.3137
 8585SOL     OW34105   1.078   2.396   3.616 -0.1742  0.2556 -0.0088
 8585SOL    HW234106   1.060   2.479   3.659  0.3093 -0.0622  0.8437
 8585SOL    HW334107   1.156   2.362   3.661  1.5366  0.7879 -2.4041
 8585SOL    MW434108   1.086   2.402   3.628 -0.3033  0.3809 -0.1189
 8586SOL     OW34109   0.580   4.863   2.250 -0.8955  0.2788  0.0792
 8586SOL    HW234110   0.541   4.783   2.286  0.2390 -0.7763 -0.9262
 8586SOL    HW334111   0.532   4.879   2.169 -2.1633  1.5531  1.0330
 8586SOL    MW434112   0.569   4.854   2.244  0.2704 -0.2538  0.4195
 8587SOL     OW34113   6.099   4.564   1.539  0.1589 -0.2314  0.3792
 8587SOL    HW234114   6.069   4.516   1.616  0.2637  1.8616  1.8029
 8587SOL    HW334115   6.039   4.638   1.532  1.8838  1.2201  0.2297
 8587SOL    MW434116   6.087   4.568   1.548 -0.0376  0.0434 -0.1336
 8588SOL     OW34117   2.875   4.938   4.208 -0.2252 -0.2009 -0.5193
 8588SOL    HW234118   2.873   5.032   4.220 -0.7048 -0.2491 -0.2180
 8588SOL    HW334119   2.864   4.902   4.296 -0.6666 -0.5380 -0.7077
 8588SOL    MW434120   2.873   4.945   4.221 -0.3897 -0.2836  0.4797
 8589SOL     OW34121   2.727   1.773   1.266  0.1611  0.5434  0.0980
 8589SOL    HW234122   2.753   1.769   1.358 -1.7009  1.2023  0.6891
 8589SOL    HW334123   2.749   1.862   1.238 -0.7799  0.8798  0.4009
 8589SOL    MW434124   2.733   1.784   1.274 -0.2332  0.5051 -0.3781
 8590SOL     OW34125   0.346   5.920   0.551 -0.0934 -0.0286  0.4462
 8590SOL    HW234126   0.392   5.979   0.611 -0.7174  0.5080  0.4169
 8590SOL    HW334127   0.389   5.835   0.562  0.5842  0.3490  0.7594
 8590SOL    MW434128   0.358   5.917   0.561 -0.0698 -1.0173  1.0511
 8591SOL     OW34129   2.016   1.794   5.330  0.3452 -0.4601  0.3977
 8591SOL    HW234130   1.987   1.861   5.393  0.0182 -0.0966 -0.1253
 8591SOL    HW334131   1.935   1.760   5.293  0.5401 -0.4785 -0.0170
 8591SOL    MW434132   2.001   1.799   5.334 -0.4637  0.6811 -0.4441
 8592SOL     OW34133   1.520   2.011   3.731 -0.0261  0.0400 -0.3202
 8592SOL    HW234134   1.609   1.978   3.738  0.0916 -0.0123 -1.6677
 8592SOL    HW334135   1.485   2.009   3.820  0.3507 -2.6578 -0.1805
 8592SOL    MW434136   1.527   2.007   3.743  0.0350 -0.6121  0.0608
 8593SOL     OW34137   6.174   1.654   1.539  0.2172  0.0381 -0.1969
 8593SOL    HW234138   6.180   1.655   1.443  0.1585 -2.6376 -0.3006
 8593SOL    HW334139   6.264   1.648   1.569  0.1662 -2.4766 -0.2972
 8593SOL    MW434140   6.186   1.653   1.530 -0.8262  0.3014 -0.4051
 8594SOL     OW34141   6.315   2.650   5.916  0.3534 -0.0764 -0.0048
 8594SOL    HW234142   6.257   2.639   5.992  2.4444  0.8321  1.8105
 8594SOL    HW334143   6.293   2.737   5.882  1.9112  1.1757  1.9384
 8594SOL    MW434144   6.304   2.660   5.922 -0.3534  0.1131 -0.9998
 8595SOL     OW34145   3.739   3.382   2.466  0.0992 -0.2673  0.1401
 8595SOL    HW234146   3.774   3.305   2.422 -1.4247 -1.3458  0.7296
 8595SOL    HW334147   3.806   3.404   2.531  0.1152 -1.7672  0.6858
 8595SOL    MW434148   3.753   3.375   2.469 -0.1318 -0.2435 -0.4832
 8596SOL     OW34149   1.207   6.008   2.966  0.8438  0.4732 -0.1904
 8596SOL    HW234150   1.287   6.060   2.954  0.8685  0.3517 -0.5775
 8596SOL    HW334151   1.225   5.955   3.044  0.2742  2.0393  1.0526
 8596SOL    MW434152   1.220   6.008   2.974 -1.3625 -0.1140  0.0435
 8597SOL     OW34153   0.589   3.948   4.397 -0.4412 -0.3555 -0.3443
 8597SOL    HW234154   0.675   3.968   4.360 -0.3111 -0.0147  0.1365
 8597SOL    HW334155   0.537   4.026   4.381 -0.4936 -0.3478 -0.1348
 8597SOL    MW434156   0.593   3.961   4.390  0.1507  0.1946  0.2313
 8598SOL     OW34157   1.046   5.123   4.405 -0.3411  0.1425 -0.2798
 8598SOL    HW234158   1.118   5.164   4.356  0.4600  1.2564  1.7306
 8598SOL    HW334159   1.089   5.082   4.480 -1.2977 -3.2506 -1.3936
 8598SOL    MW434160   1.061   5.123   4.408 -0.2263 -0.1606  0.0130
 8599SOL     OW34161   4.989   6.360   5.314 -0.1847 -0.3122 -0.0942
 8599SOL    HW234162   5.025   6.281   5.353  0.3283 -0.5354 -0.9936
 8599SOL    HW334163   4.925   6.391   5.378  0.1972 -0.9939  0.6370
 8599SOL    MW434164   4.985   6.354   5.327 -0.2912 -0.7862 -0.0287
 8600SOL     OW34165   5.767   4.619   4.210 -0.4846  0.6408  0.5220
 8600SOL    HW234166   5.788   4.702   4.167  2.6984 -0.7626 -0.9003
 8600SOL    HW334167   5.820   4.620   4.290 -0.4117 -0.0122  0.4838
 8600SOL    MW434168   5.777   4.630   4.215 -0.4702 -0.1665  0.3307
 8601SOL     OW34169   6.211   1.909   3.245  0.1752 -0.0042 -0.4669
 8601SOL    HW234170   6.303   1.918   3.268  0.4113 -0.6389 -1.1215
 8601SOL    HW334171   6.164   1.922   3.327  0.6666  3.0356 -0.5522
 8601SOL    MW434172   6.217   1.912   3.259  0.2428 -0.1998  0.3855
 8602SOL     OW34173   5.677   1.340   0.054  0.3856 -0.3528 -0.1888
 8602SOL    HW234174   5.649   1.292  -0.023 -0.5799 -2.7488  1.5278
 8602SOL    HW334175   5.597   1.349   0.107  1.2711  0.0272  1.1343
 8602SOL    MW434176   5.662   1.335   0.051  0.2557  0.3928 -0.3101
 8603SOL     OW34177   1.957   2.604   6.271  0.0173  0.3963  0.0285
 8603SOL    HW234178   1.924   2.531   6.219 -0.9428  1.0519 -0.3182
 8603SOL    HW334179   2.014   2.564   6.336  1.3331 -0.4517 -1.5661
 8603SOL    MW434180   1.960   2.589   6.272 -0.1433  0.1924 -0.0943
 8604SOL     OW34181   1.608   0.176   4.552  0.4176 -0.4436  0.6073
 8604SOL    HW234182   1.638   0.085   4.551  2.8650  0.2596 -0.8470
 8604SOL    HW334183   1.656   0.217   4.480  0.1053  2.2093  1.8068
 8604SOL    MW434184   1.619   0.169   4.542  0.2788  0.1170 -0.5690
 8605SOL     OW34185   1.487   2.314   0.525 -0.5993 -0.2496  0.4812
 8605SOL    HW234186   1.510   2.286   0.436  2.0363  1.7965  0.3839
 8605SOL    HW334187   1.537   2.255   0.582 -1.2700 -0.7270  0.5886
 8605SOL    MW434188   1.497   2.302   0.521  0.2977  0.0019  0.5319
 8606SOL     OW34189   0.272   4.424   2.463 -0.7072  0.3471 -0.0499
 8606SOL    HW234190   0.330   4.393   2.533 -0.7831 -2.2666 -1.0184
 8606SOL    HW334191   0.332   4.445   2.391 -0.7727  0.8677  0.0444
 8606SOL    MW434192   0.288   4.423   2.463  0.5102  0.4879 -0.1689
 8607SOL     OW34193   0.097   1.696   0.790  0.0748 -0.0104 -0.2357
 8607SOL    HW234194   0.023   1.640   0.764 -0.6379  0.7290  0.1347
 8607SOL    HW334195   0.174   1.652   0.756 -0.3335 -1.9238  1.1443
 8607SOL    MW434196   0.097   1.683   0.782  0.4875 -0.0263  0.3070
 8608SOL     OW34197   1.219   0.562   3.032  0.1741 -0.3652 -0.3933
 8608SOL    HW234198   1.245   0.654   3.021 -0.4173  0.1289  1.9326
 8608SOL    HW334199   1.196   0.534   2.943 -0.3666  1.9587 -1.0710
 8608SOL    MW434200   1.220   0.570   3.018  0.4515  0.8032  0.2895
 8609SOL     OW34201   0.263   3.258   1.049  0.0053 -0.0943 -0.0551
 8609SOL    HW234202   0.184   3.297   1.086 -0.6572 -0.0077 -1.5161
 8609SOL    HW334203   0.311   3.226   1.126 -0.5670  1.4299  0.9975
 8609SOL    MW434204   0.259   3.259   1.064  0.0051  0.2170 -0.0169
 8610SOL     OW34205   0.894   2.568   0.469 -0.0887  0.0216  0.1155
 8610SOL    HW234206   0.985   2.587   0.446 -0.0992 -0.2989 -0.1878
 8610SOL    HW334207   0.873   2.634   0.536  0.3260  0.1736  0.1032
 8610SOL    MW434208   0.904   2.579   0.475  0.0564  0.3001 -0.3275
 8611SOL     OW34209   4.465   5.135   5.837 -0.0298  0.5365  0.6068
 8611SOL    HW234210   4.495   5.059   5.788 -0.5992  0.9151 -0.3567
 8611SOL    HW334211   4.453   5.103   5.927 -1.4131 -0.8369 -0.0109
 8611SOL    MW434212   4.467   5.121   5.842  0.6926 -0.5721 -0.6315
 8612SOL     OW34213   1.793   0.974   0.231 -0.2590 -0.0987  0.3162
 8612SOL    HW234214   1.864   0.959   0.169 -1.4144 -1.2050 -0.8332
 8612SOL    HW334215   1.835   0.976   0.317  1.3023  0.6734 -0.4286
 8612SOL    MW434216   1.808   0.972   0.234 -0.7241  0.1328  1.0299
 8613SOL     OW34217   3.402   2.813   3.171  0.1404 -0.4489 -0.5289
 8613SOL    HW234218   3.349   2.809   3.092  0.6819  0.9294 -1.0055
 8613SOL    HW334219   3.342   2.841   3.239 -0.1701 -0.9051 -0.6137
 8613SOL    MW434220   3.387   2.816   3.169 -0.2054 -0.1465 -0.1208
 8614SOL     OW34221   2.408   1.575   4.080 -0.4558 -0.1840 -0.4353
 8614SOL    HW234222   2.324   1.530   4.088 -1.5964  1.9043  0.2290
 8614SOL    HW334223   2.404   1.618   3.994  0.2231 -0.6030 -0.6826
 8614SOL    MW434224   2.396   1.575   4.069  0.1149  0.1910  0.2895
 8615SOL     OW34225   3.129   5.630   0.901 -0.4476 -0.0212  0.7778
 8615SOL    HW234226   3.129   5.718   0.938  1.7958 -0.0382  0.9320
 8615SOL    HW334227   3.213   5.623   0.856 -0.2501 -2.3522  1.4071
 8615SOL    MW434228   3.140   5.641   0.900 -0.1889  0.2837 -0.1212
 8616SOL     OW34229   6.361   1.185   4.143 -0.3107  0.2751  0.3722
 8616SOL    HW234230   6.356   1.263   4.200  1.2602 -0.1177  1.1198
 8616SOL    HW334231   6.349   1.111   4.203  0.4919 -0.1198  0.0567
 8616SOL    MW434232   6.359   1.186   4.159 -0.5928 -0.0246 -0.5844
 8617SOL     OW34233   1.764   3.641   4.404  0.2734  0.3482 -0.2172
 8617SOL    HW234234   1.759   3.560   4.455  0.9061  0.4540  0.0198
 8617SOL    HW334235   1.707   3.625   4.329 -1.8116  0.7056  1.1950
 8617SOL    MW434236   1.756   3.628   4.401 -0.4897  0.2481 -0.5686
 8618SOL     OW34237   2.072   4.228   4.456 -0.1602  0.0755  0.0974
 8618SOL    HW234238   2.073   4.134   4.475  0.2973  0.0862  0.1505
 8618SOL    HW334239   2.105   4.235   4.367  3.1122  0.3782  1.1671
 8618SOL    MW434240   2.077   4.216   4.447  0.0954  0.5218 -0.7283
 8619SOL     OW34241   1.698   3.652   4.125  0.1683 -0.3472 -0.5168
 8619SOL    HW234242   1.638   3.589   4.084  0.2517 -0.3325 -0.6624
 8619SOL    HW334243   1.646   3.731   4.135  0.2637 -0.2235 -0.9663
 8619SOL    MW434244   1.683   3.654   4.121 -0.6009 -0.0975  0.0994
 8620SOL     OW34245   0.610   0.590   1.794 -0.5667 -0.3360  0.1044
 8620SOL    HW234246   0.695   0.555   1.771 -1.1166 -2.2608  0.8352
 8620SOL    HW334247   0.628   0.650   1.867  0.3910  1.0191 -1.1910
 8620SOL    MW434248   0.623   0.594   1.801 -0.0927  0.4957  0.1451
 8621SOL     OW34249   3.643   2.353   1.955  0.2031  0.7313 -0.1237
 8621SOL    HW234250   3.673   2.399   2.033  0.6286  1.9190 -0.9670
 8621SOL    HW334251   3.703   2.279   1.946 -1.1608 -0.7005  1.8673
 8621SOL    MW434252   3.655   2.349   1.964 -0.4984  0.1596  0.2674
 8622SOL     OW34253   3.810   4.630   4.004  0.5227 -0.0701  0.0731
 8622SOL    HW234254   3.813   4.720   3.972  0.5166  0.2445  0.9292
 8622SOL    HW334255   3.717   4.605   3.997  0.6178 -0.2272 -0.7224
 8622SOL    MW434256   3.798   4.639   3.999 -0.4951  0.0926  0.1428
 8623SOL     OW34257   3.794   5.835   2.828 -0.1768  0.5049  0.3278
 8623SOL    HW234258   3.872   5.854   2.880  1.5425 -3.3998 -0.4832
 8623SOL    HW334259   3.748   5.766   2.876 -0.9114 -0.1215 -1.1876
 8623SOL    MW434260   3.798   5.828   2.841  0.2763  0.4796 -0.5199
 8624SOL     OW34261   3.946   2.603   4.869  1.0357  0.1543  0.4373
 8624SOL    HW234262   3.966   2.617   4.777  1.6364  0.4191  0.6070
 8624SOL    HW334263   3.938   2.691   4.906 -1.6939  0.1415  0.1317
 8624SOL    MW434264   3.947   2.616   4.862 -0.2864  0.0055 -0.3292
 8625SOL     OW34265   6.035   4.395   4.557  0.4340  0.0325  0.0827
 8625SOL    HW234266   6.081   4.426   4.479  0.1271  0.2030 -0.0344
 8625SOL    HW334267   5.942   4.399   4.533  0.4072 -1.8488 -0.2579
 8625SOL    MW434268   6.029   4.400   4.544 -0.4836 -0.4558 -0.2009
 8626SOL     OW34269   1.493   0.905   1.734 -0.3857  0.2774 -0.3775
 8626SOL    HW234270   1.432   0.949   1.793  0.1999  0.1306  0.3526
 8626SOL    HW334271   1.515   0.823   1.778  0.1732  0.2348 -0.7222
 8626SOL    MW434272   1.488   0.900   1.748  0.4654 -0.4265  0.4084
 8627SOL     OW34273   5.316   3.184   4.435 -0.1666  0.4096  0.5256
 8627SOL    HW234274   5.400   3.138   4.431 -0.3869  0.0926 -1.9644
 8627SOL    HW334275   5.304   3.220   4.347 -2.2723  1.1256  1.0502
 8627SOL    MW434276   5.325   3.183   4.423 -0.5086  0.0009  0.1589
 8628SOL     OW34277   2.295   6.300   0.636  0.2188 -0.1082  0.0868
 8628SOL    HW234278   2.239   6.359   0.687 -1.5883 -0.8980 -0.9044
 8628SOL    HW334279   2.345   6.358   0.578  0.4661  0.6096  0.9898
 8628SOL    MW434280   2.295   6.316   0.635  0.1184  0.4903 -1.0895
 8629SOL     OW34281   3.651   3.720   5.426  0.0333 -0.1282  0.1813
 8629SOL    HW234282   3.735   3.753   5.394 -0.3426  1.2582  0.5473
 8629SOL    HW334283   3.644   3.753   5.516 -0.5277 -0.9490  0.4553
 8629SOL    MW434284   3.661   3.729   5.434  0.1030 -0.6255  0.0647
 8630SOL     OW34285   5.066   2.996   1.972 -0.7731  0.3775  0.3578
 8630SOL    HW234286   4.994   3.008   1.910 -0.9138 -1.3452  0.1284
 8630SOL    HW334287   5.047   3.058   2.043 -1.6727  0.9876 -0.3890
 8630SOL    MW434288   5.054   3.006   1.973  0.7271 -0.0569 -0.5894
 8631SOL     OW34289   3.655   3.221   3.534 -0.1887  0.5471  0.2436
 8631SOL    HW234290   3.718   3.291   3.516 -0.4700  0.4777 -1.2009
 8631SOL    HW334291   3.613   3.246   3.616  1.9909  0.3680  1.4532
 8631SOL    MW434292   3.657   3.234   3.542  0.2266 -0.4916 -0.3573
 8632SOL     OW34293   4.374   5.612   0.887  0.0589  0.6556 -0.2384
 8632SOL    HW234294   4.324   5.675   0.939 -1.3370  0.2957 -1.1007
 8632SOL    HW334295   4.309   5.571   0.830  0.9056 -1.5719  0.2886
 8632SOL    MW434296   4.359   5.615   0.887  0.4623 -0.0205  0.2076
 8633SOL     OW34297   2.250   5.258   2.360  0.3711 -0.2069 -0.1455
 8633SOL    HW234298   2.251   5.219   2.447 -1.1263 -0.9654 -0.4367
 8633SOL    HW334299   2.341   5.284   2.344  0.8436 -0.9097  1.2477
 8633SOL    MW434300   2.262   5.256   2.369 -0.3957  0.5339 -0.6658
 8634SOL     OW34301   0.883   4.809   2.130  0.6242  0.0526 -0.0094
 8634SOL    HW234302   0.854   4.832   2.219  2.0541  0.9757  0.2493
 8634SOL    HW334303   0.956   4.749   2.144  0.4549 -0.3009 -0.5980
 8634SOL    MW434304   0.888   4.804   2.144  0.2857 -0.1964 -0.0057
 8635SOL     OW34305   1.114   6.335   3.105 -0.2585 -0.7182 -0.3725
 8635SOL    HW234306   1.098   6.245   3.132 -2.4880 -0.5718 -1.0222
 8635SOL    HW334307   1.069   6.344   3.022 -1.0055  1.2832  0.1852
 8635SOL    MW434308   1.106   6.324   3.098 -0.0526  0.2469 -0.0342
 8636SOL     OW34309   2.411   3.973   2.930 -0.0237  0.2412  0.9394
 8636SOL    HW234310   2.378   3.933   2.850 -1.2209  0.4771  1.2862
 8636SOL    HW334311   2.438   4.061   2.904 -0.6764  0.4186  0.8271
 8636SOL    MW434312   2.410   3.979   2.916  0.4635  0.5030  0.1285
 8637SOL     OW34313   2.912   6.178   1.602  0.3609  0.0047 -0.2267
 8637SOL    HW234314   2.844   6.146   1.542  0.5279  1.7270 -1.4077
 8637SOL    HW334315   2.871   6.252   1.646  1.5780  1.4039 -1.3398
 8637SOL    MW434316   2.898   6.183   1.600 -0.2769  0.0525  0.6150
 8638SOL     OW34317   3.591   0.810   3.509  0.0010  0.4935  0.0462
 8638SOL    HW234318   3.531   0.829   3.436 -1.3486  0.8178  1.1989
 8638SOL    HW334319   3.536   0.812   3.587  1.2361 -0.7839  1.0081
 8638SOL    MW434320   3.576   0.813   3.509  0.1069 -0.4075  0.5004
 8639SOL     OW34321   5.782   3.048   5.853  0.0089 -0.5448 -0.5926
 8639SOL    HW234322   5.775   2.954   5.834 -0.7388 -0.6481  0.1648
 8639SOL    HW334323   5.692   3.078   5.859  0.2183  0.5515 -2.3279
 8639SOL    MW434324   5.769   3.039   5.851 -0.1390  0.1968  0.2754
 8640SOL     OW34325   4.014   3.949   3.094 -0.9029  0.0548  0.1657
 8640SOL    HW234326   3.939   3.983   3.142  0.0157  0.5966  1.2700
 8640SOL    HW334327   4.011   3.994   3.010 -1.1440  0.9781  0.6584
 8640SOL    MW434328   4.004   3.959   3.089 -0.3542 -0.1822 -0.4670
 8641SOL     OW34329   3.459   4.805   0.319  0.2784  0.3568  0.7665
 8641SOL    HW234330   3.499   4.744   0.257  1.9376  0.6137  1.5328
 8641SOL    HW334331   3.429   4.750   0.391 -0.9103  0.1482  0.1305
 8641SOL    MW434332   3.461   4.790   0.320  0.5726 -0.0295  0.4255
 8642SOL     OW34333   4.261   3.325   5.569 -0.6131  0.4523 -0.1780
 8642SOL    HW234334   4.166   3.317   5.561 -0.5385  0.9247 -1.7596
 8642SOL    HW334335   4.292   3.343   5.480  1.1900 -1.7977 -0.1022
 8642SOL    MW434336   4.253   3.326   5.556  0.0589 -0.7480  0.5819
 8643SOL     OW34337   4.710   4.424   0.243 -0.2573 -0.3817 -0.4567
 8643SOL    HW234338   4.794   4.389   0.273 -0.5871 -1.4849 -0.7717
 8643SOL    HW334339   4.645   4.379   0.297 -0.6233  1.1207  0.4074
 8643SOL    MW434340   4.712   4.413   0.254 -0.4019  0.3411  0.1118
 8644SOL     OW34341   0.862   1.194   5.464  0.3814 -0.0522  0.8062
 8644SOL    HW234342   0.842   1.239   5.382 -0.6565 -0.5880  0.7502
 8644SOL    HW334343   0.924   1.125   5.438 -0.8961 -1.0318  0.2149
 8644SOL    MW434344   0.867   1.191   5.450 -0.3813  0.7264  0.1981
 8645SOL     OW34345   0.292   3.081   2.453 -0.7821  0.2778 -0.0664
 8645SOL    HW234346   0.210   3.091   2.501  0.5315  1.1218  2.0942
 8645SOL    HW334347   0.337   3.009   2.497 -0.0264  0.2991 -0.7768
 8645SOL    MW434348   0.287   3.072   2.465  0.2449 -0.0813 -0.0185
 8646SOL     OW34349   1.688   0.366   2.643  0.1807 -0.0369 -0.4200
 8646SOL    HW234350   1.685   0.423   2.720 -0.3544  0.2066 -0.6143
 8646SOL    HW334351   1.596   0.346   2.625  0.3956 -1.8994  0.3191
 8646SOL    MW434352   1.676   0.371   2.651 -0.1004  0.1039  0.5791
 8647SOL     OW34353   2.982   1.430   5.736  0.3304 -0.0083 -0.3578
 8647SOL    HW234354   2.895   1.404   5.768  0.8567  0.4392  1.5796
 8647SOL    HW334355   2.986   1.395   5.647 -0.3235 -3.6074  0.8374
 8647SOL    MW434356   2.971   1.422   5.728  0.3138  0.0614 -0.3945
 8648SOL     OW34357   3.357   2.514   1.534  0.6637  0.0750 -0.1997
 8648SOL    HW234358   3.364   2.607   1.555  1.1140 -0.4094  2.0879
 8648SOL    HW334359   3.445   2.489   1.504  0.4585  0.4239 -1.1288
 8648SOL    MW434360   3.370   2.523   1.533 -0.8659 -0.8423  0.1058
 8649SOL     OW34361   4.545   3.979   3.054 -0.0720  0.5696  0.0208
 8649SOL    HW234362   4.572   4.059   3.010 -0.0915  0.9984  0.7752
 8649SOL    HW334363   4.452   3.991   3.072 -0.3930 -0.1820 -1.0289
 8649SOL    MW434364   4.536   3.991   3.050 -0.5849  0.1286  0.3060
 8650SOL     OW34365   2.071   3.644   6.344  0.4532  0.0289 -0.3203
 8650SOL    HW234366   2.054   3.643   6.250 -1.3542  3.9044 -0.2238
 8650SOL    HW334367   1.984   3.643   6.384  1.0496  1.5771  1.1318
 8650SOL    MW434368   2.057   3.644   6.337  0.6718  0.1170  0.2473
 8651SOL     OW34369   1.120   1.472   0.159 -0.4137  0.7061  0.0139
 8651SOL    HW234370   1.178   1.548   0.168  2.6063 -1.3489 -0.4893
 8651SOL    HW334371   1.177   1.403   0.126 -3.2173 -1.5711 -0.4284
 8651SOL    MW434372   1.135   1.473   0.156  0.6311  0.1194 -0.0248
 8652SOL     OW34373   6.378   4.282   1.856 -0.4562 -0.1120 -0.6976
 8652SOL    HW234374   6.392   4.361   1.804  0.7020  0.0249 -0.2007
 8652SOL    HW334375   6.284   4.283   1.875 -0.4137  1.3218 -0.4478
 8652SOL    MW434376   6.367   4.293   1.852 -0.1296  0.2523  0.2345
 8653SOL     OW34377   6.113   2.707   4.220  0.2062 -0.0458  0.3041
 8653SOL    HW234378   6.119   2.788   4.170 -2.5530 -0.6326 -1.1490
 8653SOL    HW334379   6.040   2.721   4.280 -0.2685 -1.4192  0.0727
 8653SOL    MW434380   6.104   2.719   4.222  0.0918  0.6466 -0.0054
 8654SOL     OW34381   0.029   1.753   2.169  0.4470  0.8401  0.4500
 8654SOL    HW234382   0.064   1.780   2.254 -0.5090  1.5783  0.6164
 8654SOL    HW334383   0.049   1.827   2.111 -1.4689  1.6230  0.7210
 8654SOL    MW434384   0.037   1.766   2.172  0.3978 -0.0534 -0.5914
 8655SOL     OW34385   4.015  -0.026   0.343 -0.2520 -0.3784 -0.2549
 8655SOL    HW234386   4.072  -0.103   0.344 -0.7861 -0.8010 -1.2134
 8655SOL    HW334387   4.070   0.044   0.377  0.6177 -0.9346 -0.4715
 8655SOL    MW434388   4.030  -0.027   0.348 -0.1274  0.1716 -0.1384
 8656SOL     OW34389   5.038   5.613   4.264 -0.0329 -0.3962 -0.3667
 8656SOL    HW234390   5.032   5.703   4.294  2.7881  0.1346 -1.0398
 8656SOL    HW334391   5.051   5.619   4.169  0.4113 -1.4559 -0.3975
 8656SOL    MW434392   5.039   5.625   4.256 -0.3213 -0.2847 -0.1393
 8657SOL     OW34393   0.993   1.776   5.763  0.0574  0.1756  0.3243
 8657SOL    HW234394   0.961   1.865   5.780 -1.5030  0.0857 -1.8115
 8657SOL    HW334395   1.088   1.782   5.779  0.2115  2.5891 -1.0246
 8657SOL    MW434396   1.001   1.789   5.768  0.0309  0.3098  0.0368
 8658SOL     OW34397   1.435   0.058   1.468 -0.4727 -0.2180 -0.0641
 8658SOL    HW234398   1.522   0.074   1.431  0.6054 -0.6873  2.0923
 8658SOL    HW334399   1.395  -0.005   1.408  0.4390  0.4367 -1.4041
 8658SOL    MW434400   1.441   0.052   1.455 -0.0679 -0.1790  0.2003
 8659SOL     OW34401   2.249   5.836   1.002 -0.1631 -0.3143  0.2531
 8659SOL    HW234402   2.301   5.860   1.079 -0.9360  1.3755  0.2761
 8659SOL    HW334403   2.258   5.910   0.943 -1.3192 -0.6651 -0.3797
 8659SOL    MW434404   2.257   5.849   1.005 -0.2087 -0.1842 -0.2476
 8660SOL     OW34405   3.361   4.191   4.586  0.2302  0.5588 -0.2210
 8660SOL    HW234406   3.307   4.241   4.525  2.3832 -0.8984 -3.6086
 8660SOL    HW334407   3.326   4.102   4.581  2.8980 -0.4946 -2.7691
 8660SOL    MW434408   3.349   4.186   4.577 -0.1739 -0.4526  0.2991
 8661SOL     OW34409   3.743   0.652   2.246 -0.3154 -0.0703  0.0873
 8661SOL    HW234410   3.771   0.667   2.336 -0.7034 -0.5695  0.2952
 8661SOL    HW334411   3.679   0.720   2.229 -0.6716 -0.3271  0.3879
 8661SOL    MW434412   3.738   0.663   2.255 -0.0532 -0.3307  0.3138
 8662SOL     OW34413   6.098   4.051   0.835 -0.2196 -0.0711 -0.1903
 8662SOL    HW234414   6.039   4.119   0.870  0.6193  0.9594 -0.7121
 8662SOL    HW334415   6.165   4.041   0.902 -1.0958 -1.4586  0.5368
 8662SOL    MW434416   6.099   4.059   0.848 -0.0812  0.1833 -0.5997
 8663SOL     OW34417   5.213   5.219   3.078 -0.0032 -0.0813 -0.3150
 8663SOL    HW234418   5.253   5.149   3.129 -0.5320  0.1504  0.4188
 8663SOL    HW334419   5.237   5.198   2.987  0.5560 -0.7388 -0.0268
 8663SOL    MW434420   5.222   5.207   3.072 -0.4248 -0.0679 -0.3172
 8664SOL     OW34421   5.207   2.698   1.836 -0.1281  0.3909 -0.1134
 8664SOL    HW234422   5.171   2.779   1.802 -2.7714  0.5829  2.7414
 8664SOL    HW334423   5.136   2.634   1.828  0.8162 -0.7905  0.5330
 8664SOL    MW434424   5.193   2.700   1.831  0.0133 -0.7620 -0.4543
 8665SOL     OW34425   5.691   2.672   5.504 -0.7914  0.0827 -0.3341
 8665SOL    HW234426   5.607   2.717   5.512 -1.1582 -0.7342  0.7273
 8665SOL    HW334427   5.755   2.742   5.487 -1.3429  1.0205  1.2491
 8665SOL    MW434428   5.689   2.687   5.503 -0.2048 -0.6884  0.0014
 8666SOL     OW34429   5.882   5.750   3.417 -0.3717 -0.3056 -0.3320
 8666SOL    HW234430   5.944   5.684   3.448  0.5990  1.6527  2.1982
 8666SOL    HW334431   5.796   5.713   3.435  0.1395 -1.0576  0.6617
 8666SOL    MW434432   5.879   5.736   3.423 -0.2257  0.3262  0.5287
 8667SOL     OW34433   6.385   5.912   4.369 -0.4187 -0.7398 -0.0026
 8667SOL    HW234434   6.372   5.818   4.357  1.5947 -0.9210 -1.0979
 8667SOL    HW334435   6.423   5.921   4.456  2.8843 -1.4024 -1.2330
 8667SOL    MW434436   6.388   5.901   4.379  0.4348  0.3595  0.2716
 8668SOL     OW34437   3.257   1.956   4.631 -0.5307 -0.0988  0.2079
 8668SOL    HW234438   3.353   1.958   4.638 -0.3162 -0.6420 -1.8373
 8668SOL    HW334439   3.232   2.048   4.628  0.1294  0.0579 -1.0990
 8668SOL    MW434440   3.267   1.968   4.632  0.3820 -0.4042 -0.3785
 8669SOL     OW34441   5.644   6.221   4.310 -1.0096 -0.1498  0.0117
 8669SOL    HW234442   5.739   6.209   4.309 -0.9407 -0.1485  1.9192
 8669SOL    HW334443   5.617   6.185   4.395 -2.3462  2.1257  0.6283
 8669SOL    MW434444   5.653   6.215   4.321 -0.5043 -0.6619 -0.4136
 8670SOL     OW34445   3.415   4.178   3.922  0.6051  0.2032  0.3305
 8670SOL    HW234446   3.349   4.243   3.945 -0.5783 -0.1926 -1.7626
 8670SOL    HW334447   3.470   4.221   3.857 -0.1431 -0.8354 -1.0171
 8670SOL    MW434448   3.414   4.192   3.917  0.2768 -0.0642  0.1936
 8671SOL     OW34449   1.302   5.434   1.039 -0.4339  0.2016 -0.0401
 8671SOL    HW234450   1.391   5.461   1.014 -0.9911  1.5302 -0.6968
 8671SOL    HW334451   1.246   5.502   1.003 -1.6981 -0.4001  0.7367
 8671SOL    MW434452   1.307   5.446   1.031  0.0846 -0.1114 -0.5337
 8672SOL     OW34453   0.103   3.884   2.514 -0.2401 -0.0211  0.6720
 8672SOL    HW234454   0.131   3.843   2.595 -0.3584  1.4262  1.4829
 8672SOL    HW334455   0.119   3.977   2.527 -2.1563  0.4943 -0.1670
 8672SOL    MW434456   0.109   3.891   2.526  0.2006 -0.1846  0.0959
 8673SOL     OW34457   0.659   3.127   0.793 -0.1092  0.0329  0.0002
 8673SOL    HW234458   0.590   3.190   0.815  0.1599 -0.4940  2.6983
 8673SOL    HW334459   0.614   3.043   0.791  0.2292 -0.1684  0.5916
 8673SOL    MW434460   0.644   3.124   0.796  0.6037  0.2784 -0.2685
 8674SOL     OW34461   5.318   3.905   3.839 -0.2225  0.1956 -0.1519
 8674SOL    HW234462   5.251   3.902   3.771 -0.6368  2.1741  0.1046
 8674SOL    HW334463   5.287   3.844   3.906 -0.8379 -0.2513 -0.8307
 8674SOL    MW434464   5.305   3.897   3.839 -0.2931 -0.0132  0.4118
 8675SOL     OW34465   6.280   2.168   2.525  0.2378 -0.3256 -0.2437
 8675SOL    HW234466   6.342   2.238   2.545  0.2950 -0.6880  0.9663
 8675SOL    HW334467   6.194   2.207   2.543  0.2295 -0.3732 -0.1790
 8675SOL    MW434468   6.277   2.182   2.530 -0.4015 -0.1795  0.1610
 8676SOL     OW34469   4.266   5.264   5.699 -0.0937  0.2859  0.1332
 8676SOL    HW234470   4.324   5.208   5.750 -0.5115 -1.3211 -1.0410
 8676SOL    HW334471   4.182   5.259   5.745 -0.2094 -0.3457 -0.1277
 8676SOL    MW434472   4.262   5.256   5.711 -0.3172 -0.0617  0.0706
 8677SOL     OW34473   2.554   5.942   2.777 -0.4012 -0.4799 -0.0036
 8677SOL    HW234474   2.564   6.000   2.854 -0.4388  0.3773 -0.6274
 8677SOL    HW334475   2.619   5.873   2.791 -0.7205 -0.5933  1.0280
 8677SOL    MW434476   2.564   5.941   2.789  0.0690 -0.1099 -0.0670
 8678SOL     OW34477   0.999   0.834   2.442 -0.2425  0.7147  0.1036
 8678SOL    HW234478   1.055   0.904   2.473 -1.1902  0.5657  2.3131
 8678SOL    HW334479   1.057   0.758   2.434  0.3383  1.1748 -0.1162
 8678SOL    MW434480   1.014   0.833   2.445 -0.0218  0.3132 -0.2287
 8679SOL     OW34481   6.173   0.886   0.731 -0.2918 -0.1113 -0.1967
 8679SOL    HW234482   6.079   0.871   0.725 -0.2963  0.3532 -1.4457
 8679SOL    HW334483   6.210   0.846   0.653  0.4282  0.6474 -0.2653
 8679SOL    MW434484   6.166   0.879   0.720  0.0433 -0.5060  0.0688
 8680SOL     OW34485   6.145   1.403   1.630 -0.2581 -0.1708 -0.2175
 8680SOL    HW234486   6.151   1.488   1.587 -0.2816  0.0109  0.1380
 8680SOL    HW334487   6.121   1.423   1.721  0.7682 -0.4874  0.1374
 8680SOL    MW434488   6.143   1.417   1.637 -0.5282  0.2208 -0.2855
 8681SOL     OW34489   3.451   4.347   0.919 -0.0760 -0.3718  0.5309
 8681SOL    HW234490   3.506   4.343   0.997  0.3588 -0.4219  0.2269
 8681SOL    HW334491   3.509   4.321   0.847 -0.2151  0.5678  0.0571
 8681SOL    MW434492   3.466   4.343   0.920  0.2896  0.2212 -0.1594
 8682SOL     OW34493   2.533   1.889   4.199  0.2299  0.0035  0.0957
 8682SOL    HW234494   2.506   1.816   4.255  0.5981 -0.9042 -0.8832
 8682SOL    HW334495   2.613   1.922   4.239 -0.2546  0.2628  0.8749
 8682SOL    MW434496   2.540   1.884   4.212  0.0617  0.8190  0.5761
 8683SOL     OW34497   4.621   6.028   5.265  0.4043  0.7817 -0.4757
 8683SOL    HW234498   4.678   5.951   5.260 -1.3057 -0.5286 -0.6797
 8683SOL    HW334499   4.590   6.040   5.176 -1.4218  0.0220  0.0160
 8683SOL    MW434500   4.625   6.019   5.253  0.5554  0.7074  0.1139
 8684SOL     OW34501   5.798   0.176   2.704  0.1490 -0.3381  0.2683
 8684SOL    HW234502   5.777   0.180   2.797 -0.0624  1.6682  0.1738
 8684SOL    HW334503   5.717   0.147   2.662 -0.1407  0.0178  0.5824
 8684SOL    MW434504   5.785   0.172   2.711  0.2589  0.4863  0.1395
 8685SOL     OW34505   3.919   1.759   2.229  0.4462 -0.5854 -0.4543
 8685SOL    HW234506   3.937   1.799   2.143 -1.9691 -2.3551 -1.9144
 8685SOL    HW334507   3.825   1.772   2.242  0.9381  0.7216  2.6223
 8685SOL    MW434508   3.909   1.766   2.219  0.0653  0.5299 -0.1062
 8686SOL     OW34509   2.574   1.993   2.874 -0.5191 -0.1258 -0.0575
 8686SOL    HW234510   2.648   1.955   2.921 -0.6561  0.3591  0.5662
 8686SOL    HW334511   2.575   2.086   2.900 -1.9598 -0.3182  0.7689
 8686SOL    MW434512   2.584   2.000   2.884  0.3249  0.2963 -0.5378
 8687SOL     OW34513   3.548   6.143   5.229  0.7657  0.6296  0.0035
 8687SOL    HW234514   3.484   6.077   5.258  0.2702  1.7742  1.6271
 8687SOL    HW334515   3.629   6.119   5.273  0.5658  1.1163  0.6572
 8687SOL    MW434516   3.550   6.131   5.238  0.2353 -0.1211  0.0372
 8688SOL     OW34517   0.081   3.116   0.754  0.3741 -0.0997  0.0853
 8688SOL    HW234518   0.131   3.165   0.687  1.7776 -2.3350 -0.6193
 8688SOL    HW334519   0.026   3.057   0.703  0.5620 -0.9860  0.8918
 8688SOL    MW434520   0.081   3.115   0.738  0.1276 -0.2907 -0.1780
 8689SOL     OW34521   0.441   6.248   3.868  0.0227  0.4580  0.0746
 8689SOL    HW234522   0.432   6.214   3.779  1.7719 -0.7121  0.2865
 8689SOL    HW334523   0.479   6.176   3.918  1.1345  1.7815  1.2425
 8689SOL    MW434524   0.445   6.234   3.863 -0.1095  0.4997 -0.0989
 8690SOL     OW34525   1.471   2.596   3.650 -0.0771 -0.7546 -0.3301
 8690SOL    HW234526   1.558   2.636   3.648 -0.1252 -0.4801  1.6667
 8690SOL    HW334527   1.439   2.605   3.560  0.9352  1.4464 -0.5355
 8690SOL    MW434528   1.478   2.603   3.638  0.7335 -0.0460 -0.4972
 8691SOL     OW34529   1.174   0.986   2.595 -0.5062  0.0291 -0.3849
 8691SOL    HW234530   1.257   0.971   2.640 -1.3054 -1.0894  0.8060
 8691SOL    HW334531   1.107   0.955   2.657 -1.7430 -0.2989 -1.8123
 8691SOL    MW434532   1.176   0.980   2.609 -0.1414 -0.9303 -0.0150
 8692SOL     OW34533   5.867   0.545   2.677 -0.0423  0.1084  0.6181
 8692SOL    HW234534   5.789   0.506   2.716  0.1887 -1.0426 -0.0047
 8692SOL    HW334535   5.927   0.471   2.665 -0.0347  0.4077 -1.7316
 8692SOL    MW434536   5.865   0.530   2.680 -0.0490  0.1033  0.0516
 8693SOL     OW34537   6.187   3.932   4.774  0.1772 -0.3352 -1.3520
 8693SOL    HW234538   6.260   3.955   4.831 -1.7485 -0.0428  1.1704
 8693SOL    HW334539   6.153   4.016   4.743 -1.8308 -0.0384  1.2731
 8693SOL    MW434540   6.192   3.946   4.777 -0.2407 -0.2484 -0.3276
 8694SOL     OW34541   0.072   4.051   0.706  0.4537 -1.2655  0.7232
 8694SOL    HW234542   0.166   4.045   0.688  0.0392 -2.1611 -1.5666
 8694SOL    HW334543   0.034   4.070   0.620 -1.3934  0.2181  1.8035
 8694SOL    MW434544   0.080   4.053   0.692  0.2547  0.3282  0.0357
 8695SOL     OW34545   1.565   0.944   4.232  0.1662 -0.9431 -0.1337
 8695SOL    HW234546   1.613   0.889   4.169 -0.4337  1.2144 -2.6436
 8695SOL    HW334547   1.628   1.011   4.258  0.4308 -1.8476  1.7439
 8695SOL    MW434548   1.580   0.946   4.227  0.6292 -0.5408 -0.8366
 8696SOL     OW34549   4.296   3.956   3.169  0.0310  0.1907  0.3077
 8696SOL    HW234550   4.289   4.030   3.229 -4.1526  1.1990 -1.0991
 8696SOL    HW334551   4.208   3.944   3.135  0.7629 -4.6209 -0.6609
 8696SOL    MW434552   4.283   3.964   3.173  0.5842 -0.2561 -0.4677
 8697SOL     OW34553   1.531   4.166   2.297 -0.3896 -0.2405  0.3021
 8697SOL    HW234554   1.503   4.078   2.273 -0.0966 -0.3116  0.2189
 8697SOL    HW334555   1.457   4.222   2.275 -0.5357 -0.4522  0.2576
 8697SOL    MW434556   1.518   4.162   2.291 -0.5248  0.2158  0.0258
 8698SOL     OW34557   5.904   3.619   3.091  0.0347 -0.0581  0.3104
 8698SOL    HW234558   5.948   3.644   3.010 -1.1668 -1.0403 -0.6958
 8698SOL    HW334559   5.938   3.679   3.157  1.9286  0.0109 -0.6575
 8698SOL    MW434560   5.914   3.630   3.089  0.0491 -0.2648  0.5858
 8699SOL     OW34561   0.684   1.399   1.609  0.5296  0.6485 -0.4500
 8699SOL    HW234562   0.608   1.381   1.665  0.8628  2.1903  0.5560
 8699SOL    HW334563   0.646   1.435   1.529  0.1752  0.9908 -0.1312
 8699SOL    MW434564   0.669   1.401   1.606 -0.1411 -0.2598  0.1610
 8700SOL     OW34565   0.758   1.557   3.894 -0.1091  0.0954 -0.2177
 8700SOL    HW234566   0.739   1.482   3.951 -3.4221  0.5857 -0.4842
 8700SOL    HW334567   0.776   1.518   3.808 -0.9726 -0.4757 -0.1556
 8700SOL    MW434568   0.758   1.542   3.890 -0.0942  0.0240 -0.3356
 8701SOL     OW34569   5.828   5.849   4.519  0.2132 -0.3008  0.3203
 8701SOL    HW234570   5.867   5.786   4.459  1.9293  1.3187 -0.3412
 8701SOL    HW334571   5.756   5.801   4.560 -0.3592 -1.7879 -2.2263
 8701SOL    MW434572   5.823   5.834   4.517  0.1299 -0.1654 -0.3421
 8702SOL     OW34573   0.123   4.869   4.409 -0.4075 -0.0450  0.2297
 8702SOL    HW234574   0.096   4.792   4.359  0.3511  0.2600 -0.6643
 8702SOL    HW334575   0.215   4.854   4.430  0.1633  1.2598 -1.2144
 8702SOL    MW434576   0.131   4.857   4.405 -0.2845 -0.5353  0.2065
 8703SOL     OW34577   5.870   1.552   2.947  0.8128  0.1778  0.4184
 8703SOL    HW234578   5.959   1.548   2.982  0.7549 -0.8290  0.4854
 8703SOL    HW334579   5.853   1.646   2.934  1.5445  0.4355  1.2511
 8703SOL    MW434580   5.879   1.564   2.950 -0.1187 -0.8394  0.6620
 8704SOL     OW34581   2.603   3.796   5.147  0.1675 -0.4660  0.2790
 8704SOL    HW234582   2.696   3.775   5.148  0.6871  1.3106 -2.2217
 8704SOL    HW334583   2.598   3.882   5.190 -0.1013  0.0136 -0.6805
 8704SOL    MW434584   2.615   3.805   5.153  0.0143 -0.8882  0.0459
 8705SOL     OW34585   0.921   0.856   1.823  0.5608 -0.8631 -0.2695
 8705SOL    HW234586   0.992   0.802   1.857  0.4561 -0.0275  1.3569
 8705SOL    HW334587   0.847   0.838   1.882  1.5164  3.7582  2.8389
 8705SOL    MW434588   0.920   0.846   1.835  0.4739  0.3016  0.3142
 8706SOL     OW34589   2.135   3.965   1.797  0.0557  0.5912 -0.9513
 8706SOL    HW234590   2.090   3.908   1.735  1.7843  0.3048 -2.0241
 8706SOL    HW334591   2.150   3.910   1.874 -1.3963  0.7055 -0.5661
 8706SOL    MW434592   2.131   3.950   1.799  0.0107 -0.0198  0.1999
 8707SOL     OW34593   6.125   4.678   6.051  0.2994  0.2884  0.1068
 8707SOL    HW234594   6.031   4.688   6.039  0.3875 -0.1431 -1.1435
 8707SOL    HW334595   6.163   4.708   5.969  1.1912 -0.3827  0.2525
 8707SOL    MW434596   6.118   4.683   6.039  0.6962  0.5412 -0.9176
 8708SOL     OW34597   4.040   6.213   1.654 -0.4042  0.3306  0.2471
 8708SOL    HW234598   4.043   6.303   1.688  0.1537 -0.3287  2.0423
 8708SOL    HW334599   4.095   6.163   1.714 -1.7750 -1.4712  0.0835
 8708SOL    MW434600   4.048   6.218   1.666  0.2127  0.0037 -0.2038
 8709SOL     OW34601   4.057   6.284   5.002 -0.2096 -0.1365 -0.2799
 8709SOL    HW234602   3.972   6.253   4.969 -0.6255  0.6551  0.0240
 8709SOL    HW334603   4.064   6.245   5.089  1.1971 -2.7901 -1.4483
 8709SOL    MW434604   4.047   6.274   5.009 -0.4015 -0.3902 -0.4142
 8710SOL     OW34605   1.509   0.195   4.124  0.4607 -0.5386  0.5139
 8710SOL    HW234606   1.592   0.221   4.084  0.0041 -2.5738 -2.0765
 8710SOL    HW334607   1.533   0.135   4.194  1.2202  0.4468  1.1106
 8710SOL    MW434608   1.523   0.190   4.128 -0.4352 -0.2127  0.8131
 8711SOL     OW34609   1.751   1.066   5.136  0.3388  0.4505  0.5076
 8711SOL    HW234610   1.807   0.995   5.105 -1.2328 -1.3599  1.6143
 8711SOL    HW334611   1.772   1.073   5.229 -0.3481  0.6206  0.6535
 8711SOL    MW434612   1.761   1.058   5.144  0.0488 -0.6510  0.2501
 8712SOL     OW34613   0.440   5.758   3.268  1.0893 -0.2185 -0.1770
 8712SOL    HW234614   0.378   5.797   3.329  0.8001 -1.4332  0.3308
 8712SOL    HW334615   0.522   5.806   3.283  0.4215  1.0987 -0.5431
 8712SOL    MW434616   0.443   5.770   3.278 -0.5645 -0.3408 -0.2490
 8713SOL     OW34617   3.507   4.289   5.745  0.1441  0.2241 -0.0358
 8713SOL    HW234618   3.469   4.346   5.811 -0.2600  1.7809 -1.5287
 8713SOL    HW334619   3.592   4.329   5.725 -0.1454  0.3508 -1.1060
 8713SOL    MW434620   3.513   4.302   5.751 -0.3214  0.0511 -0.3651
 8714SOL     OW34621   3.117   0.161   5.200 -0.4734 -0.2905  0.5125
 8714SOL    HW234622   3.183   0.201   5.257  0.3999  1.0064 -1.2832
 8714SOL    HW334623   3.137   0.068   5.202  0.4088 -0.1023  1.2394
 8714SOL    MW434624   3.129   0.154   5.208  0.4402 -0.4695  0.0748
 8715SOL     OW34625   4.865   0.248   1.216  0.3159  0.1078  0.6774
 8715SOL    HW234626   4.774   0.277   1.209 -0.3489 -1.9111  0.2850
 8715SOL    HW334627   4.859   0.161   1.255  2.2567  0.7528  2.6070
 8715SOL    MW434628   4.852   0.240   1.221 -0.1443 -0.4845  0.3073
 8716SOL     OW34629   0.979   0.584   3.172  0.4756 -0.1559 -0.5826
 8716SOL    HW234630   1.060   0.565   3.125  1.4407  3.8393 -0.8905
 8716SOL    HW334631   0.994   0.669   3.212 -3.7598  1.0986 -1.1418
 8716SOL    MW434632   0.992   0.593   3.171  0.0223 -0.1919  0.1832
 8717SOL     OW34633   2.107   5.657   0.637  0.0563  0.0397  0.4276
 8717SOL    HW234634   2.103   5.659   0.733 -1.2595 -0.1308  0.3928
 8717SOL    HW334635   2.021   5.687   0.608  0.6412  0.6881 -0.7266
 8717SOL    MW434636   2.095   5.661   0.646  0.6006 -0.5570 -0.1711
 8718SOL     OW34637   1.393   4.648   6.262 -0.2657  0.5469  0.0850
 8718SOL    HW234638   1.453   4.575   6.246  0.1973  0.6623  1.1713
 8718SOL    HW334639   1.413   4.711   6.192  1.1466  0.7328  0.6160
 8718SOL    MW434640   1.404   4.647   6.251 -0.0213  0.0425  0.9113
 8719SOL     OW34641   3.469   0.830   3.766 -0.1298  0.0520 -0.2978
 8719SOL    HW234642   3.402   0.761   3.771 -1.3582  1.2438  0.8903
 8719SOL    HW334643   3.513   0.826   3.851 -0.2939  0.7690 -0.1680
 8719SOL    MW434644   3.466   0.820   3.778  0.0271 -0.3914  0.4189
 8720SOL     OW34645   3.183   0.464   0.500 -0.4561 -0.1598  0.1297
 8720SOL    HW234646   3.135   0.530   0.451 -1.4048 -0.7444  0.2610
 8720SOL    HW334647   3.193   0.501   0.587 -1.0727 -0.2231  0.2316
 8720SOL    MW434648   3.178   0.478   0.505  0.2942  0.1731  0.2666
 8721SOL     OW34649   0.374   6.092   4.223  0.5055 -0.2075 -0.8914
 8721SOL    HW234650   0.418   6.011   4.250 -0.6597 -1.4606 -2.5459
 8721SOL    HW334651   0.326   6.068   4.144 -3.0980  1.0529  0.6724
 8721SOL    MW434652   0.374   6.078   4.216 -0.1528  0.1005  0.4258
 8722SOL     OW34653   5.199   6.064   2.586 -0.5568  0.5166  0.2560
 8722SOL    HW234654   5.224   6.038   2.497 -0.1310 -0.3136  0.6154
 8722SOL    HW334655   5.263   6.132   2.609  0.1307 -0.1747  0.4079
 8722SOL    MW434656   5.211   6.070   2.577 -0.4816 -0.0857  0.1046
 8723SOL     OW34657   5.610   3.874   3.222  0.3283  0.0007  0.4383
 8723SOL    HW234658   5.561   3.792   3.225 -0.1231  0.2326 -0.2945
 8723SOL    HW334659   5.660   3.876   3.304 -1.1421 -0.0783  1.3594
 8723SOL    MW434660   5.610   3.863   3.233 -0.4633  0.3834  0.1950
 8724SOL     OW34661   5.865   3.947   2.754 -0.3869 -0.1675 -0.0566
 8724SOL    HW234662   5.910   4.031   2.755  0.0164 -0.2641 -2.7489
 8724SOL    HW334663   5.774   3.968   2.775  0.0578  0.6281  1.1899
 8724SOL    MW434664   5.859   3.961   2.757  0.4208 -0.5004 -0.0162
 8725SOL     OW34665   5.659   5.497   1.630 -0.4837  0.1314 -0.2648
 8725SOL    HW234666   5.618   5.581   1.649  0.4808  0.2173  1.7202
 8725SOL    HW334667   5.622   5.470   1.546 -0.3346  2.8295 -1.2896
 8725SOL    MW434668   5.649   5.505   1.622  0.3724  0.1858 -0.2777
 8726SOL     OW34669   5.088   2.002   0.844 -0.2171  0.0052  0.2991
 8726SOL    HW234670   5.145   2.074   0.870 -1.3365  0.7836  0.6829
 8726SOL    HW334671   5.116   1.929   0.900  0.1476  0.4852  0.7593
 8726SOL    MW434672   5.099   2.002   0.855 -0.3267 -0.5373  0.6472
 8727SOL     OW34673   4.733   0.584   4.023 -0.1589  0.6048  1.1330
 8727SOL    HW234674   4.764   0.539   4.102  0.9878 -0.2114  0.2512
 8727SOL    HW334675   4.680   0.519   3.978  0.5202  0.5062  0.4457
 8727SOL    MW434676   4.730   0.569   4.027  0.3328 -0.0590 -0.3724
 8728SOL     OW34677   1.080   4.803   1.602 -0.8523 -0.3491  0.3813
 8728SOL    HW234678   1.024   4.858   1.655  0.4871 -0.3374  1.8593
 8728SOL    HW334679   1.169   4.836   1.618 -0.3127 -0.8849 -1.2302
 8728SOL    MW434680   1.084   4.814   1.611 -0.0755  0.3587  0.8225
 8729SOL     OW34681   1.197   4.191   2.505 -0.2529 -0.2783  0.1344
 8729SOL    HW234682   1.201   4.104   2.464 -3.1997 -1.0578  1.2050
 8729SOL    HW334683   1.229   4.177   2.594  1.8001  0.3973 -0.4479
 8729SOL    MW434684   1.201   4.178   2.512 -0.0776 -1.0636  0.0576
 8730SOL     OW34685   4.901   3.564   1.313  0.2117 -0.7784 -0.3416
 8730SOL    HW234686   4.938   3.652   1.320 -3.0678  0.6437  0.7931
 8730SOL    HW334687   4.906   3.544   1.219  1.4414  0.3651 -0.5658
 8730SOL    MW434688   4.907   3.573   1.301 -0.8089  0.3754 -0.7841
 8731SOL     OW34689   3.718   2.481   1.687 -0.0428  0.3143 -0.1739
 8731SOL    HW234690   3.743   2.572   1.669  0.1208  0.2735 -0.1523
 8731SOL    HW334691   3.669   2.485   1.770  0.2777  0.3329  0.0149
 8731SOL    MW434692   3.715   2.493   1.696 -0.1864  0.1257 -0.4942
 8732SOL     OW34693   2.140   2.950   0.235  0.3449  0.6364  0.2621
 8732SOL    HW234694   2.130   3.042   0.211 -1.7621  0.5819  0.7629
 8732SOL    HW334695   2.107   2.944   0.324 -0.3028 -0.7490 -0.0408
 8732SOL    MW434696   2.135   2.961   0.243  0.4506  0.6926  0.3777
 8733SOL     OW34697   5.918   1.122   4.335 -0.2247  0.0252 -0.4346
 8733SOL    HW234698   5.930   1.027   4.343 -0.5280 -0.2027 -2.1740
 8733SOL    HW334699   5.836   1.131   4.285 -0.6601  1.2285  0.4630
 8733SOL    MW434700   5.909   1.111   4.329 -0.1868  0.2910  0.1281
 8734SOL     OW34701   4.386   1.524   0.912  0.2625 -0.3336  0.6161
 8734SOL    HW234702   4.372   1.504   1.005 -0.2980 -2.1373  0.1722
 8734SOL    HW334703   4.366   1.443   0.866  2.4430 -0.0829 -0.9500
 8734SOL    MW434704   4.382   1.511   0.918 -0.0889  0.0020 -0.4275
 8735SOL     OW34705   1.775   5.392   1.808  0.1303  0.9154  0.4553
 8735SOL    HW234706   1.686   5.398   1.844 -1.2175 -1.5215 -2.0461
 8735SOL    HW334707   1.780   5.465   1.747 -0.0191  1.2659  0.8572
 8735SOL    MW434708   1.764   5.402   1.805 -0.4681  0.1147 -0.2159
 8736SOL     OW34709   2.230   3.379   5.813  0.0487 -0.0798  0.0897
 8736SOL    HW234710   2.135   3.372   5.808 -0.1048  1.7009 -0.2683
 8736SOL    HW334711   2.254   3.328   5.891 -1.3193  0.3899  0.8576
 8736SOL    MW434712   2.221   3.372   5.823  0.9603  0.7313 -0.6187
 8737SOL     OW34713   0.469   3.300   0.863  0.6372  0.1428  0.3319
 8737SOL    HW234714   0.493   3.389   0.888  0.2170  0.3246  0.0909
 8737SOL    HW334715   0.386   3.283   0.909  0.4009  0.1001 -0.1036
 8737SOL    MW434716   0.461   3.309   0.872  0.2196 -0.1121 -0.4450
 8738SOL     OW34717   4.182   5.014   0.622 -0.3955 -0.3150 -0.0200
 8738SOL    HW234718   4.143   5.006   0.534  0.2411 -0.2036 -0.3147
 8738SOL    HW334719   4.250   4.947   0.624 -0.1220 -0.0288  0.2375
 8738SOL    MW434720   4.186   5.004   0.610 -0.0023 -0.8831  1.3835
 8739SOL     OW34721   6.012   1.450   0.677  0.1780 -0.7080 -0.6029
 8739SOL    HW234722   6.095   1.498   0.672  1.1930 -2.4171 -1.4891
 8739SOL    HW334723   5.991   1.448   0.770 -0.1887  1.7966 -0.5662
 8739SOL    MW434724   6.020   1.456   0.689  0.0210 -0.6863 -0.2401
 8740SOL     OW34725   5.995   3.124   4.220  0.5285  0.4837  0.1732
 8740SOL    HW234726   5.907   3.152   4.194  0.4177  0.5128  0.5707
 8740SOL    HW334727   6.054   3.169   4.160  0.2911  0.7326  0.1280
 8740SOL    MW434728   5.991   3.133   4.209  0.1922 -0.2874 -0.3609
 8741SOL     OW34729   6.196   3.304   0.455  0.2114 -0.3155 -0.2745
 8741SOL    HW234730   6.220   3.211   0.456  0.1333 -0.3376 -0.4393
 8741SOL    HW334731   6.277   3.350   0.478 -0.2576 -0.5315  2.1542
 8741SOL    MW434732   6.210   3.297   0.458  0.2227  0.0632 -0.0919
 8742SOL     OW34733   3.769   1.646   6.124 -0.1943  0.3471  0.0881
 8742SOL    HW234734   3.698   1.674   6.182 -0.4831 -2.0325  1.0008
 8742SOL    HW334735   3.748   1.685   6.039 -1.0699  1.9542  1.0109
 8742SOL    MW434736   3.757   1.655   6.120  0.8854 -0.4128  0.4624
 8743SOL     OW34737   4.010   5.762   5.878  0.2594 -0.3713 -0.4218
 8743SOL    HW234738   4.101   5.791   5.866 -0.0462  0.2637 -1.3047
 8743SOL    HW334739   3.971   5.830   5.933  0.4312 -0.8948  0.3704
 8743SOL    MW434740   4.017   5.775   5.884  0.0723 -0.4451  0.0335
 8744SOL     OW34741   4.204   2.838   0.301 -0.1122  0.2581 -0.4668
 8744SOL    HW234742   4.153   2.762   0.271 -0.5860  0.4788 -0.2202
 8744SOL    HW334743   4.277   2.799   0.349 -0.0222 -0.0601 -0.8490
 8744SOL    MW434744   4.207   2.823   0.303  0.2431  0.0878 -1.1355
 8745SOL     OW34745   5.644   5.374   1.908 -0.0935 -0.2223 -0.0219
 8745SOL    HW234746   5.739   5.389   1.912 -0.3479  1.3070  1.1417
 8745SOL    HW334747   5.620   5.390   1.817  0.4403  1.6768  0.1406
 8745SOL    MW434748   5.654   5.378   1.897  0.5375 -0.1736 -1.1674
 8746SOL     OW34749   1.293   2.257   3.789 -0.0949  0.1070 -0.3165
 8746SOL    HW234750   1.380   2.232   3.759 -0.0496 -1.4038  0.9418
 8746SOL    HW334751   1.242   2.176   3.785 -0.5450  0.2147  1.9560
 8746SOL    MW434752   1.298   2.243   3.784 -0.2766  0.2374  0.2432
 8747SOL     OW34753   4.806   6.312   2.861  0.3419 -0.3595 -0.0587
 8747SOL    HW234754   4.857   6.294   2.782  0.7304  0.3943  0.0124
 8747SOL    HW334755   4.775   6.226   2.890 -0.2773 -0.6012 -1.3433
 8747SOL    MW434756   4.809   6.298   2.854 -0.5267 -0.7615  0.0990
 8748SOL     OW34757   5.757   2.119   6.276  0.4726 -0.3548  0.1332
 8748SOL    HW234758   5.680   2.117   6.218  0.4916  0.8170  0.0452
 8748SOL    HW334759   5.721   2.107   6.364 -0.2364  3.0303  0.4388
 8748SOL    MW434760   5.742   2.117   6.280  0.4514 -0.2776 -0.0469
 8749SOL     OW34761   5.991   3.578   0.651  0.1416  0.1229 -0.2187
 8749SOL    HW234762   6.069   3.561   0.704 -0.1634 -4.0364 -0.7555
 8749SOL    HW334763   5.982   3.673   0.651  3.8960  0.6600  1.6872
 8749SOL    MW434764   6.000   3.588   0.658  0.6720 -0.3456  0.1103
 8750SOL     OW34765   6.341   4.638   3.100  0.1160 -0.7720  0.7804
 8750SOL    HW234766   6.278   4.568   3.081 -0.7557  0.2830 -0.4116
 8750SOL    HW334767   6.367   4.623   3.191 -1.5624 -1.4918  1.1787
 8750SOL    MW434768   6.336   4.627   3.110  0.1155 -0.4471  0.3193
 8751SOL     OW34769   5.831   1.259   5.671 -0.1320  0.5502 -0.0772
 8751SOL    HW234770   5.782   1.305   5.603 -0.2207  2.0838  0.9653
 8751SOL    HW334771   5.764   1.236   5.737  0.1098  0.0391 -0.0056
 8751SOL    MW434772   5.815   1.262   5.671  0.4013 -0.3565 -0.2209
 8752SOL     OW34773   4.695   0.027   3.478  0.5298  0.0321  0.4069
 8752SOL    HW234774   4.707   0.060   3.568  0.0405 -0.5998  0.7099
 8752SOL    HW334775   4.602   0.041   3.460  0.5435 -0.2106  0.1511
 8752SOL    MW434776   4.684   0.033   3.488  0.3823 -0.2220 -0.0860
 8753SOL     OW34777   6.359   5.712   5.072 -0.0056 -0.1954 -0.4875
 8753SOL    HW234778   6.331   5.750   4.989 -1.0665  0.3721  0.1098
 8753SOL    HW334779   6.384   5.788   5.126 -0.5109 -0.4554  0.1272
 8753SOL    MW434780   6.358   5.727   5.068  0.7887 -0.1877 -0.0115
 8754SOL     OW34781   1.712   6.374   1.351  0.1302 -0.4798  0.2371
 8754SOL    HW234782   1.784   6.422   1.310  0.9761 -0.0340  2.1536
 8754SOL    HW334783   1.653   6.354   1.278  0.7056  1.7638 -0.9655
 8754SOL    MW434784   1.713   6.378   1.336 -0.2053 -0.3462  0.1460
 8755SOL     OW34785   0.048   4.128   3.966  0.1471  0.1323 -0.5797
 8755SOL    HW234786  -0.039   4.126   3.925 -0.1575 -1.3660  0.0801
 8755SOL    HW334787   0.053   4.046   4.016  0.3175  2.0140  2.7705
 8755SOL    MW434788   0.037   4.117   3.967  0.5091 -0.4452 -0.2673
 8756SOL     OW34789   1.341   3.542   1.921 -0.5494 -0.0416  0.1325
 8756SOL    HW234790   1.318   3.543   2.014  0.5380 -1.0366  0.4418
 8756SOL    HW334791   1.316   3.455   1.891  1.6693 -0.7715  0.2246
 8756SOL    MW434792   1.335   3.531   1.929  0.3251  0.1073 -0.2695
 8757SOL     OW34793   6.057   0.187   4.799  0.2591 -0.0779  0.1724
 8757SOL    HW234794   6.043   0.106   4.849  0.8127  0.2762  0.9253
 8757SOL    HW334795   6.006   0.175   4.720 -2.4101  0.2099  1.7397
 8757SOL    MW434796   6.049   0.175   4.795  0.1710  0.9629 -0.0818
 8758SOL     OW34797   3.133   1.464   5.962 -0.7756  0.2715 -1.0179
 8758SOL    HW234798   3.080   1.412   6.022 -1.0355  1.2793 -0.3527
 8758SOL    HW334799   3.085   1.462   5.880 -1.8322  1.1075 -0.4475
 8758SOL    MW434800   3.120   1.457   5.959 -0.0297 -0.2479 -0.8814
 8759SOL     OW34801   4.837   2.451   0.068  0.2673 -0.5461  0.4464
 8759SOL    HW234802   4.840   2.431  -0.025  0.3521  0.9500  0.1022
 8759SOL    HW334803   4.837   2.547   0.072  0.4369 -0.5849  1.9885
 8759SOL    MW434804   4.837   2.461   0.056 -0.4306 -0.4796  0.1569
 8760SOL     OW34805   4.420   1.048   4.557 -0.3575 -0.0598  0.3622
 8760SOL    HW234806   4.481   1.054   4.631 -0.8296  2.0190  0.6354
 8760SOL    HW334807   4.336   1.075   4.593 -0.3039  2.5195 -1.2012
 8760SOL    MW434808   4.417   1.052   4.571  0.2127  0.3068 -0.4924
 8761SOL     OW34809   0.130   3.636   2.012 -0.3588  0.3441  0.4643
 8761SOL    HW234810   0.105   3.634   2.105 -0.0198 -1.4108  0.5637
 8761SOL    HW334811   0.103   3.722   1.982 -2.2080  0.2795  1.7375
 8761SOL    MW434812   0.123   3.647   2.020  0.3789 -0.0177  0.1671
 8762SOL     OW34813   2.357   3.393   4.959  0.4293 -0.3138 -0.5641
 8762SOL    HW234814   2.272   3.386   4.917  0.8665  0.5665 -1.6351
 8762SOL    HW334815   2.420   3.400   4.887  1.3244 -0.0135  0.2144
 8762SOL    MW434816   2.354   3.393   4.944 -0.1117  0.2805 -0.5619
 8763SOL     OW34817   5.601   0.721   4.965  0.0571 -0.0863  0.0382
 8763SOL    HW234818   5.528   0.778   4.940 -1.4879 -1.2175  1.6924
 8763SOL    HW334819   5.635   0.759   5.045 -0.1865 -0.7560  0.4759
 8763SOL    MW434820   5.596   0.733   4.972 -0.2391  0.3066 -0.3305
 8764SOL     OW34821   4.324   1.006   3.845 -0.4604 -0.4972 -0.2214
 8764SOL    HW234822   4.358   1.004   3.934 -2.1793 -2.1821  0.4859
 8764SOL    HW334823   4.248   1.063   3.849  1.3642  2.2192 -1.4891
 8764SOL    MW434824   4.319   1.013   3.857  0.9341  0.0478 -0.9773
 8765SOL     OW34825   0.476   4.357   5.267  0.0024 -0.2506  0.0089
 8765SOL    HW234826   0.446   4.280   5.220 -0.7612  0.6104 -0.9579
 8765SOL    HW334827   0.544   4.394   5.211  1.7124 -1.2032  1.3445
 8765SOL    MW434828   0.481   4.352   5.254  0.4366  0.4059  0.0208
 8766SOL     OW34829   6.389   5.358   4.111  0.6175  0.6203 -0.2630
 8766SOL    HW234830   6.414   5.356   4.019  0.9688  2.0240 -0.2185
 8766SOL    HW334831   6.473   5.359   4.158  0.4925  2.4282 -0.0206
 8766SOL    MW434832   6.404   5.357   4.105  0.7172 -0.0134  0.3423
 8767SOL     OW34833   0.789   1.604   1.764 -0.9441 -0.0245 -0.0580
 8767SOL    HW234834   0.836   1.573   1.841 -1.3568  1.2577  0.7547
 8767SOL    HW334835   0.738   1.529   1.734  0.5730 -1.0430 -0.1579
 8767SOL    MW434836   0.788   1.590   1.770  0.6156 -0.2949  0.7571
 8768SOL     OW34837   3.203   1.417   0.014 -0.1166 -0.4425  0.2560
 8768SOL    HW234838   3.239   1.328   0.022 -0.5471 -0.6234  0.1726
 8768SOL    HW334839   3.114   1.405  -0.019 -0.7304 -0.0732  1.6954
 8768SOL    MW434840   3.196   1.404   0.011 -0.4747  0.4051  0.8187
 8769SOL     OW34841   5.853   5.290   5.658 -0.2069 -0.1573  0.6198
 8769SOL    HW234842   5.932   5.338   5.683 -1.0188  1.3885  0.2851
 8769SOL    HW334843   5.831   5.324   5.571 -1.7146  0.0450  1.0546
 8769SOL    MW434844   5.861   5.301   5.650  0.0144 -0.7921 -0.2240
 8770SOL     OW34845   2.844   1.613   1.697  0.3336  0.1130  0.5193
 8770SOL    HW234846   2.888   1.646   1.775  0.1445 -0.0052  0.6773
 8770SOL    HW334847   2.785   1.545   1.730  1.1751 -0.8418  0.1311
 8770SOL    MW434848   2.842   1.608   1.712  0.6017  0.2113 -0.5627
 8771SOL     OW34849   3.885   3.273   3.816  0.3019  0.2754 -0.4242
 8771SOL    HW234850   3.837   3.280   3.899  0.5153 -0.0736 -0.2726
 8771SOL    HW334851   3.901   3.364   3.790  0.3485  0.3833 -0.0191
 8771SOL    MW434852   3.880   3.286   3.824 -0.2944 -0.0457  0.5396
 8772SOL     OW34853   3.663   2.981   2.229  0.3372  0.2669 -0.5672
 8772SOL    HW234854   3.650   2.923   2.305 -1.1912  0.2866 -0.7858
 8772SOL    HW334855   3.675   2.921   2.155  1.2316  0.2453 -0.4080
 8772SOL    MW434856   3.663   2.965   2.229 -0.3211 -0.2755  0.8834
 8773SOL     OW34857   1.289   4.468   5.900 -0.8130 -0.1632  0.0706
 8773SOL    HW234858   1.240   4.545   5.870 -1.0012 -0.3314 -0.0689
 8773SOL    HW334859   1.281   4.406   5.827  2.6471  1.0782 -1.5524
 8773SOL    MW434860   1.281   4.470   5.886 -0.6392  0.4292  0.2699
 8774SOL     OW34861   2.686   5.606   3.002  0.1255 -0.1053 -0.4123
 8774SOL    HW234862   2.727   5.548   3.066 -1.8237 -1.3191 -0.1782
 8774SOL    HW334863   2.649   5.548   2.936  0.4058  1.0261 -1.6103
 8774SOL    MW434864   2.686   5.591   3.002  0.6322 -0.1721  0.1751
 8775SOL     OW34865   5.624   0.778   0.669  1.0957 -0.3479  0.5994
 8775SOL    HW234866   5.586   0.690   0.662  1.8083 -0.6953  0.9484
 8775SOL    HW334867   5.631   0.809   0.579 -1.7926  0.5366  0.5802
 8775SOL    MW434868   5.620   0.770   0.656  0.2496 -0.3135 -0.6665
 8776SOL     OW34869   5.095   0.453   1.131 -0.4691 -0.1786  0.1856
 8776SOL    HW234870   5.135   0.461   1.217 -0.6454 -0.4447  0.2950
 8776SOL    HW334871   5.009   0.413   1.147 -0.2748 -0.7534 -0.1614
 8776SOL    MW434872   5.089   0.448   1.144  0.4032 -0.1119  0.3835
 8777SOL     OW34873   1.586   1.122   2.968 -0.0471 -0.1874 -0.1889
 8777SOL    HW234874   1.677   1.091   2.958 -0.7520 -2.7325  0.4765
 8777SOL    HW334875   1.567   1.169   2.887  2.3515  1.9371  0.3367
 8777SOL    MW434876   1.596   1.124   2.956  0.1833 -0.2163  0.1301
 8778SOL     OW34877   0.506   2.240   3.111 -0.4073  0.5303 -0.7198
 8778SOL    HW234878   0.542   2.310   3.055  1.2343  0.3295  0.0338
 8778SOL    HW334879   0.424   2.215   3.068  0.3498  1.0079 -2.5327
 8778SOL    MW434880   0.500   2.246   3.098 -0.1859 -0.4528  0.5620
 8779SOL     OW34881   5.139   0.154   1.856 -0.0948 -0.2344  0.0415
 8779SOL    HW234882   5.157   0.113   1.771 -0.6461 -1.5554  0.5322
 8779SOL    HW334883   5.119   0.245   1.834 -1.1816 -0.7646 -1.3776
 8779SOL    MW434884   5.138   0.161   1.842  0.1092  0.4557 -0.1570
 8780SOL     OW34885   5.038   1.864   2.814  0.2720 -0.3769  0.0109
 8780SOL    HW234886   5.113   1.822   2.857  0.7650 -0.0207 -0.4712
 8780SOL    HW334887   5.011   1.802   2.747  0.6673 -0.1598 -0.3568
 8780SOL    MW434888   5.045   1.850   2.811  0.3151 -0.2576  0.4881
 8781SOL     OW34889   5.355   2.861   1.531 -0.1125  0.4134 -0.5013
 8781SOL    HW234890   5.266   2.867   1.564  0.1632 -1.2399  0.6739
 8781SOL    HW334891   5.409   2.898   1.601  0.0461  3.9458 -2.2774
 8781SOL    MW434892   5.351   2.867   1.545 -0.1828  0.3405 -0.0866
 8782SOL     OW34893   3.305   3.069   2.402 -0.1435 -0.0322 -0.1796
 8782SOL    HW234894   3.216   3.070   2.367  0.5172 -2.1864 -2.1245
 8782SOL    HW334895   3.343   2.987   2.371  2.7019  1.0203  0.1833
 8782SOL    MW434896   3.298   3.058   2.394 -0.0791 -0.7960 -0.3854
 8783SOL     OW34897   1.083   4.630   2.179  0.1617  0.0469  0.4391
 8783SOL    HW234898   1.144   4.666   2.244 -1.4595  0.9705  1.5278
 8783SOL    HW334899   1.133   4.629   2.097  1.1315  2.2719  0.9399
 8783SOL    MW434900   1.098   4.634   2.177  0.6100  0.3114  0.7969
 8784SOL     OW34901   0.763   4.959   3.800  0.1488 -0.2142  0.1669
 8784SOL    HW234902   0.804   5.026   3.855  0.2138  0.2391 -0.4264
 8784SOL    HW334903   0.836   4.915   3.758  0.0675 -0.0714 -0.1232
 8784SOL    MW434904   0.778   4.962   3.802 -0.4806 -0.3635 -0.0798
 8785SOL     OW34905   0.446   3.045   5.470 -0.5638 -0.2027  0.1414
 8785SOL    HW234906   0.467   3.110   5.403  3.1728  0.6391  1.8641
 8785SOL    HW334907   0.377   3.087   5.522 -1.2442  0.4763 -1.2193
 8785SOL    MW434908   0.439   3.059   5.468 -0.5002 -0.2545 -0.3371
 8786SOL     OW34909   3.089   2.788   5.642 -0.5050  0.0563  0.0905
 8786SOL    HW234910   3.165   2.784   5.699 -0.4297 -1.2201 -0.0673
 8786SOL    HW334911   3.062   2.879   5.644 -0.1295  0.1551  1.6623
 8786SOL    MW434912   3.096   2.799   5.650 -0.0019 -0.1686 -0.2146
 8787SOL     OW34913   4.631   3.709   5.310 -0.3900 -0.0562 -0.5959
 8787SOL    HW234914   4.676   3.634   5.349 -1.3082  0.2315  1.0841
 8787SOL    HW334915   4.700   3.775   5.301 -0.0478 -0.3141  0.0581
 8787SOL    MW434916   4.646   3.708   5.314 -0.0068 -1.0558 -0.1151
 8788SOL     OW34917   1.115   4.675   5.898  0.4996  0.1991  0.2518
 8788SOL    HW234918   1.035   4.656   5.849  1.0559 -0.2510 -0.5272
 8788SOL    HW334919   1.086   4.696   5.986 -0.3567 -2.2169  0.6271
 8788SOL    MW434920   1.101   4.675   5.903  0.4049 -0.3863  0.4145
 8789SOL     OW34921   4.879   0.389   1.577 -0.1734  0.2378  0.2149
 8789SOL    HW234922   4.848   0.306   1.614  0.7773  0.1912  0.9499
 8789SOL    HW334923   4.858   0.455   1.644  0.9799  0.2503  0.5898
 8789SOL    MW434924   4.873   0.387   1.591 -0.0793  0.1139  0.0485
 8790SOL     OW34925   4.617   3.096   5.523  0.1203  0.0136 -0.2414
 8790SOL    HW234926   4.708   3.094   5.550  0.8146  1.2484 -2.2282
 8790SOL    HW334927   4.583   3.179   5.557  0.4800  0.7108 -1.5100
 8790SOL    MW434928   4.624   3.107   5.531 -0.0654  0.1669 -0.0968
 8791SOL     OW34929   3.551   5.734   0.672  0.2203 -0.3918  0.7754
 8791SOL    HW234930   3.638   5.694   0.679 -0.8339 -2.9291  0.4930
 8791SOL    HW334931   3.500   5.689   0.739 -2.0584 -2.4953 -2.1412
 8791SOL    MW434932   3.556   5.723   0.682  0.5562 -0.5713  0.4952
 8792SOL     OW34933   5.941   3.149   2.727  0.0524 -0.4766  0.5181
 8792SOL    HW234934   5.917   3.144   2.635 -0.6453 -0.2495  0.6806
 8792SOL    HW334935   5.926   3.060   2.760 -0.3129 -0.4075  0.5500
 8792SOL    MW434936   5.936   3.136   2.719  0.1352 -0.5757  0.4008
 8793SOL     OW34937   3.323   0.587   3.769 -0.6240  0.0041  0.0967
 8793SOL    HW234938   3.349   0.520   3.833  0.6159 -0.5092 -0.8975
 8793SOL    HW334939   3.346   0.549   3.684 -2.4277  0.6012 -0.6868
 8793SOL    MW434940   3.330   0.573   3.767 -0.1874 -0.3996  0.3166
 8794SOL     OW34941   6.129   3.245   5.395 -0.0362 -0.0262 -0.1919
 8794SOL    HW234942   6.104   3.188   5.468 -2.4968  1.7419  0.5003
 8794SOL    HW334943   6.189   3.192   5.343 -3.1388 -3.8313 -0.3685
 8794SOL    MW434944   6.133   3.230   5.398 -0.1400  0.2822 -0.6350
 8795SOL     OW34945   1.336   3.054   5.922 -0.5668  0.0980  0.3730
 8795SOL    HW234946   1.246   3.025   5.905 -1.2434  1.5177  1.2946
 8795SOL    HW334947   1.379   3.052   5.836 -1.6240 -0.1098 -0.1687
 8795SOL    MW434948   1.330   3.050   5.909  0.4106 -0.0399  0.0971
 8796SOL     OW34949   0.496   0.190   6.060  0.3624 -0.6556 -0.3926
 8796SOL    HW234950   0.514   0.148   6.144  0.3645  1.5891  0.7978
 8796SOL    HW334951   0.407   0.225   6.069  0.6492  0.2661 -1.0222
 8796SOL    MW434952   0.487   0.189   6.072  0.4218 -0.1659  0.3473
 8797SOL     OW34953   6.395   5.721   2.667 -0.4508 -0.0259  0.1459
 8797SOL    HW234954   6.364   5.811   2.677  1.2050  0.4520  1.4103
 8797SOL    HW334955   6.471   5.729   2.609  0.5199 -0.3771  1.3277
 8797SOL    MW434956   6.401   5.734   2.661 -0.1276  0.0738 -0.1561
 8798SOL     OW34957   5.904   1.143   2.540 -0.1074 -0.3338 -0.0350
 8798SOL    HW234958   5.845   1.144   2.615  1.0499 -0.6557  0.9141
 8798SOL    HW334959   5.871   1.072   2.485  0.7549 -2.1453  1.6613
 8798SOL    MW434960   5.892   1.133   2.543 -0.2035  0.3696 -0.4587
 8799SOL     OW34961   0.519   2.572   3.215 -0.7049  0.5477 -0.5411
 8799SOL    HW234962   0.433   2.606   3.189 -0.5576  0.2417 -1.4622
 8799SOL    HW334963   0.561   2.549   3.133  0.7897  1.8807 -0.1909
 8799SOL    MW434964   0.513   2.573   3.201 -0.2707  0.2059  0.9832
 8800SOL     OW34965   2.372   2.274   3.760 -0.0445 -0.4595 -0.3925
 8800SOL    HW234966   2.408   2.230   3.682  0.5623  0.9912 -0.9741
 8800SOL    HW334967   2.406   2.224   3.834  0.2572 -1.2343 -1.0408
 8800SOL    MW434968   2.381   2.262   3.759 -0.2460 -0.0798 -0.3678
 8801SOL     OW34969   3.367   0.211   6.266  0.2120 -0.2370 -0.1393
 8801SOL    HW234970   3.378   0.157   6.188  0.5766 -2.0262  1.0837
 8801SOL    HW334971   3.272   0.217   6.279  0.1756 -1.0088 -0.0209
 8801SOL    MW434972   3.356   0.205   6.257 -0.0180 -0.0048  0.2540
 8802SOL     OW34973   5.158   1.533   0.411  0.2004 -0.4594 -0.0377
 8802SOL    HW234974   5.195   1.604   0.358 -1.4311 -0.3658 -1.1281
 8802SOL    HW334975   5.180   1.555   0.501  3.7926 -1.0399 -0.6270
 8802SOL    MW434976   5.166   1.545   0.416  0.0823  0.4809 -0.2711
 8803SOL     OW34977   4.727   3.548   3.434 -0.1065 -0.5345  0.5516
 8803SOL    HW234978   4.654   3.610   3.437  1.5169  1.6034 -1.0306
 8803SOL    HW334979   4.696   3.479   3.374 -0.4835  0.8916 -0.9760
 8803SOL    MW434980   4.713   3.547   3.426 -0.2753 -0.0607 -0.0593
 8804SOL     OW34981   0.444   1.775   4.319  0.6164  0.0816  0.0862
 8804SOL    HW234982   0.444   1.745   4.227 -0.0779  0.7755 -0.1511
 8804SOL    HW334983   0.351   1.787   4.339  0.8308  1.0292  0.5190
 8804SOL    MW434984   0.432   1.772   4.309  0.4606 -0.0337  0.3813
 8805SOL     OW34985   0.299   2.308   0.207  0.1687  0.0568  0.0968
 8805SOL    HW234986   0.308   2.337   0.117 -1.1762  1.0468  0.2339
 8805SOL    HW334987   0.222   2.250   0.206  0.4779 -0.3692  0.5139
 8805SOL    MW434988   0.290   2.304   0.195  0.7411  0.5603 -0.2413
 8806SOL     OW34989   5.921   4.702   3.145 -0.2641 -0.2370  0.4774
 8806SOL    HW234990   5.910   4.695   3.050 -1.9898  0.4794  0.5861
 8806SOL    HW334991   5.861   4.637   3.181 -0.1145 -0.0462  1.0791
 8806SOL    MW434992   5.911   4.693   3.137  0.0707 -0.0667 -0.0201
 8807SOL     OW34993   6.146   6.220   1.571  0.4696 -0.1102  0.1958
 8807SOL    HW234994   6.129   6.247   1.481  0.6891 -2.0716 -0.4857
 8807SOL    HW334995   6.239   6.239   1.584  0.4369  0.1768  0.0095
 8807SOL    MW434996   6.156   6.226   1.561  0.2090  0.1774  0.5464
 8808SOL     OW34997   3.619   4.327   3.784  0.0562  0.7722 -0.3586
 8808SOL    HW234998   3.644   4.320   3.876  1.1444 -0.4403 -0.7157
 8808SOL    HW334999   3.695   4.295   3.735 -1.2774 -0.7591 -1.5817
 8808SOL    MW435000   3.632   4.322   3.789 -0.0318 -0.4989  0.3674
 8809SOL     OW35001   1.322   0.901   4.717 -0.7444 -0.6076 -0.1825
 8809SOL    HW235002   1.397   0.914   4.659 -1.3900 -0.1140 -0.9260
 8809SOL    HW335003   1.246   0.906   4.659 -1.3903 -0.3397  0.6690
 8809SOL    MW435004   1.322   0.904   4.702 -0.2242  0.0337 -0.8105
 8810SOL     OW35005   3.178   0.076   4.738 -0.0181  0.0668  0.2655
 8810SOL    HW235006   3.189   0.020   4.814  0.9169 -0.2723 -0.1046
 8810SOL    HW335007   3.166   0.015   4.665 -1.1634  0.3914  0.1669
 8810SOL    MW435008   3.178   0.061   4.738 -0.5270 -0.4740  0.1479
 8811SOL     OW35009   5.972   1.094   2.212 -0.4168  0.0232 -1.0370
 8811SOL    HW235010   6.001   1.100   2.121  1.5010 -1.0111 -0.5671
 8811SOL    HW335011   6.043   1.135   2.263 -0.7971 -0.6352  0.0697
 8811SOL    MW435012   5.985   1.100   2.207 -0.1144 -0.2763  0.3096
 8812SOL     OW35013   0.180   4.716   1.426 -0.1800  0.1656  0.5163
 8812SOL    HW235014   0.117   4.648   1.451  0.5962 -0.9523 -0.4215
 8812SOL    HW335015   0.245   4.716   1.497  0.4268 -0.9116 -0.0062
 8812SOL    MW435016   0.180   4.707   1.439  0.7655  0.2538 -0.4319
 8813SOL     OW35017   4.746   3.941   2.149  0.0228 -0.0320 -0.8275
 8813SOL    HW235018   4.715   3.854   2.124 -1.0047  0.0768  0.0030
 8813SOL    HW335019   4.706   4.000   2.085 -0.5578 -0.0158 -0.4556
 8813SOL    MW435020   4.737   3.937   2.137  0.4708 -0.3003 -0.1860
 8814SOL     OW35021   2.553   4.810   2.687  0.5827  0.2312  0.1772
 8814SOL    HW235022   2.564   4.834   2.595 -0.9690 -0.6723 -0.2774
 8814SOL    HW335023   2.459   4.813   2.702  0.7028 -0.9760  1.3764
 8814SOL    MW435024   2.542   4.814   2.677 -0.2529  0.4423  0.1538
 8815SOL     OW35025   6.319   5.096   4.107 -0.3950  0.2574  0.5223
 8815SOL    HW235026   6.325   5.190   4.121 -1.7558  0.4455  0.0476
 8815SOL    HW335027   6.248   5.086   4.044  1.5607 -0.9249 -1.6039
 8815SOL    MW435028   6.310   5.107   4.101  0.7633 -0.2531  0.1960
 8816SOL     OW35029   1.927   0.070   2.325  0.4749 -1.6574 -0.0752
 8816SOL    HW235030   1.970   0.011   2.263  1.1134  0.7979 -2.1621
 8816SOL    HW335031   1.857   0.111   2.274  0.0827 -0.5917  1.2470
 8816SOL    MW435032   1.923   0.068   2.310 -0.2018 -0.1718  0.9653
 8817SOL     OW35033   3.880   0.676   3.794  0.0511  0.2492  0.2285
 8817SOL    HW235034   3.965   0.715   3.813  0.4220 -0.9496  1.1411
 8817SOL    HW335035   3.871   0.685   3.699  0.8163  1.1200  0.2210
 8817SOL    MW435036   3.890   0.682   3.784 -0.0829  0.3454  0.0963
 8818SOL     OW35037   4.027   5.248   2.755  0.1878 -0.2462 -0.4562
 8818SOL    HW235038   4.012   5.188   2.682 -1.2258  0.8736 -1.1530
 8818SOL    HW335039   3.954   5.310   2.750  1.9064  1.9411 -0.1901
 8818SOL    MW435040   4.015   5.248   2.745 -0.0774  0.3140  0.8174
 8819SOL     OW35041   1.848   3.866   5.527 -0.4934  0.3476  0.3800
 8819SOL    HW235042   1.866   3.787   5.476  0.6613  0.4473  0.6049
 8819SOL    HW335043   1.919   3.926   5.504 -0.7951  0.9460  0.9771
 8819SOL    MW435044   1.859   3.864   5.517  0.0463  0.0536 -0.0571
 8820SOL     OW35045   2.062   1.377   3.401  0.0425  0.2075  0.0369
 8820SOL    HW235046   2.108   1.310   3.351  1.3409 -1.4598  3.1927
 8820SOL    HW335047   1.969   1.352   3.396  0.3178 -0.7859 -0.3257
 8820SOL    MW435048   2.056   1.365   3.394 -0.3651  0.8156 -0.4178
 8821SOL     OW35049   4.981   2.954   0.263 -0.2414 -0.3460 -0.2936
 8821SOL    HW235050   5.009   2.882   0.206 -0.5368 -1.6157  1.1073
 8821SOL    HW335051   4.959   2.912   0.346 -3.1802  0.9791 -0.2877
 8821SOL    MW435052   4.982   2.939   0.266  0.5570  0.2290  0.8744
 8822SOL     OW35053   2.616   6.204   0.173 -0.1330 -0.1686  0.5100
 8822SOL    HW235054   2.612   6.299   0.185  0.0120 -0.0521 -0.3151
 8822SOL    HW335055   2.535   6.182   0.127  0.6524 -0.1668 -0.9583
 8822SOL    MW435056   2.605   6.214   0.168 -0.4492 -0.1444 -0.3398
 8823SOL     OW35057   0.782   5.596   4.061  0.3765 -0.4349 -0.5134
 8823SOL    HW235058   0.701   5.646   4.064  0.1566 -0.7116 -1.3893
 8823SOL    HW335059   0.828   5.619   4.141 -0.4054  0.0018 -0.1798
 8823SOL    MW435060   0.777   5.605   4.072 -0.3227  0.0720 -0.0376
 8824SOL     OW35061   4.007   3.994   6.313  0.1477 -0.0301  0.1160
 8824SOL    HW235062   4.016   4.075   6.363  3.0814 -0.4613  0.4857
 8824SOL    HW335063   3.986   4.023   6.224 -1.2268  0.9529  0.7235
 8824SOL    MW435064   4.006   4.008   6.308  0.3019  0.1788 -0.1352
 8825SOL     OW35065   2.815   0.330   4.366  0.0919 -0.3433 -0.2197
 8825SOL    HW235066   2.839   0.308   4.456 -1.0803 -2.4574 -0.3604
 8825SOL    HW335067   2.890   0.302   4.313 -0.0760 -1.0700 -0.0804
 8825SOL    MW435068   2.828   0.324   4.371  0.0861 -0.3471  0.2290
 8826SOL     OW35069   3.884   4.791   0.890 -0.2587  0.2445 -0.5589
 8826SOL    HW235070   3.917   4.740   0.816 -0.8135 -4.4274  2.0459
 8826SOL    HW335071   3.962   4.807   0.944 -0.4228  0.0963 -0.2766
 8826SOL    MW435072   3.899   4.786   0.887 -0.9659 -0.0733  0.4364
 8827SOL     OW35073   2.260   0.126   3.341  0.4032 -0.1382 -0.3881
 8827SOL    HW235074   2.256   0.211   3.385  0.3615 -0.1900 -0.2915
 8827SOL    HW335075   2.243   0.146   3.249  0.8606  0.0207 -0.4412
 8827SOL    MW435076   2.257   0.140   3.335  0.3203  0.2648 -0.1338
 8828SOL     OW35077   1.078   4.564   5.233 -0.2441 -0.1031 -0.1811
 8828SOL    HW235078   1.173   4.554   5.233 -0.4931 -4.1138 -0.2811
 8828SOL    HW335079   1.052   4.534   5.145 -1.6391  0.6560 -0.0469
 8828SOL    MW435080   1.087   4.558   5.221  0.1279  0.5504  0.4103
 8829SOL     OW35081   1.451   1.729   6.117  0.5290  0.2954 -0.2418
 8829SOL    HW235082   1.390   1.802   6.111 -0.2245 -0.2094  0.9191
 8829SOL    HW335083   1.420   1.666   6.052  0.6950  0.6423 -0.6673
 8829SOL    MW435084   1.439   1.731   6.108 -0.4703 -0.0271 -0.0216
 8830SOL     OW35085   2.538   0.999   0.845  0.0385  0.1677 -0.5157
 8830SOL    HW235086   2.600   0.956   0.785 -0.1110  0.7994 -1.1408
 8830SOL    HW335087   2.522   1.084   0.805 -0.9281  0.1691 -0.1482
 8830SOL    MW435088   2.544   1.004   0.832  0.3082 -0.3458 -0.5782
 8831SOL     OW35089   1.824   0.681   2.377 -0.1459 -0.0209  0.3188
 8831SOL    HW235090   1.899   0.668   2.319 -1.1024 -1.1889 -0.7180
 8831SOL    HW335091   1.821   0.776   2.392 -0.2157  0.3940 -2.0287
 8831SOL    MW435092   1.834   0.692   2.371  0.0109  0.1352 -0.3169
 8832SOL     OW35093   5.370   2.016   0.398  0.3048  0.4699  0.1783
 8832SOL    HW235094   5.300   1.999   0.461 -0.4290  1.7940 -0.2355
 8832SOL    HW335095   5.429   2.075   0.444  0.2294  0.7361 -0.0619
 8832SOL    MW435096   5.369   2.022   0.412 -0.5032 -0.5521  0.1419
 8833SOL     OW35097   0.962   3.707   6.008 -0.6025 -0.5623  0.8415
 8833SOL    HW235098   0.954   3.726   5.915  0.5717  1.6243  1.1288
 8833SOL    HW335099   0.872   3.711   6.041 -0.9778 -0.9489 -0.1015
 8833SOL    MW435100   0.949   3.710   6.000 -0.5459 -0.1234 -0.1942
 8834SOL     OW35101   0.052   4.958   0.084 -0.0768 -0.1250  0.0979
 8834SOL    HW235102   0.072   5.035   0.030  0.0925 -0.8784 -0.9452
 8834SOL    HW335103   0.107   4.888   0.047 -1.0111 -1.0063  0.3485
 8834SOL    MW435104   0.062   4.959   0.072 -0.0739  0.5387 -0.5169
 8835SOL     OW35105   1.069   5.506   3.440  0.0943  0.6817  0.1690
 8835SOL    HW235106   1.129   5.547   3.377 -0.3151  1.6817  0.4166
 8835SOL    HW335107   0.983   5.514   3.400 -0.2627  1.9289  1.1348
 8835SOL    MW435108   1.066   5.513   3.426 -0.0564 -0.2398 -0.4693
 8836SOL     OW35109   5.482   3.936   0.819  0.3159 -0.3470 -0.1976
 8836SOL    HW235110   5.565   3.919   0.863  0.3139  0.4665  0.1372
 8836SOL    HW335111   5.472   4.032   0.822 -0.4234 -0.4006 -0.6157
 8836SOL    MW435112   5.492   3.947   0.825  0.0870  0.1620 -0.3139
 8837SOL     OW35113   3.409   3.404   4.038  0.8294  0.0065 -0.2453
 8837SOL    HW235114   3.362   3.336   4.086  0.4347  0.6039  0.2318
 8837SOL    HW335115   3.460   3.357   3.972  0.8215 -0.7724  0.2956
 8837SOL    MW435116   3.410   3.389   4.036  0.7116  0.4358 -0.3408
 8838SOL     OW35117   1.429   1.486   0.431  0.5327  0.5955 -0.4763
 8838SOL    HW235118   1.469   1.550   0.489  1.0292 -0.8794  0.8817
 8838SOL    HW335119   1.361   1.445   0.484  0.2583 -0.0305 -1.2954
 8838SOL    MW435120   1.425   1.489   0.445 -0.5721 -0.3663  0.4911
 8839SOL     OW35121   4.006   4.207   0.147  0.0182  0.6135  0.6812
 8839SOL    HW235122   3.990   4.296   0.179  0.1351  0.1528  2.0876
 8839SOL    HW335123   3.923   4.162   0.162 -0.1110  0.5301 -0.2391
 8839SOL    MW435124   3.993   4.213   0.153  0.0589 -0.1258  0.2551
 8840SOL     OW35125   0.634   2.856   3.635 -0.4054 -0.5377  0.3510
 8840SOL    HW235126   0.567   2.915   3.600 -1.3447 -1.3105  0.8094
 8840SOL    HW335127   0.711   2.872   3.579 -1.0992  0.0330 -0.4735
 8840SOL    MW435128   0.636   2.866   3.623 -0.3564  0.0032 -0.4317
 8841SOL     OW35129   1.757   3.396   0.028 -0.1240 -0.2357  0.2589
 8841SOL    HW235130   1.719   3.394   0.116  0.5890  0.8448  0.6097
 8841SOL    HW335131   1.776   3.489   0.012  0.5702 -0.5228 -0.6825
 8841SOL    MW435132   1.754   3.408   0.038 -0.0806  0.1017  0.8573
 8842SOL     OW35133   2.268   2.250   1.996 -0.4452 -0.4399 -0.0168
 8842SOL    HW235134   2.303   2.187   1.933  0.5256  0.6210 -0.5635
 8842SOL    HW335135   2.328   2.245   2.071  0.5506  0.9228 -0.6945
 8842SOL    MW435136   2.280   2.241   1.998  0.5802  0.4113  0.4674
 8843SOL     OW35137   3.413   5.113   5.963  0.3660 -0.0986 -0.2913
 8843SOL    HW235138   3.469   5.099   5.887  1.3435  0.2936  0.3420
 8843SOL    HW335139   3.355   5.185   5.937  0.4676 -0.1920 -0.7820
 8843SOL    MW435140   3.412   5.120   5.949 -0.3021  0.2661 -0.1281
 8844SOL     OW35141   5.932   1.452   4.216  0.0477 -0.0385 -0.2633
 8844SOL    HW235142   5.842   1.433   4.189 -0.7715 -0.7021  2.6077
 8844SOL    HW335143   5.981   1.375   4.188 -0.4552 -0.0907 -1.0351
 8844SOL    MW435144   5.927   1.439   4.208  0.6612  0.4621 -0.2760
 8845SOL     OW35145   4.659   1.898   6.217  0.3555  0.1194 -0.4320
 8845SOL    HW235146   4.648   1.980   6.169  0.9285  2.4005  2.9376
 8845SOL    HW335147   4.655   1.924   6.309  1.2053 -3.6031  0.8325
 8845SOL    MW435148   4.657   1.912   6.223  0.7611  0.1247 -0.2617
 8846SOL     OW35149   4.559   5.311   3.116 -0.4712  0.1101  0.0316
 8846SOL    HW235150   4.477   5.323   3.164 -0.9089 -1.1266 -0.3667
 8846SOL    HW335151   4.537   5.248   3.046  1.0059 -0.9399  0.4614
 8846SOL    MW435152   4.545   5.304   3.113 -0.0606  0.2920  0.1458
 8847SOL     OW35153   2.490   0.822   5.348  0.2486  0.2247 -0.1265
 8847SOL    HW235154   2.533   0.905   5.327 -0.4983  0.5671 -0.3477
 8847SOL    HW335155   2.406   0.827   5.302 -0.2637 -0.1930  0.7403
 8847SOL    MW435156   2.484   0.834   5.339 -0.0643 -0.4381  0.3932
 8848SOL     OW35157   0.648   1.147   0.656 -0.7928  0.5262  0.3455
 8848SOL    HW235158   0.707   1.222   0.660 -0.4103  0.2714 -0.4231
 8848SOL    HW335159   0.591   1.166   0.581 -0.1364 -0.3431 -0.3966
 8848SOL    MW435160   0.648   1.159   0.646  0.1222  0.1240  0.0423
 8849SOL     OW35161   3.242   2.984   0.999  0.0033 -0.1422 -0.4444
 8849SOL    HW235162   3.201   2.963   0.915 -1.1907 -1.8422  0.5061
 8849SOL    HW335163   3.170   3.016   1.053  0.5110 -0.2948  0.3268
 8849SOL    MW435164   3.227   2.985   0.995 -0.7193 -0.2926 -0.5578
 8850SOL     OW35165   0.617   3.076   3.172 -0.5553 -0.5728  0.4805
 8850SOL    HW235166   0.639   3.082   3.080 -1.1779 -0.7035  0.3181
 8850SOL    HW335167   0.543   3.135   3.183  0.2576  0.3468  1.1453
 8850SOL    MW435168   0.610   3.084   3.162 -0.9342 -0.1720 -0.2093
 8851SOL     OW35169   3.865   4.802   5.287 -0.5231 -0.0119  0.0263
 8851SOL    HW235170   3.802   4.730   5.289 -0.0358 -0.4742 -0.8682
 8851SOL    HW335171   3.944   4.767   5.328  0.5713 -0.8620 -2.6260
 8851SOL    MW435172   3.867   4.788   5.293  0.7153 -0.2451 -0.6789
 8852SOL     OW35173   6.202   3.661   4.606  0.6778  0.0996 -0.3370
 8852SOL    HW235174   6.207   3.633   4.514 -1.0307  0.0092 -0.4223
 8852SOL    HW335175   6.152   3.742   4.603  3.4268  1.9439  0.1934
 8852SOL    MW435176   6.196   3.668   4.593  0.6388  0.0258  0.2225
 8853SOL     OW35177   3.169   4.246   3.701  0.4385 -0.0373  0.1732
 8853SOL    HW235178   3.181   4.317   3.638 -1.3610  0.2380  0.0883
 8853SOL    HW335179   3.190   4.285   3.786  1.0660  0.1149 -0.0498
 8853SOL    MW435180   3.173   4.260   3.704  0.1161  0.0817 -0.1301
 8854SOL     OW35181   1.798   2.337   3.823 -0.3080 -0.5682  0.7978
 8854SOL    HW235182   1.801   2.314   3.916 -0.0272 -1.6978  0.5304
 8854SOL    HW335183   1.804   2.432   3.822 -0.3961 -0.5264  1.9392
 8854SOL    MW435184   1.799   2.346   3.835  0.0199  0.3012  0.5588
 8855SOL     OW35185   1.514   2.192   1.520  0.0489  0.0014  0.0061
 8855SOL    HW235186   1.531   2.233   1.606  0.7683  0.4460 -0.3356
 8855SOL    HW335187   1.583   2.227   1.464  0.9243 -1.9618 -0.2196
 8855SOL    MW435188   1.526   2.202   1.524  0.5680  0.6142 -0.3399
 8856SOL     OW35189   4.196   1.247   1.154  0.3890  0.1072  0.0237
 8856SOL    HW235190   4.246   1.327   1.169 -1.3801  0.9600  2.0604
 8856SOL    HW335191   4.245   1.179   1.200 -0.1811  0.9255  1.9722
 8856SOL    MW435192   4.209   1.249   1.162  0.1563 -0.3625  0.2009
 8857SOL     OW35193   1.985   0.568   3.589  0.3958 -0.0517  0.0744
 8857SOL    HW235194   1.988   0.593   3.681  0.8806  1.0947 -0.2301
 8857SOL    HW335195   1.976   0.651   3.542 -1.6107 -0.7419 -0.8450
 8857SOL    MW435196   1.985   0.583   3.595 -0.6714  0.1866  0.3507
 8858SOL     OW35197   5.340   1.703   5.483 -0.5333  0.0205 -0.4213
 8858SOL    HW235198   5.392   1.769   5.437  1.3874 -0.8723  0.3185
 8858SOL    HW335199   5.299   1.750   5.555  1.4624  0.3398  0.5904
 8858SOL    MW435200   5.342   1.718   5.487 -0.2773 -0.0759 -0.1517
 8859SOL     OW35201   0.308   1.309   4.520  0.3662 -0.5609 -0.1808
 8859SOL    HW235202   0.214   1.327   4.525  0.4093 -0.3608 -0.1067
 8859SOL    HW335203   0.342   1.374   4.459  0.3088 -1.2115 -0.9308
 8859SOL    MW435204   0.300   1.320   4.513  0.0548 -0.2224 -0.3062
 8860SOL     OW35205   4.375   4.204   3.290 -0.2396 -0.1241 -0.6200
 8860SOL    HW235206   4.376   4.268   3.362 -0.2720 -1.2033  0.3622
 8860SOL    HW335207   4.463   4.209   3.253 -0.5866  1.3099 -1.3158
 8860SOL    MW435208   4.387   4.213   3.295 -0.5301 -0.0919 -0.2021
 8861SOL     OW35209   2.262   3.609   1.606  0.0121  0.2904 -0.1881
 8861SOL    HW235210   2.236   3.561   1.527  1.1784 -0.4079 -0.1693
 8861SOL    HW335211   2.274   3.541   1.672  1.3352  0.6184 -0.0606
 8861SOL    MW435212   2.260   3.593   1.604 -0.0081 -0.4889  0.0261
 8862SOL     OW35213   0.124   4.712   6.325 -0.3873 -0.3652 -0.3622
 8862SOL    HW235214   0.116   4.735   6.233 -1.8833 -1.1982 -0.4799
 8862SOL    HW335215   0.175   4.631   6.325  1.1996  0.5859 -0.2763
 8862SOL    MW435216   0.130   4.704   6.313 -0.7685  0.4189  0.0553
 8863SOL     OW35217   2.549   2.512   1.711  0.0194 -0.4236 -0.5321
 8863SOL    HW235218   2.555   2.574   1.783 -1.4597  0.3743 -1.0568
 8863SOL    HW335219   2.627   2.529   1.658  0.9345 -0.7814  0.6509
 8863SOL    MW435220   2.560   2.522   1.713  0.3169 -0.5420 -0.2568
 8864SOL     OW35221   4.324   5.245   2.743 -0.2531  0.2290 -0.2364
 8864SOL    HW235222   4.231   5.223   2.743 -0.3471  0.1591 -3.1678
 8864SOL    HW335223   4.349   5.242   2.651  2.4603  1.1580  0.3685
 8864SOL    MW435224   4.315   5.242   2.731 -0.1626 -0.2991  0.1651
 8865SOL     OW35225   1.891   0.196   3.841 -0.2407 -0.0489  0.7306
 8865SOL    HW235226   1.963   0.240   3.885  0.0054  0.0970  0.1865
 8865SOL    HW335227   1.901   0.104   3.863  1.3269 -0.3429 -0.9896
 8865SOL    MW435228   1.902   0.190   3.850  0.5584  0.5801 -0.0581
 8866SOL     OW35229   5.738   3.488   2.326  0.1936 -0.6299  0.0605
 8866SOL    HW235230   5.790   3.532   2.394 -0.3263  2.3151 -1.2985
 8866SOL    HW335231   5.648   3.497   2.356 -0.0147  0.4407 -0.8324
 8866SOL    MW435232   5.733   3.495   2.339  0.3567  0.3239  0.4003
 8867SOL     OW35233   2.005   1.466   1.631  0.1259 -0.2463 -0.0522
 8867SOL    HW235234   1.937   1.401   1.650  0.9195 -1.2026 -0.3921
 8867SOL    HW335235   1.984   1.540   1.688 -1.3272 -0.4278 -0.3231
 8867SOL    MW435236   1.993   1.467   1.641  0.2451 -0.3744  0.1043
 8868SOL     OW35237   3.909   1.510   5.367  0.2539  0.0467 -0.1141
 8868SOL    HW235238   3.878   1.427   5.402 -0.2709  0.3356  0.1094
 8868SOL    HW335239   3.876   1.576   5.428  0.9381  0.3955 -0.1135
 8868SOL    MW435240   3.901   1.508   5.379 -0.0883 -0.6944 -0.4624
 8869SOL     OW35241   1.940   2.601   2.669 -0.6613 -0.2792  0.1783
 8869SOL    HW235242   2.009   2.595   2.603 -0.7016  1.3938 -0.0753
 8869SOL    HW335243   1.869   2.547   2.635  0.0310 -0.9754 -0.1924
 8869SOL    MW435244   1.940   2.593   2.656 -0.2256 -0.1491  0.1559
 8870SOL     OW35245   4.460   4.364   5.811  0.0116  0.1886 -0.1121
 8870SOL    HW235246   4.404   4.375   5.734  1.4468  0.3179 -1.1760
 8870SOL    HW335247   4.484   4.271   5.810  0.2493  0.2485  0.0348
 8870SOL    MW435248   4.456   4.353   5.801 -0.4134 -0.0679  0.3211
 8871SOL     OW35249   2.126   3.832   3.403 -0.4664  0.0187  0.4089
 8871SOL    HW235250   2.200   3.779   3.372  0.1328 -0.5312  2.6298
 8871SOL    HW335251   2.147   3.853   3.494 -2.3599  1.1313  0.6506
 8871SOL    MW435252   2.138   3.828   3.411 -0.4761  0.2186 -0.2754
 8872SOL     OW35253   1.336   3.901   4.930  0.0123  0.0143  0.3410
 8872SOL    HW235254   1.294   3.861   5.005 -0.7347  3.1299  1.7713
 8872SOL    HW335255   1.429   3.905   4.953 -0.0662  0.0627  0.6446
 8872SOL    MW435256   1.343   3.897   4.943  0.1096  0.7014 -0.2507
 8873SOL     OW35257   3.205   5.233   6.271  0.2500  0.1279  0.0174
 8873SOL    HW235258   3.164   5.239   6.357 -0.7229 -0.3573 -0.4052
 8873SOL    HW335259   3.232   5.141   6.264 -2.2679 -0.5730 -1.3362
 8873SOL    MW435260   3.203   5.222   6.282 -0.3605 -0.1536  0.7874
 8874SOL     OW35261   2.076   5.595   0.904  0.2069  0.0895 -0.3064
 8874SOL    HW235262   2.164   5.620   0.935  0.5737 -0.3017 -1.0143
 8874SOL    HW335263   2.079   5.500   0.899  0.0234  0.1222 -1.1439
 8874SOL    MW435264   2.088   5.586   0.907  0.0128  0.1649 -0.0162
 8875SOL     OW35265   2.501   0.308   0.154  0.0419  0.0710  0.1310
 8875SOL    HW235266   2.463   0.296   0.067  0.1379  1.0575 -0.0544
 8875SOL    HW335267   2.431   0.348   0.206  1.1582  3.2820 -0.6012
 8875SOL    MW435268   2.487   0.311   0.150  0.0778  0.3299 -0.6092
 8876SOL     OW35269   1.977   3.708   4.061 -0.1597  0.1248  0.4195
 8876SOL    HW235270   1.881   3.712   4.063 -0.2022  0.3951 -0.9255
 8876SOL    HW335271   2.001   3.654   4.136 -1.4840 -1.6532 -0.3718
 8876SOL    MW435272   1.967   3.701   4.071  0.0522  0.1011  0.0509
 8877SOL     OW35273   3.938   1.070   6.144 -0.0898 -0.2426  0.0564
 8877SOL    HW235274   3.866   1.062   6.206  0.2830 -2.2798  0.3014
 8877SOL    HW335275   3.944   0.984   6.102  0.0776  0.8776 -2.3857
 8877SOL    MW435276   3.929   1.057   6.147 -0.6177 -0.6257 -0.4047
 8878SOL     OW35277   3.698   3.805   3.140  0.9908 -0.3563  0.5151
 8878SOL    HW235278   3.779   3.763   3.166  1.7519  1.8163  1.9428
 8878SOL    HW335279   3.717   3.899   3.144 -0.8978  0.2104 -1.4678
 8878SOL    MW435280   3.711   3.812   3.144  0.7523  0.3122  0.3028
 8879SOL     OW35281   1.959   4.572   5.740  0.3567 -0.2724 -0.4260
 8879SOL    HW235282   1.886   4.551   5.681  0.0847 -0.1844 -0.1242
 8879SOL    HW335283   1.920   4.569   5.827  0.2323  1.7128 -0.3598
 8879SOL    MW435284   1.944   4.569   5.744 -0.7169 -0.2147  0.1210
 8880SOL     OW35285   0.255   3.210   4.627  0.2782  0.5135  0.1997
 8880SOL    HW235286   0.218   3.123   4.615  0.1877  0.5246  0.4047
 8880SOL    HW335287   0.346   3.194   4.652  0.6264  0.4938 -1.0165
 8880SOL    MW435288   0.262   3.197   4.629  0.0708  0.6033  0.1904
 8881SOL     OW35289   2.825   2.843   5.170 -0.0458  0.0218  0.2136
 8881SOL    HW235290   2.781   2.879   5.248  0.3225 -1.4003  1.1279
 8881SOL    HW335291   2.916   2.873   5.178 -0.1393  0.3564  0.0203
 8881SOL    MW435292   2.831   2.851   5.182  0.2139 -0.1330 -0.2063
 8882SOL     OW35293   3.602   5.114   1.695  0.5388  0.4723  0.5108
 8882SOL    HW235294   3.570   5.205   1.692 -1.4923 -0.2064 -0.2826
 8882SOL    HW335295   3.603   5.093   1.789 -0.0895  0.9635  0.6403
 8882SOL    MW435296   3.598   5.123   1.707  0.3898  0.0375 -0.6297
 8883SOL     OW35297   6.095   3.794   6.251 -0.1449  0.6176 -0.1350
 8883SOL    HW235298   6.075   3.767   6.161  0.7975 -1.3942  0.1882
 8883SOL    HW335299   6.010   3.796   6.294 -0.5407  0.9461 -0.9116
 8883SOL    MW435300   6.081   3.790   6.245  0.3647  0.3464  0.3423
 8884SOL     OW35301   2.868   5.208   4.700 -0.2490 -0.1044 -0.5374
 8884SOL    HW235302   2.955   5.241   4.723  1.1690 -1.6071 -3.2851
 8884SOL    HW335303   2.833   5.272   4.638 -0.0984 -0.6339 -1.1823
 8884SOL    MW435304   2.875   5.221   4.695  0.1626  0.2221  0.0941
 8885SOL     OW35305   0.598   1.924   1.593 -0.0115  0.1027 -0.6310
 8885SOL    HW235306   0.677   1.906   1.541  0.5059 -0.2613  0.2694
 8885SOL    HW335307   0.531   1.867   1.556  0.2680  0.0744 -1.1012
 8885SOL    MW435308   0.600   1.914   1.581 -0.0862 -0.2640  0.2042
 8886NA      NA35309   5.507   0.147   1.013 -0.1790 -0.0133 -0.2433
 8887NA      NA35310   0.024   0.351   1.342 -0.1907  0.1227 -0.0767
 8888NA      NA35311   3.140   0.227   0.554 -0.2809  0.0135  0.4724
 8889NA      NA35312   1.783   2.946   1.972 -0.4359  0.4295  0.4650
 8890NA      NA35313   2.808   2.465   0.488  0.2035  0.0909  0.1246
 8891NA      NA35314   3.185   6.148   1.281 -0.3152 -0.5863  0.0037
 8892NA      NA35315   0.047   2.979   0.245 -0.3545 -0.1513 -0.0909
   6.42900   6.42900   6.42900
