; FAS_GMX.top created by acpype (v: 2022.1.3) on Tue May  3 15:13:02 2022

[ moleculetype ]
;name            nrexcl
 FAS              3

[ atoms ]
;   nr  type  resi  res  atom  cgnr     charge      mass       ; qtot   bond_type
     1   c3     1   FAS     C    1    -0.136400     12.01000 ; qtot -0.136
     2   c3     1   FAS    C1    2     0.108800     12.01000 ; qtot -0.028
     3   n4     1   FAS     N    3    -0.755000     14.01000 ; qtot -0.783
     4   c3     1   FAS    C2    4     0.066800     12.01000 ; qtot -0.716
     5   c3     1   FAS    C3    5     0.201800     12.01000 ; qtot -0.514
     6   n3     1   FAS    N1    6    -0.796500     14.01000 ; qtot -1.311
     7   c3     1   FAS    C4    7     0.207800     12.01000 ; qtot -1.103
     8   sy     1   FAS     S    8     1.511200     32.06000 ; qtot 0.408
     9    o     1   FAS     O    9    -0.649800     16.00000 ; qtot -0.241
    10    o     1   FAS    O1   10    -0.649800     16.00000 ; qtot -0.891
    11   ca     1   FAS    C5   11    -0.434500     12.01000 ; qtot -1.326
    12   ca     1   FAS    C6   12     0.035000     12.01000 ; qtot -1.291
    13   ca     1   FAS    C7   13    -0.180000     12.01000 ; qtot -1.471
    14   ca     1   FAS    C8   14     0.009000     12.01000 ; qtot -1.462
    15   ca     1   FAS    C9   15    -0.200300     12.01000 ; qtot -1.662
    16   ca     1   FAS   C10   16     0.099000     12.01000 ; qtot -1.563
    17   ca     1   FAS   C11   17    -0.285300     12.01000 ; qtot -1.848
    18   ca     1   FAS   C12   18     0.439200     12.01000 ; qtot -1.409
    19   nb     1   FAS    N2   19    -0.652000     14.01000 ; qtot -2.061
    20   ca     1   FAS   C13   20     0.453200     12.01000 ; qtot -1.608
    21   hc     1   FAS     H   21     0.091200      1.00800 ; qtot -1.517
    22   hc     1   FAS    H1   22     0.091200      1.00800 ; qtot -1.425
    23   hx     1   FAS    H2   23     0.119700      1.00800 ; qtot -1.306
    24   hx     1   FAS    H3   24     0.119700      1.00800 ; qtot -1.186
    25   hn     1   FAS    H4   25     0.448300      1.00800 ; qtot -0.738
    26   hx     1   FAS    H5   26     0.113200      1.00800 ; qtot -0.625
    27   hx     1   FAS    H6   27     0.113200      1.00800 ; qtot -0.511
    28   h1     1   FAS    H7   28     0.098700      1.00800 ; qtot -0.413
    29   h1     1   FAS    H8   29     0.098700      1.00800 ; qtot -0.314
    30   h1     1   FAS    H9   30     0.072700      1.00800 ; qtot -0.241
    31   h1     1   FAS   H10   31     0.072700      1.00800 ; qtot -0.169
    32   ha     1   FAS   H11   32     0.166000      1.00800 ; qtot -0.003
    33   ha     1   FAS   H12   33     0.163000      1.00800 ; qtot 0.160
    34   ha     1   FAS   H13   34     0.159000      1.00800 ; qtot 0.319
    35   ha     1   FAS   H14   35     0.153000      1.00800 ; qtot 0.472
    36   h4     1   FAS   H15   36     0.039100      1.00800 ; qtot 0.512
    37   h4     1   FAS   H16   37     0.040100      1.00800 ; qtot 0.552
    38   hn     1   FAS   H17   38     0.448300      1.00800 ; qtot 1.000

[ bonds ]
;   ai     aj funct   r             k
     1      2   1    1.5375e-01    2.5179e+05 ;      C - C1    
     1      7   1    1.5375e-01    2.5179e+05 ;      C - C4    
     1     21   1    1.0969e-01    2.7665e+05 ;      C - H     
     1     22   1    1.0969e-01    2.7665e+05 ;      C - H1    
     2      3   1    1.5110e-01    2.3707e+05 ;     C1 - N     
     2     23   1    1.0910e-01    2.8342e+05 ;     C1 - H2    
     2     24   1    1.0910e-01    2.8342e+05 ;     C1 - H3    
     3      4   1    1.5110e-01    2.3707e+05 ;      N - C2    
     3     25   1    1.0304e-01    3.1229e+05 ;      N - H4    
     3     38   1    1.0304e-01    3.1229e+05 ;      N - H17   
     4      5   1    1.5375e-01    2.5179e+05 ;     C2 - C3    
     4     26   1    1.0910e-01    2.8342e+05 ;     C2 - H5    
     4     27   1    1.0910e-01    2.8342e+05 ;     C2 - H6    
     5      6   1    1.4647e-01    2.7271e+05 ;     C3 - N1    
     5     28   1    1.0969e-01    2.7665e+05 ;     C3 - H7    
     5     29   1    1.0969e-01    2.7665e+05 ;     C3 - H8    
     6      7   1    1.4647e-01    2.7271e+05 ;     N1 - C4    
     6      8   1    1.6962e-01    2.4886e+05 ;     N1 - S     
     7     30   1    1.0969e-01    2.7665e+05 ;     C4 - H9    
     7     31   1    1.0969e-01    2.7665e+05 ;     C4 - H10   
     8      9   1    1.4660e-01    4.1254e+05 ;      S - O     
     8     10   1    1.4660e-01    4.1254e+05 ;      S - O1    
     8     11   1    1.7909e-01    2.0368e+05 ;      S - C5    
    11     12   1    1.3984e-01    3.8585e+05 ;     C5 - C6    
    11     16   1    1.3984e-01    3.8585e+05 ;     C5 - C10   
    12     13   1    1.3984e-01    3.8585e+05 ;     C6 - C7    
    12     32   1    1.0860e-01    2.8937e+05 ;     C6 - H11   
    13     14   1    1.3984e-01    3.8585e+05 ;     C7 - C8    
    13     33   1    1.0860e-01    2.8937e+05 ;     C7 - H12   
    14     15   1    1.3984e-01    3.8585e+05 ;     C8 - C9    
    14     34   1    1.0860e-01    2.8937e+05 ;     C8 - H13   
    15     16   1    1.3984e-01    3.8585e+05 ;     C9 - C10   
    15     20   1    1.3984e-01    3.8585e+05 ;     C9 - C13   
    16     17   1    1.3984e-01    3.8585e+05 ;    C10 - C11   
    17     18   1    1.3984e-01    3.8585e+05 ;    C11 - C12   
    17     35   1    1.0860e-01    2.8937e+05 ;    C11 - H14   
    18     19   1    1.3390e-01    4.0836e+05 ;    C12 - N2    
    18     36   1    1.0890e-01    2.8577e+05 ;    C12 - H15   
    19     20   1    1.3390e-01    4.0836e+05 ;     N2 - C13   
    20     37   1    1.0890e-01    2.8577e+05 ;    C13 - H16   

[ pairs ]
;   ai     aj    funct
     1      4      1 ;      C - C2    
     1      5      1 ;      C - C3    
     1      8      1 ;      C - S     
     1     25      1 ;      C - H4    
     1     38      1 ;      C - H17   
     2      5      1 ;     C1 - C3    
     2      6      1 ;     C1 - N1    
     2     26      1 ;     C1 - H5    
     2     27      1 ;     C1 - H6    
     2     30      1 ;     C1 - H9    
     2     31      1 ;     C1 - H10   
     3      6      1 ;      N - N1    
     3     28      1 ;      N - H7    
     3     29      1 ;      N - H8    
     4      7      1 ;     C2 - C4    
     4      8      1 ;     C2 - S     
     4     23      1 ;     C2 - H2    
     4     24      1 ;     C2 - H3    
     5      9      1 ;     C3 - O     
     5     10      1 ;     C3 - O1    
     5     11      1 ;     C3 - C5    
     5     25      1 ;     C3 - H4    
     5     30      1 ;     C3 - H9    
     5     31      1 ;     C3 - H10   
     5     38      1 ;     C3 - H17   
     6     12      1 ;     N1 - C6    
     6     16      1 ;     N1 - C10   
     6     26      1 ;     N1 - H5    
     6     27      1 ;     N1 - H6    
     7      3      1 ;     C4 - N     
     7      9      1 ;     C4 - O     
     7     10      1 ;     C4 - O1    
     7     11      1 ;     C4 - C5    
     7     23      1 ;     C4 - H2    
     7     24      1 ;     C4 - H3    
     7     28      1 ;     C4 - H7    
     7     29      1 ;     C4 - H8    
     8     13      1 ;      S - C7    
     8     15      1 ;      S - C9    
     8     17      1 ;      S - C11   
     8     28      1 ;      S - H7    
     8     29      1 ;      S - H8    
     8     30      1 ;      S - H9    
     8     31      1 ;      S - H10   
     8     32      1 ;      S - H11   
     9     12      1 ;      O - C6    
     9     16      1 ;      O - C10   
    10     12      1 ;     O1 - C6    
    10     16      1 ;     O1 - C10   
    11     14      1 ;     C5 - C8    
    11     18      1 ;     C5 - C12   
    11     20      1 ;     C5 - C13   
    11     33      1 ;     C5 - H12   
    11     35      1 ;     C5 - H14   
    12     15      1 ;     C6 - C9    
    12     17      1 ;     C6 - C11   
    12     34      1 ;     C6 - H13   
    13     16      1 ;     C7 - C10   
    13     20      1 ;     C7 - C13   
    14     17      1 ;     C8 - C11   
    14     19      1 ;     C8 - N2    
    14     32      1 ;     C8 - H11   
    14     37      1 ;     C8 - H16   
    15     18      1 ;     C9 - C12   
    15     33      1 ;     C9 - H12   
    15     35      1 ;     C9 - H14   
    16     19      1 ;    C10 - N2    
    16     32      1 ;    C10 - H11   
    16     34      1 ;    C10 - H13   
    16     36      1 ;    C10 - H15   
    16     37      1 ;    C10 - H16   
    17     20      1 ;    C11 - C13   
    18     37      1 ;    C12 - H16   
    19     35      1 ;     N2 - H14   
    20     34      1 ;    C13 - H13   
    20     36      1 ;    C13 - H15   
    21      3      1 ;      H - N     
    21      6      1 ;      H - N1    
    21     23      1 ;      H - H2    
    21     24      1 ;      H - H3    
    21     30      1 ;      H - H9    
    21     31      1 ;      H - H10   
    22      3      1 ;     H1 - N     
    22      6      1 ;     H1 - N1    
    22     23      1 ;     H1 - H2    
    22     24      1 ;     H1 - H3    
    22     30      1 ;     H1 - H9    
    22     31      1 ;     H1 - H10   
    23     25      1 ;     H2 - H4    
    23     38      1 ;     H2 - H17   
    24     25      1 ;     H3 - H4    
    24     38      1 ;     H3 - H17   
    25     26      1 ;     H4 - H5    
    25     27      1 ;     H4 - H6    
    26     28      1 ;     H5 - H7    
    26     29      1 ;     H5 - H8    
    26     38      1 ;     H5 - H17   
    27     28      1 ;     H6 - H7    
    27     29      1 ;     H6 - H8    
    27     38      1 ;     H6 - H17   
    32     33      1 ;    H11 - H12   
    33     34      1 ;    H12 - H13   
    35     36      1 ;    H14 - H15   

[ angles ]
;   ai     aj     ak    funct   theta         cth
     1      2      3      1    1.1421e+02    5.3723e+02 ;      C - C1     - N     
     1      2     23      1    1.1056e+02    3.8660e+02 ;      C - C1     - H2    
     1      2     24      1    1.1056e+02    3.8660e+02 ;      C - C1     - H3    
     1      7      6      1    1.1104e+02    5.5229e+02 ;      C - C4     - N1    
     1      7     30      1    1.0956e+02    3.8828e+02 ;      C - C4     - H9    
     1      7     31      1    1.0956e+02    3.8828e+02 ;      C - C4     - H10   
     2      1      7      1    1.1151e+02    5.2635e+02 ;     C1 - C      - C4    
     2      1     21      1    1.0980e+02    3.8744e+02 ;     C1 - C      - H     
     2      1     22      1    1.0980e+02    3.8744e+02 ;     C1 - C      - H1    
     2      3      4      1    1.0966e+02    5.2384e+02 ;     C1 - N      - C2    
     2      3     25      1    1.1011e+02    3.8409e+02 ;     C1 - N      - H4    
     2      3     38      1    1.1011e+02    3.8409e+02 ;     C1 - N      - H17   
     3      2     23      1    1.0801e+02    4.0668e+02 ;      N - C1     - H2    
     3      2     24      1    1.0801e+02    4.0668e+02 ;      N - C1     - H3    
     3      4      5      1    1.1421e+02    5.3723e+02 ;      N - C2     - C3    
     3      4     26      1    1.0801e+02    4.0668e+02 ;      N - C2     - H5    
     3      4     27      1    1.0801e+02    4.0668e+02 ;      N - C2     - H6    
     4      3     25      1    1.1011e+02    3.8409e+02 ;     C2 - N      - H4    
     4      3     38      1    1.1011e+02    3.8409e+02 ;     C2 - N      - H17   
     4      5      6      1    1.1104e+02    5.5229e+02 ;     C2 - C3     - N1    
     4      5     28      1    1.0956e+02    3.8828e+02 ;     C2 - C3     - H7    
     4      5     29      1    1.0956e+02    3.8828e+02 ;     C2 - C3     - H8    
     5      4     26      1    1.1056e+02    3.8660e+02 ;     C3 - C2     - H5    
     5      4     27      1    1.1056e+02    3.8660e+02 ;     C3 - C2     - H6    
     5      6      7      1    1.1235e+02    5.3388e+02 ;     C3 - N1     - C4    
     5      6      8      1    1.1525e+02    5.2300e+02 ;     C3 - N1     - S     
     6      5     28      1    1.0988e+02    4.1422e+02 ;     N1 - C3     - H7    
     6      5     29      1    1.0988e+02    4.1422e+02 ;     N1 - C3     - H8    
     6      7     30      1    1.0988e+02    4.1422e+02 ;     N1 - C4     - H9    
     6      7     31      1    1.0988e+02    4.1422e+02 ;     N1 - C4     - H10   
     6      8      9      1    1.0713e+02    5.8911e+02 ;     N1 - S      - O     
     6      8     10      1    1.0713e+02    5.8911e+02 ;     N1 - S      - O1    
     6      8     11      1    1.0244e+02    5.3555e+02 ;     N1 - S      - C5    
     7      1     21      1    1.0980e+02    3.8744e+02 ;     C4 - C      - H     
     7      1     22      1    1.0980e+02    3.8744e+02 ;     C4 - C      - H1    
     7      6      8      1    1.1525e+02    5.2300e+02 ;     C4 - N1     - S     
     8     11     12      1    1.1942e+02    5.1463e+02 ;      S - C5     - C6    
     8     11     16      1    1.1942e+02    5.1463e+02 ;      S - C5     - C10   
     9      8     10      1    1.2141e+02    6.0668e+02 ;      O - S      - O1    
     9      8     11      1    1.0835e+02    5.5061e+02 ;      O - S      - C5    
    10      8     11      1    1.0835e+02    5.5061e+02 ;     O1 - S      - C5    
    11     12     13      1    1.2002e+02    5.5731e+02 ;     C5 - C6     - C7    
    11     12     32      1    1.1988e+02    4.0334e+02 ;     C5 - C6     - H11   
    11     16     15      1    1.2002e+02    5.5731e+02 ;     C5 - C10    - C9    
    11     16     17      1    1.2002e+02    5.5731e+02 ;     C5 - C10    - C11   
    12     11     16      1    1.2002e+02    5.5731e+02 ;     C6 - C5     - C10   
    12     13     14      1    1.2002e+02    5.5731e+02 ;     C6 - C7     - C8    
    12     13     33      1    1.1988e+02    4.0334e+02 ;     C6 - C7     - H12   
    13     12     32      1    1.1988e+02    4.0334e+02 ;     C7 - C6     - H11   
    13     14     15      1    1.2002e+02    5.5731e+02 ;     C7 - C8     - C9    
    13     14     34      1    1.1988e+02    4.0334e+02 ;     C7 - C8     - H13   
    14     13     33      1    1.1988e+02    4.0334e+02 ;     C8 - C7     - H12   
    14     15     16      1    1.2002e+02    5.5731e+02 ;     C8 - C9     - C10   
    14     15     20      1    1.2002e+02    5.5731e+02 ;     C8 - C9     - C13   
    15     14     34      1    1.1988e+02    4.0334e+02 ;     C9 - C8     - H13   
    15     16     17      1    1.2002e+02    5.5731e+02 ;     C9 - C10    - C11   
    15     20     19      1    1.2294e+02    5.7572e+02 ;     C9 - C13    - N2    
    15     20     37      1    1.2034e+02    4.0250e+02 ;     C9 - C13    - H16   
    16     15     20      1    1.2002e+02    5.5731e+02 ;    C10 - C9     - C13   
    16     17     18      1    1.2002e+02    5.5731e+02 ;    C10 - C11    - C12   
    16     17     35      1    1.1988e+02    4.0334e+02 ;    C10 - C11    - H14   
    17     18     19      1    1.2294e+02    5.7572e+02 ;    C11 - C12    - N2    
    17     18     36      1    1.2034e+02    4.0250e+02 ;    C11 - C12    - H15   
    18     17     35      1    1.1988e+02    4.0334e+02 ;    C12 - C11    - H14   
    18     19     20      1    1.1722e+02    5.7153e+02 ;    C12 - N2     - C13   
    19     18     36      1    1.1603e+02    4.3430e+02 ;     N2 - C12    - H15   
    19     20     37      1    1.1603e+02    4.3430e+02 ;     N2 - C13    - H16   
    21      1     22      1    1.0758e+02    3.2970e+02 ;      H - C      - H1    
    23      2     24      1    1.0975e+02    3.2803e+02 ;     H2 - C1     - H3    
    25      3     38      1    1.0830e+02    3.3974e+02 ;     H4 - N      - H17   
    26      4     27      1    1.0975e+02    3.2803e+02 ;     H5 - C2     - H6    
    28      5     29      1    1.0846e+02    3.2803e+02 ;     H7 - C3     - H8    
    30      7     31      1    1.0846e+02    3.2803e+02 ;     H9 - C4     - H10   

[ dihedrals ] ; propers
; for gromacs 4.5 or higher, using funct 9
;    i      j      k      l   func   phase     kd      pn
     1      2      3      4      9     0.00   0.65084   3 ;      C-    C1-     N-    C2
     1      2      3     25      9     0.00   0.65084   3 ;      C-    C1-     N-    H4
     1      2      3     38      9     0.00   0.65084   3 ;      C-    C1-     N-   H17
     1      7      6      5      9     0.00   1.25520   3 ;      C-    C4-    N1-    C3
     1      7      6      5      9   180.00   2.00832   2 ;      C-    C4-    N1-    C3
     1      7      6      8      9     0.00   1.25520   3 ;      C-    C4-    N1-     S
     2      1      7      6      9     0.00   0.65084   3 ;     C1-     C-    C4-    N1
     2      1      7     30      9     0.00   0.65084   3 ;     C1-     C-    C4-    H9
     2      1      7     31      9     0.00   0.65084   3 ;     C1-     C-    C4-   H10
     2      3      4      5      9     0.00   0.65084   3 ;     C1-     N-    C2-    C3
     2      3      4     26      9     0.00   0.65084   3 ;     C1-     N-    C2-    H5
     2      3      4     27      9     0.00   0.65084   3 ;     C1-     N-    C2-    H6
     3      4      5      6      9     0.00   0.65084   3 ;      N-    C2-    C3-    N1
     3      4      5     28      9     0.00   0.65084   3 ;      N-    C2-    C3-    H7
     3      4      5     29      9     0.00   0.65084   3 ;      N-    C2-    C3-    H8
     4      3      2     23      9     0.00   0.65084   3 ;     C2-     N-    C1-    H2
     4      3      2     24      9     0.00   0.65084   3 ;     C2-     N-    C1-    H3
     4      5      6      7      9     0.00   1.25520   3 ;     C2-    C3-    N1-    C4
     4      5      6      7      9   180.00   2.00832   2 ;     C2-    C3-    N1-    C4
     4      5      6      8      9     0.00   1.25520   3 ;     C2-    C3-    N1-     S
     5      4      3     25      9     0.00   0.65084   3 ;     C3-    C2-     N-    H4
     5      4      3     38      9     0.00   0.65084   3 ;     C3-    C2-     N-   H17
     5      6      7     30      9     0.00   1.25520   3 ;     C3-    N1-    C4-    H9
     5      6      7     31      9     0.00   1.25520   3 ;     C3-    N1-    C4-   H10
     5      6      8      9      9     0.00  13.10987   2 ;     C3-    N1-     S-     O
     5      6      8     10      9     0.00  13.10987   2 ;     C3-    N1-     S-    O1
     5      6      8     11      9     0.00  13.10987   2 ;     C3-    N1-     S-    C5
     6      5      4     26      9     0.00   0.65084   3 ;     N1-    C3-    C2-    H5
     6      5      4     27      9     0.00   0.65084   3 ;     N1-    C3-    C2-    H6
     6      8     11     12      9   180.00   5.43920   2 ;     N1-     S-    C5-    C6
     6      8     11     16      9   180.00   5.43920   2 ;     N1-     S-    C5-   C10
     7      1      2      3      9     0.00   0.65084   3 ;     C4-     C-    C1-     N
     7      1      2     23      9     0.00   0.65084   3 ;     C4-     C-    C1-    H2
     7      1      2     24      9     0.00   0.65084   3 ;     C4-     C-    C1-    H3
     7      6      5     28      9     0.00   1.25520   3 ;     C4-    N1-    C3-    H7
     7      6      5     29      9     0.00   1.25520   3 ;     C4-    N1-    C3-    H8
     7      6      8      9      9     0.00  13.10987   2 ;     C4-    N1-     S-     O
     7      6      8     10      9     0.00  13.10987   2 ;     C4-    N1-     S-    O1
     7      6      8     11      9     0.00  13.10987   2 ;     C4-    N1-     S-    C5
     8      6      5     28      9     0.00   1.25520   3 ;      S-    N1-    C3-    H7
     8      6      5     29      9     0.00   1.25520   3 ;      S-    N1-    C3-    H8
     8      6      7     30      9     0.00   1.25520   3 ;      S-    N1-    C4-    H9
     8      6      7     31      9     0.00   1.25520   3 ;      S-    N1-    C4-   H10
     8     11     12     13      9   180.00  15.16700   2 ;      S-    C5-    C6-    C7
     8     11     12     32      9   180.00  15.16700   2 ;      S-    C5-    C6-   H11
     8     11     16     15      9   180.00  15.16700   2 ;      S-    C5-   C10-    C9
     8     11     16     17      9   180.00  15.16700   2 ;      S-    C5-   C10-   C11
     9      8     11     12      9   180.00   5.43920   2 ;      O-     S-    C5-    C6
     9      8     11     16      9   180.00   5.43920   2 ;      O-     S-    C5-   C10
    10      8     11     12      9   180.00   5.43920   2 ;     O1-     S-    C5-    C6
    10      8     11     16      9   180.00   5.43920   2 ;     O1-     S-    C5-   C10
    11     12     13     14      9   180.00  15.16700   2 ;     C5-    C6-    C7-    C8
    11     12     13     33      9   180.00  15.16700   2 ;     C5-    C6-    C7-   H12
    11     16     15     14      9   180.00  15.16700   2 ;     C5-   C10-    C9-    C8
    11     16     15     20      9   180.00  15.16700   2 ;     C5-   C10-    C9-   C13
    11     16     17     18      9   180.00  15.16700   2 ;     C5-   C10-   C11-   C12
    11     16     17     35      9   180.00  15.16700   2 ;     C5-   C10-   C11-   H14
    12     11     16     15      9   180.00  15.16700   2 ;     C6-    C5-   C10-    C9
    12     11     16     17      9   180.00  15.16700   2 ;     C6-    C5-   C10-   C11
    12     13     14     15      9   180.00  15.16700   2 ;     C6-    C7-    C8-    C9
    12     13     14     34      9   180.00  15.16700   2 ;     C6-    C7-    C8-   H13
    13     12     11     16      9   180.00  15.16700   2 ;     C7-    C6-    C5-   C10
    13     14     15     16      9   180.00  15.16700   2 ;     C7-    C8-    C9-   C10
    13     14     15     20      9   180.00  15.16700   2 ;     C7-    C8-    C9-   C13
    14     13     12     32      9   180.00  15.16700   2 ;     C8-    C7-    C6-   H11
    14     15     16     17      9   180.00  15.16700   2 ;     C8-    C9-   C10-   C11
    14     15     20     19      9   180.00  15.16700   2 ;     C8-    C9-   C13-    N2
    14     15     20     37      9   180.00  15.16700   2 ;     C8-    C9-   C13-   H16
    15     14     13     33      9   180.00  15.16700   2 ;     C9-    C8-    C7-   H12
    15     16     17     18      9   180.00  15.16700   2 ;     C9-   C10-   C11-   C12
    15     16     17     35      9   180.00  15.16700   2 ;     C9-   C10-   C11-   H14
    15     20     19     18      9   180.00  20.08320   2 ;     C9-   C13-    N2-   C12
    16     11     12     32      9   180.00  15.16700   2 ;    C10-    C5-    C6-   H11
    16     15     14     34      9   180.00  15.16700   2 ;    C10-    C9-    C8-   H13
    16     15     20     19      9   180.00  15.16700   2 ;    C10-    C9-   C13-    N2
    16     15     20     37      9   180.00  15.16700   2 ;    C10-    C9-   C13-   H16
    16     17     18     19      9   180.00  15.16700   2 ;    C10-   C11-   C12-    N2
    16     17     18     36      9   180.00  15.16700   2 ;    C10-   C11-   C12-   H15
    17     16     15     20      9   180.00  15.16700   2 ;    C11-   C10-    C9-   C13
    17     18     19     20      9   180.00  20.08320   2 ;    C11-   C12-    N2-   C13
    18     19     20     37      9   180.00  20.08320   2 ;    C12-    N2-   C13-   H16
    19     18     17     35      9   180.00  15.16700   2 ;     N2-   C12-   C11-   H14
    20     15     14     34      9   180.00  15.16700   2 ;    C13-    C9-    C8-   H13
    20     19     18     36      9   180.00  20.08320   2 ;    C13-    N2-   C12-   H15
    21      1      2      3      9     0.00   0.65084   3 ;      H-     C-    C1-     N
    21      1      2     23      9     0.00   0.65084   3 ;      H-     C-    C1-    H2
    21      1      2     24      9     0.00   0.65084   3 ;      H-     C-    C1-    H3
    21      1      7      6      9     0.00   0.65084   3 ;      H-     C-    C4-    N1
    21      1      7     30      9     0.00   0.65084   3 ;      H-     C-    C4-    H9
    21      1      7     31      9     0.00   0.65084   3 ;      H-     C-    C4-   H10
    22      1      2      3      9     0.00   0.65084   3 ;     H1-     C-    C1-     N
    22      1      2     23      9     0.00   0.65084   3 ;     H1-     C-    C1-    H2
    22      1      2     24      9     0.00   0.65084   3 ;     H1-     C-    C1-    H3
    22      1      7      6      9     0.00   0.65084   3 ;     H1-     C-    C4-    N1
    22      1      7     30      9     0.00   0.65084   3 ;     H1-     C-    C4-    H9
    22      1      7     31      9     0.00   0.65084   3 ;     H1-     C-    C4-   H10
    23      2      3     25      9     0.00   0.65084   3 ;     H2-    C1-     N-    H4
    23      2      3     38      9     0.00   0.65084   3 ;     H2-    C1-     N-   H17
    24      2      3     25      9     0.00   0.65084   3 ;     H3-    C1-     N-    H4
    24      2      3     38      9     0.00   0.65084   3 ;     H3-    C1-     N-   H17
    25      3      4     26      9     0.00   0.65084   3 ;     H4-     N-    C2-    H5
    25      3      4     27      9     0.00   0.65084   3 ;     H4-     N-    C2-    H6
    26      4      3     38      9     0.00   0.65084   3 ;     H5-    C2-     N-   H17
    26      4      5     28      9     0.00   0.65084   3 ;     H5-    C2-    C3-    H7
    26      4      5     29      9     0.00   0.65084   3 ;     H5-    C2-    C3-    H8
    27      4      3     38      9     0.00   0.65084   3 ;     H6-    C2-     N-   H17
    27      4      5     28      9     0.00   0.65084   3 ;     H6-    C2-    C3-    H7
    27      4      5     29      9     0.00   0.65084   3 ;     H6-    C2-    C3-    H8
    32     12     13     33      9   180.00  15.16700   2 ;    H11-    C6-    C7-   H12
    33     13     14     34      9   180.00  15.16700   2 ;    H12-    C7-    C8-   H13
    35     17     18     36      9   180.00  15.16700   2 ;    H14-   C11-   C12-   H15

[ dihedrals ] ; impropers
; treated as propers in GROMACS to use correct AMBER analytical function
;    i      j      k      l   func   phase     kd      pn
    11     13     12     32      4   180.00   4.60240   2 ;     C5-    C7-    C6-   H11
    11     15     16     17      4   180.00   4.60240   2 ;     C5-    C9-   C10-   C11
    12     14     13     33      4   180.00   4.60240   2 ;     C6-    C8-    C7-   H12
    12     16     11      8      4   180.00   4.60240   2 ;     C6-   C10-    C5-     S
    13     15     14     34      4   180.00   4.60240   2 ;     C7-    C9-    C8-   H13
    14     16     15     20      4   180.00   4.60240   2 ;     C8-   C10-    C9-   C13
    15     37     20     19      4   180.00   4.60240   2 ;     C9-   H16-   C13-    N2
    16     18     17     35      4   180.00   4.60240   2 ;    C10-   C12-   C11-   H14
    17     36     18     19      4   180.00   4.60240   2 ;    C11-   H15-   C12-    N2

;[ system ]
; FAS

;[ molecules ]
; Compound        nmols
; FAS              1     
